/*--------------------------------*- C++ -*----------------------------------*\
| =========                 |                                                 |
| \\      /  F ield         | OpenFOAM: The Open Source CFD Toolbox           |
|  \\    /   O peration     | Version:  v2012                                 |
|   \\  /    A nd           | Website:  www.openfoam.com                      |
|    \\/     M anipulation  |                                                 |
\*---------------------------------------------------------------------------*/
FoamFile
{
    version     2.0;
    format      ascii;
    class       volVectorField;
    location    "50";
    object      U;
}
// * * * * * * * * * * * * * * * * * * * * * * * * * * * * * * * * * * * * * //

dimensions      [0 1 -1 0 0 0 0];


internalField   nonuniform List<vector> 
13749
(
(1.01302 0.000598591 -3.16115e-21)
(1.06074 0.0195562 -1.47833e-20)
(0.987401 -0.00727808 0)
(1.02169 0.0572328 3.6063e-22)
(0.989792 0.046175 0)
(1.05881 0.0447971 1.63851e-20)
(0.965641 0.19024 1.06325e-20)
(1.03517 0.00760666 0)
(0.992447 0.00628306 6.70513e-22)
(1.02258 0.0557063 -5.20323e-22)
(1.06021 0.0151725 0)
(1.00054 0.0042327 9.8539e-21)
(1.03989 0.0646889 -1.17847e-21)
(0.925034 0.0145559 0)
(0.763526 0.0113621 0)
(1.04189 0.00736011 -5.79197e-21)
(0.989124 0.0148551 -7.11422e-21)
(1.0602 0.0218484 0)
(1.00191 0.00350316 7.07361e-21)
(0.997142 -0.000485702 -1.82071e-21)
(0.341055 0.00155586 -2.05244e-20)
(0.742999 0.0123836 3.5817e-21)
(0.985015 0.0166466 -2.58505e-21)
(1.06337 0.00980566 0)
(0.987691 0.045951 0)
(1.05126 0.0332268 2.03409e-20)
(1.0492 0.0342576 6.9269e-21)
(1.04007 0.0508397 -8.77088e-21)
(1.01509 0.00540269 3.33042e-21)
(0.970576 0.0191776 -1.77257e-21)
(1.12967 0.207252 2.63993e-21)
(0.571881 0.0171268 0)
(0.921791 0.0456079 -1.44323e-20)
(1.05579 0.0111424 1.49874e-20)
(1.01015 0.0111987 4.93518e-22)
(1.01382 0.00496926 0)
(0.986077 -0.00621383 8.53421e-21)
(0.993374 0.0193844 -9.46835e-21)
(1.03675 0.0277716 -3.81797e-21)
(1.05465 0.0192876 1.11072e-20)
(1.05813 0.0456384 -1.92629e-20)
(0.256516 0.00601603 1.46081e-20)
(0.940198 0.0221904 0)
(0.92421 -0.0062477 0)
(1.06028 0.0219232 -2.38777e-22)
(1.03863 0.0416703 0)
(1.0001 0.0041108 0)
(1.05991 0.0296285 9.08966e-21)
(1.01759 0.0132791 0)
(0.0383975 -0.0165833 -5.66792e-20)
(1.06356 0.0104409 2.79406e-21)
(0.352677 0.00131789 1.82002e-20)
(1.05491 0.0196904 -1.2892e-20)
(1.06967 0.0229708 9.24211e-21)
(0.999536 0.0804482 0)
(1.01706 0.0132911 -1.5807e-21)
(1.04378 0.0609143 -1.38e-23)
(0.924944 0.0432358 0)
(1.01216 0.0139832 4.85753e-21)
(1.03444 0.0181394 -1.23976e-20)
(1.00175 0.0186855 4.35737e-21)
(1.02447 0.0366543 0)
(0.587645 0.0150042 0)
(1.00044 0.00396452 -1.03089e-20)
(1.02275 0.0270344 8.70445e-22)
(0.94738 0.0123785 5.567e-21)
(0.992289 0.0067942 -5.48164e-22)
(0.993941 0.0186709 0)
(1.0447 0.00781448 1.39415e-20)
(1.03834 0.0405473 0)
(0.757928 0.0152993 -2.25476e-20)
(1.00746 0.00136929 5.12173e-21)
(1.05451 0.0202762 -1.04792e-20)
(1.01774 0.0172585 3.38169e-21)
(1.06867 0.0120742 -4.28916e-21)
(1.06919 0.144398 -4.09895e-21)
(1.04127 0.0128749 0)
(1.01201 0.014532 0)
(1.04407 0.0591771 7.10105e-21)
(1.00001 0.000465126 0)
(1.01409 0.00523339 1.74109e-21)
(0.980869 0.0428891 -1.13815e-20)
(1.06388 0.00932382 3.1712e-21)
(1.01534 0.0056153 -2.14236e-21)
(1.05739 0.0568451 -6.61676e-21)
(1.05335 0.144709 9.45239e-21)
(0.957672 0.0139155 6.68618e-21)
(1.06428 0.0251001 5.34127e-21)
(1.00983 0.0107612 -5.14794e-22)
(1.05943 0.0287585 -7.11082e-23)
(1.00723 0.00731559 2.0492e-21)
(1.07112 0.0226284 0)
(1.02665 0.0316357 0)
(1.12451 0.0370105 0)
(0.774646 0.286031 0)
(1.05802 0.0233203 8.53113e-21)
(1.04577 0.0189807 0)
(0.995785 -0.00404684 -7.38115e-21)
(1.00749 0.00158877 0)
(0.949916 0.012523 9.1242e-21)
(0.45828 0.00769508 2.49682e-20)
(1.0134 0.00506412 0)
(1.0416 0.0166201 3.47254e-21)
(0.695867 0.0112675 -1.60475e-21)
(0.999784 -0.00117347 -2.05353e-21)
(0.712877 0.0109425 1.64123e-21)
(1.06111 0.0314842 0)
(0.994576 0.00743442 1.15447e-20)
(1.05942 0.0282519 2.3115e-22)
(0.996276 0.00392728 9.69896e-21)
(1.00047 0.00447768 -9.56705e-21)
(0.937156 0.0224561 -8.80836e-21)
(1.06173 0.0316763 -6.60309e-21)
(0.461226 0.0469558 5.9736e-20)
(0.417115 0.00510469 -3.20387e-21)
(1.02689 0.0166636 1.97918e-21)
(1.01316 0.00474066 -3.65587e-21)
(0.997446 0.0783738 -2.55659e-21)
(0.973257 -0.0134164 0)
(1.01364 0.0130793 -3.41683e-21)
(1.03479 0.00786179 -7.51383e-22)
(1.00014 0.000120751 -3.1931e-21)
(1.01371 0.000879173 2.5142e-21)
(1.01616 0.00411698 -6.64669e-22)
(0.985064 0.0429661 -2.59348e-21)
(0.767285 0.0159368 2.10622e-20)
(1.05853 0.0434267 0)
(0.737947 0.0070501 -1.1012e-20)
(1.04525 0.0262228 2.37254e-21)
(1.05856 0.0208695 1.9737e-20)
(1.03196 0.0529 4.13782e-21)
(0.910477 0.013551 -7.05605e-21)
(0.923048 0.0120286 -8.81985e-23)
(1.06655 0.0232634 4.5368e-21)
(1.04804 0.052433 -1.1897e-20)
(0.95909 0.0011443 3.94392e-20)
(1.0686 0.0127697 0)
(1.0177 0.0124739 2.95358e-21)
(1.03273 0.0166783 4.66016e-23)
(0.0678775 -0.00791188 0)
(0.857301 0.0361776 4.77251e-20)
(1.05039 0.0233407 -2.93994e-23)
(1.04074 0.0278776 2.96088e-21)
(0.575979 -0.013353 2.18726e-20)
(1.00836 0.00187922 2.03185e-21)
(0.0226331 -0.0089436 0)
(1.04128 0.0552144 5.29572e-21)
(0.993717 0.11079 -4.95366e-21)
(0.972925 -0.00697059 1.67411e-20)
(1.05895 0.0211559 1.24715e-20)
(1.00811 0.00174277 0)
(1.05453 0.010171 0)
(0.74278 0.0103142 -8.65394e-21)
(1.07954 0.0235691 -2.2463e-20)
(1.0452 0.00977431 0)
(0.498613 0.0105615 0)
(1.04153 0.0533931 1.07686e-22)
(1.04571 0.0642095 0)
(1.06081 0.0197909 1.36104e-20)
(0.998541 0.00920835 1.86782e-20)
(0.687763 0.0974178 1.74665e-20)
(1.00281 0.00129374 -3.40803e-21)
(0.234403 -0.00835082 5.11341e-20)
(0.922082 0.0494222 1.70832e-20)
(0.997464 0.00105898 -6.73698e-23)
(0.998317 0.0146702 -2.1714e-20)
(1.06423 0.0254947 9.69774e-21)
(0.98808 -0.00763888 0)
(0.969838 0.0207686 -2.66939e-20)
(1.04015 0.0669486 -3.0313e-21)
(1.04109 0.028683 0)
(0.996008 0.00413931 0)
(1.01784 0.0129095 0)
(1.05049 0.0176937 0)
(0.961871 0.0052096 4.71331e-21)
(0.971292 0.199005 0)
(1.07504 0.145313 6.37913e-21)
(1.04492 0.0102348 -3.77061e-21)
(0.716222 0.00772336 2.08002e-20)
(0.685201 0.00523096 3.52483e-21)
(0.9999 -0.000849085 1.85527e-21)
(1.05548 0.010655 -5.72359e-21)
(1.04555 0.0213111 -6.49331e-21)
(0.826952 0.345006 -7.15443e-21)
(1.06986 0.0224117 -1.57346e-20)
(0.960088 0.00506455 0)
(0.561616 -0.0117272 -3.71791e-20)
(1.01163 0.039855 -4.51225e-21)
(1.15633 0.0650353 4.49857e-20)
(1.00217 0.0192588 -1.55455e-21)
(1.04589 0.0218922 1.23477e-20)
(0.972926 0.0161579 1.63546e-20)
(1.03774 0.00937537 3.09866e-21)
(1.06976 0.0477803 -2.92113e-20)
(0.544195 -0.00820821 6.24263e-21)
(1.05909 0.142621 -1.39337e-20)
(1.05769 0.0426435 8.14691e-21)
(-0.0824941 -0.0146835 0)
(1.01401 0.000634326 0)
(1.04482 0.0267019 4.44307e-21)
(1.01834 0.00739528 0)
(1.06262 0.0108179 1.23115e-20)
(1.04564 0.0621688 1.25269e-23)
(0.947831 0.0333176 1.83436e-21)
(0.619907 0.0183162 5.39558e-21)
(1.0303 0.0218742 -1.18536e-21)
(1.01098 0.0129977 -3.1868e-21)
(1.07019 0.0466792 2.5192e-20)
(1.06949 0.0226253 0)
(1.06446 0.0370084 0)
(1.02747 0.0169581 -1.80827e-21)
(0.955265 0.0154764 1.56821e-21)
(0.217062 0.00345284 -1.82135e-20)
(0.8631 0.262619 5.14341e-21)
(1.0501 0.0341135 -7.25565e-21)
(1.06721 0.0423309 2.06631e-20)
(0.645103 0.0187245 0)
(1.05762 0.0135254 0)
(0.612552 0.0192146 -1.55834e-20)
(1.01471 0.00542513 0)
(1.1887 0.154156 -7.77023e-20)
(0.950367 0.0325514 0)
(1.06927 0.023038 -2.48689e-20)
(1.03609 0.0158234 0)
(0.949019 0.0851998 1.17643e-20)
(1.06994 0.0220977 0)
(1.03057 0.0225768 0)
(0.849592 0.0366538 -5.27998e-20)
(0.629216 0.0180766 0)
(0.975902 0.0165291 5.48935e-21)
(0.991027 -0.00318922 2.13721e-20)
(0.999996 -6.64398e-05 -8.06119e-21)
(1.00019 0.000140209 0)
(1.00022 0.00413352 0)
(0.812305 0.0137912 1.75262e-20)
(0.983788 0.0437215 1.33945e-20)
(0.981892 0.162767 -6.27377e-21)
(1.07 0.0227973 1.48705e-20)
(0.997445 -0.000568882 1.66472e-21)
(0.989913 0.0146763 0)
(0.989869 0.049924 -2.34324e-21)
(1.01112 0.0144154 0)
(1.03355 0.0195923 -5.37763e-21)
(1.05992 0.0248687 5.82072e-21)
(1.06136 0.0537966 -2.14015e-20)
(0.579789 -0.00924394 -4.5434e-23)
(0.980748 0.0408612 2.66346e-20)
(0.600439 0.0218542 7.57873e-22)
(1.03931 0.0388849 1.60168e-21)
(0.99297 0.0009465 4.98257e-22)
(0.149777 -0.0131203 -2.14193e-20)
(0.958869 0.00242674 -3.61573e-20)
(1.00577 0.000579605 -5.07072e-21)
(1.02676 0.0325598 2.86204e-22)
(0.854994 0.0705821 0)
(1.04965 0.0232333 7.1019e-21)
(0.994236 0.00708053 -1.14205e-20)
(0.199518 -0.00256844 -3.29534e-20)
(1.05143 0.151664 -5.99463e-21)
(0.627348 0.0152401 0)
(1.01932 0.00776461 9.47712e-22)
(0.919813 0.0761061 7.12105e-21)
(1.05996 0.0290409 9.60885e-21)
(1.01878 0.0377361 1.20104e-21)
(0.972234 -0.00258689 2.04264e-20)
(1.06807 0.0129982 -2.32311e-21)
(1.06571 0.0229076 -2.69402e-20)
(1.05171 0.0339074 -1.16158e-20)
(0.895134 0.157524 2.54494e-20)
(0.848593 0.0648402 1.17992e-19)
(1.0142 0.00172593 6.20515e-21)
(0.382931 0.00646827 2.03523e-21)
(1.0596 0.018446 -1.3552e-20)
(0.548812 -0.0136228 0)
(1.01128 0.0387898 5.64705e-23)
(0.532473 0.0121464 5.3351e-21)
(0.197465 0.00311346 -1.21148e-21)
(1.05198 0.0154035 1.06575e-20)
(0.850347 0.0548045 -4.16741e-20)
(1.04983 0.0176427 -6.45426e-21)
(0.998564 0.0140545 9.23378e-21)
(1.01611 0.015924 2.14967e-22)
(1.08931 0.0255946 -3.69087e-21)
(0.295745 -0.00238033 -2.43214e-21)
(1.05137 0.0236384 -1.39233e-20)
(0.971692 -0.00800287 -1.84624e-20)
(1.05233 0.0452975 -1.09612e-20)
(1.0127 0.0140008 0)
(1.15351 0.0686664 -1.59127e-20)
(0.992512 0.0439042 0)
(1.06414 0.0222184 -4.75415e-21)
(1.016 0.0137757 0)
(0.599485 0.0193588 2.25789e-20)
(1.06057 0.0148528 -5.02214e-21)
(0.797186 0.0133479 0)
(1.06924 0.0227808 -5.15878e-21)
(0.994925 -0.00332427 1.75836e-20)
(1.01283 0.00303032 0)
(1.03515 0.0236074 -6.86748e-21)
(1.01291 0.000728981 4.18673e-21)
(1.04169 0.0132648 -3.70802e-21)
(1.01007 0.0104022 -4.32388e-21)
(1.0545 0.00908523 0)
(0.130831 -0.0104969 1.97885e-20)
(1.05485 0.00960885 0)
(1.01972 0.00780547 2.6124e-22)
(1.02574 0.0132747 -3.29494e-22)
(0.997648 0.000898896 -7.34985e-21)
(1.03548 0.0106739 0)
(1.0518 0.0170122 0)
(0.364108 0.00594548 0)
(1.05816 0.0482319 -6.46525e-21)
(1.01957 0.0306549 0)
(0.608246 0.00672185 3.87011e-21)
(1.01402 0.00150556 -4.01453e-21)
(0.990713 0.0438424 0)
(1.04204 0.0169597 4.33304e-21)
(0.798233 0.014263 3.79917e-21)
(1.01416 0.0130058 0)
(1.04513 0.0134367 4.69734e-21)
(1.0683 0.0277023 0)
(0.31459 0.00848874 2.50305e-20)
(1.05522 0.0252935 -9.75292e-23)
(1 8.71355e-05 0)
(-0.0743066 -0.0165052 6.95115e-20)
(0.99993 -0.000195781 -7.35007e-21)
(1.0098 0.00998808 4.0495e-21)
(1.01797 0.00899103 0)
(0.993239 0.0100735 0)
(0.970863 -0.00357359 1.74855e-20)
(1.01772 0.00921141 0)
(1.0005 0.00379547 1.11275e-20)
(1.01645 0.00428567 1.29918e-21)
(1.04143 0.0500026 -4.29285e-21)
(1.01879 0.0307251 -1.24057e-21)
(1.03208 0.0165323 0)
(1.01717 0.0168827 -3.17001e-21)
(1.04867 0.0350351 0)
(0.99306 0.00971812 -3.26358e-22)
(0.945067 0.0867672 -1.55865e-20)
(0.995111 -0.00574413 -1.04821e-20)
(1.12124 0.215268 -3.06526e-21)
(1.01757 0.037841 -2.33106e-21)
(1.03977 0.0162311 -3.33263e-21)
(1.06443 0.0361054 -1.05908e-20)
(1.0332 0.0164987 -2.01173e-21)
(1.04446 0.0135234 0)
(0.966228 0.00180316 2.55017e-20)
(1.01222 0.0178249 5.18103e-21)
(0.993798 0.00887365 -6.66519e-21)
(1.00021 0.0227574 7.75008e-21)
(0.999851 0.0236263 0)
(0.136662 -0.000942949 -2.07985e-21)
(0.828207 0.209471 6.96944e-20)
(1.02557 0.0365299 -1.00802e-22)
(1.00629 0.0166733 5.22148e-21)
(1.05799 0.0618801 1.38388e-20)
(1.06852 0.0170988 0)
(1.03621 0.099624 -5.6446e-21)
(1.14213 0.237621 6.34101e-20)
(0.991632 -0.00318583 0)
(0.999976 -9.84252e-05 7.26378e-21)
(1.01548 0.0137412 0)
(0.262728 0.00264358 0)
(0.837645 0.0241297 0)
(0.999159 0.0102679 -5.14004e-23)
(0.997888 0.112857 0)
(0.390272 0.00737627 -3.98097e-21)
(0.760384 0.0104009 0)
(0.995504 -0.00201459 1.69768e-20)
(0.815388 0.0139481 0)
(1.05063 0.0230326 6.8167e-21)
(0.913712 0.0639193 6.15182e-20)
(1.00001 0.000354282 -6.69226e-21)
(0.999074 0.00981338 -4.38291e-21)
(1.02843 0.0298087 0)
(1.03035 0.10325 2.56471e-21)
(-0.0299205 -0.0105966 0)
(1.0752 0.0422932 7.71588e-21)
(1.04569 0.020142 0)
(0.999509 -0.00136093 5.65144e-21)
(0.995488 -0.00452815 0)
(0.741424 0.0111174 -1.94637e-20)
(0.96658 0.00348939 -2.35552e-20)
(0.999893 -0.000184178 8.8815e-21)
(1.01121 0.000210216 3.02996e-21)
(0.550189 0.0193094 -4.81442e-21)
(0.99952 0.0190888 -8.77892e-21)
(0.998876 0.00895455 -1.8578e-20)
(1.04171 0.0161031 0)
(1.06065 0.0233488 0)
(1.06726 0.0235878 -1.2089e-20)
(0.527597 -0.0134188 0)
(1.00267 0.0229914 -6.90788e-21)
(0.962711 0.0361013 6.32633e-21)
(1.16218 0.141691 3.97512e-20)
(0.553041 0.085227 1.29611e-19)
(1.123 0.193649 1.06321e-21)
(1.05895 0.0226101 5.901e-21)
(1.07176 0.0224818 0)
(1.00302 0.00133093 -7.80858e-21)
(1.05806 0.0583875 0)
(1.00159 0.000416322 0)
(1.06304 0.0156023 0)
(1.03488 0.0106963 2.52326e-21)
(1.05133 0.0231346 4.4969e-21)
(1.05307 0.0168884 1.94325e-20)
(1.05903 0.0230577 2.27326e-20)
(1.0635 0.013917 7.81928e-21)
(1.0125 0.0183918 0)
(1.03629 0.0221741 -3.29261e-21)
(1.04591 0.0167172 -4.9011e-21)
(1.05902 0.0224642 -6.98764e-21)
(0.697193 0.00588597 0)
(1.02654 0.102824 4.99764e-22)
(0.999634 -0.000432777 -1.34821e-20)
(0.788935 0.014055 0)
(0.807166 0.0135217 -1.20793e-20)
(1.05485 0.0107204 0)
(1.05799 0.0236124 -9.69877e-21)
(0.994703 0.0101828 7.55146e-21)
(1.05799 0.0508776 0)
(1.16019 0.0806958 0)
(1.04103 0.0157741 -7.03265e-21)
(1.06784 0.022847 5.52287e-21)
(1.00252 0.00428201 8.33585e-21)
(0.897044 0.14721 -4.49215e-20)
(0.991172 0.253195 0)
(0.525542 0.0134491 -2.05067e-20)
(0.953709 0.19017 2.01163e-21)
(1.06227 0.0243436 -8.74914e-21)
(1.00002 0.0003783 -7.10685e-21)
(1.05995 0.0246497 -1.23895e-20)
(1.03287 0.099284 3.41349e-21)
(1.07682 0.0241181 0)
(1.03937 0.0398979 1.87035e-21)
(1.02931 0.0302338 -1.41186e-21)
(1.02174 0.0290271 -1.31616e-21)
(0.992565 0.0192315 -5.74172e-21)
(0.668981 -0.000234132 -4.15296e-21)
(0.992891 0.00627327 0)
(0.976919 0.00993166 -3.41305e-20)
(1.00001 0.000298058 -8.46585e-21)
(1.046 0.0207354 7.46107e-23)
(1.02517 0.0542901 6.13991e-22)
(1.01891 0.00803399 0)
(1.00343 0.00425 -1.15778e-20)
(0.847041 0.268122 -6.69563e-21)
(1.06138 0.0297817 -1.07652e-20)
(1.07622 0.041163 1.40737e-23)
(1.08708 0.0259152 -3.94359e-21)
(0.953435 0.015424 2.24361e-20)
(1.21751 0.205443 0)
(1.0167 0.0157577 -5.04587e-21)
(0.58867 -0.0136572 1.52262e-20)
(1.05026 0.0296141 8.15593e-21)
(1.02454 0.0557317 -6.46146e-22)
(1.0391 0.0575524 -3.93934e-21)
(1.0259 0.0145732 1.25156e-20)
(0.995942 -0.00205975 -4.706e-24)
(1.00128 0.000800549 5.86666e-21)
(1.00001 0.000152343 -7.98374e-21)
(1.04094 0.0153188 3.4714e-21)
(0.409034 0.00698309 -3.93166e-21)
(1.03611 0.0281808 4.05679e-21)
(1.05206 0.00694627 -7.66858e-21)
(1.06017 0.0201865 0)
(1.10607 0.0775169 0)
(0.491268 0.085345 -1.59991e-19)
(0.926303 -0.00946155 1.57993e-20)
(1.02457 0.0186439 -7.59311e-22)
(1.00298 0.00442155 3.69253e-21)
(1.10206 0.0791996 0)
(0.47466 0.00892131 0)
(0.999873 0.0183748 -2.25367e-22)
(0.995191 0.00985557 0)
(1.05898 0.0206376 0)
(1.06122 0.0602244 -7.9163e-21)
(0.993018 0.0014098 0)
(0.97813 0.00996953 2.08196e-20)
(1.03996 0.0523681 7.87809e-21)
(1.03537 0.00959315 2.33167e-21)
(1.01862 0.00896147 -1.76146e-21)
(0.589211 0.0182974 -8.40415e-21)
(0.509655 0.0140018 -5.96924e-21)
(1.16188 0.149332 2.74707e-20)
(0.256145 -0.00562738 0)
(0.580428 0.0138456 3.53252e-22)
(0.997452 0.0557554 0)
(1.04626 0.0162585 0)
(1.03551 0.0222253 0)
(1.03557 0.00924174 -8.50268e-21)
(1.00158 0.00124346 0)
(1.0547 0.0184334 3.30076e-21)
(1.01841 0.00915917 0)
(1.01569 0.0352849 -4.70527e-21)
(0.511374 -0.0131079 0)
(1.02169 0.0282015 1.19816e-21)
(0.231041 0.0267466 0)
(1.00639 0.0162478 0)
(0.970805 0.000924169 1.08761e-20)
(0.966598 0.0152138 9.9978e-21)
(1.04408 0.012987 3.97824e-21)
(1.0723 0.0229185 1.05965e-20)
(1.02193 0.0264463 -1.58778e-21)
(0.53513 0.012844 2.34181e-20)
(1.0602 0.0169116 -1.71715e-20)
(1.06273 0.0159288 0)
(0.994734 0.0188647 -1.02349e-20)
(1.00986 0.000220734 -1.90015e-21)
(0.999915 -4.48511e-05 -6.32858e-21)
(1.02996 0.0204634 0)
(1.01053 0.0129958 6.96531e-22)
(0.320532 0.00955231 -7.5539e-22)
(1.04544 0.013943 2.65939e-21)
(0.222815 -0.000539967 0)
(0.91315 0.058662 -2.46243e-20)
(0.99374 0.0155498 2.08535e-20)
(1.05754 0.0130808 7.67335e-21)
(1.00192 0.003744 -7.26158e-21)
(0.991456 0.0162273 2.35264e-20)
(1.20758 0.193832 1.83666e-20)
(0.986713 0.0258017 1.50726e-20)
(1.05995 0.0171438 3.40491e-23)
(0.974114 0.0232236 0)
(1.02648 0.00837482 -3.34303e-22)
(0.998227 0.00479562 9.55047e-21)
(1.04773 0.0348877 -6.45203e-21)
(1.0149 0.0355252 0)
(1.07077 0.0506523 -1.15663e-20)
(1.00043 0.0243452 0)
(0.78204 0.31355 7.53802e-20)
(0.992514 0.106757 -1.97093e-21)
(1.05181 0.00746345 2.35467e-21)
(1.0504 0.0153424 -9.38119e-21)
(1.05888 0.0472453 7.18515e-21)
(0.98694 -0.0058592 -9.86012e-21)
(1.00189 0.0159051 -1.57429e-20)
(0.603647 0.0176991 9.39574e-21)
(0.790674 0.0146358 1.25537e-20)
(1.00969 0.0183462 1.75518e-20)
(1.161 0.0749829 -3.10073e-20)
(1.06043 0.0205121 0)
(1.06525 0.0223178 1.4924e-21)
(0.0775857 -0.0201946 5.33135e-20)
(1.0602 0.0155916 0)
(0.972447 0.0573749 1.01052e-20)
(0.626295 0.0155288 -5.65565e-21)
(0.41729 0.0045083 1.11462e-20)
(1.01278 0.0168373 1.61293e-20)
(1.06072 0.0139709 -2.30958e-23)
(0.960835 -0.00166884 0)
(0.558902 0.0172843 -5.13176e-21)
(1.05764 0.0175588 -1.58295e-20)
(1.05477 0.0253154 -7.7933e-21)
(1.03596 0.023798 3.81831e-21)
(0.998054 0.0045973 1.05869e-22)
(1.05493 0.0188379 0)
(1.04105 0.00962208 -3.90652e-21)
(0.447586 0.0092916 1.9775e-20)
(0.936855 0.0150154 -5.85122e-21)
(1.01304 0.00329811 -1.83533e-21)
(1.02046 0.0077932 0)
(1.06113 0.0170596 -7.16213e-21)
(0.962672 -0.00229317 -1.38983e-20)
(0.63048 -0.000713385 -4.16141e-21)
(0.995299 -0.00285998 -1.78106e-20)
(0.992496 -0.00763688 6.84832e-22)
(1.01249 0.027223 4.55448e-21)
(1.06788 0.0280234 -1.05438e-20)
(0.999609 -0.00135559 -6.81872e-21)
(1.07793 0.0319513 5.90403e-21)
(0.621577 0.0153176 7.83636e-21)
(1.00144 0.00038533 -8.27086e-21)
(1.03201 0.0202374 0)
(1.02522 0.0132465 -3.66542e-22)
(0.671958 0.00581681 -3.70571e-21)
(0.454162 0.0080466 5.14329e-21)
(1.04596 0.0441368 1.00197e-20)
(0.937575 0.0890374 -7.53662e-21)
(1.02935 0.0311188 1.43825e-21)
(1.06395 0.0140452 -8.59967e-21)
(-0.0304441 -0.0176181 8.79493e-20)
(0.929876 0.0441592 1.83188e-20)
(0.983076 0.0605589 0)
(0.999972 0.000298331 0)
(0.639221 0.64706 4.27167e-20)
(0.990363 0.0171742 1.34172e-20)
(1.00274 0.00448511 4.34736e-21)
(1.02733 0.0526986 -1.73522e-21)
(1.04455 0.0280284 -9.20671e-21)
(1.03974 0.0138595 0)
(0.996547 0.0547154 0)
(0.963487 0.0347781 -2.09548e-20)
(0.931687 0.0140213 1.54255e-20)
(0.994707 0.0174226 1.17644e-20)
(1.01147 0.0145504 -5.17367e-21)
(0.0854866 -0.0122848 -5.89559e-20)
(0.534033 -0.0131734 1.72425e-20)
(1.04531 0.0108677 0)
(1.04504 0.0113045 2.46943e-21)
(0.980989 0.0163116 7.18461e-21)
(1.06071 0.023505 -6.91079e-21)
(0.490476 0.0119821 0)
(0.0495388 -0.0221752 0)
(1.03634 0.0291321 0)
(1.04943 0.0295457 6.80284e-21)
(0.685336 0.00611923 0)
(0.0527728 -0.0205868 0)
(0.99997 0.000270843 4.48625e-21)
(1.00011 0.0146295 -6.19178e-21)
(1.04074 0.0186567 6.43016e-21)
(1.00738 0.00704754 -8.75807e-22)
(0.644636 0.0143863 -1.09549e-20)
(1.06237 0.0112896 -1.50399e-20)
(1.04552 0.0450482 -7.38734e-21)
(0.993844 0.0798013 0)
(0.991708 0.0773338 0)
(0.995492 0.0137225 7.79578e-21)
(1.03811 0.0424135 0)
(1.04888 0.200868 7.36469e-21)
(0.995226 0.0092301 -2.0188e-20)
(1.0662 0.0234117 9.41374e-21)
(1.01327 0.0274054 -2.4001e-21)
(0.939643 0.380915 -5.41618e-21)
(0.597663 -0.0188811 -1.8974e-20)
(0.999685 -0.00128632 0)
(1.17686 0.131063 4.41519e-21)
(1.03773 0.00986502 9.56614e-22)
(0.994283 0.00919668 0)
(0.975119 0.0165144 3.55106e-21)
(1.01907 0.0118402 1.15024e-21)
(0.844171 0.0503486 -8.90607e-20)
(1.00379 0.00957772 -6.38833e-21)
(1.04456 0.0146701 7.95226e-21)
(1.00211 0.00287807 0)
(1.04406 0.0118931 -1.87177e-21)
(1.03093 0.0169024 -2.72202e-21)
(0.966357 0.0159673 -3.74485e-21)
(1.0133 0.0172899 0)
(1.01643 0.0094021 1.2771e-21)
(0.99279 0.00861034 0)
(1.00446 0.0120568 0)
(0.537491 -0.0180663 -2.14566e-20)
(1.07032 0.0340159 0)
(1.04983 0.015387 1.20556e-20)
(1.06974 0.0336215 0)
(0.9871 0.0267277 5.22294e-21)
(0.313381 0.00853691 -4.07288e-21)
(0.769467 0.0105751 -3.27859e-21)
(1.01436 0.000984122 2.98318e-21)
(1.05175 0.0165096 -7.09042e-21)
(1.0632 0.0108733 -6.03218e-21)
(1.02083 0.00768223 -6.68621e-22)
(1.00138 0.000715069 -6.08215e-21)
(1.0507 0.0291238 -1.14743e-20)
(1.07673 0.0320716 1.02282e-20)
(0.494307 0.0106164 0)
(1.05909 0.0209463 0)
(0.999951 0.000360695 -4.83581e-21)
(1.02265 0.0278788 0)
(1.07109 0.0493223 3.74585e-20)
(0.999816 -0.000731254 -9.74231e-21)
(1.06244 0.0245876 -4.0816e-21)
(1.00147 0.00132943 0)
(0.434881 0.00998063 -2.58089e-20)
(0.999566 0.0394073 0)
(1.00326 0.0115244 6.95194e-21)
(0.998223 -0.000141116 0)
(1.01602 0.0164788 0)
(0.836596 0.0134894 6.19698e-21)
(1.05974 0.0243471 0)
(1.06789 0.0233673 -9.87503e-21)
(1.01885 0.00830197 0)
(1.04127 0.0100228 3.5561e-21)
(1.10002 0.05634 -4.61771e-22)
(0.951078 0.0153356 -1.19028e-20)
(1.03567 0.0296216 -5.58318e-21)
(0.581416 0.016931 4.32194e-22)
(0.631443 0.0202647 -6.20138e-21)
(1.06025 0.0217081 -1.5382e-20)
(1.00333 0.00160951 2.9018e-21)
(1.19765 0.170644 1.09881e-19)
(0.86893 0.0285018 1.12362e-20)
(0.983035 -0.00545187 2.71037e-21)
(1.01929 0.00679132 6.96247e-23)
(1.06428 0.148067 2.01825e-20)
(1.06533 0.0385967 -5.86575e-21)
(1.01448 0.00515044 -4.0069e-21)
(0.465319 0.010679 1.10018e-20)
(0.107231 -0.0145999 5.2659e-20)
(1.04939 0.0523817 2.96103e-21)
(0.996175 0.0380138 -1.29413e-20)
(1.01785 0.015443 -1.75771e-21)
(1.01678 0.00967024 -2.70014e-21)
(0.663412 0.0145177 8.04468e-21)
(1.01936 0.106226 -6.35118e-23)
(1.01345 0.000702256 0)
(0.948608 0.0804378 2.17426e-20)
(1.01024 0.0174976 -4.8111e-22)
(1.04019 0.0382382 0)
(1.01868 0.00717998 -1.26562e-21)
(0.987115 0.0433776 0)
(1.02693 0.0540652 1.73664e-21)
(0.999935 0.000331488 0)
(1.04115 0.0117624 5.65682e-21)
(0.994757 0.104575 8.26288e-21)
(0.963475 0.0147308 -1.88183e-20)
(1.06041 0.0143096 -1.54374e-20)
(1.10104 0.0836503 7.44179e-21)
(1.05476 0.00851483 0)
(1.05887 0.0497102 6.9766e-21)
(0.477289 0.0126299 2.5251e-21)
(1.03953 0.0557366 -1.02529e-21)
(1.04443 0.012394 -4.08566e-21)
(1.08037 0.023031 3.15063e-20)
(0.502252 0.0143548 0)
(0.996073 -0.00241204 -1.6873e-20)
(0.371665 0.0118096 -2.3329e-22)
(1.04313 0.0450506 -1.58037e-20)
(0.970366 0.0527943 -1.68352e-20)
(0.903547 0.0426842 -1.97427e-20)
(0.99993 0.019749 8.66829e-21)
(0.0834262 0.0637503 7.17272e-20)
(1.00547 0.000719177 5.83362e-21)
(1.06195 0.0160841 -1.29818e-20)
(0.358564 0.00734199 0)
(0.998325 0.0214193 8.52417e-21)
(0.978723 0.0380501 -1.76626e-20)
(1.06422 0.0287552 -1.31957e-20)
(1.00658 0.0142156 0)
(1.09322 0.0481653 -1.60761e-20)
(1.04512 0.211008 -6.29947e-21)
(1.02055 0.0174526 3.29912e-21)
(1.17569 0.138823 -4.88938e-21)
(1.05948 0.0243095 0)
(1.0184 0.0077463 0)
(1.03303 0.0716552 -3.77028e-21)
(1.02839 0.0288793 2.88892e-22)
(1.01102 0.0277381 -1.2115e-21)
(0.943176 0.0152819 9.24431e-21)
(0.982293 -0.00624415 -1.50797e-21)
(1.05088 0.0172632 -7.80897e-21)
(0.998629 0.00965167 0)
(1.12611 0.231068 0)
(1.01426 0.000913919 0)
(0.972133 -0.00120912 -1.95981e-20)
(0.999663 0.0220313 7.98964e-21)
(0.943894 0.0728885 -1.87372e-20)
(0.861435 0.0274604 1.26328e-20)
(0.772699 0.0118391 3.37272e-21)
(1.05913 0.0204525 0)
(1.00336 0.0232494 -4.07886e-21)
(1.00317 0.00456157 2.66157e-21)
(1.05902 0.0213803 -1.80777e-20)
(1.1274 0.0393235 0)
(1.03074 0.0206463 0)
(1.00364 0.0119556 1.17782e-20)
(1.00984 0.0124419 -1.33059e-21)
(1.04439 0.0453475 8.41769e-21)
(1.01367 0.0145546 4.46891e-21)
(0.959207 0.0160899 0)
(0.999794 0.000367583 -9.99995e-21)
(1.05621 0.0134009 -7.76236e-21)
(1.07183 0.0232314 -6.56541e-22)
(0.792574 0.0137461 1.47269e-20)
(0.999931 -0.000723877 0)
(1.00413 0.00984679 6.85553e-21)
(0.999125 0.000556822 4.63749e-21)
(0.990874 0.0513607 2.56504e-21)
(1.14036 0.0538551 -3.47322e-20)
(0.569137 0.0161382 0)
(0.755109 0.011716 0)
(1.06084 0.0258897 0)
(0.917058 0.0732143 0)
(0.731866 0.0112958 1.09285e-20)
(0.99497 0.0141088 0)
(0.993397 0.045606 -9.05049e-21)
(1.06009 0.0223306 1.96937e-21)
(1.04447 0.015184 0)
(1.01831 0.031823 2.99574e-21)
(1.05068 0.0114965 0)
(0.98483 0.0170179 0)
(1.03464 0.0112606 5.08217e-21)
(1.0255 0.0139614 2.22541e-20)
(1.03941 0.0133186 0)
(0.575226 -0.0188377 2.30869e-20)
(0.996291 0.00483291 0)
(0.422317 0.0102006 -1.20059e-20)
(0.478912 0.014891 0)
(0.797824 0.0138736 -1.76566e-20)
(0.681136 0.0191665 -1.27324e-20)
(1.06033 0.0207959 0)
(1.05473 0.0175756 -6.529e-21)
(0.496103 -0.0212788 -3.61234e-20)
(1.01028 0.0124608 1.25419e-21)
(0.981856 0.0627771 0)
(0.996272 0.00151579 -3.21226e-21)
(1.11183 0.105339 0)
(1.00355 0.00454527 4.08297e-21)
(1.14817 0.466877 -8.20697e-20)
(0.767351 0.162946 1.7401e-20)
(0.979675 0.0997786 -1.11971e-20)
(0.999482 0.0177232 -6.79853e-21)
(0.989526 0.0235538 0)
(0.749955 0.0119597 2.07676e-20)
(0.987784 0.0501458 0)
(0.97474 0.0567631 -6.15145e-21)
(1.00165 0.00652805 0)
(0.925978 0.0137805 -2.9054e-21)
(1.10323 0.0611761 0)
(1.06021 0.0204005 0)
(1.06806 0.0444838 2.46172e-20)
(0.388277 0.00883292 -1.71961e-22)
(1.0139 0.0266957 -1.9112e-21)
(0.441094 0.0116441 -1.50354e-20)
(1.06041 0.0208808 -8.21603e-21)
(1.12422 0.0374769 0)
(1.04606 0.0196075 0)
(1.06939 0.0450302 -3.14729e-20)
(0.95696 0.0178429 1.21174e-21)
(1.07944 0.0337677 -2.2925e-20)
(1.00175 0.00331245 0)
(1.04612 0.0184657 2.62598e-21)
(0.832496 0.0319225 0)
(1.00497 0.00612491 0)
(0.760689 0.011098 3.38301e-21)
(0.783259 0.0136953 -2.31154e-20)
(0.577138 0.0177571 -2.61504e-21)
(0.739637 0.0117466 -1.82276e-20)
(1.06015 0.0222403 0)
(0.983807 0.0170393 0)
(0.968741 0.00583547 0)
(1.14746 0.252599 -6.58735e-20)
(1.0035 0.00173347 -8.72668e-21)
(1.09706 0.0278864 8.20551e-21)
(1.08152 0.0350787 -2.31784e-20)
(1.03243 0.0517785 -4.14033e-21)
(1.0662 0.0251887 1.10206e-22)
(0.865191 0.242219 -2.00407e-20)
(1.1107 0.095701 -1.76797e-20)
(0.990832 -0.000373534 0)
(0.985634 0.157861 7.57412e-21)
(0.421526 -0.0247092 0)
(0.99603 0.00466758 0)
(1.03961 0.0232001 2.50014e-21)
(1.00308 0.00378566 -3.04966e-21)
(0.999993 0.00384945 0)
(1.00218 0.00312848 4.93391e-22)
(0.841967 0.0134856 -4.47726e-21)
(0.999732 -0.00076048 2.19538e-20)
(1.01434 0.0161282 2.41041e-21)
(1.05911 0.0228453 -1.81565e-20)
(0.996262 -0.00544777 7.65855e-21)
(1.05147 0.0153325 -1.2642e-21)
(1.00584 0.0157402 4.64155e-21)
(0.900201 0.0392602 3.31988e-20)
(1.03403 0.0112896 -1.23203e-21)
(0.792944 0.270446 4.68199e-21)
(0.998548 0.00086479 6.60194e-21)
(0.735612 0.12125 8.0439e-20)
(0.657479 -0.00475381 9.98698e-21)
(1.06815 0.0429002 -2.55354e-20)
(1.0671 0.0129162 0)
(1.05184 0.0236372 -1.19726e-22)
(0.91406 0.380448 -1.67637e-21)
(1.06368 0.0287374 1.71074e-20)
(0.82464 0.0133609 4.42739e-21)
(0.907417 0.145153 0)
(0.997937 0.00105046 1.13519e-20)
(0.634175 -0.016002 0)
(0.954556 0.0176714 -2.16283e-20)
(0.467601 0.0130847 5.22539e-21)
(1.03025 0.0532653 -1.5402e-21)
(1.08094 0.0340692 0)
(1.11905 0.039004 -2.46184e-20)
(1.06053 0.0258027 0)
(0.999977 -0.000145864 -1.0711e-21)
(1.04224 0.0104407 1.67828e-21)
(0.680505 0.0174005 8.87147e-21)
(1.04008 0.0227297 -1.00727e-20)
(1.0443 0.016016 -6.79272e-21)
(1.04264 0.0269218 3.4144e-21)
(1.06321 0.021547 9.41668e-21)
(1.05769 0.0172481 1.03302e-20)
(1.06062 0.0204415 2.94631e-21)
(0.93867 0.0140241 -1.1204e-20)
(1.00686 0.00578481 -9.89145e-21)
(0.781713 0.0121592 1.11767e-20)
(1.06541 0.0199839 1.08678e-20)
(1.00155 0.0083465 8.98291e-21)
(1.02587 0.0181096 -5.50744e-22)
(0.71086 0.00587743 6.75773e-21)
(1.0146 0.026886 7.3147e-21)
(1.06623 0.0403435 5.89257e-21)
(0.498843 -0.0239535 -8.84585e-22)
(0.998009 -0.000382371 1.13109e-22)
(1.06207 0.0172588 0)
(1.01025 0.0697988 1.43036e-21)
(1.05541 0.00851295 -1.24114e-20)
(1.02527 0.0177715 0)
(1.00141 0.00807697 3.76036e-21)
(1 7.38971e-05 0)
(1.06539 0.0375918 1.22144e-20)
(0.795235 0.0135268 0)
(1.00299 0.0131391 9.73936e-21)
(1.00505 0.006447 0)
(0.933787 0.0083146 4.43903e-21)
(1.11439 0.0396169 2.07902e-20)
(1.0569 0.0599906 -1.3705e-20)
(0.995558 -0.00377274 1.32853e-20)
(1.01309 0.0145283 3.43671e-23)
(1.01371 0.0178098 0)
(0.999947 0.00022619 0)
(0.995714 0.00903193 1.25835e-20)
(0.975905 0.0988762 3.64788e-21)
(0.965481 0.0442583 1.04692e-20)
(0.765821 0.180839 -5.99772e-20)
(1.14369 0.091083 1.2813e-21)
(1.05651 0.00759715 1.37405e-20)
(1.06009 0.0216196 -2.25906e-21)
(0.96456 -0.00472739 1.008e-22)
(0.999571 -0.000371894 1.31837e-20)
(1.02834 0.0156715 4.60406e-22)
(1.09429 0.0281162 0)
(0.906498 -0.00593133 -1.425e-20)
(1.06199 0.032233 3.68588e-21)
(1.03898 0.0180996 -2.21828e-20)
(1.00002 0.000293456 7.75939e-21)
(1.11411 0.101358 1.85339e-20)
(1.04927 0.023868 0)
(1.06135 0.0132304 0)
(0.996562 0.0014826 5.95588e-21)
(1.06596 0.0248928 2.03657e-20)
(0.969591 0.0303329 8.14905e-21)
(0.999854 -4.04732e-05 -1.17113e-20)
(0.968058 0.00869048 1.13868e-20)
(1.0151 0.00089631 2.52234e-21)
(1.06236 0.0101845 -1.07723e-20)
(1.05123 0.0305018 -2.21104e-21)
(0.909453 0.135564 2.21277e-20)
(1.00204 0.00321141 -4.81217e-21)
(0.80873 0.0120669 -1.85732e-20)
(1.00001 0.000187309 0)
(0.457857 0.0154155 -8.27344e-21)
(0.585197 -0.0180009 -1.10214e-20)
(0.998967 0.00259104 0)
(0.605033 -0.00844336 0)
(1.00685 0.000829922 0)
(1.00643 0.0136402 0)
(0.990313 0.0231211 -8.13617e-21)
(1.00001 0.0001617 0)
(1.02788 0.0159046 -1.14618e-22)
(0.986448 0.00204017 5.6338e-21)
(1.01048 0.0181221 0)
(0.994385 0.00792397 0)
(1.01182 0.00306003 -2.16459e-21)
(0.972886 0.0219678 0)
(0.99348 0.156304 0)
(0.819734 0.013031 0)
(1.01947 0.0153659 -8.22692e-23)
(0.536436 0.0178807 0)
(1 3.89617e-05 0)
(0.970681 -0.000510031 2.19918e-20)
(1.04949 0.0182508 7.55171e-21)