/*--------------------------------*- C++ -*----------------------------------*\
| =========                 |                                                 |
| \\      /  F ield         | OpenFOAM: The Open Source CFD Toolbox           |
|  \\    /   O peration     | Version:  v2012                                 |
|   \\  /    A nd           | Website:  www.openfoam.com                      |
|    \\/     M anipulation  |                                                 |
\*---------------------------------------------------------------------------*/
FoamFile
{
    version     2.0;
    format      ascii;
    class       volScalarField;
    location    "300";
    object      nut;
}
// * * * * * * * * * * * * * * * * * * * * * * * * * * * * * * * * * * * * * //

dimensions      [0 2 -1 0 0 0 0];


internalField   nonuniform List<scalar> 
14479
(
0.000452074
0.00031695
0.000684658
0.0103932
7.76076e-05
0.00210299
0.00672826
0.00679761
0.00407147
0.027895
0.000140512
0.00942089
0.00196125
0.000982791
0.00695136
0.00147851
0.00195005
7.4386e-05
0.0193152
0.000795317
0.00675856
0.00152638
0.00137721
0.000858474
0.00191557
0.000103819
0.000123784
0.0277187
0.00101396
0.00762712
0.000492065
0.00161577
0.0219838
0.0068003
0.00192019
0.0067658
0.00675827
0.00184337
0.000736253
7.98886e-05
0.00674126
0.000827231
0.000364323
0.000749934
0.00105633
0.000487368
4.84695e-05
0.00303992
0.00120387
0.000100906
0.00564292
0.0245971
0.000173341
0.000509203
0.00177536
0.0020545
0.000297033
0.0299597
0.00657047
0.000637117
0.000843995
0.00343775
4.15303e-05
0.000420674
0.000311452
0.0173956
0.000724073
0.000400117
0.0101868
0.0203602
0.0131147
0.000877762
0.0194461
0.00491586
0.00675563
0.00157969
0.014213
0.00715691
0.0275799
0.0129193
0.00557627
0.00672426
0.000824404
0.000865308
0.00211414
0.000437027
0.00117407
0.00417594
0.0132098
0.00410587
0.0260629
0.0184598
0.00136292
0.0153109
0.00105618
0.0216715
0.00239295
0.0250072
0.000810977
0.0347296
0.000557149
0.030752
0.000689063
0.00676574
0.000815109
0.00655813
0.000542794
0.0183934
0.000182474
0.00644915
0.000878398
0.00116486
8.78749e-05
0.000530279
0.000175937
0.000633908
0.00305013
4.35913e-05
0.000930332
0.000825935
0.00160854
0.00674248
0.00205079
0.000620351
0.0119894
0.00684085
0.00114603
0.00222062
0.00691258
0.0294271
0.00439044
0.00693209
0.00509308
0.00565934
0.000651815
0.000145852
2.42027e-05
0.00142255
0.0247566
0.010732
0.00226641
0.00100344
0.000821242
1.78875e-05
0.000329446
0.00246321
0.0258552
0.00222165
0.000386426
0.00151535
0.0241559
0.000873792
0.00676406
0.00073563
0.00167196
0.000886026
0.0234186
0.00672709
0.027205
0.0245166
0.0238141
0.0153439
0.0240357
0.000811282
0.0335558
0.00417908
0.0069486
0.00023031
0.00453812
0.00179033
0.00386217
0.000504963
0.00255372
0.00087031
0.003188
9.33025e-05
0.00555912
0.00207193
8.50705e-05
0.00100896
3.91974e-05
0.00675103
0.000958057
0.00235108
0.0067518
0.000202147
0.000406466
0.000659758
3.43962e-05
2.5892e-05
0.00675029
0.0350425
0.00077529
0.00672838
0.00115349
0.0272717
5.20166e-05
0.0321928
0.000528717
0.00485843
0.000693054
0.00439744
0.0191066
0.000459445
0.00198151
0.00100038
0.0012599
0.000856566
0.00208136
0.000149534
0.0188786
0.0359966
0.00122196
0.000552345
0.00554089
0.00075391
0.0349177
0.000916004
0.00552914
0.000455378
4.98161e-05
0.0189193
0.0334112
0.000797788
3.54968e-05
0.00846107
0.00130394
0.00101762
0.000107233
0.00677496
0.00103091
0.00672742
0.000381325
0.000885081
0.000442545
0.000974112
0.000263584
3.32125e-05
0.00552606
0.00260737
0.00889204
0.000529089
0.000791758
9.66652e-05
0.0358311
0.0200452
0.0027986
0.00362647
0.000878578
0.0173778
0.00680587
0.000614104
0.00676083
0.00646597
0.0161283
0.000745345
0.0048245
0.000191663
0.000103469
0.000811688
0.00594959
0.0146007
0.00183712
0.000611575
0.00531424
0.000281922
0.006013
0.0335835
0.0171685
0.0097954
0.0262024
0.00266796
0.00843788
0.000894686
0.00111884
0.0020459
0.017331
0.00215465
0.0159471
0.0215542
0.00687134
0.0171026
0.0255966
0.00550187
0.0067292
0.00655456
4.5813e-05
0.00230594
0.0153667
0.00184305
7.43581e-05
0.000803241
0.000164469
0.00117582
0.00199412
0.000417954
0.00270684
0.000111211
0.00695167
0.000391904
0.0035538
0.00956113
0.00336437
0.00076749
0.000443764
0.000862821
0.0285368
0.000519839
0.00151874
0.00129324
0.0197954
7.5068e-05
0.000143262
0.00246775
0.0012111
0.00672759
0.00983123
0.00028438
0.00676992
0.006768
0.00103995
0.00674735
0.0012481
0.00410566
0.000274243
0.000646569
0.0174819
6.9889e-05
0.0126393
0.00260775
0.000779012
0.000795507
0.0273818
0.00148698
0.00172342
0.00677863
0.000400575
0.000469612
6.37946e-05
0.000359845
0.0184843
0.000583122
0.00233552
0.00679884
0.0177023
0.00529221
0.0183762
0.0350461
0.00606835
0.000368319
0.014775
0.0159304
0.000764512
0.00411784
0.00369446
0.00674402
0.00300567
0.019729
0.00118898
0.00218614
0.00244628
0.0193299
0.0049256
0.00178282
0.015084
0.000815621
0.000143836
0.00136694
0.0117738
0.0109876
0.000883192
0.0186532
0.000492609
5.40971e-05
0.00432943
0.0143359
0.000888786
0.000169849
0.00263244
0.00137681
0.00239979
0.000747674
9.15877e-05
0.000121426
0.0195855
0.000347982
0.00673772
0.000718812
0.00556218
0.00077796
0.000415902
0.000707656
0.000136312
0.000607403
0.0210147
0.036596
4.59151e-05
1.04642e-05
0.00320326
0.00672627
0.0149126
0.00690175
0.0166642
0.000607289
0.00939219
0.00144428
0.00100969
0.00877307
7.66161e-05
0.00409495
0.0287412
0.0121702
0.00675397
0.00672647
3.67038e-05
0.00678804
8.89799e-05
0.000167925
0.00672451
0.000470772
0.000565814
0.000375509
0.0212121
0.000715937
0.0214755
0.000331367
0.0201442
0.00677071
0.00059795
5.85306e-05
0.00367169
0.000364777
0.0015524
0.00112927
0.00040564
0.0328879
0.000786024
0.0358783
0.000730347
0.00075126
0.00860699
0.0297719
0.0041606
0.00676835
0.000527634
0.000627093
0.000130736
0.017316
0.000884996
0.00112988
0.00673616
3.23483e-05
0.000689968
0.000851543
0.00672669
0.0008214
0.00347251
0.000844017
0.0089718
0.0109626
0.00131545
0.00248649
0.0270873
0.000123622
0.0228234
0.000920119
0.000580208
0.01993
0.00123529
0.00691955
0.00676916
0.00674619
0.0024469
0.0238019
0.00129343
4.63984e-05
0.00863774
0.00113504
0.000133274
0.000645954
0.000888045
0.01571
0.000878874
4.40412e-05
0.000979226
8.4022e-05
0.00272693
0.0104027
3.0216e-05
0.036086
0.00807748
0.00673372
0.0067854
0.0345019
0.000194987
0.00231839
0.000462483
0.0107705
0.00120183
0.000847627
0.000428453
0.00114477
0.000698959
0.00314705
0.00631444
0.00656133
0.0215033
0.000974303
0.00196903
0.0066319
0.00041103
0.00054063
0.00109487
0.00378342
0.00453861
0.00674757
0.00673096
0.00433126
0.00204724
0.00046824
0.0243558
0.00913443
0.0281728
0.00934383
0.0357301
0.0331292
0.00390053
0.00105692
0.0192764
0.00959205
0.00674493
0.000321819
0.020656
0.00995046
0.000784103
0.000804402
9.7524e-05
0.0011153
5.40772e-05
0.0165936
0.00110182
0.0139396
0.00169117
0.00442369
0.0022489
0.00581906
0.0172347
0.00673846
0.00095698
0.000953081
0.000716701
0.000127997
0.00684169
0.00490935
0.000883021
0.00247722
0.00426939
0.00119129
0.010325
0.00137749
0.00031518
0.013086
0.000305849
0.034292
0.00376059
0.000748243
0.000153807
0.00454745
0.00266322
0.00077318
0.000328218
0.00552472
0.0315595
4.47528e-05
0.000640188
0.00794743
0.00148506
0.00449843
0.000389831
0.000884432
0.00457172
0.00435096
0.000296377
0.00123555
0.0134171
0.0028572
0.00612774
0.0345979
0.01232
0.00504048
0.000103789
0.00672622
0.00310592
0.00969856
0.000803629
0.0187441
0.00676771
0.00674824
0.000821106
0.00303632
0.0281601
0.00648447
2.15264e-05
0.0285529
0.00384076
0.00676171
0.00198089
0.0132383
0.00106821
0.000247467
0.00120485
0.00799542
0.000289057
0.00515689
0.00654762
0.00653117
0.0132665
4.59732e-05
0.0234969
0.00248171
0.00616375
0.000737598
0.00108847
0.000715236
0.0280284
0.00271935
0.00304185
0.00676178
0.00109142
0.0354485
0.000485182
0.000721279
0.00672644
0.000526781
0.000322934
0.00676376
0.00682763
0.00140934
0.00292907
0.00652618
0.00526141
0.000612669
0.00675868
0.0194877
0.00199016
0.0050918
0.000860222
0.00161046
0.000717102
0.0146749
0.0084568
0.00095991
0.00594936
0.00775535
0.0120979
0.00632205
0.0233999
0.000342641
0.00411528
0.00136685
0.00061698
0.00676941
0.00296385
0.0335421
0.0153469
0.000898327
0.00171734
5.49356e-05
0.0211453
0.00674709
0.0067648
0.000508143
0.00489677
0.00665909
0.000103044
3.577e-05
0.0235433
0.000232623
0.00128577
0.000910752
0.00420031
0.00102046
0.0173823
0.00511153
0.0164082
0.000673853
0.0222426
0.00524465
0.000223995
0.0191209
0.0013028
0.000340204
0.0298974
0.00148279
0.000791768
0.0142143
0.021168
0.0120387
0.000571376
0.000530679
0.0249425
0.0211117
0.0276187
0.00451866
0.00214844
0.0198996
0.000695841
0.0166435
0.00139126
0.00429429
0.00677117
0.00102089
0.0100785
0.0172073
0.0150616
0.00246836
0.00125958
0.0163064
0.013723
0.000920072
2.63439e-05
0.000529314
0.000768039
0.0285052
0.0161695
0.000909074
4.09741e-05
0.0304751
0.0137098
0.00679209
0.0017432
0.00263658
0.00672771
0.00456619
0.00682048
0.00411656
9.8956e-05
6.85407e-05
0.000893057
0.00675017
0.00348941
0.00500869
0.00672801
0.00672731
0.00166332
0.0100158
0.000858161
0.00706176
0.00940158
0.00991099
0.000160897
0.00031773
0.00204624
0.00112622
7.83278e-05
0.00209438
0.00153845
0.0121027
0.000260166
0.0010041
0.000515568
0.000297197
0.00217899
0.0255404
0.00413821
0.0111341
0.00675909
0.0115457
0.0140777
0.000789208
0.000102925
0.0177909
0.0174455
0.000407314
0.00379877
0.00175764
0.0105626
0.00931187
0.00115367
0.0169402
0.0139103
0.00336409
0.000247993
0.00105861
0.00677561
0.000336877
0.00836556
0.00119891
0.000701206
0.026321
0.00674004
0.000341645
0.00304677
0.0309989
0.0151032
6.32867e-05
0.00546898
0.00131332
5.13468e-05
0.000479775
0.0251539
0.000174523
0.000588915
0.000562925
0.0031327
0.0243398
0.0209605
0.00677753
0.01469
0.00249222
0.00539165
0.0183406
0.00104505
0.000520102
0.000765488
0.034648
7.64336e-05
0.00102264
0.000467851
0.000716621
0.000682051
0.00130139
0.00043413
0.0154492
0.000265154
0.000568463
0.000825272
0.000956063
0.000308029
0.00376843
0.000615488
0.0133467
0.00183971
0.0153277
0.0114636
0.00076816
0.0112309
0.000697363
0.0354913
8.27567e-05
0.00650544
0.00469206
0.000324938
0.000512018
0.00323706
0.000800764
0.0116613
3.59346e-05
0.00677271
0.000380499
0.0177705
0.000725813
4.25521e-05
0.000592089
0.00874163
0.00164593
0.0334213
0.000906872
0.00679629
0.000392664
0.00386537
0.00049857
0.00129636
0.015712
0.0010166
0.0353337
0.00248088
0.00676953
0.00451504
0.00373176
0.00119202
0.0254121
0.0261903
0.0345012
0.0261216
0.0202802
0.000413883
0.0220543
0.00945661
0.0316667
0.004031
0.000475465
0.0247782
0.00025446
0.0025418
0.00257139
0.00230143
9.64152e-05
0.00062698
0.00421941
0.000803716
0.000474291
0.00011071
0.0194674
0.00466784
0.00672623
0.000528165
0.00336844
0.0198393
0.00081107
0.00575959
0.00677263
0.000638196
0.00165515
0.000936891
0.00669755
0.000953718
0.000412412
0.0183663
0.0297785
0.0155479
0.0224597
0.00676655
6.0962e-05
0.00633266
0.00626216
0.00673305
0.00598298
0.0184251
0.00119089
0.000797694
1.94155e-05
0.0295929
0.000279764
0.00675481
0.00675032
0.0123158
0.000344048
0.00846847
0.000396353
0.0364572
0.00150481
0.000669471
0.00690021
0.000327664
0.0299048
0.0219547
0.0232456
0.0204869
3.4328e-05
0.000798655
0.000422656
0.00672561
0.000202199
0.00677849
0.00123895
0.00960177
0.0334494
0.000495326
0.00674815
0.0224153
0.00102206
0.033719
0.0227113
0.000363853
0.00128926
0.000174598
0.0344539
0.00672619
0.000886198
0.00409387
0.0244676
0.00684514
0.00672586
0.00404075
0.00175742
5.41809e-05
0.000510525
0.00678566
0.00321475
6.7701e-05
0.0018385
0.0257487
0.00672567
0.00129702
0.0293551
0.00108897
0.00679858
0.000321422
0.00158482
0.000518575
0.00415312
0.000802729
0.00753435
0.000835024
0.000710932
6.72655e-05
0.000748542
0.00673986
5.23992e-05
0.00336565
0.000532509
0.0164131
0.0141478
0.00483229
0.000280688
0.00279593
0.00126498
0.00398574
0.00114399
0.0151276
0.0022902
0.0236995
0.000851758
0.00933169
0.0067628
0.000573411
0.0173446
0.00674613
0.000491533
0.034019
0.0367584
0.00015729
0.0154362
0.000152866
0.000897079
0.0027742
0.000509427
0.0229535
0.000100546
0.00674262
0.00217026
0.0260551
0.00676742
0.00783879
0.000323481
0.000383888
0.000704759
0.000226991
0.000648634
0.0269075
0.00304705
0.000176944
0.000278887
0.000762739
0.00488317
0.000578321
0.015982
0.000451375
0.00115555
0.00187697
0.00685172
0.000288763
4.45183e-05
0.000634362
0.00212822
0.0037232
0.000464092
0.000336892
0.0225667
0.014824
0.00170416
0.00396029
0.0300566
8.20878e-05
0.000645565
0.000662218
5.02434e-05
3.60714e-05
0.00224292
0.000189348
0.0034836
0.00543627
0.000224049
0.0047596
0.0167809
0.0240464
0.00136823
0.011603
0.0261648
5.52352e-05
0.0149741
0.00306915
0.000202878
0.000249156
0.00388133
0.0245173
0.0050867
0.00645936
0.00672742
0.0320143
0.00105309
0.000244791
0.00675937
0.000599044
0.00173699
0.0106199
0.000488152
0.00140018
0.000300957
0.0338192
0.000317491
0.0137081
0.00672731
0.00135959
0.000586987
5.22746e-05
0.00240946
0.000276983
0.000558297
0.000116096
0.0302202
0.00123288
0.00678455
0.000516556
0.000822775
0.00413186
0.00020739
0.00505936
0.0196861
0.00817755
0.000548517
0.00826419
0.00688775
0.00672546
0.00067053
0.000193959
0.00040382
0.00488993
5.57636e-05
0.0315069
0.0141822
0.00824124
0.00241355
0.00533172
9.74059e-05
0.0229599
0.000752118
0.0139749
0.000500728
0.00672707
0.00045493
0.00307523
0.00281227
0.033647
0.00116833
0.00118581
0.0189472
5.62526e-05
0.020693
0.00672639
0.000450328
9.65105e-05
0.000224566
0.0351128
0.0136418
0.000696257
0.000350254
0.000135194
0.000842166
0.00112743
0.00338665
0.000763175
7.00393e-05
0.00674063
6.78346e-05
0.00129904
0.00470323
0.000108121
0.0207035
0.0249482
4.48537e-05
5.16818e-05
0.00103442
0.000417965
0.00674187
0.000368626
0.00680945
0.0239354
5.5155e-05
0.000498016
0.000370251
0.000561538
0.0024538
0.000582905
0.00685033
0.00868777
0.00288777
0.0302521
0.0049307
0.00383708
0.0022463
0.00943803
0.00114906
0.0261144
5.31078e-05
0.000609802
0.00087896
0.00260257
0.00078646
0.000529903
0.0153142
7.02108e-05
0.00878394
0.000883565
0.000223486
0.00116532
0.00679701
0.00645033
0.00683554
0.00678504
4.62753e-05
0.00105433
0.000113598
0.0126876
0.0178416
0.00118397
0.000970163
0.000622647
0.00474138
0.000688043
4.09243e-05
0.00675669
0.00638919
0.000662451
0.004804
0.00674974
0.000727149
3.69895e-05
0.00673653
0.0067453
0.0068533
0.00182925
4.45486e-05
0.000446945
0.00674262
0.000468657
0.000598225
0.00676001
0.0277558
0.00201774
0.0037443
6.69958e-05
0.0113385
0.000596255
0.0274232
0.000554339
0.00686331
0.00107561
0.0206971
0.00128476
7.40255e-05
0.000552881
0.000824115
0.0256369
0.00295244
0.00664228
0.00877154
0.00407982
0.0178498
0.0146492
0.00681858
0.000267898
3.82208e-05
0.000156806
0.000794057
0.000550483
0.000622364
0.000193454
0.00148754
0.000474619
0.000840059
0.00489136
0.000532136
0.000496671
0.00604144
0.00197971
3.78509e-05
3.49423e-05
0.0162966
0.000752604
0.00672751
0.0100426
0.000164035
0.0268931
0.00056624
0.0118806
4.72553e-05
0.00180762
0.000392568
0.00983877
0.00187701
0.000456231
0.0174277
0.0285387
4.87671e-05
0.00679143
0.00689864
0.000601298
0.0332574
0.00417814
0.00957716
0.000669108
0.00681677
0.0067249
0.0304918
0.000752704
0.000787987
0.000441343
0.00110555
0.0293151
0.00010233
0.000480604
0.0166656
0.00363386
0.00085409
0.000436674
0.000532807
0.000403753
0.000786298
0.00506728
0.02556
0.0137374
0.0332543
0.000168867
0.00221343
0.000309871
0.000439582
0.0117016
0.00104581
0.00649208
0.000416958
0.000558022
0.00675052
4.07929e-05
0.000368467
0.00118369
0.0303104
0.0156539
3.40869e-05
0.000371419
4.10902e-05
0.00245883
0.00672663
0.000567972
0.00226328
0.0219297
0.0162374
0.00672829
0.000668585
0.0033668
0.00675302
0.0191187
8.15147e-05
0.0161054
0.00247044
0.000469196
0.00674323
0.00863893
0.00398009
0.00053379
0.0260869
0.00299082
0.0136551
0.00128847
6.69626e-05
0.00149197
0.028362
0.00045384
0.00680021
0.0171788
0.000302192
0.0027892
0.000530817
0.00479938
0.00673176
0.0217337
0.00684621
0.000306314
0.00945714
0.0107141
0.000121957
0.00656731
0.0265044
0.000835418
0.00973683
0.00674071
0.0011617
0.000356434
0.000527352
0.000647853
0.000109057
0.000738257
6.67188e-05
0.00099594
0.000304883
0.0223573
0.000171417
0.00258937
0.00510392
0.00131935
0.000814082
0.000241747
3.69389e-05
0.000385187
0.0130126
0.00017661
0.00101406
0.000416588
0.000124693
0.000233025
0.000170163
0.0147216
0.000306737
0.00445645
0.000647483
0.0100864
0.000414887
0.00676672
0.010136
0.000356945
0.000956413
0.0062605
0.0354525
0.0222876
0.000479746
3.55321e-05
5.5572e-05
0.00149035
0.0109785
0.00043433
0.0363786
0.00168131
0.0313072
0.0151403
0.00479113
0.000525277
0.00337604
0.00297529
0.000781322
0.0283607
0.00672609
0.017311
0.00198847
0.010277
0.00491267
0.00162613
0.000255045
0.000934764
0.0142635
0.000509549
5.4396e-05
0.000899375
0.000122951
0.0167298
0.00105289
0.00412328
0.00679446
0.00662569
0.000174706
0.00283877
4.52298e-05
0.000350704
0.000526961
0.00107061
0.0166833
0.00223867
4.60614e-05
7.54053e-05
0.00676437
0.000712885
0.0245514
6.52594e-05
0.0318412
0.0179158
0.001977
4.8457e-05
0.0278776
0.0317296
0.00672571
0.00450382
0.0010362
0.000459636
0.0296443
0.00694093
0.000437861
0.000561383
0.00503449
0.00276706
0.0252781
0.00428285
0.0150244
0.00257421
0.00105214
0.016671
0.00675034
0.00114096
0.0124961
0.000887959
0.000536658
0.000576747
0.0170444
2.31252e-05
0.02979
0.029823
0.0102981
0.0214517
0.000859095
0.00564318
0.000484579
0.000473833
0.000644827
0.0252223
0.00105464
0.000857569
0.000656035
0.000718405
0.0122979
0.000617933
0.0322668
7.60675e-05
0.000532695
0.00285082
0.00063131
0.000429437
0.00675198
3.81617e-05
0.00206761
0.00962656
0.0223057
0.000912589
0.0365833
0.000439281
0.000926411
0.0249104
0.00676482
9.52839e-05
0.0136523
0.00671428
0.00012164
0.000674732
0.000109975
0.0290313
0.00155564
0.000115143
0.00104005
0.00672691
0.00145722
0.000826147
0.00111932
5.79093e-05
3.74481e-05
0.00510426
0.00368828
0.000122888
0.00823869
0.00126805
0.000727589
0.0088505
0.0264649
0.000100693
0.00673419
0.00117777
0.0242978
0.0087231
0.000319038
0.0237324
0.00242424
0.00131586
0.0163872
0.0284992
0.0309454
0.00117847
0.00203572
0.000566548
0.000345119
0.000114711
0.0288121
0.000305098
0.0303805
0.000749725
9.03343e-05
0.0294133
8.72946e-05
0.0306718
0.000290062
0.000445121
0.00844908
0.0298429
0.00442119
0.000351066
0.000171537
4.00273e-05
0.00672764
0.00254568
0.00102359
0.00223884
0.000922279
0.00281744
0.00585813
0.0186679
0.0225863
0.000365421
0.000347073
0.00100557
0.000618253
0.000666534
0.00343189
0.00283001
0.000456342
0.0281451
0.0264546
0.0012839
0.0183111
0.00392018
0.00159358
0.00674813
0.00681523
0.00648143
9.22306e-05
0.000118364
4.53889e-05
0.000106226
0.000950767
5.43632e-05
0.00149833
0.00673409
0.00144479
0.000293209
0.000270334
0.0218444
3.65726e-05
0.00672633
0.00260246
0.000652562
0.000620572
0.000112761
0.00101623
0.000871116
0.0144171
0.00287445
0.00672603
0.00186696
0.00462975
0.000590474
0.00547356
0.000371871
0.00459112
0.000782784
0.0271046
0.0274227
0.00674222
0.0149849
0.00680069
0.00397759
0.000176245
0.0279887
0.00376644
0.0295395
0.0240861
0.000260783
0.00446663
0.00107815
4.09155e-05
0.000121838
0.00716624
0.0210984
0.00612325
0.0175306
0.00045689
0.0247483
0.000396121
0.00392223
0.000170759
0.000551294
0.00268645
0.00119837
0.00675271
7.73468e-05
6.50476e-05
0.00356103
0.000673465
8.36455e-05
0.000336702
0.000693724
0.0186115
0.00682082
0.00517695
0.000524835
0.00048431
0.000638471
0.00676114
0.00342212
0.00673553
0.000774729
0.000665763
0.0199654
3.60403e-05
0.027856
0.000598883
0.00235764
0.000396542
0.0170439
0.00681297
0.0176282
0.000298956
0.00888557
0.00142521
3.6981e-05
0.0027142
0.0165921
0.000217832
0.00674569
0.00672561
0.000750443
3.9924e-05
0.00672583
0.00528166
0.00187173
0.00690879
0.000619315
0.0283872
9.06984e-05
0.00692855
0.00670159
0.011123
0.0214937
0.0304415
0.00267262
0.0162809
0.0111294
0.000187386
0.000141805
0.00463956
0.00143616
0.000675353
0.00309752
0.00140811
0.000610041
0.000622734
0.000127984
0.0267677
3.92204e-05
0.00154411
0.023625
0.00683784
0.00102042
0.000853913
0.000243469
0.030667
0.00235647
0.0118069
0.00558732
0.0031534
0.00138332
0.00173835
0.0271765
0.0211647
0.00985026
0.00709861
0.000460796
0.000167049
0.000595344
0.000569107
0.000306669
0.016107
0.00079855
0.000339953
0.00412464
0.00672759
0.0003198
0.000509113
0.00445197
0.000172509
0.00674057
0.00443701
0.00383854
0.0112225
0.000110126
0.000594064
0.00045759
0.00346391
0.0178911
0.000192361
0.000681379
0.00300897
0.00211056
0.0205477
0.00012315
0.00675304
0.00220585
0.00143534
0.00688586
0.0293729
0.00115419
0.00193028
0.00272103
0.000256
0.00313147
0.00183154
0.00468292
0.000903544
0.0313096
0.0200293
0.000835921
0.000110218
0.016646
0.0015205
0.000916922
0.0234946
0.000158535
0.0364574
0.000665891
0.00672553
0.000883715
0.00205386
0.00674439
0.000692942
0.000512774
0.00125904
0.000294678
0.00109617
0.000135374
0.000624513
6.80735e-05
0.000669374
0.00136884
0.00116684
0.000280037
0.0265672
0.0110915
0.0131309
0.000851405
0.00672684
0.000721788
0.00375924
0.00403808
0.00350273
0.000490997
0.000438212
0.00026383
0.0140883
0.0188535
0.00201364
0.0247381
0.000508542
0.00179635
0.00172571
0.00125824
3.68942e-05
0.00208629
0.000858992
0.00129232
0.0107487
0.0105629
0.00184753
0.00875527
0.0191623
0.00578124
0.0325837
0.0224281
0.0047099
0.0295989
0.00146821
0.000645289
0.000295707
0.00149937
0.000560066
0.00014278
0.000565775
0.00041842
0.00673782
0.0110176
0.000405438
0.000843614
0.0159295
0.000472011
0.000359872
0.00179095
0.00374355
0.00135192
0.0210338
0.00559504
0.000308708
0.000345969
0.00353958
0.000702078
0.0176893
0.0183633
0.000223369
0.000266746
0.00848927
0.0093855
0.0133442
0.00199979
0.00236776
0.000463497
5.01775e-05
0.000273378
0.000515918
0.000288546
0.00254472
0.000581913
0.00262829
0.000113836
0.00149137
0.000180565
0.000673006
0.000114031
0.0010931
0.0207392
0.000458721
0.00393442
0.00197311
0.00171857
0.0108402
0.00459481
0.00952551
0.0152633
0.000317562
0.000520374
0.0107042
0.0163036
0.00480178
0.000400254
0.00419077
0.00160913
6.08767e-05
0.000244533
0.0242049
0.0181734
0.0203131
0.00403791
0.000634105
0.00358721
0.000339942
0.00909644
0.00930036
0.00258036
0.00123575
0.00031064
0.0016171
0.00114081
0.00354509
0.0239049
0.00318348
1.23292e-05
0.0364132
0.000537729
0.00731645
0.00274061
0.00673439
8.54162e-05
0.000573958
0.00517781
0.00484596
0.0213346
0.00675846
0.0001145
0.000119213
0.000448677
0.000351991
0.00059217
0.000206909
0.00395264
0.000517676
0.000368701
0.00921676
0.0211611
0.00265053
0.000194797
0.0139936
0.0231547
0.000451257
0.0267829
0.00194575
0.000470709
0.000201911
0.00674442
0.00139347
0.00352498
0.0350453
9.51905e-05
0.0181086
0.00101681
0.0278803
0.0195536
0.00676153
0.000479425
0.000556513
0.00674535
5.02217e-05
0.0266838
0.0190758
0.000787201
3.60174e-05
0.00458544
0.00116784
0.0084374
0.00621896
0.0283173
0.00159508
0.00676887
0.000564138
0.000804594
0.00675372
0.0101281
0.00146456
0.00672498
0.00485236
2.4694e-05
5.912e-05
0.000806824
0.0238871
0.00673093
0.0284155
0.000147619
0.0174371
0.00170129
0.017444
0.000506746
0.000287528
0.0176801
0.000317837
0.00120826
0.000447947
0.000523872
0.000109293
0.000492879
0.000532715
0.020554
0.0299718
0.00102545
0.00695262
0.0008139
0.00689566
0.0062822
0.00358245
0.0191624
0.0200934
0.0158332
0.0282571
0.0179729
0.000946074
0.0046906
0.0156563
0.0369882
0.00251295
0.0203123
0.00155453
0.000258395
0.00562862
0.00959217
0.0185357
0.00342744
0.000279284
0.000226151
0.015264
0.000869451
0.011554
0.00195835
0.00061423
0.00181389
0.0020312
0.00672927
0.000177447
0.000880941
0.00254438
0.0132579
0.00169324
0.000317134
0.00668512
0.0234136
0.00194733
0.00674513
0.00130539
0.00376515
0.0224664
0.00680083
0.00150133
0.0130806
0.00672804
0.0291247
4.64038e-05
0.00338719
0.000185846
0.000460589
0.000840964
0.00020103
0.000218393
0.000318644
0.0021968
7.05087e-05
0.00679947
0.00207192
0.00677258
0.00674145
0.00343793
0.00283879
3.83189e-05
0.0145844
5.10818e-05
0.000524822
0.000989489
0.000572823
9.35926e-05
0.000992392
0.000565163
0.00360194
0.0145047
0.000858636
0.0142299
0.000841476
0.0167963
0.00101583
0.00014517
0.000966133
0.00153942
0.00672903
0.00802157
0.00290128
0.000747383
8.82027e-05
0.000486809
0.000450096
0.000237277
0.00259812
0.0156119
0.0010866
4.46504e-05
0.00411373
0.00173809
0.00575037
0.0370162
0.0152619
0.00299032
0.000731603
0.0162376
0.00674154
0.00676702
0.000668756
0.0177108
0.0120226
0.00291959
0.000383512
0.00673605
0.0288423
0.000226641
0.00149961
0.0313732
0.00121348
0.00031236
0.0233405
0.000149084
0.00456655
0.000610774
0.00672462
0.0105225
0.00672776
0.00123057
0.00672442
0.000599007
0.00672619
0.00622982
0.000871536
0.000489875
0.000523929
0.00172001
0.000351707
0.000177372
0.000420774
0.0055216
0.0339202
0.00119319
0.00673492
0.000111079
0.00114954
0.000306204
4.15148e-05
0.00501399
0.0012702
0.00240676
0.00677458
0.0210149
0.00335675
0.028213
0.00156898
4.53581e-05
0.00675273
0.000818398
0.000194062
0.000406065
0.000898306
0.00856452
0.000939784
0.00105487
0.000681271
0.0303469
0.000556809
0.000489046
0.000605683
0.00121144
3.93389e-05
0.000420578
4.19805e-05
0.000466361
0.000136986
3.75747e-05
0.00113061
0.000354592
0.00103119
0.00491884
4.65466e-05
0.025171
0.00118176
0.000449635
0.000885389
0.000318059
0.0068622
0.000104862
0.00104794
0.00102075
0.000232049
0.000503087
0.0102048
0.0322181
0.000335262
0.00175175
0.00136603
0.014151
0.0289817
0.00344511
0.0012088
0.00673962
0.00351658
0.000466397
3.64729e-05
0.000312288
0.0114511
0.0309791
0.0013869
0.000414663
0.00189551
0.0183086
0.00159741
0.00339513
0.00673413
0.00225445
0.00141046
0.00128247
0.00101049
0.00032391
0.00705779
4.30876e-05
0.0163583
0.0275105
0.0117354
0.0020293
0.00148683
0.000340748
0.00426446
0.000275773
0.0064486
8.52115e-05
0.00672718
0.00693729
0.000270037
0.00577119
6.44599e-05
0.00113225
0.0169897
0.00147677
0.0306875
4.2069e-05
0.020351
0.00333141
0.000909544
0.00336741
0.000367343
0.0232809
3.67752e-05
0.000770473
0.0177898
0.0220594
0.00694379
0.012132
0.00101398
0.0067387
0.00675972
7.87536e-05
6.10539e-05
0.00688583
0.00557769
0.0165614
0.00172658
4.30998e-05
0.00264292
0.00315331
4.39396e-05
0.00316267
0.00249577
0.00376443
0.000141622
0.00676396
0.00035863
0.000642416
0.000452319
0.000858013
0.000171311
0.00107986
4.31009e-05
0.0208105
5.34365e-05
0.000941757
0.0218339
0.00159331
0.00020602
0.00170097
5.06783e-05
0.005597
0.00166095
5.51266e-05
0.0237569
0.000579799
0.00673853
0.000270461
4.36173e-05
0.0217338
0.0211573
0.000490722
9.71194e-05
0.00995959
0.00443163
0.00261937
0.00737471
7.05379e-05
0.000468707
0.0285624
4.4148e-05
0.000229805
0.0202227
0.00907194
0.000599526
0.0183037
0.00352453
0.0036886
3.45776e-05
3.59866e-05
0.000643391
0.00104059
0.0212063
0.0297704
0.00440323
0.00222352
0.0150609
0.00672826
0.00763765
0.0361182
0.0287006
0.000898157
0.000437125
2.98149e-05
0.0202755
0.00681284
0.00672692
0.000574402
0.000484011
0.00561888
0.0266035
3.77927e-05
0.0171508
0.000933433
0.0168011
0.00700621
0.0110556
0.000118657
0.00012378
0.0204174
6.21538e-05
0.00112253
0.0151335
0.000565259
0.000225968
0.00344364
0.0189848
0.0328518
0.00481398
0.003649
0.00285619
0.0030634
4.38291e-05
0.02928
0.000249479
0.0304428
0.000523352
0.00377476
3.96206e-05
0.00152666
0.00065261
9.95287e-05
0.00673802
0.000607667
0.0105991
0.000754358
0.000734041
0.00223575
0.00234811
0.0267752
0.000306641
0.0183784
0.0145888
0.030677
0.0310288
0.00685146
0.0225761
0.00110967
0.0283026
0.00615376
0.000680426
0.0158071
0.000683979
0.0333093
0.0227023
0.00120599
4.94701e-05
0.00680843
0.00225826
2.79131e-05
0.000313657
0.00675994
0.000390751
0.00672817
0.00193047
0.000254752
0.00677212
0.00400616
0.0220663
3.71589e-05
0.000913621
0.00687414
0.000205706
0.00606305
3.40491e-05
0.00121488
0.000605396
0.000457117
0.000154239
0.00255055
3.65344e-05
0.000994817
0.0218298
0.000991062
0.00117755
5.89199e-05
0.0112404
0.00144962
0.0201365
0.00156494
0.000503073
0.00458414
0.0019095
7.39779e-05
0.000451258
0.028716
0.0067278
0.00100382
0.000344092
0.00409972
0.000126625
0.00530307
2.83299e-05
4.96918e-05
0.000183557
0.0102406
0.000408834
0.000163146
0.00598694
0.00684421
0.000791811
4.19215e-05
0.00410523
0.00174958
0.000134407
4.46189e-05
0.000947387
0.00978252
0.0122967
0.00936338
0.000375355
0.000747138
0.00234681
0.00088432
0.000930591
0.00045802
0.00080528
0.000147645
0.00159921
0.000624822
0.00104541
0.00286489
0.00249534
0.000519316
0.000639492
0.00379427
0.0014926
0.00220898
4.07402e-05
0.0202469
0.000760058
0.0069165
0.000642685
4.70224e-05
0.00107284
0.00309238
0.00390887
0.000102594
0.0068419
3.51177e-05
0.0029359
0.000144492
0.00678853
0.000701299
0.000108705
0.000923611
0.000217674
0.00107693
0.027739
0.000420561
0.00673714
0.00673659
0.00320337
0.017132
0.00250825
4.64649e-05
0.000394762
4.94682e-05
0.00679306
0.0012192
3.46304e-05
0.000760216
0.00570498
0.000153066
8.02424e-05
0.00514296
4.14067e-05
0.00680866
4.82132e-05
0.000132085
0.0332409
0.0010364
0.000245013
0.00674132
0.000107217
0.0147267
0.00102766
0.0177999
0.0294895
0.0100949
7.79777e-05
0.000565517
0.000900662
0.00672665
0.00391216
0.00118619
0.000748106
4.26194e-05
0.000302064
0.00496554
0.000508119
0.00373488
0.000855112
0.000581902
0.00167592
0.00143741
0.00675945
0.00085747
0.000547411
0.00130068
0.00121726
0.00190385
0.000175934
0.000717034
0.000159066
0.00251755
0.00344624
5.71945e-05
3.94886e-05
0.0193283
0.000265929
3.81458e-05
0.0351493
0.00672965
0.00235233
0.00101938
0.000564988
3.09658e-05
0.00114286
0.00010083
0.00124054
0.00134974
0.00331843
0.00243941
0.000546261
0.000424913
0.00784465
0.0014974
0.00822381
0.000617289
0.000118693
0.00111532
0.000408863
5.41568e-05
0.00881981
0.000572645
0.00578016
0.000631811
0.00223417
0.00702623
5.85244e-05
0.000466069
0.00369227
0.000128253
0.00052504
0.00309559
0.0136891
0.0062405
0.000559014
0.00484465
0.000164343
0.0183275
0.00062231
0.000139812
0.0176055
0.000220522
0.000479483
9.61945e-05
0.000884604
0.00198513
0.0067294
0.00672517
4.28104e-05