/*--------------------------------*- C++ -*----------------------------------*\
| =========                 |                                                 |
| \\      /  F ield         | OpenFOAM: The Open Source CFD Toolbox           |
|  \\    /   O peration     | Version:  v2012                                 |
|   \\  /    A nd           | Website:  www.openfoam.com                      |
|    \\/     M anipulation  |                                                 |
\*---------------------------------------------------------------------------*/
FoamFile
{
    version     2.0;
    format      ascii;
    class       surfaceScalarField;
    location    "300";
    object      phi;
}
// * * * * * * * * * * * * * * * * * * * * * * * * * * * * * * * * * * * * * //

dimensions      [0 3 -1 0 0 0 0];
oriented        oriented;


internalField   nonuniform List<scalar> 
21458
(
0.230762
-0.220579
-0.0101829
-0.179964
0.201405
-0.0214419
0.286994
-0.298379
0.011385
0.0108926
-0.0145951
0.0037025
-0.0670477
0.11977
-0.0527226
0.0153978
-0.0170568
0.00165901
-0.717582
0.475654
0.241928
-0.570084
0.700129
-0.130045
-0.0258549
-0.34185
0.367705
-0.032471
0.0130883
0.0193827
-0.135616
0.0823586
0.0532576
0.0142953
-0.00340277
0.00907198
0.00248868
-0.0115607
0.0115308
-0.00245884
-0.00602972
0.0092793
-0.00324959
0.00714229
-0.00906785
0.00192555
0.035881
-0.150444
0.114563
-0.000810555
-0.0140358
0.0148463
-0.231906
0.249971
-0.0180647
-0.538118
0.408324
0.129794
-0.343821
0.0787793
0.265042
0.0068137
0.000328597
0.159217
-0.000984002
-0.158233
-0.283249
0.257394
0.0907023
-0.0227536
-0.0679488
0.00157429
0.104408
-0.105982
-0.0192026
-0.0132684
-0.0936123
0.151059
-0.057447
-0.00965285
0.00362313
0.0245815
0.00630223
-0.0308837
0.00829494
-0.0165379
0.00824295
-0.0114031
0.0105925
-0.669183
0.331142
0.338041
0.0676238
0.294918
-0.362542
0.577009
-0.0402149
-0.536794
-0.3793
-0.0640574
0.443357
-0.00102486
-0.00804299
-0.173468
0.248045
-0.0745765
0.0526674
0.0255172
-0.0781846
-0.00943096
0.00812973
0.00130123
0.131009
-0.304477
-0.201493
0.113756
0.0877369
0.183555
0.144546
-0.328101
0.00333345
0.00348025
0.0353198
0.213842
-0.249162
0.00787406
-0.00787406
-0.000711944
-0.00747471
0.00818666
0.123632
0.14552
-0.269151
0.0468396
0.0404432
-0.0872827
-0.262403
-0.176437
0.43884
0.0592392
-0.0432081
-0.0160312
-0.137156
0.113658
0.0234986
0.156179
0.0149667
-0.171146
0.333264
-0.209633
-0.435802
0.215969
0.219832
-0.0578345
0.191244
-0.133409
0.0017063
0.0204281
-0.0221344
9.35033e-06
0.576999
-0.227324
0.220885
0.00643888
-0.0136276
-0.216718
0.230346
-0.241841
0.532153
-0.290311
-0.040496
0.0231265
0.0173695
-0.00150219
0.155671
-0.154169
0.214835
-0.0341239
-0.180711
0.0241157
-0.0285374
0.00442166
-0.273194
0.269109
0.00408471
-0.134796
0.187946
-0.0531504
-0.0219772
0.0148169
0.00716025
0.0282903
-0.0678863
0.039596
0.022227
-0.0198197
-0.00240733
0.231376
-0.0313887
-0.199987
0.0119185
-0.00799118
-0.0039273
-0.00980738
-0.00240532
0.0122127
-0.398771
-0.139347
-0.464684
0.181434
-0.0173272
0.022431
-0.00510373
-0.0105617
0.000923575
0.00963813
0.00490351
0.00365189
-0.0085554
0.0220064
0.00022069
-0.00173812
0.0323861
-0.030648
-0.592722
0.617854
-0.025132
0.242794
-0.337163
0.0943685
-0.00299598
0.234372
0.184054
0.210144
-0.394198
0.235977
-0.200657
-0.217114
0.238794
-0.0216794
-0.606179
0.263743
0.342436
0.00467912
0.342153
0.0912367
-0.43339
0.00648075
-0.0268427
0.020362
0.0263663
-0.00225065
0.021443
-0.0229225
0.00147949
0.0050025
0.00453596
-0.00953846
-0.150109
0.336518
-0.186408
-0.0206004
0.0050927
0.0155077
-0.185536
-0.241974
0.427511
-0.0168167
0.0232974
-0.0576639
0.318918
-0.261254
-0.0172631
-0.0046268
0.0218899
-0.0144211
0.0390025
-0.0234596
0.0251659
-0.213429
-0.0138945
0.640017
-0.316487
-0.32353
-0.27597
0.218307
-0.59785
0.593091
0.00475859
0.182177
0.0326581
0.00556969
0.00634879
-0.164746
0.106912
-0.00809989
-0.00133107
0.109719
0.199427
-0.309147
-0.203875
-0.144617
0.348493
0.0258664
0.0308331
-0.0566996
0.177886
-0.021707
0.107156
-0.105582
-0.218768
0.0309346
0.187833
-0.256158
-0.208526
-0.0184328
-0.0220633
-0.226155
0.241883
-0.0157272
0.00834386
-0.266371
0.258027
0.381921
-0.314297
0.411776
0.11251
-0.524286
0.0181426
-0.00984765
0.256626
-0.235724
-0.0209016
-0.0185391
0.014586
0.00395311
0.137536
-0.536501
0.398965
-0.380432
0.131443
0.248989
0.306702
0.0421205
-0.348822
-0.135213
-0.364876
0.500089
0.0207761
-0.00034798
0.378903
-0.518293
0.13939
0.0169783
-0.144749
0.127771
-0.0115455
0.206162
0.255034
-0.461195
-0.228186
0.00763257
0.220553
-0.0814207
0.13401
-0.0525896
0.0480722
0.0223645
-0.0704367
-0.268799
0.00557194
0.263227
0.0322051
0.0270341
0.0116067
-0.0150413
0.00343462
0.466615
-0.340257
-0.126358
0.0141351
-0.0161094
0.00197431
0.310081
-0.126526
0.0565831
-0.0515296
-0.00505345
0.163295
-0.164798
-0.296819
0.480873
0.00777102
0.00822556
-0.0159966
0.174727
0.203038
-0.377764
-0.213835
0.220524
-0.00668843
-0.234697
-0.0120693
0.246766
-0.0118407
-0.00875968
0.0443851
0.242609
-0.108506
0.51683
-0.131076
0.178691
-0.0476156
-0.129698
0.165579
-0.138253
-0.199358
-0.0256115
0.00331411
0.0222974
0.662708
-0.333028
-0.329679
0.0632403
-0.00987887
-0.0533614
-0.00735699
0.0122605
-0.00207521
-0.0235363
-0.00915749
-0.0157356
0.0248931
-0.00211242
-0.00901671
0.0111291
-0.20877
-0.022925
0.0215738
0.00135119
-0.0110193
0.0103074
-0.131939
-0.36066
0.492599
0.0487132
-0.0228467
0.299202
-0.561604
0.16658
-0.352116
0.485178
-0.354159
-0.131019
0.0315265
0.20445
-0.327941
-0.107861
-0.0666469
-0.199724
-0.469464
0.31146
0.158004
0.0541725
0.06238
-0.116553
-0.373332
0.539896
-0.166564
0.376602
-0.105067
-0.271535
0.0427158
-0.119141
0.0764253
0.151239
-0.301022
0.149783
0.0825479
-0.0344757
-0.529669
0.130898
0.0325082
-0.258664
0.0213141
0.000128847
0.374205
-0.536003
0.161798
0.0904557
0.057446
-0.147902
-0.0512964
-0.150197
-0.16652
0.0643511
0.102169
-0.097953
0.0680907
0.0298623
0.0350664
0.0215166
0.545347
-0.403517
-0.14183
-0.0169597
0.0130952
0.00386441
-0.185479
-0.110638
0.296117
-0.424585
-0.292997
-0.0137154
0.0138332
-0.000117818
-0.00946941
-0.0755886
-0.0115596
0.0077792
0.00378039
0.295809
-0.291795
-0.00401379
-0.175928
-0.293537
-0.239028
0.0202596
0.160411
-0.143433
-0.0238386
0.105494
-0.0816557
0.123905
-0.125547
0.001642
0.000419668
0.276943
-0.114624
-0.162318
0.0644548
-0.333254
0.245247
-0.0704543
-0.174793
0.270695
0.105907
0.154892
-0.0644364
0.00884452
-0.0166483
0.00780375
-0.0062187
0.020074
-0.0138553
0.300594
-0.13205
-0.168544
-0.161828
0.0270321
-0.464446
0.0768836
0.387563
-0.201419
0.211687
-0.0102678
-0.0245378
0.0232289
0.00130898
-0.00924135
0.00183489
0.00740646
0.174033
-0.553333
0.237453
-0.264285
0.0268319
0.0357082
-0.0863027
0.0505945
-0.0160182
0.0240524
-0.00803424
0.0126256
-0.00948147
-0.00314418
0.32584
-0.231939
-0.0939012
-0.0131965
-0.0162144
0.029411
-0.0114923
0.0154593
-0.00396704
-0.00192213
-0.256289
0.258211
-0.365305
0.16143
-0.0728087
0.054716
-0.282757
-0.323422
0.138316
-0.302597
0.164281
-0.676467
0.503624
0.172843
0.227038
0.0122031
-0.239241
0.0100052
-0.0106698
0.000664546
-0.0726018
0.221448
-0.148847
0.105356
0.171587
0.0318151
0.159428
0.0368026
-0.0272572
-0.00954543
-0.497449
0.289401
0.208048
0.410653
-0.276736
-0.133917
-0.0164957
0.00500341
0.149056
-0.205339
0.0562829
-0.308497
0.123018
0.0298215
0.0608808
-0.021333
0.00505192
0.016281
-0.00755838
0.0164029
0.0967567
-0.443424
0.346667
-0.0286069
0.37076
0.0131505
-0.0155067
0.00235617
-0.0209077
0.0248805
-0.00397287
-0.0236423
-0.546441
-0.185766
0.212564
-0.0267982
-0.573811
-0.0253754
0.599186
0.482718
-0.345181
-0.0262521
0.00534442
-0.127752
-0.0652574
0.193009
-0.253369
-0.163458
0.416827
0.0543125
-0.147925
-0.0785481
0.0557946
0.157848
0.00136844
0.00836525
0.0240209
0.0179028
0.0145812
-0.032484
0.0116906
0.00214265
0.00188264
-0.230069
-0.348729
-0.0803479
0.429077
-0.00164488
-0.195915
0.19756
-0.51056
0.161831
0.0125448
8.08735e-05
-0.00834831
0.0117906
-0.00344227
-0.0166281
-0.0053491
0.013845
-0.00607395
0.0368363
0.269866
-0.0224363
-0.00100577
0.023442
-0.00457164
0.197416
-0.152417
0.303656
-0.0227509
0.0237128
-0.000961952
-0.0100894
0.00410381
0.00598555
-0.126462
0.386056
-0.259594
-0.0279519
0.0265757
0.00137614
0.00622563
-0.0212291
0.0150035
0.022514
-0.0248723
0.00235833
0.0251732
-0.0251616
-1.15183e-05
-0.0266291
0.0245539
-0.0177907
-0.0128573
0.507311
-0.621573
0.114262
-0.20595
-0.291499
0.000897779
-0.0077013
0.00680352
0.223944
-0.228516
-0.00419553
-0.00560091
0.00979644
0.0139868
-0.0150608
0.00107398
0.05705
-0.0302948
-0.0357743
0.0294554
0.0499358
-0.131357
0.0151612
0.000236671
-0.431901
0.10396
0.0236177
-0.0589835
-0.287394
0.346378
0.0866475
-0.010191
-0.0764565
-0.464646
0.332708
0.0473849
0.139777
-0.187162
-0.396815
-0.0676313
0.0163059
-0.022784
0.00647817
-0.463636
0.129831
0.333805
0.238623
-0.313156
0.0745323
-0.243767
-0.0205183
-0.00967665
0.0092978
0.000378855
-0.000976913
-0.049342
0.0503189
0.126478
-0.00257288
-0.169768
0.394296
-0.224528
0.12952
-0.3588
0.22928
-0.0244669
0.00844869
-0.0559648
-0.0796514
0.0805037
-0.13298
0.0524765
0.245279
-0.391086
0.145807
0.209528
0.201125
0.444153
0.218555
-0.00298842
-0.123168
0.173795
-0.0506273
-0.48861
0.115278
-0.531673
0.666565
-0.134892
0.198824
0.10177
0.290331
-0.511556
0.221224
0.25874
-0.120424
-0.00124476
0.017185
-0.0159402
0.130825
0.0433959
-0.174221
0.0434351
-0.01886
-0.0245751
0.00246567
-0.0163594
0.0138937
0.0503622
-0.11741
-0.0252396
0.0248887
0.000350879
-0.480252
0.0960354
0.384217
0.0925822
-0.230835
-0.29621
0.243503
0.0527063
-0.00650944
-0.00505016
0.00953923
0.000465991
-0.0599229
0.190748
-0.246164
-0.347898
0.594061
-0.012979
0.164324
-0.151345
-0.134726
0.185725
-0.0509996
0.0598414
0.211859
0.00453849
-0.216397
0.0187518
-0.0124807
-0.00627111
-0.0671094
-0.206084
0.0138344
0.00132675
-0.438308
-0.230875
-0.0125034
0.0041551
-0.418283
0.0650946
0.353189
-0.0238516
0.0253558
-0.00150424
-0.0139621
-0.00299759
-0.460131
0.0418474
0.186111
0.0257478
-0.00333258
0.00833508
-0.00293351
0.0281067
0.207614
-0.221242
-0.422115
0.123171
0.298945
-0.0222521
-0.000498721
0.567754
-0.425514
-0.14224
-0.0803188
-0.276015
0.356333
0.0226127
-0.0251197
0.00250697
-0.280037
-0.100395
0.41376
-0.176191
-0.237569
0.48617
-0.201432
-0.284738
0.0165938
-0.00949544
-0.00709839
0.0259419
-0.0212257
-0.00471623
0.230012
-0.000290261
-0.0276616
0.332955
-0.238453
-0.0945019
0.00335665
-0.0659311
0.0625744
0.000990706
-0.00990571
0.008915
-0.0277354
0.00249575
0.0120278
-0.00583618
-0.00619165
-0.226322
0.0491781
0.177144
-0.0079414
-0.00186903
0.00981043
-0.00405257
0.209538
-0.205485
-0.0557496
-0.010746
0.0664956
0.00314787
-0.000558891
-0.00258898
-0.0279865
0.0458893
-0.234902
-0.0404765
-0.0606826
0.101159
-0.144961
0.129633
0.0153283
0.14248
-0.201464
0.38049
-0.205763
0.0769162
-0.227026
0.132721
0.0357306
0.0509169
0.000262564
-0.00820396
-0.0169493
-0.15289
0.169839
0.402461
0.116877
-0.519339
0.129944
0.0233536
-0.153297
0.177737
0.225931
-0.403669
0.229297
-0.230104
0.000807169
-0.00534476
-0.186228
0.191573
-0.325906
0.230543
0.0953633
-0.0376016
0.0669725
-0.0293709
0.00706101
-0.008884
0.00182299
-0.0744386
0.0506
-0.0165019
0.0102832
-0.046547
0.0792318
-0.0326849
-0.000768454
-0.0441839
0.0449523
-0.397292
-0.0829607
0.441811
0.0721091
-0.51392
-0.0290444
0.0198869
-0.0238587
0.00142243
-0.00630201
0.0117735
-0.00547148
0.264086
-0.265892
0.00180572
-0.00169097
0.00583332
-0.00414235
0.360512
-0.230991
-0.0036508
-0.00559055
0.021622
-0.0053161
-0.0122207
0.0590603
0.306288
-0.386606
0.0195472
-0.0275695
0.00802233
0.0208978
-0.0183173
-0.00258049
-0.166197
0.540401
-0.110289
0.5521
-0.0133837
0.00345951
0.00992423
-0.551726
0.430417
0.121309
-0.0695772
0.0319757
-0.111022
-0.0261341
-0.539845
-0.052877
0.182562
0.0186326
-0.201195
-0.291643
-0.00591139
0.297554
-0.00154828
-0.178415
-0.085226
0.0988849
-0.0136589
0.208153
-0.20242
-0.00573257
-0.0115701
0.183421
-0.21525
0.0318288
-0.00185416
0.0803814
-0.419977
0.339596
0.18572
-0.198699
0.0310815
0.0385708
-0.0696523
-0.0128053
0.0367054
-0.0239001
0.146346
0.00652503
0.00152747
-0.0080525
0.377555
-0.205046
-0.172509
-0.0175458
0.200967
-0.0200243
0.0083911
0.0116332
0.217366
0.0212573
0.0025569
0.00966764
0.0126347
0.0308004
0.12722
-0.161297
0.0340766
-0.00134471
0.0273869
-0.00783971
-0.0137272
0.0113303
0.00239695
0.455426
-0.375045
0.0431607
0.0811592
0.21465
0.0594238
-0.0875939
0.0281702
0.00548856
-0.204133
0.313852
-0.291799
0.0933219
0.198477
0.509331
-0.258282
-0.0584292
0.0118823
-0.0466788
-0.176446
0.223125
0.211693
-0.0626371
0.623391
-0.245333
-0.378058
-0.166747
0.0356714
0.170449
-0.41229
-0.2072
0.0214341
-0.00563204
0.00541687
0.000215174
-0.00451189
-0.0140272
0.385458
-0.310721
-0.0747366
-0.32792
0.250744
0.0771763
0.0022915
0.0636315
-0.065923
-0.0417682
0.122272
-0.101052
0.0158256
0.00842559
-0.00136458
-0.223164
-0.0684792
-0.00451967
-0.00411316
-0.00655661
0.347505
-0.486077
-0.111773
-0.47658
-0.0972307
0.00978946
-0.00879876
-0.0103847
0.00889386
0.00149085
-0.00212262
0.0212318
-0.0344284
0.0196686
-0.0157244
-0.00394425
-0.00936695
0.00716181
0.00220514
0.0761025
-0.116579
-0.0412115
0.168432
0.0452659
-0.279962
0.0041679
-0.00836343
-0.227068
0.209632
0.0174365
0.0208582
0.0461754
-0.0670337
0.229276
0.0982832
-0.327559
0.0472031
0.318424
-0.46398
0.145556
-0.00611356
0.0209305
0.0309076
-0.0551334
0.0242258
-0.0168341
-0.0044989
0.0045477
-0.00240016
-0.00214753
-0.420216
-0.0843304
0.504546
-0.0461285
-0.505597
0.00366195
-0.020925
0.00726536
0.000608709
-0.212836
0.486331
-0.273495
0.060148
0.170614
-0.0149225
0.0129782
0.00194437
-0.169398
0.202351
-0.0329529
-0.255263
0.299798
-0.0445358
0.016362
-0.182882
-0.00299191
-0.166406
-0.170983
-0.103397
0.27438
-0.341461
-0.0904404
0.0019545
-0.0147979
0.0128434
-0.0166115
0.0153668
-0.0162956
0.00264943
0.0136462
-0.189121
-0.136785
0.255458
-0.00120985
-0.00935186
0.209492
0.210748
-0.214801
0.101166
0.235352
-0.00293737
0.0230446
-0.0201073
-0.402817
0.481148
-0.0783313
-0.0674118
0.479188
0.522473
-0.0151619
-0.361509
-0.0667404
0.42825
-0.00786551
0.00899648
-0.00113097
0.123768
-0.161579
0.0378109
-0.0275123
0.0265354
-0.016179
0.0202726
-0.0040936
-0.0470505
-0.00591895
0.00422798
0.00323993
-0.00566885
-0.0143555
0.503093
-0.371204
-0.131889
0.274811
0.110647
-0.06759
0.0508287
0.0167613
0.00751539
0.00398551
-0.0115009
0.496323
-0.252252
-0.24407
-0.0216129
0.145381
-0.0901126
-0.00560034
0.095713
-0.0018304
-0.00380164
-0.169442
-0.143714
0.0459496
0.204021
0.0767654
-0.122764
0.0459987
-0.0144412
-0.00497003
0.0194112
0.0695342
-0.0384527
0.00759218
-4.56524e-06
-0.00758762
-0.00122635
-0.000476186
-0.00553059
0.00600678
0.32156
-0.237431
-0.0841284
0.00991097
-0.010062
0.000151055
0.448317
0.402999
0.00365516
0.0150966
0.296364
0.253596
0.123959
0.229374
0.0921857
0.284154
-0.281395
-0.00275973
-0.0577806
0.111953
0.2989
-0.530289
0.231389
-0.169498
0.395429
0.0380666
0.112993
-0.402129
0.114735
-0.00108279
-0.012259
0.0133417
-0.00382227
-0.00585438
0.0144017
-0.0148006
0.00039887
0.00875484
0.000542952
0.17788
-0.179525
0.0213201
-0.0169829
-0.0043372
-0.0464097
-0.0863172
0.132727
0.0133358
-0.366879
0.0509397
-0.150521
0.0923067
0.0582146
0.0126895
-0.415506
0.253779
-0.10907
-0.143762
0.097352
0.455117
-0.156217
0.0213778
-0.00387586
-0.0175019
-0.0103702
-0.00301357
0.0972452
-0.268228
0.015739
-0.0138678
-0.00187117
-0.143787
0.188349
-0.0445618
0.521158
-0.241424
-0.279735
0.0356353
0.155333
-0.190968
-0.00927259
-0.150589
0.159861
-0.0117727
-0.200256
0.528387
-0.328131
0.159789
0.00877533
-0.168564
0.224511
-0.321744
0.0972329
-0.00149698
-0.00469925
0.00619623
0.165273
-0.080841
0.502457
-0.421616
-0.00268999
0.0157852
-0.022965
-0.00477038
0.000312313
0.00959865
-0.0808718
0.00232363
-0.109649
0.516468
-0.406819
-0.44959
0.272527
0.177064
-0.00519578
-0.0336653
0.038861
-0.00731471
-0.0028208
0.0101355
0.0066156
-0.0894268
0.0828112
-0.312855
0.512214
-0.199359
0.290372
-0.272708
0.124682
0.148027
-0.260257
-0.0676629
-0.00497965
-0.00302566
0.00800531
0.121236
-0.411886
0.29065
-0.0543793
0.0536109
-0.0199655
-0.00920409
0.0291696
-0.0191005
0.0062952
-0.33034
-0.0135112
0.00619648
0.00708228
0.0142378
0.273135
-0.102909
-0.170226
-0.0473836
0.160057
-0.112673
-0.111548
0.288662
-0.177114
0.0142075
-0.0173813
0.00317388
-0.102559
0.160204
-0.0576447
-0.183521
0.370128
-0.186607
-0.379951
-0.108659
-0.308335
-0.141255
-0.0248392
0.00187421
0.0514932
-0.0172675
-0.0342257
-0.00136397
-0.010843
0.012207
-0.433872
0.0924115
-0.446519
0.365678
-0.212227
-0.0839826
-0.137388
0.00967552
-0.264938
-0.00838409
0.00340444
0.00104723
0.480526
-0.162101
-0.282318
0.624635
-0.342317
0.328004
-0.226838
-0.0164416
0.0024795
0.014727
-0.192534
0.177807
-0.0690167
0.311811
0.38936
-0.499009
0.0285653
-0.169078
0.140512
0.162915
-0.124994
-0.0379213
-0.576466
0.294148
-0.169338
0.454159
-0.284821
-0.199614
0.0558265
0.0521235
-0.0903908
0.0382672
0.123836
-0.377205
0.0327148
-0.0505055
0.117892
-0.165507
-0.389041
-0.187425
-0.0593699
-0.00822009
-0.0207639
0.00632267
0.310581
0.210578
0.0680701
0.167894
-0.235964
-0.0942657
0.314472
-0.220207
-0.15161
0.331576
-0.179966
0.00326023
-0.00475721
-0.00181742
0.00692346
-0.00510605
0.118939
0.119855
0.372546
0.252089
-0.00228826
0.00107807
0.0139943
-0.0300347
0.0160404
0.00122488
-0.0116096
0.0343603
-0.157528
-0.276322
-0.0574951
0.333817
0.121311
0.239201
-0.0356993
-7.49975e-05
0.393853
0.308935
0.177396
0.00199862
-0.0186532
0.0166545
-0.00884713
0.00324622
-0.328195
0.158427
-0.300765
0.2065
-0.02526
-0.0451767
0.01307
-0.00579874
-0.00727126
0.363806
-0.567119
0.203313
0.183503
-0.496358
0.264738
-0.040923
-0.223815
0.0120187
0.0139232
0.0089811
0.0002982
0.0773022
-0.0127855
-0.0645167
-0.0197894
-0.0317402
0.0132676
-0.00477108
-0.00849649
-0.153837
0.138255
0.0155816
0.0218031
-0.000488943
-0.202695
-0.024373
-0.178596
-0.218696
0.324185
-0.0996734
-0.0234884
0.0243113
-0.000822948
0.216862
-0.400382
0.00139216
0.220559
0.0360665
0.0174371
-0.0112115
-0.000763089
0.0126587
-0.0118956
-0.0744188
-0.0440067
0.072297
0.170956
-0.282504
0.0603563
0.00544594
-0.00365662
-0.00178932
-0.157961
-0.0291111
0.187072
0.007649
-0.00112397
-0.00149496
-0.0117921
0.0132871
0.0111935
0.00207405
0.0148546
-0.00596459
-0.00888997
0.00564994
-0.200904
0.195254
0.143403
-0.114837
-0.0154238
0.0183529
-0.00292905
-0.00762816
-0.005723
0.0133512
0.0559075
0.0073328
0.1263
-0.494672
0.368372
-0.106894
-0.0127042
-0.0313534
0.000621098
0.0124489
0.358775
-0.237464
0.0848383
-0.365488
0.474799
-0.10931
-0.0302639
-0.122783
0.153047
-0.0189197
0.0213813
-0.00246168
0.0250636
-0.022726
-0.00233764
-0.0200994
0.0229892
-0.00288972
-0.108186
-0.293959
0.402145
-0.237046
0.3015
-0.00118848
0.0233521
-0.0255161
0.00216402
-0.0124696
-0.213853
0.0551781
0.0129127
0.00847307
0.00352847
-0.0120015
-0.112335
-0.160374
-0.00454454
0.00926069
-0.00471615
-0.0286738
-0.0578982
0.0865721
0.0007174
-0.186526
0.185809
0.0216718
0.0348056
-0.0564774
-0.0210196
0.0266399
-0.00562025
-0.00280364
0.0103958
0.261593
0.17651
-0.438103
0.425739
-0.216211
-0.00729024
-0.000800455
0.0080907
-0.486813
0.52552
-0.0387068
-0.457311
0.332081
0.125229
-0.46666
0.297323
-0.103745
0.482648
0.00974946
0.0784258
-0.0881753
-0.0678746
0.0712312
0.230056
-0.161986
0.16556
0.379787
0.512417
-0.285676
-0.226741
-0.45238
0.46507
0.198807
0.144947
-0.631759
-0.149143
0.14986
-0.00751067
0.00159172
0.172911
-0.184519
0.0116077
0.000881209
0.0151567
-0.000520858
0.142433
-0.0656678
0.199497
-0.187294
0.212328
-0.294386
0.322233
-0.0278478
-0.0568212
0.0665707
0.0196706
0.00213245
-0.11387
-0.230206
0.344076
-0.0265799
0.0229692
0.00361062
0.0607607
0.0536706
-0.114431
0.185895
0.13829
0.114765
-0.143457
0.0286916
0.0528868
0.0795268
-0.132414
0.0175927
-0.02053
0.0037606
-0.0191844
0.397197
-0.423426
0.0262291
-0.0096189
-0.00989488
0.0195138
0.49234
-0.357488
-0.134851
-0.00169113
0.00233152
0.182618
0.0701895
-0.0297464
0.0253388
-0.0260325
0.000693676
0.00251474
0.00338532
-0.223965
0.318522
0.193895
0.0223836
-0.0229718
0.000588231
-0.00658503
-0.000925638
-0.0150747
0.000274089
-0.192706
0.225214
0.0245954
-0.0220024
-0.00259297
-0.0172306
-0.339204
-0.0946688
0.010832
-0.0174021
0.00657014
0.188781
-0.0158704
0.508342
-0.456949
-0.0513927
-0.14946
0.0244664
0.0106617
-0.00973813
-0.2054
0.0094554
0.195944
-0.0907644
-0.00888698
-0.00251883
0.0114058
-0.119576
0.522038
0.0328438
-0.0472648
0.00136002
0.0210236
0.000204131
0.0211736
-0.0144632
0.000806782
0.0764954
0.00959305
-0.00581231
-0.00378075
-0.107627
0.190218
-0.0825909
-0.0451594
-0.0489662
0.0941257
0.00809708
-0.145865
0.137768
-0.0112029
-0.0857627
0.107466
-0.0217037
-0.00710036
0.217849
-0.227014
0.0432202
0.183793
-0.327475
0.457306
0.0237738
-0.0263652
0.00259143
-0.0982056
0.10565
-0.00744449
0.496258
0.0120838
-0.0127493
-0.0112595
0.0240087
-0.00778309
0.000492851
0.00523565
0.00435741
-0.0115891
-0.000891553
0.271581
0.154158
0.013577
0.0120698
-0.00359674
-0.0184206
-0.00611726
-0.0465163
-0.0391449
0.0856612
0.00531673
0.00310887
-0.276854
0.166423
0.110431
0.00365422
0.00949631
-0.183874
0.153611
-0.0105819
-0.00647495
-0.185292
0.11269
-0.0249101
0.00361854
0.0212916
0.113647
-0.000325085
-0.0136683
0.0139934
0.195683
0.0672014
-0.259907
0.128233
-0.185158
0.0569253
0.218601
0.226466
-0.0126239
0.0156436
-0.00545797
-0.0101856
-0.0282507
0.00599748
0.0222532
0.0180102
-0.00236665
-0.00332852
0.0179145
-0.0344273
-0.166992
0.00439058
0.00291198
-0.00730257
0.184415
-0.220024
0.0356087
0.00575495
0.014766
-0.020521
0.0284052
0.0718725
-0.100278
0.0124313
-0.0135141
0.165597
0.270289
-0.435886
-0.0145112
-0.139326
-0.0463691
-0.180644
0.0196728
0.00403999
0.233741
-0.24581
0.00229327
0.0125613
-0.0404051
0.0230584
0.0173467
-0.286631
-0.170318
0.171174
-0.176519
-0.0726806
-0.215808
0.0133883
-0.0357048
0.0172721
0.00776315
-0.00244642
0.0111119
-0.00359653
0.0750624
-0.312108
-0.0040086
0.0222499
-0.0182413
0.107555
-0.311688
-0.164025
0.505333
-0.341307
0.206301
-0.216343
0.0100427
0.284922
0.239461
-0.18724
-0.0522212
0.398143
-0.185824
-0.212319
-0.0190571
0.0220204
-0.00296329
-0.307193
0.0312224
0.0212467
-0.0154918
0.266153
-0.374339
0.225582
-0.123437
-0.333874
0.343349
-0.483379
0.14003
0.00660828
-0.00686063
0.000252346
-0.0234413
0.0248174
-0.00137614
-0.0066
0.0702315
0.00206325
0.0211656
-0.000513854
-0.0229274
-0.0170576
-0.0157001
-0.159321
0.175021
-0.0136738
0.00127506
0.0123988
-0.00364782
0.00589826
0.00188094
-0.0224467
-0.00082834
0.0232751
0.0233775
0.000396258
-0.14566
0.169424
-0.0237638
-0.360702
0.100445
-0.113921
-0.274787
0.388708
0.0830856
-0.368761
0.131264
-0.0885486
0.208022
0.0102901
-0.218312
-0.174173
-0.34412
0.0281767
-0.27957
-0.114124
-0.16273
-0.0921402
0.0456239
0.00896567
0.286963
-0.590133
0.597977
-0.00784323
0.213568
0.012898
0.0090813
-0.00984439
-0.00973373
0.0143356
-0.00460188
-0.12681
-0.210353
0.000465716
0.00476993
0.0390303
-0.570703
0.035247
-0.0693444
-0.231421
-0.0449012
-0.249484
-0.343739
0.464975
0.347426
-0.142785
-0.204641
0.25606
-0.195912
0.0943083
0.011186
0.00604769
-0.000601756
-0.0254569
0.0235461
0.00191084
0.000679277
-0.0117678
-0.408209
-0.0972062
-0.0219349
-0.00638702
0.00685274
-0.399552
0.249986
-0.494549
0.0480172
-0.0340229
-0.00309907
-0.00529276
0.00839183
0.0159543
-0.0212477
0.00529338
0.0431149
-0.232855
0.18974
0.0525885
-0.0216809
0.00636727
-0.114686
0.0749829
0.0397032
0.150178
-0.466665
0.400994
-0.0010111
0.00497063
-0.00395952
-0.172884
0.00317148
-0.0141894
0.0110179
-0.0967566
0.132392
0.0157656
-0.0178734
0.00210777
0.0303883
-0.0119861
0.225554
-0.511396
0.14652
-0.127417
0.0483145
0.0791028
0.0136904
-0.0214664
0.00777603
-0.0840733
-0.00603934
-0.0363661
-0.0169215
0.0532876
0.00686099
-0.0165947
0.0115288
0.0399644
0.0963655
-0.24616
0.149795
0.00619282
0.00172113
-0.00791395
-0.010508
-0.487055
0.497563
-0.0990027
0.122056
-0.0230528
0.343035
0.222233
-0.336103
-0.0218239
-0.0204711
0.0189016
0.0015695
0.057606
0.0688715
-0.470929
0.0170085
-0.0533746
-0.124827
-0.0209264
-0.0124978
0.000300328
0.0121975
-0.174032
0.158331
-0.103058
0.306477
-0.203418
-0.119434
0.174164
-0.0547297
0.0155352
-0.0195438
0.666901
-0.511166
-0.155735
0.110588
0.162547
-0.457904
0.0799397
-0.0865397
-0.158052
0.505963
-0.347912
-0.547317
0.547317
-0.104578
-0.043356
0.147934
0.0242357
-0.00456291
-0.0299161
-0.0445182
0.0744342
0.187492
-0.172765
-0.510057
0.162159
0.453336
-0.317536
-0.1358
-0.0548806
-0.000869001
0.0213507
-0.00539633
0.0661918
-0.0760707
0.156918
-0.51782
0.360902
-0.17736
0.198782
-0.0214215
0.0218508
-0.00816044
0.331555
-0.238767
-0.092788
0.402791
0.297338
0.140251
-0.143696
0.00344508
-0.0141971
-0.0140536
-0.151812
-0.0973496
0.00585686
-0.0190424
0.0131855
0.211009
-0.0072442
-0.00240864
0.213859
0.0732769
0.210877
0.0869277
-0.0512195
0.203878
0.00414416
0.546011
-0.298873
-0.247138
-0.0260312
-0.00967362
-0.433756
0.0945529
0.112858
0.15188
0.0117853
-0.0245345
0.0271993
-0.0270557
-0.000143628
0.153026
0.292115
-0.44514
-0.0933865
-0.0212997
-0.0588675
0.369449
-0.310582
0.0972469
0.234308
-0.263768
0.346853
0.193097
-0.024242
0.000559575
0.0236824
-0.325725
-0.0491051
0.37483
0.00124139
0.00813036
-0.00937176
0.17423
0.000979343
-0.019899
0.597685
-0.341909
-0.255776
-0.215784
0.208684
-0.0017105
-0.0219401
0.0236506
0.177985
0.38977
0.19137
-0.0121715
-0.00632733
-0.0101746
-0.0516925
0.0618668
-0.0101742
-0.00517544
-0.115565
0.123937
-0.00837166
0.00896155
-0.0105613
0.00159972
-0.430951
-0.012473
0.0108252
-0.207607
0.196781
0.012139
-0.0108976
-0.0577724
0.377443
0.168568
0.3945
-0.141705
-0.252794
-0.0234985
-0.0031306
0.360778
-0.00226345
0.00681115
-0.00360405
0.0523172
-0.0170849
0.180086
-0.163001
0.125712
0.130348
-0.00603918
0.00749479
-0.0429303
-0.0103807
-0.393268
-0.030158
0.0316443
-0.147209
0.024623
-0.162917
0.138294
-0.300956
0.0488561
-0.501237
-0.0040609
-0.205325
0.209385
-0.104638
0.111253
0.232594
-0.0463976
-0.186196
0.00613494
0.00151406
0.124242
-0.413119
0.288878
-0.0116264
0.0545156
-0.0434899
0.0643482
-0.150724
0.19412
-0.164501
0.232534
-0.414982
0.182447
0.163768
0.210839
0.0101378
-0.0933934
0.0832556
0.0011188
0.236998
0.123482
-0.36048
-0.00155766
-0.00849101
0.0100487
0.0173393
0.00391268
-0.021252
-0.0999003
0.0482078
0.00242468
0.110568
0.00740611
-0.000797832
0.00296752
-0.00206974
-0.0367027
0.0240069
0.0126958
0.318596
-0.0678526
0.114119
-0.000461588
-0.501868
0.193532
0.133855
-0.495364
0.0858552
0.135593
-0.272732
0.425758
-0.0205998
0.0143287
0.0697178
-0.0613182
-0.00839966
0.0165531
-0.0186442
0.00209114
0.00211828
-0.0237055
0.0215872
0.0242345
0.0103965
-0.034631
0.0205882
0.0132619
0.00707297
-0.0203349
0.146779
0.0136325
-0.129201
0.0818175
0.0843824
0.117023
-0.0405388
-0.0253384
0.0658772
-0.0180535
0.0755843
-0.0575308
-0.052161
0.0605263
0.396453
-0.163919
0.385165
-0.573376
0.188211
0.0177515
-0.00932643
-0.00842505
-0.211334
0.35588
0.0404022
-0.114492
0.0740894
0.122934
-0.502885
-0.182768
-0.0351538
0.217922
0.229618
-0.298963
0.00699923
-0.00260865
-0.188057
-0.012742
0.200799
-0.207692
0.0434822
0.16421
-0.1614
0.208785
-0.0176319
-0.00283919
0.0377845
-0.127658
0.0898734
0.0064892
-0.0023213
-0.230796
-0.445671
0.60123
-0.60123
-0.170209
-0.094087
0.0583474
0.0357396
-0.290397
0.231529
0.0933586
-0.205779
0.00919497
0.196584
-0.0603841
-0.002722
-0.000934625
-0.114146
0.343422
0.124675
0.321794
-0.44647
-0.20843
0.188644
0.0197861
-0.000612108
-0.316607
-0.18526
-0.144523
0.00670582
0.137818
0.0646384
0.0793879
-0.144026
0.00488152
-0.00952907
0.00228487
0.163752
-0.209496
0.0457436
0.0539956
0.00734688
-0.0613425
0.371552
-0.517562
0.146011
0.399317
-0.242399
0.00763651
-0.00150157
0.0220616
0.0931111
-0.115173
-0.173489
0.156404
0.463435
0.0550849
-0.0535112
-0.00157374
-0.000874767
0.0242721
-0.0233974
0.0194117
-0.00614974
-0.138199
-0.00655021
0.384152
-0.151107
-0.233045
0.0805964
0.344528
-0.425124
-0.0762817
0.0634963
-0.00500208
-0.0123983
0.0174004
0.210928
-0.2046
-0.00632807
-0.0208568
0.0038739
0.0319368
0.455412
0.0482116
0.180376
0.00403957
0.000710493
0.00642491
-0.0071354
-0.138624
-0.289652
0.428276
-0.00397997
-0.0146732
-0.00304916
0.370999
-0.246108
-0.124891
0.010001
-0.00536506
-0.00463593
-0.0110305
-0.0752722
0.00864689
-0.0143699
-0.0451579
-0.544976
-0.000714691
0.214826
-0.214111
-0.0661138
0.094519
0.0278989
-0.126902
0.0166199
-0.00563349
-0.0131759
0.0188094
-0.00172219
0.216028
-0.0522762
-0.0780656
-0.271053
-0.0207467
-0.174994
-0.0181691
0.193163
-0.0519873
0.225904
-0.148988
0.0400114
0.0150735
-0.545091
0.0801829
-0.0340074
0.211804
-0.213727
0.32074
-0.455092
0.134352
-0.0438401
0.105288
-0.0614475
-0.0154785
0.0286121
-0.0131335
0.0682819
0.00143597
0.00726536
-0.00963017
-0.0268265
0.0364567
0.101016
0.217902
-0.000117236
0.291597
-0.519157
0.22756
0.110967
0.128494
-0.505887
-0.0476012
0.553488
0.0552783
-0.0230731
0.0753461
0.0444242
-0.248976
0.031913
0.217063
-0.0269338
-0.199081
-0.00560093
0.204682
-0.0146499
0.0143248
0.00188035
-0.174769
0.172888
0.344405
0.00262692
0.00726186
-0.00988878
0.0082318
-0.00412708
0.422372
0.472606
-0.336917
-0.135689
0.373198
-0.163054
0.00552888
-0.0391941
0.165963
-0.000256256
-0.165707
0.00495798
0.0223105
-0.0501438
0.0278333
0.0280452
-0.0454994
0.0174542
-0.25728
0.190633
0.0943439
-0.4346
0.206145
0.251627
-0.0294186
-0.222208
0.00967469
-0.00526468
-0.00441001
-0.0240583
0.0588638
-0.00486719
-0.00932223
0.130683
0.125739
-0.0880226
0.321808
-0.233786
0.56725
-0.405666
-0.161584
0.479562
0.346229
-0.513343
0.167114
-0.321494
0.446169
0.0241272
-0.00407639
-0.0200509
-0.206353
0.172229
-0.0218501
-0.0780502
-0.00148706
0.00430742
0.00881274
-0.0131202
-0.227357
0.071238
0.197871
0.011513
-0.0337306
0.0222176
0.443931
-0.123191
-0.179062
0.122244
0.056818
0.0240224
0.000104889
-0.492234
-0.534062
0.370037
-0.295113
0.0515977
0.243515
0.0171075
-0.0112507
-0.165863