/*--------------------------------*- C++ -*----------------------------------*\
| =========                 |                                                 |
| \\      /  F ield         | OpenFOAM: The Open Source CFD Toolbox           |
|  \\    /   O peration     | Version:  v2012                                 |
|   \\  /    A nd           | Website:  www.openfoam.com                      |
|    \\/     M anipulation  |                                                 |
\*---------------------------------------------------------------------------*/
FoamFile
{
    version     2.0;
    format      ascii;
    class       volVectorField;
    location    "300";
    object      U;
}
// * * * * * * * * * * * * * * * * * * * * * * * * * * * * * * * * * * * * * //

dimensions      [0 1 -1 0 0 0 0];


internalField   nonuniform List<vector> 
14479
(
(1.22465 -0.176385 0)
(1.05977 -0.254157 -4.89143e-21)
(1.10454 -0.133489 -1.7422e-20)
(-0.228521 -0.0648325 8.45695e-21)
(0.954613 -0.495191 0)
(-0.289051 -0.0511296 1.17843e-20)
(1.00002 -0.00415566 -7.24076e-21)
(1.03457 -0.00586487 -5.56996e-21)
(1.03509 -0.0693228 0)
(-0.373685 0.00154436 0)
(0.956011 -0.46436 -2.59636e-21)
(-0.230448 -0.0630564 4.09597e-20)
(-0.216616 -0.04441 -1.38563e-19)
(-0.215359 -0.0434277 1.41037e-19)
(-0.148855 -0.0437029 0)
(-0.109607 -0.0120094 -5.96343e-20)
(1.38544 -0.263424 8.78809e-20)
(0.527474 0.0895505 4.59467e-21)
(0.141043 -0.121293 -2.67332e-19)
(1.30876 0.0632848 9.75469e-20)
(1.01362 -0.0229754 0)
(1.0411 -0.115748 -8.25049e-21)
(-0.127876 -0.0156561 3.4648e-20)
(1.33799 -0.289816 1.10989e-19)
(1.03491 -0.0688523 -6.40695e-21)
(0.734656 0.0846065 5.96557e-20)
(0.928107 -0.330805 -4.59219e-20)
(-0.372562 0.000330225 5.33886e-20)
(1.28687 -0.389043 2.43449e-20)
(-0.145422 -0.0444031 1.48759e-20)
(0.614747 0.0411968 8.26634e-21)
(-0.337649 -0.0775339 0)
(0.112636 -0.118763 3.19223e-19)
(1.0377 -0.0118694 8.8639e-21)
(1.09787 -0.0428492 0)
(1.05076 -7.90333e-05 2.70965e-21)
(0.99337 -0.0219966 8.42351e-21)
(-0.130213 -0.0161227 1.05859e-21)
(1.08762 -0.143773 4.39854e-22)
(0.853442 0.26929 0)
(-0.139533 -0.0418038 1.24933e-19)
(1.08427 -0.144178 0)
(0.867926 -0.107206 3.78629e-20)
(1.132 -0.0824815 0)
(-0.0826698 -0.0216872 3.78366e-20)
(1.32838 -0.113358 0)
(-0.137607 -0.0238531 0)
(-0.193695 -0.0315585 -1.08515e-19)
(1.09272 -0.0641854 1.44844e-20)
(0.714732 0.113034 -1.44063e-19)
(1.01753 -0.0405163 0)
(0.493048 -0.0933877 -1.24524e-19)
(1.12858 -0.501387 0)
(1.33575 -0.225106 -8.09779e-20)
(1.09239 -0.0610796 -1.60878e-20)
(0.98408 -0.0554125 2.70264e-22)
(1.17585 -0.316627 -7.64522e-20)
(-0.372277 -0.0417083 0)
(1.05064 -0.000220592 0)
(1.36677 -0.165011 0)
(1.09531 -0.1446 -2.65417e-21)
(1.06892 -0.0321976 0)
(0.402384 -0.169053 1.27582e-19)
(1.26715 -0.314011 3.78993e-20)
(1.41164 0.175306 -1.53892e-19)
(-0.45356 -0.0622114 0)
(1.19527 -0.093179 0)
(0.886356 -0.102562 -4.6469e-20)
(0.253366 -0.0860879 6.64109e-20)
(0.589529 -0.119466 0)
(-0.368861 -0.00871609 -2.04421e-19)
(1.32924 0.0581706 0)
(-0.0992109 -0.0896801 1.94521e-19)
(0.11045 -0.0634394 -7.39452e-20)
(1.01245 -0.0230959 0)
(1.03221 -0.068619 8.95269e-21)
(-0.378421 -0.0104904 1.35518e-19)
(-0.184528 -0.0502927 -3.99144e-20)
(0.0527334 -0.0980328 2.40839e-19)
(-0.366258 -0.0104899 1.5556e-19)
(0.329041 -0.121539 0)
(1.00223 -0.00283248 -5.12277e-21)
(1.19545 -0.0358711 -2.36066e-20)
(1.3229 0.067975 0)
(1.10116 0.000191951 2.13698e-20)
(1.31771 -0.102549 0)
(1.32328 0.114388 -1.01723e-19)
(1.0087 -0.0350659 -8.63924e-21)
(-0.369768 -0.0119053 -1.52189e-19)
(1.0184 -0.0562112 3.9195e-21)
(-0.408723 -0.0153066 5.56674e-20)
(-0.450691 -0.0624726 3.62387e-20)
(-0.42495 -0.084415 0)
(-0.1234 -0.065195 5.65508e-20)
(1.19348 -0.00138195 4.62622e-20)
(0.123267 -0.12268 8.8987e-20)
(1.10037 -0.0158823 9.75837e-21)
(-0.413944 -0.0174927 -9.10916e-20)
(1.17697 -0.0348181 0)
(-0.284991 0.000293719 -4.59694e-20)
(0.684234 0.0514095 0)
(-0.359479 -0.0410575 0)
(1.36717 -0.164917 0)
(1.02166 -0.00488995 0)
(1.18194 -0.040917 4.81666e-20)
(1.04987 -0.000894117 8.33811e-21)
(1.40809 0.182147 1.26874e-19)
(-0.087333 -0.0901956 -1.58913e-19)
(1.17574 -0.33598 -2.88463e-21)
(-0.144257 -0.0418662 -2.03648e-19)
(1.17195 -0.0617531 1.58596e-20)
(1.10417 -0.0670573 0)
(0.930691 0.0999045 1.83273e-20)
(1.34403 -0.224143 1.0619e-19)
(0.942946 -0.31794 0)
(0.94942 -0.127954 -7.12379e-20)
(1.0304 -0.0691871 0)
(0.411874 -0.174215 1.70938e-19)
(0.936901 -0.0701076 1.35727e-21)
(1.31628 0.0952095 -9.7211e-20)
(1.09539 -0.0393505 8.58324e-21)
(1.00464 -0.0185987 0)
(-0.332404 -0.0815231 0)
(1.13342 -0.146013 -1.56427e-20)
(-0.247096 -0.108827 6.49452e-20)
(1.06654 -0.00836641 1.3724e-20)
(1.1483 -0.029942 2.50826e-20)
(0.975527 -0.0464372 4.16893e-20)
(1.06344 -0.00449058 0)
(-0.376943 -0.0443735 0)
(1.07552 -0.0105081 1.09602e-20)
(1.30046 -0.162337 -1.85249e-19)
(0.149143 -0.0703464 0)
(1.06767 -0.00995481 -1.75125e-20)
(1.34235 -0.0623426 -9.68885e-20)
(1.13097 -0.376097 -3.33184e-21)
(0.708765 -0.558229 2.22113e-20)
(0.964867 -0.0628134 6.76603e-21)
(0.512616 -0.0922055 -1.03219e-21)
(-0.233217 -0.066163 -1.4683e-19)
(1.08117 -0.0362572 2.02892e-20)
(-0.276511 -0.0511586 -9.98022e-20)
(1.13689 -0.086243 0)
(0.642508 0.295572 4.11768e-20)
(1.26239 -0.297911 7.08425e-20)
(1.09776 0.00266373 -3.47043e-20)
(-0.153772 -0.115007 0)
(1.0608 -0.0553922 7.28488e-21)
(1.20087 -0.180115 0)
(1.05721 -0.111304 -1.54521e-22)
(0.103297 -0.124967 -1.7056e-19)
(1.1069 -0.138266 1.9395e-20)
(1.0142 -0.0252171 -1.52319e-21)
(1.37577 -0.275252 -6.0152e-20)
(1.40132 -0.264251 0)
(1.19616 0.0360893 1.17268e-20)
(-0.38484 -0.0140114 6.16257e-20)
(0.999825 -0.00291033 -3.80549e-20)
(0.556635 0.0863664 -9.39694e-20)
(0.0817833 -0.099633 -1.43782e-19)
(-0.380127 -0.0165214 -1.87355e-19)
(0.23662 -0.110973 -1.16948e-19)
(0.0909871 -0.103702 -1.10306e-19)
(1.32446 0.106848 1.22302e-19)
(-0.248688 -0.0324368 1.20497e-19)
(-0.220289 -0.0357637 9.65875e-20)
(1.06667 0.000659051 8.74526e-21)
(0.897241 0.0941136 0)
(1.01662 -0.0385317 0)
(1.10249 -0.0188915 9.48409e-21)
(1.08162 -0.00914952 -2.62967e-20)
(1.31761 -0.0980769 0)
(0.983975 -0.0552501 2.70389e-20)
(1.31905 0.0898211 1.26611e-19)
(0.997237 -0.0539243 2.05753e-20)
(1.07666 -0.497245 -2.49587e-20)
(1.00614 -0.0319702 1.94818e-21)
(1.11221 -0.0158975 -8.68286e-21)
(0.906995 -0.439896 0)
(0.992626 -0.106744 2.22236e-20)
(0.651012 -0.655337 1.18002e-20)
(1.01191 -0.0209244 0)
(0.940838 -0.0737382 0)
(-0.421815 -0.0853387 -5.2564e-20)
(1.00692 -0.023603 0)
(1.06202 -0.360082 -1.53694e-20)
(0.875921 -0.10309 -3.22116e-20)
(0.890367 -0.0733948 3.06101e-20)
(0.752311 -0.579935 6.20202e-20)
(0.697956 0.337246 -7.53421e-20)
(1.00491 -0.0222644 -6.35698e-21)
(-0.186472 0.0132847 3.69113e-20)
(1.18327 -0.051104 0)
(1.00009 -0.00368571 1.39769e-20)
(-0.272766 -0.0509609 -2.52232e-19)
(0.0635543 -0.10327 1.58192e-19)
(0.74242 -0.537445 -6.56433e-20)
(0.0660987 0.0661848 1.3169e-19)
(1.15755 -0.134357 -5.33116e-21)
(0.997366 -0.0544431 -1.87393e-20)
(0.948337 -0.1214 5.66698e-20)
(1.39155 -0.174376 -1.5724e-19)
(0.796166 -0.100827 -7.166e-20)
(1.23486 -0.411151 3.54145e-20)
(-0.275618 -0.0520025 1.9674e-19)
(0.948007 -0.115675 2.07888e-20)
(0.968445 -0.0585177 0)
(1.34452 0.0630468 -1.32741e-19)
(1.11186 -0.016099 0)
(1.06783 -0.365879 1.75968e-20)
(-0.188571 -0.121668 9.45241e-20)
(-0.206728 0.0265486 0)
(0.973058 -0.108401 0)
(0.887048 -0.100485 6.367e-20)
(1.02081 -0.0399721 9.30614e-21)
(1.3905 -0.149306 1.01583e-19)
(-0.282524 0.0129685 -1.96811e-20)
(-0.148388 -0.026656 0)
(0.993362 -0.0212321 0)
(1.19216 -0.188448 5.66114e-20)
(0.850435 -0.565664 0)
(-0.365142 -0.099157 -1.61182e-20)
(-0.113305 0.0127568 0)
(1.2105 -0.028152 -6.10681e-20)
(0.252215 -0.510546 9.66731e-20)
(-0.268797 -0.0707061 0)
(1.05026 -0.11559 2.94551e-22)
(1.09836 -0.067318 0)
(0.777078 0.145131 0)
(1.00794 -0.0352435 8.27812e-21)
(0.961167 -0.0847775 -3.14119e-20)
(1.00057 -0.00508945 -4.23553e-21)
(1.05389 -0.22604 0)
(-0.206456 -0.0412244 -2.57473e-20)
(0.901331 -0.0601624 -5.73758e-20)
(0.947709 -0.110723 2.97036e-20)
(1.17957 -0.326496 -2.51477e-21)
(0.242711 -0.439927 -7.52821e-22)
(0.992912 -0.0192461 -1.79331e-20)
(1.03678 -0.0900059 6.96497e-21)
(-0.267412 -0.0729599 -7.37468e-20)
(1.38032 -0.13395 4.74848e-20)
(1.17802 -0.0570101 -2.17512e-20)
(0.731146 0.0930686 -1.33588e-19)
(-0.230741 0.025265 3.25363e-20)
(-0.173595 -0.122358 -8.53735e-20)
(1.07426 -0.0327985 0)
(1.01887 -0.0561538 0)
(0.255452 -0.00105185 1.40242e-20)
(-0.427396 -0.0341227 -1.78203e-19)
(1.0333 -0.0045154 5.54728e-21)
(1.37915 -0.0885048 3.70108e-20)
(1.0129 -0.00247788 1.46639e-22)
(1.06485 -0.00641875 -7.46447e-21)
(-0.424896 -0.0353519 1.48629e-19)
(1.39251 -0.267768 -3.18038e-20)
(0.994395 -0.02676 1.75365e-20)
(1.29533 -0.397938 8.26116e-20)
(0.725377 0.0588371 0)
(1.34875 -0.281853 -1.19764e-19)
(0.398118 -0.130047 -3.97375e-20)
(0.324618 -0.115255 2.73461e-20)
(-0.271434 -0.0519002 2.50387e-19)
(1.34279 -0.0692058 1.19446e-19)
(1.00275 -0.0301042 0)
(1.07332 -0.225188 1.17191e-20)
(1.00194 -0.0275208 0)
(-0.132225 0.00606986 7.2052e-20)
(-0.176149 -0.0775676 -1.64136e-19)
(0.213066 -0.0803829 6.71098e-20)
(-0.131409 -0.114475 0)
(0.973771 -0.0446488 -5.40004e-20)
(-0.471416 -0.073038 0)
(0.952432 -0.0437593 0)
(0.996567 -0.108269 8.44536e-21)
(-0.488026 -0.0862843 3.61925e-20)
(-0.0793663 -0.0875931 2.19295e-20)
(1.0943 -0.0348732 -1.00129e-20)
(-0.448536 -0.083268 1.86472e-19)
(-0.285232 -0.108401 2.55062e-22)
(-0.468171 -0.0723524 -3.33918e-20)
(-0.450835 -0.078223 0)
(-0.367627 -0.0137773 0)
(0.391676 -0.131859 0)
(1.00187 -0.00907489 -2.17345e-21)
(0.993913 -0.0175193 -1.76342e-20)
(0.123622 -0.0615804 -1.34843e-19)
(0.95194 -0.0461062 3.48244e-20)
(-0.0876201 -0.0651965 -7.30302e-20)
(-0.28125 -0.0528576 -1.83203e-19)
(0.946442 0.127604 -3.08473e-20)
(0.712099 0.119023 2.38517e-20)
(1.12454 -0.367284 -4.26087e-23)
(-0.286081 -0.0513619 -4.99153e-20)
(0.985971 -0.0512388 0)
(1.20117 -0.179803 2.45855e-20)
(1.00655 -0.0724835 0)
(0.708345 -0.0576271 -3.20318e-20)
(1.06819 0.000209789 7.06346e-23)
(0.993222 -0.216493 1.67233e-20)
(1.0187 -0.0377982 -7.83344e-21)
(-0.3724 -0.100302 -2.54754e-19)
(1.07394 -0.0304232 -3.85634e-24)
(1.24595 -0.00706623 -1.00714e-19)
(1.19222 -0.184047 -8.05554e-20)
(-0.18189 -0.0368342 -5.05914e-20)
(0.483782 0.0356932 -1.05164e-19)
(1.23582 -0.401958 0)
(1.12892 -0.0317689 -1.80094e-20)
(1.14447 -0.0236891 1.26642e-20)
(-0.360392 -0.0989633 0)
(0.943236 -0.453389 0)
(1.10401 -0.437356 3.74427e-21)
(1.06283 -0.0593188 -6.96485e-21)
(1.03936 -0.0893256 -8.72395e-22)
(0.999769 -0.00367994 1.08065e-20)
(-0.235158 -0.0643427 8.68418e-20)
(1.04046 -0.308528 0)
(1.00608 -0.0316828 3.86545e-21)
(1.0192 -0.00325165 1.52392e-21)
(0.9735 -0.106762 0)
(0.993001 -0.0156849 2.2818e-20)
(0.962938 -0.0883002 3.56793e-20)
(-0.40567 -0.0562286 0)
(1.43132 -0.223058 0)
(0.684329 0.108811 1.34273e-21)
(0.155382 -0.122079 0)
(0.938789 -0.494887 0)
(-0.427534 -0.0931138 0)
(1.04372 -0.05081 8.31681e-22)
(1.2023 0.0345178 0)
(1.24898 0.0156331 0)
(0.0994305 0.0666402 -5.85303e-20)
(-0.204429 -0.0413735 8.84959e-20)
(1.42903 -0.215322 3.85653e-20)
(1.02337 -0.00298791 0)
(1.00194 -0.191111 0)
(1.35682 -0.212077 6.49461e-21)
(0.859566 0.277422 4.67336e-20)
(1.23176 -0.222706 -1.75772e-20)
(0.147079 -0.122216 0)
(1.19061 -0.100202 0)
(-0.285518 -0.0524428 1.27842e-19)
(1.03636 -0.0124995 0)
(-0.172878 -0.0792122 1.00226e-19)
(1.07041 -0.00113724 -5.79799e-21)
(-0.45117 -0.0658426 0)
(-0.169956 0.0194554 1.33384e-19)
(1.07154 -0.0021635 1.26668e-20)
(1.24239 -0.209458 -3.6304e-20)
(-0.127853 -0.0634119 -6.24275e-20)
(-0.454429 -0.0798748 0)
(1.09632 -0.138368 -3.94162e-21)
(1.01673 -0.0419321 0)
(-0.487822 -0.0858821 0)
(1.00807 -0.0187074 9.59862e-21)
(1.05847 -0.0353183 7.05626e-21)
(-0.372862 -0.0957033 -1.28487e-19)
(1.14856 -0.0302872 0)
(1.02307 -0.0690062 3.6466e-22)
(1.02633 -0.0698824 -3.64836e-21)
(-0.170332 -0.0994051 0)
(-0.363179 -0.10222 -1.70149e-19)
(1.02865 -0.0691121 0)
(-0.453459 -0.0826412 -1.2267e-19)
(1.201 -0.0429147 0)
(0.688007 -0.0998758 -3.99351e-20)
(-0.200703 -0.040486 5.09884e-20)
(-0.43412 -0.0920695 -4.10046e-20)
(0.0908776 -0.0705856 1.13895e-19)
(1.41995 -0.0492402 0)
(0.0106291 -0.107044 9.82219e-21)
(1.32802 -0.0566692 1.03572e-19)
(0.757606 -0.9171 0)
(-0.0283597 -0.0419607 1.87788e-19)
(0.412737 -0.125221 2.69387e-20)
(1.31658 0.0595242 -9.94651e-20)
(0.82726 -0.275422 -3.27152e-20)
(1.21913 -0.36466 4.85935e-20)
(1.00541 -0.0750609 1.85526e-20)
(1.0609 -0.0545237 0)
(1.19738 -0.00425041 -1.77366e-20)
(0.974084 -0.447119 2.66537e-21)
(0.697471 -0.0265144 0)
(-0.00315311 -0.106082 0)
(1.26461 -0.279129 -5.00142e-20)
(1.00716 -0.0152767 -1.82428e-21)
(1.31792 -0.320532 -7.51735e-20)
(0.990217 -0.0198132 -2.14004e-20)
(1.40359 -0.125891 1.23697e-20)
(1.2507 -0.20198 1.21811e-20)
(1.22162 -0.0459388 3.24806e-20)
(1.02293 0.159981 -9.87111e-21)
(-0.173673 -0.0343612 -7.82699e-20)
(0.680816 -0.0999431 -2.31254e-19)
(-0.177627 0.0343759 1.22843e-19)
(0.679827 -0.731236 -1.4761e-20)
(0.457446 -1.1839 0)
(1.04158 -0.0489918 -2.46193e-22)
(1.00183 -0.006169 -1.08975e-20)
(0.287874 -0.1153 1.13469e-19)
(-0.471471 -0.0734798 -1.66664e-20)
(-0.171713 -0.0752678 9.33699e-20)
(1.18922 -0.125712 2.47608e-20)
(-0.0904892 -0.0455399 -2.16469e-19)
(1.1414 -0.0194463 -2.22784e-20)
(-0.148702 -0.027669 -1.08415e-19)
(-0.375343 -0.0996536 2.08625e-19)
(0.727862 0.122646 0)
(1.05773 -0.0333384 0)
(-0.373868 0.00220149 0)
(-0.364155 -0.0088327 7.80529e-20)
(1.00705 -0.0257067 2.9775e-21)
(1.00218 -0.00735395 7.20086e-21)
(0.0395978 0.212859 2.04043e-19)
(1.03205 -0.0108833 -2.68304e-21)
(1.02569 0.169823 2.08838e-20)
(1.12839 -0.488359 0)
(1.00168 -0.0027636 5.05433e-21)
(1.10365 -0.198827 3.33956e-21)
(1.12498 -0.140962 -2.44661e-20)
(1.05325 -0.249115 4.48053e-21)
(0.90199 0.00163879 1.24838e-19)
(1.39857 -0.064173 -8.77865e-20)
(0.120675 -0.12183 0)
(1.05297 -0.237293 2.52528e-22)
(-0.36435 -0.0973933 1.23145e-19)
(1.01282 -0.0277054 -2.32939e-21)
(1.0049 -0.185962 -1.36452e-20)
(1.00031 0.310058 -7.68329e-21)
(0.465061 -0.216298 0)
(1.26505 -0.296522 -9.33141e-20)
(-0.151883 -0.0232911 6.28812e-21)
(1.09339 -0.0901144 2.19878e-20)
(1.05785 -0.237947 -9.56897e-22)
(-0.205798 -0.035809 0)
(1.24362 -0.0027982 1.14135e-19)
(-0.147693 0.0228988 0)
(0.691977 0.106592 -1.59158e-21)
(1.3301 -0.308636 -1.05024e-19)
(-0.468511 -0.0713345 -7.34874e-20)
(-0.366312 0.00257861 0)
(-0.22792 -0.0513433 0)
(1.01312 -0.0277301 2.10214e-21)
(1.34774 -0.210466 0)
(1.15956 -0.138339 0)
(0.75205 0.109637 -5.35219e-20)
(-0.167686 -0.0768175 -8.09346e-20)
(1.16874 -0.0574859 -2.09981e-20)
(1.10901 -0.109907 -9.8888e-21)
(0.994552 -0.0126921 0)
(0.691265 -0.688727 1.83476e-20)
(1.39163 -0.108804 1.03692e-19)
(1.37905 -0.120648 -2.14971e-20)
(1.00024 -0.000892121 -8.58586e-21)
(1.36607 -0.268366 3.49142e-20)
(1.06943 -0.0347474 0)
(1.38381 -0.0947528 0)
(0.0427756 -0.0637878 1.50991e-19)
(-0.257041 -0.109844 0)
(1.16836 0.00645533 -1.82298e-20)
(0.977865 -0.0502366 9.98753e-21)
(0.608927 0.0388187 -1.04994e-19)
(1.11866 -0.445188 -1.69849e-20)
(0.830704 -0.0106158 -4.70319e-20)
(-0.17222 -0.0345148 8.75664e-20)
(1.11857 -0.13997 0)
(-0.0927096 -0.0877239 0)
(-0.209059 -0.0422039 -2.52901e-20)
(1.06491 -0.00601492 -1.51722e-22)
(1.04975 -0.000844702 -1.35418e-20)
(1.01194 -0.00232486 1.4889e-21)
(-0.19667 -0.0423521 0)
(-0.0591548 -0.126451 1.14843e-19)
(-0.278585 -0.0534219 1.56265e-19)
(0.32548 -0.468438 -2.41599e-19)
(-0.280534 -0.108723 3.69049e-20)
(-0.176697 -0.0359979 0)
(0.842033 -0.25695 3.2276e-20)
(1.34086 -0.313502 1.31631e-19)
(1.05383 -0.107561 0)
(-0.0816287 -0.0674485 8.74579e-20)
(1.26041 0.040134 3.51942e-20)
(0.619465 -0.402882 -1.66446e-19)
(1.13954 -0.0455655 -3.47968e-20)
(0.744021 0.114731 0)
(1.05436 -0.0366789 2.30108e-21)
(0.20803 -0.0811457 -7.09168e-20)
(0.741541 0.336527 4.00903e-20)
(-0.214345 0.0280582 0)
(0.0160597 -0.0525297 8.89553e-20)
(1.00191 -0.0134046 -1.50629e-20)
(1.03091 -0.0110496 0)
(-0.295583 0.00151276 -4.82928e-20)
(-0.142168 -0.0239619 -4.81296e-20)
(1.08132 -0.0330914 7.02803e-21)
(1.22454 -0.179301 -1.77628e-20)
(-0.244221 -0.0682183 7.62326e-20)
(1.44477 -0.0340559 6.92435e-20)
(1.16077 -0.0859243 -4.29235e-20)
(0.895912 -0.070789 1.92728e-21)
(1.45206 -0.0438354 -4.70383e-21)
(1.14715 -0.131606 -1.63746e-20)
(0.986146 -0.0506586 -2.66629e-20)
(-0.221066 -0.0547267 -7.40441e-20)
(-0.410974 -0.0522184 0)
(0.115301 -0.119695 -1.70218e-19)
(1.22143 -0.0446347 0)
(1.09629 -0.0368971 2.1081e-20)
(-0.189986 -0.0501244 6.31245e-20)
(1.06152 -0.226051 -3.64376e-21)
(1.3186 -0.0517748 0)
(1.19219 -0.00129841 0)
(-0.465448 -0.0886735 1.50489e-19)
(1.05916 -0.0251452 4.95638e-21)
(1.00488 -0.0202599 -2.97878e-21)
(1.00187 -0.0104041 -3.16508e-22)
(1.00251 -0.0354448 -2.96596e-21)
(-0.181113 -0.0301737 -3.23423e-20)
(1.24736 -0.334052 0)
(0.412166 0.0310868 -1.44191e-19)
(-0.268426 -0.100404 0)
(0.523615 0.0314936 2.26497e-19)
(-0.083584 -0.0455217 2.23439e-19)
(-0.224773 0.0240571 0)
(-0.21102 -0.0336702 0)
(1.07739 -0.013368 5.49072e-21)
(1.16575 0.00731063 0)
(0.613451 -0.124366 6.03674e-20)
(-0.181044 -0.0554326 -1.34298e-19)
(0.994954 -0.0159091 0)
(1.25805 -0.328811 0)
(0.886949 -0.0310921 7.08284e-20)
(0.0238906 -0.0614542 -1.69525e-19)
(1.24771 -0.00789788 -4.74196e-20)
(1.30633 0.0667274 0)
(1.09456 -0.472673 -2.97636e-20)
(-0.450303 -0.085711 3.165e-19)
(0.986402 0.28742 0)
(0.0342284 -0.0941301 1.45945e-19)
(-0.282616 -0.0520847 -1.18597e-19)
(-0.0276736 -0.0775959 -1.71212e-19)
(1.21301 0.0215799 -2.04749e-20)
(-0.221759 -0.0305633 -2.83484e-20)
(1.06321 -0.0584487 1.55719e-22)
(0.98966 -0.0200984 -2.45206e-20)
(0.168723 -0.122987 0)
(0.994046 -0.0132522 -4.23069e-20)
(1.09698 -0.0858619 0)
(1.21322 0.0189617 4.05639e-20)
(1.22254 -0.0591682 -7.67868e-20)
(1.08802 -0.516218 2.16338e-20)
(1.04787 -0.0191902 7.13794e-21)
(0.989667 -0.0216236 4.72254e-20)
(1.29298 -0.394978 -2.84833e-20)
(1.00661 -0.0724937 1.64968e-20)
(-0.318268 -0.0361024 -6.10169e-20)
(-0.183685 -0.0376304 1.27643e-19)
(-0.251449 -0.0686517 1.71919e-19)
(-0.179965 -0.036802 -8.3757e-20)
(1.06894 -0.244934 -1.04097e-20)
(-0.292182 -0.112919 1.54269e-19)
(0.855027 -0.040445 2.55771e-20)
(-0.173083 0.0123407 0)
(1.07332 -0.0304204 1.35016e-20)
(1.38447 -0.260937 5.83871e-20)
(0.861318 -0.269598 -1.48769e-20)
(1.05736 -0.0251003 -7.39634e-21)
(1.08248 -0.0352421 -8.21158e-21)
(1.17674 -0.0592116 -2.35374e-20)
(0.855017 -0.0408805 0)
(1.04914 -0.0193326 -1.20725e-20)
(-0.242751 -0.0171697 -6.16357e-20)
(0.0984259 0.173884 8.44967e-22)
(1.13993 -0.129062 5.46059e-20)
(-0.253143 -0.0622484 8.1127e-20)
(1.35586 0.177841 5.17429e-20)
(1.07747 -0.00461556 0)
(0.93406 -0.168478 9.06991e-20)
(1.33743 -0.258808 1.63858e-21)
(-0.228359 -0.0525506 0)
(1.07942 -0.00650137 -2.50508e-20)
(1.14102 -0.270655 0)
(1.16174 -0.00761594 -1.49716e-20)
(-0.026332 -0.0733312 -8.98811e-20)
(1.07052 -0.0325425 -8.26102e-21)
(1.05073 -0.0170923 -8.19536e-21)
(-0.168993 0.0109609 0)
(-0.435353 -0.0921918 0)
(-0.233948 -0.0291622 -3.07478e-20)
(0.721041 0.0585883 -1.99836e-20)
(1.00177 -0.00689796 0)
(1.00069 -0.0430164 0)
(0.379197 -0.105692 -6.23249e-20)
(-0.235888 -0.0461691 0)
(0.867863 -0.0817375 0)
(1.02388 -0.0108746 -1.07576e-23)
(0.994253 -0.0182556 0)
(0.976934 -0.131303 3.95938e-20)
(0.978486 -0.0481519 -2.84126e-20)
(0.00923215 -0.0911662 0)
(1.00322 -0.0300839 -1.73632e-20)
(0.553724 -0.950392 -4.48974e-21)
(0.306084 0.0141846 6.00919e-20)
(0.225045 -0.121264 -5.1871e-20)
(1.06613 -0.00824708 7.90996e-21)
(-0.236839 -0.0480366 5.70479e-20)
(-0.283388 -0.114318 -1.1742e-19)
(0.956863 -0.0775743 3.73555e-20)
(1.12703 -0.330351 8.27143e-21)
(0.983541 -0.0807816 0)
(-0.274531 -0.0761303 1.52889e-19)
(1.09761 -0.263845 0)
(1.01372 -0.0387501 -1.25366e-20)
(1.00539 -0.0291638 -1.61005e-20)
(1.00017 -0.043388 -8.02716e-21)
(-0.43262 -0.092232 0)
(0.54872 -0.403948 -1.01119e-19)
(0.0968388 -0.107755 1.34057e-19)
(0.987862 -0.0479273 -5.84549e-21)
(1.05145 -0.0191044 4.96344e-21)
(1.2526 0.0114612 2.98077e-20)
(1.20545 0.0362086 -4.75816e-20)
(1.15555 -0.0891185 4.36488e-20)
(-0.00993464 -0.0944825 -8.00508e-20)
(-0.194908 -0.0364063 2.56346e-20)
(1.05652 -0.0391614 0)
(1.01004 -0.0272721 -4.78412e-21)
(1.18776 0.00224011 6.96403e-20)
(-0.184847 0.0208986 -1.27624e-19)
(1.28142 -0.118012 8.6287e-20)
(1.19998 -0.0296308 0)
(1.00174 -0.00666942 1.40762e-20)
(1.29782 -0.388615 6.34406e-20)
(1.08217 -0.269398 -6.48687e-22)
(1.00937 -0.0270418 2.17711e-22)
(1.04934 -0.00962433 0)
(1.36443 0.177331 -8.92405e-20)
(0.999426 -0.370091 -4.30396e-21)
(0.994212 -0.0262304 1.09562e-20)
(0.521946 -0.186731 0)
(1.38405 -0.278454 0)
(1.00844 -0.026728 -1.09108e-20)
(0.567768 -0.125782 0)
(-0.451973 -0.0861527 -2.88199e-19)
(1.07764 -0.00430826 7.08941e-21)
(0.986723 -0.141409 -1.46701e-20)
(1.01132 -0.0852974 0)
(1.20499 -0.0214777 2.83063e-20)
(-0.037922 -0.0719526 1.24533e-20)
(0.0555313 -0.0612148 1.53263e-19)
(1.31541 0.106209 -8.02985e-20)
(1.0108 -0.0269724 -5.2102e-21)
(-0.275523 -0.0728737 -8.46216e-20)
(-0.359178 -0.00917014 9.88805e-20)
(0.324396 -0.108627 7.16342e-20)
(-0.0860669 -0.126625 -2.33938e-20)
(1.03573 -0.303938 0)
(0.982008 -0.0294436 2.40261e-20)
(1.14158 -0.0187736 0)
(0.681883 0.114454 -2.26073e-20)
(1.02326 -0.00416619 3.8357e-22)
(1.08237 -0.0315167 8.68282e-21)
(-0.209169 -0.0253207 4.09096e-20)
(-0.103702 -0.064595 -5.0841e-20)
(1.13173 -0.0367149 2.27216e-20)
(1.00918 -0.0889036 0)
(0.632505 -0.603376 -3.68941e-21)
(0.0784551 -0.120156 0)
(1.01033 -0.0189203 -5.12204e-21)
(1.02329 -0.0100326 0)
(1.06235 -0.171584 0)
(-0.359309 -0.103371 1.48164e-19)
(-0.147712 -0.042736 0)
(0.849132 -0.889276 3.77806e-20)
(0.650339 0.232465 1.21281e-19)
(-0.0826854 -0.123739 -2.31336e-20)
(0.869883 -0.171365 0)
(-0.418733 -0.0844978 2.98863e-20)
(1.25977 0.0390659 3.72558e-20)
(1.03925 -0.0491874 4.83855e-22)
(1.16388 -0.00406927 -4.54332e-21)
(-0.432955 -0.0383007 0)
(1.01379 -0.0384388 6.35224e-21)
(-0.430829 -0.0386199 0)
(1.13505 -0.149614 0)
(-0.272299 -0.109121 -5.9143e-20)
(-0.271414 -0.0229048 0)
(0.853807 -0.278383 4.27019e-20)
(0.682387 -0.120411 -1.15744e-19)
(0.98651 -0.0802271 0)
(1.09047 -0.26508 0)
(-0.00315531 -0.0456793 -7.39436e-20)
(1.3379 0.184373 0)
(-0.152979 -0.0242259 -6.40329e-21)
(0.128447 -0.106283 0)
(-0.0684332 -0.123154 -2.05366e-20)
(0.0932735 -0.0961482 -1.85533e-20)
(1.01613 -0.185353 -5.34449e-21)
(1.2907 -0.375723 6.685e-20)
(-0.288635 -0.0997228 -6.91317e-20)
(-0.142185 -0.100888 -1.87502e-19)
(0.515878 0.0894692 -5.43663e-20)
(1.04068 -0.0345167 3.50236e-21)
(1.23967 -0.371254 0)
(0.132767 -0.122592 0)
(1.32959 -0.315239 1.39556e-19)
(0.098949 -0.120918 1.39871e-19)
(1.13732 -0.01519 -1.06969e-20)
(0.789737 -0.27971 0)
(1.0147 -0.0276598 7.35423e-21)
(0.911125 -0.0877772 -3.89402e-22)
(-0.354352 -0.0138156 -1.46336e-19)
(-0.419369 -0.0285527 -1.13066e-19)
(-0.385675 -0.0122763 3.40976e-20)
(1.08275 -0.0253783 0)
(0.969667 -0.0626692 -2.31981e-20)
(-0.420915 -0.0321451 1.95437e-19)
(-0.435796 -0.0912179 8.00926e-20)
(1.41519 -0.0569745 0)
(0.751644 -0.606262 0)
(-0.286233 -0.0457398 3.74507e-20)
(0.975712 -0.133505 -1.781e-20)
(0.00449728 -0.0846574 0)
(0.847117 -0.133258 2.91927e-20)
(0.938136 -0.0616674 -5.37976e-20)
(0.967986 0.0984847 -7.55165e-21)
(-0.363635 0.000680696 4.9714e-20)
(0.0455725 -0.0966119 1.05346e-23)
(1.0288 -0.0235315 2.15139e-22)
(1.04271 -0.085992 0)
(-0.127954 -0.0163629 0)
(1.00037 -0.00330668 7.68822e-22)
(1.0375 -0.0335037 -1.41585e-21)
(1.04826 -0.00880195 0)
(1.07748 -0.0088498 -1.17377e-20)
(0.766754 -0.255407 0)
(0.691707 -0.0776222 -1.07491e-19)
(0.983049 -0.14402 -1.59774e-20)
(1.00583 -0.022933 -6.50974e-21)
(1.01564 -0.0573396 0)
(1.05638 -0.0232739 1.56509e-20)
(1.00035 -0.00267148 -2.78528e-20)
(1.00014 -0.00201554 5.05249e-21)
(0.93679 -0.0681671 -3.39645e-20)
(-0.0851144 -0.0469711 -1.2072e-20)
(1.46553 0.0719074 2.42917e-21)
(-0.142254 -0.0428651 9.3151e-20)
(-0.271064 -0.107946 -1.47912e-19)
(-0.251301 -0.0671608 -4.06322e-20)
(1.09984 -0.465312 3.07202e-20)
(1.05788 -0.213849 -1.92611e-21)
(1.02543 -0.0697355 9.3953e-21)
(1.06186 -0.1217 0)
(0.751888 -0.245299 -9.25367e-20)
(-0.415407 -0.0850056 0)
(1.1519 -0.0141997 5.56161e-20)
(-0.422877 -0.0940041 -1.5881e-19)
(0.810683 -0.0123746 -7.83886e-20)
(1.16339 0.00096074 3.37686e-20)
(1.28659 -0.399021 1.75974e-19)
(0.820671 -0.0013208 1.07729e-19)
(-0.470092 -0.0874934 -3.1805e-20)
(-0.284206 -0.0987491 0)
(1.03698 -0.0471367 0)
(0.180841 -0.0793137 0)
(1.0069 -0.0273791 -1.04194e-20)
(-0.429102 -0.0930878 1.8756e-19)
(-0.378068 -0.0130969 1.99668e-20)
(1.40185 -0.125513 2.41469e-20)
(0.701247 0.135781 2.25571e-19)
(-0.451875 -0.0722738 0)
(-0.454323 -0.0653589 0)
(1.21552 -0.186403 0)
(1.01653 -0.0581005 9.12668e-21)
(-0.486063 -0.0870667 3.3832e-20)
(-0.0931746 -0.0470266 2.60599e-20)
(-0.258315 -0.0668318 -1.90761e-19)
(0.940681 -0.0758195 -4.6501e-20)
(-0.413104 -0.0245781 -1.41676e-19)
(0.169275 -0.107296 0)
(0.988039 -0.0472861 1.89053e-20)
(0.259767 0.134525 0)
(1.45755 0.0853824 3.49777e-20)
(1.0275 -0.0117974 3.04318e-22)
(1.0781 -0.265885 7.67748e-21)
(-0.177344 -0.0518893 3.72462e-20)
(1.44474 -0.0153317 6.5141e-21)
(1.09778 -0.13666 -8.36125e-21)
(-0.0869289 -0.115917 4.61627e-20)
(1.00773 -0.0168763 0)
(0.856874 0.0767486 -3.08834e-20)
(-0.485093 -0.0873993 0)
(-0.259891 -0.0194041 0)
(0.273484 -0.112236 0)
(0.908669 -0.897911 -5.09886e-20)
(-0.137782 -0.0395809 -3.75417e-20)
(1.39283 -0.27484 -6.34316e-20)
(0.892928 -0.567608 -1.09943e-20)
(1.28268 -0.315675 -5.34461e-20)
(0.0924402 -0.122147 1.28979e-19)
(0.748334 -0.221735 -5.21255e-20)
(1.31521 -0.0475936 0)
(1.35148 -0.166184 -3.94827e-20)
(1.07218 -0.0273802 -1.07244e-20)
(-0.398857 -0.0750772 3.29865e-20)
(0.918282 0.0200277 0)
(1.02857 -0.012478 -2.85461e-23)
(-0.458644 -0.0632034 0)
(-0.121917 -0.015159 0)
(-0.137073 -0.038769 -4.56301e-20)
(0.0913392 -0.121789 -1.48048e-19)
(1.04408 -0.0892656 0)
(1.06721 -0.225083 3.89058e-21)
(-0.291246 -0.045454 -3.73686e-20)
(-0.287198 0.0134861 7.49594e-20)
(0.760403 -0.33596 1.48794e-20)
(-0.169784 -0.0350045 1.27405e-20)
(1.25258 -0.153244 -7.87805e-20)
(0.267426 -0.00679276 -2.03283e-20)
(0.911799 -0.0885298 -6.12759e-20)
(-0.290054 -0.0497464 0)
(0.900878 -0.0552288 -9.48752e-20)
(-0.399473 -0.0733646 1.2857e-19)
(0.813929 -0.00537422 9.69914e-22)
(-0.353956 -0.0555556 -1.24565e-19)
(1.40286 -0.0542292 0)
(0.944357 -0.0769393 4.37966e-20)
(1.15849 -0.267842 -3.08399e-21)
(1.03876 -0.0466895 -2.12834e-22)
(1.33444 -0.0998108 -3.40049e-21)
(0.102922 -0.112869 0)
(0.274148 -0.190161 -2.38223e-19)
(0.143795 -0.11344 7.00146e-20)
(-0.250679 -0.106064 -6.74255e-20)
(1.38281 -0.162093 -5.58457e-20)
(-0.088399 -0.0501094 -5.88223e-21)
(0.922073 -0.0998836 0)
(-0.231027 0.0112738 0)
(1.00292 -0.60612 -6.32116e-20)
(-0.329266 -0.0307819 6.07252e-20)
(1.08022 0.000125682 1.43776e-20)
(0.875827 -0.160991 7.33377e-20)
(1.34537 -0.175768 7.99734e-20)
(-0.487792 -0.0864103 0)
(1.05497 -0.107307 1.58867e-22)
(0.129079 -0.0958785 3.6233e-20)
(0.464877 0.0649419 0)
(1.02604 -0.0115503 -1.2171e-21)
(1.25264 -0.217264 -6.45285e-20)
(0.74933 -0.126768 2.10904e-19)
(1.40194 -0.0717834 -2.2596e-20)
(0.421056 -0.119595 -6.51525e-20)
(-0.168409 -0.0345363 0)
(-0.183845 -0.0542217 1.69036e-19)
(0.971965 -0.0620563 5.63502e-20)
(-0.285005 0.0117382 8.00391e-20)
(1.16387 -0.0587543 -1.84205e-20)
(1.0306 -0.0214073 6.12099e-22)
(1.21776 -0.21202 -3.25431e-20)
(1.0816 -0.00904724 2.15183e-20)
(0.985655 -0.174849 -1.98871e-20)
(1.09013 -0.0956445 9.71638e-21)
(-0.392937 -0.0143599 0)
(1.18352 -0.0428071 -5.81593e-20)
(-0.255155 0.00771593 -3.70319e-20)
(1.08475 -0.0287098 0)
(1.02532 -0.0112572 6.73104e-22)
(1.03621 -0.0342525 4.24692e-22)
(1.04734 -0.0360385 3.28038e-21)
(-0.146752 -0.0239797 -9.79096e-20)
(-0.399925 -0.0691136 -1.22927e-19)
(0.661815 0.0525044 2.15154e-19)
(-0.295134 0.0100056 7.11426e-20)
(-0.395246 -0.0668281 6.16248e-20)
(0.560047 -0.120661 -6.44001e-20)
(1.18638 -0.251462 0)
(0.110148 -0.115969 0)
(0.0281554 -0.0576864 -1.87448e-19)
(0.0705474 0.0717375 -2.74682e-20)
(-0.47965 -0.0794633 -6.79964e-20)
(1.29294 -0.393823 -7.50248e-20)
(-0.391648 -0.0765251 0)
(0.912206 -0.224095 -3.39486e-20)
(0.980101 -0.0475027 0)
(1.04384 -0.0647565 -3.99531e-22)
(1.01349 -0.0565253 0)
(0.918331 -0.429852 0)
(1.34115 -0.00402798 -1.10447e-19)
(1.07543 -0.0107627 0)
(1.2429 0.0595085 0)
(1.24913 -0.160127 9.99866e-22)
(0.772178 -0.322719 0)
(-0.161646 -0.0985066 5.71337e-21)
(1.07945 -0.00674252 0)
(1.00032 -0.00302276 1.38352e-20)
(1.33469 -0.102308 -1.05219e-19)
(-0.252949 -0.026645 0)
(-0.214314 -0.121258 -1.27375e-19)
(1.19528 -0.0361406 -2.57198e-20)
(-0.131757 -0.0386552 0)
(1.01847 -0.00200294 -1.62431e-21)
(1.38277 -0.123214 -1.35657e-19)
(1.00739 -0.0831548 0)
(1.05936 -0.115943 0)
(1.00355 -0.0294148 4.64748e-21)
(1.10411 -0.0994725 -1.40914e-20)
(1.22291 -0.166027 1.50177e-20)
(0.851286 -0.0947277 2.73245e-21)
(0.0368882 -0.0417984 0)
(-0.446315 -0.0851479 -1.69184e-19)
(0.854299 0.00787645 -1.11625e-19)
(1.01184 -0.0276401 0)
(0.884862 -0.418616 0)
(-0.126247 -0.038725 0)
(1.0687 -0.000529953 -4.68045e-21)
(0.995815 -0.0106145 -1.78928e-20)
(0.527964 -0.171007 0)
(0.00921505 -0.109567 0)
(-0.466742 -0.0858645 -2.15449e-19)
(0.994076 -0.141284 -1.14847e-20)
(0.726211 0.422598 3.84429e-20)
(-0.371298 0.000925217 0)
(1.15648 -0.564727 -1.18891e-20)
(1.02107 -0.00524431 0)
(0.992389 -0.0159576 -4.25721e-23)
(-0.0139457 -0.0657668 0)
(1.39468 -0.273492 -3.40613e-20)
(-0.213895 -0.0581799 1.54788e-22)
(0.925517 -0.178415 -4.99731e-20)
(-0.191372 0.0334727 0)
(1.34515 0.185711 5.60294e-20)
(1.33724 -0.0825266 1.58704e-19)
(1.06196 -0.00574425 -1.07318e-20)
(1.18741 -0.491521 3.71546e-20)
(-0.311425 -0.0700618 1.09218e-19)
(0.824193 -0.041293 -2.89123e-19)
(0.502553 -0.105238 6.93377e-20)
(-0.210515 -0.121404 5.55803e-20)
(0.529377 -0.440977 -2.54422e-22)
(0.972819 -0.12018 1.58176e-20)
(0.155158 0.0117114 0)