/*--------------------------------*- C++ -*----------------------------------*\
| =========                 |                                                 |
| \\      /  F ield         | OpenFOAM: The Open Source CFD Toolbox           |
|  \\    /   O peration     | Version:  v2012                                 |
|   \\  /    A nd           | Website:  www.openfoam.com                      |
|    \\/     M anipulation  |                                                 |
\*---------------------------------------------------------------------------*/
FoamFile
{
    version     2.0;
    format      ascii;
    class       surfaceScalarField;
    location    "250";
    object      ddtCorrDdt0(phi);
}
// * * * * * * * * * * * * * * * * * * * * * * * * * * * * * * * * * * * * * //

dimensions      [0 3 -2 0 0 0 0];
oriented        oriented;


internalField   nonuniform List<scalar> 
21485
(
-0.034006
0.0641167
-0.0301108
-0.0541981
0.0545939
-0.000395865
-0.00119372
-0.000974338
0.00216806
-9.90743e-06
-1.8977e-05
2.89092e-05
-0.0212443
0.0229828
-0.00173844
0.000176646
-0.000102475
-7.41571e-05
0.000983085
-0.000702354
-0.000280715
0.0141157
-0.00672208
-0.00739346
0.00384557
-0.0053974
0.00155193
0.000534673
0.00256892
-0.00310358
0.00191011
-0.00174323
-0.000166862
0.000504828
-0.0150646
0.0179583
-0.0028937
-0.121661
0.117893
0.00376777
0.0324129
0.0902363
-0.122649
0.000203908
-7.53496e-05
-0.000128569
0.00043816
0.000544905
-0.0341482
-0.0885599
0.122708
0.000422524
-5.98212e-05
-0.000362713
0.00496882
0.00530102
-0.0102699
0.00517268
-0.00141476
-0.00375791
-0.00173381
-0.0195104
0.0323496
0.0189392
-0.0512888
-0.0334661
-0.0141693
0.0476356
0.00108387
0.000826277
-0.00015243
0.000295235
-0.000142792
0.00410358
-0.00196066
-0.00214291
0.00268274
-0.00556059
0.00287791
-0.000170057
0.00047122
-0.000301188
0.00378773
0.000315861
-0.00211014
0.000916424
-0.061569
0.0281029
0.0102796
0.000342944
-0.0106225
0.00129504
0.0089845
-0.000713829
0.00125924
-0.000545377
0.0124681
-0.00727201
-0.00519613
-0.0016986
-4.46263e-05
-3.22701e-05
1.16044e-05
2.06509e-05
-0.036476
-0.0330936
0.0695696
0.00306564
-0.00725967
0.00419401
0.000110634
9.3345e-05
-0.00149745
0.000742275
0.000755203
-0.0120465
-0.0150083
0.0270548
0.00630657
-0.0183531
-0.00211003
0.000411426
9.21657e-05
8.44765e-05
-7.84329e-05
9.04482e-06
6.93776e-05
0.00918683
0.0379283
-0.0471153
0.0143086
-0.0250171
0.0107085
-0.000723288
-0.000774103
-0.00215963
0.000687269
0.00147237
0.00440652
-0.00172378
-0.000137072
0.000388598
-0.000251528
-0.00140774
-0.000751882
0.00129615
0.0310535
0.002758
-0.00231811
-0.00043989
0.00476445
0.00770365
-0.00100517
0.00068758
0.000317601
-0.0337769
-0.00478183
0.0385587
-0.000413633
-0.000591497
0.00110306
-0.000613706
-0.00048932
0.00175765
-0.000110642
-0.00164688
-0.025525
0.0335907
-0.0080657
-0.000214972
1.69675e-05
0.000198016
0.000901535
-0.00022128
-0.000680219
-0.0123373
0.0517004
-0.0393632
-0.0331039
0.0422906
-0.0134405
-0.0335485
0.0469889
-0.000411515
0.000274438
-0.000447437
0.000277367
0.0353329
0.0356066
-0.0709395
4.29463e-06
-4.59528e-05
4.16499e-05
0.00155227
-0.00196826
0.000416003
-0.00604971
0.00911536
-0.00100971
-0.000753991
0.00176377
-0.000110155
3.17114e-05
0.00898329
-0.00438714
-0.0045962
0.00778055
-0.0333056
-0.000812408
0.000276953
0.000535514
-0.0599575
0.0652404
-0.00528291
5.37758e-06
0.000417132
-0.0117467
0.0159653
-0.00421853
0.0207026
0.0753989
0.0030344
-0.00216909
-0.00086533
0.0146727
0.000711014
-0.0153837
0.0023129
0.001381
-0.00369384
-0.00290134
-0.00178675
0.00468816
0.000199181
-0.000237951
0.0143536
-0.000772861
-0.000794818
0.00156767
-0.001715
-0.0625116
0.0667212
-0.00420976
-0.015449
0.0582376
-0.0427886
-2.27993e-05
-0.000192137
-0.0253765
0.0475727
-0.0221962
-3.4409e-05
3.87138e-05
-0.000371183
-0.000441226
5.97919e-05
-2.95626e-05
-3.0239e-05
-0.000344942
0.000152717
0.000192283
-0.117276
0.123214
-0.00593742
-0.13252
0.0554037
0.0771167
6.18311e-05
-2.06363e-05
-4.11755e-05
-0.00203079
0.00136032
0.000670482
0.000357083
-0.0010709
0.0178646
0.0126114
-0.030476
-0.0165205
0.00974836
0.00677199
0.0298236
-0.0567852
0.0269617
-0.00868263
0.00997767
0.0022502
-0.00189723
-0.000352969
-0.119923
0.00264636
-0.0287496
0.0585732
-0.0632358
0.0956487
-0.00548221
0.00912225
-0.00364005
0.00225048
0.000374966
-0.00262544
0.00436091
-0.00431344
-4.75337e-05
0.00264547
-0.000379322
-0.00226614
-3.54334e-06
-6.41309e-06
9.95959e-06
-0.018448
0.0300861
-0.0116381
0.000116626
-0.000116623
0.000896344
0.00115308
-0.00204939
-0.0907249
0.0603141
0.0304109
-0.000770182
-0.00126061
-0.00020787
-0.000137059
0.0220398
0.0205039
-0.0425437
0.00368683
-0.00916903
0.000652601
-0.00142541
0.108243
-0.0729097
-0.00507233
0.0049082
0.000164151
0.0128723
-0.0152392
0.00236694
0.044187
-0.0117754
-0.0324116
0.00286433
-0.00242954
-0.000434783
0.00164374
0.000606457
0.0217067
-0.0309064
0.00919971
0.0151317
0.0169843
-0.032116
-0.00455631
0.00337378
0.00118253
-0.0108429
0.0229403
-0.0120972
0.00158369
-0.0133304
0.0483503
-0.0823563
-0.00103714
0.00210917
-0.00107203
0.0714237
-0.0470127
-0.024411
0.00342475
-0.0303223
0.0268975
-0.00187724
0.00150632
0.000370892
0.0399278
0.0314959
-0.000277933
0.000283304
-0.0157272
0.0308589
0.0414933
-0.0380686
-0.00154563
0.002965
-0.00141942
0.0252122
0.0189748
-0.000525081
0.014289
-0.0137639
0.0428498
-0.0235205
-0.0193294
0.000458847
-0.000204772
-0.000254071
-0.0589095
0.0395043
0.0194052
-0.000747336
0.00171121
-0.000963855
-0.000222325
6.98885e-05
-0.00124127
-0.000635955
0.0703451
-0.0113849
-0.0589601
0.00950708
-0.0130642
0.00355712
-0.104696
-0.0152263
-0.00444157
-0.000114734
-0.00127064
0.0089451
-0.00767446
8.43182e-05
-6.84342e-05
-1.5797e-05
0.000228837
0.000230014
-0.0211145
0.0091484
0.0119661
0.0146888
-0.0484657
0.000117935
9.03188e-06
-0.000126937
-3.56267e-05
0.000367918
-0.000332293
0.00095709
0.00877404
-0.00973112
-0.000996104
-0.00194068
0.0029368
0.00657092
-0.111267
-0.0750075
-0.0369663
0.111974
0.00133155
0.000487555
-0.0018191
-5.9932e-05
7.04818e-06
5.28734e-05
-0.0156987
0.000634191
-0.000126812
0.00020204
-7.5193e-05
0.0166294
-0.0116606
-0.00318774
-0.00022968
0.00341742
-0.000133195
2.43318e-05
0.000108896
0.0138993
-0.00933953
-0.00455973
-0.0342635
0.0218116
0.0124519
0.00218243
0.000463004
-0.000180283
0.000216409
-3.61302e-05
0.00155273
0.00783246
-0.00249522
-0.00533724
0.00508168
-0.0244903
0.0194086
-0.00080747
0.000188055
0.000619437
-0.0025529
0.00151576
0.00257996
-0.0144465
0.0118666
-0.000979685
0.000243678
0.000736048
-0.00549476
0.000956435
0.00453834
0.00126252
-0.0258999
0.0246374
-0.0358955
0.0246697
0.0112258
-0.0770563
0.0647191
0.100578
-0.134727
-4.45976e-05
1.23003e-05
-0.000557073
0.00188863
0.00155411
-0.00125028
-0.000303801
0.0107565
0.00314276
-0.00224344
8.92193e-05
0.00215423
0.000476664
-0.000247811
0.0141832
-0.0147082
0.00233259
-0.00574365
0.00341107
0.00300551
0.00597775
-0.000437676
0.000402049
0.00727111
-0.00502254
-0.00224856
9.14578e-05
-6.01303e-05
-3.13057e-05
-0.0107198
-0.000310635
0.0110305
-0.000163949
0.000104259
5.96851e-05
0.000733765
-0.000276778
-0.000456997
0.00173407
0.00553706
0.0021644
0.000593607
0.000186426
-0.000727856
0.000541442
-0.00615106
0.00112852
-0.00425199
-0.00189905
-0.00238831
0.0111913
-0.00880301
0.0103204
-0.02616
0.0158396
0.0525032
0.0243521
-0.0768553
0.00917759
-0.0114633
0.00228567
0.030838
-0.0205176
0.0144203
-0.000111657
0.0644282
-0.0101331
-0.0542951
-0.00126097
-0.00152239
1.27629e-05
0.00150965
0.00655956
0.00127287
-0.000306525
-0.00518822
-3.80403e-05
-0.000105641
0.00014368
-0.0272774
-0.000217911
5.15702e-05
0.000166354
0.00056767
0.00201237
-0.00258004
0.00440689
-0.00134434
-0.0030626
0.000632188
-0.00168523
0.00105306
0.00139757
0.00300934
-0.056721
0.0396999
0.0170211
0.00146789
0.000166868
-0.00163478
4.94952e-05
1.02699e-05
0.0394543
-0.0333757
-0.00607859
0.00468668
-0.00236084
-0.00232583
-0.00591418
-0.00457631
0.0104905
0.0158426
-0.0132626
-0.000368927
0.000309104
-0.000350884
-0.00310202
0.00345295
0.000226697
0.000249993
-0.00687373
0.00835883
-0.00148506
0.00116247
-0.0046552
0.00349273
-0.00034492
-0.000462543
-0.0169216
0.0134317
0.00348992
-0.0199503
0.0328089
-0.0128586
-0.0595723
0.0660533
-0.00648097
0.00131559
0.000442047
-8.08101e-05
0.00022708
-0.000146282
-0.0522333
0.0268568
0.00332974
-0.00845382
0.00512414
-0.00765899
0.00907307
-0.00141413
-0.0022494
0.00278406
-0.0426601
-0.014061
-0.00018018
0.000122639
5.75914e-05
0.00505034
-0.00368969
-0.00136064
0.000264678
0.000469092
-0.00360089
-0.00781009
0.011411
0.000136065
-0.000196325
6.02619e-05
-1.75848e-05
-0.000200328
-0.0027826
0.00243172
-8.62553e-05
5.94347e-06
-5.68854e-05
5.10162e-05
0.000225676
-8.26246e-05
-0.000143057
-0.00412784
-0.000944486
-0.0092873
-0.0118272
0.00021442
0.00743467
-0.0273849
0.00575314
-0.00182854
-0.00392456
0.00249462
-0.00192695
3.93102e-05
5.21066e-05
-0.0630557
-0.0276692
-0.0138501
0.00564824
0.00820183
-0.0144278
0.0683216
-0.0538938
0.00391121
-0.00982538
-0.000827564
0.000476729
0.000350837
0.00297138
-0.000720889
-0.00115242
-0.0013016
0.00245404
-0.00258818
0.012274
-0.00968582
-0.000135885
9.78445e-05
-0.00100576
0.00165833
0.000453495
-0.00150071
0.00104723
-0.000701633
0.00875775
-0.00805616
0.00353103
0.0111417
-0.00283063
0.000342581
0.00248805
0.00137674
0.00165764
-0.00222806
0.000942612
0.00128545
-0.0453648
0.0822172
-0.0368525
-0.00269536
-0.00107116
0.00376652
0.00111129
-0.00212102
0.00585749
-0.00945846
-0.0312103
0.0532502
-0.00248641
0.00519631
-0.00270992
0.0979019
0.0505893
-0.0743064
0.0237171
-0.000179339
-0.000785644
0.000964984
-0.00694887
0.00133016
0.00561873
0.0682055
-0.0826333
0.0302804
-0.0290179
-0.0474895
-0.0150221
6.47745e-05
0.000160913
0.00146841
-0.00132501
-0.000143448
-0.00294599
0.000180774
0.00276522
0.022935
-0.0315927
0.00865782
-6.01727e-05
0.000144523
0.0424559
0.0657868
-0.000323038
4.62726e-05
0.00122212
0.00313878
-4.56334e-06
9.46238e-05
-9.00349e-05
0.122094
-0.0796376
0.000925984
0.000113204
-0.00103914
0.00103675
-0.00258242
0.000391509
-0.0033375
-0.00423941
0.00393283
-0.00895394
-0.0269416
0.00207207
-0.00190071
-0.000171353
0.00277875
-0.00238724
0.000144172
-8.591e-06
-0.000135518
0.0168547
-0.0468959
0.030041
-0.00384528
-0.00302851
0.00839541
-0.0375828
0.0291874
0.052501
-0.0462176
-0.00628332
-0.000125545
-0.000669478
0.000795039
0.0259282
0.0135261
0.013946
-0.0124734
-0.00147261
-0.050841
-0.003357
0.0167336
0.00122478
-0.00273735
0.00158494
-0.0196956
0.0386349
0.000882483
0.000671651
0.0180394
-0.0121819
0.00163788
-0.00133538
3.31884e-05
3.09455e-05
-6.41736e-05
-0.00155548
0.000549758
-0.0154127
-0.0339398
0.0493526
-0.00453068
0.000402853
0.00220027
-0.000758563
0.00165494
-0.00116594
0.000559238
0.000606729
-0.0136585
0.019541
-0.00588247
-0.00025404
-6.90324e-05
-0.00229827
0.00265028
-0.000351992
-0.00314436
0.0713499
-0.002069
-0.000249108
-0.0231386
-0.0057829
0.0289216
0.00297196
-0.0001932
-0.000122934
0.0024368
-0.00231386
0.0190069
-0.00982934
-8.06368e-05
0.000138049
-5.74081e-05
-0.0142658
-0.0140919
0.0283577
0.000135433
0.00141685
0.0426814
-0.0581304
-0.00827676
0.00545612
0.00282064
-0.00803937
0.0309744
0.00287901
-0.00526732
0.000803515
0.00316171
-0.00396524
0.000588431
-0.000713967
0.00192721
-0.00112367
0.00138899
0.000506561
-0.00189547
-0.0300462
0.0303875
-0.000341289
-0.000712501
-0.00352692
0.000967716
0.00143306
-0.00240074
-0.000303387
0.00122937
-0.00081667
0.00220569
-0.000701992
0.000851552
-0.000149557
-1.69931e-05
1.70282e-05
0.00188412
-0.000692019
-0.00119211
-3.69332e-05
-0.000665048
2.24629e-06
-1.2131e-05
-0.047042
0.0105659
-1.19552e-05
7.37973e-05
0.0133771
0.104184
-0.00837416
-0.00814619
-0.00128729
0.00117663
0.0152743
-0.0155122
0.000401496
0.00193008
-0.00233156
0.000411074
0.000591058
-0.00100213
0.00195424
-0.00177346
0.00466637
-0.00370925
-6.88878e-05
-1.17459e-05
0.00733223
-0.00499967
0.00222117
-0.00220009
-2.10749e-05
-0.011102
0.00241936
-0.0170488
0.0194628
-0.00241403
-0.00053777
0.000724203
-0.00704684
0.0199192
-0.0175133
0.00923076
0.00828251
0.00679691
0.00847746
0.0106075
-0.0248732
0.000274946
-0.00135394
0.001079
-0.0125567
-0.0522491
0.0491047
-0.00612154
-0.00534177
-0.00381059
0.00497311
-0.0133276
0.0743143
-0.0609868
0.00187389
0.0175544
-0.0194282
-0.00624525
0.00554367
0.00388387
0.0019149
-0.00579882
0.00422157
0.00413725
-0.00499469
-0.00195417
-0.00945441
0.0346666
0.00104821
-0.0073476
0.0062994
-0.00418849
0.0011396
0.00304891
-0.0176731
0.00197427
-0.000593654
0.00254792
-0.00128099
0.00154478
0.00165957
-0.00320432
0.0216958
0.0328982
0.0141828
-0.00801558
-0.00616737
0.00227583
0.00263237
0.0160571
0.000605133
-6.87809e-05
-0.000536338
-0.0132427
-0.0853927
0.0986352
-0.00010426
0.000556144
-0.000451935
0.000984109
-0.00124011
0.00025603
0.0018355
0.00102883
-0.0095346
-0.00738695
-0.0111706
0.0174772
0.0874603
-0.122131
0.0346703
0.0070494
-0.0240982
0.0464272
-0.05967
0.0534639
0.00477369
-0.000992084
0.000812747
0.00148223
-0.00120727
-0.00224171
-0.00228896
-0.000572186
-0.000345839
0.000917979
-0.000405214
-0.00170482
0.00297545
-0.00259073
-0.000384692
-0.00144832
0.00739354
-0.00594518
-0.0790923
0.00249237
0.0765999
0.0222896
0.0205602
0.0128112
-0.0033042
-0.000750912
-0.00154735
0.100905
-0.0134447
-0.0294125
0.0307087
0.000619328
0.00126478
-0.000577506
-0.035792
0.0441361
-0.00834417
-0.000562891
0.00129806
0.000169858
0.000734159
0.0595799
0.000440083
0.00102835
9.61628e-05
-9.01788e-05
-0.000108508
0.00183107
-0.00172254
0.0570175
-0.00373452
-0.0045422
0.00194227
-0.00349339
0.00155119
0.00113808
0.00182692
5.214e-05
-0.00133939
0.037636
-0.00936575
-0.0282703
0.00281907
-0.00116124
-0.00165782
0.0109808
0.0266552
0.00555093
-0.00166702
0.000433578
-0.00226762
0.00169152
0.000576106
0.0376459
-0.0220508
-0.0155951
-0.000623875
0.0186472
-0.00658939
-0.0120581
0.00036664
-0.000470936
0.00354816
0.00355594
-0.00710405
-0.000775029
-0.00312346
0.00389849
0.0990533
-0.126887
0.0278337
-2.23547e-05
-0.000110855
-0.00795819
0.0065099
0.00253713
-0.000315978
-0.0391488
0.00335681
0.000275552
-0.00088928
0.000182363
-0.000199942
0.00186797
0.000279987
-0.00214796
-5.32143e-05
-0.000110747
-1.16869e-05
-3.27752e-05
4.44786e-05
0.175255
-0.00925928
-0.165996
-0.0234296
-0.0365279
-0.00507607
0.00379954
0.0341287
0.0043503
0.000822412
-6.33349e-05
0.000149208
-8.58549e-05
0.00755772
-0.00485051
-0.00270722
-0.0125018
0.00522978
-0.0169709
-0.0108775
0.0278485
0.118959
-0.0199062
0.000779597
0.00661397
-9.89645e-05
0.00015976
-6.08004e-05
-0.000146751
-3.35145e-05
-0.00590744
0.00300614
0.0216869
-0.0547909
-0.0389833
0.0500009
-0.0110176
-0.000252243
-1.77707e-06
2.76455e-06
0.000141433
0.0191095
-0.000462253
0.000658539
-0.000150393
-0.000508135
-0.00010347
3.49121e-05
6.85811e-05
0.00391572
-0.00197342
-5.34722e-05
-0.000126718
-0.0223121
0.0114692
5.04672e-06
0.000112874
0.00908894
-0.00935526
0.000266235
-0.00402575
0.00906052
-0.00503473
-0.0411879
-0.114379
0.0231624
0.0912165
0.0101223
-0.00907413
0.0151745
-0.0485502
0.00347635
-0.000907405
-0.0209183
0.012544
-0.0306471
0.0286913
0.00195572
-0.0231713
0.00516538
0.018006
2.64826e-05
-3.81678e-05
0.00120556
0.00176986
0.0016736
0.00136585
-0.00303947
0.00134605
-0.000892543
0.0064209
-0.00519877
-0.000774837
-0.000204828
-0.00437696
-0.0187616
0.00137152
-0.00333219
-0.00124075
0.0244144
-0.016019
-0.0033392
0.00234311
0.0498784
0.125377
-0.00836492
-3.24816e-05
0.000214844
0.000798344
0.00209575
0.00182001
0.00796571
-0.00374413
2.38852e-05
9.27461e-05
0.000727935
0.00680238
-0.00103929
-0.00576306
-6.93386e-05
-3.41307e-05
-0.0194759
0.045404
0.00053961
0.00199753
0.00253094
-0.00196422
-0.000566714
-0.000210127
-4.21412e-05
7.83036e-05
9.93633e-07
-7.92982e-05
-0.000104344
0.00236173
-0.00225736
-0.00233819
-0.00147697
0.00381521
-0.00421756
-0.00191294
0.00613049
0.00153299
-0.00294778
0.00342766
-0.00420269
-0.00169193
-0.000536128
-0.0119318
0.0297964
0.00462431
-0.00234846
-7.80842e-05
0.000305159
0.109893
-0.0234431
-0.0864502
0.00218985
-0.00178835
-0.0059516
-0.00928763
-0.0301684
-0.0161689
0.0463372
-0.023711
0.0246787
0.0221005
-0.00139032
-0.0207101
0.00135008
-0.00435397
0.00300392
-0.0106389
-0.0102795
-0.0260754
0.0227941
0.00328132
-8.41582e-05
-3.24734e-05
0.00147195
0.00315236
-0.00399016
-0.0110181
-0.100131
-0.0323897
0.0025226
-0.000340163
-0.00011569
5.23533e-05
-0.00649564
0.0570849
8.19286e-05
-8.64949e-05
-0.000580996
-9.50343e-06
-9.46296e-06
0.0559193
-0.0211744
-0.0347449
-0.00228908
-0.00375714
0.00604618
-0.00118049
3.00863e-06
-6.29418e-05
-0.00156424
-0.00915556
0.00327557
0.00247758
-7.74124e-05
-0.000109882
0.000187273
-0.0149615
0.0200431
-0.000990026
0.00294578
-0.00195573
-0.00400173
0.000694686
0.00330706
-1.27135e-05
-0.00167518
0.00168788
0.00502773
-0.00369757
0.00153566
0.00322259
0.000451748
-0.00367439
0.00136401
-0.000379887
0.00354395
-0.00282086
-0.0584992
0.01706
0.0414392
-0.00249233
0.00150234
0.00210402
0.000426926
-0.0195197
0.00376017
-0.00237911
-0.0320298
0.0717297
0.00147631
0.000595748
-0.00670838
0.006904
-0.000195595
0.0385174
0.0139836
-0.00151956
0.00020176
0.00131783
0.00309302
-0.00554245
0.00244947
0.000159385
-8.81164e-05
-7.13054e-05
-0.0583639
-0.000442511
0.0588065
-0.0101199
-0.00167132
0.0117912
0.0158559
0.0584584
-0.0242309
7.35994e-05
-2.18123e-05
-5.17934e-05
-0.0154291
-0.0286912
0.0441201
0.0175863
0.00451418
-0.000242641
0.000344431
-0.000101756
0.000186047
2.49152e-05
-1.78642e-05
0.00319296
-0.00555378
-0.00149307
0.00074575
-0.00201668
-0.00081393
0.0177508
0.0015185
0.00174514
-0.00326369
0.0153283
-0.00179497
-0.0135332
-0.0153923
0.00529067
-0.00717861
0.00188796
-0.00227206
0.00369293
-0.00142074
0.000479385
-0.00290892
0.0011868
0.00359626
-0.00478303
0.00182529
0.0121207
-0.0903504
0.00370624
-0.00161049
-0.00107743
-0.00137002
0.00244742
8.40684e-05
-0.0252206
-0.0336888
-0.0240178
0.0354488
-0.0808136
-0.00526962
0.000287768
0.00498184
0.00955059
0.0280953
-0.00013826
-0.000589576
-0.000387524
0.00333052
-0.00294296
0.000197681
0.00117306
-0.00137074
-0.0023767
-0.0559872
-0.000415614
0.00212684
0.000145803
-0.00213194
0.00198616
-0.00320651
-0.00524822
0.00845476
-0.000188383
6.15673e-05
-0.00251268
0.000312592
0.00305962
-0.00273177
-0.000327854
-0.00279188
0.00329847
0.0191668
-0.0487772
0.0296103
-0.000153841
-0.00139615
0.00154998
-8.92533e-05
-2.09021e-05
-0.00129464
0.00144044
0.000520272
0.0122499
-0.0123188
6.90018e-05
-0.0182482
-0.0123989
0.0246324
-0.0226845
-0.00194798
0.11575
-0.060346
-0.0109283
-0.00661829
0.0175466
-0.0073725
-0.00274746
-0.000777728
0.00264569
-0.000414156
-0.00248781
0.00290197
2.7781e-05
0.000360808
0.000572333
-3.1454e-05
-0.000796057
0.00385568
0.069587
-0.0325638
-0.0370232
-0.0174807
0.00655245
-0.00245491
0.0116066
-0.00915176
0.00443473
0.00109431
-0.00552907
0.0028063
1.27771e-05
0.0395333
-0.0203665
0.00178529
-0.0112844
-0.019622
0.0664375
-0.0886412
0.0222037
0.0240849
-0.0464412
0.0223561
-0.000120878
4.85107e-05
7.2398e-05
-0.00167703
0.002851
-0.00117395
-0.0129407
0.000467312
0.000697407
-0.00085125
0.000279386
-0.000100101
0.0022645
-5.17753e-05
7.61225e-05
-0.0108803
-0.0124405
0.0233207
0.00131469
-0.00365283
-0.000351365
0.00097054
-0.000619164
-0.000180442
-2.96538e-05
0.000275116
-7.22908e-05
-0.000202856
-0.000267419
-0.00064089
0.000908303
0.000962977
-0.00171389
-0.00119519
-0.000840972
0.00203616
0.00140121
-0.00150556
-0.0455976
0.000508528
-0.000991837
0.000483351
-0.00191734
-0.00227116
0.00319798
0.0115812
-0.00399411
-0.00758717
-0.00902852
0.000506974
0.00852158
-0.000676834
0.000325479
0.0420477
-0.0294363
-0.00113111
-0.00166069
-0.0270101
0.00441016
0.0225999
-0.0055868
0.0167832
-0.0111963
-0.0144812
-0.0199222
0.0344034
0.00380346
-0.011723
0.0079194
-6.24703e-05
-0.00158526
0.00164773
0.0035781
-0.0019045
0.00227907
0.0510161
-0.0258477
-0.0251685
-0.000504297
0.00140029
-0.000896029
0.000518908
5.34272e-05
-0.00392441
-2.81122e-05
0.00395254
-0.00183429
0.00172579
-0.00764061
0.00518565
-4.82678e-06
-4.21873e-05
4.70617e-05
0.00583562
-0.00586889
3.32685e-05
-0.001189
0.000885609
-0.000501994
0.000234585
0.0019835
0.000539093
-0.00541079
9.23305e-05
0.00531841
-0.0427378
-0.0157613
0.0624501
-0.0383652
-0.0137877
-0.0278214
0.041609
0.0965721
-0.0301347
0.000785937
0.0175136
-0.0182995
0.0212597
0.0315138
-0.0527736
0.0121825
-0.029098
0.0169155
-0.00100803
-0.00051434
-0.00109942
0.00288806
-0.00481397
0.00192592
-0.0326805
0.0105845
0.022096
-0.00397187
0.00515868
1.25889e-05
-0.000160799
0.00014822
-0.00478498
0.00251289
0.00880722
-0.00720897
-0.00159818
0.00152848
0.00185348
-0.003382
0.000596989
0.00201665
-0.00261365
-0.00463155
-0.00439697
0.0321247
-0.010313
-0.0136038
0.0174073
0.0454982
0.0765953
-0.00205281
-0.00273222
-0.00743138
0.000723004
-0.000176849
-3.62057e-06
9.12718e-05
-0.00046016
0.000368878
0.0178926
0.00673986
0.00298452
0.00582271
0.00485589
3.8239e-05
0.000236831
-0.00732035
-0.00116115
0.00175815
0.00889503
-0.0104714
0.00157641
-0.0216583
0.0224442
-0.00207959
0.00328106
-0.00120147
-0.000258055
0.000387022
-0.000128968
0.000281218
-0.000548198
0.000267037
0.00246175
-0.00211917
0.000188633
-0.000446677
0.000454731
-0.0437528
-0.0353395
-0.000662517
-0.00192351
0.00258603
-7.28254e-05
2.82477e-05
0.0616867
-0.0265251
-0.0351617
0.0188016
-0.000778059
0.0012866
0.00493342
-0.00722253
0.0623371
0.00371622
0.0126114
-0.000361509
0.00763735
0.00130777
0.00253996
0.00115301
-0.0177099
0.070213
-0.00278656
0.00266364
-0.00514866
-0.0028095
-0.00232371
-0.0403363
0.00482079
-0.00149103
-0.0157089
0.0351238
-0.019415
0.0326241
0.0300296
4.25632e-05
-0.00018931
-0.0469994
0.0668874
-0.019888
-0.0262814
0.000206129
0.00429976
-0.00336781
-0.000931939
-0.000252603
-0.00185754
0.000273746
-0.000525523
0.000251792
0.00443044
0.00140521
0.00548847
-0.00811265
0.00262417
-0.000226169
0.000238744
-0.0024434
-0.00148107
0.000908153
0.00279811
0.123238
-0.0777397
0.0541931
0.0366748
-0.0248223
-0.0118526
-0.000343848
1.40676e-05
0.000329782
0.0272887
0.0086173
-0.0359063
0.00494633
-0.00149886
-0.00123294
-0.0141481
-0.0085364
-0.000571216
0.000226511
0.000344706
0.0379203
-0.0489224
0.0110021
0.00214769
-0.000602902
-0.00360674
-0.0271374
0.0196926
0.0074447
2.08803e-05
-0.000123349
-0.0484377
0.00843698
0.00314425
0.00571603
-0.0006883
0.00248331
-0.00174637
-0.000736964
-0.0206884
0.00354211
0.0171462
0.0209602
0.0407265
0.0449963
0.00601981
0.0036254
0.00393232
0.00768109
0.0152592
9.94229e-05
0.000102613
0.0183112
-0.039344
0.0210328
0.00151494
-0.00157736
-7.90445e-06
0.00193798
-0.000757119
0.00140038
-0.000643283
-0.00107599
0.00203897
-0.042479
-6.55114e-05
-1.06386e-05
7.61594e-05
0.00444221
0.00398811
-0.00843036
-0.00190695
0.00151941
-0.0212748
-0.0116071
0.0328817
0.000687893
0.000610182
-0.0204956
-0.0733689
-0.000287882
0.00011078
0.000177076
0.000359535
0.00285703
-0.00321655
0.00100419
-0.00150846
-0.0041979
-0.00306176
0.00480954
0.0105187
0.00794916
-0.026942
0.0189928
-0.000569722
0.000783397
0.000543138
-0.000269396
-0.0182237
-0.00626661
3.39377e-05
0.000127743
-0.000161627
-0.0112389
-0.00788924
0.00225368
0.00563552
-0.00215293
-0.00325788
-0.0103755
-0.00521379
0.0155893
0.000814812
-0.00391696
0.00310214
-3.69088e-05
0.0610649
-0.0367127
0.00439883
7.70076e-06
0.00107186
-0.00274889
7.75923e-05
-0.000319403
0.000241789
0.00888277
-0.00879046
0.0300193
0.0472076
-0.00571436
-0.00411675
0.00142137
0.0420001
0.0402171
0.00182597
-0.00886808
0.0257228
0.0109233
0.000216988
-0.0111403
-0.00148795
-0.0034216
-0.00184802
-0.00185771
0.000352954
-0.00243254
0.0216799
-0.0847357
2.61492e-05
1.22805e-05
-3.84258e-05
0.000854762
-0.000546528
-0.000308207
0.00746422
-0.0187383
0.0112742
0.00152285
-1.31789e-05
-0.0005959
0.00147464
-0.000878713
0.00264573
-0.00228618
-0.00474718
-0.0104944
0.0152416
0.0230972
-0.0296341
0.00653688
0.00564683
-0.00427535
-0.00204298
0.000875399
0.00116758
-0.139859
0.0648519
0.0037529
0.00304949
-9.26542e-06
-0.00011159
-0.00467595
0.00360483
0.00239
-0.000399936
-0.00199003
0.0238478
-0.012133
0.0124441
-0.00152076
-0.00576501
0.00445773
0.00130724
0.000155922
-4.49185e-05
-0.000110972
-0.0353668
-0.000369587
-0.000141579
2.83272e-05
0.000113288
-0.0651233
-0.00120248
-5.84922e-05
0.0444363
-0.0261251
-0.00503772
0.00385539
0.00118235
-0.00223746
0.000850767
0.00138672
-0.00248058
4.13346e-05
-8.14705e-06
0.00197605
-0.0196491
-2.42737e-06
-7.50069e-05
-0.000271928
0.00142598
-0.00115408
-0.00353762
0.0130553
-0.000244303
0.00106065
0.000790257
-0.00185092
0.000637246
8.74397e-05
-0.000724712
-0.0459047
0.00316675
-0.0191883
-0.114023
0.00279124
-0.00681696
-0.0526304
0.0536737
-0.00104334
-0.00159255
0.00110151
9.42085e-06
-0.00186365
-0.00353377
0.00161801
-0.00133803
0.0139435
0.0227313
0.000248317
-0.000786071
0.00560101
0.0246794
-0.000382576
0.00202811
0.00232221
-9.01989e-06
0.000724137
-0.000715092
-0.0843458
0.0554108
0.028935
0.00142684
-0.000366179
8.91371e-06
6.46684e-05
-0.00570375
0.0010486
0.00112835
0.0128229
-0.0221886
-0.0100216
0.0125993
-0.00257774
-0.0565007
-0.00870777
0.0652083
-0.0735401
0.050097
0.0396522
-0.0104794
-0.0291728
-0.00101686
0.000293616
8.26575e-05
4.40649e-06
-8.70575e-05
-4.75483e-05
0.000283888
-0.000236331
0.00045254
0.000534259
-0.000986782
-0.000124128
0.000119339
-0.00419674
0.00204379
0.093604
-0.00532315
-0.0882808
-0.0471484
0.0585951
-0.0114467
0.00148698
0.000594799
-0.00208177
0.00651339
-0.00342031
0.00930033
-0.0100628
0.000762496
-4.79429e-05
0.00457011
0.00339555
-0.200382
-0.00992263
0.210304
8.26486e-05
-2.79195e-05
-3.75909e-05
-0.0674106
0.0890905
0.0205194
-0.00769658
-0.0443342
-0.0765417
0.120876
-0.0246928
0.0129466
0.0117462
0.000615957
-0.000163377
0.000571351
0.000205596
-0.000776986
0.0113416
-0.00159333
-0.00248517
-0.000616849
-0.000266759
0.00173237
-0.00146561
0.00940246
-0.0251115
0.0014903
-0.000880101
-0.000117348
0.000151309
0.0253916
-0.0179273
-0.0615052
-0.0606253
0.00823241
-0.00294172
-0.0558822
0.00325184
-0.000774659
-0.000483977
0.00125868
0.0238239
-0.0344936
0.0106698
-0.000364889
0.0276536
-0.0433626
0.0279499
-0.0533113
0.00616287
-0.00820262
-0.0105357
-0.148797
0.0872917
0.0282708
0.00455121
-0.0314932
0.00468343
-0.0350057
3.67001e-05
0.000119242
-0.0164643
0.0348048
-0.000184052
-0.00111126
0.00129531
0.00383713
-0.0033352
-0.000501925
-6.98828e-05
-0.000106942
0.00995051
-0.0320013
0.0170677
-0.0640672
-0.0100329
-0.0106554
0.0111794
-0.000144209
7.43597e-05
-0.000324129
8.14623e-05
0.0214336
8.86032e-05
-0.000339674
0.000251049
0.000846909
-9.77358e-05
0.000140291
0.00021761
-0.00138055
-0.000520156
0.00015894
-6.67549e-05
0.000610064
1.9433e-05
-3.64461e-05
-0.00781873
-3.19247e-05
0.00785065
0.00108705
-0.00528381
0.00810787
-0.000274829
-6.90285e-05
0.00534462
-0.00382617
0.0679313
-0.0244475
-0.0434838
-0.000835669
-0.000683834
0.000460503
0.00144421
-0.00190473
0.0387832
0.0291481
0.00469478
-0.0150703
0.0012097
-0.00361657
0.00240686
0.00204444
-0.00207073
2.62598e-05
-0.0166655
0.0272731
-0.00214966
0.001965
-0.00304242
-0.0316272
-0.0142775
-0.0394284
0.00840009
-0.0272702
0.0206808
0.00213139
-0.00223149
-0.0111718
-0.00146545
0.0126373
-0.00117617
0.0108101
-0.0188257
0.00365758
-0.00298889
-0.000668699
-0.00699056
0.000281965
0.00670855
0.000243728
-0.000291275
-0.00137592
-0.000316012
5.48253e-05
-2.38756e-05
-0.00125955
0.00424403
-0.00638034
0.0100672
0.000750159
-0.00240459
-0.0114009
-0.000942814
0.0123436
-0.0238965
0.0294975
-0.0716412
0.0380121
0.0336291
-0.0123212
0.0231312
0.00107035
0.00207193
-0.00314222
-0.000210301
-0.02697
-0.00130298
0.00423555
-0.00293254
-0.204035
0.00365361
0.00185659
0.000298323
-0.000623645
0.000325244
-0.00233773
0.000967699
-0.000341147
0.00390453
-0.00224492
0.00127341
0.00316132
-0.000626248
0.000617251
0.00431691
0.00217141
-0.00213441
-3.69926e-05
0.00465174
0.00167495
-0.00632661
-0.059304
-0.0293373
0.019574
0.0125507
0.0001101
-9.20933e-05
-1.80249e-05
0.00471746
-0.00390265
0.0340786
-0.0170943
0.00183261
-0.00157288
-0.00151449
0.00347099
-0.00195646
0.00827384
-0.0115289
0.00325507
7.30118e-05
-0.00139804
0.00206015
-0.00222961
0.000169393
-0.0124615
-0.0202191
-0.0303445
0.0103682
0.0199764
0.00291781
-0.00426218
0.059149
0.0417559
-0.00793726
-0.000487386
0.00842465
-0.0172189
0.0294014
-0.000245787
1.71842e-05
0.000228612
-0.00359114
-0.00429809
-0.000152796
-0.008491
0.000553755
-0.00806378
-0.00240766
-0.000443571
-4.52941e-05
0.000488915
-0.00556057
-0.0115394
0.0171
-0.00042595
-0.010975
0.00951094
2.87991e-05
-0.00953978
9.29621e-06
7.73651e-06
0.00188785
0.00720107
-0.00226687
-1.65728e-05
1.68991e-05
-3.23005e-07
0.000420151
0.00780829
-0.0210508
0.0132425
0.00204801
-3.54164e-06
-0.00398012
-0.00023742
-5.29087e-05
-0.000192863
0.00925262
-0.0132468
7.53662e-05
-4.43413e-05
-9.7262e-05
0.00425462
0.00224085
0.00144585
-0.00368664
-0.000447318
0.00037853
-0.0350647
0.0102424
0.00141327
-0.00767092
0.0170733
0.00462356
0.0134158
0.000807562
0.000523927
-0.00202276
0.0204634
0.00347552
-0.0239389
-0.0256361
-0.123652
0.0350923
-0.0709071
-0.000906313
0.00293444
0.00596861
-0.000915728
0.00212482
0.000215826
0.00217418
0.00080276
-0.000341708
-0.000461006
-0.0810898
0.0217858
0.00776343
-0.00927099
0.00150763
-0.165546
0.0955077
0.0700382
0.0361254
-0.00427101
-0.0318544
-0.00235925
0.0187934
0.00389471
-0.0226882
0.0012416
-0.000255959
-0.000985614
0.000351064
-0.000262472
-0.0414432
0.100592
0.00455728
0.00283802
0.0130046
-0.00858009
0.00372958
-0.00198637
0.010744
0.0475703
-0.0322321
-0.0153382
-0.000333694
0.00157535
-0.00156027
-0.000677179
-0.0147728
0.0188406
-0.00406782
0.0223496
-0.000969532
0.00137286
-0.0004033
-0.0576841
-0.000225812
-0.00157838
0.00180421
0.0373285
0.000923564
0.00234325
-0.00326682
-0.00233965
0.00366004
-2.7076e-05
0.000284612
-0.000627039
0.00156965
-0.00214776
-0.0210749
0.0164681
0.00460681
-0.0016629
0.00206561
-8.21206e-05
-0.000488955
0.00162432
-0.00113535
-0.0115044
-0.00501837
0.00371535