/*--------------------------------*- C++ -*----------------------------------*\
| =========                 |                                                 |
| \\      /  F ield         | OpenFOAM: The Open Source CFD Toolbox           |
|  \\    /   O peration     | Version:  v2012                                 |
|   \\  /    A nd           | Website:  www.openfoam.com                      |
|    \\/     M anipulation  |                                                 |
\*---------------------------------------------------------------------------*/
FoamFile
{
    version     2.0;
    format      ascii;
    class       volScalarField;
    location    "200";
    object      epsilon_0;
}
// * * * * * * * * * * * * * * * * * * * * * * * * * * * * * * * * * * * * * //

dimensions      [0 2 -3 0 0 0 0];


internalField   nonuniform List<scalar> 
13749
(
1.9064e-06
3.54074e-06
2.88651e-06
2.08862e-06
2.21515e-06
2.24188e-06
3.90555e-06
1.6437e-06
2.77942e-06
2.08058e-06
2.2903e-06
3.08153e-06
2.15017e-06
0.00548687
0.00713829
1.65966e-06
2.51024e-06
4.74376e-06
2.94401e-06
3.3551e-06
0.0213201
0.00712847
0.00405105
2.36706e-06
2.22316e-06
1.9917e-06
1.9655e-06
2.04678e-06
1.83794e-06
2.40613e-06
3.53941e-05
0.00821706
2.3383e-06
1.84788e-06
2.1592e-06
1.88495e-06
2.82803e-06
2.41757e-06
1.87611e-06
1.94115e-06
2.24347e-06
0.0331559
2.34797e-06
2.37422e-06
4.99244e-06
1.97814e-06
3.08711e-06
2.49133e-06
1.93701e-06
0.0509693
2.39578e-06
0.0202701
1.95489e-06
0.000100926
2.21568e-06
1.94392e-06
2.14333e-06
2.3354e-06
2.09399e-06
0.00283994
2.33496e-06
2.00024e-06
0.00797904
3.11867e-06
1.96251e-06
2.38026e-06
2.75899e-06
2.42846e-06
1.67251e-06
1.9715e-06
0.00448102
2.25812e-06
0.00150532
1.97291e-06
6.46678e-06
4.38367e-06
1.7172e-06
2.10236e-06
2.13029e-06
4.06886e-06
1.88022e-06
2.25185e-06
2.3748e-06
1.83151e-06
2.29349e-06
3.85066e-06
0.00647507
7.47332e-06
2.18077e-06
2.46413e-06
2.29375e-06
0.000252388
1.95824e-06
0.00150566
1.95085e-05
2.37868e-06
1.78842e-06
3.29913e-06
2.23222e-06
2.38595e-06
0.0133524
1.90942e-06
1.75828e-06
0.00783319
4.04194e-06
0.00787409
2.54825e-06
2.76417e-06
2.46105e-06
2.99806e-06
3.04199e-06
2.34416e-06
2.60999e-06
0.190307
0.0159671
1.82532e-06
1.91368e-06
2.21202e-06
2.61466e-06
2.04064e-06
1.64704e-06
3.89049e-06
1.80239e-06
1.74506e-06
2.24203e-06
0.00454974
2.23816e-06
0.0108244
1.85947e-06
0.00152619
2.05119e-06
0.0067318
0.00793257
3.81336e-05
2.11151e-06
2.45657e-06
7.53614e-06
1.91602e-06
1.77534e-06
0.0449794
2.57215e-06
1.87618e-06
1.86676e-06
0.0308847
2.1876e-06
0.0733232
2.08068e-06
2.41183e-06
2.60122e-06
2.76327e-06
2.19379e-06
1.80372e-06
0.00807428
0.000310738
1.69368e-06
0.0109466
2.07117e-06
2.17561e-06
3.73885e-06
2.69376e-06
0.168685
2.80877e-06
0.0309001
2.34124e-06
3.30845e-06
2.48117e-06
6.21518e-06
2.91486e-06
2.39515e-06
2.16299e-06
1.87397e-06
2.98841e-06
1.92118e-06
1.81503e-06
2.45515e-06
4.27323e-06
4.94068e-06
1.69584e-06
0.0108721
0.0120018
4.09898e-06
1.83432e-06
1.81258e-06
3.18862e-05
0.000287392
2.44632e-06
0.0299485
2.1005e-06
0.00216844
2.31789e-06
1.81857e-06
0.00439945
1.67241e-06
2.86198e-06
0.026683
3.83825e-06
2.21222e-06
0.106684
1.83346e-06
1.86483e-06
1.78525e-06
2.28361e-06
2.16996e-06
2.32015e-06
0.0066034
1.85213e-06
2.13374e-06
2.89947e-06
0.00020393
2.68661e-06
1.8185e-06
0.00474392
0.0370407
9.91805e-06
1.98073e-06
2.78786e-06
0.00560219
1.95793e-06
0.00661409
1.8561e-06
0.0178706
2.32641e-06
0.000101183
0.0047198
2.32836e-06
0.000555001
1.85195e-06
2.62207e-06
0.00660777
0.00398173
2.98616e-06
4.26034e-06
3.82819e-06
3.10654e-06
0.00496703
2.2355e-06
3.16372e-06
0.000208508
3.39346e-06
2.51901e-06
2.20523e-06
0.00682557
0.0016132
3.10353e-06
2.37261e-06
0.0270601
2.2649e-06
0.00718588
1.95912e-06
2.98521e-06
0.0400773
2.44697e-06
2.42683e-06
1.95688e-06
2.73984e-06
1.86511e-06
2.7854e-06
0.0309666
3.89891e-06
0.118364
1.77275e-06
2.39387e-06
2.49806e-06
2.04711e-06
2.57169e-06
6.27939e-06
4.39783e-05
2.00385e-06
3.3458e-06
2.71664e-06
1.76828e-06
0.0170739
2.56071e-06
0.0319165
2.10158e-06
0.0094009
0.0414754
1.80631e-06
2.66866e-06
1.80597e-06
2.49886e-06
1.99722e-06
0.000222901
0.0243329
1.89492e-06
2.58647e-06
2.09975e-06
2.07854e-06
0.00130852
2.20701e-06
5.80493e-05
1.98182e-06
0.00719074
2.2851e-06
0.00469337
0.000179032
3.21344e-06
1.89149e-06
1.84299e-06
1.91351e-06
1.72282e-06
2.16447e-06
1.79134e-06
0.0380635
1.80332e-06
1.7633e-06
1.78455e-06
3.33222e-06
1.68617e-06
1.82234e-06
0.0183582
2.2532e-06
2.01413e-06
0.0112453
1.78275e-06
2.21656e-06
1.76403e-06
0.0052152
2.02718e-06
1.72855e-06
6.88575e-06
0.0261527
2.05242e-06
4.2687e-06
0.0626256
4.12946e-06
2.17035e-06
1.83803e-06
2.6534e-06
2.56082e-06
1.85038e-06
3.13916e-06
1.73046e-06
2.04299e-06
2.02636e-06
1.77914e-06
1.98403e-06
1.97003e-06
2.66596e-06
2.33968e-06
3.25277e-06
3.76989e-05
2.05515e-06
0.00128277
2.67743e-06
1.77193e-06
1.72721e-06
2.49794e-06
2.10117e-06
2.70266e-06
2.29957e-06
2.29038e-06
0.175801
0.184295
1.99253e-06
2.24964e-06
2.32956e-06
0.000399491
2.45695e-06
0.000118854
3.00995e-06
4.22722e-06
1.98973e-06
0.0249085
2.6873e-06
2.63365e-06
2.43341e-06
0.0174066
0.00803355
3.24618e-06
0.00471841
1.87298e-06
2.38039e-06
4.13476e-06
2.65583e-06
1.93166e-06
2.44504e-06
0.112962
3.89769e-06
1.80038e-06
3.89779e-06
3.2715e-06
0.00747229
2.48874e-06
4.10169e-06
2.03043e-06
0.00880963
2.36225e-06
2.7092e-06
1.75364e-06
5.18619e-06
4.87058e-05
0.0306364
2.26258e-06
2.3139e-06
9.73211e-05
0.204
3.45748e-05
2.83794e-06
0.000536109
2.79166e-06
2.30717e-06
3.12628e-06
3.01374e-06
1.68807e-06
1.89201e-06
0.00569573
2.89394e-06
2.81475e-06
2.08469e-06
1.82452e-06
1.76627e-06
2.82354e-06
0.0117392
2.42704e-06
3.94212e-06
0.00516558
0.00506996
1.81406e-06
2.38674e-06
2.65402e-06
2.26125e-06
0.00144576
1.74767e-06
0.000127535
2.79016e-06
3.0859e-06
0.122992
0.0102707
3.91353e-06
6.26957e-06
4.08248e-06
3.14919e-06
2.43045e-06
0.000107087
1.96577e-06
1.93075e-06
1.98296e-06
2.42432e-06
0.0175667
2.79042e-06
2.51599e-06
4.17765e-06
1.80667e-06
2.06859e-06
1.78809e-06
2.6919e-06
9.99263e-06
2.67043e-06
4.31151e-06
0.000200937
2.38303e-06
0.00989389
1.98392e-06
0.034348
1.94057e-06
2.07524e-06
2.09095e-06
0.00832327
3.27782e-06
3.19882e-06
4.23361e-06
1.74312e-06
0.0164753
1.88238e-06
1.73063e-06
3.36833e-06
9.68704e-06
0.211791
2.38078e-06
0.00180483
2.71309e-06
7.27073e-06
0.0122036
2.36907e-06
2.66958e-06
2.69786e-06
2.40534e-06
2.9671e-06
2.52512e-06
2.05488e-06
1.67094e-06
1.82007e-06
0.00750526
0.0113148
0.000185783
0.0274824
0.00775135
2.16752e-06
1.76165e-06
1.82936e-06
1.66756e-06
3.09424e-06
1.92723e-06
1.82868e-06
2.06481e-06
0.0317219
1.98156e-06
0.201452
2.26454e-06
2.53675e-06
0.00479457
1.72159e-06
0.000170612
1.97151e-06
0.00973339
2.46419e-06
3.03694e-06
2.41521e-06
2.06413e-06
4.10231e-06
1.84241e-06
2.14779e-06
0.0223651
1.73543e-06
0.0279461
2.36869e-06
0.0024902
1.95357e-06
2.91582e-06
0.00268202
0.0173541
2.34908e-06
2.45566e-06
2.38267e-06
1.67952e-06
3.0178e-06
1.95805e-06
2.06906e-06
2.90307e-06
2.27728e-06
2.74446e-05
2.36683e-06
1.73171e-06
1.78744e-06
2.25011e-06
2.85851e-06
0.00232535
0.00711942
0.00510029
0.00264334
0.00169478
3.9238e-06
7.8188e-05
0.0527317
2.30798e-06
2.2446e-06
0.00632017
0.0156761
0.00215884
2.24868e-06
2.47593e-06
0.00875005
2.10367e-06
2.02967e-06
1.83568e-06
3.02509e-06
1.94032e-06
1.68185e-06
0.0138807
0.00521069
1.88429e-06
1.74289e-06
0.000693804
2.48746e-06
0.0171224
3.24071e-06
3.08997e-06
2.08961e-06
5.90984e-06
3.93912e-06
9.56822e-06
0.00643024
3.14816e-06
1.82216e-06
1.79144e-06
0.0117153
0.0129674
2.01856e-06
2.38637e-06
1.93443e-06
3.00553e-06
0.0659184
2.32548e-06
2.21821e-06
4.15735e-06
0.0145508
0.00334485
2.76921e-06
2.05694e-06
1.87626e-06
1.7257e-06
2.17421e-06
2.31755e-06
0.00602394
0.00292831
2.11737e-06
0.0425823
0.0332628
1.70405e-06
1.70664e-06
0.00306276
5.23432e-06
0.011242
0.076401
1.88937e-06
1.92554e-06
0.0114937
0.0542484
4.14634e-06
2.45518e-06
1.78101e-06
2.29713e-06
0.00616378
2.2963e-06
2.02474e-06
2.22342e-06
2.21665e-06
2.53279e-06
1.98317e-06
6.97174e-06
2.69157e-06
3.9334e-05
2.08383e-06
5.54231e-05
0.0477242
3.99319e-06
0.00078084
1.67894e-06
2.68987e-06
0.00325135
1.87134e-06
2.6919e-06
2.48644e-06
1.73858e-06
2.92718e-06
1.71063e-06
1.791e-06
0.00343019
2.07876e-06
1.89702e-06
2.70119e-06
2.39727e-06
0.0480683
4.16392e-06
1.78161e-06
4.1237e-06
2.34252e-06
0.0268202
0.00783595
1.76716e-06
1.81712e-06
2.39815e-06
1.73713e-06
3.1734e-06
1.93912e-06
8.92809e-06
0.0106152
2.75784e-06
4.10153e-06
1.96768e-06
2.91744e-06
4.04326e-06
6.22241e-06
3.12702e-06
0.0141156
2.18161e-06
2.45919e-06
3.49033e-06
2.00567e-06
0.00493191
3.07635e-06
4.89153e-05
1.79675e-06
1.68468e-06
1.03949e-05
2.37707e-06
1.89539e-06
0.0081991
0.00618808
4.73996e-06
2.73738e-06
0.0182087
2.49419e-06
2.75768e-06
1.73889e-06
4.42665e-06
2.70889e-06
1.85925e-06
0.0126127
0.0451585
2.11712e-06
2.21349e-06
1.95081e-06
1.88407e-06
0.00613829
2.42411e-06
1.88085e-06
2.31721e-06
2.15139e-06
1.95286e-06
1.77214e-06
2.23397e-06
2.06275e-06
4.0959e-06
1.70482e-06
2.35254e-06
0.0056521
2.25331e-06
7.21499e-06
1.7903e-06
2.26881e-06
0.0116248
2.07947e-06
1.71641e-06
0.000377184
0.0107983
3.30066e-06
0.0238833
2.01622e-06
2.25539e-06
2.38342e-06
2.34509e-06
0.203891
2.46851e-06
2.84079e-06
0.0277981
2.33878e-06
2.28223e-06
3.65181e-06
2.28539e-06
9.70384e-06
7.32506e-06
0.00197871
0.000823101
2.9654e-06
1.79738e-06
2.17596e-06
1.92777e-06
2.1099e-06
0.00497166
2.74395e-06
1.81319e-06
2.66958e-06
4.86812e-05
1.77267e-06
2.56078e-06
2.31363e-06
2.31347e-06
2.52678e-06
0.00698161
2.68894e-06
2.24933e-06
2.70554e-06
2.80102e-06
0.00154457
1.83524e-06
2.43571e-06
2.17467e-06
2.01912e-06
2.05241e-06
0.00366392
3.941e-06
1.88957e-06
0.000145129
0.0053246
4.15672e-06
2.46521e-06
3.63527e-06
2.19807e-06
0.0010227
0.00884579
0.00700523
3.24307e-06
2.39235e-06
0.00734245
2.52495e-06
2.19902e-06
4.46393e-06
1.74383e-06
2.0308e-06
1.75214e-06
0.00358645
1.69591e-06
0.00948069
1.71932e-06
0.054321
2.95061e-06
0.0149121
0.0118118
0.00500624
0.00458488
3.95305e-06
1.91377e-06
0.0528344
2.16113e-06
2.21687e-06
3.17133e-06
1.0795e-05
2.66243e-06
0.0249055
6.1876e-06
2.33593e-06
2.38859e-06
2.3747e-06
0.00732578
2.21306e-06
2.24164e-06
2.7628e-06
0.00598655
1.10679e-05
3.45164e-06
2.81732e-06
0.0165576
2.06701e-06
0.0135692
4.11857e-06
0.00132421
1.79526e-06
2.87003e-06
2.38256e-06
9.29965e-06
2.97913e-06
1.78359e-06
2.74032e-06
2.48718e-06
0.00773275
0.00525676
0.00832098
0.00720871
4.59733e-06
0.00332947
2.49015e-06
0.000123301
2.71741e-06
0.000268227
9.69617e-06
2.04404e-06
9.90433e-06
7.32094e-06
1.05012e-05
2.92596e-06
3.11009e-06
0.0712815
2.94029e-06
1.82895e-06
2.74316e-06
3.1496e-06
2.90395e-06
0.00452965
3.98985e-06
2.04326e-06
2.89185e-06
3.34766e-06
1.80279e-06
2.28878e-06
2.38455e-06
1.69799e-06
1.45222e-05
3.47104e-06
5.93484e-06
0.0211699
2.81973e-06
3.86823e-06
1.90852e-06
6.03783e-05
3.54311e-06
0.00434409
3.00704e-06
3.36957e-06
0.0452638
2.3761e-06
0.0119991
2.05551e-06
9.94318e-06
0.00045419
3.13625e-06
4.22383e-06
1.69282e-06
0.00466656
1.8216e-06
0.00114231
1.85892e-06
2.86692e-05
2.09063e-06
4.04463e-06
0.00567917
2.33664e-06
0.00682596
1.72756e-05
2.65473e-06
1.85355e-06
0.0114631
2.06442e-06
2.74335e-06
0.0722404
3.46277e-06
3.22206e-06
2.15674e-06
1.80899e-06
1.85833e-06
2.66227e-06
4.27107e-06
2.72243e-06
0.00585562
2.42039e-06
2.47237e-06
2.36608e-06
0.000296097
2.30432e-06
3.2726e-06
2.06556e-06
2.06583e-06
4.10367e-06
2.709e-06
2.33604e-06
2.28237e-06
7.15719e-06
0.000107796
1.82337e-06
4.04781e-06
2.50964e-06
3.88529e-06
1.7966e-06
0.000218886
2.37831e-06
2.6119e-06
0.00141592
4.13691e-06
1.0807e-05
1.86824e-06
2.29767e-06
3.18832e-06
9.79654e-06
2.33423e-06
4.04594e-06
2.46856e-06
1.70892e-06
2.23522e-06
1.96556e-06
2.83884e-06
2.92795e-06
0.00679322
4.20623e-06
0.0179843
0.0463977
3.33408e-06
0.0263438
2.32826e-06
2.30251e-06
2.37745e-06
4.21131e-06
1.79929e-06
2.7476e-06
2.14377e-06
2.74516e-06
1.95613e-06
2.39406e-06
3.11958e-06
0.00582376
1.9179e-06
0.00973722
4.2727e-06
2.54576e-06
1.80892e-06
2.49711e-06
0.0103166
0.00604376
0.155116
2.17913e-06
1.67442e-06
0.00369876
2.47763e-06
3.28146e-06
2.44111e-06
2.325e-06
1.71809e-06
0.00830763
2.8799e-06
1.88875e-06
2.14039e-06
1.08228e-05
2.44793e-06
2.02269e-05
1.91071e-06
0.0166525
2.32255e-06
1.93774e-06
3.20877e-06
0.00171581
2.30781e-06
9.83776e-06
2.35128e-06
2.60572e-06
3.80904e-06
4.14972e-06
3.25244e-06
2.76116e-06
2.8996e-06
2.1737e-06
0.0112409
1.8781e-06
0.0164116
0.0164482
2.43267e-06
1.08938e-05
0.0103833
1.95002e-06
2.32156e-06
0.114082
4.54545e-06
0.0073888
3.95391e-06
1.9617e-06
1.0239e-05
3.40136e-06
0.00845118
2.52096e-06
0.165563
3.1168e-06
0.0096724
2.73805e-06
0.0078056
2.45522e-05
9.67709e-06
2.90245e-06
0.00714022
0.000478402
2.04145e-06
0.00646029
2.36494e-06
0.000899464
1.8671e-06
0.00440429
4.13535e-06
2.37337e-06
3.34032e-06
1.88147e-06
1.77404e-06
3.28285e-06
6.27377e-06
2.3954e-06
5.75778e-06
2.55647e-06
3.21524e-06
0.0299225
1.83306e-06
2.05695e-06
0.0121872
1.7657e-06
2.26532e-06
2.41638e-06
0.00543459
2.34888e-06
0.195028
3.26203e-06
1.82105e-06
1.70712e-06
2.28857e-06
3.80418e-06
0.0347448
2.35608e-06
2.35041e-06
2.52773e-06
3.66477e-06
4.0267e-06
1.78192e-06
3.16085e-06
2.09518e-06
0.0317289
1.67984e-06
1.67616e-06
1.17022e-05
1.87227e-06
1.92706e-06
2.28651e-06
0.0115864
2.27114e-06
1.91961e-06
0.00460378
3.36054e-06
2.7159e-06
0.0109061
3.24369e-06
1.78813e-06
2.16062e-06
2.18307e-06
1.87851e-06
2.3708e-06
2.47557e-06
2.25002e-06
0.00480147
0.0118911
2.10271e-06
1.77286e-06
0.00934534
1.82716e-06
2.38894e-06
3.593e-05
3.63177e-06
2.31124e-06
0.0022541
8.4123e-06
3.75441e-05
2.21768e-06
2.59843e-06
2.11027e-06
2.66847e-06
2.66193e-06
2.37274e-06
3.47962e-06
3.03262e-06
0.00746951
3.66491e-06
4.09953e-06
2.1148e-06
2.11321e-06
2.18983e-06
1.96164e-06
0.134872
2.7533e-06
1.70968e-06
0.145797
3.72915e-06
3.34946e-06
2.21871e-06
1.96331e-06
1.6777e-06
0.0953516
0.00286934
1.68632e-06
0.014419
2.1858e-06
0.0598991
2.76908e-06
0.00420268
3.83302e-06
0.0130107
1.69728e-06
2.9228e-06
0.156467
3.28456e-06
2.40075e-06
3.32577e-06
2.94994e-05
0.10622
3.73137e-06
3.10476e-06
3.29802e-06
2.83275e-06
0.0508301
2.89437e-06
1.66777e-06
3.36962e-06
1.91596e-06
2.9983e-06
2.94268e-06
3.32874e-06
4.00061e-06
1.77773e-06
1.92906e-06
2.0509e-06
1.77627e-06
1.74774e-06
2.40161e-06
2.22087e-06
2.15151e-06
2.77033e-06
2.19647e-06
0.0114248
2.52633e-06
0.0181531
2.81963e-06
1.8005e-06
2.78814e-06
2.4655e-06
2.26722e-06
0.00602622
1.73674e-06
4.10531e-06
2.62527e-06
0.000108037
0.00618299
2.31741e-06
2.54287e-06
2.69022e-06
1.85162e-06
0.113558
2.29723e-06
0.00589879
2.90073e-06
1.76724e-06
2.31002e-06
2.80604e-06
0.00760723
2.457e-06
2.00631e-06
2.83124e-06
1.96521e-06
2.49699e-06
0.00584092
2.35461e-06
0.0484842
2.56424e-06
2.27427e-06
0.00415176
4.1022e-06
2.72469e-06
2.23117e-06
2.15435e-06
7.91479e-06
0.00118284
2.49988e-06
0.00649066
2.92616e-06
2.04664e-06
2.64916e-06
4.26942e-06
2.35919e-06
2.41364e-06
0.00016748
2.35229e-06
2.66448e-06
3.78962e-06
0.00868181
3.05321e-06
0.0260914
0.00988532
1.98634e-06
2.39632e-06
1.78349e-05
1.86367e-06
2.74512e-06
0.00384544
3.43202e-06
2.5475e-06
2.09795e-06
1.93161e-06
2.2731e-06
4.148e-06
2.40841e-06
1.77664e-06
0.000455365
2.62038e-06
0.000917297
1.96212e-06
2.58874e-06
2.03242e-06
2.36481e-06
0.00448627
0.0210943
2.64357e-06
2.16951e-06
2.95454e-06
1.78056e-06
2.34545e-06
0.00430279
2.83201e-06
0.00384634
2.57252e-06
4.42469e-05
0.000354631
1.1957e-05
3.53802e-06
2.51611e-06
2.13241e-06
3.62858e-06
2.42162e-06
7.59319e-06
2.29277e-06
2.67409e-06
1.77125e-06
1.99924e-06
0.00452807
3.01119e-06
1.86066e-06
2.46135e-06
2.96764e-06
4.14856e-06
3.77931e-06
0.0255432
2.17777e-06
3.29028e-06
0.0114254
1.92831e-06
2.06769e-06
2.60232e-06
3.93194e-06
3.13109e-06
2.89397e-06
3.14444e-06
2.03168e-06
1.83734e-06
0.00302353
1.87173e-06
0.0129814
1.70486e-06
2.33586e-06
0.00715787
1.68287e-06
3.93809e-06
2.37999e-06
0.0152287
0.00940491
2.10739e-06
3.12794e-06
2.91368e-06
2.11076e-06
2.15708e-06
2.45723e-06
0.0338853
2.51588e-06
2.04521e-06
3.02929e-06
1.7916e-06
3.04986e-06
1.77299e-06
0.0069855
1.73034e-06
1.69163e-06
3.01741e-06
3.61964e-06
2.62458e-06
2.64702e-06
0.00220604
1.97509e-06
1.87129e-06
2.10142e-06
2.79116e-06
0.0174906
2.40994e-05
2.99336e-06
3.67937e-05
0.0827296
1.96339e-06
1.94736e-06
2.09527e-06
1.94734e-06
0.00635946
0.0119539
1.83052e-06
2.39324e-06
2.46624e-06
3.37139e-06
3.30821e-06
0.0128912
2.85625e-06
3.24923e-06
2.08293e-06
0.0186714
2.3038e-06
2.32854e-06
0.000538273
2.82478e-06
1.8283e-06
0.00510618
2.02676e-06
3.13798e-06
3.93543e-06
1.78431e-06
2.40727e-06
1.78451e-06
2.65125e-06
0.00671792
0.112447
2.77887e-06
2.00805e-06
1.90353e-06
2.13621e-06
3.361e-06
1.83536e-06
2.18144e-06
7.2512e-06
2.56863e-06
0.0184576
2.44448e-06
7.50079e-06
1.76235e-06
2.12979e-06
0.00801835
0.121086
2.85952e-06
3.32822e-06
0.0916511
0.0186993
2.35284e-06
2.128e-06
1.73838e-06
2.52921e-06
1.68285e-06
3.04962e-06
0.126221
4.00586e-06
2.55526e-06
0.00338763
3.09419e-06
0.00452492
1.77851e-06
0.00543761
2.20264e-06
2.01187e-06
2.2424e-06
1.98004e-06
3.0311e-06
3.8995e-06
1.8606e-06
1.02732e-05
0.0489373
0.0016447
3.1747e-06
2.11312e-06
2.3772e-06
0.00216136
2.64976e-06
0.00932657
1.10202e-05
2.05816e-06
1.03998e-05
2.16953e-06
3.35047e-06
3.72052e-06
4.10317e-06
4.25853e-06
3.35543e-06
2.05362e-06
2.12393e-06
2.83296e-06
3.99326e-06
1.80155e-06
0.0686409
2.12958e-06
1.82549e-06
0.0124044
1.82308e-06
0.0230353
0.00401196
2.67672e-06
2.77418e-06
2.58525e-06
0.000140636
5.60778e-06
0.00779322
3.67182e-06
4.13658e-06
2.42774e-06
3.95008e-06
1.7773e-06
0.0095585
1.72476e-06
2.31508e-06
1.74509e-06
2.02863e-06
2.40273e-06
4.13979e-06
4.15028e-06
1.72625e-05
2.04639e-06
2.02494e-06
2.19771e-06
7.98901e-06
2.89913e-06
1.66917e-06
2.39478e-06
0.0102109
1.70594e-06
3.25366e-06
0.02073
2.72159e-06
0.0102172
6.75716e-06
2.46752e-06
3.10786e-06
1.82532e-06
3.34825e-05
0.00767239
1.74766e-06
3.04438e-06
4.05887e-06
2.15311e-06
0.00419024
2.16428e-06
0.0205449
1.49623e-05
2.90688e-06
1.70593e-06
2.78419e-06
2.30824e-06
1.95345e-05
1.824e-06
4.22477e-06
0.00922746
2.7489e-06
4.04087e-06
1.67382e-06
4.73324e-06
1.79857e-06
1.80233e-06
0.0464752
1.98236e-06
1.77375e-06
2.37847e-06
0.00138073
2.16144e-06
0.00415491
0.0061579
2.97115e-06
3.02912e-06
4.09195e-06
8.69912e-06
2.73461e-06
2.16361e-06
4.21844e-06
4.0448e-06
1.93426e-06
2.16218e-06
1.85996e-06
0.00105984
0.0557321
4.15631e-06
2.26294e-06
3.24169e-06
0.0074192
2.06037e-06
9.7905e-06
2.05217e-06
3.43486e-06
0.0438788
0.00776822
0.00201558
3.11879e-06
2.4668e-06
2.98235e-06
0.00461144
2.6192e-06
0.00421296
1.70648e-06
0.00903894
1.88922e-06
0.0299076
2.1625e-06
4.42977e-06
2.17597e-06
1.92976e-06
2.40466e-06
2.90122e-06
1.67992e-06
4.10841e-06
5.58319e-06
1.79036e-06
0.00646544
1.69396e-06
2.00045e-06
2.21215e-06
0.0345566
0.0223409
0.00340749
2.62957e-06
0.00968058
0.00426147
2.41304e-06
4.48642e-06
2.52465e-05
0.0606175
0.0180175
0.009552
2.8436e-06
2.83766e-05
3.16054e-06
7.52908e-06
2.55116e-06
3.18699e-06
3.431e-06
0.000340417
2.96204e-06
2.32636e-06
2.19261e-06
2.33585e-06
2.65621e-06
2.99156e-06
4.162e-06
3.72938e-06
1.78401e-06
5.49755e-06
3.32566e-06
0.0878504
4.21351e-06
4.21147e-06
1.76205e-06
2.81973e-06
2.90243e-06
2.01208e-06
2.03627e-06
4.71653e-06
2.40272e-06
3.51287e-06
3.22213e-06
2.36737e-06
5.63828e-05
0.00490901
2.21337e-06
2.11366e-06
2.68616e-06
4.09752e-06
1.84604e-06
2.34426e-06
3.37294e-06
2.56324e-06
2.42518e-06
2.13618e-06
5.82297e-05
2.19194e-06
0.00137637
3.42171e-06
5.09047e-05
3.44505e-06
1.92968e-06
0.0131163
2.55328e-06
1.6876e-06
2.28133e-06
0.0409634
0.00506601
1.90303e-06
2.21221e-06
2.38638e-06
1.91048e-06
2.91364e-06
3.1424e-06
2.57243e-06
1.80906e-06
0.000102377
0.0164599
0.00717829
3.56658e-06
3.224e-06
0.00594916
4.1541e-06
2.37451e-06
8.94705e-06
3.40074e-06
8.61467e-05
3.16906e-06
0.00443596
2.03332e-06
3.67894e-06
4.63699e-06
3.21371e-06
0.015421
0.00502518
1.7162e-06
1.97771e-06
2.02837e-06
2.73503e-06
1.85217e-06
1.71791e-06
0.00958338
0.00732949
2.55371e-06
2.72519e-06
2.4718e-06
0.0187973
3.11782e-06
1.87312e-06
3.35997e-06
2.02528e-06
0.000836222
1.86658e-06
3.17137e-06
2.39969e-06
2.30365e-06
0.00964327
4.00299e-06
1.95472e-06
5.42888e-06
1.9194e-06
9.1661e-06
8.44008e-06
1.94788e-06
1.72834e-06
2.01551e-06
0.00078802
1.70613e-06
2.06403e-06
3.17601e-06
3.11242e-06
4.13397e-06
0.0161265
0.000641626
0.0300518
0.00519506
0.0544901
2.00101e-06
0.00789106
1.74224e-06
0.00409608
2.67997e-06
0.0255296
2.88667e-06
0.000739537
0.0188056
2.01226e-06
2.22819e-06
2.28179e-06
0.0133342
6.87291e-05
6.64842e-06
2.28013e-06
1.91587e-06
1.879e-06
2.34813e-06
0.00496836
2.52726e-06
2.6309e-06
1.7717e-06
1.74145e-06
2.03477e-06
3.63192e-06
0.0321122
2.60897e-06
1.99715e-06
1.66759e-06
0.0909056
2.30155e-06
2.5112e-06
0.00743654
2.1549e-06
4.14465e-06
3.57517e-06
8.49499e-05
7.64614e-06
2.20999e-06
1.79558e-06
2.15933e-06
0.220071
3.00352e-06
2.37555e-06
2.56233e-06
2.05022e-06
0.00789132
2.52296e-06
4.60736e-06
0.00192155
0.013222
2.07535e-06
2.35066e-06
1.89169e-06
1.7444e-06
0.00570405
0.00550931
0.00236349
3.61694e-06
0.00917599
0.141445
3.18744e-06
0.00467683
1.78527e-06
2.20604e-06
0.00441119
4.22138e-06
4.71926e-06
1.63435e-06
0.00688247
3.41126e-06
0.00611425
2.29786e-06
0.00427893
2.01987e-06
3.71404e-05
4.10576e-06
2.87117e-06
3.53496e-06
0.0165445
2.16594e-06
2.18385e-06
1.95298e-06
7.48708e-06
2.3669e-06
2.88989e-06
0.089492
2.31621e-06
0.230195
0.092491
0.000105752
1.80115e-06
1.79755e-06
5.36046e-06
0.00424081
0.000261677
2.47596e-06
0.0586647
4.14949e-06
1.64179e-06
1.67898e-06
0.0228522
1.77775e-06
1.06474e-05
4.98286e-06
8.77962e-05
1.64056e-06
0.0368479
4.15233e-06
3.73989e-06
2.4676e-06
0.0372407
2.40519e-06
2.84949e-06
1.99712e-06
0.155346
1.28279e-05
2.01429e-06
2.49927e-06
2.08405e-06
4.23002e-06
0.00455478
7.97229e-06
0.00588331
2.37709e-06
2.10319e-06
0.00420506
2.4087e-06
0.000212141
1.79825e-06
3.21306e-06
1.84741e-06
2.66733e-06
4.09782e-06
2.92418e-06
3.41105e-06
3.98543e-06
3.43404e-06
2.81654e-06
2.43833e-06
2.11276e-06
3.50055e-06
2.80787e-06
0.0125384
0.000264674
1.83702e-06
2.30077e-06
1.76333e-06
1.83657e-06
5.05299e-06
0.0494777
1.71187e-06
0.023789
0.000131934
2.46387e-05
0.0558641
0.00768671
0.0708614
0.00469683
1.94519e-06
0.0105704
0.00755908
7.10437e-05
2.40004e-06
2.06759e-06
0.000283295
2.69977e-06
0.0093017
0.00684444
4.44071e-06
2.43168e-06
1.15421e-05
1.94647e-06
1.80481e-05
1.98044e-06
3.3435e-06
4.56922e-06
2.51004e-06
1.76879e-06
0.000788994
2.31237e-06
2.52388e-06
2.35421e-06
2.7489e-06
2.35227e-06
2.32163e-06
2.08929e-06
9.78406e-06
1.89023e-06
2.66445e-06
1.73955e-06
1.7055e-06
1.7894e-06
1.80511e-06
3.77491e-06
0.00951354
0.0048127
2.54683e-06
0.00105392
2.34303e-06
2.90867e-06
6.27491e-06
2.27446e-06
0.000144657
4.16112e-05
0.0964483
2.68953e-06
2.31151e-06
0.00552131
2.08578e-06
0.00124625
2.12465e-06
1.7798e-06
2.85752e-06
0.00572863
1.89777e-06
0.15843
0.00429554
2.35754e-06
3.58685e-06
4.16271e-06
6.41515e-06
0.0164933
0.00559013
5.36789e-06
2.08036e-06
2.22289e-06
0.000171465
0.00849951
1.82292e-06
1.95834e-06
1.82524e-06
2.37946e-06
2.4236e-06
3.40208e-06
2.55167e-06
1.65379e-06
4.10392e-06
0.000424269
3.87784e-06
0.00432436
0.0739056
0.000306922
2.32779e-06
0.0127488
0.0173619
3.32653e-06
0.00275838
0.0692786
0.0172172
0.00399407
1.87873e-06
7.32241e-06
2.51942e-06
3.4786e-06
2.20608e-06
3.05816e-06
1.86413e-06
1.77283e-06
0.000110796
1.8503e-06
2.34048e-06
1.66529e-06
2.77518e-05
2.30409e-06
1.94008e-06
2.1976e-06
1.85756e-06
0.00765447
0.00724134
1.86429e-06
1.73372e-06
1.93028e-06
2.13597e-06
0.0206717
2.05102e-06
2.28478e-06
2.35802e-06
0.000257901
2.36868e-06
0.00604456
3.72306e-06
2.4271e-06
2.17494e-06
0.016329
0.00687281
2.52237e-06
4.70794e-06
0.00909157
2.3835e-06
2.13838e-06
2.36606e-06
0.0100046
2.23934e-06
3.07603e-06
0.0736152
0.0132359
2.75008e-06
0.000738947
2.43085e-06
0.0527452
2.15001e-06
0.010365
3.40803e-06
2.18815e-06
2.46608e-06
0.0491947
0.00776268
2.94852e-06
0.000111604
0.233714
1.86249e-06
1.97185e-06
0.00275104
1.93786e-06
6.50583e-06
3.49934e-06
0.0213527
7.7499e-05
3.51805e-06
2.64789e-06
3.10381e-06
3.78354e-06
1.86067e-06
2.23001e-06
2.18213e-06
2.29095e-06
3.30529e-06
1.92069e-06
1.72318e-06
2.60501e-06
2.82845e-06
3.22979e-06
2.24924e-06
7.65125e-06
0.00923717
2.72515e-06
2.3379e-06
2.7396e-06
3.37165e-05
2.38884e-06
0.023172
2.18276e-06
3.82152e-06
1.9545e-06
3.31578e-06
3.29027e-06
2.34973e-06
1.66626e-06
2.06024e-06
2.85427e-06
6.51956e-05
2.17836e-06
9.13978e-06
0.0226409
0.00256625
2.61549e-06
4.57214e-05
0.077202
4.6688e-06
2.27146e-06
2.45582e-06
2.11787e-06
3.1715e-06
2.16432e-06
2.74411e-06
1.93757e-06
2.07532e-05
1.75885e-06
2.03016e-06
2.8174e-06
0.00800143
1.98676e-06
1.83766e-06
2.4706e-06
0.00642832
0.016937
3.05928e-06
1.91686e-06
1.45152e-05
3.60207e-06
0.00183325
0.00507565
2.77783e-06
0.00526546
3.29651e-06
8.74125e-06
2.17036e-06
0.00633163
2.17736e-06
3.06869e-06
2.73065e-06
0.005064
4.44007e-06
5.97037e-06
0.006164
1.94913e-06
2.25032e-06
1.77931e-06
0.00148063
0.0116508
0.00443509
0.00253038
2.18365e-06
6.96073e-06
2.85067e-06
3.40624e-06
0.00016631
2.00655e-06
0.0113944
5.20184e-05
2.11715e-06
2.36257e-06
0.0100537
0.00615193
1.80954e-06
0.0111673
1.92034e-06
2.38751e-06
0.00277113
2.36408e-06
0.00578529
1.75396e-06
1.91728e-06
1.88616e-06
0.00229207
1.76202e-06
3.41069e-06
0.00905297
3.48096e-06
2.06099e-06
1.83274e-06
1.67017e-06
1.6984e-06
0.00528772
1.22497e-05
2.33244e-06
2.22649e-06
0.00756249
2.52277e-06
3.21195e-06
0.00223597
2.00739e-06
1.85686e-06
2.64664e-06
2.41591e-06
0.00416143
2.64933e-06
1.98978e-06
0.000132969
2.17986e-06
0.0110701
0.00619403
4.63917e-05
9.47024e-05
3.02256e-06
1.90145e-06
6.52929e-06
2.87196e-06
0.0812552
0.00508998
1.44353e-05
0.0016933
1.84644e-06
7.62756e-06
0.0122294
1.92556e-06
2.16773e-06
0.0153793
0.0098468
2.3185e-06
1.76758e-06
1.86997e-06
1.79745e-06
0.00407541
2.15226e-06
0.0203406
5.90666e-06
2.2137e-06
2.20278e-06
6.76099e-06
2.2581e-06
1.87476e-06
6.7558e-06
2.88167e-06
2.52667e-06
2.03208e-06
3.10526e-06
2.57631e-06
1.91504e-06
1.95379e-06
1.65926e-06
2.13823e-06
0.00457863
2.08145e-06
0.00439209
1.99485e-06
0.000131824
1.76913e-06
2.32111e-06
0.000781109
0.00345886
2.28728e-06
0.0771464
1.91228e-06
0.011768
2.97607e-05
0.0095293
2.82379e-06
2.50858e-06
3.3678e-06
0.00464763
1.72156e-06
2.34066e-06
1.8793e-06
0.00485902
0.00895289
2.10094e-06
2.50116e-06
0.0366281
0.00509354
1.82214e-05
0.0224869
2.07801e-06
2.77903e-06
0.0209119
2.39652e-06
2.90812e-06
1.40954e-05
3.03845e-06
1.94509e-06
1.93505e-06
1.65514e-06
0.00640927
0.00300224
0.00742203
2.14443e-06
1.10015e-05
2.3099e-06
1.73089e-06
0.0257568
2.23923e-06
1.92613e-06
1.82296e-06
7.5877e-06
2.99887e-05
0.0192397
2.10879e-06
0.00708485
2.34905e-06
0.0334981
1.39147e-05
0.0791638
1.97681e-06
0.00186082
2.08555e-06
2.39495e-06
1.91283e-06
1.88025e-06
1.7749e-06
3.05566e-06
1.99858e-06
1.94206e-06
1.93551e-06
2.01023e-06
0.00660831
0.286065
0.00141649
0.00494147
0.00104083
0.00646468
2.40081e-06
1.80679e-06
2.32164e-06
3.16539e-06
8.59389e-06
2.52165e-06
1.85287e-06
2.29409e-06
2.48832e-06
2.22833e-06
0.0204883
2.11664e-06
7.70822e-06
0.00672739
2.89074e-06
1.9675e-06
3.56876e-06
6.89228e-06
0.00462298
2.16232e-06
0.00550907
2.36388e-06
2.77408e-06
1.80455e-06
0.0320157
1.85207e-06
0.00536447
0.0014499
0.00491463
0.000801133
3.43373e-06
5.45368e-06
0.00490035
0.00731464
6.51555e-06
1.66629e-06
3.95465e-06
0.067804
3.36532e-06
2.08852e-06
4.7438e-06
2.25157e-06
0.0293897
1.97891e-06
2.09082e-06
1.99866e-06
0.00567291
0.0154527
2.12285e-06
0.000104469
3.2534e-06
2.08149e-06
0.26611
2.38274e-06
1.9154e-06
2.36329e-06
1.93922e-06
4.59907e-06
3.1911e-06
5.25361e-06
0.00442171
2.2691e-06
0.0455755
1.9741e-06
2.52302e-06
1.91252e-06
1.91959e-06
0.0146339
2.00644e-06
2.32768e-06
0.00546195
1.94111e-06
2.23318e-06
2.75338e-06
3.22999e-06
1.91918e-06
0.0134916
1.96918e-06
2.03287e-06
2.49372e-06
0.0793552
2.91552e-06
0.0164856
2.15053e-06
0.00138079
2.11057e-06
0.0219805
2.15056e-06
7.0855e-06
2.27993e-06
1.82177e-06
2.62456e-06
2.73201e-06
2.8348e-06
2.02011e-06
0.00594455
3.0028e-06
2.39252e-06
1.90821e-06
0.00854077
2.93172e-06
0.00374571
4.47779e-06
0.00858097
9.02783e-05
0.00843163
2.3911e-06
1.90999e-06
2.69056e-06
1.96801e-06
0.0085266
0.0147949
0.0205047
9.39245e-05
2.75051e-06
1.99388e-06
3.81061e-05
2.17741e-06
1.91352e-06
1.81406e-06
2.65747e-06
2.47458e-06
2.20888e-06
2.35406e-06
1.84845e-06
4.17912e-06
0.000465021
0.0077573
1.90181e-06
2.76001e-06
1.96779e-06
0.0255428
0.0115902
2.60667e-06
2.15996e-06
2.16633e-06
2.12435e-06
0.00549237
2.34718e-06
1.94242e-06
0.00515041
1.6725e-06
4.9103e-06
0.0643668
2.70775e-06
1.71142e-06
1.87881e-06
2.12564e-06
1.96522e-06
2.8982e-06
2.31169e-06
0.00942174
0.00430138
1.7901e-06
0.151953
3.53491e-06
0.012767
2.60377e-06
1.91783e-06
3.47769e-06
2.6909e-06
0.000448237
0.00431877
1.4591e-05
3.02818e-06
1.8914e-06
2.16549e-06
2.08873e-06
1.89217e-06
2.72803e-06
0.0319673
0.00518103
0.00480102
3.49189e-06
0.00464789
2.39308e-06
0.00481795
0.00256989
3.28419e-06
0.0213266
0.00209546
2.27348e-06
2.46489e-06
1.70234e-06
1.7902e-06
2.49581e-06
2.05951e-06
1.97134e-06
3.62674e-06
0.0107772
2.03754e-06
1.63398e-06
2.402e-06
1.71724e-06
1.91353e-06
1.93075e-06
2.44875e-06
0.00251582
1.69798e-06
0.00670813
0.00535161
3.28227e-06
6.95226e-05
2.25969e-06
1.81191e-06
1.83503e-06
0.00626671
2.12018e-06
1.96079e-06
0.00888416
2.22056e-06
1.97169e-06
3.51389e-06
2.38273e-06
2.12085e-06
1.97769e-06
2.30251e-06
2.1076e-06
3.78516e-06
2.06918e-06
2.60021e-06
1.75542e-06
3.39933e-06
2.37785e-06
0.0440017
2.4425e-06
1.97755e-06
0.00583785
3.03357e-06
2.2723e-06
1.72767e-06
2.0672e-06
2.6178e-06
3.18757e-06
5.21373e-06
1.72493e-06
2.02449e-06
2.10841e-06
2.19184e-06
0.00748764
3.59253e-06
1.97609e-06
4.69484e-06
3.73613e-06
0.00317281
0.0568804
1.73892e-06
1.60807e-05
2.57844e-06
0.0512883
0.000371272
1.80917e-06
0.0365851
2.29831e-06
2.59983e-06
2.01297e-06
1.99059e-06
2.36247e-06
2.67416e-06
0.309907