/*--------------------------------*- C++ -*----------------------------------*\
| =========                 |                                                 |
| \\      /  F ield         | OpenFOAM: The Open Source CFD Toolbox           |
|  \\    /   O peration     | Version:  v2012                                 |
|   \\  /    A nd           | Website:  www.openfoam.com                      |
|    \\/     M anipulation  |                                                 |
\*---------------------------------------------------------------------------*/
FoamFile
{
    version     2.0;
    format      ascii;
    class       volScalarField;
    location    "300";
    object      ddt0(k);
}
// * * * * * * * * * * * * * * * * * * * * * * * * * * * * * * * * * * * * * //

dimensions      [0 2 -3 0 0 0 0];


internalField   nonuniform List<scalar> 
13308
(
-5.43235e-06
1.03029e-06
5.09991e-05
2.5033e-07
-7.01992e-08
-5.45181e-07
-4.73892e-08
1.16878e-08
2.59114e-07
-7.85011e-08
-4.05301e-06
-0.00052377
-1.44991e-05
1.51939e-07
4.7727e-08
-2.34911e-08
2.4775e-08
-8.16516e-08
-4.20906e-06
-2.00907e-07
-1.37712e-07
3.35418e-08
4.03685e-08
-0.000674215
1.87944e-07
-1.05664e-07
-0.000935755
-3.31159e-09
-0.000321752
2.22441e-08
-0.000114321
-0.000348342
-0.000128982
-0.000329589
-5.83307e-06
1.36183e-07
3.63269e-08
1.24724e-07
1.96153e-08
-6.77569e-08
-1.25698e-06
-3.37197e-07
1.74145e-05
-1.12781e-06
-9.13148e-06
-2.47056e-05
1.31958e-07
-9.82325e-08
-2.95496e-07
8.19052e-11
-3.42854e-05
4.15344e-07
3.00645e-08
0.000747649
-1.60258e-07
-3.88008e-07
3.6649e-07
-6.34245e-08
-6.14892e-08
2.26519e-06
-5.03584e-08
-8.25326e-08
2.90132e-07
-1.75376e-07
-2.62119e-07
3.54696e-08
1.04999e-06
3.40736e-05
-0.000348145
-1.00869e-07
-8.119e-11
3.18366e-07
-3.30697e-07
1.2985e-07
2.95439e-08
-2.35112e-09
0.000562291
-3.58898e-07
-1.85726e-05
2.56381e-07
-7.46375e-09
-5.76213e-07
1.53275e-07
-8.32238e-08
-0.000267463
3.66736e-07
3.71675e-09
6.25854e-08
1.07914e-06
-1.72723e-07
-4.09585e-08
-0.000214643
-9.64435e-07
3.17808e-06
-2.52156e-07
2.77124e-06
3.85227e-08
-1.42773e-07
-1.23163e-06
-4.51356e-06
1.20116e-05
-1.53325e-07
-1.43684e-07
-1.53566e-07
-2.57414e-07
7.87071e-11
-2.38578e-06
4.05711e-07
1.5122e-07
-8.64997e-05
1.17545e-06
-0.00016805
-5.0178e-08
-0.00117779
9.52746e-06
-0.000159026
2.65502e-06
8.31829e-07
1.6229e-07
1.04306e-06
-8.54432e-09
-1.71412e-07
-4.95926e-07
2.36362e-07
-8.6214e-06
5.34251e-08
-0.000527702
3.1091e-08
-1.65485e-09
-5.95331e-05
-1.23609e-05
5.21361e-07
-4.80138e-09
-1.36987e-06
-4.53599e-07
-3.59676e-08
1.81824e-07
-4.08244e-08
2.19067e-05
4.83471e-08
7.51322e-05
0.000626192
-0.000923279
-4.97694e-07
-0.000619957
2.97867e-06
-5.86386e-07
-1.04118e-07
-1.52284e-07
0.000288141
0.000235437
1.59837e-07
3.79134e-07
1.17119e-07
1.57149e-08
2.78874e-07
3.94816e-09
-5.52517e-07
5.02433e-07
-0.000683379
-2.34041e-06
-0.000363022
8.4916e-07
2.4632e-07
-4.97532e-08
-1.85577e-06
-5.68776e-07
1.58428e-05
1.75641e-05
1.1871e-05
4.28887e-06
-1.01414e-07
0.000583736
2.60524e-05
8.87837e-08
9.37015e-11
1.0724e-07
2.00358e-07
7.21896e-08
-1.26199e-08
3.3584e-06
3.91016e-07
-2.30579e-08
-6.4195e-05
-2.17021e-07
3.2605e-07
-4.30866e-07
-6.16508e-08
4.91496e-08
-7.11647e-07
5.78143e-07
3.36651e-07
4.22748e-06
-0.000291771
-1.57845e-05
3.55499e-07
-1.67757e-06
-9.91166e-08
-4.92764e-09
1.55688e-06
-0.000360528
-1.06244e-06
4.17451e-06
-2.57376e-09
9.57409e-08
-1.77679e-05
1.62976e-07
2.74831e-07
-9.15781e-08
3.0807e-07
-8.488e-06
-6.62579e-05
-5.61334e-11
-3.70786e-05
4.08734e-06
3.07615e-06
-2.57356e-07
-1.70343e-05
-6.10877e-08
-2.97873e-07
1.8672e-07
7.57441e-09
1.04573e-07
3.5065e-06
-6.91488e-08
3.6579e-05
2.69291e-07
5.20742e-10
-0.000348722
-2.37331e-06
2.62743e-07
-6.41749e-10
1.32646e-07
-1.07745e-07
1.19918e-06
2.06529e-07
-2.03506e-07
4.17423e-08
-8.80019e-08
-1.0429e-07
2.52442e-07
-1.53138e-07
-1.82128e-07
-4.8569e-06
-1.57024e-06
-9.39788e-07
-0.000176395
1.45235e-07
-4.7293e-07
5.40686e-07
-3.47074e-06
-4.13852e-08
6.27846e-06
1.33641e-10
-1.9271e-10
1.58906e-06
1.62332e-08
-8.27306e-08
-2.28704e-08
5.4174e-07
-1.32195e-06
-2.83826e-07
8.01231e-08
1.13902e-07
-0.000434974
1.56864e-07
-4.09578e-05
4.88179e-06
-0.000498958
4.80233e-06
3.69882e-08
-4.83293e-06
7.76621e-08
6.1483e-07
3.14022e-06
5.67542e-06
3.25888e-08
1.6962e-06
8.89239e-07
9.34101e-07
6.41692e-08
-1.23927e-07
7.62722e-06
1.05916e-05
5.33818e-06
8.87486e-09
-1.15617e-07
3.17545e-06
7.11427e-09
6.77973e-07
-1.58396e-05
0.00109511
1.51271e-05
0.00126331
1.60518e-06
2.9291e-08
1.27383e-07
9.53114e-08
-0.000378391
-4.12905e-08
0.00076419
9.65789e-07
-6.97779e-07
1.8275e-08
2.86194e-06
-1.34467e-07
2.86632e-06
7.18209e-07
1.68541e-07
-2.62297e-08
1.24309e-06
6.54516e-08
0.000288537
6.34983e-08
-7.89291e-06
0.000506014
-8.60065e-06
9.12616e-07
-5.24196e-06
-1.15329e-06
4.36918e-08
-2.05972e-06
5.07708e-07
-2.46677e-07
1.72901e-07
4.57559e-07
-3.93825e-08
-5.59564e-08
-2.58619e-07
-6.41704e-08
3.17247e-07
8.49102e-07
4.86629e-07
-6.86773e-07
-8.72277e-07
0.000661423
-3.15832e-06
-1.65964e-07
-1.34462e-08
5.82896e-07
0.000364471
-4.26143e-08
2.41041e-07
-2.12007e-07
1.24566e-07
-1.85211e-08
3.16081e-07
1.88634e-07
1.90134e-07
7.714e-06
1.53893e-07
4.19296e-08
-4.45548e-07
2.95067e-07
4.29086e-06
1.55071e-08
-1.07375e-06
-2.46499e-05
4.92903e-06
6.22565e-08
-1.91573e-06
7.57902e-07
-0.000188681
-3.52364e-08
1.78243e-05
-9.78461e-08
-1.14863e-06
2.67013e-05
-1.50683e-08
-9.28575e-07
3.86455e-06
0.000135003
5.17027e-06
-1.10027e-05
1.16494e-06
1.78185e-07
-2.68616e-05
3.23525e-07
-1.40179e-09
2.48288e-07
1.29601e-07
-2.22645e-06
3.19893e-08
1.54849e-06
-1.18541e-06
-6.78579e-08
5.7616e-07
-4.05961e-06
7.65543e-08
0.0002839
1.77744e-05
5.78152e-07
-2.44428e-07
-0.000267518
-1.0645e-07
4.16172e-07
-7.02397e-08
1.93807e-07
3.21951e-05
0.000954118
8.51856e-07
-6.88811e-07
-1.27262e-07
3.14361e-06
8.2132e-07
2.93708e-08
2.20448e-07
4.42252e-09
1.19366e-05
1.98816e-06
-1.26412e-06
0.000601595
-6.22305e-06
1.31038e-07
-0.000108312
-7.92256e-08
4.77708e-06
-1.15483e-07
8.74623e-09
-7.5255e-08
5.05025e-07
-1.56707e-07
-4.24249e-06
-7.64835e-07
-0.00192343
1.75786e-06
9.617e-07
-0.000122336
4.33848e-05
-0.000111858
8.11515e-08
-0.000317357
-0.000577546
3.15746e-06
-1.58494e-07
1.12336e-06
-3.79805e-07
8.70879e-08
-8.0351e-09
4.20457e-07
-1.06615e-09
-6.89048e-08
6.36085e-08
-9.07176e-08
1.19665e-08
0.000104177
6.05858e-06
-1.45827e-09
5.68457e-07
5.31052e-06
2.61915e-06
4.97128e-08
1.73844e-07
6.63482e-07
-3.53028e-06
-0.000164847
7.03289e-08
-6.20794e-09
-9.77701e-06
1.10178e-05
2.61126e-09
1.62139e-06
5.01863e-07
1.9287e-10
4.38402e-07
1.1099e-06
2.18277e-07
-0.000755473
7.40271e-07
-1.48372e-08
-5.75366e-07
-2.19727e-07
-1.3053e-06
4.95517e-06
2.47649e-09
1.33937e-08
-1.72303e-06
-5.6149e-09
5.6039e-06
-1.03074e-10
-4.97675e-06
1.4454e-09
4.001e-06
-1.59397e-06
1.14302e-07
-0.000244698
2.12058e-07
0.00055714
2.40791e-08
1.56523e-06
1.2244e-08
-0.00123445
1.96362e-07
-2.15662e-07
4.94894e-08
-5.2919e-06
-1.30353e-05
-7.38279e-08
2.19374e-07
3.26828e-07
-2.4302e-07
-0.000298861
6.35576e-06
-3.62553e-05
-4.1282e-08
-2.15497e-05
-1.13814e-07
1.30312e-05
6.53052e-07
-0.0011526
-8.63936e-08
-0.000738042
-8.12403e-05
-2.03288e-07
-6.32605e-08
0.000115121
-2.24317e-06
-3.27773e-08
-1.02827e-05
1.19095e-08
3.60341e-06
0.000677536
-2.82426e-08
-6.36505e-06
7.1057e-06
0.000271354
1.23497e-05
3.69184e-06
-0.00035379
-6.82247e-07
-1.54996e-08
-2.91315e-08
2.18653e-05
1.10256e-06
1.61053e-06
-3.12484e-07
-2.29697e-06
1.2022e-06
-3.02942e-05
-1.2011e-08
-1.57336e-05
-0.000347291
-0.000299801
-2.55426e-07
-1.63331e-08
-3.75707e-07
6.83272e-09
-0.000335848
6.91351e-05
2.06205e-06
-7.76692e-09
2.55783e-08
-2.09823e-05
-8.47222e-09
-4.27939e-06
5.61081e-08
5.58635e-06
9.49296e-09
1.08958e-06
4.78216e-09
-1.80935e-07
1.44368e-08
-1.0231e-05
-8.98905e-08
-9.90307e-08
-7.42949e-07
1.37694e-05
-4.20545e-06
-2.21396e-10
-1.47114e-09
-9.90958e-05
7.57336e-09
-5.94091e-08
-7.25346e-05
2.18399e-09
-0.000189002
-1.63699e-07
-1.642e-09
3.56136e-06
-2.57514e-08
2.05282e-06
-9.45692e-07
-5.02756e-06
-7.44019e-08
-7.81983e-06
-7.02361e-08
2.89706e-07
1.1907e-07
-2.19809e-06
5.21867e-06
-3.26497e-09
-1.41528e-07
3.32761e-08
5.04037e-06
1.18926e-07
8.74683e-07
2.68098e-07
6.59675e-06
-1.80941e-07
-0.000827262
5.889e-05
1.85827e-09
-5.20297e-09
1.78224e-07
2.92471e-07
3.60306e-07
0.000120574
-1.66203e-06
3.38628e-06
4.19025e-07
-4.70962e-09
9.98854e-09
-6.14266e-08
0.00020992
-5.38967e-07
-0.00027684
3.9842e-07
2.84611e-08
0.000257909
1.53471e-06
2.83351e-05
4.78969e-07
6.95077e-06
0.000213757
4.28807e-05
-1.58786e-09
-0.000901362
2.42953e-06
3.51915e-06
8.79197e-07
-0.000775953
4.30659e-08
6.11841e-09
-1.24722e-08
5.12174e-06
-6.741e-08
7.72628e-08
2.65908e-07
4.82149e-06
-2.45469e-05
-0.00076292
-0.00188936
-1.65164e-05
6.33238e-09
-4.80927e-08
-3.73981e-08
-6.35238e-08
-1.43981e-08
5.48407e-09
-1.98376e-07
4.60024e-06
-9.14921e-08
0.000390885
2.53401e-08
0.000114837
1.37429e-06
-1.28906e-07
-1.88862e-07
-7.47479e-08
-2.15203e-06
3.15394e-08
1.43454e-08
-1.16575e-08
-0.000609545
8.27383e-06
3.86293e-09
2.75431e-06
1.83387e-07
-3.39589e-07
-3.01862e-08
-0.000132106
3.57232e-06
3.42849e-06
-2.13946e-07
7.09743e-08
6.46721e-07
-4.86643e-07
-2.74424e-08
1.80357e-07
-4.60106e-06
0.000104053
9.12427e-06
-0.000601946
1.68882e-09
-3.86318e-07
0.00177457
7.72852e-09
-3.01303e-06
9.2096e-08
-1.3408e-07
8.96419e-08
2.94778e-07
0.000849662
-1.7647e-09
3.90549e-08
1.6121e-06
2.91244e-05
4.2285e-08
-5.23969e-08
1.05376e-07
-1.32962e-08
6.35571e-07
0.000608149
6.578e-07
-4.711e-08
-0.000807698
-1.20166e-06
1.70557e-06
2.61713e-08
-9.08776e-05
1.32397e-06
0.000184085
-1.82079e-06
1.15346e-08
-4.71662e-08
4.06308e-07
-2.89782e-09
-1.12304e-06
4.22826e-07
4.89815e-06
-7.48169e-08
1.82422e-06
-4.37199e-05
6.41894e-08
1.50276e-08
5.03776e-06
1.65887e-05
2.06115e-08
-4.85988e-06
-3.75276e-09
-2.53492e-08
-0.000815479
-5.33703e-11
8.5819e-10
1.64949e-07
0.000517307
4.80243e-06
0.000382481
-2.19149e-07
2.94937e-06
3.31612e-06
-6.77233e-08
2.36576e-06
4.66525e-06
-9.73296e-08
-7.04577e-09
-1.07485e-07
8.81992e-07
2.84297e-06
1.54723e-08
7.23466e-06
-1.564e-07
-1.35089e-05
-8.73112e-08
2.19413e-06
-2.66153e-05
4.45518e-09
-0.000110131
4.99629e-07
5.26699e-09
9.54246e-08
5.10991e-06
-1.25931e-07
7.46623e-09
-5.16933e-08
-2.58216e-07
7.21141e-07
3.44714e-08
-0.000410966
6.71819e-07
-1.86321e-06
-1.38485e-08
1.08795e-06
-1.29958e-06
0.00223303
1.57584e-06
0.000474119
-7.8806e-05
-5.43807e-11
0.000761699
2.86799e-08
1.34683e-07
-1.46155e-07
-2.43576e-07
3.53214e-09
-8.16523e-08
0.000172014
-0.000904829
0.000262487
8.70591e-07
-1.76859e-08
-2.20312e-08
-1.58444e-07
8.16099e-07
1.936e-05
-6.80316e-08
-3.79892e-07
-2.33506e-06
-0.000667646
-1.60872e-10
-2.33869e-08
-7.09822e-08
-3.82819e-08
-6.54628e-08
-4.60289e-07
4.50465e-06
7.77199e-09
2.60168e-07
-1.56229e-08
0.000162174
4.0429e-07
0.000119121
1.43265e-07
2.77864e-05
2.54252e-06
-1.77967e-07
-1.12388e-06
1.47689e-07
-1.39326e-08
-1.04222e-07
-1.35845e-07
4.42244e-06
-3.87022e-06
-0.000332976
-1.02563e-05
-2.02096e-08
2.17614e-08
4.57952e-07
-2.21384e-07
5.38885e-06
-3.4811e-07
0.000332242
-3.48065e-06
3.20035e-06
2.3373e-06
-3.40693e-07
-4.29499e-08
-1.67071e-07
-1.38697e-07
6.22116e-07
5.05593e-07
5.9129e-07
-0.000439669
3.3804e-07
-1.60818e-09
9.24741e-08
-1.33447e-07
7.62423e-07
7.71983e-08
-1.61965e-06
-8.60874e-07
-0.000558235
-0.000326137
-3.27025e-07
-9.40783e-08
-9.44604e-08
3.64672e-09
2.15455e-08
1.1431e-06
-4.46186e-08
-5.62802e-08
-2.22865e-08
3.83136e-09
-3.75962e-08
-1.03056e-05
-7.56079e-06
-3.06538e-06
-8.35129e-06
-3.68816e-08
-2.17115e-07
3.53434e-09
-1.45523e-06
-8.42366e-05
1.63367e-07
6.91202e-10
-5.11094e-07
3.27459e-07
1.6878e-05
-2.15735e-08
-1.33264e-07
-0.000472628
-1.05688e-06
1.32421e-08
2.53335e-07
1.73742e-07
-8.35523e-08
3.15572e-05
2.12046e-07
-0.000920815
-0.000117959
-7.84974e-06
2.43723e-06
3.87333e-07
-0.000956486
3.00337e-08
-1.33274e-05
-6.72746e-05
1.1487e-08
8.02053e-07
1.31961e-07
1.06699e-07
6.73804e-06
-0.000823009
-2.28952e-07
-7.32104e-11
4.62203e-08
1.87635e-06
3.20173e-06
-9.23002e-05
-7.53543e-08
-0.000267078
-1.52531e-07
-4.41584e-07
-0.000777306
7.69123e-08
1.24054e-07
2.02127e-05
2.06765e-08
-6.97102e-08
4.63821e-09
0.000429001
-8.97941e-09
-0.000546485
9.72162e-05
-8.20847e-07
3.59896e-06
-9.846e-06
-3.26625e-07
-1.74012e-06
-1.24368e-08
-1.22957e-07
-7.34214e-06
5.85484e-09
-2.47734e-05
6.52842e-09
-3.06785e-07
-2.06353e-08
-0.000142842
-3.72865e-06
4.93078e-06
-1.4839e-05
-1.49936e-07
-0.000234495
-1.12328e-06
0.00131703
-9.2733e-09
-0.000934968
-7.18764e-07
-1.82431e-08
7.83844e-08
-4.68046e-05
2.60447e-06
-5.03114e-08
4.91513e-09
-8.35419e-08
5.62435e-05
-2.23097e-07
-9.16706e-07
5.07668e-07
-8.3098e-08
6.15292e-11
2.08615e-07
-5.67275e-08
-2.85861e-06
6.75159e-08
-4.54432e-08
7.91892e-11
-1.77927e-07
-2.4722e-08
7.18804e-07
2.40263e-09
5.60416e-07
-1.90205e-07
1.95956e-07
-1.55657e-08
-0.00108115
-6.56367e-08
-2.5193e-07
2.68306e-08
-0.000247668
-1.49645e-06
0.000156886
-3.17363e-07
6.26187e-07
1.81736e-06
-9.85138e-08
0.000168821
-1.47747e-07
-4.68609e-07
3.034e-05
-5.85391e-06
1.70083e-06
-9.27098e-06
-0.000176661
5.66701e-09
5.21829e-07
-9.7235e-08
-2.33721e-07
-2.69774e-06
-2.38897e-08
7.80541e-09
-1.5313e-08
-5.52082e-07
2.28381e-07
8.97922e-08
-6.8599e-06
4.32199e-05
-0.000271923
9.1062e-07
0.000824133
1.75593e-06
-1.47619e-06
2.68393e-06
2.41111e-07
-6.15828e-11
-0.000377263
-3.8777e-10
1.45069e-07
-6.31923e-05
8.92397e-07
-1.43274e-07
4.58737e-05
-7.88486e-08
-2.23349e-06
1.28176e-07
3.20484e-07
-4.05593e-07
0.00186233
-5.05347e-06
2.9703e-07
-9.02115e-06
-9.76788e-06
-0.000566646
9.21024e-08
2.9795e-05
5.96366e-10
-3.6474e-05
-4.80204e-08
4.67723e-07
-1.45781e-06
8.01028e-06
-7.32924e-08
1.75616e-07
1.71093e-06
7.5033e-06
-5.45322e-06
1.35948e-06
7.78238e-06
7.22258e-08
-6.1448e-10
-3.12003e-10
-5.05608e-08
4.46373e-07
-5.37196e-06
1.26648e-07
2.89161e-08
-1.06965e-07
5.35002e-07
4.46427e-09
2.46446e-07
2.06309e-05
2.64124e-07
-0.00078119
-4.0891e-08
-7.47865e-08
2.42112e-06
-4.87416e-08
0.000572081
5.71788e-09
5.63839e-07
-1.26089e-07
-1.44891e-07
1.14052e-06
-9.54816e-08
-2.02118e-06
1.24974e-06
-2.52886e-08
-1.61204e-07
8.85899e-07
-4.00187e-08
2.11281e-05
8.28242e-07
2.99486e-06
5.92061e-08
4.64843e-07
1.55052e-06
2.41924e-09
1.9723e-07
-9.97992e-07
-2.90908e-07
1.79353e-05
-5.50083e-06
9.61717e-07
-2.14611e-07
-4.05667e-06
-3.48126e-08
3.77505e-07
-1.16159e-06
-1.9768e-07
-8.30881e-08
1.11632e-06
5.70844e-07
-9.80119e-08
-9.8972e-07
4.5039e-08
9.5174e-07
-0.000121085
4.86489e-06
-9.32971e-08
3.3147e-08
-8.65182e-09
-1.18808e-07
4.76208e-05
-6.157e-08
-6.1094e-08
-3.58195e-07
1.34147e-07
8.33649e-06
2.70358e-07
-8.65812e-08
9.60529e-06
-9.8877e-08
8.63193e-05
-2.34732e-07
5.79187e-09
8.09761e-08
-0.000822198
1.00171e-07
-3.52701e-06
-4.74636e-08
4.87233e-06
-1.34816e-06
-1.48921e-06
6.01535e-07
-2.86138e-06
-3.5952e-08
-3.63924e-08
4.77493e-07
-1.53967e-09
-8.62393e-08
-1.25322e-07
3.94421e-05
-5.98328e-06
-1.8168e-06
2.05646e-07
-0.000317261
1.81717e-08
5.97748e-09
-7.06536e-08
1.18356e-07
-2.16862e-08
-5.64186e-08
1.36088e-08
1.99637e-07
-1.11479e-07
-2.79843e-06
-2.06138e-08
1.66564e-07
0.000722485
2.98733e-07
-0.000796173
9.75077e-06
-9.36703e-06
0.00123604
-1.44142e-10
-4.70182e-08
-5.78833e-08
2.08126e-07
3.97586e-08
-1.84646e-06
1.01007e-05
2.77197e-08
-2.04469e-06
1.93393e-07
2.41132e-07
-0.000144926
1.93805e-06
1.68697e-07
8.54895e-06
-1.35734e-07
-5.6759e-07
-0.000159893
3.23058e-07
1.22756e-10
2.52281e-07
1.1356e-07
-6.70046e-08
1.88171e-08
-9.53883e-10
4.18966e-05
-0.000712459
-1.63484e-07
-1.85729e-07
-1.64905e-07
-3.53396e-08
-6.59477e-08
-2.68946e-06
-4.86867e-07
0.000453042
-1.73432e-07
-4.27553e-06
-3.1457e-06
-3.69611e-08
-6.73504e-07
9.76866e-08
3.53657e-09
-0.000134262
7.66462e-06
-8.00416e-07
1.83509e-06
-5.51152e-06
-0.000609672
-9.89004e-08
-7.07142e-07
-2.18259e-07
-3.56057e-05
6.46978e-09
5.12586e-07
5.34443e-06
3.42501e-07
0.00154277
1.13338e-08
-4.08018e-06
3.39937e-09
1.4853e-08
8.2585e-06
1.12386e-08
-0.000204243
1.72733e-07
2.36118e-08
6.30589e-06
-6.48653e-06
2.54147e-08
7.61794e-06
-2.98135e-08
-4.0773e-08
-7.86748e-08
-6.072e-07
2.61368e-06
-1.57125e-06
0.000544312
1.71313e-06
-1.08677e-07
-0.000402719
1.1407e-08
-7.03442e-08
4.22815e-06
1.75607e-05
2.34221e-07
-2.09519e-07
0.000139837
9.67221e-07
-8.93216e-08
-2.09185e-08
-2.07045e-06
4.97848e-07
-2.40221e-07
-0.000123831
-9.00258e-10
-1.31126e-09
5.22738e-08
-3.52306e-07
-3.00546e-08
0.000802452
7.01441e-10
2.96292e-07
-5.85574e-08
3.19576e-07
4.00661e-06
5.68371e-09
-0.000611387
5.28373e-06
-1.08712e-07
-2.1441e-06
6.75975e-07
8.19404e-10
-1.48564e-06
2.71395e-08
2.07314e-10
7.45599e-07
-5.83858e-11
-6.87429e-06
6.08415e-06
1.33048e-07
2.3707e-05
-6.56084e-06
2.0699e-06
-6.99614e-05
2.19693e-07
-8.03641e-09
-1.31431e-09
0.000299409
1.31733e-05
3.26444e-07
-1.37486e-08
1.17093e-05
1.50275e-06
2.79883e-08
0.000316595
-0.000540582
-0.000599589
-4.17036e-07
1.98925e-07
3.76994e-11
-4.43446e-08
3.12158e-07
4.81661e-06
-5.2698e-08
1.0435e-06
9.82108e-09
-2.4772e-06
6.83923e-06
4.1014e-06
-0.000574873
1.81204e-06
4.97405e-07
2.4521e-07
-3.39867e-07
1.25961e-07
1.94585e-08
4.06058e-07
1.81415e-07
1.13287e-05
3.77677e-09
-7.54987e-08
4.3749e-06
-3.58652e-07
-2.37249e-06
3.57973e-06
-6.61116e-11
-2.92809e-08
-4.92462e-06
1.75412e-07
6.99953e-09
1.64606e-06
-9.1486e-08
-0.000529357
1.72226e-10
-1.11515e-07
7.37281e-10
8.1017e-08
-7.26272e-08
1.70486e-08
1.56506e-07
4.64948e-08
-8.59691e-09
4.53207e-05
9.86306e-08
-5.93055e-07
-0.00139482
2.26736e-06
-0.00125468
3.98717e-08
4.21756e-06
-6.36221e-06
-0.00102262
3.12899e-08
-9.65712e-11
1.0044e-06
1.4046e-07
2.41467e-07
-0.000279577
-2.08421e-06
6.3994e-09
-1.4673e-07
-0.000636477
-2.11386e-07
-3.34111e-05
-2.26862e-06
-2.95479e-07
-2.89557e-08
1.38661e-07
1.73005e-08
2.92381e-07
2.30254e-06
-3.17471e-07
-1.47073e-06
2.2758e-09
-1.25662e-07
5.17042e-09
7.65868e-09
7.31004e-09
-0.000109694
2.74639e-08
0.000490774
-2.04121e-07
-2.12915e-07
-0.000120784
-0.000259384
0.000202511
-4.17996e-08
-4.53118e-08
-9.29705e-08
1.92609e-05
2.4363e-06
4.66055e-06
4.02095e-06
4.53248e-05
1.64454e-08
-2.30931e-09
-5.12915e-07
1.2951e-08
2.26341e-07
9.69339e-08
-4.19992e-08
8.47478e-06
-5.1654e-06
3.05152e-07
-1.86311e-07
5.44967e-06
-1.96682e-06
-9.43271e-06
-1.79104e-06
1.32305e-07
-0.000531441
6.53219e-06
-4.99367e-07
1.44726e-06
1.22475e-05
8.83714e-07
-1.72323e-08
0.00247515
-4.79726e-07
-3.38272e-07
-2.23205e-07
9.24751e-07
-1.51116e-07
-1.37277e-07
6.3788e-07
-0.000291567
-5.84539e-06
-1.42698e-06
5.04671e-06
-0.000650384
0.000213901
-1.1976e-07
8.83314e-09
-4.64665e-08
-0.000474176
-1.3054e-07
-1.86545e-08
0.00102457
1.84385e-09
-1.52973e-06
4.6627e-08
7.18811e-09
-1.68957e-07
5.98678e-08
-0.000643513
3.38743e-06
-9.26601e-08
1.96399e-07
-3.598e-05
7.15107e-08
-9.10666e-05
-0.000292264
-0.0013666
-1.85752e-06
-1.03362e-07
-6.80016e-08
9.476e-07
0.00147672
1.86449e-07
-1.71333e-06
1.56664e-07
-3.45762e-09
-1.30812e-08
-5.64534e-08
-0.00107435
2.54832e-07
6.72548e-07
1.55707e-07
-9.23471e-08
-1.20078e-07
-0.000553111
-1.16956e-07
2.32157e-08
-1.32287e-07
-2.4054e-08
-0.000471583
-5.88498e-10
-0.000335619
1.9116e-07
-1.28325e-06
-1.10481e-07
-7.86519e-07
-6.44088e-06
-6.60707e-06
7.07944e-08
1.4016e-07
2.36402e-08
-8.99708e-08
-3.05641e-06
-1.4153e-06
1.87888e-08
5.96015e-09
2.67098e-08
1.93576e-07
1.48092e-07
-9.12926e-10
9.22274e-05
-1.36865e-06
-4.92139e-07
-1.29775e-07
8.97495e-08
0.00351487
1.20525e-07
0.000209909
0.000333824
3.47522e-08
-1.53359e-08
4.92889e-09
2.6476e-07
-0.00031408
-4.41295e-08
-3.31634e-05
2.18045e-07
-4.23325e-07
2.87311e-07
-4.92479e-08
-1.75651e-07
-1.4189e-06
4.33786e-06
-0.0002862
-9.15988e-07
-6.10595e-08
-0.000196336
8.43423e-09
-7.06708e-11
3.29123e-07
5.34966e-07
1.32184e-06
2.62246e-06
-1.89906e-08
-5.78288e-07
-9.70594e-08
2.03373e-07
-0.000337785
-3.91945e-08
7.52689e-08
-3.50561e-08
-1.8344e-07
-5.79873e-05
-3.64703e-08
3.66495e-07
4.12608e-08
-1.07718e-06
-2.4107e-08
2.62229e-08
3.34225e-07
1.38642e-06
-8.2759e-07
2.4472e-07
-6.99503e-09
3.44663e-05
-1.19339e-07
-8.70703e-08
-1.1453e-05
-6.55748e-06
-4.5346e-08
-7.1803e-08
5.7387e-08
-1.30232e-06
-0.00141983
-2.60208e-06
-2.97697e-07
-4.80956e-07
3.29934e-06
3.70188e-06
-6.55269e-08
6.82054e-07
4.66175e-07
3.48683e-07
-2.65895e-07
2.66422e-09
1.54539e-05
4.65911e-09
-0.000546201
9.09511e-08
7.31366e-08
4.20111e-07
-0.000122468
-3.69285e-08
2.78505e-07
9.47508e-08
-6.79163e-07
1.06167e-09
-6.71544e-08
-6.83731e-08
-2.24179e-07
-2.89282e-09
-5.19625e-09
-1.37165e-07
-1.78136e-06
1.12559e-05
-5.90325e-07
2.62465e-07
-3.5007e-06
-0.000457843
-8.53086e-08
4.32228e-07
-1.00289e-07
-4.85494e-09
-3.89766e-05
-0.00091522
5.29163e-06
1.27935e-07
-1.4188e-07
1.40022e-07
-2.82752e-06
-0.00139739
-0.00162565
9.85498e-07
-2.48612e-06
4.33981e-07
1.71252e-05
9.23453e-07
4.90816e-06
8.00586e-07
-8.19889e-08
8.61517e-06
-1.53716e-07
1.31504e-05
-1.21361e-07
-6.1429e-07
1.56029e-07
-2.34692e-06
3.60123e-09
-4.61882e-09
-4.98561e-07
-0.000500081
6.82581e-07
-3.72254e-07
5.38221e-10
-0.000726278
-1.09679e-08
-0.00227092
-1.00748e-07
-4.08321e-08
-6.7341e-08
1.40773e-06
-3.40232e-08
-2.5526e-07
4.94558e-06
2.05562e-08
1.45746e-07
5.72782e-06
-4.2952e-09
-3.4547e-09
1.40132e-06
2.25275e-05
-2.15433e-08
-2.69673e-08
-8.63133e-07
2.17471e-09
3.69674e-08
-1.83368e-08
-0.00111789
-9.38762e-08
-2.33789e-07
-1.54951e-06
-4.08657e-06
-3.65226e-08
1.97796e-08
-3.35364e-06
-0.000500152
3.64514e-08
-4.397e-08
2.18933e-06
7.8633e-06
-8.45727e-08
-3.67611e-07
-6.82519e-07
-6.05551e-05
1.36843e-05
1.25767e-07
-1.65985e-07
-1.15122e-07
-1.41583e-07
5.08246e-06
-2.59827e-08
0.000165633
-4.79587e-06
-5.62122e-07
6.96445e-07
5.13091e-07
4.37444e-07
1.96062e-07
3.1894e-08
1.55288e-08
-0.0011667
2.76958e-07
2.78724e-06
-2.38343e-07
3.93948e-07
1.52712e-06
4.04512e-07
4.67115e-07
4.46424e-06
-4.07807e-08
-1.20478e-07
-4.3854e-06
-2.78186e-06
-1.24954e-08
-1.80358e-08
-0.00100807
-1.7558e-08
-7.9205e-08
6.94096e-07
-9.53884e-08
4.97034e-07
-0.000271434
1.70542e-06
4.59306e-08
5.71713e-06
-6.63965e-06
3.84919e-07
-3.5946e-06
1.34382e-07
1.02368e-08
-1.01174e-05
1.34472e-08
0.000183816
5.52062e-07
7.03321e-08
-6.23638e-07
-0.000262438
-3.75783e-07
3.67412e-06
4.98379e-05
4.8882e-09
1.34111e-05
-1.47966e-06
-1.24779e-06
-0.000131969
-0.000762635
-0.000878238
-1.77598e-07
-2.66083e-11
5.47467e-08
-3.84114e-06
-1.15985e-06
-7.41025e-05
1.36655e-06
2.79993e-06
3.33942e-05
-2.19606e-07
-7.95741e-07
1.78102e-08
-6.87135e-08
7.15823e-07
7.76038e-09
5.31126e-06
-6.70498e-07
-3.02255e-06
5.90316e-08
5.52531e-05
-8.05661e-07
-3.3465e-06
5.5808e-08
1.48106e-06
-7.35171e-08
-1.96948e-05
5.43969e-06
-1.84177e-07
-1.75725e-07
1.09749e-05
-0.000486463
2.74151e-09
-0.000297082
-1.75362e-07
-2.49588e-08
-4.12924e-09
-4.26144e-07
5.78599e-09
-2.38529e-07
-8.09271e-08
6.96008e-08
4.14578e-06
-9.72492e-08
5.79408e-05
9.69163e-08
6.20448e-07
1.90354e-06
-1.90634e-07
-6.02184e-06
-0.000487073
9.41898e-08
-4.35505e-08
-6.02369e-10
-5.83648e-08
1.81997e-06
-6.44798e-07
-0.000231598
-3.43322e-08
-1.01814e-07
-2.35476e-07
-5.44848e-08
-0.000978506
-0.000387764
-3.83879e-07
2.61542e-05
-7.04906e-05
-1.17019e-07
0.0129947
6.13562e-06
2.50602e-07
-4.81603e-05
4.86135e-07
-0.000271066
-7.76112e-06
1.36174e-06
8.14334e-09
-3.51483e-06
0.000368001
0.00213461
-8.13446e-08
2.98284e-07
1.33824e-07
1.90182e-06
3.3303e-07
-0.00017897
1.24877e-06
5.50953e-05
0.000256814
-2.40224e-06
-0.00214145
-1.15408e-07
0.000367041
1.5103e-07
-8.75019e-07
-9.02938e-07
-5.83148e-08
2.30908e-06
0.000263316
-1.09557e-07
6.62074e-08
1.06663e-06
-8.82591e-08
1.58809e-07
2.41635e-07
2.90278e-06
-1.23767e-06
2.75522e-07
3.70584e-07
4.4231e-07
-0.000446217
-5.36495e-08
-0.00119977
-3.61587e-05
3.559e-07
-2.82085e-07
-8.65419e-08
2.50079e-08
0.000304208
3.35001e-08
5.53816e-07
-2.49866e-08
-4.91064e-07
-2.25269e-07
-3.34892e-06
1.82072e-06
-8.36547e-08
-3.78319e-08
-6.16e-07
-1.32016e-07
1.66281e-07
-4.35181e-07
9.38895e-08
3.40002e-07
2.31016e-08
-5.25893e-11
-0.000350397
9.65871e-08
-0.000266473
-2.37563e-06
3.02247e-06
1.62077e-07
-5.99081e-07
2.28121e-06
1.37736e-06
9.9006e-06
4.34807e-06
-1.65034e-07
-1.40311e-07
-4.66685e-06
1.87968e-06
3.11124e-07
1.68543e-07
5.47005e-06
2.99212e-08
-3.53997e-07
-1.40543e-08
-1.51808e-07
3.50737e-09
-3.10111e-07
-6.17458e-06
-7.4374e-08
-7.24669e-06
6.50595e-09
0.000374335
-9.00535e-06
-3.69111e-08
1.23183e-09
-2.62935e-07
-2.11258e-08
-1.68489e-08
-5.5177e-07
-4.50101e-09
-2.99483e-06
1.03921e-07
4.75747e-08
9.20239e-07
-3.58024e-08
1.34984e-09
0.000152218
-1.97561e-06
-2.54686e-05
5.29094e-09
-1.96776e-07
-0.000367395
-3.47587e-08
2.74143e-06
2.35235e-07
1.22179e-06
-1.45924e-07
2.66763e-06
3.50085e-07
-8.77624e-08
-2.64226e-08
4.64534e-06
0.00019512
1.5283e-07
-5.58984e-05
-6.9478e-05
-1.61425e-07
-4.92542e-07
-0.000428417
-2.58891e-06
-1.4125e-07
1.32984e-07
1.62216e-07
-1.59553e-06
-1.41632e-08
1.27584e-07
-2.39507e-06
3.64863e-08
1.32268e-06
1.48663e-07
6.01756e-09
-3.64847e-07
-1.11737e-05
-1.94481e-07
-3.02402e-07
2.64211e-07
-2.24214e-07
2.31485e-08
-2.35627e-08
2.40889e-06
-9.58682e-07
5.85565e-08
8.6186e-06
-6.17059e-06
1.37155e-07
-1.83678e-07
-7.26962e-08
-3.34779e-08
5.52936e-07
-2.00772e-07
-0.000788604
-3.26053e-10
-4.07958e-08
-1.36996e-11
2.80855e-06
-3.37465e-06
-7.23227e-06
-1.98782e-10
-8.79452e-05
-2.97815e-07
1.41212e-06
-2.84156e-08
-1.2895e-06
-9.19659e-06
-0.000346451
-2.24518e-10
3.64499e-07
1.62048e-07
-2.42457e-07
1.0727e-05
-0.000687833
-4.5933e-05
-1.97313e-06
-2.76584e-06
2.3789e-08
-0.000620651
9.29128e-07
-1.24092e-06
6.41678e-06
5.93666e-07
1.796e-09
4.27622e-07
3.13019e-06
-1.61293e-08
-2.63268e-08
2.29811e-08
-1.23705e-08
5.47801e-07
-9.63242e-05
-0.000361647
-1.63672e-07
2.96135e-08
-1.47448e-08
9.93805e-07
7.12437e-08
-2.86538e-09
3.92841e-07
3.89419e-07
2.96467e-08
1.53916e-07
-1.49726e-07
-7.85561e-09
3.95799e-06
2.20597e-07
5.2696e-09
2.55637e-06
-1.03401e-06
-0.0025767
-9.5825e-08
-6.91666e-07
-1.39469e-07
4.5661e-08
1.51381e-05
-1.93362e-07
4.14572e-08
8.82167e-07
-1.57672e-07
-1.42321e-07
-0.00087546
-4.73962e-08
4.9386e-09
2.44668e-07
-2.10903e-06
1.45338e-06
-3.60847e-07
1.64658e-07
1.30386e-07
-2.36248e-10
6.88117e-07
0.00151883
1.86084e-06
6.82407e-06
-3.38524e-06
-9.9257e-08
2.24252e-06
-1.91928e-05
-1.86056e-08
-5.68566e-08
1.25744e-07
-1.25246e-08
-9.08949e-07
5.94958e-07
2.8741e-07
-1.82898e-08
6.30145e-07
-1.86633e-07
-0.000138313
-6.85485e-08
1.04366e-06
9.11379e-07
-0.00152387
-1.21513e-07
3.54279e-09
3.98683e-07
-5.99511e-08
1.0129e-05
7.28015e-08
3.38678e-05
-3.16029e-07
-1.58419e-07
1.0077e-07
-1.21616e-08
7.44264e-05
8.68608e-07
-5.1223e-08
4.6968e-08
-8.9224e-08
4.35235e-07
-3.73354e-08
-2.52619e-08
5.23128e-06
7.93917e-07
-1.53899e-07
-4.71987e-07
-5.06268e-08
-8.90912e-08
-6.40412e-08
9.42534e-06
4.05126e-05
1.28631e-05
0.00035604
-5.09104e-08
2.84508e-07
2.24099e-07
3.87386e-06
-0.000220617
2.60885e-07
-0.000172259
-1.02648e-07
-1.62029e-07
-0.000420977
-0.000177519
2.59727e-07
-1.09608e-07
3.71038e-08
-0.000317123
-7.35744e-08
-1.99197e-07
2.56396e-08
-1.94842e-05
-9.82442e-06
7.18026e-06
-2.83708e-07
2.92722e-06
-1.46816e-07
2.96157e-09
-7.37127e-06
-1.37239e-07
-7.48629e-08
1.10946e-07
-1.80724e-05
1.35901e-06
-0.000251112
1.04194e-06
-1.17511e-07
-4.6001e-05
-0.000747308
5.86586e-07
1.30668e-06
7.50273e-05
-4.61129e-06
1.50236e-05
9.16122e-07
-9.41985e-05
-1.05776e-07
6.85579e-09
4.99229e-07
6.26014e-06
1.2829e-08
-2.59667e-06
-7.95482e-08
-1.58239e-05
3.6992e-07
1.08666e-05
-1.34824e-08
1.23245e-07
-0.000425416
5.13129e-06
-0.00040573
-6.06829e-08
1.61985e-07
-0.000899853
-7.46144e-06
1.88348e-06
1.55963e-06
-4.62623e-09
1.5577e-07
7.75448e-09
2.50751e-07
-2.46532e-07
-3.72239e-06
8.09395e-05
9.90111e-07
-6.95598e-05
-2.73359e-05
-1.54192e-08
3.99493e-08
-5.02617e-08
5.2595e-09
2.20152e-05
1.51951e-05
-5.0534e-08
-8.54618e-08
-7.61184e-09
2.90435e-06
-5.62916e-08
-1.49411e-08
5.7459e-08
-2.19626e-08
9.42276e-07
-1.01112e-09
-0.000164836
-7.70176e-09
-5.092e-08
-0.000899532
-7.02589e-07
-5.40708e-07
1.74645e-06
-0.000200633
0.00046022
0.000820395
-4.70489e-07
-6.2531e-08
-5.88355e-09
-4.83925e-06
-5.37281e-07
-3.28622e-05
3.52681e-07
9.41707e-08
5.65612e-09
3.58792e-09
-2.55377e-08
-1.6992e-06
1.01705e-07
-4.47039e-08
0.000427371
3.2145e-08
5.68527e-08
-1.98582e-07
9.2167e-11
8.44625e-08
-2.57648e-08
0.000277609
1.02527e-09
4.4781e-07
-4.0563e-06
4.64675e-08
-6.52102e-08
-6.20833e-06
-9.65125e-06
1.52177e-07
-1.23994e-05
1.13147e-05
8.75097e-06
-6.88771e-08
1.09112e-07
5.74976e-06
-7.29187e-07
-4.02856e-08
1.37586e-06
-7.39319e-07
-1.10244e-05
7.27494e-06
5.67788e-07
1.33254e-06
1.92468e-06
-7.93788e-05
6.16547e-07
-3.99041e-05
-2.53998e-08
3.71544e-07
5.25394e-07
-2.14629e-07
2.66525e-07
1.01233e-08
-0.000263241
-2.72396e-07
-2.52609e-08
-6.78346e-08
6.493e-08
-0.000105636
-0.000349382
-1.59642e-07
5.77103e-07
-7.0964e-05
-5.74226e-08
3.59446e-06
6.73841e-07
5.28294e-06
0.0002292
-4.6923e-08
8.72699e-07
2.04417e-06
9.09962e-08
4.64996e-08
-5.91931e-06
0.000365349
-9.17854e-08
4.41876e-06
4.67642e-09
-6.88094e-08
6.60428e-05
-5.44807e-08
-1.79832e-06
8.64122e-09
-1.18971e-07
-5.0107e-10
-0.000632122
-0.000669656
4.87978e-08
3.95094e-07
-8.38633e-09
-4.32763e-08
1.36465e-06
5.18417e-09
-2.7393e-06
-0.000316961
-1.33562e-07
2.26839e-05
-5.0499e-08
0.000202241
-0.0007432
-6.88758e-07
-3.44974e-08
-9.76137e-06
6.55822e-09
-5.55428e-08
-1.53785e-07
-6.49497e-09
0.000224429
-7.59882e-08
1.9977e-06
0.000318058
-2.81197e-07
-9.86796e-05
-1.5573e-05
-0.000150304
2.50639e-08
6.83398e-09
9.37421e-07
8.62338e-08
-8.43117e-07
1.11739e-09
1.2541e-07
2.32718e-06
-1.35744e-05
-4.29562e-08
0.000457632
-4.80098e-08
-6.85467e-07
4.22217e-07
3.2259e-08
-1.2646e-05
-2.61499e-06
-0.000450499
-3.8099e-06
3.70905e-08
-4.14841e-08
2.28881e-07
1.45067e-07
-1.15016e-08
-1.17871e-07
-5.06947e-06
-5.10073e-08
6.54531e-06
3.96514e-07
-1.43686e-08
-0.000950267
-9.44153e-07
0.000316318
-4.93223e-08
-1.13626e-05
1.04083e-07
-9.25786e-07