/*--------------------------------*- C++ -*----------------------------------*\
| =========                 |                                                 |
| \\      /  F ield         | OpenFOAM: The Open Source CFD Toolbox           |
|  \\    /   O peration     | Version:  v2012                                 |
|   \\  /    A nd           | Website:  www.openfoam.com                      |
|    \\/     M anipulation  |                                                 |
\*---------------------------------------------------------------------------*/
FoamFile
{
    version     2.0;
    format      ascii;
    class       volScalarField;
    location    "300";
    object      k;
}
// * * * * * * * * * * * * * * * * * * * * * * * * * * * * * * * * * * * * * //

dimensions      [0 2 -2 0 0 0 0];


internalField   nonuniform List<scalar> 
13308
(
0.000187072
0.000171824
0.000203441
0.000149019
0.000149878
0.00016247
0.000152865
0.000187377
0.000150842
0.000147006
0.000175247
0.00581789
0.000201764
0.000152863
0.000151157
0.00014982
0.000149185
0.00014664
0.000184201
0.000166225
0.0001485
0.000145362
0.00014527
0.000342254
0.000197885
0.000148859
0.00551804
0.000145385
0.00436345
0.000145315
5.00149e-05
0.000475148
0.000202866
0.00531566
0.000185427
0.000149231
0.000145241
0.000148527
0.000149149
0.000154561
0.000158595
0.000153141
0.000186863
0.000159508
0.00123222
0.00506643
0.000148306
0.000148527
0.000159666
0.000149746
2.62139e-05
0.000172353
0.000145293
0.00439179
0.000162167
0.000152833
0.00015758
0.000147874
0.000147011
0.000168172
0.00014932
0.000147902
0.000160655
0.000154224
0.000148751
0.000152547
0.000170747
0.00554598
0.00579753
0.000146447
0.000149296
0.000160332
0.000146051
0.000157436
0.000151712
0.000148831
0.00547035
0.000181447
0.00019235
0.000160378
0.000145061
0.00016856
0.000148271
0.000148428
0.00108997
0.000152491
0.000146958
0.000166294
0.000166881
0.000148341
0.000147086
0.00542973
0.000181065
0.000174835
0.000158791
0.000179133
0.000144964
0.000189369
0.000159458
0.00017691
0.000179439
0.000148542
0.000148313
0.000151697
0.000145922
0.000147815
0.000193706
0.000167966
0.000165896
0.000204943
0.000177441
0.000712307
0.000147056
0.00131432
0.00017993
0.000198329
0.000157362
0.000164422
0.000155509
0.000177526
0.00015872
0.000148879
0.000149379
0.000152296
0.000182241
0.000153051
0.000887457
0.000150239
0.000149667
0.000198079
0.000190872
0.000165674
0.0001492
0.000174928
0.000149413
0.000160058
0.000151041
0.000148254
0.000209345
0.000151638
0.000223966
0.0054073
0.00542067
0.000162941
0.00604745
0.000177276
0.000160023
0.000145752
0.000148657
0.0052283
0.00134799
0.000151147
0.000166443
0.000148537
0.000145334
0.000159732
0.000148005
0.000157957
0.000181369
0.00544531
0.000175225
0.000504284
0.000164707
0.000151157
0.00014578
0.000175368
0.000166565
0.000216996
0.000194703
0.000192802
0.000185881
0.000171263
0.000752949
0.000200638
0.000165776
0.000149619
0.000157988
0.000189194
0.000148589
0.000148946
0.000173093
0.00015521
0.000149119
0.00197741
0.00015548
0.000151312
0.000149325
0.000152977
0.000149059
0.000163151
0.000165078
0.000165599
0.000176283
0.000804554
0.000194126
0.000190625
0.000181968
0.00014976
0.000148912
0.000185272
0.000216355
0.000166965
0.000172389
0.000152164
0.000163992
0.000188745
0.000155764
0.000156355
0.000148654
0.000160884
0.000177371
0.000622358
0.000149371
0.000199049
0.000171902
0.000168908
0.000145826
0.000180216
0.000146313
0.00014654
0.000150956
0.000148835
0.000150047
0.000178276
0.000146235
0.000195844
0.000166052
0.000149768
0.000274051
0.000167578
0.000160625
0.000148741
0.000147625
0.000152509
0.000161128
0.000153322
0.000146045
0.000144462
0.000165226
0.000147668
0.000154062
0.000164114
0.000148848
0.000189136
0.000162379
0.000155056
0.0002164
0.000156827
0.000149492
0.000165094
0.000181167
0.000146195
0.000176724
0.000149088
0.000149541
0.000169374
0.000145345
0.000147551
0.000149801
0.000164502
0.000175622
0.000145945
0.000148815
0.000152299
0.00545105
0.000148547
0.000208998
0.000173363
0.0013562
0.00017835
0.000145093
0.000173152
0.000152069
0.000159804
0.000181454
0.000186487
0.000144453
0.000157179
0.00018926
0.000157813
0.0001526
0.000149835
0.000189974
0.00019208
0.000187694
0.000148899
0.000149196
0.000174152
0.000148266
0.000164946
0.00021265
0.00534952
0.000211126
0.00556949
0.000167527
0.00014522
0.000156702
0.000150279
0.00455469
0.000149761
0.00557245
0.000162226
0.000176895
0.000146014
0.000178937
0.000148561
0.000183349
0.000168419
0.000152143
0.000146054
0.000170453
0.000180632
0.000131576
0.000152247
0.000182804
0.00517047
0.000187795
0.000165753
0.000182401
0.000170291
0.000152153
0.000177191
0.000161941
0.00014805
0.000175588
0.000175544
0.000151847
0.000148277
0.000172647
0.000151557
0.000191789
0.000183691
0.000163773
0.000154576
0.000166902
0.000230445
0.000182536
0.000156848
0.000149099
0.000167288
0.000210266
0.00014898
0.000160664
0.000154021
0.000172008
0.000148705
0.000153764
0.000150647
0.000150155
0.000128208
0.00015784
0.000153366
0.000166438
0.00015685
0.000174772
0.000151234
0.000171891
0.000201186
0.000188201
0.000149752
0.000167987
0.000166286
0.00577223
0.000153202
0.000193063
0.000155108
0.000162914
0.000191393
0.00014971
0.000170158
0.000191006
0.0052912
0.000192246
0.000178635
0.000164416
0.000155425
0.00018146
0.000152592
0.000176623
0.000156237
0.000149731
0.000177561
0.000150285
0.000170967
0.000173585
0.000148858
0.000156944
0.00017637
0.00014903
0.00103857
0.00524845
0.000163358
0.000159813
0.00595963
0.000163759
0.000171254
0.000148233
0.000153711
0.000186907
0.00557947
0.000188077
0.000170759
0.000148785
0.000178953
0.000163796
0.000145291
0.000151474
0.000147957
0.000206837
0.000178244
0.000176902
0.0056894
0.000187339
0.000150867
0.000644933
0.000161628
0.000190957
0.000148352
0.00014702
0.000155294
0.000162221
0.000148818
0.000188155
0.000163527
3.59393e-05
0.00018376
0.000154001
0.000829518
0.000202138
0.000185579
0.000152129
0.00151155
0.00548414
0.000170308
0.000146882
0.000181958
0.000148007
0.00015161
0.00016114
0.000156875
0.000147204
0.000147727
0.000149861
0.000166939
0.000148166
0.00528576
0.000184896
0.000147929
0.000155552
0.000183234
0.000194743
0.000150661
0.000156187
0.000161257
0.000171542
0.0059049
0.000148802
0.000151394
0.000188143
0.000191959
0.000154918
0.000178869
0.000161844
0.000149145
0.000155191
0.000169379
0.000148444
0.000403382
0.000161844
0.000150345
0.000163771
0.000154444
0.000187724
0.000182701
0.00014725
0.000149398
0.000161955
0.00014943
0.00017628
0.000149944
0.000175237
0.000147988
0.000170796
0.000168242
0.000147184
0.000372939
0.000154551
0.000439959
0.000145091
0.000169066
0.00017095
0.00336717
0.000148173
0.000187637
0.000158227
0.000184649
0.000193194
0.000148432
0.000151585
0.000150426
0.000156656
0.00604068
0.000179077
0.000439706
0.0001744
0.00561348
0.000148639
0.000192834
0.000172553
0.000576602
0.000154663
0.00484265
0.00281005
0.000180155
0.000156451
0.000196018
0.000204115
0.000149216
0.000182904
0.000154068
0.000187831
0.00525207
0.000151707
0.000186236
0.000191746
4.71108e-05
0.000195172
0.000173229
5.90616e-05
0.000187365
0.000147694
0.000149016
0.00136671
0.000181654
0.000163571
0.000158919
0.000171112
0.000164854
0.000185821
0.00014909
0.000187852
0.0052564
0.00650063
0.000159265
0.00014772
0.000179707
0.000149356
0.00615057
0.000207632
0.000194931
0.000147427
0.000148778
0.000180755
0.000147927
0.000187602
0.000144663
0.000190799
0.000148371
0.000192904
0.000144893
0.000147614
0.000148234
0.000183865
0.00015576
0.0001488
0.000159002
0.000189587
0.000186065
0.000149716
0.000148052
0.00098937
0.000146961
0.000149938
0.00441485
0.000147378
0.00601059
0.000160416
0.00014971
0.000164545
0.000156613
0.000163475
0.00016166
0.000172959
0.000151198
0.000184643
0.000147911
0.000170002
0.000149726
0.000180235
0.000182623
0.000152747
0.000149848
0.000156478
0.000192138
0.000159177
0.000168759
0.000159295
0.000184373
0.000161485
0.00562298
0.000671496
0.000147868
0.000147294
0.000148318
0.000152983
0.000156947
0.00021278
0.000169076
0.000193984
0.000155452
0.000147292
0.000144828
0.00017052
0.001222
0.000156296
0.000196583
0.000152446
0.000146087
9.26883e-05
0.000186279
0.00019738
0.000175023
0.000185072
0.000719119
0.000206279
0.000148103
0.00543576
0.000187634
0.0001911
0.000163036
0.00554414
0.00015263
0.000147017
0.000146053
0.000178355
0.000149396
0.00014959
0.000151435
0.000173168
0.000208899
0.00534001
3.05414e-05
0.000181662
0.000147453
0.000149913
0.000149701
0.000152523
0.000147809
0.000147531
0.000176043
0.000185357
0.000148353
0.000216578
0.000146908
0.00033816
0.000169778
0.000152147
0.000149271
0.000146196
0.000175773
0.00015389
0.000155216
0.000152101
0.00458717
0.000185027
0.000148211
0.000187311
0.000149719
0.000149195
0.000148823
0.00127107
0.000177734
0.000175131
0.000154797
0.000148993
0.000174806
0.000163729
0.000146453
0.000161901
0.000609762
0.00558288
0.000179595
0.000113482
0.000148817
0.000157836
0.0053222
0.000148966
0.000176483
0.000162311
0.000148219
0.000151882
0.000156897
0.00519128
0.000149782
0.00015744
0.000169699
0.000206944
0.000144499
0.000148021
0.00016219
0.000146525
0.000166878
0.00525674
0.00018021
0.000146102
0.0020534
0.000188386
0.000182615
0.000146512
0.000202218
0.000166684
0.00510616
0.00015493
0.000147014
0.000146133
0.000152448
0.000147855
0.00016847
0.000152482
0.000188071
0.000148983
0.000167777
0.00528409
0.000148381
0.00014606
0.000179264
0.00187357
0.000165072
0.00018327
0.000146443
0.000148893
0.000399288
0.000149717
0.000149521
0.000150863
0.00566706
0.00017784
0.000666098
0.000146888
0.000195202
0.000187544
0.000146214
0.000168599
0.00017443
0.00014898
0.000146437
0.000156502
0.000169291
0.000176525
0.000156256
0.0001882
0.000150174
0.00166238
0.000148904
0.000192177
0.000205436
0.000149395
0.000208062
0.00016335
0.000149039
0.000161385
0.000177241
0.000148188
0.000148066
0.000149784
0.000149108
0.000156696
0.000148977
6.42265e-05
0.000166942
0.000188414
0.000149125
0.000179121
0.00016921
0.00544884
0.000168227
0.000532713
0.00040257
0.000149942
0.000752668
0.000153433
0.000147312
0.000148261
0.000157274
0.000146992
0.000151979
0.0051145
0.002388
0.00556863
0.000165701
0.000147819
0.000150597
0.000148795
0.000155593
0.000186989
0.000146046
0.000161688
0.000182388
0.00550203
0.00014947
0.00014758
0.000149129
0.00014616
0.000150203
0.000149327
0.000173489
0.000147248
0.000154391
0.00014706
0.00018488
0.000156808
0.000836632
0.000155255
0.000190106
0.000170499
0.0001517
0.000157846
0.000159621
0.000147092
0.000163065
0.00015274
0.000184246
0.000182976
0.00520636
0.0001822
0.000149864
0.000149778
0.000154211
0.000147956
0.000190329
0.00014918
0.000143501
0.000167603
0.000180469
0.000170425
0.000154731
0.000146275
0.000161003
0.000148175
0.000167221
0.000155354
0.000155325
0.00465159
0.00017457
0.0001465
0.000163426
0.000148494
0.000161614
0.000147995
0.000175651
0.000156141
0.00488417
0.000191826
0.00015306
0.000148854
0.000148813
0.000149176
0.000145293
0.00017219
0.000151381
0.000147994
0.000150633
0.000149096
0.000164971
0.000180247
0.000177964
0.000169816
0.00184115
0.00014684
0.000152803
0.000148513
0.000159339
0.00532394
0.000151123
0.00014974
0.00016133
0.000166323
0.000187264
0.000173898
0.000152399
0.000478786
0.000161182
0.000146968
0.000150251
0.000152616
0.000147789
0.000215234
0.00015542
0.0051726
0.000172537
0.000181537
0.000189635
0.000155094
0.00214451
0.000158117
0.000211919
9.96126e-05
0.000147605
0.000163527
0.000152377
0.000148554
0.000176316
0.00107556
0.000154274
0.000149888
0.000149855
0.000163574
0.000191054
0.00102301
0.000149188
0.00574561
0.000154904
0.000166658
0.00549084
0.000148235
0.00015014
0.000187826
0.000150555
0.000150919
0.00014827
0.00534267
0.000148009
0.00413714
0.000109165
0.000160892
0.000186826
0.000187616
0.00015328
0.000168919
0.000146233
0.000156107
0.000185935
0.000147799
0.00019637
0.000147399
0.00015719
0.000147902
0.0057435
0.000180991
0.00018543
0.000205403
0.000147515
0.00471729
0.000167851
0.000188454
0.000147179
0.00506326
0.000180824
0.000146347
0.0001669
0.00020922
0.000164336
0.000150248
0.000148556
0.000153141
0.000835982
0.000160718
0.000163903
0.000182776
0.000147755
0.000147971
0.000165255
0.000147678
0.000180111
0.000151407
0.000145809
0.000149904
0.000147437
0.00014735
0.000177959
0.000149218
0.000187644
0.000147449
0.000148175
0.000147945
0.00537746
0.000146268
0.000176537
0.000148037
0.00443034
0.0001696
0.00529464
0.000148821
0.000163384
0.000187417
0.000151717
0.00524755
0.000153512
0.000164568
0.000211327
0.000172578
0.000183623
0.000185075
0.00447256
0.000148258
0.000155148
0.000148661
0.00016359
0.000176148
0.00014606
0.000149874
0.000146398
0.000157335
0.000152246
0.000150257
0.000187135
0.00019903
4.12069e-05
0.000156294
0.00545756
0.000163849
0.000173872
0.000193875
0.000166931
0.000149945
0.00628685
0.000149775
0.000152779
0.0043184
0.000177416
0.000146056
0.000207672
0.000146887
0.000187659
0.000156874
0.000150407
0.000165456
0.000236862
0.000187212
0.00018938
0.000189947
0.000186896
0.000507044
0.000153478
0.000199043
0.000148613
0.000816478
0.000145922
0.000164582
0.000160825
0.000189528
0.000147359
0.000148075
0.000158432
0.000179632
0.000174025
0.000175497
0.000182247
0.000146272
0.000149894
0.000149887
0.000151861
0.000162169
0.000180934
0.000152141
0.000154488
0.000147474
0.000153406
0.000148694
0.000161307
0.000218701
0.000153539
0.000113162
0.000154727
0.000146206
0.000170397
0.00014864
0.000145917
0.00014711
0.000164072
0.000147008
0.0001522
0.000181526
0.000147301
0.000162831
0.000158301
0.000147842
0.000147699
0.000166151
0.000148249
0.00277867
0.000162566
0.000169756
0.000152076
0.000165894
0.000168836
0.000147091
0.000152246
0.000157918
0.000163043
0.000191378
0.000181115
0.000163404
0.000147587
0.000191919
0.000147872
0.000157743
0.000174155
0.000145852
0.000147606
0.000179776
0.000154049
0.00014982
0.000174054
0.000148233
0.00016329
0.00512033
0.000186495
0.000152262
0.000152875
0.000147203
0.000152644
0.000210187
0.000147541
0.000158061
0.000146324
0.000150214
0.000189615
0.000158547
0.000147863
0.000190051
0.000149208
0.000721409
0.00017234
0.000151491
0.000152737
0.00023113
0.000151615
0.000173513
0.000145962
0.000170205
0.000170307
0.000182491
0.000172993
0.000172293
0.000145931
0.000146326
0.000160646
0.000149722
0.000152379
0.000153032
0.000149663
0.000180766
0.000163388
0.000146272
0.00571687
0.000144884
0.000147979
0.000148822
0.000158621
0.000151945
0.000148032
0.000146617
0.000185902
0.000153306
0.000170401
0.000147615
0.000148883
0.000919339
0.000160411
0.00551221
0.000182096
0.000176824
0.00573641
0.00014977
0.000152598
0.000146247
0.000157899
0.000145285
0.000173895
0.000192252
0.00014893
0.00016917
0.000152647
0.000156121
0.00132327
0.000192204
0.000148016
0.000192117
0.000146696
0.000158268
0.00458573
0.00016043
0.000147103
0.000146239
0.000152639
0.000152356
0.00014485
0.000149732
0.000219979
0.003027
0.00015384
0.000147506
0.000147482
0.000147853
0.000147812
0.000165938
0.00014629
0.00531534
0.000165978
0.000187734
0.000207447
0.000144713
0.000154448
0.000148286
0.000150859
5.60609e-05
0.00018692
0.000158361
0.000186359
0.000179563
0.00538106
0.000149098
0.000161697
0.000146135
0.000204837
0.000155027
0.000163398
0.000193833
0.0001637
0.000717295
0.000150682
0.000183756
0.000147326
0.000185907
0.000192579
0.000150819
0.00253381
0.000156263
0.000149433
0.000191825
0.000181053
0.000147944
0.000170261
0.000146086
0.00014623
0.000146251
0.000167111
0.00017008
0.000169815
0.000163664
0.000172096
0.000149429
0.00538743
0.000153194
0.000146914
0.000187237
0.000183606
0.000152057
0.000148575
6.53918e-05
0.000159192
0.000148809
0.000149239
0.000169153
0.000158585
0.000153973
6.32167e-05
0.000149793
0.000149255
0.000151584
0.000155331
0.000145927
0.000175517
0.000149465
0.000155949
0.000148581
0.000156068
0.00017409
0.000147934
0.00557673
0.000178251
0.000148786
0.000160022
0.000168008
0.000149809
0.000169929
0.000151821
0.00014981
0.000170773
0.000149469
0.000185188
0.00019493
0.000149704
0.000221318
0.000180334
0.000181349
0.000199212
0.000161054
0.000146559
0.000148736
0.00514627
0.000180713
0.000146428
0.000146837
0.00240713
0.000185933
0.000148387
0.00529121
0.00263979
0.00350008
0.000157926
0.000152503
0.000149764
0.000154284
0.000157162
0.000173254
0.000148919
0.000153627
0.000145481
0.000171178
0.000191114
0.000174817
0.00488764
0.000172054
0.000156639
0.000158128
0.000159014
0.000151069
0.000159214
0.000169912
0.00015321
0.000187482
0.000147087
0.000147563
0.000180132
0.00016572
0.000168302
0.000184887
0.000149404
0.000146161
0.000186181
0.000148212
0.000145385
0.0001885
0.000147278
0.00569861
0.000151374
0.000150574
0.000149659
0.000163665
0.000149497
0.000144743
0.000148833
0.00016569
0.000146834
0.000208071
0.000160788
0.000196986
0.000584986
0.000191026
0.000225801
0.000160682
0.000172106
0.000191818
0.00457751
0.000157651
0.000149884
0.000170146
0.000149877
0.000158722
0.00671335
0.0001698
0.000147155
0.000173116
0.000383056
0.000147713
0.000211867
0.000173783
0.000156871
0.000147907
0.000159963
0.000166271
0.000166452
0.000191194
0.000165817
0.000160801
0.000148731
0.000147473
0.000147926
0.000151737
0.00016287
0.000107377
0.000149913
0.000408145
0.000156422
0.000155655
0.000198667
0.00427924
0.000126385
0.000145862
0.000146221
0.000149443
0.00188903
0.000213481
0.000178677
0.000171758
0.000213546
0.000147016
0.000148817
0.000153958
0.000146157
0.000157097
0.000150672
0.000151881
0.000187268
0.000176763
0.000150762
0.000147801
0.000168167
0.000170835
0.000188667
0.000186238
0.000149911
0.00288593
0.000182206
0.000164807
0.00017244
0.000181528
0.000158737
0.00016247
0.00451757
0.000156645
0.000160891
0.000148773
0.000170522
0.000152504
0.000147842
0.000173187
0.00619955
0.00017808
0.000161367
0.000177018
0.00570476
0.00557867
0.000150823
0.000145458
0.000146292
0.005473
0.000148417
0.000152022
9.31697e-05
0.000149799
0.000171741
0.00014919
0.000149814
0.000148688
0.000178237
0.000823884
0.000182411
0.000148126
0.000156926
0.00019253
0.000149542
0.00517055
0.00633036
0.00535771
0.000163684
0.000150387
0.000161534
0.00016455
0.000292463
0.000153586
0.000191113
0.000153694
0.000146965
0.000148495
0.000148119
0.00519627
0.000158321
0.000157351
0.000155298
0.000147273
0.000148879
0.000748351
0.00015281
0.000155108
0.000152671
0.000149591
0.00134885
0.000145996
0.00270992
0.000147882
0.000172933
0.00014671
0.000161267
0.000180853
0.000180076
0.000150016
0.000148108
0.000149618
0.000148939
0.000179548
0.000191356
0.000153677
0.000156512
0.000151882
0.00016653
0.000152228
0.000149678
0.00586684
0.000187521
0.000168309
0.000151585
0.000148211
0.000160461
0.000153569
0.000221981
0.000210874
0.000150632
0.000146941
0.000157642
0.000153331
0.00537247
0.000148124
0.000198111
0.000148018
0.000148375
0.000155106
0.000153324
0.000173327
0.000191807
0.000176587
0.000456443
0.000182055
0.000148504
0.00599574
0.00014729
0.000149893
0.000150304
0.00017017
0.000173539
0.000170151
0.000146599
0.000153139
0.000152369
0.000147198
0.00599937
0.000146598
0.000148279
0.000149627
0.000158727
0.000203726
0.000161893
0.000166844
0.0001489
0.000167728
0.000148389
0.000151543
0.000161303
0.000159308
0.000181612
0.000150798
0.000150492
0.000205344
0.000146928
0.000146946
0.000184079
0.00018078
0.000161445
0.000191157
0.000153505
0.000170068
0.00247168
0.000173213
0.000161111
0.000157474
0.000189662
0.00017851
0.000146841
0.000168144
0.000173513
0.000154942
0.000148828
0.000148088
0.000183598
0.000148485
0.00518383
0.000151154
0.000147186
0.000146322
0.00531334
0.000149752
0.000155828
0.000156635
0.000180694
0.000149608
0.000147238
0.00014796
0.000159428
0.000145444
0.000148569
0.000148877
0.000165417
0.00018175
0.000166376
0.000154999
0.000186781
0.00541707
0.000152315
0.000159919
0.000149238
0.000149529
0.000195589
0.00450359
0.000187016
0.000150698
0.000153064
0.000152178
0.000172435
0.00561541
0.00546644
0.000172136
0.000178672
0.000157656
0.000185425
0.000172067
0.000184541
0.000185756
0.000152841
0.000187022
0.000149909
0.000218007
0.000149257
0.000171287
0.000147317
0.000173092
0.000147713
0.000149557
0.000157264
6.18945e-05
0.000158111
0.000163105
0.000149906
0.00490892
0.000146195
5.94262e-05
0.000147217
0.0001493
0.000148214
0.000161914
0.000146008
0.000166354
0.000185101
0.000144719
0.000150784
0.00018004
0.000149397
0.000149623
0.000164927
0.000168823
0.000151552
0.000156011
0.000178014
0.000149087
0.000152599
0.000146466
0.00561751
0.000157418
0.000157799
0.000166647
0.000181302
0.000151794
0.000146228
0.000175778
0.00600487
0.000150135
0.000147166
0.000164753
0.000194893
0.000151525
0.000167005
0.000165856
0.00021177
0.000190609
0.000161689
0.000148294
0.000148485
0.000163822
0.000191
0.000150745
0.00521088
0.000176599
0.000159109
0.000170397
0.000154624
0.000158687
0.000159073
0.000151454
0.00014548
0.00499853
0.000150533
0.000169838
0.000171147
0.000168736
0.000168163
0.000153836
0.000160208
0.000189183
0.000152563
0.000147607
0.000171839
0.000180201
0.000149626
0.000146572
0.00501909
0.000148189
0.000174154
0.000187236
0.000147637
0.000166504
0.00384839
0.000168945
0.000152306
0.000175891
0.000183364
0.000158463
0.000175029
0.000151004
0.000152863
0.000185753
0.000149485
0.00489162
0.000175418
0.000163249
0.000159086
0.000417845
0.000147806
0.000171391
0.000203358
0.000148396
0.00018269
0.000168444
0.000163864
9.59913e-05
2.9486e-05
0.00429571
0.000146766
0.000149327
0.000152395
0.000202126
0.000164113
2.84385e-05
0.000186088
0.000170055
0.000199667
0.000151511
0.000164775
0.000160595
0.000150774
0.000162619
0.000147155
0.000175728
0.000185573
0.000166374
0.000146415
0.000197244
0.000169403
0.000176234
0.000149693
0.000169265
0.000149346
0.000197407
0.00017979
0.000185235
0.00015659
0.000189507
0.00511477
0.000145367
6.19427e-05
0.000146699
0.000151205
0.00015854
0.00015634
0.000147933
0.000170535
0.0001484
0.000177882
0.000192283
0.000149606
0.000196839
0.000147198
0.000160022
0.000175656
0.000152284
0.000173156
2.25089e-05
0.000157965
0.000147321
0.000149555
0.000145977
0.000176876
0.000165087
0.00530712
0.000145965
0.000154362
0.000156465
0.000153182
0.0020159
8.13239e-05
0.000167821
1.35984e-05
0.000160007
0.000147597
0.000171765
0.0001821
0.000156596
0.000206564
0.000158965
2.77367e-05
0.00017439
0.000180576
0.000151988
0.000177044
5.46961e-05
0.00449315
0.000176114
0.000152624
0.000148629
0.000181037
0.000149869
0.00466977
0.000164266
0.000228825
0.00475942
0.000175031
0.00540193
0.000148974
0.000205985
0.000154087
0.000168583
0.000164288
0.00015651
0.000171374
4.00847e-05
0.000148819
0.00015846
0.00016855
0.000152094
0.000145955
0.000165842
0.000181897
0.000160433
0.000169006
0.00016907
0.000157832
0.00435287
0.0001472
0.0036217
0.000185687
0.000150392
0.000161413
0.000148248
0.000145673
3.51461e-05
0.000148353
0.000173138
0.000148569
0.000159545
0.000154788
0.000182806
0.000167608
0.000153636
0.000148613
0.000155496
0.000148623
0.000152039
0.000157952
0.000149634
0.000159437
0.000184585
0.000149723
0.000658827
0.000145927
0.00022056
0.000179406
0.000173041
0.00014795
0.000168917
0.000192352
0.000169542
0.000196008
0.000186611
0.000148729
0.00014902
0.000185389
0.000175451
0.000152972
0.000159449
0.000183745
0.000146747
0.000162257
0.000146865
0.000147008
0.000149016
0.00016194
0.000173959
0.000146675
0.000180529
0.000147981
0.000117882
0.000184049
0.00014911
0.000148867
0.000156328
0.000144769
0.000149055
0.000163718
0.000146523
0.000175809
0.000155825
0.000150576
0.000162071
0.00014818
0.000148134
0.000130598
0.000170773
0.00595247
0.000148351
0.00015534
0.00553961
0.000146248
0.000176775
0.00015556
0.000167942
0.000152372
0.000171201
0.000162312
0.000159759
0.000152896
0.000175991
9.54851e-05
0.000147821
0.000311214
0.000281198
0.000151468
0.000155615
0.00504125
0.000190766
0.000157011
0.000149406
0.000155416
0.000171272
0.000148514
0.000151073
0.000174901
0.00015276
0.000178859
0.00016049
0.000148622
0.000149232
0.000194391
0.000155159
0.000169524
0.000148476
0.000165145
0.000146845
0.000148502
0.000174276
0.000163762
0.000152281
0.000193781
0.000177365
0.000149893
0.000158692
0.000159874
0.000146647
0.000209008
0.000157067
0.00428173
0.000149799
0.00014593
0.000149416
0.000176439
0.000173208
0.000189396
0.000149623
0.000202249
0.000177274
0.000181525
0.000147823
0.000187314
0.000195365
4.5343e-05
0.000149564
0.000163063
0.000166033
0.000166457
0.000187239
0.00194195
0.000191414
0.000175275
0.000176882
0.00014925
0.00560268
0.000154731
0.000192469
0.000173904
0.00017293
0.00014913
0.000173936
0.00017474
0.00014939
0.000147903
0.000146821
0.00014941
0.000161997
8.66342e-05
0.00611565
0.000163247
0.000156929
0.000146974
0.000161606
0.00014706
0.000153231
0.000152363
0.000159283
0.000191794
0.00014782
0.000156007
0.000149551
0.000168726
0.000158047
0.000145674
0.000175834
0.000163363
9.23799e-05
0.000148605
0.000167537
0.000152833
0.000149515
0.000186798
0.000152743
0.000150103
0.000180835
0.000148967
0.000156979
0.00133593
0.000147425
0.000147384
0.000173443
0.000172306
0.000191954
0.000161568
0.0001681
0.000146705
0.000149566
0.000158218
0.000295936
0.000167137
0.000182532
0.000171912
0.00014604
0.000181686
0.000194798
0.000152915
0.00014808
0.000150803
0.000147848
0.000178397
0.000167386
0.000150563
0.000150797
0.00017533
0.000172126
9.82609e-05
0.000152002
0.000166896
0.000160085
4.54751e-05
0.000168423
0.000154199
0.00015404
0.000150491
0.000184986
0.000154503
0.000215964
0.000158655
0.000148172
0.000149846
0.000155735
0.000191898
0.000169443
0.00014945
0.000145693
0.000156741
0.000158695
0.000148177
0.000153083
0.00018696
0.000158215
0.00015452
0.000154993
0.000155321
0.000147245
0.000146834
0.00276597
0.000192154
0.000186571
0.0054982
0.000147198
0.000156608
0.00015006
0.000176506
0.000201602
0.000154263
0.000177857
0.000161883
0.0001528
0.00534036
0.000162792
0.000151861
0.000152691
0.00014568
0.00524846
0.000158345
0.000146818
0.000180719
0.000203114
0.00018688
0.000208358
0.000157577
0.000171313
0.000156462
0.000149661
0.00019291
0.000148593
0.000146608
0.000152765
0.000196204
0.00015822
8.1161e-05
0.000169399
0.000148589
0.00194731
0.000662424
0.000166283
0.000162326
6.21824e-05
0.000180872
0.000189701
0.000189041
0.00033062
0.000153993
0.000147843
0.000160942
0.000183843
0.000152191
0.000181094
0.00014925
0.000178505
0.000160543
0.000194593
0.000146153
0.000149937
0.00019046
0.000190822
0.00600412
0.000156827
0.000152369
0.0056256
0.000208618
0.0001877
0.000175804
0.000147005
0.000148063
0.000148926
0.000153086
0.000149608
0.000182391
0.000101504
0.00017641
0.00482
0.000207601
0.000149391
0.00017376
0.00014866
0.000150524
0.00019853
0.000181139
0.000157008
0.000149582
0.000149116
0.000175311
0.000150768
0.000148575
0.000149478
0.000146402
0.000155123
0.000149742
0.000154553
0.000149093
0.000148858
0.00034203
0.000167253
0.000146337
0.000168471
0.000250308
0.000209992
0.000509003
0.000162578
0.000148234
0.000147847
0.00017565
0.000146331
0.00428524
0.00015208
0.000156505
0.00014853
0.000147664
0.000150943
0.000173129
0.000152264
0.000151676
6.04347e-05
0.000149301
0.000150801
0.000155457
0.000149388
0.000149744
0.000146385
0.00109476
0.000149954
0.000164328
0.000190791
0.000144963
0.000149216
0.000195959
0.000189982
0.000152621
0.000164321
0.000205811
0.000176948
0.000151187
0.000150628
0.000178268
0.00016066
0.000149095
0.00019096
0.000167207
0.00011843
0.000173714
0.000170479
0.000162272
0.000176261
0.000319244
0.000162633
0.000188597
0.000156427
0.000190822
0.000187191
0.000153964
0.000150148
0.000148028
0.000853652
0.000148579
0.000147072
0.000148569
0.000173133
0.00559011
0.00478534
0.00014866
0.00015481
0.000151246
0.000158865
0.000191026
0.000205151
0.000190749
0.00536352
0.000148198
0.000159435
0.000169835
0.000156249
0.000150939
0.000177061
6.9745e-05
0.000170602
0.000190082
0.000147941
0.000152843
0.000207099
0.000149804
0.000178662
0.000157525
0.000147913
0.000149908
0.00589314
0.00162853
0.000163381
0.0001642
0.000149161
0.000152127
0.000182771
0.000153796
0.000172684
0.00556449
0.000148665
0.000194866
0.000145975
0.00547325
0.00554274
0.00015591
0.000146253
0.000196029
0.000149756
0.000148574
0.000154744
0.000149474
0.00546413
0.000149283
0.000170176
0.000163154
0.00015122
3.90947e-05
0.000208482
2.4001e-05
0.00014989
0.000147937
0.000173459
0.000150606
0.000154038
0.000149899
0.000147002
0.000183485
0.000196585
0.000150691
0.00180529
0.000146168
0.000171473
0.000150431
0.000145022
0.000187055
0.000174465
0.00576377
0.000177121
0.000151939
0.000149669
0.000156592
0.000177839
0.000145892
0.000154351
0.000128165
0.000171843
0.000181887
0.000158049
0.000150609
0.00529305
0.000157161
0.00432425
0.00014725
0.000188443
0.000159935
0.000164251
0.00018925
0.000157159
0.000155513
0.00015956
0.000149808
0.000193243
0.000147071
0.000157329
0.00511463
0.000148611
3.98786e-05
9.65032e-05
0.000157882
0.000175661
0.0051579
0.00497701
0.000149814
0.00512239
0.000174751
0.000149078
0.000162068
0.00234933
0.000148187
0.000146979
3.7734e-05
0.000147975
0.000158309
0.000145805
0.000161245
0.0002135
5.47005e-05
0.000159767
0.000173531
0.000151237
0.000147894
0.000314996
0.000147804
0.000145994
0.000413443
0.000159012
0.000150387
0.000174675
0.000151579
0.000155844
0.000165287
0.000179145
0.000146364
0.000154837
2.89622e-06
0.000171412
0.000150912
0.000556414
0.000149281
0.000147714
0.000209503
0.000149229
0.00014958
0.000175292
0.000147577
0.000157485
0.000154867
0.000148909
0.000147984
0.000152793
0.00016886
0.000159299
0.0050474
0.000175625
0.000161117
0.00014947
0.000188737
0.000207431
0.000167349
0.000382544
0.000113952
0.000190841
0.000158198
0.000195532
0.00446482
0.000157842
6.43737e-05
0.000190294
0.00017081
4.73283e-05
0.000169251
0.000160464
0.00433271
0.000180477
0.000184741
0.000183033
0.000118077
0.000152034
0.000148656
0.000149809
0.000184478
0.000153094
0.000154713
0.00558684
0.000145882
0.00014845
0.000163999
0.000148744
0.000172861
0.000183084
0.000151714
0.000159974
0.000172517
0.000184159
0.000182518
0.000153798
0.000159388
0.000171503
0.000166043
0.000157149
0.000126696
0.000155839