/*--------------------------------*- C++ -*----------------------------------*\
| =========                 |                                                 |
| \\      /  F ield         | OpenFOAM: The Open Source CFD Toolbox           |
|  \\    /   O peration     | Version:  v2012                                 |
|   \\  /    A nd           | Website:  www.openfoam.com                      |
|    \\/     M anipulation  |                                                 |
\*---------------------------------------------------------------------------*/
FoamFile
{
    version     2.0;
    format      ascii;
    class       volScalarField;
    location    "300";
    object      nut;
}
// * * * * * * * * * * * * * * * * * * * * * * * * * * * * * * * * * * * * * //

dimensions      [0 2 -1 0 0 0 0];


internalField   nonuniform List<scalar> 
13308
(
0.000555608
0.000635466
0.000917262
0.00391727
0.002282
0.00105149
0.0012867
0.000629605
0.00280265
0.00672249
0.000653828
0.000656876
0.000612928
0.00135249
0.00251289
0.00313355
0.00423308
0.00672008
0.000568923
0.000771017
0.00513607
0.0067371
0.00673608
0.000326663
0.000733213
0.00319597
0.00060451
0.00673632
0.000346454
0.00673179
0.000191658
0.000292194
0.00055268
0.00100718
0.000496865
0.00385989
0.00673661
0.0040962
0.00390686
0.000893672
0.00109311
0.00263938
0.000884995
0.00115935
0.000486017
0.00037631
0.00467773
0.00672497
0.00133591
0.00672557
3.62102e-05
0.000648379
0.00673068
5.47693e-05
0.000959129
0.00158074
0.00117489
0.00672645
0.00672248
0.000600096
0.00503287
0.00672637
0.00139344
0.00168897
0.00677964
0.00247306
0.0008963
0.001094
0.000826585
0.00675648
0.00672395
0.00124861
0.00676292
0.0015734
0.00239398
0.00672448
0.00103688
0.000928744
0.000542688
0.0012919
0.00673676
0.000853857
0.00513124
0.0067393
0.000487565
0.00123003
0.00671621
0.000651221
0.00069006
0.00471141
0.00672184
0.00138931
0.000778577
0.000505229
0.000698922
0.000857091
0.00673442
0.000721277
0.00105796
0.000537891
0.00094385
0.0067266
0.00316515
0.00176895
0.00675999
0.00671871
0.00031374
0.000539196
0.000856508
0.000559639
0.00117258
0.000393847
0.00672198
0.000638569
0.00102481
0.000458729
0.000675451
0.000774804
0.00158757
0.00131202
0.000955301
0.00673408
0.00603757
0.00116175
0.0016997
0.00120433
0.000418186
0.00334208
0.00672529
0.00017802
0.000666232
0.000893169
0.00320027
0.000830176
0.0067462
0.00143148
0.00200779
0.00475486
0.000553662
0.0020961
0.000280477
0.00101164
0.00112625
0.00103951
0.000848546
0.000118382
0.00085988
0.00671699
0.00673824
0.00106268
0.000678319
0.00301645
0.000845475
0.00484034
0.00672942
0.00107606
0.00671933
0.0012684
0.00108904
0.0012805
0.00089304
0.000319271
0.000879954
0.00313676
0.00676115
0.000135355
0.000759743
0.000340445
0.00064821
0.000314105
0.000817067
0.00069013
0.000357088
0.000513407
0.00104813
0.00672513
0.00129912
0.000746691
0.00382155
0.00380345
0.0011124
0.00253209
0.00367482
0.000651368
0.000914446
0.00214036
0.00570876
0.00231744
0.00676052
0.000954318
0.00116236
0.0010008
8.50129e-05
0.000508013
0.000295311
0.000763582
0.000828787
0.00476068
0.00588783
0.000731181
0.000439878
0.000813477
0.00106397
0.00205541
0.0003682
0.000660205
0.00106569
0.00181031
0.00673675
0.00122778
0.000450286
0.000413187
0.0067242
0.000187012
0.00125283
0.000729298
0.00675946
4.25501e-05
0.00675874
0.00676364
0.00227194
0.00672235
0.00283836
0.00107667
0.00672912
0.000789682
0.00129106
0.00672607
0.000270083
0.000880713
0.00136504
0.00672233
0.00675231
0.00231905
0.000705459
0.00183693
0.00676159
0.00672554
0.00102841
0.00674181
0.00270032
0.000430007
0.00673229
0.000858895
0.000349423
0.000796772
0.000384011
0.00142307
0.00588626
0.000966316
0.000828548
0.00672873
0.00022315
0.00672327
0.00672487
0.000961552
0.00673023
0.00673854
0.00357492
0.000944664
0.000810921
0.00676176
0.00677837
0.00392867
0.000758752
0.00439978
0.000587991
0.00126232
0.000641937
0.000810875
0.0067277
0.000864362
0.00173051
0.0011323
0.00142257
0.00163716
0.00672408
0.000570317
0.000648508
0.00189318
0.0014305
0.00345242
0.000661795
0.000463686
0.000422121
0.00672261
0.0067337
0.00038812
0.00616242
0.000885865
0.000854895
0.000844843
0.00051106
0.00105243
0.00106499
0.00673702
0.00180193
0.00281108
5.97261e-05
0.00327318
0.00110186
0.00103447
0.000677202
0.00671545
0.00104988
0.0067402
0.000392825
0.0004881
0.00143063
0.00672733
0.000646004
0.000361868
0.00012587
0.00165785
0.00111948
0.000644372
0.00093048
0.000839058
0.00121928
0.00102046
0.00118833
0.000863605
0.00107502
0.00660526
0.000485905
0.00153869
0.00290209
0.00673559
0.00059063
0.00170538
0.000595997
0.00203862
0.000623821
0.000955347
0.00117037
0.000136811
0.00131001
0.000947902
0.00251366
0.000827143
0.000420085
0.00672349
0.000881049
0.000829777
0.000668581
0.0067225
0.00154737
0.00250056
0.0026826
0.000154508
0.00147016
0.00173017
0.000540271
0.00110227
0.000323912
0.00253725
0.000863493
0.00104384
0.000608857
0.00498916
0.00043361
0.000823765
0.000613797
0.00152002
0.000615802
0.00184087
0.000259804
0.000630988
0.00672625
0.00086699
0.000647314
0.000632539
0.00052518
7.93026e-05
0.00139349
0.000862293
0.000296067
0.00197935
0.000160328
0.00182036
0.00473837
0.00101478
0.00411768
9.27549e-05
0.00060031
0.00521407
0.00163692
0.000664816
0.00408203
0.000583435
0.00123233
0.00133251
0.00127114
0.000602639
0.00115534
0.000177774
0.00673379
0.00134496
0.000572863
0.000666765
0.000484436
0.000975574
0.00461147
0.00106423
0.00105711
0.00673206
0.0016652
0.00671915
0.00104838
0.000670417
0.000122426
0.00110943
0.000643758
0.00254836
0.000443017
0.00118715
0.000408478
0.00673667
0.0067163
0.00123684
0.00107289
0.00672973
0.000350572
0.00112756
0.000146589
0.000415184
0.000911139
0.000503891
0.000584575
0.000597859
0.0020525
0.000732289
0.00102714
0.00128883
0.00673577
0.000771084
0.0050975
0.00261648
0.0011726
0.00118806
0.00671678
0.00673307
0.00355169
0.000575009
0.00653476
0.00098788
0.00083157
0.00671917
0.00077298
0.00188296
0.000403052
0.00241756
0.00111976
0.00119976
0.00137674
0.000609939
0.00342845
0.00250307
0.00074772
0.00061617
0.00196466
0.000809824
0.000958134
0.00672346
0.00193953
0.00102095
0.00410852
0.000206982
0.0010504
0.00240574
0.000459486
0.00137611
0.000433474
0.00130607
0.00671694
0.00672547
0.00124897
0.00672526
0.00108753
0.00672626
0.000910322
0.0067193
0.00121702
0.000198595
0.00661237
0.000264772
0.00138947
0.000327396
0.00672814
0.00126974
0.000628282
0.00073776
0.00498746
0.000791422
0.0021351
0.000624688
0.000427691
0.00674094
0.000970533
0.00295178
0.00129645
0.000839071
0.000796603
0.00028034
0.000733485
0.000652922
0.0067428
0.000542534
0.000680873
0.000317349
0.00154181
0.0011651
0.001043
0.000523736
0.00198022
0.000622858
0.00102508
0.00673582
0.000722698
0.00299521
0.000304396
0.00070275
0.00220342
0.000844816
0.000131525
5.84249e-05
0.000425334
0.00118112
8.21692e-05
0.000537848
0.00671933
0.00672377
0.000684024
0.000689982
0.00124487
0.00103999
0.00125854
0.00129129
0.00159511
0.00672367
0.000742145
0.00113099
0.000743631
0.00146495
0.00671961
0.000777541
0.00672436
0.000774335
0.000659827
0.0004772
0.0067177
0.00672428
0.000288315
0.00672337
0.000472897
0.00673123
0.000332794
0.00409019
0.000399626
0.00673455
0.00674164
0.00672103
0.000635845
0.00140904
0.00672872
0.000783572
0.000784082
0.00048127
0.00672545
0.00671956
0.000490904
0.00671609
0.00236601
5.03926e-05
0.0067175
0.000667552
0.00129081
0.00672548
0.000202254
0.00126923
0.00127707
0.00167561
0.000878412
0.00289559
0.000606784
0.00672413
0.000710295
0.00484035
0.000995485
0.00123203
0.00244618
0.00677557
0.00118851
0.000366444
0.00139099
0.000852138
0.00138653
0.00086558
0.00113876
0.00111592
0.000432145
0.00671886
0.00671731
0.00453416
0.00201059
0.00174928
0.000173922
0.000202862
0.000383019
0.00170019
0.00671735
0.00673344
0.00024086
0.00059816
0.000994383
0.000460222
0.00185132
0.00673055
0.000210297
0.000745443
0.000568968
0.00039341
0.000503389
0.000411902
0.000816023
0.00671977
0.000649115
0.000699541
0.000679053
0.000499056
0.00124527
0.0022173
0.00671631
0.00672658
0.000983619
0.00509175
0.00286096
0.00237418
0.00102906
0.00110046
0.000645561
2.8244e-05
0.000230171
0.00671759
0.0030087
0.00294538
0.000795908
0.00671972
0.0067178
0.00092961
0.000963707
0.00469371
0.00016308
0.00677214
0.000254607
0.00107923
0.00251856
0.0052249
0.00671849
0.000837958
0.000933677
0.00151745
0.00222063
0.0010588
0.000696635
0.00672004
0.000772831
0.00506654
0.00674029
0.004199
0.000625637
0.00125901
0.000742898
0.00134546
0.00275889
0.000596862
0.000542119
0.00671482
0.00112343
0.000298867
0.000670268
0.000849725
0.000107253
0.00672231
0.0015556
0.00100025
0.00672288
0.000937568
0.00100407
0.00573736
0.00365268
0.00199509
0.000686338
0.00672569
0.0015578
0.000985159
0.000737124
0.00673091
0.00672333
0.00102779
0.00673512
0.00116821
0.00128097
0.00043464
0.00672755
0.000558517
0.000600747
0.000731808
0.00673593
0.0005469
0.000838066
0.000626088
0.00101825
0.00671627
0.00672679
0.00193086
0.00671882
0.000221559
0.00205402
0.00117092
0.00672549
0.00109561
0.00110584
0.00677061
0.00673043
0.000905881
0.000738627
0.000190394
0.000947349
0.00671542
0.00672435
0.000204771
0.00672548
0.0067249
0.00253027
0.000715976
0.00117312
0.000449089
0.00673584
0.000433134
0.000806337
0.00671785
0.000889248
0.00086471
0.00672621
0.00671587
0.0014577
0.000984816
0.000753269
0.00187617
0.00068709
0.00537848
0.000714396
0.00398012
0.000589836
0.000919322
0.00672453
0.000661024
0.0012331
0.00672316
0.00105088
0.000579925
0.00676384
0.00507838
0.00304678
0.00673804
0.00114537
0.00368259
0.000162574
0.000852608
0.000695972
0.00672384
0.000779437
0.00020789
0.000851196
0.00117623
0.000405053
0.000277305
0.00672625
0.000386313
0.00156222
0.00647966
0.0060821
0.00149657
0.00671631
0.00192381
0.000592247
0.000541458
0.00128075
0.000915676
0.00672011
0.00207632
0.00426906
0.000819792
0.000202373
0.006716
0.00117505
0.000467621
0.000872656
0.00672458
0.00671909
0.00672599
0.00672655
0.00322327
0.0061784
0.000149831
0.00671697
0.00166099
0.00671701
0.000647943
0.00152143
0.000482873
0.00156256
0.000120129
0.00130495
0.00198794
0.00144165
0.0011782
0.00671715
0.00120732
0.00170731
0.00157645
0.000827176
0.00117077
0.000705965
0.00304523
0.00322206
0.000754612
0.00680031
0.000346939
0.00674079
0.000359541
0.00111523
0.000721281
0.00162007
0.00257501
0.00671641
0.00109552
0.0056126
0.0005453
0.000861518
0.000914039
0.000704163
0.000557397
0.00671561
0.000981455
0.00675461
0.0011329
0.00676653
0.000995018
0.00114284
0.000931299
0.000247117
0.00120006
0.00412735
0.00421381
0.00672364
0.0067273
0.00047632
0.00253446
0.00672404
0.00208208
0.00672334
0.000847085
0.000235441
0.000734801
0.00121019
0.000799119
0.00673681
0.00137179
0.00672112
0.000469792
0.00100263
0.00252362
0.00672554
0.0011088
0.000251037
0.0008749
0.00063704
0.0018682
0.000366191
0.000332557
0.00671617
0.00338797
0.00229739
0.00672751
0.000424155
0.00186518
0.000599051
0.000393332
0.00066676
0.000707074
0.00146907
0.000665754
0.00142639
0.000557196
0.00052243
0.00671814
0.000892771
0.00220746
0.0032453
0.000808615
0.000436398
0.00199111
0.00672606
0.00309653
0.00119925
0.000572189
0.000554728
0.00673001
0.000574519
0.00185753
0.00134401
0.0010092
0.00423925
0.00380189
0.000686066
0.0025218
0.00275158
0.00672041
0.000666765
0.00673198
0.000940518
0.000123213
0.00118708
0.000872494
0.000831606
0.00106602
0.000937733
0.00672592
0.00118577
0.00100104
0.00671864
0.000263221
0.0067174
0.000600217
0.00671999
0.000668906
0.00036183
0.000990484
0.000903541
0.00674783
0.000309201
0.0004559
0.000172763
0.00671718
0.000629476
0.000868924
0.00671622
0.000962432
0.000843857
0.000236885
0.00229192
0.00672131
0.00198018
0.00046852
0.00125444
0.00104706
0.000543721
0.00672736
0.00515922
0.000660585
0.00673106
0.000834139
0.00161839
0.00671933
0.00672611
0.00674655
0.00674042
0.000941496
0.00672394
0.000401176
0.00673888
0.00480436
0.00672013
0.00118387
0.0067218
0.000670866
0.00554143
0.000369092
0.000875545
0.000685283
0.00600485
0.000538343
0.000731167
0.00221649
0.00104109
0.00291731
0.000992628
0.000664285
0.000963474
0.00109806
0.000727029
0.000311732
0.00672023
0.00162804
0.00408277
0.000383585
0.000972975
0.00672404
0.00280749
0.00671629
0.000769759
0.00227496
0.00358786
0.000745274
0.000777357
0.000102188
0.0011735
0.00130172
0.000960224
0.000890159
0.00038673
0.000208077
0.00672626
0.000605335
0.00672567
0.00159285
0.000280255
0.000906162
0.00675635
0.000990575
0.00673747
0.000558983
0.00114791
0.00277333
0.00100801
0.000228021
0.000776627
0.000657781
0.000986951
0.00128147
0.000307623
0.00204207
0.000471335
0.00672197
0.000480636
0.00671841
0.000935528
0.000715365
0.000785361
0.00674202
0.00403426
0.000567273
0.000835871
0.000846584
0.00102467
0.00195896
0.00676102
0.00672608
0.00672606
0.00198018
0.00113715
0.000564966
0.00210013
0.00201586
0.00674543
0.00117506
0.00672219
0.00116419
0.000328598
0.0021635
0.000364569
0.00113684
0.00672106
0.000214996
0.006731
0.000170417
0.00671659
0.000859945
0.00673092
0.00237361
0.000999399
0.00672441
0.00121879
0.000544399
0.00672074
0.00623771
0.000870341
0.00576967
0.000657883
0.000647074
0.00100523
0.00125562
0.00133659
0.000687197
0.00671656
0.00128155
0.000672548
0.000944777
0.000636661
0.000800631
0.00103038
0.00673595
0.000780224
0.00672175
0.00138883
9.54792e-05
0.00676137
0.00672998
0.000522375
0.000914441
0.0025225
0.000809928
0.00566919
0.00098718
0.00132618
0.00100271
0.00250614
0.0011459
0.00671733
0.00468251
0.000919035
0.00673675
0.00147059
0.0067603
0.00277485
0.000733974
0.00128771
0.00606462
0.00075991
0.00672876
0.000316573
0.000559603
0.0026622
0.00127276
0.000156063
0.00192567
0.000796354
0.00671773
0.00100997
0.000792967
0.000714306
0.000132517
0.000645475
0.00675284
0.00675601
0.00130685
0.0067255
0.00258627
0.00176059
0.00026522
0.000824923
0.00104941
0.00676421
0.000610605
0.00672635
0.00671931
0.00403339
0.000408612
0.00249754
0.00673137
0.00673538
0.00081201
0.00196877
0.00110848
0.00671933
0.00407742
0.000487152
0.000945617
0.000792944
0.00185589
0.000779586
0.000993598
0.00672564
0.00153601
0.00671849
0.0014183
0.00672771
0.000845478
0.000565938
0.00672335
0.00115607
0.00254
0.00159279
0.000543045
0.000435006
0.00527448
0.000346842
0.00672991
0.000964082
0.000724395
0.00102277
0.00671647
0.00676189
0.00189528
0.00160679
0.00672658
0.00672555
0.000295286
0.000594098
0.00126859
0.0067397
0.00674903
0.00672238
0.00673461
0.000214261
0.00675993
0.0011634
0.000902775
0.000806973
0.000564212
0.00673299
0.000808122
0.0043363
0.00215077
0.000114493
0.000933518
0.00124985
0.000694194
0.000390775
0.000867206
0.00672622
0.00095784
0.00675745
0.000896142
0.000934651
0.000642421
0.000474512
0.000540778
0.000382718
0.00237144
0.00078218
0.00671718
0.0010167
0.000594598
0.00288714
0.000972237
0.00129985
0.00384784
0.000559426
0.000809405
0.00601999
0.000949491
0.0067256
0.00671918
0.00672242
0.0012021
0.000166435
0.000995734
0.000199494
0.000607011
0.00535281
0.000913281
0.00170083
0.00672487
0.000776724
0.000944213
0.00202973
0.00525838
9.79955e-05
0.00164768
0.00359241
0.00678069
0.000887008
0.000970687
0.00110953
0.000278013
0.00672575
0.00672412
0.00173485
0.000769956
0.00672445
0.000224224
0.00672466
0.00137002
0.00672928
0.0017684
0.00035483
0.00671913
0.000903578
0.000668274
0.00454595
0.000804198
0.00116074
0.00672578
0.000855387
0.00265262
0.00672577
0.000560995
0.00672458
0.000687222
0.00042846
0.0054996
0.000776686
0.000722767
0.00056734
0.00103955
0.00120761
0.00671539
0.00672224
0.000648035
0.000192453
0.00675876
0.00671537
0.000946511
0.000855228
0.00485449
0.00115569
0.0008916
0.00060303
0.00109698
0.00131103
0.00672564
0.00131796
0.00124479
0.000984452
0.00672391
0.0006642
0.00672862
0.00112468
0.000789603
0.000978314
0.000821961
0.000679627
0.00170506
0.00150977
0.00134434
0.00164719
0.00169607
0.000699755
0.00111667
0.000900666
0.00671623
0.00672812
0.000772292
0.0012023
0.000780123
0.000873305
0.00672434
0.00675004
0.000625724
0.00473177
0.00672897
0.000404995
0.00672536
0.00105564
0.00203962
0.00208164
0.00672529
0.000761628
0.00486395
0.00672587
0.00388603
0.000937808
0.0067168
0.000743616
0.00131244
0.000318917
0.000258921
0.000789488
0.000210025
0.0013491
0.0013344
0.000577192
0.000848909
0.00181726
0.00672604
0.000658537
0.00241521
0.00111325
0.000835884
0.000730118
0.00671666
0.00079551
0.000244031
0.00415839
0.000672035
0.000122589
0.0016383
0.00552316
0.000514389
0.00093446
0.000849584
0.000893282
0.00090778
0.000392215
0.00672199
0.00674096
0.00671916
0.00161113
0.00125606
0.000434502
0.00313781
0.000277931
0.00111031
0.000720429
0.000401787
0.00113858
0.000404
0.00671967
0.00672045
0.00281661
0.000452532
0.0004443
0.00152862
0.00130753
0.000559209
0.00671751
0.00672244
0.00134073
0.00674878
0.00137316
0.00217239
0.00294474
0.000956082
0.000768809
0.00288184
0.00674693
0.00117839
0.00140551
0.000888774
0.000888914
0.00340406
0.000616525
0.00065122
0.000433337
0.000749306
0.00101501
0.00116312
0.00100488
0.000670518
0.000490657
0.00123353
0.0067423
0.000854087
0.00145333
0.00556657
0.00065579
0.000512258
0.000463568
0.000502868
0.000800079
0.000688548
0.00058137
0.00187166
0.006726
0.00671636
0.000568393
0.0067258
0.0019612
0.000187307
0.00672578
0.0001359
0.00367611
0.00672622
0.00674164
0.000823237
0.000501817
0.00107027
0.00674358
0.00110491
0.000963225
0.00399695
0.000296325
0.000740706
0.00120013
0.0011459
0.00205443
0.0010855
0.00136555
0.000190083
0.00104677
0.000566336
0.00180551
0.00671808
0.00672165
0.00672326
0.00063457
0.00228141
0.000825271
0.00116234
0.00672293
0.0034741
0.000387855
0.00150596
0.00128265
0.00245895
0.00672623
0.00053245
0.00673115
0.000902401
0.00677289
0.000327371
0.00672871
0.000960997
0.000805002
0.000532421
0.0028796
0.00449953
0.00375279
0.00465889
0.000806272
0.000557571
0.00151903
0.000645894
0.00166596
0.000934034
0.00213455
0.00672534
0.000846764
0.000501368
0.00114673
0.00310633
0.00601456
0.000154197
0.00108235
0.000270392
0.00050929
0.00230689
0.0067168
0.000504973
0.00141541
0.000499515
0.00672269
0.000887355
0.00527114
0.00679606
0.00095443
0.00128343
0.000567907
0.000569766
0.00138239
0.000364581
0.00180265
0.00489344
0.000564928
0.00671708
0.00672607
0.00275419
0.000904412
0.000354722
0.000138185
0.00673604
0.00117267
0.00139526
0.00676434
0.000796968
0.0067176
0.00417257
0.00375397
0.00124693
0.000920786
0.00110436
0.000897865
0.00407121
0.00198911
0.0055321
0.00205093
0.00115806
0.00145236
0.00031828
0.00232475
0.0023708
0.000405294
0.00675902
0.00672506
0.00189511
0.000795963
0.0011197
0.000483539
0.00228664
0.00086191
0.000480547
0.000631709
0.00122972
0.00144109
0.000663792
0.000951408
0.00674415
0.00149792
0.000619587
0.0015523
0.00491048
0.00671961
0.00172055
0.00672104
0.00127552
0.00288725
0.00666585
0.00675782
0.00100506
0.00459956
0.00166918
0.00667827
0.0015325
0.00672513
0.0067229
0.00616027
0.0013042
0.00672638
0.00672178
0.00407608
0.000187343
0.000170007
0.000790432
0.00153098
0.000571057
0.00088705
0.00260405
0.00114912
0.00672852
0.00359663
0.000884785
0.000923083
0.000581471
0.00208812
0.00243065
0.00232941
0.00140297
0.00121572
0.000891458
0.00080962
0.000520782
0.00145014
0.000507315
0.000350657
0.00093698
0.000789464
0.0014058
0.00114739
0.00242145
0.000601418
0.00672721
0.000320399
0.00670854
0.000268875
0.00671837
0.00672648
0.00143687
7.53602e-05
0.000961962
0.00115637
0.00672631
0.000750681
0.00672578
8.22023e-05
0.00672166
0.00431829
0.00673138
0.000420912
0.00672375
0.0008978
0.00090836
0.00672632
0.00309959
0.000734977
0.00407012
0.00672566
0.000955786
0.000627906
0.00219128
0.000747986
0.000859934
0.00672329
0.00226074
0.00671661
0.00102106
0.00168151
0.00104055
0.00125506
0.000839282
0.00371543
0.00672649
0.000323059
0.000740669
0.00282928
0.00671821
0.000208939
0.0004178
0.00679418
0.000887685
0.000813402
0.00027984
0.000626544
0.00107452
0.0060614
0.00672488
0.00133859
0.000637652
0.00203483
0.0010667
0.000961508
0.00129123
0.000628982
0.00139133
0.000815647
0.00159627
0.00153039
0.006728
0.00094907
0.00295105
0.000996582
0.000106461
0.00093029
0.000899393
0.000920694
0.00142311
0.000677489
0.0019588
0.00673779
0.000634462
0.000988302
0.00381001
0.0067151
0.000612021
0.00672061
0.000559214
0.000420486
0.00674667
0.000751312
0.00110064
0.00131767
0.00218843
0.00019404
0.000661062
0.0006051
0.000472125
0.00137144
0.00156029
0.000749909
0.00575322
0.00132426
0.00072733
0.00115732
0.00102074
0.000244097
0.00679508
0.000847165
0.000846606
0.00672072
0.00124251
0.00109597
0.00121488
0.000270517
4.20264e-05
0.000812989
0.00673252
0.00672406
0.00147279
0.000608726
0.00101047
5.24218e-05
0.000476147
0.00121748
0.000455411
0.00352189
0.000220937
0.00115025
0.00206449
0.000453206
0.00671672
0.00104151
0.00147691
0.000230491
0.0067347
0.00105759
0.00134606
0.00114455
0.00224265
0.00101122
0.00434331
0.000473093
0.00109444
0.00104504
0.000718752
0.000746705
0.00158534
0.00673511
0.000310736
0.00674639
0.00290475
0.00152857
0.00086134
0.00671916
0.000888518
0.0067245
0.00074182
0.000402388
0.00261935
0.000642608
0.00677095
0.000872025
0.000642292
0.00179312
0.000228767
5.70397e-05
0.000907048
0.00675842
0.00672492
0.00676534
0.000576924
0.000752876
0.00148314
0.00672446
0.00139585
0.00113712
0.00175976
0.000505404
0.00022179
0.00115051
3.5926e-05
0.000561629
0.00674437
0.000322749
0.000733052
0.0016282
0.000700145
0.00160306
5.98665e-05
0.000854085
0.00200571
0.00207348
0.000706192
9.14635e-05
0.000250424
0.00068024
0.00186
0.00476794
0.000925617
0.0067886
0.00134917
0.00102467
0.000379096
0.00147295
0.000689637
0.000697162
0.00673472
0.000258809
0.00129626
0.000659702
0.00100303
0.00173651
0.000620448
8.52746e-05
0.00439044
0.000688471
0.000912428
0.00164492
0.00675178
0.000346176
0.00198121
0.000863711
0.0007633
0.000704097
0.00102949
0.000796089
0.00671845
0.000607076
0.000114563
0.00300094
0.00040628
0.00673286
0.00672835
0.000123123
0.00474798
0.000577523
0.00672435
0.00139673
0.00199833
0.00072411
0.000862838
0.00160271
0.00673484
0.00155017
0.00461095
0.00112277
0.00158011
0.00260188
0.000645363
0.000688845
0.00672547
0.000404753
0.00675038
0.000184854
0.000522006
0.000142728
0.00512308
0.000930818
0.000659073
0.00110636
0.000762859
0.00089201
0.00673919
0.00673598
0.000848673
0.00123953
0.000852789
0.00138902
0.00172693
0.00673662
0.00117257
0.00671684
0.00672954
0.00672323
0.00114498
0.000713083
0.00672706
0.000712943
0.00671932
0.000263085
0.000637052
0.0045729
0.00672244
0.00175366
0.0067337
0.00672473
0.00155045
0.00671648
0.000679068
0.00165661
0.00269696
0.00111892
0.00672237
0.00671977
0.000733441
0.000848692
0.000748182
0.00672056
0.00154822
0.000870951
0.00671656
0.00112611
0.00123064
0.00073574
0.00198385
0.000984676
0.000384048
0.00134182
0.0013096
0.000699148
0.000149095
0.00543459
0.000246216
0.000254557
0.003373
0.00157063
0.000934485
0.000596897
0.00162835
0.00677068
0.00121876
0.00105763
0.00673199
0.00288914
9.58656e-05
0.00105362
0.000516901
0.00153142
0.00672156
0.00673956
0.000424351
0.000776252
0.000758287
0.00468198
0.000435193
0.00676223
0.00672197
0.000393077
0.00108288
0.0021648
0.000365345
0.00101843
0.00319142
0.00147797
0.000967093
0.00671732
0.00082763
0.00162206
0.000939358
0.00672577
0.00672364
0.0067244
0.00116245
0.000725057
0.000682639
0.00672512
0.000939717
0.000703409
0.000971644
0.00672124
0.00131708
0.000390595
0.000103138
0.00672491
0.000555441
0.000953834
0.000929134
0.000826432
0.000571993
0.000300733
0.00067798
0.000353704
0.00363819
0.000775659
0.000709072
0.00047396
0.00108152
0.000643343
0.00672345
0.00068527
0.00081942
0.00323917
0.00672071
0.00673788
0.00266873
0.000596089
0.000295111
0.000844034
0.000996669
0.000908635
0.00671701
0.00094005
0.00676946
0.00138925
0.0020419
0.00132343
0.000569555
0.00612431
0.00181139
0.00388565
0.00135393
0.00141911
0.00672767
0.000668724
0.00135068
0.000137131
0.00675698
0.00083206
0.00218945
0.00413789
0.000777613
0.00175119
0.00284826
0.000792123
0.006733
0.00124133
0.000467745
0.00674175
0.0067173
0.000111086
0.000445203
0.000572677
0.00100059
0.000691472
0.00675825
0.00672492
0.000900345
0.000255283
0.000941586
0.000625938
0.000732185
0.00673264
0.000868064
0.000310067
0.00173123
0.00672384
0.00200563
0.00671923
0.000525523
0.000264392
0.00260537
0.0028757
0.000122778
0.000127647
0.000658681
0.00179696
0.00030316
0.00087536
7.66492e-05
0.000925261
0.000865501
0.00238319
0.0031138
0.000915949
0.000908174
0.00088995
0.00153329
0.00615814
0.00319185
0.00185529
0.000843953
0.000697307
0.0031963
0.00673535
0.00153614
0.00128678
0.0067428
0.00136559
0.000631676
0.00154885
0.00197125
0.00179297
0.00179228
0.00672075
0.00674272
0.000976461
0.00103532
0.000797539
0.00105325
0.0067234
0.000525095
0.00281097
0.000494142
0.000161282
0.00223396
0.000732598
0.0003001
0.00133059
0.000875869
0.000867678
0.00253633
0.00133957
0.00673434
0.0013371
0.00134113
0.00673298
0.00195462
0.000886695
0.000978172
0.00070499
0.00132657
0.000861213
0.00162118
0.00672553
0.000464456
0.00446742
0.00673699
0.00181428
0.000348791
0.000485156
9.73679e-05
0.00105945
0.00498206
0.000750311
0.000343444
0.00023563
0.000390209
0.000247333
0.000886726
0.000797514
0.000769346
0.000290641
0.00172305
0.00671882
0.00126707
0.00084067
0.00122522
0.000838699
0.00402452
0.000694647
0.00062063
0.000397693
0.00674402
0.00305858
0.000202594
0.000643022
0.000939647
0.00185872
0.00254951
0.00111731
0.000464374
0.000791844
0.00116213
0.00671834
0.00498285
0.0067231
0.00200617
0.00430835
0.000673635
0.000441067
0.000581093
0.000689899
0.000506455
0.00672485
0.000569445
0.00656419
0.00295576
0.00084434
0.00121222
0.0009016
0.00329203
0.00672456
0.000288594
0.00292988
0.00672197
0.00593735
0.00673527
0.0013809
0.00672558
0.000531895
0.00672351
0.00672524
0.000269339
0.000948779
0.0067679
0.000865126
0.000242448
0.000429336
0.000352712
0.000474584
0.00673049
0.00579053
0.000342232
0.00676764
0.000395565
0.00240417
0.00139975
0.00672121
0.00671821
0.00290748
0.00107965
0.00190787
0.00147991
0.000276382
0.00507013
0.00199522
0.000742498
0.00672433
0.00272108
0.00671572
0.000533308
0.00672639
0.00104502
0.000640153
0.00673292
0.00445999
0.000426823
0.000719405
0.00192557
0.000237197
0.000542461
0.00109729
0.00347028
0.00275391
0.00113211
0.000559203
0.00672545
0.000528085
0.000415129
0.000709125
0.00125554
0.000723965
0.000720339
0.00104617
0.000255713
0.000493865
0.000764678
0.00112898
0.000725739
0.000700474
0.00172912
0.00304802
0.0066212
0.000343843
0.00679487
0.00671829
0.00595108
0.000159678
0.00113308
0.000819347
0.00672789
0.00138552
0.000699691
0.0013147
0.000648957
0.000757525
0.000787785
0.000893215
0.00632325
0.000517245
0.000127413
0.00171969
0.00218521
0.0006901
0.000348572
0.000669833
0.00071738
0.00671913
0.00228072
0.000859745
0.00205875
0.000905005
0.0013659
0.00655562
0.00672613
0.00074264
0.000500383
0.000483206
0.00103154
0.00672476
0.00137939
0.000437871
0.00120995
0.000108621
0.000617319
0.00672634
0.000422231
0.00672203
0.000819698
0.000934745
0.000992033
0.00672382
0.000344852
0.00672577
0.00445877
0.000878427
0.00672486
0.0010961
0.00390368
0.000224983
0.000696896
0.00348177
0.000177365
0.000867421
0.000102483
0.00316553
0.00671919
0.000620715
0.00301622
0.000896041
0.00672612
0.00676437
0.000668172
0.000330425
0.00196279
0.000471308
0.00671743
0.000124288
0.0032253
0.00672677
0.000866182
0.000755417
0.000815032
0.000436458
0.00137207
0.00434363
0.000895152
0.000964679
0.00672621
0.00174924
0.000582315
0.000176181
0.000597292
0.000848102
0.0032797
0.000897495
0.00056781
0.00067237
0.00672004
0.00127748
0.000593584
0.00140869
0.000198844
0.00136529
0.00189302
0.00161701
0.00672601
0.000958107
0.00676866
0.000730445
0.000952976
0.00672441
7.78683e-05
0.000101582
0.000533904
0.000902587
0.000667137
0.00136234
0.002348
0.00114295
0.000741204
0.00673826
0.000590785
0.000504573
0.00528912
0.00672345
0.000121167
0.00671926
0.00114547
0.00673351
0.00123175
0.000586748
0.000100781
0.00149641
0.000749505
0.00208988
0.00543122
0.000301072
0.0056994
0.00673015
0.000321655
0.000615811
0.00299067
0.00139167
0.00277379
0.00179016
0.000844757
0.000969895
0.00672608
0.00129434
4.64007e-06
0.000161948
0.00191278
0.000387789
0.00533381
0.00553391
0.000948883
0.00672467
0.00355836
0.000240901
0.00672699
0.001036
0.00120083
0.00672482
0.0067193
0.00214853
0.000670129
0.00147994
0.0013297
0.000446068
0.000458037
0.00324603
0.000692014
0.000446693
0.00117861
0.000329788
0.000243072
0.000881308
0.000995263
0.000524896
0.00135734
0.000655755
0.000164029
0.00116457
0.00100633
9.28784e-05
0.00104096
0.00126098
0.00130803
0.000471335
0.000769117
0.0016443
0.000198222
0.00259328
0.00351589
0.00672577
0.00106639
0.00126323
0.000594131
0.000908494
0.00672511
0.0046561
0.00142792
0.00494631
0.000416401
0.00189153
0.00250241
0.00137959
0.00113012
0.000909088
0.000743262
0.00116165
0.00131873
0.000484905
0.000807729
0.00172897
0.000186925
0.00175074
0.00124128
0.00197605
0.00106212
0.00671982
0.000922093
0.00675525
0.00672745
0.000631384
0.000913966
0.00672005
0.000135247
0.000394279
0.00066384
0.00673832
0.00112988
0.00123767
0.000790642
0.00029916
0.00018833
0.00199864
0.00672588
0.00675895
0.000320065
0.000527623
0.00672738
0.0019786
0.00170989
0.000244527
0.00136375
0.000422894
0.000302625
0.00116008
0.000802202
0.00107684
0.000871616
0.000222832
0.000763681
0.00127796
0.0012504
0.00671745
0.00672561
9.01048e-05
0.000595248
0.000982241
0.00139512
0.00133782
0.00074658
0.00672573
0.000556225
0.00672448
0.00105331
0.000213605
0.00015366
0.00141881
0.0067295
0.000758216
0.00172165
0.000208905
0.00461707
0.000982861
0.00023999
0.000850552
0.000806525
0.00674162
0.000898048
0.00673235
0.00175303
0.000826083
0.000255029
0.000721611
0.00218533
0.000698045
0.000773925
0.000267519
0.00037097
0.00673283
0.000734036
0.000435927
0.00507056
0.00672623
0.00106598
0.00161674
0.000920627
0.00673605
4.61715e-05
0.00158038
0.00143449
0.00672742
0.00672298
0.000419759
0.0067233
0.000547747
0.00679366
0.00672379
0.000802854
0.000605335
0.00532707
0.000458857
0.00673746
0.0006729
0.0019606
0.00512417
0.00178976
0.000411974
0.000532857
0.000664175