/*--------------------------------*- C++ -*----------------------------------*\
| =========                 |                                                 |
| \\      /  F ield         | OpenFOAM: The Open Source CFD Toolbox           |
|  \\    /   O peration     | Version:  v2012                                 |
|   \\  /    A nd           | Website:  www.openfoam.com                      |
|    \\/     M anipulation  |                                                 |
\*---------------------------------------------------------------------------*/
FoamFile
{
    version     2.0;
    format      ascii;
    class       volVectorField;
    location    "300";
    object      U_0;
}
// * * * * * * * * * * * * * * * * * * * * * * * * * * * * * * * * * * * * * //

dimensions      [0 1 -1 0 0 0 0];


internalField   nonuniform List<vector> 
13308
(
(1.10665 0.122869 -9.22482e-21)
(1.10047 0.0495294 -8.62889e-21)
(1.059 0.159889 -2.32735e-21)
(1.01651 0.0328583 -1.31028e-20)
(0.980128 0.0187158 4.15671e-21)
(1.06838 0.0461853 2.46565e-21)
(0.968853 0.0414686 0)
(1.01405 0.154129 -7.79271e-21)
(0.995618 0.0407147 -5.45148e-21)
(1.00089 0.00783209 9.31751e-21)
(1.03357 0.119641 -5.87689e-22)
(0.749636 0.127545 0)
(1.10529 0.155946 0)
(0.971197 0.0415385 -9.33621e-21)
(0.989405 0.0404912 2.6983e-20)
(0.980925 0.0199257 9.68333e-21)
(1.03269 0.0187639 5.37154e-21)
(1.02002 0.0182046 0)
(1.10272 0.116569 1.83347e-20)
(1.08717 0.0304437 1.08439e-20)
(0.986596 0.00694866 9.2412e-21)
(1.0215 0.0100393 -1.42779e-21)
(1.02169 0.00965775 9.82117e-21)
(1.12134 0.170752 0)
(1.0582 0.159392 7.89742e-22)
(1.02826 0.0253186 2.25601e-20)
(0.765156 0.130946 -6.9867e-21)
(1.02071 0.0103144 -1.13038e-20)
(0.674232 0.117233 3.32076e-21)
(1.01948 0.0089502 2.57585e-20)
(0.983551 0.162329 0)
(1.03987 0.170477 -1.8168e-22)
(1.10853 0.163738 0)
(0.893958 0.150717 0)
(1.10466 0.119262 -2.6746e-22)
(1.01589 0.0337404 0)
(1.02244 0.0095248 0)
(1.007 0.02867 0)
(1.01366 0.0337894 1.42783e-20)
(1.01087 0.0587274 7.41705e-21)
(0.987211 0.0782609 4.44201e-22)
(1.03066 0.0459911 1.49932e-20)
(1.01423 0.156361 9.34817e-21)
(0.996247 0.0822924 2.89001e-20)
(1.03256 0.169948 8.40108e-22)
(0.591424 0.102581 0)
(1.02097 0.0279227 0)
(0.995492 -0.000424967 -1.94164e-20)
(1.03714 0.0687326 -9.43846e-21)
(0.999892 -0.000426923 0)
(0.982857 0.163607 0)
(1.10713 0.0390167 0)
(1.01921 0.00824374 0)
(0.613381 0.105611 -1.47413e-21)
(1.06565 0.0506546 -3.72365e-21)
(1.0301 0.0441088 -1.64374e-20)
(1.05145 0.0414001 2.55568e-21)
(0.994541 0.00275385 0)
(1.00041 0.00801655 -1.3067e-20)
(0.925788 0.108279 0)
(1.03303 0.019419 0)
(0.994321 0.0026146 3.79148e-23)
(1.04706 0.0660949 6.97348e-21)
(1.00897 0.0594719 3.74117e-21)
(1.02815 0.0239737 -1.19853e-20)
(1.0412 0.0189629 0)
(1.09878 0.0481708 -1.23075e-20)
(0.836735 0.143157 0)
(0.784826 0.133505 -2.1458e-22)
(1.01946 0.0177289 0)
(1.00032 0.000358798 -3.15848e-20)
(1.04736 0.0645824 -2.47756e-21)
(1.02612 0.0132419 0)
(1.05547 0.0199269 1.23046e-22)
(1.03002 0.0386075 6.68087e-21)
(0.996983 -0.000776346 1.07243e-21)
(0.860207 0.146485 -5.06996e-21)
(1.05881 0.130041 -4.29105e-21)
(1.10433 0.164268 2.97534e-20)
(1.04955 0.0624718 1.05982e-21)
(1.02323 0.00821847 1.44276e-20)
(0.956105 0.109208 0)
(1.02999 0.0187491 8.37255e-21)
(0.989068 -0.00143701 3.12623e-20)
(1.03224 0.170098 -1.62609e-21)
(0.940422 -0.0266236 0)
(1.00457 0.00252302 1.13309e-20)
(0.932897 0.0999437 0)
(0.931854 0.10466 2.7775e-20)
(0.987808 0.00612138 0)
(1.00013 0.00741496 0)
(1.00884 0.166997 0)
(1.05132 0.132646 -1.38757e-22)
(0.941388 0.129474 -3.01271e-20)
(0.942642 0.0693964 -5.00704e-20)
(1.05163 0.126886 -2.20036e-22)
(1.02325 0.00798828 0)
(1.07128 0.151819 6.31323e-21)
(0.994167 0.083972 -4.24426e-20)
(1.09421 0.0944715 -8.90017e-21)
(1.10759 0.0920934 0)
(0.994875 -0.00080296 0)
(1.02332 0.0261766 -1.24015e-20)
(1.00315 0.0479913 3.95793e-20)
(1.02589 0.0129312 -1.62989e-21)
(1.00139 0.00361205 0)
(1.15836 0.140839 -1.61237e-20)
(0.922815 0.106539 2.67227e-20)
(1.08542 0.0344234 0)
(1.0961 0.157351 0)
(0.984429 0.132648 0)
(1.03863 0.169979 0)
(1.00018 0.00730172 0)
(1.08591 0.171893 -2.13372e-20)
(1.10624 0.0950105 0)
(1.11128 0.160621 -6.0827e-21)
(0.887184 -0.0263932 2.86484e-20)
(0.96439 0.0973652 0)
(1.0327 0.0535796 4.39774e-21)
(0.983425 0.13367 1.11134e-20)
(0.944587 0.0664624 0)
(0.993093 -0.00596659 1.23741e-20)
(0.992962 -0.0141368 -2.72331e-22)
(0.943985 -0.0304548 0)
(0.960052 0.136035 0)
(0.946631 0.0210605 -7.08642e-23)
(1.0424 0.171199 0)
(0.980766 -0.0214787 2.52319e-21)
(0.999772 -0.000421643 -2.89946e-20)
(0.974582 0.169745 0)
(1.05706 0.156013 1.69283e-21)
(1.07279 0.0578389 2.17527e-21)
(1.01483 0.0331407 -8.88437e-21)
(1.06394 0.107663 -2.35034e-21)
(0.991644 -0.0134373 3.8099e-20)
(1.03208 0.0754288 -3.44813e-21)
(0.995276 0.0413043 1.25393e-20)
(1.0222 0.0264655 1.0885e-20)
(1.09849 0.158043 -1.6779e-20)
(1.00151 0.0480281 -2.77405e-20)
(1.17434 0.151534 -1.16652e-20)
(0.87445 0.148757 2.35754e-20)
(0.879874 0.149106 9.48236e-21)
(0.960888 0.0939435 1.60367e-20)
(0.762612 0.129482 1.23686e-20)
(0.872173 0.197477 -7.76264e-21)
(1.03884 0.0691328 1.60251e-20)
(1.0102 0.00086406 1.93775e-20)
(0.989984 -0.00412513 1.23477e-20)
(0.929962 0.158008 -7.97676e-21)
(1.14386 0.174086 -6.23004e-20)
(0.992703 0.0410263 -1.5026e-20)
(1.08717 0.0301569 -9.24648e-21)
(1.00609 0.0280581 0)
(1.01836 0.007809 0)
(1.03193 0.0723558 3.06788e-21)
(1.00143 0.00324926 0)
(0.988164 0.0758432 0)
(0.958051 0.134012 0)
(0.898961 0.151363 1.26139e-20)
(0.971455 0.126048 6.52127e-21)
(1.04775 0.170576 -7.96097e-22)
(0.962339 0.0987456 0)
(0.991873 0.0420631 1.34263e-20)
(1.01928 0.00128572 -1.95969e-20)
(0.840892 0.18981 0)
(1.00138 0.103473 5.33448e-21)
(1.17292 0.143431 -4.61869e-20)
(1.05951 0.157442 1.12997e-21)
(1.16353 0.0990552 -2.14868e-20)
(1.00057 0.150749 1.39906e-20)
(1.10379 0.0363927 -8.01533e-21)
(1.01757 0.169666 0)
(1.10292 0.155594 3.1403e-20)
(1.02846 0.0957024 9.92476e-21)
(1.0001 0.000621808 0)
(1.05737 0.0200769 -5.41506e-22)
(1.04239 0.155665 0)
(1.01421 0.0304114 1.38633e-20)
(1.00426 0.0302199 1.89608e-20)
(0.96838 0.12195 0)
(1.0331 0.053161 4.50787e-21)
(1.02773 0.0260556 6.55529e-21)
(0.986143 0.165246 6.85637e-21)
(0.953864 0.0520809 -5.31475e-22)
(0.996214 0.0439539 0)
(0.992571 -0.0125395 -4.24506e-20)
(1.04261 0.019101 0)
(1.02193 0.00131141 1.45674e-21)
(0.959123 0.0926512 -3.48017e-20)
(1.07255 0.0574914 5.26152e-22)
(1.07448 0.0546522 -5.85607e-22)
(0.84209 0.198411 3.99853e-20)
(1.15102 0.17261 2.40234e-20)
(1.15598 0.135982 -2.62475e-20)
(1.05899 0.155758 -5.61489e-21)
(1.05803 0.131256 3.25786e-21)
(0.986199 -0.0196274 -3.68657e-20)
(1.03215 0.0178526 0)
(1.00159 0.148338 -1.12306e-20)
(1.13934 0.15692 0)
(1.00994 0.105793 0)
(1.0099 0.118343 0)
(1.0264 0.043598 -8.52087e-21)
(0.903008 0.0856553 0)
(1.05663 0.153516 -4.25117e-21)
(0.955622 0.0552297 -1.60579e-20)
(1.02379 0.063459 1.32598e-20)
(0.990617 -0.00422321 0)
(1.05718 0.0555421 8.67031e-23)
(1.0982 0.0914977 1.3129e-20)
(1.11775 0.17264 -2.19388e-22)
(1.00022 0.000304729 4.29834e-20)
(0.971994 0.159951 0)
(1.01018 0.117249 0)
(0.956347 0.110317 -8.14743e-22)
(1.02621 0.0122512 0)
(0.863808 0.231291 -2.68058e-21)
(1.0224 0.0172745 0)
(1.02233 0.017215 2.01905e-20)
(0.990194 0.0384343 -2.71878e-20)
(0.999877 0.00260596 0)
(0.98721 0.028957 0)
(1.01251 0.132648 0)
(1.01001 0.011754 1.62179e-20)
(1.10193 0.154345 -1.97048e-20)
(0.999458 0.103627 8.88394e-21)
(0.999797 -0.00172448 5.92656e-21)
(0.968607 0.157633 1.02192e-20)
(0.964475 0.107458 3.6067e-20)
(1.0492 0.0633311 0)
(0.998282 0.00163444 -3.79026e-20)
(1.00989 0.00093527 5.77931e-21)
(1.04069 0.0257795 -4.38195e-21)
(0.940524 0.0784668 0)
(0.991902 0.0544911 0)
(1.02592 0.0136515 1.15896e-20)
(1.02248 0.00309876 3.76498e-21)
(1.07451 0.0548524 1.16506e-21)
(0.995052 0.0111048 -2.77626e-20)
(1.00331 0.0598833 -7.81887e-21)
(0.89928 0.085903 0)
(0.993614 -0.00486327 -2.16367e-20)
(1.04243 0.157092 8.47322e-22)
(0.842647 0.0249236 6.87194e-20)
(0.929961 0.0275521 2.5117e-20)
(1.14154 0.155686 0)
(1.01798 0.0675443 2.1769e-20)
(0.992029 -0.014751 0)
(1.02881 0.092334 0)
(1.05341 0.132377 0)
(1.01035 0.0115804 -1.21123e-20)
(0.872834 0.203588 6.80892e-21)
(1.00048 0.000276716 -2.01803e-20)
(1.00009 0.000695181 0)
(0.969673 0.112132 4.51553e-20)
(1.0186 0.00848455 1.20047e-20)
(0.995664 0.00993935 2.60492e-20)
(0.984961 0.0252363 1.20166e-20)
(0.966234 0.098541 0)
(1.03622 0.119964 -4.22512e-21)
(1.02624 0.012342 -5.52985e-21)
(1.02777 0.0259991 -5.20345e-21)
(1.04065 0.0176198 -1.67914e-21)
(0.859949 0.145976 -5.17437e-21)
(1.01306 0.0309271 0)
(1.09469 0.159551 0)
(0.967049 0.123391 3.1261e-20)
(1.08971 0.172122 -1.61917e-21)
(1.01102 0.133882 0)
(1.01949 0.00527727 1.45047e-24)
(1.02055 0.117793 0)
(0.945308 -0.00772121 -1.19005e-20)
(0.999083 0.0833815 1.36573e-20)
(0.957486 0.132725 0)
(0.952121 0.129696 1.0372e-23)
(1.02224 0.00281878 0)
(0.888312 -0.0250601 -1.06833e-19)
(1.07039 0.153347 -8.20243e-21)
(1.05394 0.0385709 0)
(0.938344 -0.0313898 0)
(0.985025 0.0248977 2.23306e-20)
(1.07049 0.15034 5.97916e-21)
(1.1616 0.0998689 -4.40991e-20)
(1.12149 0.116484 0)
(0.999892 0.00259454 0)
(0.99546 -0.0105 -1.96539e-20)
(0.91563 0.146178 -3.35643e-20)
(1.02955 0.0196298 0)
(1.07968 0.0399311 3.10544e-21)
(1.05361 0.161685 -3.08519e-21)
(0.995912 0.165267 -3.53537e-20)
(1.10575 0.15789 -3.19577e-20)
(0.855812 0.144865 1.07007e-20)
(0.962426 0.107526 0)
(1.02256 0.00935137 0)
(1.0189 0.066839 -3.04876e-20)
(0.976183 -0.0229862 4.89369e-20)
(0.652818 0.109009 0)
(0.977924 0.0149084 2.76407e-20)
(0.848205 0.144051 -3.19977e-21)
(1.06287 0.0538226 0)
(1.05089 0.117825 -5.87898e-22)
(1.00873 0.00158811 2.13541e-20)
(1.0057 0.136407 -2.40124e-21)
(0.989196 -0.00255778 0)
(1.13907 0.070726 2.61896e-20)
(0.91975 0.11096 2.1338e-22)
(0.94549 -0.0238482 0)
(1.01124 0.0103857 1.85295e-21)
(1.08408 0.0702913 0)
(1.11215 0.0949423 -1.82215e-20)
(0.985591 0.163968 5.55087e-21)
(0.965713 0.0325655 6.04741e-20)
(0.958747 0.135368 5.81388e-21)
(0.85627 0.146279 -1.30861e-20)
(1.03298 0.155681 0)
(1.08345 0.0388775 -1.85346e-21)
(0.957877 0.135022 -5.85296e-21)
(1.04935 0.102542 -8.75657e-22)
(0.94322 -0.00617528 -1.61415e-20)
(0.986808 0.132259 -1.04387e-20)
(1.06305 0.0538729 0)
(1.02894 0.0190202 0)
(1.1192 0.0413475 0)
(0.971626 0.127206 -9.06174e-21)
(1.0259 0.0424422 2.41033e-20)
(0.9902 -0.000552566 1.82182e-20)
(1.10716 0.0400847 5.07386e-21)
(0.964052 0.0236449 -1.0333e-20)
(1.10316 0.145428 1.47709e-20)
(0.952861 0.130001 -6.64123e-24)
(0.920867 0.0896452 -8.17112e-20)
(0.933292 0.0243219 -5.8332e-22)
(1.00834 0.105687 -4.50228e-21)
(0.984199 0.164513 0)
(0.960863 0.134819 0)
(0.966775 0.0662677 -1.86514e-20)
(1.02731 0.0276623 6.8355e-21)
(1.08615 0.0432049 0)
(1.13429 0.157993 0)
(0.998152 -0.000306778 3.4199e-20)
(0.9398 0.078671 0)
(0.922976 -0.0384032 -1.74892e-20)
(1.10549 0.0452918 0)
(0.998064 0.00137816 1.95266e-20)
(1.00351 0.058268 -8.39099e-21)
(0.997134 0.0398087 0)
(0.985818 0.0286627 2.30139e-20)
(0.951308 0.128093 -3.59182e-20)
(1.04292 0.0561698 -6.64887e-21)
(0.990038 0.0538736 0)
(0.935201 0.102123 -2.45398e-22)
(1.02356 0.0652626 0)
(0.916217 0.145104 -3.76924e-20)
(0.990277 0.0404774 -1.52254e-20)
(1.00476 0.116099 0)
(1.01318 0.159738 3.06076e-21)
(1.02959 0.155783 -4.97615e-21)
(0.986883 -0.0197899 2.44769e-20)
(0.916463 0.107332 -2.7478e-20)
(1.08547 0.0347951 0)
(0.743975 0.127515 -1.13566e-20)
(0.945523 0.0239448 5.48058e-20)
(1.10266 0.153388 9.66537e-21)
(1.02906 0.0547309 1.7902e-20)
(0.84105 0.0268823 3.45161e-20)
(1.04371 0.156854 0)
(0.99973 -0.0025039 -3.54974e-20)
(1.0506 0.101676 -9.12449e-22)
(1.08762 0.149538 1.06423e-20)
(0.912695 0.156256 2.51137e-21)
(1.11145 0.141744 -1.60543e-20)
(0.842716 0.226925 2.01412e-20)
(0.981617 0.100487 0)
(0.95109 0.0496039 3.06383e-20)
(0.940576 0.167564 0)
(0.997054 0.051837 -3.5627e-23)
(0.885289 0.187662 -5.35293e-20)
(1.02242 0.0628297 0)
(0.988071 -0.0188219 -2.49618e-20)
(0.985709 0.134656 -1.27756e-20)
(0.979248 -0.0237489 -2.64629e-21)
(0.788472 0.140521 -1.31172e-19)
(0.939282 0.125677 -1.5741e-22)
(0.982744 0.00496094 -1.21309e-20)
(1.05025 0.0388219 2.83144e-21)
(1.04801 0.117754 1.81444e-21)
(1.026 0.027871 5.57619e-21)
(1.15335 0.17442 1.42993e-20)
(0.964266 0.163335 3.73134e-20)
(1.0468 0.0773838 8.07134e-21)
(0.997468 0.0845617 0)
(0.719547 0.121614 1.80478e-20)
(1.04881 0.0772398 7.18714e-22)
(0.869696 0.141734 1.51734e-20)
(0.990905 -6.87644e-05 -1.40612e-20)
(0.924239 -0.0414579 7.40194e-20)
(0.956521 0.138486 -2.05652e-20)
(0.83988 0.143312 -2.81272e-21)
(1.1294 0.112696 1.79048e-20)
(0.966624 0.116077 -2.34416e-20)
(0.983466 0.0047208 -5.24708e-21)
(1.00542 0.136027 0)
(1.04604 0.0785498 -8.98867e-21)
(1.01996 0.008683 -1.23947e-20)
(0.957233 -0.0404533 8.54767e-21)
(1.00133 0.00337163 0)
(0.991569 0.158832 0)
(1.07785 0.112408 -1.52957e-20)
(0.883433 0.188586 0)
(0.834853 0.142405 0)
(1.03166 0.156824 2.38537e-21)
(0.989391 0.0376159 0)
(1.1579 0.172175 -4.01178e-22)
(1.0545 0.0620492 1.83116e-21)
(1.1546 0.0979749 1.86829e-20)
(0.98997 -0.000951546 -1.514e-20)
(1.00473 0.001368 0)
(1.03094 0.0543547 -1.99179e-20)
(1.07138 0.0353273 0)
(0.99445 -0.00468074 2.09857e-20)
(1.13402 0.110967 3.73823e-20)
(1.04946 0.0763552 -9.95264e-22)
(0.971466 0.158288 1.27304e-20)
(1.1431 0.0651465 0)
(0.922639 -0.0189209 3.52066e-20)
(1.12161 0.173108 0)
(1.05379 0.163679 -1.50747e-21)
(1.10666 0.16246 -1.18991e-20)
(0.965524 0.0327264 -3.60285e-20)
(1.12095 0.173204 0)
(0.824751 0.140301 -2.91064e-22)
(0.965312 0.114758 0)
(1.00418 0.0131231 9.12408e-23)
(1.06365 0.129768 0)
(1.02845 0.0197552 0)
(1.02835 0.0398289 -6.69286e-21)
(1.05666 0.0555569 0)
(0.960628 0.0652646 1.7353e-20)
(1.00381 0.00262416 0)
(0.993136 0.00597144 -3.82694e-21)
(0.973087 -0.0110596 0)
(0.92932 0.102689 -7.76721e-21)
(1.02411 0.0253283 2.91954e-20)
(0.898116 0.151456 -9.46614e-21)
(1.00371 0.147998 1.1912e-20)
(1.00085 0.00377781 0)
(0.916253 0.010803 2.35889e-20)
(0.953086 0.129846 -4.11494e-20)
(1.12663 0.145805 -2.67572e-20)
(0.990032 0.0360744 -2.74147e-20)
(0.960969 0.0608672 6.84547e-20)
(1.05934 0.0524838 8.54291e-23)
(0.966516 0.117847 1.24271e-20)
(0.720042 0.122099 4.27243e-20)
(1.01449 0.0323956 -8.90996e-21)
(1.02368 0.0413635 2.31536e-20)
(1.03553 0.155346 0)
(1.10899 0.147108 9.42222e-21)
(1.02631 0.0559845 0)
(1.07717 0.113645 8.59862e-21)
(1.07051 0.0333554 8.85492e-22)
(1.00043 0.000163733 2.54567e-20)
(1.03507 0.0516687 1.13684e-20)
(1.0828 0.0686825 0)
(1.01289 0.0295377 0)
(0.959707 0.158702 -1.77276e-20)
(1.06063 0.056594 -6.46425e-22)
(1.00793 0.0407192 -5.26562e-21)
(0.888258 0.0815086 2.5934e-20)
(1.00671 0.0590961 2.05367e-20)
(1.13167 0.110556 -3.467e-20)
(0.963677 0.136837 3.10369e-20)
(1.00367 0.0027444 2.32766e-20)
(0.998881 -0.00307725 1.7431e-20)
(0.980803 0.0900856 0)
(0.999024 -0.00251595 0)
(1.03779 0.122232 3.88378e-21)
(1 0.000111197 2.16996e-20)
(0.973238 0.125224 0)
(1.00097 0.00363635 0)
(0.975482 0.116014 0)
(0.877007 0.106762 -1.51672e-20)
(1.01588 0.0217887 -1.17202e-20)
(1.03299 0.17032 1.60545e-21)
(0.988652 0.0623012 1.30116e-20)
(1.05248 0.170623 -2.39587e-21)
(1.0197 0.00591165 -2.11575e-20)
(0.96877 0.111782 -4.10709e-20)
(1.1036 0.0348554 -4.6342e-21)
(0.946517 0.159034 4.16799e-21)
(1.02065 0.0271521 1.15455e-20)
(1.12926 0.114738 0)
(1.04399 0.0566897 6.94724e-21)
(1.07408 0.129504 0)
(1.15163 0.136923 1.53354e-20)
(0.988548 -0.000973921 -7.64775e-21)
(0.954441 -0.039209 -3.42037e-20)
(0.99748 0.0385831 0)
(0.964515 0.0637493 3.70592e-20)
(0.767317 0.130754 1.21673e-20)
(1.04926 0.127184 -9.51631e-22)
(1.0346 0.170473 1.47357e-21)
(1.0615 0.107626 1.03648e-21)
(0.809727 0.139038 0)
(0.988387 -0.00346704 -1.75066e-20)
(1.10154 0.150888 -1.96288e-20)
(1.10595 0.0463825 1.64226e-20)
(1.04931 0.170858 -1.11947e-21)
(0.990552 0.0622105 0)
(0.916841 0.153217 -1.38644e-21)
(1.06146 0.169721 2.69361e-20)
(1.1299 0.0634848 -9.16219e-21)
(1.01466 0.0675183 -7.48862e-21)
(0.953655 0.124872 -3.29375e-20)
(1.01317 0.160925 2.37222e-22)
(0.994915 -0.0114735 2.05514e-20)
(1.05489 0.135381 -9.39633e-22)
(1.00578 0.0597032 -3.80322e-20)
(1.12529 0.116609 -1.91768e-20)
(0.873119 0.148451 0)
(1.02428 0.0436567 -7.99804e-21)
(0.956124 0.135444 0)
(0.956027 0.205502 3.5701e-20)
(0.967507 0.158246 0)
(1.13304 0.141153 -4.3112e-20)
(0.968708 0.121348 0)
(0.988556 0.163674 1.18485e-20)
(1.10925 0.120729 0)
(0.999365 0.00425726 0)
(0.998162 -0.000392413 -1.72376e-20)
(1.13007 0.173044 2.37017e-20)
(1.10266 0.108682 0)
(1.0083 0.0942151 2.11324e-21)
(1.02207 0.0761449 3.9113e-21)
(1.00421 0.115289 7.75744e-21)
(0.981337 0.101116 1.52565e-20)
(0.952176 0.130441 0)
(0.998485 -0.000569889 -2.95637e-20)
(1.05479 0.153561 1.28895e-21)
(0.930075 0.156958 -2.36263e-21)
(0.714049 0.120558 1.1292e-20)
(1.02417 0.0759001 8.2031e-21)
(0.999088 0.00428029 3.9021e-20)
(1.05208 0.128424 -3.10636e-24)
(0.999203 -0.000805168 1.55937e-20)
(0.728956 0.123144 -9.40433e-21)
(1.10009 0.157017 2.01974e-20)
(1.12834 0.142947 3.28804e-20)
(1.00204 0.00426017 -1.34806e-20)
(0.996913 -0.000792417 0)
(0.942053 0.157934 0)
(0.995627 0.00275631 -3.31033e-20)
(1.10595 0.126816 4.03405e-22)
(1.02225 0.00210193 0)
(1.16093 0.0932821 -5.54241e-20)
(1.02196 0.0273036 6.71141e-21)
(1.09956 0.150192 -9.6633e-21)
(1.02369 0.00774114 -1.20389e-20)
(0.995195 0.0108004 2.6441e-20)
(1.00191 0.00043877 1.18482e-20)
(1.07013 0.131191 0)
(0.953715 0.0534767 0)
(0.99471 -0.00383436 0)
(0.883358 0.0217254 3.3334e-20)
(1.04752 0.153749 1.40764e-22)
(1.10446 0.122335 -8.80488e-21)
(1.00004 0.000337392 0)
(1.00045 0.0035834 0)
(1.06258 0.17202 -7.62356e-21)
(1.00468 0.00202002 -1.69767e-22)
(0.974353 0.0115076 5.04977e-20)
(0.659702 0.111957 1.53732e-21)
(1.00217 0.00402825 2.71656e-20)
(0.720959 0.122511 -2.80142e-20)
(1.03443 0.0732663 1.59893e-21)
(0.999902 0.000448023 1.77166e-20)
(0.811722 0.0425964 0)
(1.0159 0.0664587 1.61568e-20)
(1.0072 0.0953594 0)
(0.979975 0.0905388 0)
(1.02198 0.117171 0)
(1.02436 0.0410876 -1.46518e-20)
(1.07245 0.130942 0)
(0.995348 0.00259323 -1.11345e-20)
(1.10013 0.032012 -1.91172e-20)
(0.990191 -0.0185142 -2.27026e-20)
(0.995213 0.139497 0)
(0.962835 0.137735 -2.39366e-20)
(1.02097 0.0503599 -6.52813e-21)
(1.019 0.00125861 2.82851e-20)
(0.961527 0.0611956 -1.77743e-20)
(1.11391 0.140774 0)
(1.02733 0.0734007 0)
(0.969634 0.110195 -4.04284e-20)
(1.03032 0.0720485 0)
(1.07947 0.127351 0)
(1.05502 0.0621328 -1.58104e-21)
(0.862556 0.146307 -6.54325e-21)
(1.13734 0.173953 0)
(1.00145 0.00343741 -1.40731e-20)
(1.00231 0.00439636 -3.70157e-20)
(1.01375 0.0290893 3.44828e-21)
(0.972291 0.0447781 1.0406e-20)
(1.02272 0.0679097 -8.00528e-21)
(1.03742 0.170153 -1.35334e-21)
(0.867853 0.121412 -2.21153e-20)
(1.15106 0.134677 -1.38609e-20)
(1.03447 0.0523891 -2.13715e-20)
(1.00259 0.00397775 2.35537e-20)
(1.02368 0.00743054 1.13993e-20)
(0.87139 0.133363 0)
(1.09622 0.171774 -3.27491e-20)
(0.970398 0.0650472 1.88695e-20)
(1.13634 0.158447 1.94402e-20)
(1.01733 0.0501706 6.08394e-23)
(1.01171 0.0126584 1.87461e-20)
(0.955693 0.149162 1.35379e-20)
(0.956885 0.135434 0)
(0.952537 0.122561 3.07672e-20)
(1.11791 0.0476953 3.54899e-21)
(1.07684 0.128714 6.21447e-21)
(1.0914 0.172692 -2.92378e-20)
(0.991628 0.157691 3.81111e-21)
(1.00047 0.00374672 -1.51359e-20)
(0.794846 0.136742 2.01272e-23)
(1.05454 0.151569 0)
(1.08681 0.148245 0)
(0.911307 0.0781252 2.2017e-20)
(0.88365 0.149293 6.35483e-21)
(1.0215 0.0491111 -1.12585e-20)
(1.00449 0.00229571 9.15017e-23)
(1.01106 0.00962611 2.82495e-23)
(0.978363 0.133409 -1.47197e-20)
(0.97989 -0.00984222 -2.5792e-20)
(0.974321 -0.00501011 -2.37605e-20)
(0.994728 0.0453487 0)
(0.986396 0.122906 4.50703e-21)
(0.997804 0.160164 -1.38567e-22)
(0.803622 0.132836 -2.72213e-20)
(0.987857 0.164768 6.2048e-21)
(0.940169 0.175699 0)
(1.00301 0.00294702 2.53838e-20)
(0.973853 0.0108767 -3.04909e-20)
(0.978019 0.0147701 0)
(0.940571 -0.00690135 1.7545e-20)
(0.99916 0.00401137 -5.08133e-20)
(1.00282 0.00271664 3.39725e-21)
(1.04025 0.12147 -1.80518e-21)
(1.00269 0.149435 1.30328e-20)
(1.02395 0.0251546 -1.2536e-20)
(1.07119 0.171825 1.21373e-20)
(1.02147 0.0013065 -3.99215e-21)
(1.03663 0.169475 -3.09723e-22)
(0.96809 0.114486 -2.08902e-20)
(1.03937 0.0243849 4.46699e-21)
(1.03267 0.0200251 1.33274e-20)
(1.00837 0.00509747 -3.73191e-21)
(1.06433 0.109535 2.13248e-21)
(0.925245 -0.0132324 3.33983e-20)
(1.02791 0.0558715 0)
(1.01573 0.0488143 0)
(0.929992 0.155994 1.28033e-21)
(1.07894 0.128303 -5.94767e-21)
(1.00103 0.00318988 2.67103e-20)
(1.03287 0.151941 0)
(0.988557 -0.0194227 6.51323e-21)
(0.992533 -0.0110959 3.07226e-20)
(1.00525 0.0293739 0)
(1.11471 0.174032 1.91474e-20)
(0.981854 0.133604 1.32917e-20)
(1.04292 0.116334 1.94871e-21)
(0.928388 0.0234626 -8.2778e-20)
(0.987529 0.0179872 2.47052e-20)
(1.11342 0.0465824 0)
(0.923071 0.088006 0)
(1.00672 0.00113176 0)
(1.07059 0.0297768 7.81418e-21)
(0.99484 0.167002 1.00189e-20)
(0.827279 0.140866 -5.85144e-21)
(1.04545 0.12775 -1.01254e-21)
(1.00047 0.167302 8.13061e-21)
(1.00087 0.000616845 5.65879e-24)
(1.0569 0.0287398 0)
(0.963138 0.160861 0)
(0.999836 0.00237369 1.46419e-20)
(0.979385 0.130156 -1.21073e-20)
(1.06542 0.0503499 4.89796e-22)
(0.998267 0.0197702 0)
(1.03979 0.018831 8.4648e-21)
(1.02041 0.0676166 0)
(0.930144 0.157652 0)
(0.999968 0.00035353 -1.56703e-20)
(0.991091 0.07421 5.2888e-20)
(1.04075 0.10353 3.52385e-21)
(1.06056 0.161799 6.03481e-22)
(1.0219 0.00172399 4.12783e-21)
(0.99577 0.00237671 -2.16696e-20)
(0.951333 0.0884071 -5.06265e-20)
(1.00847 0.0139666 2.10102e-20)
(1.03916 0.0935407 -7.99733e-21)
(0.952946 0.160163 -1.80073e-20)
(1.11292 0.0875591 -9.41494e-21)
(1.01096 0.010445 -1.49225e-20)
(0.936554 0.156941 0)
(1.02364 0.156656 1.97971e-21)
(1.06259 0.131613 -2.79999e-21)
(1.00902 0.0144568 1.13049e-22)
(1.09407 0.162643 1.53705e-20)
(1.04043 0.0926744 5.058e-21)
(0.898807 0.152717 5.56436e-21)
(0.928855 0.0206058 6.64153e-20)
(1.00464 0.00191477 0)
(1.01034 0.0104774 0)
(0.996295 0.050312 5.16681e-20)
(1.00117 0.00362257 0)
(0.88392 0.119086 -5.3044e-21)
(1.0192 0.0504509 0)
(1.0258 0.156371 2.08398e-20)
(0.996935 -0.00303244 4.36618e-20)
(1.02225 0.105383 7.41613e-21)
(0.916835 0.154818 0)
(1.00227 0.0250897 2.90923e-20)
(1.01198 0.0123101 0)
(1.04551 0.126445 -1.34271e-21)
(1.04466 0.169072 9.08126e-21)
(0.802194 0.0562725 -1.14546e-20)
(0.988611 0.145591 -1.05646e-20)
(1.00673 0.00224958 2.42484e-20)
(0.997364 -0.000789398 -3.26044e-20)
(0.964679 0.15774 -1.94616e-20)
(1.00006 0.000389699 -1.90744e-20)
(0.999515 -0.00110605 9.24636e-21)
(0.964619 -0.024891 3.53468e-22)
(0.821652 0.139632 3.2983e-21)
(0.981005 0.133306 0)
(1.12834 0.172536 -1.97598e-20)
(1.00382 0.0142773 1.88099e-23)
(1.13186 0.138788 2.19766e-20)
(1.01589 0.152832 7.62009e-21)
(1.00815 0.00545141 -5.77891e-23)
(0.971857 0.110487 6.09651e-20)
(1.04397 0.113483 4.39952e-23)
(0.996684 -0.0036274 -1.71758e-20)
(1.00686 0.0014744 0)
(1.01292 0.0675498 9.39789e-21)
(1.03863 0.104596 -6.15368e-21)
(0.940981 0.135847 0)
(1.0118 0.0676316 -2.32923e-20)
(1.02685 0.156152 -1.55341e-20)
(0.981331 -0.0255718 -3.3858e-20)
(1.12764 0.171994 0)
(0.982129 0.0020079 3.92974e-20)
(1.10163 0.147006 -1.35551e-20)
(0.998573 0.158876 -1.603e-20)
(0.999249 -0.000880812 -8.64856e-21)
(1.09548 0.161249 -1.65573e-20)
(1.04208 0.0793999 -2.9283e-21)
(0.999842 0.00221395 -1.36199e-20)
(1.02008 0.0833585 -1.21055e-20)
(0.941972 0.135455 5.11179e-21)
(0.997862 0.0199873 -1.79673e-20)
(1.0033 0.0222895 1.44681e-20)
(0.983509 0.023142 -2.58033e-20)
(0.992725 -0.00967391 -1.0386e-20)
(0.959794 0.0644208 1.75955e-20)
(0.988789 0.0176512 -2.22713e-20)
(0.956599 0.1493 5.16681e-21)
(1.08619 0.0430016 0)
(1.02209 0.155122 1.02971e-20)
(0.998555 -0.000621141 3.15069e-20)
(1.04341 0.126279 2.92826e-21)
(0.87257 0.126315 1.29102e-20)
(0.983982 0.164479 0)
(1.02242 0.106002 0)
(1.16475 0.171275 0)
(1.00034 0.166867 0)
(1 8.60908e-05 -2.08205e-20)
(1.00687 0.168045 0)
(1.02851 0.0478058 4.67094e-22)
(1.01613 0.0227397 0)
(0.98796 0.00559488 1.76866e-20)
(1.0551 0.0265191 1.38204e-22)
(1.00438 0.00282451 -1.30874e-20)
(1.03107 0.0393227 -1.34387e-20)
(0.862081 0.146723 -1.9063e-20)
(0.937952 0.157661 0)
(0.917919 0.154371 -1.81723e-20)
(1.08169 0.0431953 -4.21399e-21)
(0.998821 0.0041257 -1.86919e-20)
(0.964231 0.00312041 2.2637e-20)
(0.98462 0.010026 2.54848e-20)
(0.916586 0.0114116 -1.55887e-21)
(0.945361 0.193185 0)
(1.00849 0.0013768 1.27959e-20)
(0.952529 0.0868988 4.43896e-20)
(1.10419 0.107646 0)
(0.846785 0.143184 9.46436e-21)
(1.00017 0.000434039 2.24962e-20)
(0.999624 0.00458901 1.68366e-20)
(0.997361 -0.00452336 0)
(1.01013 0.0106364 1.26804e-20)
(0.980744 -0.0265191 3.38975e-20)
(0.992145 -0.0118976 -4.03995e-20)
(0.828599 0.165988 -7.0809e-20)
(1.00403 0.0015083 0)
(1.00423 0.0590788 1.69781e-20)
(1.00335 0.00420337 0)
(1.03983 0.164088 -1.2264e-21)
(1.02116 0.0666834 0)
(1.08775 0.171451 6.89615e-21)
(1.03735 0.0502184 1.72796e-21)
(0.953961 0.189582 -2.22264e-20)
(0.965223 0.114743 5.47474e-21)
(0.963653 0.0248791 0)
(0.990418 0.0758284 -1.42892e-20)
(1.02872 0.0734467 0)
(1.00314 0.0045676 3.56386e-23)
(1.03843 0.0808389 -1.55366e-20)
(0.976722 0.044417 -9.32818e-23)
(0.978847 0.144588 -2.07966e-20)
(0.989697 0.144761 1.04602e-21)
(0.929377 0.157062 0)
(1.05311 0.134733 -4.20974e-22)
(0.983662 0.0235689 -2.75416e-20)
(0.982026 0.0214265 0)
(0.920164 -0.0225185 0)
(1.01705 0.00140602 -1.67468e-20)
(1.15583 0.098497 -8.70966e-21)
(0.99232 -0.010774 1.20376e-20)
(0.949456 0.138658 0)
(0.966312 0.107625 -9.38185e-21)
(1.05089 0.130848 2.22912e-22)
(0.975258 0.115674 0)
(0.992087 0.0631581 2.88432e-21)
(1.00741 0.00414906 0)
(1.01829 0.0828575 2.90822e-21)
(0.988993 0.00538196 0)
(0.910035 0.106245 -1.07483e-19)
(0.920557 0.0150394 4.91181e-20)
(0.919994 0.0150522 -4.45992e-20)
(0.825715 0.136689 2.64999e-20)
(1.11047 0.0542817 2.19839e-20)
(1.0065 0.00244647 -2.47479e-20)
(1.04039 0.0804024 1.44184e-20)
(0.986437 0.00705001 -1.29735e-20)
(0.970945 0.0870288 0)
(1.02238 0.00127791 2.27921e-20)
(0.974712 0.126752 0)
(0.968402 0.0620838 0)
(0.864024 0.146182 -1.21186e-20)
(1.1487 0.158229 0)
(0.937241 0.0062378 1.03714e-22)
(0.982822 0.00228844 -2.06174e-20)
(0.984504 0.00997046 1.11537e-22)
(0.999808 0.00193515 4.17815e-20)
(1.0178 0.00529216 -1.10894e-20)
(1.10454 0.0494573 -2.83695e-21)
(1.0348 0.0299156 2.75914e-21)
(0.9955 0.00226044 3.62491e-20)
(0.963994 0.00285314 0)
(0.999819 0.00202549 -1.55579e-20)
(1.06806 0.0606153 -6.1165e-21)
(0.938398 0.165514 0)
(1.04305 0.124315 -1.56169e-21)
(0.986105 0.113866 2.83648e-20)
(1.11979 0.172953 -2.71767e-20)
(1.0053 0.0135548 0)
(0.938879 0.00267553 -6.33782e-20)
(0.999911 0.00310853 -5.14626e-20)
(0.883704 0.0200685 -7.57259e-20)
(0.882855 0.150177 1.28292e-20)
(0.996478 0.043217 -8.31058e-22)
(0.999849 -0.000534301 0)
(0.969435 0.0876177 -1.27788e-20)
(0.839882 0.0838632 -2.25734e-20)
(1.01914 0.151783 5.664e-23)
(1.1071 0.0583958 -1.24607e-20)
(0.977507 0.0431288 -2.18381e-20)
(1.13517 0.171613 2.14517e-20)
(0.860619 0.0243108 -1.48277e-20)
(1.00483 0.0015978 0)
(1.00664 0.0407781 -2.02003e-20)
(1.02364 0.0480368 0)
(0.994486 0.00364808 1.42728e-20)
(1.10384 0.160512 1.78095e-22)
(1.03665 0.0510412 0)
(0.89813 0.153853 4.94904e-21)
(1.14745 0.162376 0)
(1.05659 0.13076 6.24827e-22)
(1.04402 0.154963 0)
(0.998787 0.0644119 5.16775e-21)
(0.989069 0.166013 0)
(1.05796 0.0251807 8.80078e-23)
(1.11855 0.159785 -2.43155e-20)
(0.972388 0.155943 -3.59387e-23)
(1.00325 0.000881271 0)
(1.04395 0.0784974 2.00554e-21)
(1.02307 0.0466601 0)
(1.0079 0.0290321 -1.23636e-21)
(1.03619 0.122524 1.06543e-20)
(0.99983 0.167524 -7.14648e-21)
(1.04634 0.0236701 4.43773e-21)
(1 8.36498e-05 2.09478e-20)
(0.972234 -0.0116681 -3.76289e-20)
(1.00529 0.0958559 0)
(1.08629 0.151405 -1.41946e-20)
(1.12331 0.173904 2.02579e-20)
(0.996606 -0.00679946 -1.85153e-20)
(0.780728 0.128659 -5.0732e-20)
(0.992996 0.0622164 9.13316e-21)
(1.00628 0.105249 4.23857e-21)
(0.826037 0.14017 -4.46617e-21)
(1.02798 0.0221085 -5.352e-21)
(0.976921 -0.0206367 1.09636e-20)
(0.957581 0.14015 3.15671e-20)
(0.98923 0.0348188 0)
(1.02369 0.0393346 -1.63634e-20)
(1.00175 0.000479044 1.39402e-20)
(0.946414 0.161544 -4.37714e-20)
(0.99193 0.00214207 0)
(0.918136 0.155454 5.2521e-21)
(0.965627 0.157477 0)
(0.96399 0.0839595 5.10234e-20)
(1.03409 0.150592 -8.2864e-22)
(1.03445 0.156858 0)
(0.932225 -0.0222389 -1.45817e-20)
(0.957763 0.111073 1.03645e-20)
(1.00902 0.0104657 -2.35171e-20)
(0.972226 0.0639552 2.41673e-21)
(1.0246 0.153947 0)
(1.00211 0.00287194 4.03686e-20)
(0.970245 0.153476 -2.23918e-20)
(1.00325 0.0026923 -2.05125e-20)
(0.889252 -0.0315307 -1.14043e-19)
(0.998685 0.00357768 0)
(0.796341 0.133617 -1.07902e-20)
(1.12567 0.0731657 3.61743e-20)
(1.02302 0.15203 0)
(1.00085 0.158669 0)
(0.999434 0.014944 2.98185e-20)
(0.909919 0.156423 2.01263e-20)
(0.909671 0.106735 3.08396e-20)
(1.01461 0.16879 -5.37837e-21)
(1.00296 0.00399793 -4.17034e-20)
(0.911594 0.154751 6.16065e-21)
(0.995133 0.140487 0)
(1.0072 0.0037214 0)
(1.00523 0.104595 -6.06762e-21)
(1.03052 0.162476 -1.97686e-22)
(0.820873 0.0346864 -2.3036e-20)
(0.981577 -0.0234677 2.34131e-21)
(0.99989 0.00318645 3.25613e-20)
(0.988671 0.0531231 1.72755e-20)
(1.09943 0.173626 1.35242e-20)
(1.0545 0.0584709 -2.88156e-22)
(1.05259 0.0744628 -1.80091e-21)
(1.12288 0.0888788 2.3092e-20)
(0.994897 0.00400582 -1.52709e-20)
(1.00494 0.0223694 0)
(1.0709 0.0606827 6.85067e-21)
(0.99378 0.00543346 -2.90825e-20)
(0.996813 0.138914 0)
(0.954902 -0.0261876 2.01161e-20)
(1.01127 0.00306059 -7.40597e-22)
(0.999985 -0.000103147 0)
(1.00018 0.0151283 -2.73913e-20)
(0.999115 0.0130959 2.67844e-20)
(0.97821 0.132913 0)
(0.998861 -0.000729208 0)
(1.15124 0.0839151 8.91445e-21)
(0.997223 0.0113509 3.30296e-21)
(1.01963 0.0274662 0)
(0.998734 0.00388333 1.65198e-20)
(0.967372 0.164313 -4.42597e-20)
(1.00805 0.00832356 -2.35946e-20)
(1.05231 0.116477 5.64582e-22)
(1.0026 0.0216344 -1.47431e-20)
(0.682388 0.118949 1.86998e-21)
(1.07259 0.0795027 0)