/*--------------------------------*- C++ -*----------------------------------*\
| =========                 |                                                 |
| \\      /  F ield         | OpenFOAM: The Open Source CFD Toolbox           |
|  \\    /   O peration     | Version:  v2012                                 |
|   \\  /    A nd           | Website:  www.openfoam.com                      |
|    \\/     M anipulation  |                                                 |
\*---------------------------------------------------------------------------*/
FoamFile
{
    version     2.0;
    format      ascii;
    class       volScalarField;
    location    "300";
    object      nut;
}
// * * * * * * * * * * * * * * * * * * * * * * * * * * * * * * * * * * * * * //

dimensions      [0 2 -1 0 0 0 0];


internalField   nonuniform List<scalar> 
13749
(
0.00676845
0.00174029
0.00514028
0.00107132
0.00109265
0.000906903
8.84424e-05
0.00614013
0.00673125
0.000977396
0.00268345
0.00672082
0.00069992
0.0035915
0.00729026
0.0044142
0.0039348
0.00139083
0.00671991
0.00672296
0.00386899
0.00790751
0.00158134
0.00251394
0.000828176
0.00129416
0.00136499
0.00102252
0.00672479
0.00155591
0.00013691
0.00441407
0.000559865
0.00419827
0.00672989
0.00672283
0.00434831
0.00317616
0.00235016
0.00349352
0.000600894
0.000373915
0.000525035
0.000600298
0.00134191
0.00158067
0.00672098
0.000946306
0.00607092
0.00214775
0.00243938
0.00443147
0.00284796
0.000475546
0.000271386
0.00606313
0.000592661
0.000376546
0.00674163
0.00113906
0.00487156
0.00157152
0.00386982
0.00672097
0.00289371
0.00093453
0.00587664
0.00402578
0.00501353
0.00106203
0.00717205
0.00671455
0.00055496
0.00594957
0.0014593
0.000192246
0.0034093
0.0067437
0.000757333
0.00672537
0.0067235
0.00103232
0.00245296
0.00672577
0.000592673
0.000225187
0.00313882
0.00071853
0.0067282
0.00116017
0.00672149
0.000175568
0.00198111
0.000315714
5.57085e-05
0.00151154
0.00276907
0.00672465
0.00671774
0.000842533
0.00552658
0.00672248
0.00383666
0.00829327
0.00672526
0.00823945
0.000787308
0.00672907
0.00106477
0.00672342
0.00672084
0.00041959
0.000842238
0.00116827
0.00539113
0.00446343
0.00672176
0.000633594
0.0017415
0.00674212
0.00462371
0.00672439
0.00673868
0.00672328
0.00105889
0.00722861
0.000751203
0.00676279
0.00276614
0.000117756
0.000960524
0.00411721
0.00425092
0.000652537
0.000679079
0.00150311
0.00140354
0.00675199
0.00330308
0.000790476
0.00016996
0.00269927
0.00199377
0.00907575
0.00671816
0.000238251
0.000709711
0.000337914
0.00225668
0.0021794
0.00671776
0.00452052
0.00799074
0.000210705
0.00461904
0.00534401
0.000766354
0.000606681
0.00167547
0.00672476
0.00158812
0.0067187
0.00438627
0.000423742
0.00672241
0.00493929
0.000866889
0.00432414
0.00149559
0.00057956
0.00210397
0.00672376
0.00675542
0.0030175
0.0014728
9.49788e-05
0.000161608
0.00402845
0.00798333
0.00834367
0.00672555
0.00428375
0.00256065
5.19285e-05
0.00020941
0.00110416
0.00917246
0.00177313
0.000303212
0.00408467
0.00241214
0.00183413
0.0049663
0.000434629
0.00931194
0.000149887
0.000606504
0.00134077
0.0067594
0.00190603
0.00673722
0.002593
0.000522928
0.000572478
0.00327987
0.00256428
0.00673596
0.000559325
0.000547855
0.000680712
0.00437824
0.00235816
0.000378047
8.61251e-05
0.00111935
0.000597409
0.00365722
0.00356972
0.00336958
0.00672437
0.000428776
0.000713723
0.000644579
0.00204265
0.000400197
0.000161746
0.00289941
0.000217992
0.00215532
0.00179268
0.00586958
0.00672624
0.00672405
0.00672107
0.00694704
0.0013239
0.000230647
0.000411836
0.006723
0.00355834
0.00086729
0.003009
0.000144228
0.000970194
0.000562703
0.00918702
0.00135327
0.00239633
0.0014885
0.00672787
0.0035338
0.00163761
0.0067254
0.00241246
0.000187758
0.00223449
0.00659494
0.00249354
0.000176747
0.00358535
0.00674267
0.000379959
0.0011555
0.00180786
0.00232255
0.00142928
0.000784153
0.00120028
0.000142573
0.000189469
0.00671675
0.00441624
0.00236593
0.00907532
0.00207168
0.00552702
0.000393616
0.00497589
0.000230903
0.00300625
0.0067343
0.00675901
0.000183559
0.00466758
0.002004
0.00265692
0.000854119
0.00674301
0.000192381
0.00125942
0.000819096
0.0058191
0.00281629
0.00265359
0.00665302
0.000793252
0.00672531
0.00671908
0.00266861
0.00675412
0.00317406
0.00672799
0.0045531
0.00258817
0.00446667
0.00674413
0.00515368
0.00672254
0.00419554
0.00318218
0.00297734
0.000628656
0.00261931
0.00885506
0.00671625
0.00123812
0.0028652
0.00716668
0.00674277
0.00393459
0.000933899
0.000362714
0.00187057
0.00672624
0.000568368
0.00672561
0.00672709
0.00674065
0.00620434
0.00210219
0.00674098
0.00672098
0.00672447
0.000726917
0.00235088
0.00349261
0.00510772
0.00135378
0.00582588
0.000359116
0.00672606
0.000104866
0.00178593
0.000195323
0.000662595
0.00394756
0.00393028
0.00153113
0.00642556
0.00651611
0.00326078
0.00371135
0.00184616
0.000864094
0.0018584
0.00674245
0.000542889
0.00124101
0.000181307
0.000131644
0.00673048
0.00672602
0.00629876
0.00256876
0.000200769
0.00672561
0.000201036
0.00300471
0.00741139
0.00672442
0.006874
0.0029368
0.000318946
0.00672562
0.00672519
0.00242958
0.000189188
0.00198485
0.000432604
0.00266681
0.00672463
0.00672516
0.00796225
0.00177486
0.00672542
0.00681935
0.00318818
0.0042698
0.00672419
0.00485339
0.000923408
0.000646312
0.0091303
0.00375895
0.0012561
0.000237397
0.00112721
0.000112357
0.00157056
0.000335588
0.00671874
0.000581734
0.00671964
0.00188564
0.00435815
0.00231611
0.00262628
0.00129084
0.00206962
0.0050292
0.00283685
0.0029866
0.00208342
0.00809452
0.00039719
0.00672462
0.00722307
0.00696041
0.00443533
0.00182811
0.00625521
0.000622814
0.000185249
0.00525888
0.000661445
0.00671931
0.000161822
0.000688773
0.00316759
0.000149523
0.000758443
0.00672543
0.00120204
0.000418569
0.000603483
0.00151236
0.00227516
0.00279328
0.00301174
0.00846704
0.00673028
0.00265954
0.00672588
0.00269135
0.000964421
0.0067418
0.00671934
7.08497e-05
0.000876985
0.000395145
0.000182637
0.000885096
0.000148752
0.00617321
0.00889484
0.00139915
0.001226
0.000763126
0.00365664
0.00672418
0.00672064
0.00672615
0.00348695
0.00429344
0.00245727
0.00471107
0.00181703
0.000204
0.00149002
0.000719857
0.000609372
0.0067191
0.000208575
0.00540021
0.00493594
0.00673142
0.00217981
0.000580851
0.00672759
0.00247008
0.000811481
0.00471336
0.0067431
0.00233474
0.00359932
0.00026286
0.00422908
0.00364204
0.000820337
0.00392062
0.00297816
0.00559841
0.00672021
0.00378173
0.00674344
0.00364793
0.00904114
0.00266421
0.00117891
0.00674039
0.00213057
0.00210914
0.00428493
0.000374664
0.0029736
0.00391997
0.00241862
0.00188864
0.00421824
0.00681659
0.0067255
0.00370685
0.00673536
0.000347085
0.00365426
0.00228143
0.000316233
0.00105772
0.00361632
0.00671969
0.00117587
0.000146835
0.0019139
0.0024479
0.00151421
0.00623011
0.00672177
0.00134315
0.00203006
0.000465561
0.00349849
6.29557e-05
0.000313038
0.00450614
0.00335303
0.000763909
0.00414175
0.000864056
0.00302513
0.0072599
0.000630208
0.000230587
0.00162612
0.000784762
0.00324549
0.00261435
0.0005739
0.005504
0.00508681
0.000498647
0.00271976
0.00143516
0.00394125
0.00316515
0.00157076
0.00273472
0.00672207
0.00399956
0.00401128
0.00508497
0.00317627
0.00671938
0.00674812
0.00118326
0.00163101
0.00896814
0.00672478
0.00673041
0.00329843
0.00043078
0.00672479
0.000331779
0.00523598
0.00672067
0.00363355
0.00581733
0.00881832
0.00503221
0.00116207
0.000242088
0.00237694
0.00198305
0.00189114
0.000320402
0.000761239
0.00672578
1.43985e-05
0.00132041
0.00671916
0.0010326
0.00207609
0.00363232
0.0012763
0.000921568
0.00343023
0.000987104
0.00674229
0.00179716
0.00881981
0.00404256
0.00419205
0.00153246
0.00129882
0.00517553
0.00350794
0.00221673
0.00148348
0.00871085
0.0028057
0.00672572
0.00673642
0.00289744
0.00672116
0.00647003
0.00260146
0.00116115
0.000389022
0.000702679
0.00531854
0.00110329
0.000161533
0.00672985
0.000672789
0.00239131
5.00416e-05
0.00697548
0.00672506
0.00011985
0.00452589
0.006732
0.00174223
0.00675573
0.000163451
0.00672317
0.00314419
0.00671953
0.00389564
0.00389029
0.00202829
0.00576598
0.00673716
0.0062998
0.00672798
0.00697684
0.00067731
0.00341617
0.000699684
0.00272932
0.00101133
0.00724946
0.00672816
0.00315404
0.00247959
0.00674911
0.00672039
0.00218603
0.000325551
0.0049605
0.00212091
0.00672561
0.00297944
0.000472305
0.00672518
0.00107388
0.00672036
0.00393456
0.00221945
0.00672621
0.006723
0.00542752
0.0064963
0.00129802
0.000633411
0.00674296
0.00499354
0.000274138
0.0011236
0.00225995
0.00245596
0.00312673
0.00139497
0.00671853
0.000300378
0.000222891
0.00336848
0.00673907
0.000163714
0.000650506
0.00672375
0.00500759
0.00272574
0.000580675
0.00152268
0.00672284
0.00673902
0.00728446
0.000419401
0.00675981
0.000435541
0.00587289
0.00159284
0.00673762
0.00124644
0.00113134
0.00672553
0.00477332
0.000229882
0.00259515
0.00274957
0.000223216
0.0045048
0.000671591
0.00382709
0.000832091
0.00404268
0.00015962
0.00458569
0.00672406
0.00131504
0.000965763
0.000754099
0.000332295
0.00430617
0.00033003
0.00672392
0.00206213
0.00101651
0.00417597
0.0012846
0.000676534
0.00673438
0.000290984
9.44514e-05
0.000366181
0.000132795
0.00158437
0.00673864
0.0005563
0.00259324
0.00314989
0.00297691
0.00377674
0.00389451
0.00672547
0.00010202
0.00673302
0.00232427
0.00388206
0.000510087
0.000313858
0.00732811
0.00217522
0.00329314
0.00671905
0.00212675
0.000103296
0.00369814
0.00672792
0.00673262
0.00102357
0.00666514
0.00231065
0.00672474
0.00403713
0.000545241
0.00724304
0.00672579
0.00672409
0.00672329
0.00102082
0.000303791
0.00257157
0.00781266
0.000907783
0.000315224
0.00803911
0.00513938
0.00145636
0.00144971
0.00433687
0.00261097
0.00366182
0.00145495
0.00450256
0.00392876
0.00370788
0.00748888
0.00672347
0.00363423
0.00323811
0.00714216
0.00436139
0.00158786
0.0038039
0.00789397
0.0067334
0.000528823
0.00672344
0.0001915
0.00671919
9.19306e-05
0.000106083
0.000272373
0.00469984
0.00218155
0.00787148
0.000820762
0.00057088
0.0067202
0.00356891
0.00026092
0.00173796
0.000442756
0.00361035
0.00313823
0.00364488
0.00152749
0.00114664
0.00316604
0.000432603
0.00111129
0.000433004
0.00671996
0.00349732
0.000211275
0.00671965
0.00777573
0.00732513
0.00381589
0.00793518
0.00118503
0.00145965
0.00172046
0.000102649
0.00671855
0.000183389
0.000392736
0.0011949
0.000822692
6.7363e-05
0.000201748
0.0067324
0.000201852
0.00689749
0.00672409
0.00232624
0.00671907
0.00672123
0.00671953
0.00641464
0.00672497
0.00623234
0.00170084
0.006725
0.00359266
0.00651385
0.000370444
0.00471508
4.79809e-05
0.0067227
8.51743e-05
0.00790577
0.000604146
0.00153935
0.0017452
4.44488e-05
0.00064936
0.0066855
0.00016178
0.00672233
0.00683346
0.00101284
0.00378659
0.000803686
0.000502032
0.000101394
0.00113532
0.00672603
0.0041645
0.00545346
0.00311488
0.000223456
0.00218284
0.000831667
0.00316431
0.0016087
0.00317994
0.00671981
0.00718979
0.000868855
0.00672204
0.00432494
0.008097
0.00188118
0.000589309
0.00660071
0.006723
0.00186721
0.00109268
0.00435944
0.00448566
0.00672142
0.00672624
0.000708479
0.00724104
0.00673066
0.00671974
0.000547659
0.000242494
0.000478623
0.00672474
0.00674608
0.00675505
0.00672554
0.00672793
0.000269458
0.00107982
6.77007e-05
0.000294881
0.00416474
0.0015355
0.00167974
0.00672443
0.00465552
0.000205114
0.000243711
0.00132338
0.000150633
0.00672564
0.000185043
0.00216592
0.0026298
0.00672295
0.000611081
0.00124977
0.00672524
0.00176491
0.00673143
0.0027057
0.0014951
0.000194674
0.0067196
0.00673832
0.00672601
0.00122925
0.00781933
0.0067222
0.00879364
0.00671397
0.00673274
0.0026964
0.00672604
0.00437499
0.00508717
0.00548106
0.00672972
0.00671877
0.00155372
0.000134033
0.00683328
0.00592429
0.0025177
0.00672625
0.0020421
0.00327697
0.00144997
0.0048787
0.00667235
0.000765104
0.00262258
0.00678903
0.00150758
0.00197614
0.00672133
0.000208511
0.00341319
0.00451409
0.00785202
0.000327929
0.00672472
0.000657064
0.000238986
0.00672371
0.00130939
0.00313851
0.00772397
0.000579919
0.00179097
0.000926194
0.000238606
0.00672003
0.000565925
0.000401147
0.00672119
0.000185467
0.00672576
0.00672159
0.00468746
0.0067194
0.000502994
0.00853476
0.00675838
0.00567621
0.00836402
0.00672433
0.000199967
0.00776655
0.00160925
0.000367358
0.00272312
0.00074238
0.00373578
0.00156136
0.00314666
0.000198023
0.00672257
0.00803148
0.00110997
0.00186735
0.00672954
0.00863344
0.00672358
0.00629934
0.000811888
0.000315191
0.00653988
0.00195184
0.000182964
0.00246767
0.00227153
0.000666075
0.000280492
0.00422546
0.00496576
0.00672564
0.000542229
0.0067238
0.00408801
0.00345123
0.00672562
0.000781178
0.00261331
0.000222723
0.00232355
0.00672485
0.000855217
0.00371553
0.00240236
0.00897173
0.00678054
0.00173355
0.00467713
0.00732997
0.00311211
0.0021314
0.00672214
0.00309552
0.00672387
0.000848243
0.00672413
0.0036895
0.00057089
0.00257055
0.00235904
0.00672354
0.00672511
0.00431256
0.00672138
0.000608074
0.00101387
0.00672303
0.00401537
0.000386531
0.0022886
0.00403599
0.00673558
0.00891825
0.00110962
0.0029215
0.00430585
0.00672173
0.00673374
0.00209982
0.000157216
0.00364953
0.00282217
0.00184767
0.0041882
0.000679029
0.00672681
0.000753736
0.00601659
0.00490879
0.000831174
0.00365782
0.00346866
0.00319274
0.00672899
0.000125046
0.00672337
0.00259334
0.000155343
0.000367189
3.16595e-05
0.0043369
0.00231805
0.00110722
0.000146952
0.00310858
0.000321721
0.006723
0.00672986
0.00813686
0.0067234
0.00672546
0.00111143
0.00129046
0.00118087
0.00600621
0.000124344
0.00056184
0.00426237
0.00131625
0.000146816
0.0067222
0.00295572
0.00154795
0.0039751
0.00096837
0.000921565
0.00676271
9.5873e-05
0.00300919
0.00215317
0.00672131
0.00635531
0.00672421
0.00393888
0.00674048
0.00671977
0.00161325
0.00672175
0.00672016
0.00672159
0.00077708
0.00385774
0.000184802
0.00672012
0.00179702
0.00672834
0.00743025
0.00671933
0.00679169
0.000844028
0.00281406
0.00607619
0.000417289
0.00672364
0.00672502
0.00309785
0.00154753
0.00674312
0.00377916
0.0067407
0.00289217
0.0046971
0.000721304
0.0067312
0.000742759
0.00893633
0.00270577
2.20964e-05
0.00614635
0.00282874
0.00672025
0.0059652
0.0011069
0.00704264
0.00396646
0.00672564
0.00672237
0.000438147
0.00679547
0.00673347
0.000205942
0.00447145
0.00237246
0.00278814
0.000742348
0.00300421
0.00672405
0.00672014
0.00673347
0.00671928
0.00804931
0.00141345
0.00672135
0.00671916
0.00672171
0.00672622
0.0033782
0.00672632
0.00331405
0.00390091
0.000818674
0.00177197
0.0067255
0.00671927
0.00671815
0.000462806
7.1978e-05
9.99616e-05
0.00161531
0.0037991
0.00199218
0.00245364
0.00015963
0.00672629
0.0016975
0.00169239
0.000403299
0.00217776
0.00673311
0.000162087
0.00143427
0.00672096
0.00935351
0.00417251
0.00147524
0.00468941
0.00085303
0.00421255
0.00672128
0.00196135
0.00672321
0.00365
0.00106173
0.00177
0.0035861
0.00672567
0.00672392
0.00392461
7.7184e-05
0.00016707
0.000931898
0.00135399
0.00231044
0.000784537
0.000299744
0.00491532
0.00791033
0.000743756
0.000608975
0.00204534
0.00468
0.00671951
0.00679044
0.00203112
0.00172703
0.00232874
0.000874006
0.000304742
0.000323218
0.00672315
0.00261156
0.000912382
0.00672305
0.00672765
0.00122567
0.000621588
0.000930096
0.00343918
0.00672191
0.00170277
0.00672695
0.00241841
0.00100058
0.00672204
0.00672567
0.00672386
0.00833051
0.00160291
0.00672213
0.000181278
0.00154803
0.00620177
0.00242836
0.00146617
0.00672194
0.00673532
0.00672092
0.000971879
0.00671773
0.00115045
0.00182659
0.00911129
0.0067244
0.00293804
0.00503323
0.006724
0.00151086
0.00157022
0.0048083
0.0025176
0.000710882
0.00672646
0.00672431
0.000912497
0.00673059
0.00124779
0.00106082
0.0027491
0.0017093
0.00671981
0.00672379
0.00671991
0.00316742
0.00235677
0.00635595
0.00511821
0.00672557
0.00672335
0.00671833
0.00113393
0.00105167
0.00606118
0.0022674
0.00279426
0.00479043
0.00102724
0.000776095
0.00672158
0.000872387
0.00308592
0.00338763
0.00672193
0.000552223
0.0067191
0.00180943
0.00888637
0.00675931
0.000563483
0.00673455
0.00672422
0.00672534
0.00913909
0.000303974
0.00672122
0.000917037
0.000754055
0.000778098
0.0067211
0.000172745
0.000253361
0.006718
0.00718458
0.00165816
0.00187014
0.00672458
0.00444442
0.000636559
0.00303266
0.00671831
0.00262887
0.000631469
0.0067191
0.00129039
0.00282885
0.000612431
0.00672217
0.00371764
0.000537844
7.47719e-05
0.000199935
0.00815593
0.00468852
0.00124421
0.00646924
0.00303277
0.00672299
0.00154594
0.00541974
0.00672156
0.00355612
0.00472905
0.000255509
0.000635329
0.00616787
0.00672795
0.0067608
0.00671941
0.00395284
0.00672508
0.00100603
0.00127291
0.00671967
0.00175946
0.00266514
0.00701732
0.00177851
0.00157406
0.00382836
0.00159681
0.00672707
0.00672458
0.00231022
0.00010699
0.00813174
5.85066e-05
0.0067208
0.000639656
0.000586504
0.000124693
0.00362832
0.00851215
0.00011048
0.00137859
0.000336267
0.00672017
0.00672201
0.00672369
0.00672557
0.00131271
0.00180715
0.00645515
0.00103623
0.00672879
0.00672492
0.00341002
0.00633639
0.0030256
0.00363938
0.00894621
0.00672642
0.000623839
0.00149573
0.00671944
0.000499231
0.00672563
2.76394e-05
8.61728e-05
0.00655411
0.00672353
0.00672563
0.0021341
0.00672482
0.00335897
0.0082961
0.00391327
0.000439279
0.00585155
0.00106951
0.00648678
0.00672565
0.00672568
0.00135539
0.00168885
0.00137096
0.00467441
0.000447996
0.00560145
0.00435305
0.0067306
0.00818978
0.00672497
0.00672127
0.000221026
0.00672132
0.00661238
0.00129077
0.0013246
0.00672038
0.00420448
4.40077e-05
0.00415486
0.0063176
0.000401046
0.00672545
0.000596606
0.0047375
0.00108568
5.88233e-05
0.000882323
0.00607246
0.00675833
0.000586382
0.000460607
0.000856138
0.00367856
0.00672608
5.41661e-05
0.00671932
0.00672521
0.00671765
0.0003292
0.00672279
0.00671691
0.0059693
0.00341081
0.00399641
0.00672017
6.11416e-05
0.00672639
0.00558401
0.00760466
0.0015061
0.00672542
0.00672547
0.000330336
0.00672038
0.000992076
0.00672605
0.00672525
0.00390022
0.000655387
0.00314813
1.02746e-05
0.00665721
0.00672571
0.000723205
0.00672601
0.00389542
0.0012474
0.00109618
0.000767721
0.00672249
0.00510174
0.00398199
0.00013903
0.00672027
0.00153833
0.00671957
0.00667667
0.00306877
0.000487027
0.00349938
0.00852291
0.00415778
0.000920717
0.00170968
0.000639216
0.00120729
0.00676625
0.00673143
0.00035648
0.00384354
0.00672552
0.00024545
0.00360004
0.00276294
0.0052087
0.0018142
0.00101855
0.00191942
0.000419474
0.000867091
0.000199421
0.00500198
0.00503153
0.00672647
0.00132029
0.000790444
0.00246534
0.0034164
0.00865838
0.0067194
0.000144133
0.00672583
0.000106963
0.00671797
0.00672205
0.00171839
0.00121418
0.00671958
0.000425105
0.00101157
0.000594238
0.000393794
0.00672108
0.00672576
0.000224478
0.00360561
6.28051e-05
0.000382577
0.00595901
0.00672605
0.00672604
0.00444717
0.000222257
0.00561656
0.001307
0.00674636
0.000339519
0.000529604
0.00173605
0.00672664
0.000528564
0.000625047
0.00206715
0.00189297
0.000947153
0.000231387
0.00672549
0.00198124
0.00103517
0.00672439
0.006173
0.00474437
0.000740095
0.000819561
0.00672002
8.39208e-05
0.00672292
6.34659e-05
0.00672211
0.00138622
0.00494522
0.00563623
0.00402271
0.00125519
0.00265208
0.0061042
0.00315749
0.00544231
0.000298397
0.00368766
0.00547132
0.00672057
0.00671805
0.0043233
0.000820182
0.0091076
0.00733906
0.00672319
0.00018332
0.000119671
0.0067257
0.00671918
0.000522398
0.0067217
0.000796002
0.00672056
0.00591414
0.00107566
0.00672332
0.00136831
0.00181879
0.00497612
0.00658714
0.00675723
0.00137278
0.00672112
0.000486147
0.00294116
0.00674704
0.00466857
0.00636515
0.00671861
0.00475673
0.00318012
0.00862806
0.00672085
0.006725
0.00672169
0.00671851
0.000228732
0.00306186
0.000138677
0.00672448
0.000324609
0.0045427
0.00672505
0.00128285
0.00134374
0.00515478
0.00109333
0.000692517
0.00673522
0.00382909
0.0067415
0.000127137
0.00674221
0.000835721
0.000197517
0.00672222
0.000734715
0.00916075
0.00107738
0.00799154
0.00735269
0.00609747
0.00674226
0.00792749
0.00425941
0.00631994
0.000213838
0.00935468
0.0039229
0.00035398
0.0036037
0.00124167
0.00156479
0.00189212
0.00883899
0.000178913
0.000306876
0.000592657
0.0050633
0.00299146
0.00044301
0.00627353
0.00672748
0.00279447
0.00315033
0.00395068
0.00672054
0.00672334
5.49901e-05
0.000480123
0.00333777
0.00671841
0.00464685
0.00232377
0.00181278
0.0066711
0.000971069
0.00672574
0.00672302
0.000930063
0.000574226
0.000830709
0.00674448
0.00214006
0.00114552
0.00673255
0.00128151
0.00608787
0.00301705
0.00456419
0.00164211
0.00010094
0.000518999
0.00883112
0.0010185
0.00369453
0.00323174
0.00391631
0.00661512
0.00310509
0.00133818
0.000524013
0.00764675
0.0039042
0.00672121
0.0058706
0.00332139
0.000585622
0.00533119
0.00672607
0.000263408
0.00673361
0.000202893
0.00672199
0.0030998
0.000405905
0.00169763
0.00629854
9.59672e-05
0.000205233
0.000155183
0.00172288
0.000621758
0.00103123
0.000477968
0.00645977
0.00123604
0.000380694
0.00671961
0.00584038
0.000543097
0.00109116
0.00310338
0.00040831
0.00294619
0.00671711
0.000277598
0.00596407
2.432e-05
0.00165633
0.000410085
0.00672577
0.00679317
0.00359577
0.00362501
0.00322619
0.000246688
0.000921168
0.000720748
0.00679165
0.00847833
0.000610173
0.00672386
0.00348095
0.00810421
0.00177179
0.00672826
0.00145614
0.0015588
0.00116826
0.00671881
0.00348674
0.00672064
0.0067261
0.00573216
0.000449161
0.00751659
0.000408629
0.00108706
0.00550245
0.000954171
0.00024735
0.00672679
0.00672127
0.00424049
0.0022351
0.00672549
0.00671946
0.00672408
0.00672515
0.00672353
0.00672938
0.00672885
0.000709545
0.00672309
0.00214608
7.46928e-05
0.000119073
0.00248231
0.000456709
0.00672308
0.00451256
8.08611e-05
0.00344546
0.00672639
0.00281453
4.1543e-05
6.42082e-05
6.4782e-05
0.00296108
0.00173814
0.00620411
0.00239568
0.0037089
0.00746751
0.000751591
0.00391262
0.00673775
0.000266213
0.00672128
0.0040208
0.00301298
0.00134716
0.000538548
0.000241054
0.00141208
0.000853439
0.00334577
0.00672458
0.00141232
0.000876502
0.00469014
0.000892045
0.000541375
0.00309968
0.000441007
0.00672698
0.0007967
0.000580338
0.000820548
5.31268e-05
0.00411804
0.00671906
0.00342902
0.00672586
0.00334898
0.00641377
0.000259628
0.00777063
0.0064145
0.00673575
0.000252729
0.00499265
0.0067196
0.00139964
0.00156775
0.000243588
0.000717098
0.00192537
0.000225306
0.000384001
5.55477e-05
0.00123727
0.000281477
0.00115991
0.00317773
0.00671927
0.00276044
0.00672386
0.00107782
0.00199942
0.00139755
0.00672315
0.000192425
0.00126248
0.00449885
0.00044712
0.000840924
0.000711234
0.000647992
0.000397665
0.00818602
0.00373954
0.00150807
0.00272582
0.000725537
0.0021097
0.00672229
0.000647618
0.00672224
0.00672558
0.000265715
0.00672449
0.00617878
0.00240599
0.00107866
0.00673122
0.00509748
0.00838523
0.00672189
0.00078751
0.000516981
0.00756711
0.00152543
0.00416051
9.54261e-05
0.000238471
0.000159047
0.000791423
0.00672622
0.00234158
0.00402801
0.000103485
0.00291476
0.00305423
0.00679003
0.000891005
0.000361348
0.00676482
0.00092058
0.00430352
0.00353053
0.0069101
0.00271796
0.0045325
0.00276799
0.000651787
0.00875483
0.00673886
0.00194053
0.00138781
0.000197856
0.000579454
0.00574683
0.00672352
0.00171452
0.00300966
0.00524067
0.00771082
0.00671985
0.000763778
0.00852937
0.00101993
0.00290733
0.000586545
0.00849482
0.000479834
0.00672024
0.00616055
0.00770387
0.00222232
0.000145042
0.000420915
0.00682015
0.00113461
0.00634316
0.00672346
0.000599836
0.00145522
0.0020719
0.00574554
0.00671972
5.59091e-05
0.000948528
0.00273187
0.00139261
8.52138e-05
0.00681113
0.000801905
0.00672286
0.00940847
0.000719251
0.0017031
0.00455757
0.00672021
0.000520418
0.00209714
0.00228938
0.000810031
0.000358517
0.000194708
0.00165442
0.00452369
0.00672451
0.00672281
0.000128107
0.00470342
0.000643264
0.00785831
0.000205285
0.000544992
0.000377582
0.000753829
0.00438838
0.00824904
0.00160337
0.00672404
0.00157537
0.00181646
0.00011512
0.000451792
0.00494225
0.00127845
0.0067192
0.000933646
0.00105089
0.00113254
0.00916323
2.36664e-05
0.00231861
0.000784782
0.00387898
0.00128781
0.000531045
0.00478741
0.00106107
0.00672599
0.000790969
0.00509145
0.00218689
0.000879121
0.00403412
0.00638087
0.000185317
0.00828584
0.00118919
0.00676204
0.00236836
0.00318492
0.00623984
0.00672854
0.0025421
0.00109536
0.00167831
0.000602249
0.00225381
0.00609863
0.0073288
0.000121351
0.00021645
0.00639066
0.00789918
0.000565498
0.00673119
0.00672763
0.00647581
0.00135288
0.00133371
0.00714001
0.00147382
0.000528588
0.00341779
0.000127618
0.0050263
0.00680348
0.00101793
0.000657905
0.00134494
0.00673416
0.00672367
0.000272612
0.000950747
0.000605746
0.00044695
0.00294097
0.00034998
0.00620693
0.00522828
0.00674524
0.00343749
0.00156516
0.00671915
0.000238488
0.0010578
0.00693422
0.00387846
0.00180549
0.00350849
0.000570316
0.00674001
0.00672195
0.0068486
0.00672268
0.000995641
0.00207767
0.00385952
0.00423229
0.00519146
0.00106324
0.000494253
0.000623884
0.00616443
0.00057591
0.00672105
0.000288403
0.00193785
0.00244986
0.00281157
0.0016347
0.00618086
0.00321985
0.00674464
0.00030057
0.00674326
8.75716e-06
0.00464628
0.000839392
0.00067155
0.00671929
0.00243146
0.000292886
0.00672035
0.00510831
0.00419289
0.00105956
0.000387296
0.00225527
0.000296126
0.00785857
0.00472496
0.00304192
0.00392706
0.0066326
0.000414727
0.00364311
0.00459161
0.00336624
0.00660874
0.00119615
0.00927002
0.00129784
0.000526472
0.000582864
0.00137996
0.000699571
0.00460787
0.001341
0.00671889
0.00672213
0.00119082
0.00672763
0.000487684
0.00174255
0.00138076
0.00672309
0.00314542
0.00600094
0.00153827
0.00168992
0.00107961
0.000477437
0.00660909
0.00673203
3.6092e-05
0.00102622
0.00044406
1.30758e-05
0.00494935
0.00481949
0.000665487
0.00687695
0.00672021
0.00239521
0.00672359
0.00596887
0.00673294
0.00334696
0.00246589
0.00557914
0.00642513
0.000675333
0.00673174
0.000455552
0.00526135
0.000794745
0.00949759
0.000883011
0.00672327
0.00433822
0.00113691
0.000312026
0.000806218
0.00671964
0.00140828
0.00672152
0.00676513
0.00587976
0.000670963
0.00328797
0.00086834
0.00107589
0.000478128
0.00480699
0.00806859
0.00195215
0.0027883
0.00307403
0.000752079
0.000171423
0.00658404
0.00134989
0.00594105
0.00457816
0.00587098
0.00128652
0.00475748
0.00199331
0.000112405
0.00324501
0.000769387
0.0016822
0.00240985
0.00453637
0.000239523
0.00107452
0.00163372
0.00394452
0.00208055
0.00601651
0.000251649
0.000509032
0.00669883
0.000203873
0.00688684
0.000997995
0.00330063
0.00672049
0.00672199
0.00111619
0.000748764
0.00250751
0.000475014
0.00673356
0.00105458
0.00806376
0.000954716
0.00130022
0.00633924
0.00672113
0.00110634
0.000559885
0.00121681
0.00533297
0.00064195
0.00583789
0.0033484
0.0031199
0.00429795
0.00320451
0.00280861
0.00628775
0.00014984
0.0056439
0.000961368
0.00058635
0.00133967
0.00498885
0.00604755
0.000717851
0.0067644
0.00144822
0.00564151
0.00672385
0.00105297
0.00135639
0.000970458
0.00715931
0.00116535
0.00176167
0.00149591
0.00600904
0.00711636
0.000681156
0.000374703
0.000776136
0.000912382
0.000276735
0.00091916
0.00175386
0.000466011
0.00196414
0.00147744
0.000801087
9.73046e-05
0.00646406
0.00290725
0.000479621
0.00230217
0.00320531
0.00254804
0.00672636
0.00564086
0.00304552
0.00142988
0.00686938
0.00141143
0.000464603
0.00672292
0.00672511
0.00673469
7.89741e-05
0.00675079
0.00153327
0.000275324
0.00600616
0.00671941
0.00309417
0.00123448
0.000224827
0.00218748
0.00946203
0.00063504
9.00475e-05
0.00113364
0.00241785
0.00672392
0.00672647
0.000381884
0.00160028
0.00280389
0.00672736
0.00151627
0.00165074
0.00714369
0.00116443
0.00124954
0.00142261
0.00701305
0.000236438
0.00818504
0.000453304
0.00673344
0.000196569
0.00146955
0.00451128
0.00734641
0.00517387
4.70881e-05
0.00672384
0.00201339
3.46667e-05
0.006542
0.0040699
0.00310271
0.0044115
0.00671634
0.00209771
0.00681963
0.00255828
0.00017701
5.8825e-05
3.86958e-05
0.00239161
0.00197951
0.00213661
0.00357938
0.00628976
0.00671877
0.00108534
0.00236321
0.000801784
0.00557489
0.00273167
0.00253087
0.00464568
0.00676098
7.89389e-05
0.000140656
0.00672691
0.0040277
0.00677382
0.00277661
0.0067441
0.00672023
0.00236032
0.002876
0.00701233
0.00310802
0.00115043
0.00672273
0.00651534
0.00232772
0.00357426
0.00672343
0.006728
0.00110359
0.00632544
5.86041e-05
0.000229067
0.00372617
0.0023719
0.00275655
0.00388131
0.00673101
0.000151081
0.00713702
0.00650016
0.00672258
0.00666133
0.0013011
8.06645e-05
0.000224197
0.00672137
0.00852442
8.33604e-05
0.00121888
0.00245718
0.00519325
0.00291437
0.000652064
0.00672036
0.00673286
0.00672281
0.00885951
0.00338439
0.00675724
0.00250797
0.00488943
0.00374161
0.00672551
0.00165492
0.00038172
0.00410434
0.00211265
0.00741879
0.00672312
0.00041397
0.00672125
0.00513267
0.00438894
0.00269307
0.00573353
0.00673191
0.00558361
0.00169557
0.00213091
0.00672284
0.000640957
0.00673826
0.00672501
0.00672055
0.000662947
0.00672385
0.00674181
0.00253535
0.00392605
0.00672239
0.000483076
0.00570836
0.00379833
0.00364695
0.00497844
0.00673146
0.00672387
0.00673926
0.000860198
0.00261763
0.00672114
0.000298251
0.00674469
0.00673059
0.000795741
0.00106453
0.00687895
0.00672286
0.00674523
9.82587e-05
0.00022958
0.00129079
0.00461757
0.00432653
6.42364e-05
0.000576607
0.00685201
0.000269074
0.00347024
0.00680397
0.00199689
0.00413454
0.00672983
0.00672429
0.000342798
0.00672119
0.000131138
0.00437401
0.000750977
0.000983536
7.03313e-05
0.0067911
0.00678356
0.00666476
0.000693992
0.00251149
0.000799684
0.000333024
0.0067285
0.000619832
0.000245065
0.00672366
0.00776807
0.000256559
0.000110464
0.00749694
0.003785
0.00624028
0.00604927
0.000141132
0.000505168
0.00328958
0.00165423
0.00324496
0.00398155
7.72746e-05
0.00211166
0.00613248
0.00672138
0.00544998
2.46195e-05
0.000340298
0.00672529
0.000366921
0.000591693
0.00672298
0.00012762
0.000698758
0.00796746
0.000601566
0.00552532
0.00672164
0.000289021
0.00673303
0.00672811
0.00257851
5.37357e-05
0.000587733
0.000466141
0.000254398
0.00672414
0.000348395
0.000859307
0.00130784
0.0069175
0.00672141
0.00672626
0.00336757
0.00647594
0.00672449
0.00668751
0.00672402
0.000225648
0.00623153
0.00673159
0.00314748
0.0021353
0.000540419
0.000398197
0.00726013
0.000552972
0.00830275
0.00456863
0.00155435
0.00285621
0.00364048
0.00183941
0.00382657
0.00247525
0.00198099
0.00136488
0.00672573
0.000135357
0.00137413
0.0055453
0.00490953
0.00138285
0.00350678