/*--------------------------------*- C++ -*----------------------------------*\
| =========                 |                                                 |
| \\      /  F ield         | OpenFOAM: The Open Source CFD Toolbox           |
|  \\    /   O peration     | Version:  v2012                                 |
|   \\  /    A nd           | Website:  www.openfoam.com                      |
|    \\/     M anipulation  |                                                 |
\*---------------------------------------------------------------------------*/
FoamFile
{
    version     2.0;
    format      ascii;
    class       surfaceScalarField;
    location    "300";
    object      phi_0;
}
// * * * * * * * * * * * * * * * * * * * * * * * * * * * * * * * * * * * * * //

dimensions      [0 3 -1 0 0 0 0];
oriented        oriented;


internalField   nonuniform List<scalar> 
20424
(
-0.571451
0.593021
-0.0215703
-0.0676789
0.10113
-0.0334512
-0.350222
0.0208348
0.329387
0.150448
0.0227162
-0.173164
-0.202113
-0.0229795
0.225093
-0.130348
0.130461
-0.000113332
0.091446
-0.120977
0.0295306
-0.208999
-0.0776792
0.359166
-0.247345
-0.111822
0.182165
-0.0317168
0.128884
-0.117206
-0.011678
-0.548753
0.335103
0.21365
-0.14574
0.157167
-0.0114271
-0.0676763
0.056141
0.0115353
-0.0240641
0.037299
-0.0132349
-0.215882
-0.14399
0.287631
-0.143642
-0.0643584
0.0996733
-0.0353149
0.29823
-0.597174
0.298944
-0.539926
0.338445
0.201481
-0.00807469
0.00195539
0.0061193
-0.035864
0.0117999
0.0757424
-0.0628853
-0.0128571
-0.104706
0.114496
-0.00979001
-0.20976
0.00764648
-0.112359
-0.0397547
0.152114
0.0514904
-0.180587
0.129096
0.206689
-0.187692
-0.0189963
0.0957821
-0.469461
0.373679
0.242305
-0.0991125
-0.143193
-0.128996
0.103975
0.0250204
-0.0118909
0.0163731
-0.00448214
-0.148168
0.144015
0.00415344
0.116665
-0.13656
0.019895
-0.246661
-0.151591
0.398252
0.207495
-0.4981
0.290604
-0.369081
0.329122
0.0399586
-0.140041
-0.155481
0.295522
-0.250405
0.216262
0.0341425
-0.118082
0.140962
-0.0228794
-0.138689
0.00834124
0.00426098
-0.00426098
0.130045
0.0671252
-0.19717
-0.151749
-0.00573224
0.157481
0.0303822
-0.0947406
0.147667
-0.193174
0.0455077
0.111662
-0.391519
0.279857
0.127936
-0.113755
-0.014181
-0.395709
0.330731
0.0649779
-0.0115477
0.012387
-0.000839269
-0.125547
0.0208405
-0.00308781
-0.00498689
-0.142834
0.0247521
0.0222815
-0.086253
0.0639715
-0.184328
0.00901337
0.175315
-0.0959136
-0.299796
0.14749
-0.0126023
-0.134888
-0.00251821
-0.14565
-0.180538
0.416163
-0.235625
-0.0336304
-0.0403378
0.0739682
0.387807
-0.213932
-0.173875
0.261694
-0.0870558
-0.174638
0.0206258
-0.0168684
-0.00375745
-0.287863
-0.26089
-0.11393
-0.151483
0.265413
-0.167249
0.195079
-0.0278308
0.189969
0.169197
0.160908
-0.300949
-0.121711
-0.077638
0.199349
0.192071
-0.044404
-0.0316163
0.0365807
-0.00496441
0.000435273
-0.468254
0.467819
-0.0910697
0.0574393
-0.212527
0.340432
-0.127905
-0.0839918
-0.02167
0.0585764
-0.129292
0.070716
-0.117684
-0.0845122
0.202197
-0.418111
0.237573
0.139809
0.00768063
-0.421505
-0.141492
0.562996
0.465606
-0.258111
-0.259427
0.24142
0.0180065
0.0166503
0.393706
-0.297924
-0.132923
0.146147
-0.0132244
0.133088
-0.111051
-0.0220368
0.0128402
-0.0619094
0.0490692
-0.0351047
-0.0511278
0.0862325
0.190623
-0.437284
0.137333
-0.111942
-0.0253917
0.243761
-0.464411
0.22065
0.0848903
-0.0626088
-0.136264
0.247965
-0.111701
-0.0962833
0.075716
0.0205673
0.0684749
-0.0208987
-0.0475762
-0.138637
0.120898
0.0177396
-0.151437
0.189569
-0.0381327
0.239868
0.218506
-0.458374
0.437497
-0.437061
0.0660015
-0.23325
0.00160011
6.02465e-05
-0.00166036
-0.220231
-0.277869
-0.137961
0.222588
-0.0846265
0.0282374
-0.0336845
0.00544715
-0.664382
0.435928
0.228454
-0.00350821
0.0317456
-0.0867059
0.123588
-0.0368821
-0.241696
0.418227
-0.176531
0.136015
0.0013179
0.446836
-0.151595
-0.29524
-0.159904
0.495007
-0.0359679
0.166013
-0.123136
0.0364298
0.00614715
-0.00387167
-0.00227548
-0.00239374
0.00290057
-0.000506831
0.100417
-0.295659
0.195242
-0.524528
0.304297
-0.168574
-0.0157547
-0.030534
0.265686
0.473757
-0.274262
-0.199495
-0.214067
0.00506834
0.692428
-0.45649
-0.235939
-0.0110498
0.429929
-0.418879
0.188016
-0.485252
0.297237
0.0122261
0.188416
-0.200642
0.00258211
-0.0341984
0.0970462
0.033415
-0.0209498
-0.00988294
0.0308328
-0.206618
0.0268329
0.179785
-0.0229495
-0.0681202
0.192411
-0.214123
0.0217116
0.0547069
-0.0674947
0.0127879
0.0544502
-0.04161
0.0243313
-0.0949981
0.0706668
0.0826786
-0.172062
0.0893831
0.205101
-0.282899
0.0777977
-0.0936971
0.00970534
-0.141134
-0.237764
0.378898
-0.0507511
0.209492
-0.15874
0.0154543
-0.00182125
-0.0136331
0.0903348
-0.123545
0.0332099
-0.0132245
0.148503
-0.135279
-0.149529
0.208095
-0.0585667
0.00893139
-0.003501
-0.00543039
-0.5591
0.499934
0.0591653
0.0154543
0.166429
-0.160862
-0.00556773
0.145293
-0.0476167
-0.0976768
0.176918
0.120867
-0.297785
0.123116
-0.105344
-0.0177723
-0.574805
0.0157049
0.147121
-0.134951
-0.0121701
0.0311825
-0.0346907
-0.0191402
-0.0648889
0.0840291
-0.210491
0.190817
0.0196741
0.00709136
-0.00455971
-0.00253165
0.00928441
0.157145
0.163926
-0.174594
0.0106678
0.0342537
-0.101933
-0.230635
0.453646
-0.223011
0.0216685
-0.0155213
0.643048
-0.371866
-0.271182
0.00799633
0.00305678
-0.0110531
0.0754416
0.0685731
-0.558654
0.213105
0.345549
-0.240873
-0.0709945
0.311868
0.0569073
-0.092012
0.0135075
-0.363729
0.141029
0.101277
-0.175077
0.0293375
-0.211202
0.0616729
0.305777
0.141059
0.189597
-0.00947602
0.138865
-0.129389
0.218024
-0.280476
0.0624522
-0.0158798
0.107326
0.0971085
-0.0385321
-0.168307
-0.0421842
-0.0289896
0.00803981
0.0262695
-0.0187259
-0.00754362
-0.328009
-0.336373
-0.023496
0.140161
-0.165507
0.193793
-0.0282857
-0.00258909
-0.0680246
0.0706136
0.0507283
-0.0816065
0.0308782
0.00106645
0.216957
0.00278737
0.00614402
-0.0915997
0.210165
-0.118566
-0.0406579
-0.0416326
0.0822905
0.278774
0.109033
-0.193482
0.0279742
0.0152455
0.0604969
-0.264252
0.175485
0.0887672
0.124499
-0.119003
-0.0054962
0.00254148
0.00249004
-0.00503152
0.035674
0.0974141
0.136423
-0.0393771
-0.0074179
0.00822422
-0.466364
0.455314
-0.171244
-0.0353739
0.450487
-0.277965
-0.172522
-0.126643
0.0488107
0.0778319
0.151324
-0.134538
-0.0380252
0.172563
-0.0177121
-0.00439122
0.0221033
-0.144984
-0.105141
0.250124
-0.430108
0.23727
0.192837
0.129636
-0.00513732
-0.077519
0.0615911
0.0159279
0.139855
-0.115768
-0.024087
0.286813
-0.186396
0.0477656
0.0224691
-0.0702347
0.00854223
-0.00854223
-0.0293922
-0.0519728
0.081365
0.164906
-0.113415
-0.109428
-0.0166886
0.126116
0.0224487
-0.0219009
-0.000547752
0.134254
-0.115599
-0.018655
0.0202794
-0.0196883
-0.000591101
-0.174652
-0.29481
-0.089525
0.0206335
0.0688915
-0.19727
0.0627326
-0.0619217
-0.0332617
-0.0424777
0.0757394
0.0107065
-0.129349
0.118642
-0.0832602
0.0603107
0.0963026
-0.241286
-0.0192318
0.109567
0.0241911
-0.00174237
0.0708661
-0.0231005
-0.439646
0.282306
0.15734
0.333561
0.263454
0.324849
0.367579
0.460586
-0.348924
-0.00568975
-0.0383892
0.044079
-0.106483
0.118709
0.0595175
-0.127635
0.0681174
-0.0267907
-0.253525
-0.286401
-0.297733
0.153743
0.235742
-0.184487
-0.051255
-0.0577602
0.0244985
0.0806204
-0.0652411
-0.0153792
0.110494
-0.0126611
-0.0978324
-0.139766
0.124014
0.0157515
0.00734085
-0.00479937
-0.209338
-0.0500883
-0.0206336
0.00292146
-0.1643
0.196296
-0.0319955
0.194145
-0.360679
0.166534
-0.0104765
0.000953645
0.00952289
0.206168
-0.5804
0.565791
0.0146095
-0.230514
0.0942501
-0.0481311
-0.0475233
0.0956544
-0.155804
0.14258
0.139135
-0.38083
0.011119
-0.00312262
-0.11603
0.00497876
0.0109275
-0.00788971
-0.00303783
0.283644
-0.476494
0.19285
-0.121244
-0.0161527
0.137396
0.0159945
-0.291452
0.130956
0.160496
0.133529
0.13798
-0.271509
-0.00993282
-0.0837643
0.0182073
-0.0780088
0.0598015
0.0250209
-0.13738
-0.0963417
-0.0100788
0.106421
-0.120389
0.0722582
-0.36268
0.53461
-0.171929
-0.0027249
-0.00142868
0.00415358
0.119789
-0.102376
-0.0174132
0.00559457
-0.00185713
-0.00373744
0.123575
-0.215175
0.00248954
0.00710072
-0.00959025
0.010594
-0.010594
-0.0114077
0.133293
-0.121885
-0.00391713
-0.116472
-0.156712
0.147236
0.145252
-0.386125
0.397621
-0.226828
-0.170793
0.0746089
-0.0976666
0.0230577
0.00700747
0.00244807
-0.00945555
0.164172
-0.051603
-0.112569
-0.0690698
0.245988
0.159338
-0.174523
0.0151846
0.17084
0.245322
-0.0974397
0.0567819
-0.204128
0.222169
-0.0180406
-0.0575622
-0.0250552
0.0826175
-0.387188
0.325299
0.0618884
-0.000354183
0.0947698
0.0341143
-0.0161969
0.0377947
-0.0215978
0.0739507
-0.0123596
-0.30497
0.431442
-0.126471
0.202988
0.324733
-0.527721
0.0613751
-0.237409
0.176034
-0.43175
-0.139701
0.0663977
-0.184082
-0.222983
0.413606
-0.119493
0.147563
-0.0280697
0.00112743
-0.011604
0.0276279
0.373839
-0.0901948
-0.174188
-0.0948618
0.269049
-0.339999
-0.218655
-0.0798014
0.245162
-0.165361
0.148983
-0.104908
-0.0440749
-0.00446088
0.00173598
0.152761
-0.13316
-0.0196011
-0.334145
0.100234
0.233911
-0.0184198
0.0140226
0.00439716
0.326256
-0.688937
-0.227107
0.0619221
-0.199883
0.0446633
-0.0400041
-0.00465924
0.202232
0.271526
-0.0384713
-0.145342
0.183814
0.0030093
0.0759375
-0.0789468
-0.00494023
0.00494023
-0.0233595
0.121097
-0.0977373
0.309712
0.287303
-0.000714979
-0.0130434
-0.594262
0.340676
0.253586
0.206111
-0.429093
-0.464221
0.306228
0.157993
-0.290376
0.024788
0.265588
-0.123714
0.257242
-0.338908
-0.125313
0.229327
-0.51719
0.485692
-0.297676
0.0711696
0.135519
-0.21881
-0.115335
-0.254439
0.203688
0.167987
-0.380514
-0.0249813
-0.155606
-0.00980939
-0.280566
-0.0872695
0.097976
-0.475157
0.288306
0.186851
-0.0781425
-0.0508533
-0.128956
-0.162497
-0.0295911
-0.0455991
0.0751902
0.0135405
0.126315
-0.0449348
0.254426
0.168207
-0.206678
0.135786
-0.265789
0.130003
0.142393
-0.364924
0.222531
0.166469
-0.352798
0.186329
0.131636
-0.330688
0.199052
0.307583
-0.175947
0.00363507
-0.00402506
0.000389994
0.0343697
0.00412806
-0.0384978
0.0265867
0.235107
-0.108214
0.298243
-0.190029
0.112591
0.0461956
-0.158787
0.0165622
-0.0779209
0.0613587
-0.114501
-0.0173293
0.13183
0.00126086
-0.0873691
0.0861082
-0.266219
-0.173426
-0.260702
-0.0957445
-0.291443
0.00993854
-0.00293107
0.124507
-0.101319
-0.490972
0.150079
0.340893
0.141599
0.00369402
0.0017885
-0.00284441
0.00105591
-0.00603637
0.0372188
-0.50643
0.291155
0.215275
-0.0489815
0.0327846
0.0391351
0.109368
-0.15727
0.0819939
0.0752759
-0.648197
0.226692
-0.287941
-0.20303
0.091013
0.160221
-0.251234
-0.135836
0.128966
0.00687038
-0.00769489
0.000276986
0.0287947
-0.109192
0.0803975
-0.153442
0.182749
-0.029307
-0.226613
-0.229052
0.455666
0.494165
-0.254296
0.0389187
-0.0290945
-0.0098242
-0.126373
0.262159
-0.261475
0.602151
-0.741084
0.562126
0.178958
-0.0144804
0.0025895
-0.14043
0.335004
-0.194574
-0.428864
0.198229
0.0320742
0.190514
-0.105693
0.0163442
0.0893484
0.0942625
-0.0807658
-0.0134967
0.00209356
0.326273
-0.171499
-0.154773
-0.177508
0.160456
0.0170514
-0.118584
0.0450024
0.0735812
-0.0114029
0.00127062
0.0101323
0.0977143
0.00626119
0.113438
-0.0892309
-0.0242076
-0.0132638
-0.0699964
0.277573
0.365475
-0.137316
0.00439288
-0.651569
0.252634
0.398934
-0.115342
0.062088
0.0532536
-0.251192
0.17139
0.0606705
0.103502
-0.0390478
-0.0346881
0.0737358
0.111128
-0.0111385
-0.0999891
0.0310665
-0.0968845
0.065818
0.33242
-0.190028
-0.121361
-0.105287
0.226648
0.193725
-0.155804
-0.037921
0.0827265
0.030712
-0.0203028
0.0293652
-0.00906237
-0.127964
-0.00787264
0.420496
-0.638731
0.218235
0.0450458
-0.000382536
-0.0338818
0.0433023
-0.00942046
-0.158447
-0.0648513
-0.073786
-0.201255
-0.129235
0.33049
0.132493
-0.125944
-0.00654886
0.0914193
-0.0946883
0.00326895
0.219449
-0.187375
-0.0568738
0.0750812
0.583889
-0.306814
-0.277076
0.0166804
-0.113022
0.0642408
-0.0298711
0.0118932
-0.000835485
-0.0110577
-0.0721003
-0.0488764
-0.097104
0.0961501
0.000953897
-0.325389
-0.267962
0.593351
0.102407
0.00808671
0.0144656
0.0667582
-0.0858984
0.0277703
-0.149348
0.240361
0.144423
0.102926
-0.247349
-0.292783
0.137301
0.00631279
0.0134327
-0.0197455
-0.0275733
-0.219771
-0.14761
0.245846
-0.0982361
-0.701249
0.301063
0.400186
0.0403506
-0.163162
0.192074
-0.0289123
-0.348873
-0.127621
0.289704
-0.540715
0.251011
-0.068526
0.0391338
-0.12416
0.106825
0.0173348
-0.0690595
0.0978543
0.0841383
-0.00952938
0.118722
0.089297
-0.208019
0.0106368
0.0702528
-0.0808896
0.212054
0.185567
0.00284583
0.00570399
-0.00854982
-0.00297074
0.139303
-0.136332
0.0190031
0.159741
-0.00291505
-0.156826
-0.0637328
0.024685
-0.271403
-0.235027
0.372692
0.277592
-0.650284
-0.301437
-0.399812
0.133355
0.0860939
0.00252713
-0.000738638
-0.177265
-0.0731401
-0.141077
0.0166147
-0.0816173
0.110844
-0.0292265
-0.00923116
-0.0879818
0.097213
-0.00171591
-0.009687
-0.191338
0.00378522
0.0768351
-0.368143
0.55691
-0.188767
-0.0982973
0.0890661
0.00366201
-0.0017696
-0.00189241
-0.349319
0.208889
-0.363337
0.162082
-0.0892121
0.115475
-0.0262624
0.134296
-0.149819
0.0155223
0.335154
-0.14101
0.106245
-0.253855
-0.178408
0.303269
-0.206136
-0.0971336
-0.453305
0.299358
0.153947
-0.0220426
0.00235432
-0.00516588
0.00765541
-0.0600037
-0.0585799
0.0072997
0.00305279
-0.0103525
0.0142016
0.00642423
-0.15198
0.176563
-0.0245833
0.0108515
0.182873
0.145351
-0.266711
0.224516
0.078753
-0.306981
-0.253637
0.560618
-0.112719
0.134744
-0.0220254
-0.147077
-0.241812
0.133135
0.108678
-0.00345142
0.00159429
0.256239
-0.111816
0.00191915
-0.329474
0.221259
-0.135306
0.267602
-0.132296
0.0107455
-0.0736308
0.19517
-0.0269632
-0.0807909
0.0675271
0.159449
-0.273379
0.0046418
0.00725139
-0.101958
0.0816443
0.020314
-0.0390201
-0.0763216
0.297911
-0.137003
-0.428109
-0.312975
0.665183
-0.349016
-0.316167
0.104401
0.160118
-0.264519
-0.255821
-0.174287
-0.00714672
0.00714672
-0.176475
0.031133
0.0104799
-0.00318023
-0.129949
-0.027321
-0.0662572
0.00910497
0.0571523
0.0147438
0.119511
-0.265904
0.564134
-0.0116123
0.0679504
-0.0563381
0.071739
-0.0611022
0.246349
-0.151652
-0.094697
-0.0808996
-0.0210588
-0.197707
0.254478
-0.056771
0.241901
0.0788498
-0.320751
-0.172395
0.405047
-0.232653
-0.161461
0.13648
-0.0480949
-0.193718
0.132245
-0.0218607
-0.110384
0.121792
0.185791
0.0541253
0.0143496
0.0653939
-0.113011
-0.0238394
-0.117237
-0.0218261
-0.112144
0.13397
0.0140721
-0.275476
-0.0936048
-0.0564164
-0.00984084
-0.00414444
-0.0178982
0.011164
0.0146312
-0.0716716
0.0570405
0.0877087
0.00371061
-0.0878342
0.000916465
0.0869177
-0.0801325
0.0225703
-0.0104944
-0.0010533
-0.0988562
-0.0183499
0.060263
-0.183864
0.123601
-0.0239725
0.0107422
0.0132303
-0.00120662
-0.00118713
-0.0708505
0.0592382
-0.122315
0.0315386
0.0907767
-0.261458
0.112339
0.149119
-0.0108779
-0.00360249
0.133719
-0.105363
-0.0283564
-0.111375
0.0880151
0.203036
-0.141661
0.217654
-0.390049
0.0282426
-0.188448
0.0504163
0.138032
0.000377313
0.000823591
-0.0012009
-0.0173742
-0.0503021
0.520699
-0.317711
0.401863
-0.0754508
-0.326412
-0.0520485
0.0686106
-0.143232
-0.118226
0.0149774
-0.00866461
0.150925
-0.455896
-0.444162
0.26846
0.175702
0.327746
-0.217274
-0.110472
-0.0679006
0.0709099
-0.431202
0.204589
0.0746435
-0.102625
0.0279817
-0.0032973
-0.0206752
-0.297451
-0.354118
-0.153869
-0.101444
0.255313
-0.32694
0.152752
0.00596671
0.000768701
0.000831409
-0.186931
0.0645159
0.122415
-0.0689164
-0.0355613
0.104478
-0.235632
0.0862838
-0.0597472
0.0908137
-0.00188508
0.00999004
-0.00810496
-0.158343
0.155825
0.0469744
-0.182938
0.135963
0.392021
0.181848
-0.573868
0.055348
-0.00563228
0.0742426
-0.0668108
-0.00743178
0.215746
-0.152644
0.177589
-0.0249457
0.191436
-0.038648
-0.152788
0.159569
0.059348
-0.218917
0.0172644
-0.169244
-0.0280507
-0.149457
0.0654524
-0.0116072
0.0686611
-0.0570539
-0.205398
-0.212713
0.0105541
-0.0123372
0.00178306
-0.000605583
-0.189618
0.0213112
-0.0406136
-0.149004
-0.0537984
-0.0127358
0.0665341
-0.0813781
-0.0243144
0.00522446
-0.0036098
-0.00161466
-0.00865586
0.00677077
-0.234343
0.0570781
-0.157491
0.154521
0.0221957
0.00716948
0.00410378
0.00828317
0.148691
0.455334
-0.604025
-0.158118
-0.19592
0.354037
0.189913
-0.0330143
-0.156898
-0.238046
0.481807
-0.00920714
0.0199493
-0.0736614
-0.0529813
-0.118611
-0.0683199
-0.172849
0.00427563
-0.0184287
-0.154421
0.142716
-0.32962
0.186904
-0.13977
-0.0534048
-0.0939703
0.0967454
-0.00277512
-0.202971
-0.160366
-0.075405
-0.0195931
0.215581
0.112164
-0.0872633
0.0530961
0.0341672
-0.00196389
0.00671796
-0.00475407
-0.0433805
0.479309
-0.113306
0.0224504
0.0908556
-0.123838
-0.140415
0.363162
-0.196693
0.0643249
-0.048699
-0.0156259
-0.18981
-0.17272
0.362529
-0.0747601
0.0708429
0.482985
-0.278478
-0.204508
-0.220261
0.0688367
0.151424
0.224525
0.337906
-0.562431
-0.172885
0.211628
-0.0387428
0.0893233
0.178273
-0.267597
0.0105265
0.213714
0.194341
-0.408055
0.149725
0.233305
-0.38303
-0.344501
0.250264
0.0942376
0.281536
-0.470494
0.188957
-0.00294263
0.000978733
0.121127
-0.0628986
-0.0582286
0.127752
-0.149578
0.074327
0.0468002
0.196845
0.0495034
0.000154102
0.00838813
0.0423575
-0.0118465
-0.030511
-0.536346
0.136933
0.399412
0.131042
0.0179418
-0.0767363
0.35059
0.051273
0.629523
-0.256832
0.168226
-0.0289227
0.0960003
-0.0213569
0.00399377
0.00309759
0.0339041
0.540712
0.104755
0.0132417
0.252394
0.305046
-0.55744
-0.0801006
-0.0170034
0.25808
-0.565061
0.000437559
-0.0342027
0.20481
-0.170607
0.486059
-0.245435
-0.240625
0.267728
-0.519934
0.252205
-0.383338
0.156511
0.03996
-0.0456497
0.0498815
0.0525253
0.0188574
-0.0209146
-0.327959
0.00862387
-0.197072
-0.0974843
0.0868634
0.0106209
0.184724
-0.0634158
-0.170927
-0.0173667
0.017309
5.77248e-05
-0.0187846
-0.00113319
0.0199178
0.0127625
0.0869108
0.508576
-0.545468
0.0368922
-0.0821571
-0.00736783
0.104365
-0.124992
0.0206269
0.19748
-0.34139
0.14391
-0.266431
0.45458
-0.188149
-0.0936185
0.123159
-0.106648
-0.0165105
0.290954
-0.000871747
0.00227716
-0.00140542
0.0100017
0.000552448
-0.0415619
0.12424
0.244268
-0.262784
0.0185156
-0.211561
0.390205
-0.178644
0.365389
-0.215664
0.0204248
-0.0296319
0.137273
-0.0179167
-0.119356
0.467099
0.125922
-0.116583
-0.0127659
0.166929
-0.346638
0.179709
0.186983
0.00931248
0.198924
0.251563
-0.0213441
0.0394306
0.014286
0.441048
-0.15086
-0.0492787
0.200139
0.155648
-0.090254
-0.0224104
-0.0384446
0.060855
-0.0275455
-0.00678628
-0.091511
0.0327495
0.114813
-0.000666748
0.00066475
-0.00112106
0.0222853
0.0250741
-0.0899629
-0.00443369
0.00655651
-0.00212282
-0.481324
0.20992
-0.000182607
0.00444359
0.00241151
0.146972
-0.149384
0.174625
-0.147065
-0.0275594
-0.0354176
-0.0729438
0.108361
0.140331
0.194673
-0.00726569
0.00353475
0.00373094
-0.155828
-0.424572
-0.0796409
0.111453
-0.0318119
-0.0013904
-0.00287058
0.324641
-0.195502
-0.129139
0.227894
-0.0404318
-0.187462
0.073697
0.0337971
-0.107494
-0.200789
-0.168751
0.36954
0.0964428
-0.0208732
-0.0755696
-0.102035
0.00806421
-0.013506
-0.0573445
-0.0683035
0.0954605
-0.045579
-0.405586
0.162254
-0.154489
-0.00776481
-0.0779488
0.23817
0.316001
-0.147272
-0.168729
-0.00851272
0.0646538
-0.0963195
0.293799
0.163909
-0.0250431
0.165705
-0.0768817
-0.550959
0.0146131
0.268738
-0.130758
-0.183057
-0.147631
0.157359
-0.0155894
-0.14177
-0.0191793
-0.03028
0.038488
-0.00820799
0.0895942
0.0258804
0.239067
0.0872055
0.142707
0.414203
-0.0976975
-0.00764643
-0.0417035
-0.0545798
0.259748
-0.155347
0.266636
0.219423
0.478145
-0.167098
-0.311047
-0.116199
-0.402715
0.243192
0.159524
0.0138525
-0.0625515
0.287602
-0.538986
0.251384
0.117254
0.000669849
-0.117924
0.000657141
-0.0814481
0.0457433
-0.0358206
-0.00992271
0.275479
-0.603488
0.257293
0.225693
-0.243271
0.481924
-0.238653
0.120864
0.114878
0.0762707
-0.100647
0.0243759
-0.00048804
-0.0163803
0.00701906
0.0740776
-0.0923241
0.0182465
-0.119307
-0.00193722
0.030983
0.00793573
0.307956
-0.16524
0.176534
0.045635
0.091924
-0.0805274
-0.0113967
-0.132785
-0.087476
-0.307017
0.088207
0.122646
0.0274231
-0.150069
-0.0534919
0.0681231
-0.087514
-0.163678
0.0704787
-0.0284778
-0.0420009
0.204242
-0.0446732
0.00149684
-0.00673672
0.00523988
-0.0744194
0.355526
-0.281106
0.00049915
0.000324441
-0.00543033
0.000996636
0.00491305
-0.026203
0.0281479
-0.00194491
-0.0428721
-0.0449621
-0.111602
0.135132
-0.02353
0.00109713
0.000399714
0.222324
0.162306
-0.115331
-0.397326
0.346486
0.0508401
0.110809
-0.0106465
-0.100163
0.483246
-0.193542
0.0456556
-0.0833955
0.0377399
0.0865071
-0.0492442
-0.0372629
-0.164821
0.0964151
0.0684061
-0.190306
-0.159013
-0.0649873
0.215151
-0.150164
0.0367305
-0.00574753
0.0364899
-0.220977
0.145783
-0.08552
-0.230913
0.489151
-0.258237
-0.0686676
0.0569458
0.0117218
0.103393
-0.019549
-0.0838435
-0.0807008
-0.0960878
0.119487
-0.0233996
0.00341724
-0.000516663
0.292073
-0.0764918
-0.00134456
0.000472814
-0.0821843
0.0393122
0.000988013
0.074728
0.0313127
0.0335487
0.11338
0.102332
-0.215713
-0.0932386
0.0996266
-0.00638797
-0.173226
-0.423948
0.159646
0.0299233
0.051068
0.206942
0.25323
-0.460172
0.0105874
0.0317701
0.00573923
-0.0131886
-0.00194953
0.0151381
0.000866455
0.0904477
0.00147634
-0.0527221
-0.0164256
0.0691476
0.259078
-0.139627
-0.119451
0.0111901
-0.0985591
0.450208
0.058368
0.0561836
-0.0725877
0.0164042
0.105651
-0.0826196
-0.0230317
0.0400512
0.15236
0.0940205
-0.0236328
-0.0703877
-0.0907565
0.0387837
-0.102151
0.0947757
0.00737529
0.345908
-0.14745
-0.198457
0.100915
-0.0413971
0.000212468
-0.00140858
0.00119611
0.231357
0.224921
-0.049819
-0.175102
0.240258
-0.525533
0.285274
-0.507013
0.115494
-0.331617
0.556142
-0.0380095
-0.00756781
0.0455773
-0.278627
0.531021
-0.201194
0.372135
-0.170941
0.0218967
0.489514
-0.261662
-0.227853
0.11107
-0.122477
-0.141465
-0.188009
0.0994023
-0.13482
0.173317
-0.260831
0.050459
-0.0713577
0.524727
-0.271971
-0.252756
0.0244936
-0.00646896
0.0170229
-0.0105539
0.0100595
-0.0795207
0.0948737
-0.015353
-0.111852
0.0602485
-0.0490051
-0.0382582
-0.0279972
0.101694
0.0468232
-0.0098604
-0.0369628
-0.0852806
0.101961
-0.550568
0.210569
-0.00504301
-0.00371538
0.00875839
0.202677
-0.00430851
0.000698712
-0.0564601
-0.157663
0.0124127
0.0562353
0.0360316
-0.0922669
-0.0184877
0.0925654
0.581314
-0.31786
0.180063
-0.21101
0.0309477
0.0020586
0.023515
-0.0255736
0.0335364
0.191384
-0.0622696
-0.00942626
0.0716958
0.16889
-0.218176
0.0492864
0.0858807
-0.0682621
-0.0176186
0.0535879
0.080131
-0.00349223
0.0904099
-0.053422
0.566638
-0.244362
-0.322276
-0.00895538
-0.029792
0.0387474
0.0787329
-0.0194998
-0.0592331
-0.451714
0.310145
0.141569
-0.10965
0.28943
-0.17978
0.0318036
-0.00960791
0.255595
0.0364784
0.120301
-0.104161
-0.0161394
-0.00149824
0.00171071
0.496003
-0.228274
-0.0747708
0.095749
-0.0209782
-0.0508613
-0.112251
0.163112
0.147808
-0.115058
-0.302084
0.192434
-0.261209
-0.190505
0.299372
0.297643
0.00739059
-0.010592
-0.0290105
0.0396025
0.373729
-0.166463
-0.207266
0.432373
-0.225431
0.0990226
0.064295
-0.163318
0.0887888
-0.0325534
-0.0247245
0.433277
-0.214771
-0.231875
0.319735
-0.106021
0.558348
-0.331313
-0.227035
-0.381713
0.178742
-0.0979645
-0.0668567
-0.16145
0.156924
0.00452687
0.0611954
0.0253117
-0.102149
0.0216298
0.0805197
-0.147181
0.130658
0.0165236
0.0983653
-0.0856028
0.265702
-0.131229
-0.134473
0.511411
-0.0909145
-0.304694
0.241856
0.0628375
-0.0199737
0.0761573
-0.172193
0.0673446
-0.0932178
-0.029918
-0.0746065
0.0611005
-0.587688
0.262299
0.00865832
-0.0236537
-0.132151
0.104773
-0.0792958
-0.0254774
-0.0698177
-0.327508
0.0111608
0.0828597
-0.166821
-0.0448043
0.211625
0.389197
0.275986
-0.117145
0.25042
-0.133274
0.50682
0.0233498
-0.53017
-0.0336208
0.111453
0.154155
-0.134166
-0.0199888
0.0319008
-0.117181
0.235524
-0.567141
0.0342429
-0.0431983
-0.338485
-0.00107959
-0.00386064
0.00167495
-0.383386
-0.0443314
0.427717
-0.00395006
0.010333
-0.00638298
-0.630728
0.374471
0.256257
-0.38345
0.182662
-0.221553
0.156566
0.596002
-0.308699
-0.203302
-0.101392
-0.169906
-0.0938159
0.263722
0.341385
-0.174457
0.253802
0.164425
0.200767
0.32355
-0.524317
-0.27652
0.078813
0.0737706
0.0271441
0.0365244
-0.0471164
-0.389112
0.158399
0.230713
-0.0121604
0.00128252
0.325778
0.271237
0.133432
-0.0250836
-0.131629
0.12247
0.0082077
-0.00584173
-0.00236597
0.0406143
-0.0385211
-0.00209322
-0.00635107
-0.103354
0.255777
-0.152423
0.368364
-0.126463
0.0142462
0.0599964
0.141933
-0.557689
0.29187
0.265819
0.00930893
0.141584
-0.219011
0.134499
-0.0187038
0.00512356
0.0135802
0.121832
-0.0138944
-0.107938
0.483906
-0.207652
-0.276253
0.0228062
0.135392
-0.158198
-0.102763
0.0894883
0.0132752
0.500832
-0.243539
0.0729238
-0.0894605
0.0165367
-0.280108
0.226575
0.053533
-0.00326813
0.0159889
-0.0127207
-0.133746
-0.0245971
0.0691146
0.099111
-0.0563777
-0.0359465
-0.0480087
-0.0466795
0.165831
0.400807
-0.0029986
-0.156186
0.00539985
0.304745
-0.104287
-0.011743
0.359377
0.231686
-0.591063
-0.236551
-0.243844
0.480396
0.0899538
-0.259859
-0.203827
0.541733
0.00281042
0.159443
0.00513572
0.0266679
-0.358429
0.16862
-0.0563228
0.0418964
0.0144264
-0.0119597
0.00869159
0.300699
0.200133
-0.00798773
0.0096643
0.0240551
-0.0337194
0.0437711
0.143212
0.0407761
0.00683668
0.00409087
-0.0403231
0.0974867
-0.0571636
-0.016559
-0.000807719
0.0615148
0.0368505
-0.120649
0.280098
0.0995628
-0.0100745
-0.319921
-0.230647
-0.00675188
-0.0119519
0.00912269
-0.122878
0.014443
0.00722547
-0.199713
-0.244449
-0.0162981
-0.00775485
0.0240529
-0.222068
-0.206796
-0.034664
0.0450801
-0.0104161
-0.0721535
0.080529
-0.00837547
0.0806929
0.0157499
0.19746
0.148448
-0.0207482
0.00196357
-0.105621
0.0376408
0.0679799
-0.200186
-0.10683
-0.0227845
0.000883533
-0.0853891
0.184412
0.10357
-0.077664
-0.0259058
0.13961
-0.119773
-0.0198379
-0.025728
-0.000475028
0.328041
-0.0169669
-0.122799
-0.226253
-0.255071
0.0978154
0.0194385
0.0301058
-0.18774
0.157634
-0.258512
-0.216644
0.0279557
0.0681944
-0.2976
0.0760468
0.0932798
-0.100066
0.08845
0.0313392
0.442081
0.000847421
0.00974656
-0.109571
0.269689
0.264083
-0.187926
-0.0761575
0.009277
-0.0233031
0.0140261
0.16851
0.17305
-0.341559
0.218096
-0.244334
0.0262377
0.349526
-0.175258
-0.174268
-0.00723837
0.039676
-0.0324376
0.17696
-0.30262
0.125659
-0.00260105
-0.127624
-0.249324
0.376948
-0.087881
0.233232
0.474198
-0.274759
-0.199439
-0.165594
0.00414325
-0.559826
0.43468
0.125146
0.00727943
0.00408618
-0.0113656
-0.0127498
0.136764
0.113961
-0.0824229
0.178545
0.0909135
-0.269459
0.331182
0.163281
-0.494463
-0.562171
0.283544
0.0643678
0.177488
-0.203752
-0.303261
0.126916
0.0324221
-0.0086386
-0.315822
0.495566
-0.179744
-0.159432
0.0377212
0.0059082
0.0201922
0.0231425
0.185822
-0.327287
-0.00914277
0.0185555
-0.1757
-0.104407
-0.0268136
0.00108564
0.298541
0.260917
-0.559459
-0.233143
-0.111359
0.00829626
-0.0105001
0.0022038
0.110322
-0.0365515
-0.165115
0.0942411
-0.127862
-0.208807
0.105453
-0.115174
0.135153
-0.0199796
-0.129781
0.124049
-0.431461
0.186026
-0.00923939
0.0483036
-0.00834365
0.00205706
0.00160495
-0.0491569
-0.125366
-0.18654
0.194654
-0.00811401
-0.00386418
0.0925712
-0.246441
-0.0534313
0.334968
0.0905041
0.00721021
0.471858
-0.140677
0.0815459
0.0232274
-0.0711326
0.0595254
-0.0767199
0.0955178
-0.0187978
0.0466825
-0.0492716
-0.257643
0.00524037
0.252403
-0.0941466
-0.00822933
-0.016081
0.186145
-0.170064
-0.0159698
-0.0695074
0.0854772
0.142299
0.142303
-0.284603
-0.0581298
0.532951
-0.272759
-0.260192
-0.428583
0.162363
-0.0347467
0.00565219
-0.477652
0.234381
-0.280661
-0.28151
-0.0165355
-0.101501
0.118036
0.0348195
0.159894
-0.194713
0.217259
-0.0407251
-0.380042
0.16848
-0.0354926
-0.0272295
0.0627222
0.0136525
0.0513366
0.0236809
-0.0392022
-0.113592
0.0926621
0.0209295
-0.503286
0.1199
0.047626
0.0483755
-0.0960015
0.149406
0.00474814
-0.146798
0.0691601
-0.0329692
0.05665
0.0656285
-0.00393711
-0.0616914
0.632063
-0.521094
-0.110968
-0.0420191
0.0876747
-0.0449409
0.0925669
0.00996923
-0.0106842
0.467518
-0.231468
-0.23605
-0.0314136
0.0377646
-0.00635102
-0.40779
-0.152036
0.000507564
-0.232366
0.410968
-0.178602
0.520256
-0.261017
-0.259239
-0.00759467
0.00405758
0.00353709
-0.496293
0.259742
0.186345
0.240059
-0.426404
-0.259147
0.0137271
0.00477279
0.00252787
-0.00730066
-0.0930395
-0.020552
0.321443
0.30808
-0.097683
0.0229122
-0.38446
0.144168
0.240292
0.00346972
-0.00254469
-0.000925038
-0.313102
0.547383
-0.234281
-0.211007
0.289857
-0.0978214
0.0414437
0.0609982
0.211106
-0.272104
-0.169428
-0.223858
0.393287
-0.0159274
0.119963
-0.104036
0.000359786
0.338085
-0.140947
0.445993
-0.152473
0.182579
-0.225921
0.0644837
0.161437
0.143907
-0.418169
0.186535
0.00337762
-0.391774
0.125343
-0.0899108
-0.207689
-0.210174
-0.0474696
0.145297
-0.196158
0.437178
-0.298044
-0.115628
-0.0140455
0.129674
-0.00413386
0.0181565
0.16633
0.10853
-0.27486
0.0267802
0.0285678
0.056833
0.272289
-0.0332309
-0.13921
0.172441
-0.492586
0.261673
-0.345058
0.186941
-0.152125
0.176092
-0.0239673
0.0424769
-0.00186256
0.0218803
0.113856
-0.135736
0.596992
0.309341
-0.303941
-0.0972152
-0.00493422
-0.00778136
0.0448685
-0.0370871
-0.130545
-0.212431
0.342976
0.00644556
0.0963489
-0.102794
0.221531
0.0287325
0.193199
-0.0243093
-0.0173232
0.00943345
-0.076324
-0.0892696
-0.0126664
0.0550346
-0.0423682
-0.167829
0.370204
-0.202376
0.46319
0.1708
-0.301345
0.28416
-0.544585
0.260424
-0.0241593
0.125161
0.125258
0.206533
-0.498548
0.292015
-0.311003
-0.236884
0.547887
0.531205
-0.289742
-0.241464
-0.223028
-0.208433
-0.0199791
-0.00280536
-0.367746
-0.262983
0.0119873
-0.00793268
-0.00405465
0.286162
-0.154607
-0.131554
0.00479879
0.0697514
-0.000737256
-0.0690142
-0.336096
-0.237528
0.573624
-0.300457
-0.137308
0.0950375
-0.0722313
0.0753692
-0.0368853
-0.0384839
0.061304
0.0122291
-0.0735331
-0.266
-0.0345409
-0.0329538
0.0184769
-0.0981178
0.0638972
0.0708417
-0.0868115
0.296139
0.300876
-0.261592
0.109941
0.14508
-0.244193
0.0214607
-0.0851373
0.0636766
0.0313301
0.183821
0.233928
-0.11703
0.02399
-0.0150407
0.017599
-0.0025583
0.300682
0.00339079
0.0221335
0.0483453
0.208625
-0.217359
0.00873393
0.15922
0.0694211
0.00931186
0.0106989
0.128911
0.269621
0.197898
0.0143328
-0.0670548
0.279426
0.144899
0.141263
0.168558
-0.170766
0.00220719
-0.1953
-0.0306209