/*--------------------------------*- C++ -*----------------------------------*\
| =========                 |                                                 |
| \\      /  F ield         | OpenFOAM: The Open Source CFD Toolbox           |
|  \\    /   O peration     | Version:  v2012                                 |
|   \\  /    A nd           | Website:  www.openfoam.com                      |
|    \\/     M anipulation  |                                                 |
\*---------------------------------------------------------------------------*/
FoamFile
{
    version     2.0;
    format      ascii;
    class       volScalarField;
    location    "50";
    object      k_0;
}
// * * * * * * * * * * * * * * * * * * * * * * * * * * * * * * * * * * * * * //

dimensions      [0 2 -2 0 0 0 0];


internalField   nonuniform List<scalar> 
13917
(
0.00011169
0.000106838
0.0417601
9.19017e-05
0.000131357
0.00300757
0.0410546
0.0429859
0.0578386
0.000134659
0.00021965
0.000113485
9.16568e-05
0.0141421
0.0001087
0.000107478
0.000107678
0.000112254
0.000112585
0.000132314
0.000146499
0.0409288
0.000130306
0.0411387
0.000121272
0.0383347
0.000129785
0.000156523
0.0122185
0.000161708
0.000112395
0.000104975
0.000119318
0.000110588
0.000121808
0.00289651
0.000131067
0.037484
9.25792e-05
0.0167009
0.000112846
0.000148456
9.56521e-05
0.000251835
0.000100915
0.000111015
0.000111441
0.000121266
0.0368159
0.000124961
9.81214e-05
0.000114305
0.0356994
0.000110644
0.000107797
0.000100494
0.000216534
0.000114421
0.000100835
0.000101098
0.073168
0.000106547
0.0117251
0.000131234
0.00243847
0.0606664
0.000130916
0.000122933
0.000235817
0.000110914
0.00013221
0.0555646
0.0460126
0.000122214
0.0375936
0.000121444
0.0317411
9.9355e-05
0.0358962
0.000143528
0.000140329
0.000131655
0.00213169
0.040335
0.108987
9.92623e-05
0.000138161
0.0496106
9.80053e-05
9.50047e-05
0.0454424
0.000154029
0.000105633
0.000110226
0.0570493
0.00263333
0.000166012
0.00011764
0.000187445
0.000395129
0.000109755
0.000115613
0.000255896
9.79129e-05
0.000106737
0.0566005
0.00305949
0.000124204
0.000107283
0.000115311
0.0676499
0.0176118
0.000128576
0.057876
0.000112082
0.037197
0.000122829
0.0263519
0.0221935
0.000110607
0.000147293
0.000229161
0.0246362
0.000150845
0.000120151
0.000110476
0.00010256
0.000120426
9.76506e-05
0.00310793
0.0331417
0.000112264
0.000101021
0.000147337
0.00514545
0.0403221
0.000112238
0.000415111
0.000130139
0.00011066
0.00117736
0.000101871
0.000112662
0.000335417
0.000122453
0.0443214
0.0136515
0.000114657
0.000101551
0.000105551
0.00011003
0.0374176
0.000131927
0.000119228
0.000102624
0.122533
0.000110213
0.00702608
0.0282589
0.00544769
0.00011014
0.000129693
0.000143518
0.00015988
0.000127212
0.000183238
9.79682e-05
0.000113275
0.000101771
0.000116128
0.000118096
0.049403
0.000134771
0.000107059
0.0330668
0.000125784
0.034661
0.0322468
0.0400915
0.000110299
0.00015766
0.000113148
0.000101437
0.000137285
0.000111023
0.0381357
0.000623355
0.128126
0.000104279
0.00017068
0.00126826
0.115121
0.000594671
0.000131085
0.000441213
0.000127655
0.000108984
0.000105462
0.000983202
0.0460447
9.56764e-05
0.000125479
0.000110271
0.000109459
0.0412971
0.00282204
0.000122363
0.000113783
0.000116456
0.0394403
0.000113135
0.0416466
0.0325095
0.000171327
0.000107393
0.00537218
0.000111357
0.043523
0.000118552
0.0568557
0.000110901
0.000147751
0.000113463
0.040921
0.0581604
0.000107414
0.0315455
0.00010257
0.000107595
0.00238365
0.000133574
0.000103943
0.0394801
0.0280373
0.000107383
0.000105012
0.0491561
0.104308
0.000142706
0.000118956
0.0176845
0.000184862
0.000146571
0.00078365
0.000146731
0.000127424
0.000108702
0.000142702
0.000127033
0.029624
9.37464e-05
0.000193913
0.000564888
0.00010248
0.000114822
0.000117005
0.0218448
0.000127498
0.000111192
0.000108571
0.000147099
0.020546
0.0490943
0.00137715
0.000108358
0.048076
0.0228093
0.0114523
0.035507
0.000126052
0.000141385
0.00011756
0.000111229
0.0377096
0.000167415
0.000100631
0.00359488
9.92351e-05
9.71258e-05
0.0248676
0.000130296
0.0357331
9.55081e-05
0.000146126
0.000107875
0.000119137
0.000129417
0.000865082
0.000111029
9.61106e-05
0.00118889
0.0391443
0.0563725
0.000118773
0.0137371
0.00013739
9.58179e-05
0.000123589
0.0269616
0.000131936
0.000154544
0.000108523
0.000101619
0.000110181
0.000103988
0.0355693
0.00012317
0.000145579
9.98012e-05
0.000115337
0.066125
0.0236395
0.000122335
0.000115459
0.0225586
0.000109179
0.0485376
0.000100385
0.0429569
9.17548e-05
0.00207431
0.000100023
0.039275
0.000110294
0.00308063
0.00175971
0.000107712
0.000184802
0.00511144
0.000110832
0.0341385
0.00044217
0.0257865
0.000110487
0.01803
0.000104891
0.095538
0.00135374
0.000318864
0.000308441
0.0426939
0.000141566
0.000119166
0.0734102
0.000113669
0.000107607
0.0233138
0.00136844
0.000106851
0.000798932
0.00736954
0.000112861
0.0201215
0.00139587
0.00012977
0.000114221
0.000138195
0.000101198
0.00104696
0.0370943
0.00597614
0.0720982
0.000122682
0.000212856
0.056485
0.000103518
0.0414659
0.0411525
0.0593617
0.000106212
0.00118546
0.00011277
0.044476
0.000101453
0.0384087
0.00014702
9.3679e-05
0.000139804
0.00011436
0.000166962
0.000125345
0.0728658
0.0904287
0.0372797
0.00013051
0.000131002
0.000119608
0.109664
0.0399166
0.000112787
0.00234565
0.000125066
0.000560949
9.18512e-05
0.000142524
0.000104687
0.0325732
0.000104821
0.0238555
0.117096
0.000193186
0.00248835
0.000110531
0.00320462
0.00228131
0.000125718
0.00163314
0.000114198
0.000123163
0.000162361
0.000145993
0.000121589
0.000112498
0.000616895
0.0001446
0.0196609
0.0335588
0.0708085
0.000603711
0.028058
0.0407592
0.000103092
0.000123464
0.000241431
9.26327e-05
0.000105303
0.000130431
0.0420587
0.0400859
0.0327714
0.000108152
0.000157949
0.000110574
9.27825e-05
0.000124671
0.000106101
0.00145463
0.000107195
0.000130936
0.0527226
0.0335705
0.0347882
0.000235572
0.0552936
0.0368444
0.0676255
0.0293122
9.92497e-05
0.000113541
0.000106053
0.000113969
0.00183673
0.000111926
9.13099e-05
0.000120659
0.000102549
0.027971
0.000125353
0.000163445
0.121385
0.00904619
0.0229866
0.000145375
0.000112904
0.000107535
0.000110513
0.000106539
0.0366448
0.00356221
0.000110592
0.118498
0.000100225
0.000162915
0.071771
0.0122112
0.000186622
0.00133015
0.000162928
0.00012089
0.000223499
0.000101176
0.00022126
0.00246885
0.000103087
0.000130154
0.00010196
0.00337972
9.87606e-05
9.39248e-05
0.000109625
9.89162e-05
0.0293356
0.0568076
0.000109598
9.72054e-05
0.0374227
0.0354564
0.000146048
0.0196244
9.49375e-05
0.000392187
0.000109766
0.0409007
0.00368272
0.000105415
0.000103097
0.0300083
0.000442133
0.0554918
0.000146917
0.0330859
0.0340494
0.0251899
9.43735e-05
0.103344
0.0717014
0.000103066
0.000113696
0.000108713
0.000121439
0.000847498
9.11056e-05
0.000114868
0.000120296
0.000119736
0.0430178
0.00188508
0.000102949
0.000549845
0.000117282
0.000110327
0.000156184
0.0690487
0.000103728
0.000101227
0.000122855
0.00012653
0.027863
0.116538
0.000137685
0.000126517
0.000925429
0.000101214
9.99908e-05
0.000113355
0.000105175
0.000105581
0.000128515
0.00238178
0.000616706
0.000246003
0.000146029
0.00295998
0.000143642
0.000119634
0.0334735
0.00012698
0.000107385
9.48475e-05
0.00329772
0.000191161
0.000109736
0.00764069
0.000176891
0.0823446
0.000147061
0.000117864
0.000103515
0.000138938
0.0612507
0.00264902
0.0443528
0.000107454
0.000101558
0.000584151
0.0429495
0.016216
0.000120124
0.000268742
0.000107631
0.000102404
0.000112765
0.000150542
0.000273836
0.000116114
0.000110773
0.000563059
0.0448808
0.0614443
0.000105218
0.000158175
0.0029816
0.000108107
0.000113322
0.0551539
0.0465492
0.0465439
0.000473742
9.83433e-05
0.0216815
0.000120467
0.000110547
0.000104409
0.000123291
0.000117668
0.000158017
0.0363424
0.000217345
9.91454e-05
0.0610338
9.97181e-05
0.0260683
0.000143612
0.000136993
0.0155256
0.0486486
0.00503773
9.94841e-05
0.000107273
0.000126852
9.96233e-05
0.0359601
0.000172676
0.000102325
0.000174682
0.000113443
0.000109261
0.0300975
0.000168674
0.00233525
0.000116752
0.000210684
9.92118e-05
0.124507
0.000135943
0.000188453
0.000101879
0.00011465
9.63738e-05
0.000102337
0.000336406
0.000111089
0.000508617
0.0954404
0.000112904
0.000113511
0.000212167
0.00666444
0.00408828
9.39946e-05
0.000110813
0.000115481
9.50071e-05
0.000100633
0.0724269
0.000142756
0.0428358
9.53382e-05
0.000218161
0.000157749
0.0467604
0.000191508
0.000108944
0.036581
0.023942
0.000111031
9.45318e-05
0.00414308
0.000381268
0.000167008
0.000143674
0.000102962
0.00105086
9.3552e-05
0.000124939
0.000114563
9.60768e-05
0.000109109
0.0417012
9.32459e-05
9.21374e-05
0.00012169
0.0227781
0.000146405
0.000108167
0.051611
0.000108029
0.0441533
0.000102842
0.000120471
0.000121029
0.000132181
0.000124317
0.000120637
0.000115034
0.000192312
9.50065e-05
0.114067
0.0644086
0.0696668
0.000108606
0.000140683
0.00013816
0.000116209
0.0268587
0.0643305
0.000112125
0.000122937
0.000575822
0.00708777
0.00191189
0.000427634
0.000109466
0.0349198
0.000112072
9.83765e-05
0.000206391
0.000718828
0.000111767
0.0192735
0.000111855
9.3132e-05
0.000127207
0.000107601
9.47054e-05
9.50752e-05
0.000114934
0.000105485
0.000124753
0.000116158
0.000113236
9.63328e-05
0.000126056
0.000123641
0.000126342
0.000147267
0.000105606
9.24937e-05
0.00010462
0.000123174
0.0405804
0.000112366
0.00190546
0.000108224
0.000144539
0.000142376
0.000121703
0.000112724
0.0358438
0.000161886
0.0302491
9.53188e-05
0.000175828
9.7279e-05
0.000146744
0.00011886
0.000104335
0.0472338
0.000145407
0.00632395
0.000104695
0.0633391
0.00013575
0.000162292
0.000214337
9.98199e-05
0.000149072
0.000113249
0.000122808
0.000111383
0.0240645
0.000107015
0.000138173
0.000102032
0.000118606
9.93119e-05
0.000105168
0.000111494
0.0219345
0.000108319
9.31404e-05
0.000112066
0.0459973
0.000332423
0.000110319
0.000107257
0.0278875
0.00348948
0.0409951
0.000117653
9.33096e-05
0.000108002
9.90539e-05
0.000103666
0.000108574
0.000543379
0.000110495
0.0321547
0.000105072
0.000109749
0.0388717
0.000125546
9.86643e-05
0.000112192
0.000129579
0.000114487
0.00013348
9.99175e-05
0.0462002
0.0206114
0.000157989
0.000119226
9.39596e-05
0.000167245
0.00580999
0.000145957
0.00227992
9.43107e-05
0.000112825
9.10305e-05
9.54774e-05
0.0010422
9.82383e-05
0.0193407
0.000108952
0.000147258
9.71868e-05
0.000119221
0.000113383
9.22922e-05
0.0684321
9.41621e-05
9.81783e-05
0.0552063
0.0492184
9.964e-05
0.00011541
0.000121292
9.86244e-05
0.000102514
0.000111168
0.0389774
0.000199889
0.000133461
0.000103357
0.0632252
0.000102658
0.0799762
0.000146448
0.000112476
0.0208631
0.000101071
9.94449e-05
0.0490398
0.0292241
0.000113304
0.000191245
0.000118451
9.86877e-05
0.000107089
0.0513311
9.23135e-05
9.0819e-05
0.00010213
0.0225963
9.27481e-05
0.000386412
0.000191595
9.44769e-05
0.000115814
0.00013762
0.0747339
0.000120028
9.39425e-05
0.000138306
0.00017304
0.000137492
0.000216741
0.0171864
0.0378937
0.00011067
0.00146082
0.0586685
0.000115185
0.0190056
0.0870864
0.0635585
0.0282828
0.0550651
0.0955372
0.000200318
0.000108322
0.0359486
0.000101137
0.0399723
9.45433e-05
0.000105207
0.000110075
0.00013699
9.83432e-05
0.000112967
0.026951
0.000105073
0.000127512
0.0594312
0.00123496
0.000119406
0.000122949
0.000102766
9.92094e-05
0.0673609
0.00012741
0.000110101
9.27789e-05
0.0175943
0.0443186
0.0223555
9.12591e-05
0.000452447
0.000175118
0.0771667
0.0606767
0.00013344
0.000109243
9.73748e-05
0.00010537
9.08355e-05
0.000105204
9.89643e-05
0.000105408
0.000111543
0.1202
0.000181913
9.1121e-05
0.000171372
0.0678203
0.000112551
0.000113908
0.0280685
0.00010197
0.00011172
0.00012262
0.124909
0.000137588
0.000116579
0.0422441
0.000691878
0.00237998
0.000155488
0.00274257
0.000115101
0.000244193
0.000113578
0.000122249
0.000113693
0.0374252
0.0459326
9.70786e-05
9.67819e-05
0.00011182
0.00448764
0.000105613
0.000101279
0.000123314
0.000107202
0.000237739
9.42092e-05
0.000121155
0.00124062
0.0348652
0.000102669
0.000192896
0.000105101
0.0450335
0.0654641
0.000122087
0.0631297
0.000124713
0.02433
0.000137423
0.0324397
0.000144417
0.000100535
0.000114477
0.000155497
0.0385041
0.00281356
0.00025437
0.0497104
0.000113357
0.000503762
9.51768e-05
0.000107409
0.0428793
0.000113527
0.000145196
0.000103911
9.99212e-05
0.116273
9.99798e-05
0.000129449
0.000109825
0.000114062
0.000108279
0.00452322
0.000186166
0.0483268
0.00011243
0.000102342
9.7845e-05
0.0343319
0.000100309
0.0510154
0.0381116
9.59336e-05
9.35957e-05
0.0269953
0.00219752
0.000114502
0.000161507
0.000103719
9.34674e-05
9.83159e-05
9.9489e-05
0.000114167
0.00014927
0.000108742
0.000367495
0.000113303
0.000120747
9.7961e-05
0.000156777
0.000114481
0.000110663
0.00011454
9.64178e-05
9.65566e-05
9.74809e-05
0.0477649
0.000153122
0.0406352
0.000121083
0.000105998
0.000113778
0.000112638
0.000147889
0.000154897
9.35601e-05
0.000146937
9.79764e-05
0.0437826
0.000114773
9.88289e-05
0.0257697
0.000461276
0.000115344
0.000107013
0.0155606
0.00012265
0.000116266
0.083607
0.0559573
0.000110713
0.000238503
0.000131541
9.63055e-05
0.0374289
0.000104048
0.000100276
0.000672981
9.71946e-05
0.00398254
0.000139589
0.000100746
0.00011044
0.000189014
0.0271278
0.000114618
0.000111094
0.000115283
0.000108154
0.000129494
0.0141834
0.000118331
0.000146865
0.0391004
0.00013614
0.000577829
0.0380944
0.0497708
9.70035e-05
0.000114293
0.000111625
0.00942455
0.000108748
0.0271689
0.0543226
0.000110205
0.0425412
0.0364642
0.000108652
0.000213152
0.000170697
0.00223138
0.0382025
0.000165433
0.012335
0.0418455
0.000113131
0.000107996
0.0347189
0.000160748
9.50402e-05
9.7915e-05
0.070098
0.000114898
0.000109424
0.000135375
0.000155753
0.000111228
0.03296
0.000105998
0.0420824
9.84805e-05
0.00198535
0.00017948
0.00050669
0.000102353
9.8215e-05
0.000106927
0.040044
0.000121743
0.000110015
0.000102643
0.000104935
0.000103912
0.00011618
0.000216257
0.0324585
0.000132902
0.00017209
0.032307
0.00180231
0.000102653
0.00401699
0.0355731
0.00010117
0.000115637
0.000102694
0.0528951
0.00014538
0.000124928
0.00699996
0.000122913
0.00011792
9.37526e-05
9.65607e-05
0.000162114
0.00011673
0.000122428
0.104455
0.0353147
0.000123689
0.00264984
0.000113536
0.0356357
0.000108238
9.87401e-05
0.0330578
0.00350106
0.000133785
0.0484203
0.00010482
0.000147513
9.64862e-05
0.000106107
0.000120285
0.000112519
0.000133968
0.00011603
0.000172219
0.00011881
0.000102312
9.50316e-05
0.000160071
0.00017182
0.00830018
0.00011561
0.000494377
9.68888e-05
0.0322276
0.000124401
0.000110551
0.000132879
0.000387358
0.0435559
0.000200308
0.000115407
0.000182563
0.000109977
0.00010528
0.0514283
9.92471e-05
0.000113813
0.000112853
0.000104249
0.041988
0.000116044
0.000109599
9.21349e-05
0.0001256
0.000114316
0.000107519
0.00010591
0.00011031
0.0312219
0.000102948
0.000843025
0.0449703
0.000112103
0.0283615
0.000103076
0.000106073
0.000110625
0.0336655
9.29797e-05
0.000113431
0.000102312
0.0412797
0.000112613
0.0731957
0.000121676
0.000125034
0.000100517
9.8075e-05
0.000244686
0.00011322
0.000148476
0.000116444
9.56537e-05
0.000110071
0.000104026
0.000118544
0.00175826
0.039953
9.2817e-05
0.000122202
0.0155993
0.0145472
9.94116e-05
0.00132056
0.0541848
0.000104638
0.0602218
0.000111012
0.0828393
0.0623392
9.3272e-05
0.000145977
0.000119249
9.41653e-05
0.000113221
9.43925e-05
0.000110794
0.000133276
0.00010012
0.000115861
0.0427053
0.000112477
9.75477e-05
0.0581121
9.97466e-05
0.0198563
9.44757e-05
0.000151587
0.000111898
0.0346066
0.0496039
0.000109642
9.46085e-05
0.0328925
0.000111911
0.0597606
0.000124951
9.67651e-05
0.0443096
9.60292e-05
0.000133874
0.107906
0.000126866
0.000115068
0.00010488
9.76524e-05
0.000114985
0.0349569
0.0569883
0.000103905
9.7595e-05
0.000114257
0.000104993
0.000120691
0.0287819
0.000111223
0.046191
0.0132169
0.00198912
0.00438222
9.64175e-05
0.000171923
0.000810012
0.000111617
0.000126873
0.000111536
0.041838
0.000110448
0.00013883
0.042289
0.0427884
0.00144752
0.000110619
0.000111195
0.000144475
0.000126804
0.0461585
0.000111167
9.59855e-05
9.45669e-05
0.000100698
0.000146824
0.000113029
0.000122696
0.000121174
9.7817e-05
0.0371777
0.000136293
0.100672
0.0251392
0.000110171
0.000109357
0.000109303
0.000107938
0.0304767
0.000107106
0.000105744
0.000108695
0.000167006
0.000157976
0.0324669
0.000759738
0.000102349
0.0354042
9.60453e-05
9.90211e-05
0.000131795
0.000147292
9.35039e-05
0.000236065
0.0383588
9.74071e-05
0.0341566
0.000106247
9.6645e-05
0.000105699
0.0428801
0.000105332
9.42305e-05
0.0731494
0.000103757
0.000537464
0.0308459
0.000144577
0.000139419
0.000124044
0.0167094
0.000125722
0.00012235
0.036058
0.00011165
0.000237653
0.000147783
0.0484975
0.000110976
0.00205028
9.25301e-05
0.000204722
0.0380329
9.78101e-05
0.0329895
0.000114971
0.000122012
0.000154326
0.000144451
0.0961605
0.000107905
0.000164312
0.000117172
0.000325445
0.000120891
0.000127834
0.000111388
0.0420267
0.000111919
0.0175579
0.000111159
0.000114212
0.000103337
0.00011273
0.000117743
0.000115305
0.038528
0.000106514
0.000106505
0.0368796
9.87628e-05
0.0186839
0.000100764
0.0354833
0.00235539
0.00010846
0.000121393
0.000117467
0.000131103
9.87299e-05
0.000154348
0.000151688
0.000123621
0.000104337
0.000129757
0.003657
9.74565e-05
0.000108079
0.0125584
0.000118622
0.125632
0.000108927
9.49371e-05
0.0218604
0.0391956
0.00132328
0.0355912
0.0175874
0.000112013
0.00148069
0.0695023
0.00234393
0.00013756
0.000115203
0.000161767
0.0359362
0.0198779
0.00505236
9.13088e-05
0.000143909
0.000104759
0.0301082
0.060564
0.000102594
0.000177539
0.000105795
0.000155367
0.000133443
0.000136779
0.000161307
0.0305285
0.000133504
0.00768935
0.000145248
9.8959e-05
0.0309517
0.045396
0.000112035
9.13939e-05
0.000102723
9.78342e-05
0.000128377
0.000244464
9.3841e-05
0.000121908
0.000130849
0.000100114
0.000103923
0.00010419
0.00113684
0.000121356
0.0506421
0.0503827
0.0495051
0.000560933
0.00011504
0.00200719
0.000101794
0.0352687
0.00428402
0.0188702
0.000107539
0.0829434
0.0268571
0.00010698
0.000125233
0.000169602
0.086041
0.036321
9.38526e-05
0.000110479
0.0337173
0.0329544
0.0155791
0.00010342
0.000110809
0.0318806
0.000112068
0.0381223
0.126876
0.00354864
0.0168247
0.000117564
0.000114707
0.000114942
0.000110415
0.0296256
0.00010149
9.55883e-05
0.000113055
0.000197519
0.0479756
0.000100008
0.0331201
0.0717505
0.0218181
0.0382279
0.000125746
0.000137509
0.0350541
9.9754e-05
9.51902e-05
0.000108496
0.0359597
0.000103316
0.130132
0.000193268
0.000123981
0.0659457
0.000108412
0.000104287
0.0633499
0.000694801
0.000110549
9.45911e-05
0.0818547
0.0777388
0.000138217
0.0384036
0.0149692
0.115216
0.0165052
0.000161718
0.000112136
0.000100592
0.0256503
0.000101156
0.0348646
0.00011014
0.0139945
0.00067359
0.000111555
0.000110428
0.000110143
0.000111378
0.0966711
0.0177432
0.000126956
0.0803369
0.000103044
0.000110634
0.000109609
0.000117029
0.000225095
0.000102809
0.0350905
0.000145413
0.000111376
0.000113697
0.000275105
0.0244659
0.000104789
0.000105656
0.0001106
0.000118331
0.000100236
9.77587e-05
0.0410012
0.0245059
0.0819705
0.000103283
0.000113689
0.000108131
0.000173176
0.000112674
0.00010773
0.000238282
0.000112733
0.00204772
9.32789e-05
0.0731514
0.0244714
0.000148328
0.0447973
0.000162925
9.93857e-05
0.0353015
0.000108187
0.11509
0.000110982
0.000109969
0.000110443
9.95554e-05
0.000721801
0.000110484
9.26321e-05
0.000114051
0.0242489
0.0283363
0.000144407
0.000123505
0.000102412
0.000103129
0.000190798
0.000113418
0.000139962
9.72179e-05
0.0402066
9.42677e-05
0.0438362
0.000103198
0.0710861
0.000101269
9.85765e-05
0.117217
0.00216354
0.000380992
0.00316977
0.000134453
0.000104306
0.000123349
0.0509908
0.000126473
0.000113145
0.000300751
0.000111952
0.128453
0.0805579
0.000175871
0.0427246
0.00019155
0.00298896
9.21718e-05
9.94166e-05
9.79966e-05
0.0548322
0.000110605
0.0626077
0.0251943
9.42022e-05
0.000118955
0.000111965
0.0216779
0.041895
9.7639e-05
0.000131719
0.0001077
0.000104206
0.000103627
0.000762405
0.00107928
0.000128164
0.00542774
0.00014595
0.028706
0.000126173
0.000105755
0.000101382
0.0656316
0.000115002
0.000145352
0.0400636
0.000109718
0.000104171
0.000245182
0.000489306
0.00011115
0.0213027
0.000100979
0.000494545
9.87293e-05
0.000110734
9.58582e-05
0.076899
0.000112535
0.000272317
0.0256676
0.097525
0.000111838
0.000130946
9.5856e-05
0.000138605
0.000146455
0.101072
9.7308e-05
9.68795e-05
0.000101557
0.000130559
0.000146933
0.0358786
0.000127619
0.000138411
0.000112219
0.000181136
0.000114998
0.000107866
0.000121375
0.000421052
0.000175574
0.00014529
0.00095573
0.0029863
0.000355227
0.000147098
0.000110922
0.000217565
0.037188
0.00538284
0.000148294
0.0205195
0.0354195
0.00014823
0.000101056
9.93594e-05
0.00535777
0.000172819
9.52147e-05
0.0249485
0.0584987
0.000108958
0.000115338
0.0327024
0.0267662
0.000113062
9.93388e-05
0.0283483
0.027785
0.041558
0.000124565
0.0551469
0.000126959
0.000198593
0.0817461
9.99395e-05
9.99293e-05
0.000102608
0.000296156
0.000101284
0.0349127
0.0734849
0.000106016
0.0394973
0.00545546
0.076894
0.000102775
0.000155719
0.000114791
0.000111628
0.0482011
0.00505744
0.000424788
0.00878708
0.000109591
0.000111945
0.000112614
0.0862674
0.0194147
0.000123862
0.000103697
0.000114295
9.36183e-05
0.000109123
0.0463877
0.0458606
0.000112192
0.000101075
9.40791e-05
0.0497628
0.000109512
0.000111114
0.000105185
0.000108372
0.00834946
0.00568437
0.00109055
0.0530243
0.000137401
0.000499976
0.000110014
0.000138618
0.0572335
0.0550482
0.000128125
0.000149383
9.8209e-05
0.000110305
0.000115508
0.0501045
0.0575438
0.00010023
9.11121e-05
0.000139168
0.000120372
0.0586661
9.59678e-05
0.0335782
0.000153677
0.000111597
0.000103771
0.000122815
0.0768003
0.000101519
0.0039525
0.120872
0.000111457
0.0325198
0.00011603
0.000120603
0.00199898
0.0403662
0.0746184
0.000110139
0.000112697
0.00079484
9.63384e-05
0.000110507
0.000114691
0.032964
0.000112175
0.0106078
0.001338
0.000110063
0.000133081
0.000563561
9.84667e-05
0.000147023
0.0016049
9.73703e-05
9.72805e-05
0.000103611
0.000115071
0.0449991
0.000107163
0.00407548
0.000110721
0.000117406
0.115198
0.0369882
0.000110303
0.000116243
0.000100081
0.000127816
0.000110404
9.55667e-05
0.000108138
9.90428e-05
0.000561776
0.000109844
0.0332229
0.000160552
0.00105167
0.000166722
9.65173e-05
0.0508432
9.79942e-05
0.0403556
0.000110685
0.0755006
0.0113836
0.0177062
0.0153048
0.000573864
0.0002176
9.52959e-05
0.0459039
0.000241923
0.000122098
0.0417026
0.043253
0.000110663
9.56626e-05
0.000105071
0.000105013
9.99668e-05
0.0383818
0.000148355
9.52094e-05
9.90316e-05
0.000112049
0.000136724
0.000130754
9.58632e-05
0.0341077
0.000109573
0.000198014
0.000104104
0.000104969
0.0002257
0.00539428
0.000147826
0.000107433
0.000801364
0.0430585
0.114144
9.54827e-05
0.0329071
0.000100996
0.0314421
0.000126447
0.000108362
0.0418367
0.000105011
0.0701837
0.042132
0.000116179
0.0676131
0.000109012
9.50962e-05
0.0357833
0.000191002
0.000107847
0.0553753
0.000103872
0.000133712
0.000110066
0.000135772
0.000103773
0.0325899
0.040945
0.0534939
0.000454006
0.000100987
0.000126707
0.0682303
0.000107863
0.000112
0.000160323
0.000100127
0.00164593
0.125483
0.0188256
0.0240353
0.000109525
9.55763e-05
0.0540582
9.65448e-05
0.000122629
0.000143393
0.119634
0.000105382
0.000133553
0.0310698
0.000172475
0.000125231
0.000111427
0.117094
0.000118591
0.000200836
0.000102703
0.030711
0.0655492
0.000161383
0.00025964
0.000119279
0.000890104
0.000191602
0.000105186
0.000103107
9.43135e-05
0.000135107
0.000108794
0.000132913
0.00013152
0.000117103
0.000100725
0.0836721
0.000103047
0.000103622
9.58352e-05
0.000147334
0.034874
0.000104675
0.000110142
0.0473532
0.000103111
0.0321373
0.000118247
0.0807694
0.000104498
0.0562558
0.000106016
0.000175972
9.32821e-05
0.000104689
0.000171996
0.00015984
0.000376885
0.0544462
0.000321606
0.0274229
0.000110749
0.000157495
0.000122707
0.00301428
0.000109838
9.31728e-05
0.00011927
0.000107414
0.00012785
0.00351194
0.000110868
0.0379548
0.0289097
0.000328089
0.000111384
0.00763641
0.000907937
0.00011297
0.000110071
0.000115775
0.0331443
0.00012065
0.0160582
0.000103376
9.7449e-05
0.0531694
0.000193342
0.000124989
0.000119594
0.0296658
0.000106126
0.000108167
9.9297e-05
0.000109302
0.000103249
0.000109085
0.000225834
0.000297338
0.000131256
0.000512494
0.0883455
0.0336531
0.0381099
0.000104198
0.000116577
0.000297933
9.59111e-05
0.000139491
0.0327278
0.0344421
9.92605e-05
0.000123713
0.0307359
0.00126626
9.9866e-05
0.000107117
0.000110593
0.120984
0.0364655
0.000102848
0.000108325
0.000139986
0.000658181
0.000175417
0.000525817
0.000114352
0.000127143
0.000113923
0.000107253
0.000599129
0.000111929
0.000100338
0.000103336
0.0410479
0.00010912
0.0509346
0.000131656
0.0406563
0.000113997
0.000111209
0.000107092
0.00011662
0.0123916
0.0261392
0.000169311
0.0201225
0.12277
0.000111048
0.0469033
0.000206698
0.000103349
0.0156173
0.00110092
0.000162011
0.000145324
0.030572
0.0811856
9.63326e-05
0.000119224
0.024299
0.000119008
0.000112249
0.000101145
0.000101575
9.73894e-05
0.000140066
0.000538497
0.000263019
0.000139473
0.000100371
0.000111594
0.0354801
0.000104871
0.000120652
0.000110819
9.10074e-05
0.000112306
0.000124123
0.000108192
0.000529074
0.000122821
0.0597383
0.000123427
0.0723268
0.0368015
0.000147089
0.000109627
0.000149329
0.0580844
9.90018e-05
0.000103301
0.000113959
0.00101895
0.00372302
0.000103602
0.0370931
0.000125251
0.00238746
0.000113304
0.000119628
9.56143e-05
0.000134376
0.0768794
0.0371039
0.00919604
0.000103783
0.000121056
0.000120315
0.109911
0.050004
0.0004389
0.000108875
9.64502e-05
0.0533228
9.98665e-05
0.000101245
0.000427601
0.000160927
0.000110363
0.000909141
0.00013525
0.000109921
0.000103429
0.067649
0.000100264
0.00012248
0.0538722
0.000133744
0.000100962
0.0271252
0.000125777
0.000131912
0.0002245
0.000291281
0.128543
0.000102027
0.000109708
0.000113909
0.0409204
0.000106888
0.00456352
0.00996455
0.0348767
0.0252783
0.0983301
0.000112839
0.0498988
0.0114455
0.000140918
0.000111134
0.000130777
0.000112703
0.0214206
0.0414336
0.0876539
0.0340462
0.0343463
0.00011251
0.000153093
0.000126425
0.0839429
0.000101262
9.45868e-05
0.000101315
0.000101367
0.00010881
0.000154157
0.0853157
0.000103573
0.000101727
0.000113635
0.0409461
0.000101661
0.0781011
0.031883
0.00965761
0.000130138
0.000108962
0.0322576
0.00217402
0.000134315
0.00113579
0.000142699
0.000246624
0.000794988
0.000146139
0.000108199
0.0242146
0.000104978
9.47176e-05
0.000442805
0.0272458
0.000104458
0.000122699
0.00011277
0.0145906
0.000121925
0.000118593
0.000102465
0.000116124
0.0968497
0.0381617
0.00313273
0.000109426
0.0595283
0.00166459
9.99515e-05
9.96828e-05
0.000101189
0.0212313
9.68118e-05
0.000108907
0.000118996
0.000116451
9.74484e-05
0.0606525
9.34569e-05
0.0287955
9.10365e-05
0.000115487
0.000102427
0.0273791
0.000126328
0.000100977
9.90079e-05
0.000153326
0.0975434
0.000115896
0.0265765
0.000134984
0.000127037
9.24578e-05
0.000117291
0.0284735
0.0324847
9.66925e-05
0.00010129
0.000453645
0.000480019
0.000123863
0.0440802
0.00010941
0.00143867
9.94369e-05
0.000102272
0.0342398
9.17285e-05
0.0367405
0.000120202
0.000102262
0.000132695
0.0357025
0.0338603
0.000100435
0.00114349
0.00039959
0.000127976
0.000101099
0.000111467
0.00126328
0.0473603
0.000130489
9.35018e-05
0.000108202
0.000124899
0.000115536
0.000101306
0.000123284
0.000255952
0.000116337
0.000113044
0.00490715
0.000107328
9.83977e-05
0.0307324
0.000124411
0.000125685
0.000150672
0.000100467
0.00282433
0.000110696
0.0830981
0.000118337
0.00011064
0.000147703
0.000145552
0.000100438
0.0772016
0.000110743
9.46635e-05
0.00347826
0.000110208
0.000300424
0.00027823
0.000250587
0.000117832
0.000113506
9.89262e-05
0.000116447
0.000108744
0.000108446
0.0308375
0.0797772
0.0324235
0.000146545
0.0344357
0.0371127
0.0508967
0.000118455
0.000110118
0.00011034
0.0388565
0.000108411
0.000100372
0.103258
0.0330173
0.0811352
0.00038059
0.000233615
0.0299938
0.00197618
9.55099e-05
0.07272
0.000366018
0.000101787
9.68443e-05
0.0001065
0.0909025
0.000156479
0.0420244
0.000103679
0.0159773
0.000103297
0.00224087
0.0270639
0.000111711
0.000100701
0.0551038
0.0356222
0.000118175
0.00010099
0.000108508
0.000113621
0.000726742
0.000172031
0.0154561
0.0499352
0.000101552
0.0730877
0.000292505
0.00711135
0.00012553
0.000136874
0.0126126
0.00135861
0.000113266
0.000114129
0.000206501
0.000125472
0.0334875
0.0426438
0.0815932
0.0513234
0.000108623
9.65008e-05
0.000201007
0.0229985
0.0339512
9.79255e-05
0.00154183
0.000300487
0.00312224
9.13764e-05
0.00014548
0.0225821
0.006441
0.0105775
0.0310437
0.0204919
0.000118907
0.00129608
0.0511611
0.00011415
0.000188316
0.000158293
0.000100605
0.000227463
0.0516174
0.00151489
0.000145426
0.0174563
0.000167866
0.108293
9.19809e-05
9.51989e-05
0.000107198
9.1775e-05
0.000107629
0.000123097
0.000121031
0.000128502
0.00185899
0.000100716
0.0397298
0.000109719
9.43047e-05
0.000105706
0.037032
0.000174134
0.0672682
0.000106695
0.000110868
0.0306403
0.000328494
0.00011777
0.000127029
0.00703901
0.0448572
0.000635377
0.000111031
0.000110674
0.000108026
0.00204626
0.000107611
0.0387296
0.0230257
0.00133532
0.000107179
0.000397471
0.0552086
0.000107709
0.0360884
0.000112473
0.000151741
0.000106685
9.74786e-05
0.000114243
0.0667825
0.000129537
0.0718088
0.00335672
0.00029473
0.000297713
0.000106519
0.000124713
0.000100749
9.33668e-05
0.106943
0.117246
0.000235302
0.01051
0.000110029
0.000103568
0.000102724
0.000144426
0.0924647
9.72083e-05
0.0666695
0.000271734
9.10616e-05
0.00246008
0.016262
0.0305296
0.0438251
9.79572e-05
9.48227e-05
0.000133498
9.21437e-05
0.00653925
0.00122296
0.0700936
0.000135803
9.47444e-05
0.00061497
0.000145895
0.000731159
0.000110554
0.000591806
0.000721316
0.000123106
0.000119191
0.000101336
0.000110227
0.000117225
0.000841866
0.000284899
0.00012563
0.000113146
0.000762725
0.000109871
0.0315045
0.0354182
0.0146718
0.000115124
0.000370121
0.000113197
0.000109791
0.000100601
9.33143e-05
0.000111099
0.0435445
0.0369493
0.000255216
0.000127908
0.000778863
0.000166903
0.0340025
0.0624639
0.000110338
0.0578354
0.00123521
0.000104538
0.000163977
0.0583248
0.000286399
0.000143478
0.000116653
0.0408267
0.00118693
0.0240942
9.95281e-05
0.00181788
0.00012999
0.000113176
0.000100568