/*--------------------------------*- C++ -*----------------------------------*\
| =========                 |                                                 |
| \\      /  F ield         | OpenFOAM: The Open Source CFD Toolbox           |
|  \\    /   O peration     | Version:  v2012                                 |
|   \\  /    A nd           | Website:  www.openfoam.com                      |
|    \\/     M anipulation  |                                                 |
\*---------------------------------------------------------------------------*/
FoamFile
{
    version     2.0;
    format      ascii;
    class       surfaceScalarField;
    location    "50";
    object      phi;
}
// * * * * * * * * * * * * * * * * * * * * * * * * * * * * * * * * * * * * * //

dimensions      [0 3 -1 0 0 0 0];
oriented        oriented;


internalField   nonuniform List<scalar> 
20673
(
-0.167206
0.161495
0.00571087
0.368848
-0.306335
-0.0625128
0.0255996
-0.0631694
0.0375698
0.149027
-0.275062
0.126035
-0.361725
-0.116346
0.478071
-0.0214348
-0.002562
0.0239968
0.0459782
-0.0433463
-0.00263197
0.0151758
0.0226007
-0.0377765
0.0266309
-0.0454235
0.0187926
-0.0603449
0.155959
-0.0956143
-0.101228
0.103807
-0.00257864
0.1513
0.00113078
-0.152431
-0.0984399
0.0153496
-0.00168357
-0.013666
0.203945
-0.0354405
-0.168505
0.243676
-0.241698
-0.00197799
-0.103429
0.298832
-0.195403
0.135913
-0.157648
0.0217344
0.148512
0.0027885
0.336984
0.263242
-0.600226
-0.373517
0.573249
-0.199731
0.0457685
0.000209783
-0.598179
0.334462
0.263718
0.0576921
-0.0425163
-0.308582
-0.059337
0.367919
-0.00182596
0.0419332
-0.0401072
-0.108997
0.0800952
0.0289023
-0.103391
0.0527251
0.0506658
-0.070792
0.0551636
0.0156284
-0.141554
0.101593
0.039961
0.155766
-0.165832
0.0100662
0.195539
-0.202997
0.00745763
-0.0997648
0.141518
-0.0417532
0.176948
-0.0495186
-0.127429
-0.387786
0.362737
0.0250491
0.0887921
-0.104703
0.0159113
-0.365219
-0.23296
-0.00957209
-0.0151182
0.0246903
-0.183556
-0.0564482
-0.0283465
0.00117557
0.0271709
-0.579905
0.589848
-0.00994369
0.685293
-0.386938
-0.298355
0.364386
-0.536977
0.172591
-0.0507926
-0.020353
0.0711456
-0.170519
-0.153743
0.324262
0.0978484
0.0725038
-0.170352
0.142389
-0.00647573
-0.0183717
-0.106787
0.125159
-0.00374389
0.0107201
-0.00697616
-0.680213
0.436475
0.243739
0.0427225
-0.162535
0.119812
-0.284465
0.0330799
0.251385
-0.00666319
0.00291929
0.0563486
0.120599
0.169134
-0.272563
0.208704
-0.220845
0.0121405
-0.111039
0.00981063
0.272192
-0.352762
0.0805699
0.0818847
0.160454
-0.242339
-0.330607
0.160088
-0.0339998
-0.0301255
0.0641254
0.161633
0.207215
0.0153496
-0.16527
0.502254
0.0168496
-0.0382844
-0.0867035
0.0878566
-0.00115314
-0.516043
0.324077
0.264039
-0.362463
-0.0990645
0.100039
-0.000974146
-0.165085
0.18053
-0.015445
-0.52554
0.163816
-0.0199082
0.0465391
0.0034985
0.0131916
-0.0166901
0.14261
-0.451191
-0.00809672
-0.00713199
0.0152287
-0.0220232
0.145623
-0.1236
-0.0126029
-0.00431137
0.0169143
0.0710252
0.190205
-0.26123
0.0434212
-0.0433574
-6.37816e-05
-0.612027
0.326865
0.285161
-0.32514
0.600533
-0.275393
-0.257323
0.00862693
0.0260883
-0.0347152
0.0220049
-0.031577
-0.00744049
-0.00512445
0.0125649
-0.211831
0.282856
0.368189
0.204556
-0.572745
-0.0895782
0.00287474
0.209005
-0.166282
0.515026
-0.150641
-0.00861481
-0.0118767
0.0204915
0.120463
-0.0101025
-0.110361
-0.0499133
0.364233
-0.31432
-0.263486
0.0546
0.208886
-0.0441814
-0.0453968
0.0263771
-0.0371512
0.0107741
0.0869149
-0.121231
0.0343159
0.125093
-0.00252845
-0.122565
-0.0615245
-0.0399213
0.101446
0.0547429
-0.0669414
0.0121986
-0.455142
0.558948
-0.103806
0.124854
0.00853731
-0.133391
0.0207002
-0.0714928
-0.269613
0.072602
0.197011
-0.482738
0.0884534
0.394284
0.0542388
-0.0452447
-0.00899415
-0.00740962
-0.0645614
0.071971
0.0895444
-0.107916
0.101046
0.197786
0.15708
-0.150556
-0.00652428
-0.00729001
-0.00482763
0.0121176
-0.00428481
-0.0240617
-0.107149
0.130462
-0.023313
0.052653
0.0015858
-0.276774
0.11821
0.158564
0.00777944
-0.00813965
0.000360203
-0.362793
0.499999
-0.137206
0.0114434
-0.0126248
0.00118138
-0.0217233
0.0254774
-0.0037541
-0.0783596
0.167889
-0.0895294
0.497951
0.187342
-0.09347
-0.00559449
0.00384474
0.0188072
-0.0226519
-0.0573405
-0.0460505
-0.608716
0.123168
0.485549
-0.246142
-0.017344
0.0979255
0.219013
-0.316938
-0.53456
-0.0741561
-0.492127
0.586255
-0.0941279
0.0238151
0.0209605
-0.0291851
0.00822451
-0.0835037
-0.19327
0.148827
-0.30257
0.208315
-0.581832
-0.119891
0.0590434
0.0608476
0.0134207
0.0442714
-0.0118714
-0.155334
0.0540053
0.000737578
-0.114036
0.438113
0.102802
-0.181161
-0.0963011
0.110411
-0.0141098
0.450175
-0.190316
-0.25986
-0.217817
0.278921
-0.0611038
-0.0750797
0.026627
0.0484527
-0.0684343
0.332473
0.0573683
0.00320519
-0.0605735
0.0222428
0.0442893
-0.0665321
0.0183347
-0.302799
0.50278
-0.166944
-0.335836
0.220484
-0.214444
-0.00603946
0.153171
0.00177479
-0.154946
-0.000168985
0.00794843
0.0257084
-0.115026
0.0893179
-0.0778031
-0.0487281
0.126531
0.216984
-0.209713
-0.00727144
0.0146977
-0.0169171
0.00221944
-0.172442
0.00735703
0.0274372
-0.0860074
0.0585701
0.00230485
-0.0149078
-0.0702201
-0.0496709
-0.150617
0.221287
-0.07067
-0.0887257
-0.0056725
0.0943982
0.243386
0.356652
-0.600038
0.108877
-0.0219625
-0.134067
0.0269176
0.0320929
-0.0936174
-0.200505
-0.0691083
-0.152021
0.150487
0.00153334
0.132464
0.220844
-0.353308
0.0253188
0.0995352
0.153468
-0.140916
-0.0125515
-0.00297489
0.00132788
0.00164701
0.110757
0.00215851
-0.112915
-0.00954609
0.237459
-0.227913
0.068312
-0.0576747
-0.0106373
-0.0484555
-0.0667386
0.115194
0.0305019
-0.00954139
0.000261998
0.0111814
0.0716474
-0.0142791
-0.259762
0.401592
-0.14183
0.0112431
0.10922
-0.00801929
0.163785
0.297609
0.152567
-0.0896614
0.45785
0.192886
-0.091253
-0.101633
0.0465541
-0.0483801
-0.037022
0.124548
-0.0875255
0.0219266
-0.00722889
0.147167
-0.147839
0.000672072
-0.103402
0.0969592
0.00644272
-0.00525727
0.0706139
-0.0653566
0.0133613
-0.0208018
-0.111535
0.0866739
0.0248608
0.624916
-0.279287
-0.345629
-0.0330667
-0.0147139
0.0477805
-0.105088
-0.00390982
0.632201
-0.632201
-0.302747
0.252834
0.0108004
-0.0869163
0.0761159
-0.0924777
0.0846166
0.00786105
0.0254016
0.173337
-0.198739
-0.339904
-0.34031
0.157504
0.000102493
-0.157607
0.149669
0.00350228
0.0143518
-0.0108533
-0.0711965
0.0964585
-0.025262
-0.280636
-0.10715
-0.0898514
0.362044
0.00950353
0.115589
0.016748
0.0415611
-0.0583091
-0.288639
0.0708218
0.0512295
-0.0424563
-0.00877321
-0.00926418
-0.00241572
0.0116799
-0.00199741
-0.101405
-0.414206
-0.0685317
-0.0625922
0.044313
0.0182791
0.145051
-0.00661907
-0.138432
-0.0038855
-0.00371837
0.00760387
-0.491645
0.290579
0.201065
0.0519012
-0.085901
-0.39581
0.136048
0.00293839
0.108627
-0.111565
-0.127934
-0.45197
-0.0172885
-0.00687698
0.0241654
0.0525584
-0.0434634
-0.00909499
0.0669938
0.176682
-0.125716
0.0281848
0.0975315
0.0397626
0.177222
-0.454708
0.0405025
0.00807821
0.0807139
0.122047
-0.0112907
-0.0110894
0.158256
-0.0679423
0.0220248
0.0459174
-0.0109517
0.00168755
-0.590616
0.48907
0.101546
0.191041
0.00449826
-0.0267429
0.0181281
0.00325548
0.00180937
-0.00506485
-0.303231
0.546617
-0.461318
0.441945
0.0193729
-0.029712
0.00296073
-0.113759
0.0936269
0.0201323
0.399589
-0.602082
0.202493
-0.0801922
0.0901443
-0.0099521
-0.138042
0.135063
0.00297955
-0.106089
0.0173634
-0.168397
-0.00845001
0.176847
0.582392
-0.22574
0.145311
0.000635466
-0.145946
-0.014064
0.0143312
-0.000267268
-0.285739
0.384944
-0.0992048
0.05898
-0.131161
0.0721806
-0.0394825
-0.0112127
0.0506952
-0.238991
0.336916
-0.283081
-0.0696811
-0.0218109
-0.105871
0.127682
0.00228813
0.0217579
-0.024046
0.1051
-0.0793914
0.122264
0.0706216
0.0107141
0.193231
0.241504
0.370688
-0.612191
-0.0153793
0.019224
0.00479592
0.0557916
-0.0605876
0.0600386
-0.0896708
0.0296322
-0.381405
-0.0733035
0.00532604
0.00997663
-0.0153027
-0.0173871
0.0171957
0.000191402
-0.0465657
0.074003
0.0458745
-0.00245327
-0.124116
0.102093
0.257252
0.472745
-0.661282
0.188537
-0.137705
0.00279789
0.134907
-0.00169048
0.018733
-0.0170426
0.11377
-0.127752
0.0139815
-0.170028
0.251912
-0.099985
0.0287885
-0.145566
-0.0123405
-0.0926397
-0.453097
0.545737
-0.0868992
0.0801443
0.00675487
0.254924
0.281129
-0.536053
0.0670031
0.00130886
-0.206119
0.231521
-0.0723215
0.47191
0.0799747
0.115383
-0.195358
0.0534433
-0.131246
0.10929
-0.114963
0.0186996
-0.0988919
-0.0082989
0.13438
-0.126081
0.374731
-0.0900819
-0.28465
0.0773169
-0.0908133
0.0134964
-0.0291418
-0.0388004
0.0417114
-0.0369154
-0.226548
-0.265097
0.0795608
-0.0204195
-0.0591414
-0.483865
0.0154238
0.468441
0.184824
0.189908
-0.474597
0.111804
0.0683024
-0.0460596
-0.0586654
0.519945
-0.46128
-0.100694
0.103632
-0.1765
0.0081026
-0.264818
0.397281
0.00135653
0.156148
-0.243071
0.0249019
0.218169
-0.00845917
0.00229992
0.00615924
0.0823038
-0.130759
0.118658
-0.12876
-0.275338
-0.106842
0.382179
0.0672933
-0.350375
-0.00362771
0.00960754
-0.00597982
0.0250187
-0.0196191
-0.0053996
0.288481
0.211518
-0.392215
0.625297
-0.233082
-0.0735896
-0.0133096
-0.290148
-0.0662688
0.356417
-0.00540582
0.0185974
0.101672
-0.37701
-0.0238937
0.00660525
-0.329588
0.25398
0.0756071
0.109526
-0.0209335
-0.0885927
0.212454
-0.140116
-0.0723386
0.0184562
-0.0126551
-0.00580102
0.061493
-0.21211
-0.00201382
-0.0682063
-0.0553892
0.0120665
0.0433228
0.181719
-0.101744
-0.0572573
-0.0565019
-0.0131919
0.0786857
-0.0654938
0.0532125
-0.280224
0.227012
-0.00753338
-0.0194461
0.0269795
-0.0547256
0.0216589
0.000319065
-0.0177062
-0.190934
0.172349
0.0185851
-0.0255926
0.000154182
0.0254384
-0.160758
-0.0538866
0.214645
0.00685275
-0.0197593
0.0129065
-0.0462846
-0.0091046
0.0702246
-0.0964971
0.0262725
0.0976106
-0.027386
0.0482123
-0.0226127
-0.563514
0.336436
0.227078
0.141813
0.0116546
0.0100871
-0.0173771
-0.180573
0.295062
-0.11449
0.224963
-0.00457335
-0.220389
-0.0204406
0.018757
-0.0671874
0.0779878
-0.215532
-0.0493097
0.264842
-0.0781263
0.072869
-0.0391806
-0.0316114
-0.601017
0.324814
0.276203
-0.0253931
0.00366975
-0.107143
0.0296858
0.0774568
-0.266375
0.521299
0.507746
-0.359398
-0.148348
0.109938
-0.593802
0.235743
0.267037
-0.0130657
0.0903826
-0.0509358
0.0687378
-0.017802
-0.0408953
0.0235505
0.0173447
-0.0136805
0.0100528
-0.373819
-0.00376494
0.377584
-0.0545468
0.113527
-0.0104382
0.0102709
0.00016727
0.123672
-0.161959
0.0382862
0.00788323
-0.0237821
0.0220916
0.0073137
0.210843
-0.479156
0.268313
0.0916485
-0.0316099
0.321534
-0.494684
0.173151
-0.0258301
0.0777313
-0.14233
-0.188278
0.0168141
0.00164209
-0.0270049
-0.111037
0.178684
0.0877547
-0.266439
0.460892
-0.572413
0.111521
0.136353
-0.12685
-0.0865197
0.0977628
0.11996
-0.123133
0.00317317
-0.015276
-0.0390245
0.0543005
0.0143321
-0.00747931
-0.00532641
0.00144091
0.0106909
0.13462
0.0562674
-0.116612
0.0173169
-0.478634
0.00906011
-0.00580463
-0.0331205
-0.00972936
0.0428498
-0.0285559
0.288405
-0.25985
0.0843748
-0.0863886
-0.305299
0.50156
-0.196261
0.0350217
0.0701152
-0.105137
-0.0976528
-0.231935
-0.319252
-0.244262
-0.292145
0.108268
0.183877
-0.0346048
-0.00704525
0.0416501
-0.074624
-0.217521
-0.029354
0.0316421
-0.00711065
-0.00301487
0.0101255
0.0812897
-0.0831079
0.00181824
0.0286881
-0.0472996
0.0186115
-0.216153
0.269366
-0.0362989
-0.0262933
0.0407546
0.588942
-0.24458
-0.344362
-0.074597
-0.297395
0.116823
0.214257
-0.339942
0.125686
-0.0694824
-0.0720719
-0.365221
0.606724
-0.393071
0.461946
-0.0688748
0.388697
-0.0671632
0.0842825
-0.0973482
-0.328374
-0.283653
-0.0236258
-0.00196684
0.000299425
0.0433021
-0.0436015
0.00587786
0.00194776
-0.00782563
-0.0738188
-0.0377159
-0.00780982
-0.0232514
0.0310613
-0.00531449
-0.00304139
0.00835588
0.162131
-0.0384589
-0.473238
0.0994193
0.104484
0.0127538
-0.117238
-0.264467
0.0809112
0.203282
-0.194775
-0.00850658
0.227273
0.397643
0.0207115
0.0478787
-0.0311307
-0.0557823
0.0560817
-0.191669
0.208281
-0.016612
0.10452
0.0249353
-0.129455
-0.167639
-0.0232955
-0.258369
0.201921
0.00567028
0.114289
0.192047
-0.24183
0.0497834
-0.0768133
0.0854948
-0.00868147
-0.175942
0.276988
-0.438083
0.379418
0.0156642
-0.02107
0.0262691
0.00423284
0.0317438
-0.00547474
0.0500571
0.0836594
-0.133716
0.00990106
-0.00402319
0.0252848
-0.0328182
-0.0064252
0.0187203
-0.0122951
-0.0162884
-0.0011934
0.0174818
0.147464
0.365354
-0.512818
-0.127633
0.00247933
0.125153
0.225147
-0.0330999
0.347033
-0.265003
-0.0820293
-0.104309
0.0277403
0.076569
0.00468455
0.484437
-0.538414
0.0539773
0.0100792
-0.131552
0.121473
-0.0062597
-0.145246
0.151506
-0.0204034
0.0134906
0.00691271
0.343932
0.24501
0.114746
-0.00562428
-0.109122
-0.00118351
-0.0152745
0.016458
0.0989519
-0.00855187
-0.0904
0.00106164
-0.0233822
0.0223206
0.244875
-0.251089
0.222533
0.521725
0.110476
-0.151782
-0.0206604
0.508207
-0.297364
-0.0421567
-0.00810214
0.0502588
-0.0346689
-0.00622632
-0.158166
0.149867
-0.00651328
0.0131927
-0.00667942
0.0213544
0.18735
0.0981875
0.0106899
-0.0223594
0.0159342
-0.0117895
0.0560788
-0.00771361
0.0890033
-0.00766698
-0.0886341
0.101696
0.0130497
0.120647
-0.142465
0.0218183
0.0819551
0.0300266
-0.111982
-0.167371
0.175855
-0.0084843
0.0936262
-0.106754
0.013128
0.0254765
-0.138057
-0.0111432
0.1492
0.102759
0.00165252
-0.104412
-0.530169
0.543835
-0.0136655
0.0984016
-0.0267912
-0.0716105
0.211839
-0.0152171
-0.196622
-0.429809
0.303112
0.126697
-0.158573
0.00679118
-0.262272
0.182106
0.0801661
-0.00372817
-0.0166752
0.0216434
0.0310096
0.0888206
-0.378969
-0.516011
0.423371
-0.0452271
-0.00734734
0.0525745
-0.00685432
0.00153983
0.59391
-0.223223
-0.0215718
0.0226335
-0.310575
0.23087
0.0797042
0.122459
-0.0884411
-0.0340175
0.00891085
0.323098
-0.332009
-0.0139122
0.00848089
0.00543129
0.0636921
-0.0917689
0.0280768
0.039712
0.180772
0.303909
-0.190933
-0.112976
0.0307277
-0.0385375
-0.113286
0.0762643
-0.0105931
0.00991234
0.000680725
0.24126
-0.606481
-0.00189132
0.0127666
-0.0108753
-0.00819717
0.0958758
-0.0178763
-0.0779995
-0.352584
-0.0772255
0.00373834
-0.00886279
0.0509829
-0.0213286
-0.0296542
-0.125146
0.162864
-0.0377184
0.125437
0.382309
-0.218695
0.264868
-0.0461733
-0.137511
-0.0597708
0.0947925
-0.0438061
0.528243
-0.517638
0.15824
0.649823
-0.438733
-0.21109
0.407684
0.242139
-0.00528189
0.0106079
-0.0432673
-0.061042
0.0369854
-0.0950935
0.114555
-0.0194615
0.572464
-0.0997186
-0.0483259
-0.406816
-0.00942356
0.113943
-0.0416943
0.0204931
0.0212012
0.148421
-0.163841
0.0154201
-0.113578
0.334422
0.452408
-0.238151
-0.287312
-0.0908093
0.378122
0.0222862
-0.0107247
0.024086
0.396826
0.165508
-0.562334
-0.266249
-0.142708
0.408957
0.0148352
-0.0199287
-0.147442
0.10442
0.108035
0.044677
-0.295766
-0.146236
0.260143
-0.113906
0.179722
-0.219967
0.040245
-0.0021437
0.104903
0.0640869
-0.0772788
0.029454
0.0941777
0.0103067
-0.142888
0.0567822
0.086106
0.0163164
0.0801421
0.00224217
0.116416
0.45285
-0.293377
-0.159472
-0.0119905
-0.00207349
-0.45328
0.249832
-0.0248688
0.25034
0.00480031
-0.25514
0.0705378
0.0278638
0.0797783
0.0255887
-0.105367
-0.014403
0.399268
-0.384865
-0.0093905
0.108342
0.102913
-0.133986
0.0310725
-0.00526492
-0.00360629
0.00887121
-0.0773842
-0.0655039
0.00151058
0.0968322
-0.0983428
0.137523
-0.143782
0.322894
0.137998
0.0691859
-0.0274745
0.100136
-0.0388083
0.033133
0.00567523
0.167956
-0.343898
-0.152833
0.183119
-0.0302859
0.10436
0.0101948
-0.00554696
-0.0182351
-0.00824396
0.00824396
0.113729
-0.116258
-0.0584412
0.108498
-0.0342136
-0.207485
0.198328
-0.224858
0.0265306
-0.211231
0.255908
-0.0747167
-0.0186771
0.0933938
-0.0543795
0.0273523
0.142034
0.003017
0.0145228
-0.0301445
-0.00866379
-0.0032696
-0.00732347
0.023548
-0.219328
0.19578
-0.00610219
0.10429
0.0874352
-0.0237431
0.0821465
0.0956668
-0.177813
-0.292589
0.0880247
0.204565
-0.032517
0.00318337
0.0293336
0.0711668
-0.0499727
-0.0211941
-0.0627427
0.0511227
0.01162
-0.0421262
-0.0603637
0.10249
-0.538365
0.0462376
-0.0211884
-0.00420471
0.00811223
-0.466971
0.452568
0.18097
-0.180967
-3.21221e-06
-0.00989151
-0.108081
0.117973
-0.12778
0.0280156
-0.0187382
0.120332
0.0473574
-0.00989611
-0.0374612
0.105433
-0.0234779
-0.022882
0.190832
-0.16795
0.0345592
0.0346266
0.26244
-0.197004
-0.0654364
-0.0174732
0.0011848
0.271682
-0.574913
-0.0118384
0.408665
0.0682954
0.0112655
0.0547823
0.0163845
0.0345825
-0.00771027
-0.0268723
0.0954794
0.166961
0.256018
-0.265564
-0.448787
0.182538
0.00202391
-0.14759
0.00262333
0.116003
-0.0839096
0.21809
-0.0197628
0.100798
-0.108512
0.129734
-0.261106
0.270017
-0.0605337
-0.0651826
0.113531
0.00247109
-0.0782278
0.0739286
0.00429919
-0.0467182
0.35925
-0.312531
-0.0801199
-0.0233233
0.103443
-0.0720673
-0.0230801
0.0159695
0.0375997
0.11836
0.112232
-0.0324533
-0.185614
0.0327812
-0.258673
0.536554
-0.27788
0.290897
0.0857205
-0.376617
-0.0897623
0.308775
-0.0872103
-0.0153492
0.102559
0.157487
-0.0596391
-0.0550329
0.0982023
-0.0431694
-0.041891
0.026615
-0.137016
-0.0150052
-0.222394
-0.378622
0.0267691
-0.0855137
0.0587447
0.0242324
0.0103501
-0.0986683
0.085091
0.0135773
0.058206
-0.343945
-0.183302
0.150428
0.0328742
-0.120135
-0.397503
-0.156622
-0.0432632
0.199885
-0.0506214
0.211075
0.00993102
0.0410519
-0.287372
0.614237
-0.0642928
0.185442
-0.000851865
-0.18459
0.0854529
0.0183538
0.145884
-0.0644837
-0.0814003
-0.0106154
-0.00532876
0.0159442
-0.0271336
-0.0878918
0.115025
0.0464436
-0.265138
-0.0161767
0.0200958
-0.00391912
-0.0057551
-0.00248886
0.353766
-0.266541
-0.0872246
0.219061
0.0312792
0.0996917
-0.0754919
-0.0241998
0.0770888
-0.119215
0.112824
0.000946745
-0.347919
-0.242519
0.590438
0.035425
0.268484
-0.107959
0.0870258
0.240904
-0.0622197
-0.108423
-0.0147102
-0.146078
0.124268
0.386767
-0.09587
-0.143797
0.146432
-0.00263478
-0.0411445
0.3986
-0.17561
-0.22299
-0.263626
-0.0326136
0.296239
0.672427
-0.392876
-0.279551
0.0168408
0.00817785
-0.413735
0.622051
-0.201529
0.00986004
-0.00199394
-0.000980952
0.00706494
0.203429
-0.210494
0.0621866
-0.00740431
-0.0240075
-0.185705
0.0686639
0.0728541
0.233694
0.127045
-0.0101789
-0.116867
-0.0983646
-0.376232
0.136506
-0.00855179
-0.127954
0.325025
-0.585504
0.26048
0.11644
-0.100005
-0.0164342
-0.217665
-0.09291
-0.0434815
0.042298
0.053619
-0.0485504
-0.00506865
-0.0171503
-0.024544
-0.560104
-0.0720969
-0.235977
0.122994
-0.120752
-0.147804
0.158902
-0.0110978
0.00422636
-0.0204287
0.0162024
0.0408732
-0.0352476
-0.00562555
-0.130913
-0.0267346
-0.332801
-0.0130714
0.345872
0.100152
-0.0158693
-0.0282925
0.0205823
-0.0849976
0.00676983
0.0516051
-0.106638
0.138416
-9.70571e-05
-0.138319
-0.0398744
-0.00414855
0.044023
-0.164695
0.147191
0.0175031
0.161012
-0.173353
0.000902447
0.0889007
-0.0898031
-0.0794629
-0.00745339
-0.144102
0.0131892
-0.00183978
0.0211552
-0.0193154
0.143186
-0.147913
0.00472673
-0.278885
0.0811787
0.197706
0.094103
-0.103995
0.0678295
0.11389
-0.403714
0.316414
0.0873
-0.1837
0.0270777
0.0104039
0.146677
-0.166416
-0.048028
-0.382317
-0.0405918
0.422909
0.180249
0.143158
-0.0126182
-0.13054
-0.062641
0.240324
-0.177683
-0.133282
0.0248593
0.00957621
-0.342377
-0.226684
0.463213
-0.236529
0.135217
-0.548952
0.214645
-0.16073
-0.0539141
0.223134
0.223015
-0.446149
0.0297765
0.182941
-0.212717
0.625486
-0.283343
-0.342143
-0.0129833
-0.000928915
-0.148355
0.143965
0.00438999
0.0419573
-0.0398808
0.237326
-0.515974
0.278649
-0.35446
-0.205181
0.559641
-0.0379062
0.0891864
-0.0512803
0.14685
-0.0262026
0.252197
-0.195928
-0.0562696
0.0504198
0.0233841
-0.0738039
0.137758
-0.0460675
-0.0916907
-0.0876288
0.0617987
0.00174162
0.0928574
-0.118718
0.0258608
-0.0880499
0.258659
-0.170609
-0.633959
0.0245207
0.609438
0.598189
-0.190504
-0.255616
0.0125449
0.00176184
-0.00223683
0.000474989
-0.60335
0.24889
-0.0878909
0.0170749
0.0708161
-0.124237
0.154013
-0.00255334
-0.00788487
0.108945
-0.14028
0.0313343
0.10812
0.0296377
-0.00830429
0.0937572
-0.439445
0.102256
0.337189
0.280809
0.316206
0.000156708
-0.430581
0.275776
0.154805
-0.301407
0.0827813
0.218625
-0.056726
-0.0248707
0.0815967
0.250436
-0.0129766
0.0981178
0.448611
-0.546729
-0.00569926
0.173809
-0.168109
-0.0582396
-0.417664
0.475904
0.32399
-0.473827
0.149837
-0.163285
0.0143072
-0.0128156
0.017042
0.167206
-0.174211
0.0070053
0.250256
0.148343
0.464177
0.125671
0.0211827
-0.0267297
0.0104003
0.331374
-0.10009
-0.231285
-0.110393
0.278349
0.0781769
-0.0277571
-0.081747
0.094913
-0.013166
0.00342009
0.000813151
-0.00423324
-0.116446
0.117956
-0.0507361
-0.228149
-0.234624
-0.355992
0.504908
-0.180918
0.00624009
-0.144297
-0.00929443
0.0166935
-0.0864557
0.0697622
0.0508664
0.121483
-0.0305062
0.0110601
-0.284802
0.0855389
0.199263
0.0361941
-0.218285
0.182091
-0.00282597
0.00287156
-4.55914e-05
0.145302
-0.450601
0.00232631
0.209513
0.275008
-0.357139
0.0821309
0.335731
0.259933
-0.595664
0.000386957
-0.150943
0.0898346
0.0194556
0.204183
-0.274505
0.0703224
0.0591796
0.00300693
0.00148028
0.0237216
-0.0252019
0.0355233
0.226302
-0.309872
-0.11887
0.428743
-0.093573
-0.00758261
0.101156
-0.0715745
-0.325381
0.566641
-0.079055
0.0948485
-0.0157935
-0.436588
0.126716
-0.155428
-0.278564
0.363878
-0.0853143
0.436539
-0.153954
-0.282585
-0.103038
-0.24118
-0.101509
0.342689
0.0255316
-0.0863696
0.13969
0.0430067
-0.182697
0.393137
-0.586432
0.193295
0.373752
-0.503921
0.130169
-0.0168939
-0.26759
0.284484
0.0290437
-0.319714
0.29067
-0.337406
0.0737799
-0.0340442
0.0469596
-0.0129154
0.287973
0.0513473
-0.33932
-0.109212
0.399406
-0.290194
0.0395317
-0.00941807
-0.0301136
-0.0402643
0.0434695
-0.150997
0.128115
-0.155824
-0.000326246
-0.116475
0.116801
-0.0500598
-0.164394
0.214454
0.47069
-0.162112
-0.308577
0.12744
-0.0549367
0.0124605
0.113405
0.00303469
0.272892
-0.4824
0.209508
-0.300837
0.109904
-0.00263496
0.0435081
-0.0506254
-0.080915
0.13154
0.00610164
-0.017309
0.0112074
0.528354
0.168693
0.00208693
-0.021706
-0.178811
0.152343
0.0264684
-0.274959
0.0631275
0.00509297
-0.005265
0.000172033
-0.0202198
0.0106785
0.00954131
0.352835
-0.323792
0.0972252
-0.0963228
0.491256
0.106933
-0.337356
0.0961763
0.428658
-0.191332
-0.00487787
0.0148545
0.471544
-0.24841
-0.327701
0.280374
-0.0514848
-0.271124
0.0722427
0.198881
0.037839
0.0846196
-0.0955639
0.0484612
0.303324
0.0740626
-0.377387
0.100356
-0.126537
0.0261811
0.372563
0.166609
-0.539172
-0.00757883
0.504449
-0.482322
-0.0221263
0.346179
0.360699
0.219425
-0.580124
0.00338619
0.458817
0.0253131
-0.0220101
0.0276074
-0.00559727
0.0151896
-0.0604339
0.0452443
0.000256717
-0.183559
-0.0384198
-0.0687228
0.00294204
-0.00414572
0.00120368
-0.281853
0.349146
0.000566117
-0.0217545
-0.052124
0.0219984
0.00515069
-0.00220865
0.00184843
0.0258805
-0.027729
0.00802147
0.0315102
-0.0267009
0.021436
-0.067889
0.094658
0.180638
0.0842296
0.00399992
-0.150811
-0.028
0.00656485
-0.0396853
-0.411197
0.0586137
0.089526
0.274707
0.27811
0.053264
0.538071
0.161401
-0.227147
0.0657455
0.123882
-0.149081
0.0251993
-0.013942
0.0204625
-0.00652058
0.370486
-0.28096
0.425789
-0.186243
-0.239546
-0.00321375
0.0106219
-0.00740817
0.0148216
-0.0835691
0.0687475
-0.270524
0.25363
0.0242502
0.020157
-0.172044
0.151887
-0.0715833
-0.205151
0.276734
0.0270999
0.0265191
0.091585
-0.0673348
0.163857
-0.213377
0.0495199
-0.165952
-0.105172
0.0239044
-0.0224242
-0.00250118
-0.000324793
0.00342911
-0.0160539
-0.362314
0.0837496
-0.0793875
-0.0338988
-0.0120561
0.114969
0.000333094
0.00131816
-0.00165125
-0.0460984
-0.12292
0.121718
0.00120129
0.256829
0.168585
-0.256635
-0.074557
-0.210245
-0.508088
-0.114375
0.0684081
0.511285
-0.36382
0.169434
0.0102878
-0.0650382
-0.0996564
0.0151711
-0.0100578
-0.00511325
-0.126193
0.0308951
0.095298
-0.0955478
-0.232153
0.117793
0.0190338
-0.0144004
-0.00463333
0.161882
0.328829
-0.246959
-0.0818703
0.0124715
0.000664583
-0.0131361
-0.359596
0.0947788
-0.30541
0.00400327
0.076366
-0.111349
0.0349826
0.0160494
-0.0225626
0.482597
0.299829
-0.346547
-0.0385813
0.048301
-0.00971973
-0.10082
0.0624007
-0.0236128
0.0875166
-0.0639038
-0.131455
0.0341875
0.097268
-0.0406194
-0.064084
-0.48721
0.174352
0.312859
-0.0959641
0.0944735
0.00149067
0.174203
0.154627
0.0117832
0.357242
-0.369025
-0.0800857
-0.212504
-0.0564579
0.0143012
-0.00149959
0.00491967
-0.367842
0.0893193
0.278522
0.499582
-0.12583
-0.0719434
0.346951
0.0179447
0.0644165
-0.177648
-0.00641211
0.18406
-0.233299
-0.197282
-0.301927
0.0863954
-0.00178646
0.362915
-0.0595903
-0.00595944
-0.072278
-0.0221472
0.0944252
-0.0266764
-0.00606181
0.0327382
-0.325356
0.0863659
0.121212
-0.0317911
-0.0894204
0.18419
-0.160642
0.0151545
-0.00667364
0.0175183
0.00151552
-0.00889121
0.00406358
-0.116865
0.116538
-0.00560346
-0.0146164
0.464035
0.00502517
-0.03963
-0.466462
0.479711
-0.0731281
-0.147717
0.167565
-0.156986
-0.0105787
-0.0746733
-0.0524149
0.00718773
0.0503854
0.0260273
-0.0764127
0.0946344
0.0129455
-0.10758
-0.0168449
0.0624056
-0.0455607
-0.285625
-0.273669
0.559294
-0.0570702
0.0955736
-0.0385034
0.105883
0.330655
-0.0875985
0.155428
0.0442104
-0.036094
-0.0081164
0.23141
0.115622
0.174854
-0.641316
0.218779
-0.265199
0.0464203
0.101636
-0.254182
0.152545
0.0133206
0.00185045
0.466999
-0.102482
-0.364518
0.513031
-0.17857
0.00587171
-0.0239887
0.129952
-0.105963
0.142727
-0.143099
0.00037197
-0.0279706
-0.000321907
-0.102434
-0.00417726
0.106612
0.00319311
0.0005424
-0.00373551
-0.00493677
-0.129974
0.110682
-0.161307
0.00193085
-0.0173701
-0.170926
0.0168176
0.0612742
-0.0780918
-5.73935e-05
0.0419906
0.201944
-0.00560019
-0.196344
-0.305644
-0.0583142
0.363958
0.0016627
0.0310334
-0.0326961
-0.0346122
-0.248461
0.266796
-0.138805
0.0354428
0.103362
0.152276
-0.00385516
-0.342731
0.116481
0.22625
-0.0274434
0.188845
-0.141775
0.243411
0.155693
0.286115
0.3109
0.13273
0.00568596
-0.0267756
0.0534026
-0.369247
0.134537
-0.123261
-0.0112755
0.109293
0.20814
-0.317433
0.109027
-0.0977031
-0.0113242
-0.252138
0.577162
0.15915
0.00118572
-0.128818
-0.229336
0.166695
0.318531
-0.0814942
-0.237037
-0.295661
-0.072181
0.0433138
-0.0411244
-0.00218941
-0.0843594
-0.0347815
0.119141
-0.024506
0.0646541
-0.0401482
0.265036
0.19691
-0.323741
0.2655
0.0582407
0.00614217
-0.272186
-0.0849529
0.0203334
0.109948
-0.130282
-0.12418
0.0398209
-0.23375
-0.108981
0.0260925
0.10897
-0.257496
0.366789
-0.0221815
0.0699322
-0.0477508
-0.292178
0.0437171
0.00249641
0.188335
-0.0165939
-0.00384668
-0.0737481
0.0955868
-0.0218387
-0.0924622
0.400104
-0.307642
-0.224885
0.190884
0.034001
0.00326538
-0.0252755
0.354395
-0.342611
0.47381
-0.117824
-0.355986
0.00392995
-0.00359686
0.0130868
-0.0179647
0.0309699
-0.198609
-0.00597033
-0.0887549
0.0947252
0.544211
-0.280969
0.228449
-0.00990372
0.236263
-0.211361
-0.353104
-0.0863413
-0.0885027
0.0186016
0.0699011
0.305411
-0.286021
-0.0193902
0.0181373
0.0658306
-0.083968
0.198498
0.402035
-0.44559
0.0924855
-0.296699
0.196609
0.00232063
-0.104755
0.0251113
0.00343519
-0.0285465
-0.222362
-0.0750338
-0.000932731
-0.236241
0.237174
-0.34809
-0.13912
0.197867
-0.187153
0.4818
-0.146069
0.0223927
0.131171
-0.121092
-0.584733
0.259352
0.0164651
0.0522728
0.119636
-0.0906087
0.0335385
0.0304501
-0.00516531
-0.0227439
-0.00977301
0.393969
-0.30465
-0.302972
0.0560134
-0.25911
0.337866
-0.0787566
-0.0113684
-0.178838
0.143397
0.000738532
0.0261258
-0.0268644
0.00198284
0.00254493
-0.00452778
0.232521
-0.171028
0.00562908
0.00897647
-0.0161085
-0.139361
0.14115
-0.00178842
-0.0957364
0.0897661
-0.116854
0.0897208
-0.00188237
-0.0108537
0.111752
-0.00272455
0.0242797
0.0614057
-0.0856854
0.0289211
-0.00691616
0.130372
0.00684892
-0.137221
0.174068
0.0163677
-0.0269349
0.07966
-0.397716
-0.0134814
0.212775
-0.140173
0.0653196
-0.048502
-0.129496
0.142488
-0.0129927
0.372303
-0.283482
0.123446
0.00359971
-0.0934882
0.113822
-0.0081428
0.0183175
-8.50755e-05
-0.0182325
0.21626
-0.00491154
-0.211349
-0.0669806
0.0501357
0.0312597
0.12779
-0.15905
-0.0144846
0.086673
-0.0721884
-0.0489023
-0.0496273
0.0985296
0.118941
-0.0811019
-0.158205
0.178362
-0.366708
0.206708
0.0527593
0.306069
-0.431099
0.12503
-0.0448746
0.208732
-0.503456
-0.0267135
0.185519
-0.368402
0.111624
0.256777
0.00245801
0.113255
-0.115713
-0.0115946
0.105221
0.0126126
0.00606921
-0.0186818
0.0822244
0.0287507
-0.110975
-0.0328044
-0.0627595
-0.0482153
-0.00756696
0.0789085
0.260492
-0.362341
0.101849
0.00314409
0.00610515
-0.0486015
0.0424964
0.323569
-0.3911
0.0675305
0.353675
-0.150317
-0.00881507
0.159132
-0.000853285
0.00261512
0.338046
-0.593843
0.255797
0.125244
-0.00746432
-0.117779
0.0823931
-0.00925768
-0.0731354
0.116939
-0.152891
0.0359518
0.374657
-0.269141
-0.105516
-0.284499
0.228764
0.0557357
-0.179395
0.3216
-0.142204
-0.077184
-0.0616211
-0.149851
0.101123
0.232611
-0.000363961
-0.0431175
0.0447288
-0.0341274
-0.0106014
-0.123119
0.123754
-0.092295
0.01324
-0.0212635
0.151636
0.0945301
-0.092556
-0.00197416
-0.214845
0.22191
-0.201456
0.151397
0.00894801
0.0484314
-0.0573794
-0.0654893
0.0910608
-0.0255715
-0.000872099
-0.00523657
0.0302831
-0.0433139
-0.590645
-0.413654
0.308495
0.105159
-0.148145
0.309777
0.347005
-0.0708323
-0.276173
0.118969
0.159952
-0.0627186
-0.0725239
0.135243
0.37071
-0.0760187
-0.294692
0.00318746
0.0959708
-0.0991582
-0.501743
0.443503
-0.163905
-0.297831
0.130596
-0.0224751
-0.00207027
0.102868
-0.0654743
0.089754
-0.355278
0.073425
0.0395534
-0.174075
-0.239579
0.00983189
0.0494002
-0.0592321
0.274266
0.227293
-0.187331
0.137813
0.458344
-0.185453
0.0152497
0.0763397
-0.0915894
0.00453914
0.0636824
-0.103604
0.278248
-0.0727703
-0.0534228
0.358446
-0.143252
-0.215194
0.149395
-0.019507
0.0141782
0.233181
0.101503
-0.334685
0.196552
-0.276638
-0.13759
0.113601
0.169454
0.011516
0.00584475
0.283231
0.120211
-0.178528
0.0583177
0.247852
-0.280466
0.119003
-0.50132
0.13981
-0.0159279
-0.0979777
-0.167586
-0.215189
-0.23657
0.451759
-0.165277
-0.0481004
0.00592474
0.00840651
-0.201831
-0.0114648
0.213295
-0.0663797
0.0830732
-0.0462777
-0.000916224
-0.00362353
0.0287349
-0.219546
0.0177157
-0.447612
0.232423
0.0497032
0.129523
-0.179227
-0.00959083
0.000103397
0.00948743
-0.20656
0.287739
-0.13749
0.00799478
-0.00522172
-0.143123
0.148344
0.0404352