/*--------------------------------*- C++ -*----------------------------------*\
| =========                 |                                                 |
| \\      /  F ield         | OpenFOAM: The Open Source CFD Toolbox           |
|  \\    /   O peration     | Version:  v2012                                 |
|   \\  /    A nd           | Website:  www.openfoam.com                      |
|    \\/     M anipulation  |                                                 |
\*---------------------------------------------------------------------------*/
FoamFile
{
    version     2.0;
    format      ascii;
    class       surfaceScalarField;
    location    "50";
    object      ddtCorrDdt0(phi);
}
// * * * * * * * * * * * * * * * * * * * * * * * * * * * * * * * * * * * * * //

dimensions      [0 3 -2 0 0 0 0];
oriented        oriented;


internalField   nonuniform List<scalar> 
19765
(
-6.57595e-05
0.000178123
-0.000112363
0.000543336
-0.000450812
-9.25218e-05
2.02309e-05
2.62647e-06
-2.28573e-05
-0.000544509
0.000286031
0.000258478
0.000385374
-0.0001218
-0.000263576
0.000309694
-0.000476478
0.000166785
0.000443633
-0.00022385
-0.000219784
-2.54336e-05
8.2095e-05
-5.66612e-05
-0.00024968
0.000388158
-0.000138478
-0.000211934
8.51875e-05
0.000126747
2.89326e-05
7.92327e-05
-0.000108165
0.000462094
-0.000476646
1.45527e-05
7.63929e-05
-5.08671e-05
-2.55259e-05
0.000216753
0.00022688
0.000238517
9.27482e-05
-0.000331265
0.000134447
0.000250927
-0.000774417
0.000486153
0.000288265
0.000169489
-0.000514828
0.00034534
-0.000215848
6.68011e-05
0.000149048
-0.000195083
0.000696891
0.000210331
6.31268e-06
-0.000216644
0.00054279
-0.000501949
-4.08406e-05
0.00042539
0.0001174
0.000260959
-0.000368949
0.000107991
2.84803e-05
-8.24925e-06
0.000737977
-0.0004395
-0.000298477
0.000372699
-0.000415189
4.24877e-05
-7.17795e-05
-0.00043017
0.00027905
-7.30397e-05
-0.00020601
0.000119052
0.000248317
-0.000367369
-6.60921e-05
0.000221769
-0.000155677
-0.000336504
0.000305918
3.0587e-05
-0.000163118
0.000120978
4.214e-05
-0.00058179
0.000311624
0.000270166
-5.72087e-05
-0.000158639
-0.000320868
-0.000223641
0.000552634
-0.000127243
-0.000148754
0.000410566
-0.000261812
-3.99851e-06
0.000400622
-0.000396624
8.48476e-05
-0.000292273
0.000207425
0.000242052
3.52318e-05
-0.000277283
0.000428226
-0.000472417
4.41909e-05
5.65459e-05
-8.19795e-05
-0.000315159
0.000108403
0.000206757
0.000347232
8.377e-08
-0.000347316
-0.000102668
0.000309066
0.000185279
-0.000494344
2.58018e-05
-3.66854e-05
1.08837e-05
-0.000126449
-0.000214552
0.000341002
-4.59406e-06
-2.39761e-05
2.85706e-05
-0.000268796
0.000202704
0.000621251
-0.000268445
-0.000320265
0.000439317
0.00027905
-0.00024162
0.000551315
-3.58998e-05
0.000464127
-0.000266677
0.000649918
-0.000383241
-8.01606e-05
8.16254e-05
-1.46515e-06
-0.000120566
-9.13685e-05
-0.000193057
-6.39105e-05
0.000256968
-0.000492488
-0.000281928
-9.12786e-05
1.11196e-05
0.000358764
-8.92725e-05
-0.00026949
-0.000234961
0.000319808
0.000230172
0.000507803
-0.000682034
0.000924662
-0.000242626
0.000343552
0.000199785
-0.000489138
0.000386498
0.000102639
0.000365302
7.3961e-06
-0.000309155
0.000478643
1.2432e-05
-4.00034e-06
-8.43167e-06
-3.86698e-06
0.000362632
0.000663371
-0.000671988
8.61728e-06
-0.000820432
0.000104897
0.000715535
-0.000209206
-0.000339709
0.000548917
-7.3549e-05
9.06747e-06
6.44827e-05
0.000409039
-0.000491907
8.28677e-05
-7.70907e-05
-2.15623e-05
9.86531e-05
-0.000161609
6.18303e-05
9.97785e-05
-0.00030481
-5.91156e-05
0.000363926
0.000450274
-0.000515631
6.53569e-05
-4.71298e-06
-0.000223341
0.000228055
-0.000564013
-0.000134749
0.000698764
8.25209e-05
4.02922e-05
-0.000122813
0.000348663
-1.43063e-06
-2.55892e-05
-0.000309203
0.0003348
5.74886e-05
-7.00885e-05
1.26002e-05
-0.000229379
0.000301214
-7.18353e-05
-0.000281658
5.22793e-05
-4.4862e-05
0.000255197
-1.15741e-05
-0.000158148
0.000169722
-0.00048435
0.000438933
4.5417e-05
-2.55803e-05
7.85303e-05
-5.29498e-05
6.17941e-05
0.000172793
-0.000234587
0.000250111
-0.000341548
9.14355e-05
3.24415e-05
-0.000108204
7.57628e-05
0.00052121
-7.09345e-05
-2.21648e-05
5.50392e-05
-3.28747e-05
-0.000161011
-0.000154148
-0.000247596
4.14198e-06
0.000243455
0.000223159
-0.000252533
2.93751e-05
3.25846e-05
-6.78255e-06
-0.000113528
0.000450226
-0.000336697
-0.000373787
0.000367396
6.39076e-06
0.000618319
4.50528e-05
3.1069e-05
-3.95441e-06
-2.71144e-05
0.000110703
-0.00020281
9.21082e-05
-0.000255423
6.23665e-05
-0.000351479
-0.000271486
0.000622968
-7.10107e-05
2.4841e-05
4.61699e-05
-0.000102793
0.000124018
-2.12245e-05
-0.00030303
-3.34747e-05
-0.00013214
-0.000464757
0.000223855
0.000240903
-6.16431e-05
0.000284802
-0.00014414
-1.89769e-05
0.000380396
-0.00026934
-0.000111052
-0.000271164
0.000177112
9.40509e-05
0.000537807
-0.000213806
-0.000324
-0.000133389
3.05955e-05
0.000308131
-5.80215e-05
-3.70131e-05
2.16113e-05
1.54019e-05
1.02212e-05
-2.50761e-05
0.000295231
-0.00032081
-0.000151091
0.000170413
-1.93216e-05
-3.98836e-05
0.000323393
-0.00028351
-0.000267831
-9.09829e-05
0.000358814
5.64728e-05
-0.000154351
9.78761e-05
3.22798e-05
-3.68734e-05
0.000219647
4.0286e-05
-0.000259932
-1.01287e-05
3.02488e-05
-2.012e-05
0.000460946
-5.78229e-05
-0.000403122
-0.000324866
0.000121461
-0.000192224
7.07641e-05
-1.43686e-05
-9.06352e-06
2.34309e-05
0.000296124
-6.88812e-05
-0.000227242
0.000165764
-0.000415444
-0.000469099
0.000355572
-3.85399e-05
-3.24707e-05
-0.00032882
-4.49673e-05
0.000120051
0.000107228
-0.000327338
-1.62568e-05
0.000343595
0.000326252
0.000101295
-0.000427547
-0.000277481
0.000122949
0.000154532
0.000104652
0.000357442
0.000292135
-0.00026582
-2.63094e-05
0.000155654
-0.000282103
0.000116473
-0.000167032
5.0559e-05
-3.10306e-05
6.0024e-05
-2.89917e-05
0.000422539
-0.00050762
8.50807e-05
-0.000269015
0.00039392
-0.000124905
-1.66485e-05
0.000269318
-0.000252669
-0.000546562
-0.000410964
0.00026221
-4.97038e-05
-0.000317231
0.000366936
7.10595e-05
0.000225063
-1.98455e-05
3.37101e-05
-1.38645e-05
0.000272649
-3.05969e-05
-0.000207185
5.70129e-05
0.000150172
-0.00029681
-0.00028498
-8.95266e-05
0.000190326
-0.0001008
-0.000345712
7.78817e-05
-0.000144295
-0.00012687
-0.000303592
0.000286944
0.000329965
-0.000471364
0.0001414
-0.000143033
-0.000158788
0.000301821
6.04169e-06
-0.000132359
0.000126318
0.000180156
-6.01044e-05
2.78545e-05
6.25875e-07
0.00024585
7.65184e-05
7.95985e-05
-8.56235e-05
6.02499e-06
0.000266336
0.000354916
-9.66669e-05
0.000341101
-0.000244434
6.15767e-05
1.48163e-05
0.000256096
-0.00016367
-9.2426e-05
1.42407e-05
2.0802e-06
-1.63211e-05
-0.000820899
-2.59945e-05
3.82876e-05
-1.2293e-05
-0.000137229
-0.000324674
0.000461904
0.000408916
-0.000177451
-0.000231466
-0.000168149
4.7098e-05
0.000121051
0.000149243
0.000388565
0.000680729
-0.000465036
-0.000215692
-0.000443897
0.00034723
-0.000378863
0.000143816
0.000235047
-0.000380023
0.000237132
0.000142891
1.4081e-05
-2.84503e-05
1.47553e-05
-0.000696789
-0.000592092
0.000608312
-1.62204e-05
-0.000133472
-0.000144009
-6.76943e-06
0.000467715
0.000414212
-0.000420982
9.02625e-05
-0.000233293
-0.000406202
0.000137186
0.000215576
-0.000104873
1.7726e-05
-9.72443e-06
-6.73661e-05
-0.000116663
7.24792e-05
4.41825e-05
-0.000152697
0.000638849
8.33639e-05
-3.76543e-06
-0.000188134
0.000133148
5.4986e-05
-0.000204357
0.000144142
6.02151e-05
0.000106138
-0.000133469
2.73318e-05
0.000400611
7.31645e-05
-0.000473775
-0.000300457
0.000139242
0.000161216
1.49388e-05
1.53101e-05
-0.000363694
0.000300049
6.36433e-05
-0.000249936
-5.31484e-05
0.000303084
1.29568e-05
-4.39868e-05
-0.000304297
-0.000144335
0.000448634
-4.20859e-06
-0.000243387
0.000357373
-9.64138e-05
5.5511e-06
6.88089e-06
0.000237789
-1.81402e-05
0.000136149
-3.00113e-05
0.000151246
-0.000155959
-0.000645337
0.000592449
5.28888e-05
-5.48425e-05
0.000232125
-0.000507359
0.000450743
5.66175e-05
-0.000497303
-1.00546e-05
-0.000116438
0.000354955
2.41496e-06
4.95791e-05
-5.19931e-05
-0.000354215
0.000174297
0.000179917
-3.01098e-05
8.19033e-05
-5.17933e-05
0.000365182
-0.000251397
-0.000113785
1.05471e-05
5.10296e-05
-0.000157904
0.000163946
6.27267e-06
-2.88361e-05
0.000157396
0.000154091
-0.000311487
-0.000203444
0.000249863
-4.6417e-05
-0.000308677
5.80491e-05
1.60201e-05
-7.40688e-05
0.000140867
-2.43947e-05
0.000683063
-6.60269e-05
-0.000617037
-3.16575e-05
-0.000206877
0.000238533
-0.000350604
0.000318909
3.16945e-05
-0.000310901
-0.000361087
-0.000273082
0.000502483
-0.000229399
-9.3119e-05
0.000507332
0.000201921
1.49225e-05
-0.000216844
0.000315433
-2.5425e-05
-0.000290009
-7.12671e-05
-0.00022919
-1.56051e-05
-2.14084e-05
8.54173e-06
-3.45361e-05
0.000187786
-0.000301512
0.000113726
0.00025087
-0.000324405
7.35307e-05
-0.000158079
-3.00546e-05
0.000431641
-0.000173483
-0.000258159
2.43014e-05
8.07024e-05
0.000175394
-6.37196e-05
3.81394e-05
0.000159978
0.000205204
0.00025066
4.14741e-05
1.4873e-06
1.17366e-05
-1.32239e-05
2.22936e-05
-8.05357e-06
2.339e-05
-0.000204651
0.000181261
-0.000369969
-4.7749e-05
0.000249669
3.51036e-05
-0.000304691
0.000269587
0.000172548
4.56396e-06
-7.60826e-05
0.000105015
-2.7018e-05
0.000241229
0.000531638
-5.5819e-05
0.000382071
0.00030557
-0.0004428
-3.32349e-05
5.80761e-05
-0.000173366
5.21693e-06
-0.000298584
-0.000166173
-9.12772e-05
6.11676e-05
6.53588e-06
0.000351544
-0.000358079
0.00016203
-8.78177e-05
-7.42118e-05
6.27426e-05
0.000260845
-0.000323598
-0.000291726
0.000255472
3.62577e-05
-9.21693e-05
-0.000115016
0.000240679
-0.000215669
-2.5011e-05
0.000205851
-0.000478932
0.000195894
0.000184504
9.92238e-06
-3.20871e-05
-0.000585098
0.000318422
-0.000359914
5.07161e-05
0.000257995
-0.000222892
1.08125e-05
4.42269e-05
0.000292196
-0.000232621
0.000180584
5.20374e-05
5.27337e-05
-5.03186e-05
1.75743e-05
-5.87522e-05
-0.000301539
6.23974e-05
0.000239139
9.38594e-05
-0.000657872
-0.000560787
0.000257169
0.000303619
-2.07122e-05
1.07156e-05
9.99681e-06
2.88883e-05
3.87684e-05
-8.96356e-05
-0.000415358
0.000370344
4.50144e-05
-0.000211161
7.71685e-06
0.000405403
0.000147231
0.000127261
0.00030438
0.000207874
-0.000200108
-7.76662e-06
-0.00030372
0.000303719
1.40765e-05
0.000239166
-0.000253244
0.000327934
-0.000436747
0.000108813
0.000258288
0.000170648
-0.000428933
1.21966e-05
0.000100895
-0.000113091
-1.77996e-05
0.00011813
-0.00010033
1.18248e-05
7.23104e-05
-8.41351e-05
-7.46048e-05
9.30404e-05
-1.84351e-05
-0.000339313
0.000392025
-5.27118e-05
-0.000216847
-3.85764e-05
0.000288192
7.04163e-06
0.000118008
-0.000307746
0.000189738
0.000383259
-0.000301519
-8.17393e-05
2.56536e-05
0.000210078
-0.000235731
0.000206872
-0.000308135
0.000101264
-1.56348e-05
-0.000250979
0.000266614
-0.00017139
2.02983e-05
-0.000377712
5.03738e-05
-6.43538e-05
5.06699e-05
1.36843e-05
-0.000293628
-0.00031
0.00060363
-0.000114377
0.000147236
2.5203e-05
-0.000172437
-0.000192488
0.000255225
-0.000122922
5.19798e-06
0.000117725
-0.000210299
0.000468588
-0.000666914
0.000760773
0.000121755
-0.00013467
4.51428e-05
-8.89664e-05
0.000489578
8.06939e-05
-9.6259e-05
1.55656e-05
0.000260396
-0.00052884
-4.07913e-05
0.000309843
-0.000269052
3.41249e-05
-0.000115316
8.11906e-05
1.60664e-05
0.000146385
-0.000162452
0.000306921
-0.000254068
-5.28529e-05
-6.83848e-05
0.000319252
-6.50138e-05
-0.000139343
0.00031643
-0.000109558
0.000137517
3.28956e-05
-0.000303379
0.00028815
1.52279e-05
-0.000114429
-0.000350606
0.000272548
0.000229926
-0.000502473
-0.000190152
8.17649e-05
0.000108387
7.59807e-05
-1.2509e-05
-6.34709e-05
-0.000256418
0.00022476
0.000370647
-0.00034046
0.000600857
7.30607e-05
-1.50114e-05
-6.79567e-06
0.000322228
0.000266863
0.000121294
-0.000203043
-0.000151173
9.08535e-05
1.92451e-05
-0.000439045
7.94685e-05
0.000359577
-5.92223e-05
-0.000291383
0.000167326
0.000133888
-0.000379031
0.000129095
-4.36514e-05
-0.00025789
-0.000210844
3.37993e-05
7.66075e-05
-0.000110406
6.8223e-06
-5.31303e-05
4.6308e-05
6.18171e-05
-4.36149e-05
-1.82024e-05
-5.23289e-05
-6.43351e-05
4.84282e-05
-0.000265274
-0.000565114
0.000434337
-0.000446697
1.23589e-05
0.000204832
-0.000244715
6.91959e-05
-5.86487e-05
-0.000147262
-0.0002701
0.000417363
0.00030061
-0.000112826
-2.40296e-05
3.25715e-05
-2.83176e-05
-6.21361e-05
0.000209372
6.72746e-05
-1.7876e-06
-6.5487e-05
0.000410272
1.22677e-05
-0.000140459
8.68515e-05
5.36081e-05
0.000175558
-0.000145003
-7.00388e-05
0.000215043
-0.00019125
-0.000187614
0.000246478
-0.00023549
-1.09925e-05
-5.75118e-05
0.000314065
-0.000256554
-0.000296898
6.76487e-05
0.000229247
0.000267247
-0.000320395
-8.02193e-05
2.78879e-05
1.09519e-06
0.000171345
-0.000114874
7.20666e-05
0.000189001
0.000250937
-0.000189143
0.000271938
-0.000109982
-0.000161954
0.000537582
0.000112336
-9.52412e-05
0.000107438
-0.00053848
0.000424052
-0.000327889
-7.83124e-05
0.000418761
-0.00048901
7.02486e-05
1.743e-05
-0.000325975
0.000308546
-0.000183323
0.00044833
1.68711e-06
-0.000450017
0.000290865
-0.000273436
0.000106456
-0.00026384
0.000157382
-5.91176e-06
8.66062e-05
4.72214e-05
0.000323425
7.77146e-05
-0.000253682
0.000175967
-6.31865e-06
9.31795e-05
9.43887e-05
-0.000187568
-7.94746e-05
-0.000137538
0.000217012
7.45756e-05
0.000197363
-8.51419e-05
9.69671e-05
-7.75676e-05
-0.000248407
0.000393796
-0.000145479
5.91663e-05
0.000256435
-3.16843e-05
1.1839e-05
-4.24156e-06
3.09414e-05
-2.66994e-05
-8.91566e-05
-7.34737e-05
0.000162631
-4.62383e-05
-0.000309145
-0.000179993
-2.5367e-06
0.0002305
-0.000346938
-0.000417974
9.00854e-05
0.000323119
6.34183e-05
-0.000386539
-3.56778e-05
-0.000234936
0.000270615
-1.37381e-05
-3.20211e-05
1.76785e-06
3.02536e-05
-0.000361068
0.00057933
-0.00011625
-0.00046308
-5.4381e-05
3.87759e-05
0.000276165
-0.000136488
-0.000139677
-5.26123e-05
0.000343478
-0.00012821
0.000285607
-0.000251284
0.000327048
-7.57507e-05
0.0003002
-0.000390946
9.07463e-05
-5.798e-05
3.72679e-05
-4.06308e-05
0.000274818
-0.000290453
7.53245e-05
-0.000418176
0.000342851
-0.000409197
0.000354384
5.48132e-05
-4.6398e-05
0.000211958
-0.000165559
-0.000321771
0.000174609
0.000147163
-4.86458e-05
-4.19931e-05
9.06393e-05
-0.000587073
-7.98407e-05
-0.000589407
0.000380202
0.000128421
-0.000432717
-6.64691e-05
0.00029982
-0.000233351
2.97484e-05
2.21514e-05
-5.19001e-05
0.000133645
-0.000174886
4.12395e-05
8.24323e-05
-0.000220729
0.000138301
-0.000179816
-0.000101841
-0.000668141
0.00025057
0.000417572
0.000262987
0.000151052
-0.00041404
-8.24839e-05
7.7141e-05
5.34274e-06
2.90236e-05
-3.03725e-05
1.34913e-06
0.000314902
-0.00029252
-2.23884e-05
-0.000178135
0.000194202
-4.15631e-05
-9.4102e-05
0.000135665
-0.000122594
0.000353093
7.05957e-05
-0.000314353
0.000243757
-0.000452768
0.000308434
-0.000168664
8.91892e-05
0.000448698
-5.62373e-05
-0.000392464
0.000200872
-0.000525546
-0.00040589
0.000512785
-0.000106895
-5.62008e-05
2.19798e-05
3.42214e-05
0.000114858
-4.94247e-05
-6.54332e-05
-6.37724e-05
-0.000311069
0.000374842
4.48369e-05
-0.000133993
-2.25938e-05
0.000601925
7.4189e-06
-5.93158e-06
-0.000542657
0.000121426
0.000421232
0.000233595
0.000149664
0.000450029
-0.000144458
8.6832e-05
-0.000332329
0.000245498
-0.000282119
-5.55261e-05
0.000381828
-0.000326301
-0.000314486
0.000225691
8.87942e-05
5.12936e-05
-0.000286254
0.000119889
0.000156277
-0.000129228
0.000143211
-1.39823e-05
-2.79609e-05
5.77092e-05
-6.42363e-05
7.22449e-06
5.70118e-05
7.84132e-05
0.000129
-0.000207413
-5.75135e-06
-5.84846e-05
-1.34961e-05
0.000101442
-8.79451e-05
3.5395e-06
-3.53906e-06
0.00014919
4.11353e-05
-5.82852e-06
3.48524e-05
3.23218e-05
0.000138447
-0.000170769
0.000323669
-0.000161779
-0.000161891
-0.000226181
0.000438209
-0.000212029
-0.000356018
0.00028047
7.55476e-05
0.000380137
-0.000186198
-0.000193938
0.000267054
-0.000331006
6.39526e-05
0.000364138
-0.000357602
0.00018592
-0.000162529
0.000622202
0.000162825
0.000249113
-0.000411938
-0.000218757
0.000527824
0.000213069
-0.000401094
-3.79505e-05
-1.90159e-05
-9.49623e-05
0.000113978
0.000126038
8.95385e-05
-8.12586e-05
0.000121551
0.000246462
-0.000115688
0.000382552
-0.000249038
-5.43412e-05
0.000370723
6.36141e-05
-6.34771e-05
9.59189e-05
-0.000272566
-8.34525e-05
0.000169719
-4.8258e-05
-2.26988e-05
-9.24263e-05
1.78219e-05
7.41921e-05
-4.99625e-06
9.65573e-05
-0.000437016
-7.86583e-05
0.000173022
0.000207114
0.000302445
-0.000398564
9.61191e-05
0.000454853
-0.000384967
-6.98856e-05
3.96286e-05
-0.00040151
0.000361883
-0.000119274
-0.000194669
0.000313942
2.45194e-05
0.000172256
-0.000196776
1.19509e-05
-5.12859e-06
-3.02869e-05
1.67506e-05
4.65368e-05
-6.32869e-05
-0.000256446
0.000307739
-0.000138232
0.00036203
-9.90432e-05
-0.000494856
-0.000229395
0.000192853
3.65424e-05
0.000240926
-3.57982e-05
-0.000205121
0.000283612
-0.000196779
0.000120011
4.54073e-05
-0.000165418
-9.64481e-05
0.000143547
0.000205728
-0.000288178
8.245e-05
-2.11426e-05
0.000167891
-0.000146748
-5.5674e-05
1.40751e-06
5.42666e-05
1.53672e-05
6.06144e-05
-0.000400455
0.00035659
4.38648e-05
-0.000209335
0.000178713
3.06229e-05
9.61995e-05
9.98486e-05
-0.000196049
1.03352e-05
-0.000289079
0.000278745
-0.000104507
0.000138307
-0.000209825
6.48216e-05
3.97308e-05
0.000200948
9.09134e-05
-7.55454e-05
3.3926e-05
-1.8987e-05
0.00033851
7.17618e-05
3.79328e-05
-0.000383978
0.000346045
-0.000245531
0.000255866
-9.60861e-07
-5.47147e-05
-8.2347e-05
-2.5857e-05
7.3873e-05
-1.13094e-05
-6.25629e-05
0.000388123
6.02071e-05
2.16655e-05
-6.02053e-05
-0.00014317
0.000101608
-3.62038e-05
6.95361e-05
-3.33322e-05
-4.82827e-06
-6.87202e-05
2.55304e-05
0.000220947
-2.42317e-05
-3.07735e-05
5.50071e-05
5.51859e-05
-0.000120945
-0.000326661
0.000532514
0.00029935
-0.00028382
8.42274e-05
-1.00353e-05
0.000509471
1.17406e-05
0.000123623
-0.000108701
3.15111e-05
-2.54263e-06
-2.89684e-05
-7.44075e-05
-2.63518e-05
0.00010076
-0.000219878
-3.90262e-05
-1.53546e-05
0.000234034
7.08676e-05
-0.0003049
-3.68231e-05
3.52285e-05
1.59487e-06
0.000120915
9.73448e-06
-7.88323e-06
-1.8515e-06
2.87465e-05
-2.39305e-05
-4.81584e-06
3.37259e-05
-0.000307717
0.000273991
-5.54663e-05
4.56055e-05
9.86123e-06
-0.000275645
0.000286632
-1.09879e-05
0.000238794
-0.000238794
2.62063e-05
-6.24107e-05
8.07981e-05
0.0003679
-0.00028988
0.000220999
-2.22576e-05
2.93921e-05
-7.13421e-06
0.000139727
0.000133993
-0.000273721
-0.000292758
-0.000116282
0.00021248
-0.000146342
0.000224755
0.000114594
4.74358e-05
0.000360807
0.000151978
-9.34231e-05
4.77662e-05
-7.19971e-05
0.000321221
5.36782e-05
-3.06444e-05
-1.63857e-05
0.000100538
-8.41519e-05
-0.000149574
2.03455e-05
0.000462548
-0.000166081
-0.000296466
-8.12003e-05
0.000411165
-0.000230363
0.000300958
-9.68183e-05
-4.36408e-05
-4.06816e-05
-0.000248272
0.000288954
0.000219494
-3.35729e-05
-0.000236747
0.000307807
-7.23929e-05
0.000130965
-5.85716e-05
0.000410651
-8.75319e-05
-0.000336828
-0.000155078
0.000384826
-0.000309501
-6.15397e-07
8.0721e-05
-5.45154e-05
0.000284469
0.00016556
0.000377654
-0.0001609
-0.000124059
-0.000254972
-0.000296147
2.3581e-05
0.00031252
-0.000183908
-0.000128614
-8.42162e-05
0.000210255
-0.000393414
1.42617e-05
6.64589e-05
0.000531084
-2.1612e-05
0.000259016
-0.000152562
0.000348447
2.21171e-05
-0.000370564
-0.000266437
0.000321251
-5.48132e-05
-5.70041e-05
0.000164796
-0.000427468
0.000262673
0.00034516
-0.000126568
-0.000218591
-0.00020622
3.97238e-05
0.000166496
-0.000151681
-0.000161222
0.000185742
0.000541512
-0.000419756
-1.76255e-05
-7.73366e-05
0.000404174
-0.000171433
-0.000232741
8.13137e-05
-8.55552e-05
3.16033e-05
-2.85706e-06
0.000387314
-3.29302e-05
1.96058e-05
1.43204e-05
-7.91505e-06
7.51897e-05
-0.000230846
-3.37062e-05
0.00026455
9.90031e-05
-0.000435831
0.000105198
0.00035735
2.02241e-06
-0.000183016
0.000301024
-3.81144e-06
0.000123757
-0.000119945
-0.000189793
0.000129608
6.01861e-05
-8.79644e-05
-0.000162896
0.000250858
-0.000234429
-0.000145593
-0.000145258
0.000174612
-2.93538e-05
1.48459e-05
-1.52826e-06
-1.33174e-05
0.000429658
-0.000418578
-1.10794e-05
-0.000102407
0.000224045
-0.000246354
2.23036e-05
2.85734e-05
1.91166e-05
-4.769e-05
-2.1176e-05
-0.000254469
0.000249315
-0.000235239
0.000152003
-0.000344495
-4.28598e-05
4.18993e-05
-1.35015e-05
4.20749e-05
-0.000119676
9.94838e-06
0.000109728
8.79939e-07
-0.000217916
-0.000276865
0.000310591
-0.000136168
-0.000455923
-0.000295971
-1.7518e-07
-0.000161654
-4.2997e-05
0.000752543
-6.94802e-05
0.000107097
-0.000599585
2.46417e-05
-0.000142498
0.000117857
-9.32672e-05
-9.89566e-05
-0.00031205
-5.95399e-06
0.000318021
-0.000333873
-0.000445058
0.000143036
0.000302023
-9.94593e-05
0.000401905
-9.00184e-05
-1.2189e-06
-3.38968e-05
3.51159e-05
4.39593e-05
-2.52874e-05
-1.86717e-05
-3.88446e-05
-4.1377e-05
3.00121e-05
-1.43375e-05
-1.56756e-05
0.000246684
0.000162232
0.000389888
-8.96879e-05
-0.000133448
6.00905e-08
0.000138933
-5.0051e-05
-8.88826e-05
0.000276625
-0.000302971
2.6341e-05
0.000372075
-0.000153611
-0.000218465
0.00051818
2.33326e-05
0.000183846
0.000123076
6.53761e-05
-1.04779e-05
-5.4898e-05
-0.000503669
0.000601951
-9.82804e-05
6.43669e-05
-0.000319243
0.000254876
0.000398441
-2.80966e-05
0.000113783
-4.13039e-05
-7.24789e-05
0.000304625
-0.000240258
-2.24416e-05
3.62108e-06
1.88206e-05
0.000705863
-0.000176061
-0.000529802
0.000311467
5.5522e-05
-0.000366989
3.13497e-06
4.95989e-05
-0.0001345
1.09588e-06
0.000133405
-0.000451919
7.29249e-07
0.000232995
-0.000233725
-0.000321331
0.00085297
0.000409815
-0.000282554
0.000359076
-4.76084e-05
-2.57294e-05
3.47194e-06
-0.000245879
0.000276132
-3.0252e-05
7.22262e-05
9.40319e-05
-0.000166254
-8.40673e-07
2.34166e-05
-2.25756e-05
-0.000462829
-1.65323e-05
-2.03821e-05
3.69159e-05
0.000187859
4.13682e-05
-0.000229227
0.000115111
-0.000284403
0.00016929
0.000190629
-1.04812e-05
-0.000180148
-0.000443184
0.00040017
4.30136e-05
0.000240971
-0.000215317
-0.000199965
-0.000107781
-0.000398893
0.000297062
0.00010183
-6.45238e-05
2.57954e-05
3.87283e-05
3.16973e-05
-8.0343e-05
0.000287509
-0.000172398
-6.81433e-05
-4.69817e-05
0.000115125
0.000235207
-4.45777e-05
0.000345161
-0.000403419
5.8258e-05
-4.77807e-05
4.29921e-05
2.61372e-06
-0.000338311
0.000138345
0.000227605
-0.000285117
2.52662e-05
-2.92205e-05
0.000201808
0.000121861
-0.000222814
0.00038761
4.03225e-05
-4.6417e-05
6.09419e-06
6.83436e-05
-2.50286e-06
-6.58404e-05
-0.000161923
1.22219e-05
0.000149701
0.000366895
-2.17332e-05
7.26713e-05
0.000281854
-0.000354526
0.000232287
0.000112872
3.33679e-05
8.04153e-05
0.00010064
0.000269047
-0.000369687
0.000121678
0.000140908
-0.000262588
8.74171e-05
-7.57979e-05
-1.16189e-05
-8.64389e-05
3.01333e-05
5.63057e-05
-7.52074e-05
8.42757e-05
0.000310351
-0.000156259
-9.51779e-06
1.1598e-05
-6.12386e-05
4.66874e-06
5.65712e-05
-0.000243078
1.44598e-05
0.000228622
0.000388858
-6.09241e-05
-0.000129438
-4.01054e-06
0.000310778
-0.00039006
7.92829e-05
-0.000232461
-8.93092e-05
-5.21067e-05
0.000172118
6.07684e-05
2.13269e-05
0.000123424
-9.87828e-05
0.00013259
8.69057e-05
0.000130747
8.18654e-06
7.93052e-06
6.04129e-05
6.20131e-06
5.91748e-05
6.76607e-05
-0.000262331
0.000182472
-0.000110245
-2.81997e-05
-0.000195412
0.00022361
-0.000244311
0.000311971
4.8612e-05
-8.2897e-06
0.0001839
-4.24299e-05
-0.000141475
-0.000400125
-3.29728e-07
2.04657e-05
0.000142811
-0.000163277
-8.2718e-05
0.000116843
3.48643e-05
-2.00183e-05
5.91833e-05
1.46903e-05
-0.000101378
-0.000121888
-0.000180705
0.000302594
5.33371e-05
-5.02017e-05
4.90256e-05
-0.000215194
0.000166169
0.000189404
-0.000217604
-0.000244771
0.0002455
-0.000153546
0.000365041
-0.000211497
8.80987e-05
-0.000316306
0.000228206
3.26004e-05
-1.5325e-05
-1.72759e-05
-0.000296832
0.000150207
0.000221868
-0.000126694
-7.95259e-05
0.000562529
-0.00028998
-3.69794e-05
-2.75445e-05
1.85913e-05
7.23227e-05
0.000117494
-8.41257e-05
0.00015074
0.000461952
-2.30191e-05
-0.000163194
1.27152e-06
8.58345e-05
0.00032751
-0.000413344
0.000191568
-0.000335213
0.000143645
-2.72912e-06
2.72863e-06
0.000135587
0.000205431
-0.000341017
1.90516e-05
0.000371621
-0.000390673
0.000228363
-0.000454543
0.000166134
-0.000210995
0.000101633
0.000604232
-1.44816e-05
-5.56071e-05
-0.000538583
0.000198874
0.000328179
3.38509e-05
-0.000294257
-0.000104637
-0.000359616
0.000343359
-0.000252529
-0.000308257
-7.90524e-07
-4.20707e-05
-0.000255696
0.000259329
-3.63732e-06
0.000151602
0.000121199
-0.000272803
0.00030634
8.55646e-06
-4.19146e-05
0.000263206
-0.000221287
-8.41175e-05
6.63182e-05
-4.36729e-05
0.000231531
-2.99741e-05
-0.000179361
-0.000392983
0.000409633
-1.66484e-05
-1.24009e-05
8.85343e-06
3.54745e-06
-7.03943e-05
7.21744e-05
-1.78028e-06
-6.71163e-05
-9.66961e-06
7.67852e-05
-0.000178333
9.9528e-05
8.43661e-05
2.09483e-05
-8.31275e-05
-0.000183848
0.000266978
-1.18906e-05
3.16251e-05
-1.97342e-05
-0.000281871
-0.000109686
1.93737e-05
9.03125e-05
1.53955e-05
-6.60771e-05
5.0682e-05
0.000285756
0.000242609
0.000161565
-0.000516381
4.34868e-05
0.000472894
0.000199012
-0.000183936
-0.000263348
0.000222557
2.67695e-05
-0.000277429
-2.74651e-05
-8.22212e-05
-0.00012219
-0.000175501
0.000297692
0.000204459
-0.000337533
0.000133074
5.69171e-05
-9.85724e-05
4.16559e-05
8.62561e-06
7.87916e-05
-0.000312714
0.000368818
-5.61045e-05
-4.69689e-05
-0.000216593
0.00010545
-0.000329705
0.000224254
-0.000342553
9.12769e-05
-0.000372681
2.77817e-05
0.000344899
0.000263673
1.82627e-05
0.000165119
-7.24763e-05
-9.26439e-05
0.000132475
0.000117389
-3.81657e-06
0.000155622
-0.0001233
-0.000134045
0.000307066
-0.000121084
9.09542e-05
3.01305e-05
-0.000191995
0.000241022
-4.16652e-05
0.000207803
-5.28059e-05
0.000250228
-0.000197421
-0.000316979
0.000307611
9.36198e-06
-1.06409e-05
0.000351976
7.76819e-05
0.000381579
2.48847e-05
-0.000406462
-4.61971e-05
-4.02417e-05
-0.000244078
0.000169435
-0.000163123
-3.13191e-05
0.000215785
-0.000184466
0.000466604
0.00014171
0.000155642
-6.45137e-06
2.1713e-05
6.39999e-05
-0.000456983
0.000130732
-0.000213917
8.31862e-05
-2.58937e-05
0.000308382
-0.000282494
0.000193635
-0.000173167
0.000264886
-0.000113285
-5.95688e-06
-4.82552e-05
5.42128e-05
-4.24743e-07
0.000313389
-0.000312964
-0.000354255
-0.000517952
-0.00015845
0.000676402
-4.73055e-05
-0.000248891
-6.81025e-06
4.73803e-05
-0.00031097
-0.000156019
0.00046699
-1.14475e-05
3.08972e-05
8.65969e-05
2.93323e-05
0.000146607
-0.000175939
-6.15855e-05
-0.000340665
0.000170525
0.000170141
0.000286554
-0.000312457
5.3742e-05
-5.44897e-05
7.48013e-07
-0.000104064
0.000338098
2.02106e-06
0.000326158
0.000402896
-1.77496e-06
2.86793e-05
-2.69044e-05
0.000191294
-0.000222613
-7.1186e-05
0.000271041
-0.000199857
-6.96991e-05
1.83132e-05
5.13864e-05
-1.43155e-05
0.000395894
0.000342349
-0.00013789
0.00029819
8.66367e-05
0.000137369
-0.000280758
0.000143392
1.09711e-05
0.00032609
-0.000381616
0.000352346
9.26161e-05
-0.000444962
0.000129586
-3.72757e-05
-9.23099e-05
0.000100599
-0.000394955
-6.49088e-05
-7.30491e-05
0.000203781
5.66358e-05
-6.63601e-05
6.70915e-06
3.15786e-05
-0.000339558
0.000304351
3.5206e-05
-0.000281072
-0.00043791
-0.000255739
0.000693651
7.09092e-05
5.55378e-05
-0.000126447
7.31405e-05
-0.00020135
2.50142e-05
4.70904e-06
-2.9723e-05
-0.000258272
0.000462182
-0.000109836
0.000352703
5.78629e-05
-8.95785e-05
4.70439e-05
-0.00032823
0.000281187
-3.89948e-05
0.000641067
-0.000602073
-2.05681e-06
-6.7243e-07
-9.19207e-05
0.000174355
-0.000263794
0.000147512
4.10792e-05
-4.28667e-05
-8.01674e-05
-1.04143e-05
-5.93958e-05
6.98099e-05
0.000277798
0.000155794
-0.000289839
-0.000221166
0.000156153
7.64948e-05
0.000312363
8.5888e-05
-0.000544796
0.000458909
0.000153137
5.4737e-05
-0.000125528
-0.000128152
-0.000345642
0.000223048
-0.000147535
0.000508343
2.10233e-05
1.04878e-05
-2.44219e-05
-2.51611e-05
0.000110847
-8.56848e-05
4.95223e-05
-0.000375866
0.000326343
0.000100046
0.000183565
-0.000192955
-4.52948e-05
0.00023825
2.7757e-05
1.62023e-05
-5.53089e-06
2.00984e-05
-0.000314962
0.000294875
-0.000225584
4.28641e-05
0.000182722
0.00033093
-0.000247586
-8.33442e-05
0.000215496
0.000105755
3.798e-06
-3.96498e-05
3.58521e-05
-3.24335e-05
2.80982e-05
4.33564e-06
-0.000207173
-1.50228e-05
0.000222199
-2.69709e-05
4.60876e-05
3.7214e-05
-0.000306549
3.16898e-05
-3.24813e-05
-0.000335031
0.000372963
-0.00041929
0.000340171
7.91216e-05
-6.06062e-06
5.09394e-05
-4.48784e-05
-1.80993e-05
5.53416e-05
-3.72421e-05
0.000289849
-0.000102028
-0.00018782
0.000326867
0.000199967
-0.000252773
-0.000208392
0.000343979
-0.000103284
7.58177e-05
-0.000372319
5.96046e-05
-9.834e-05
8.19544e-05
-6.41673e-05
-5.69166e-05
-0.000117451
-0.000103715
-1.30201e-05
2.22001e-05
-9.17999e-06
0.000277909
-0.000138184
-5.48243e-05
5.96764e-05
-5.93405e-06
-0.000341709
0.000282486
4.98633e-05
-0.000301699
0.000430121
0.00032344
-0.000248613
-7.4828e-05
1.49735e-05
0.000212503
-0.000227476
3.86867e-05
9.08972e-05
-0.000167943
-0.00020578
0.000373721
-0.000368793
0.000179115
-4.54721e-05
2.11215e-05
7.94165e-05
-1.4883e-06
-0.000254887
0.000256377
-0.000175381
0.000191518
-1.6136e-05
6.81367e-08
8.32664e-06
-8.39462e-06
0.00010247
0.000187379
9.56807e-05
-0.000271942
0.000176262
0.000123599
-0.00012741
9.00794e-05
-7.14876e-05
-0.000284048
-5.41424e-06
0.000289466
-0.000270235
8.30631e-05
0.000187172
0.000285457
-0.000504215
2.53805e-05
6.30946e-06
-0.000302837
-0.000186174
0.000263191
-8.80686e-05
-0.000175123
0.000145862
-4.49664e-05
0.000211776
-0.000365323
-0.000195245
-0.000108475
-0.00013533
0.000285618
-0.000150287
0.000420155
-1.9984e-05
6.31471e-05
0.000702183
-0.00076533
-0.000219694
-1.11516e-05
2.02896e-05
-4.55768e-05
4.28145e-05
-0.000560766
0.000459389
-0.000360386
0.000566828
-0.00066048
0.000392234
-0.000216565
-0.000175668
-1.37567e-05
4.35802e-05
-2.98232e-05
6.80811e-05
0.000104723
-0.000172803
-4.64336e-05
0.000103351
0.000127504
-0.000116955
-1.05492e-05
8.5352e-05
0.000218366
3.17227e-05
-3.29413e-05
-9.83884e-05
-0.000241168
-7.70416e-05
0.000294491
-0.000217451
-9.91019e-05
-0.000215385
-0.000137373
2.87359e-06
-0.000117881
0.000272312
-0.000154431
-0.000210856
-0.000117776
5.36093e-05
1.07826e-05
0.000275354
-0.000286141
-0.000110397
0.000310898
-0.0002005
-5.23786e-05
-0.000147729
2.95934e-05
-2.36159e-05
0.00010493
-0.000109778