/*--------------------------------*- C++ -*----------------------------------*\
| =========                 |                                                 |
| \\      /  F ield         | OpenFOAM: The Open Source CFD Toolbox           |
|  \\    /   O peration     | Version:  v2012                                 |
|   \\  /    A nd           | Website:  www.openfoam.com                      |
|    \\/     M anipulation  |                                                 |
\*---------------------------------------------------------------------------*/
FoamFile
{
    version     2.0;
    format      ascii;
    class       volScalarField;
    location    "50";
    object      epsilon;
}
// * * * * * * * * * * * * * * * * * * * * * * * * * * * * * * * * * * * * * //

dimensions      [0 2 -3 0 0 0 0];


internalField   nonuniform List<scalar> 
13308
(
2.40573e-06
1.87396e-06
1.65081e-05
1.9056e-06
2.33006e-06
1.79108e-06
2.17725e-06
4.6697e-06
2.06449e-06
2.50446e-06
2.15266e-06
0.00705927
5.69482e-06
2.16838e-06
2.10172e-06
2.31982e-06
1.6651e-06
1.83928e-06
2.28134e-06
1.78514e-06
2.53115e-06
1.76008e-06
1.74267e-06
0.000614419
8.13753e-06
1.7529e-06
0.00685167
1.77376e-06
0.0132694
1.79425e-06
0.00284266
0.00152328
8.08348e-05
0.00535176
2.32382e-06
1.91108e-06
1.73128e-06
2.02928e-06
1.93079e-06
1.93283e-06
2.03346e-06
1.81793e-06
5.59675e-06
2.00933e-06
0.00159871
0.0177233
1.84012e-06
3.24489e-06
1.86632e-06
4.11219e-06
0.00362937
1.86626e-06
1.80913e-06
0.014289
1.79371e-06
1.81844e-06
1.76176e-06
2.84653e-06
2.49194e-06
2.50582e-06
1.66972e-06
2.85575e-06
1.84193e-06
1.94132e-06
1.74282e-06
1.66327e-06
1.85903e-06
0.00457575
0.00503726
1.84746e-06
3.79768e-06
1.83687e-06
1.66845e-06
1.69601e-06
1.80266e-06
3.44807e-06
0.0049153
2.33454e-06
0.00010443
1.82829e-06
1.67529e-06
2.34475e-06
1.68646e-06
2.84653e-06
0.00159041
2.48256e-06
2.59441e-06
2.37029e-06
2.39245e-06
2.55949e-06
2.53429e-06
0.00378483
2.40156e-06
3.09707e-06
2.19903e-06
2.26527e-06
1.68567e-06
3.84291e-06
2.01713e-06
2.0179e-06
2.04486e-06
3.20653e-06
1.81717e-06
1.99162e-06
1.67122e-06
2.96677e-06
3.57573e-06
2.50782e-06
1.78865e-06
1.05173e-05
2.85381e-06
0.00152226
2.52791e-06
0.000920227
2.04684e-06
0.000100757
2.39322e-06
2.18823e-06
1.8352e-06
2.86394e-06
2.19529e-06
3.20613e-06
3.27938e-06
2.4941e-06
5.58492e-06
2.29614e-06
0.0014884
2.89464e-06
4.06073e-06
0.000118804
4.52345e-06
1.82985e-06
1.92583e-06
2.04291e-06
3.24589e-06
1.88537e-06
2.05674e-06
1.81979e-06
9.45163e-06
1.99876e-06
2.69792e-05
0.00535982
0.00471591
2.18175e-06
0.00617545
8.79845e-06
1.86202e-06
2.14565e-06
2.99498e-06
0.00554252
0.00068982
2.07602e-06
1.78961e-06
2.04394e-06
1.83352e-06
1.8809e-06
3.06696e-06
2.03223e-06
5.39298e-06
0.00475759
2.66972e-06
0.00132731
2.19801e-06
2.08089e-06
1.76761e-06
7.14045e-06
2.08226e-06
9.67916e-06
6.39046e-06
2.51518e-06
4.59464e-06
1.8518e-06
0.0021835
6.60521e-06
1.96966e-06
4.03605e-06
1.69631e-06
4.44402e-06
1.92932e-06
2.0579e-06
2.56595e-06
1.83188e-06
1.7647e-06
0.00242546
2.18132e-06
2.03955e-06
3.27475e-06
1.66166e-06
1.68824e-06
2.19093e-06
1.82302e-06
1.82214e-06
8.08286e-06
0.000614981
3.60317e-06
4.37572e-06
2.37515e-06
3.02454e-06
1.66232e-06
4.316e-06
4.20426e-05
2.05785e-06
2.17727e-06
1.83257e-06
2.4066e-06
4.06779e-06
2.16665e-06
1.88614e-06
3.02581e-06
1.80429e-06
2.01623e-06
0.000718696
3.85372e-06
6.86929e-05
2.15935e-06
2.36492e-06
1.65221e-06
1.65162e-05
1.78521e-06
1.78184e-06
2.10771e-06
3.50623e-06
2.19503e-06
2.48604e-06
2.09853e-06
5.14737e-06
2.08467e-06
4.11668e-06
0.0052112
2.28651e-06
1.83387e-06
3.45387e-06
2.17405e-06
1.69815e-06
2.22157e-06
2.03629e-06
1.68377e-06
1.67927e-06
1.81732e-06
2.43346e-06
1.9678e-06
2.42042e-06
3.25344e-06
4.54238e-06
2.55238e-06
2.28493e-06
5.49348e-05
1.9154e-06
3.25054e-06
1.95888e-06
2.39683e-06
2.10362e-06
7.74983e-06
3.64799e-06
3.96704e-06
2.30556e-06
1.82901e-06
2.46181e-06
2.23736e-06
2.18663e-06
2.14816e-06
1.65469e-06
1.76458e-06
1.65721e-06
0.00601201
1.94155e-06
1.30773e-05
2.60951e-06
0.000913955
2.48283e-06
1.78684e-06
2.13834e-06
2.4263e-06
1.99843e-06
5.54567e-06
1.60502e-05
1.68636e-06
2.39222e-06
3.91203e-06
1.75672e-06
2.47643e-06
2.23419e-06
3.69333e-06
2.46306e-06
2.41168e-06
3.54479e-06
3.4408e-06
3.53052e-06
1.69585e-06
1.79254e-06
5.98779e-05
0.00587924
2.37549e-05
0.00470078
2.29202e-06
1.72079e-06
1.90955e-06
2.8082e-06
0.0139999
2.36707e-06
0.00447477
1.80733e-06
2.12602e-06
2.22557e-06
2.67254e-06
2.90737e-06
2.07974e-06
2.54915e-06
2.49722e-06
2.07637e-06
1.89552e-06
2.07518e-06
0.00349692
2.22412e-06
6.01815e-06
0.00853111
5.35323e-06
1.79332e-06
6.10637e-06
1.99543e-06
2.41888e-06
2.75239e-06
1.80066e-06
1.69792e-06
1.91146e-06
2.70833e-06
1.83445e-06
2.85031e-06
1.87002e-06
2.29144e-06
3.44542e-06
6.99555e-06
2.33828e-06
2.28793e-06
2.06577e-06
0.00403929
5.52576e-06
2.1156e-06
1.7806e-06
1.81557e-06
5.61534e-05
3.57465e-06
2.22199e-06
2.42801e-06
1.86949e-06
3.41637e-06
1.96569e-06
2.05331e-06
2.19929e-06
0.00747674
1.81928e-06
2.04691e-06
2.37133e-06
1.88642e-06
3.68923e-06
2.09496e-06
2.17173e-06
7.14303e-05
6.5813e-06
3.04733e-06
2.55032e-06
1.79454e-06
0.00698612
2.28941e-06
4.43582e-06
1.84511e-06
2.57149e-06
5.66878e-06
4.06386e-06
1.98659e-06
3.7398e-06
0.00697439
3.33248e-06
1.31978e-05
2.12328e-06
2.19023e-06
6.65232e-06
2.01403e-06
6.93012e-06
1.88856e-06
3.07842e-06
2.86004e-06
2.86924e-06
4.95891e-06
2.94023e-06
2.55526e-06
1.75662e-06
2.12691e-06
1.78272e-06
0.000639075
0.00502211
1.88045e-06
2.00563e-06
0.00938682
1.87798e-06
3.61349e-06
2.86705e-06
2.4317e-06
8.91876e-06
0.00610539
2.40106e-06
2.40863e-06
2.55274e-06
2.62e-06
1.88652e-06
1.7915e-06
2.57771e-06
3.03722e-06
0.000319592
2.11096e-06
7.497e-06
0.00422275
5.70719e-06
2.12033e-06
0.000580631
1.82943e-06
2.37849e-06
2.86681e-06
2.62488e-06
1.84323e-06
1.76379e-06
3.30053e-06
2.38092e-06
1.87265e-06
0.00447776
2.0793e-06
2.40669e-06
0.000708536
0.000174795
0.000111434
2.23233e-06
0.000754867
0.00497955
2.36912e-06
2.24762e-06
2.36564e-06
1.70966e-06
1.81005e-06
1.81052e-06
2.13624e-06
2.69541e-06
2.63017e-06
2.66688e-06
2.42535e-06
1.79964e-06
0.00576318
4.1045e-06
3.02249e-06
2.33278e-06
6.7276e-06
3.79591e-06
2.12378e-06
2.13929e-06
1.80252e-06
2.43468e-06
0.00828375
1.92324e-06
1.8465e-06
4.87826e-06
3.68752e-06
1.85653e-06
2.12424e-06
1.75725e-06
3.71385e-06
1.81988e-06
1.88074e-06
1.94671e-06
0.00620824
1.80734e-06
1.96873e-06
2.46009e-06
1.94791e-06
2.36594e-06
5.63396e-06
2.70385e-06
3.82793e-06
2.08791e-06
3.86475e-06
2.17792e-06
4.26874e-06
2.63964e-06
3.0548e-06
2.32879e-06
2.86829e-06
1.91967e-06
0.00163048
2.03409e-06
0.00122482
1.78128e-06
2.28575e-06
1.8433e-06
0.00261698
1.84741e-06
2.37784e-06
1.81994e-06
2.3807e-06
3.60267e-06
2.81931e-06
2.57272e-06
2.05993e-06
2.12259e-06
0.00599868
2.26564e-06
0.00164666
2.0418e-06
0.00569348
2.8871e-06
3.87386e-06
1.87627e-06
0.00137575
2.03055e-06
0.00245911
0.00103467
2.01202e-06
1.92483e-06
8.19442e-05
0.000209827
3.40186e-06
2.46065e-06
1.95402e-06
2.42154e-06
0.00770866
1.844e-06
9.39845e-06
1.96034e-05
0.00535388
3.63198e-06
2.52493e-06
0.00305916
2.38249e-06
2.88918e-06
3.60042e-06
0.000721133
2.16187e-06
2.01085e-06
1.91125e-06
2.15835e-06
2.134e-06
1.231e-05
3.64873e-06
4.08772e-06
0.00491573
0.00877453
1.90856e-06
2.89489e-06
2.30578e-06
3.83442e-06
0.00846117
9.36298e-06
3.72126e-06
2.7725e-06
3.41746e-06
6.18774e-06
2.90976e-06
2.44397e-06
1.68171e-06
2.36869e-06
1.83355e-06
3.9534e-06
1.66027e-06
2.43166e-06
3.14002e-06
2.39992e-06
2.1767e-06
3.31426e-06
2.36547e-06
4.05831e-06
2.36634e-06
4.09488e-06
3.08621e-06
0.00118047
2.59841e-06
2.39989e-06
0.0162015
2.7632e-06
0.0082407
1.88248e-06
4.08908e-06
2.83705e-06
1.9209e-06
2.01118e-06
2.08919e-06
2.12676e-06
1.83958e-06
2.39745e-06
2.89823e-06
1.83318e-06
3.15098e-06
2.9524e-06
5.58445e-06
1.87644e-06
1.80634e-06
2.13564e-06
3.35659e-06
1.89259e-06
2.26493e-06
1.88373e-06
2.34531e-06
1.82281e-06
0.00452977
0.000653832
2.99839e-06
2.71499e-06
1.93796e-06
2.15902e-06
1.89355e-06
0.00152737
3.0944e-06
3.46043e-06
1.8235e-06
2.72896e-06
1.66257e-06
3.33909e-06
0.000862241
2.10272e-06
5.91661e-05
1.89464e-06
2.03813e-06
0.00491485
1.02402e-05
0.000267061
1.91183e-06
2.37984e-06
0.000893934
0.000127385
3.0993e-06
0.00651557
3.90869e-06
3.51256e-06
2.34167e-06
0.00360146
1.86982e-06
2.6239e-06
2.08528e-06
3.0242e-06
2.77037e-06
2.61689e-06
2.04892e-06
2.35625e-06
0.000415734
0.00839491
0.00357885
7.71638e-06
2.8051e-06
2.41628e-06
2.37845e-06
2.41234e-06
2.94542e-06
2.8363e-06
2.17132e-06
4.28098e-06
1.80046e-06
0.0010237
1.69756e-06
0.00153212
2.33372e-06
1.70063e-06
1.67801e-06
2.24937e-06
2.06415e-06
2.39846e-06
1.85504e-06
1.90535e-06
0.00225261
2.38001e-06
3.16388e-06
3.96519e-06
3.09608e-06
3.27529e-06
2.04666e-06
0.000789283
2.92021e-06
2.10031e-06
2.29828e-06
2.32018e-06
1.91136e-06
2.32467e-06
2.4087e-06
1.75024e-06
0.0031651
0.00671918
2.26893e-06
0.00274231
3.49827e-06
1.7189e-06
0.00589062
3.58705e-06
2.72257e-06
1.80024e-06
2.22062e-06
1.6594e-06
1.9034e-06
0.00887383
4.14317e-06
2.01669e-06
2.00864e-06
5.90965e-05
1.68451e-06
2.97232e-06
2.20452e-06
2.12779e-06
1.94947e-06
0.00527917
2.06724e-06
2.09143e-06
0.00507893
6.90649e-06
2.39632e-06
2.11655e-06
8.57989e-05
1.94287e-06
0.00785863
2.29399e-06
2.6248e-06
2.1095e-06
2.02112e-06
2.99028e-06
2.88918e-06
1.8878e-06
6.09458e-06
3.52173e-06
2.03394e-06
0.00505159
2.11013e-06
2.03739e-06
2.23729e-06
0.0012191
2.99313e-06
4.30681e-06
2.39061e-06
3.48777e-06
0.00612086
4.09552e-06
3.952e-06
2.64889e-06
0.00554479
2.92724e-06
0.000661964
2.23415e-06
3.26478e-06
4.53082e-06
2.26432e-06
2.25723e-06
2.08423e-06
3.49484e-06
2.39438e-06
1.93345e-06
2.00871e-06
3.54078e-06
1.93634e-06
5.89255e-06
2.90407e-06
0.000749322
2.60269e-06
3.55164e-06
0.000258773
3.86369e-06
6.82116e-05
1.89041e-06
3.62582e-06
1.93912e-06
3.8682e-06
2.22487e-06
2.13057e-06
2.2672e-06
3.2754e-06
2.13741e-06
2.31059e-06
0.00488973
1.80945e-06
6.86087e-06
3.67714e-06
2.23038e-06
3.09684e-06
0.00598853
2.04143e-06
0.000545042
0.00274503
4.26971e-06
0.00245161
1.84249e-06
1.9132e-06
2.58468e-06
1.71558e-06
2.60573e-06
1.79812e-06
0.00915555
0.00508092
0.00303152
1.79924e-06
2.92441e-06
2.43968e-06
2.45938e-06
2.32369e-06
1.40569e-05
2.25224e-06
2.19087e-06
2.1859e-06
0.00408475
3.92107e-06
2.8361e-06
3.61272e-06
2.12414e-06
2.87117e-06
3.24604e-06
5.61852e-06
2.71798e-06
1.96216e-06
2.6262e-06
0.0002703
1.89783e-06
0.000892171
1.80819e-06
1.78788e-05
2.40471e-06
2.2769e-06
2.02095e-06
1.88999e-06
2.64085e-06
1.89748e-06
2.13466e-06
4.90843e-06
4.14269e-06
0.00560929
2.46379e-06
2.25839e-06
2.2934e-06
2.40274e-06
1.84045e-06
2.36181e-06
3.24759e-06
0.00607191
2.27125e-06
2.33652e-06
2.30937e-06
2.02096e-06
2.29345e-06
1.94111e-06
2.59733e-06
2.53673e-06
2.31423e-06
2.32324e-06
0.00826225
1.91397e-06
2.41061e-06
1.89764e-06
2.52611e-06
2.11777e-06
1.68019e-06
2.63649e-06
2.10808e-06
0.00378761
8.77483e-05
2.35708e-06
2.60823e-06
2.4489e-06
3.71066e-06
1.84571e-06
1.87631e-06
1.74575e-06
2.95135e-06
2.4501e-06
3.66872e-06
1.8324e-06
7.02027e-06
2.20127e-06
2.21781e-06
0.000776636
2.21533e-06
2.36534e-06
3.32958e-06
2.36484e-06
0.00601887
2.04375e-06
4.10409e-06
2.11775e-06
2.85562e-06
4.3234e-06
1.91053e-06
2.13921e-06
0.000612273
2.45012e-06
2.60035e-06
1.9807e-06
1.85453e-06
2.77106e-06
3.43805e-05
1.81263e-06
0.0078304
0.000110906
2.37313e-06
4.26281e-06
1.98728e-06
0.0024443
1.71018e-06
4.34154e-05
0.00348139
2.86127e-06
1.88953e-06
1.85597e-06
2.02289e-06
2.18085e-06
0.00274495
1.69259e-06
4.22032e-06
2.65966e-06
2.01794e-06
3.90611e-06
0.000739126
3.54578e-06
0.00877448
2.01545e-06
2.06669e-06
0.00560979
1.74025e-06
2.7963e-06
9.28605e-06
2.1366e-06
1.84206e-06
3.19356e-06
0.00614332
2.79544e-06
0.00281896
0.0051543
2.13946e-06
3.85281e-06
5.03068e-06
2.42412e-06
2.38302e-06
2.1522e-06
2.09425e-06
4.43835e-06
2.96172e-06
2.65372e-05
2.77783e-06
2.39475e-06
2.98596e-06
0.00761616
2.03586e-06
4.17306e-06
0.000158045
2.30073e-06
0.0191122
2.59538e-06
0.00217976
2.67816e-06
0.00904506
3.14448e-06
2.33651e-06
2.07532e-06
0.000101656
2.74012e-06
2.90378e-06
3.34345e-06
2.05255e-06
0.000844777
1.81246e-06
1.86534e-06
2.09973e-06
2.75586e-06
2.107e-06
1.83143e-06
2.6457e-06
2.88856e-06
2.55146e-06
2.10089e-06
4.23053e-06
2.28902e-06
2.35103e-06
2.90208e-06
3.73598e-06
2.23562e-06
2.41498e-06
1.85964e-06
2.99655e-06
0.00454821
2.22399e-06
2.1136e-06
2.14668e-06
0.0137968
1.90689e-06
0.00698691
1.67685e-06
2.35711e-06
4.41793e-06
1.74554e-06
0.00194426
1.66334e-06
1.83866e-06
1.58313e-05
2.35009e-06
4.73815e-06
6.60821e-06
0.0134523
3.19555e-06
1.99567e-06
2.40074e-06
2.46115e-06
2.72908e-06
2.12118e-06
2.28117e-06
2.34818e-06
2.28005e-06
2.03717e-06
2.8337e-06
5.42506e-06
7.87473e-05
0.0042164
2.08396e-06
0.00436503
2.022e-06
2.33328e-06
3.29744e-06
3.00558e-06
4.27332e-06
0.00978105
4.13942e-06
2.14977e-06
0.0153921
2.81856e-06
1.74112e-06
9.7115e-05
2.21814e-06
2.40255e-06
2.12607e-06
2.0717e-06
1.81171e-06
0.00243638
3.69576e-06
3.44665e-06
6.47376e-05
2.34968e-05
0.00175434
1.98955e-06
4.43922e-06
3.36993e-06
0.000696736
2.15823e-06
1.79216e-06
2.22999e-06
4.32554e-06
2.33343e-06
1.74309e-06
2.37466e-06
2.28327e-06
2.13547e-06
2.58165e-06
5.56563e-06
1.73889e-06
4.23072e-06
4.22202e-06
2.20176e-06
1.75556e-06
2.051e-06
2.04715e-06
1.686e-06
2.31765e-06
2.33876e-06
3.41383e-06
2.15889e-06
1.75949e-05
1.97432e-06
0.00389002
2.17108e-06
2.21517e-06
4.07959e-06
3.13466e-06
0.00762044
2.65858e-06
1.78493e-06
2.36395e-06
1.91004e-06
5.00535e-06
2.59849e-06
2.03726e-06
2.36833e-06
2.93788e-06
2.4074e-06
1.79992e-06
2.24474e-06
0.00262025
2.32731e-06
2.33918e-06
2.48536e-06
2.09178e-06
1.87764e-06
2.64953e-06
2.48291e-06
2.28113e-06
1.74851e-06
9.19162e-06
2.37543e-06
2.16479e-06
2.51712e-06
3.62937e-06
2.9314e-06
1.98712e-06
6.7251e-06
1.63951e-06
2.63205e-06
2.00326e-06
2.39567e-06
2.35308e-06
2.28609e-06
2.25393e-06
2.1635e-06
0.00220199
5.23339e-05
1.73717e-06
2.29648e-06
2.68279e-06
1.79364e-06
7.53674e-05
2.48344e-06
1.71546e-06
1.76928e-06
2.07793e-06
3.53418e-06
1.99482e-06
2.17418e-06
3.80662e-06
3.58754e-06
0.00315947
2.82948e-06
1.7958e-06
2.36832e-06
0.00242812
2.20723e-06
2.33589e-06
2.18011e-06
2.46605e-06
2.21757e-06
2.09858e-06
5.64265e-06
2.74067e-06
1.74466e-06
1.81367e-06
1.95929e-06
4.10552e-06
1.74409e-06
1.79288e-06
0.00627078
2.41939e-06
2.0374e-06
1.72018e-06
0.00655358
1.74e-06
3.0514e-06
2.58229e-06
2.35625e-06
2.00002e-06
2.81566e-06
2.1583e-06
4.55794e-06
2.06354e-06
2.179e-06
2.84872e-06
2.06877e-06
0.00110098
2.15002e-06
0.00521554
5.59748e-06
2.19742e-06
0.00398145
4.13751e-06
2.2856e-06
2.26601e-06
1.99355e-06
1.83932e-06
2.28581e-06
3.69546e-06
3.53907e-06
2.41943e-06
1.88425e-06
1.9485e-06
0.00164478
3.46263e-06
1.8647e-06
2.43572e-06
2.26594e-06
2.07566e-06
0.00720573
1.84513e-06
2.64202e-06
1.72614e-06
2.1941e-06
2.29484e-06
1.73258e-06
4.09886e-06
8.19301e-06
0.00541899
2.24991e-06
2.42908e-06
2.27268e-06
2.918e-06
2.64226e-06
3.0391e-06
1.76235e-06
0.00490863
1.8113e-06
4.53641e-06
5.70954e-05
1.63936e-06
2.41569e-06
2.09335e-06
2.68367e-06
0.00330157
2.85789e-05
2.07188e-06
2.29513e-06
2.03613e-06
0.00509923
3.58262e-06
2.16401e-06
1.74955e-06
0.00010866
2.31107e-06
2.38063e-06
3.00265e-06
2.34701e-06
0.00212481
2.14579e-06
2.25571e-06
2.74931e-06
5.47614e-06
3.72154e-06
2.67096e-06
0.00103785
2.14856e-06
2.65097e-06
3.63301e-06
2.44396e-06
2.12144e-06
2.51166e-06
2.11007e-06
2.25219e-06
2.21118e-06
2.24412e-06
4.08821e-06
1.99315e-06
0.00099938
2.83955e-06
2.85144e-06
0.00542459
1.84973e-06
2.42644e-06
3.44581e-06
6.59774e-06
2.00679e-06
1.69118e-06
0.00625316
2.03487e-06
2.40372e-06
1.72513e-06
2.18686e-06
2.18324e-06
2.24984e-06
0.00269126
4.15889e-06
3.76488e-06
2.53789e-06
2.36416e-06
2.07168e-06
0.000452062
3.9095e-06
2.08266e-06
3.15999e-06
1.74778e-06
3.35405e-06
3.02528e-06
0.00421304
2.01013e-06
2.51688e-06
2.22735e-06
2.32285e-06
4.16504e-06
2.15539e-06
1.81808e-06
4.17092e-06
1.89554e-06
3.91899e-06
6.57557e-06
3.72454e-06
3.13103e-06
3.09607e-05
2.44566e-06
2.02957e-06
0.000505399
1.78875e-06
2.43965e-06
3.44682e-06
0.00746528
7.12736e-06
1.80637e-06
2.56585e-06
0.00100494
4.95028e-06
2.1065e-06
0.00533522
0.00131717
0.00654586
1.8403e-06
2.37688e-06
4.13351e-06
2.15966e-06
2.10527e-06
2.36254e-06
3.52512e-06
2.44048e-06
1.8832e-06
2.17311e-06
4.27225e-06
3.08794e-06
0.00578915
1.92795e-06
1.7487e-06
1.70611e-06
1.91824e-06
2.64312e-06
2.00827e-06
1.85945e-06
2.34543e-06
4.48523e-06
2.65412e-06
2.64986e-06
2.07498e-06
2.09966e-06
2.35553e-06
3.97092e-06
3.88245e-06
1.83492e-06
2.32876e-06
1.94271e-06
1.85309e-06
2.28343e-06
2.56965e-06
0.00391174
2.20347e-06
2.41794e-06
4.05284e-06
1.78641e-06
2.77238e-06
1.70698e-06
1.91326e-06
1.80631e-06
2.52898e-06
0.000147123
1.95059e-06
3.83037e-05
0.00619914
4.45218e-06
0.00111555
1.82623e-06
2.28425e-06
3.78795e-06
0.00455892
1.84071e-06
4.22033e-06
1.85544e-06
2.68947e-06
2.17297e-06
0.0083973
1.91172e-06
2.68562e-06
2.84832e-06
0.00279548
2.40433e-06
5.38071e-05
4.82137e-06
1.71817e-06
2.15887e-06
2.33148e-06
2.10195e-06
2.09405e-06
2.20984e-05
1.81683e-06
2.42531e-06
3.45458e-06
2.3956e-06
3.00945e-06
2.44411e-06
1.90589e-06
0.0046403
2.30555e-06
0.00192327
2.1613e-06
2.36478e-06
0.00467579
0.00167745
0.00390324
2.11762e-06
2.22655e-06
2.80508e-06
0.00622363
2.48955e-05
2.55572e-06
2.26779e-06
1.19276e-05
2.58629e-06
3.4888e-06
2.16699e-06
1.84671e-06
2.11304e-06
2.54553e-06
1.73737e-06
4.00641e-06
2.01926e-06
1.91229e-06
2.40837e-06
2.32708e-06
2.1693e-06
2.32453e-05
3.63986e-06
2.72918e-06
0.0042908
2.18986e-06
2.45391e-06
1.93351e-06
5.80782e-06
1.75452e-06
1.74212e-06
0.00963028
2.39355e-06
1.81824e-06
2.94417e-06
1.98174e-06
2.19673e-06
2.39801e-06
1.91374e-06
0.0103138
2.01389e-06
2.33972e-06
2.20062e-06
0.00506616
0.00650734
2.66999e-06
1.90885e-06
2.3178e-06
0.00580375
3.15052e-06
2.21421e-06
0.00261847
4.16101e-06
4.71168e-06
1.95346e-06
4.15724e-06
2.93372e-06
2.44299e-06
0.000603736
5.53203e-06
2.62142e-06
1.88301e-06
0.000102808
2.63663e-06
0.0139715
0.00880005
0.00522383
1.99098e-06
1.96388e-06
2.09699e-06
1.96577e-06
0.00127355
2.41711e-06
3.11808e-06
1.98155e-06
2.56091e-06
3.3021e-06
3.03318e-06
0.00870053
1.75288e-06
2.20158e-06
2.16595e-06
2.60895e-06
2.49545e-06
0.00160751
2.05644e-06
2.18402e-06
1.69546e-06
3.96092e-06
0.00120289
2.0084e-06
0.00150147
1.74017e-06
3.18798e-06
2.28789e-06
2.14599e-06
2.50084e-06
2.12434e-06
2.17543e-06
2.09599e-06
2.74663e-06
2.57132e-06
2.78791e-06
3.05225e-06
2.08691e-06
2.34444e-06
2.43392e-06
1.9495e-06
1.93874e-06
4.07955e-06
0.00516259
2.56016e-06
2.05634e-06
1.97707e-06
2.10675e-06
0.0018601
2.40499e-06
7.02678e-05
8.27499e-05
2.66782e-06
2.57585e-06
2.38528e-06
2.44881e-06
0.00700438
3.05543e-06
5.82185e-05
1.94232e-06
1.63551e-06
2.30302e-06
2.28125e-06
1.88642e-06
3.53389e-06
2.04236e-06
0.000654167
5.89314e-06
2.80375e-06
0.00870957
2.74349e-06
4.22348e-06
2.05144e-06
1.97183e-06
3.18644e-06
4.25677e-06
2.14547e-06
2.43592e-06
2.30611e-06
1.96473e-06
0.00647185
2.41716e-06
2.12789e-06
2.4847e-06
1.9835e-06
0.000409273
1.82228e-06
1.81462e-06
1.93625e-06
2.0551e-06
1.68345e-06
2.19903e-06
1.79489e-06
2.03231e-06
2.0398e-06
2.07471e-06
2.68804e-06
9.5963e-06
1.79515e-06
2.43206e-06
7.32437e-06
2.61945e-06
1.78734e-06
2.99158e-06
2.0953e-06
2.00354e-06
0.00740284
2.95224e-06
1.94819e-06
2.10481e-06
3.5836e-06
2.49472e-06
2.11258e-06
2.05135e-06
1.91146e-06
2.17019e-06
2.39286e-06
3.10277e-06
6.53283e-06
3.30804e-06
0.00220908
1.79916e-06
1.89156e-06
1.79735e-06
0.00582497
3.03897e-06
1.94465e-06
1.86908e-06
4.72757e-06
4.00723e-06
2.59554e-06
2.18408e-06
1.93021e-06
1.8998e-06
3.34165e-06
2.52353e-06
2.89058e-06
8.12236e-06
2.30623e-06
2.00117e-06
2.47606e-06
0.00467568
1.82481e-06
1.98803e-06
3.62679e-06
2.5977e-06
6.59503e-05
0.00281111
2.34091e-06
2.53178e-06
1.75105e-06
1.84845e-06
2.25759e-06
0.00336482
0.00547028
2.17226e-06
2.01072e-06
2.03495e-06
7.48533e-06
3.00063e-06
4.20668e-06
4.67772e-06
2.26588e-06
5.36615e-06
2.21418e-06
1.66725e-05
3.67045e-06
3.21385e-06
1.9569e-06
3.33643e-06
2.92352e-06
3.92856e-06
2.00969e-06
0.00148255
2.16635e-06
1.8603e-06
4.22984e-06
0.00696003
2.14519e-06
0.00312621
2.61102e-06
2.68443e-06
2.91194e-06
2.35827e-06
2.10791e-06
2.32242e-06
4.43986e-06
1.70291e-06
1.81123e-06
2.30057e-06
2.66767e-06
3.99984e-06
1.96525e-06
0.00256509
1.96904e-06
2.34445e-06
2.44437e-06
3.66314e-06
1.83789e-06
2.37872e-06
0.00278587
2.04613e-06
2.21901e-06
2.03425e-06
4.45242e-06
1.66633e-06
2.12591e-06
3.54671e-06
0.00718301
2.09132e-06
2.65241e-06
2.87948e-06
3.19744e-06
1.75621e-06
2.29307e-06
2.2817e-06
5.02399e-05
3.78974e-06
1.81486e-06
2.54811e-06
3.21661e-06
1.83146e-06
3.405e-06
2.55596e-06
0.00557666
2.813e-06
1.99752e-06
1.85298e-06
2.16077e-06
2.34281e-06
1.93273e-06
2.29111e-06
1.89096e-06
0.00388424
2.08132e-06
2.26973e-06
4.73869e-06
2.00456e-06
2.32114e-06
2.41336e-06
1.95372e-06
3.22577e-06
2.06519e-06
2.49697e-06
2.75609e-06
2.54283e-06
2.49543e-06
2.45404e-06
0.0080821
3.13359e-06
1.91558e-06
2.2202e-06
2.35499e-06
2.267e-06
0.00167787
2.23101e-06
1.84093e-06
5.79479e-06
2.42801e-06
2.33057e-06
3.56244e-06
2.66102e-06
2.28438e-06
3.77847e-06
3.07868e-06
0.00197115
2.13823e-06
2.18144e-06
2.03129e-06
0.00150439
1.63583e-06
2.24051e-06
1.53757e-05
3.26727e-06
6.5799e-06
2.18331e-06
1.99771e-06
0.0032816
0.00362492
0.00468986
2.25237e-06
3.82942e-06
2.18676e-06
1.01648e-05
1.87115e-06
0.00845662
2.27004e-06
2.19294e-06
4.87945e-06
1.98811e-06
2.75047e-06
2.13961e-06
2.41344e-06
2.40787e-06
2.67537e-06
2.17002e-06
7.05594e-06
3.07846e-06
2.08979e-06
1.96991e-05
2.15291e-06
2.81533e-06
2.60132e-06
2.23989e-06
2.8111e-06
3.91358e-06
2.76965e-06
9.30504e-06
2.33748e-06
3.89646e-06
0.0026137
1.78308e-06
0.00248819
1.86932e-06
1.75499e-06
1.97533e-06
2.23652e-06
3.02614e-06
1.88773e-06
3.16918e-06
2.00221e-06
3.39205e-06
2.25439e-06
8.81019e-06
1.87945e-06
2.14315e-06
2.02839e-06
2.13109e-06
3.54028e-06
0.00203997
2.17774e-06
2.07896e-06
3.94183e-06
1.63357e-06
1.98998e-06
1.83901e-06
0.002452
2.0852e-06
2.18752e-06
2.1507e-06
1.98701e-06
0.00703163
0.0063962
2.2186e-06
0.00249947
0.00331147
2.37574e-06
0.000624861
2.1887e-06
1.76058e-06
2.36527e-05
1.94289e-06
0.00048749
2.09944e-06
5.1776e-06
2.13435e-06
2.10176e-06
0.000465164
0.0148572
2.07342e-06
2.0825e-06
2.05272e-06
4.62639e-06
2.28904e-06
0.00138795
1.85131e-06
3.66478e-05
0.00143053
2.07343e-06
0.00688908
3.27534e-06
0.00486765
2.19345e-06
1.88756e-06
2.16196e-06
1.77183e-06
2.74144e-06
0.00196591
2.4871e-06
2.20535e-06
2.20235e-06
2.31605e-06
1.76233e-06
2.70705e-06
6.01061e-06
2.12283e-06
1.8488e-06
1.87511e-06
2.0441e-06
0.0049344
2.6642e-06
0.00876124
1.26446e-05
1.99694e-06
2.38428e-06
2.89381e-06
1.94277e-06
0.000797144
2.08303e-06
2.51777e-06
3.28058e-06
1.99607e-06
1.86897e-06
4.29891e-06
2.03185e-06
2.06097e-06
3.02599e-06
1.78545e-06
2.47997e-06
2.44139e-06
1.83133e-06
2.6463e-06
2.32139e-06
4.20034e-06
4.09379e-06
0.000837578
1.76568e-06
0.00295616
2.00599e-06
5.31185e-06
1.98046e-06
2.09036e-06
3.2111e-06
2.17001e-06
5.42692e-06
2.22083e-05
3.02264e-06
3.2719e-06
4.47897e-06
2.63612e-06
2.39303e-06
1.89875e-06
6.12015e-06
2.1864e-06
1.90092e-06
2.54574e-06
2.38278e-06
3.60963e-06
2.06112e-06
2.1059e-06
2.30198e-06
2.13927e-06
3.05296e-06
0.00931621
2.4279e-06
2.78878e-06
3.54073e-06
1.7171e-06
1.64098e-06
3.59592e-06
2.16152e-06
2.40349e-06
2.01562e-06
1.7627e-06
2.15688e-06
2.04153e-06
3.08953e-06
3.12916e-06
0.00251828
2.14111e-06
0.00592071
3.23698e-06
1.79667e-06
0.00442504
2.28897e-06
2.65905e-06
1.89332e-06
1.86771e-06
1.93021e-06
2.12579e-06
2.50511e-06
1.98479e-06
2.30825e-06
2.02959e-06
0.00183395
1.98944e-06
0.000883052
0.000705117
1.66812e-06
2.11314e-06
0.00398141
3.02197e-06
1.70795e-06
1.64082e-06
2.11106e-06
2.11206e-06
3.05189e-06
1.80789e-06
6.54275e-06
2.3979e-06
1.98284e-06
1.91847e-06
3.38415e-06
3.3136e-06
3.27164e-06
2.35377e-06
1.87601e-06
2.06753e-06
2.48021e-06
1.88408e-06
3.30071e-06
3.49467e-06
1.96864e-06
2.05311e-06
3.00716e-06
3.11258e-06
2.71516e-06
1.9643e-06
1.87198e-06
2.43823e-06
4.32475e-05
2.04089e-06
0.00317728
4.15973e-06
2.08625e-06
3.87881e-06
2.60183e-06
2.07595e-06
3.47838e-06
4.02991e-06
0.00287151
1.98462e-06
4.98112e-06
2.91739e-06
7.70468e-06
3.87063e-06
0.00159926
3.98419e-06
2.32665e-06
1.92122e-06
1.90838e-06
3.4322e-06
0.00400225
1.91394e-05
1.99687e-06
3.80723e-06
1.94667e-06
0.00555887
2.40797e-06
3.36762e-06
2.63096e-06
1.91578e-06
3.69174e-06
2.05434e-06
2.00217e-06
2.58639e-06
2.96905e-06
2.19367e-06
2.52276e-06
2.30789e-06
0.00496533
0.00607021
1.75563e-06
2.20252e-06
2.59142e-06
2.10082e-06
1.8618e-06
2.13122e-06
2.08629e-06
1.94009e-06
3.10888e-06
1.72978e-06
1.76968e-06
2.5861e-06
2.3506e-06
1.98248e-06
1.95361e-06
2.02882e-06
2.02848e-06
0.00165119
2.49414e-06
1.87817e-06
1.75633e-06
2.60389e-06
6.32325e-06
1.83377e-06
2.179e-06
3.03829e-06
3.3145e-06
2.03415e-06
0.00274114
2.36421e-06
2.77624e-06
5.96774e-06
3.42314e-06
3.38191e-06
1.77954e-06
1.86294e-06
1.89311e-06
3.981e-06
2.21081e-06
0.00230823
2.01822e-06
2.20702e-06
2.22269e-06
2.07474e-06
2.33393e-06
3.61819e-06
2.14107e-06
3.0038e-06
2.66506e-06
2.97919e-06
1.98343e-06
2.90002e-06
1.92013e-06
1.85212e-06
5.84781e-06
4.47849e-06
0.00372661
2.19161e-06
2.76889e-06
2.19666e-06
0.00157691
2.08147e-06
2.30484e-06
2.02371e-06
1.83963e-06
3.71971e-06
2.30663e-06
0.00194146
1.72045e-06
2.56215e-06
2.18245e-06
1.89017e-06
4.75298e-05
1.8405e-06
2.46294e-06
1.8694e-06
2.00771e-06
1.93867e-06
2.65671e-06
2.26364e-06
2.34972e-06
1.998e-06
1.86934e-06
1.78574e-06
1.7629e-06
2.63553e-06
2.13063e-06
0.00121552
1.37116e-05
3.84439e-06
0.00336441
2.56909e-06
2.38777e-06
1.98364e-06
3.57157e-06
0.00116589
1.8957e-06
0.000271798
2.55589e-06
2.4451e-06
0.00622606
0.00658149
1.87487e-06
2.3155e-06
1.87445e-06
0.00212798
1.96045e-06
2.26786e-06
5.25359e-06
9.9088e-05
1.57108e-05
8.2278e-05
1.9984e-06
2.24183e-06
1.70717e-06
4.05004e-06
3.0664e-06
2.41783e-06
2.09597e-06
2.07373e-06
3.53983e-06
2.37811e-06
0.00260281
2.00365e-06
2.38782e-06
0.00140147
0.0018132
2.81996e-06
2.50906e-06
0.00219323
4.86051e-06
3.64537e-06
1.51568e-05
0.000567999
1.93637e-06
2.98483e-06
1.95725e-06
2.31771e-06
2.45073e-06
2.39503e-06
2.70273e-06
0.00300945
2.35066e-06
3.12896e-06
1.89671e-06
2.09764e-06
0.000892942
3.32943e-06
0.00471155
1.76805e-06
1.77514e-06
0.00299697
9.64031e-06
4.83322e-06
2.70323e-06
2.57691e-06
1.98637e-06
3.54442e-06
2.02636e-06
2.93053e-06
2.36413e-06
0.00277137
2.04403e-06
0.00913862
0.00419212
3.84942e-06
1.91785e-06
2.7721e-06
1.85543e-06
4.16471e-05
4.96176e-06
2.21309e-06
2.23367e-06
3.64143e-06
5.16228e-06
1.83583e-06
3.34444e-06
3.09948e-06
2.08525e-06
2.11694e-06
4.109e-06
0.00225171
3.6583e-06
3.44516e-06
0.000914013
2.29846e-06
1.68609e-06
2.05162e-06
0.000951939
6.92179e-05
0.000982983
2.30819e-06
2.94197e-06
1.79935e-06
3.7474e-06
1.69178e-06
0.0156387
1.8809e-06
2.03157e-06
3.34021e-06
2.89761e-06
1.75691e-06
2.36233e-06
2.14948e-06
2.45725e-06
0.00354978
2.89935e-06
2.54196e-06
2.35414e-06
3.85753e-06
2.63803e-06
2.36276e-06
0.00103081
4.27621e-06
1.84461e-06
3.29037e-06
1.70182e-06
2.77187e-06
3.17684e-06
3.54179e-06
1.78236e-06
0.00527515
1.44818e-05
2.20432e-06
1.73962e-06
2.72322e-06
3.02075e-06
2.32624e-06
3.60781e-06
3.26872e-06
2.68791e-06
0.00175792
2.62764e-06
1.86257e-06
2.39196e-06
2.53805e-06
0.00103872
2.34041e-06
1.02917e-05
2.12612e-06
5.52729e-06
4.01719e-06
2.17608e-06
2.05797e-06
1.78178e-06
0.00316873
1.63897e-06
2.60644e-06
2.72351e-06
4.88797e-06
0.0024577
0.00622094
3.25271e-06
2.1159e-06
0.00276725
1.97226e-06
3.49229e-06
0.000353481
3.71803e-06
0.00577769
2.63414e-06
2.33073e-06
4.26276e-06
1.87822e-06
2.30829e-06
2.38779e-06
0.0014864
1.84651e-06
3.77603e-06
3.02884e-06
1.98318e-06
0.000100761
2.516e-06
2.70804e-06
1.77883e-06
1.69572e-06
4.24129e-06
0.00821716
0.00475998
2.40507e-06
1.85861e-06
3.67354e-06
2.36955e-06
2.23434e-06
2.19296e-06
6.01445e-06
0.00664426
3.29589e-06
3.66885e-06
2.12096e-06
0.00663062
0.00271434
2.23867e-06
2.20185e-06
3.53865e-06
4.11243e-06
2.4482e-06
2.3561e-06
3.90971e-06
0.00218454
2.78564e-06
3.94941e-06
0.00426068
1.71774e-06
0.00122164
0.000143283
0.00124892
2.20044e-06
3.02798e-06
1.92061e-06
1.80533e-06
2.42167e-06
4.22478e-06
1.9096e-06
2.264e-06
3.47471e-06
2.69952e-06
0.00624349
2.2504e-06
4.50407e-06
1.98826e-06
1.77306e-06
1.39696e-05
2.08242e-06
0.0050279
2.04976e-06
2.46303e-06
2.41564e-06
2.21326e-06
2.09601e-06
2.0379e-06
2.06189e-06
0.000584286
4.287e-06
2.17287e-06
2.21824e-06
2.71992e-06
0.00292765
2.3736e-06
0.00858799
2.65635e-06
8.40344e-06
2.32089e-06
2.15664e-06
1.58989e-05
2.02216e-06
1.80188e-06
1.908e-06
4.15984e-06
1.84888e-05
1.87095e-06
2.30033e-06
0.00760813
3.30147e-06
0.00110339
0.00136682
2.35738e-06
2.15969e-06
0.00777241
0.00173325
2.21893e-06
0.00222179
2.00829e-06
3.24914e-06
2.32636e-06
0.00825401
2.07005e-06
2.47403e-06
0.00068408
3.05551e-06
2.20882e-06
1.92232e-06
1.83031e-06
1.20019e-05
0.00614101
1.90197e-06
1.89249e-06
2.21662e-06
1.9367e-06
0.000599073
1.94496e-06
2.01897e-06
0.000576463
2.32366e-06
1.84939e-06
2.64767e-06
1.87811e-06
1.75113e-06
2.2761e-06
2.79061e-06
2.18783e-06
2.18872e-06
0.000754392
4.93305e-06
2.08561e-06
0.00061517
2.9329e-06
1.80698e-06
0.000234847
3.72086e-06
2.76597e-06
5.23913e-06
2.67663e-06
2.17965e-06
2.15497e-06
3.49388e-06
3.05212e-06
1.84759e-06
1.88294e-06
1.92293e-06
0.00175835
3.37191e-06
2.38428e-06
2.43523e-06
4.56456e-06
8.14381e-06
2.32623e-06
0.000757405
0.000431004
1.40806e-05
1.8305e-06
4.17502e-06
0.00141729
2.30121e-06
0.000461726
9.19627e-06
2.33085e-06
0.00060192
1.8856e-06
1.9683e-06
0.00137059
2.01176e-06
6.67869e-06
6.5959e-06
0.000862893
1.77626e-06
2.42944e-06
4.16884e-06
7.76431e-06
2.2768e-06
2.41117e-06
0.00376346
2.05098e-06
2.40106e-06
1.82462e-06
2.76617e-06
3.05211e-06
6.43411e-06
1.89343e-06
1.94581e-06
2.57616e-06
4.05479e-06
2.23486e-06
2.31031e-06
1.98666e-06
2.91331e-06
2.26169e-06
1.69809e-06
0.00239676
1.73999e-06
7.44479e-06
2.15307e-06
2.57933e-06
3.12326e-06
1.86428e-06
1.66226e-06