/*--------------------------------*- C++ -*----------------------------------*\
| =========                 |                                                 |
| \\      /  F ield         | OpenFOAM: The Open Source CFD Toolbox           |
|  \\    /   O peration     | Version:  v2012                                 |
|   \\  /    A nd           | Website:  www.openfoam.com                      |
|    \\/     M anipulation  |                                                 |
\*---------------------------------------------------------------------------*/
FoamFile
{
    version     2.0;
    format      ascii;
    class       surfaceScalarField;
    location    "50";
    object      phi_0;
}
// * * * * * * * * * * * * * * * * * * * * * * * * * * * * * * * * * * * * * //

dimensions      [0 3 -1 0 0 0 0];
oriented        oriented;


internalField   nonuniform List<scalar> 
19765
(
-0.0452173
-0.0478197
0.0930369
0.00758317
0.11812
-0.125703
-0.0327877
0.0602138
-0.027426
-0.12697
-0.183786
0.310756
0.242301
-0.249107
0.00680527
-0.1997
0.0136053
0.186095
0.146321
-0.218078
0.0717572
0.0140028
0.0621675
-0.0761703
0.167109
0.148195
-0.315304
-0.126299
0.451628
-0.325329
0.137438
-0.0729795
-0.0644589
-0.0430824
0.0441829
-0.00110051
-0.0760758
0.0163491
0.0597267
0.246121
-0.0997999
-0.138056
0.318192
-0.180135
0.333304
-0.091003
-0.215169
-0.0458772
0.261046
-0.305324
-0.113228
0.418552
0.0453992
0.0626985
-0.108098
-0.173723
-0.0161898
-0.159769
0.35363
-0.193861
0.336117
-0.547741
0.211625
0.519951
-0.183834
-0.0472261
0.065785
-0.0185589
0.0433543
-0.0761421
0.163535
-0.295621
0.132086
-0.0379672
0.0424418
-0.00447458
-0.309543
-0.238198
-0.0325048
0.00735053
0.0251543
-0.155198
0.464793
-0.309596
0.0150017
-0.0611766
0.0461749
0.0577088
-0.0517721
-0.00593668
0.0732952
-0.0657559
-0.00753927
0.066277
-0.0353258
-0.0309512
-0.0532657
0.0986649
-0.251236
0.124266
0.451639
0.0683121
-0.35142
0.26875
0.0826702
0.317505
-0.0856028
-0.231902
-0.233568
0.0175196
0.216048
-0.0409242
0.154915
-0.113991
-0.0629688
-0.126716
0.189684
0.0668571
-0.0528544
-0.115162
0.156196
-0.041034
-0.0546848
0.000410339
0.0542744
0.00833198
-0.164479
0.371769
-0.20729
0.293088
0.201447
-0.494535
0.174437
-0.166956
-0.00748084
0.636492
-0.374111
-0.262381
0.0506322
-0.0356306
-0.00913952
-0.128704
-0.509246
0.354048
-0.0325048
-0.176161
-0.023539
-0.232746
0.169777
0.179042
-0.0102272
-0.168815
-0.323303
-0.0470874
0.37039
-0.363566
0.237267
-0.139137
0.0598776
0.0792593
-0.323825
0.108656
0.0479676
-0.37127
0.147682
-0.176273
0.0285901
-0.216595
-0.0169727
-0.132612
0.296147
0.0471033
0.212044
-0.259147
-0.140054
0.147638
0.0532044
-0.0419437
-0.0112607
-0.036857
-0.00111021
-0.402357
0.097033
-0.443898
-0.169388
0.613286
0.187753
-0.0400708
0.219572
-0.400873
0.181302
0.0502611
-0.210773
0.160512
-0.290267
0.129636
0.160632
0.326144
-0.549587
0.223443
-0.0456225
0.0546262
-0.00900366
-0.059156
0.103009
-0.0438535
0.0759402
-0.0232689
-0.0526713
-0.157129
0.178692
-0.0215636
0.187407
-0.400435
0.213028
0.0866893
-0.143214
0.0565243
-0.409012
0.222557
0.186455
-0.301359
0.431784
-0.130425
-0.0550259
0.000341158
-0.276847
0.117412
0.159435
-0.334378
-0.20218
0.536558
-0.0164891
0.115163
-0.0986743
-0.100056
0.0835665
-0.375059
0.21529
0.46985
-0.304937
-0.164913
0.0516292
-0.0476512
-0.00397801
0.10946
-0.0458829
-0.063577
-0.0487913
0.107213
-0.0584215
-0.0320922
-0.114226
0.146318
-0.108212
0.0366149
0.0715967
0.462155
-0.274748
-0.0514825
-0.0209143
0.0723968
-0.15606
0.0408975
0.129292
-0.128606
-0.000685377
-0.154802
0.0364916
0.11831
-0.103461
0.396549
-0.377004
0.292871
0.0841324
-0.257752
0.0688055
0.188947
0.44545
-0.225878
-0.290493
-0.221687
0.51218
-0.00687096
0.0694478
-0.0625768
-0.075657
-0.0634799
0.170285
-0.152749
-0.0175358
0.0816328
-0.0639772
-0.0176556
-0.105387
0.08175
0.023637
0.0519614
0.00574732
0.106284
0.0732185
-0.0365991
-0.0366194
-0.0793043
-0.0754976
0.0725856
0.000709594
0.0396353
-0.16664
0.127005
-0.116196
0.145858
-0.0296623
0.172519
-0.227041
0.0545217
-0.0792561
-0.026131
0.133614
-0.165706
-0.174242
-0.215157
0.3894
0.391666
-0.500318
-0.0701079
-0.206739
-0.0569537
0.0935779
-0.0366243
0.20484
-0.0124763
-0.192364
0.0445625
0.0138477
-0.0584102
0.356029
-0.171625
-0.184404
0.43767
0.198822
0.0281722
0.0404251
-0.0685972
0.0740456
-0.0202985
-0.053747
0.135658
-0.172046
0.0363878
0.0662686
-0.112604
0.0081433
0.104461
-0.430455
0.0158628
0.414592
-0.0121571
0.161281
-0.149124
0.271931
-0.104822
-0.269737
-0.107266
0.0731072
0.00852558
-0.0165363
-0.241216
-0.0233195
-0.0539063
0.0370477
0.00187388
-0.0389215
-0.0369811
-0.0112281
0.0482092
-0.127934
0.142572
-0.0146378
-0.0105433
-0.0325391
0.0187793
-0.0686828
0.0499035
0.183851
-0.00941405
0.304321
-0.578109
0.273787
-0.450244
0.119846
0.330398
-0.0481876
0.0578384
-0.00965084
0.0428188
-0.0582287
0.0154099
-0.298386
0.239151
0.0592348
-0.00343786
-0.224293
-0.127127
0.217726
-0.514753
0.297028
-0.181356
0.169199
0.330008
-0.574869
0.244861
0.137309
-0.178233
-0.0992226
0.0493337
0.0498889
0.03375
0.032527
-0.00385121
0.0867293
-0.0828781
0.0594257
-0.0148631
-0.146628
0.0304328
-0.214256
-0.0841305
0.390384
-0.638793
0.248409
0.0409887
-0.0848427
0.043854
-0.138061
0.00410542
0.133955
-0.0724823
0.0491628
-0.0239201
0.0672744
-0.00898204
-0.0755992
0.0437383
-0.0735602
0.0298219
0.130285
-0.139424
0.0154423
-0.0549482
0.0395058
-0.0326872
-0.0433886
0.0162908
-0.119771
0.10348
0.450092
-0.668439
0.218347
-0.136152
0.0113979
0.0637939
-0.0751917
-0.326907
0.143121
0.183786
0.217247
-0.341753
0.124507
-0.0414399
-0.0388373
0.0802772
0.205257
-0.0327383
0.10043
-0.253615
0.153185
0.0601056
-0.0446632
-0.121992
0.188412
-0.0664193
-0.136249
-0.122805
0.259054
0.0260695
-0.456525
0.24337
-0.196266
-0.6377
0.681789
-0.0440885
-0.137972
0.0100381
0.158652
-0.0229942
0.151811
0.00684162
0.0698328
-0.0288441
0.0612635
-0.0184447
-0.0798322
0.0729613
0.0501255
-0.0861904
0.0270344
-0.243243
-0.137087
0.38033
-0.245367
0.199489
0.0812134
-0.0374751
0.0688542
-0.064519
-0.00433524
-0.114712
-0.0151677
0.129879
-0.0126851
-0.0760963
0.0887814
-0.0839465
0.245709
-0.161763
-0.0422635
-0.0608907
0.103154
-0.074974
0.0546755
-0.159517
-0.0154068
0.174923
0.0582755
-0.237325
0.17905
-0.292038
-0.158205
-0.162613
0.183782
-0.0211694
0.0987062
0.0305855
-0.0615586
0.0143325
-0.535112
0.0912136
0.0687557
-0.0405835
0.0895511
-0.102236
0.101847
-0.0151576
-0.24836
0.438724
-0.190364
-0.0714344
0.0640872
-0.0546975
0.311699
-0.257002
-0.295765
0.241067
-0.288389
0.150333
-0.678071
0.248844
0.429227
-0.141825
0.293862
-0.152038
-0.091787
0.0884058
0.00338121
0.235164
-0.449075
0.213911
0.0323871
-0.0650743
-0.125768
-0.0122927
0.620202
-0.279041
-0.0298093
-0.0234503
0.0532596
-0.141128
0.0915795
0.0495488
0.0306243
0.260396
-0.460984
0.200588
0.472558
-0.168237
-0.0235369
0.220607
-0.19707
-0.160505
0.00431964
0.156185
-0.213524
0.00898399
0.20454
-0.0218242
-0.379049
-0.427893
0.574629
-0.146736
0.16021
-0.00839904
-0.226077
0.428954
-0.202876
-0.0326888
0.225435
-0.192746
0.0735499
-0.115813
-0.433229
0.258986
0.0600512
-0.0486534
0.125419
-0.0505844
-0.0748344
-0.0757041
-0.0733391
0.149043
0.0689325
-7.82914e-05
0.170882
-0.210999
0.0401171
0.417735
-0.12492
0.141211
0.0364838
0.0729761
-0.177711
0.412876
0.0761111
-0.0573319
-0.321077
-0.287004
0.608081
-0.112443
0.562535
-0.0665029
-0.0635516
0.130054
-0.29152
-0.407606
0.181529
0.321502
-0.206794
-0.114709
0.0379111
0.107947
0.0457815
0.0916569
0.19709
-0.195191
-0.0836195
0.00616065
-0.0431417
-0.146848
-0.180059
0.0123311
-0.0763084
-0.0860931
0.0446532
0.0488449
0.0243736
-0.0898096
-0.00197741
0.213628
0.320651
-0.534278
0.0925759
-0.1292
0.0366241
0.249301
-0.08018
-0.169121
-0.142286
-0.00326285
0.145549
-0.0616887
-0.0375339
0.0945133
-0.057214
-0.0372993
0.157286
-0.58518
-0.0941649
0.1338
-0.0742274
0.0227449
-0.00980722
0.188849
-0.111651
0.229063
0.265573
0.0559297
0.0583621
-0.0792764
-0.0805531
0.093213
-0.0127036
-0.0805094
-0.412218
-0.265853
0.516654
-0.270961
-0.0435398
-0.0544183
0.0979582
-0.201836
-0.207176
0.028036
-0.166709
0.138673
0.0123799
-0.0670573
0.0546774
-0.00350812
-0.0506184
0.0669675
0.0461937
-0.0414734
-0.00472032
-0.0593061
-0.0818221
0.198796
0.252843
0.188127
-0.0172457
-0.0513318
-0.256213
0.307545
0.0363981
-0.0363981
-0.322862
0.281264
0.0415981
-0.0360566
0.0481059
-0.0120493
0.169203
-0.176233
0.00703018
-0.127655
0.0962225
0.0314323
-0.286185
0.588166
-0.301981
-0.0506225
0.0825063
-0.0318838
0.209972
0.13793
-0.347902
0.12846
-0.0515287
-0.0769311
-0.140156
0.0644991
0.179889
-0.249997
-0.218612
-0.260726
0.479339
0.0125728
0.11552
-0.128093
0.0970504
-0.118799
0.0217484
-0.0326652
0.0537759
-0.0211107
-0.287202
0.0583207
0.228882
-0.0854308
0.0284771
0.0430271
-0.00597943
-0.0512094
0.0781576
-0.0269481
0.159609
-0.144661
-0.0149478
-0.0360971
0.109095
-0.118352
0.0092578
0.137759
0.111541
-0.0435268
-0.0484115
0.0919383
0.189331
-0.0201285
-0.420058
0.218222
-0.136393
-0.0606189
0.0567677
-0.259771
0.175824
-0.249757
-0.10184
0.351597
-0.142626
0.0139215
0.230803
-0.0314613
-0.199341
-0.0673693
0.0847503
-0.017381
-0.0293215
0.071291
-0.0419695
0.0544068
-0.136748
0.0823411
-0.208771
0.133067
-0.129783
0.0150717
-0.0494734
0.0168082
0.0604675
0.0331104
-0.185734
0.0372169
0.148517
-0.328316
0.0747013
0.146147
-0.160764
0.0146173
0.0749639
-0.0197249
-0.055239
-0.257057
0.513632
-0.256574
-0.147805
-0.0127001
-0.0238256
-0.10997
-0.0326557
-0.189817
0.450213
-0.212183
0.179494
-0.124994
0.273189
0.12704
-0.268865
-0.0612349
0.036389
0.0419704
-0.181935
0.139964
-0.241472
0.0279471
0.0118203
0.103343
-0.146258
0.204533
0.0498302
-0.09337
0.103936
-0.071169
0.119449
-0.0482797
0.0177504
-0.0651336
0.0473832
0.07204
-0.0217424
-0.0502976
-0.4256
0.182357
-0.0725732
-0.0675828
0.0068596
-0.0411356
0.0421091
-0.000973514
0.213868
-0.00902839
-0.0406532
0.0730403
0.217028
-0.200035
-0.0169927
0.0502674
0.0751514
-0.0157955
0.0758468
0.394038
0.110741
-0.00164675
-0.020574
-0.0534522
0.0740262
-0.0467513
-0.00143633
0.0787072
-0.00676116
-0.071946
-0.00115003
0.0129444
-0.118482
0.105538
-0.17606
0.0540676
0.0362911
-0.0757568
0.0394656
-0.227277
0.189079
0.0381989
-0.0351427
-0.0469104
0.0820531
-0.0458674
-0.191458
-0.203594
-0.222006
0.0382232
0.190589
0.165439
-0.0651747
0.0856545
0.0591832
-0.107974
0.146393
-0.297737
0.151345
0.194224
-0.204451
-0.0701242
-0.0575305
-0.238429
-0.0898875
0.052582
0.00868159
-0.0470618
0.054499
-0.00743721
0.154767
-0.12917
-0.0255972
0.0139101
-0.0391047
0.000216227
0.0388885
0.145722
0.00904522
-0.0406392
-0.0419465
0.0825856
-0.398139
0.148383
-0.175682
0.151856
0.0536185
-0.0844951
0.0308766
0.000571179
0.0417416
-0.0812627
0.0395211
0.0342473
-0.111179
0.0769318
0.310847
-0.164455
-0.101687
0.0510641
-0.163798
0.0346281
0.419113
0.0456805
0.297357
-0.114676
0.527325
-0.197317
-0.0223991
0.0638716
-0.0414725
-0.0766461
0.110316
-0.0336699
0.0409684
0.0330245
0.0201799
0.0208306
-0.1282
-0.160189
0.0634473
-0.0108653
0.179603
-0.185843
0.00624013
0.0851916
0.00866466
-0.0938562
-0.403199
0.337377
-0.593739
0.256362
-0.010013
0.133178
-0.178178
0.0449991
-0.209605
-0.223624
-0.0846744
-0.00343024
0.0881046
0.150856
-0.00513445
0.0340586
-0.0638679
0.109743
0.117374
-0.227117
-0.0486883
0.0622042
-0.0135159
0.0630378
-0.050658
0.0101843
-0.0940465
-0.193156
-0.0091394
0.0599495
-0.0508101
0.044741
-0.0388885
-0.00585247
0.0509428
0.062997
-0.11394
-0.11227
0.392167
-0.279897
-0.0726216
0.104671
-0.0320489
-0.142261
-0.277797
-0.191443
-0.0988238
-0.180246
0.0176329
-0.19274
0.177549
0.0151908
-0.634548
0.416042
0.218505
-0.213997
-0.16799
0.381988
0.333257
-0.182045
-0.151212
-0.124141
0.0240849
-0.147855
-0.191234
0.339089
-0.0301086
-0.0174309
0.0475395
-0.0522664
0.0800635
-0.027797
-0.422294
0.540761
-0.118467
0.162765
0.0159656
-0.178731
-0.0833356
0.0540141
0.0642794
0.0209068
-0.0851862
-0.291584
0.163385
0.189238
-0.164853
-0.0243858
0.0126122
0.17117
-0.0584595
0.0927067
-0.0401989
0.00537551
0.0348234
0.370472
-0.22735
0.100355
0.165756
-0.26611
-0.0568778
-0.0187059
0.0755837
-0.0825242
0.068033
0.0144913
0.207729
-0.181641
-0.026088
-0.109218
0.0325715
0.177134
-0.043956
-0.49184
0.170763
-0.179594
0.216278
-0.0366842
-0.134701
0.147274
0.164924
-0.311772
-0.014163
0.0476607
-0.0334977
-0.163621
-0.292041
0.263372
0.0286691
-0.11097
-0.00918283
0.120152
-0.234073
0.0174779
-0.0880122
0.00333787
-0.0798651
0.0750201
0.00484503
-0.328994
-0.305554
-0.314213
0.488149
-0.173936
-0.102073
0.130929
-0.0288563
-0.555077
0.240864
-0.130734
0.0990028
0.0317314
0.281399
0.315616
0.106674
-0.0199451
0.157239
-0.579533
-0.0560328
0.116519
-0.0604863
0.093894
0.0179866
-0.111881
0.162438
0.213115
-0.375553
0.0640132
-0.0478685
-0.0161447
0.111739
-0.180803
0.069064
-0.0467536
0.0595745
-0.012821
0.52647
-0.312843
0.0348294
-0.101332
-0.00879599
-0.0217291
-0.0281313
0.0498604
-0.343182
0.178704
-0.0462706
-0.123185
0.165155
-0.0775945
0.0920026
-0.0144082
-0.0154181
-0.0644141
0.284342
0.147442
0.109211
-0.28498
0.159986
-0.0133411
-0.172392
-0.0345773
-0.00655833
-0.0844966
-0.023715
0.0495137
0.0144995
0.000357158
-0.112962
0.00279733
-0.142795
0.352767
-0.0845706
0.0439174
-0.142784
0.0328136
0.0126721
0.184252
-0.0725131
-0.0356231
0.0457106
-0.0100875
-0.064166
0.0552275
0.00893853
0.104774
0.0135041
-0.118278
0.194286
-0.190037
-0.0042491
0.0316221
0.038431
-0.0700531
0.0619959
-0.0442455
0.26696
-0.103177
0.0825142
0.0206632
-0.20844
-0.0256332
0.0119503
-0.0416265
0.0115178
-0.159416
-0.086713
0.0479594
0.0387536
0.0413301
0.0305598
-0.07189
-0.0543401
0.0401771
-0.0184074
-0.0636175
0.0820249
-0.0959416
0.0571042
-0.0364137
0.0567408
-0.0203271
-0.0688488
-0.0242038
0.0930526
-0.179071
0.437552
-0.25848
-0.530409
0.273352
0.0566444
-0.0530978
-0.00354665
0.015702
-0.104469
0.0887667
-0.107241
0.135826
-0.0285856
0.185988
-0.172604
-0.0133844
-0.0854845
0.0143154
-0.100554
0.113498
0.0363271
0.0581862
-0.275488
-0.254922
-0.0206075
-0.0543665
-0.0387323
-0.00801895
-0.00352438
0.0326646
-0.0291402
0.0410579
0.14493
-0.411998
0.232927
-0.0664115
0.103026
-0.240667
0.491503
-0.250836
-0.0333792
-0.00572554
0.0120162
0.0610911
0.0820397
-0.0177603
0.585502
-0.238797
-0.346705
0.442363
-0.116219
-0.0428113
0.0791025
0.478249
-0.329938
-0.148312
-0.0811735
0.0359562
-0.441986
0.599272
-0.10278
0.102031
-0.0593454
-0.0252252
0.27472
0.187435
0.257557
0.171397
-0.534622
-0.00411238
0.538734
0.101887
-0.0722948
-0.0295927
0.0288952
0.206844
-0.416449
0.175078
-0.143562
-0.0315167
-0.055791
-0.0223254
0.0781163
-0.101085
-0.291984
-0.316654
0.608637
-0.583786
0.429316
0.15447
-0.00529293
0.0492355
-0.0439426
-0.195197
-0.372296
0.567493
-0.255867
0.0198239
0.236043
-0.0306194
0.0306194
0.422017
0.163485
-0.007872
-0.0323269
0.00857993
0.152701
-0.480035
-0.0908336
0.570869
-0.0668911
0.102504
-0.0356128
-0.0167131
-0.135179
0.0279379
-0.134608
0.0325354
-0.0191829
0.111759
-0.0964327
0.262189
0.024293
0.335698
0.142552
-0.145123
0.189742
-0.412316
0.0276103
0.0586473
-0.0862576
-0.0736742
-0.00619093
0.157798
-0.211033
0.0532352
-0.14956
0.539944
0.0333819
0.155857
0.0824134
-0.00370624
0.170838
-0.161469
-0.00936919
0.113252
-0.0784224
-0.162863
-0.0184931
-0.0611785
-0.0383368
0.0995154
0.00334611
0.176256
0.0371873
0.0174389
-0.0630189
0.0538795
0.236832
0.125123
0.296895
-0.162323
0.327246
0.106804
0.139317
-0.185047
0.0387894
0.0551363
-0.00562262
0.0694539
-0.104716
0.0352616
0.0675792
-0.0829973
0.0256637
0.455798
-0.330675
0.470433
-0.195713
0.0438472
-0.0844864
-0.0564597
-0.00390881
0.0603685
-0.197269
0.0939525
0.103316
0.010445
0.260913
-0.158031
-0.102882
0.226156
0.188705
-0.414861
0.0669723
-0.0288711
-0.0381012
-0.0330945
-0.0347423
0.0663643
-0.135329
-0.00106385
0.0915573
0.000445279
-0.0689953
0.0310337
0.0379616
0.046424
-0.0688231
-0.402754
-0.181031
-0.0427361
0.0038476
0.0586204
-0.079228
0.0596776
-0.0802516
0.0135917
-0.121068
0.107476
-0.0108676
0.0480549
0.216686
-0.0588882
-0.529575
-0.487891
0.269278
-0.0409174
0.0951279
-0.0542105
-0.119857
-0.199641
0.319497
-0.338873
0.208549
0.130325
0.105586
-0.241835
-0.122573
0.0836321
0.0389405
0.0325502
-0.0582962
0.025746
-0.0396601
0.0383688
0.00129128
0.0173621
0.0232246
-0.0655141
0.0422895
-0.575846
0.325694
0.250151
-0.293963
0.0380958
-0.105508
-0.217354
0.171826
-0.0340668
-0.0802663
-0.331732
-0.284434
-0.291412
0.0142123
-0.101435
0.0872226
0.028947
0.145016
0.0542144
-0.0595074
-0.103509
-0.534191
0.0543342
0.000802107
-0.111863
0.0483119
0.214517
-0.238054
-0.173429
-0.150396
-0.43647
-0.00499668
0.441466
-0.102449
0.110592
0.0740738
-0.216965
0.142891
0.00769387
-0.152578
0.243227
-0.0906486
0.0122529
-0.047876
0.0303788
-0.319217
0.596444
-0.277227
0.0561731
0.0226967
-0.0788698
-0.403614
0.20002
0.382115
0.0805873
-0.462702
-0.103508
0.320754
-0.060673
0.0119847
-0.113763
0.0345072
0.0758906
-0.109785
0.0338943
0.216614
-0.0407156
-0.175899
0.023159
0.195626
-0.218785
-0.000648677
-0.134681
0.105983
-0.0515765
0.285108
0.258866
-0.543973
-0.15279
-0.0217556
0.174545
-0.0110573
0.0473726
-0.0363153
-0.044594
0.00312067
-0.00799468
0.0781631
-0.0701684
-0.0572863
0.046229
0.649789
-0.378304
-0.271485
-0.0227748
0.198456
-0.175682
-0.0348392
-0.00556587
0.0404051
-0.644131
0.231913
-0.103059
0.0460947
0.0569644
0.0131704
-0.365358
0.303504
0.0618535
-0.264685
0.181065
0.172
0.0161274
-0.0398979
0.00505866
0.171162
-0.651198
0.0271533
0.149207
-0.17636
-0.108749
0.109021
-0.000271712
-0.0564008
-0.013252
0.0696528
-0.545495
0.48493
-0.273416
-0.211515
-0.00743382
0.110608
-0.103174
0.451359
-0.266628
-0.184731
0.117976
-0.12332
0.0053436
0.049707
-0.0452775
-0.00442944
-0.0188076
0.115858
-0.503535
0.242808
0.0464227
-0.0327318
-0.0136908
-0.0858911
0.0230585
0.0628326
-0.09669
0.0240683
0.27499
0.176369
0.0608233
0.0177629
-0.0785861
0.000611173
0.117365
-0.0393454
0.0462509
-0.00690552
0.143275
0.204328
-0.576624
-0.305385
-0.19815
-0.0715617
-0.155716
-0.48423
0.262543
-0.000461825
0.0943558
0.151458
0.109454
0.0686754
-0.0503981
-0.0182772
0.288299
-0.450966
0.162667
0.0221811
-0.114642
0.0924609
-0.042026
0.00268062
0.363412
-0.16882
-0.194593
0.437851
-0.211695
-0.0856086
0.0776139
-0.015913
-0.0393103
0.0552233
-0.0819215
0.109235
-0.0273138
0.0452187
-0.0597083
0.0144896
-0.295676
-0.241909
0.537584
-0.274735
-0.274852
-0.0443341
0.0208838
-0.327313
-0.341126
0.366514
-0.618052
0.251538
0.113114
-0.309453
0.196339
-0.043367
0.00731042
-0.0664701
-0.0472932
-0.0517332
0.0629127
-0.0111794
-0.337453
0.225183
0.0641996
-0.0826069
0.0851788
-0.0230113
0.0815517
-0.518021
-0.00302393
0.116276
-0.0268817
0.102772
0.445692
-0.157393
-0.177954
0.463062
-0.206244
0.0162071
-0.00519958
-0.10355
0.0417416
-0.0989049
0.0571633
-0.177907
-0.0283369
0.0556073
0.0130681
0.18417
-0.349678
0.165507
0.0579833
-0.00133885
-0.360565
0.269373
0.0911918
0.0262678
-0.0936371
0.0630272
-0.0304769
0.223478
-0.464146
0.0731544
-0.15261
0.145297
0.00731279
-0.345718
-0.298413
-0.142159
0.00364835
0.138511
0.0907943
-0.0490526
-0.238282
-0.127075
-0.371828
0.177784
0.194045
0.325975
-0.202945
-0.12303
0.323367
0.142256
-0.465624
-0.159358
-0.212338
0.235497
0.0413877
0.0255846
-0.0148375
0.160984
-0.0657017
-0.0201895
-0.507156
0.231668
-0.0131614
-0.0724471
0.0874405
-0.0497333
0.00208208
-0.0817771
0.103958
-0.0101529
-0.0529974
0.0631503
-0.0285548
0.0556664
-0.0271116
0.292591
0.304424
-0.0238965
-0.0292573
0.0531538
-0.234017
0.218588
0.0154291
0.366606
-0.204168
-0.199154
-0.175905
-0.200148
0.177373
-0.49986
0.29768
-0.0679734
0.197609
-0.037618
-0.00400846
0.034194
0.0122287
0.0409912
-0.0391173
0.159498
-0.131462
-0.388777
0.308511
-0.185993
-0.0364439
0.222437
0.318019
-0.192451
-0.125568
0.00365078
0.159114
0.0275167
0.0550674
-0.0825841
-0.456279
0.170094
-0.122834
0.1154
-0.0655539
0.0812559
0.0403779
-0.0423657
0.00198778
0.372355
0.257225
-0.62958
-0.218251
-0.237346
0.455598
0.319311
-0.484313
0.165002
-0.483096
-0.202896
0.387066
0.397978
0.0483824
-0.0855834
0.037201
0.606055
-0.333443
-0.272611
0.0169956
-0.222091
0.489725
-0.267634
-0.0166943
0.0671676
-0.0504733
-0.0130472
-0.0428724
-0.0261229
-0.194098
0.211452
-0.0173549
0.0688469
-0.0602362
0.0143089
0.216494
0.164462
0.00797497
-0.467517
0.245426
0.15805
-0.138591
-0.0194582
-0.102282
-0.113758
0.21604
0.0135378
-0.0593787
0.045841
-0.02285
0.0680687
0.035303
-0.0418891
0.00658605
-0.0666936
0.119182
0.314154
-0.191817
-0.122337
-0.0491049
0.158848
-0.562332
0.0109466
0.551385
-0.0175887
0.403954
-0.0622884
0.034791
0.0274974
-0.0194574
0.111037
-0.112294
0.0365794
-0.0926122
0.155236
0.0290161
-0.375724
-0.125542
0.501266
-0.139307
-0.00285205
-0.377966
0.178812
0.0703152
0.0488749
-0.11919
-0.175051
0.0172662
0.157785
-0.1714
-0.0317352
-0.0079249
-0.130251
0.127837
0.00241381
0.233988
-0.529664
0.00544012
0.287024
0.0666057
-0.13726
0.129758
0.00750248
0.48299
0.198799
0.0628726
0.0438019
-0.160052
-0.00762469
0.0480026
-0.0555396
0.070969
-0.0154294
-0.203565
0.150406
0.0531593
-0.162971
-0.197594
0.135522
0.182497
0.596209
-0.336171
-0.260037
0.211743
0.31995
-0.531692
-0.0246638
0.0690016
-0.267179
0.198177
0.154993
0.0356075
-0.2216
0.250491
0.158192
-0.145974
-0.0122175
-0.0525322
-0.0868241
0.0736627
0.100235
0.0090029
-0.109238
0.00685169
-0.184651
0.404655
-0.220004
-0.0516173
-0.151948
-0.593547
0.225284
0.368262
0.094448
0.0806304
-0.000326109
-0.0372919
0.149125
0.692472
-0.327779
-0.364693
-0.0211718
-0.116088
0.0765368
0.0284234
-0.10496
-0.0528677
-0.0253747
0.0782424
-0.127243
-0.00300724
0.131888
-0.23417
-0.0509049
-0.012114
-0.0945714
-0.0291828
0.123754
0.541705
-0.0871006
-0.204941
-0.0766074
0.242878
-0.166271
0.22807
-0.413727
0.185657
-0.0738873
0.0221802
0.00751863
0.0109946
-0.0665342
-0.0912982
0.00510786
0.0847287
-0.0209348
-0.174031
-0.0055103
0.179541
0.0383765
-0.176713
0.200082
-0.0233688
-0.0559882
-0.0124666
0.0684548
-0.0237277
0.0577863
-0.55712
-0.000263799
0.557384
-0.018501
0.157026
-0.233633
0.0206359
0.248114
-0.0849526
-0.00844346
0.0468158
-0.0383723
0.246355
-0.0516271
-0.194728
-0.317363
0.609954
0.198816
0.134441
-0.0886959
-0.0464829
-0.0728794
0.0194272
0.010471
-0.490894
0.263189
0.227705
-0.02583
0.183617
-0.0283812
-0.121687
-0.00809591
-0.00828916
-0.0350778
-0.256135
-0.112074
0.368209
0.231601
-0.282933
-0.0653335
-0.0191616
-0.165086
-0.126499
-0.270589
0.174157
-0.427477
-0.107145
0.00264515
-0.423327
0.192421
0.230907
-0.00678987
0.0430649
-0.036275
-0.0223548
-0.0319852
0.0266876
-0.143068
0.116381
-0.0228568
0.0790299
0.0212798
0.2348
-0.178339
-0.0564612
-0.0566088
-0.0599108
0.11652
0.36604
0.0364621
-0.402502
-0.0545681
0.148521
0.0336869
-0.079079
0.0453922
0.56265
-0.301138
-0.261512
-0.0293525
-0.043251
0.0726035
0.586806
-0.261112
-0.180751
0.0141113
-0.56614
0.177363
0.0306588
-0.0341832
0.0986752
0.0168819
-0.115557
0.0254828
0.0523862
-0.077869
-0.0252747
0.0649254
-0.0396507
0.22257
-0.401498
0.178928
-0.0350033
0.120538
-0.0502228
0.040853
-0.0647496
-0.163551
-0.303966
0.0423812
-0.00707819
-0.0564486
0.0840589
-0.603409
0.227685
0.0166976
-0.138385
-0.0695963
0.0511901
0.0184062
0.0327007
-0.0995918
-0.374521
-0.189495
-0.404051
-0.163608
-0.0778634
-0.00761477
-0.173076
-0.00717002
-0.00918217
-0.142278
0.15146
0.099814
-0.113932
0.0141185
0.36938
-0.14131
-0.381836
0.203378
0.178458
-0.0138544
0.172871
-0.386868
-0.0309753
0.0896226
0.269556
-0.193534
-0.076022
-0.3104
0.554088
-0.243688
0.57092
-0.230787
-0.340132
0.413712
-0.191142
0.41409
-0.199698
-0.214392
0.0546278
-0.0955451
-0.24159
-0.265566
0.0206989
0.0807764
-0.101475
-0.20859
0.403529
-0.194939
-0.145118
-0.198064
-0.267784
-0.298356
0.0339757
0.0205233
0.381748
-0.461658
0.0799109
-0.0162944
0.112517
-0.177016
-0.194812
0.0250503
0.0113479
-0.119937
-0.00545234
0.125389
-0.0474162
0.00213866
-0.245443
0.352986
-0.107543
-0.0666175
0.0802092
0.0729688
-0.0502721
0.255839
-0.186838
-0.0533696
0.0425019
-0.0110284
-0.220173
-0.0116782
0.155194
-0.143515
-0.0150935
-0.0571332
0.0722267
0.0985468
0.00531796
-0.103865
-0.0482677
0.0618055
0.0724362
-0.0804223
0.00798615
-0.00922539
-0.0271727
-0.570646
0.251429
-0.196456
0.0224256
-0.360214
0.160591
0.199623
-0.100596
-0.0103736
-0.0589783
-0.0440808
0.22729
0.266404
-0.493695
0.111209
-0.317533
-0.285875
0.155216
-0.00543643
-0.149779
-0.249315
0.154485
0.0948302
-0.379331
0.123118
0.0567454
-0.0280338
0.0744578
0.034013
-0.0563678
-0.0170292
0.173585
-0.156556
-0.0436526
-0.00608071
-0.131701
0.043005
-0.116292
0.0776791
0.0386126
-0.0181028
0.085682
0.104007
-0.0274705
0.279652
0.0342393
-0.619296
0.219242
-0.112438
-0.0027062
-0.0279132
0.100722
-0.156502
-0.217623
0.374125
-0.0698313
0.0531369
0.207516
0.0241881
0.164208
-0.120973
-0.164007
0.161142
-0.143369
-0.0177732
-0.0385678
-0.018239
0.0568068
-0.021272
0.0798924
-0.0615357
-0.0210473
0.082583
-0.0375739
-0.0315011
0.0690749
-0.0743816
0.0171676
-0.0148912
0.0593125
-0.0444214
0.218163
-0.029241
-0.188922
-0.0803003
0.0235952
0.0567051
-0.501943
0.272045
0.229897
0.0120077
-0.567311
0.330333
0.236978
-0.0294523
-0.137257
-0.150035
0.00222963
0.0289377
0.193584
0.220506
0.0487217
-0.304857
0.0403861
-0.154046
0.11366
-0.00633356
0.0296618
-0.102641
0.103223
-0.0403502
0.082617
-0.0461035
-0.0365135
0.351609
-0.143708
-0.207901
0.584951
-0.303552
-0.30368
-0.132899
-0.105161
0.23806
0.0243448
-0.0417971
-0.0547534
0.0965505
-0.14565
-0.103666
0.0221424
0.224212
-0.207914
-0.197416
0.160102
0.0373141
-0.259295
-0.242647
0.0539024
0.0898215
-0.143724
-0.0576226
0.0700282
-0.0124056
-0.18141
-0.0307728
0.0587253
-0.0173376
0.0376789
0.163919
-0.201598
-0.0016198
-0.431862
0.433482
-0.0948057
0.0577916
0.0370142
-0.0131813
0.309991
-0.29681
-0.0324331
-0.28191
-0.311829
-0.179353
0.149901
-0.440182
0.220071
0.220111
-0.225785
0.0732061
-0.0383585
0.0808861
-0.0425276
0.414088
-0.195409
-0.21868
0.133662
-0.017911
-0.115751
-0.0814663
0.121852
0.264784
-0.48945
0.224667
-0.179467
-0.219006
0.398473
-0.386733
0.148451
-0.0514531
-0.00831211
-0.112756
-0.0488665
0.0609104
-0.24187
0.18096
-0.119965
0.124157
-0.0041922
-0.00803415
-0.126667
-0.147884
-0.351976
0.240799
0.00119298
0.154023
-0.0259629
-0.147167
-0.0569115
0.0351691
-0.0183222
0.135745
-0.0978334
0.395182
-0.187874
-0.207308
0.00287818
0.0763283
-0.0792065
0.307635
0.169396
-0.477031
-0.157353
0.168141
-0.010788
-0.0364603
0.182771
0.255953
-0.225415
0.398286
-0.00542796
0.110202
0.191448
0.0524945
0.22877
-0.110004
0.0694268
0.0405769
-0.197132
-0.189601
0.0772165
0.0585281
-0.00977854
-0.0416484
0.0514269
0.00177164
0.0480934
-0.0498651
-0.222393
-0.012249
0.234642
0.214939
-0.227415
0.292247
-0.0422196
-0.166794
0.209013
0.0154
-0.0718008
-0.202047
-0.20556
0.0217429
0.166922
0.144777
-0.289278
0.168305
0.0780444
-0.0196823
0.00663108
-0.156918
0.150287
0.382907
-0.187231
-0.195677
0.0583132
-0.0806386
-0.285612
-0.205281
-0.0484139
0.0198592
-0.108978
0.0519432
0.057035
-0.100485
0.261116
-0.227653
0.176036
-0.0560657
0.0476223
0.126257
-0.259156
-0.0550774
-0.0612143
-0.289056
-0.278256
0.0491793
0.0644251
-0.113604
0.113887
-0.013652
0.00534949
0.0944645
-0.0526877
-0.0328958
0.0621026
-0.114267
0.0521642
-0.397334
0.240832
0.205348
0.239937
-0.445285
-0.00844129
0.153879
-0.145438
-0.466626
0.375792
-0.259118
0.036725
0.121546
-0.163765
-0.0375219
-0.0247665
-0.064623
-0.0247035
0.0893265
0.129317
0.00434483
-0.134309
-0.201524
0.335833
0.03837
-0.0381589
-0.000211119
0.634063
-0.284954
-0.349109
0.303775
0.250521
-0.554296
-0.0719828
-0.225755
-0.0121009
-0.131461
-0.219824
0.203288
-0.244649
-0.178678
0.462899
-0.272363
-0.190536
-0.0535962
0.055585
-0.219193
-0.00443465
0.105742
-0.101307
0.2193
-0.195781
-0.145973
0.0446814
-0.0605944
-0.011749
-0.132913
0.144662
0.0460397
-0.0108811
-0.0351586
0.054284
0.028333
-0.0726118
0.0266041
0.0215018
-0.597759
0.281105
-0.223811
0.038549
0.185262
0.453801
-0.546838
0.0930369
0.0111128
-0.168466
0.523278
-0.311536
-0.0340123
-0.0759914
-0.0158496
-0.0666746
-0.280674
0.573779
-0.293105
0.0558034
-0.112412
-0.0595745
-0.0180412
0.185746
-0.167705
-0.0285001
-0.0265259
0.0689007
-0.332661
0.187543
-0.0718884
-0.449099
0.236273
0.212825
0.107111
-0.142042
0.0349307
0.0466738
-0.016015
-0.125782
-0.0504908
0.268158
0.2173
-0.0591844
0.209244
-0.150059
-0.183175
-0.0406368
0.403333
0.23073
-0.393381
0.564543
-0.071475
0.0138524
-0.0452616
0.0125298
0.0435561
-0.189939
0.146382
-0.388057
0.193751
0.219961
-0.0241842
0.331819
0.203203
-0.371193
0.110172
-0.0488047
-0.0613678
0.338903
-0.171981
0.0329798
0.0248586
0.148869
0.0122727
0.0542629
0.0704582
-0.0483396
-0.0221186
-0.280055
-0.198668
0.149432
-0.180433
0.0310009
-0.244251
-0.0668688
0.31112
0.273923
-0.301146
-0.0209688
0.0591318
-0.038163
0.0513667
-0.049595
-0.0253526
0.132464
0.0249912
0.0711214
-0.0961126
0.0730273
-0.114824
0.0441484
-0.00819839
-0.03595
-0.0834908
0.402802
0.13474
-0.0808381
-0.361331
-0.0463463
-0.0232501
0.201353
-0.184087
-0.127508
-0.0844391
0.0663363
-0.11195
-0.0247978
-0.0162684
-0.0386797
-0.286159
0.121073
-0.0346225
0.097321
0.257812
-0.0132794
-0.0408141
0.0540935
0.0701852
0.00366759
0.270255
-0.0397924
0.0111374
-0.17599
0.163023
-0.316429
0.153406
-0.0128033
0.0808363
-0.0823227
0.0176997
-0.204053
0.108575
-0.0593957
-0.2606
0.448804
0.380128
-0.120989
0.101531
-0.037219
-0.0575868
-0.093466
-0.0248865
-0.0162197
-0.0444428
0.0606625
-0.0540761
-0.0549021
-0.0338196
-0.272764
0.306583
0.0327948
-0.0363615
0.00356671
-0.0511255
-0.182892
-0.194772
-0.236333
0.431104
-0.0800929
0.058821
0.0840331
-0.0450338
-0.0389993
0.0415841
-0.261408
0.103383
-0.348826
-0.0266002
0.0577736
-0.0311734
0.156621
-0.029026
-0.127595
0.339246
-0.308564
-0.030682
-0.229894
-0.304297
-0.112663
0.121666
-0.0184102
0.152024
0.169479
-0.125923
-0.0383511
-0.0228255
0.194161
-0.587542
0.249913
0.192249
0.0773069
0.0405962
0.138902
-0.179498
-0.272993
-0.225399
0.498392
0.0530041
-0.063157
0.519875
-0.153361
-0.171013
0.153984
0.272649
-0.28583
0.0339907
-0.209585
0.175594
-0.0549061