/*--------------------------------*- C++ -*----------------------------------*\
| =========                 |                                                 |
| \\      /  F ield         | OpenFOAM: The Open Source CFD Toolbox           |
|  \\    /   O peration     | Version:  v2012                                 |
|   \\  /    A nd           | Website:  www.openfoam.com                      |
|    \\/     M anipulation  |                                                 |
\*---------------------------------------------------------------------------*/
FoamFile
{
    version     2.0;
    format      ascii;
    class       volScalarField;
    location    "150";
    object      epsilon;
}
// * * * * * * * * * * * * * * * * * * * * * * * * * * * * * * * * * * * * * //

dimensions      [0 2 -3 0 0 0 0];


internalField   nonuniform List<scalar> 
13726
(
9.04835e-07
0.00797241
1.57058e-06
1.06561e-06
5.57203e-06
8.58894e-07
9.43344e-07
9.73855e-07
5.78454e-06
2.09506e-06
5.72732e-06
5.29852e-07
6.71356e-07
0.00765677
1.05618e-06
8.74212e-07
5.13959e-06
1.31504e-06
0.012469
2.13293e-05
0.0120585
4.50682e-07
1.21756e-06
1.5781e-06
4.93877e-07
4.22639e-07
1.64943e-06
4.21285e-07
4.97437e-07
0.0102861
0.0167694
4.33353e-07
0.0103386
1.53463e-06
7.45171e-05
0.00658289
1.6766e-06
0.00755982
1.10409e-06
1.26923e-06
0.000123852
5.9288e-05
1.66645e-06
1.05055e-06
9.30668e-07
1.37707e-06
8.616e-05
5.09804e-07
2.56263e-06
5.71637e-07
0.0045159
5.11434e-07
7.72687e-07
1.30924e-06
1.61359e-06
2.01968e-06
6.72693e-07
8.69637e-07
1.84803e-06
1.60348e-06
0.00351308
1.04442e-06
0.00687345
4.4765e-07
0.0100109
4.31978e-07
0.0114029
0.00991387
5.17621e-07
5.69761e-06
7.56316e-05
9.63842e-07
9.99075e-07
1.67183e-06
0.0121374
0.00396266
5.84234e-06
0.00659305
0.0115764
3.11671e-06
5.17285e-06
2.39821e-06
3.2079e-06
8.05824e-07
1.10304e-06
0.00634069
3.70747e-06
1.4968e-06
6.15667e-07
0.011535
1.425e-06
5.80869e-06
1.38557e-06
1.60133e-06
0.00344674
0.00980033
1.91453e-06
5.28898e-07
1.16316e-06
0.000899584
1.43567e-06
2.11012e-06
1.12782e-06
6.93768e-07
3.0004e-06
5.12613e-06
3.19752e-06
7.89476e-07
1.27434e-06
1.89791e-06
2.56836e-06
6.78148e-07
0.0169866
0.0059312
0.00525482
1.12979e-06
0.000215797
0.0197417
1.12985e-06
1.57292e-06
0.0261896
9.76661e-07
1.5445e-06
0.0122598
0.0161226
0.00729792
1.1601e-06
7.51932e-07
6.79516e-07
1.16425e-06
0.00349691
0.00853865
1.16382e-06
2.50594e-06
0.00465493
5.47114e-06
0.00894954
0.000136312
0.000952679
0.00248989
2.79322e-06
0.00477788
8.54431e-07
5.06842e-07
8.61272e-07
1.68782e-06
0.0111287
1.72432e-06
1.50424e-06
0.0119111
1.16582e-06
9.00075e-07
2.50218e-06
1.71818e-06
5.16738e-07
1.50253e-06
1.72147e-06
0.000135252
0.00330378
4.93849e-07
6.05535e-07
7.0614e-07
0.00672264
0.00849654
4.24204e-07
3.63396e-06
0.00244653
9.40383e-07
1.43316e-06
6.00832e-07
1.15069e-06
1.48631e-06
0.000245557
1.59027e-06
0.00712124
4.68688e-05
5.16272e-07
0.0162587
0.0162267
8.13726e-07
0.0139031
1.56032e-06
0.00721547
0.00196591
5.1106e-07
8.5213e-07
8.14237e-07
1.42731e-06
1.20934e-06
1.73258e-06
0.00574921
3.65925e-05
0.00954513
0.00924205
9.60099e-07
4.27371e-07
1.12044e-06
0.0048795
4.61456e-05
2.16434e-06
0.00947571
0.000144487
0.00888633
1.50543e-06
7.82939e-07
9.01084e-07
1.37259e-06
0.00355583
1.63245e-06
2.68143e-06
5.78892e-06
0.00368462
0.00979712
4.15752e-07
0.00721859
0.0116294
1.57631e-06
1.62869e-06
1.3517e-06
0.0116185
1.65911e-06
2.04897e-06
5.50907e-05
0.00670757
7.76462e-07
0.00527949
0.0124819
0.00738821
0.0102839
1.42556e-06
0.00464244
0.0083654
0.0133996
0.00691844
1.65335e-06
1.57076e-06
0.002967
0.0201139
0.000248414
0.0108168
6.8873e-07
1.26535e-06
7.96395e-07
0.0103334
0.000109705
0.009576
1.858e-06
1.63972e-06
5.23403e-07
4.34985e-06
0.0167998
1.66286e-06
0.0108442
1.64942e-06
2.28155e-06
2.40149e-05
1.53949e-06
0.0140814
0.00818947
1.64313e-06
2.15904e-05
0.00283608
1.93429e-06
5.30956e-07
0.0043344
0.0176261
8.91145e-07
1.55686e-06
5.04763e-07
2.11491e-06
6.42499e-05
1.63733e-06
0.0177325
1.48209e-06
0.0050647
0.00378288
0.0126694
0.000410545
1.60418e-06
4.3798e-07
0.00263106
1.60084e-06
0.0075764
1.62404e-06
0.00916316
8.67809e-07
0.00693919
0.000241413
1.65377e-06
4.32501e-07
0.00743078
1.63055e-06
4.15796e-07
0.00803853
0.00369781
1.68197e-06
5.6293e-06
9.11121e-07
0.00957821
6.3376e-07
0.000201869
0.00755764
3.09755e-06
1.33633e-06
6.65227e-07
0.00260413
0.0021331
0.0143786
0.00336694
1.81481e-06
0.0118274
1.238e-05
0.0170501
0.0158511
1.01813e-06
0.000127888
7.80663e-07
0.00649265
0.0108885
0.0039523
0.0084681
1.14717e-05
1.5686e-06
9.87168e-07
2.07712e-06
1.64579e-06
1.32775e-06
0.00260504
1.56061e-06
0.00665776
1.03288e-06
0.00857064
1.14541e-06
1.63543e-06
3.23897e-06
1.49337e-06
1.10241e-06
1.81179e-06
9.07566e-07
2.70682e-06
0.000467408
0.00955058
0.00752016
0.00693925
0.00278992
3.1699e-06
1.65567e-06
2.04124e-06
2.96793e-05
1.14002e-06
0.00471086
0.00953333
0.0114549
4.46127e-07
1.49052e-06
1.43108e-06
9.89508e-07
0.00246216
1.67631e-06
1.65796e-06
1.27009e-06
2.0333e-06
0.000956336
9.96355e-07
1.87487e-06
0.0139288
0.0184838
1.20191e-06
9.38928e-07
9.90723e-07
1.13182e-05
6.60081e-07
4.44411e-07
1.34944e-06
0.000119079
9.41305e-07
4.87506e-07
0.0166784
1.92336e-06
3.18196e-06
7.78806e-07
7.36004e-07
1.15767e-06
0.00779723
0.016444
0.0172709
0.0128362
2.05721e-06
1.08615e-06
1.56661e-06
8.90144e-07
1.51257e-06
1.43214e-06
9.73745e-07
8.36296e-07
1.61083e-06
0.0109685
0.0077533
1.91599e-06
1.66898e-06
8.8723e-07
1.17277e-06
1.47895e-06
2.61532e-06
1.61451e-06
2.06255e-06
1.60393e-06
1.17617e-06
0.0146104
0.000374895
0.00308095
1.51352e-06
0.0093657
0.0116098
3.67724e-05
1.3769e-06
0.00993457
0.00209371
0.00718275
0.00430138
0.0114781
8.74338e-05
4.17611e-07
3.33115e-06
0.00575588
7.12458e-07
0.0067363
1.14378e-06
1.48081e-06
2.77917e-06
0.0167376
0.0156
0.010867
0.0151287
1.75978e-06
5.76574e-07
1.01106e-06
7.14362e-07
1.70329e-06
3.45419e-06
1.07801e-06
0.00465126
5.74671e-07
0.00930931
2.19166e-05
9.5096e-07
0.0044098
5.09329e-07
4.28966e-07
6.83366e-06
7.00025e-07
0.00469142
0.00442223
5.30865e-07
0.0060766
8.31107e-07
0.0110723
0.00558155
6.80935e-07
1.70683e-06
1.89833e-06
0.0104405
1.85434e-06
0.00474893
7.0555e-06
1.76617e-06
0.010915
0.00607902
8.16577e-07
0.0167293
2.34057e-06
6.71208e-07
8.99206e-07
8.98018e-07
0.0132889
5.10096e-07
0.000177698
4.50423e-05
0.00371497
1.7672e-06
0.000127282
6.1081e-07
4.22977e-07
0.00373669
4.16114e-07
6.95619e-07
7.64748e-07
8.9971e-07
0.00735477
0.0135947
1.50462e-06
3.72172e-06
7.41765e-07
0.00811075
0.00789762
1.49422e-06
1.66565e-06
0.0105893
0.00749919
1.41169e-06
6.33202e-07
0.000145411
7.08584e-07
3.00679e-06
1.36814e-06
1.11727e-06
0.00373753
0.0025398
6.03174e-07
1.13964e-06
1.61652e-06
0.00657071
6.75988e-07
1.98095e-06
4.21734e-07
0.00433203
4.69172e-06
1.26186e-06
1.48728e-06
1.62328e-06
1.17255e-06
2.78054e-06
0.00525983
0.000153386
2.96107e-06
3.35095e-06
0.00633815
3.16429e-06
4.16909e-07
0.000110244
2.59062e-06
2.10826e-06
0.00538787
1.59988e-06
0.0168143
1.14115e-06
4.91279e-07
0.00351026
1.91767e-06
1.67013e-06
0.00293474
6.51037e-07
6.10261e-07
1.5961e-06
6.6926e-06
0.0055364
1.89783e-06
9.58389e-07
3.15547e-05
1.45095e-06
1.27486e-06
0.00014698
9.3319e-07
0.00457386
1.62819e-06
1.21952e-06
7.89545e-07
0.00610362
0.00817163
0.00498338
0.000744795
1.12831e-06
0.0100011
1.38663e-06
0.0155695
1.69956e-05
1.74864e-06
1.19198e-06
0.00949585
2.31663e-06
0.0130991
5.14393e-07
6.00793e-07
0.0104676
1.37967e-06
0.00412462
1.22411e-06
1.71758e-06
3.0841e-06
3.51462e-06
0.00932416
0.00748617
9.32967e-07
7.92551e-07
0.000479132
1.35382e-06
0.0128655
0.000128892
5.15037e-07
0.00410863
9.85637e-07
2.45112e-06
9.07075e-07
1.69412e-06
0.00379497
1.26642e-06
0.0128662
1.51505e-06
2.66849e-05
0.00499591
1.45936e-06
1.43375e-06
1.11292e-06
9.42545e-07
8.31687e-07
0.00761447
0.0175911
0.000607996
1.44138e-06
0.000460625
0.00520144
0.0132536
1.79987e-06
0.00257167
0.00481077
1.4948e-06
1.51082e-06
5.04507e-07
0.0109038
1.55665e-06
1.55172e-06
4.98287e-07
0.0100304
0.00996776
3.27508e-06
1.09747e-06
1.80055e-06
2.68927e-06
5.03764e-07
1.53151e-06
0.00580511
6.20193e-07
0.0112266
1.2528e-06
0.00704497
1.93152e-06
1.12223e-06
0.0106097
0.00834427
1.61081e-06
0.000332538
1.59944e-06
1.56788e-06
0.00286199
3.95987e-06
0.0127094
1.66947e-06
6.32545e-06
0.00366522
1.70561e-06
5.70278e-06
1.83625e-06
0.00956259
4.61364e-07
0.000574032
1.12222e-06
1.5643e-06
1.4106e-06
0.00442383
4.60404e-07
1.46842e-06
9.08714e-07
0.000481509
0.00031074
2.09076e-06
5.99427e-07
7.93405e-07
0.00596283
0.00606229
7.60005e-07
0.00622977
5.64116e-06
0.0104596
0.00410304
5.86766e-06
2.4932e-06
7.69657e-05
6.65227e-07
1.24786e-06
0.0118693
1.4803e-06
1.11769e-06
2.39354e-06
5.20808e-05
1.29245e-06
5.50203e-07
1.40266e-06
1.49002e-06
0.0173093
1.85156e-06
8.33255e-07
1.48382e-06
1.83162e-06
8.61165e-07
1.42077e-06
1.51727e-06
1.20955e-06
0.0177695
5.50397e-07
1.82127e-06
1.06607e-06
1.11581e-06
7.23602e-07
1.34388e-06
5.76741e-07
3.59897e-06
1.77309e-06
0.00808133
7.94177e-07
0.0104095
1.61718e-06
0.0117378
0.00622479
2.00822e-06
1.58544e-06
1.74042e-06
1.11228e-06
7.95586e-07
2.4807e-06
1.05231e-06
7.97078e-07
0.0172699
0.0175685
5.22414e-05
0.00643625
6.6359e-07
0.00913659
6.02318e-07
6.73405e-07
5.09193e-07
1.63513e-06
0.00907495
2.21475e-06
0.0149985
1.85308e-06
5.42933e-05
0.0151325
0.00013215
3.2836e-05
1.82383e-06
1.60724e-06
1.14155e-06
1.36012e-06
9.10949e-07
0.0135101
0.0108776
2.56527e-06
1.22191e-06
8.72815e-07
0.0165705
1.62085e-06
6.17225e-07
8.41541e-07
1.70563e-06
0.00692801
5.73668e-06
2.19509e-06
1.04895e-06
0.00252945
0.00410296
1.51669e-06
0.00268109
4.06062e-05
1.30165e-06
0.01393
0.00842998
0.00920429
5.55313e-07
2.07641e-06
0.00601522
1.47109e-06
0.00339183
7.91958e-07
2.5708e-06
8.184e-07
7.10658e-07
3.50553e-06
0.00647372
1.34646e-06
7.87538e-07
1.42861e-06
1.42849e-06
9.78194e-07
0.00692763
0.000291338
6.96242e-07
4.83927e-07
8.34607e-07
0.0116321
6.09635e-07
0.000796711
0.0110602
0.018733
0.00103054
0.00794672
0.0104507
0.0140932
1.41584e-06
1.14413e-06
0.011114
6.43213e-07
0.00716517
0.00660889
0.00505464
5.49025e-07
1.33746e-06
1.46574e-06
0.000268176
4.32824e-07
0.00632936
0.000533793
0.000144866
0.00925862
7.4048e-06
0.00795962
8.11993e-07
0.0156158
1.60046e-06
0.00498828
1.46357e-06
4.10002e-06
8.75462e-07
1.18579e-05
1.6619e-06
2.73278e-06
1.49546e-06
1.13956e-06
5.33506e-07
0.0115821
6.76676e-07
1.41216e-06
0.00783721
8.41853e-07
1.3965e-06
7.96783e-07
0.0100444
7.9811e-07
8.89337e-07
2.03975e-06
5.49492e-07
1.42581e-06
7.22573e-07
0.00730844
1.47225e-06
4.91762e-07
5.43128e-06
0.000923632
8.9493e-07
8.51937e-07
0.00879681
0.0086203
2.58048e-06
8.6456e-07
0.0108517
0.00983461
0.00296682
5.70564e-06
0.00703345
1.59412e-06
9.19424e-07
1.527e-06
4.87851e-07
1.10732e-06
0.00264471
1.99885e-06
0.00372436
5.35212e-07
3.01864e-06
7.77578e-07
1.86707e-06
0.00200851
0.00415363
9.68549e-07
1.60621e-06
2.83209e-06
6.12855e-07
7.10702e-07
5.35332e-07
0.0117812
0.00759433
1.62717e-06
7.21303e-07
1.50008e-06
8.62282e-07
0.00558303
1.45464e-06
1.13335e-06
0.00708868
1.80117e-06
3.70021e-06
1.35015e-06
0.0206272
0.000284816
1.5919e-06
1.55103e-06
0.00255531
0.000107603
1.58489e-06
0.00291898
0.00588911
0.00822536
0.0101595
0.010477
0.00336331
2.69919e-06
9.27968e-05
5.23812e-07
6.96787e-07
0.0111002
7.96252e-07
0.00479923
1.15172e-06
0.00281615
0.00781661
1.67927e-06
0.00870943
0.00968673
0.00220896
1.567e-06
9.40396e-07
6.61405e-07
3.73752e-06
0.00799799
6.0501e-07
0.0120463
1.79084e-06
0.00324226
3.18898e-06
1.28694e-06
0.000193673
8.19649e-07
0.000190552
1.59383e-06
8.42432e-07
8.87881e-07
0.00908125
2.6106e-06
1.58271e-06
0.0135909
1.3777e-06
0.000689445
1.47008e-06
0.000835001
0.0117291
0.0102593
1.01201e-06
5.23067e-07
2.21351e-06
1.14632e-06
0.0120086
0.00510717
5.08539e-07
1.48985e-06
3.42159e-06
0.00534948
1.96765e-05
1.18603e-06
0.000837899
9.50694e-07
1.12972e-06
0.0106472
0.00925481
0.00613962
1.34854e-06
0.0182581
2.30481e-06
0.0069461
3.95713e-06
0.00107663
0.0076193
1.8138e-06
0.000819182
0.00675526
0.012007
0.0083494
1.1181e-06
0.0105169
3.35942e-06
2.05571e-06
9.89438e-07
9.49511e-07
0.000365769
9.76242e-07
0.0185617
0.0062123
0.00914665
0.00920777
0.00728002
0.0140242
0.0112994
0.0096386
5.59662e-07
0.00041836
6.94833e-07
0.00746457
0.0040294
4.94218e-07
0.00282984
7.12651e-07
5.82827e-07
1.44609e-06
1.45866e-06
0.0177639
0.00222491
1.12554e-06
1.10066e-06
0.000198664
0.00746463
1.79841e-06
3.31778e-06
0.000727751
1.54389e-06
1.69746e-06
5.58673e-07
0.00334122
9.4129e-07
1.19624e-06
0.000277794
1.69315e-06
0.0168601
0.00763612
1.52862e-06
0.0105132
1.68087e-06
0.0110586
0.00759188
0.00714121
1.56489e-06
0.000199943
1.55395e-06
0.00974711
8.91389e-07
2.56212e-06
8.75177e-07
6.65204e-07
0.00405244
1.3626e-06
1.22654e-06
0.000780064
1.90213e-06
6.04635e-07
0.00970751
9.88007e-07
8.43567e-07
0.000835467
0.0112547
1.23392e-06
0.00243344
1.17056e-06
0.0205503
1.45121e-06
1.45218e-06
1.18611e-06
5.24847e-07
1.28322e-06
0.000138143
0.00368789
6.02539e-07
0.007118
1.82122e-06
0.00295939
6.77885e-07
5.24999e-07
8.30359e-06
2.50228e-05
9.72309e-07
1.5708e-06
0.00321081
1.16373e-06
3.77251e-06
1.61064e-06
0.00714546
0.000182589
2.14916e-06
3.08112e-06
0.0120473
4.19255e-07
6.0102e-07
3.9323e-05
0.0122867
2.11803e-06
0.0100397
1.54799e-06
0.0101568
0.00852549
7.19613e-07
1.22538e-06
0.00559203
3.34088e-06
1.63382e-06
0.000273433
1.80781e-06
1.6288e-06
2.34788e-06
1.54608e-06
3.79876e-05
2.33125e-05
1.13506e-06
0.0191848
0.00330386
6.29709e-07
3.31498e-06
0.00313107
0.00698343
7.1973e-05
7.59702e-07
1.8135e-06
0.0163875
1.3124e-06
1.04915e-06
0.0119644
1.17566e-06
0.00269893
9.96455e-07
7.871e-07
0.0103056
1.04283e-05
0.000263269
2.82589e-06
1.67405e-06
6.88539e-07
0.010762
0.000731531
1.25512e-06
4.88966e-06
0.00504418
6.46672e-07
1.22567e-06
1.59569e-06
1.72566e-06
0.0106067
8.46303e-07
5.37262e-07
2.26661e-06
7.54277e-07
0.00931201
0.0177009
0.0139303
3.24706e-06
4.49691e-07
1.30267e-06
0.00892565
5.90335e-06
0.00704852
2.1653e-06
1.97999e-06
1.66843e-06
1.642e-06
1.48148e-06
3.50608e-05
0.0159948
1.48923e-06
0.00759894
0.0150344
4.89028e-07
0.00555668
0.00796995
0.00772091
0.000448304
4.1911e-07
0.000731061
1.85106e-05
0.00296955
8.37369e-07
1.83641e-06
0.0155456
1.44565e-06
1.36606e-06
0.0186978
2.57971e-06
0.00520162
0.0092049
2.71312e-06
0.00721584
0.0102648
9.47674e-07
0.00916694
0.000262209
1.10256e-06
1.1011e-06
0.00676495
1.5004e-06
1.65526e-06
5.54818e-07
1.42848e-06
0.0155722
8.74199e-07
4.39791e-06
0.000189634
5.65112e-05
1.17193e-06
1.64261e-06
0.0116131
4.50948e-07
8.82714e-07
1.4762e-06
1.42896e-06
1.23442e-06
0.0065066
1.64892e-06
1.43022e-06
0.00363467
1.21781e-06
0.014776
1.28275e-06
0.0171696
1.28347e-06
0.0120948
0.00090535
1.14345e-06
0.00359646
4.66251e-05
1.69019e-06
1.09318e-06
8.23108e-07
0.0072011
6.89402e-07
0.000274786
9.59573e-07
1.1039e-06
3.0605e-05
0.00803285
6.89578e-07
1.66685e-06
5.42137e-07
1.3731e-06
1.53648e-06
2.0461e-06
4.51158e-07
0.0147052
0.000661138
8.92501e-07
9.35333e-07
0.015731
0.00852718
1.56511e-06
4.88236e-07
0.0160023
0.00260174
0.0177611
2.01123e-06
1.55348e-06
0.000288988
2.12903e-06
0.00864811
0.0172043
8.96433e-07
1.28458e-06
0.00356589
3.14723e-06
8.73398e-07
0.0168487
0.00278587
0.0182344
5.32066e-07
1.96414e-06
1.79889e-06
1.07462e-06
1.58036e-06
0.000259145
2.02603e-06
6.74891e-07
0.00907456
1.45538e-06
5.29173e-07
2.04957e-06
0.000845519
9.41089e-07
0.016411
1.40738e-06
1.4651e-06
1.4709e-06
1.57536e-06
7.6868e-07
0.0117684
0.0108704
9.87708e-07
0.0045546
7.57618e-07
1.07672e-06
0.0017007
0.0141925
5.11802e-07
0.0120509
1.20955e-06
6.09326e-07
1.25503e-06
0.00700545
0.0038571
4.85647e-07
0.00874476
0.0117776
0.00500104
2.11946e-06
0.015554
0.0076784
1.75244e-06
0.000477757
8.499e-07
1.42476e-06
1.4111e-06
0.0133791
0.00878939
0.00629659
0.000475806
6.96691e-07
7.20353e-07
9.65613e-07
2.11456e-06
1.65892e-06
4.27408e-07
1.60868e-06
1.16829e-06
0.00390106
9.86578e-07
1.55531e-06
4.51416e-07
0.00277845
1.22343e-06
4.18911e-07
5.46101e-07
0.00506109
1.06415e-06
1.3151e-06
1.65601e-06
0.000155209
5.29179e-07
3.50562e-06
1.85451e-06
1.44013e-06
1.57991e-05
0.000414314
1.4763e-06
0.000202669
0.00922161
1.27385e-06
1.27064e-06
1.00554e-06
9.45218e-07
1.6564e-06
2.09009e-06
1.59424e-06
0.00755529
4.26523e-07
1.40303e-06
1.06125e-06
1.40719e-06
1.25945e-06
1.55909e-06
1.30001e-06
9.64842e-07
2.62446e-06
1.54495e-05
0.00304551
0.000104759
5.42316e-05
3.36461e-06
4.84176e-07
3.40359e-06
0.00625133
1.27743e-06
3.10602e-05
0.00204409
0.00711236
1.49117e-06
0.003986
1.66174e-06
0.000749038
1.02689e-06
6.66259e-07
1.48138e-06
1.7516e-06
0.00282196
2.03302e-06
0.00807986
0.00681748
0.0180819
1.06982e-06
4.96315e-07
1.41157e-06
0.016914
8.85969e-07
8.8223e-07
0.00641643
1.09557e-06
0.00948087
1.30515e-06
3.23331e-06
6.15026e-07
5.36725e-07
0.00394872
6.69175e-07
0.00279773
0.0203992
1.96667e-05
1.01233e-06
1.74115e-06
0.0131458
0.0052549
0.00203994
1.05505e-06
3.46812e-06
0.000651485
0.0172924
0.0189617
9.81437e-07
1.47236e-06
6.73716e-07
9.47505e-07
1.65788e-06
2.61604e-06
4.83391e-07
1.57571e-06
0.0132719
0.00921942
0.000260937
2.5691e-06
3.37623e-05
7.13658e-07
6.82981e-07
1.6825e-05
1.65558e-06
3.41161e-06
2.27892e-06
1.78489e-06
5.51031e-07
0.00206465
0.00950079
0.00519977
8.41114e-07
0.00992239
1.08775e-06
1.7907e-06
0.000466462
4.15829e-07
1.64854e-06
0.00365076
0.00152503
1.80282e-06
2.6166e-05
1.20156e-06
0.0100606
1.06027e-06
0.000422513
1.31455e-06
1.81549e-06
0.00905738
0.00670815
0.00750268
8.37346e-07
8.12872e-07
4.90022e-06
1.77733e-06
1.74997e-06
4.95498e-06
0.00716086
8.13171e-07
9.60271e-07
2.15217e-06
1.42161e-06
1.59882e-06
1.80489e-06
1.4503e-06
8.77261e-07
0.00503199
0.000135532
1.26044e-06
5.7929e-07
1.71869e-06
1.07064e-06
2.58326e-06
4.85083e-06
1.04136e-06
0.00290811
0.00378728
4.37486e-07
1.56748e-06
1.64784e-06
0.0135198
2.28837e-06
8.09355e-07
8.81855e-07
4.39806e-07
1.32391e-06
0.0158909
1.49711e-05
1.73889e-06
0.00897871
1.42943e-06
1.17199e-06
1.01412e-06
2.35557e-06
0.0110267
4.47244e-07
0.0151374
0.00685373
1.67915e-06
1.32978e-06
1.76651e-06
1.58207e-06
1.38628e-06
0.0150801
4.97426e-06
0.003191
1.52695e-06
6.6794e-07
0.00719436
0.0111481
0.00498261
0.000689156
2.75485e-06
7.11189e-07
0.00230108
0.00892017
4.91734e-07
0.0122436
0.0119458
8.50794e-07
3.86386e-06
1.41305e-06
6.59242e-07
1.13259e-06
4.54319e-07
1.31112e-05
0.00438254
9.30542e-07
4.5194e-07
0.0139262
3.34931e-05
0.000390021
0.00689632
0.00933228
1.60614e-06
1.78766e-06
1.26891e-06
4.65453e-07
8.52319e-07
4.31584e-07
0.00710981
2.52904e-06
9.98689e-07
0.00554294
4.74566e-07
5.31071e-05
1.06549e-06
0.00540835
0.000217644
1.5286e-06
1.00035e-06
0.0196166
0.0074172
0.00658305
0.00784552
8.67201e-05
0.0181849
2.64511e-06
0.00038221
0.00831855
8.01781e-07
1.0636e-06
0.00366011
6.90109e-07
1.43846e-06
7.95409e-07
9.28908e-07
1.91788e-06
0.0106851
1.2265e-06
9.11548e-07
2.29484e-06
1.64715e-06
0.0122291
0.000328629
1.01101e-06
0.000825645
3.00777e-06
0.000442252
1.05923e-06
0.00859347
2.08116e-06
0.011558
0.0146729
1.68355e-06
1.53879e-06
0.000261712
1.7789e-06
0.0122467
0.000388596
0.0118902
2.02089e-06
2.03561e-06
7.90062e-07
0.00574699
0.000356122
0.0113648
5.21566e-07
2.72375e-06
1.75158e-06
0.00812783
0.0024015
0.000456633
0.000401558
0.000137569
0.0138524
0.0106043
8.0291e-07
5.49838e-06
0.0130276
0.0144715
2.48389e-06
1.84256e-06
0.00713319
8.02383e-07
1.4982e-06
9.52883e-07
1.80488e-06
0.00301773
0.000311344
4.93208e-07
1.69715e-06
1.36171e-06
7.93974e-06
0.00990576
1.6517e-06
0.0035726
0.00312682
0.00366898
1.00053e-06
1.48163e-06
9.67907e-07
0.00390071
8.96888e-05
0.00919682
5.80401e-07
1.43277e-06
0.000500572
1.67057e-06
0.00808776
1.41264e-06
0.00813426
0.00741008
1.52027e-06
2.01822e-06
0.00793094
1.10857e-06
1.59413e-06
0.00365238
1.99779e-05
1.10568e-06
0.00986894
5.48945e-06
0.00688251
0.00578731
0.00494096
2.5716e-06
0.00376984
0.000475898
0.00745745
0.00444352
0.0102008
1.70032e-06
2.98208e-06
7.9956e-07
7.48131e-07
0.000824112
1.36492e-06
0.00277465
1.56335e-06
3.81915e-06
0.000199323
1.01526e-06
1.11585e-06
1.58918e-06
0.0143943
9.18713e-07
0.0104203
6.49032e-07
0.00985674
0.00809232
7.12919e-07
0.00227864
0.0100022
0.000299196
1.08896e-06
5.94851e-07
1.19774e-06
0.0106091
1.7785e-06
5.48256e-06
1.61958e-06
0.000183091
1.98808e-06
0.00716637
0.00526885
0.000454923
0.00183487
0.00220793
2.03738e-06
1.55522e-06
0.00476039
1.7025e-06
0.000901044
1.88473e-06
0.00252677
1.55761e-06
8.81366e-07
0.00882514
9.40485e-07
4.48389e-06
0.00745719
0.0175533
1.62066e-06
0.0145362
1.65997e-06
0.00957911
3.49285e-05
8.28383e-07
1.58514e-06
8.8146e-07
0.0142431
0.0117858
0.0095934
0.00354841
7.82711e-07
2.02139e-06
0.0167827
7.19452e-07
0.00904037
8.6558e-07
0.0160578
1.94226e-06
3.06782e-06
8.63085e-07
0.00473955
0.000442362
2.03375e-06
1.55373e-06
1.4787e-06
0.00384697
1.49417e-06
1.48269e-06
3.11249e-06
0.00228293
0.00233264
9.76093e-07
7.67364e-07
2.30538e-06
0.0159472
2.83602e-06
0.00658934
1.95236e-06
2.15968e-06
0.0151914
0.0143869
1.83481e-06
0.00707974
1.1741e-06
0.0114171
0.00696246
0.00713951
8.84752e-07
5.46709e-06
0.00219065
9.92524e-07
0.00945076
1.55927e-06
7.14287e-07
1.64947e-06
1.57793e-06
7.30553e-06
0.00318598
1.14983e-06
1.42964e-06
0.0073278
1.06742e-06
8.63892e-07
9.37494e-07
0.00863822
5.7569e-07
1.63269e-06
1.00801e-06
8.80907e-07
0.0076592
1.89762e-06
0.0100762
5.93211e-07
0.00143603
0.00808284
1.64192e-06
5.17249e-07
0.0111735
1.04607e-06
1.10513e-06
1.18118e-05
0.00223468
2.31717e-06
0.00521296
1.07032e-06
0.0032408
1.22846e-06
1.59573e-06
1.69655e-06
0.00290651
5.16179e-07
0.00198759
0.00796931
0.0141786
1.56336e-05
0.00271837
0.0022377
0.00493832
0.00273923
0.00708647
1.35482e-06
1.56699e-06
0.0107791
1.44341e-06
0.00526552
0.000223814
1.69123e-06
0.0106673
0.0142095
1.6683e-06
5.086e-07
0.00778764
0.00628714
5.39474e-07
0.0120166
1.55523e-06
6.57182e-07
0.000902029
0.0153972
8.71219e-07
2.05994e-06
1.56564e-06
0.0105137
1.4986e-06
0.00440526
0.000276249
1.80328e-06
5.0982e-07
1.78549e-06
0.0101827
5.85862e-07
9.50225e-07
0.00357324
5.73446e-07
1.75294e-06
0.0152298
9.50605e-07
0.00873379
1.38927e-06
1.47623e-06
0.00325113
1.62752e-06
0.0021543
0.00733345
0.0120422
1.43857e-06
0.00663202
0.0107913
1.37609e-06
6.6081e-07
0.000135563
1.79516e-06
1.34652e-06
3.9381e-06
0.00693719
1.35875e-06
0.0143088
0.00673811
0.00938282
0.00914575
1.54922e-06
1.14644e-06
1.13742e-06
5.54531e-07
0.00541907
1.54782e-06
0.00444924
1.09913e-06
0.0071796
8.53866e-07
8.95065e-06
0.000341828
1.64391e-06
0.00153305
2.74214e-06
2.22848e-06
0.00690303
0.0081304
1.508e-06
1.0689e-06
0.00393334
1.55667e-06
2.4277e-06
0.00806699
0.016381
0.0144411
0.00439384
0.00406349
1.98372e-06
0.0196415
0.0149489
0.0155752
1.35572e-06
0.000248767
1.44886e-06
1.06744e-06
0.00214593
0.00845283
0.00732579
6.21826e-07
6.34355e-07
1.79004e-06
5.88838e-07
9.55672e-07
1.72396e-06
9.2325e-07
4.42314e-07
8.28295e-07
0.0111996
0.0143564
0.00725234
1.47685e-06
0.00662817
0.0103724
1.85519e-06
7.67527e-05
4.55044e-07
1.29814e-06
1.14758e-06
3.79925e-06
0.0045621
2.41595e-06
9.278e-07
0.00684327
1.36999e-06
4.95643e-07
0.00512553
1.586e-06
0.00209732
1.21323e-06
0.0107556
0.00330255
0.00735008
1.47615e-06
1.43938e-06
7.94851e-07
1.75978e-06
6.93096e-07
1.38121e-06
0.0142182
1.81183e-06
0.00585311
1.32911e-05
4.61729e-06
3.39628e-06
0.0072159
0.00685289
7.50559e-07
1.20406e-06
1.68749e-06
6.45171e-05
0.00649909
1.61422e-06
0.00703562
1.03606e-06
6.82015e-07
1.96547e-05
0.014207
6.33982e-07
2.16016e-06
1.61477e-06
1.57729e-06
6.10835e-07
7.82852e-07
0.00307165
1.62751e-06
1.47607e-06
2.00778e-06
0.000512189
1.09503e-06
0.00479396
0.0148028
1.67977e-06
3.29903e-06
7.2243e-07
1.77743e-06
2.07998e-06
1.75939e-06
1.3794e-06
0.0113109
0.008606
0.00787273
0.0200333
1.39603e-06
1.46347e-06
3.42281e-06
0.00806742
0.00553163
0.00691411
5.60163e-07
0.000252636
0.00773131
0.00912276
0.0115938
1.00363e-06
1.41112e-06
0.00829629
0.000476495
1.24487e-06
8.84388e-07
1.5151e-06
0.0147933
5.46023e-07
1.51448e-06
0.0145329
2.3377e-06
1.60364e-06
0.00744826
2.02255e-06
1.82605e-06
2.02472e-06
0.00684029
0.00853032
0.0109739
0.0159725
0.00492736
0.00767988
0.0177467
6.49432e-07
0.0048358
9.24084e-07
0.013546
0.0102053
0.0078027
0.00699433
0.000568059
2.27002e-06
0.00518483
0.00398856
6.04426e-07
1.38402e-05
0.0134498
0.00728905
0.000485567
0.0121412
0.000435549
2.08431e-06
2.1675e-06
6.3326e-07
5.00028e-07
2.2112e-06
0.00657154
1.67257e-06
0.010741
1.07181e-06
6.7462e-06
1.44976e-06
2.99553e-06
1.38645e-06
0.00395741
0.0187617
1.81308e-06
0.00718286
8.79928e-06
0.00765895
0.0020895
0.0167811
1.3966e-06
1.05934e-06
1.89194e-06
0.0182312
2.95005e-06
0.00700087
1.72127e-06
9.94765e-07
9.36015e-06
0.013232
1.85137e-06
7.7388e-07
0.0151756
1.80544e-06
0.00458013
0.000256202
1.34965e-06
0.000538633
0.0120836
7.75511e-07
0.0122339
0.00770484
0.0079325
0.00621009
2.02903e-06
0.0191623
2.24547e-06
1.81881e-06
4.66197e-06
6.24965e-07
9.87141e-06
0.00748287
4.73516e-06
6.60786e-06
0.00630697
3.60475e-06
8.03994e-07
2.11073e-06
5.42324e-06
1.13089e-06
0.00756239
9.84412e-07
4.07201e-06
0.0111338
0.00776579
0.00801241
0.00248824
0.0159957
1.1357e-06
5.231e-06
0.011658
0.0138936
7.82778e-07
5.06045e-07
0.00711712
5.01648e-07
8.53861e-07
4.41728e-06
2.362e-06
0.0202894
8.17374e-07
0.00586595
6.80417e-06
0.00441975
4.47632e-06
1.68594e-06
3.29111e-06
9.27543e-07
1.46365e-06
0.00874705
1.44722e-06
0.0136069
0.0068427
9.58895e-07
1.53804e-06
0.00513131
5.29803e-06
2.96148e-06
6.94737e-06
2.15806e-06
0.00772955
4.55976e-06
0.00925864
0.00729955
0.00313852
0.00796361
0.0101972
0.000970144
0.00738017
0.00653185
1.68737e-06
1.59994e-06
4.32677e-06
0.0113401
4.48828e-06
0.0141427
0.00631133
1.61607e-06
1.70954e-06
0.000141505
0.00276451
0.00499762
8.89667e-05
0.0179862
1.74896e-06
1.57585e-06
1.54435e-06
0.000792956
2.68179e-06
0.00867256
1.12276e-06
0.0166759
0.00988201
9.36067e-07
1.53733e-06
0.000230271
3.93287e-06
0.00712466
1.50854e-06
1.72831e-06
4.97371e-07
1.7776e-06
7.74963e-07
0.00777546
1.14426e-06
0.00405811
1.70411e-06
0.00823221
5.50032e-07
5.67945e-06
1.71878e-06
3.77421e-06
1.29255e-06
0.00659448
2.77219e-06
6.39814e-05
1.8589e-05
0.000286677
0.0188257
4.64713e-06
0.0148314
0.00998611
0.0131521
0.00248906
1.03637e-05
7.13192e-07
9.63078e-07
6.51442e-06
2.72793e-06
1.14584e-06
0.00011163
0.0123061
3.77366e-06
0.0101079
0.00022935
7.13161e-07
1.84313e-06
0.0086705
1.80115e-06
0.0196345
0.00409015
9.94872e-07
0.00831569
0.00645267
2.27273e-06
5.51599e-06
1.43204e-05
0.00704757
1.57174e-06
0.00751757
0.00816381
1.11318e-06
0.00782463
0.0030695
4.29955e-06
0.013077
1.29001e-06
0.0061069
0.000270714
4.68674e-06
0.00507843
1.47782e-06
5.50962e-07
3.35247e-06
9.01643e-06
0.00623456
0.000566583
0.00737252
9.66144e-07
5.70011e-07
0.00881789
0.00516059
0.0162353
2.24197e-06
0.00586707
1.80429e-06
4.73717e-07
0.013847
7.53926e-06
0.0134827
3.06387e-06
1.8265e-06
1.82344e-06
0.00954134
4.64744e-06
0.00499733
0.00654163
0.00466955
0.0149645
0.0145907
5.9925e-05
0.0065096
6.86664e-05
0.0096793
2.8076e-06
1.42661e-05
7.22167e-07
1.65154e-06
1.3195e-05
4.62658e-06
8.13429e-07
0.0184083
0.0207499
0.0168071
1.85237e-05
1.79108e-06
0.00376266
1.181e-05
0.00752541
1.75302e-06
0.00764381
4.33829e-05
1.7168e-05
5.68319e-06
0.00780287
3.41019e-06
5.31757e-07
1.66098e-06
0.0080695
2.28882e-06
6.48771e-07
3.05433e-06
1.00727e-05
1.61849e-06
1.56742e-06
0.00774449
0.0101966
1.87027e-06
1.80221e-06
3.17176e-06
1.19512e-06
0.0110468
0.00728629
1.17938e-06
0.0192401
5.01689e-07
1.61316e-06
0.00422882
1.78325e-06
1.81741e-06
2.35179e-06
0.0019267
0.00600961
0.00977221
1.63602e-06
0.0182557
1.59541e-06
1.77257e-06
6.99786e-06
0.00809855
2.3683e-06
0.00886862
0.000385773
0.00043791
2.90183e-06
0.00778362
0.00570817
0.000281901
2.24888e-06
0.0177975
3.28664e-06
1.69546e-06
7.19968e-06
2.55426e-06
4.93594e-07
3.13276e-06
3.24541e-06
1.20018e-06
2.17599e-06
2.72048e-06
1.81299e-06
4.93537e-06
6.96391e-07
7.94428e-07
0.000205589
1.09829e-06
2.96898e-06
0.000482931
1.58659e-06
8.01637e-07
1.84793e-06
0.0112402
0.0139507
0.0021274
2.13865e-06
1.83163e-06
0.00628577
1.44598e-06
0.00457
3.29252e-06
0.000455718
1.31291e-05
0.0191992
1.77903e-06
0.000544519
8.5487e-07
1.47426e-06
0.00835024
0.00810475
0.0186777
1.77765e-06
0.0154189
0.00826431
0.0147345
4.88405e-06
2.57022e-06
1.14853e-06
0.00963237
6.24683e-05
1.86526e-06
6.77862e-07
2.30779e-05
0.0144027
5.8735e-07
0.00462898
2.38908e-06
1.45911e-06
1.6432e-06
1.54718e-06
0.010527
0.00737817
0.00799356
1.31941e-06
1.14101e-06
2.72359e-06
1.14449e-06
0.0126304
5.67159e-07
0.0198111
2.25015e-06
0.0129072
2.62864e-06
0.00787981
0.00831126
0.00586932
0.00563863
0.0172177
7.93394e-07
0.000435408
1.73981e-06
7.16459e-07
0.0064526
2.02684e-06
7.185e-07
8.08946e-07
1.64254e-06
0.000726196
0.00240583
1.59849e-06
1.58638e-06
1.74583e-06
2.50195e-06
1.57597e-06
0.00827802
0.00213789
1.52877e-06
1.76728e-06
0.00534012
0.00719971
2.60596e-06
0.0100261
0.00741576
0.000579049
0.00573463
1.76308e-06
1.50953e-06
0.0105023
1.41317e-06
1.48515e-06
0.0110667
6.53427e-07
2.44926e-06
1.95039e-06
1.37192e-06
0.0197534
1.79955e-06
2.04949e-06
1.06204e-06
7.1238e-07
1.79211e-06
0.00224163
5.93797e-07
1.91767e-06
1.81035e-06
0.0079416
6.65294e-07
1.72836e-06
2.97408e-06
1.43454e-06
2.29874e-06
0.0148821
0.0116113
1.33094e-06
1.66889e-06
1.62203e-06
0.0085795
0.0151217
0.00414167
1.31275e-06
1.59703e-06
8.73689e-07
0.00507488
1.31948e-06
5.48101e-06
2.03464e-06
0.000210957
0.0206521
3.06712e-06
2.00818e-06
4.08864e-06
0.000682948
0.00544379
3.05166e-05
1.48422e-06
1.10846e-06
1.99548e-06
0.00349998
0.000220265
1.53344e-06
0.00540723
0.0021184
1.60029e-06
0.00209932
6.19999e-07
0.021023
0.00577269
8.74395e-07
0.015742
0.0150962
1.57016e-06
1.43413e-05
1.57501e-06
0.000480181
0.00284223
1.70047e-06
7.14435e-07
0.0108063
6.38128e-07
0.0017314
6.29944e-05
0.0148057
0.0106668
0.00266527
1.52749e-06
1.78272e-06
0.0101727
7.13725e-07
9.66632e-06
0.00993368
0.00186844
6.74285e-07
1.41462e-06
1.75114e-06
1.39043e-06
4.64242e-06
0.0118823
1.57909e-06
1.36398e-06
0.00818372
0.00478555