/*--------------------------------*- C++ -*----------------------------------*\
| =========                 |                                                 |
| \\      /  F ield         | OpenFOAM: The Open Source CFD Toolbox           |
|  \\    /   O peration     | Version:  v2012                                 |
|   \\  /    A nd           | Website:  www.openfoam.com                      |
|    \\/     M anipulation  |                                                 |
\*---------------------------------------------------------------------------*/
FoamFile
{
    version     2.0;
    format      ascii;
    class       volScalarField;
    location    "150";
    object      epsilon_0;
}
// * * * * * * * * * * * * * * * * * * * * * * * * * * * * * * * * * * * * * //

dimensions      [0 2 -3 0 0 0 0];


internalField   nonuniform List<scalar> 
13726
(
9.04846e-07
0.0079726
1.57058e-06
1.06561e-06
5.57173e-06
8.5889e-07
9.43341e-07
9.73853e-07
5.78455e-06
2.09507e-06
5.72777e-06
5.29853e-07
6.71358e-07
0.00765704
1.05618e-06
8.74212e-07
5.14031e-06
1.31503e-06
0.012469
2.13771e-05
0.0120558
4.50682e-07
1.21755e-06
1.5781e-06
4.93878e-07
4.2264e-07
1.64944e-06
4.21286e-07
4.97437e-07
0.0102867
0.016768
4.33356e-07
0.010339
1.53461e-06
7.48396e-05
0.00658293
1.6766e-06
0.00756
1.10409e-06
1.26923e-06
0.000123686
5.9563e-05
1.66645e-06
1.05055e-06
9.30585e-07
1.37708e-06
8.61102e-05
5.09805e-07
2.56256e-06
5.71638e-07
0.00451546
5.11435e-07
7.72742e-07
1.30924e-06
1.61358e-06
2.01967e-06
6.72711e-07
8.69707e-07
1.84803e-06
1.60348e-06
0.00351233
1.04442e-06
0.00687335
4.4765e-07
0.0100114
4.3198e-07
0.0113995
0.00991403
5.17622e-07
5.69863e-06
7.55866e-05
9.6384e-07
9.99074e-07
1.67184e-06
0.0121375
0.00396282
5.84234e-06
0.00659403
0.0115766
3.11648e-06
5.16085e-06
2.39811e-06
3.2076e-06
8.05825e-07
1.10304e-06
0.00634072
3.70753e-06
1.4968e-06
6.15671e-07
0.0115357
1.425e-06
5.81021e-06
1.38556e-06
1.60133e-06
0.00344676
0.00980074
1.91457e-06
5.28898e-07
1.16316e-06
0.000899708
1.43567e-06
2.11013e-06
1.12784e-06
6.93768e-07
2.99883e-06
5.12693e-06
3.19713e-06
7.89476e-07
1.27434e-06
1.89795e-06
2.56847e-06
6.78149e-07
0.016986
0.00593258
0.0052555
1.12978e-06
0.000215172
0.0197407
1.12976e-06
1.57293e-06
0.0261918
9.7666e-07
1.5445e-06
0.0122598
0.0161223
0.00729815
1.1601e-06
7.51954e-07
6.79517e-07
1.16424e-06
0.00349614
0.0085374
1.16381e-06
2.50587e-06
0.00465518
5.46945e-06
0.00894984
0.000136337
0.000952858
0.00249036
2.79293e-06
0.00477824
8.5443e-07
5.06843e-07
8.61266e-07
1.68782e-06
0.0111292
1.72432e-06
1.50423e-06
0.0119112
1.16582e-06
9.00077e-07
2.50207e-06
1.71817e-06
5.1674e-07
1.50253e-06
1.72147e-06
0.000135598
0.0033038
4.9385e-07
6.05538e-07
7.06143e-07
0.00672258
0.00849692
4.24205e-07
3.63152e-06
0.00244706
9.40379e-07
1.43316e-06
6.00833e-07
1.14939e-06
1.48631e-06
0.000246205
1.59027e-06
0.00712146
4.67777e-05
5.16272e-07
0.0162568
0.0162265
8.13727e-07
0.0139035
1.56032e-06
0.0072157
0.00196592
5.11061e-07
8.52129e-07
8.14239e-07
1.42731e-06
1.20934e-06
1.73258e-06
0.00575062
3.65717e-05
0.00954573
0.00924262
9.60096e-07
4.27373e-07
1.12043e-06
0.00487826
4.61188e-05
2.16433e-06
0.00947565
0.000144528
0.00888681
1.50541e-06
7.82939e-07
9.01083e-07
1.3726e-06
0.00355586
1.63245e-06
2.68126e-06
5.78815e-06
0.00368465
0.00979771
4.15753e-07
0.00721885
0.0116296
1.57631e-06
1.62869e-06
1.3517e-06
0.0116187
1.65911e-06
2.04899e-06
5.51569e-05
0.00670759
7.76461e-07
0.00527826
0.0124814
0.00738812
0.0102847
1.42556e-06
0.00464249
0.00836528
0.0134001
0.00691921
1.65336e-06
1.57076e-06
0.00296699
0.0201129
0.000247646
0.0108165
6.8873e-07
1.26535e-06
7.96395e-07
0.0103334
0.00010965
0.00957583
1.85799e-06
1.63973e-06
5.23409e-07
4.34971e-06
0.0167992
1.66287e-06
0.0108446
1.64942e-06
2.28156e-06
2.40518e-05
1.53949e-06
0.0140819
0.00818982
1.64313e-06
2.14891e-05
0.00283607
1.93426e-06
5.30962e-07
0.00433417
0.0176254
8.91145e-07
1.55686e-06
5.04763e-07
2.115e-06
6.39171e-05
1.63733e-06
0.0177317
1.48208e-06
0.00506476
0.00378192
0.0126693
0.000409344
1.60418e-06
4.37984e-07
0.00263146
1.60084e-06
0.00757633
1.62404e-06
0.00916339
8.67811e-07
0.00693926
0.00024112
1.65377e-06
4.32503e-07
0.00743101
1.63056e-06
4.15797e-07
0.00803886
0.00369784
1.68198e-06
5.6144e-06
9.11121e-07
0.00957691
6.33761e-07
0.000201757
0.00755766
3.09782e-06
1.33633e-06
6.65237e-07
0.00260416
0.00213295
0.0143788
0.00336691
1.81481e-06
0.0118264
1.24569e-05
0.0170487
0.0158523
1.01813e-06
0.000127292
7.80663e-07
0.00649263
0.0108883
0.00395231
0.00846549
1.14466e-05
1.5686e-06
9.86946e-07
2.07722e-06
1.64579e-06
1.32775e-06
0.00260548
1.56061e-06
0.00665764
1.03297e-06
0.0085708
1.14542e-06
1.63544e-06
3.23912e-06
1.49337e-06
1.10242e-06
1.81178e-06
9.07563e-07
2.70693e-06
0.000466764
0.00955077
0.00752002
0.00693934
0.00278992
3.16967e-06
1.65566e-06
2.04131e-06
2.96491e-05
1.14002e-06
0.00471092
0.00953354
0.0114549
4.46132e-07
1.49052e-06
1.43109e-06
9.89507e-07
0.00246233
1.67632e-06
1.65796e-06
1.27009e-06
2.03332e-06
0.000956514
9.96354e-07
1.87485e-06
0.0139291
0.018483
1.20191e-06
9.38923e-07
9.90719e-07
1.13324e-05
6.60083e-07
4.44416e-07
1.34943e-06
0.000119006
9.413e-07
4.87507e-07
0.016678
1.92342e-06
3.18183e-06
7.78806e-07
7.3601e-07
1.15767e-06
0.00779752
0.0164423
0.0172703
0.0128369
2.05723e-06
1.08615e-06
1.56661e-06
8.90143e-07
1.51257e-06
1.43214e-06
9.73743e-07
8.36296e-07
1.61082e-06
0.0109686
0.00775361
1.91599e-06
1.66898e-06
8.87229e-07
1.17277e-06
1.47895e-06
2.61542e-06
1.61452e-06
2.06257e-06
1.60393e-06
1.17618e-06
0.0146108
0.000374687
0.00308097
1.51352e-06
0.00936313
0.0116083
3.68392e-05
1.3769e-06
0.0099339
0.00209368
0.00718291
0.0043012
0.0114791
8.69757e-05
4.17611e-07
3.33137e-06
0.00575584
7.12461e-07
0.0067362
1.14378e-06
1.48081e-06
2.77928e-06
0.0167372
0.0155998
0.010867
0.0151286
1.75978e-06
5.76575e-07
1.01106e-06
7.14364e-07
1.70329e-06
3.45446e-06
1.07801e-06
0.00465128
5.74671e-07
0.00930719
2.18614e-05
9.50957e-07
0.00440981
5.0933e-07
4.28968e-07
6.8506e-06
7.00027e-07
0.00469151
0.00442257
5.30866e-07
0.00607673
8.31107e-07
0.0110723
0.00558165
6.80935e-07
1.70683e-06
1.89833e-06
0.0104407
1.85431e-06
0.00474879
7.11434e-06
1.76618e-06
0.0109152
0.00607905
8.16577e-07
0.0167289
2.34046e-06
6.71208e-07
8.99204e-07
8.98016e-07
0.0132886
5.10097e-07
0.000177109
4.51048e-05
0.003715
1.76719e-06
0.00012737
6.1081e-07
4.22978e-07
0.00373671
4.16115e-07
6.9562e-07
7.6475e-07
8.99709e-07
0.00735481
0.0135944
1.50461e-06
3.7218e-06
7.41807e-07
0.00811088
0.00789791
1.49422e-06
1.66566e-06
0.0105898
0.00749943
1.41169e-06
6.33205e-07
0.000145491
7.08619e-07
3.00697e-06
1.36814e-06
1.11727e-06
0.00373655
0.00253979
6.03174e-07
1.13964e-06
1.61652e-06
0.00657063
6.75988e-07
1.98101e-06
4.21735e-07
0.00433069
4.69161e-06
1.26186e-06
1.48728e-06
1.62328e-06
1.17255e-06
2.78037e-06
0.00525986
0.000152768
2.96072e-06
3.35127e-06
0.00633769
3.16427e-06
4.16909e-07
0.000110344
2.59072e-06
2.10827e-06
0.00538866
1.59987e-06
0.016815
1.14114e-06
4.91313e-07
0.00351021
1.91764e-06
1.67013e-06
0.00293477
6.5104e-07
6.10268e-07
1.5961e-06
6.69108e-06
0.00553643
1.89782e-06
9.58389e-07
3.15571e-05
1.45095e-06
1.27486e-06
0.000147047
9.33185e-07
0.00457343
1.6282e-06
1.2195e-06
7.89547e-07
0.00610331
0.00816942
0.0049834
0.000744651
1.1283e-06
0.0100013
1.38663e-06
0.0155696
1.69935e-05
1.74862e-06
1.19198e-06
0.00949569
2.31667e-06
0.0130992
5.14394e-07
6.00792e-07
0.0104672
1.37967e-06
0.00412463
1.22409e-06
1.71758e-06
3.08401e-06
3.50854e-06
0.00932458
0.00748647
9.32962e-07
7.9255e-07
0.000479312
1.35382e-06
0.0128654
0.000128999
5.15038e-07
0.00410966
9.85633e-07
2.4512e-06
9.07073e-07
1.69412e-06
0.003795
1.26642e-06
0.012866
1.51505e-06
2.65725e-05
0.00499576
1.45934e-06
1.43375e-06
1.11292e-06
9.42544e-07
8.31688e-07
0.00761406
0.0175904
0.000607136
1.44138e-06
0.000461007
0.00520189
0.0132534
1.79986e-06
0.00257203
0.00481079
1.4948e-06
1.51082e-06
5.04508e-07
0.0109039
1.55665e-06
1.55172e-06
4.98319e-07
0.0100306
0.0099676
3.27545e-06
1.09747e-06
1.80055e-06
2.68902e-06
5.03765e-07
1.53151e-06
0.00580482
6.20195e-07
0.0112269
1.2528e-06
0.00704513
1.93151e-06
1.12223e-06
0.0106104
0.00834437
1.61081e-06
0.000332973
1.59944e-06
1.56785e-06
0.00286202
3.95971e-06
0.0127101
1.66947e-06
6.33266e-06
0.00366526
1.70561e-06
5.70552e-06
1.83623e-06
0.00956191
4.61365e-07
0.000572761
1.12222e-06
1.5643e-06
1.4106e-06
0.00442512
4.60405e-07
1.46842e-06
9.08713e-07
0.00048162
0.000310324
2.09058e-06
5.99427e-07
7.93396e-07
0.005964
0.00606356
7.60005e-07
0.00622959
5.64091e-06
0.0104596
0.00410318
5.87003e-06
2.49303e-06
7.66666e-05
6.65227e-07
1.24786e-06
0.0118697
1.4803e-06
1.11769e-06
2.39468e-06
5.18391e-05
1.29245e-06
5.50203e-07
1.40266e-06
1.49002e-06
0.0173091
1.85156e-06
8.33255e-07
1.48382e-06
1.83162e-06
8.61164e-07
1.42077e-06
1.51727e-06
1.20955e-06
0.0177688
5.50397e-07
1.82125e-06
1.06646e-06
1.11581e-06
7.23602e-07
1.34389e-06
5.7675e-07
3.59944e-06
1.77309e-06
0.00808086
7.94176e-07
0.0104096
1.61717e-06
0.0117381
0.00622492
2.00827e-06
1.58544e-06
1.74042e-06
1.11228e-06
7.95585e-07
2.47642e-06
1.05148e-06
7.97077e-07
0.0172693
0.0175678
5.22785e-05
0.00643632
6.63594e-07
0.00913716
6.02318e-07
6.73406e-07
5.09194e-07
1.63513e-06
0.0090755
2.21477e-06
0.0149972
1.85306e-06
5.44246e-05
0.0151328
0.000132159
3.26767e-05
1.82382e-06
1.60724e-06
1.14155e-06
1.36013e-06
9.11022e-07
0.0135098
0.0108776
2.56511e-06
1.22191e-06
8.72815e-07
0.01657
1.62085e-06
6.17224e-07
8.4154e-07
1.70563e-06
0.00692809
5.7331e-06
2.1951e-06
1.04895e-06
0.00252994
0.00410298
1.51668e-06
0.00268111
4.06826e-05
1.30165e-06
0.0139279
0.00843035
0.00920472
5.55319e-07
2.07635e-06
0.00601507
1.47109e-06
0.00339184
7.91954e-07
2.57061e-06
8.18464e-07
7.10663e-07
3.50515e-06
0.00647361
1.34646e-06
7.87538e-07
1.42861e-06
1.42897e-06
9.78194e-07
0.00692655
0.000290586
6.96242e-07
4.83928e-07
8.34607e-07
0.0116293
6.09636e-07
0.000797987
0.011059
0.0187319
0.00103069
0.00794688
0.0104505
0.0140929
1.41584e-06
1.14413e-06
0.0111152
6.43214e-07
0.00716517
0.00660842
0.00505331
5.49026e-07
1.33745e-06
1.46574e-06
0.00026725
4.32827e-07
0.00632904
0.000533146
0.000144918
0.00925791
7.40062e-06
0.00795994
8.12003e-07
0.0156156
1.60046e-06
0.00498807
1.46356e-06
4.10126e-06
8.75462e-07
1.18187e-05
1.66191e-06
2.73288e-06
1.49546e-06
1.13956e-06
5.33506e-07
0.0115871
6.76677e-07
1.41216e-06
0.00783748
8.42011e-07
1.3965e-06
7.96785e-07
0.010045
7.9811e-07
8.89331e-07
2.03979e-06
5.49492e-07
1.42581e-06
7.22573e-07
0.00730731
1.47225e-06
4.91763e-07
5.43508e-06
0.000923803
8.94929e-07
8.51935e-07
0.00879844
0.00862004
2.58058e-06
8.6456e-07
0.0108521
0.00983506
0.00296683
5.70596e-06
0.00703359
1.59412e-06
9.19279e-07
1.52704e-06
4.87852e-07
1.10732e-06
0.0026447
1.9989e-06
0.00372328
5.35213e-07
3.01884e-06
7.77578e-07
1.86708e-06
0.00200851
0.00415365
9.68548e-07
1.60621e-06
2.83201e-06
6.12856e-07
7.10702e-07
5.35333e-07
0.0117814
0.00759895
1.62714e-06
7.21302e-07
1.50008e-06
8.62281e-07
0.0055827
1.45465e-06
1.13335e-06
0.00708883
1.80117e-06
3.70007e-06
1.35014e-06
0.0206265
0.000284845
1.5919e-06
1.55103e-06
0.00255529
0.00010711
1.58488e-06
0.002919
0.00588911
0.00822063
0.0101591
0.0104769
0.00336332
2.70008e-06
9.28328e-05
5.23817e-07
6.96788e-07
0.0111006
7.96252e-07
0.00479941
1.15172e-06
0.00281612
0.0078169
1.67927e-06
0.00870876
0.00968655
0.00220934
1.56701e-06
9.40395e-07
6.61405e-07
3.73745e-06
0.00799832
6.05009e-07
0.0120491
1.79083e-06
0.00324221
3.18892e-06
1.28692e-06
0.000193527
8.19648e-07
0.000190058
1.59383e-06
8.42432e-07
8.8788e-07
0.00908071
2.61066e-06
1.58271e-06
0.0135888
1.3777e-06
0.000691215
1.47008e-06
0.000835721
0.0117294
0.0102598
1.01201e-06
5.23068e-07
2.21354e-06
1.14632e-06
0.0120088
0.00510711
5.08544e-07
1.4899e-06
3.42166e-06
0.00534955
1.96526e-05
1.18603e-06
0.000838292
9.5069e-07
1.12972e-06
0.0106513
0.00925038
0.00613927
1.34853e-06
0.0182572
2.30486e-06
0.00694595
3.95654e-06
0.0010767
0.00761863
1.8138e-06
0.000819009
0.00675487
0.012008
0.00834976
1.11809e-06
0.0105165
3.35949e-06
2.05577e-06
9.89007e-07
9.4951e-07
0.000365805
9.7624e-07
0.0185608
0.00621076
0.00914712
0.00920802
0.00728026
0.0140239
0.0112955
0.00963884
5.59663e-07
0.000418242
6.94833e-07
0.00746484
0.00402942
4.94219e-07
0.00282987
7.12651e-07
5.82827e-07
1.4461e-06
1.45866e-06
0.0177631
0.00222544
1.12554e-06
1.10066e-06
0.00019881
0.00746492
1.79841e-06
3.31792e-06
0.00072807
1.54389e-06
1.69746e-06
5.58673e-07
0.00334121
9.41044e-07
1.19623e-06
0.000277788
1.69315e-06
0.0168616
0.0076362
1.52862e-06
0.0105146
1.68088e-06
0.0110592
0.00759215
0.00714061
1.56489e-06
0.000200007
1.55394e-06
0.00974759
8.91388e-07
2.55127e-06
8.75177e-07
6.65204e-07
0.00405269
1.3626e-06
1.22654e-06
0.000781463
1.90212e-06
6.04636e-07
0.00970774
9.88006e-07
8.43568e-07
0.000835567
0.0112548
1.23391e-06
0.00243342
1.17056e-06
0.0205494
1.45121e-06
1.45219e-06
1.18611e-06
5.24849e-07
1.28322e-06
0.000138184
0.00368786
6.02539e-07
0.00711819
1.82122e-06
0.00295922
6.77885e-07
5.25e-07
8.26708e-06
2.48804e-05
9.72308e-07
1.5708e-06
0.00321083
1.16373e-06
3.77292e-06
1.61064e-06
0.00714566
0.000182633
2.1491e-06
3.08107e-06
0.0120479
4.19255e-07
6.0102e-07
3.93846e-05
0.0122832
2.11857e-06
0.0100398
1.54799e-06
0.0101562
0.00852487
7.19613e-07
1.22537e-06
0.00559195
3.34123e-06
1.63382e-06
0.000273458
1.80783e-06
1.6288e-06
2.34788e-06
1.54607e-06
3.80635e-05
2.328e-05
1.13506e-06
0.0191839
0.00330388
6.29713e-07
3.31526e-06
0.00312952
0.00698298
7.19372e-05
7.59711e-07
1.81349e-06
0.0163871
1.31239e-06
1.04836e-06
0.0119643
1.17566e-06
0.00269895
9.96453e-07
7.871e-07
0.0103108
1.04946e-05
0.000263281
2.82604e-06
1.67405e-06
6.88539e-07
0.0107624
0.000730996
1.25512e-06
4.88382e-06
0.00504395
6.46674e-07
1.22567e-06
1.59569e-06
1.72566e-06
0.0106067
8.46304e-07
5.37262e-07
2.26652e-06
7.54287e-07
0.00930762
0.0177001
0.0139282
3.24743e-06
4.49691e-07
1.30267e-06
0.00892605
5.90523e-06
0.00704858
2.16529e-06
1.9786e-06
1.66843e-06
1.642e-06
1.48148e-06
3.51029e-05
0.0159948
1.48923e-06
0.00759927
0.0150337
4.89029e-07
0.00555762
0.00797025
0.00772127
0.000447415
4.19111e-07
0.00073114
1.86395e-05
0.00296959
8.37366e-07
1.83641e-06
0.0155457
1.44565e-06
1.36606e-06
0.0186968
2.57991e-06
0.0052014
0.00920533
2.71295e-06
0.00721566
0.0102643
9.47674e-07
0.00916276
0.000262219
1.10256e-06
1.1011e-06
0.00676511
1.5004e-06
1.65526e-06
5.54819e-07
1.42848e-06
0.0155724
8.742e-07
4.3985e-06
0.000188803
5.6911e-05
1.17193e-06
1.64261e-06
0.0116142
4.50948e-07
8.82712e-07
1.4762e-06
1.42896e-06
1.23442e-06
0.00650749
1.64892e-06
1.43022e-06
0.00363466
1.21781e-06
0.0147741
1.28275e-06
0.017169
1.28347e-06
0.0120932
0.000906149
1.14345e-06
0.00359538
4.69577e-05
1.69019e-06
1.09317e-06
8.23107e-07
0.00720132
6.89402e-07
0.000274808
9.59573e-07
1.1039e-06
3.06201e-05
0.00803308
6.89579e-07
1.66685e-06
5.42138e-07
1.3731e-06
1.53648e-06
2.04611e-06
4.51164e-07
0.0147044
0.000661275
8.92501e-07
9.35332e-07
0.0157309
0.00852767
1.56511e-06
4.88236e-07
0.0160019
0.00260174
0.0177615
2.01124e-06
1.55347e-06
0.00028902
2.12902e-06
0.00864731
0.0172037
8.96434e-07
1.28458e-06
0.00356595
3.1471e-06
8.73398e-07
0.0168469
0.00278621
0.0182335
5.32068e-07
1.96418e-06
1.79797e-06
1.07462e-06
1.58036e-06
0.000259352
2.02603e-06
6.74892e-07
0.00907094
1.45538e-06
5.29174e-07
2.04957e-06
0.000845002
9.41087e-07
0.0164108
1.40739e-06
1.46511e-06
1.4709e-06
1.57537e-06
7.6868e-07
0.0117657
0.0108718
9.87708e-07
0.0045546
7.57618e-07
1.07672e-06
0.00170123
0.0141919
5.11803e-07
0.0120512
1.20955e-06
6.09325e-07
1.25503e-06
0.00700506
0.00385713
4.85648e-07
0.00874391
0.0117783
0.0049994
2.1194e-06
0.0155521
0.00767867
1.75244e-06
0.000478013
8.499e-07
1.42477e-06
1.4111e-06
0.0133795
0.00878839
0.00630097
0.000476089
6.96691e-07
7.20353e-07
9.65611e-07
2.11458e-06
1.65893e-06
4.27409e-07
1.60868e-06
1.16829e-06
0.0039012
9.86578e-07
1.55531e-06
4.51416e-07
0.00277885
1.22343e-06
4.18912e-07
5.46101e-07
0.00506143
1.06415e-06
1.3151e-06
1.65602e-06
0.000155267
5.2918e-07
3.50582e-06
1.85453e-06
1.44012e-06
1.57989e-05
0.000414206
1.4763e-06
0.000202709
0.00921867
1.27385e-06
1.27064e-06
1.00554e-06
9.45213e-07
1.65617e-06
2.09011e-06
1.59423e-06
0.00755557
4.26524e-07
1.40303e-06
1.06125e-06
1.40719e-06
1.25945e-06
1.55908e-06
1.30001e-06
9.64841e-07
2.62452e-06
1.54324e-05
0.00304538
0.000105302
5.43169e-05
3.36435e-06
4.84177e-07
3.40342e-06
0.006251
1.27743e-06
3.10164e-05
0.00204409
0.00711253
1.49117e-06
0.00398607
1.66174e-06
0.000748742
1.02689e-06
6.66259e-07
1.48138e-06
1.7516e-06
0.002822
2.03439e-06
0.00808237
0.00681807
0.018081
1.06981e-06
4.9632e-07
1.41157e-06
0.016916
8.85967e-07
8.82229e-07
0.00641874
1.09557e-06
0.00948084
1.30515e-06
3.23365e-06
6.1503e-07
5.36725e-07
0.00394874
6.69175e-07
0.00279774
0.0203984
1.9633e-05
1.01233e-06
1.74115e-06
0.0131462
0.00525544
0.0020386
1.05505e-06
3.46832e-06
0.000652652
0.0172918
0.0189605
9.81437e-07
1.47236e-06
6.73719e-07
9.47505e-07
1.6581e-06
2.61615e-06
4.83392e-07
1.57572e-06
0.0132718
0.0092187
0.000260953
2.56898e-06
3.37277e-05
7.13658e-07
6.82981e-07
1.68373e-05
1.65557e-06
3.41155e-06
2.27904e-06
1.78489e-06
5.51032e-07
0.00206554
0.0094999
0.0051999
8.41294e-07
0.00992362
1.08775e-06
1.79069e-06
0.000465981
4.15829e-07
1.64854e-06
0.00365216
0.00152527
1.80282e-06
2.63392e-05
1.20156e-06
0.0100611
1.06027e-06
0.00042242
1.31454e-06
1.81552e-06
0.00905883
0.00670672
0.00750297
8.37535e-07
8.12872e-07
4.90047e-06
1.77733e-06
1.74997e-06
4.95649e-06
0.00716581
8.13175e-07
9.60267e-07
2.15218e-06
1.4216e-06
1.59879e-06
1.80488e-06
1.4503e-06
8.7726e-07
0.00503181
0.000134988
1.26044e-06
5.79374e-07
1.71864e-06
1.07064e-06
2.58337e-06
4.84882e-06
1.04136e-06
0.00290929
0.00378734
4.37489e-07
1.56748e-06
1.64783e-06
0.0135205
2.28836e-06
8.09355e-07
8.81854e-07
4.39807e-07
1.32391e-06
0.0158887
1.50719e-05
1.73888e-06
0.00897918
1.42941e-06
1.17199e-06
1.01411e-06
2.35548e-06
0.0110272
4.47244e-07
0.0151379
0.0068537
1.6791e-06
1.32978e-06
1.76649e-06
1.58207e-06
1.38627e-06
0.015082
4.9742e-06
0.003191
1.52695e-06
6.6794e-07
0.00719458
0.0111462
0.00498262
0.000691152
2.75509e-06
7.11191e-07
0.00230107
0.0089206
4.91735e-07
0.0122442
0.0119464
8.50795e-07
3.86361e-06
1.41305e-06
6.59242e-07
1.13258e-06
4.54325e-07
1.31381e-05
0.00438085
9.30542e-07
4.5194e-07
0.0139268
3.35174e-05
0.000389937
0.00689698
0.00933133
1.60611e-06
1.78766e-06
1.26891e-06
4.65454e-07
8.52319e-07
4.31584e-07
0.00710996
2.529e-06
9.98687e-07
0.00554522
4.74566e-07
5.31987e-05
1.06549e-06
0.00540806
0.000218007
1.5286e-06
1.00035e-06
0.0196154
0.00741745
0.00658304
0.00784578
8.67393e-05
0.018184
2.64525e-06
0.000382173
0.00831889
8.0178e-07
1.0636e-06
0.00366013
6.9011e-07
1.43846e-06
7.95406e-07
9.28908e-07
1.91794e-06
0.0106851
1.2265e-06
9.11542e-07
2.29484e-06
1.64715e-06
0.0122259
0.000328649
1.011e-06
0.000827097
3.00794e-06
0.000442292
1.05877e-06
0.00859379
2.08118e-06
0.011558
0.0146731
1.68355e-06
1.53878e-06
0.000261722
1.77889e-06
0.0122443
0.000389094
0.0118905
2.0209e-06
2.03559e-06
7.9006e-07
0.00574662
0.000356113
0.0113652
5.21567e-07
2.72364e-06
1.75158e-06
0.00812982
0.00240149
0.000456555
0.000401494
0.000137398
0.0138493
0.0106047
8.02911e-07
5.49752e-06
0.0130274
0.0144718
2.48376e-06
1.84256e-06
0.00713313
8.02381e-07
1.4982e-06
9.52883e-07
1.80487e-06
0.00301778
0.000311361
4.93209e-07
1.69714e-06
1.36171e-06
7.92869e-06
0.00990626
1.6517e-06
0.00357263
0.00312683
0.0036681
1.00053e-06
1.48163e-06
9.67906e-07
0.00390076
8.93034e-05
0.00919724
5.80402e-07
1.43276e-06
0.000499064
1.67057e-06
0.00808321
1.41264e-06
0.00813353
0.00741035
1.52027e-06
2.01821e-06
0.00793134
1.10857e-06
1.59413e-06
0.0036524
1.99226e-05
1.10567e-06
0.00986977
5.4884e-06
0.00688253
0.00578691
0.00494109
2.57145e-06
0.00377017
0.000475062
0.00745774
0.00444356
0.0102009
1.70032e-06
2.98182e-06
7.99561e-07
7.4813e-07
0.000824136
1.36418e-06
0.00277465
1.56335e-06
3.81898e-06
0.000199423
1.01526e-06
1.11585e-06
1.58918e-06
0.0143948
9.18712e-07
0.01042
6.49232e-07
0.00985671
0.00809255
7.1292e-07
0.00227865
0.0100027
0.000298162
1.08896e-06
5.94851e-07
1.19774e-06
0.0106095
1.77852e-06
5.48064e-06
1.61958e-06
0.000183101
1.98807e-06
0.00716656
0.00526865
0.000454914
0.00183567
0.00220793
2.03739e-06
1.55522e-06
0.00476068
1.7025e-06
0.000902144
1.88472e-06
0.00252676
1.55761e-06
8.81365e-07
0.00882554
9.40485e-07
4.47939e-06
0.00745745
0.0175566
1.62066e-06
0.0145358
1.65997e-06
0.00957957
3.47688e-05
8.2838e-07
1.58514e-06
8.8146e-07
0.0142404
0.01179
0.00959389
0.00354843
7.82708e-07
2.02138e-06
0.0167823
7.19453e-07
0.00904014
8.65579e-07
0.0160562
1.94226e-06
3.06809e-06
8.63084e-07
0.00473961
0.000442475
2.03414e-06
1.55373e-06
1.4787e-06
0.00384688
1.49417e-06
1.48269e-06
3.11263e-06
0.00228292
0.00233263
9.76093e-07
7.67363e-07
2.30537e-06
0.0159471
2.83582e-06
0.00659043
1.95236e-06
2.1597e-06
0.0151917
0.0143865
1.83484e-06
0.00707974
1.1741e-06
0.0114175
0.00696254
0.00713909
8.84751e-07
5.46629e-06
0.00219065
9.92518e-07
0.00945122
1.55928e-06
7.14286e-07
1.64947e-06
1.57793e-06
7.34694e-06
0.003186
1.14983e-06
1.42964e-06
0.00732783
1.06741e-06
8.63891e-07
9.37492e-07
0.00863869
5.7569e-07
1.63269e-06
1.00801e-06
8.80907e-07
0.00765953
1.8976e-06
0.0100766
5.93211e-07
0.00143687
0.00808316
1.64192e-06
5.1725e-07
0.0111695
1.04607e-06
1.10512e-06
1.17813e-05
0.00223468
2.31709e-06
0.00521303
1.07032e-06
0.00324083
1.22845e-06
1.59573e-06
1.69655e-06
0.00290651
5.1618e-07
0.0019878
0.00796554
0.0141803
1.56444e-05
0.00271696
0.0022377
0.00493833
0.0027392
0.00708658
1.35478e-06
1.56699e-06
0.0107796
1.44341e-06
0.0052649
0.000223821
1.69124e-06
0.0106677
0.0142069
1.66831e-06
5.086e-07
0.00778777
0.00628712
5.39475e-07
0.0120176
1.55523e-06
6.57182e-07
0.000902588
0.0153973
8.71219e-07
2.05997e-06
1.56564e-06
0.0105142
1.49859e-06
0.00440531
0.000276178
1.80328e-06
5.0982e-07
1.78552e-06
0.0101832
5.85863e-07
9.50248e-07
0.00357346
5.73446e-07
1.75294e-06
0.0152328
9.50603e-07
0.00873418
1.38927e-06
1.47623e-06
0.00324982
1.62751e-06
0.00215431
0.00733367
0.0120438
1.43857e-06
0.00663149
0.0107918
1.37609e-06
6.6081e-07
0.000135493
1.79431e-06
1.34652e-06
3.9377e-06
0.00693727
1.35875e-06
0.0143093
0.0067381
0.0093794
0.00914483
1.54922e-06
1.14643e-06
1.13742e-06
5.54531e-07
0.00541971
1.54782e-06
0.00444927
1.09913e-06
0.00717981
8.53866e-07
8.9363e-06
0.000341328
1.64391e-06
0.00153349
2.74223e-06
2.22844e-06
0.00690301
0.00813211
1.508e-06
1.0689e-06
0.00393336
1.55667e-06
2.4274e-06
0.00806765
0.0163808
0.0144406
0.00439384
0.0040635
1.98378e-06
0.0196404
0.0149491
0.0155753
1.35571e-06
0.000248771
1.44884e-06
1.06743e-06
0.00214593
0.00844916
0.00732603
6.21826e-07
6.34354e-07
1.79006e-06
5.88838e-07
9.55672e-07
1.72395e-06
9.23249e-07
4.42315e-07
8.28304e-07
0.0111955
0.0143593
0.00725244
1.47685e-06
0.00662927
0.0103729
1.85519e-06
7.65988e-05
4.55045e-07
1.29814e-06
1.14758e-06
3.79868e-06
0.00456211
2.41601e-06
9.27972e-07
0.00684331
1.36998e-06
4.95644e-07
0.00512541
1.586e-06
0.00209732
1.21323e-06
0.0107556
0.00330257
0.00735035
1.47615e-06
1.43938e-06
7.9485e-07
1.75976e-06
6.93096e-07
1.38121e-06
0.0142186
1.81182e-06
0.00585312
1.32992e-05
4.61645e-06
3.39661e-06
0.00721611
0.00685292
7.50558e-07
1.20406e-06
1.6875e-06
6.4511e-05
0.00650128
1.61421e-06
0.00703578
1.03605e-06
6.82019e-07
1.96663e-05
0.0142075
6.33981e-07
2.15975e-06
1.61476e-06
1.57729e-06
6.10834e-07
7.82849e-07
0.00307168
1.62751e-06
1.47607e-06
2.00778e-06
0.000511397
1.09503e-06
0.00479403
0.0148032
1.67972e-06
3.29889e-06
7.22429e-07
1.77744e-06
2.07999e-06
1.75804e-06
1.3794e-06
0.0113113
0.00860611
0.007873
0.0200323
1.39603e-06
1.46347e-06
3.42293e-06
0.00806303
0.00553129
0.00691415
5.60164e-07
0.000253052
0.00773106
0.0091186
0.0115942
1.00362e-06
1.41112e-06
0.0082916
0.000476597
1.24465e-06
8.84388e-07
1.51509e-06
0.0147937
5.46023e-07
1.51448e-06
0.0145332
2.33757e-06
1.60364e-06
0.00744852
2.02255e-06
1.82603e-06
2.02471e-06
0.00684256
0.00853043
0.0109742
0.0159725
0.00492735
0.00768018
0.0177459
6.49437e-07
0.00483622
9.24084e-07
0.0135429
0.0102048
0.00780308
0.00699445
0.000568032
2.27006e-06
0.00518475
0.00398858
6.04429e-07
1.38494e-05
0.0134505
0.00728902
0.000485657
0.0121414
0.000435117
2.08431e-06
2.16746e-06
6.33261e-07
5.00029e-07
2.21113e-06
0.00657163
1.67257e-06
0.0107408
1.07181e-06
6.74489e-06
1.44763e-06
2.99126e-06
1.38645e-06
0.00395744
0.0187607
1.81311e-06
0.00718307
8.79899e-06
0.00765927
0.0020895
0.0167807
1.3966e-06
1.05934e-06
1.89194e-06
0.0182303
2.95021e-06
0.00700098
1.72126e-06
9.94763e-07
9.35863e-06
0.0132326
1.85139e-06
7.7388e-07
0.0151759
1.80543e-06
0.00458078
0.000256214
1.34965e-06
0.000538851
0.0120799
7.75508e-07
0.0122342
0.00770511
0.0079295
0.00620847
2.02903e-06
0.0191612
2.24548e-06
1.81881e-06
4.66267e-06
6.24965e-07
9.86979e-06
0.00748313
4.73537e-06
6.60734e-06
0.00630403
3.60511e-06
8.03994e-07
2.11075e-06
5.41268e-06
1.13089e-06
0.00756133
9.8441e-07
4.07268e-06
0.0111342
0.00776614
0.00801266
0.00248806
0.0159956
1.1357e-06
5.23106e-06
0.0116589
0.0138987
7.82775e-07
5.06047e-07
0.00711731
5.0165e-07
8.53862e-07
4.41754e-06
2.36188e-06
0.0202886
8.17376e-07
0.00586605
6.80437e-06
0.00441975
4.47698e-06
1.68594e-06
3.29126e-06
9.27542e-07
1.46365e-06
0.00874802
1.44722e-06
0.0136075
0.00684275
9.58895e-07
1.53804e-06
0.00513131
5.29814e-06
2.9617e-06
6.94534e-06
2.15809e-06
0.00772904
4.55849e-06
0.0092591
0.00729979
0.00313703
0.00796385
0.0101968
0.000971529
0.00738044
0.00653252
1.68737e-06
1.59994e-06
4.32649e-06
0.0113401
4.48853e-06
0.0141412
0.00630736
1.61607e-06
1.70954e-06
0.000141545
0.00276452
0.0049971
8.8977e-05
0.0179852
1.74895e-06
1.57585e-06
1.54435e-06
0.000792067
2.68195e-06
0.0086723
1.12276e-06
0.0166792
0.00988253
9.36068e-07
1.53733e-06
0.000230276
3.93312e-06
0.00712578
1.50853e-06
1.7283e-06
4.97373e-07
1.77762e-06
7.74963e-07
0.00777572
1.14426e-06
0.00405815
1.70411e-06
0.00823241
5.50033e-07
5.67862e-06
1.71872e-06
3.77447e-06
1.29255e-06
0.00659789
2.77369e-06
6.40899e-05
1.86061e-05
0.000286187
0.0188244
4.64695e-06
0.0148291
0.00999169
0.0131521
0.00248905
1.03724e-05
7.13178e-07
9.63078e-07
6.50552e-06
2.72793e-06
1.14584e-06
0.000111607
0.0123067
3.77416e-06
0.0101081
0.000229094
7.13162e-07
1.84313e-06
0.00867115
1.80114e-06
0.0196332
0.00409017
9.9487e-07
0.00831697
0.00645283
2.27266e-06
5.51551e-06
1.43274e-05
0.00704769
1.57173e-06
0.00751701
0.00816404
1.11318e-06
0.00782489
0.00306955
4.29995e-06
0.0130777
1.29001e-06
0.00610239
0.000270733
4.68838e-06
0.00507844
1.47782e-06
5.50963e-07
3.35281e-06
9.03082e-06
0.00623466
0.000566643
0.00737278
9.6614e-07
5.70012e-07
0.00881918
0.00516036
0.0162351
2.24195e-06
0.00587198
1.8043e-06
4.73718e-07
0.0138468
7.53589e-06
0.0134826
3.06408e-06
1.8265e-06
1.82347e-06
0.00954182
4.64637e-06
0.00500083
0.00654274
0.00467031
0.014964
0.0145903
5.98629e-05
0.0065111
6.8437e-05
0.00967902
2.80779e-06
1.42692e-05
7.22167e-07
1.64967e-06
1.31978e-05
4.62632e-06
8.1343e-07
0.0184072
0.0207495
0.0168067
1.85217e-05
1.79111e-06
0.00376358
1.18085e-05
0.00752528
1.75301e-06
0.00764414
4.35453e-05
1.71828e-05
5.68323e-06
0.00780314
3.41023e-06
5.31763e-07
1.66099e-06
0.00806926
2.2888e-06
6.48771e-07
3.05448e-06
1.01178e-05
1.61849e-06
1.56742e-06
0.00774476
0.0101971
1.87031e-06
1.80221e-06
3.17334e-06
1.19512e-06
0.0110467
0.00728654
1.17938e-06
0.0192388
5.01691e-07
1.61316e-06
0.00422917
1.78328e-06
1.81741e-06
2.35171e-06
0.00192678
0.00600504
0.00977275
1.63601e-06
0.0182548
1.5954e-06
1.77258e-06
7.03618e-06
0.00809898
2.36837e-06
0.00886771
0.000385691
0.000437895
2.90184e-06
0.00778382
0.00570785
0.000281928
2.2489e-06
0.0177967
3.28658e-06
1.69545e-06
7.19863e-06
2.55427e-06
4.93596e-07
3.13283e-06
3.24562e-06
1.20018e-06
2.17597e-06
2.72072e-06
1.81302e-06
4.93504e-06
6.96391e-07
7.94427e-07
0.000205631
1.09829e-06
2.96921e-06
0.000483691
1.5866e-06
8.01637e-07
1.84794e-06
0.0112456
0.0139514
0.00212741
2.13861e-06
1.83162e-06
0.00628529
1.44598e-06
0.00457
3.29219e-06
0.000455747
1.31271e-05
0.0191981
1.77903e-06
0.000544462
8.5487e-07
1.47426e-06
0.00834945
0.00810576
0.0186767
1.77765e-06
0.0154183
0.0082654
0.0147349
4.88317e-06
2.57013e-06
1.14852e-06
0.00963192
6.24692e-05
1.86529e-06
6.77863e-07
2.30888e-05
0.0144032
5.8735e-07
0.00462869
2.38895e-06
1.45911e-06
1.6432e-06
1.54718e-06
0.0105274
0.00737842
0.00799383
1.31941e-06
1.14101e-06
2.72375e-06
1.14449e-06
0.0126311
5.67159e-07
0.0198099
2.25014e-06
0.0129072
2.62876e-06
0.00788349
0.00831059
0.00586503
0.00563901
0.0172171
7.93394e-07
0.000436293
1.7398e-06
7.16458e-07
0.00645447
2.02685e-06
7.18503e-07
8.08945e-07
1.6425e-06
0.000725588
0.00240433
1.59849e-06
1.58638e-06
1.74581e-06
2.50187e-06
1.57597e-06
0.00827846
0.00213789
1.52877e-06
1.76728e-06
0.00534069
0.00719984
2.60599e-06
0.0100256
0.00741604
0.000578991
0.00573512
1.76306e-06
1.50953e-06
0.0105028
1.41317e-06
1.48515e-06
0.0110658
6.53428e-07
2.44925e-06
1.9504e-06
1.37192e-06
0.0197525
1.79954e-06
2.04949e-06
1.06204e-06
7.12379e-07
1.79211e-06
0.00224163
5.938e-07
1.91767e-06
1.81034e-06
0.00794104
6.65294e-07
1.72836e-06
2.97401e-06
1.43454e-06
2.29876e-06
0.0148795
0.0116079
1.33094e-06
1.66889e-06
1.62203e-06
0.00857864
0.015122
0.0041417
1.31275e-06
1.59703e-06
8.73689e-07
0.00507556
1.31947e-06
5.48042e-06
2.03465e-06
0.000210983
0.0206514
3.06702e-06
2.00819e-06
4.08926e-06
0.000682751
0.00544839
3.04407e-05
1.48422e-06
1.10845e-06
1.99549e-06
0.0035025
0.000220276
1.53345e-06
0.00540875
0.00211841
1.60029e-06
0.00209933
6.19999e-07
0.0210229
0.00576889
8.74394e-07
0.0157419
0.0150964
1.57017e-06
1.42744e-05
1.57502e-06
0.000480013
0.00284224
1.70047e-06
7.14438e-07
0.0108067
6.38129e-07
0.00173001
6.32085e-05
0.0148052
0.0106679
0.0026653
1.52749e-06
1.78272e-06
0.0101733
7.13726e-07
9.67146e-06
0.0099331
0.00186852
6.74286e-07
1.41461e-06
1.75116e-06
1.39043e-06
4.64302e-06
0.011883
1.5791e-06
1.36398e-06
0.00818415
0.00478546