/*--------------------------------*- C++ -*----------------------------------*\
| =========                 |                                                 |
| \\      /  F ield         | OpenFOAM: The Open Source CFD Toolbox           |
|  \\    /   O peration     | Version:  v2012                                 |
|   \\  /    A nd           | Website:  www.openfoam.com                      |
|    \\/     M anipulation  |                                                 |
\*---------------------------------------------------------------------------*/
FoamFile
{
    version     2.0;
    format      ascii;
    class       volScalarField;
    location    "150";
    object      nut;
}
// * * * * * * * * * * * * * * * * * * * * * * * * * * * * * * * * * * * * * //

dimensions      [0 2 -1 0 0 0 0];


internalField   nonuniform List<scalar> 
13726
(
0.00046756
0.0103647
0.000455144
0.000458081
0.000765383
0.000458167
0.0004497
0.000447452
0.00077319
0.000503786
0.000768551
0.000435063
0.000447318
0.0325529
0.000457584
0.000457138
0.000733503
0.000457568
0.0374696
0.000821705
0.0267533
0.00042806
0.000450565
0.000455793
0.000430029
0.000427733
0.000475648
0.000427729
0.000430096
0.00575999
0.033144
0.000431769
0.0363048
0.000486178
0.00194402
0.0394859
0.000467803
0.0126125
0.000449283
0.000453046
0.00152944
0.00147278
0.000453828
0.000447425
0.000469758
0.000452238
0.00887774
0.000432694
0.00055442
0.000437771
0.0348111
0.000432828
0.0004262
0.000457764
0.000457785
0.000516963
0.0004314
0.00042461
0.000482607
0.000454902
0.0419131
0.000447109
0.0176502
0.000427876
0.00552931
0.000430008
0.0249078
0.0336287
0.000433627
0.000767441
0.00816351
0.000447656
0.000455169
0.000453597
0.0373476
0.0425872
0.000778535
0.0441538
0.0368505
0.000625252
0.00120736
0.000542327
0.000625777
0.000450643
0.000449549
0.02405
0.000674554
0.000453302
0.000446475
0.0297336
0.000448737
0.000775859
0.000451953
0.000457822
0.027291
0.0353598
0.000511858
0.000435085
0.000448299
0.0312536
0.000452475
0.000506425
0.000450531
0.000436316
0.000693566
0.000722151
0.000624529
0.000441815
0.000452638
0.000509175
0.000547061
0.00043593
0.0384462
0.0402155
0.0438994
0.000450315
0.0082847
0.036716
0.00045732
0.000454836
0.000467286
0.000454292
0.000455119
0.0371945
0.0387168
0.0164901
0.000449354
0.000426373
0.000435976
0.000472378
0.0419584
0.0223204
0.000472777
0.000549598
0.033809
0.000758896
0.0074545
0.025921
0.0310312
0.0385975
0.000586126
0.0322295
0.000441906
0.000431921
0.000460526
0.000468562
0.0281353
0.000458957
0.000453465
0.0370243
0.000449338
0.000463099
0.000551389
0.000458194
0.000433514
0.000467268
0.000464415
0.00279162
0.0278241
0.000430701
0.000442629
0.000454027
0.0198875
0.0356489
0.00042872
0.000800662
0.0386761
0.000449947
0.000451855
0.000438129
0.000452813
0.000465547
0.00468084
0.000458064
0.0451064
0.00116703
0.000432008
0.0313193
0.0385433
0.000452724
0.0391858
0.000451211
0.0194415
0.0157338
0.000431933
0.000442798
0.000457664
0.000451691
0.00045025
0.000464939
0.0367735
0.00426001
0.00713868
0.00777664
0.00044657
0.000429014
0.000450425
0.0213152
0.00519293
0.000534243
0.00624409
0.0242881
0.00843318
0.000482618
0.000448042
0.000443306
0.000452207
0.0331937
0.000455641
0.000568404
0.00077598
0.0279513
0.00654526
0.0004266
0.0444177
0.0370159
0.00045597
0.000456302
0.000460003
0.0393129
0.000458735
0.000490919
0.00244447
0.0400215
0.000441102
0.0234164
0.00275051
0.0452275
0.0316749
0.000451427
0.0343146
0.0086609
0.039171
0.0426833
0.000453295
0.000451011
0.0152365
0.0358904
0.0169865
0.0406123
0.000436154
0.000452137
0.000442494
0.0333704
0.00501935
0.0247587
0.000483447
0.00047995
0.000436872
0.00069817
0.0385354
0.000453619
0.0342025
0.000477474
0.000549021
0.000481647
0.000455189
0.0392556
0.0357646
0.000476559
0.00154016
0.0170118
0.000504233
0.000440947
0.0360114
0.0367182
0.000457098
0.000450839
0.000430519
0.000539377
0.00802137
0.000477779
0.0382511
0.000480611
0.0350926
0.0405662
0.0373795
0.0146406
0.000455848
0.000432165
0.0371314
0.000457984
0.00673859
0.000480224
0.0319278
0.000455949
0.0187747
0.00262587
0.000476451
0.000429692
0.0144746
0.000479225
0.000426709
0.0350055
0.0341509
0.00045858
0.00047073
0.000443347
0.024102
0.000437824
0.00162891
0.0409389
0.000592391
0.000447867
0.000433653
0.00530358
0.0162952
0.0391308
0.00384902
0.000471998
0.0281041
0.00103063
0.0336345
0.00190146
0.000446273
0.015244
0.000441798
0.0225655
0.0394408
0.0357878
0.0216666
0.000533466
0.000451441
0.000469284
0.000690376
0.000478982
0.000447568
0.0363952
0.000450472
0.0167534
0.000443566
0.00777125
0.000490362
0.000481573
0.000599413
0.000449567
0.000485988
0.000479803
0.000450878
0.000554682
0.00439606
0.0328415
0.04446
0.0201067
0.00593394
0.000625465
0.000520296
0.000532678
0.000553943
0.000446485
0.0383844
0.0328914
0.036192
0.000436331
0.000463595
0.00045135
0.0004461
0.018582
0.000465
0.00045886
0.00045179
0.000490969
0.0322248
0.000446759
0.000496467
0.0391585
0.037909
0.00044975
0.000451126
0.000452197
0.0003581
0.000446869
0.000435454
0.000460156
0.00118046
0.000452694
0.000430057
0.0263778
0.000515842
0.000629301
0.000440936
0.000453971
0.00044819
0.0334481
0.0277276
0.0375573
0.0395066
0.000492485
0.000448613
0.000463999
0.000443566
0.000450018
0.000452876
0.000447514
0.000444998
0.000465943
0.0407228
0.0352252
0.000505348
0.000458454
0.000443487
0.000453746
0.000457637
0.000547301
0.000455231
0.000493512
0.000465648
0.000448494
0.0390125
0.0232951
0.0269125
0.000460638
0.0231507
0.0272715
0.000908869
0.000451812
0.0423303
0.034361
0.016126
0.0349471
0.0299214
0.0124153
0.000426616
0.000611353
0.0139485
0.000450795
0.0106523
0.00044667
0.000450437
0.000560406
0.0380604
0.0388311
0.035341
0.0389252
0.000463433
0.000443641
0.000445967
0.000450764
0.000471912
0.000619627
0.000448544
0.0170915
0.000442069
0.0185696
0.00074474
0.000446497
0.0369942
0.000431567
0.000429647
0.00093566
0.000448599
0.0375688
0.0438346
0.000434733
0.0351096
0.000443207
0.0378617
0.0341468
0.000437402
0.000458336
0.000486115
0.0409237
0.000494111
0.0401289
0.00124411
0.000463642
0.0360528
0.0235537
0.000444994
0.0383866
0.000537133
0.000435736
0.000451158
0.000443786
0.0375126
0.00043148
0.0134303
0.00093498
0.0412478
0.0005084
0.0165847
0.000438702
0.000427921
0.0347413
0.00042661
0.000447531
0.000455004
0.000452557
0.040479
0.0377788
0.000460153
0.000683607
0.000444113
0.0399055
0.0329309
0.000469443
0.000464313
0.0398416
0.0280522
0.000448243
0.000447957
0.0195014
0.000445992
0.000585014
0.000461023
0.000444279
0.0395979
0.0179959
0.000437571
0.000446595
0.000452037
0.0197113
0.00043673
0.000522341
0.000427871
0.0220688
0.000722762
0.000451302
0.000468775
0.000472674
0.000448893
0.000576187
0.0218395
0.0174502
0.00060095
0.000606715
0.0459401
0.000630648
0.00042653
0.00117314
0.000549718
0.00050502
0.0432343
0.000452321
0.0258024
0.000479873
0.000434082
0.0395631
0.00050142
0.000458582
0.0293564
0.000448524
0.000439755
0.000460419
0.000817036
0.0227989
0.000485811
0.000441578
0.00436202
0.000449229
0.000446628
0.0217834
0.000451964
0.0333505
0.000452959
0.000482552
0.000454625
0.044557
0.0169896
0.0427954
0.0333086
0.000476805
0.0412303
0.000452494
0.0380965
0.00259529
0.000506959
0.000449451
0.0428526
0.000525616
0.0320305
0.000432219
0.00043744
0.0402508
0.000456372
0.036168
0.000481706
0.000470602
0.000625757
0.0004646
0.0349482
0.0183376
0.000453304
0.000440701
0.0253196
0.000448159
0.0376194
0.0161496
0.000431919
0.0261093
0.000451572
0.000536509
0.000451953
0.000458552
0.0340811
0.000450984
0.0307985
0.000455076
0.00121066
0.0362496
0.000478222
0.000448735
0.000449569
0.000445183
0.000456141
0.045628
0.0382789
0.0168904
0.00045148
0.021202
0.0436102
0.0377251
0.00048767
0.0341433
0.0191047
0.000465067
0.000452311
0.000430916
0.0408319
0.000462907
0.000454157
0.000433482
0.033674
0.0424258
0.000605744
0.000444576
0.00047083
0.000577646
0.000430943
0.000514424
0.0440456
0.000449417
0.0369238
0.000447537
0.0204384
0.00050515
0.000444331
0.00528264
0.00856408
0.000453043
0.0162205
0.000455156
0.000489629
0.0274123
0.000668245
0.0395365
0.000458692
0.000863886
0.0330922
0.000469792
0.000764083
0.000487541
0.0439312
0.000428632
0.0181113
0.000465714
0.000450434
0.00045339
0.0286472
0.000428606
0.000449494
0.000443603
0.0275563
0.0225469
0.000527691
0.000436633
0.000456672
0.04246
0.0410214
0.000440366
0.0439203
0.000794824
0.0416636
0.039066
0.000774276
0.00056081
0.00483726
0.00043577
0.00044745
0.0386065
0.000469205
0.000465381
0.000474743
0.00341933
0.000446719
0.000437963
0.000453138
0.000457181
0.0271798
0.000518524
0.000441837
0.000469858
0.000467354
0.000456286
0.00045281
0.000455059
0.00045887
0.0374541
0.000437802
0.00048983
0.000485739
0.000445555
0.000438193
0.000487589
0.000441378
0.000627719
0.000477388
0.0456652
0.000441289
0.0346865
0.000451332
0.0374563
0.0359114
0.000522688
0.000460732
0.000467529
0.00044565
0.00044174
0.000502683
0.000471076
0.000440942
0.0380628
0.0363655
0.000999032
0.0385445
0.000450672
0.00748486
0.000436703
0.000441873
0.000431407
0.000455316
0.00768433
0.000515535
0.0252415
0.000488631
0.000987887
0.0386813
0.0268032
0.0023953
0.000515544
0.000461009
0.000447246
0.000451167
0.000441114
0.0375386
0.0410084
0.000558929
0.00045022
0.000440529
0.0385759
0.000455395
0.000438797
0.000442732
0.000458489
0.0390236
0.000769454
0.000540353
0.000463179
0.0344554
0.0337556
0.000452394
0.0269472
0.000631822
0.000448934
0.0294179
0.0370119
0.0359255
0.000443362
0.000545008
0.0434384
0.000449278
0.0163907
0.000457382
0.000567415
0.000442783
0.000454971
0.000709943
0.0159621
0.00044795
0.000442456
0.000452238
0.000412803
0.000442162
0.0291545
0.0102264
0.000436265
0.000429343
0.000441918
0.0218953
0.000438561
0.0194562
0.0265759
0.0368167
0.0337614
0.0394808
0.0381671
0.0378401
0.000453066
0.000446907
0.0296364
0.000438465
0.0410737
0.0462623
0.024791
0.000433969
0.000454477
0.000450286
0.00299589
0.000431738
0.0460624
0.0049831
0.0236007
0.0362183
0.000894363
0.0362587
0.000467126
0.0388294
0.000484319
0.0401197
0.00045552
0.000631146
0.000444347
0.00111582
0.000468722
0.000555984
0.000468243
0.000446829
0.000437365
0.0180054
0.000440364
0.000450543
0.0217019
0.000464566
0.000453463
0.000454203
0.00593311
0.000441473
0.000465272
0.000534768
0.000432915
0.000484401
0.000437637
0.0314693
0.000450203
0.000431413
0.000413035
0.0315574
0.000443195
0.000456408
0.0262652
0.00848617
0.000544574
0.000440072
0.0373673
0.0359864
0.0272799
0.000764209
0.0232799
0.000451208
0.000471174
0.000511652
0.000430391
0.000465196
0.0164957
0.000521391
0.0373302
0.000436456
0.000619281
0.000441741
0.000500526
0.0165779
0.0174071
0.000441838
0.000455559
0.000600746
0.000448889
0.000436947
0.000436078
0.0373367
0.0139642
0.000494812
0.000438752
0.000468874
0.000440199
0.0437248
0.000460715
0.000444518
0.0172472
0.000492511
0.000671302
0.000454258
0.0338019
0.0262174
0.00045566
0.000450549
0.00887553
0.0148713
0.000451201
0.0293017
0.0214192
0.0191413
0.042534
0.0364815
0.0188967
0.000597955
0.00105498
0.00044135
0.00044296
0.0369908
0.000440506
0.043817
0.000452051
0.00718959
0.0299228
0.000468977
0.0456775
0.00614294
0.0295523
0.000458368
0.000448127
0.000435597
0.000681818
0.0109625
0.000438734
0.0195084
0.00047938
0.00482611
0.000592508
0.000436934
0.0148288
0.000440498
0.0176533
0.000483582
0.000442786
0.000442966
0.0343243
0.000545751
0.000452659
0.0289805
0.000452341
0.0167432
0.000450209
0.0244404
0.0376774
0.0365552
0.000459884
0.000434182
0.000514163
0.000447305
0.0376257
0.0345056
0.000439717
0.000507159
0.000611139
0.0349869
0.00122068
0.00044718
0.0252981
0.000449472
0.000445912
0.0174849
0.0206389
0.0457614
0.000454538
0.037553
0.000523625
0.0437395
0.00114257
0.0344354
0.0465534
0.000470871
0.0297675
0.0454472
0.0339495
0.0349463
0.000447652
0.0405625
0.000606196
0.000536641
0.000469443
0.000442776
0.0212191
0.000443447
0.0378288
0.0315635
0.0071904
0.0323664
0.0214855
0.0381629
0.0227825
0.0324936
0.000439061
0.0300793
0.000436228
0.0220701
0.0154535
0.000430534
0.0279349
0.000437838
0.000436071
0.000451285
0.000449278
0.0372069
0.029681
0.000446156
0.000456228
0.00139192
0.0197563
0.000473285
0.000611325
0.0234256
0.00044996
0.000470436
0.000438795
0.0122024
0.000471122
0.000447528
0.0162897
0.000458731
0.00130373
0.0399521
0.000452941
0.0283453
0.000458681
0.0398027
0.0237352
0.0464881
0.000454507
0.0160721
0.000515177
0.0369023
0.000451792
0.00429325
0.00044041
0.000435562
0.0401528
0.000454209
0.000446359
0.0189527
0.00050287
0.000447208
0.0336827
0.000446982
0.000448266
0.0283354
0.0403198
0.000466926
0.0112235
0.00044515
0.0350354
0.000455259
0.000452367
0.000449123
0.00043438
0.000448068
0.012033
0.0417587
0.000438111
0.0222724
0.000476453
0.037793
0.000435886
0.000437411
0.000962771
0.00370469
0.0004433
0.000454155
0.0303567
0.000445534
0.000637487
0.000451394
0.0194949
0.00152056
0.000520699
0.000628206
0.0369777
0.000426656
0.000446937
0.000916932
0.0242374
0.000598717
0.0329741
0.000451318
0.0412362
0.0457738
0.000441581
0.000459599
0.0217583
0.000606946
0.00045503
0.026455
0.000497803
0.000455063
0.000555445
0.000451558
0.00177155
0.000911279
0.000444387
0.0372932
0.0312188
0.000446754
0.000603587
0.0177354
0.0464547
0.00330371
0.000457407
0.000474634
0.0386471
0.000449476
0.000500449
0.0366928
0.000445153
0.0273003
0.000446006
0.000441705
0.0166736
0.00128193
0.02673
0.000570575
0.00045762
0.000435834
0.0368052
0.0296214
0.000453357
0.000438291
0.0414118
0.000444091
0.000460228
0.000461241
0.000466652
0.0341529
0.000449212
0.000433404
0.000531249
0.000457118
0.0213113
0.037967
0.0246055
0.000599895
0.000428137
0.000447653
0.034228
0.000766888
0.0395086
0.000533945
0.000517974
0.00046546
0.000452119
0.000464
0.000927272
0.0382328
0.000457391
0.0179708
0.0335021
0.000430169
0.0436682
0.0308543
0.0152861
0.0285813
0.000426928
0.0247366
0.000404798
0.0283968
0.000455362
0.000495724
0.0385709
0.000452254
0.000451168
0.0365335
0.000586167
0.0418479
0.0350101
0.000584932
0.0440649
0.0421076
0.000442825
0.0215961
0.027099
0.000445274
0.000457235
0.0367363
0.000452791
0.000456788
0.000443824
0.00044916
0.037848
0.000440457
0.00068225
0.0181182
0.000977383
0.00044736
0.000488342
0.0327216
0.000428554
0.000443001
0.000458007
0.000450773
0.000468786
0.0446516
0.000452002
0.000449004
0.0112553
0.000446103
0.0256655
0.000455567
0.0366612
0.000461256
0.0218272
0.0260392
0.000446468
0.0371497
0.00085024
0.000471158
0.000449471
0.000440322
0.0222969
0.000437259
0.0266045
0.000443395
0.000471641
0.000898498
0.0242402
0.000436976
0.00047004
0.000441266
0.000493072
0.00045044
0.000494368
0.000437082
0.0327734
0.0116157
0.000453168
0.000444982
0.0387689
0.0103585
0.000450474
0.000430223
0.038748
0.0198833
0.0270863
0.000487538
0.000479789
0.0257855
0.000529306
0.0456356
0.0370158
0.000464726
0.00044757
0.03618
0.000632334
0.000443962
0.0290285
0.038621
0.0377371
0.000435327
0.000525139
0.000529626
0.000458029
0.000454511
0.0138457
0.000499313
0.000443673
0.0192719
0.000450104
0.000437669
0.000520053
0.00869297
0.000446741
0.0375319
0.000450662
0.000462007
0.000456708
0.000459398
0.000440274
0.0263644
0.0186933
0.000443341
0.0381432
0.000440654
0.000445009
0.0284735
0.0235723
0.000433583
0.0205897
0.000456632
0.000438061
0.000446956
0.0454595
0.0291062
0.000429295
0.0453023
0.0398011
0.0262433
0.000515926
0.0309386
0.0236975
0.000463607
0.0234518
0.000445624
0.000451189
0.000448861
0.0392819
0.0173004
0.0124286
0.0233813
0.000436025
0.000437688
0.000443147
0.000501606
0.000465812
0.000427168
0.000451337
0.000447305
0.0392813
0.000442435
0.000450485
0.000428013
0.0380732
0.000447063
0.00042674
0.000441935
0.0439576
0.000446882
0.000463855
0.000489089
0.0170434
0.000437265
0.000618355
0.000502118
0.00047628
0.000971772
0.0292646
0.000462839
0.0247511
0.0189954
0.000458817
0.00044726
0.000445928
0.000451541
0.000525998
0.000498502
0.000453261
0.0226893
0.000427177
0.000472024
0.000465478
0.000450526
0.000446688
0.000450469
0.000467722
0.00044381
0.000570718
0.000985126
0.0372683
0.00192216
0.00100628
0.000606074
0.000429801
0.000624801
0.024286
0.000448074
0.00196071
0.0179202
0.0242625
0.000449712
0.0379923
0.000457517
0.0287065
0.000446504
0.000439762
0.000450647
0.000464679
0.00495924
0.000634428
0.0152034
0.0448848
0.0363187
0.000447001
0.000436548
0.00048096
0.0249494
0.000442179
0.000444024
0.0201374
0.000444189
0.0332856
0.00046954
0.000600588
0.000445433
0.000438429
0.0338581
0.000435673
0.0263644
0.033395
0.00145124
0.000444049
0.00046438
0.0392183
0.0277066
0.0127894
0.000443521
0.000622515
0.0117158
0.0377334
0.0355297
0.00044497
0.000449343
0.000449272
0.000442978
0.00048287
0.000548497
0.000429855
0.000459897
0.0380482
0.0448572
0.0278786
0.000571665
0.00412469
0.000437044
0.000436904
0.00095272
0.000456651
0.000611417
0.00055413
0.000472292
0.000443217
0.0186513
0.0407177
0.04394
0.000463942
0.029501
0.00044402
0.000482516
0.00489477
0.000426525
0.000452022
0.015257
0.0217165
0.00047641
0.000544002
0.000455537
0.0370423
0.000454907
0.0297865
0.000450087
0.000504379
0.0248221
0.0335811
0.0193251
0.000459329
0.000439961
0.000718386
0.000490274
0.000462421
0.000723443
0.0131636
0.000418608
0.000450974
0.000533928
0.000473897
0.000521786
0.000481973
0.000455603
0.000443294
0.040228
0.00677561
0.000454099
0.000427155
0.000508323
0.000447907
0.00054592
0.000712004
0.000443314
0.0129696
0.0328677
0.000432462
0.00045042
0.000457839
0.0391038
0.000548116
0.000440075
0.000442353
0.000427644
0.000452922
0.0306505
0.000304605
0.000461638
0.00786846
0.000472685
0.00048839
0.000421771
0.000549764
0.0376756
0.000428045
0.0239716
0.0195817
0.000504822
0.000455811
0.000479892
0.000456929
0.000469914
0.023224
0.000722134
0.014981
0.000450269
0.000439923
0.0203716
0.0206413
0.0119325
0.0141845
0.000607544
0.000446414
0.0128134
0.0373713
0.000429867
0.0394413
0.0393103
0.000448394
0.000654073
0.000448758
0.000440291
0.000445125
0.000437878
0.00053134
0.0238512
0.000444526
0.000428325
0.0391449
0.000981405
0.030236
0.0443366
0.0396392
0.000492737
0.000474878
0.000455566
0.00042925
0.00043978
0.000427218
0.0248
0.000549877
0.000448401
0.0186576
0.000429256
0.000920238
0.000448055
0.0437705
0.0026996
0.000457602
0.000458383
0.0358288
0.0240189
0.0406902
0.0237535
0.0140448
0.0379953
0.000594706
0.0291992
0.0322551
0.000446138
0.000443993
0.033001
0.000435777
0.000455263
0.000446905
0.000441793
0.000519979
0.0371274
0.000467814
0.000468641
0.000526553
0.000465116
0.0261772
0.02969
0.000459324
0.0061142
0.000579451
0.0246454
0.00046462
0.0296495
0.000500169
0.0364265
0.0390664
0.000467341
0.000478144
0.0278064
0.000487754
0.0227033
0.00484349
0.0379344
0.000492323
0.000518158
0.000445234
0.0447556
0.0297146
0.0402477
0.000436449
0.000588401
0.000464418
0.0240552
0.0173872
0.0283773
0.0287724
0.00129768
0.0270709
0.0372768
0.00043943
0.000843995
0.0374852
0.0391025
0.000562245
0.000478408
0.0148663
0.000447269
0.000451932
0.000442497
0.000472561
0.0274914
0.0291841
0.000430579
0.000467977
0.000454396
0.000451359
0.0373301
0.000452014
0.0336833
0.0201086
0.042872
0.000448321
0.000452365
0.000441981
0.0337867
0.00487776
0.0355342
0.00043595
0.000449718
0.00473908
0.000463793
0.0199979
0.000450454
0.0463065
0.0192307
0.000450193
0.00051397
0.0136922
0.000451077
0.000451123
0.0203334
0.000740954
0.000452
0.0307048
0.000721632
0.0202446
0.0446386
0.0428742
0.000569812
0.0331598
0.0288671
0.0179725
0.0333949
0.0339659
0.000457131
0.000612261
0.000439497
0.000440133
0.0133236
0.000494927
0.0205752
0.000450885
0.000653526
0.00178961
0.000458192
0.000452089
0.000451116
0.0386879
0.000443849
0.0419343
0.000424582
0.0344958
0.026015
0.000443607
0.00965311
0.0364062
0.0133037
0.000445352
0.00043605
0.00044585
0.0364648
0.00049534
0.000729473
0.000454808
0.0270938
0.000497902
0.0174126
0.0421424
0.0287441
0.0171638
0.0161443
0.000496298
0.000454141
0.0424273
0.000464637
0.0231617
0.000527657
0.011699
0.000455181
0.000441868
0.0356918
0.000442113
0.000748561
0.0364028
0.0248017
0.000452089
0.0378996
0.000463055
0.0361889
0.00224519
0.000453142
0.000455131
0.000441044
0.0283459
0.0187091
0.0372824
0.0329881
0.000445369
0.00050114
0.0382968
0.000437486
0.0436813
0.000440059
0.0319306
0.000507766
0.000587563
0.000443143
0.0320752
0.0241452
0.000593745
0.000466297
0.000450084
0.00432601
0.000452663
0.000456264
0.000597027
0.0148497
0.0185772
0.000444624
0.000441071
0.000550057
0.0384026
0.000596101
0.0417575
0.000492648
0.000505797
0.0380845
0.0381795
0.00051198
0.0157231
0.000446198
0.0375794
0.0242836
0.0464318
0.0004416
0.000768015
0.0188212
0.000459027
0.03684
0.000457139
0.000437405
0.000457736
0.000452964
0.000336244
0.0310282
0.000445166
0.000451023
0.0150645
0.000466248
0.000440124
0.000446009
0.00922787
0.000435433
0.000463973
0.000444133
0.000441538
0.0146263
0.000500609
0.0355694
0.000436648
0.0240796
0.0372697
0.000456876
0.000436511
0.0238717
0.000451827
0.00045222
0.000651893
0.0178989
0.00054576
0.034051
0.000454597
0.0317254
0.000470243
0.000454629
0.000456309
0.0192565
0.000434105
0.0374104
0.0177125
0.0222822
0.000954299
0.0173025
0.0122371
0.0384039
0.0097678
0.0163651
0.000496534
0.000458262
0.0376078
0.000450257
0.032367
0.0277723
0.000464129
0.00436165
0.0257697
0.000453065
0.000431644
0.0105774
0.0408082
0.000433592
0.0332204
0.000458311
0.000435225
0.0265976
0.0388197
0.000440581
0.000523985
0.000452835
0.0375229
0.00045312
0.0310525
0.00274231
0.000477757
0.000433242
0.000501178
0.0373831
0.000445044
0.000474839
0.0340021
0.000435255
0.000484899
0.0226998
0.000446762
0.0351881
0.000448282
0.000455239
0.0327207
0.00045443
0.0110775
0.0153037
0.0200471
0.000449652
0.0461368
0.0400002
0.000451238
0.000440093
0.0132049
0.000561461
0.000448606
0.000668954
0.023148
0.000466558
0.0390293
0.0227442
0.0225232
0.0438469
0.000463339
0.000445464
0.000444882
0.000432341
0.0422394
0.000453562
0.0345259
0.000445334
0.0183874
0.000439742
0.000866466
0.0241342
0.000454169
0.0215857
0.000564308
0.000523943
0.0183844
0.0248196
0.000468113
0.000443747
0.035801
0.0004623
0.000498997
0.027233
0.0372322
0.0331658
0.0378355
0.0363733
0.000521147
0.0361958
0.0389841
0.0384333
0.000467346
0.0276293
0.000474848
0.000446354
0.013631
0.0210286
0.0239976
0.000437901
0.000440735
0.000498053
0.000436073
0.000441816
0.000519454
0.000469176
0.000427926
0.000466382
0.0232287
0.0218185
0.0140499
0.000450782
0.0425954
0.0372028
0.000481396
0.00174691
0.000428869
0.000447353
0.000450807
0.000655283
0.0376644
0.000534661
0.000423922
0.0239457
0.000468697
0.000431266
0.041131
0.000454285
0.018749
0.000446926
0.0350213
0.0319039
0.0185144
0.000452384
0.000449433
0.000439964
0.000482509
0.000435913
0.000451251
0.0229806
0.000519689
0.00819169
0.00146446
0.000725243
0.000613967
0.0231527
0.0226255
0.000439869
0.000493412
0.000457513
0.0120741
0.0208156
0.000465012
0.0213654
0.000451946
0.000452838
0.0020653
0.0391499
0.000440529
0.000577504
0.000518261
0.000453439
0.000438774
0.000456457
0.0304531
0.000451921
0.000450056
0.000497526
0.00503101
0.000452238
0.0330413
0.0383082
0.000507227
0.000616681
0.000442392
0.000491674
0.000501324
0.000348237
0.000449624
0.0377729
0.022884
0.0254181
0.0355411
0.000449902
0.000449335
0.000621394
0.0183692
0.0439706
0.018924
0.00043361
0.00791603
0.0445993
0.0198597
0.0378575
0.000460021
0.000463172
0.0197672
0.0300029
0.000497626
0.000441269
0.000456605
0.0385148
0.000432508
0.000451697
0.0390816
0.000539472
0.000471572
0.0247804
0.000493402
0.000488403
0.000511452
0.0136903
0.016547
0.0193259
0.0375509
0.0389981
0.020183
0.0378267
0.000450341
0.0433916
0.000444159
0.0272628
0.0417173
0.0147444
0.0194379
0.032051
0.000521616
0.0414951
0.035888
0.00044198
0.0009259
0.0393099
0.0135689
0.0299081
0.0375404
0.00417481
0.000504103
0.000518485
0.000434491
0.000433579
0.000526452
0.0267426
0.000469536
0.0391941
0.000460193
0.000817187
0.000433045
0.00118246
0.000448068
0.0328825
0.0372774
0.000500295
0.0368605
0.000872888
0.0139965
0.0165396
0.0369381
0.000453597
0.000455749
0.000511495
0.0368807
0.000574774
0.0235143
0.000463593
0.000447034
0.000864873
0.0394374
0.000503104
0.000438102
0.0383188
0.000483465
0.0431993
0.0281374
0.000448524
0.0303851
0.0245167
0.000445681
0.0380283
0.0244011
0.0171618
0.0183767
0.000498338
0.0361826
0.000521913
0.000477654
0.000701276
0.000436556
0.000880957
0.0230631
0.000700616
0.000804372
0.0181988
0.000629048
0.000439946
0.000502536
0.000954546
0.000455014
0.0158077
0.000443599
0.00066132
0.0374819
0.0161332
0.0261009
0.0326045
0.0378031
0.000444887
0.000733211
0.0340178
0.0201315
0.000445678
0.000435628
0.0213659
0.000435646
0.00044871
0.000683647
0.000548459
0.0362866
0.000455776
0.0358816
0.000824039
0.0381086
0.00068719
0.000465483
0.000611433
0.000441524
0.000457906
0.0280106
0.000450227
0.0393678
0.026472
0.000443866
0.000464748
0.0390613
0.00075937
0.000577943
0.00090341
0.000506774
0.0459754
0.000692929
0.0372836
0.0231668
0.0316561
0.0244119
0.038983
0.00681628
0.0165421
0.0235421
0.000457341
0.000463754
0.000699821
0.0396321
0.000691507
0.0242049
0.017764
0.000474226
0.000463389
0.0151633
0.0273228
0.0343407
0.010791
0.0359873
0.000478703
0.000469508
0.000461305
0.019807
0.000601434
0.0441231
0.000453371
0.0239404
0.0380742
0.000442484
0.000462676
0.0283184
0.000659293
0.0144048
0.000455877
0.000461371
0.000435679
0.000493332
0.000438066
0.0376201
0.00044601
0.0358205
0.000459308
0.0256728
0.000441035
0.000788759
0.000510901
0.000646492
0.00044731
0.0130574
0.000593431
0.00102085
0.000870499
0.00305888
0.0351577
0.000721885
0.0265437
0.0159372
0.0382131
0.0138586
0.000907319
0.000455194
0.000442159
0.000837875
0.000552608
0.00045071
0.0109684
0.0392824
0.00063803
0.0344333
0.0170192
0.000443911
0.000469709
0.0288034
0.00048488
0.0342936
0.036588
0.000445966
0.0158796
0.0352448
0.000529583
0.000721725
0.000920607
0.0246747
0.000450929
0.0462041
0.0267418
0.000449163
0.02471
0.00384239
0.000672914
0.0392884
0.000447402
0.016923
0.0283051
0.000700139
0.0143487
0.000449523
0.00043413
0.000608549
0.00087111
0.0273953
0.0312273
0.0213858
0.000450744
0.000440971
0.0272318
0.0417022
0.0385647
0.000523321
0.0116969
0.000495845
0.000429276
0.0382875
0.000862918
0.0382463
0.000586058
0.000468736
0.000506916
0.0381306
0.000702531
0.0102912
0.022822
0.0437959
0.0383191
0.0383321
0.00678382
0.0220256
0.00920972
0.0352848
0.000565585
0.000918616
0.000437321
0.000489701
0.000940559
0.000700333
0.000440303
0.03557
0.032848
0.0372732
0.00085307
0.000503393
0.0160989
0.000940823
0.0427387
0.000477375
0.018254
0.00163299
0.000946513
0.000764346
0.0228547
0.000622486
0.000439847
0.000457672
0.0443348
0.000527545
0.000434936
0.000590513
0.00160377
0.000451337
0.000451266
0.0231472
0.0380492
0.000509493
0.000494033
0.000478622
0.000460437
0.0348046
0.0205868
0.000445851
0.0347362
0.000435661
0.000472014
0.0410755
0.000499213
0.000478934
0.000535957
0.0356331
0.0163362
0.0315923
0.000458296
0.0371332
0.00045278
0.000473718
0.000376022
0.0120958
0.000575164
0.0441987
0.0300788
0.0303463
0.000567906
0.0114184
0.0439632
0.0260963
0.000520936
0.0381801
0.000613344
0.000520755
0.000815847
0.000537874
0.000432856
0.000587856
0.000602401
0.000447033
0.00051748
0.000600321
0.000502267
0.000719717
0.000436031
0.000458199
0.0243883
0.000445704
0.000579495
0.0037093
0.000459564
0.000440534
0.000499881
0.0172086
0.0387607
0.0104807
0.00051402
0.000493858
0.0456291
0.000449117
0.0385446
0.000618588
0.0301842
0.000943721
0.0364976
0.000473
0.00568678
0.000439723
0.000464667
0.0458948
0.0264007
0.0374969
0.000488966
0.0383045
0.0227494
0.0377203
0.000717397
0.0005736
0.000445248
0.0437408
0.00808667
0.000507353
0.000439275
0.000771255
0.0384976
0.000436617
0.0380408
0.000544129
0.000449867
0.000451553
0.000457204
0.03671
0.0223555
0.0280267
0.000449999
0.000446271
0.000559123
0.0004456
0.0394534
0.000440758
0.0346883
0.00053532
0.0379767
0.000627437
0.0146202
0.0461017
0.0156784
0.0452331
0.0381882
0.000438931
0.00362417
0.00048129
0.0004419
0.0212966
0.000491608
0.000448648
0.000446395
0.000498134
0.0315032
0.0150157
0.000451112
0.000451176
0.000480155
0.000542759
0.000460567
0.0117045
0.0154946
0.0004502
0.000474529
0.044802
0.0150863
0.000542051
0.0381296
0.017361
0.0315118
0.0214651
0.000481229
0.000462216
0.0380722
0.000450792
0.000453099
0.0199613
0.000435563
0.000552214
0.000510424
0.000448362
0.0368914
0.000490986
0.000504295
0.000446248
0.000441457
0.000471563
0.0202952
0.000445016
0.000507075
0.000469167
0.046081
0.000438607
0.000462382
0.000573396
0.000449571
0.000525206
0.0274923
0.0227103
0.000453349
0.000456706
0.0004643
0.0444401
0.0374749
0.0367083
0.000452601
0.000463208
0.00044098
0.0443716
0.000452214
0.000860237
0.000497498
0.0256148
0.0353288
0.000627973
0.000493926
0.0006624
0.0331369
0.0110005
0.00031002
0.000456094
0.000448682
0.000486466
0.0138157
0.0271394
0.000463418
0.0348423
0.0181
0.000473066
0.0129898
0.000435945
0.0332364
0.0151152
0.000441818
0.0387157
0.0387571
0.000473166
0.001537
0.00046119
0.0275034
0.0223425
0.000457235
0.000453105
0.0405403
0.000435031
0.0122834
0.00238468
0.0381857
0.0280113
0.0253793
0.000456312
0.000475676
0.00549358
0.000436946
0.000860226
0.0431397
0.0361587
0.000440572
0.000471325
0.000496924
0.000450164
0.000701339
0.0361996
0.000458222
0.000450701
0.0124971
0.039396
0.000595562
0.000463553
0.0351225
0.0359244
0.00045544
0.000562854
0.000461028
0.0115412
0.0402401
0.000448283
0.00683231
0.0389006
0.0379904
0.000628517
0.000468379
0.0409096
0.000488102
0.000503588
0.0389251
0.000451375
0.0191425
0.0308528
0.000526727
0.0300327
0.000698641
0.000502156
0.0134534
0.000463229
0.000462559
0.0272736
0.000452013
0.000499032
0.000598328
0.000430115
0.000455663
0.00044136
0.000455117
0.0381172
0.000443792
0.0253886
0.000543222
0.000446467
0.000445627
0.034101
0.0215879
0.00060651
0.000454982
0.0392197
0.000458067
0.000474106
0.000448224
0.0299797
0.0125173
0.000460475
0.000464642
0.00103466
0.000870877
0.000566169
0.000449066
0.0368013
0.000440955
0.000444866
0.0144808
0.037327
0.000752991
0.0029848
0.0187626
0.000435585
0.0220867
0.0459142
0.00980734
0.000458227
0.0271646
0.000457642
0.0418407