/*--------------------------------*- C++ -*----------------------------------*\
| =========                 |                                                 |
| \\      /  F ield         | OpenFOAM: The Open Source CFD Toolbox           |
|  \\    /   O peration     | Version:  v2012                                 |
|   \\  /    A nd           | Website:  www.openfoam.com                      |
|    \\/     M anipulation  |                                                 |
\*---------------------------------------------------------------------------*/
FoamFile
{
    version     2.0;
    format      ascii;
    class       volScalarField;
    location    "200";
    object      ddt0(ReThetat);
}
// * * * * * * * * * * * * * * * * * * * * * * * * * * * * * * * * * * * * * //

dimensions      [0 0 -1 0 0 0 0];


internalField   nonuniform List<scalar> 
13851
(
-12.0211
271.113
166.998
-3.26399
-30.9924
-28.3688
0.306523
30.3416
-0.015791
29.5361
0.541577
-42.0239
61.9024
4.98784
-0.247934
-1.99278
0.94922
86.6632
61.8607
0.0019565
-3.11425
22.7573
0.0424526
0.21803
0.0928276
45.3655
-8.64793
-1.80595
-23.9218
7.85075
-23.3563
3.88005
286.389
-14.5413
0.332468
0.340576
36.0086
-38.9536
32.3376
-23.475
-1.21244
0.0648526
0.975759
-1.3707
-6.58111
7.68957
2.25675
-34.6595
4.20735
-233.105
-69.907
-172.232
-1.98072
0.0222854
0.0314618
0.0626048
-0.0867017
-4.34434
10.7362
0.882898
-94.6769
0.0851601
37.4805
-32.8831
1.80043
-6.02195
420.231
10.9624
-8.63325
87.9522
-1.61388
-122.619
-197.377
0.0163815
0.146932
-0.0362752
65.1715
0.381188
32.778
-1.24142
0.548979
-1.64534
0.21671
13.2506
45.2437
-54.0255
-146.861
37.0123
8.88936
0.0917117
-63.0138
-1577.77
11.5388
7.68981
2.63744
-0.0492715
-36.6747
5.6727
-94.291
-0.00774526
-13.3099
-37.0868
3.38617
1.7375
-0.0365952
-240.763
-49.6622
0.00756195
-13.0471
-16.5994
-0.177879
-0.437189
-86.6868
0.0908923
0.0484184
110.952
6.24183
0.0395538
0.584996
-0.243938
2.51093
-2.96746
106.069
57.9149
-50.0603
32.0398
-60.4985
-24.7988
-2.08979
-41.9609
-0.353647
-0.0400926
-1.69102
-1.04319
286.186
-0.35398
0.0450783
-46.9648
5.59173
21.777
-8.12644
0.284741
-0.975179
-0.428928
5.41172
1.04129
-173.313
-36.5299
-0.0392143
-9.17949
16.2898
-0.142229
5.89257
-0.140026
-5.56912
-1.22072
0.108261
0.719519
-166.067
-69.656
-0.156403
-9.53936
-3.5567
-0.325565
-48.2637
-0.0456815
-279.262
3.09714
-2.34475
4.25587
0.409037
0.0179045
-0.0217502
21.578
-0.330753
-12.3321
-1.00961
-17.255
283.12
-0.0360312
3.17984
-97.802
0.338203
42.1964
-0.0045168
-0.00931437
-8.65274
0.0875186
-22.7281
27.3267
8.33182
-2.09702
-1.96441
4.15494
-1.59874
-2.03697
-2.0752
14.3389
-21.2066
-0.0469453
21.6898
4.10505
-1.04492
0.300653
17.6621
0.665506
-15.5626
5.67209
-1.16335
-0.0615409
-1.27909
1.59232
26.7039
-0.0509376
-0.151584
0.911844
55.5408
5.12001
-0.47106
-1.01522
0.0972383
-4.71523
7.53331
-185.809
-2.51114
-0.0455304
10.7188
-0.025237
-1.11894
-0.06126
74.3306
-13.4094
0.0111675
-0.804495
-45.8322
-28.9495
-17.4007
-0.268797
-0.303311
0.845068
-44.7639
8.262
-0.171859
30.5531
-0.0339031
-1.56502
-49.3665
-27.3707
-12.319
-1.84842
131.101
-6.22179
-4.23039
-9.31194
-19.4895
172.137
24.0304
-106.359
3.92122
-0.208568
-0.16863
27.6724
22.2414
-0.627739
41.6924
-2.17562
-2.3315
7.77092
9.73295
-13.2898
119.994
0.533959
29.6219
32.788
-11.6132
0.096042
1.14363
-25.8442
-3.95788
1.3662
-1.59763
-0.0491704
-0.0548082
-27.2903
14.5
3.44547
0.0432814
0.191955
20.2509
-5.0655
-21.4773
7.37795
1.25643
1.32767
-5.25883
52.7117
-34.6385
-83.9858
-0.179411
-1.51467
-7.97128
1.03096
-4.02583
0.92542
-212.403
2.38521
0.0411571
-16.3879
12.6209
6.03921
3.3375
-48.192
0.11694
7.02224
0.0609252
-2.57908
30.8479
-5.0516
49.1933
-0.181621
-32.7171
-0.0418212
2.60836
121.513
0.0281038
-0.729411
23.3399
11.8532
1.77483
0.388922
0.987564
1.44053
-0.787524
5.80407
3.46241
32.8444
-5.17209
-10.2281
0.0910339
4.95442
-28.4326
-52.7472
165.756
-76.1395
-87.6262
-8.54558
8.60702
0.456075
-0.338737
247.095
103.574
13.1401
-8.95418
-2611.36
-1.83813
-0.156799
1.70428
-0.352005
0.096607
-0.022104
0.00703953
0.397411
0.630184
7.91341
0.243035
-15.2946
0.0609969
-104.392
-35.1306
3.48647
3.98235
0.421011
52.3114
8.08763
1.0718
-0.409407
0.0197067
-79.9414
-8.51753
0.246753
2.01819
-235.128
-80.2473
3.78004
3.32069
10.122
3.34077
-0.207316
0.199411
17.7722
-30.257
3.92473
9.23222
-3.0724
1.75207
0.0276573
0.149609
3.78665
-1.58787
-24.9086
6.83549
124.066
7.67526
0.0954987
-8.39371
-0.0358279
-12.8328
11.5305
-0.0448362
-0.0760248
0.0152085
-0.0354632
-36.5067
-81.9837
2.98899
47.693
-42.4083
7.92214
-11.6505
-11.3356
-151.659
1.27412
-4.62421
0.0360338
0.0199615
-0.00768379
77.1436
-23.0756
-46.1204
-43.5822
2.82915
-7.09884
-185.591
-0.211079
-43.3361
0.164458
-13.4652
0.0452665
-51.1415
16.6842
129.83
-0.874789
-31.6404
-203.972
12.5285
-13.769
-0.0862692
6.62342
18.6431
-18.6903
-0.0534287
0.514354
-6.61132
-145.836
94.0852
-4.68417
-0.0294288
-1.18477
11.3333
-17.1939
-0.0714145
16.0515
-0.0656065
-6.21976
-0.0431832
-26.0877
1.24057
-0.064858
-11.2989
8.51759
0.402605
-3.40854
-0.15589
-11.9423
-38.1711
-1.06554
0.20299
0.23368
0.0306737
1.89364
2.40687
-87.8547
0.767095
0.0379802
2.86666
-1.01587
0.0804541
26.2267
-0.120297
33.0384
13.2723
-1.51566
-3.6879
-0.242313
-7.62
-0.862457
0.133023
0.043053
-1.68679
-41.2603
0.06652
46.9382
4.86102
75.663
1.09519
0.422782
21.5772
0.0303186
-0.138731
-0.198666
0.0777865
-1.62197
-48.9021
-34.9468
-403.006
39.5259
-0.220509
14.1866
-25.8683
3.63869
5.00944
81.1277
68.3457
-2.33156
-0.279347
-1.00602
10.6732
2.67771
-82.4776
22.4058
-84.9443
-86.1337
244.414
21.3891
-18.6154
3.12972
-15.9187
-145.439
0.0207341
-52.1925
-51.719
-1.01407
-7.9229
-1.01595
0.199438
-0.943067
-24.8308
-20.76
24.9244
90.791
-0.027701
6.20869
0.276434
-435.833
-16.183
-13.3722
-0.0754035
-0.0107863
116.094
11.0303
-6.40657
-1.08632
10.6206
0.0510215
37.138
62.4096
1947.07
-214.977
-1.65763
-149.879
0.13701
-0.17816
-8.90284
1.76395
-64.6732
1.36487
27.2376
-0.00593393
0.212636
-37.8309
0.0432884
-2.4595
-0.0279067
0.123251
-102.33
-33.7817
-22.2868
0.0416152
0.0591054
26.6012
-0.00267384
-0.00799244
-0.474701
-0.0270142
-3.88042
-2.02454
20.1171
1.30645
13.0675
-8.47844
-1.02341
-1.26317
-9.72415
-19.7826
-0.0608185
43.7795
3.25438
11.8559
6.76141
-25.6982
11.7212
-0.00313803
-14.0911
-3.62614
8.05978
-58.7743
-1.09553
55.7634
-0.045593
-1.04615
-43.2223
0.123724
-0.129404
-26.6527
1.61424
-26.7957
370.299
-87.8967
-42.8106
-81.1629
0.0117872
-85.4294
79.0974
0.243851
1.46593
0.116406
-40.6103
14.7675
4.02346
-0.328312
3.3691
0.11125
-0.0403695
-114.156
2.56141
0.427038
0.0108549
0.174439
-69.863
34.5878
-26.14
0.0261609
-18.6201
6.05279
-19.0319
-0.0249502
-0.0141874
0.0515105
-36.9761
-4.46032
-39.1717
0.662189
0.45116
-0.00789396
-0.000690424
-0.153222
-103.279
-15.6738
2.62708
0.0237592
0.244112
-0.124211
-140.744
-2.68056
-29.6142
5.17291
36.9592
-0.196413
-77.4144
-15.1959
-5.86658
-32.095
3.79068
65.9407
-28.2726
16.7129
27.2457
1.02487
-75.6247
0.0785094
-15.8046
-0.765677
0.329829
4.14646
17.684
-0.156989
3.59817
20.0218
17.8241
-77.5741
62.3223
-3.22938
-0.0306178
-0.0655414
3.12976
-2.97386
-64.8853
-0.0551153
-0.00399364
0.144854
0.051322
6.39534
189.969
-22.5393
-5.4407
-14.3207
17.06
0.00863461
-4.22697
89.1751
1.80937
0.0662502
3.2468
-0.593817
-2.64914
-55.0133
-1.63715
-16.7298
-0.861101
-3.77976
-129.198
194.189
-6.63139
6.69677
13.6393
52.4293
-40.8431
0.164043
0.361506
1.34554
-0.00165648
2.47463
0.777787
-117.449
-24.256
-21.8508
0.0162505
30.4258
0.0746234
1.66578
0.025283
0.237505
-0.0435449
2.24796
0.296701
-0.0577223
-39.812
-0.243807
-0.577466
0.0297422
-2.56401
-30.6587
-584.506
29.4833
0.192326
16.1306
5.23803
1.21575
3.70543
-17.7938
-0.037326
-133.478
-0.618155
2.24506
-14.1784
-0.0162277
0.024418
-6.59433
164.602
-75.557
-26.2474
-122.172
-0.101823
-1.9913
-24.5045
-3.09908
-22.9614
14.7374
0.469221
-19.1356
-64.1469
-5.77872
-19.8564
-12.8344
-76.955
0.306803
4.88573
-193.445
0.23118
13.4814
4.88471
-7.92847
2.28406
-0.0262078
20.9267
-5.13817
6.97279
0.0458664
0.0933134
-46.1593
-5.53352
0.0109125
-2.4607
0.0090818
0.287463
10.6865
-0.329615
-5.5587
0.0807921
0.096405
-2.69558
-66.1726
-78.0458
-5.64328
3.57503
1821.85
-5.83183
-50.6383
-17.8805
1.00278
0.00686291
676.672
9.82368
-1.53223
89.4898
14.0222
6.88022
1.32996
0.188893
-0.0945516
-2.68234
-0.103635
-16.9035
8.08176
-18.626
0.20183
-1.78997
-0.00914624
-35.4726
0.73399
-25.581
-9.27231
-7.68966
5.35436
-19.9833
-25.3108
0.133737
-47.8996
-6.75752
42.3447
-5.69916
-0.0824214
-0.366336
11.1592
-0.977893
0.491538
-1.20251
-12.1481
-0.423374
-10.1414
224.804
-0.417973
1.86094
0.194979
148.374
-1.32316
0.273562
5.69045
327.859
21.9828
-9.43361
3.29673
-0.0353933
-59.1659
-0.981945
-270.432
-12.0844
-2.98217
-10.2161
13.0715
-74.3896
0.0038996
26.7125
-0.182735
-0.379049
32.6807
-0.0303782
-27.8985
-6.46932
0.36103
-2.41091
-0.0708407
1.38062
-1.74409
4.77647
2.03928
-10.7978
0.208383
10.2649
-0.148004
-0.270051
0.0572531
-0.00748471
-1.56897
0.552056
-27.1348
-0.507037
-8.91653
34.3851
-2.5581
0.198698
-4.05649
-171.076
48.7611
0.0613519
29.7327
-1.55477
1.82332
-21.5845
-23.4109
146.504
-0.103732
49.4127
-4.7873
0.00284145
-7.91272
-39.7446
-8.69928
0.00576251
8.88507
-0.0488039
0.191782
4.21106
-11.0794
268.633
-1.68373
-0.227628
-76.427
-0.10198
-0.130187
-0.00458816
4.59117
-51.1477
0.0998227
-29.6596
11.786
16.8648
17.3167
-0.636903
0.691991
60.5316
-0.58942
-0.0779223
-47.1841
2.68423
-0.0213646
-5.1046
0.0529775
0.342661
-16.2225
25.9281
6.20056
13.4467
-0.309624
-85.6332
11.6526
0.239051
-6.47518
168.478
21.1032
0.0349747
-0.552908
15.2215
-5.07965
-0.0259348
118.495
21.6647
7.05412
-1.67743
-0.0148732
-9.73487
-354.294
3.63522
0.219877
4.42734
-55.7195
-1.33412
-128.188
-7.10588
-95.7026
-28.5781
-7.5538
0.0873905
-1.14935
211.206
-11.7936
1.28644
-18.6952
43.6932
3.18146
-3.75791
-16.4293
-0.0368888
2.71062
186.666
334.211
-189.362
-0.276394
-0.0389198
-2.19219
16.669
-16.031
-0.0141865
1.24478
0.165301
-73.066
-0.062103
0.068126
-1.76036
16.3037
-20.6688
-30.8223
39.2994
-0.202736
22.6839
33.2845
0.353407
3.84394
-10.1991
-26.7679
-0.0581859
-22.4838
0.896369
0.0541188
0.220575
0.733889
-41.4335
-16.4654
-6.10652
-13.6766
5.12683
-0.00355328
0.548918
-123.084
-127.636
-0.152548
-5.70864
102.666
-1.65422
-0.262802
-346.861
-67.77
-6.47716
49.5195
4.29439
-20.3173
-44.2391
417.937
0.17589
-14.3052
3.67411
-0.0274513
16.1143
-0.0502884
-2.75525
-9.64672
-0.99159
-0.403835
6.89039
16.404
-11.5731
-191.047
-5.35366
-0.276075
-5.90178
-28.1269
0.0515445
10.3985
-55.2943
3.28677
11.406
1.09648
0.582356
-8.09199
51.6616
8.30114
87.4222
0.074017
3.01948
-0.747174
27.3469
-24.5374
1.02089
-198.894
-0.0665841
36.1398
12.3766
35.7112
11.4907
1.25839
5.37606
-43.6542
-34.4323
4.29502
39.1053
-1.63234
1.85367
-68.2844
-0.330314
-5.2158
1.86991
1.94554
3.46295
0.656729
-110.641
-0.0894011
-9.09419
-0.579788
96.4158
-21.2144
-0.117661
-0.5706
-1.48186
17.5272
4.01092
0.0161423
0.0626612
-0.118844
-0.00923036
4.08663
3.23149
59.3739
285.9
-26.267
-512.198
5.84521
-0.729773
-52.215
14.0982
0.209191
-38.4301
-2.54438
0.254554
0.169197
-2.3617
3.50067
22.4536
-0.400347
9.3115
-0.160347
66.5013
0.476055
48.9787
0.569295
-25.616
10.6986
9.22469
-7.65779
-3.31738
-0.961296
-20.9815
-107.133
-8.87523
-125.329
-1.09048
-19.6992
-1.63369
-0.214998
-0.00382241
22.1596
-0.0277932
-45.028
0.0517561
46.1011
2.02509
80.3591
-65.6041
-0.145111
173.125
-0.11575
13.0528
-902.163
-1.92863
-0.0104992
-55.4184
18.2805
-1.19289
-0.00799816
0.341796
-2.55513
-3.86108
-110.389
29.5406
-145.822
-562.591
-44.6922
-89.8495
1.70121
-18.9288
-72.758
-85.4689
-0.0239027
15.196
0.568738
0.028124
-13.3352
-0.267762
10.9976
3.30787
-601.686
1.96613
-147.196
-319.417
0.518284
-458.503
-114.116
2.13757
0.34482
3.07678
3.66664
-17.8602
-0.0695502
-169.076
-1.92884
1.12768
8.51314
0.203086
-0.643141
-4.61478
0.103252
-9.65052
-0.360633
1.34332
12.4597
29.1858
-6.0146
-8.23097
-1.09459
51.5804
-15.8394
-38.8504
-0.109073
-0.0470923
-4.37303
-13.7331
-1.40054
-115.778
-89.7792
-67.6613
0.247843
-26.2622
0.37738
43.4277
-11.226
-6.9516
0.555282
0.117253
22.8252
-2.05518
21.0371
5.2017
2.24535
-68.216
-1.79209
-0.189526
-39.1366
0.0199441
14.1378
-16.1826
0.54965
26.2337
-19.5545
11.4528
0.143789
-166.435
0.274855
-40.7387
0.0623336
0.26635
-3.09832
5.62357
9.60902
-5.63385
-38.6309
-0.0596135
-9.10653
6.52413
80.219
3.81299
3.79998
-109.798
-0.0430788
-0.336447
-249.177
-1.77296
0.0332793
-13.1839
92.0616
-187.649
-5.79017
6.30413
-1.75512
3.78971
-177.897
124.248
-7.276
0.243734
-27.9571
-3.39441
-2.17706
23.9903
34.4011
-3.57256
-7.06008
-3.21925
-7.91227
-24.7425
-1.03778
19.8651
-46.5625
0.0740553
-4.97731
-1.09928
-0.0640187
0.0052447
-284.378
-61.8752
-19.0456
0.450931
-2.45286
-8.10396
22.6571
42.2458
-6.13586
8.42298
4.22999
40.2377
-41.7735
3.23501
28.3684
-6.10049
0.0242825
-103.73
-0.0338449
143.514
-23.3078
-3.45514
-11.0548
16.744
18.3846
0.328843
-0.0641274
-0.0345989
-0.740162
24.3585
-48.7131
-110.762
101.369
27.8981
-32.9457
-15.7682
10.6306
-5.18931
0.0341433
0.0120828
-24.589
-2.06229
2.92327
-88.9795
0.559702
3.54773
15.3182
0.350608
-1.74244
-0.0519202
-11.8248
-56.7096
-93.4214
-2.37401
74.9499
-0.0892269
-1.90777
1.13429
-0.0885838
184.172
6.45048
6.11138
-23.6116
-10.3355
-0.0488809
-0.171187
-0.60623
-14.664
-3.80282
4.859
-3.34412
4.28493
5.44531
-34.9642
-19.9341
-0.0531088
0.230556
-0.0453616
13.6034
-0.034785
-3.4371
-124.109
22.7999
-34.9841
3.04999
-0.004569
20.899
-6.72033
0.0296105
-4.95365
-85.5724
675.526
9.13989
0.0375176
0.141832
91.6175
10.0579
-42.5672
-12.0509
-2.27037
-0.00688129
15.1247
-313.024
-1.68656
479.056
0.606147
-104.717
-1.13651
-3.48589
-0.225176
-1.96436
9.23021
-6.41359
26.6429
0.203685
37.1774
-1.23631
-41.3449
-5.74164
4.24826
18.8439
13.6034
0.371633
-46.986
-5.4972
-0.217862
0.0706626
16.6134
0.0150144
-1.45563
0.108555
217.723
84.4966
338.34
-25.444
2.23435
1.16065
-12.5984
3.03928
-0.0330919
73.2084
6.07075
359.159
37.8634
-87.1013
2.27978
-9.0486
-367.999
0.457382
0.264042
5.23358
13.449
8.22396
-8.77982
-18.0529
-172.267
0.217452
-1.65265
-10.3618
3.30848
-5.08354
-13.9223
-15.9886
-2.49269
-137.232
6.58613
0.441595
-1.65899
-1.12196
-7.09781
4.1733
-1.08608
-0.261659
0.58371
5.89437
39.5702
-12.0297
-2.70048
162.904
-4.05778
0.868842
0.060127
19.0277
-1.90256
23.8103
-17.1212
-0.206638
-56.1824
138.399
-34.2382
-2.41656
-12.3029
-2.77861
-5.18316
63.0332
3.97699
-1.5648
-122.93
4.91967
-1.36975
-1.62493
61.7914
0.249936
-4.35952
0.978867
0.0132864
-3.83374
0.126628
48.1602
56.597
-1.33208
0.848499
-0.0817926
0.0906679
-0.0531121
3.54972
10.4948
-1.41196
-55.4147
-2.12312
-200.524
-1.1937
33.3589
-8.69886
2.12957
-20.6851
18.443
-1.68556
-0.101015
-72.5831
5.29335
-7.46989
-4.43178
-51.0722
-194.671
-35.4482
-0.186688
-58.5562
0.108889
-2.04822
5.19452
-7.68899
0.603096
0.423817
118.535
-104.823
-117.978
1.19013
29.7259
0.0995763
-466.542
-1.76217
23.3776
-9.64666
6.66022
6.14231
0.206327
-0.073619
-8.18573
4.11915
7.04768
-0.501853
-1.55718
3.69436
-0.587726
0.531218
4.24738
-237.273
-148.647
3.42317
8.1104
-4.51857
-0.249978
4.76979
-0.0207216
0.982094
-4.39918
-163.524
2.91293
0.458913
-45.2954
3.20509
7.30074
-3.75194
-15.6
-0.723909
-1.5569
0.468106
30.8651
-90.898
-93.8333
-17.4528
6.19637
22.2056
-35.6741
-18.6782
-25.0861
0.777919
-1.38108
-1.33959
0.19043
8.84439
-13.5462
-3.33427
2.40799
5.41589
-0.340029
32.8035
-1.74392
-78.1199
-0.652547
11.2587
-6.52641
4.59509
-1.08155
-0.0665324
0.00289101
-45.4502
28.9603
-2.51243
-179.273
4.61899
15.9099
0.0137373
17.8975
8.54823
0.444307
24.6304
-0.641822
-8.79636
-0.844681
467.41
-0.0592032
2.81557
0.332374
-55.6787
-518.182
15.0579
-3.58597
0.801801
5.82728
36.4991
0.00147586
-1.28075
-3.06742
1.01865
38.1147
-0.113533
123.007
-32.3426
-1.51077
63.6884
-1.36816
0.130652
0.0248173
-61.0384
1.91595
-0.495389
-167.937
-8.32792
229.329
-0.465589
0.634284
-6.73589
39.6408
2.63841
3.41827
-121.004
0.0712297
3.32237
-3.2564
-2.17181
87.5821
2.54155
17.5844
-0.161703
3.07672
-7.41905
11.6768
-0.257499
7.09972
-1.7192
61.2711
-4.80246
-91.8101
0.133765
4.76116
-5.25457
0.141084
-189.087
-0.373535
-91.9081
-2.70005
-4.04989
0.0804915
4.83389
-0.00263194
-1.36543
-0.0491015
-4.42599
-4.11245
-154.734
233.554
4.08178
-15.4037
-23.6753
-54.849
57.0887
-2.0518
0.0251076
-0.0341339
0.231819
7.86696
17.8534
0.100509
-3.30852
-0.496264
-54.5758
-0.153997
-2.4126
-0.64256
0.0994458
-3.26154
3.20025
-5.71371
4.83295
-2.79888
13.9206
-12.3879
-4.28265
4.03082
-0.0699481
-1.55981
0.0518008
0.0399633
3.27571
458.475
-0.686502
-5.28395
-64.7093
-41.1503
-19.3809
-3.6588
-4.3677
66.4248
0.164038
15.7921
29.5612
-4.08071
0.710422
0.000957248
-0.00854049
-14.8011
3.14024
2.7388
-3.59014
-15.0906
122.058
0.672827
-54.3978
-3.20377
-1.99731
0.00601872
-0.604539
-3.4665
-0.0677563
-3.85388
1.27857
0.0326581
-1.33572
-4.37676
18.4725
-302.326
-0.824706
-71.0808
-5.94197
-51.8739
4.61489
-0.316171
413.124
-3.97742
-14.746
-3.87154
-4.74316
2.96378
2.35162
-1.49513
-7.74382
13.1015
9.49172
-2.53126
-20.3293
0.51774
-76.736
1.23605
0.880726
45.6925
4.30501
-1.5129
-0.524615
0.0141253
-3.51219
-134.034
364.766
-0.75107
47.4078
-0.583122
24.3801
-4.99063
0.543204
8.61963
-65.6504
3.54596
-11.8415
2.24669
2.05498
-5.82901
0.294116
3.48737
-9.94925
-0.155471
-0.353139
-7.5533
-0.0486928
0.327023
-0.972719
-40.1829
-51.7379
-3.65544
-0.921478
0.43352
-1.43264
-76.3178
-13.6241
-4.43385
-0.148514
4.15857
7.09544
-4.2312
10.7881
-0.130824
-12.733
-3.76692
0.739125
-1.73878
-104.681
30.1351
9.20412
5.91394
-3.80282
0.495273
-28.9952
2.31148
-8.79103
-1.66486
-26.6049
1.31822
-0.0470029
-0.0883481
4.18647
1.05393
-24.3182
2.74793
0.0390763
-1.23653
19.3423
3.69192
0.834403
0.141293
-0.739123
6.58708
16.5636
-2.29991
-0.319309
-16.6686
475.526
2.15322
-322.667
-0.215464
0.410568
-14.57
1.41329
5.08484
-4.87152
-48.3198
1.19269
32.1465
2.44884
10.1936
37.4769
-0.459052
-3.58415
-44.6714
0.00224927
-11.0801
-9.62343
31.519
-0.140001
-0.101851
-0.000300786
2.0131
1.94283
-11.0813
0.606239
-0.255411
-3.92299
-0.110468
0.217007
11.4433
0.492748
0.628469
-287.504
1.2231
-0.0445919
0.060324
1.09201
-56.9268
166.884
-59.7685
11.9945
74.8023
4.64282
1.94596
-2.35002
0.169482
-1.57471
0.0272817
36.1594
8.22544
-3.4337
-58.2192
0.536578
-86.5563
-0.139024
0.00317248
5.73521
-28.6537
0.282807
-229.547
236.16
11.8178
-2.14144
0.755581
-0.264957
-244.618
-0.00246638
-0.424506
3.93807
0.272197
6.73768
50.1564
-57.0179
22.4231
411.973
173.635
18.8424
-14.4066
1.78595
6.35205
-37.0702
-23.402
15.8645
0.511357
-43.763
-1.59921
-0.734586
411.356
0.0526507
1.94411
-17.1985
131.479
-218.076
30.6757
0.00221332
34.3743
-0.530508
26.0966
-0.0766181
125.951
1.62526
12.828
-10.457
0.492799
0.020315
-55.705
2.05366
-0.0339455
248.437
568.398
0.0371423
650.33
-1.53296
-5.5301
15.7078
0.0534652
-0.923366
8.77273
-0.793827
1.0212
-0.405886
0.693337
-79.1049
-1.07386
29.7857
-9.13405
17.803
-3.00517
-0.0314404
21.9857
-0.0224604
1.46131
362.49
-17.0622
-92.5134
-2.6342
-0.604769
-5.64768
-45.1141
2.02264
-1.70794
0.606863
0.0526943
5.75972
0.778594
0.0208472
29.7886
0.280238
-133.96
2.07491
1.34949
10.4124
40.158
-19.6842
0.0669388
-30.7056
-305.397
-0.0794185
-1.86241
18.3993
-26.1023
-2.56568
27.2334
2.84226
-41.7683
4.02567
-75.9648
-1.59654
-0.580206
-12.0595
0.120521
-12.7963
5.55881
0.0357758
-3.34955
17.2849
-0.0360319
-0.0604681
-1.69444
-10.815
-248.111
17.0526
0.0811557
4.71516
-5.68999
6.54191
-1.11697
-35.2095
-0.285069
203.821
0.597585
0.0592556
-2.92209
-5.89631
-0.0427486
155.088
248.038
-6.49247
-5.77425
-4.03446
-41.4374
-0.115551
-0.0210758
0.0179954
-0.144726
-1.40967
1.76368
-0.772138
-2.97314
-2.34354
-15.1666
-3.24019
-0.0755901
-5.35914
20.2157
0.0219639
247.48
-0.321073
0.0130254
-282.636
-33.9513
1.87534
-38.5499
-0.575504
-76.5851
-6.70223
-41.1686
4.01562
0.791605
331.318
-6.9169
-1.70601
-15.5454
-0.67694
1.117
54.2778
-1.80956
-1.30305
1.00456
-40.9305
3.52956
0.0981052
-6.97173
-16.7624
-1.65544
0.586825
-1.7032
0.0987692
-22.2444
-25.7767
-0.163876
14.7778
0.786136
16.2036
-0.313447
0.154576
-11.7377
-27.0938
-1.88764
-2.04409
50.4492
230.256
-0.366349
-2.97882
13.6729
1.86051
-5.51603
-3.2044
-1.64694
15.2232
-0.0869317
1.75698
0.139887
-16.1841
-4.14609
-16.1208
-6.85909
0.030396
-1.41283
-33.1943
-3.24252
-4.98053
-66.1483
0.132783
-41.049
-6.24798
-2.26468
1.39807
-0.575845
39.8241
-4.22689
-4.19747
-0.805816
-65.4438
-34.51
-14.1512
-0.0893421
-24.2663
1.74296
0.361957
-720.098
-13.6623
-0.105412
0.0113998
-39.6074
-6.15878
0.695496
-158.714
617.841
-6.9215
-32.6109
146.045
-0.00215782
-5.5957
-1.79715
1.88361
0.233776
-0.865031
-53.1305
-10.143
11.6373
-0.174845
-3.92732
0.461349
221.561
0.167122
184.068
533.662
-30.4443
-1.61012
333.262
13.1628
-0.529767
0.0391685
-139.683
-165.726
-1.70953
0.0755099
-70.8216
-1.59527
8.17199
-68.7322
-211.777
-16.1876
-6.30423
-20.4541
-197.73
0.0528826
-24.1846
-19.8776
-0.592906
-28.755
-5.25969
-270.4
1.20974
-426.74
0.453874
0.104347
-44.8925
1.70851
3.95078
0.030091
0.000892918
-5.83068
17.9772
2.52565
-38.0016
0.141214
28.8169
1.67789
-1.48914
0.985902
5.83402
-1.2163
12.6178
-0.0725504
1.4789
-0.0459056
-130.007
-278.899
-0.64452
6.53658
0.0130677
2.92924
-4.56566
8.92899
-6.76692
7.69462
1.41592
12.1866
1.05172
35.5773
7.7955
0.452715
16.652
165.222
0.340718
-24.3274
5.0729
-0.856683
0.791427
-1.57222
0.0575474
-10.0945
8.05564
68.262
1.10984
-8.44044
-4.77752
-3.30395
-24.886
-2.12913
-24.652
58.2408
-9.24739
-3.47982
-8.41368
-3.57374
0.0221819
7.76192
-1.12259
-9.34187
-1.47062
153.927
-7.75132
-0.367271
-15.03
17.3619
143.457
0.0437577
0.0517931
-0.474647
-0.200739
-44.382
-5.35603
-2.70552
-25.6975
35.314
1.03808
136.074
-0.195757
-1.86306
259.495
1.63844
19.9625
-108.638
78.4058
-1.73003
-31.3524
3.63614
-9.97852
2.81912
-97.5259
10.6095
-4.20107
17.096
26.5518
2.21297
15.1329
0.210984
43.2936
2.9676
-159.083
6.63063
99.3788
28.5925
-20.0019
0.0779593
60.8381
-12.5587
-9.93601
76.2772
17.5809
16.1985
-6.30394
24.2714
3.30286
-4.7285
20.7476
-78.2243
-3.15034
-12.8112
-32.9929
-36.5614
7.39297
-1.78664
-1.68078
-0.0599247
-29.1148
-4.82387
-1.55036
-65.903
-1.68076
6.02227
103.705
66.8994
-42.4177
-17.5096
-38.655
-61.2354
0.0172109
-12.9441
0.294082
-1.65045
-16.3245
-0.252525
0.0411841
-28.8639
8.74775
-3.00274
-19.6423
-12.4508
2.4559
-23.3267
4.77909
-16.5734
11.2862
-17.2867
0.0520452
-15.0204
-14.9982
-23.355
-3.86135
-27.3769
-224.729
0.00836939
0.0871678
-5.48961
-26.349
-0.34744
-1.47678
-24.7395
-2.13922
-22.2658
8.56085
55.028
-8.747
-16.4188
-26.7425
-39.9309
12.4051
189.16
4.61354
-10.6551
182.744
5.01788
-120.743
-1.55841
-16.7495
-0.343222
-62.258
-409.937
597.545
2.48746
-15.4906
-0.43001
5.87713
-13.0132
1.64164
9.51524
-0.180374
-0.00553543
318.291
0.623894
0.805429
673.663
-40.3627
0.0488206
-111.87
-1.56773
-31.3099
-279.145
0.507623
6.54526
36.8519
0.0402609
-0.264906
-22.2097
17.9321
-1.57954
-20.0772
8.10564
-8.702
47.7838
-36.0152
-0.18634
29.6114
6.99658
5.16591
242.493
-2.92195
0.580981
32.8202
-2.30215
7.62682
-0.0594792
73.9973
2.05103
320.69
-3.78316
-26.8453
0.106942
46.7601
-4.32636
0.0134151
99.6114
-1.58759
-13.0636
-1.64976
-0.203844
-65.6405
-4.02894
-0.439317
21.2355
-102.706
-1.19243
-11.2311
-81.2403
-142.307
-1.70229
2.32923
50.5808
-146.759
1.67867
-17.6207
220.035
-35.2147
0.0277874
-489.982
-43.8821
65.8715
154.579
-1.77658
-11.5624
-1.36576
-0.0362769
12.5635
0.244896
4.23543
-0.641721
-31.2827
340.512
177.68
-0.0114587
7.26106
4.18301
-0.665018
-3.28356
0.768675
7.40343
-1.78521
24.9168
-190.595
12.7572
-31.8
46.504
-0.284183
-2.14526
67.5687
77.5306
0.332288
8.86102
0.101806
-0.324475
-6.39196
-40.0933
15.084
-58.9823
-56.441
-35.8114
-1.70917
151.254
-24.9903
-24.9621
-63.5605
-49.2893
35.1636
-48.9542
-33.438
-130.661
-1.64728
9.32041
-0.285895
11.2923
2.74399
8.28222
-8.28029
-19.6544
-0.316135
-13.5164
-2.07413
-0.268163
39.5744
2.47191
-91.3292
-36.1938
236.021
208.503
-2.62031
6.79424
146.866
34.286
-202.358
-2.93265
4.11302
2.67721
-0.170662
-5.9723
-34.5933
-34.0837
0.00847339
11.0812
29.6878
-4.3903
-106.398
92.8682
-0.547107
-2.1508
117.665
5.62195
-6.47825
-39.2613
0.307035
0.954327
-42.8402
-10.2812
203.369
30.033
260.683
282.634
2.68353
-3.10234
4.29889
-66.1016
38.6179
22.5979
-15.6808
-41.6157
-16.608
-30.1933
-72.8523
1.54441
33.1238
0.248069
4.65118
-0.224469
1.55828
-1.64863
0.0340729
-75.9882
-23.1487
6.86947
-8.39624
-241.69
0.501886
34.8099
-1.27201
-4.42749
-6.00933
0.21511
19.9514
3.15926
-0.265053
4.18848
-5.52159
-5.14944
37.5086
12.0083
-3.81059
-2.93476
4.41677
-9.8419
-72.4462
-59.5707
-10.7118
135.186
3.084
217.083
27.3815
-2.03499
-45.6952
4.37886
-2.69452
-39.5176
-135.529
5.61913
-2.76577
35.394
37.185
151.066
195.343
-0.0098406
0.0742088
0.0117626
-16.4721
20.9319
-46.8816
13.8934
-21.5247
4.57068
-0.0870503
6.94979
-21.5508
6.73904
-9.7762
-1.12246
-76.6851
-7.51878
-163.741
-0.0369906
-155.405
0.458843
-0.115725
-85.2685
-7.9127
2.71024
-70.318
-6.9481
31.4731
0.0113579
174.702
-1.18826
-12.1187
-1.66205
-0.768886
12.9503
-1.35853
-9.2702
-4.67654
3.64684
-21.1136
58.1969
-11.4036
5.86608
2.35766
-1.9058
5.17907
272.143
0.33919
12.1598
21.4161
0.0128494
-6.48947
-31.8543
133.165
-5.58923
0.0102301
-3.50641
0.578079
-9.21736
32.6088
24.6213
4.7086
0.00117231
-53.1889
1051.75
-4.799
-401.054
-0.00268707
0.95085
256.58
-20.8842
2.8633
-0.0177429
194.472
39.1629
8.54898
-0.516427
16.7001
-0.00513217
0.0664636
-4.76512
-9.60661
-7.60479
-3.56486
-0.0725949
-28.6168
-0.0118313
0.18198
-22.7372
4.94256
-0.190195
0.0377778
-0.0961029
-44.7522
-149.537
-3.49102
-7.90278
-73.0232
0.17736
4.75101
-46.0716
-2.99769
0.452867
1.3866
-411.603
-30.7272
1.44004
1.09392
154.835
9.59749
0.369148
182.109
0.634198
-0.359482
-3.79059
-0.111708
-0.285079
-0.0164731
-0.812283
-0.186621
31.8587
9.73026
-33.1244
-13.0416
-11.6428
-47.7108
-29.125
0.030359
-0.330797
-2.58675
3.59335
-20.4194
-12.077
-138.894
-3.9006
-120.876
23.1238
0.753328
-4.19207
7.62578
-0.418834
-31.6449
0.37249
9.97429
-0.237511
-0.964375
-0.369446
334.083
148.608
124.395
-53.1253
-7.25087
-11.0256
5.73841
-3.04044
-3.17384
22.0627
-22.8136
9.6426
-245.019
7.93187
1.175
188.947
-55.3327
0.739007
0.498876
-2.84612
0.354642
1.92845
0.890391
-5.62404
-1.68886
2.46905
-7.59442
14.8206
0.385941
30.9068
-69.7306
-12.1317
0.352982
0.213041
-0.215634
-2.57713
-1.92209
-5.14434
-0.690059
2.22421
1.96683
2.97288
6.7263
-3.06021
-3.38386
-0.289147
-1.31667
3.94636
-4.71971
-91.9964
3.9634
-30.1902
-5.06291
-15.8388
0.368974
24.1834
-30.5959
-0.113669
192.343
4.05553
-144.188
6.39401
-8.57497
0.290547
-0.859146
-80.2764
45.7342
-18.7864
-19.4581
-1.52745
0.815414
-2.1132
-18.7073
-0.0621358
-1.76403
12.4204
0.18687
-22.0786
-0.851557
-62.9445
-19.0626
14.6124
33.4361
-168.336
-51.1549
-115.761
-440.036
-24.0909
3.56822
-5.5273
5.24529
1.94221
-0.276011
0.614697
-0.219338
0.105331
1.37094
-400.879
-0.163815
2.71295
0.640786
-0.263884
0.659657
106.615
2.33038
-2.02584
-49.4622
-8.68017
15.4806
6.82653
-2.16222
-40.5068
25.6996
66.9024
124.372
-32.9464
-1.87304
-41.5549
-0.0517211
-23.1704
-85.0747
0.400169
18.367
-5.76803
-1.07716
-57.754
-27.5178
-20.6344
-2.79422
6.82561
6.21696
-1.36523
16.1892
0.590334
2.45111
-28.4282
-26.054
-0.109122
-98.2433
-0.0976571
-36.851
-0.265322
-220.151
-13.9418
2.40014
-1.49828
-24.1164
308.247
15.9836
0.06402
-0.192368
2.96356
0.39886
2.1836
-82.457
64.232
-1.1055
18.9232
-12.2975
-2.98435
-23.7066
-241.188
-5.04709
10.208
139.981
190.992
8.29128
-2.86286
0.461619
-0.0523103
-1.09291
-34.4608
0.0115557
-3.23958
-10.423
11.8149
-0.669129
13.1545
-0.0653188
197.987
9.55096
33.9849
18.5994
-25.2493
1.16371
-13.13
4.51258
-3.83133
-61.2093
191.812
81.8748
-5.42209
-6.64777
-29.8722
33.1732
0.434472
3.80878
1.18046
322.114
1.07627
-13.8864
-0.0716318
-35.3494
-35.6683
-1.97018
1.94555
113.838
0.556849
-0.111566
14.8421
-0.304586
3.47286
-0.29546
1.20445
1.07861
98.6058
-3.79621
-0.192738
-35.4436
-28.9179
-67.1162
-0.385995
6.56859
-116.874
16.9647
0.0255259
-62.6004
-1.25738
-20.4344
-1.37962
68.8958
-18.9341
63.2988
-3.5588
24.2696
129.822
-0.105467
0.0581333
7.63512
3.82735
0.439505
5.09437
-4.23988
4.61931
-0.812617
-14.8588
0.172671
577.847
0.141724
1.25939
10.1744
-2.27698
-9.17001
1.37842
-38.1145
-0.30886
0.0404835
25.9714
-0.145589
0.950191
16.587
-52.3213
0.0970627
-42.2087
4.13069
0.329596
-0.000372869
7.76544
-27.0289
18.9886
-7.26161
-1.25515
-4.40259
-5.50072
-1.61568
-2.47114
-0.917423
7.27716
-16.465
-1.07632
13.5583
377.702
2.53464
2.36334
-0.00753814
-225.158
-12.1846
10.9412
13.1345
0.0149099
31.7395
-0.0169848
-4.83722
175.385
-5.74444
3.53086
-7.89122
415.11
-0.453697
0.352946
-35.6842
0.0808437
1.8103
-0.460026
0.0542059
-0.526919
-0.386896
3.01078
1.05552
0.0304195
30.092
-14.284
-0.00279099
161.196
1.176
-31.1321
1.00349
0.0100055
6.58108
0.20099
-66.098
-1.70323
-0.710037
0.137446
0.263733
2.99226
-31.7457
-0.0439385
-10.415
0.0292351
-0.00999388
0.0429499
-396.196
23.8027
169.573
677.505
0.178229
-0.441855
9.00981
-0.815864
0.670602
7.19472
23.0302
-47.6528
-70.0784
-0.0786387
311.773
0.577709
-8.57006
0.236921
0.151626
-3.00355
2.35948
-0.101484
6.407
-1.55287
-14.4627
-0.792349
105.022
-7.87741
306.898
-0.0509063
-165.741
5.21367
13.3788
-0.510848
13.1784
7.75899
-2.82305
-3.81322
1.13655
93.3051
-18.7105
-0.634561
-70.8062
-0.202223
63.2113
0.0343605
7.752
0.929941
-0.0381573
0.0530825
-0.261164
0.0317808
2.6273
-8.69582
-22.2092
-54.5342
3.87645
0.0862973
4.13188
3.88245
214.295
12.71
-674.443
19.3169
-39.2545
-2.59992
-1.7282
-7.35119
7.07939
-0.245724
-26.3133
0.0707445
0.789875
-0.0742265
3.2781
-2.35925
0.0330537
2.25197
-10.8619
-5.26432
51.4112
411.667
-22.8723
25.2145
22.0205
-0.835168
-21.7826
-8.20008
0.139277
-51.9786
0.200025
110.443
0.00357536
-12.3518
-0.0133297
0.303776
3.14029
-0.0620865
0.148602
-6.91492
-20.777
-70.1236
12.6041
-0.179543
-2.92482
-7.11507
1.96205
24.5086
-0.874594
11.2838
-10.9548
-4.49531
-0.573928
-20.0456
-5.34222
-7.36819
-9.77115