/*--------------------------------*- C++ -*----------------------------------*\
| =========                 |                                                 |
| \\      /  F ield         | OpenFOAM: The Open Source CFD Toolbox           |
|  \\    /   O peration     | Version:  v2012                                 |
|   \\  /    A nd           | Website:  www.openfoam.com                      |
|    \\/     M anipulation  |                                                 |
\*---------------------------------------------------------------------------*/
FoamFile
{
    version     2.0;
    format      ascii;
    class       volScalarField;
    location    "200";
    object      omega_0;
}
// * * * * * * * * * * * * * * * * * * * * * * * * * * * * * * * * * * * * * //

dimensions      [0 0 -1 0 0 0 0];


internalField   nonuniform List<scalar> 
13851
(
0.0234965
0.527663
0.0750707
0.0231895
0.0755071
0.764156
0.0216063
0.0441811
0.0206232
0.0944717
0.290841
1.70939
2.10568
2.81473
0.0213743
0.0334858
0.0246692
0.0278306
0.431098
0.020622
0.022941
0.0725348
0.0213309
0.0220302
0.0215597
0.0452846
0.0240799
16.239
0.0232846
0.0239632
0.845771
0.02497
0.0715013
0.52072
0.0218697
0.153434
0.0682948
0.181729
0.106064
0.496149
0.0212808
0.019731
7.71639
0.298647
0.295444
6.15497
0.316827
0.695471
0.0242863
0.0348058
0.0707205
0.130084
4.70402
0.0214433
0.0222749
0.0197338
0.0210452
3.55896
0.0237561
0.0216272
0.222995
4.51737
0.0544978
0.090752
1.68482
0.0252772
0.411174
0.310783
0.0333782
0.027751
7.78031
2.00299
0.513838
0.0216984
0.020858
0.0208289
0.0690975
4.39277
0.0452968
7.05138
0.0218112
0.241257
0.0213411
6.72178
0.0569534
1.6272
0.205464
1.70798
0.0251049
0.0207959
0.153512
0.00187496
0.301909
0.0272688
0.0248564
0.0217806
0.079139
2.75607
0.0280171
0.0219202
4.60228
0.0481361
0.0221676
0.0236435
0.0210683
0.107757
0.0543088
0.0196445
3.17455
0.814198
0.0221225
0.0208799
0.0261975
0.0225753
0.0219882
0.247683
2.80601
0.0196077
0.0225664
0.0226686
7.51906
0.023628
2.40923
0.384489
0.657415
0.0201061
0.55691
0.0466084
0.0227611
0.131643
0.0212611
0.0206991
5.84394
0.0213435
0.346671
0.0207727
0.0195904
1.71583
2.49302
2.75584
4.71608
0.0222762
0.0227002
0.0200375
0.0231097
0.303969
0.0213822
0.134063
0.0215909
0.285399
0.0731965
0.0222577
2.97055
0.0210753
0.0227903
0.023054
0.0209782
0.0229844
0.130606
0.0691723
0.0197422
0.02731
3.52998
0.0206872
0.0276414
0.0198771
0.0201464
0.0338832
0.0226177
3.04764
6.28126
0.0203735
0.0209935
2.72863
0.0206837
0.753659
0.0452272
0.0225633
0.605985
0.0196547
0.025751
2.29341
0.0213421
0.0774465
0.0196484
0.0214422
0.0254798
0.0216929
0.0876425
0.10379
0.316157
3.95641
0.021312
0.0328673
4.48549
0.0226461
0.0223729
0.364189
0.0223734
0.0208542
0.0201404
5.43785
0.02367
0.0212325
0.0781935
0.0213532
3.01782
0.0247069
3.16789
0.0196559
3.46887
0.0220515
0.417206
0.0196135
0.019962
0.298524
0.0562158
5.61894
0.0213381
3.13822
0.0248869
0.0218526
3.06812
0.126433
3.70241
0.0216137
0.028934
0.0213558
3.53249
0.0196121
0.0441095
1.65324
0.0203516
0.0211267
0.0631327
0.0466404
3.25827
1.69385
0.0200228
0.0212451
0.744081
0.447632
0.0201173
0.0853101
0.0206978
3.5342
0.0492445
0.386004
0.0231306
0.0256857
0.0292572
0.457245
0.0218572
0.0232229
0.0500799
0.143558
0.100226
1.94
20.3814
0.0214258
0.0199764
0.0268812
0.854462
0.0204268
2.04144
0.0226247
0.0218311
0.0268718
3.03775
0.173892
0.0279427
0.0227904
0.856311
0.0428684
0.0326943
0.0207001
0.24066
0.1815
3.90921
0.29069
0.0202174
0.0196195
0.0210162
0.0483536
0.893407
0.78391
0.0207275
0.0214352
0.908376
0.243332
0.151804
0.0234863
0.0216388
0.0353641
0.248823
1.64726
0.0269759
1.46731
0.0207209
3.55744
0.0269181
0.0245684
3.84957
0.0215838
0.168273
3.22196
0.0207052
0.0411622
0.0275168
0.0232683
2.47384
0.0272154
0.0217952
2.96385
0.0197715
0.0259285
0.020029
3.86592
0.11799
0.0213445
0.0503369
0.0213807
8.29417
0.0495738
0.0212804
0.0212107
0.114271
0.0283994
0.0226508
0.0214396
0.0215606
0.0217709
0.291258
4.02663
3.17007
0.031067
3.79181
3.01428
0.0212606
0.033701
0.159219
0.0276865
0.0686841
0.112125
0.674699
0.0261843
0.931185
3.37293
0.0213426
0.126155
0.160232
1.60654
0.0226428
0.0499715
3.47478
0.02102
0.962537
0.021202
0.0213863
0.0204536
0.0196426
0.0209246
3.41729
0.408909
0.0213447
0.0397024
0.019818
1.38285
0.0408598
0.805824
2.95971
0.0213538
0.0633859
0.0276244
0.812288
0.0211967
0.0196356
0.0224683
4.33688
0.0212525
2.43754
0.0284476
0.120796
3.41251
0.304698
0.297455
0.0257849
0.0207642
0.0222246
0.0297244
0.0499483
2.65464
0.0334294
3.70296
3.28312
0.0198284
0.0214338
3.268
4.56561
1.64705
2.85189
0.020045
0.0282492
0.0218636
2.824
0.0204709
0.0327289
0.024996
0.0215388
0.0212281
0.0206826
0.0198669
0.0874913
0.0654287
3.74019
0.0283464
0.0531863
0.0339776
0.441192
0.0266874
1.79446
0.0243123
0.299864
0.0195706
0.0206641
0.0216854
1.13275
0.399336
0.125093
0.0332558
4.54362
0.532454
0.125455
0.0228888
0.0645375
0.0211755
0.42488
0.0210565
1.89203
0.389391
0.0660898
3.1904
0.0226802
0.111601
0.373205
5.17474
0.0195281
0.0292483
0.0463706
0.20577
0.0204385
0.0217963
0.0687262
0.121923
0.0323272
1.52827
0.021504
0.0212797
8.85946
0.0283164
0.0196076
1.7221
0.0207548
0.0234524
0.0205145
0.04408
0.0226053
0.019639
0.0224898
2.96101
0.0213513
0.0358477
0.0206446
0.0289661
0.258243
0.0227771
0.0212409
0.0226609
0.0226779
0.721018
0.0218052
0.408979
0.0213428
0.0216016
4.29084
3.31485
0.0213759
0.0296409
0.0268858
0.417951
6.92557
0.0212903
0.411147
0.0212178
0.0754238
0.0215697
3.73908
0.0196683
5.8898
0.104856
0.0197442
0.0296244
2.71999
0.0454468
0.348997
0.0223243
0.6656
0.0228016
0.0206286
0.0207046
0.0215528
3.81676
0.0633946
0.132545
0.123903
0.0527155
0.0197778
2.86735
0.386432
0.0258824
0.0274976
0.329926
0.440194
3.34509
0.0224523
3.64805
6.38527
5.06488
0.0278854
0.0296002
0.579455
0.153712
0.30446
0.372085
2.16152
0.0231428
2.24922
1.93723
0.0195734
0.155375
0.0650239
3.94194
0.0232647
0.0212193
0.0209552
0.0212351
0.0848493
0.0405434
1.72391
1.51017
0.0206255
9.60618
3.06167
0.182709
0.360714
0.0353407
0.0195898
0.0206431
0.131241
2.89017
0.0228834
0.0876571
0.149544
0.0197209
0.0630088
0.454146
0.654528
0.111376
3.60047
1.9799
0.0212389
0.0215509
1.53773
3.23547
0.122655
0.0330265
0.0607931
0.0196565
0.0210967
2.08324
0.0197064
0.0231774
0.0196411
0.0207391
1.98971
0.0857643
0.0320757
0.0196957
2.43561
0.384921
0.0207494
0.0207784
0.0204744
0.0218441
4.19891
0.366442
0.380712
4.34673
0.691392
0.0314515
5.04211
3.26058
0.0270275
0.0337528
0.0195846
0.0195068
0.0349275
2.93572
0.932374
0.0849236
0.0283479
0.020585
0.0333449
0.0227034
0.35153
0.0703708
0.021333
0.0314972
0.0204444
0.0264398
0.12925
0.0216045
0.0211555
0.0413708
0.0215757
0.0778754
0.742927
0.121276
0.0340609
0.128262
0.0205723
1.21094
0.0327109
4.03781
0.0219842
0.021861
2.95792
0.0234931
3.52857
3.39069
5.06221
1.65896
0.0204709
2.47294
0.0205754
0.0207846
0.0196894
0.020796
0.0186553
0.0290704
0.040834
0.0196842
3.20404
0.111333
3.46266
0.0208919
0.019833
0.0208033
0.150352
4.22798
0.0512395
0.0267359
0.0206382
0.0216775
0.0212922
0.0210241
0.195713
1.94452
0.0215543
0.0196743
0.0215651
0.0210185
1.07431
3.6277
0.0339118
2.73896
0.603806
0.0211369
0.127772
5.11161
0.0350001
1.78085
0.0217996
0.0270268
0.0504938
0.0273877
0.41611
0.0213659
0.437197
0.0211125
0.0297246
3.08886
0.0209133
0.0229045
0.0587934
0.0206371
0.0252851
0.899125
2.58714
0.0679149
1.69932
0.315689
0.0196275
0.0208709
3.94345
0.141665
0.0543598
3.40987
0.0205077
0.0239035
0.0195906
0.712155
0.323287
0.0253844
0.0218072
0.278979
0.0240639
0.0207432
14.9842
0.171801
2.81778
0.0197582
0.0215478
4.59232
8.35975
0.140344
0.0222972
2.98482
0.0213551
0.295348
0.14507
0.0717711
0.0248575
5.74095
0.0266377
0.0233313
0.101814
0.0218012
0.0234143
0.0227639
0.0205546
12.2421
0.0315266
0.114462
0.0316906
0.223044
0.0206048
0.83952
0.0222063
0.0264432
0.0198877
0.0211025
0.0212575
3.17762
0.0209443
0.019722
0.630072
0.0215689
3.71164
0.0213003
0.0226239
0.0679934
1.20045
0.362041
0.0207741
0.906256
2.77426
0.0218485
3.2536
0.0293624
0.0205269
0.0713994
10.0962
0.944813
0.0258079
0.0207515
0.0196563
0.363091
0.0824785
0.074325
0.0264738
0.0607086
0.0220484
0.0224619
0.087203
0.481461
0.084642
0.897041
0.0215276
0.0781554
0.0823135
3.83289
0.0252546
2.60669
0.0213063
0.0215819
4.46725
0.688297
3.25453
2.53535
2.90336
0.384908
0.0408929
0.0205427
0.0294008
3.5839
5.4281
0.0211471
0.0217
0.0648396
0.269111
0.019765
5.50585
0.0204871
0.0213618
10.2212
4.48558
0.323278
0.0207796
0.0213986
5.5849
0.215912
0.11428
0.0238866
2.96091
0.596571
4.19732
0.0525478
0.0392336
0.0218168
0.0215616
0.303787
0.0486291
5.32609
0.0479544
0.03304
11.2877
3.30704
3.27
0.0214232
0.0299882
0.0207372
0.034603
0.0228414
1.87453
0.0241757
3.39175
0.0197647
0.0667491
0.0211142
0.125632
0.0323252
0.0295908
2.73548
0.0418724
0.0483321
0.0221398
0.0665656
0.773558
0.070996
0.0233067
6.56943
0.0203449
2.50808
0.412226
0.021601
3.53148
4.36584
3.43351
0.374799
0.0346102
0.021124
2.80139
0.0240673
0.288709
3.1911
0.0209
0.0225646
0.746921
0.435411
2.34324
0.0215221
0.0206965
1.40801
3.12374
0.114095
0.0252799
0.0230932
0.404551
6.67185
0.0853636
0.0197345
0.0417753
0.020656
0.0229556
0.24295
0.0219581
2.19991
0.405556
0.0213693
0.0229235
0.0211546
0.0228113
5.45972
2.77307
0.0288753
2.54762
0.0211117
0.0289346
0.0210893
0.020666
0.0215263
0.0213543
3.76705
0.0213772
0.0501647
0.0214268
0.0260117
0.251299
7.93335
0.0224199
1.568
0.0801956
0.0511566
0.0320794
0.0322014
7.52007
0.0264393
0.0419222
1.8252
0.538239
4.84669
0.0389811
0.286812
0.0218785
0.0401198
0.0496973
2.37566
0.0211283
2.55022
0.0208547
0.0209081
2.58957
0.019745
1.34215
0.0251303
0.0207193
0.028002
0.0207349
0.0214079
0.0213683
0.0217592
0.16322
0.0209157
0.226742
6.30598
0.0678151
2.60774
0.0215439
0.0223993
0.0195454
0.0212441
0.0207144
0.0783454
0.0218746
0.0207849
0.0218502
0.021556
3.5454
1.86659
0.0667647
2.82219
0.156239
0.021092
0.305659
0.0281331
0.0209091
0.318066
0.0531167
0.48012
0.0209247
0.312365
0.464733
3.45128
0.0203473
2.37106
0.0306157
0.0237995
0.0218442
0.020516
2.31662
0.438008
0.734552
0.0208563
0.0213037
0.534011
0.0216155
1.48389
0.400034
1.12933
0.370552
0.432221
0.0215512
0.0213001
0.0669679
0.0289808
0.0238242
0.169672
0.0402201
0.0219155
0.0229632
1.75998
0.0207989
3.10611
0.511763
0.354454
0.214599
0.0224425
0.0201568
0.0216826
0.359984
0.401427
0.0203594
0.022965
0.0208303
0.0756707
0.019828
0.0207857
0.0218826
0.0321413
0.208119
0.0437662
0.0309385
0.0212686
0.0501882
2.61183
0.0221839
4.04896
2.59896
0.079199
0.0199401
0.0423188
0.0212153
0.0212912
0.0216103
4.11533
0.117112
0.439872
0.0238618
0.291093
0.0212684
0.0212002
0.0215916
0.237014
0.62512
0.0197195
0.0317654
0.0592882
3.47108
0.0227623
0.903693
0.0198056
2.55209
0.0769595
3.11306
0.0888422
0.0782069
1.16237
3.01781
0.414298
5.25053
0.0210548
0.16546
0.0198139
0.0233517
0.0257904
0.0215855
3.09141
0.0292302
0.0273439
0.388678
0.167832
0.730058
0.0213621
0.0234539
0.0258959
0.0202311
0.0305812
1.38868
0.696751
1.26296
0.020897
0.0266567
0.0244574
0.404719
2.9071
0.0647225
0.0201402
0.0218092
3.82027
0.0442419
2.03403
2.8951
0.0980186
0.0199231
1.00925
0.0299539
0.041799
0.0281779
3.36384
0.366832
0.123337
1.39969
0.0222284
0.0275517
0.0213711
4.58555
0.0566212
3.148
0.271216
0.0257283
0.138017
0.0225629
3.35001
0.206978
0.0208039
0.151923
3.06799
0.244052
2.81332
0.0216535
0.0213228
4.92397
2.7237
4.53699
0.0225419
0.0215586
0.0213608
3.51829
0.136882
0.0217498
0.0680354
0.0864937
3.46822
0.839574
0.785964
0.0214151
2.76434
0.0244161
0.0212241
0.139385
4.18782
0.0216099
0.0208448
10.1992
3.23942
0.0206563
0.0208995
2.57767
0.0206816
0.16455
0.0208678
0.543202
0.0213146
0.0511353
1.2287
2.93486
0.0224316
16.5299
0.397793
3.03759
0.862513
2.62827
0.139588
0.0211465
2.49363
0.0227988
0.0213736
0.0202122
0.459249
0.0211199
0.0757665
0.0208609
0.0233555
3.60166
0.0649101
2.01415
0.0227242
0.0260216
0.0206957
0.0318339
1.21529
4.72856
0.0206805
0.065078
0.350962
0.0215476
0.0205239
2.95588
0.0333925
0.0359722
0.129164
2.77326
0.777509
0.906547
2.64147
0.204057
0.299166
0.389399
1.30774
0.0642154
0.0200605
0.122444
0.0211335
0.0209186
1.90013
3.02276
0.0230476
2.68115
0.283691
3.30477
0.0876002
0.0911637
0.0212
0.52699
0.015611
0.0210413
0.0225228
3.25378
2.74989
0.798521
3.21979
0.0402075
3.51106
3.39359
0.0314448
0.0217773
0.0210101
0.24627
0.0209865
0.197061
0.0222255
0.0219858
0.0232427
2.63301
3.69045
3.97513
0.0218345
1.22209
0.0248593
0.0293661
0.0208223
0.0208071
3.64623
0.0271247
3.28458
0.2607
0.0611442
0.109432
0.0214331
0.0425165
0.0215631
0.132998
0.0224054
0.0226577
0.0217428
0.0221916
0.14011
0.0220465
0.0346309
0.0211638
0.0355472
0.0580013
5.34493
0.0210215
0.0460155
0.021491
0.0620131
0.0251989
2.85124
0.172924
0.0308119
0.0236737
0.0225532
0.105608
0.0212275
0.230257
0.0214217
0.0209052
0.0222365
2.96121
0.0268279
0.0246417
0.0310983
0.0214388
0.0624492
2.86257
2.07783
0.0345899
0.0213793
0.0228667
0.0201349
0.0209829
0.208554
3.37454
0.0211812
0.0301996
0.84751
1.45726
0.0217824
0.0219783
3.35376
0.0224721
0.0285781
0.157527
3.7087
0.0213255
0.0304388
0.0212362
3.66861
0.123176
0.0402076
0.113382
4.03175
0.0223379
3.47319
2.02628
0.0215647
2.76554
0.0803685
0.0222714
3.7118
0.0215206
0.0211737
0.0204638
0.158675
0.0624555
0.141008
0.0226824
0.0222455
0.0294213
0.372329
0.0762258
3.61997
0.368173
0.0219571
0.127375
0.134669
4.37247
0.0744114
0.274619
0.0210001
0.0268991
0.0205315
0.598732
0.0382486
0.0212278
1.95972
0.176548
0.031848
0.0326073
0.0196617
0.0213543
0.0557183
0.0339466
0.627656
0.0635938
0.0637685
0.064992
0.115321
2.02434
0.0742526
3.59173
0.0210344
0.0207911
0.233755
3.73873
4.62732
0.493864
0.0222056
3.22334
0.360102
0.020942
0.0261309
0.0206916
0.0403337
0.0679906
0.0625013
3.84381
0.102271
0.0225589
3.83756
6.22715
0.021409
0.478729
2.50832
5.43207
0.0236637
0.0724556
0.0196044
0.0229335
0.0210228
0.0251458
3.70001
2.77187
4.36413
3.8397
0.0224945
0.0348804
0.0584109
0.0209723
0.0216649
0.0205254
2.93596
0.0209463
3.30966
0.0375591
0.0489105
0.167295
0.192087
4.10104
1.73707
0.0398239
0.0198445
0.0245406
1.28589
0.346519
0.02463
0.0207087
0.0205029
0.0597966
0.0299463
0.134501
2.41218
0.0225244
0.0204815
0.112801
0.0165068
5.81854
0.26894
0.0209345
0.0695233
0.0215039
3.87958
0.0199741
3.53951
0.0209539
0.0224592
0.0314826
0.0218119
0.0589683
0.0293511
0.045103
3.54595
2.76572
0.0250582
0.0294225
0.0211919
1.5282
3.47225
0.021613
0.0200364
0.330333
0.0195588
3.80469
0.0213416
0.0329361
0.0670817
0.282127
0.0396298
0.0226102
0.0215866
0.0686909
3.28692
0.021146
0.754878
3.14548
0.475119
0.191217
0.0338331
3.13087
0.0251635
0.310655
0.0212693
0.357967
0.363021
10.0315
5.62508
2.32162
0.0182684
0.155977
0.0208337
8.42089
0.319747
3.15598
3.53171
0.0269039
2.06291
0.963923
0.0357221
0.022683
0.0215927
3.37938
0.0255695
0.067318
0.0230838
0.021603
0.0206737
0.0215236
2.82119
0.220661
0.0311306
3.61813
1.41199
0.019703
0.021304
0.0205105
0.0280757
3.48906
0.139315
0.0254445
0.0243247
0.702623
0.0750938
0.0427826
7.91259
0.0302221
3.58625
0.0296485
0.0287754
0.0212797
0.0230499
0.067187
0.4829
0.343239
3.27143
0.066492
2.66008
0.024351
0.0242274
0.0215463
4.06581
3.54728
0.548851
0.0511279
0.023392
0.0213862
0.020883
0.0214172
0.0205414
5.60456
0.0290294
4.70998
0.0324738
3.27433
1.6965
3.51843
0.0751954
0.0257515
4.1423
0.0410224
1.18523
3.40954
0.0206192
0.0182231
0.0268843
4.54466
16.264
0.0354985
0.0439676
0.43242
0.022748
0.0599459
0.0237683
3.51147
0.406661
0.0238531
0.021581
0.346804
0.195538
0.129732
0.391666
0.126302
0.0282907
0.0210308
0.380948
3.34506
0.0789727
0.0301753
2.83358
2.5547
0.0208506
0.0213991
0.0241016
3.19962
2.99183
0.0213354
4.06839
0.0220154
0.0210331
0.0215661
3.8395
0.490295
0.0405171
4.98795
0.0228385
0.0226151
0.0209584
11.5711
0.0220957
2.68485
0.0238358
0.678817
0.0218014
0.021134
0.124295
6.14023
0.322513
0.0365269
2.82789
0.0199596
0.0214895
0.0214088
0.0422228
0.0617551
0.0620984
0.0361715
3.00209
0.0241878
0.125795
1.67655
1.9345
0.0213861
3.359
3.1888
0.0247852
0.603485
0.064551
4.54748
0.021577
0.0743952
0.0210477
1.18796
7.14972
0.422167
3.47257
0.0234586
0.0479039
0.022397
3.72004
0.0199037
0.0207
0.573804
0.0913831
4.06337
1.01987
0.0629165
0.0285206
0.0204496
1.34081
0.0315404
0.0210733
0.136052
0.0210884
0.0414333
0.0213773
0.438904
0.0222687
0.308021
0.341421
0.0332427
0.235586
0.0576143
3.89324
0.0212794
1.24427
1.70171
0.0205886
0.0213526
0.0227711
0.0218234
0.0386414
0.0211088
0.262182
0.0744529
0.284529
0.0701949
0.0214704
0.0218336
0.0204485
2.11851
0.0215097
0.0212568
0.194824
0.0238294
0.819946
3.40664
0.0863104
0.0241913
0.033544
0.0225472
0.0220088
0.0360141
0.0200968
0.0238773
3.93812
3.65
0.0953192
0.0225182
8.90778
0.962956
0.021834
0.265977
2.99072
0.0213491
0.0234843
0.0213104
2.53443
3.55375
0.476733
0.0200777
0.0239507
0.023266
0.0215783
0.127867
0.0215166
0.0278526
6.85704
3.47012
0.0205819
0.0238694
0.0234166
3.321
0.0196524
3.57307
3.8247
0.183222
0.470327
3.76195
2.13442
0.0227543
0.371432
0.377937
0.0223263
0.020433
0.020855
3.42068
6.36025
7.82982
0.0212536
3.64603
0.0215626
0.165395
0.0204352
0.0231058
0.0222565
0.0205822
3.48837
0.0224285
2.19295
2.59502
3.70237
0.0453518
0.0505182
3.61196
3.22601
0.0217056
10.3097
0.0204553
0.0196715
0.0212917
0.0321056
0.0206438
3.48484
0.0310688
0.282806
0.037494
3.79404
3.46378
0.870001
0.020557
0.0600093
0.0757681
3.53516
0.0214111
0.0198087
0.0227801
1.77244
0.0215944
0.338787
3.4544
0.0399585
0.0576865
0.0214261
0.324298
0.0217452
3.55142
0.0201368
12.7016
0.0309353
0.0215012
3.44566
4.18665
0.0201705
0.0642047
0.0244418
9.32989
0.0246913
1.72305
0.233576
0.0217623
0.0630915
2.8037
0.0210684
0.0423728
0.023108
0.0749741
0.0320673
3.79419
2.77517
0.0215155
3.39857
0.022357
0.0417763
2.91464
3.45554
0.0364125
2.97279
0.346288
0.0215925
0.349618
0.127159
0.0304145
0.0223607
2.93533
0.0201908
4.49302
0.110886
0.112397
0.0213432
0.0303375
3.19159
0.0429353
4.08193
0.0220227
0.0237339
1.22199
2.8881
0.0259191
3.31444
0.940222
3.49325
0.0215825
2.87496
2.55113
3.33996
0.0213898
0.0233085
0.0212725
3.44589
0.0420942
0.33338
0.355405
0.0217754
0.0202541
0.0213631
3.36853
2.13691
4.82357
3.51916
0.0209475
2.831
3.12842
0.126127
7.10677
3.05369
0.0341826
4.61007
0.0232973
0.0255369
2.32505
2.80307
0.0219579
3.02434
0.0217168
0.0213904
3.38121
2.85269
3.43116
8.15879
0.0312035
0.0217841
0.0229683
3.10727
4.72847
0.0211596
0.0454909
0.606225
0.0214206
0.0215101
2.86739
2.53432
0.0229305
0.0214287
0.0222398
0.0225351
0.481458
0.0218041
0.0210928
0.025565
0.147484
2.54412
0.0318248
3.9
0.0215259
0.0245297
2.8602
3.19793
0.0279571
1.40291
0.0213263
0.034931
0.0226154
0.0231069
0.0658665
0.021038
0.934458
0.0330315
0.0207966
0.0242155
2.64352
1.70442
3.40041
0.0214323
0.02441
3.29328
0.721814
0.0240014
0.0213224
0.0214752
0.299089
0.021523
0.0216317
0.0278861
0.0213395
2.93755
0.226527
0.021737
0.0240549
0.0200173
0.0215129
1.52057
0.23389
0.0688446
6.69891
0.0666125
0.0218569
0.0213031
0.0214966
0.0212342
0.0217198
0.0234997
0.0888608
2.89741
0.0226501
0.109846
3.2751
0.161313
0.021213
0.0207293
0.023353
3.37981
0.0211864
1.29637
0.0596461
0.0478646
0.0220052
6.05439
0.0200226
0.038933
0.0202601
0.0200471
0.0216343
0.020764
0.0376904
2.55197
0.101682
0.038152
0.204868
0.208161
0.902155
0.0313737
2.91981
5.14279
0.108391
3.08346
2.8951
0.11008
0.370963
0.0218042
0.0206499
0.942835
0.0209924
0.0241991
3.01923
0.0506626
1.03392
0.170494
0.0207363
0.0248437
0.0214827
0.0236968
0.0204139
0.173057
3.90839
2.91783
1.17839
0.021478
0.0202201
0.0704584
2.52922
3.0051
0.120844
0.25059
0.0208552
0.695541
3.56575
0.933375
0.0237089
0.0215093
0.0199181
0.0232131
0.02142
0.0213043
0.0239432
2.91889
0.0752896
3.22682
0.438645
2.31545
0.155318
0.0212611
0.0208436
0.0220382
0.0204289
0.0217736
0.152672
2.7044
0.387388
3.64197
0.0234078
3.52527
0.143575
3.34034
3.36871
0.0214703
0.0207615
0.347522
0.0214707
0.0201774
0.544622
2.97221
0.735428
0.0213925
0.0215085
0.023866
0.038272
2.52091
0.0204708
0.0242455
0.0810632
0.0204206
0.546984
0.0378202
3.127
0.0217796
0.115788
2.50876
0.0365141
3.05461
0.108001
3.3408
0.0200094
0.0250137
0.020813
0.0298136
4.769
0.0214265
3.6362
0.0218099
0.0214523
0.0214372
3.60637
0.0428868
0.110193
0.367644
0.0204827
0.0473403
3.72816
0.0585917
0.0206881
0.0230595
0.0214678
0.049101
0.0212674
0.0208516
3.78468
3.48359
3.46493
0.163264
0.129728
3.544
0.0687786
3.7503
0.128223
0.0199511
0.0209662
0.0195792
0.0216063
3.16461
3.16391
0.0203102
4.10882
3.70867
0.0289489
0.0225373
0.0244334
3.53384
2.84379
2.99019
0.344617
3.03775
0.0195644
0.198077
0.100067
0.335552
2.52804
0.0213287
0.125934
3.6603
0.0331633
2.52888
0.021787
0.146846
3.59087
3.35557
0.0722132
0.0313078
4.15293
0.125634
3.41608
3.5001
2.89966
0.111503
2.83254
0.0215247
0.0250612
0.0453742
3.91383
0.337758
3.4358
0.0218134
0.11727
0.0872963
0.0220552
2.92646
0.0213469
0.129771
3.65377
0.0213556
2.4632
3.40548
3.51693
2.95061
2.09897
0.189556
0.0210643
3.22042
0.0217352
0.0208399
0.0400838
0.0237788
3.26871
0.0240265
0.024567
0.0241424
0.0207617
2.65305
0.0228469
0.1156
0.35099
0.0206056
3.65423
0.101347
0.0226559
3.96161
0.184687
0.021332
1.62436
0.022017
3.68083
0.49519
0.0203368
0.109452
0.0229137
3.34932
3.0981
0.0709224
1.29101
0.026204
0.0214824
3.22859
0.0239359
0.0212758
0.641436
0.0392218
0.0208596
0.0207834
0.134375
0.0227273
3.4706
0.187671
0.0594464
4.54565
0.0512374
0.0595603
0.0210999
3.4163
5.75756
3.58197
0.0213965
0.0202326
0.0698251
0.0306684
0.471708
0.0213017
0.605951
0.0211994
0.278375
0.0216128
0.159742
0.142016
0.108663
3.56358
0.424299
2.96816
3.05588
0.0196905
0.144339
0.135624
4.29572
0.0209107
0.225007
5.37585
5.7821
0.111682
0.721999
0.935658
3.54978
0.0441626
0.1948
0.0205721
0.0465154
0.0409387
0.0213118
0.0676694
4.23864
0.0282074
4.3716
0.798473
0.0211489
0.020797
0.0320379
0.0213204
1.16052
0.0204998
0.0207573
3.77748
0.223257
0.0325518
0.101428
0.0222462
0.0861656
4.06138
3.21449
3.86726
0.0254496
3.16224
0.0228759
0.0203878
0.0232415
3.10942
0.139163
0.207713
0.230578
0.0222669
0.0208043
0.0213184
0.0218201
0.0264798
4.76873
0.441559
0.0287015
2.95924
3.45358
0.444441
5.18843
0.021415
0.0293457
0.0561463
0.0213999
0.03808
0.026653
0.0239916
4.63613
3.2415
0.020494
0.0385067
0.0295527
0.0679295
3.1654
2.13391
3.53066
0.0216236
0.0812084
3.58411
0.0782053
0.111731
0.502385
3.16479
3.59045
3.79546
0.0204714
2.82589
0.0203017
0.0230703
0.0213311
0.0577387
3.55259
6.53995
0.582162
7.37811
0.0539239
0.020137
0.0207364
0.021511
0.0228599
0.0418373
3.65509
3.78533
0.0745346
0.494487
0.0216181
0.0539434
0.0206474
3.47461
0.243741
0.0215308
0.148621
0.0999659
0.281932
3.59807
0.137915
8.0781
0.0247346
3.30042
0.223201
2.20372
0.314886
0.022752
0.0537571
0.0214764
2.91444
4.01374
0.0390603
2.49608
0.222665
2.50763
0.0637475
0.163139
0.0438784
0.0208166
0.115767
0.063741
0.0241841
0.0538002
0.0306952
0.0326639
3.83268
0.139931
0.023087
0.0304725
0.0356902
0.0325318
0.0227624
1.99461
0.11052
0.349907
7.4034
0.021386
3.29959
0.0214561
0.0244017
0.0234312
3.24174
0.0395252
3.4898
5.62436
0.0573706
0.0507212
0.11271
1.79026
0.132238
1.22311
0.024074
0.0444852
0.0208873
3.39692
0.506926
0.0239434
0.0214349
0.0386984
0.0258155
0.0243186
0.0481659
0.0391903
0.0215923
0.0346025
5.2526
4.97828
1.65887
0.0397778
0.019786
1.96555
0.031774
0.0630686
0.661972
0.04179
0.891385
0.0202023
0.0242196
0.0243792
0.0339943
0.021191
3.45986
0.331134
2.67537
0.0391212
3.00804
0.199427
0.025611
1.85097
0.0644121
0.226053
7.57761
0.0474373
0.0239655
0.0394266
0.0642927
0.0243019
0.0934235
3.75794
0.365637
0.0208862
0.173838
0.241987
0.496443
0.0212564
0.0426932
0.0210639
0.0307474
2.74178
0.0294383
0.0289607
0.0208687
0.0207191
0.13258
3.02189
0.0213463
0.157644
0.227002
0.0201429
0.0182117
3.42186
0.116064
0.100912
0.0213674
0.0270231
0.115365
0.0215485
0.0210271
3.51591
0.0289755
3.429
0.0808859
0.0260765
3.51412
0.122512
0.15893
0.020911
0.354649
0.0295974
0.0265638
1.51686
0.0390104
0.0215411
0.0843147
0.0244706
0.0253761
0.0201052
1.09968
0.0213519
0.0549972
2.60474
0.0994612
0.0207867
1.14017
0.0302759
3.31363
0.151384
3.45555
0.110643
3.30593
0.02069
0.0745762
0.0253642
0.0211127
0.447338
1.76555
0.0249195
0.879911
0.0150194
0.069338
3.51642
0.0259519
0.380465
0.797728
2.61091
1.74264
0.210124
0.05356
0.0207212
0.1238
0.0366996
0.358625
0.507674
3.45239
2.04451
3.57351
0.0206722
1.37207
0.0213938
0.0223658
0.0215533
0.469895
0.142257
0.206014
0.0210115
5.88806
0.0271036
3.482
0.0208596
0.0668036
0.0299451
0.0672804
0.0416486
0.102268
0.0227906
0.11671
0.136097
0.0209359
4.22359
0.179243
0.0542283
0.0228376
0.0298578
0.0214211
0.0210314
0.0631605
0.0483102
7.40869
0.225427
0.0831835
0.864861
0.0213495
0.910196
0.0631743
1.91577
0.0307185
0.03117
0.39317
0.031615
0.427288
0.0668569
4.20442
0.023455
0.0216296
2.96535
0.0310439
0.023703
0.0283183
0.0302759
0.0204809
0.0265746
3.62194
0.0213127
0.0414488
3.30874
0.108045
0.0678911
0.908729
1.15592
3.74948
2.50197
0.959275
0.0545663
1.25998
0.0226916
0.0247388
0.0214874
0.0209726
3.67767
0.443884
0.0322328
0.0207026
0.900645
0.0971802
0.0212148
0.0870512
0.049659
0.0212071
0.0229691
1.64922
0.0265502
0.0368141
0.0383446
0.0213769
0.114348
0.0629838
0.0297526
0.150235
0.0813401
0.12377
0.272395
2.76251
0.0234828
5.16869
0.161703
0.133385
0.066269
1.81281
0.0729273
0.0264379
0.0480982
0.0634962
0.0235181
0.079801
0.0210688
0.0212466
0.0200465
0.0244557
3.41392
0.0203735
0.101833
0.0245937
0.023672
0.0242754
0.372502
0.0233175
0.061751
0.0215247
0.0243598
0.0249369
0.0206984
1.59254
0.0236253
0.0205141
0.0223083
0.028599
0.0209137
0.604637
0.0273824
3.66548
1.65238
2.51625
0.0573175
0.0922782
0.342924
0.0390974
0.0248415
0.0250253
0.593934
2.76138
1.54171
0.0774899
0.0310644
0.0212798
1.8852
0.042503
2.86431
0.0215428
0.912845
0.135582
0.976036
0.874866
0.0200831
0.0214054
0.0203185
0.0286543
2.79226
0.0580299
0.989369
0.0258556
0.0285729
0.0209777
0.0218281
0.0347306
0.0235915
0.0239857
0.0208874
0.2079
0.348444
2.32311
0.0246356
0.104203
0.0206826
0.0202408
0.101551
0.0219241
0.0241846
0.0629178
0.0242172
0.0699014
0.0214145
0.0184151
0.0215262
0.0244581
3.44637
0.0211137
0.0235755
0.0226322
0.0238832
0.943174
0.0217641
0.0483659
1.72278
0.0245685
0.0296911
0.0224083
0.0231277
0.0217616
0.141236
0.021453
0.0267379
2.57472
0.0207881
0.0294592
0.0484709
0.0699035
3.57267
0.0200596
0.023809
0.0221286
0.0298776
0.108525
0.486187
2.87231
0.0202343
0.0297962
0.118571
0.023503
1.0477
0.0199648
0.0215556
0.095878
0.039523
0.023703
0.0200236
0.215263
0.127832
5.56476
0.0215566
1.70565
0.0199971
0.0205267
0.0235239
0.0743256
3.63153
0.0215148
0.0209007
0.388122
0.0214611
0.0232554
0.0876174
2.85542
0.0214475
0.0204645
0.0219453
0.0319531
0.228035
2.91976
0.0218338
0.102468
0.0212073
0.0213477
1.88345
0.0233251
0.0218471
0.0296985
0.202472
0.125971
0.0233366
0.0221791
2.13813
0.0394287
0.0223574
0.694533
2.57446
0.0214737
0.0217269
0.0232006
0.0213558
0.0214672
0.0208033
0.020194
0.0390979
0.0230728
0.0478565
0.046598
2.01655
0.882197
0.0313091
0.0200445
0.0213559
0.022199
0.0231357
0.0391457
0.0290704
0.0758508
0.0236026
0.700029
0.02423
3.28834
3.48092
0.0284357
0.0225722
0.125331
0.0238945
0.0270723
0.0213826
0.0223309
0.021065
0.136945
0.0443078
0.0527054
0.103691
0.0232056
0.0259213
0.0222029
2.98143
4.38813
0.417152
0.0269036
1.40281
0.926883
2.93084
0.021932
0.0423917
0.0617717
0.0213902
0.021783
3.63675
0.0215064
0.0224309
0.0232434
1.29411
0.0214819
0.0217284
0.0257821
2.70009
0.0209224
0.0493654
1.20812
0.0235664
0.0214976
0.0211316
0.0214119
0.0217534
0.0217004
0.308525
0.0222616
0.0214846
0.0217068
0.0217427
0.0286885
0.0213707
0.294465
0.0215453
0.0216991
0.0388679
0.0321073
0.0377616
4.52186
1.35161
3.04455
0.0366086
0.0207891
0.0388444
1.95785
0.0201745
0.0987605
0.0234405
0.850918
0.023223
0.0420163
0.0217539
0.0213783
0.110059
0.227581
1.80558
0.278342
3.27537
0.0217227
0.0208644
1.92176
0.0201439
0.021489
2.80196
0.0210114
2.79684
0.0214309
0.174161
0.103786
0.0237722
0.524176
0.0217183
0.0735663
0.175716
1.00492
1.63005
3.48858
0.452692
2.47116
0.0215436
3.78185
0.0214637
0.0213061
0.0209327
0.0219079
0.363237
0.0223999
4.53308
0.0215055
0.0213614
0.021559
0.634339
0.0216135
0.0209519
0.0745035
0.0255324
0.0264955
0.0249657
0.0283643
0.206621
1.11659
0.108223
0.498162
0.0964288
0.0223573
0.0657814
0.0214415
0.0296123
0.185349
3.01056
0.0443049
3.10616
0.0214708
0.840804
3.04546
0.135776
3.74573
0.278296
0.0235887
0.0213166
0.0239475
0.0214566
0.0212994
3.16418
3.10485
0.0210486
1.64143
0.0214092
0.103061
0.0209614
0.354189
0.0284984
0.0234036
0.0209953
0.574117
0.728141
0.401295
0.0205863
0.020657
0.0265108
0.021804
0.0222373
1.47629
0.109799
0.0456769
2.41597
0.0450169
0.0217696
0.0339161
0.161514
0.0218622
3.00546
0.0524248
0.156125
0.0231465
0.0241239
0.020255
0.0196451
0.0213606
0.0263507
0.0206632
3.56905
0.0396354
0.100182
0.021258
0.0431837
0.0214446
0.258407
0.040472
0.0519904
2.83031
0.025752
0.021328
0.0248831
0.0217943
4.22417
0.108733
0.0428818
0.052293
3.17955
3.57992
0.109917
0.0482437
0.0213874
0.0230341
0.0231544
0.11063
0.100778
0.0262419
0.0215547
0.496707
0.131633
0.0217606
0.0233201
0.0522856
0.0223239
0.0209385
0.0406063
0.0213975
0.0218659
0.0209226
0.0234997
0.0220457
0.0494925
3.65113
0.0214533
0.126555
0.0952053
0.102914
0.0209135
0.0214917
0.070356
0.0258723
0.0214253
0.0820258
0.0213373
0.0633189
0.0215912
0.0423693
1.76803
0.0523408
0.0225592
0.0592476
1.37289
1.43259
0.0214212
0.0347819
3.77692
0.0211591
0.0222046
0.0753261
4.03113
3.2486
0.023775
0.0213306
0.0441183
0.0211889
0.0223306
0.0286219
0.0217569
3.2452
0.0217816
1.65668
0.0214512
0.0214581
0.0526398
0.021356
0.0215347
0.0283099
0.915697
0.0205579
0.0561547
0.0218344
0.0211048
0.0215297
0.0281149
0.0256859
0.0692366
0.0231304
0.0217212
0.0218061
0.037968
0.0223905
3.71065
0.0220227
0.103616
0.0328917
0.0226184
0.0274825
0.490066
0.0214941
0.0220572
0.0199873
0.457949
0.460191
0.0215511
0.0369102
0.0209175
0.0349453
0.0214184
0.267624
1.60913
0.0235116
0.0252719
0.0277584
0.0428706
0.0219258
0.0207461
0.0459092
0.0213905
0.0219537