/*--------------------------------*- C++ -*----------------------------------*\
| =========                 |                                                 |
| \\      /  F ield         | OpenFOAM: The Open Source CFD Toolbox           |
|  \\    /   O peration     | Version:  v2012                                 |
|   \\  /    A nd           | Website:  www.openfoam.com                      |
|    \\/     M anipulation  |                                                 |
\*---------------------------------------------------------------------------*/
FoamFile
{
    version     2.0;
    format      ascii;
    class       volScalarField;
    location    "200";
    object      ReThetat;
}
// * * * * * * * * * * * * * * * * * * * * * * * * * * * * * * * * * * * * * //

dimensions      [0 0 0 0 0 0 0];


internalField   nonuniform List<scalar> 
13851
(
582.766
212.731
563.93
588.028
564.749
102.669
593.501
485.531
612.094
389.629
121.899
81.4868
157.228
46.6318
601.385
460.223
522.667
563.154
422.403
612.16
588.246
565.351
597.903
585.58
592.595
477.804
538.596
35.723
580.666
575.392
94.0862
519.604
525.997
92.1332
590.241
412.039
508.287
514.773
387.31
97.516
593.765
626.386
35.517
113.512
113.059
35.2237
107.061
98.7563
536.796
427.827
488.877
459.651
32.1027
592.833
582.367
626.292
603.167
34.6873
573.532
584.368
502.799
32.0918
392.641
555.164
55.1674
577.877
498.588
110.311
515.299
546.556
33.4402
195.565
209.796
595.055
600.851
608.189
562.984
43.646
531.13
32.0697
570.041
120.123
591.437
41.4385
400.292
91.6233
243.26
52.5406
519.02
611.504
414.953
852.507
113.964
525.636
526.81
591.166
560.091
47.605
507.899
588.197
45.0317
517.351
574.889
554.643
599.908
302.895
502.89
627.873
78.858
95.5065
584.138
611.068
609.124
576.662
588.01
231.228
49.0246
628.595
576.402
578.065
34.9843
548.836
110.088
133.16
106.413
626.882
121.35
523.856
590.333
542.497
592.399
609.239
33.7949
590.281
182.262
606.535
628.777
233.464
33.7662
37.9882
44.0996
577.006
593.543
620.091
536.514
112.77
718.384
543.14
590.741
116.441
461.182
582.645
47.8917
602.378
546.134
539.095
604.831
563.805
456.481
493.673
625.293
537.324
33.9375
610.278
564.539
623.583
705.17
512.09
590.566
42.2452
43.2576
616.511
604.306
38.622
610.083
91.8202
527.538
576.236
404.007
627.567
514.797
147.78
592.869
567.008
626.789
596.709
575.642
588.595
564.988
331.506
108.399
32.3038
608.039
517.633
32.869
549.039
595.493
122.802
581.97
607.77
632.051
33.8673
560.547
591.263
371.216
592.207
37.3523
534.08
39.3674
627.302
55.6658
575.112
109.654
628.296
621.79
129.2
423.3
33.7676
599.871
39.9608
530.242
569.758
57.6757
519.701
45.658
590.799
515.417
594.505
32.3383
628.299
472.844
63.1758
616.801
609.548
480.536
556.657
38.6142
52.3985
620.594
590.578
104.669
111.165
618.734
366.144
606.47
42.5549
518.847
115.482
546.011
515.973
545.206
108.013
566.795
542.177
497.826
258.584
333.393
180.864
47.9249
598.737
621.535
530.94
79.4095
616.096
128.217
548.392
566.45
536.559
62.2796
218.989
516.46
545.838
85.28
528.606
464.102
609.577
120.343
207.659
44.5714
122.666
618.461
628.024
601.243
494.375
75.0491
85.8053
610.106
604.964
80.036
120.917
537.133
570.745
582.322
516.041
119.186
175.598
558.933
104.523
609.162
43.9148
542.535
526.382
46.0979
580.638
247.757
50.0732
610.467
507.524
515.937
567.841
32.8287
545.205
567.191
53.8693
625.643
515.974
657.726
48.0148
429.501
600.039
503.053
601.827
48.0905
504.256
598.627
601.587
427.774
515.341
549.042
605.607
580.969
567.41
117.931
53.8471
40.0083
476.822
49.6862
49.7643
599.801
517.282
532.342
513.516
577.552
457.652
325.232
569.288
71.6043
47.6675
599.739
284.843
208.951
178.07
547.922
749.975
32.679
603.644
71.4862
602.087
602.189
611.61
627.812
605.466
50.3352
101.557
586.019
504.26
624.748
107.149
442.832
78.2183
41.8057
585.458
412.672
514.28
79.7144
595.001
628.24
644.684
43.5113
596.285
32.3525
692.55
450.599
41.5932
131.13
134.765
511.036
607.687
587.361
493.403
506.534
47.4034
509.781
48.7742
49.611
624.418
599.367
40.3473
33.2271
67.7042
50.7934
730.79
514.153
589.028
54.2298
614.742
468.07
526.195
591.133
596.204
610.923
623.811
554.088
500.412
48.1234
517.717
501.693
587.392
111.401
504.923
128.454
529.277
130.938
628.942
611.257
590.813
264.239
106.227
535.586
555.926
48.7626
89.7133
287.43
570.762
481.728
595.562
113.399
600.634
99.318
113.598
479.387
40.3279
584.941
275.864
116.299
46.1638
628.857
513.378
532.198
196.407
615.334
568.352
466.506
463.534
497.435
92.3641
594.812
600.703
39.4543
571.62
628.285
48.1088
608.111
585.235
613.975
534.089
566.29
627.681
591.88
56.0434
588.624
510.869
608.962
495.016
160.643
573.941
595.624
577.641
577.38
91.8315
568.366
151.999
594.24
594.332
46.6792
39.9157
592.227
484.532
501.976
116.899
38.3579
600.427
100.55
593.745
572.278
587.231
32.8026
626.555
31.8432
332.189
626.191
468.741
45.1737
466.588
102.57
581.614
86.9984
571.709
611.813
609.914
594.142
33.5472
497.899
429.746
490.667
414.732
624.628
61.2796
109.595
514.589
527.728
140.74
120.929
61.6058
581.239
32.901
37.6971
33.0522
549.9
456.669
106.447
224.6
197.188
120.144
72.9528
564.723
68.4317
197.119
628.518
226.189
494.702
40.1241
545.746
594.436
604.972
591.583
564.861
558.964
50.0317
105.06
611.362
38.6148
43.1045
259.252
116.406
511.966
628.597
611.704
263.268
57.8855
548.707
451.337
424.245
626.497
643.74
120.58
480.424
465.3
33.8751
183.332
593.557
592.263
50.4351
48.6989
434.988
518.227
378.989
627.536
595.786
84.5363
626.793
547.919
627.787
607.763
162.317
559.197
552.12
626.968
32.0596
118.074
608.246
607.543
615.487
594.012
42.0666
120.495
117.459
32.3973
85.0989
520.675
40.1777
38.9571
558.667
518.362
628.816
648.529
463.414
60.757
70.9417
452.936
501.579
612.836
476.84
597.955
103.256
504.749
594.816
485.972
615.237
529.931
536.043
586.483
596.307
434.392
578.227
566.776
420.187
527.896
471.499
428.159
613.014
95.7912
550.281
32.4184
575.447
587.273
93.3331
568.834
42.3352
45.2983
33.0458
47.4686
614.741
130.193
616.279
606.997
626.169
606.992
622.179
507.315
543.853
627.192
51.0338
322.578
47.3292
606.448
623.474
605.908
542.179
32.8119
482.217
533.171
614.868
592.51
600.652
604.745
398.037
43.8
579.265
627.339
594.816
604.109
195.419
32.9651
468.99
45.4704
95.5105
596.715
432.778
46.3598
518.185
75.1161
567.474
542.616
484.696
524.548
109.816
592.442
128.316
599.24
519.91
40.6882
607.053
564.489
374.832
611.86
517.771
78.0842
45.47
509.822
182.656
125.301
628.044
606.784
43.9692
427.737
537.055
46.7613
613.896
568.413
628.424
81.8028
430.205
553.097
591.362
150.221
538.029
607.826
40.1361
281.244
45.7032
625.924
581.428
41.4346
33.956
420.099
600.314
83.5605
590.791
137.094
563.099
474.407
520.347
34.0131
508.099
575.708
481.217
591.293
560.216
565.179
613.383
42.8672
478.148
461.171
549.513
181.733
612.47
82.7207
584.08
503.955
622.204
597.924
594.672
48.9028
605.299
626.655
110.651
591.297
41.3695
596.07
595.558
468.237
177.36
117.906
607.6
83.0449
45.7361
566.171
58.6191
519.371
613.859
346.401
37.1783
82.2973
517.805
607.431
627.67
118.268
451.567
451.202
556.359
362.269
589.823
597.852
449.173
96.8292
567.996
73.5396
582.821
570.33
466.431
49.6659
559.23
35.4354
500.361
591.368
42.0031
136.382
40.298
47.8397
50.4797
111.765
439.668
613.536
490.693
35.2006
43.1862
603.112
591.192
484.464
120.982
625.909
32.7819
614.31
586.659
41.4626
42.0672
121.864
607.268
600.397
33.6272
393.352
437.042
585.091
41.271
643.949
35.5684
508.748
510.184
566.738
589.287
277.917
486.654
32.9718
599.77
509.164
45.3178
39.7901
43.0387
590.969
521.017
608.499
468.763
565.687
63.8108
560.835
36.3717
625.959
473.149
596.555
608.596
525.653
519.109
46.4015
502.262
527.449
584.246
482.195
87.2802
389.789
548.229
42.2321
616.704
51.2143
102.102
576.433
52.0831
44.4857
41.6874
114.675
672.413
602.874
45.7212
563.082
241.185
38.7842
606.076
562.758
395.345
106.674
34.0039
579.431
607.679
82.9711
40.0099
486.092
524.563
589.152
103.658
36.2104
468.521
626.616
438.866
611.226
572.759
160.882
587.827
78.8522
116.814
586.083
590.602
602.848
564.504
36.565
44.1968
515.353
34.7543
596.369
512.128
603.511
610.653
579.28
586.41
37.7126
591.555
491.754
590.095
511.184
154.933
34.6197
577.626
48.4228
407.56
469.83
473.159
494.34
33.1888
520.197
562.98
67.436
130.916
31.5432
496.814
117.99
578.935
503.005
512.984
33.7671
600.639
32.7055
607.23
605.975
46.2817
624.873
232.307
519.009
609.318
718.701
608.617
601.641
603.526
572.606
399.984
605.473
395.119
35.7263
383.616
42.2374
590.425
579.035
691.645
591.998
609.222
467.557
582.528
609.009
588.156
592.855
43.4338
44.7895
384.559
50.0934
411.772
596.417
164.955
510.452
605.57
118.261
357.991
103.455
601.417
108.301
101.421
34.4924
616.81
119.519
480.475
544.934
595.699
613.805
63.476
193.534
89.631
607.71
592.397
128.773
576.207
138.66
106.09
107.338
468.168
96.8662
594.385
587.888
456.373
487.372
549.369
552.308
504.346
581.408
590.752
43.4648
608.689
47.1493
432.118
191.116
419.602
587.609
618.804
593.799
107.033
111.787
616.65
569.092
608.017
481.908
624.764
608.691
566.654
511.812
440.823
555.307
509.95
595.993
485.197
83.3237
580.435
42.5575
64.6404
461.512
622.545
502.98
594.917
595.425
593.283
44.3629
426.359
99.213
547.016
141.232
593.606
597.409
581.037
195.529
153.669
625.674
511.258
621.612
36.7171
576.319
146.475
608.928
34.0681
411.206
68.548
449.863
464.84
275.372
42.8796
99.7162
33.3724
601.361
344.974
625.008
546.269
537.55
575.777
41.5932
489.904
513.943
108.905
453.793
94.1118
600.135
543.99
551.361
617.765
481.596
78.4824
88.5169
61.3134
602.311
520.258
580.98
130.428
53.623
425.402
619.064
585.215
32.8775
458.477
77.0809
48.0034
302.606
622.848
343.514
479.787
524.09
516.862
56.5964
102.646
545.421
78.8502
572.709
507.291
586.043
31.9091
526.199
41.7895
151.675
540.034
426.152
552.037
58.71
400.247
605.268
270.769
41.2935
256.501
100.044
588.065
587.315
38.5525
71.5467
33.2219
577.827
593.461
586.195
42.6954
417.491
572.854
319.221
484.444
45.3475
380.239
83.3491
598.508
98.2618
531.894
597.158
425.246
31.7736
593.108
607.537
34.9544
61.1762
617.747
602.301
32.7339
607.575
205.238
600.36
103.76
587.49
492.767
62.0683
55.9108
555.331
37.9187
116.659
54.2447
335.424
34.7526
252.265
594.648
70.4298
572.255
600.113
618.012
108.756
597.502
493.185
607.274
586.088
46.8786
432.587
92.643
547.397
736.207
609.866
513.757
294.134
48.2997
608.974
500.558
109.046
582.981
613.579
43.2598
518.85
455.79
435.292
42.3754
116.472
293.746
115.981
208.345
125.869
112.322
80.6575
510.122
618.959
438.802
595.437
597.668
37.8774
41.9719
568.54
50.4333
276.506
46.4487
335.904
325.307
593.961
177.162
543.282
610.299
553.07
52.8862
47.7905
180.704
65.4156
485.908
36.7373
52.4942
517.875
588.854
602.376
118.791
600.791
394.187
582.098
566.291
569.249
84.7279
53.0873
39.9736
594.639
316.109
561.383
567.176
602.016
605.879
35.0074
508.251
38.3532
226.313
326.481
441.327
605.548
439.725
578.733
425.717
574.051
548.685
594.172
577.834
424.145
564.222
463.155
609.774
461.217
679.385
35.9647
603.238
524.033
591.821
364.931
558.705
50.0873
331.702
521.526
542.42
585.312
271.13
593.429
175.924
604.081
607.234
597.46
52.2207
515.261
580.885
554.194
594.212
473.514
51.3563
123.455
514.858
587.178
537.389
617.55
605.394
430.419
37.1103
598.833
570.15
133.743
273.024
573.532
560.35
35.6491
552.854
457.509
413.324
54.2656
587.306
528.589
590.456
44.4617
435.949
478.28
443.229
40.4174
560.275
60.7125
75.8294
592.829
72.5563
461.524
584.778
35.8201
583.138
602.709
614.814
470.23
312.284
424.598
544.811
580.238
525.714
112.62
439.783
54.9817
103.538
574.127
431.4
548.951
32.5615
404.919
117.56
600.362
569.814
613.504
118.362
547.064
591.373
35.5654
343.496
490.878
484.655
627.159
596.206
401.127
468.272
114.173
525.916
455.404
382.453
555.735
69.6003
333.912
55.0414
603.282
609.008
385.902
40.0447
32.641
132.902
581.682
48.0971
106.961
606.814
535.91
606.536
511.884
482.929
348.594
32.6282
431.161
554.396
38.2505
44.7712
599.288
249.974
34.842
34.303
542.005
463.128
628.474
570.114
610.68
529.649
50.4051
44.1821
35.1821
39.3692
560.422
484.953
391.363
600.154
591.469
613.675
64.4652
602.35
64.1727
521.65
404.386
547.437
389.781
42.814
217.9
512.611
624.124
547.38
271.94
475.717
530.44
607.455
612.087
507.239
484.866
427.565
62.7034
569.241
614.476
442.305
651.885
37.3007
283.272
601.97
515.24
593.105
43.7837
621.555
38.3846
611.773
573.537
469.446
594.982
367.599
513.884
519.807
35.3581
48.4818
513.641
497.402
594.039
243.732
34.6946
594.167
620.729
115.386
629.199
32.745
595.116
525.287
441.1
209.536
550.135
592.152
598.563
465.487
54.454
595.027
91.1974
51.9694
163.116
297.4
526.971
46.6481
554.065
394.185
595.542
104.763
104.906
44.6053
34.3264
61.1368
641.436
238.619
607.818
36.8545
116.991
51.0071
34.7822
513.824
70.317
76.9173
501.983
569.243
584.987
36.573
511.234
467.347
570.38
581.548
610.521
578.889
47.6559
385.239
481.576
33.2034
235.542
624.052
590.607
613.711
475.008
37.3505
404.298
532.363
551.699
124.634
452.028
514.773
32.68
485.498
53.2015
529.224
528.576
592.282
570.542
525.964
96.8286
109.259
36.9802
500.499
31.182
532.36
541.231
592.551
35.4783
39.2421
102.801
387.564
542.454
585.794
604.71
603.55
613.365
33.5518
488.712
31.7481
486.011
41.9549
119.267
44.6095
383.717
531.939
32.8892
475.13
86.4614
34.3273
612.076
518.944
518.112
42.4218
39.7615
474.847
342.338
106.484
573.912
535.899
569.737
33.5579
100.343
535.778
594.741
108.471
308.049
526.073
167.95
435.095
481.779
604.257
443.225
36.3763
398.774
518.132
49.4738
42.9944
607.419
593.438
536.999
53.8893
54.5796
594.644
37.9723
570.161
601.834
579.311
40.1149
356.829
354.429
33.071
569.624
549.745
602.219
46.0714
578.848
31.5281
584.581
164.227
584.337
595.476
541.03
33.9007
117.638
450.268
55.6183
621.643
583.084
592.751
487.263
536.89
517.401
570.002
74.5843
536.671
549.404
65.383
75.888
601.115
38.4992
38.7872
552.85
87.6899
469.694
43.8206
577.938
371.146
604.746
79.4207
36.083
224.573
54.1125
564.028
487.43
570.239
39.8283
623.007
606.985
97.943
385.801
42.2058
357.762
473.092
498.339
615.094
62.1187
466.895
610.365
422.502
606.836
513.903
586.061
180.324
580.871
110.356
113.849
466.788
306.31
398.341
43.5052
595.323
61.0655
55.3423
609.816
588.896
553.473
582.769
483.354
599.532
167.563
465.508
141.894
335.826
592.218
567.793
614.81
152.753
581.821
591.969
403.228
552.201
134.595
57.3182
453.186
582.138
469.852
550.839
568.08
393.528
619.757
545.238
34.5934
39.8263
478.752
551.883
40.5543
76.6731
584.888
156.661
65.38
596.525
545.744
597.282
121.563
35.0194
120.508
619.977
530.287
590.325
591.007
490.551
582.999
477.808
34.945
58.4822
612.872
541.483
558.173
34.407
627.275
33.9485
35.3867
226.337
157.604
38.2714
70.9629
584.319
137.069
132.199
571.16
615.381
605.545
55.3937
35.6749
38.8576
596.648
51.4524
575.065
537.694
614.452
551.23
562.238
612.83
36.3387
568.381
32.698
44.1928
33.1921
455.552
483.726
33.9376
55.0936
590.524
36.3953
614.76
627.576
593.896
847.734
611.217
34.7942
491.66
165.69
564.865
34.8218
33.882
129.306
613.402
389.287
395.813
34.9396
600.857
623.186
572.327
40.6485
592.472
125.514
33.5133
514.624
500.698
600.904
138.943
574.629
37.6185
620.044
39.2379
519.032
584.647
33.8724
32.8098
619.602
472.781
528.446
41.9029
443.964
54.9662
186.983
571.843
389.166
44.198
608.857
741.993
592.777
461.442
518.555
35.8908
46.8021
582.863
37.8945
555.402
519.381
55.0267
32.9009
558.225
43.547
409.756
597.176
121.523
426.233
521.165
572.606
44.3158
619.243
38.7432
262.201
527.354
600.48
501.524
41.1621
522.109
37.4091
565.469
535.273
93.8254
48.711
530.381
52.4101
74.8926
35.1917
580.708
50.6165
69.9941
37.1878
599.068
564.796
597.965
51.4444
435.723
132.343
134.168
568.473
616.492
596.911
35.9642
166.546
47.2667
33.9133
602.243
42.7367
63.5972
437.777
37.1003
42.2273
573.819
37.9444
549.008
539.805
144.925
72.6072
582.701
50.9932
591.733
589.977
45.9224
46.3532
62.985
36.5296
475.727
571.167
569.825
70.9212
33.2873
594.257
492.247
86.8403
593.087
580.183
74.1554
35.0636
551.615
600.763
571.593
570.211
133.834
581.297
604.414
529.854
297.674
33.076
372.232
37.5039
580.806
556.745
45.1408
59.7894
575.508
81.724
599.133
510.29
592.704
572.371
414.577
604.577
72.6043
544.837
608.752
558.376
64.1057
53.1927
42.3467
592.31
553.838
60.0123
82.7186
540.305
601.348
604.549
123.576
579.95
593.956
504.923
590.524
43.8735
225.776
569.973
529.278
621.017
582.961
80.5881
178.351
501.857
36.4044
341.787
568.864
598.337
584.16
597.923
572.738
565.289
346.854
52.5088
592.855
541.199
43.742
224.384
593.506
607.153
550.597
49.972
599.417
175.943
459.221
404.544
603.749
44.015
620.633
353.16
617.416
620.212
592.735
608.699
418.175
90.5988
366.536
478.61
489.737
240.807
78.0607
520.517
45.7127
33.9516
552.66
54.0901
73.5989
444.73
127.693
579.19
611.558
176.575
602.051
530.033
37.6669
526.408
168.963
319.552
610.247
543.24
581.231
536.627
614.826
217.526
42.76
60.1543
67.8537
580.452
618.701
471.6
50.4178
42.5798
570.81
466.317
605.68
396.035
33.1525
85.147
570.573
579.307
622.333
563.487
592.963
595.563
532.573
43.9116
492.638
39.6964
122.393
84.7478
417.103
595.639
606.123
592.676
613.709
580.527
248.025
58.5008
158.458
50.1606
559.565
34.9128
550.227
53.452
34.6886
583.938
609.039
126.987
580.572
619.478
98.3216
43.2216
375.815
586.99
578.747
544.376
454.948
66.5354
614.479
553.021
443.599
610.789
88.476
449.859
42.369
571.599
419.554
49.6073
484.387
72.7896
462.187
37.1666
620.653
536.575
608.078
486.486
37.3391
595.155
34.0479
594.52
596.074
602.261
48.0772
512.808
507.715
130.083
613.625
455.913
36.4811
396.617
611.576
574.72
580.609
547.229
601.871
607.887
43.8432
58.894
49.3077
329.895
538.865
35.767
466.751
49.0441
554.583
622.004
603.062
628.929
579.53
68.8025
67.1129
616.015
34.197
40.278
526.891
594.495
557.836
41.3001
74.2091
42.6125
199.219
41.936
629.077
452.281
557.649
124.631
119.2
592.97
423.601
36.4969
496.717
47.4364
577.483
277.232
36.3459
37.7696
464.377
476.446
45.11
431.482
35.751
43.3433
44.5202
444.846
55.8262
578.122
525.412
512.127
37.0927
113.325
35.9642
590.148
569.927
351.902
587.277
72.9914
595.702
433.601
42.0128
597.162
58.2792
49.8086
39.1045
47.5489
117.748
213.821
604.051
66.9436
590.833
603.134
522.142
536.016
36.9602
535.148
549.666
528.406
608.934
59.7102
551.161
441.419
123.708
612.507
32.668
553.054
595.682
36.5542
404.934
600.405
71.6434
564.235
41.0995
114.197
615.872
442.915
551.74
62.9197
40.6435
496.176
68.9921
571.813
605.128
41.7151
547.949
598.54
434.484
502.05
604.973
608.942
555.001
554.176
44.1318
454.337
582.757
42.9482
481.595
486.138
603.515
60.932
35.3662
40.4065
599.311
617.121
558.061
491.064
100.962
597.857
86.0033
602.427
195.726
588.646
242.626
522.113
444.261
33.5379
195.281
64.4439
41.3311
627.322
448.684
439.665
36.725
605.952
518.966
37.9517
34.3896
432.907
377.89
75.8607
56.9701
492.363
410.47
613.215
506.439
499.306
595.578
467.737
42.6123
434.346
32.7763
390.799
594.883
608.499
554.451
595.354
66.5517
613.995
609.807
50.9745
379.647
575.869
548.199
583.454
397.485
32.1431
38.1725
32.1817
540.044
39.3895
577.652
614.614
559.97
42.433
405.474
476.697
381.138
557.721
608.706
593.79
579.746
525.332
47.1212
448.934
493.688
72.8261
44.8296
120.331
38.8209
589.75
509.111
367.232
593.784
491.824
517.629
531.169
33.114
37.5703
614.008
503.93
495.374
422.539
36.3498
61.9784
56.7292
591.985
455.172
51.5656
459.708
436.801
115.423
43.5353
58.1634
46.5869
614.622
60.0741
615.071
583.904
589.461
517.522
58.4208
41.6295
89.4875
39.0603
521.485
620.116
607.541
579.261
570.046
514.367
53.3231
42.1863
462.538
123.964
580.447
488.224
611.205
38.12
386.348
593.514
467.348
539.075
430.635
35.5202
558.034
35.4284
520.963
39.1357
400.851
143.487
118.963
581.679
460.379
582.997
64.2628
31.6976
490.362
33.1622
399.881
33.8436
497.776
332.342
562.964
604.671
437.687
389.374
529.858
450.91
491.823
473.966
37.4045
430.804
565.905
473.729
514.187
507.416
593.999
64.828
555.865
141.973
46.5894
587.287
36.3798
603.126
545.902
551.956
37.5824
469.839
34.2703
35.6791
461.023
386.799
442.192
50.6135
421.303
80.0028
552.945
494.856
609.216
34.0588
98.4199
555.445
591.894
479.917
523.662
531.366
484.024
502.998
576.086
548.106
34.6424
49.5516
62.7038
514.552
625.397
40.4605
521.554
472.093
127.292
496.233
198.682
619.051
562.568
559.157
554.058
593.122
33.0701
136.273
65.4649
541.619
71.597
384.735
532.549
49.0082
471.618
379.13
44.5118
514.353
533.621
502.114
507.158
546.021
443.036
33.1882
108.278
603.365
387.942
416.099
208.79
592.349
522.868
604.894
478.696
57.3161
488.869
495.04
604.939
606.496
363.509
43.7711
595.21
433.463
388.679
620.036
709.371
33.5577
560.241
509.142
591.733
507.916
364.964
594.403
602.55
41.591
501.864
33.5476
458.918
531.147
60.4521
491.06
535.194
603.153
127.486
524.158
517.712
102.812
514.587
582.71
409.275
517.564
525.313
619.997
86.713
587.55
647.955
70.1337
561.765
608.603
346.298
520.68
32.991
416.697
37.3029
570.858
37.6564
609.759
504.735
534.009
596.302
105.608
103.913
544.888
85.674
730.954
539.005
36.1114
527.809
132.573
118.862
32.4127
48.0714
315.438
403.325
610.527
452.379
541.638
157.706
226.621
38.812
65.3468
46.9002
606.466
65.4531
599.614
568.588
573.973
106.011
461.696
495.156
601.609
48.059
513.382
41.0699
602.661
384.77
521.222
470.102
462.278
480.545
548.399
549.06
347.869
602.378
42.7075
394.393
372.389
574.13
493.702
592.655
603.735
471.051
376.932
37.6466
397.109
465.144
91.7969
606.811
143.292
472.181
75.4972
505.908
523.995
118.419
541.973
137.167
329.376
37.3433
569.115
580.872
60.95
520.583
533.854
566.328
492.959
613.749
523.038
40.608
598.978
472.702
57.7272
458.05
562.442
125.322
103.802
43.1266
47.803
104.336
431.134
99.7505
553.434
550.883
580.913
601.414
36.2665
106.198
559.715
610.896
79.9445
377.484
590.858
300.208
527.478
592.364
551.012
81.4834
534.841
507.698
455.17
606.596
327.424
491.201
495.056
366.966
388.257
401.372
206.31
46.5831
591.323
34.1805
551.217
427.87
406.329
42.0506
468.612
525.462
492.558
547.519
556.505
361.102
599.449
592.683
620.319
521.883
33.9878
615.471
466.798
554.934
544.175
541.277
490.334
547.703
411.565
579.73
539.488
523.725
610.733
61.7735
540.973
613.433
575.714
574.849
602.353
284.959
506.674
38.3033
55.2818
35.2753
561.787
349.462
157.574
500.946
751.123
545.92
209.466
82.5087
57.4069
367.317
515.084
609.232
84.226
508.613
85.1801
587.853
77.271
419.987
111.414
112.979
620.341
599.705
616.461
523.993
81.5183
514.735
72.5286
532.144
529.31
602.62
576.444
560.103
541.651
546.402
610.355
396.194
129.273
130.153
549.416
513.607
610.74
617.355
463.58
563.979
527.539
504.809
528.109
400.248
598.522
764.44
586.458
533.523
34.1642
604.585
541.61
552.285
549.711
70.9483
579.123
511.34
58.9375
530.679
485.157
558.468
570.939
569.545
485.661
581.109
521.713
50.8386
608.995
491.264
508.162
536.799
35.0045
620.846
532.822
586.122
520.996
374.76
189.256
43.4321
618.452
488.161
473.555
563.414
367.932
622.379
582.964
470.011
512.861
535.05
621.16
238.028
361.082
34.6846
586.395
51.3025
621.653
613.82
538.034
462.823
56.2798
580.813
605.679
130.241
580.692
548.862
431.643
50.2213
581.977
614.51
585.321
496.718
401.394
82.1356
566.276
454.228
599.457
588.798
85.8797
593.422
579.101
521.244
466.275
436.479
545.18
579.086
122.951
522.179
555.574
134.14
31.6648
580.848
570.341
559.501
599.213
581.473
608.074
618.032
474.741
563.186
559.453
507.444
61.2861
88.7445
484.771
621.133
593.8
573.16
551.361
517.075
489.489
460.73
552.987
140.822
580.261
32.6406
33.8657
515.506
577.648
560.169
531.805
498.985
596.687
560.658
597.947
311.629
462.561
470.366
450.166
553.45
518.174
568.739
78.7893
34.8155
105.289
569.247
79.8399
139.387
54.2316
568.263
495.466
554.582
595.672
587.903
33.2991
579.8
568.013
553.655
61.8142
582.613
574.533
576.582
34.4141
606.603
460.087
84.0805
535.784
587.379
598.39
595.543
581.874
572.657
160.361
582.832
584.526
571.848
570.458
493.466
587.501
122.644
593.657
573.113
446.457
525.328
401.153
33.0196
65.9125
76.2647
508.434
608.367
446.803
88.1004
618.435
319.206
564.585
109.269
567.822
498.772
584.037
598.652
448.544
399.052
58.2556
140.633
63.8
579.002
606.481
69.9344
619.103
584.567
88.2622
599.598
42.9037
595.639
513.345
447.464
536.401
115.388
579.223
557.745
313.829
128.319
64.0407
42.0952
121.493
32.9764
578.235
31.8477
580.944
592.542
606.928
567.794
331.647
553.977
32.065
578.961
601.378
597.573
106.509
587.31
610.645
465.732
579.939
519.016
537.247
494.22
443.081
303.736
309.269
166.625
557.658
560.518
452.861
603.353
568.054
430.498
43.1347
419.424
73.3868
581.434
95.6986
47.5609
427.907
44.8847
124.594
557.373
593.287
571.249
581.055
595.979
51.1485
54.3828
599.763
125.572
600.364
447.162
602.934
455.703
489.548
546.179
609.414
119.138
139.111
103.777
612.92
610.097
510.052
589.131
575.588
83.1421
299.701
493.099
87.9483
566.989
582.2
457.192
358.615
565.707
61.3958
502.143
238.953
561.4
540.116
616.879
627.448
596.242
559.638
608.251
33.753
569.248
304.162
589.013
421.724
583.482
178.386
567.975
458.528
80.0116
565.522
592.275
539.311
577.055
35.9394
374.758
539.731
467.896
70.856
35.9984
560.323
463.295
592.871
568.517
550.138
385.158
326.489
520.032
577.634
102.278
414.939
570.201
557.639
531.733
565.972
605.106
434.881
593.633
573.915
602.899
546.223
562.33
453.783
34.5938
604.072
500.497
561.85
439.786
602.794
591.42
308.83
546.425
601.846
308.799
587.646
498.431
576.769
441.088
55.2351
439.473
548.763
417.758
81.969
59.2526
600.883
512.449
37.9975
602.897
586.192
460.554
47.9342
40.5343
539.049
587.182
739.628
599.542
576.598
487.382
569.294
68.4207
575.604
70.1657
581.046
604.912
386.994
600.964
585.393
504.36
89.4577
613.463
562.998
578.063
603.53
594.123
500.694
537.809
408.014
556.232
571.781
573.382
505.836
559.901
44.0522
565.068
437.733
521.495
576.073
505.363
172.357
582.687
566.301
621.942
184.496
98.3163
593.355
444.55
605.63
462.935
606.121
148.976
82.5474
555.006
586.248
499.197
738.372
589.366
608.593
516.421
602.759
567.142
592.995
580.549
595.292
602.861
445.231
573.686
608.695
435.499
103.361
598.242
98.1366
616.011
553.078
32.3249
588.551
565.432
580.936
468.39
580.746
583.757
597.735
587.128
88.5439
494.792
581.221
535.571
596.662
622.679
616.792
377.554
418.393
357.495
290.612
612.914
587.553
535.679
602.684
594.253
556.735
441.092
140.722
106.758
620.734
199.866
31.5756
536.735
584.705
599.449
59.6273
571.335
600.829
591.652
563.657
566.013
596.029
232.116
65.8499
316.775
597.648
237.048
569.757
503.799
594.324
512.731
114.234
33.0557
566.762
584.807
534.617
485.477
554.713
86.627
554.649
105.478
32.0751
61.471
594.733
580.729
613.142
593.564
615.624
580.193
63.1849
573.116
463.84
48.6077
582.731
595.633
595.483
577.29
325.9
242.466
501.031
558.166
567.611
592.669
36.7346
44.0649
577.571
141.898
598.979
597.697
619.432
441.877
537.196
611.164
585.344
575.641
121.61
373.558
596.18
491.207
512.043
37.3926
583.881
65.0427
549.134
608.689
72.5704
597.956
414.186
558.773
61.4949
613.75
611.406
49.3574
597.614
558.565
36.9507
62.1822
101.099
525.998
582.471
581.613
106.725
566.733
437.638
588.893
490.064
67.5168
594.205
597.382
57.9994
32.6315
37.0745
572.062
516.146
562.093
566.926
589.849
443.995
512.872
593.652
565.523
468.331
34.9756
594.623
572.347
589.491
580.399
599.395
553.688
535.169
566.439
585.816
64.8621
85.1662
470.823
591.926
501.341
449.966
74.8887
94.5483
595.412
534.108
593.075
595.87
589.187
592.921
459.487
598.605
189.996
595.182
590.043
74.5957
623.53
117.243
62.6702
519.038
592.843
598.233
513.551
595.511
619.825
462.16
165.037
554.281
476.366
53.5903
106.513
516.525
583.948
595.133
90.0174
514.547
547.2
109.378
613.072
108.175
376.605
584.521
119.709
81.7309
571.899
590.008
528.97
596.837
253.634
462.802
39.2762
152.663
620.311
130.434
603.477
596.446
547.978
596.923
603.277
594.016
618.98
475.606
78.5171
276.088
546.69
290.171
33.7283
585.573
596.604
571.462
104.467
113.58
290.818
567.751
561.3
519.18
78.871
614.066
426.226
604.307
588.553
500.034
570.782
565.357
592.128
599.442
617.458
584.7
587.187
610.155
40.0029
80.8847
306.504
587.232
550.888
351.481
624.022
561.556
592.448
500.15
568.109
618.11
298.646
568.589
606.477
534.259
593.013
476.449
589.667
124.612
590.428
568.071
612.571
613.784
491.028
595.146
533.403
115.348
601.617
43.3883
592.378
550.819
486.32
55.1188
593.413
735.065
46.1472
619.015
600.432
569.669
565.11
602.201
64.7476
38.2974
606.957
507.597
519.685
505.349
554.562
418.495
599.613
62.7104
109.85
590.826
589.366
517.415
119.86
46.035
111.311
50.4406
63.8721
596.385
588.709
604.961
60.8031
592.14
596.542
554.088
596.526
551.99
551.068
547.166
545.661
548.685
550.466
556.407
563.071
605.725
598.267
598.608
623.233
552.947
556.754
622.117
70.001
600.956
555.014
596.995
32.4491
593.865
554.634
519.613
84.3124
598.378
591.751
517.197
599.647
596.442
477.855
535.393
576.419
322.397
73.8136
547.44
178.687
163.316
595.911
610.672
615.84
608.911
565.846
472.278
575.84
565.33
32.7385
561.342
63.7278
596.703
374.791
589.502
607.358
586.559
692.725
137.754
313.929
33.9928
98.3796
596.918
579.362
613.168
599.672
593.293
577.51
420.303
609.23
576.277
628.087
149.3
579.258
588.867
541.731
569.179
585.942
590.21
594.946
588.468
56.9854
519.893
599.244
119.056
526.592
526.558
589.62
145.938
135.368
453.059
601.471
34.4538
333.048
596.564
395.055
590.815
103.748
454.91
619.785
388.947
567.481
535.353
76.2239
331.38
114.839
618.847
593.885
568.228
528.672
601.491
597.585
49.7609
114.096
421.951
601.427
70.9634
145.153
620.025
79.1891
576.633
591.702
621.566
323.021
615.786
489.618
568.436
307.25
610.542
224.303
109.752
74.616
84.2233
591.22
533.728
141.418
647.766
326.147
551.364
580.627
98.7678
617.339
111.247
595.38
585.484
486.245
449.568
609.781
595.845
604.468
613.282
606.821
139.927
167.376
31.761
46.1155
503.491
82.1398
580.792
579.156
598.343
611.28
592.526
596.977
32.5712
469.222
122.139
615.324
79.9239
591.608
536.874
571.617
104.321
599.065
531.008
32.5783
381.596
147.95
603.19
533.093
116.845
519.435
72.8539
594.713
608.651
618.465
604.85
91.5356
602.67
45.1541
121.85
611.009
615.328
36.486
54.8149
584.663
507.362
522.802
534.289
37.3672
510.219
582.389
117.308
547.11
593.852
582.671
561.584
582.903
134.821
417.559
595.507
540.551
582.701