/*--------------------------------*- C++ -*----------------------------------*\
| =========                 |                                                 |
| \\      /  F ield         | OpenFOAM: The Open Source CFD Toolbox           |
|  \\    /   O peration     | Version:  v2012                                 |
|   \\  /    A nd           | Website:  www.openfoam.com                      |
|    \\/     M anipulation  |                                                 |
\*---------------------------------------------------------------------------*/
FoamFile
{
    version     2.0;
    format      ascii;
    class       volScalarField;
    location    "700";
    object      k;
}
// * * * * * * * * * * * * * * * * * * * * * * * * * * * * * * * * * * * * * //

dimensions      [0 2 -2 0 0 0 0];


internalField   nonuniform List<scalar> 
14479
(
0.0104133
0.0181241
0.0006013
0.000145905
0.00020913
0.00015092
0.000140225
0.000208847
0.000202944
0.000219463
0.000142918
0.000165745
0.000190602
0.0197005
0.015928
0.000153668
0.000140628
0.0118464
0.000145459
0.000182729
0.000182436
0.000200641
0.000245866
0.0253602
0.000143401
0.000145462
9.95079e-05
0.000200546
0.000148318
9.52172e-05
0.000462585
0.0183193
0.000219114
0.000213785
0.000838138
0.000183693
0.00014383
0.000150075
0.0152877
0.000174564
0.000157694
0.000143695
0.0149283
0.0131343
0.000143618
0.000153986
0.000143897
0.0338162
0.000214014
0.000143464
0.00480283
0.000199853
0.000145102
0.00485936
0.000241018
0.000166933
0.000188106
0.000151152
0.0134759
0.000151053
0.00014728
0.000149342
0.004043
0.000144382
0.000139945
0.0119134
0.0314672
0.0333159
0.000145061
0.000148509
0.0401834
0.000144237
0.0039988
0.000176502
0.000149245
0.000143472
0.000192266
0.004067
0.000142504
0.0144563
0.000145692
0.000203505
0.0161284
0.000260608
0.000205448
0.000152353
0.000153823
0.000140247
0.00020838
0.000152196
0.00020236
0.0275293
0.0126108
0.000144293
0.00552233
0.000144602
0.000142644
0.000142068
0.000140473
0.019343
0.0250667
0.000161143
0.00486944
0.00151022
0.0468203
0.000225173
0.068928
0.000255002
0.000192017
0.019026
0.0684805
0.0180342
0.000319491
0.000167527
0.000208771
0.00018675
0.00014601
0.043294
0.000168649
0.000150456
0.000146903
0.000499817
0.00495083
0.000140371
0.0071184
0.000373985
0.000151946
0.037364
0.00016288
0.00358338
0.000254064
0.0371515
4.74078e-05
0.0495903
0.0185183
0.000167428
0.000226229
0.000204686
0.0191768
6.16549e-05
0.0187931
0.000395084
0.000144788
0.0207947
0.000145728
0.0224393
0.000296964
0.000149521
0.000238904
0.000207026
0.0242366
0.000143373
0.0132174
0.000155338
0.000145517
0.000143723
0.00721317
0.0577185
0.0192599
0.000167985
0.00017851
0.000137205
0.000143481
0.000190867
0.0133317
0.000135666
0.000143641
0.000194546
0.000201345
0.0187296
0.00121228
0.000174201
0.000155935
0.000188512
0.000139234
0.000211158
0.00016748
0.000141268
0.000236802
0.0380606
0.000185614
0.000139907
0.0192132
0.00069733
0.0157433
0.000208517
7.99853e-05
0.0341173
0.000150515
0.00730975
0.0381146
0.000246016
0.00683292
0.00804406
0.000161234
0.000173799
0.000141215
0.000167862
0.000165562
0.000143431
0.000207231
0.000162626
0.000194119
0.000143814
0.000165772
0.000199927
0.0165226
0.000166844
0.000139737
0.000166807
0.000166195
0.000148238
0.000164934
0.000164182
0.000158495
0.0212002
0.0149936
8.85745e-05
0.0210315
0.000214341
0.0198046
0.00479271
0.00015335
0.000725359
0.00709931
0.000153272
0.0346256
0.000142362
0.000195488
0.000140977
0.000149811
0.000114027
0.0157312
0.000147694
0.000145549
0.000247187
0.000157279
0.000201278
0.0288566
0.00014546
0.000159841
0.000143557
0.000199409
0.000159894
0.00020058
0.000213223
0.0235883
0.0206655
0.000149682
0.000145581
0.0079333
0.000209219
0.00418207
0.000227628
0.0156542
0.000140211
0.000162663
0.000140128
0.000198657
0.00014535
0.000142281
0.000161171
0.000145307
0.000141462
0.000141543
0.000162752
0.000192718
0.000145633
0.0268674
0.00017714
0.000194817
0.000192732
0.000209523
0.000173533
0.000195668
0.0016884
0.000200672
0.00014093
0.000166864
0.000155323
0.000206009
0.000163393
0.000152055
0.000153914
0.000216502
9.06749e-05
0.000193553
0.000285825
0.000170881
0.0348884
0.000214423
0.000148909
0.000193613
0.00998593
0.000154535
0.0070848
0.000390287
0.000151072
0.000171555
0.00101424
0.0293581
0.0227456
0.000141466
0.000147708
0.00017514
0.00697784
0.000136135
0.0340297
0.000139606
0.00020844
0.000176448
0.0299983
0.000154014
0.000152161
0.000175615
0.00538356
0.000231437
0.00015906
0.000175098
0.000138218
0.000471639
0.000200689
0.0230042
0.00806594
0.000147636
0.000231511
0.0443709
0.0215633
0.000189108
0.000155304
0.000235172
0.000140822
0.000200321
0.000188518
0.000152008
0.000151852
0.0254156
0.000161759
0.000155447
0.000150877
0.000147991
0.000190276
0.000139243
0.000180652
0.000572794
0.000167261
0.0316835
0.000174839
0.000196428
3.47858e-05
0.00014502
0.000719373
0.00441422
0.028697
0.00016471
0.0059231
0.00018355
0.0243829
0.000147564
0.0153658
0.00015355
0.000211372
0.00490228
0.0263535
0.000153776
0.000154718
0.000140228
0.000180952
0.00019033
0.00013987
0.000154645
0.0152769
0.000155879
0.000207574
0.0114582
0.000225745
0.000148892
0.000210748
0.000165145
0.000150388
0.000175904
0.000193007
0.000144936
0.000165804
0.00492478
0.000296488
0.04346
0.000148284
0.00499511
0.000182144
0.000209871
9.63077e-05
0.000154452
0.047211
0.00070298
0.000109492
0.000162702
0.00923629
0.000240088
0.000215352
0.000185867
0.000197853
0.000171767
0.000307056
0.000178408
0.000156449
0.0001903
0.00017537
0.00426629
0.000183983
0.018864
0.000240647
0.000163676
0.00022132
0.000147326
0.0152387
0.000148729
0.00015196
0.0332651
0.000208656
0.0141556
0.00295431
0.0463603
0.0116993
0.00417031
0.000150951
0.000154844
0.000161473
0.000141799
0.000144156
0.000148568
0.00017698
0.00172263
0.0220661
0.0570539
0.000180986
0.004766
0.000236107
0.000190241
0.000147771
0.00707385
0.000140309
0.000145897
0.00209071
0.000147649
0.000141056
0.000155048
0.00666466
0.000163857
0.000150078
0.000147821
0.000148532
0.00190506
0.000162124
0.00490047
0.000185456
0.000147649
0.000135309
0.00021614
0.000212327
0.000225318
0.000148557
0.000157567
0.000165129
0.00732693
0.0001413
0.000174983
0.00494718
0.00977027
0.000146933
0.00014217
0.000197912
0.000158682
0.000147651
0.000320194
0.012192
0.000196405
0.0365969
0.000181126
0.000148203
0.000255246
0.000182596
0.00516386
0.00428484
0.00017792
0.000148417
0.000139064
0.000155495
0.0284943
0.000330462
0.000139124
0.000138107
0.000221533
0.000147598
0.000167695
0.000150977
0.000140244
0.000231183
0.000141522
0.000216536
0.000172082
0.000216133
0.00161281
0.000179062
0.000316088
0.000203989
0.000227392
0.0582828
0.000196764
0.000145991
0.000148327
0.000155165
0.000154297
0.000207451
0.000150276
0.0207182
6.69084e-05
0.000154331
0.0231219
0.00020198
0.000268725
0.000183853
0.000142195
0.000163462
0.000150705
0.000197451
0.000165997
0.000166365
0.0138723
0.000164828
0.000253962
0.0048792
0.000157791
0.000138876
0.00014486
0.000151779
0.000159095
0.00017286
0.000182728
0.00016594
0.000171856
0.0445788
0.000163796
0.000145686
0.0161625
0.000165592
0.00132331
0.0170139
0.0262105
0.000242177
0.000158917
0.000228236
0.000433466
0.00016654
0.000164081
0.0138428
0.0273591
0.000184506
0.000154711
0.000258707
0.00019699
0.000150583
0.00014853
0.0428626
0.00020335
0.000151337
0.000152744
0.0167347
0.000176852
0.000133031
0.0154954
0.000157104
0.000157789
0.00018506
0.00017035
0.000205174
0.0249378
0.000152279
0.000230929
0.00737979
0.000311188
0.000156975
0.000157853
0.0216413
0.000152922
0.0155077
0.000158801
0.000172301
0.0128903
0.000154887
0.000174626
0.000142612
0.0154569
0.0712592
0.000198416
0.00916218
0.0329727
0.000137783
0.0137294
0.000249696
0.000147289
0.000167781
0.000165098
0.000158034
0.000154981
0.000194731
0.0193517
0.000185205
0.000194909
0.000194251
0.000169217
0.00175538
0.035738
0.000160355
0.0551348
0.0234691
0.00015159
0.000212149
0.000145127
0.0129077
0.00404525
0.0293045
0.000168924
0.000218597
0.000147954
0.00019503
0.000360715
0.0686431
0.000155488
0.000160591
0.00020185
0.000140191
0.00491765
0.000154359
0.000155833
0.00322756
0.000152509
0.000194946
0.0161715
0.000144508
0.00016045
0.000147925
0.0390247
0.0535762
0.00023854
0.0245986
0.000221616
0.000196857
0.000198674
0.00016382
0.000145286
0.000149153
0.000154976
0.000391331
0.000215708
0.000194718
0.00607706
0.000161755
0.00591252
0.000150199
0.0496823
0.0182068
0.0334906
0.00015233
0.000181536
0.0492446
0.00019576
0.000141493
0.000165841
0.000141453
0.00018952
0.00015889
0.000137943
0.000138747
0.000141702
0.000142016
0.000181249
0.000174205
0.000147967
0.0143676
0.000151576
0.000155969
0.000166559
0.000252229
0.0553132
0.000137327
0.0403754
0.000153228
0.022494
0.00509402
0.00620685
0.000205676
0.000153983
0.000155942
0.000165187
0.00254204
0.000155396
0.000149013
0.000161245
0.000155261
0.000186678
0.000158123
0.000171978
0.000153553
0.000141505
0.000183796
0.00017741
0.000296007
0.0382343
0.0101145
0.0161014
0.0107864
0.00109661
0.0114746
0.000153076
0.00299298
0.000188629
0.000249947
0.000161412
0.000141644
0.00326651
0.00184867
0.000152298
0.000159025
0.0546765
0.0281742
0.000207765
0.0277338
0.00316536
0.000170612
0.000138578
0.000145663
0.00023273
0.00164363
0.0202172
0.000141734
0.000176749
0.000158371
0.000178528
0.0116404
0.000181718
0.00014281
0.000149803
0.000192944
0.000142938
0.000147596
0.00155175
0.000174025
0.000158712
0.000288694
0.0487308
0.000151698
0.000204406
0.020858
0.0368208
0.000179968
0.00167247
0.0180555
0.000197086
0.000174493
0.0158989
0.000195383
0.000251469
0.0287861
0.00013696
0.00615118
0.000225692
0.000161224
0.00032554
0.000149704
0.000172839
0.000160869
0.000141739
0.000160279
0.000151047
0.0259486
0.0134217
0.0348679
0.000147058
0.00031522
0.000159734
0.000154012
0.000230433
0.000143172
0.0135358
0.000183311
0.000180005
0.000905342
0.000158226
0.000350175
0.000221931
0.000169991
0.000154588
0.0158599
0.000291289
0.00103078
0.000253249
0.000227712
0.000139747
0.016073
0.000153824
0.000164424
0.000155485
0.000180605
0.0109885
0.000195524
9.98481e-05
0.000194911
0.00497122
0.000145772
0.000214812
0.0186652
0.000146937
0.000228382
0.000156327
0.000172974
0.000197328
0.000193254
0.000154073
0.000149534
0.0162682
0.000144427
0.0562067
0.0465017
0.000179004
0.0346455
0.000173791
0.00014427
0.0156478
0.000198473
0.000181985
0.000146641
0.000180858
0.043387
0.000318667
0.000244304
0.0333433
0.000146189
0.00124498
0.000203885
0.000153677
0.000168213
0.000174644
0.000181947
0.000255241
0.000158868
0.00014437
0.0089731
0.000153443
0.000154879
0.000219826
0.0493284
0.00020733
0.00017999
0.0001596
0.000756527
0.0139581
0.000149371
0.00021179
0.000155976
0.013173
0.000205815
0.0453612
0.000144461
0.0019178
0.000149514
0.000150371
0.0153972
0.00461271
0.0138219
0.000213089
0.000155833
0.000174359
0.000157701
0.000187423
0.000132697
0.000158599
0.000164616
0.000989667
0.000149621
0.000140494
0.000150582
0.000321759
0.000232788
0.00430078
0.000171029
0.00043373
0.000181652
0.000144947
0.000204566
0.000198037
0.0280491
0.000148078
0.0170898
0.000143104
0.000180567
0.000149937
0.000269578
0.000139228
0.000138027
0.000158869
0.000161355
0.000875493
0.000192164
0.00963357
0.0126599
0.016252
0.000143642
0.000209454
0.000144686
0.000139492
0.000167838
0.00017539
0.0337557
0.0337261
0.000154701
0.000175368
0.000185967
0.000165371
0.00019591
0.000373479
0.000195601
0.000189243
0.000284124
0.00148295
0.0260463
0.000285104
0.000139267
0.000146558
0.000221458
0.00015778
0.000194913
0.000247993
0.00014366
0.000144413
0.00775298
0.00508156
0.000169697
0.000411975
0.000156867
0.00819167
0.000301808
0.0175922
0.0278487
0.000641328
0.0034284
0.0150705
0.000244344
0.000244403
0.000144551
0.00393565
0.00904617
0.000159687
0.000159937
0.000138483
0.000214834
0.00642595
0.00675757
0.0176107
0.000138392
0.000147161
0.000213884
0.000147175
0.000146926
0.000136491
0.000187061
0.000159659
0.000144406
0.000161974
0.000177802
0.00015909
0.000177152
0.0357828
0.000146887
0.000184532
0.0197191
0.000155106
0.000183615
0.0202359
0.0407773
0.000160776
0.000149545
2.93355e-05
0.000196657
6.56406e-05
0.000308282
0.00659765
0.000201648
0.000231742
0.000166275
0.000219344
3.90022e-05
0.000249263
0.000158887
0.000196365
0.000144683
0.000172283
0.00014458
0.00221355
0.000453209
0.000154676
0.00163491
0.0002014
0.0103756
0.0111446
0.000246328
0.000202995
0.000146889
0.0214721
0.0001592
0.000360415
0.000137245
0.000148444
0.000467308
0.000145256
0.000183396
0.00519954
0.000149784
0.00473683
0.000159727
0.000164823
0.0167349
0.0174319
0.000184544
0.000174549
0.0179387
0.000159264
0.000159636
0.00015794
0.0270521
0.000148311
0.000150327
0.000301806
0.000271177
0.000151872
0.00298284
0.000183664
0.0128427
0.000141499
0.0479274
0.000138341
0.000184678
0.000176498
0.000148982
0.000187532
0.000193203
0.000185569
0.000180327
0.0002128
0.000175191
0.000144377
0.000195215
0.0142356
0.000149492
0.000171073
0.000141385
0.000283962
0.000149074
0.000146363
0.000136984
0.000153973
0.000147345
0.044562
0.00018329
0.000243544
0.000237096
0.000148073
0.000153434
0.0226595
0.000852096
0.0142988
0.00548493
0.000179214
0.0223334
0.0269326
0.000168835
0.000156396
0.00014291
0.0185584
0.000227883
0.011219
0.0134581
0.000155703
0.00971775
0.000145149
0.000147147
0.00150509
0.00020569
0.0259126
0.000231368
0.000214255
0.0125926
0.000145935
0.000155765
0.0054509
0.0127856
5.35153e-05
0.012614
0.00455349
0.0161081
0.000165542
0.000184234
0.000184572
0.000146387
0.000170446
0.000159539
0.000200327
0.000195122
0.000182869
0.000190893
0.00707988
0.000162332
0.000154998
0.00483594
0.000139622
0.000172248
0.00016585
0.00376615
0.0191025
0.0297657
0.000157736
0.00706748
0.000260044
0.000235931
0.000249334
0.000142027
0.00859199
0.000765325
0.000190729
0.000140941
0.00958979
0.0193585
0.0466293
0.00481104
0.000219698
0.000169539
0.000229166
0.000240761
0.000206643
0.000159444
0.000218944
0.000189871
0.0113815
0.000139659
0.0251861
0.000200858
0.000164814
0.00016402
0.000141629
0.000174291
0.000153548
0.000142958
0.000183595
0.00519693
0.000208252
0.00466048
0.0391791
0.0445698
0.000160691
0.0316637
0.000172926
0.000143379
0.00016782
0.000189504
0.000189606
0.000171029
0.000896282
0.000175735
0.000344335
0.000170514
0.000159248
4.45074e-05
0.000215879
0.000172344
0.000711142
0.000153324
0.000253341
0.00872233
0.000143414
0.0153676
0.0306285
0.000154912
0.000204654
0.000157241
0.000159081
0.000204415
0.000174693
0.0153122
0.000168044
0.000147022
0.000204432
0.000180591
0.00893805
0.000182232
0.000167122
0.000182668
0.000150207
0.0255186
0.00791971
6.64089e-05
0.0050383
0.000305905
0.000202357
0.000171745
0.00302229
0.000174764
0.000151345
0.000189824
0.000182297
5.99684e-05
0.000165036
0.0188761
0.000173851
0.00660425
0.000149464
0.0533752
0.000165076
0.000205562
0.000154699
0.000247583
0.00015996
0.000150675
0.000167955
0.000217267
0.00015323
0.000181227
0.000139579
0.000261075
0.000211773
0.000285862
0.0393126
3.48818e-05
0.0540894
0.000330771
0.00718349
0.00015808
0.000154504
0.00013864
0.000153833
0.000144493
0.000196569
0.0101342
0.000243607
0.000142679
0.055359
0.0313157
0.000192127
0.000164001
0.000212984
0.0512634
0.000429853
0.000223324
0.000192979
0.0248067
0.000198495
0.000223041
0.000167363
0.00936365
0.000164182
0.000143654
0.000245226
0.000144429
0.000171579
0.000150225
0.0101771
0.0126166
0.00021498
0.00018707
0.0163149
0.0172675
0.000203424
0.000178679
0.0428667
0.0506478
0.00014864
0.00896838
9.45433e-05
0.000170002
0.00871718
0.0219581
0.000156424
0.000146571
0.000157031
0.00658738
0.000196664
0.000387107
0.00735083
0.000236347
0.000162599
0.00017452
0.000157983
0.000170572
0.000318681
0.0246463
0.000210545
0.000159323
0.000179817
0.000167186
0.000415967
0.000162454
0.000195803
0.000211647
0.000168825
0.0214848
0.000194612
0.0180838
0.000160477
0.000148207
0.000165761
0.000239947
0.0292046
0.000148621
0.000269266
0.000101699
0.000200516
0.000217719
0.000141388
0.000282471
0.000151528
0.000141252
0.000179259
0.000139162
0.000208452
0.000164956
0.000151235
0.000167857
0.0493803
0.00017436
0.000170212
0.000153438
0.00017504
0.000175842
0.000144317
0.000173802
0.00480386
0.0192572
0.000145685
0.000168973
0.000154045
0.062744
0.000139139
0.00947394
0.0503381
0.00793139
0.000164012
0.000336932
0.000142565
0.00020343
0.0181081
0.00975086
0.000165759
0.000210647
0.00989331
0.000247489
0.00027113
0.00015489
0.000157467
0.000181313
0.00018171
0.000143326
0.00014916
0.0576335
0.00863305
0.000164465
0.000208909
0.000181345
0.011589
0.000160516
0.000156689
0.000154518
0.00014472
0.0531374
0.000190308
0.0109381
0.000147657
0.000194099
0.000145799
0.000162224
0.0001494
0.000207857
0.00507448
0.000196331
0.000145051
0.0628644
0.000821695
0.000145297
0.000219925
0.000148808
0.0114246
0.000158028
0.00015951
0.0250976
0.000489605
0.000214487
0.0131274
0.000141112
0.00014892
0.000191734
0.00501034
0.00673911
0.000182051
0.000141335
0.000294899
0.00678526
0.000151539
0.000157301
0.00334062
0.000175259
0.00016574
0.0381176
0.000142734
0.000154298
0.000143999
0.000142623
0.000796715
0.00120602
0.000213499
0.0129883
0.000200945
0.000144476
0.00014815
0.000143625
0.000167494
0.000197671
0.00695812
0.000188801
0.000179198
0.00019747
0.0339542
0.000191003
0.000153515
0.01009
0.000199628
0.00727374
0.000151172
0.000442213
0.000218656
0.000360809
0.0538127
0.000199375
0.000164119
0.0210711
0.000139183
0.000200727
0.000208324
0.000187485
0.00139144
0.00721446
0.00490507
0.000190144
0.000264966
0.000169778
0.00677818
0.0175234
0.0295882
0.000143451
0.0039567
0.000154238
0.000168768
0.000189695
0.000173336
0.000214353
0.000133343
0.000176107
0.00630884
0.000195441
0.000191111
0.000415546
6.31713e-05
0.00310717
0.0064137
0.0162613
0.000137909
0.000142369
0.0341854
0.00014747
0.00013795
0.000157089
0.000155389
0.000291949
0.00019001
0.000151548
0.000160618
0.000190467
0.0199398
0.0209435
0.000233104
0.00021117
0.000187486
0.000258119
0.000202126
0.000145487
0.0110791
0.00837625
0.000176273
0.000315522
0.0009536
0.000158887
0.0468501
0.000256203
0.000208105
0.000149501
0.000178983
0.00374556
0.000181533
0.0268931
0.00017726
0.000217037
0.000274679
0.000154316
0.000143339
0.000211331
0.00890682
0.00478013
0.000169
0.000241377
0.000234721
0.000852771
0.000165982
0.00406614
0.000179462
0.000330366
0.0595697
0.000190179
0.000353338
0.0283784
0.000207187
0.0226473
0.000155011
0.0630883
0.000198202
0.00240712
5.35869e-05
0.000183279
0.000147223
0.000148587
0.000195282
0.000163078
0.000157427
0.000180882
0.000142747
0.000527845
0.000242477
0.000195666
0.0145681
0.0159417
0.000143589
0.0280644
0.0380369
0.000180194
0.000107475
0.000547534
0.000227971
0.000244419
0.000140295
0.000167844
0.000239368
0.000149769
0.0310261
0.000181183
0.0464242
0.000273344
0.0491396
0.000143897
0.0125714
0.000195676
0.00909016
0.000162992
0.0157489
0.0034996
0.000181422
0.000183643
0.000160161
0.000151574
0.000185839
0.000201666
0.000165173
0.01423
0.00443527
0.000147378
0.000224631
0.000160342
0.00978805
0.0162007
0.000211135
0.0280391
0.000193826
0.000174268
0.000168496
0.000149065
0.000153977
0.000158667
0.041314
0.000170957
0.000143793
0.000163341
0.000146506
0.000154688
0.0313848
0.000139218
0.000200434
0.00016438
0.000297377
0.0114348
0.000181953
0.00212182
0.0139061
0.000176017
0.0244563
0.000166198
0.000140381
0.000142647
0.000176117
0.0153887
0.000181965
0.000177247
0.000201452
0.00021357
0.000232473
0.043634
0.00011133
0.000143277
0.00021144
0.000156938
0.000180991
0.0546378
0.00023925
0.000147743
0.0381121
0.000143797
0.000155374
0.000152353
0.000143981
0.04134
0.0185399
0.000196595
0.000148161
0.000367481
0.00018541
0.000364602
0.000203519
0.000201276
0.000189474
0.000318367
0.000146239
0.000248768
0.000152169
0.0586506
0.0155939
0.0050778
0.000210315
4.31367e-05
0.000156893
0.000171196
0.000157324
0.000217831
0.00292257
0.000171708
0.00282989
3.37703e-05
0.000142343
0.000143476
0.00287691
0.0363804
0.000225915
0.000748412
0.00014316
0.000174615
0.000173515
0.0216722
0.0268955
0.000178505
0.000188153
0.0138713
0.000169292
0.00366381
0.000145158
0.00016354
0.0376837
0.0366182
0.0119729
0.000146553
0.000157742
0.000143514
0.000151707
0.0234962
0.0384684
0.000172327
0.000193888
0.000148285
0.00768215
0.000349625
0.000221909
0.0173294
0.000212153
0.000160188
0.00396203
0.0421758
0.0223847
0.000148364
0.00340713
0.00991695
0.000226763
0.0258729
0.0137245
0.000142631
0.000189196
0.000166503
0.000185405
0.000189339
0.000143668
0.00019832
0.000146712
0.000213174
0.0152748
0.000188398
0.000166459
0.0180513
0.000146627
0.0151251
0.000160732
0.000153216
0.000223411
0.000178445
0.000158576
0.000176117
0.000202416
0.000142205
0.000907387
0.000155367
0.00023618
0.000159151
0.000148131
0.000180928
0.000153848
0.000163834
0.000173186
0.000161571
0.000383145
0.000150671
0.000170213
0.00169098
0.0082345
0.000160707
0.000166369
0.000224579
0.000179733
0.000195037
0.000142327
0.0069502
0.000133764
0.0050383
0.000238331
0.000178656
0.0010621
0.0113986
0.000169561
0.000172993
0.0147747
0.000229805
0.00035579
0.000165276
0.000202308
0.000146809
0.000168469
0.00014663
0.00016466
0.000156567
0.000152974
0.000194053
0.000249351
0.000149676
0.000201408
0.000139432
0.0536192
0.00709173
0.000142325
0.000224246
0.0155838
0.000199455
0.000151108
0.0132404
0.00160218
0.000139482
0.000181881
0.000155481
0.00019727
0.000190607
0.000189802
0.000240181
0.000149512
0.000193332
0.000153024
0.0599538
0.0585762
0.00643044
0.000194687
0.000170107
0.000177543
0.0337682
0.000178346
0.000156723
0.000151514
0.000197761
0.00203209
0.000197422
0.000151959
0.000146415
0.000196647
0.000151269
0.0168127
0.000172511
0.0417064
0.000163059
0.000139097
0.000182062
0.000111993
0.0631968
0.00014634
0.000191069
0.0156909
0.000154088
0.00014672
0.000186964
0.000275578
0.000447949
0.000177029
0.000182943
0.0416867
0.00409255
0.000155473
0.000167469
0.000164709
0.00161175
0.000184834
0.000142847
0.000138972
0.000111936
0.000173644
0.055821
0.000159253
0.000166554
0.000161395
0.000149626
0.000440991
0.000168376
0.000195346
0.000207308
0.0157982
0.00045807
0.0107059
0.00025111
0.000160993
0.000161687
0.0171078
0.000156829
0.0221616
0.0237822
0.0399798
0.0208575
0.000138819
0.000157549
0.000144457
0.000159683
0.000172615
0.0664183
0.000236974
0.000194328
0.000145425
0.000174165
0.000181203
2.14264e-05
0.000145523
0.000169642
0.00803556
0.000317872
0.000806545
0.0243737
0.000216676
0.0582145
0.000145044
0.000178152
0.00112659
0.000162613
0.000260586
0.000180819
0.00162899
0.000200069
0.000149967
0.000194184
0.000154325
0.000133955
0.00573737
0.000209612
0.0301543
0.000153084
0.000159331
0.000151495
0.000168473
0.0330318
0.000143117
0.00014363
0.000140007
0.0545676
0.000226052
0.000668131
0.0287297
0.0548779
0.0562092
0.000164932
0.000158139
0.004872
0.0358957
0.000167446
0.000165678
0.000154151
0.000155719
0.000188031
0.000152057
0.000151342
0.0363294
0.000144316
0.000148154
0.000141482
0.00100179
0.000226704
0.000224948
0.000166343
0.000141383
0.000142686
0.000169473
0.000156792
0.000242984
0.00015745
0.000145983
0.000159055
0.000154198
0.000143257
0.00029216
5.77588e-05
0.051697
0.000255831
0.000213549
0.000141655
5.34914e-05
0.000179716
0.000191603
0.000153327
0.000146464
0.000163851
0.00012641
0.000169625
0.000175684
0.000230604
0.0141483
0.000166293
0.000162327
0.000158643
0.000167112
0.000198994
0.000313413
0.000141461
0.0199455
0.000178669
0.00981948
0.000469571
0.000180393
0.0235183
0.000153972
0.0001624
0.000182208
0.000189096
0.000170258
0.0313173
0.000195547
0.000208534
0.000144056
0.000155229
0.0263044
0.0409725
0.000181412
0.000196676
0.000174783
0.00050156
0.000161906
0.000153064
0.000156376
0.0277294
0.000198821
0.000198552
0.000180505
0.00018078
0.0130539
0.000221295
0.000207827
0.000188435
0.00852703
0.000593913
0.000142377
0.022792
0.000158148
0.050557
0.000160597
0.000164358
0.000292337
0.00270196
0.000193521
0.00015719
0.000203881
0.000421955
0.000175752
0.000191514
0.0361422
0.000186899
0.000153813
0.000230989
0.000179083
0.000156654
0.000139511
0.0133762
0.0142545
0.000137207
0.000162299
0.00020857
0.0154976
0.000189025
0.000188046
0.000204422
0.03521
0.0553533
0.000179365
0.000193036
0.000193064
0.000144675
0.000141539
0.000141096
0.000280367
0.00208288
0.000187118
0.000175722
0.000681144
0.00576713
0.000148725
0.000188772
0.028947
0.000143343
0.000308601
0.00016651
0.000150962
0.000154772
0.0354215
0.0581494
0.000155482
0.0582363
0.0120178
0.000165176
0.000167537
0.000309788
0.000157865
0.0121699
0.000328834
0.000141239
0.000186225
0.0306904
0.00016113
0.000142826
0.000221593
0.000185695
0.000143921
0.0164429
0.0295657
0.000156777
0.058064
0.0576975
0.000176835
0.000144394
0.05731
0.000139248
0.000142222
0.000152398
0.000152668
0.0225387
0.0466226
0.0133492
0.000190774
0.0568914
0.000146226
0.0517652
0.0041313
0.000140457
0.000143605
0.000264527
0.000182187
0.000141306
0.00379248
0.0197751
0.000204802
0.000140125
0.0458496
8.17186e-05
0.000164001
0.000513881
0.000140339
0.000150756
0.000179948
0.0357187
0.000255438
0.000286374
0.000211344
0.000154469
0.00633207
0.000220275
0.000143705
7.24216e-05
0.000184941
0.000144562
0.00014514
0.0155252
0.000162641
0.00449626
0.000231677
0.000194921
0.000171719
0.00015269
0.0507128
0.0490743
0.00161845
0.000144714
0.00131892
0.00023606
0.0171759
0.000154806
0.0210193
0.000151618
0.000150631
0.000203692
0.0101283
0.000102761
0.0163496
0.000185823
0.000209695
0.000160409
0.000176545
0.000142832
0.0043458
0.000154123
0.000186873
0.000231425
0.000143866
0.010761
0.00019402
0.0567107
0.00023196
0.000141443
0.000236488
0.0131696
0.000147919
0.019715
0.000172576
0.00655603
0.0351858
0.00017759
0.00016143
0.000158072
0.000192589
0.000229751
0.000204745
0.000215723
0.000103659
0.00922972
0.0162396
0.000144853
0.000151966
0.000163645
0.0295789
0.000162419
0.000150402
0.00100356
0.000148436
0.000146455
0.000141399
0.0302897
0.000735955
0.000141429
0.000199921
0.00014626
0.0116638
0.000225043
0.0270227
0.00714409
0.000210908
0.000149367
0.0435556
0.0137723
0.0142021
0.0239222
0.000129464
0.00014694
0.000141
0.000364301
0.000138832
0.0124288
0.00750407
0.00015073
0.000252749
0.000165218
0.000143238
2.22298e-05
0.000163268
0.000178172
0.000151211
0.037438
0.000142292
0.000369821
0.000194831
4.68062e-05
0.000155272
0.0559011
0.000218475
0.000155381
0.0112934
0.000185518
0.000139962
0.000209079
5.19487e-05
0.000178028
0.000193454
0.000141423
0.00016879
0.000151358
0.000204095
0.000280768
0.000153136
0.0191971
0.000194441
0.0124565
0.000184764
0.000141566
0.000204098
0.000136398
0.000150066
0.000163405
0.0137509
0.000160132
0.000332616
0.00214264
0.000191183
0.000178104
0.000156841
0.000165389
0.00980871
0.0530257
0.00621532
0.000148044
0.000194365
0.00020378
0.000159582
0.00069143
0.000151051
0.000157885
0.000166714
0.000148486
0.000150849
0.000210146
0.000198702
0.000168695
0.000149869
0.000152186
0.0452783
0.0417377
0.000167535
0.000164352
0.0410926
0.000152626
0.0086815
0.000309623
0.000190908
0.000225907
0.000222451
0.000204227
0.0449749
0.000234785
0.000237718
0.000214622
0.00014623
0.000178732
0.00019356
0.000729611
0.0484845
0.0238309
0.000161383
0.000153349
0.000153026
0.057004
0.000222912
9.74979e-05
0.0023921
0.0561752
0.000216993
0.00390997
0.000188841
0.0168902
0.0157075
0.00025844
0.000178984
0.000147343
0.000183438
0.00013528
0.000140936
0.000355708
0.000167227
0.000176533
0.0002059
0.000152745
0.000136952
0.000255832
0.00184575
0.000179286
0.000232622
0.000192957
5.31532e-05
0.000237022
0.00509937
0.000154822
0.000234599
0.000140188
0.000223512
0.000212202
0.000175596
0.000186056
0.0390066
0.000608
0.000139321
0.0208739
0.0254351
0.000147996
0.000148304
0.000191512
0.000148942
0.000181639
0.000138246
0.0448653
0.000172945
0.0297808
0.0429812
0.000191118
0.0175237
0.000153417
0.000173505
0.0259011
0.000193591
0.000189529
0.000202666
0.000145009
0.000146241
0.000181989
0.00019057
0.000139946
0.00310759
0.000204579
0.0276506
0.0155616
0.000209661
0.000150708
0.000149669
0.000271666
0.000144681
0.000139999
0.000199474
0.000138804
0.000454729
0.000182726
0.00017831
0.000171051
0.000161717
0.00022039
0.000226985
0.000178793
0.000190881
0.00421105
0.000147017
0.000248379
0.000164849
0.000226788
0.0159286
0.0496426
0.000138049
0.000162499
0.000162628
0.00390055
0.00330494
0.000189464
2.45769e-05
0.000148387
0.000160783
0.000198937
0.0438421
0.000142106
0.000208441
0.000197931
0.00016996
0.00962483
0.00849117
0.000170661
8.2554e-05
0.00014331
0.00949395
0.000169086
0.00529762
0.000203593
0.000164763
0.000180071
0.000187797
0.000165512
0.000198473
0.000158627
0.000286934
0.000574742
0.000152108
0.0518955
0.000108676
0.017675
0.000134169
0.000168345
0.000136824
0.000160886
0.000201168
0.000187827
0.000143143
0.0220338
8.012e-05
0.0451358
0.000145505
0.000197389
0.000188395
7.23696e-05
0.000148509
0.00014333
0.000631748
0.00017169
0.000188707
0.0221987
0.000143004
0.000193115
0.000162511
0.0001864
0.00030823
0.000196682
0.000161455
0.000171098
2.24877e-05
0.0459533
0.0158601
0.0250956
0.0155269
0.000143764
0.000234065
0.00441052
0.000205215
0.000195536
0.000195481
0.000140933
0.000153023
0.00028698
0.000193885
0.00219039
0.000103045
0.000789775
0.000201294
0.00113253
0.000147327
0.000186879
0.0607082
0.000134323
0.00013994
0.00303192
0.000195258
0.056492
0.000198152
0.00025459
0.0456541
0.000217968
0.000205326
0.000143793
0.000159546
0.020916
0.00355955
0.00312898
0.000158271
0.000196673
0.000421784
0.000178798
0.000278055
0.000426476
0.00023899
0.00109673
0.000180118
0.0516313
0.000226481
0.000273129
0.0289223
0.000161444
0.000179692
0.000199218
4.92701e-05
0.000152905
0.00013236
0.000170817
0.00104216
0.000207367
0.0198487
0.00017014
0.000139679
0.000168742
0.000249582
0.000200567
0.0103779
0.00345995
4.21854e-05
0.00016336
0.000322109
0.000178913
0.000154383
0.000189251
0.000143315
0.000151155
0.00019733
0.000146041
0.000198616
0.000189443
0.053441
0.000154178
0.00014417
0.000254794
0.000246547
0.000140486
0.000217314
0.000189663
0.0584157
0.000146733
0.012983
0.00018991
0.000187303
0.000170754
0.000199679
0.000398861