/*--------------------------------*- C++ -*----------------------------------*\
| =========                 |                                                 |
| \\      /  F ield         | OpenFOAM: The Open Source CFD Toolbox           |
|  \\    /   O peration     | Version:  v2012                                 |
|   \\  /    A nd           | Website:  www.openfoam.com                      |
|    \\/     M anipulation  |                                                 |
\*---------------------------------------------------------------------------*/
FoamFile
{
    version     2.0;
    format      ascii;
    class       volScalarField;
    location    "700";
    object      nut;
}
// * * * * * * * * * * * * * * * * * * * * * * * * * * * * * * * * * * * * * //

dimensions      [0 2 -1 0 0 0 0];


internalField   nonuniform List<scalar> 
14479
(
0.00902399
0.0358058
0.000439641
0.0066667
0.0022115
0.00648697
0.00677703
0.00012389
0.000130814
0.000138047
0.00681245
0.00127269
0.000824973
0.0365793
0.0262065
0.00636494
0.00678957
0.0205107
0.00677642
0.00353621
0.00040117
0.00209407
0.00601616
0.00429218
0.00682348
0.00676928
2.61271e-05
0.000171323
0.00681655
3.31665e-05
0.000304959
0.00310156
0.00905629
0.00897565
0.000535193
0.000572184
0.00683755
0.00642071
0.0361053
0.000424176
0.00636256
0.00682671
0.0301725
0.0272155
0.00683314
0.00641835
0.00674852
0.0350872
0.00494511
0.00682174
0.0011469
0.00024852
0.00677213
0.000967636
0.00608139
0.000855266
0.000485492
0.00678172
0.0443104
0.00678326
0.00682915
0.00618563
0.00874266
0.00675161
0.00676631
0.0147632
0.0324319
0.0180082
0.00677233
0.00681705
0.0221113
0.0067438
0.00153682
0.0003989
0.00629418
0.00674615
0.00324579
0.00882972
0.00674929
0.0165571
0.00678119
0.000343176
0.0337963
0.000133368
9.85931e-05
0.00482044
0.00343881
0.00677518
0.000147828
0.00676887
0.000170866
0.0296825
0.00580567
0.00674876
0.0121529
0.00676503
0.00675174
0.00667304
0.00673617
0.0359173
0.0149872
0.00637297
0.000845697
0.000682893
0.0248946
0.000102413
0.0349194
0.00769186
0.000134779
0.035029
0.0347495
0.0297114
0.00377655
0.000808831
0.000102739
0.000271386
0.00676821
0.0189905
0.00200863
0.00488021
0.00674381
0.0023295
0.00128509
0.00673494
0.0139504
0.00448928
0.006518
0.0202794
0.00137291
0.0089223
0.00564906
0.00378991
6.58594e-05
0.022542
0.036184
0.000766258
0.000340766
0.000280042
0.0139186
6.04098e-05
0.0284401
0.000566879
0.00692471
0.0304065
0.00678084
0.0419362
0.000322153
0.00698505
0.00544566
0.00064645
0.044319
0.00674878
0.042064
0.00653607
0.00676949
0.00689444
0.0185336
0.00968772
0.035204
0.000909063
0.000490763
0.00669832
0.00675021
0.00280835
0.0435488
0.00665432
0.00675692
0.000296865
0.000142287
0.0340179
0.00346779
0.000514393
0.00641653
0.000819228
0.00674156
0.00476008
0.000687348
0.00673472
0.0108995
0.0182372
0.00031727
0.00697069
0.0356267
0.00535362
0.0333944
0.0116418
5.38916e-05
0.00614168
0.00680174
6.03834e-05
0.00456085
0.00149324
0.00981579
0.0168941
0.00632359
0.000685366
0.00678023
0.00792946
0.000960987
0.00674833
0.000566435
0.00364568
0.00296864
0.0067609
0.00094146
0.0069898
0.0414846
0.00637132
0.00677714
0.00102767
0.000907441
0.00683361
0.000998049
0.00122322
3.42356e-05
0.0377074
0.0165475
0.00163755
0.0374779
0.00574786
0.0340826
3.70472e-05
0.00669459
0.00403653
0.000233222
0.00658246
0.019027
0.00672722
0.000214509
0.00856048
0.00544017
0.00227187
0.0382052
0.00694541
0.00659232
0.000227182
0.00227735
0.000163817
0.00493481
0.00677781
0.00583091
0.00675019
0.000154711
0.0029348
0.0105194
0.000338529
0.0167364
0.0349491
0.0050569
0.00677425
0.0157651
0.00813193
0.0115015
0.000148865
0.0373793
0.00674765
0.00131745
0.0067883
0.00374639
0.00676315
0.0067267
0.00470818
0.00676338
0.00673752
0.00673497
0.00129674
0.00219231
0.00677458
0.0188989
0.000471567
0.000238994
0.00688759
0.00158559
0.000581463
0.00022879
0.0094514
0.000162083
0.00681291
0.000951695
0.00374534
0.000325247
0.00623255
0.00617101
0.00666269
9.18184e-05
4.56709e-05
0.000222214
0.00011508
0.000552506
0.0211701
0.000117654
0.00536869
0.00451739
0.0182223
0.00330622
0.0164632
0.000342152
0.00679794
0.000548034
0.0109431
0.00354291
0.0248752
0.00673421
0.00685598
0.000383331
0.00522169
0.00671696
0.0184348
0.00677125
8.67213e-05
0.00677358
0.0163461
0.00664299
0.007046
0.000479962
0.00039253
0.00147028
0.00176883
0.000513408
0.00672571
0.000220431
0.000179395
0.02489
0.0128613
0.00683336
0.000171746
0.00315593
0.0413404
0.00100658
0.00337157
0.00477787
0.00676867
0.00424728
0.000339016
0.00647218
0.00558165
0.0142242
0.00139196
0.00234586
0.0040218
0.00683625
0.00196336
0.00676127
0.000408195
0.0105383
0.000845511
0.0146461
0.000411664
0.000228205
0.000398564
0.006754
0.00228722
0.00170949
0.0105622
0.00124031
0.0047957
5.08924e-05
0.000397793
0.00683143
0.000520849
0.00714752
0.00102342
0.000753712
0.0170653
0.00665788
0.00717726
0.00685571
0.00360599
0.000184464
0.00684302
0.00641072
0.0354393
0.00644148
0.000359326
0.0252396
8.77992e-05
0.00621357
0.000157368
0.0012068
0.00681294
0.000461539
0.000157933
0.00675136
0.00349352
0.00146722
0.00686571
0.0111889
0.00683528
0.0104749
0.00200094
0.000133396
0.00107485
0.00661003
0.0214778
0.0115641
0.00180794
0.00280654
0.0223555
0.000666916
0.000119992
0.000249968
0.0001655
0.000811219
0.00524419
0.000448814
0.00233296
0.00108742
0.00056501
0.00135689
0.00033118
0.0369299
0.000126295
0.000878654
0.000676132
0.00681775
0.0190079
0.00682188
0.00676125
0.00308828
0.000315815
0.0290137
0.00815193
0.0115614
0.0158972
0.0030455
0.00680136
0.00658246
0.00160475
0.00690652
0.00684868
0.00603607
0.000451777
0.00485852
0.0415936
0.00890233
0.000438504
0.0102689
0.00451791
0.000247406
0.00683356
0.00691617
0.00679552
0.00689854
0.00442502
0.00685173
0.00673806
0.00567788
0.0173944
0.00130259
0.00565545
0.00694098
0.00685307
0.00537025
0.00167876
0.00878587
0.000348564
0.00683557
0.000130988
0.0011115
0.000213602
0.000140932
0.00682226
0.00278576
0.000853074
0.0158719
0.00672569
0.000396236
0.000661499
0.00847155
0.00682176
0.00672858
0.000207616
0.00630592
0.00662366
0.0030119
0.0148027
0.000251127
0.0380103
0.000250667
0.00670316
7.30302e-05
0.000533947
0.0106327
0.0131553
0.000390145
0.00657228
0.00693221
0.00324233
0.0292829
0.00219415
0.0067557
0.00672862
0.000191209
0.00682402
0.00658439
0.00455731
0.00675403
0.000267852
0.00668735
0.000114812
0.000604015
0.00358091
0.00437438
0.000450152
0.000379225
0.000130104
0.000109222
0.0216213
0.00141213
0.00661335
0.0068774
0.0027296
0.00663514
0.000134249
0.00680502
0.0104973
1.73004e-05
0.00662223
0.025265
0.000154826
0.00204978
0.00182887
0.00672979
0.00102966
0.00509113
0.000172498
0.00612113
0.00093458
0.0451876
0.00655551
0.000218967
0.00122871
0.00288702
0.00674863
0.00674746
0.00708508
0.0016809
0.00348674
0.000422743
0.000956536
0.000513386
0.0244028
0.00108556
0.00677766
0.0344473
0.00105138
0.00486617
0.018209
0.0170023
0.00398043
0.00177515
0.000102267
0.000581241
0.00610877
0.00102044
0.0281658
0.0156775
0.00034045
0.00646181
0.00027314
0.00693574
0.00680958
0.00657646
0.00655046
0.000130429
0.00462428
0.00643007
0.041315
0.0003826
0.00675019
0.0337971
0.00307085
0.00279119
0.00722716
0.000484371
0.000137284
0.000693154
0.00674797
0.000102368
0.00747603
0.000289251
0.00302523
0.0026568
0.00473073
0.00417531
0.0376997
0.00276267
0.000738676
0.0163835
0.00521418
0.000548785
0.00652929
0.00270395
0.0362301
0.00577862
0.022131
0.0150643
0.00673855
0.0149831
0.00395497
0.00680215
0.00108935
0.00633002
0.00259982
0.00656665
0.000217486
0.0213126
0.000271567
0.000431745
0.0020655
0.000684201
0.000807381
0.00363653
0.00172781
0.00504907
0.0159734
0.0047599
0.000164175
0.00653366
0.0413091
0.00938855
0.0187809
0.000667121
0.00106238
0.00683066
0.000211616
0.003903
0.0349296
0.00537222
0.00265065
0.00523379
0.00673043
0.000632741
0.00288554
0.00721047
0.0101274
0.00409072
0.00037494
0.0341747
0.00675405
0.00172556
0.00682879
0.00741585
0.0193386
0.000390038
0.0154081
0.000573451
0.00576972
0.000191467
0.00117732
0.00677571
0.00680217
0.00263478
0.000259445
0.000591532
0.00608401
0.000427312
0.000891695
0.0152539
0.00522459
0.0222187
0.0217096
0.0360711
0.0064497
0.00032118
0.00353327
0.000303683
0.00690161
0.00108923
0.00674169
0.00174028
0.00175667
0.00678811
0.00674274
0.00674471
0.00683092
0.000386962
0.000607801
0.0070241
0.0156246
0.00678453
0.00264829
0.000803099
7.39624e-05
0.00477233
0.00675932
0.0216014
0.00714204
0.0431825
0.0103763
0.00940736
0.000169499
0.00666668
0.00250513
0.00111965
0.00173638
0.00739294
0.00680387
0.00715986
0.00657423
0.0049558
0.00645553
0.000544332
0.00667114
0.00681667
0.000343858
0.00719732
0.000247857
0.0406562
0.0120775
0.019864
0.0186781
0.000482156
0.0192419
0.0067095
0.00957072
0.00806843
0.00462146
0.00141609
0.00673987
0.00108664
0.00122056
0.00427488
0.00257302
0.00738457
0.0140354
0.000177342
0.015315
0.00108348
0.000711187
0.00673761
0.00678464
0.000407495
0.000606391
0.0351903
0.00674727
0.000477057
0.00332802
0.000651353
0.0197679
0.000364247
0.00674267
0.005216
0.000236403
0.00674507
0.00682244
0.0066695
0.000543847
0.00639249
0.000420612
0.0214462
0.00657385
0.000118191
0.0357716
0.00535715
0.000453458
0.000453426
0.0194476
0.000190223
0.000470931
0.0377047
0.0079809
0.000288541
0.00614192
0.00680688
0.01382
0.000713105
0.00153112
0.000141814
0.0068062
0.000570198
0.00194532
0.0067426
0.00714597
0.00506663
0.0146998
0.0431805
0.0166264
0.00680403
0.000409666
0.0017954
0.00402845
0.000247008
0.00674846
0.0299925
0.000448197
0.000513478
0.00399413
0.00633042
0.00761806
8.69901e-05
0.000631501
0.00345427
0.00977652
0.000348214
0.00127912
8.85889e-05
0.000232464
0.00674274
0.0259823
0.00668089
0.00111552
0.0047194
0.000386749
0.0127606
0.00670565
0.00309722
0.000210319
0.00766774
0.0068923
0.00127248
0.0313748
0.00679219
0.0164462
0.00732068
0.000490726
0.000434834
0.0027308
0.00385751
0.00680877
0.0333513
0.00674803
0.00750974
0.00515848
0.00723264
0.0080953
0.000532106
0.00676606
0.016964
0.00016043
0.000366926
0.00678421
0.00630351
0.00621844
0.000377317
9.96279e-05
0.0203978
0.00690197
0.000421047
0.000205182
0.0066735
0.000800292
0.000545047
0.000479842
0.00183925
0.0064285
0.00682554
0.00694272
0.00669144
0.00616972
0.012908
0.00956148
0.00105252
5.30242e-05
0.000175428
0.00381614
0.0452795
0.00653211
0.000109777
0.00384954
0.0399882
0.000182781
0.0036685
0.00674573
0.00438063
0.00540469
0.00662186
0.0366131
0.000276494
0.023301
0.00730258
0.00650017
0.000581418
0.00632442
0.000958091
0.00674327
0.00739579
0.00129152
0.00443918
0.00680569
0.0068681
0.00678213
0.000413145
0.00193002
0.007513
0.000750311
0.00159068
0.000424111
0.00674989
0.000123826
0.000300386
0.0147442
0.00683486
0.00206296
0.00674758
0.000344359
0.00681103
0.00184739
0.0068084
0.00673729
0.00290364
0.00752089
0.00374981
0.000391563
0.00515724
0.0283401
0.0387077
0.00682728
0.00653664
0.00676412
0.0067349
0.00631961
0.00727943
0.0181629
0.0188854
0.00553423
0.000423701
0.00038102
0.00639292
0.000159897
0.00266516
0.00623842
0.00664318
0.0018381
0.00561409
0.0152318
0.00593925
0.00673036
0.00681177
0.000125207
0.00548315
0.00030707
0.000209691
0.00683852
0.00674896
0.00576824
0.0109881
0.000718545
0.00238424
0.00262653
0.0119892
0.000475715
0.0104326
0.0158079
0.00102514
0.00910334
0.0174937
0.000910831
0.000422999
0.00674835
0.00905956
0.0134066
0.00219154
0.00171936
0.00673311
0.00117266
0.01408
0.00618121
0.0210708
0.0067302
0.00679937
0.001035
0.0068101
0.00681992
0.00680558
0.000353346
0.00171542
0.00666763
0.00130384
0.00619798
0.00256468
0.0067385
0.0189361
0.00679994
0.000405026
0.0340176
0.00481824
0.000364255
0.0352195
0.00759004
0.00350292
0.00513228
0.000775198
0.00748324
2.76376e-05
0.000342179
0.0091911
0.00583265
0.000171781
0.000937626
0.000310123
2.45587e-05
0.000133676
0.00220208
0.00018281
0.00676347
0.00068938
0.00667118
0.00062409
0.00345492
0.00661294
0.00624003
0.00405255
0.00153063
0.0095025
0.00021752
0.000140972
0.00678973
0.0054919
0.00706468
0.00279059
4.49986e-05
0.00682436
0.000188324
0.00677362
0.000308061
0.00108249
0.00681442
0.00013514
0.00329424
0.00458438
0.0203525
0.00995121
0.00689362
0.000484667
0.035247
0.00250623
0.00435233
0.00205198
0.00817685
0.00685996
0.00515761
0.00696261
0.000337663
0.00273334
0.00773564
0.000361844
0.021195
0.0067494
0.0049539
0.0067277
0.000334612
0.000690811
0.00680652
0.00157727
0.00459055
0.00405391
0.00605333
0.000136917
0.000418773
0.00674519
0.000180582
0.0444139
0.00625417
0.00406423
0.00674698
9.33399e-05
0.00680457
0.00659878
0.00976713
0.00700606
0.00681669
0.0192685
0.00744164
0.000190143
0.00427328
0.0068351
0.00367467
0.00607466
0.000281607
0.0237846
0.00689642
0.000404091
0.0420632
0.017719
0.00081529
0.00360901
0.00676365
0.0218552
8.32912e-05
0.0158872
0.00909479
0.00300155
0.00134601
0.00691491
0.00681053
0.00593189
0.000127277
0.00571427
6.42992e-05
0.000107019
0.0408166
0.00693827
0.00618751
0.0147005
0.0415838
7.84155e-05
0.0284579
0.00135127
0.0387736
0.00408535
0.00447378
0.000215692
0.00677682
0.000777553
0.00248036
0.000713784
0.000363492
0.000379805
0.000317
0.00437495
0.00610931
0.00348108
0.0131457
0.00674515
0.000571498
0.0013614
0.00350006
0.0338428
0.0162451
0.00227245
0.0203848
0.000352606
0.00044628
7.40786e-05
0.00680068
0.0173494
0.000877221
0.000302578
0.00673995
0.0012032
0.0347978
0.0163361
0.00114416
0.000293781
0.00307156
0.000475979
0.000954819
0.000132264
0.00200682
0.00015934
0.00107107
0.0290763
0.00674518
0.00752813
0.00118878
0.00122887
0.00153275
0.00673761
0.000519506
0.00644436
0.00682517
0.000391526
0.00868928
0.000127732
0.00818285
0.00302042
0.0229582
0.00167115
0.0177869
0.000585792
0.0067524
0.000794352
0.00157047
0.000270797
0.00367338
0.000387788
0.000528062
0.000301132
0.000741895
0.00187887
1.63374e-05
0.000177811
0.00599799
0.00190624
0.00335579
0.000138264
0.0207186
0.00674077
0.0364627
0.0113085
0.00352055
0.000620078
0.00280096
0.00255791
0.00222821
0.000549742
0.037726
0.00315692
0.00681241
0.000145713
0.00105522
0.0137711
0.00672464
0.00121799
0.0010735
0.00503868
0.0144913
0.0189721
0.000496148
0.000592412
0.000285047
0.000124247
0.000603446
0.000193536
0.000486159
0.00402677
0.000303094
0.000371442
5.51054e-05
0.00118325
0.0312522
0.000620709
0.0165092
0.00591287
0.0216474
0.00091788
0.000116444
0.00702308
0.00732341
0.00201153
0.00678259
0.00359653
0.000123547
0.00668473
0.00033044
0.00680963
7.67695e-05
0.0012019
0.00263409
0.0191671
3.45579e-05
0.00637411
0.000415253
0.018594
0.00338867
0.00289085
0.00678878
0.00667165
0.00674489
0.000245044
0.00646521
0.000452237
0.00678666
0.0193458
0.0336436
0.000304088
0.00121138
9.39795e-05
0.00918113
0.00205405
9.06369e-05
0.000216837
0.0460306
0.000199519
0.00502387
0.000847576
0.0160151
0.00137472
0.00675557
0.00884342
0.00674275
0.000685812
0.0046684
0.0233255
0.0232179
0.00131319
0.00027908
0.0112779
0.0358625
0.00203131
0.000694832
0.00895557
0.0210234
0.00689669
0.0208319
0.00261207
0.00111247
0.0203697
0.0234291
0.00646995
0.00678152
0.00197082
0.0194026
0.000168432
0.000698105
0.0181331
0.000157222
0.00146412
0.000557013
0.00255601
0.00601796
0.000326575
0.0162329
0.000300055
0.00202142
0.000392583
0.00436918
0.00164464
0.00626715
0.00034629
9.04911e-05
0.00104503
0.0156663
0.000300824
0.00427774
0.00148591
0.0068398
0.0010901
8.51419e-05
0.0164146
0.00682449
0.00184055
0.00406337
0.00703014
8.21855e-05
0.00673153
0.00586277
0.00434145
0.00674889
0.00782275
0.00672486
0.000145769
0.00728508
0.00677912
0.000856542
0.00341368
0.00651163
0.000760493
0.00701214
0.000740801
0.000422852
0.00675721
0.00733953
0.0011161
0.0131051
0.00678388
0.000812916
0.00631309
0.0318871
0.00672647
0.0219108
0.00449966
0.0191868
0.00496854
0.000335726
0.00675267
0.00484951
0.0105169
0.0226037
0.00120438
0.00178737
0.0139799
0.00869782
0.0003465
0.00657272
0.00243191
0.00037661
0.00108419
0.0067401
0.00665819
0.0295559
0.0202735
0.00129606
0.000107251
0.000434354
0.0293377
0.00152315
0.00585956
0.00284029
0.0067382
0.0075
0.000422796
0.0184139
0.00657847
0.00115483
0.00682691
0.00144676
0.00690595
0.00146555
0.00117443
0.000170866
0.00684257
0.0320921
0.00423553
0.006766
0.000257472
0.00700661
0.0291915
0.000377326
0.0020787
0.0165279
0.0052078
7.77904e-05
0.0323538
0.00681338
0.00677842
0.000255764
0.0155737
0.000186011
0.00674733
0.00672767
0.0027419
0.0176459
0.00661647
0.00191708
0.0117125
0.000459997
0.0047942
0.0211395
0.00676027
0.00637001
0.00674312
0.00674978
0.00475326
0.00651542
8.42518e-05
0.0222254
0.000168658
0.00675409
0.00685179
0.00674086
0.00226344
0.000246238
0.0203994
0.000465173
0.007425
0.000251522
0.00239307
0.000231851
0.00667178
0.0230987
0.000185854
0.00654811
0.00388658
0.00150473
0.000473499
0.00054762
0.0221325
0.0010896
0.00231165
0.00422025
0.00666661
8.48912e-05
0.00121455
0.000232287
0.0004241
0.0117352
0.00121255
0.000217763
0.000323702
0.000827237
0.0173354
0.0196361
0.00889102
0.00675304
0.00715851
0.00703287
0.000819903
0.00544323
0.000857391
0.000163274
0.00669109
0.000447354
0.0164492
0.000185979
0.000207652
0.00363345
3.03946e-05
0.00112149
0.00626231
0.033568
0.00673161
0.00673469
0.0024899
0.00687547
0.00673139
0.00225101
0.00653876
0.00644101
0.000304704
0.0042262
0.00161371
0.000261769
0.0364085
0.00474713
0.00141154
0.000162514
0.00302508
0.000577315
0.000170018
0.00678117
0.0285936
0.0198957
0.000618252
0.000617229
0.00433308
0.0017724
0.00569082
0.000480811
0.000118757
0.0068124
0.00761391
0.0127474
0.000310222
0.0481405
0.000399883
0.00476267
0.000266637
0.00257249
0.00674467
0.000117467
0.0221622
0.00111704
0.00217427
0.00023351
0.000228962
0.00270311
0.000836641
0.00116976
0.00317798
0.000494132
0.0306128
0.00650723
0.000153065
0.0152544
0.000171792
0.0243134
0.00685139
0.0329208
0.000371608
0.00984012
3.99003e-05
0.000429749
0.00674844
0.00684712
0.000425019
0.00122027
0.00649506
0.000447411
0.00673083
0.000231955
0.000835081
0.000220905
0.0457039
0.0410151
0.00674206
0.0293092
0.0151885
0.000418472
4.49355e-05
0.00429293
7.90546e-05
0.000145427
0.00256142
0.000934821
0.00223271
0.00511431
0.00922657
0.00168234
0.017043
0.000363734
0.0192327
0.00673612
0.0165599
0.0014418
0.0135307
0.00175541
0.0414136
0.012821
0.000362418
0.000329373
0.00192894
0.00488445
0.000374084
0.000137928
5.3531e-05
0.0256342
0.00110763
0.0068391
0.000320413
0.00644092
0.0142476
0.0422171
0.00012811
0.00790615
0.00136091
0.00664321
0.00110438
0.00684149
0.00660883
0.00226884
0.00435204
0.000647499
0.00673231
0.0013818
0.00678544
0.00658868
0.0151941
0.00672677
0.000120223
0.00130921
0.000267914
0.0281376
0.000290415
0.000986313
0.0163065
0.000440795
0.00383148
0.000940094
0.00676327
0.00678716
0.000490871
0.0400176
0.00102771
0.000470086
0.000122513
0.000162546
0.000237273
0.0150281
5.40681e-05
0.00661856
0.000135062
0.00199368
0.000415695
0.0188365
0.000159171
0.00684494
0.0200114
0.0068008
0.00540068
0.000217442
0.00680105
0.0196671
0.0216477
0.000211204
0.00685795
0.00326988
0.000315799
0.00313514
0.000152227
0.000197832
0.000294393
0.000364902
0.00680271
0.000156839
0.00402212
0.02202
0.0407874
0.0131103
0.000109108
4.87357e-05
0.00661586
0.000686194
0.00302718
0.000176123
0.0113902
0.00714708
0.00463424
2.81574e-05
0.0067806
0.00674709
0.000786124
0.0212323
0.000123984
0.000518458
0.00675122
0.000613198
0.00740083
0.00564114
0.00484534
0.000439264
0.00028338
0.0278876
0.000826071
0.00123142
0.00676179
0.00120883
0.00387722
0.00577969
0.0161453
0.00681016
0.0029436
0.00675212
0.00518909
0.0135091
0.0208737
0.00737171
0.00774203
0.00684529
0.0137722
0.0045585
0.00138505
0.0191219
9.84044e-05
0.00176675
0.00170421
0.0447442
0.0154922
0.00682687
0.0121789
0.0194053
0.000238922
0.0171803
0.0433962
0.00672962
0.00783352
0.00102007
0.000376545
0.0011794
0.00674241
0.000212832
0.00680378
0.00136854
0.0390703
0.00202801
0.000945553
0.019233
0.00679768
0.0378703
0.00182597
0.00409921
0.00839452
0.000428052
0.00233174
0.000435165
0.000171529
0.0067331
0.00405465
0.00653858
0.0085195
0.00225359
0.00682443
0.000584105
0.00547328
0.00121521
0.000690541
0.00725036
0.00254451
0.00687509
0.00195458
0.00509928
0.0188782
0.00149086
0.00111842
0.00839869
0.00103863
0.000177594
0.00674408
0.0156025
0.0067542
0.000717784
0.00163991
0.00741658
0.000607863
0.0290008
0.00603202
0.000508283
0.0108648
0.00155324
0.000696421
0.00626099
0.000164296
0.00686203
0.00628587
0.00679271
0.00112485
0.00360118
0.0070166
0.000248693
0.000203263
0.00614908
0.000156353
0.00671385
0.00552601
0.0204874
0.00678146
0.000181312
0.0361674
0.000194261
0.0067819
0.0221691
0.00149205
0.00718284
0.000326723
0.00284212
0.000134416
0.000341744
0.000260206
0.0001086
0.00698974
0.000245919
0.00375651
0.021661
0.0105844
0.00130039
0.000586968
0.000656655
0.000473869
0.00495638
0.000461549
0.00517349
0.00558359
0.000280846
0.0032334
0.000194859
0.00526135
0.00679662
0.000216056
0.0061422
0.0407949
0.000511612
0.00605964
0.00117373
0.00674383
0.00046001
0.0010254
0.0332537
0.00679058
0.000238437
0.00113669
0.00644092
0.0068055
0.00028748
0.000247243
0.000358401
0.000870701
0.00145433
0.0439042
0.00148288
0.00458672
0.000903458
0.00112097
0.00135405
0.000310638
0.00673181
0.00674183
0.00153974
0.000524865
0.00762985
0.00390862
0.000909416
0.00136276
0.00680957
0.000574968
0.00731846
0.000263598
0.000171988
0.0372688
0.000599457
0.0192998
0.000187231
0.00158928
0.00337116
0.0205031
0.00300099
0.0257842
0.00559558
0.00615068
0.0142639
0.00678179
0.00381746
0.00674177
0.0026342
0.000575747
0.0336406
0.00850289
0.000328639
0.00681959
0.000518992
0.000390286
1.29993e-05
0.00677514
0.000706911
0.0144721
0.000746316
0.000218932
0.0288885
0.000133225
0.0294314
0.00675995
0.000327686
0.000437886
0.00112348
0.000207275
0.000391458
0.00354884
0.000197244
0.00604334
0.000260381
0.00661538
0.00672064
0.00864678
0.00380532
0.00687887
0.0066949
0.00627218
0.00677218
0.00618197
0.00196797
0.00678417
0.0067436
0.00675225
0.0227083
0.00846672
0.00339631
0.0312489
0.00997082
0.00626766
0.0010513
0.00293965
0.00129365
0.00310541
0.00460329
0.000989391
0.00662501
0.00383827
0.00036533
0.00403598
0.00658611
0.00794437
0.00674767
0.00682046
0.00672306
0.000152423
0.00019425
0.000132286
0.00412863
0.00673511
0.00676187
0.00063344
0.00634358
0.00157102
0.00189884
0.00665848
0.00263902
0.00638846
0.00682689
0.000189161
0.00066182
0.00967206
0.000239857
0.000113608
0.00672259
2.43619e-05
0.000436149
0.000260686
0.00668385
0.00678983
0.00692289
0.000316372
0.000727206
0.000196858
0.00165622
0.0355045
0.00732458
0.00140465
0.00209347
0.000972398
0.00183874
0.0060734
0.006736
0.0048514
0.000907944
0.018015
0.00181775
0.000320048
0.00549046
0.00502702
0.00188183
0.000361463
0.000294292
0.000664836
0.0168871
0.000193507
0.000120187
0.00680609
0.00246117
0.0170426
0.00220009
0.000394162
0.000221413
0.000501031
0.000867661
0.00186624
0.00325685
0.00213156
0.00140652
0.000216752
0.000160818
0.000338053
0.000470466
0.0429565
0.00016503
0.000102955
0.000230337
0.000972328
0.000233046
0.00685363
0.0395266
0.00274429
0.00948277
0.00123077
0.00151704
0.0033851
0.00093829
0.00799518
0.00461267
0.001453
0.000932681
0.00035381
0.00024809
0.00184216
0.00579407
0.006651
9.02102e-05
0.000431388
0.00219054
0.0067745
0.0438844
0.0352082
0.00674296
0.00146658
0.000845963
0.0336959
0.0003232
0.000276208
0.000101586
0.0191117
0.0204372
0.000391907
0.00251935
0.000242165
0.00673634
0.00674715
0.00673837
0.000361221
0.000333836
0.000209354
0.00596814
0.00322
0.00570693
0.00683079
0.000222619
0.00828853
0.00678881
0.00289851
0.00332919
0.0016721
0.00647807
0.0010905
0.00852964
0.00503075
0.0107416
0.0297581
0.000874276
0.000858676
0.000536842
0.00357444
0.029797
0.000330729
0.00681834
0.00033901
0.0189894
0.00617514
0.00676428
0.000108264
0.000286705
0.00675455
0.0404293
0.0016249
0.002191
0.0098513
0.0112384
0.00603995
0.00673959
0.0102158
0.00676838
0.00674252
0.00355116
0.00433266
0.0233412
0.00931937
0.0155277
0.000449023
0.00832396
0.00698257
0.0064673
0.00159511
0.00679517
0.00675031
0.00737302
0.000314598
0.00673241
0.000970955
0.0138622
0.000229691
0.00676155
0.00584107
0.000279669
0.00151892
0.00028802
0.00679962
0.00665319
0.000346725
0.0187388
0.00272961
0.000407371
0.00617695
0.0032015
0.0165479
0.00611347
0.00688793
4.93105e-05
0.00045647
0.00681575
0.00676591
0.0410868
0.00156479
0.010699
9.43788e-05
0.000220174
0.00651247
0.0067148
0.0242569
0.00515822
0.00133235
0.00673564
0.00695744
0.000100188
0.00140874
0.00658029
0.0240725
0.00676604
0.00652499
0.000266612
0.00850575
4.79371e-05
0.0400494
0.000378996
7.96319e-05
0.00154789
0.00708226
0.00675997
0.00190303
0.00636924
0.00109618
0.000208562
0.00689105
0.0133036
0.000366792
0.0106565
0.000355436
0.00683311
8.53409e-05
0.0273739
0.00681836
0.0140339
9.69665e-05
0.0138673
0.0135052
0.00181467
0.0066847
0.00191018
0.000193072
0.000123219
0.000160064
0.000118875
5.54687e-05
0.0219684
0.0409447
0.00674128
0.00659313
0.00131438
0.0341038
0.00203355
0.00692399
0.000817247
0.00682899
0.00678286
0.00672989
0.00896845
0.00341753
0.00672048
0.000126238
0.00678461
0.00893921
0.00447002
0.00160188
0.0203729
9.20774e-05
0.00668243
0.00505461
0.0444558
0.0455846
0.0281068
0.00175423
0.00683
0.00673688
0.00254309
0.0067204
0.0261226
0.0148117
0.0048028
8.25335e-05
0.000950861
0.00674354
0.000105999
0.00152499
0.000508259
0.00415037
0.00835469
0.00673439
0.010389
0.000194265
1.42126e-05
0.00256346
0.00825542
0.00101402
8.82997e-05
0.0145135
0.000282048
0.00678728
0.000100416
9.43095e-05
0.000445142
0.00018796
0.00676787
5.01873e-05
0.00577
0.000141966
0.0074524
0.00668708
0.00475557
0.000266601
0.00946992
0.000341412
0.0067489
0.000115869
0.00670717
0.00489023
0.00132602
0.040643
0.00153443
0.000633938
0.00316673
4.62429e-05
0.000328563
0.00322515
0.00615546
0.00778371
0.0225484
0.0105356
0.00685006
0.000276041
0.000122346
0.0025987
0.00114848
0.00677997
0.00386015
0.00103435
0.00684211
0.00664666
0.00034398
0.000162125
0.000753559
0.00695827
0.00700888
0.00853104
0.0212931
0.000833348
0.00110725
0.0187236
0.00660505
0.0106016
0.014355
0.000315968
0.000105916
7.72819e-05
0.000184295
0.00555881
0.000211873
0.000272309
0.000293582
0.0067774
0.000529807
0.000198692
0.00395188
0.00697199
0.0146877
0.00187495
0.00508207
0.00669681
0.0212947
0.000146813
0.000124194
0.00327808
0.0224339
0.000624476
0.00116344
0.0010917
0.0297143
0.0117162
0.00951627
0.000406793
0.00674164
0.000629689
6.80571e-05
0.0068231
0.000176183
0.00733376
0.000412897
0.000168745
0.0067037
0.00673455
0.00946763
0.00594744
0.000418371
9.1241e-05
0.00154944
0.000893252
0.00011564
0.0138447
0.00649475
0.0013859
0.00680469
0.000922455
0.00846367
0.000481389
0.00111961
0.014838
0.000245013
0.00675046
0.0243092
0.0261866
0.0068121
0.00682046
0.000246344
0.00685358
0.00110631
0.00673239
0.0230115
0.0073653
0.00236285
0.00922772
0.000319762
0.0130126
0.00385173
0.00718184
0.00969471
6.75493e-05
0.000454702
0.000173611
0.00676358
0.00680521
0.000426426
0.000324599
0.00675004
0.00787156
0.000146909
0.00480533
0.0363864
9.81271e-05
0.00526239
0.00624653
0.00950105
0.00673384
0.00675753
0.000157934
0.00673676
0.00437682
0.000341586
0.00651267
0.000568883
0.00157779
0.000178257
0.000551936
0.000524931
0.000244657
0.00132919
0.00681403
0.000274077
0.00113514
0.00163016
0.0373076
0.0232941
0.00676226
0.00625964
0.00151729
0.00462466
0.00120917
0.000290628
3.6979e-05
0.0068185
0.00137968
0.000212759
0.00890633
0.00690044
0.000105673
0.000210795
0.00601218
0.0259031
0.0210839
0.000638989
4.88475e-05
0.00683135
0.016329
0.000751125
0.000321491
0.00017094
0.00649785
0.000483254
0.000262561
0.00140218
0.000147048
0.000569734
0.000516676
0.000285667
0.00700643
0.00522537
3.53766e-05
0.0312064
0.00673108
0.00233848
7.79345e-05
0.00706636
0.000188388
0.000247337
0.00674358
0.0381271
3.9284e-05
0.00841527
0.00697939
0.000202942
0.000279535
1.87581e-05
0.00685424
0.00673708
0.000786173
0.000658984
0.000338819
0.025517
0.00674098
0.000255553
0.00131772
0.000284681
0.0080075
0.000204644
0.00143017
0.000616302
1.44674e-05
0.0478975
0.00992952
0.0104506
0.0181452
0.00673185
0.00993991
0.00135369
0.000101217
0.00025176
0.000212999
0.00675791
0.0051053
0.000333729
0.00020442
0.00102275
0.000152436
0.000503088
0.000152135
0.00126845
0.0067479
0.000332854
0.0309819
0.00673369
0.00678847
0.00116772
0.000209024
0.0076949
0.000158977
0.000302719
0.02354
0.000125064
0.000115819
0.00679763
0.00638948
0.0240344
0.00131892
0.00134621
0.00657348
0.000198642
0.0001499
0.000834979
0.000222635
0.00249811
0.00881431
0.0022558
0.000380763
0.00626918
0.000187827
0.000641823
0.0337551
0.00153047
0.000506243
0.000153067
3.89015e-05
0.00505813
5.49711e-05
0.000615613
0.00486099
0.000861671
0.0132291
0.00598876
0.00679147
0.00622047
0.000240587
0.000220901
0.0123947
0.00146311
5.94853e-05
0.00152621
0.00904544
0.00503701
0.0066117
0.000269896
0.00673581
0.00676741
0.000132061
0.00697005
0.000279268
0.000261569
0.00854361
0.0066232
0.00675364
0.000298908
0.000274587
0.00677073
0.00932324
0.000245689
0.0225027
0.00680857
0.0427242
0.000305154
0.00112749
0.000636501
0.000143538
0.00302324
0.00682203
0.000515834
0.00690992
0.00925837
0.00010846
0.000381739
0.00653843
0.000457847
0.0013476
0.000248745
0.00808771
0.000215929
0.00855135
9.15604e-05
0.00640707
0.00595311
0.00678972
0.00675928
0.00171735
0.00414543
0.000211103
0.000321161
0.000579487
0.00549874
0.00678716
0.000182852
0.00679467
0.00162739
0.000783704
0.00908532
0.0216124
0.0234729
0.0102104
0.000145841
0.000174951
0.000294731
0.000863932
9.88117e-05
0.00442469
0.00673353
0.000938121
0.000190409
0.00496577
0.000762091
8.2128e-05
0.00149534
0.0185271
5.74136e-05
0.000176459
0.000607451
0.00670794
0.00100853
0.00678788
0.00661048
0.00869982
0.001809
0.0222487
0.00633711
0.00108121
0.00108176
0.00674809
0.00512136
7.18533e-05
0.00676963
0.000238769
0.00839203
0.00673156
0.000212663
0.00107209
0.0236639
0.00131234
0.00138121
0.00673749
0.00687487
0.00525219
0.00028076
0.00307361
9.16004e-05
0.00675671
0.00143562
0.000575617
0.0021912
0.000194223
0.00133921
0.00415567
0.00120709
0.00109845
0.00697103
0.00130056
0.00257485
0.00698096
0.000569078
0.00120653
1.32228e-05