/*--------------------------------*- C++ -*----------------------------------*\
| =========                 |                                                 |
| \\      /  F ield         | OpenFOAM: The Open Source CFD Toolbox           |
|  \\    /   O peration     | Version:  v2012                                 |
|   \\  /    A nd           | Website:  www.openfoam.com                      |
|    \\/     M anipulation  |                                                 |
\*---------------------------------------------------------------------------*/
FoamFile
{
    version     2.0;
    format      ascii;
    class       surfaceScalarField;
    location    "700";
    object      phi_0;
}
// * * * * * * * * * * * * * * * * * * * * * * * * * * * * * * * * * * * * * //

dimensions      [0 3 -1 0 0 0 0];
oriented        oriented;


internalField   nonuniform List<scalar> 
21485
(
0.253341
-0.197102
-0.0562387
0.183518
0.296426
-0.479945
0.0576426
0.020061
-0.0777036
0.466184
-0.668892
0.202708
-0.426005
0.241925
0.18408
-0.732665
0.570126
0.162539
0.631428
-0.563079
-0.0683493
0.112557
-0.151286
0.0387294
-0.123639
0.0543419
0.0692969
-0.0673983
-0.0271308
0.0945292
-0.716437
0.381667
0.334771
0.16998
0.299931
-0.464592
0.164661
-0.0254827
-0.485404
0.510887
-0.680938
0.287802
0.393135
-0.74659
0.286221
0.460369
0.0840284
0.5474
0.574719
-0.296162
-0.278557
-0.303555
0.488865
-0.18531
0.175943
-0.536812
0.360869
-0.0148821
0.126556
-0.111674
-0.254631
-0.171374
0.299994
-0.581814
0.28182
0.0421959
0.0491341
-0.09133
-0.347546
-0.368891
-0.557265
0.30682
0.250445
-0.121154
0.0957139
0.0254406
-0.140468
0.0653729
0.0750954
-0.201558
0.359942
-0.158384
-0.055259
-0.0658955
0.0780026
-0.02036
0.120972
-0.0787756
0.782252
-0.442617
-0.339634
0.372757
0.409495
0.0195787
-0.0710992
0.0515206
0.030877
0.207269
-0.238146
0.653783
-0.272117
0.490989
-0.64417
0.153182
-0.357954
0.8167
-0.458747
-0.00115258
-0.16703
0.168182
-0.339746
-0.406844
0.696643
-0.355148
-0.341495
0.454294
-0.642652
0.188359
0.652179
-0.197885
0.380218
0.273565
-0.426772
-0.305892
0.635502
-0.363968
-0.271534
0.241003
0.0426388
-0.283642
-0.640279
0.272687
0.367592
0.406912
0.289731
0.0701744
-0.0196266
-0.0505477
-0.0849298
-0.0555385
0.598288
-0.406633
-0.191655
0.0479085
0.0222659
0.58723
-0.287237
-0.0169158
-0.143853
0.160768
0.218187
-0.18731
-0.28732
0.0713497
0.215971
-0.102787
0.5462
-0.443413
-0.217426
-0.0698941
-0.234809
-0.170444
0.405253
-0.309195
-0.111042
0.420237
0.164172
0.220683
-0.384855
-0.122579
0.427825
-0.305246
0.663935
-0.162625
-0.501309
-0.361114
0.133796
0.227318
-0.0217172
0.26272
0.000217326
-0.268656
0.268439
0.418977
0.179311
-0.337902
0.136344
0.222611
-0.288314
0.065703
-0.562406
0.485709
0.0766969
-0.066346
0.0718795
-0.00553348
-0.170058
0.168906
0.362153
0.0163791
-0.378532
0.44597
0.189533
0.441123
-0.37578
-0.0653424
0.382231
-0.218059
-0.367561
0.526592
-0.159031
-0.135514
0.327055
-0.19154
-0.520787
0.217233
-0.1617
0.166359
-0.00465895
-0.512906
0.154696
-0.0935439
0.0398585
0.0536854
-0.0906067
-0.0522034
0.14281
-0.216254
0.509086
-0.292832
0.167946
-0.485025
0.31708
0.100856
0.140355
-0.0277976
0.203996
-0.30984
0.105844
-0.0582658
-0.347217
0.205108
0.142109
0.0587692
-0.0988237
0.0400544
-0.509796
0.387217
0.221359
-0.634323
0.412964
0.0244823
-0.586888
-0.547059
0.179497
0.463309
0.150981
-0.61429
0.643995
-0.571131
-0.0728642
-0.128663
-0.429151
0.557815
0.148398
0.18802
-0.336418
0.635761
-0.598481
-0.0372802
0.0660442
-0.04486
-0.0211842
-0.0362265
0.0558051
-0.0410478
0.33123
-0.290182
0.0423221
-0.123444
0.0811222
-0.425128
0.354868
0.0702596
-0.208955
0.581712
-0.0759105
0.07598
-6.95531e-05
0.395137
-0.523801
-0.0652514
-0.359876
-0.242252
-0.438686
-0.595276
0.504895
0.0903804
-0.062433
0.171619
-0.109186
-0.0332105
0.106358
-0.0731473
-0.0168205
-0.0790093
0.0958298
-0.675627
0.297763
0.377864
0.0136617
0.0960333
-0.109695
-0.606995
0.606995
0.00691152
-0.340939
0.334027
0.422355
-0.244996
-0.177359
0.0301723
0.0358719
0.613931
0.0300641
0.17298
-0.604321
0.431341
-0.127315
-0.467961
0.320373
-0.116377
-0.131737
0.354349
-0.236867
0.134033
0.102834
-0.438164
-0.127011
0.565176
0.335858
-0.608703
0.272845
-0.0244317
0.0255973
-0.00116557
-0.0738357
-0.00207478
-0.0500667
-0.097647
0.147714
0.273054
0.18729
-0.460344
-0.126372
0.176185
-0.0498121
0.0394749
0.0753807
-0.114856
-0.00219806
-0.159502
0.0283966
0.224944
0.0592554
-0.0775258
0.0182704
0.399688
-0.408416
0.00872824
-0.0933753
0.111856
-0.0184809
0.481248
0.085275
-0.566523
-0.03075
0.430438
-0.283903
-0.236884
-0.274408
0.547462
-0.124732
0.031357
-0.184693
-0.330041
0.514734
0.557922
-0.222064
0.383276
-0.203303
-0.179973
0.115762
-0.50442
0.388658
-0.543866
0.318399
0.225467
0.501227
0.128339
-0.629566
-0.0561434
0.239695
-0.183551
-0.266579
-0.290686
-0.102465
0.583713
-0.0803635
-0.428551
0.508914
-0.0393344
0.0325149
0.00681942
-0.227976
0.623114
-0.172293
0.0459206
-0.00371344
0.155962
-0.152248
0.704023
-0.30354
-0.400482
-0.317208
-0.226658
-0.327676
-0.0854768
0.413153
-0.595155
0.492368
0.517783
0.0748065
-0.592589
-0.065566
-0.326895
0.392461
-0.094936
0.144911
-0.0499747
0.0739711
0.0176303
-0.0916014
-0.598514
0.370537
-0.199167
0.377323
-0.178156
0.123671
-0.133534
0.00986366
0.68647
-0.338477
-0.347993
0.38961
-0.0896784
0.429211
-0.653519
0.224308
-0.384254
0.560197
-0.148669
-0.0178366
0.166505
0.164338
0.369741
-0.534079
0.705192
-0.393467
-0.311725
-0.0812243
-0.0730994
0.154324
-0.10566
0.0888395
0.559829
0.062582
-0.622411
-0.454634
0.68343
-0.359985
-0.323445
0.760527
-0.210767
-0.54976
0.617359
-0.569787
-0.0475717
0.0881454
-0.0288899
-0.00749255
0.0369673
-0.0294747
-0.180856
-0.125303
0.306159
0.0682223
-0.0128271
-0.0553952
0.0461391
0.0375006
-0.0836397
0.345954
-0.35617
0.0102165
-0.134813
-0.226301
0.26579
0.308929
0.587626
-0.0966374
0.13707
-0.0133994
-0.240462
-0.304181
0.544643
0.379943
0.32525
0.0392955
-0.175252
0.135956
-0.586078
0.26887
0.144965
0.238311
0.108498
-0.441725
0.333227
0.371964
0.0691583
0.287574
-0.35314
0.0250833
-0.210215
0.185132
0.704794
-0.0881894
-0.616604
-0.103741
0.653223
-0.549483
0.596866
-0.616306
0.0194406
0.137717
-0.553053
0.415336
-0.178758
0.203842
0.14373
-0.160646
0.419898
-0.17792
-0.241978
-0.0501638
-0.160052
-0.220363
0.170199
0.0784051
-0.12906
0.0506545
-0.601733
0.625559
-0.0238253
0.145208
0.142403
-0.28761
-0.43367
-0.132573
0.566243
-0.649495
0.0477617
-0.353784
-0.286495
-0.445837
0.582479
-0.136643
0.0403184
-0.169761
-0.134235
0.303996
0.267494
0.415936
0.0115222
0.0567
0.0690891
0.386672
-0.455761
-0.203241
0.592054
-0.14677
-0.445284
0.0683725
-0.0995592
0.0311867
-0.509463
0.677746
-0.168282
0.0928122
0.278354
-0.371166
-0.713383
0.20392
0.507671
-0.778543
0.270872
-0.205734
-0.32232
0.528054
0.545191
-0.0818813
-0.111772
-0.00134924
0.113121
-0.114767
-0.351665
0.466433
-0.161019
0.088831
0.0721879
-0.0375555
0.030063
0.333542
0.155323
-0.392859
-0.104234
0.497093
-0.376789
-0.209289
0.0984033
-0.00161822
-0.0967851
0.123983
-0.453199
0.329216
0.666256
-0.0488972
-0.175052
0.153929
0.0211226
-0.0990986
0.00672205
0.0923765
-0.0505349
-0.524624
0.575159
-0.380704
0.0715093
-0.492251
0.326751
0.165501
0.619132
-0.397772
-0.458223
-0.150645
0.608867
-0.652505
0.221144
0.431361
0.022902
-0.0903004
0.774023
-0.266352
0.512762
0.0622285
-0.57499
0.0575908
-0.232356
0.174766
0.543043
-0.405325
0.310256
-0.478217
0.167961
0.53352
-0.26851
-0.26501
0.110722
0.481332
-0.443809
0.0509502
0.266942
-0.606206
0.614754
-0.00854824
0.4005
0.115454
-0.515954
-0.096053
-0.140814
0.126073
-0.453749
-0.185432
-0.0947676
-0.00433092
0.15434
-0.155028
0.000687314
-0.0352053
0.103578
0.127369
0.577425
0.295171
0.127183
-0.10686
-0.0309281
0.137789
0.660326
-0.215112
-0.445214
-0.0959839
-0.065035
-0.0708185
-0.442677
0.513495
0.118532
-0.180965
0.342307
-0.224141
-0.118166
-0.157968
0.163018
-0.00504949
0.526561
-0.457472
0.213163
0.10721
-0.053703
-0.154103
0.207806
-0.128476
0.0499802
0.0784958
0.0219624
-0.112569
0.0325308
0.0749633
-0.107494
-0.0232386
-0.0703053
-0.00587655
0.144084
-0.138207
-0.0387951
-0.216122
0.254917
0.0083586
0.086473
-0.0948317
-0.124253
0.486406
0.450235
-0.139979
0.619144
-0.446164
-0.292799
-0.119676
0.412476
-0.364179
-0.0432116
0.13133
-0.0881183
0.300044
-0.28808
-0.0119644
-0.202786
0.0199017
0.182884
0.35792
0.302405
-0.0645822
0.110721
-0.208581
-0.138637
-0.152708
0.553208
-0.446604
0.147962
0.298641
-0.113526
0.14161
-0.0280843
-0.122976
-0.0449632
0.16794
0.510191
0.193832
0.155997
-0.287735
-0.136115
-0.416938
0.0788148
-0.112025
0.501621
-0.694272
0.192651
-0.170172
0.326169
0.160937
0.0775643
-0.238502
-0.434862
0.250169
-0.138205
0.0246789
0.0845575
-0.0730352
-0.0414652
0.387419
0.178844
-0.0052085
-0.173635
-0.12716
-0.0110448
0.452954
0.122462
-0.575416
-0.128432
0.134522
-0.00608939
0.146884
-0.0484807
-0.0927947
-0.238037
0.330832
-0.387864
0.607654
-0.21979
-0.377353
0.384773
-0.00742016
0.0133163
-0.125088
-0.0402402
0.075048
-0.0348078
-0.25481
0.438329
-0.22405
-0.240542
0.149412
0.192895
-0.329614
-0.2522
0.297888
-0.53835
0.143342
0.306893
-0.0265354
0.0983578
-0.532006
0.0266788
0.505327
-0.111579
0.324741
-0.00798925
-0.306428
0.314417
-0.256267
0.160214
-0.407567
0.270927
-0.264015
0.15789
-0.352309
0.194419
0.019397
0.353591
-0.372988
-0.545539
0.409424
0.12074
-0.00936236
-0.111378
0.58607
-0.22815
0.0245763
-0.168429
-0.0139157
-0.109621
0.123536
6.85488e-05
-0.127228
-0.070966
-0.0328335
0.1038
0.128664
-0.562335
-0.0591315
0.35101
-0.291879
-0.174741
-0.169763
0.344504
-0.0122702
-0.0540758
-0.0361405
0.0949097
0.207378
0.123821
-0.331199
-0.146128
0.0231514
-0.0213072
0.0997123
-0.0100748
-0.00592096
0.0159957
-0.356362
-0.0209903
-0.0130063
0.00293152
0.619168
-0.482074
-0.137094
0.444154
-0.323374
-0.12078
0.0194319
0.0651256
-0.1952
0.0647279
0.130472
-0.0749172
0.235855
0.457639
0.161529
-0.696418
0.311841
0.384577
0.602123
-0.602123
-0.0849172
-0.0026084
0.0875256
-0.330877
-0.36554
-0.133166
0.599349
0.189895
-0.547849
0.543921
0.0918398
0.00839051
-0.308126
0.125596
-0.0832736
0.285291
-0.396333
0.102394
0.0379601
0.171309
-0.0238225
-0.147487
-0.257604
0.318963
-0.0613587
0.125143
0.0164668
0.0327969
-0.127733
-0.406107
0.346976
0.426886
-0.318388
-0.0565423
0.0509434
0.00559888
-0.508964
0.300008
0.0033329
-0.0312468
0.0279139
0.290842
0.129056
-0.577018
0.138854
-0.298031
-0.0989059
0.396936
-0.0375802
0.139975
0.19102
-0.365762
0.0658048
-0.215786
0.149981
-0.131291
0.163501
0.422569
0.437237
-0.56981
-0.323285
0.447268
-0.389375
-0.0980392
0.487414
-0.36545
0.131329
0.234121
-0.031641
-0.096835
0.130476
-0.127411
-0.00306509
0.117962
-0.119581
-0.169415
-0.0333705
0.22217
0.335752
-0.16917
-0.0332374
0.202407
0.207287
-0.309125
0.101838
0.262934
0.126675
0.142616
-0.017473
0.0522529
-0.139151
0.0999
0.0392507
0.533923
-0.237497
-0.0393545
-0.068023
0.107378
0.162027
-0.0279942
-0.220485
0.19142
-0.454916
0.263496
-0.4653
0.594954
-0.129654
0.217908
0.12532
-0.343228
0.05773
-0.265552
0.207822
-0.022838
-0.00159374
-0.11497
-0.0600818
0.480123
0.172056
0.3337
0.136757
-0.470457
-0.029674
0.0330069
-0.35961
-0.105689
-0.0620969
-0.0367267
-0.0378376
0.337882
0.210447
-0.144642
-0.0944093
-0.161858
-0.696173
0.447969
0.248204
0.403288
-0.0230701
0.490665
-0.106724
-0.383941
-0.0682322
0.194825
-0.126593
-0.203293
-0.130097
0.33339
-0.348675
0.464437
-0.0321732
-0.0071612
0.100966
0.019774
-0.07415
0.40785
0.226418
0.360812
-0.0856369
0.000719633
-0.198473
0.261074
-0.102572
-0.158502
0.472224
-0.500976
0.295242
0.141502
-0.386497
-0.297046
-0.149558
-0.458139
-0.148067
-0.167635
0.247597
-0.0799619
-0.469739
0.309298
-0.10192
0.52926
-0.196125
-0.333135
0.174409
-0.50445
-0.116887
0.402178
-0.121197
-0.351914
0.473111
0.0291335
-0.150011
0.120878
0.372208
-0.493405
-0.0166916
0.147167
0.149964
0.0824154
-0.0709242
-0.0114912
-0.404049
0.244937
0.159113
0.00857967
-0.0365418
0.111435
-0.0748934
0.351198
-0.13329
-0.163895
0.456869
-0.292974
0.0240087
-0.168746
0.144737
0.32006
0.287344
-0.607404
-0.419756
0.584094
-0.208113
0.139881
-0.0623415
0.00579927
0.0712137
0.189861
-0.45022
0.279776
-0.441612
0.552334
-0.0342993
-0.0592602
0.0935595
0.52077
0.0760959
0.540228
-0.595173
0.0549451
-0.0196206
-0.255586
0.275207
0.19409
-0.329604
0.0380503
-0.227061
0.2697
0.123166
-0.138048
0.347453
-0.549939
0.202486
-0.107073
-0.00933125
0.116404
-0.0743532
0.281622
0.470734
-0.606634
0.1359
-0.216037
0.536097
0.0341833
0.160642
0.523388
-0.721553
0.198165
-0.142527
0.702356
-0.300589
0.468535
0.242748
-0.264466
-0.575098
0.384648
0.190451
-0.126331
-0.419208
-0.151489
0.604443
0.0832607
-0.119803
0.165742
-0.412775
0.247033
0.726127
-0.401802
-0.324325
0.385787
0.143473
-0.0472831
0.560045
-0.0810639
0.120539
-0.165873
0.683656
-0.0359364
-0.0951814
0.131118
-0.233728
0.0773581
0.15637
-0.382284
-0.132925
0.347615
-0.21469
0.0286891
-0.197859
-0.119565
0.118216
-0.0990971
0.0719663
0.0438503
0.0817454
-0.0536455
-0.00662658
0.060272
0.113666
0.253252
-0.366918
0.561386
-0.0211582
0.516407
-0.0257421
0.112124
-0.339534
0.22741
0.163332
-0.217035
-0.0635269
0.142342
-0.313234
0.132378
0.0897238
-0.10364
0.0390562
0.0566577
-0.138221
0.234383
-0.327177
0.0965454
-0.0225743
0.243377
-0.262998
-0.383507
0.112897
-0.554509
-0.162772
0.513685
-0.127898
-0.0251615
0.143124
-0.193304
-0.413691
0.157827
0.372522
-0.471792
0.0992701
0.330478
0.395649
0.117443
-0.104127
-0.00835788
-0.0539837
0.254639
-0.139055
-0.115585
-0.536227
0.409896
0.151586
0.286332
-0.437918
-0.169585
-0.368637
0.538222
0.210581
-0.30579
0.0952089
-0.541273
0.392376
0.148897
0.132878
-0.00632231
0.16629
-0.142281
0.100749
-0.106625
-0.308467
0.267419
0.15845
0.00357667
0.290103
0.0366477
-0.122734
-0.337096
0.45983
0.143482
0.0278269
-0.562705
0.435694
-0.124926
-0.140916
0.265841
-0.0514643
-0.143736
0.484731
-0.1276
-0.357131
0.0821033
0.226632
-0.308735
0.131627
-0.0877766
-0.0822559
0.0961261
-0.0138701
0.562965
0.0440302
-0.0237094
0.182159
-0.460721
-0.181932
0.378236
-0.229838
-0.0233285
-0.0823315
0.504948
-0.157495
0.0834039
-0.126616
-0.0708616
0.572483
-0.295442
-0.373278
-0.295614
-0.101725
0.0851934
0.0165312
0.125606
-0.0696871
-0.0559189
-0.412379
0.22833
0.45814
-0.637338
0.533597
0.000613766
0.153727
-0.39572
-0.251904
0.647624
0.710814
0.0497132
-0.303858
0.16172
0.142138
0.117084
0.27113
-0.388214
-0.659263
0.417955
0.241308
0.172238
-0.152336
-0.0814668
-0.014922
-0.0189174
0.0338394
0.240497
-0.182767
0.0922723
-0.0983307
0.0884865
0.0400808
-0.128567
-0.200847
-0.103011
0.149326
0.105313
0.0423938
0.341552
0.167533
-0.247908
-0.530635
-0.0154919
0.194336
-0.108083
-0.180571
0.288654
-0.611309
0.223444
-0.177426
-0.056706
0.234132
0.168702
-0.150482
-0.0182198
-0.732466
0.531628
0.200838
0.140084
0.187963
-0.328047
0.568369
-0.195074
-0.373295
0.353571
-0.451611
-0.0959589
0.459471
0.148015
-0.607486
-0.14727
-0.14967
0.29694
0.367
0.117731
-0.185793
0.344092
-0.1583
0.0275158
-0.534898
0.196421
-0.380816
0.0291504
-0.224431
0.168288
0.105947
-0.073416
0.118474
-0.142507
0.105222
0.0372849
0.191515
-0.205931
0.0144161
-0.235234
-0.179526
-0.0857587
0.265285
0.0331505
-0.0958653
0.0627148
0.00752616
0.0180711
-0.00558476
-0.280526
0.28611
0.0162997
-0.0565398
0.228214
0.35908
0.154605
0.0544206
0.0175665
-0.0719871
-0.446245
0.639682
-0.138455
-0.106284
-0.242667
0.203872
-0.174806
0.0183779
0.156428
-0.166609
-0.237441
-0.406313
0.228394
0.11738
-0.110327
-0.0070539
0.685949
-0.512081
-0.173868
-0.214958
0.355042
0.016493
0.223202
-0.14794
-0.0163088
0.164249
0.616722
-0.125864
-0.490858
0.615346
-0.186135
0.0601785
-0.0092351
0.0883419
0.234386
-0.322728
-0.549621
0.067547
0.494491
-0.476058
-0.0184334
-0.0573955
0.0895085
-0.032113
0.552349
-0.106379
-0.172519
0.0245785
-0.240571
-0.028113
0.0298514
-0.00173838
0.0124663
-0.0661118
0.115767
-0.147991
0.0322237
-0.189248
0.377268
-0.236171
0.203908
0.0322629
0.402135
0.166234
0.0694992
-0.103799
0.0198717
-0.170631
0.150759
-0.486005
0.0793718
0.167898
0.124716
0.363339
-0.274997
-0.139692
0.0660601
0.0736324
-0.0448279
-0.191343
0.555156
-0.435454
-0.119702
-0.0487829
-0.036742
0.0855248
0.146139
-0.117005
0.453001
0.0414904
-0.248126
-0.12816
0.0305131
-0.561299
0.168891
0.392407
0.338385
-0.224019
-0.114366
0.658281
-0.351716
-0.306565
0.136338
-0.0587401
-0.0775981
0.0498014
0.0252465
-0.0861688
0.0287733
-0.384332
0.159694
-0.0159635
0.54261
-0.17287
-0.155707
0.53274
-0.377033
0.28484
-0.0742597
-0.232058
0.592328
-0.36027
-0.11836
-0.417867
0.576724
-0.140463
-0.436261
0.139221
-0.44608
0.306859
0.045787
0.0551791
-0.122145
0.140771
-0.0186261
-0.529377
0.359792
-0.272196
0.344697
-0.212055
-0.132642
0.334246
-0.126959
0.148453
-0.0795179
-0.0486475
0.128165
0.0451847
0.00172782
-0.0469126
-0.523603
0.291545
0.303605
0.0276248
-0.546129
-0.00349151
-0.0955779
0.443514
-0.347936
0.477397
0.0488821
-0.52628
-0.472696
0.356304
0.116392
0.137048
-0.0966754
-0.0403728
0.177982
-0.281047
0.103066
-0.22434
0.336463
-0.0317693
0.0326012
-0.0676601
0.035059
-0.723289
0.286822
0.436467
0.304024
-0.136126
0.555023
-0.204513
-0.35051
-0.254091
0.0864557
0.384963
0.170193
0.393224
0.213021
-0.606245
0.172225
-0.157776
-0.0144498
-0.243398
0.16848
-0.338302
0.477523
-0.102722
0.0793932
0.531821
-0.355136
-0.176684
0.126177
-0.0376909
0.147451
0.190934
-0.146147
-0.175839
0.321986
-0.198566
-0.362733
0.603957
-0.473069
-0.130887
-0.13358
-0.00277495
0.136355
0.577442
-0.105078
-0.472365
-0.218822
0.0490605
-0.385012
0.174129
-0.569987
0.395858
-0.386118
-0.146321
0.532439
0.24202
-0.247605
0.155708
-0.488972
0.333264
0.0986035
-0.065453
-0.127498
0.0764493
0.0510491
0.29959
-0.420014
0.120424
-0.0306183
0.222448
-0.19183
0.0131808
0.0320039
0.0547247
-0.127824
0.0410273
0.0960209
0.115007
-0.285178
0.0489865
0.049617
0.16881
-0.276893
-0.524197
0.405837
-0.483548
0.339148
0.144401
0.132041
-0.0162745
-0.0591181
-0.0683803
-0.496371
0.366013
0.210711
-0.173772
-0.197112
0.166494
-0.175126
-0.100466
0.275592
0.47907
0.124887
0.130986
-0.0379031
-0.0930833
-0.191837
-0.248586
0.440423
0.122451
-0.233639
0.111189
-0.0345896
0.109553
-0.425209
0.233372
-0.221355
0.107993
-0.311286
0.138006
-0.121799
-0.016207
0.419569
0.168057
0.0707963
-0.113815
0.0430186
-0.0321268
0.228923
0.115774
0.0689284
0.0566776
-0.111447
-0.413177
-0.0315581
0.00344511
0.00511946
0.150842
-0.0508902
-0.0449752
-0.115762
0.26097
0.0304367
-0.101403
-0.102761
-0.105352
0.288995
0.485029
0.103558
-0.561781
-0.130234
0.0692341
0.0610003
0.00613208
-0.0562855
0.502414
-0.644941
0.498733
-0.0792987
-0.419434
-0.0987198
0.0164638
0.064192
-0.238127
0.173935
0.019607
0.0583956
0.171718
-0.260277
0.0885595
0.148112
0.0241134
0.241378
0.172513
-0.413891
-0.368909
0.524617
0.38624
0.168783
-0.119029
0.478109
-0.192637
0.307643
-0.466816
0.054652
0.00668015
-0.0613322
-0.150498
-0.207769
0.358267
0.0976314
-0.0923198
-0.0053116
-0.198422
-0.100214
0.3346
-0.0804671
-0.0675235
0.530533
-0.38122
-0.149314
-0.409369
-0.0331068
0.442476
-0.0734863
-0.0656644
-0.249479
-0.543588
0.384778
0.158809
-0.0281344
0.59826
-0.352929
-0.146253
0.066735
0.182196
-0.00995784
0.0744796
0.203477
-0.277956
0.0546026
-0.218681
0.164079
-0.0440224
0.114819
0.0849661
-0.0523649
-0.00993967
-0.0971335
-0.0237686
0.0991493
-0.36099
-0.292529
0.453503
-0.453251
-0.000252812
0.275374
-0.097392
-0.173703
0.149881
-0.223259
0.206115
0.017144
0.0957193
-0.0499323
-0.295817
0.633964
-0.0921163
-0.541848
-0.693766
0.241426
0.45234
0.0782342
0.0391462
-0.188219
-0.142081
0.3303
-0.565131
0.064155
0.277545
0.340228
-0.388228
0.192088
0.196139
-0.633675
0.245352
0.388323
-0.429591
-0.293698
-0.0209837
-0.146046
0.224036
-0.0325215
0.182328
-0.548821
0.366493
0.079277
0.144323
0.287622
-0.115904
0.517883
-0.728651
0.523982
-0.305252
-0.21873
0.0488146
0.027323
-0.00849846
-0.0188245
0.396954
0.134866
0.00413551
0.0232411
-0.0273766
0.146465
-0.12795
-0.018515
0.121741
0.298959
-0.156557
-0.00334229
-0.0815876
0.10143
0.0349077
0.171432
-0.414963
0.243531
-0.564644
0.209508
-0.0642241
-0.0549139
-0.0698184
0.0725718
-0.0642132
-0.256611
0.040489
-0.390722
-0.0101825
-0.11825
0.167736
-0.0590393
-0.108697
-0.288338
-0.158956
-0.0158499
0.0158611
0.0994353
0.0315512
0.0186321
0.276539
-0.54711
0.024971
0.522139
0.136699
0.368764
-0.505463
0.177491
-0.118645
-0.0588455
0.126801
0.177196
0.0333107
0.13901
-0.172321
-0.402808
-0.230867
0.0266262
0.0227937
-0.0494199
-0.262452
0.400158
-0.137706
-0.0455031
0.0845593
0.0772764
-0.0130621
-0.0642143
0.0691739
-0.268341
0.518073
-0.145551
0.189404
0.468877
0.111981
-0.0255082
0.0818876
0.169627
-0.251515
0.22128
-0.387814
0.119851
0.0478852
0.0428814
-0.0429708
8.9353e-05
0.180843
-0.491471
0.310628
-0.357983
-0.10235
0.674284
-0.261307
-0.412977
0.568792
0.0390776
0.00124074
0.448115
0.00538881
-0.561935
0.167245
0.39469
-0.272401
0.157428
0.114973
0.0152715
-0.60852
0.0765134
-0.112984
0.375919
0.27176
-0.66748
-0.670812
0.260841
0.409971
-0.148874
-0.434041
-0.137827
-0.199779
0.56345
-0.363671
0.280526
-0.0821533
-0.198373
0.0876926
0.0384847
-0.36126
0.24251
-0.159828
-0.0739006
0.303981
-0.00218691
-0.301794
0.117286
-0.0203032
-0.254521
-0.0599306
0.114272
-0.0839133
0.0246531
0.0909596
-0.0363076
0.398341
-0.107499
0.0676796
-0.132262
0.105324
-0.0383586
0.161525
0.201212
0.0966268
-0.297839
0.407439
-0.199018
-0.208421
0.338646
-0.538425
-0.115164
0.574636
-0.301997
-0.151202
-0.38399
-0.621905
0.26999
-0.0128718
0.196279
-0.183407
-0.0270317
-0.0478196
0.0748513
0.129234
-0.46633
-0.803714
0.396294
0.40742
0.381956
0.0249561
-0.581969
0.0413584
0.540611
-0.4285
-0.0245426
0.453042
0.42894
-0.52449
0.0955497
0.52997
-0.136746
0.557194
-0.16024
-0.0463286
-0.300761
0.347089
0.466747
-0.309431
-0.157315
0.102142
0.375595
-0.477738
0.13378
0.0349223
0.197736
-0.0199006
-0.177836
-0.115329
0.0994619
-0.124623
0.396419
-0.223542
-0.172877
-0.581969
0.528123
0.105842
0.318654
-0.300022
-0.385845
-0.236059
-0.0632205
0.261363
-0.198142
-0.380759
0.557589
-0.176831
-0.144139
0.573079
0.128553
-0.409838
0.281285
-0.00504144
-0.118403
-0.490513
0.386279
-0.0668499
-0.0246206
0.0914705
-0.0751018
-0.0551326
-0.44496
0.509115
0.3689
0.155082
0.148647
0.0288434
-0.332246
0.469003
0.0995096
-0.279036
0.0250786
0.278903
0.0297702
-0.192955
0.163185
-0.684993
0.461771
0.223222
0.0814415
0.0161899
-0.32559
0.317601
0.252203
0.214543
-0.153983
0.0353378
0.0564914
-0.388737
0.327887
-0.211678
-0.337143
0.0832423
0.0286138
0.495324
-0.314481
-0.129237
-0.312785
-0.0560669
-0.131437
0.187504
0.0763492
-0.24451
0.168161
-0.103324
-0.420873
-0.160262
0.405199
0.386299
0.112433
0.26652
-0.211917
0.396388
-0.526756
0.423433
-0.339618
0.153825
-0.364839
0.425898
-0.292317
-0.133581
-0.321667
0.634151
-0.131737
0.0776466
-0.155437
0.150229
-0.611232
0.184459
-0.168164
0.565767
0.0363558
-0.297783
0.428137
-0.130354
0.38888
0.168314
-0.00282303
-0.327583
0.177085
-0.071953
-0.0705537
-0.464944
-0.134797
0.599741
-0.22919
0.0517645
0.143149
-0.0491139
-0.0940355
-0.606717
0.141772
-0.0217429
0.0258784
0.355754
-0.450139
0.0943846
-0.448574
0.168595
0.279979
-0.212486
0.403507
-0.387806
-0.0202226
0.0746432
-0.0223455
0.110038
-0.31792
0.181268
0.0184222
0.093013
0.142316
0.0173776
-0.11907
-0.0142457
0.133316
0.0649068
-0.141814
0.0737909
0.091677
-0.269019
0.177342
-0.122773
0.145454
-0.0226813
-0.461537
0.033037
-0.0541163
0.154865
-0.522287
0.548965
0.0160825
-0.0752006
-0.420598
0.293283
0.196643
-0.311081
0.298818
-0.467341
0.168523
0.132546
-0.0648668
0.312958
-0.343806
0.0308481
-0.0400786
-0.101735
-0.0737377
-0.0249737
0.0987114
-0.216795
0.0182303
0.50861
-0.352401
-0.156209
0.163851
0.232567
-0.0579188
-0.231789
-0.133599
0.365388
0.0654515
-0.0478849
-0.152463
-0.0320439
0.131944
0.00926226
-0.0580451
-0.107201
0.308414
-0.051664
0.00244727
-0.163874
0.161427
0.518543
-0.403448
-0.115095
0.569281
-0.40039
-0.11315
0.167875
0.474964
-0.620858
0.145894
0.131031
0.015434
0.482207
-0.294917
0.166382
-0.0880546
-0.324771
0.135106
0.189665
-0.0111201
-0.00726327
0.0183833
-0.296019
0.443982
-0.452028
0.176951
0.275077
0.106482
-0.4926
-0.0587409
-0.0523676
0.111108
0.259527
0.418219
-0.504105
0.429955
-0.13235
-0.0294957
0.161846
0.495746
0.0816968
0.15172
-0.435902
0.284182
0.0195609
0.00776204
-0.404294
-0.160021
0.0276709
0.155246
-0.255712
-0.200823
-0.0885086
0.289332
-0.245622
0.385869
-0.140247
0.40483
-0.106012
0.557711
-0.430479
-0.127232
-0.20119
-0.400933
-0.12346
0.0875238
-0.149868
-0.654266
0.450355
0.203911
0.0731132
0.43147
-0.131851
-0.299619
-0.190387
-0.258188
-0.271046
-0.270227
0.456482
-0.304763
-0.121779
0.0731313
0.1032
0.165787
0.508498
-0.468031
0.525356
-0.404789
-0.120568
-0.262932
-0.191984
-0.0759996
0.0826797
-0.398422
-0.135173
0.0600708
0.454963
-0.311621
0.0460324
-0.327882
0.227668
0.00341895
-0.0176737
0.0142548
0.000941404
0.255256
-0.551418
0.45446
-0.140016
0.101657
0.259515
0.144776
-0.0159192
-0.156225
0.238113
0.34964
-0.525886
0.176247
0.127483
0.441799
-0.0363953
0.117181
-0.0807861
0.357104
0.159124
-0.516228
-0.020084
0.329256
-0.309172
-0.464484
-0.122203
0.00711667
0.115087
0.527606
-0.36547
-0.162135
0.292379
0.133519
-0.433671
-0.0704335
-0.123457
-0.00962333
-0.0279322
0.0793387
-0.0886699
0.100223
-0.0502426
-0.436827
0.68346
-0.246633
0.399234
0.128372
-0.121434
-0.150967
0.768856
-0.493216
-0.27564
0.202854
0.0118242
-0.0672269
0.0554027
0.482806
0.00233195
0.0495136
-0.0518456
-0.514719
-0.109025
0.458801
-0.349776
-0.151849
-0.0221889
0.175342
0.245332
0.164246
-0.0201622
0.154871
0.30185
0.00939875
-0.311249
0.0226586
-0.0225727
-0.080149
0.102766
-0.0919715
-0.0107943
0.0579344
0.377537
0.131073
-0.187486
0.261965
0.332764
0.436092
-0.608918
0.369655
0.239263
0.183292
-0.0351798
0.21695
-0.351857
0.134907
-0.0847434
0.0369237
0.529653
-0.45967
-0.0699834
0.203604
-0.43258
0.228976
-0.163051
0.569197
-0.41443
-0.154766
-0.0627224
0.113927
-0.0512042
-0.125367
0.0999966
0.0253701
0.0719945
-0.117498
0.23582
-0.540001
-0.130814
0.473164
-0.34235
-0.106967
0.0395445
0.0674228
0.1151
-0.0123344
0.137031
0.477723
-0.119132
-0.00307139
0.438756
0.0908976
-0.0581633
0.0837253
-0.025562
-0.0502216
-0.00770957
0.0579312
-0.117575
-0.00149484
0.164607
-0.363297
0.19869
-0.155687
0.000945626
0.154742
-0.340087
-0.134256
-0.253438
0.370522
-0.130486
0.0806512
0.049835
0.123453
-0.369076
0.413225
0.155971
-0.234336
-0.374582
0.00518501
-0.0163051
0.350621
-0.236955
-0.0183997
-0.143271
0.161671
-0.214355
-0.0890931
0.303448
-0.373519
-0.142822
0.0148722
0.556177
0.0356997
-0.591876
0.552299
-0.316479
0.10502
0.0381294
0.121313
-0.0971164
0.0476459
0.0494705
-0.13931
-0.333385
0.0406823
-0.00123433
-0.039448
-0.147603
0.351207
-0.161778
-0.203648
-0.228931
0.0262837
0.157008
-0.522178
0.140959
-0.131629
-0.0406638
0.238936
0.447013
0.0244436
-0.145715
0.121272
-0.106303
0.49868
0.0977669
-0.0816844
-0.119418
0.138942
-0.0195243
0.0653168
-0.0534926
-0.127106
-0.02217
0.149276
-0.189383
-0.08644
0.0662174
-0.086935
-0.0435512
-0.715776
0.262401
0.453375
0.330543
-0.305464
-0.39801
0.278333
-0.143086
0.792102
-0.339873
-0.452228
0.489103
-0.170034
-0.31907
-0.571482
0.391927
0.179555
-0.0943038
-0.236379
-0.103155
0.00616769
0.183514
-0.189682
0.187303
-0.157532
0.412574
-0.171196
0.367998
-0.25041
0.0627453
0.187665
0.126056
0.514218
-0.640274
-0.380071
-0.162859
0.426355
-0.025366
0.114197
-0.265597
0.384069
-0.118472
0.468774
-0.111671
0.553113
0.000662313
-0.553775
-0.145706
-0.153199
0.298905
-0.378581
0.405536
-0.255857
0.341506
0.450596
0.355522
-0.224193
0.00995687
0.00635218
0.0228077
0.154745
-0.175729
0.0590849
0.02644
0.128156
0.0126148
-0.430237
0.146037
0.284199
0.0763687
-0.104956
0.028587
-0.100464
0.077891
-0.0319679
-0.0454319
0.0773998
0.0113051
0.138205
-0.14951
0.136473
0.155886
-0.0248551
-0.786632
0.446759
-0.439859
0.0967354
-0.066994
-0.0297413
0.19487
0.0568607
-0.251731
0.0853312
-0.110697
0.38386
0.141497
-0.367846
0.53509
0.11479
0.193939
0.0865878
-0.215464
0.0763331
0.174106
-0.250439
-0.112943
-0.0307457
0.143689
-0.150812
0.502767
-0.351954
-0.0266815
-0.422714
-0.403814
0.148228
0.0843956
0.0699281
-0.0933462
0.0613783
-0.0216457
-0.00651654
0.0281623
0.113426
0.242096
-0.469143
0.0405919
-0.0280036
-0.169108
0.217145
-0.520674
0.369861
-0.154247
-0.184523
-0.306947
-0.117602
-0.0233536
0.140956
-0.158113
0.0203575
0.111684
0.601329
-0.247587
-0.353743
0.0390519
0.0446734
-0.0676351
0.272743
-0.116578
0.141021
-0.149407
-0.0242965
-0.112949
0.0765536
0.039807
0.303586
-0.100163
0.0962998
0.00386297
-0.147506
-0.444253
0.0932608
-0.0237616
-0.539961
-0.287164
0.201406
0.0804617
-0.491002
0.41054
-0.164392
0.145992
-0.530272
0.203377
0.62005
-0.256825
-0.363225
-0.497944
0.31342
0.00922168
0.148804
-0.158026
-0.283433
0.775585
-0.363699
-0.411886
0.516088
-0.106236
-0.409853
-0.390203
0.168534
0.221668
0.13722
-0.102035
-0.0351844
-0.12876
0.0467932
0.0819672
0.0341455
0.158469
0.374271
-0.240279
0.055868
0.184411
-0.0230317
0.0458255
-0.0279488
-0.0480508
-0.347311
-0.132333
0.479644
0.360101
0.415484
0.49113
0.245539
0.0579951
-0.303534
-0.789242
0.425543
0.317337
-0.0398207
-0.277516
0.217938
-0.0468687
-0.171069
-0.239621
-0.109685
-0.613672
0.264102
0.34957
-0.00262549
-0.120147
0.0111691
-0.0715879
0.0604188
-0.453869
0.0978338
-0.0794116
0.0223104
0.153645
-0.175956
0.161963
-0.0281833
-0.246276
0.104174
0.142101
-0.430405
-0.285371
-0.125655
-0.168753
0.297195
-0.128443
0.151731
0.198571
0.0862694
0.00700442
-0.115199
0.108195
0.403847
0.114696
0.271605
-0.180318
-0.0912871
0.00990058
-0.53166
0.52176
0.167495
-0.140091
-0.0274043
0.0437898
0.0740163
-0.117806
0.338305
-0.0927664
0.121121
-0.00311423
0.170609
-0.0128013
-0.0302313
0.0430326
-0.105558
-0.0669604
0.0739766
0.320254
-0.39423
0.0991393
-0.244845
-0.0307046
0.102699
0.331908
0.119409
0.206843
0.200596
-0.434239
-0.0982648
0.573229
-0.0977629
-0.00239992
-0.533159
0.380451
-0.527079
-0.137376
0.436966
-0.459302
0.512753
-0.0534509
0.589354
-0.485797
0.170013
0.398027
-0.56804
-0.0594779