/*--------------------------------*- C++ -*----------------------------------*\
| =========                 |                                                 |
| \\      /  F ield         | OpenFOAM: The Open Source CFD Toolbox           |
|  \\    /   O peration     | Version:  v2012                                 |
|   \\  /    A nd           | Website:  www.openfoam.com                      |
|    \\/     M anipulation  |                                                 |
\*---------------------------------------------------------------------------*/
FoamFile
{
    version     2.0;
    format      ascii;
    class       volScalarField;
    location    "250";
    object      epsilon;
}
// * * * * * * * * * * * * * * * * * * * * * * * * * * * * * * * * * * * * * //

dimensions      [0 2 -3 0 0 0 0];


internalField   nonuniform List<scalar> 
14033
(
3.18318e-05
0.00313209
6.32164e-07
1.04872e-06
4.19085e-07
1.3561e-06
0.000194545
1.17512e-06
1.04509e-06
0.00234674
6.23346e-07
1.78588e-06
1.32331e-06
1.32225e-06
4.16075e-07
1.62588e-06
1.49637e-06
0.0113157
1.16878e-06
1.57627e-06
1.60234e-06
1.78853e-06
1.96736e-06
4.17576e-07
6.21012e-07
1.16237e-06
2.34413e-06
2.33264e-06
8.25867e-06
4.65038e-06
1.48247e-06
1.16598e-06
2.86768e-06
1.55864e-06
0.00013068
8.77791e-07
0.00224971
0.00299044
4.36249e-07
1.41979e-06
0.00221699
1.60702e-06
6.41538e-07
5.05168e-07
6.46672e-07
6.37526e-07
0.00344153
1.34488e-06
2.6334e-06
0.00196565
1.37158e-06
9.22247e-07
0.00465102
0.00157131
1.50208e-06
1.33171e-06
9.6147e-06
0.00589164
1.57257e-06
1.47754e-06
6.02976e-07
0.00201391
1.68301e-06
6.49164e-07
7.65432e-07
6.31945e-07
2.5141e-05
2.13169e-06
5.81596e-07
1.40097e-06
8.22102e-07
1.50436e-06
0.00341006
1.58431e-06
1.65613e-06
5.95779e-07
1.45301e-06
1.40243e-06
0.00627263
3.83551e-06
6.33703e-07
0.00673439
0.00511351
1.02121e-06
5.79105e-07
1.49089e-06
1.18144e-06
0.00165678
0.00367456
1.58371e-06
1.2449e-06
6.367e-07
1.03673e-06
0.000685499
5.77489e-07
1.43668e-06
1.37706e-06
6.66321e-07
0.00235997
1.0699e-06
6.35904e-07
1.33882e-06
5.73467e-07
9.67774e-07
0.00349884
2.50831e-06
0.00365344
1.02281e-06
2.08204e-06
8.10429e-07
0.00331628
1.03902e-06
5.88749e-07
2.26185e-07
1.25041e-06
1.46324e-06
4.63137e-06
4.24311e-07
0.000418154
2.86726e-06
1.21401e-06
1.68795e-06
0.00213235
1.19436e-06
0.000806714
1.03046e-06
6.37945e-07
3.58092e-07
0.00414027
1.38259e-06
0.00337651
6.10423e-07
4.17877e-07
0.00267066
0.00337064
1.40627e-06
2.44182e-06
7.89276e-07
1.38864e-06
1.02917e-06
1.49713e-06
0.000342276
1.84484e-06
1.61719e-06
9.06893e-06
6.40616e-07
1.21067e-06
1.71028e-06
0.00221426
0.000564473
2.46456e-06
1.49302e-06
8.28291e-07
1.15565e-06
1.32838e-06
0.00284797
9.6258e-07
7.55521e-07
9.62808e-07
4.16697e-07
1.27143e-06
2.35427e-06
0.00244286
8.59256e-07
1.57562e-06
1.273e-06
1.48067e-06
1.66973e-06
0.0228715
1.22663e-06
1.62561e-06
2.44452e-06
1.78441e-06
0.0191791
5.92026e-07
1.23097e-06
2.91945e-06
0.00479828
1.77144e-06
1.62029e-06
5.84441e-06
0.00580244
1.48564e-06
6.84382e-07
8.22193e-07
0.00360031
0.00270082
1.41231e-06
0.0222839
0.00351243
3.97676e-05
1.47534e-06
1.14812e-06
1.41924e-06
0.00074627
0.00163826
1.67257e-06
0.00387418
1.03432e-06
8.22921e-07
1.13056e-06
1.47591e-06
7.68891e-07
6.66051e-06
1.48539e-06
7.74089e-07
1.68069e-06
1.6304e-05
1.61342e-06
3.19001e-07
0.00523234
1.16198e-05
0.000118409
0.000567405
4.3824e-07
1.26511e-06
9.47206e-07
8.07953e-05
9.2587e-07
1.65454e-06
1.61426e-06
7.00645e-07
7.00057e-07
1.18778e-06
1.36852e-06
5.7072e-07
1.90383e-06
1.48366e-06
1.03092e-06
5.11578e-07
6.33941e-07
2.4327e-06
1.49603e-06
4.23847e-07
8.92881e-05
0.00264902
2.64007e-06
5.17896e-07
1.00569e-06
8.99272e-07
0.00217201
1.40774e-06
1.10593e-06
6.09446e-07
1.48294e-06
5.15235e-07
0.00415868
0.0164778
1.16751e-06
5.98755e-07
1.34807e-06
0.00544178
5.03701e-07
0.000168137
1.01958e-06
0.00123378
8.91896e-07
1.21959e-06
4.97917e-07
0.00010582
4.45861e-07
0.00781242
8.70975e-06
1.66411e-06
1.50803e-06
1.81484e-05
1.48797e-06
3.70515e-06
1.70115e-05
0.00375422
1.58195e-06
0.00265594
5.01179e-07
1.60103e-06
0.000263196
1.00145e-06
6.40647e-07
2.33193e-06
1.15967e-06
0.000481698
2.67694e-06
8.7053e-07
8.28223e-06
1.63478e-06
0.0217256
0.000777856
0.00346295
4.99865e-07
0.00691407
5.78795e-05
1.03291e-06
1.76071e-06
1.80794e-06
4.16367e-05
1.24188e-06
6.06329e-07
6.95438e-07
1.01584e-06
6.0615e-07
1.11539e-06
6.94136e-07
0.000228424
0.00120766
1.56377e-06
1.59105e-06
2.00793e-06
1.5129e-06
6.85049e-07
0.00411478
1.46335e-06
2.26838e-06
8.87944e-07
2.56842e-06
1.85728e-06
1.10532e-05
1.59009e-06
1.27592e-06
1.46339e-06
1.32503e-06
0.00606174
0.00313762
2.30495e-06
1.44551e-06
6.05036e-07
1.81562e-06
0.00184724
1.5669e-06
5.69287e-07
0.00353593
1.6961e-06
1.33306e-06
0.0049022
0.00349887
1.5759e-06
4.50532e-07
0.00257132
2.47527e-06
1.10908e-06
0.00279237
1.53292e-06
0.00468478
1.9093e-06
8.80919e-07
1.52708e-06
3.14615e-07
6.14729e-07
1.69002e-06
1.32465e-06
0.00193557
0.000199872
6.89326e-07
1.33861e-06
0.00365446
1.71186e-06
1.12111e-06
4.3688e-07
1.52023e-06
0.00255707
5.75655e-07
9.6935e-07
1.12719e-06
3.53721e-07
0.00216031
1.16284e-06
1.50261e-06
1.58176e-06
3.52424e-07
4.23364e-07
1.44752e-06
6.15933e-07
5.61337e-07
6.14638e-07
1.19153e-06
1.37819e-06
2.25975e-06
0.00514354
1.46499e-06
1.63675e-06
0.000855481
4.87978e-07
5.08168e-07
1.61947e-06
1.22648e-06
1.87988e-07
0.00189776
1.18415e-06
0.00331685
5.1857e-07
1.63172e-06
1.9685e-06
6.8998e-07
0.004443
1.61126e-06
1.25778e-06
7.24508e-06
0.00428512
4.99585e-06
0.00751472
2.20509e-06
1.47966e-06
1.41489e-05
1.21782e-06
6.27038e-07
4.86892e-07
1.5765e-06
1.36505e-06
1.45253e-06
4.33787e-07
1.2333e-06
0.00122425
0.00281401
4.61473e-06
7.63287e-07
0.00572928
5.65931e-07
1.3023e-06
5.82095e-07
1.5355e-06
1.24076e-06
0.00232875
1.50808e-06
4.30306e-07
1.66397e-06
1.52577e-06
1.10947e-06
1.48045e-06
1.46335e-06
4.18245e-07
1.60162e-06
1.18721e-06
1.13894e-06
1.42156e-06
1.46796e-06
1.30333e-06
5.79855e-07
1.11661e-06
1.42686e-06
1.31922e-06
2.27629e-06
0.000197852
0.000112108
5.21635e-07
1.33197e-06
6.42853e-07
1.16579e-06
8.45882e-07
1.6894e-06
0.00213404
0.000197063
1.05388e-06
0.00422234
5.5229e-07
8.26622e-07
1.45395e-06
1.17152e-06
1.44463e-05
1.91125e-06
1.18051e-06
4.12668e-07
1.60243e-06
1.41614e-06
0.00333037
0.000347194
8.55543e-06
4.87398e-07
1.18131e-06
0.000537604
9.83381e-07
5.05585e-07
0.000393311
1.42799e-06
1.60424e-06
9.28678e-07
1.56905e-06
6.28321e-07
0.00578986
1.15326e-06
8.05357e-06
1.25084e-06
0.000834349
8.96486e-07
0.0039541
1.5701e-06
0.00183251
0.00357257
6.51757e-07
0.0123282
7.74765e-07
2.04539e-06
8.55825e-07
1.50996e-06
0.0161221
0.0112848
1.77108e-06
9.293e-07
1.47088e-06
2.46282e-06
0.00162857
1.48429e-06
1.63254e-06
1.53047e-06
1.12966e-06
1.80175e-05
6.83124e-05
2.09284e-06
6.4147e-07
1.05777e-06
0.00116131
1.18283e-06
2.08169e-06
5.32068e-07
9.8322e-07
0.00403028
5.14808e-07
1.16059e-06
1.41178e-06
1.729e-06
5.8522e-07
0.00102998
0.000431574
6.30299e-07
2.53851e-06
6.29981e-07
1.21141e-06
9.99892e-07
1.44524e-06
1.38288e-06
1.54779e-06
1.50424e-06
1.25159e-06
1.46786e-06
1.17446e-06
0.00261586
9.82583e-07
8.36323e-07
1.23131e-06
9.03174e-07
1.28316e-06
1.26158e-06
3.02453e-06
1.70173e-06
0.000261523
4.52038e-07
1.00073e-06
1.37371e-06
1.51321e-06
1.25631e-06
6.19645e-07
0.000183596
1.33223e-06
4.81176e-07
0.00396495
4.20191e-07
6.20579e-07
1.09733e-06
2.5922e-06
9.77597e-07
1.47268e-06
1.6607e-06
0.00256883
1.51514e-06
0.00362619
1.5807e-06
1.62517e-06
1.58047e-06
1.62254e-06
2.88626e-06
1.41246e-06
1.51201e-06
1.04916e-06
0.000432245
0.00273462
0.00115111
1.28019e-06
0.0148205
1.08127e-06
0.0227399
0.00380087
1.62954e-06
0.00264091
1.58196e-06
1.38874e-06
6.10244e-07
6.24567e-07
6.01125e-07
3.44112e-06
1.35766e-06
2.45158e-06
6.00742e-07
1.14694e-06
0.00297998
1.60868e-06
6.70186e-07
1.83883e-06
1.24361e-06
1.07336e-06
4.23198e-07
0.00236018
7.0772e-07
1.37726e-06
1.38377e-06
6.11408e-07
1.32513e-06
0.000963874
1.62225e-06
0.0193514
0.00201779
0.00304844
1.97178e-06
1.41814e-07
1.09643e-06
1.11095e-06
1.3621e-06
9.09217e-07
0.000955251
6.34226e-07
4.84644e-07
1.16318e-06
0.0032003
0.00619388
0.005053
1.02184e-06
1.19457e-06
1.62232e-06
5.41868e-07
1.66599e-06
2.35711e-07
1.6964e-06
1.69872e-06
1.71607e-06
5.24023e-07
5.85904e-07
5.28334e-07
3.77306e-06
1.397e-06
0.00069597
4.45032e-07
1.38274e-06
2.35513e-06
5.97862e-07
2.04752e-06
1.31046e-06
5.95414e-07
0.000899978
2.50197e-06
0.00325992
2.00452e-06
1.08257e-06
8.67267e-07
5.45954e-07
1.64788e-06
1.62506e-06
1.5723e-06
1.15398e-06
1.32671e-06
8.4751e-07
5.61663e-07
1.27117e-06
0.00452255
6.24561e-07
4.36263e-07
5.80249e-07
0.000498393
0.00243039
1.59068e-06
0.000705851
5.42865e-07
8.62284e-05
4.69984e-07
5.81383e-07
5.36722e-07
0.0111972
8.36787e-06
1.39108e-06
1.12201e-06
1.38042e-06
1.088e-06
0.000143374
1.77815e-06
1.58701e-06
0.000614603
5.91547e-06
4.18018e-07
2.71522e-07
0.000405751
5.11303e-07
1.58434e-06
0.00206201
2.4468e-06
6.25523e-07
0.00419888
1.41542e-06
0.0025157
1.59244e-06
1.37333e-06
0.00236914
0.00554527
5.27092e-06
7.64888e-07
5.97398e-07
0.0108411
1.51229e-06
1.92888e-06
1.43413e-06
1.59167e-06
1.32995e-06
1.36918e-06
0.000808879
1.35652e-06
1.31697e-06
6.3469e-05
1.35336e-06
9.10243e-07
7.50564e-07
0.000542564
1.51364e-06
1.44434e-06
1.27233e-06
8.30808e-07
1.60204e-06
6.05641e-07
2.79269e-06
1.71103e-06
7.5289e-07
0.0019055
7.73856e-07
3.00879e-06
1.6779e-06
5.48649e-07
1.43079e-06
1.0357e-06
4.09761e-06
5.36646e-07
1.48717e-06
1.62391e-06
1.45926e-06
0.00170438
1.19687e-06
0.00294263
1.60802e-06
0.00244194
1.54168e-06
5.9537e-07
0.00220572
0.00451476
1.21416e-06
5.50578e-07
5.69967e-07
0.00426218
0.000503401
1.65392e-06
5.65762e-07
1.1974e-06
1.3988e-06
1.67518e-06
0.00633181
6.25879e-07
1.33545e-06
0.0040823
0.00258425
6.33375e-07
2.11991e-06
1.59647e-06
1.3861e-06
5.62966e-07
1.5586e-06
0.00310291
1.05592e-06
1.43009e-06
1.8206e-06
1.0407e-06
4.23602e-07
1.46937e-06
1.82152e-06
1.15455e-06
1.56862e-06
7.65162e-06
1.47371e-05
5.34605e-07
1.12986e-06
1.59822e-06
1.46459e-06
0.00554664
9.79463e-07
1.08109e-06
6.16248e-07
0.00278071
7.02928e-07
1.10948e-06
1.19937e-06
0.00239532
2.99427e-06
5.32187e-07
2.43804e-06
0.00231345
1.28405e-06
2.70208e-06
0.0181506
3.35713e-06
5.11744e-06
1.90687e-06
0.0055818
1.62046e-06
6.53594e-06
2.22319e-06
0.0229397
1.25078e-06
0.00295239
1.35363e-06
1.39345e-06
1.46517e-06
1.23937e-06
1.1721e-06
1.78611e-06
1.34681e-06
5.38802e-07
1.24533e-06
1.77142e-06
0.0013969
1.99681e-06
7.02092e-07
6.37117e-07
7.38669e-07
1.42453e-06
9.9607e-08
1.478e-06
1.57894e-06
6.35376e-07
1.43229e-06
2.83815e-06
5.78979e-07
1.43257e-06
0.0160483
8.87516e-07
6.26147e-07
1.6584e-06
0.00288312
4.79012e-07
0.002655
4.38809e-07
1.16838e-06
4.28836e-07
1.06336e-06
0.00240372
1.79732e-06
1.57335e-06
1.48332e-06
7.16815e-07
1.16516e-06
5.82168e-07
1.4586e-06
7.75091e-07
1.17274e-06
0.00226053
4.42505e-07
1.27793e-06
1.32421e-06
1.34771e-06
5.36837e-07
2.08405e-06
1.23938e-06
2.43621e-05
1.61966e-06
1.98278e-06
1.22707e-06
9.14487e-05
1.29678e-06
2.08714e-06
1.44794e-06
0.00241916
1.48788e-06
6.42192e-07
1.5328e-06
0.00321464
1.60816e-06
1.51915e-06
3.47461e-06
0.00265328
0.00191396
7.88879e-06
1.24104e-06
1.58732e-06
0.00302198
1.70073e-06
1.63249e-06
0.00663357
1.40696e-06
4.3179e-07
5.88752e-07
1.59975e-06
1.38631e-06
1.58841e-06
1.40452e-06
1.32568e-06
1.60485e-06
1.32866e-06
1.18215e-06
1.41245e-06
0.00270577
4.83291e-07
1.06665e-06
0.0040107
0.00532752
5.35995e-07
1.49456e-06
4.19669e-07
0.00156014
0.00372791
1.41788e-06
1.54567e-06
1.3284e-06
5.36489e-07
5.07588e-05
1.3855e-06
1.45092e-06
1.54797e-06
5.56927e-07
9.21168e-07
0.00106418
1.23472e-06
5.61388e-07
0.000117074
8.23261e-07
1.47799e-06
0.000198956
4.03534e-06
1.71131e-06
4.62637e-07
5.45221e-07
1.50873e-06
9.54945e-07
1.46037e-06
0.0024888
1.06334e-06
3.44787e-06
8.92655e-07
4.68085e-07
5.61131e-07
4.21383e-07
9.04816e-07
2.59588e-06
2.17333e-06
0.00491658
1.62158e-06
1.47964e-06
0.000336931
6.48767e-07
1.38194e-06
2.24467e-06
1.39189e-06
5.97552e-05
1.67818e-06
7.62803e-07
1.41395e-06
4.25845e-07
0.00136124
1.21555e-06
5.39281e-07
0.00258544
7.54481e-07
0.00546255
5.6555e-07
9.86929e-07
9.52649e-07
4.94319e-07
0.00389055
0.00249739
1.46809e-06
9.02372e-07
2.05669e-06
8.68055e-07
4.91444e-07
7.998e-07
5.65597e-07
1.06432e-06
0.00207372
0.000616845
6.63719e-07
0.0144119
0.00113474
1.49525e-06
1.6335e-06
6.37577e-07
1.26841e-06
1.55494e-06
1.47742e-06
1.71387e-06
1.55211e-06
1.37006e-06
0.000545068
1.1451e-06
8.85164e-07
9.03568e-07
8.80062e-07
4.02415e-07
1.17169e-06
1.92095e-06
0.005454
1.12479e-06
5.10325e-07
7.95199e-07
9.68219e-07
1.25289e-06
5.23664e-07
1.33354e-06
0.00208342
0.000855293
9.94475e-07
4.42065e-07
1.21284e-05
3.87733e-06
4.17423e-06
1.78621e-06
1.38806e-06
7.5403e-07
1.57739e-06
5.19758e-07
1.29543e-06
0.00800524
7.93063e-07
1.58713e-06
2.3223e-06
2.16536e-06
0.00365121
0.00185186
1.44693e-06
4.33931e-07
1.60963e-06
1.48885e-06
7.81586e-06
4.16792e-06
9.09047e-07
2.92404e-06
1.07144e-06
7.58016e-07
0.00123812
0.00203936
5.57139e-07
1.52949e-06
1.5005e-06
2.1133e-06
6.4796e-07
1.45906e-06
4.73405e-07
1.4566e-06
4.28377e-07
1.64954e-06
0.000709972
1.62065e-06
1.02253e-06
6.34069e-07
1.2351e-06
0.00362163
5.50381e-06
1.58836e-06
2.51228e-06
3.59702e-06
6.80907e-06
1.6213e-06
1.90828e-05
2.76257e-07
1.1656e-06
1.36174e-06
1.33391e-06
1.45907e-06
6.95967e-07
4.82481e-07
1.32954e-06
0.0047163
0.00360723
0.00237339
1.31012e-06
8.76308e-07
0.0161825
1.56149e-06
1.47065e-06
1.48138e-06
1.40888e-06
1.44604e-06
1.59971e-06
1.88037e-06
1.25569e-06
1.92375e-06
0.00242111
1.61908e-06
1.30194e-06
1.44197e-06
1.30955e-06
3.77096e-07
1.50593e-06
1.17599e-06
9.36124e-07
1.60696e-06
2.01665e-06
1.31296e-06
5.35235e-07
5.44357e-07
1.16952e-06
0.0030609
1.38416e-06
1.12103e-06
4.25699e-07
0.000753098
6.82922e-07
2.56533e-06
0.00237616
1.28092e-06
1.27139e-06
1.11538e-06
2.03448e-06
5.5623e-07
0.000148728
1.55116e-06
2.11909e-06
1.62315e-06
1.98189e-05
2.16883e-06
0.000288725
1.52787e-06
1.15175e-06
1.50161e-06
0.000754027
1.24734e-07
1.3286e-06
1.03591e-06
4.49959e-07
4.18978e-07
0.000370961
5.57912e-07
0.00240006
2.89687e-07
5.81872e-07
0.00262792
6.87037e-07
1.10901e-06
0.00320184
1.3304e-06
5.83874e-07
1.49131e-06
0.00263187
1.10126e-06
5.43387e-07
0.00116374
5.82319e-07
2.35774e-06
3.42527e-07
0.00258856
1.57974e-06
1.45953e-06
7.27141e-07
1.59894e-06
4.75618e-07
4.24799e-07
0.00454964
7.2311e-07
6.19586e-07
4.94983e-07
1.06457e-06
0.000536474
4.2696e-07
1.07388e-06
5.3472e-07
1.12096e-06
1.25942e-06
0.00241716
4.56097e-07
5.41524e-07
8.29725e-07
0.00120776
0.00065748
6.48278e-07
1.63047e-06
8.30954e-07
0.000154971
1.56493e-06
6.88486e-07
4.27124e-07
6.65534e-05
0.00351408
2.33581e-06
1.52353e-06
1.66492e-06
1.68699e-06
8.66832e-07
8.68795e-07
5.37945e-07
1.21952e-05
7.5862e-07
1.66477e-06
2.87639e-06
1.62751e-06
8.04467e-07
1.45088e-06
1.64213e-06
5.33178e-07
9.39011e-07
1.14736e-06
0.000450178
8.35989e-07
7.345e-07
0.00377346
1.23712e-06
8.55912e-06
5.05685e-07
0.00359984
4.22327e-07
0.00227759
9.05992e-07
7.62036e-07
1.16183e-06
0.00253737
8.60293e-07
0.000190904
9.107e-07
9.30406e-07
0.00204758
6.84286e-07
5.32715e-07
1.15988e-06
1.78637e-06
4.81282e-05
9.97132e-07
0.000541807
1.37583e-06
1.43979e-06
1.62413e-06
0.00943772
0.00138889
0.00148877
0.00104322
1.30886e-06
0.0143267
1.20803e-06
8.73606e-07
6.22317e-07
4.54671e-07
1.03914e-06
1.43191e-06
1.42997e-06
0.00430995
1.43073e-06
8.10001e-07
5.55276e-07
1.37605e-06
1.43557e-06
9.29297e-07
4.57942e-07
5.34284e-07
7.18133e-07
1.66553e-06
8.14471e-07
0.00257516
6.85697e-07
1.28388e-06
4.05208e-07
1.45305e-06
1.52058e-06
7.14431e-07
1.47364e-06
0.000967486
5.5439e-07
0.000502674
0.00132212
1.48396e-06
1.24955e-06
5.80315e-08
1.31939e-06
0.00428897
0.002609
8.73827e-07
9.60522e-06
1.59134e-06
1.54323e-06
0.00208813
1.36639e-06
1.18108e-06
1.84925e-06
8.58666e-07
0.0020643
5.25394e-05
1.37982e-06
1.54683e-06
5.09365e-07
5.50716e-07
7.14815e-07
1.76198e-06
0.00439392
7.00046e-07
1.21894e-06
0.000173542
7.13844e-07
1.66192e-06
2.56537e-06
1.544e-06
1.78448e-05
5.70468e-07
0.00179831
1.29622e-06
6.5244e-06
0.00229798
0.00219288
2.80616e-06
1.37053e-06
0.00136543
8.60569e-07
1.74213e-07
1.93113e-05
1.64943e-06
0.0107951
7.43191e-07
0.0108769
6.54367e-07
1.24437e-06
5.47786e-06
1.90907e-07
1.73962e-06
9.01349e-06
4.6531e-07
6.98746e-07
4.18711e-07
0.000636781
6.45508e-07
1.5797e-06
6.09468e-07
4.31087e-07
0.00540036
2.67054e-06
5.18658e-07
1.5485e-06
1.48351e-06
6.24542e-07
5.6014e-07
1.25271e-06
1.67907e-06
1.92541e-06
6.32428e-07
1.39168e-06
0.000663997
6.81597e-07
0.000747775
0.00311807
1.3103e-06
0.00344218
1.38831e-06
2.48342e-07
6.3577e-07
4.54536e-07
1.36371e-06
0.00526513
5.80137e-07
6.00154e-07
1.53434e-06
0.000351425
1.55114e-06
0.0034064
1.55334e-07
2.01515e-06
1.92363e-06
1.70093e-06
1.46277e-06
5.07039e-07
0.000339524
1.58303e-06
0.00363187
4.90363e-07
9.95762e-07
0.0206101
0.00737796
1.60855e-06
1.97263e-06
4.3349e-07
1.53615e-06
5.66609e-07
4.52866e-05
4.41687e-07
5.40055e-07
0.00208941
1.35819e-06
1.22145e-06
8.99643e-07
1.30484e-06
1.36409e-06
1.96436e-07
0.0027152
0.00194917
0.000136605
1.67672e-06
1.57898e-06
1.16283e-06
7.81803e-07
6.24336e-06
5.47208e-07
1.49893e-06
8.75133e-07
7.38546e-07
7.07394e-07
1.27278e-06
1.4154e-06
1.57186e-06
4.97192e-07
2.00312e-06
1.51932e-06
0.000779473
1.61265e-06
0.00191211
2.40423e-06
1.64017e-05
1.85977e-06
0.000967329
4.69949e-07
0.000253368
1.66804e-06
9.39586e-06
5.70934e-07
1.3026e-06
6.91017e-07
5.53664e-07
1.10384e-06
4.94399e-07
0.00227202
5.47103e-07
0.00531255
0.00711207
2.30224e-06
1.66427e-06
0.00697149
9.52984e-07
5.6439e-06
1.90281e-06
3.01248e-05
8.75946e-07
1.45602e-06
1.14094e-06
2.81606e-06
7.38774e-07
3.55936e-06
5.99068e-07
4.15605e-05
5.7441e-07
6.80037e-05
0.00368539
1.53075e-06
2.7379e-07
0.00334956
1.59253e-06
0.020716
1.8165e-06
1.49725e-06
1.35987e-06
1.37051e-06
4.18054e-07
0.00359703
0.00101084
4.91004e-07
0.00166571
1.4662e-06
1.12684e-06
8.4377e-07
1.32369e-06
3.03423e-07
1.39641e-06
0.00360999
1.36977e-06
1.52891e-06
8.80767e-07
9.79032e-07
1.70473e-06
0.00094112
0.00380683
1.40188e-06
7.72886e-07
0.00421907
7.57014e-05
1.5203e-06
0.00372747
1.67052e-06
0.00183596
0.000223366
1.7359e-06
0.00112236
5.26664e-07
1.24652e-06
1.4367e-06
1.42995e-06
0.00302916
0.00174577
1.55161e-06
0.0055751
5.33963e-07
1.32454e-06
0.000888495
9.85504e-07
1.62976e-06
1.38631e-06
0.000882239
0.000106278
1.59381e-06
1.49543e-06
0.00242732
0.0113646
1.57039e-06
1.88953e-06
7.78653e-07
6.48407e-07
1.73119e-06
1.53586e-06
1.30875e-06
4.6945e-08
1.53681e-06
2.67081e-06
1.25156e-06
1.42512e-06
2.76033e-06
1.34109e-06
1.52303e-06
0.0149702
1.00915e-06
2.81304e-06
9.99194e-07
9.55942e-07
3.0032e-06
1.31183e-06
1.51071e-06
4.25056e-07
1.53564e-06
1.55083e-06
1.2931e-06
2.18743e-07
6.03417e-07
1.0603e-06
9.6689e-07
0.00468845
5.24988e-07
1.54096e-06
1.75097e-06
5.23927e-07
4.3061e-07
2.88259e-06
1.55706e-06
1.29325e-05
1.58292e-06
1.85079e-06
1.47006e-06
0.00167502
0.0018848
5.32839e-07
0.00328645
1.39451e-06
1.495e-06
0.00396796
9.95776e-07
9.45115e-05
4.34578e-06
1.11721e-06
4.9809e-06
1.67958e-06
1.13457e-06
7.8224e-07
4.67659e-07
6.89161e-07
1.58467e-06
9.98206e-07
3.60681e-06
1.24767e-06
0.00353697
1.34375e-06
0.000189145
2.81399e-06
1.00036e-06
1.51462e-06
1.41647e-05
4.75563e-07
0.00345434
0.0116581
1.24402e-06
0.00342773
9.83566e-07
0.00191927
0.019434
1.69582e-06
1.08444e-06
1.41911e-06
4.33442e-07
1.29169e-06
0.00357754
1.46723e-06
8.57768e-07
6.90756e-05
1.23616e-06
6.82909e-07
0.00357224
6.04334e-07
5.62089e-07
1.05414e-06
1.22891e-06
1.43197e-06
1.38634e-06
1.51221e-06
0.000186047
1.21089e-06
0.00375849
0.001364
1.0326e-06
0.00022261
1.48488e-06
5.53812e-06
0.00102682
9.61756e-07
1.53896e-06
0.00357415
0.00381876
0.00344943
0.00223681
4.88804e-07
4.43727e-07
1.19316e-06
2.20583e-06
1.2148e-06
3.72652e-06
1.30081e-06
1.44937e-06
4.91845e-07
0.00393204
1.58232e-06
0.0049173
1.63932e-06
0.00168013
1.03506e-06
1.76202e-06
1.48624e-06
1.51363e-06
4.31889e-07
0.00307075
1.21757e-06
1.17683e-06
0.00337637
1.6236e-06
1.42676e-06
5.49284e-07
1.61807e-06
0.00140061
0.00158893
9.15193e-07
0.00328285
1.3309e-06
1.3759e-06
1.40126e-06
1.00538e-06
0.00612006
6.66271e-06
1.02704e-06
0.000424761
3.31705e-06
1.63225e-06
0.00234875
0.000242635
0.00199157
1.64858e-06
9.49181e-07
1.21905e-06
5.3715e-07
8.17732e-07
0.00147528
0.000884765
1.60853e-06
2.29479e-06
1.37244e-06
6.11381e-07
0.00393771
1.36389e-06
0.000135384
0.00074703
9.17454e-07
0.0048272
7.77057e-07
0.000699811
1.46646e-06
1.79154e-06
0.000981229
0.00381544
8.55407e-07
0.000112518
5.85058e-07
3.51926e-06
1.74134e-06
1.38552e-06
0.000857374
1.28776e-06
1.47608e-06
0.000138172
1.73813e-06
5.858e-07
1.79675e-06
3.91185e-05
0.0001296
1.75376e-06
1.39436e-06
5.79327e-07
2.26584e-06
1.77973e-06
1.55109e-06
3.34647e-06
2.24133e-06
1.88052e-06
4.77834e-07
2.8894e-06
1.21176e-05
1.48355e-06
2.78603e-06
9.02268e-07
8.9174e-07
0.00178068
1.07714e-06
1.57476e-06
0.00686424
0.001497
4.35255e-07
0.00105636
0.000713396
0.00282393
7.60021e-07
1.11324e-06
1.66582e-06
8.66579e-07
4.61265e-07
8.69262e-07
0.00346861
1.31326e-06
4.72552e-07
1.47848e-06
1.52501e-06
0.00280263
8.06036e-07
1.72142e-06
0.000146478
1.83798e-06
1.22779e-06
0.0119185
1.23545e-06
1.07932e-06
0.00417858
9.16819e-07
0.000193884
1.24045e-06
1.54274e-06
6.91239e-07
8.6384e-07
9.75338e-07
8.64522e-07
1.22986e-06
1.94181e-06
0.0027403
7.37444e-07
1.78276e-06
0.00382945
4.59513e-07
1.54561e-06
6.62763e-07
1.53812e-06
1.46769e-06
1.39486e-06
1.40009e-06
0.00118322
0.000147241
0.00552359
9.85326e-07
1.5586e-06
4.83109e-07
1.06979e-06
9.8785e-07
1.49413e-06
1.36901e-06
9.90224e-07
6.26346e-07
1.52932e-06
1.2298e-06
0.00393348
8.43753e-07
1.49627e-06
6.28743e-07
0.003717
0.00216851
1.92384e-05
1.3412e-06
7.70124e-07
1.51179e-06
0.000758013
1.09879e-06
0.00483988
4.64633e-07
1.39825e-06
1.34345e-06
1.0594e-06
5.30985e-07
1.11186e-06
0.00430307
6.38431e-06
8.33713e-07
0.00177839
1.37115e-06
0.00356684
4.23918e-07
0.0203733
0.00183018
1.58399e-06
6.1904e-07
1.42917e-06
0.000516426
7.95421e-07
1.59318e-06
6.55527e-07
1.31987e-06
6.82123e-07
1.54179e-06
0.00380188
6.43317e-07
6.15881e-07
1.37005e-06
1.42387e-06
0.0001009
1.07632e-06
1.51768e-06
3.23109e-05
1.75164e-06
1.32327e-06
0.00100596
1.61815e-06
1.7313e-06
1.40608e-06
1.40586e-06
2.93147e-07
8.96988e-07
1.76438e-06
1.23964e-06
1.70297e-06
0.0021624
0.000746446
1.56854e-06
1.60866e-06
1.59333e-06
1.60325e-06
5.06582e-07
5.63515e-07
0.000143437
5.4109e-06
5.05891e-07
1.47288e-06
5.22079e-07
0.000142034
0.0043584
0.0158698
1.22079e-06
0.0037038
7.09592e-07
2.05753e-06
6.73999e-07
3.91489e-06
0.000665683
5.71027e-07
1.22761e-06
1.09436e-06
2.15402e-06
5.12157e-07
5.09803e-07
5.00572e-07
0.00124921
3.23316e-06
8.53415e-07
0.00158573
1.57241e-06
1.02405e-06
1.62504e-06
1.57346e-06
8.83237e-07
1.69069e-06
0.0037396
1.46636e-06
1.76786e-06
1.25785e-06
6.87641e-07
4.67307e-07
0.00190892
6.62522e-07
8.88826e-07
1.0645e-06
5.10744e-07
1.35173e-06
5.20101e-07
1.23248e-06
8.08914e-06
9.54089e-07
1.29959e-06
5.64346e-07
5.40989e-07
1.64692e-06
1.28998e-06
1.15851e-06
3.24789e-06
1.36406e-06
9.53871e-07
1.37751e-06
0.00293646
3.24112e-07
9.91957e-07
0.00266124
1.65429e-06
0.000130807
1.70306e-06
4.62229e-07
1.36041e-06
1.54486e-06
1.53997e-06
1.37688e-06
0.0028151
4.36635e-07
1.62285e-06
1.57301e-06
3.67754e-07
1.25855e-06
1.53359e-06
1.09832e-06
1.36616e-06
0.00992864
4.64261e-07
2.81004e-06
1.4387e-06
7.85063e-07
8.02005e-07
8.91178e-07
0.00013362
1.32984e-06
5.24686e-07
0.0022985
0.00199688
9.39246e-07
1.62749e-06
1.00634e-06
5.50716e-07
4.6501e-07
5.16173e-07
9.48512e-07
1.58645e-05
1.23006e-06
8.94666e-07
4.45704e-07
4.73168e-07
1.77126e-06
0.00360755
0.00369832
4.55285e-07
0.00315384
6.42323e-05
7.90095e-07
0.00379215
4.19469e-07
1.93686e-06
0.0020252
0.00250181
1.33259e-06
0.00334896
0.00183188
5.58541e-06
0.00417141
1.13487e-07
1.58209e-06
8.7747e-07
1.08144e-06
6.60929e-07
0.00407779
0.00371973
1.24336e-06
4.9392e-07
0.00443741
0.0213555
5.65494e-07
1.47246e-06
1.32804e-06
1.46187e-06
1.44393e-06
0.000201317
0.000110848
2.29716e-06
1.67625e-06
0.00188849
1.47787e-06
0.00236758
1.87632e-06
4.88629e-05
1.64175e-06
3.20333e-06
1.52249e-06
0.00214225
1.54123e-06
8.80947e-07
9.28687e-07
4.62469e-07
4.41243e-06
9.07709e-07
1.42472e-06
1.46035e-06
1.53529e-06
1.20806e-06
1.50002e-06
8.00474e-07
1.32163e-06
8.44207e-06
7.82621e-07
0.00962871
5.73535e-07
1.3796e-06
1.47492e-06
1.43388e-06
9.98883e-07
7.49138e-07
3.20306e-06
6.76298e-07
1.50729e-06
1.20782e-06
7.42047e-07
0.00295109
1.33608e-06
1.20522e-06
4.64757e-07
1.36901e-06
1.38142e-06
1.06224e-06
1.43148e-06
5.49158e-07
1.44594e-06
1.50268e-06
1.50566e-06
0.000168976
0.00503007
1.35431e-06
0.00159108
9.37423e-07
1.24621e-06
2.29787e-06
0.000301497
1.20496e-06
0.000841913
5.23462e-07
0.000203794
1.47713e-06
0.00067602
4.91162e-07
9.68057e-07
0.0017187
8.70867e-07
5.94784e-05
4.32908e-07
1.06106e-06
1.61938e-06
1.43885e-06
1.10859e-06
0.00198508
1.49004e-06
1.76487e-06
0.00221186
8.57988e-07
1.14638e-06
1.43979e-06
9.78838e-08
1.23769e-06
1.79751e-06
1.63253e-06
2.24599e-06
1.26497e-06
6.01934e-07
0.019582
1.26566e-06
0.00121563
4.11906e-06
5.16559e-07
1.42648e-06
1.77487e-06
1.5458e-06
1.28957e-06
2.4413e-06
2.71718e-06
4.19099e-07
1.26335e-06
0.00018478
1.6414e-06
1.39695e-06
5.301e-07
4.34643e-07
1.58532e-06
4.40752e-07
0.000751525
1.11714e-06
0.00830971
1.3825e-06
1.20115e-06
0.00397848
9.81249e-07
0.00233888
1.61371e-06
0.00179084
1.09062e-06
0.0202908
1.49879e-06
1.27131e-06
0.00252093
1.31593e-06
0.00256267
1.24694e-06
1.96465e-06
0.00321777
1.22674e-06
1.19141e-06
7.46974e-05
1.59539e-06
4.27652e-07
1.63016e-06
0.00197411
0.0013669
0.0018889
8.01125e-07
2.73103e-06
1.57411e-06
1.16697e-06
1.39592e-06
1.46392e-06
1.05427e-06
1.3434e-06
0.00176488
1.3198e-06
1.48196e-06
0.00158506
0.00372894
6.80318e-07
1.44436e-06
1.55495e-06
3.27646e-06
0.00250359
1.43582e-06
0.00479925
0.0097197
1.43901e-06
1.4754e-06
8.85038e-07
1.60028e-06
4.9741e-07
0.00347428
1.15419e-06
2.00523e-06
1.80463e-06
1.80376e-06
1.36844e-06
1.37422e-06
1.50792e-06
1.44645e-06
0.00148872
0.000538267
1.02864e-06
5.09302e-07
0.00476259
4.23671e-07
7.99281e-07
1.442e-06
1.27024e-06
0.00214153
1.23143e-06
0.00211721
5.0082e-07
1.2778e-06
9.07525e-05
1.11148e-06
1.38941e-06
1.44125e-06
1.43319e-06
1.56512e-06
9.16653e-07
0.00320113
0.00577685
1.41103e-06
1.94566e-06
0.00322769
1.65437e-07
1.56239e-06
1.65068e-06
0.00180389
1.74497e-06
0.003202
1.28687e-06
1.3077e-06
1.50072e-06
1.10034e-06
0.00360174
0.00230533
1.56403e-06
0.00180657
3.02991e-07
0.00183218
0.000928949
1.02653e-06
4.42475e-07
1.42787e-06
4.24057e-07
1.02452e-06
1.02727e-06
1.55174e-06
0.00239622
0.00319807
1.44715e-06
2.204e-06
1.37656e-06
0.00221288
1.8511e-06
0.00281882
1.27967e-06
1.653e-06
9.57334e-07
0.00123729
2.3936e-06
1.55879e-06
4.41793e-07
5.82252e-07
0.00012899
1.92215e-06
0.00318509
1.41925e-06
0.000189653
1.52055e-06
5.65542e-07
1.59917e-06
1.1629e-06
1.15821e-06
0.0013457
5.12257e-07
1.10779e-06
0.00761327
0.00408061
1.496e-06
9.81578e-07
1.54948e-06
0.000972492
1.63914e-06
1.59206e-06
0.000188458
1.30004e-06
0.0017654
2.53485e-06
0.00211923
0.00167978
0.00421497
1.01938e-06
6.56571e-06
1.15749e-06
0.00311933
1.76107e-06
3.33482e-06
0.00299312
0.000119499
1.97356e-06
0.00342404
0.00340189
1.94394e-06
0.00338196
1.43713e-06
1.29061e-06
1.07687e-05
1.78473e-06
1.74091e-06
1.53837e-06
1.25858e-06
1.14885e-06
1.59964e-06
5.02979e-07
0.00318288
4.69251e-05
5.7798e-07
1.74568e-06
5.52644e-07
9.02975e-07
1.19461e-06
1.45664e-06
1.44694e-06
1.45939e-06
9.56248e-07
5.59068e-07
2.13822e-06
9.61413e-07
1.08633e-06
1.5679e-06
1.751e-06
0.000115469
1.91774e-06
0.0030355
9.40934e-07
0.00334008
0.00123461
1.62761e-06
0.00061134
2.78938e-06
1.76504e-05
1.15736e-06
0.003996
1.33316e-06
2.08593e-06
0.00300256
1.09971e-06
5.8462e-07
0.000183041
1.14358e-06
0.00107118
1.54516e-06
1.31533e-06
2.32353e-06
9.00673e-07
1.86382e-05
1.28347e-06
1.7505e-06
0.00690494
1.46755e-06
0.00313263
1.86435e-06
0.00412917
2.12463e-06
6.45085e-05
2.01867e-06
1.04464e-06
5.46293e-07
8.84067e-07
1.47003e-06
1.30062e-06
1.78154e-06
1.20312e-06
0.00412793
1.67854e-06
1.59608e-06
8.52374e-07
1.49569e-06
1.53139e-06
9.78252e-07
0.000242735
2.36052e-06
1.39376e-06
1.99593e-06
0.00152722
1.55834e-06
1.43826e-06
2.04644e-06
0.00338211
0.0189423
0.000345953
7.74877e-07
1.44138e-06
1.58348e-06
0.00349346
1.1658e-06
0.00295516
7.95535e-07
1.8093e-06
1.43434e-06
1.52286e-06
9.67519e-07
1.61696e-06
2.20098e-06
1.26498e-06
1.0278e-06
9.41857e-07
2.09862e-06
0.000733311
1.9305e-06
8.44086e-07
0.00325294
2.24091e-06
8.16435e-07
4.98111e-07
2.00763e-06
0.00574058
0.00112752
1.3194e-06
0.0206069
2.73813e-06
2.53006e-06
4.68713e-07
1.3898e-06
1.90096e-06
1.50373e-06
1.28964e-06
6.9198e-06
0.000818049
9.87579e-07
1.14305e-06
3.91653e-06
0.00141647
2.18687e-06
0.00537842
9.3297e-07
1.02255e-06
1.56697e-06
6.84973e-07
3.03689e-07
1.40976e-06
0.00326404
7.06794e-07
0.000339252
1.16187e-06
9.74394e-07
1.37411e-06
1.55559e-06
0.00328243
1.94981e-06
0.0101524
0.00469095
1.60082e-06
1.68857e-06
0.000793969
0.00187567
3.77386e-07
3.49417e-06
1.59762e-06
0.00465844
0.00159212
2.09056e-06
1.44559e-06
0.00218911
0.00113844
0.0194477
7.13283e-07
1.45915e-06
2.33137e-06
0.00157226
1.61627e-06
6.31788e-07
0.003802
1.95185e-06
0.00322634
1.30063e-06
2.49575e-06
9.60413e-07
7.19534e-06
1.18115e-06
7.3923e-06
0.00308639
0.00349691
1.49993e-06
4.48716e-06
1.25121e-06
1.51088e-06
1.46342e-06
1.46585e-06
1.37449e-06
2.0303e-06
2.22122e-06
2.10986e-06
2.35749e-06
2.5074e-06
2.77126e-06
1.6022e-06
2.07364e-06
4.50835e-05
1.89046e-06
0.0038797
2.32084e-05
1.50379e-06
9.15314e-07
1.57032e-06
1.46242e-06
1.31224e-06
0.00207497
0.00270935
2.07752e-06
3.65677e-07
0.00319122
2.09012e-06
1.85043e-06
6.66594e-05
0.00186873
2.30158e-06
0.00332876
1.15879e-06
1.49175e-06
1.43954e-06
1.46817e-06
0.000215667
1.6262e-06
7.60509e-07
1.67523e-06
1.4937e-06
2.39092e-06
1.22881e-06
0.00104126
0.00319582
0.00364376
1.3819e-06
1.56943e-06
0.000780767