/*--------------------------------*- C++ -*----------------------------------*\
| =========                 |                                                 |
| \\      /  F ield         | OpenFOAM: The Open Source CFD Toolbox           |
|  \\    /   O peration     | Version:  v2012                                 |
|   \\  /    A nd           | Website:  www.openfoam.com                      |
|    \\/     M anipulation  |                                                 |
\*---------------------------------------------------------------------------*/
FoamFile
{
    version     2.0;
    format      ascii;
    class       surfaceScalarField;
    location    "250";
    object      phi;
}
// * * * * * * * * * * * * * * * * * * * * * * * * * * * * * * * * * * * * * //

dimensions      [0 3 -1 0 0 0 0];
oriented        oriented;


internalField   nonuniform List<scalar> 
20823
(
0.130523
0.0264603
-0.156983
0.254967
-0.158566
-0.0964013
0.668034
-0.0929874
-0.575047
0.602537
-0.119605
-0.482932
0.614121
-0.0528887
-0.561232
0.506654
-0.37716
-0.129494
-0.476674
0.32795
0.285072
0.103491
-0.388562
0.550713
0.0518238
0.148577
-0.00899442
-0.139582
0.633311
-0.565372
-0.0679394
-0.148257
0.149959
-0.0017021
0.209467
-0.340815
0.131348
-0.133138
0.342605
-0.728367
0.423409
0.304958
0.139729
-0.215885
0.0761562
-0.319556
0.204151
0.115405
-0.0286438
0.0807093
-0.0520655
0.356294
0.00307213
-0.359366
-0.18847
0.312437
-0.123967
-0.107525
0.196036
-0.0885111
-0.0100463
-0.138211
-0.0205946
0.134766
-0.114172
0.0395558
0.574565
0.487723
0.145588
-0.0932066
0.4495
0.118641
-0.118923
0.000282594
0.119367
0.107678
-0.127299
0.0196207
0.0170571
0.0880604
0.149157
-0.19975
0.050593
0.392498
-0.107426
0.125755
-0.0947108
-0.0310438
-0.0204877
0.156819
-0.136331
-0.135042
0.199959
-0.0649176
-0.539163
-0.0721638
0.611327
-0.0877971
0.0679782
0.0198189
0.16158
-0.0130032
-0.250286
0.694076
-0.44379
-0.0492934
0.301976
-0.252682
0.0846023
-0.133076
0.0484741
-0.224806
0.117281
0.791814
-0.407127
-0.384688
0.70076
-0.261817
-0.438943
0.752273
-0.337111
-0.415162
0.35602
0.435794
0.0510385
-0.0475198
-0.00351869
0.409688
0.0969666
-0.154158
0.0908337
0.0633244
0.115532
-0.070729
-0.0448035
-0.137199
-0.220743
0.357943
-0.00406276
-0.52755
0.531613
-0.0903472
0.0291846
0.0611626
0.127414
-0.0889439
-0.0384699
-0.194417
-0.125138
-0.239386
-0.101429
0.0632587
-0.0947135
0.0314547
0.0756015
-0.150344
0.074743
0.12697
-0.147458
-0.0559801
0.205137
-0.627041
0.496265
0.130776
0.0313046
0.0842279
-0.107508
-0.0402166
0.147725
-0.408641
-0.179251
0.587892
0.403746
-0.649985
0.24624
-0.474813
-0.0960178
0.570831
-0.0369572
0.16748
-0.0543988
0.10304
-0.0486411
0.601
-0.491752
-0.109248
0.041849
-0.24118
0.199331
0.461696
-0.667023
0.205327
-0.637183
0.274308
0.362874
0.0529398
-0.00190126
0.16663
0.167972
-0.334602
0.179441
0.0335701
0.608565
-0.172077
-0.436487
-0.0889667
-0.277578
0.366545
0.217289
-0.17544
-0.087304
0.115212
-0.0904613
0.098619
-0.00815774
-0.771422
0.357886
0.413536
-0.105612
0.0183083
-0.04822
-0.0421272
-0.33611
-0.151907
0.488017
0.0407819
-0.534241
0.493459
0.464263
-0.667678
0.203415
-0.441251
0.334857
0.106394
0.0390459
0.0883679
-0.00641059
0.0462834
-0.0398728
0.0677955
-0.256265
0.492911
-0.622313
0.129402
-0.415402
0.578915
-0.302462
-0.276453
0.0103552
0.0551566
-0.0655119
0.46327
0.13773
0.0890193
-0.3267
0.237681
-0.30456
0.167361
-0.0120475
0.680082
0.00609821
0.071305
-0.0774032
-0.135212
-0.383617
0.518829
0.0720334
-0.546846
0.492769
-0.0830813
0.670621
-0.207351
0.0869945
0.349754
-0.436749
-0.00727068
0.0529768
-0.0457062
0.0866743
0.0325477
-0.119222
-0.0501759
0.0437653
-0.467255
0.131146
0.0709904
-0.125389
-0.708855
0.506079
0.202775
-0.00430007
-0.045172
0.0494721
-0.594449
0.0375344
0.556914
-0.40462
0.445402
0.179931
0.307633
-0.487564
-0.594449
-0.374129
0.285162
0.0954658
-0.0215342
-0.0739316
-0.124781
0.555853
-0.431072
-0.0765741
0.0869293
0.0249261
0.100828
0.618204
-0.507393
-0.110811
0.118393
-0.147702
0.0293093
-0.00260205
-0.00164094
0.00424299
0.425616
-0.260577
-0.165039
-0.000428313
0.0766311
-0.0762028
0.228774
0.350141
-0.517608
0.654125
-0.136516
0.473654
-0.293722
0.00336719
0.0297204
-0.0330876
-0.49175
0.298594
0.193156
0.0411388
0.011801
-0.481265
-0.106811
0.588076
-0.329114
-0.262871
0.591986
0.0562781
0.0185064
-0.0747844
0.0506733
-0.00953454
0.0647433
-0.245687
0.180944
0.115301
-0.102591
-0.0127093
0.571354
-0.167609
-0.317521
-0.174229
-0.49084
0.172073
0.318766
0.073092
0.101048
-0.174141
-0.00985659
0.0762992
-0.0664426
-0.0119675
-0.115879
0.127846
-0.223085
0.168477
0.0546083
0.132667
-0.0249893
0.326503
0.42577
0.611704
0.00650034
0.0113782
0.125962
-0.13734
-0.0564925
-0.111977
0.194582
-0.0826047
0.323744
-0.234725
0.20855
-0.135458
0.577495
-0.115799
0.291331
0.101167
0.355506
0.137263
0.0036798
0.0380765
-0.0417562
0.0166938
0.321829
-0.338523
-0.275914
-0.353702
0.629616
-0.389242
0.405936
-0.335202
-0.274993
0.610195
0.239779
0.0873658
-0.327145
0.113571
0.00506928
-0.064824
0.0719249
-0.00710088
0.521648
-0.482357
-0.0392911
-0.163806
-0.0341071
0.197913
-0.25622
-0.333076
0.589297
-0.0873163
-0.12319
0.210506
-0.0230756
-0.127844
0.15092
0.0273027
0.00320894
-0.0305117
-0.0344792
-0.314098
0.348577
0.17097
-0.0312407
0.0970611
0.0182396
0.111047
0.0389123
0.0308461
-0.00634749
-0.0244986
0.436482
0.172083
-0.361813
0.327333
-0.0774434
-0.0209351
0.0983786
-0.0320033
0.000344816
0.0316584
0.137425
-0.0263785
-0.0745709
-0.148514
-0.125667
-0.0509992
0.176666
-0.0337326
0.0017293
0.0470819
-0.214632
0.16755
-0.0875241
-0.396416
0.48394
-0.51069
-0.198164
0.0527943
-0.0484041
-0.00439029
0.068414
-0.0112509
-0.057163
-0.490096
0.330107
0.159989
0.0320132
-0.0299233
-0.00208987
-0.0516537
0.044383
-0.0918068
0.00450928
0.0872975
-0.135726
0.235363
-0.0996369
0.385723
-0.0943913
-0.186864
-0.303232
0.0748819
-0.0839491
0.00906723
-0.0812659
-0.0680546
0.14932
0.0491233
-0.156632
0.0392164
-0.00204795
-0.0371685
0.326032
0.224682
-0.634431
0.132197
0.502233
0.0522133
0.34074
-0.392954
-0.226628
0.090902
-0.477488
0.497178
-0.0196899
-0.162624
0.121234
0.0938661
0.144406
-0.0260135
-0.00601604
0.0692748
-0.12868
-0.0961268
0.395917
-0.543911
0.147994
-0.0273748
0.0307419
-0.0447867
-0.0499267
-0.072729
0.0781984
-0.0054694
0.0823324
-0.00745047
0.598015
-0.205284
-0.39273
0.324846
-0.0850666
-0.258214
0.638308
-0.380094
-0.544595
0.0580039
0.486592
-0.621318
0.0821547
0.177808
-0.0337324
-0.144075
-0.216814
0.0881345
-0.0514563
0.437305
-0.385849
0.427511
-0.478968
0.199174
0.226442
0.151856
-0.474055
0.322199
-0.675612
0.471263
0.20435
-0.134342
0.113747
0.142685
0.0776261
-0.220311
0.50951
-0.183479
-0.750385
0.285651
0.464734
-0.639769
0.476699
0.163069
-0.0156919
0.102366
0.309467
0.122123
-0.43159
-0.506287
0.381505
-0.157433
-0.387163
-0.00256716
0.0709811
-0.0733937
-0.0807644
0.738247
-0.319038
-0.419209
0.387808
-0.505785
0.117977
0.551274
-0.533302
-0.0179716
0.00390162
-0.176437
0.429778
0.186549
-0.616327
0.154111
-0.635377
-0.0839429
0.330678
0.407569
0.038978
-0.0510524
0.0120744
0.00953231
0.0213138
0.412819
-0.309467
-0.103352
-0.486724
0.621553
-0.134829
-0.0578598
-0.366893
0.424753
-0.0332746
0.033497
-0.000222399
0.637216
-0.491822
-0.145394
0.00538319
-0.0781122
0.360976
0.148535
-0.230093
0.242805
-0.0127121
0.504594
0.0466798
-0.431059
0.138326
0.292733
-0.547497
0.672264
-0.124766
-0.130826
0.0237379
0.107088
0.571217
-0.513966
-0.0572514
0.0722737
-0.100918
0.481285
0.046258
-0.527543
0.0048059
0.173002
-0.241369
0.0569874
0.184382
0.609461
-0.551457
-0.147138
0.456605
-0.0886371
-0.00182415
0.0591602
0.550301
0.00467871
0.0345377
-0.0686555
0.235286
0.0628232
-0.0653595
0.00253635
0.185558
0.515202
0.0809869
0.0920404
-0.173027
0.115987
-0.04503
-0.0709574
0.512852
-0.125044
-0.303003
-0.336765
0.0217389
0.0976278
0.126227
0.286591
-0.117013
0.024529
0.0924843
0.108228
-0.0756805
0.578294
-0.442836
-0.135459
0.307748
-0.198134
-0.109613
0.131052
-0.220952
0.0898993
-0.00605731
0.0380705
0.0684095
-0.180387
0.00545702
0.0897181
0.114197
-0.0385958
-0.0914606
-0.000346184
-0.262065
-0.116081
-0.0164228
0.132504
0.117396
-0.129364
-0.169456
0.0344142
0.0919964
-0.3834
0.291404
-0.056147
-0.432257
0.488404
-0.0251875
0.434576
-0.409388
-0.144809
-0.453679
0.397532
0.413936
-0.241559
-0.172377
0.412118
0.11069
0.0143155
-0.125006
-0.207648
-0.168598
-0.0971551
0.265753
0.163149
-0.250806
0.0876571
0.614405
-0.555245
-0.265697
0.385766
-0.120069
-0.465499
0.377975
0.0478685
-0.00889049
-0.107648
-0.199517
0.307165
0.10679
0.0127444
-0.119535
0.632841
-0.128247
-0.130135
-0.00607796
0.136213
-0.138895
0.023016
-0.0833536
-0.0439452
0.0515212
0.562884
0.56897
-0.076059
0.261545
-0.175125
-0.0864198
-0.324787
0.146103
0.178684
-0.0306283
0.0363005
-0.00567215
0.100504
0.154463
0.0910991
-0.106791
-0.0520535
-0.180914
0.232968
-0.140611
-0.48643
0.317269
-0.0586442
-0.258625
0.117798
-0.0787525
-0.254186
0.0855875
0.191186
0.479435
-0.044848
-0.00680569
0.105808
-0.178056
0.0722482
-0.200517
-0.12427
-0.0727201
0.119276
-0.0713699
-0.00349998
0.0748699
-0.00904388
-0.154762
-0.538712
-0.0120619
0.550774
-0.0675528
0.00272885
-0.110665
0.00807398
0.248104
0.165832
-0.0681373
0.0633885
0.00474876
0.174636
-0.269788
0.0951523
-0.0322871
-0.000987502
0.12052
-0.110336
-0.0101839
0.146272
0.48657
-0.113021
0.287657
-0.395797
0.519717
-0.12392
-0.136994
0.624717
-0.0563992
-0.0595359
0.115935
0.335647
0.114825
-0.450472
0.137962
-0.0533593
-0.0998526
-0.376821
0.0487822
0.385793
0.320727
0.0232783
-0.344005
0.0420417
0.0042417
0.170648
-0.0648407
-0.3361
-0.0690725
0.405172
-0.614052
0.363766
-0.386613
0.120916
-0.05824
-0.00489037
0.0631304
-0.484426
-0.302248
0.0619905
-0.398091
0.58515
-0.533629
0.00129957
0.109492
0.23593
-0.345422
0.551443
-0.0871804
0.132028
0.129024
-0.261051
0.0477781
0.537372
0.0850186
0.515828
-0.600846
0.23949
-0.0360277
-0.203462
-0.056949
0.454159
-0.39721
-0.604403
0.46688
0.137523
-0.458016
0.401067
0.578339
-0.578339
-0.0174955
0.316089
0.101123
0.00566796
-0.130679
0.0579586
-0.00319243
0.177667
-0.174474
0.135201
0.149851
-0.0777099
-0.0781722
0.155882
0.417791
0.203237
-0.621028
-0.689474
0.523142
0.166332
-0.1992
0.281406
-0.082206
-0.30946
-0.121599
0.134842
-0.530639
0.0340566
0.0837418
0.2935
-0.425817
0.132317
0.0456282
-0.0499283
-0.67385
0.354812
0.204553
-0.0735003
-0.0846054
-0.0321338
0.116739
-0.416717
-0.032885
0.00225673
0.267846
-0.220751
-0.0470953
0.190836
0.13401
0.49354
-0.0122544
-0.07094
0.204291
-0.113973
-0.0903178
0.0453165
-0.0357842
-0.0216046
0.132321
-0.110717
0.104579
-0.405785
0.301207
-0.478955
0.362974
0.115981
0.417486
-0.27916
0.450626
-0.611927
0.161301
0.469842
-0.620818
0.150975
0.0551649
-0.254365
0.437862
-0.286006
-0.194801
0.265288
-0.0704871
0.554367
0.139709
-0.445055
0.135595
-0.0644045
0.0639761
-0.048214
0.0518938
0.0941564
0.00130943
0.523369
0.123579
-0.646948
-0.0874833
-0.0628612
-0.13314
0.250447
-0.390614
0.140167
0.6134
-0.565622
0.331881
-0.0341319
-0.297749
-0.269816
0.00418721
-0.235231
0.10994
0.12529
-0.380032
-0.10301
0.483041
-0.0629961
-0.0826171
0.145613
-0.310681
-0.326501
0.535437
-0.105659
-0.26955
0.0300032
-0.224804
-0.304999
-0.423368
0.0553178
-0.166916
0.111598
-0.242077
0.264731
0.120992
0.261835
-0.311128
-0.0844457
-0.138715
0.223161
-0.439475
0.310285
0.129189
0.0356551
0.577744
-0.337162
0.431362
-0.0942
0.049084
-0.224563
0.175479
0.432485
-0.0968383
-0.093371
0.175261
-0.0818897
0.590349
-0.343473
-0.246876
-0.0815386
-0.049287
-0.401549
-0.272301
0.405016
-0.0842886
-0.59961
0.570732
0.0288781
0.3686
-0.259108
0.546079
-0.550142
-0.167196
0.110796
0.00381315
-0.0705904
0.0667772
0.322466
0.267883
0.338265
0.151555
-0.48982
0.0482218
-0.00255744
0.634904
-0.489195
-0.145708
-0.420585
-0.213846
-0.337484
0.487551
-0.150067
-0.630636
0.630636
-0.09322
0.0930816
0.000138365
0.113207
-0.450691
0.0831619
0.258576
-0.341738
-0.186631
-0.0069713
0.165214
-0.158243
0.279451
0.0225249
0.00550131
-0.126413
0.138334
-0.0119205
-0.0714414
0.0635609
0.0078805
0.548185
-0.130394
0.444914
-0.151414
0.0798952
-0.157605
-0.601287
0.0737374
0.106398
-0.59822
-0.0932754
-0.178295
0.227379
0.135318
-0.0799999
-0.0770685
0.441249
-0.36418
0.262968
-0.456015
0.193047
-0.529716
0.00863465
0.0366818
-0.423105
0.127478
0.295627
0.0011177
-0.0725591
0.283481
-0.0926444
0.112639
-0.0881101
-0.576872
0.432986
0.143885
-0.0443135
-0.00563598
0.0499495
0.464027
-0.20106
0.0566958
0.00794635
0.134501
-0.543142
0.0630385
-0.0338539
0.395007
-0.467171
-0.0348902
0.105881
0.507907
0.0137408
0.219616
0.123782
-0.343398
0.0550536
0.00798489
0.0631199
-0.0521556
-0.0109643
0.0213445
0.366512
-0.443581
0.219785
-0.222977
-0.0889265
0.282135
-0.034752
-0.247383
0.212407
-0.165325
0.247089
0.0701803
-0.0547317
-0.122836
0.387567
-0.0887107
-0.389062
0.58135
-0.192288
0.100882
-0.122486
-0.53751
0.0199018
-0.467717
0.332505
0.0639279
-0.1421
0.378713
-0.295551
-0.0782209
-0.0457139
0.123935
-0.444412
-0.12308
0.567493
-0.565174
0.372103
0.193072
-0.0410927
0.0489897
-0.00789692
-0.419707
-0.296877
0.0725246
-0.233923
0.161398
-0.123171
0.134549
-0.621054
0.20085
0.420204
-0.255288
0.328713
-0.0734241
-0.319419
0.418401
-0.0989819
-0.0707472
0.469443
-0.398696
0.42723
-0.598432
0.171202
-0.487057
0.41631
0.156185
0.2613
0.0952894
-0.442612
0.347322
-0.017701
0.257191
0.237101
0.00312692
-0.240227
-0.167118
-0.290274
0.457392
0.343906
-0.12429
0.389451
-0.157545
-0.231906
-0.13402
-0.0861152
0.220135
-0.0694969
0.404354
-0.000881398
-0.0573586
0.333903
-0.461726
0.127822
-0.0758489
0.599218
-0.384142
0.265447
0.118695
-0.401552
-0.109495
0.511047
0.614286
-0.589913
-0.0243737
-0.537385
0.281165
0.0159032
-0.0933467
0.23617
-0.160704
-0.0754668
0.0243121
0.0916753
-0.611896
0.0731834
-0.348325
0.443615
0.556086
-0.128856
-0.053298
-0.188071
0.314308
-0.228264
-0.0860444
0.0412572
-0.461825
0.420568
-0.0810368
0.0711802
0.361195
-0.215092
-0.600336
0.474707
0.12563
-0.00431229
0.0340327
0.240258
-0.569372
-0.416758
0.277029
-0.388588
0.111559
-0.10407
-0.0260651
-0.126058
0.459961
-0.221729
0.137283
-0.159394
0.0963984
0.0679555
-0.00513234
0.10923
-0.21642
0.10719
-0.0063624
-0.00603414
0.164071
-0.158037
0.0949451
0.192248
-0.287193
-0.198899
0.0415977
0.157301
0.175445
0.339213
0.111633
0.0926579
-0.173163
-0.39337
0.500694
-0.162429
0.0711909
0.0051083
-0.00321795
-0.0489936
0.0522116
0.0963598
-0.0693697
-0.02699
0.0769015
0.0113066
0.0518134
0.550787
-0.32506
-0.225727
-0.00262054
0.0322772
-0.0365895
-0.125391
0.260592
-0.0063532
-0.0590063
-0.171146
-0.0277524
0.190302
-0.30593
0.115628
0.0123332
0.441826
0.585113
-0.134487
0.439863
0.132735
-0.572598
0.0150288
-0.115521
0.100492
-0.0500036
0.265582
-0.215578
0.0260684
-0.099462
0.670236
-0.507745
-0.162491
-0.409062
0.131441
0.277621
-0.191945
0.0333791
0.181093
0.0867533
-0.324775
-0.261409
0.586183
-0.16381
-0.053347
0.217157
0.279565
0.0604208
-0.339986
0.245656
0.305131
0.537223
0.0186298
0.0461946
-0.062653
0.0164584
0.193547
-0.518322
-0.0598024
0.296903
0.162782
-0.496077
0.333296
-0.441345
0.133758
0.227437
0.356166
-0.0836464
-0.272519
0.129142
0.0923834
-0.221525
-0.0194178
-0.00598823
0.0254061
0.0855007
-0.104163
0.0186623
0.0405285
0.00423475
-0.0447633
-0.0708583
-0.0345409
0.105399
0.413844
0.142243
0.361633
-0.0846035
0.324533
0.0709742
-0.395507
0.221718
-0.271722
-0.543857
0.142305
0.281581
0.074585
0.209078
0.445047
-0.130494
-0.393759
0.300552
0.062113
-0.0526604
-0.00945255
-0.00418796
-0.0228681
0.027056
-0.025621
-0.00811153
-0.638507
0.479853
0.158654
-0.274838
0.0142612
-0.0876721
0.45525
0.142751
-0.598001
-0.152443
0.129368
0.574919
-0.161075
-0.146946
-0.038465
0.18541
0.153501
0.0826691
0.0979877
-0.13875
0.0407625
-0.632726
0.174135
0.458591
0.121539
-0.613291
-0.415812
-0.216915
0.0394522
0.0591668
0.240015
0.0118949
-0.25191
0.167473
0.0438355
-0.211308
0.463622
0.0522329
-0.515855
0.297214
-0.106912
0.117794
-0.0917259
-0.152245
0.592108
0.0465736
-0.124795
-0.201782
-0.237693
0.617804
0.0585897
0.00844478
-0.0670345
0.0515879
0.0454876
-0.0970755
-0.00545641
0.0510846
-0.105748
-0.500036
0.116419
0.0959379
-0.660027
0.174194
0.485833
-0.0450263
0.18403
-0.139004
-0.0640944
0.227243
-0.131783
0.299754
-0.281584
0.234005
-0.333234
0.0992288
0.242138
0.0721694
-0.591447
0.551585
0.0398625
0.150043
-0.484856
0.334813
-0.0742414
0.00287157
0.0278598
0.441584
0.390431
0.207584
-0.149751
0.521895
-0.372144
-0.0747774
0.24225
0.00318229
-0.00374302
-0.199902
-0.1347
0.0760221
0.00631029
0.451193
-0.63565
0.184456
0.103603
0.0963568
0.476599
-0.616936
0.140337
-0.511004
0.361254
0.618638
-0.167445
0.0097012
0.0710081
-0.211656
0.108695
0.102961
-0.0750418
0.315057
-0.406235
-0.311274
0.0110456
0.408619
-0.419664
-0.0261318
0.136822
0.0608593
-0.22467
-0.0313648
0.275064
-0.243699
-0.00731805
0.13831
0.169438
-0.582243
0.247041
0.530759
-0.0113568
-0.115056
-0.403823
-0.281065
0.2497
-0.0157031
0.0618977
-0.0451734
0.0967613
-0.433966
-0.00283058
-0.215567
0.259993
-0.0444263
-0.0112747
-0.0980736
0.17906
-0.12256
0.357779
-0.235219
-0.0655717
0.0693848
0.0326619
-0.00326651
-0.0293954
-0.0842209
0.0626867
0.286937
-0.603819
0.316882
0.498159
0.000839754
0.00119101
-0.00203076
0.300939
-0.109009
-0.19193
0.0824454
-0.116986
0.339023
-0.24601
-0.0930134
-0.225248
0.0940019
0.131246
0.373668
-0.196411
-0.177257
0.495794
-0.188139
-0.307655
-0.380597
0.28238
0.0982171
0.246108
-0.199028
-0.0470803
0.321739
-0.0877339
0.00480084
0.0838082
-0.088609
0.380002
-0.638768
0.460028
0.178739
-0.297815
0.639563
-0.341747
-0.00852127
0.0845434
-0.068863
-0.166368
0.182021
-0.234074
-0.347978
-0.274335
-0.312182
-0.354841
0.190037
0.00599904
-0.623718
-0.104647
-0.0708332
0.17548
-0.0202945
0.118282
0.162593
-0.460408
0.105833
-0.0203322
0.5758
-0.538266
-0.155646
0.0286363
-0.15648
0.196893
0.438011
0.422123
-0.176669
-0.245454
-0.256684
-0.381823
0.096341
-0.0877376
-0.00860343
0.17572
-0.621572
0.445852
0.210625
-0.200242
-0.0103832
0.285197
-0.190252
0.1782
0.0833443
-0.170727
0.214562
0.195931
-0.410997
0.215065
0.0612316
-0.134675
-0.116131
0.0711554
-0.0131257
-0.0580298
-0.156211
0.254131
-0.0979193
0.480941
0.00151301
0.0575145
0.0332881
-0.0346532
0.00136507
-0.156277
-0.239203
0.39548
-0.463134
0.129453
-0.560163
0.43071
-0.0314223
0.0272343
-0.110326
0.124641
0.271292
-0.11779
0.18475
0.289492
-0.474242
-0.229886
0.192466
0.0886868
-0.281153
0.0180987
-0.165044
0.0302747
0.00238722
-0.600088
0.493277
-0.339364
0.216804
0.00677577
0.0653884
-0.528761
0.432743
-0.158098
0.24482
-0.0867213
-0.079612
-0.3063
0.10026
0.20604
0.457342
-0.272592
0.30455
-0.471667
-0.00294386
0.0473227
-0.0443789
0.359819
0.15901
0.0863412
-0.121473
0.0118373
0.109636
0.361473
0.139221
-0.530373
0.615391
0.101343
-0.158805
-0.385107
-0.745921
0.292749
0.453172
-0.0852151
0.195814
-0.110599
0.0184179
-0.101771
-0.100023
-0.609719
0.186864
0.422855
0.356238
-0.304024
-0.0880139
-0.137234
0.204347
-0.311995
-0.000711921
0.034
0.0460536
0.532286
-0.314014
-0.429177
-0.195344
0.624521
-0.0496309
0.443073
-0.585848
0.142775
-0.0640545
-0.438409
-0.307512
0.0670225
-0.0609243
-0.00884257
-0.10513
-0.635023
0.190051
0.444972
-0.170272
0.0769006
-0.00382341
0.0751284
0.343873
-0.274948
-0.0689253
0.0872931
-0.00665591
0.0157938
-0.00913789
-0.0760719
-0.00859911
0.084671
0.11085
-0.0958216
0.111764
0.00875627
0.0242438
0.0120566
-0.132385
0.224768
0.0920229
0.101176
0.0740846
-0.00293222
-0.0164856
0.47732
-0.158008
-0.319313
-0.012004
0.0500804
0.204319
0.0417891
-0.0933674
0.285833
0.287008
-0.109341
-0.104577
0.100974
-0.392014
0.29104
0.125177
-0.011726
-0.113451
-0.0136729
0.211089
-0.197416
0.591053
-0.135803
0.275648
0.113804
-0.131225
0.194745
-0.0635195
-0.149602
0.0815473
-0.12761
0.0430044
0.139065
-0.508622
0.369557
0.36854
-0.654453
0.285913
-0.415238
0.569789
-0.154551
0.289858
0.132265
0.0813741
-0.461406
0.240628
0.131819
-0.137854
-0.415023
0.0457679
0.194919
-0.240686
0.130405
-0.139248
-0.406809
0.598274
-0.191465
0.0448156
-0.260383
-0.0582129
-0.421624
0.545336
-0.123712
-0.215727
-0.383883
0.294902
-0.162875
0.00382414
0.00090554
-0.00472968
0.606925
-0.132219
-0.0371425
-0.0376419
0.361703
-0.566987
-0.37967
0.287108
0.092562
-0.572661
0.0595891
0.513072
0.457207
-0.0973875
0.0749994
-0.0784994
0.127272
-0.00987555
-0.200075
0.11486
0.19565
-0.320865
0.125215
-0.12701
0.522037
-0.395027
0.268999
-0.265927
-0.583876
0.177067
0.167258
0.11975
-0.254978
-0.378963
0.00254627
-0.0552162
0.518838
0.242392
0.101481
0.236661
0.137007
0.227782
-0.241454
-0.602387
0.462045
0.140342
-0.0661607
0.0978776
-0.0317169
-0.169407
-0.119209
-0.359746
0.506721
-0.331276
0.127401
0.00736527
0.370218
-0.104771
-0.560541
0.282008
-0.112031
0.362477
-0.164017
0.0766762
0.0873412
0.145935
-0.181962
-0.0114567
0.0784793
0.237735
-0.279695
0.0419604
-0.511416
0.208413
-0.471644
0.314636
0.157008
-0.000409955
-0.00244674
0.0028567
0.296598
-0.110554
-0.186043
0.099703
0.0910503
-0.190753
-0.0272648
-0.0882557
0.0526655
-0.0655541
0.0128886
-0.0113647
-0.0496933
0.061058
-0.110706
-0.0173494
0.128056
0.145234
0.332087
0.0831671
-0.181241
0.046205
-0.00567652
0.156608
-0.0306461
-0.108514
-0.107371
-0.0316147
0.00599371
0.30345
0.0266573
-0.0182944
-0.184572
0.0966956
0.0988339
-0.28756
0.188726
0.206979
-0.0620722
-0.144907
0.589757
-0.228413
-0.361344
0.227115
-0.360253
-0.0748751
0.289991
-0.399591
0.1096
0.278205
0.0845584
-0.362763
0.419748
-0.12989
0.0331893
-0.0444402
0.442674
0.105511
0.473121
-0.0310596
-0.442062
0.00467615
0.0234708
0.00496264
-0.0284335
0.181403
0.437235
-0.254479
0.402778
-0.148299
0.521745
-0.0334573
-0.488288
0.22489
-0.298224
0.0733344
-0.0078864
0.0501302
-0.0422438
-0.0769365
-0.156986
-0.167094
0.0232044
0.219802
-0.243007
-0.47285
-0.162173
-0.615297
0.226235
0.191421
-0.188294
-0.25224
0.0713256
0.22724
-0.0704213
-0.584056
0.440276
0.14378
0.474927
-0.0336778
0.0457293
-0.301018
0.0720147
0.227832
-0.299847
0.137751
-0.555754
0.418003
-0.076065
-0.00786531
0.0839303
0.368795
-0.244069
-0.124727
0.304644
-0.108994
-0.141466
-0.315726
0.457192
0.0130388
0.0833022
-0.157042
0.217901
0.605437
-0.171532
-0.433905
-0.45993
0.130207
0.170732
0.205309
-0.463522
0.115956
-0.32857
0.212614
0.0682285
-0.175106
0.106877
0.10012
0.373002
-0.0831742
0.00710223
-0.531325
0.109702
-0.121839
0.598437
-0.432085
0.569836
0.635498
-0.119671
0.399661
-0.509156
0.122215
-0.0972884
0.132153
-0.00657924
-0.125574
0.0344055
-0.031874
-0.00253144
-0.223554
0.091169
-0.144103
0.161917
-0.0820221
-0.464394
0.285142
-0.269393
0.0813975
0.187995
-0.0847303
0.165818
-0.0810879
-0.171619
-0.13468
-0.0809745
0.0359445
-0.117373
-0.0271675
0.144541
-0.16189
0.448827
-0.0942298
0.356065
0.115734
0.439255
-0.554989
-0.0972632
0.0822237
0.0150395
0.208718
-0.364995
-0.431521
-0.0596767
0.119286
0.39289
-0.512175
0.0021184
0.123225
-0.550597
0.427372
-0.437089
0.0402492
0.590387
0.627326
-0.225286
-0.40204
0.0441928
-0.0498288
0.105128
-0.266819
-0.266483
0.0459491
-0.11211
0.0998711
-0.52114
0.421269
0.189743
0.437583
-0.398587
-0.116511
0.515098
-0.43253
-0.528614
0.368317
0.160297
-0.0154821
-0.155245
0.0739445
-0.393364
0.128981
0.239815
-0.00894468
0.0493
0.0470598
-0.283662
0.175105
-0.0219113
-0.50685
0.493791
-0.343748
-0.212633
-0.0765767
0.28921
-0.258556
0.401329
-0.142774
-0.000788607
0.125487
-0.124698
0.173753
-0.21877
0.289025
-0.0702552
0.11666
0.0779224
-0.371736
0.114819
0.256918
0.388923
-0.514856
0.125933
-0.572552
0.208849
0.363703
0.513921
-0.124998
0.617471
-0.464679
-0.152792
-0.292785
-0.131813
0.0996796
-0.0339726
0.0010876
0.402731
0.220473
-0.48229
0.608774
-0.0163981
-0.592376
-0.590387
0.286767
0.107749
-0.394516
0.574508
-0.421571
-0.152938
-0.199476
0.0745813
-0.0325065
-0.0420748
-0.127259
0.10652
0.0207392
-0.392212
-0.172963
0.0250814
0.546136
0.444348
-0.000218283
-0.0884189
0.0948429
-0.0182639
-0.0765791
0.0125123
0.112665
-0.205726
-0.390183
0.509469
0.18986
-0.321643
0.138117
0.436392
-0.272448
0.295948
-0.0235002
0.00385874
0.448189
0.160584
0.153765
0.0532134
-0.118151
0.112073
0.00858361
0.110762
-0.119346
-0.0442187
-0.00595723
0.221925
0.0602101
0.244788
-0.262489
0.562203
-0.515729
-0.0464744
0.147852
-0.154823
-0.219824
-0.127741
0.347565
0.11253
-0.202848
0.00710534
-0.231655
-0.340897
0.0822033
0.0207708
-0.102974
-0.282958
0.182883
-0.458797
-0.0808822
-0.0163809
0.0496527
0.0249286
-0.44542
0.590013
-0.144593
-0.093261
0.197998
-0.104737
-0.0932223
0.456097
-0.0909928
-0.0730246
0.589463
-0.454962
0.15078
-0.176534
0.0257542
-0.462612
-0.154323
0.237645
-0.0868653
0.130692
-0.39326
0.262568
0.134415
-0.00995446
0.0685441
-0.120485
-0.0442683
0.164753
-0.367277
-0.120206
0.487483
0.578166
-0.101467
-0.24328
0.315295
0.0478569
-0.0392222
0.205437
-0.0967414
-0.199165
0.1547
0.0444645
-0.0132363
-0.0992678
0.081004
0.0219611
-0.00084584
-0.119639
-0.0723591
-0.0116375
0.0839966
-0.57979
0.152231
0.427559
-0.349156
-0.109556
0.458713
-0.0428051
-0.334355
-0.216366
-0.0559773
0.272344
0.320303
-0.419201
0.552851
-0.133651
0.499507
-0.0568322
-0.221382
0.244586
-0.00180208
0.0345439
-0.0327419
0.0528179
-0.0147214
-0.0380964
-0.0772764
-0.0557999
0.0909833
0.230756
0.127281
0.413774
-0.541055
0.0118526
0.225793
-0.104887
-0.120906
0.0850494
-0.223765
-0.222827
0.305878
0.11387
-0.218994
0.161372
0.0576223
0.0658553
-0.174349
0.108494
0.0126978
-0.117428
0.10473
-0.276103
-0.0322946
0.308398
-0.119116
0.0616479
0.00950754
0.134211
-0.135057
0.0482409
-0.280002
0.231761
-0.0426173
0.287405
-0.180391
-0.210223
0.384383
-0.289002
-0.0953812
0.179871
-0.122884
-0.101466
0.160389
0.477919
-0.209046
0.0888618
0.120185
-0.168379
0.0773857
0.233198
0.109407
-0.428316
-0.448756
0.595623
-0.146867
0.095758
0.0531689
-0.0489341
0.255022
-0.063601
-0.310881
0.424945
-0.114064
-0.00903837
-0.547861
0.556899
-0.123286
-0.257311
-0.496364
-0.028313
0.524677
0.00657816
0.115636
-0.0157553
-0.0756104
-0.197707
0.273317
0.330837
-0.0884451
0.412267
-0.157278
-0.254989
-0.067497
-0.409862
-0.0790914
0.0838922
-0.11054
0.239564
0.198061
-0.0968852
-0.12248
0.198636
0.0861689
-0.0720591
-0.0141098
0.0864392
0.186881
-0.0832787
-0.122353
0.231583
-0.257524
-0.114212
0.131287
-0.0269732
-0.100286
0.454651
0.161226
-0.615877
0.0335764
-0.493657
0.460081
0.483747
-0.122273
0.552952
-0.565014
-0.579992
0.11136
-0.116241
0.583121
-0.053531
0.050313
0.47197
-0.616129
0.144159
0.121477
0.435113
-0.55659
-0.00989872
0.0625642
-0.127841
-0.435332
0.563173
0.134004
0.278263
0.047586
-0.0530424
0.00322858
-0.203745
-0.409153
0.610003
-0.440178
0.29304
0.0610824
0.144593
0.372112
-0.516705
0.628584
-0.0679419
0.0770092
-0.439353
0.560829
-0.112345
0.411131
0.108587
0.00277234
0.18584
-0.102673
0.227981
-0.0916851
-0.136296
0.41363
0.151297
-0.564927
0.17686
-0.0116462
-0.471689
0.614536
-0.142847
0.509223
-0.393489
0.0351113
-0.0333372
-0.00177407
0.572958
-0.159328
0.155936
0.519202
-0.108072
-0.169682
0.436451
-0.266769
0.0747361
0.23369
-0.308426
0.285071
-0.520357
0.235286
-0.524429
0.221454
0.302975
0.121626
-0.566038
-0.0190851
0.375323
0.503712
-0.220415
-0.283297
-0.0470615
0.0548288
-0.00776724
-0.652707
0.263516
0.389191
0.596684
-0.421368
-0.175315
-0.444145
-0.109581
0.553727
-0.305985
0.225737
0.0802484
0.12728
-0.0207603
0.432869
0.0761868
-0.509056
0.064211
0.353217
-0.208724
0.56444
-0.355717
0.0021334
-0.168844
0.238986
-0.070142
0.425935
-0.553776
-0.221216
0.373927
-0.476112
0.102185
0.0379459
-0.0371186
-0.000827348
-0.155564
-0.110244
-0.106176
0.0268835
0.131424
-0.158308
0.0239664
-0.14134
0.526404
-0.426533
-0.389436
0.511767
-0.122331
0.44746
0.149224
-0.385552
0.289646
0.0959053
-0.345918
-0.0904565
0.436375
-0.221136
-0.119861
-0.461763
0.581625
0.0861636
-0.130432
-0.512582
0.113995
-0.158093
-0.0609006
0.136616
-0.137627
-0.305744
0.44337
-0.157828
0.481893
-0.324065
-0.250671
0.382112
0.295116
-0.576389
0.230041
0.346348
-0.519593
0.392583
0.0517996
-0.0076068
-0.352204
0.252736
0.0994682
-0.0102418
-0.0986853
0.108927
0.62954
0.0464555
-0.528341
0.519302
0.0747648
-0.0785882
-0.589955
0.470094
0.0819113
-0.42783
0.404958
-0.11785
0.0591547
-0.0352848
-0.0238699
0.487113
-0.0122182
0.07908
-0.0668618
-0.574878
0.343223
-0.328569
-0.248306
0.0639824
0.184324
-0.135831
0.561766
-0.424493
0.286866
-0.178176
0.562861
-0.384685
-0.0108711
0.113364
-0.102493
0.487133
0.34482
-0.453639
0.108819
-0.245352
0.320476
-0.0751238
-0.278572
-0.0780397
0.239411
0.0820729
-0.0423016
0.0363134
-0.085674
-0.0670373
0.0556726
-0.0810952
0.0699148
0.208775
-0.27869
-0.0207716
-0.0341723
0.0549439
0.364903
0.124485
-0.468525
0.613906
-0.145381
-0.119886
-0.399047
0.518933
-0.43148
-0.0907391
0.522219
-0.178795
0.0954804
-0.142388
0.0790977
-0.183037
0.239274
-0.0562367
-0.353453
-0.15913
-0.605436
0.0956292
0.201585
-0.214903
0.288663
-0.0737608
-0.344634
-0.294134
-0.291825
-0.360882
-0.435995
0.572513
-0.136518
0.430068
0.14289
-0.188724
0.0569065
0.131818
0.152056
-0.505509
-0.00427652
0.0653589
0.424102
-0.559933
0.184295
-0.259906
0.427045
0.190426
0.135022
-0.390887
0.255866
-0.0799861
0.179689
-0.134414
0.509754
-0.375341
0.124391
-0.24077
0.286499
0.562663
-0.421979
-0.140684
0.292109
-0.0762995
0.254539
-0.0168037
0.0660736
0.247043
-0.313117
0.368342
-0.0971602
0.324276
0.0888081
-0.0963493
0.00754114
0.0120932
-0.584874
0.417417
0.167457
-0.0124857
-0.0942766
0.106762
0.185168
-0.119313
-0.235954
0.0671103
-0.188096
-0.216856
0.269958
-0.0531017
0.28976
0.109234
-0.398994
0.0140898
0.104583
-0.118673
-0.135324
-0.426697
0.562021
0.00880861
0.0805821
-0.0893907
0.0753389
-0.0832042
-0.26588
0.0856858
0.180194
-0.480443
0.313348
-0.133486
0.438958
0.123705
-0.50576
0.371346
-0.128798
0.117072
-0.0721849
0.128867
-0.548068
-0.720763
0.270059
0.450704
0.407769
-0.366739
0.590745
-0.160677
0.0729275
0.0849088
-0.157836
-0.0176892
-0.108669
0.126358
-0.224371
0.0681596
0.0987211
-0.459889
0.361168
-0.421143
-0.00649236
-0.0508503
0.0573427
0.259201
-0.371231
0.00634795
0.0744909
-0.0808389
0.0801684
-0.00516901
0.0835734