/*--------------------------------*- C++ -*----------------------------------*\
| =========                 |                                                 |
| \\      /  F ield         | OpenFOAM: The Open Source CFD Toolbox           |
|  \\    /   O peration     | Version:  v2012                                 |
|   \\  /    A nd           | Website:  www.openfoam.com                      |
|    \\/     M anipulation  |                                                 |
\*---------------------------------------------------------------------------*/
FoamFile
{
    version     2.0;
    format      ascii;
    class       volVectorField;
    location    "250";
    object      ddtCorrDdt0(U);
}
// * * * * * * * * * * * * * * * * * * * * * * * * * * * * * * * * * * * * * //

dimensions      [0 1 -2 0 0 0 0];


internalField   nonuniform List<vector> 
13917
(
(-0.00395589 -0.0029673 0)
(-0.000548706 -0.0107533 1.78533e-21)
(0.00330178 0.00100366 -3.53456e-22)
(-8.34625e-05 6.84983e-05 5.4599e-22)
(-0.00132119 -0.00494853 -1.19144e-22)
(0.00127802 -0.00989583 0)
(-0.000355397 6.48717e-05 7.60831e-22)
(-0.0486524 -0.0124018 0)
(-0.000122804 0.000265709 -8.16856e-22)
(-0.00326673 0.00836519 -6.58551e-23)
(-0.0350644 -0.0155687 -1.08583e-20)
(-8.23005e-05 6.4899e-05 0)
(-1.96445e-05 9.35968e-07 0)
(0.00764601 0.140626 -1.1488e-20)
(0.00243621 -0.000614456 0)
(-0.0042222 -0.00191257 0)
(-7.03619e-06 -1.43247e-06 1.40039e-21)
(-0.0283729 -0.0039919 -5.25503e-21)
(0.00131255 0.00390096 0)
(-0.0163805 -0.0165391 0)
(-0.000274186 0.00299228 0)
(-9.69502e-05 -5.66175e-05 0)
(-0.00123386 0.000985194 5.49832e-23)
(-9.13974e-05 -7.4297e-05 0)
(-7.42429e-05 9.81721e-05 0)
(-0.0017242 0.00393886 0)
(0.0282464 -0.0418815 0)
(-0.00263934 0.00566781 0)
(-0.0107258 0.00518413 5.31583e-21)
(-4.6201e-05 -1.76514e-05 0)
(-0.00429117 0.00563358 -8.42368e-21)
(0.000111221 0.00145884 0)
(-8.82817e-05 9.41914e-05 5.89678e-22)
(0.000372335 -0.00277839 0)
(2.21453e-05 9.67262e-05 -3.17915e-22)
(-0.0663643 -0.0287599 0)
(-0.000430923 -2.16495e-05 1.15503e-22)
(-3.93027e-05 -1.23786e-06 1.29792e-21)
(-0.000363396 8.64205e-05 0)
(0.00309986 -0.000197102 9.00506e-22)
(-5.02764e-06 3.19321e-07 0)
(-0.000358709 -8.43906e-05 2.3128e-23)
(-9.39326e-05 0.00019174 1.40928e-21)
(0.00126218 0.00228569 0)
(0.00120619 0.00244903 -9.79253e-22)
(-0.0277931 0.0166076 0)
(-0.000241393 0.00245087 0)
(0.0145925 -0.117556 2.14783e-21)
(-0.07129 -0.18032 0)
(4.45264e-05 7.06298e-05 3.64804e-22)
(-8.26182e-05 6.21101e-05 -3.61831e-22)
(-0.0121231 0.00713656 -1.91202e-21)
(0.00208328 -0.000117219 0)
(-6.96216e-05 -5.43272e-05 0)
(-8.55183e-05 -5.66329e-05 -6.09832e-22)
(-0.0106313 0.00766844 5.19128e-21)
(-0.00331799 -0.00260294 7.25634e-21)
(-0.00131043 0.00090106 2.69057e-24)
(-0.000274038 -0.000139482 -1.16826e-21)
(-0.0316024 0.0141221 1.29172e-21)
(0.0769944 0.104937 1.67186e-20)
(-5.47076e-05 0.00602936 0)
(7.6579e-07 -5.29736e-07 0)
(-7.98386e-05 9.99215e-05 0)
(0.00839151 -0.00446774 -5.69469e-22)
(-0.00414793 0.00662172 8.57775e-21)
(-0.0150818 0.00406346 0)
(-0.0504589 -0.0374839 0)
(-0.0337379 -0.00424757 7.68845e-21)
(0.00103924 -0.000608478 3.00216e-23)
(0.0071678 -0.0016571 2.80613e-21)
(4.80389e-05 -0.00257775 0)
(-4.30778e-05 3.5357e-05 3.16283e-22)
(-0.000209348 -8.0778e-05 1.8116e-21)
(0.000223204 0.00329345 0)
(-7.34931e-05 0.000167224 0)
(-0.000952223 -0.000964529 5.71133e-22)
(-0.00014629 -0.000104288 -1.16188e-21)
(-8.33709e-05 0.000157132 0)
(-9.06862e-05 9.54273e-05 4.69259e-22)
(3.04852e-05 -1.5363e-05 0)
(-1.32518e-05 -8.93492e-07 0)
(-4.07011e-05 3.43207e-05 0)
(0.00372338 -0.00128782 2.51868e-22)
(-3.73942e-05 -9.10725e-07 8.33721e-26)
(-0.0282156 0.051305 5.72291e-21)
(4.76347e-05 0.00145897 0)
(-3.46179e-05 3.01119e-08 -7.4499e-23)
(0.00294352 0.000229516 -3.79478e-22)
(-5.83954e-06 -1.36361e-06 -1.62403e-21)
(-4.53732e-06 9.71109e-07 7.76431e-22)
(-9.27646e-05 0.000201647 -1.71081e-21)
(-0.0632334 -0.167938 -7.67022e-21)
(-5.59438e-05 2.88329e-05 1.70223e-22)
(-9.95882e-05 -0.000119069 0)
(-0.0129355 0.00669653 -6.65771e-21)
(0.0490464 0.00405191 7.17008e-21)
(-2.04191e-05 -1.62559e-06 0)
(-3.47821e-05 -4.86926e-07 3.56574e-22)
(0.0360029 -0.002017 0)
(-6.01379e-07 -1.99347e-07 1.06175e-21)
(-4.3416e-07 -2.44139e-08 0)
(3.35114e-05 -3.99795e-05 4.38344e-22)
(-2.25511e-05 2.11276e-07 -7.21225e-22)
(-0.000723271 -0.00104602 -2.59232e-23)
(0.0023067 -0.0003733 0)
(0.0122743 -0.0362706 0)
(-0.00183808 0.0061568 0)
(-0.000486696 -0.000165597 -5.9885e-22)
(0.0286067 -0.0464301 1.11359e-21)
(-1.42649e-05 5.42748e-06 -1.0441e-22)
(0.000299362 -0.00339069 7.71336e-22)
(-0.00868725 0.00693844 -2.77643e-22)
(0.00663949 -0.148442 -1.50751e-21)
(0.00784975 -0.00385838 2.5931e-22)
(-8.25443e-05 0.000228532 1.89752e-23)
(0.00100277 0.00374502 2.21418e-21)
(-3.46055e-06 -3.06562e-06 7.55452e-22)
(0.00317753 0.00192685 -7.41013e-22)
(-2.59248e-05 4.09872e-05 -8.65435e-22)
(-1.33834e-05 -9.48589e-07 -2.94607e-22)
(-8.51272e-05 7.69753e-08 5.72796e-22)
(-0.0180918 0.00540404 -1.25008e-20)
(-0.00247996 0.00527373 2.12878e-21)
(0.00268565 -0.000194048 -7.70824e-23)
(0.00368162 -0.00145788 -3.83044e-22)
(-8.57733e-05 9.53016e-05 -5.85814e-22)
(0.000351287 0.00396759 2.73315e-21)
(-4.61041e-05 -2.83287e-05 -2.37879e-22)
(-0.00199584 0.00546835 0)
(-0.000310556 0.000515197 1.79361e-23)
(-0.0220678 -0.0422845 0)
(0.00276119 -0.000507439 0)
(-0.00011165 0.000233493 -1.43674e-22)
(0.000393155 0.00168919 -1.57655e-21)
(0.0326035 -0.0386772 1.36806e-20)
(0.0602622 0.128059 0)
(0.00328928 -7.51332e-05 -3.24526e-24)
(-0.00298863 0.00476954 4.72796e-22)
(-2.70957e-05 -7.03715e-07 -6.12484e-22)
(-0.0307806 0.0891016 -2.33889e-20)
(-0.000102899 -6.20627e-05 5.83688e-22)
(0.00225042 -0.000348062 -1.96362e-22)
(-4.90792e-05 -2.67086e-05 -1.25981e-24)
(-4.06237e-05 3.27365e-05 0)
(-0.00113779 -0.00182537 1.2275e-21)
(0.00669365 -0.001548 -8.82707e-22)
(-0.0250213 0.0565429 2.32768e-21)
(-0.0194635 -0.119909 0)
(-7.46669e-05 -5.85278e-05 1.38884e-22)
(0.00220101 0.000537543 0)
(-2.82405e-06 1.04482e-06 -1.12826e-23)
(-3.82202e-05 3.06476e-05 0)
(-2.38054e-05 4.60967e-05 -1.12005e-24)
(0.048131 -0.000700547 3.15936e-21)
(0.000149125 -0.000259094 2.21425e-23)
(-2.28781e-05 -2.87425e-07 1.00911e-21)
(0.00283181 -0.000385683 9.60037e-22)
(-2.07041e-06 -1.1966e-07 -4.2372e-23)
(-2.98328e-06 -2.37435e-06 0)
(-4.39087e-05 1.33571e-05 0)
(0.0344113 0.00234219 -6.02838e-21)
(-0.000940433 -0.000701947 -3.45313e-23)
(-0.0258455 0.0697373 9.06591e-21)
(0.0670292 0.042887 2.21205e-20)
(0.0468292 -0.00265884 -2.92307e-21)
(0.00131009 -0.000105758 0)
(0.0949796 0.0619037 -2.83839e-20)
(2.65395e-06 4.11033e-06 0)
(-0.00348914 0.00579636 6.18224e-22)
(-0.000106885 -0.000110494 6.16642e-22)
(0.00267837 -0.000883276 7.42041e-22)
(-0.000108761 0.000266573 7.06472e-22)
(0.0282286 0.104283 -4.79527e-20)
(-0.00700387 -0.00318693 0)
(-5.56318e-06 -1.02054e-06 -6.51877e-22)
(-8.28529e-05 6.58414e-05 0)
(-0.0152961 0.00844865 -7.18409e-21)
(-0.000296904 0.000490139 2.20406e-21)
(-0.00115127 -0.000783754 2.0872e-23)
(-0.000108046 0.000169347 -5.0398e-22)
(-8.73986e-05 -0.000106798 0)
(-8.56081e-05 5.51361e-05 2.13631e-22)
(-0.00363161 0.0177089 3.16912e-21)
(0.00348691 0.00205991 0)
(-0.023074 -0.0468231 0)
(-8.42331e-05 4.87917e-05 0)
(-0.00522351 0.0188397 2.19931e-21)
(-4.67911e-05 -1.48046e-05 4.58212e-22)
(-0.0261481 0.0432213 5.63484e-21)
(-0.00703578 -0.00417269 6.87418e-22)
(0.000965253 0.00243989 9.88002e-22)
(-0.0033462 0.0118416 3.9985e-21)
(-0.00643475 -0.00484968 -4.32781e-21)
(-4.92364e-05 4.25669e-05 -1.09014e-21)
(0.00252331 -0.000243183 -4.16236e-22)
(1.58747e-05 -7.44748e-05 -2.97135e-22)
(0.00272528 -0.000509761 -8.72331e-22)
(1.98066e-06 8.92175e-05 1.44711e-22)
(8.87326e-05 -0.000213229 -8.15428e-22)
(-0.00018131 0.00165561 -1.08445e-21)
(0.000565891 -0.000768147 0)
(0.00322421 -6.40665e-05 -8.10255e-22)
(-0.000321203 -0.000262901 0)
(0.0160869 -0.0683773 -1.6072e-20)
(-0.00572771 -0.00108561 1.07431e-22)
(0.00237943 0.000236044 0)
(-0.000118866 -1.30431e-05 -2.44569e-23)
(-0.0132114 0.00873689 -4.39465e-22)
(3.96999e-05 1.56498e-05 4.01061e-22)
(-2.94672e-05 -3.53747e-05 -3.25119e-22)
(0.000345463 -0.0113425 1.8976e-21)
(-0.00071495 -0.0130411 -2.85021e-22)
(0.0155027 -0.101818 -3.72849e-21)
(0.000327307 0.00163922 7.85557e-22)
(-0.00190388 0.00477902 -1.27805e-21)
(0.0158316 -0.011883 2.71777e-21)
(-3.79559e-05 -2.15657e-06 0)
(-1.61102e-06 4.79852e-06 1.63706e-21)
(-2.10425e-06 9.70506e-06 0)
(0.105254 0.0547718 3.00643e-20)
(-0.00420766 0.0146922 6.04864e-21)
(-0.00386935 0.0232416 5.10093e-21)
(-2.25673e-05 1.26675e-05 0)
(8.96263e-07 -3.10483e-07 1.1598e-22)
(0.0266744 -0.0433038 -3.09135e-20)
(0.00236173 -0.000193804 -3.76161e-22)
(-2.58538e-06 1.09686e-06 -9.4538e-22)
(-2.38033e-06 1.86264e-06 8.4762e-22)
(-4.37594e-06 3.56707e-07 0)
(-3.20201e-06 1.33288e-05 0)
(-3.95347e-06 1.72076e-05 1.73294e-21)
(-0.000391596 -0.00249903 -3.30978e-22)
(0.0783572 -0.048623 0)
(-5.93562e-05 6.81418e-05 3.23222e-25)
(4.71895e-06 2.52939e-06 1.0236e-22)
(-0.00596454 0.00200181 0)
(0.00108184 -0.0012038 0)
(-6.76369e-06 -1.20951e-06 -9.88091e-23)
(-2.32251e-05 1.2528e-05 0)
(0.0207932 -0.061928 1.07186e-20)
(0.00225109 -0.000272646 0)
(-0.00353146 0.0158955 -2.93882e-21)
(0.013257 -0.0129915 0)
(-0.0140324 -0.00429137 0)
(-4.97398e-05 -2.04048e-05 -6.23828e-22)
(0.0862583 0.0550605 2.28209e-20)
(-0.00590393 0.00271986 6.82638e-22)
(-0.00731372 0.00554911 -5.61348e-21)
(-0.00053975 0.00274913 8.53217e-22)
(-0.000281994 -0.000222557 0)
(0.0604546 -0.066687 4.4115e-21)
(-3.03371e-05 3.69308e-05 3.5688e-22)
(3.31665e-05 -0.00268372 -7.63179e-23)
(-0.00548356 -0.00297153 0)
(-7.9946e-05 8.3869e-05 9.17293e-22)
(-3.43121e-06 9.63066e-08 0)
(-8.25572e-05 9.38422e-05 0)
(0.00262734 -0.00206469 -3.64484e-22)
(-0.000165504 -4.44216e-05 0)
(0.00261469 -0.000355447 4.07674e-22)
(-0.0626332 -0.0898348 1.78697e-20)
(-2.82731e-05 7.5834e-05 5.32829e-22)
(-1.99072e-06 -3.1621e-06 0)
(0.000137067 -0.000334811 -6.16062e-22)
(-2.41225e-06 -8.19732e-06 0)
(-2.87823e-05 4.02814e-05 6.19915e-22)
(-3.14416e-05 1.90503e-06 -3.60164e-22)
(-0.00126729 -0.000336203 -6.18864e-22)
(-4.37157e-05 0.000106019 5.16333e-22)
(0.00334489 -6.71576e-05 8.05095e-23)
(0.0181685 -0.0337671 0)
(-7.27571e-05 9.26629e-06 -2.53095e-22)
(0.000846626 -0.00158452 0)
(-0.0394118 0.0169473 -1.73051e-21)
(-2.1268e-06 -2.66982e-05 4.87586e-22)
(0.0263646 -0.0001452 5.87356e-23)
(0.00263626 -0.000421305 -1.86637e-23)
(-2.97224e-06 -2.49837e-05 -5.0192e-22)
(0.00114818 -0.000788505 -1.5792e-23)
(-0.000125442 -6.52893e-05 0)
(0.0353627 0.00660013 0)
(-5.09536e-06 -9.42892e-07 -9.24154e-24)
(0.00156686 5.80412e-05 2.47055e-21)
(-8.31624e-05 9.48789e-05 -1.23476e-22)
(-4.26087e-05 -4.36202e-05 4.30488e-22)
(0.00258485 0.00703033 0)
(-3.27929e-05 -1.31767e-06 -1.39454e-21)
(0.0468406 -0.00489145 -4.8894e-21)
(0.00037667 -0.000193256 0)
(-0.0412051 -0.093099 -4.10591e-21)
(-0.00183357 -0.00193819 0)
(0.00935953 -0.0626764 0)
(0.0033863 -5.23309e-05 -8.4099e-23)
(-7.15447e-06 -2.0342e-06 1.91827e-21)
(-0.00237092 0.000988518 -1.39475e-21)
(0.00153261 -0.00348598 -3.7723e-22)
(-0.00014364 0.000287051 -5.48994e-23)
(-0.000265327 -0.00440936 3.83169e-24)
(-7.13981e-05 0.000143165 -5.58456e-22)
(-7.55756e-05 4.59008e-06 3.92239e-22)
(-3.17175e-05 -2.11063e-06 6.89815e-22)
(-0.0182758 0.00545814 2.50508e-21)
(-0.0178782 -0.000195208 0)
(0.000184341 -0.00245913 1.61888e-22)
(-8.06899e-05 0.000135542 1.90027e-22)
(-2.54691e-05 1.41115e-05 -2.51636e-22)
(0.00279243 -0.000423509 -9.38191e-22)
(9.0921e-05 -0.000707306 0)
(-2.96756e-05 -5.63009e-05 2.8089e-22)
(0.00279609 0.00161265 -2.95221e-23)
(-0.000106496 0.000281164 0)
(0.00665402 -0.0812702 0)
(0.00112312 0.000944997 -3.72822e-21)
(0.00794246 -0.0256898 2.99876e-22)
(0.0175938 0.100177 3.60581e-20)
(-0.00661822 0.000826836 -1.15305e-20)
(-0.0174031 -0.0346277 -5.04802e-20)
(0.000959813 -0.00119339 3.67997e-22)
(0.00398738 -0.00116188 -1.62308e-21)
(-0.0290702 -0.1099 -1.32843e-21)
(0.00304378 0.000958419 0)
(-2.67751e-05 8.98909e-07 0)
(0.0022534 -0.000204841 0)
(0.0248054 -0.0482691 0)
(-9.28636e-05 -0.000210315 -1.77324e-23)
(-0.00107544 -0.0124975 -1.03926e-21)
(0.000839148 0.00257242 9.98247e-22)
(-6.40571e-06 2.31994e-07 1.99781e-21)
(0.00267522 -0.000956751 2.71258e-23)
(-3.69262e-05 -4.0146e-07 0)
(-2.94139e-05 0.000727004 0)
(-3.94014e-05 2e-05 3.55917e-21)
(-0.0302289 -0.0152649 -1.47579e-20)
(-3.32988e-05 -6.06122e-06 8.63471e-22)
(-1.84022e-05 -0.00194997 -3.36411e-23)
(-0.0061431 -0.00027407 2.88801e-22)
(-0.00683993 -0.000999899 8.88453e-21)
(-5.02954e-06 4.46122e-07 -1.2593e-21)
(-0.000253976 0.00249418 1.46892e-21)
(0.00232466 -0.000487637 3.26392e-22)
(-0.000105134 -9.70731e-05 3.39797e-22)
(-5.75295e-05 -0.000226134 6.6282e-22)
(0.00083046 -0.00362106 1.62672e-22)
(0.00228526 -0.000424639 0)
(0.0227854 0.0477662 -3.37912e-20)
(-0.00979668 0.123437 0)
(-4.69656e-06 -2.20252e-05 -2.28888e-22)
(-2.99711e-05 5.16828e-05 -4.23129e-22)
(0.00225996 -0.000201825 0)
(-0.0244916 -0.0321118 2.03685e-20)
(-5.83796e-06 -1.74857e-05 1.94103e-21)
(0.00105515 -0.00447646 -3.54632e-22)
(-9.01744e-05 -9.39569e-06 3.9239e-22)
(0.00528543 0.00996455 0)
(-0.000138637 -0.00214696 -8.84164e-23)
(-0.0040992 0.0083865 6.18463e-22)
(-0.00892047 -0.0149189 -7.3976e-22)
(0.025896 0.00288068 -1.94709e-23)
(-0.000133614 0.000759667 1.62123e-21)
(-0.0025567 -0.00567061 0)
(-5.00648e-05 -2.07895e-05 5.44477e-22)
(-0.000112793 -8.93314e-05 0)
(-0.00175274 -0.0058973 -5.27472e-22)
(0.00440478 0.00505402 -2.16877e-21)
(-8.25599e-06 -2.2761e-07 -7.25338e-22)
(-0.00635842 -0.00301315 5.07226e-21)
(-0.000117846 0.000737297 -1.16889e-21)
(-0.00945991 -0.0324499 6.60518e-21)
(-8.88075e-05 -6.15449e-05 7.69717e-22)
(-0.0157352 -0.0230287 0)
(0.00324118 0.000868227 -1.17241e-22)
(-0.0107034 -0.0884864 0)
(-7.68727e-06 -0.000422703 7.69602e-22)
(-0.00248787 0.0216663 -5.57295e-21)
(-0.0339889 0.0192433 1.04892e-21)
(-0.00763945 0.000177534 2.98593e-22)
(-7.55223e-05 7.58297e-06 -8.666e-22)
(0.0110643 0.00279431 0)
(-8.53691e-05 -1.47068e-05 0)
(0.066598 0.05326 -2.04096e-20)
(-0.00287607 0.0128881 -4.86375e-21)
(0.000127551 -0.000440095 7.79927e-22)
(-0.0239698 -0.120302 7.88854e-21)
(-0.000161024 0.000148119 9.68923e-22)
(-0.0153158 -0.0235002 -5.002e-21)
(-2.09958e-05 -2.87366e-05 -4.9689e-22)
(-0.0132241 -0.0198911 0)
(-0.0118867 -0.0305888 2.20274e-21)
(-0.000281274 7.35511e-05 -7.71617e-24)
(0.0129932 -0.0589708 1.7864e-20)
(0.0204598 0.00549808 0)
(-0.000210358 -0.000203347 6.69762e-22)
(0.0459644 0.0386541 -6.83232e-21)
(0.000522304 0.000239899 -5.74939e-22)
(-0.00021033 6.88545e-05 -6.80432e-23)
(0.00264114 0.00784364 2.26641e-21)
(-3.02819e-05 2.1115e-05 3.89289e-22)
(0.0216894 0.00914868 6.36842e-22)
(0.00337656 0.00130406 3.00499e-21)
(-3.68281e-05 -5.44631e-07 0)
(-0.00027087 0.000177755 -9.24586e-22)
(-7.39061e-05 0.000127061 2.49039e-22)
(-4.48532e-05 -3.70968e-05 4.00224e-22)
(-3.38608e-05 -1.35303e-05 8.07949e-25)
(-5.25909e-05 4.26621e-06 -5.19343e-22)
(0.0706748 0.144811 0)
(0.0440721 -0.0089092 2.99025e-21)
(-9.78572e-05 -7.38618e-05 3.89003e-22)
(-6.37902e-05 -1.71288e-05 -2.04935e-22)
(-7.40492e-05 -6.54403e-05 -2.8677e-22)
(-0.00288515 -0.000101678 -2.40216e-21)
(-0.0298832 -0.0805543 0)
(-1.48336e-06 -7.507e-07 0)
(2.33584e-06 2.43468e-06 0)
(0.00112186 0.00104458 2.46754e-21)
(-0.0118587 -0.0230902 0)
(-4.37545e-05 -4.42232e-05 5.06646e-22)
(-0.000260091 6.13087e-05 6.41402e-24)
(-0.00998559 0.0817692 0)
(0.0852615 0.0111004 -1.38714e-21)
(-0.00459766 0.00851547 0)
(0.00163099 0.00372927 0)
(0.00393187 -0.000873656 3.51322e-22)
(-5.15445e-05 4.30988e-05 -2.9041e-21)
(3.45126e-07 -1.22427e-05 2.05182e-21)
(-0.00130175 0.00191328 -1.68977e-21)
(-3.34201e-05 -1.21977e-05 6.8628e-25)
(5.03792e-08 -7.02538e-06 -2.08515e-21)
(-6.05243e-05 8.31988e-05 -1.03659e-21)
(4.50822e-07 -1.85317e-05 3.76827e-23)
(-4.23709e-05 3.67227e-05 0)
(0.0989967 0.0355508 -1.87468e-21)
(-2.63582e-05 1.17383e-05 8.32147e-24)
(0.00319008 -0.00134693 0)
(0.0033072 -8.45001e-05 0)
(-0.00246502 0.000747276 0)
(-3.10208e-05 -3.39639e-05 8.73778e-22)
(-3.80947e-05 3.05451e-05 0)
(0.0454169 0.0306308 0)
(-0.000517018 0.00181133 4.20047e-22)
(0.00267682 -0.000137429 5.53342e-22)
(-2.73089e-05 2.22839e-05 0)
(-4.01236e-05 3.43427e-05 -5.16267e-22)
(-0.000118938 -5.3443e-06 0)
(-5.72627e-06 2.01253e-05 -1.83408e-21)
(-0.000400668 -6.85719e-05 2.28302e-22)
(-0.000252742 0.00014337 -7.36383e-22)
(-0.0199191 0.078156 0)
(0.0040364 -0.000732696 0)
(0.00231074 -0.000306936 1.10533e-22)
(-4.15749e-05 3.28541e-05 0)
(-0.000577463 0.000546809 -1.00612e-21)
(0.00482626 -0.0028589 4.06008e-22)
(2.37768e-05 3.42776e-05 0)
(-0.0131042 -0.00253226 0)
(0.0196813 0.0529215 5.68433e-21)
(-8.72173e-05 -5.5117e-06 -4.12775e-22)
(0.0748837 -0.0275239 -5.17434e-21)
(-3.35378e-05 -2.52535e-05 4.26105e-23)
(-3.02987e-05 -1.60921e-06 7.6501e-22)
(-6.51407e-05 -7.04428e-05 -2.84569e-22)
(-0.000121793 0.000172919 -9.27408e-22)
(-2.65773e-05 -3.41551e-05 1.78273e-22)
(-3.90577e-05 8.28907e-07 0)
(0.0027955 -0.000461613 1.10481e-22)
(0.0513894 0.103248 3.93811e-20)
(-2.51268e-05 -3.27174e-05 0)
(0.00045356 -0.0715468 -2.81985e-21)
(0.00121536 0.00121666 0)
(-1.89163e-05 2.50255e-06 5.40313e-22)
(-0.00295793 0.00110352 -1.45257e-21)
(0.000327949 0.000914512 5.46657e-22)
(0.0571978 0.0240378 2.2322e-20)
(-0.000286804 0.000234365 -1.04741e-21)
(0.00234392 -0.000415517 4.21651e-22)
(-0.0296132 -0.0206404 -3.93185e-21)
(-0.0323947 -0.00911169 3.06195e-21)
(-0.000208677 0.000190169 -1.27878e-21)
(-0.00503454 0.00370533 -8.44696e-21)
(0.00558821 -0.00452924 0)
(-0.000237017 -0.000234894 8.59866e-24)
(0.0161131 0.0322587 0)
(-4.47771e-06 -3.43013e-09 8.21731e-22)
(-6.9282e-05 -4.91677e-05 0)
(-0.000111656 -0.000112134 7.89706e-22)
(-0.000205454 0.000217511 -6.76194e-22)
(0.000954048 0.00214982 -3.60176e-22)
(0.00322219 0.00268876 -1.79098e-21)
(-0.00085912 0.0014862 -2.33512e-21)
(-0.00187951 0.000391209 0)
(0.00120965 -0.00204123 -7.65935e-22)
(-0.0259976 0.00271067 0)
(0.00484214 -0.00515427 8.05758e-22)
(-9.26183e-05 -7.60594e-05 -4.26511e-22)
(0.00242396 0.153689 -8.16688e-21)
(-0.00114758 7.48476e-05 -9.34442e-22)
(0.000300095 -0.00024061 1.44683e-22)
(0.0557112 0.0677915 2.02093e-20)
(-3.72977e-05 -1.22343e-06 -7.84723e-22)
(0.00530037 -0.00598961 -1.17445e-21)
(-0.0168791 0.0103744 0)
(-3.26469e-05 3.77568e-06 1.2172e-24)
(0.0029789 -0.000262086 -5.8113e-23)
(-3.00077e-05 -2.30943e-06 0)
(-5.85529e-06 2.17962e-05 0)
(-0.00300503 0.000205699 2.47499e-21)
(-2.23228e-05 2.1599e-05 0)
(-3.54599e-05 -3.06119e-06 -3.19576e-22)
(-0.0185917 0.00306163 0)
(0.0029069 -0.000157767 0)
(-0.00055642 -0.0699436 1.77398e-20)
(-4.33572e-05 1.23693e-05 4.07942e-22)
(-8.8278e-05 5.9888e-05 8.27741e-22)
(-0.000596026 0.00133647 -5.64007e-22)
(0.00681785 0.0368205 9.48903e-21)
(-0.0734077 0.0117036 5.6248e-21)
(-8.1649e-05 -6.9813e-05 8.11953e-22)
(-7.94704e-05 -5.6391e-05 4.22716e-22)
(-4.22584e-05 1.16774e-05 0)
(-0.00450683 -0.0020639 1.54352e-21)
(0.029267 -0.00944886 9.63877e-21)
(-4.1148e-05 -6.47036e-05 2.2749e-22)
(-7.96927e-06 -5.70584e-07 -3.16655e-22)
(9.44104e-05 -0.000161312 1.07424e-21)
(-4.48832e-05 -3.34402e-05 -1.15677e-21)
(-0.00147284 -0.00262103 0)
(-0.000275974 -0.000336054 0)
(-4.93995e-06 1.17153e-06 -1.49275e-21)
(-0.000968487 0.00156132 2.42212e-21)
(-3.27772e-05 3.64676e-06 -4.04499e-22)
(-8.1952e-05 -3.62885e-05 -1.70781e-21)
(-8.10774e-05 0.00012111 1.25143e-22)
(0.00113338 -0.0177587 -1.70285e-21)
(-1.39798e-05 2.25856e-06 1.53902e-21)
(-0.00015648 8.65438e-05 2.821e-22)
(-0.00016627 1.2147e-05 0)
(-0.000558277 0.00050754 -1.68791e-21)
(-0.00317129 0.00239325 -9.34817e-22)
(-0.00118032 0.0150836 4.1624e-21)
(-0.0062275 -0.00290408 0)
(0.0393299 -0.00733086 0)
(-0.000104354 0.000118817 0)
(-0.0207061 0.00108868 5.62423e-21)
(0.00269357 -0.000556236 4.45695e-22)
(0.0991044 0.0194871 0)
(0.00326427 -9.67916e-05 -5.71036e-22)
(-1.50093e-05 -4.73887e-05 -3.0102e-22)
(-5.07758e-05 -8.01912e-05 0)
(-0.00221125 0.000533801 3.32852e-22)
(-5.74194e-05 3.7512e-05 0)
(0.0064318 -0.00373089 8.00316e-22)
(8.31585e-08 -2.84753e-05 0)
(-0.0519554 -0.214972 0)
(-1.72857e-05 -8.51252e-05 4.42624e-22)
(0.0027499 -0.00100541 8.9266e-22)
(0.0301615 -0.00181429 5.05822e-22)
(-0.000105601 0.000182107 1.46775e-22)
(-0.00717779 -0.0169102 -5.1789e-21)
(-2.29529e-05 -3.08237e-05 -1.08971e-21)
(0.000207956 0.000973291 2.26074e-21)
(-1.90465e-05 -2.39177e-06 -1.11256e-21)
(0.000190139 -0.000745154 -1.73752e-21)
(0.00273105 -0.00104228 5.89422e-22)
(-1.14569e-05 1.27464e-05 -5.35282e-22)
(0.00186969 0.000414352 3.88149e-21)
(-3.25896e-06 -7.10094e-07 -3.63257e-22)
(-2.25772e-05 1.96008e-06 -2.91217e-22)
(-5.83175e-05 -8.15505e-05 0)
(0.00297584 0.00260968 1.78405e-21)
(-0.00108755 -0.00330858 -6.21861e-22)
(-4.52134e-06 -1.3741e-05 9.83812e-22)
(0.00126821 0.00198255 0)
(-0.00299315 0.000800948 -3.15995e-22)
(0.023905 0.139781 -1.83556e-21)
(0.00620705 -0.000969918 0)
(0.0027838 -0.000344984 4.10347e-22)
(0.0612893 0.0284553 -1.08835e-20)
(-1.36456e-05 2.89725e-06 -1.79868e-21)
(0.00200408 -0.000304603 -7.34901e-23)
(-4.51855e-06 -1.18925e-06 -3.28571e-22)
(0.0607422 0.116194 0)
(-0.0322347 0.0717944 0)
(0.000333321 -0.00104509 4.67382e-22)
(0.00433055 -0.000600727 -1.68296e-21)
(-4.8891e-07 6.52223e-07 -1.24566e-21)
(-0.00108856 4.4072e-05 0)
(-9.90728e-05 0.000164977 5.49724e-22)
(-7.59383e-06 7.40835e-06 5.5055e-22)
(-2.09519e-05 -2.23811e-06 0)
(-3.61443e-05 9.41377e-07 -2.88177e-22)
(0.00618108 -0.000589387 -2.03518e-21)
(-4.27802e-05 6.98571e-06 -2.47335e-22)
(-7.78297e-06 0.00130129 2.23998e-21)
(-6.51359e-05 -4.55299e-05 0)
(-4.01038e-06 -1.07727e-05 -2.34369e-21)
(-1.67122e-06 -4.64523e-07 -2.24574e-21)
(-0.0261969 0.0138569 5.3606e-22)
(0.0270299 0.0152957 -6.15173e-21)
(-0.0452926 -0.0266092 8.9822e-21)
(-0.0006877 0.00258202 -1.98857e-21)
(-0.000312735 -0.000288598 0)
(0.0134099 0.0120473 -2.00238e-21)
(0.00131699 -0.00117146 -2.98701e-23)
(-2.0765e-05 -3.22041e-05 4.87574e-22)
(0.0176825 0.0401103 0)
(-3.15055e-05 1.63768e-06 5.88883e-22)
(0.000526894 0.000837512 -2.43774e-21)
(-5.89469e-05 3.14549e-05 9.77753e-22)
(0.0100208 0.00246106 1.57765e-21)
(-4.32641e-05 -3.4784e-05 4.59737e-22)
(-0.0022291 -0.002306 0)
(-4.11683e-05 3.31119e-05 0)
(0.0154737 0.160487 2.36893e-22)
(-0.00128372 -0.000116493 -1.17815e-21)
(0.0107352 -0.00628021 -1.13648e-21)
(-7.05124e-06 -3.60913e-06 -1.4742e-23)
(-0.00113158 -0.000322568 -6.7193e-22)
(4.32485e-05 -7.49928e-05 0)
(-1.47169e-06 2.40706e-07 1.83569e-21)
(-0.00245535 -0.0070485 3.52934e-23)
(0.0468936 0.00937224 -1.3609e-22)
(0.000111397 -4.90949e-05 6.2253e-23)
(-0.0039776 0.00930484 -7.75471e-22)
(-2.47745e-05 1.46917e-05 3.76683e-22)
(0.000419515 -0.000325721 0)
(-3.15078e-06 6.38021e-07 0)
(-0.0011695 -0.0073352 -1.77675e-21)
(-4.28395e-05 3.85553e-06 2.37542e-22)
(0.0026003 -0.002975 0)
(1.00455e-06 -2.78927e-05 -1.28093e-21)
(8.06389e-05 -4.77355e-05 4.74206e-22)
(0.00430945 0.00545216 0)
(-1.97962e-06 5.78494e-07 3.97963e-22)
(-0.00181317 0.0075467 -1.68715e-21)
(-1.26378e-05 1.6303e-07 -1.79431e-23)
(-3.35776e-05 3.22633e-07 0)
(0.0817802 0.113479 5.11417e-21)
(4.69617e-05 0.00134876 0)
(-7.5705e-05 -6.45148e-05 -4.68376e-22)
(0.00311107 -9.10557e-06 0)
(0.00177919 0.000447004 -3.63449e-21)
(0.0210477 -0.0575608 -9.7678e-23)
(-0.0193961 0.0101065 0)
(-2.18145e-05 -2.70199e-05 7.18902e-22)
(0.00310254 -0.000736203 2.27692e-21)
(-0.00153802 -0.0184309 -3.21435e-22)
(0.000957869 0.000117387 -1.53857e-23)
(-0.00107564 0.00156092 0)
(-0.000400678 3.57442e-05 -4.84523e-23)
(-0.00312533 -0.0023899 -2.45634e-21)
(-1.18178e-05 1.88039e-07 -1.37326e-21)
(-3.46929e-05 3.03465e-05 0)
(-0.00773749 0.00227378 -2.09578e-21)
(-0.00385704 0.00278608 0)
(4.67836e-05 8.37065e-05 -1.12904e-22)
(0.0640122 0.0744767 4.91466e-23)
(-0.00134047 -3.01843e-05 1.43447e-21)
(-0.0436487 -0.109339 -7.97423e-21)
(-0.0716841 0.0244606 -6.99563e-22)
(-0.0169514 0.00334421 0)
(-0.00053778 -0.00139678 -6.56179e-22)
(-0.00233453 0.0108186 0)
(0.000981516 -0.00101926 -1.7553e-22)
(-7.26473e-05 2.91463e-05 0)
(-0.00516925 0.00590412 1.33197e-22)
(-0.00963053 -0.000139439 0)
(-3.3304e-05 2.82923e-06 0)
(-1.43135e-05 -9.32239e-07 -1.21144e-21)
(-1.95988e-06 4.49755e-07 6.75294e-22)
(-0.000808683 0.00183837 0)
(-4.21442e-05 -1.19081e-06 0)
(0.00192478 -0.000349878 7.96631e-23)
(-0.000145074 0.000589662 8.68622e-22)
(-1.97546e-05 -3.4713e-07 0)
(0.000612204 0.0025231 -1.03547e-21)
(-8.06325e-06 -4.27214e-06 -2.67361e-21)
(0.0115799 -0.023709 -2.5643e-22)
(-0.000104008 -0.000109316 0)
(-4.3362e-05 -4.20192e-05 0)
(0.00295751 -0.000159581 0)
(-0.00271186 0.00204608 2.311e-21)
(-0.0173494 0.0858418 -2.07167e-21)
(-5.21664e-05 4.23746e-05 0)
(0.000273982 -0.000238484 0)
(-1.39996e-05 -6.54406e-05 8.31569e-24)
(-7.07241e-05 5.21192e-05 -3.83711e-22)
(-0.000479843 8.05061e-05 -5.06698e-23)
(-3.45356e-05 -3.93135e-05 6.80967e-22)
(0.00303205 -0.00011499 -5.80425e-22)
(0.000593041 -0.000458298 0)
(-0.0164978 -0.193256 5.34065e-22)
(-0.0233788 0.0579886 -1.47841e-21)
(-0.00592725 0.00472385 -2.00715e-21)
(0.0027827 -0.000309256 0)
(-9.09709e-05 5.90399e-05 0)
(-2.13423e-05 -1.00013e-07 -1.06164e-21)
(6.37071e-05 -8.29871e-05 -4.48107e-22)
(0.00256403 -0.000481467 -4.09041e-22)
(-0.00627499 -0.0719861 0)
(4.22268e-05 -0.000105585 -3.00092e-22)
(0.00280215 -0.000157411 0)
(-0.028984 -0.171996 -2.04946e-21)
(-3.33147e-05 -4.02211e-06 -1.03898e-21)
(-3.37155e-05 -5.56955e-05 0)
(-0.000422752 -0.000140358 5.12265e-22)
(0.00235168 -0.000482693 0)
(-0.0227666 0.0838441 0)
(-0.00134898 -0.000246214 -3.79404e-22)
(-6.90254e-05 5.10553e-05 3.27207e-22)
(-0.000162504 8.08428e-05 0)
(0.000522056 0.000806921 2.55363e-21)
(0.000650263 -0.000959391 -3.64109e-22)
(-0.00308885 0.00790919 3.67804e-21)
(-0.000169418 0.000604505 0)
(-8.56772e-05 -0.00010951 -5.58827e-22)
(-9.04455e-05 9.73659e-05 -7.87319e-22)
(-2.10694e-05 2.25185e-07 1.05045e-21)
(-0.000462857 5.81031e-05 0)
(0.00185512 -0.0016648 7.60223e-22)
(0.000479839 0.000187674 -2.19574e-21)
(-0.000203665 0.000351237 -1.22158e-23)
(0.00216413 0.000759254 -5.91059e-22)
(0.0029275 -0.000136357 -7.46835e-22)
(-0.00043877 0.00038186 0)
(-0.0407009 -0.211136 1.13093e-21)
(-0.000343431 2.79871e-05 -2.19535e-22)
(-0.000721188 -0.00571965 -5.08347e-22)
(-0.000145116 -8.49717e-05 -2.55683e-22)
(0.00102821 0.000172596 1.14861e-21)
(-1.24226e-05 -1.47666e-06 1.2093e-21)
(0.000171897 0.000933355 -9.73523e-22)
(0.0247685 0.0146623 1.36003e-20)
(-0.0171448 0.00026629 -6.69902e-22)
(-5.55857e-05 4.76935e-05 2.86704e-22)
(-0.000146828 0.000345316 5.89917e-23)
(-4.37681e-05 -6.72403e-07 1.81527e-22)
(-5.23335e-05 2.18491e-05 6.009e-22)
(-3.67932e-05 3.10275e-05 8.41587e-23)
(-0.00340479 0.00593256 0)
(0.00570282 -0.00137908 0)
(-0.0275345 0.0113149 2.10559e-21)
(-0.00220467 0.00816395 0)
(-1.95864e-05 -1.74396e-05 7.92504e-22)
(0.000672849 6.36699e-05 -6.59133e-22)
(-0.000130853 0.000253826 1.46829e-21)
(-0.00022178 0.000215419 1.08563e-21)
(-0.00281504 0.00971844 0)
(-2.28947e-05 6.13104e-05 -4.36692e-22)
(0.00020279 0.00100049 1.1653e-21)
(0.0449711 -0.00253808 -6.56628e-21)
(-9.76998e-06 -1.4276e-05 1.42153e-21)
(-0.00245438 0.0020319 0)
(-0.00971442 -0.00634745 1.95145e-22)
(-0.000198361 0.000588523 0)
(-3.56397e-05 1.16438e-05 2.29663e-22)
(-2.9774e-05 -3.2157e-05 -1.44026e-21)
(-3.72649e-05 2.82969e-05 0)
(0.000641431 -0.000507459 -6.26099e-25)
(-8.83754e-05 9.50737e-05 -4.22672e-22)
(-7.86438e-05 -0.000207971 7.66282e-24)
(-6.48583e-05 0.00071992 0)
(-3.60043e-05 -4.40444e-05 -9.12782e-22)
(-3.20901e-05 -3.60999e-05 -1.64523e-22)
(-0.00978537 0.00673207 -3.94041e-22)
(0.0489924 0.00180472 4.23683e-21)
(-0.0110715 0.00771663 -3.79298e-22)
(0.0798757 -0.00153559 4.45681e-21)
(0.0040072 0.00885405 0)
(0.0022664 -0.000128229 0)
(-3.57554e-05 3.21814e-05 -9.63607e-22)
(-0.00121477 -0.00108626 -3.57187e-22)
(0.0107169 0.00683714 3.30183e-21)
(0.000707455 -0.000941116 9.86268e-22)
(-0.00250456 0.0111406 -4.12119e-22)
(-4.98699e-06 -6.87929e-08 -7.59476e-22)
(-1.39968e-05 2.33273e-07 -1.32159e-21)
(-5.52283e-05 5.10597e-05 4.25645e-22)
(-0.000300578 0.000425038 3.37127e-23)
(0.000909558 0.0165173 1.41657e-21)
(-3.64447e-05 7.14657e-06 8.21156e-24)
(0.0115056 0.017507 -1.09028e-21)
(0.000105443 2.27958e-05 1.99865e-22)
(-0.0363059 0.109004 0)
(-0.000322296 7.17273e-05 0)
(-0.000265849 0.000240803 1.1508e-21)
(-3.51458e-05 2.69427e-05 2.65217e-21)
(-0.000604408 0.00293015 -4.80313e-21)
(0.00175419 -0.000229182 -2.23429e-21)
(0.0378676 0.023615 -1.53046e-20)
(-0.0111128 0.0106452 -5.72208e-22)
(-5.82689e-06 -3.44193e-07 -4.08476e-22)
(0.00423524 -0.0230085 1.09594e-21)
(-9.19116e-05 0.00010022 3.03634e-22)
(0.00254538 -0.000328134 -4.07709e-22)
(-8.13656e-05 0.000167548 0)
(-0.015222 0.0246888 2.51144e-21)
(0.000209503 -0.000835911 2.44539e-24)
(-1.18203e-05 -1.33947e-05 3.30907e-22)
(-5.35262e-05 4.6629e-05 1.46268e-24)
(0.00266602 -0.00155474 0)
(-0.000463948 -5.36315e-06 -5.6857e-22)
(0.00708664 -0.0694195 -1.19645e-21)
(0.0956897 0.0159786 1.16145e-21)
(-5.09804e-05 2.1159e-05 0)
(-0.000221368 0.000603487 0)
(4.38569e-06 5.92531e-06 0)
(-0.00206706 0.00266075 2.67615e-22)
(0.044195 0.0765906 2.19333e-21)
(5.32502e-06 2.38969e-06 1.22182e-22)
(0.0868597 0.043174 5.94912e-21)
(-0.000154703 0.000103018 0)
(-0.0121618 0.0292326 0)
(0.000675369 0.00389753 7.07713e-23)
(0.0625443 0.000864254 -1.58632e-21)
(-1.32267e-05 -1.2124e-05 0)
(-1.07723e-05 1.76791e-07 1.77728e-21)
(-0.0108871 -0.0167118 -2.14525e-21)
(-2.0262e-05 -2.19469e-05 -4.08625e-22)
(-6.04332e-05 -4.57272e-05 6.83894e-22)
(-0.000175577 7.36648e-05 -3.26695e-22)
(-3.60527e-05 -7.77793e-05 2.54162e-22)
(-8.20386e-05 0.000741424 -1.664e-22)
(-1.29648e-05 -1.53381e-05 4.29632e-22)
(8.90265e-06 0.0411417 1.542e-21)
(-7.15649e-05 -0.00011059 5.99255e-22)
(-0.00228708 -0.00203911 -2.77809e-21)
(0.00267395 -0.000263945 5.68199e-23)
(-0.0290563 -0.0865227 0)
(0.00231779 -0.000238829 -2.17965e-22)