/*--------------------------------*- C++ -*----------------------------------*\
| =========                 |                                                 |
| \\      /  F ield         | OpenFOAM: The Open Source CFD Toolbox           |
|  \\    /   O peration     | Version:  v2012                                 |
|   \\  /    A nd           | Website:  www.openfoam.com                      |
|    \\/     M anipulation  |                                                 |
\*---------------------------------------------------------------------------*/
FoamFile
{
    version     2.0;
    format      ascii;
    class       volScalarField;
    location    "250";
    object      k_0;
}
// * * * * * * * * * * * * * * * * * * * * * * * * * * * * * * * * * * * * * //

dimensions      [0 2 -2 0 0 0 0];


internalField   nonuniform List<scalar> 
13917
(
0.0148295
8.49946e-05
0.000564152
8.69806e-05
7.45324e-05
8.44417e-05
8.98243e-05
4.64729e-05
9.21149e-05
0.00597866
0.000114698
8.34482e-05
9.5796e-05
0.0297158
7.93297e-05
0.0130714
5.73963e-05
0.00010586
0.000152999
0.0129548
8.64903e-05
7.34447e-05
9.69166e-05
7.33433e-05
8.52298e-05
8.69184e-05
0.0106333
0.00461385
9.11052e-05
4.48378e-05
0.00351518
0.000109607
8.50657e-05
0.0219432
6.3978e-05
0.00024715
8.17575e-05
7.79988e-05
8.99735e-05
9.01663e-05
5.97315e-05
5.79398e-05
9.15142e-05
0.000145584
0.000145191
0.00276788
8.58783e-05
0.0160878
0.0128457
6.41975e-05
8.34404e-05
0.000156568
0.00912744
7.92362e-05
7.99627e-05
0.000156793
0.00204058
9.68426e-05
5.77271e-05
0.00267355
0.0451994
6.58159e-05
4.67752e-05
8.52609e-05
0.0232662
5.90642e-05
9.34328e-05
0.000163341
0.000122353
0.0145422
0.0186396
0.0206345
8.87892e-05
5.76947e-05
8.70572e-05
8.41619e-05
7.381e-05
5.74962e-05
8.41224e-05
8.50251e-05
7.74619e-05
5.88754e-05
8.89865e-05
0.0197539
7.78343e-05
0.000168114
0.000107926
7.80522e-05
8.9764e-05
5.67162e-05
5.45978e-05
9.1669e-05
0.0110234
6.25984e-05
7.96638e-05
9.35578e-05
0.00346108
6.30953e-05
7.81581e-05
0.000161377
5.07898e-05
5.04039e-05
7.76981e-05
6.26377e-05
7.36008e-05
0.0216234
0.018771
6.76872e-05
5.79901e-05
0.0127064
9.04575e-05
0.0225218
9.12032e-05
0.0188637
0.0230272
8.39235e-05
0.000143908
5.20891e-05
0.000283369
9.00923e-05
5.87477e-05
5.77331e-05
9.74898e-05
0.000130563
0.0160939
0.0216402
8.54465e-05
8.77574e-05
6.70809e-05
0.000131158
9.36595e-05
0.00105766
0.0306823
8.37782e-05
0.000118042
0.0130059
0.0550846
0.0170977
8.76917e-05
8.22576e-05
0.0123415
5.74944e-05
0.0209254
7.30869e-05
8.81125e-05
6.02505e-05
0.0183847
0.00440261
0.0176041
7.94808e-05
8.85624e-05
4.91808e-05
8.81248e-05
9.04958e-05
0.0064195
7.16841e-05
6.24954e-05
0.0311093
5.28491e-05
5.24468e-05
7.58428e-05
0.0221435
8.13952e-05
0.0112756
0.0222621
0.00032087
0.00863778
0.0229739
4.42002e-05
8.86656e-05
7.292e-05
0.0294018
9.2274e-05
0.0367807
0.000108652
5.15487e-05
8.71868e-05
0.000175372
9.34622e-05
8.15415e-05
9.10798e-05
7.27471e-05
8.30315e-05
0.000484774
0.000290569
0.0010174
8.29778e-05
0.000387942
4.49485e-05
0.00014878
0.000108348
0.000135798
0.000196389
0.0148285
6.28168e-05
0.0162237
8.68104e-05
0.0305579
6.38237e-05
7.17019e-05
8.51318e-05
0.0143937
0.015484
8.06174e-05
0.011955
8.50818e-05
8.89845e-05
5.77284e-05
0.000173125
7.72371e-05
6.60734e-05
7.71234e-05
8.16805e-05
0.0164101
0.000116139
8.76975e-05
0.0237439
7.39412e-05
5.44324e-05
5.42843e-05
0.0216627
0.000221724
0.00173395
8.63671e-05
4.87084e-05
0.0143792
0.0145882
5.43756e-05
5.43309e-05
6.16899e-05
5.42039e-05
5.40885e-05
0.0196153
0.0160808
7.54542e-05
4.43998e-05
0.000113649
0.0197464
5.46785e-05
8.60539e-05
0.0124657
0.0216452
0.000226995
0.0238244
0.000131191
7.34142e-05
0.0226517
0.000115384
8.96865e-05
0.000115164
8.05867e-05
0.0156505
8.97233e-05
9.24632e-05
0.000104109
7.52081e-05
6.4152e-05
8.54899e-05
7.28702e-05
6.22413e-05
0.0197248
0.0185899
5.87105e-05
5.46474e-05
7.1937e-05
5.47401e-05
9.00272e-05
9.16865e-05
9.24312e-05
5.87066e-05
0.0197951
0.019541
8.15689e-05
7.26185e-05
0.00822945
5.19783e-05
0.000127993
0.0216739
5.20931e-05
0.0169087
6.20367e-05
0.0219107
5.18339e-05
7.84805e-05
7.51521e-05
7.21407e-05
0.000211665
6.92824e-05
0.000805796
8.70294e-05
0.0180913
6.17178e-05
0.0080129
0.0169751
5.3078e-05
9.92263e-05
7.34688e-05
8.36342e-05
7.41238e-05
8.43524e-05
6.23283e-05
6.82801e-05
0.000172355
4.46479e-05
9.21117e-05
8.4297e-05
8.53236e-05
0.0310404
0.0128457
6.61535e-05
4.47623e-05
8.38316e-05
0.0031701
0.000167728
0.020536
0.032431
4.39078e-05
0.000235086
7.23259e-05
0.0180844
0.00549551
0.000564006
9.25422e-05
7.90322e-05
0.0102422
7.26576e-05
8.64837e-05
0.000135341
5.65584e-05
0.0292255
7.78315e-05
9.78752e-05
5.04904e-05
0.00940548
6.70518e-05
9.13924e-05
8.56464e-05
4.50257e-05
5.54546e-05
0.000115433
0.019143
7.9923e-05
7.24425e-05
0.023823
0.0197829
0.0215628
0.0298635
5.2162e-05
7.62348e-05
0.0224185
0.000247878
5.23547e-05
7.39692e-05
8.13239e-05
9.6654e-05
9.18567e-05
0.000152957
0.000126682
0.000128756
9.71797e-05
0.0194085
6.72542e-05
8.01361e-05
7.54398e-05
0.00027272
5.54133e-05
0.0136934
9.72192e-05
0.00309669
7.97532e-05
0.000162834
4.39458e-05
0.00577694
5.71848e-05
0.00177958
0.00698283
8.65994e-05
8.15936e-05
0.0115383
5.031e-05
0.0231159
0.000217524
5.70291e-05
0.0074026
7.50823e-05
0.00290118
6.10466e-05
0.0137277
0.00303066
8.2106e-05
0.0159302
0.000117618
8.03369e-05
0.0226116
0.000374962
8.23573e-05
0.000217551
7.68067e-05
0.000118775
0.000506815
7.78917e-05
9.06985e-05
8.45441e-05
7.25505e-05
7.07843e-05
6.7784e-05
0.058933
0.000281008
8.00349e-05
6.74804e-05
7.314e-05
9.80786e-05
0.00135161
5.108e-05
4.43624e-05
0.00016632
0.000159811
7.22956e-05
8.2165e-05
0.0269356
0.00992146
5.49842e-05
0.000160981
0.0152527
5.42054e-05
5.12765e-05
8.47942e-05
7.06328e-05
5.12154e-05
7.54998e-05
5.14288e-05
5.40766e-05
0.0202049
7.70176e-05
9.15076e-05
0.0211108
9.88278e-05
6.62043e-05
8.79068e-05
0.022187
8.49522e-05
0.0145203
5.06792e-05
8.37479e-05
5.04621e-05
5.39509e-05
8.15156e-05
7.48332e-05
0.0262806
5.51456e-05
0.0227857
8.36022e-05
9.37918e-05
5.2541e-05
7.69735e-05
0.00013021
0.0220976
8.13757e-05
0.0170095
6.66636e-05
7.03784e-05
7.29482e-05
7.53193e-05
6.56644e-05
7.64668e-05
0.0308001
0.0385086
6.5461e-05
0.00925078
0.000163323
8.70377e-05
0.000101231
0.000114658
0.0219286
9.11748e-05
0.0219553
0.00348474
0.00388119
7.50504e-05
4.15697e-05
4.68104e-05
8.03365e-05
0.0155264
5.48585e-05
7.93067e-05
7.98891e-05
9.12202e-05
8.68214e-05
0.000238199
0.00010121
5.83043e-05
7.28147e-05
0.000104181
9.76447e-05
7.99017e-05
0.0267444
9.2759e-05
8.71964e-05
0.0247868
7.78894e-05
9.90596e-05
0.000194078
6.8319e-05
0.0300513
7.06818e-05
5.3869e-05
9.86139e-05
5.08284e-05
7.32206e-05
0.000170217
0.0322772
0.0173912
7.59694e-05
8.86611e-05
5.93667e-05
0.0139394
0.0192161
7.94812e-05
7.97513e-05
7.58411e-05
0.000101522
0.0019888
6.65352e-05
5.52144e-05
7.14388e-05
7.27369e-05
6.78981e-05
8.86508e-05
5.47337e-05
0.00010144
6.82225e-05
7.36488e-05
8.4499e-05
0.0209853
5.72453e-05
8.93407e-05
6.24744e-05
9.34443e-05
0.00010726
9.91243e-05
0.000105656
0.00017537
8.38796e-05
9.75103e-05
0.0300713
0.0192058
0.0232712
6.52393e-05
7.24517e-05
6.02551e-05
8.28802e-05
0.0237219
5.18849e-05
0.00905401
8.6894e-05
0.0272421
0.000138702
9.12487e-05
0.0216015
6.51907e-05
0.000107879
6.26133e-05
6.14456e-05
0.0280262
5.08743e-05
0.000394573
4.91275e-05
8.89622e-05
7.2637e-05
0.00022021
6.78622e-05
5.5035e-05
0.000146776
0.0001007
0.0100152
0.0163185
0.0314806
0.0219242
5.72921e-05
0.0148783
4.65394e-05
0.0504712
0.00614679
6.15504e-05
3.85777e-05
4.97742e-05
9.24871e-05
9.11146e-05
5.10224e-05
6.30723e-05
9.0058e-05
0.0141054
7.69331e-05
0.000105709
7.90703e-05
5.49162e-05
5.24584e-05
0.000550566
0.0191797
0.0199568
0.000111411
8.87301e-05
0.00807005
0.0205636
6.10375e-05
0.0189947
9.11954e-05
0.000136083
8.25298e-05
0.0103278
7.24363e-05
6.82317e-05
8.83989e-05
0.00914129
9.27703e-05
0.0238069
5.59564e-05
9.19284e-05
6.52752e-05
5.34473e-05
0.0201495
0.000282385
6.50685e-05
0.00016784
8.55147e-05
6.07885e-05
5.01424e-05
0.0215796
7.69913e-05
7.33103e-05
5.17753e-05
6.50322e-05
0.000274728
4.99481e-05
0.000155732
6.03414e-05
6.76023e-05
0.0512173
0.000106834
7.93667e-05
0.00944214
0.000316722
0.000347312
0.000198847
6.49925e-05
7.96144e-05
0.0197471
0.000445459
8.43961e-05
8.19362e-05
6.82046e-05
6.02328e-05
6.87397e-05
0.000105887
0.000110925
8.57048e-05
0.0257952
9.30954e-05
0.00517395
0.0212188
4.03548e-05
9.10873e-05
0.000190264
0.0179625
6.25494e-05
7.32008e-05
0.000475922
6.78624e-05
5.74927e-05
5.19911e-05
5.99157e-05
7.45938e-05
0.0150116
9.51727e-05
6.40328e-05
0.0001282
5.60977e-05
0.0214131
6.18146e-05
6.67863e-05
0.0317548
0.000104898
0.00301778
8.78386e-05
4.93497e-05
6.56023e-05
8.84856e-05
9.0394e-05
7.12864e-05
0.015598
8.77683e-05
0.00600935
0.00318015
7.36714e-05
0.0316291
8.84366e-05
6.36464e-05
6.51486e-05
0.0225948
0.01688
8.68208e-05
0.0157251
0.00501338
6.72703e-05
6.63254e-05
8.12959e-05
0.020825
0.00477544
9.27633e-05
8.82912e-05
8.92496e-05
0.000138583
7.22362e-05
0.000152822
9.51508e-05
7.94321e-05
8.49651e-05
6.40385e-05
9.02326e-05
7.25486e-05
0.000560712
8.34995e-05
6.07093e-05
0.0154617
4.6375e-05
0.00657779
8.19198e-05
8.2774e-05
8.7522e-05
0.000388958
5.80001e-05
0.000105864
0.0184029
0.00261058
8.34247e-05
8.3705e-05
7.65712e-05
8.20532e-05
8.87947e-05
7.85242e-05
5.36323e-05
0.000424614
0.000155708
6.45119e-05
0.00131629
9.19809e-05
9.11237e-05
0.000171868
7.62137e-05
0.000107754
0.00256541
5.57062e-05
0.000105103
0.000118416
9.48947e-05
6.80162e-05
6.61489e-05
6.85327e-05
0.0132689
8.48341e-05
6.1596e-05
9.74858e-05
7.14848e-05
6.63916e-05
0.000149073
0.000807412
8.16585e-05
0.0118652
9.44306e-05
0.0229888
8.91139e-05
7.39782e-05
0.00590861
6.13927e-05
7.02643e-05
5.59939e-05
5.7914e-05
8.70251e-05
8.3385e-05
0.000100752
6.79337e-05
0.000202379
7.04266e-05
0.00659897
8.21149e-05
9.12899e-05
5.06507e-05
0.000115663
7.87566e-05
0.0216893
8.32004e-05
5.66101e-05
0.0205396
8.46948e-05
0.0187383
9.13563e-05
0.000103136
7.24394e-05
6.43232e-05
8.3488e-05
0.0282722
8.99082e-05
0.000517259
0.0129363
8.20171e-05
9.49068e-05
4.42964e-05
6.42423e-05
0.00340954
4.43088e-05
0.0213071
8.97051e-05
9.59802e-05
0.000141744
0.000621729
5.65959e-05
5.91465e-05
0.000138025
6.47019e-05
7.87411e-05
8.25608e-05
7.19565e-05
9.74551e-05
5.64914e-05
0.00014462
7.91879e-05
0.014271
0.0186248
0.00264165
0.0235629
0.0149893
0.0132331
0.00239815
6.57496e-05
6.03652e-05
8.46317e-05
8.35003e-05
7.57054e-05
9.01169e-05
7.64603e-05
0.00217571
7.89545e-05
0.0104716
8.48451e-05
9.39572e-05
0.000124046
6.46818e-05
9.12075e-05
8.46008e-05
6.21223e-05
8.84747e-05
5.01553e-05
0.0324074
0.000114903
9.50858e-05
6.58666e-05
8.99852e-05
7.26686e-05
7.06532e-05
0.0236094
6.62271e-05
0.000252087
7.2468e-05
0.00314868
7.77366e-05
7.42766e-05
0.000106771
6.61809e-05
6.64312e-05
0.00320392
0.0175423
8.01955e-05
0.000115635
6.39088e-05
0.000156856
4.98572e-05
7.09292e-05
0.017807
5.97557e-05
8.68917e-05
0.000127328
0.0169205
4.98232e-05
0.003128
0.00893382
5.75801e-05
7.38134e-05
7.21463e-05
0.0134759
8.92954e-05
0.000157284
8.42814e-05
0.0305785
7.82655e-05
0.0306349
6.77074e-05
4.90341e-05
0.00360776
7.73624e-05
4.58805e-05
0.0293513
8.12375e-05
7.00823e-05
0.0123747
5.74183e-05
6.01523e-05
0.000110578
8.21412e-05
0.0240179
9.06498e-05
0.000114333
0.000181966
8.89848e-05
0.029767
7.94016e-05
0.000107482
8.48978e-05
0.0209962
0.00341279
8.85433e-05
4.99913e-05
6.18148e-05
7.97608e-05
5.00145e-05
5.59947e-05
5.93332e-05
8.39214e-05
8.8522e-05
5.56396e-05
8.12331e-05
0.000112426
0.020965
0.0219207
0.000121152
7.29058e-05
0.00366774
7.60221e-05
0.00485756
0.00193603
0.00823399
5.31843e-05
6.59334e-05
8.19313e-05
7.68958e-05
5.2901e-05
5.06196e-05
7.85425e-05
9.15433e-05
7.03383e-05
0.0133958
0.00870774
6.93701e-05
0.0280581
8.50828e-05
6.80392e-05
6.71002e-05
0.0220989
0.000100205
5.11466e-05
0.00305332
6.40162e-05
6.7248e-05
0.00290193
6.05798e-05
0.00566796
8.70822e-05
0.000103228
6.65494e-05
5.83044e-05
8.54114e-05
0.000292637
8.39379e-05
0.0221343
6.74217e-05
7.09127e-05
7.38445e-05
8.96046e-05
6.59342e-05
0.000127537
9.51593e-05
8.55039e-05
0.0242014
0.0135481
0.00020276
0.000132695
5.8944e-05
0.0238804
5.79309e-05
0.0339936
0.000103571
9.08727e-05
8.36841e-05
0.0413962
0.0184501
0.0127751
5.14789e-05
0.00504283
5.01617e-05
7.66882e-05
9.55568e-05
7.89599e-05
8.40762e-05
0.004193
0.0167423
5.81196e-05
9.29311e-05
0.0196377
4.90519e-05
5.26732e-05
0.0094704
0.0222777
8.34808e-05
4.66407e-05
8.96426e-05
8.73222e-05
6.67775e-05
7.82798e-05
8.04235e-05
8.49103e-05
0.00487192
5.15544e-05
6.70154e-05
0.00162772
6.6921e-05
0.0211441
8.80131e-05
8.46238e-05
6.49959e-05
0.0167532
0.00178705
3.86938e-05
8.52202e-05
9.02186e-05
8.69822e-05
4.96129e-05
0.0219413
6.18743e-05
7.21977e-05
0.00010052
7.26988e-05
0.00263225
0.000114059
0.00015234
0.000105541
0.00537254
0.00518944
0.0236949
0.0272363
7.75788e-05
0.00434185
5.27642e-05
0.000100704
0.000113894
0.0056933
8.79522e-05
6.16537e-05
8.69445e-05
0.00612024
8.05596e-05
0.022714
9.12407e-05
0.000121006
0.0270364
5.77854e-05
0.000135066
8.24022e-05
7.71049e-05
6.73913e-05
7.00204e-05
4.9283e-05
6.36004e-05
8.38114e-05
0.0163631
6.97291e-05
8.10078e-05
9.13271e-05
7.96317e-05
8.07479e-05
0.000124598
0.000111092
7.24126e-05
6.54154e-05
0.000130505
2.12255e-05
8.32645e-05
0.0303769
8.66107e-05
8.76187e-05
0.0162591
6.1807e-05
8.1022e-05
0.0274388
0.0220715
7.65852e-05
0.000100527
8.19757e-05
0.01347
0.000234004
8.6336e-05
0.016845
6.63181e-05
0.000115586
0.0212305
0.000302085
0.00288767
0.00247185
5.38302e-05
7.34609e-05
8.92138e-05
8.09055e-05
7.35364e-05
0.000615468
5.91591e-05
9.51752e-05
5.94054e-05
0.000104219
0.0221173
8.1917e-05
0.0153692
0.0154094
8.71296e-05
0.000115189
8.03623e-05
8.19241e-05
8.17437e-05
0.0237013
0.000110608
0.0178169
8.54256e-05
0.0330409
0.000119152
4.95377e-05
0.0034983
9.15853e-05
5.1707e-05
7.3968e-05
0.00167657
8.20374e-05
8.35927e-05
8.6998e-05
8.02933e-05
9.0437e-05
0.000101692
0.0271814
7.59549e-05
0.000329527
0.000116386
7.84702e-05
7.54744e-05
6.00593e-05
0.0120531
0.00500749
6.34331e-05
9.37364e-05
3.51689e-05
0.0010288
0.0152716
8.4097e-05
6.90869e-05
5.37425e-05
8.99087e-05
8.3899e-05
8.10688e-05
0.0134594
7.1171e-05
8.90441e-05
8.95492e-05
3.38526e-05
0.00012066
0.0224526
0.033207
8.83185e-05
6.70888e-05
6.91556e-05
8.10163e-05
0.000111166
0.0319348
0.000100074
0.000125578
8.45966e-05
9.92238e-05
9.09068e-05
3.91509e-05
8.31401e-05
0.000143315
6.32984e-05
0.000153154
4.00007e-05
6.21363e-05
8.87525e-05
0.0254025
9.68069e-05
8.22822e-05
0.0216099
0.000165122
6.58547e-05
0.00621989
7.55053e-05
8.02109e-05
0.0204823
0.0059637
6.3241e-05
7.63692e-05
0.000140455
8.76176e-05
8.52876e-05
5.62203e-05
7.5586e-05
6.57331e-05
8.25837e-05
8.8755e-05
9.55213e-05
0.0181378
8.80366e-05
8.83578e-05
9.27911e-05
0.000117172
6.49622e-05
8.66046e-05
0.00117569
0.000344509
0.0188921
7.95637e-05
5.58631e-05
0.021821
6.97729e-05
0.00113042
8.60724e-05
9.14657e-05
8.14217e-05
6.98538e-05
0.0034148
8.75934e-05
7.89357e-05
8.99606e-05
0.0441859
0.00561258
0.020418
7.04203e-05
7.39755e-05
0.0034063
5.21373e-05
5.44743e-05
0.000156594
0.00484429
8.54528e-05
9.18742e-05
8.53119e-05
0.015973
8.1039e-05
7.58887e-05
9.07244e-05
5.57785e-05
0.000338921
8.05949e-05
6.55863e-05
0.00576205
0.000104014
0.035149
0.000376613
7.92717e-05
9.10186e-05
6.66288e-05
6.54042e-05
7.35627e-05
8.29913e-05
8.12499e-05
0.000269918
8.39102e-05
0.000109529
6.71947e-05
6.02094e-05
8.75392e-05
5.04048e-05
6.75675e-05
0.0243195
4.97637e-05
0.00290374
0.000109741
8.37928e-05
0.000100251
9.19136e-05
9.10513e-05
7.94665e-05
6.45072e-05
6.85343e-05
6.19059e-05
0.00396968
8.33134e-05
6.00461e-05
6.21544e-05
6.43649e-05
5.18851e-05
0.000107444
7.30506e-05
0.0233454
9.55188e-05
5.8511e-05
8.40512e-05
6.00645e-05
9.51774e-05
5.07394e-05
0.0169334
7.48663e-05
0.00250952
5.93834e-05
0.000128037
7.81269e-05
0.02074
5.92948e-05
4.96272e-05
8.51532e-05
0.000772664
6.04407e-05
0.0244516
7.66168e-05
6.2993e-05
0.000160833
0.00241426
0.0136881
0.00014861
8.73005e-05
0.000215705
5.05691e-05
5.56288e-05
0.0211
8.5555e-05
5.12625e-05
0.0195701
5.93164e-05
0.0251645
0.000130909
7.22365e-05
8.38522e-05
5.58686e-05
0.0310418
5.1509e-05
5.61296e-05
0.000113471
7.92684e-05
6.61858e-05
4.9525e-05
5.49808e-05
9.76463e-05
8.63626e-05
7.25147e-05
6.47966e-05
0.00834147
0.000112138
6.52738e-05
6.54424e-05
8.33277e-05
8.33701e-05
8.95907e-05
7.12165e-05
6.13886e-05
8.6863e-05
7.74303e-05
8.10094e-05
8.19493e-05
9.96364e-05
5.98321e-05
0.000115819
7.31782e-05
8.83306e-05
6.29926e-05
8.13526e-05
7.18156e-05
5.02316e-05
8.85383e-05
7.79746e-05
9.11961e-05
0.0395712
2.57053e-05
0.0304702
0.0227805
0.00011621
0.0242382
7.39887e-05
8.19095e-05
0.00361376
0.0328322
5.20163e-05
0.020352
6.12894e-05
0.000154111
0.00246785
8.88999e-05
0.000117448
0.030616
0.0268825
5.94965e-05
9.8425e-05
6.95481e-05
0.00180493
8.88898e-05
0.0271934
0.0135199
8.21392e-05
9.28706e-05
0.00256712
5.73323e-05
0.0135907
0.00338508
8.25808e-05
7.15961e-05
0.00145597
0.0223148
5.55129e-05
9.30915e-05
7.70096e-05
0.00112221
0.000171725
7.91533e-05
6.31909e-05
0.0107379
6.49441e-05
8.74915e-05
8.70413e-05
6.37851e-05
0.010341
7.84203e-05
8.97922e-05
0.0247343
8.27355e-05
9.74413e-05
8.93086e-05
0.00120994
9.89206e-05
0.00144782
6.25693e-05
9.01099e-05
4.96696e-05
6.27233e-05
9.15524e-05
7.9247e-05
0.0154549
8.19345e-05
6.41908e-05
7.64154e-05
0.0031878
7.11641e-05
0.00732063
0.0226731
0.00975021
7.08633e-05
6.40712e-05
8.05117e-05
0.00421067
7.90217e-05
0.0183558
5.9642e-05
0.00282434
8.16944e-05
6.19027e-05
0.00226624
7.8244e-05
5.70938e-05
0.0215517
0.000142375
0.0242518
6.17949e-05
0.0268444
0.011621
7.64076e-05
0.0220567
7.67951e-05
7.80119e-05
0.0254789
7.83094e-05
8.6768e-05
0.0175873
8.26558e-05
0.000107755
8.80462e-05
0.0140014
8.61563e-05
0.00754042
8.09569e-05
0.0166463
8.69367e-05
8.87972e-05
7.21622e-05
0.00646606
6.45073e-05
2.72616e-05
0.000101603
0.029118
7.90401e-05
8.42842e-05
0.0288715
0.000754857
0.0129278
0.000112878
6.27642e-05
0.000142053
0.00175366
7.995e-05
0.00904835
4.9171e-05
0.000186825
0.0140344
6.44964e-05
0.0153824
8.43345e-05
0.0253995
0.0083146
8.3658e-05
7.36513e-05
0.00706243
0.00757158
8.95528e-05
8.58827e-05
6.37388e-05
7.77291e-05
0.0223584
0.000103852
0.00204168
6.97596e-05
8.70212e-05
0.0256605
6.2218e-05
0.00174984
0.0113486
7.79098e-05
8.56433e-05
0.000268683
0.0289464
0.0221707
0.00372925
0.000275579
8.91385e-05
8.64841e-05
0.0277766
0.0223139
0.00288535
7.13811e-05
0.000115076
9.48078e-05
0.000107193
8.07973e-05
9.15512e-05
0.000100651
0.000154842
0.00778369
5.78362e-05
0.0202278
0.0240695
8.85337e-05
8.75173e-05
8.73373e-05
0.000304097
6.37944e-05
0.0313731
8.70021e-05
5.20244e-05
0.000367605
2.30783e-05
6.49481e-05
9.15797e-05
9.08257e-05
8.1327e-05
0.0304836
6.0972e-05
0.0319625
6.16918e-05
0.0228457
0.00419768
0.000284677
5.00617e-05
8.48773e-05
8.29742e-05
0.000209488
0.00014455
0.000108844
0.0225125
0.000533122
4.42901e-05
8.5647e-05
6.20378e-05
0.000159129
0.0145289
4.84716e-05
6.43218e-05
8.34734e-05
0.00848267
0.000263689
6.23926e-05
9.48747e-05
0.000356912
7.0456e-05
3.11783e-05
8.08472e-05
0.031603
7.7983e-05
0.00560887
0.0191389
8.95782e-05
8.01768e-05
0.00855808
7.50491e-05
8.99568e-05
0.0192108
9.3453e-05
0.000116812
9.41996e-05
0.000103572
0.0277777
0.0263429
8.7475e-05
0.00761498
0.000428563
5.95351e-05
0.000166229
0.000106512
0.000140393
0.013861
0.00338074
0.00343883
0.000138202
0.0195723
8.56288e-05
0.000109209
4.53234e-05
8.78612e-05
8.12682e-05
6.85582e-05
0.00246327
0.000152072
4.94435e-05
8.70124e-05
0.000232063
7.49302e-05
0.0034502
0.0237405
4.47686e-05
7.88822e-05
4.59471e-05
7.93746e-05
9.75779e-05
8.60883e-05
0.0275924
9.06625e-05
0.000107819
8.00537e-05
0.000106113
8.57441e-05
8.15908e-05
0.0236693
8.09944e-05
7.96072e-05
4.91507e-05
6.22137e-05
0.0285893
0.000129605
8.39998e-05
0.0397294
6.99417e-05
7.69894e-05
8.33961e-05
6.1715e-05
5.91234e-05
0.000108661
8.72425e-05
0.0194699
0.0353465
0.0422712
9.00409e-05
0.0567582
7.92695e-05
0.00412905
6.44536e-05
0.000180165
0.039607
7.17935e-05
0.00636548
0.0195272
8.54157e-05
7.70171e-05
5.18866e-05
8.48245e-05
0.0212615
6.33367e-05
8.66847e-05
6.93092e-05
7.89914e-05
0.000266091
8.51456e-05
8.68079e-05
7.67064e-05
6.57445e-05
0.00920841
9.08492e-05
7.57999e-05
0.00015981
0.000222874
0.0275579
0.00299301
7.70315e-05
7.76219e-05
0.0192118
8.04181e-05
0.000106776
8.91652e-05
0.0225565
6.64239e-05
7.14079e-05
7.54833e-05
0.0217971
8.61697e-05
6.23327e-05
5.89953e-05
0.000183314
0.0128004
0.000149398
9.02649e-05
7.83627e-05
6.99548e-05
0.0246238
4.90358e-05
0.0126171
0.000103379
7.02376e-05
0.000745977
8.22064e-05
0.000329313
9.08785e-05
5.45371e-05
8.75516e-05
8.70655e-05
0.000157406
8.65634e-05
7.87544e-05
6.61931e-05
0.0232232
7.1601e-05
8.61219e-05
0.0258704
8.14682e-05
6.40581e-05
8.75838e-05
6.66141e-05
6.22837e-05
0.00708528
9.09451e-05
0.0301921
0.00334189
4.91572e-05
0.00522078
8.16449e-05
0.000137188
9.48524e-05
8.49092e-05
5.03672e-05
4.88661e-05
8.55516e-05
0.00661415
9.88685e-05
0.0241747
0.0208395
6.87381e-05
5.57166e-05
8.91724e-05
0.00936632
8.43449e-05
0.00368653
0.02681
0.0204278
6.43531e-05
8.56735e-05
8.46338e-05
0.00143401
0.0282946
5.18918e-05
8.87144e-05
9.07854e-05
0.0269568
8.64827e-05
8.60902e-05
7.89463e-05
0.000151648
0.00730001
5.99101e-05
0.022008
7.86528e-05
8.72107e-05
0.0181242
0.000103009
0.00743878
0.0027443
8.58146e-05
7.82474e-05
8.70313e-05
8.18653e-05
7.87058e-05
0.000101408
9.2111e-05
6.16139e-05
8.78954e-05
0.000800956
0.0374529
6.31479e-05
0.000140485
0.0561236
0.00737046
6.13727e-05
8.37857e-05
0.00398719
0.0159707
0.000172269
7.06436e-05
0.0508478
0.000109277
4.93979e-05
0.0178756
8.52243e-05
7.60038e-05
0.00148591
7.167e-05
6.77906e-05
6.36292e-05
4.83797e-05
7.10888e-05
5.88913e-05
0.0230246
4.99265e-05
7.45225e-05
0.00011398
9.10249e-05
7.9783e-05
0.000171602
7.8628e-05
8.99573e-05
8.2362e-05
8.17091e-05
0.00278586
0.00249261
0.0063694
0.00574146
8.05729e-05
0.0061857
8.21996e-05
0.0229448
0.0485158
0.0226885
6.69087e-05
8.24149e-05
8.49739e-05
7.6141e-05
6.1942e-05
6.10167e-05
0.000261938
0.000104883
8.76659e-05
7.43929e-05
8.59808e-05
0.000103674
8.56075e-05
7.80083e-05
7.77887e-05
0.0260992
8.75958e-05
0.012603
9.02812e-05
0.00380804
7.89823e-05
7.09084e-05
7.4881e-05
9.69038e-05
7.19044e-05
0.000119519
0.0224758
8.98865e-05
0.0210835
0.00714833
7.98606e-05
8.71724e-05
0.00498689
0.000146024
5.03559e-05
6.15165e-05
4.89968e-05
0.0209886
4.79171e-05
0.000132311
7.42026e-05
0.000113258
0.0296446
0.0280666
0.000106951
0.031038
5.50846e-05
5.86495e-05
0.000318292
0.0166594
8.08462e-05
8.83931e-05
0.00114431
7.14385e-05
0.000295907
8.15139e-05
4.74553e-05
8.29399e-05
8.5347e-05
0.000109155
0.0218959
0.0202828
8.77745e-05
6.41406e-05
0.000111222
8.40853e-05
0.000111888
6.83891e-05
0.000175178
0.000126404
7.82688e-05
7.57824e-05
4.95851e-05
0.000157417
8.6169e-05
0.000277095
0.0108319
8.70738e-05
0.0188646
0.000113122
0.000144064
0.0242333
7.96492e-05
0.02122
8.37547e-05
0.0260108
0.00307494
0.0207459
0.0232315
5.88078e-05
9.83264e-05
0.000323963
7.08969e-05
0.0174787
7.83933e-05
8.37192e-05
9.03595e-05
8.55487e-05
9.19638e-05
0.00137614
0.00940355
0.0289496
8.71649e-05
8.9203e-05
8.17169e-05
6.99425e-05
8.8678e-05
0.000168199
0.000121917
0.0381619
9.31157e-05
4.97442e-05
6.42394e-05
7.45645e-05
0.000359443
8.04082e-05
7.41015e-05
8.49783e-05
0.000118123
9.21907e-05
8.7662e-05
8.14705e-05
0.0220368
8.68344e-05
9.24471e-05
8.46785e-05
9.05512e-05
0.00625663
0.000205752
9.14935e-05
6.14813e-05
0.0193359
9.05073e-05
7.0426e-05
9.68216e-05
0.0240639
0.00553326
8.60959e-05
7.134e-05
0.0233819
7.84992e-05
7.07324e-05
4.98772e-05
0.0212894
0.0101774
7.38348e-05
0.0152051
0.0204093
8.75967e-05
8.14867e-05
0.000101088
0.0319201
8.7317e-05
0.027857
7.79802e-05
5.06657e-05
6.18757e-05
0.0285257
9.15372e-05
6.13586e-05
0.0261077
8.24705e-05
8.15031e-05
0.0217006
0.0176626
9.54231e-05
0.00840524
9.03765e-05
8.58501e-05
0.0139021
7.0979e-05
7.88311e-05
8.85283e-05
9.47988e-05
8.40091e-05
8.12643e-05
9.30654e-05
0.00236128
0.0112822
8.64973e-05
0.017783
8.85317e-05
0.0247165
0.0213096
8.72545e-05
8.56812e-05
9.00459e-05
0.00053026
0.000261632
0.000106023
0.0236503
0.0216473
0.000478863
6.44854e-05
0.0155681
0.0180706
8.42632e-05
0.00965714
7.79615e-05
7.09641e-05
8.99576e-05
7.86698e-05
8.02268e-05
9.27343e-05
0.0205969
7.97882e-05
0.00344718
0.0160615
0.0141809
0.0407799
0.0278186
7.80355e-05
0.0295919
0.000139981
0.000113398
6.38571e-05
7.1414e-05
0.000108708
0.0190371
7.21705e-05
0.0209888
0.0269152
6.69644e-05
8.59014e-05
6.15687e-05
0.00011923
7.84661e-05
0.000110101
0.02138
6.26988e-05
8.81487e-05
6.71327e-05
8.38005e-05
0.000132938
0.0218158
8.62707e-05
0.0183738
0.00014338
7.64689e-05
0.00344543
0.000162794
5.60264e-05
0.00534948
0.0100168
0.0364255
0.0153181
0.0200397
7.11632e-05
0.014885
0.0228197
0.000195538
0.0192482
6.24063e-05
8.08134e-05
8.34858e-05
8.95403e-05
0.0229801
0.000105437
8.51852e-05
8.68278e-05
0.00451126
0.022833
6.42639e-05
5.08812e-05
0.0313074
0.0274686
8.7717e-05
8.46485e-05
0.000136921
8.36013e-05
8.74181e-05
0.0373247
7.45189e-05
0.000518474
0.00357299
0.024174
7.16926e-05
0.000107822
0.000187933
6.99405e-05
4.90477e-05
0.0408835
0.0221271
7.01578e-05
8.14872e-05
0.000213484
0.000322103
0.0295019
0.0134698
8.53035e-05
0.00294238
0.00384975
8.99228e-05
7.68571e-05
0.000104459
5.81829e-05
4.94666e-05
0.0193127
8.85499e-05
0.000126284
8.80823e-05
7.04852e-05
6.40546e-05
5.73282e-05
8.62793e-05
8.61504e-05
0.0180026
8.80665e-05
0.0100612
0.0159142
9.27501e-05
0.0001102
0.0222438
0.0274536
0.019302
4.97003e-05
8.8299e-05
9.02602e-05
8.50616e-05
0.000277834
0.0035065
8.67517e-05
0.0087507
0.0225111
8.46769e-05
0.000127087
0.000113168
0.000134952
0.000144411
8.62403e-05
0.000159075
0.000174842
0.000195636
0.000223184
0.000148779
0.00011824
7.31498e-05
7.44477e-05
9.12155e-05
0.000126287
7.27719e-05
0.00500664
0.0305643
0.000380904
0.0254057
4.92224e-05
6.07893e-05
6.28725e-05
0.0190756
8.62166e-05
8.03667e-05
0.00010812
0.0536154
0.00161052
7.89355e-05
8.20061e-05
8.70129e-05
0.0222489
0.00408831
9.03307e-05
0.0043937
0.0228278
0.000135393
0.0274167
0.000127583
0.00358049
0.0300935
4.42204e-05
0.0296465
0.0248603
8.12593e-05
0.000107142
0.00012911
7.77462e-05
6.38813e-05
0.000637731
0.0152211
5.7728e-05
5.79014e-05
0.0311147
0.00733774
0.000113073
8.08048e-05
0.000751752
0.000168237
0.0268077
0.0212262
8.60562e-05
8.58415e-05
8.59881e-05
7.38216e-05
0.0267528
0.0012913
0.0233484
0.000121185
0.00279299
0.00241763
7.18797e-05
7.14232e-05
0.0228058
6.19632e-05
0.0286227
4.74481e-05
0.0277627
8.61148e-05
7.84243e-05
0.0010506
7.21369e-05
0.000146718
0.00810072
9.46787e-05
7.85485e-05
8.61128e-05
0.00025057
0.0197431
0.000192793
0.0257654
8.0487e-05
6.71008e-05
8.98437e-05
0.000111396
0.0312649
0.0393578
0.000127784
0.000385217
0.000161439
0.0161031
4.57362e-05
6.10969e-05
6.28907e-05
6.39729e-05
0.00228704
0.000103379
0.00550283
8.99069e-05
0.000197289
7.13544e-05
0.00310202
0.00120126
0.0204782
8.98501e-05
8.56441e-05
4.85178e-05
0.0241615
2.64028e-05
0.00980714
0.00190926
0.000157835
0.00196066
4.92865e-05
9.3621e-05
0.000186945
0.00275944
0.00687359
8.24624e-05
0.000174535
7.67348e-05
6.68807e-05
0.000130938
0.00454969
0.0129082
7.5988e-05
0.000118206
0.000697959
0.0470304
0.0159487
0.0262046
0.0248001
6.56961e-05
0.000102448
6.92766e-05
0.000181021
6.32493e-05
0.000142597
7.64535e-05
9.71631e-05
0.00260317
0.00775798
8.31592e-05
0.000129486
0.0249001
0.000153188
7.74064e-05
0.0179217
0.000142578
6.27673e-05
6.80499e-05
0.0235899
8.83203e-05
0.000164963
0.00537049
0.00499742
0.0166695
7.46922e-05
0.0212554
0.0223043
0.00349687
0.000631347
9.02154e-05
0.000143473
0.000132845
0.0252375
9.6897e-05
8.60152e-05
0.00971901
8.60527e-05
0.00381012
8.42069e-05
0.0234026
0.00831086
0.011745
9.14418e-05
0.0277868
8.34787e-05
0.0202454
0.000192915
0.0121402
0.0140753
7.12939e-05
4.8051e-05
0.02208
0.0290922
6.77064e-05
8.53707e-05
9.05374e-05
7.95363e-05
0.020692
0.000103561
0.0248081
8.47744e-05
0.024681
0.000161992
0.0107472
8.5822e-05
0.00138958
0.0291064
8.52125e-05
0.00012196
4.95693e-05
8.75278e-05
8.64947e-05
0.00273081
7.4694e-05
8.90066e-05
0.0296491
0.0166158
6.33994e-05
0.0303205
8.42516e-05
7.16627e-05
8.08821e-05
6.36225e-05
8.73572e-05
0.00577865
0.0297813
6.02234e-05
0.00250418
0.00010924
9.93359e-05
0.00957698
0.000122784
8.49069e-05
9.35124e-05
8.36264e-05
0.00266703
8.16541e-05
0.0307137
8.54515e-05
0.0208657
0.00786856
0.000108766
0.0107474
0.024506
6.67965e-05
0.0190138
9.98935e-05
0.00010723
7.93177e-05
7.17664e-05
7.45746e-05
0.00026881
8.63463e-05
0.000226258
8.83949e-05
0.024824
0.00019246
0.0247572
0.000245754
0.000232208
0.0291873
8.05296e-05
6.30158e-05
0.000106651
8.32175e-05
8.59477e-05
8.61873e-05
8.46521e-05
7.08733e-05
7.91047e-05
8.3053e-05
9.01359e-05
8.3418e-05
8.37429e-05
7.93001e-05
8.08212e-05
0.000136616
8.36587e-05
0.0259937
8.40672e-05
7.94107e-05
0.000129596
9.72699e-05
7.51117e-05
7.00173e-05
0.00155749
9.11497e-05
0.0219902
9.07113e-05
0.00014955
8.22967e-05
7.03973e-05
0.000128737
0.0309962
0.000111614
8.63571e-05
5.24861e-05
0.0270384
8.6813e-05
7.77838e-05
0.000116325
8.85903e-05
0.000192317
0.0249294
0.000134068
0.000268056
9.05236e-05
0.0167054
7.43098e-05
8.34446e-05
0.000102991
0.00310007
0.000104855
0.000134345
0.0251323
8.44007e-05
8.32536e-05
8.9713e-05
0.000709056
0.00010467
8.66099e-05
0.000137836
0.000133827
0.000105804
8.82361e-05
8.91883e-05
0.00034045
0.000104653
0.0113663
0.00451859
7.76409e-05
0.00011087
8.74359e-05
9.79779e-05
0.0152012
8.0325e-05
0.000218472
8.34519e-05
0.000118072
0.0130544
8.62528e-05
7.27862e-05
8.15254e-05
0.0291362
0.000371967
8.17106e-05
0.000127949
0.000148126
8.7238e-05
7.24591e-05
0.000674331
0.0298829
0.000330506
0.0241431
0.000205385
9.29818e-05
0.00594505
0.000161443
9.23405e-05
0.00938847
0.000126027
0.0110053
8.29393e-05
0.000134447
0.000177864
8.23975e-05
0.00255901
9.05405e-05
0.000115639
8.48403e-05
0.000200117
7.11507e-05
0.0200034
9.07587e-05
6.7311e-05
6.06165e-05