/*--------------------------------*- C++ -*----------------------------------*\
| =========                 |                                                 |
| \\      /  F ield         | OpenFOAM: The Open Source CFD Toolbox           |
|  \\    /   O peration     | Version:  v2012                                 |
|   \\  /    A nd           | Website:  www.openfoam.com                      |
|    \\/     M anipulation  |                                                 |
\*---------------------------------------------------------------------------*/
FoamFile
{
    version     2.0;
    format      ascii;
    class       volScalarField;
    location    "250";
    object      nut;
}
// * * * * * * * * * * * * * * * * * * * * * * * * * * * * * * * * * * * * * //

dimensions      [0 2 -1 0 0 0 0];


internalField   nonuniform List<scalar> 
13917
(
0.00348086
0.000469103
0.0016397
0.000450721
0.000451971
0.000468311
0.000455956
3.75599e-05
0.000455528
0.000590987
0.000664195
0.000448834
0.000471953
0.020732
0.000453773
0.00222094
0.000438914
0.000532083
0.000625131
0.00206764
0.000462711
0.000444606
0.000476067
0.000444545
0.000451405
0.000465542
0.00813619
0.000273848
0.000482582
0.000427244
0.000235561
0.000508218
0.000450007
0.00945801
0.000440225
0.00198269
0.000450582
0.000459553
0.000456166
0.000468791
0.000431933
0.000437052
0.000454169
0.000604001
0.000602965
0.00266036
0.000460777
0.00228341
0.0109264
0.000440025
0.000448954
0.000650888
0.000545408
0.000446963
0.000447378
0.000644408
0.000160368
0.000476276
0.000436925
0.00276184
0.0149263
0.00043988
0.000427174
0.000450939
0.0115064
0.000269843
0.000490235
0.000676291
0.000818803
0.0030305
0.00956496
0.00838952
0.000452068
0.000436501
0.00046429
0.000451506
0.00044779
0.00043627
0.000451058
0.000450209
0.000446912
0.000440139
0.000450773
0.00968636
0.000445645
0.000117928
0.00050389
0.000446381
0.000468511
0.000437827
0.000434128
0.000454459
0.0097718
0.000438559
0.000447884
0.000490779
0.00369343
0.000442012
0.000446607
0.000791455
0.000429665
0.000429401
0.000446987
0.0004396
0.000447674
0.00972386
0.00820346
0.000465792
0.000437848
0.00921068
0.000451167
0.00996815
0.000482009
0.0026511
0.0113372
0.000451643
0.0006023
0.000432624
0.000942575
0.000451073
0.000438746
0.000436112
0.000504935
0.000570538
0.0037282
0.0104056
0.000450945
0.000466401
0.000440965
0.000572062
0.00046253
0.00146919
0.0131081
0.000451396
0.000531109
0.00957166
0.0163363
0.00400435
0.000468695
0.000469119
0.0165722
0.000436172
0.00942764
0.000443663
0.000450664
0.000454527
0.00941616
0.00735995
0.00228268
0.000446962
0.00046459
0.000429263
0.00045003
0.000451416
0.00554742
0.000444666
0.000439332
0.0131725
0.000435089
0.000433167
0.000444815
0.0116722
0.00045255
0.015197
0.0113739
0.00877704
0.000341
0.00921225
0.000426027
0.000472023
0.000444571
0.0129642
0.000455484
0.0151913
0.000517077
0.000430521
0.00045083
0.000660267
0.000461781
0.000453216
0.000453779
0.000444259
0.000448688
0.0013265
0.00098129
0.00155317
0.000448632
0.00293315
0.000427282
0.000497329
0.0005165
0.00057955
0.000725377
0.00357462
0.000438723
0.00390241
0.000454396
0.0130281
0.000439645
0.000444501
0.000458107
0.0030782
0.00285985
0.000449857
0.00856808
0.00046436
0.000465672
0.000436193
0.00066354
0.00044683
0.000440195
0.000467668
0.000511793
0.00243113
0.000526391
0.000468294
0.0119697
0.000447644
0.000433341
0.000433227
0.00763365
0.000924938
0.00218006
0.00044927
0.000424557
0.0101799
0.00285014
0.000433208
0.000433224
0.000432198
0.000433227
0.000433145
0.00755641
0.00515174
0.000445688
0.00042615
0.000527618
0.00739009
0.000435084
0.000449194
0.00907079
0.00962703
0.0023561
0.0119306
0.000580246
0.000443912
0.0102692
0.000532903
0.000477299
0.000526795
0.000449696
0.00433772
0.000450774
0.000471635
0.000503403
0.000445753
0.000435272
0.000451119
0.000449657
0.000439181
0.00665988
0.0180936
0.000436611
0.000433318
0.000445003
0.000433377
0.00045139
0.000463119
0.000466574
0.000436763
0.00584708
0.00903756
0.00044773
0.00044766
0.00597013
0.000431774
0.000541201
0.00820684
0.00043187
0.00490915
0.00043882
0.0116073
0.000430061
0.000451793
0.000445924
0.000443283
0.00077882
0.000446219
0.00153538
0.000456741
0.0180096
0.000464543
0.00618471
0.00377857
0.00043368
0.000484702
0.000449997
0.000451689
0.000450553
0.00045105
0.000438466
0.000444478
0.000657094
0.000229971
0.000470715
0.000450875
0.000448933
0.013154
0.00190463
0.000440459
0.000424527
0.000451981
0.00418817
0.000654695
0.00961873
0.0149792
0.000521242
0.000240977
0.000447329
0.00907559
0.00667035
0.00148415
0.000463296
0.000453039
0.00773016
0.000444687
0.000475945
0.000577893
0.000437381
0.0129265
0.000445807
0.000471546
0.000431146
0.000481371
0.000440413
0.000468028
0.000466077
0.000480073
0.000436593
0.000526872
0.00899844
0.000447812
0.000444727
0.0108851
0.00916163
0.0116968
0.0206335
0.000431863
0.000445949
0.00982206
0.00249494
0.000432013
0.000451885
0.000447798
0.000493622
0.00046933
0.000632044
0.000569935
0.000544119
0.000471012
0.00770705
0.000441005
0.000447893
0.000460756
0.0010456
0.000436021
0.00267517
0.000470922
0.00971892
0.000447401
0.000635509
0.000419733
0.00571249
0.000437059
0.00207049
0.00511156
0.000469051
0.000447782
0.00690023
0.00043138
0.0116338
0.000789814
0.000437119
0.00698446
0.000446357
0.00952032
0.000437294
0.00265086
0.00993501
0.000450427
0.0107993
0.000542372
0.000449186
0.0121092
0.00116966
0.000449963
0.000773178
0.000446067
0.000554354
0.00148437
0.000445846
0.000455758
0.000450872
0.000443369
0.000442202
0.000441331
0.0170492
0.00408888
0.000447617
0.000441213
0.000444279
0.00048344
0.00211267
0.000431373
0.00042623
0.000651785
0.00062122
0.000443244
0.000450241
0.013918
0.00799992
0.000902722
0.000646415
0.0080245
0.000433819
0.000431448
0.000458859
0.0004421
0.000431461
0.000445782
0.00043155
0.000433623
0.00867943
0.000446223
0.000472663
0.00683736
0.000484171
0.000440068
0.000449963
0.0119045
0.000458275
0.00268847
0.000431212
0.000448216
0.00043168
0.000433131
0.000450335
0.000446468
0.0138858
0.000437183
0.010066
0.000448187
0.000464887
0.000426899
0.000446718
0.000575363
0.0119634
0.000447793
0.0129604
0.000440252
0.000442837
0.00044406
0.000446411
0.000439761
0.000447108
0.0131293
0.0149011
0.000439788
0.00712564
0.000644248
0.000450071
0.000491245
0.000517184
0.0116208
0.000456601
0.00989615
0.0110948
0.0117863
0.000446421
0.000233377
0.000402896
0.000449238
0.00893874
0.000434183
0.000446746
0.000447964
0.000455743
0.000461979
0.000828138
0.000487049
0.000431946
0.000448477
0.000516388
0.000490441
0.000447545
0.0211796
0.000465639
0.000456863
0.012503
0.000445724
0.000493765
0.000755535
0.000440919
0.012644
0.000443137
0.000433074
0.000484282
0.000431361
0.000446407
0.000645037
0.013296
0.0117924
0.000444789
0.000451387
0.000440329
0.00833728
0.01132
0.000447319
0.000447219
0.000444787
0.000495548
0.00390911
0.000440737
0.000435973
0.000444105
0.000443405
0.000446957
0.000457345
0.000434774
0.000488005
0.00044094
0.000444585
0.000450768
0.0096356
0.000434948
0.00045308
0.000439182
0.000463767
0.000508116
0.000504344
0.000508133
0.00112179
0.000450173
0.000506808
0.0128963
0.00831959
0.00840154
0.000439968
0.000443794
0.000452157
0.000448117
0.0115503
0.000431814
0.0124383
0.000454129
0.0121547
0.000520674
0.00045408
0.00310343
0.000439516
0.000500385
0.000442303
0.000439518
0.0124652
0.000431285
0.00113817
0.000425804
0.000454676
0.000443929
0.000779335
0.000446695
0.000433497
0.000606402
0.000489572
0.0149303
0.00861112
0.0131993
0.0115469
0.000434991
0.00294822
0.000428186
0.0156526
0.0104695
0.000440512
0.000379025
0.00043035
0.000464822
0.000453664
0.000431416
0.000442381
0.000462894
0.00772103
0.00044534
0.00049687
0.000446744
0.000433475
0.000434092
0.00270035
0.0104209
0.00162829
0.000516464
0.000457065
0.00545518
0.00801631
0.000437465
0.0105087
0.00046519
0.000572374
0.000447987
0.00631093
0.000443259
0.000446671
0.0004506
0.0141333
0.000466887
0.01183
0.000435294
0.000464674
0.000440425
0.000424647
0.00843278
0.00554153
0.000440573
0.000664707
0.000448888
0.000439002
0.000427038
0.00961409
0.000445198
0.00045119
0.000431673
0.000440683
0.00105492
0.000427383
0.00063701
0.000441135
0.000440592
0.015483
0.000499952
0.000447137
0.00050709
0.00107801
0.00171704
0.000780304
0.000439513
0.000454689
0.00856159
0.00134858
0.000457478
0.000450649
0.000446584
0.000439973
0.000441844
0.000688615
0.000519093
0.000453101
0.0124564
0.000467084
0.00493328
0.0119768
0.000231504
0.000465583
0.000701629
0.00582885
0.00043867
0.000469489
0.00322766
0.000440803
0.000436599
0.000434157
0.00044343
0.000446555
0.00312893
0.000464632
0.000439711
0.00056009
0.000435414
0.0103801
0.000438761
0.000440779
0.0131369
0.000501013
0.00799954
0.000450601
0.000431103
0.000440206
0.00045116
0.000457692
0.000442911
0.00320556
0.000459061
0.010568
0.00868272
0.000475089
0.0131996
0.000451245
0.0004416
0.000440761
0.00895551
0.0110687
0.000454784
0.00337305
0.0068163
0.000440477
0.00044051
0.000450241
0.00957587
0.0116078
0.000466903
0.000451058
0.000452984
0.000580289
0.000446786
0.000630352
0.000464743
0.00044778
0.000450222
0.000442097
0.000457498
0.000448327
0.0013349
0.0004521
0.000441715
0.00326923
0.000430587
0.00880613
0.000450468
0.000461262
0.00045432
0.00121638
0.000438375
0.000494343
0.0100116
0.0100383
0.000448191
0.000452296
0.000451608
0.000447697
0.000450672
0.000459914
0.000424531
0.00319408
0.000637827
0.000439177
0.00176959
0.000455372
0.000455667
0.000674733
0.000445925
0.000500143
0.00278094
0.000433818
0.000501294
0.000543375
0.000464571
0.000441189
0.000439995
0.000441713
0.00221818
0.000449935
0.0004389
0.000471066
0.000442995
0.000440268
0.000619708
0.00165771
0.000481014
0.00927685
0.000487042
0.00994573
0.000450761
0.000448312
0.00447681
0.000440936
0.000519489
0.000437243
0.000436888
0.000450007
0.000452551
0.000508381
0.000441152
0.000645742
0.000443474
0.0111614
0.000450482
0.000456472
0.000431391
0.000528685
0.00045208
0.0116574
0.000492714
0.000438768
0.00943335
0.000450207
0.00596257
0.000453516
0.000505154
0.000446357
0.000439364
0.000448394
0.0128068
0.000457254
0.00213361
0.010401
0.0004476
0.000464757
0.000426011
0.000441997
0.00834167
0.000426206
0.0098551
0.000453234
0.000448202
0.000596583
0.00141214
0.000434598
0.000437384
0.000605633
0.000439206
0.000446824
0.000449847
0.000443601
0.000470999
0.000434558
0.000548004
0.000447659
0.0030835
0.00575806
0.00336705
0.0102453
0.0114146
0.00219165
0.00347558
0.000439695
0.000438469
0.000448941
0.000449537
0.000444781
0.000457545
0.000445237
0.00250159
0.000446774
0.00618496
0.000449755
0.00046082
0.000564029
0.000439591
0.000472699
0.000450176
0.000440665
0.000455023
0.000431384
0.0132485
0.000529769
0.00109731
0.000440257
0.00045074
0.000444567
0.00044378
0.0121253
0.000439952
0.00327895
0.000443294
0.0102641
0.000451088
0.000444316
0.000496518
0.000441096
0.000440037
0.00901598
0.00986135
0.000449984
0.000527983
0.00043877
0.000701588
0.000431528
0.000443797
0.00625608
0.00043867
0.000450736
0.000556974
0.00542642
0.000430883
0.00453046
0.00574186
0.000437428
0.000446266
0.000443732
0.00733562
0.000450643
0.000631681
0.000449085
0.0128257
0.000451727
0.0142539
0.000441392
0.000430013
0.0114309
0.000449452
0.000429277
0.0125849
0.000449292
0.000441975
0.0146243
0.00043749
0.000438231
0.00051715
0.000449796
0.0117119
0.000469438
0.000516903
0.000660632
0.000453012
0.0127281
0.000447973
0.000508452
0.000448655
0.00714384
0.0107687
0.000450636
0.000431253
0.000439487
0.000447392
0.000431643
0.000434781
0.000436998
0.000448634
0.000457619
0.000433903
0.000449175
0.000516632
0.0105099
0.0117251
0.00054187
0.000444592
0.0114231
0.000444917
0.00374479
0.00424678
0.000305671
0.000432644
0.000439736
0.000448351
0.000445761
0.000432441
0.000431626
0.000445991
0.000467049
0.000442103
0.00103788
0.0104271
0.000441707
0.0127204
0.000448907
0.000441514
0.000464536
0.0100965
0.000498771
0.000433475
0.00796497
0.000439258
0.000441089
0.00256303
0.000438699
0.00508185
0.000450852
0.000482186
0.000440409
0.000436452
0.000458856
0.00176794
0.000450032
0.00926143
0.000430618
0.000446738
0.000446477
0.000450758
0.000440031
0.000555347
0.000463871
0.000452887
0.0100947
0.00157883
0.00143763
0.000567248
0.000436759
0.00941211
0.000436196
0.0151528
0.000501667
0.000456003
0.000449867
0.0154147
0.0124433
0.00667052
0.000446987
0.00882229
0.000431643
0.000445409
0.00046501
0.000447505
0.000449066
0.00362914
0.00500787
0.000436376
0.000457344
0.00719302
0.000425638
0.000432214
0.0133645
0.0113045
0.000449429
0.000428149
0.000455549
0.000449658
0.000440875
0.000458377
0.000451248
0.000448846
0.00876935
0.000446119
0.000239215
0.00438374
0.000434494
0.00746366
0.000450511
0.00044966
0.000275639
0.00534632
0.00613071
0.000388248
0.000460068
0.000451683
0.000450784
0.000430965
0.0117898
0.000444507
0.000444868
0.000484624
0.000443468
0.0102301
0.000524045
0.000618344
0.000492984
0.00435553
0.0123879
0.0127597
0.0123891
0.000459169
0.00354661
0.000432254
0.000493026
0.000529484
0.0109867
0.000453357
0.000439899
0.000453694
0.00540867
0.000449122
0.0120477
0.000463934
0.00055268
0.0139373
0.000436639
0.00057062
0.000450214
0.000445864
0.000443267
0.000356011
0.000430197
0.000438647
0.000449923
0.00787803
0.000441816
0.000449279
0.000453707
0.000448084
0.000447214
0.000564389
0.000508508
0.000444817
0.000440009
0.000590938
0.000185862
0.000463615
0.0129744
0.000450017
0.000449936
0.0114091
0.000438924
0.000449409
0.0125305
0.00810116
0.000454207
0.000493291
0.000452857
0.00205745
0.00300774
0.000460489
0.0088588
0.000440646
0.000532793
0.010976
0.00101222
0.00555149
0.00281584
0.00043349
0.000444399
0.000463608
0.000447529
0.000444559
0.00148614
0.000438214
0.000474724
0.000436047
0.000489586
0.0118267
0.000449799
0.0089934
0.0120166
0.000449732
0.000519711
0.000451809
0.000449386
0.000447594
0.00906434
0.000514226
0.00601308
0.000454845
0.0123821
0.000548773
0.000431291
0.00423944
0.000464162
0.000454815
0.000444126
0.00179663
0.000447743
0.000452686
0.000465119
0.000451339
0.000451902
0.000487769
0.0137472
0.000444678
0.00210358
0.000758643
0.000446677
0.000444614
0.000453354
0.00630354
0.00413942
0.000438826
0.000460164
0.000478076
0.00194469
0.00275885
0.000448904
0.000441639
0.000433402
0.000450829
0.000464643
0.000450081
0.00686387
0.000444149
0.000453514
0.000580366
0.000455883
0.000540006
0.0114976
0.0131178
0.000450728
0.000441936
0.000441645
0.000448926
0.000508486
0.0130322
0.000467622
0.000567638
0.000457374
0.000480562
0.000453452
0.000417302
0.000452242
0.0005976
0.000439041
0.000648181
0.00040284
0.000438054
0.000450736
0.0118015
0.00047942
0.000675547
0.0107461
0.000620044
0.000440384
0.00479917
0.000451066
0.000446731
0.0111741
0.010565
0.000438988
0.00045442
0.000594139
0.00046203
0.000449938
0.000434326
0.000444661
0.000439833
0.000447794
0.000458028
0.000483397
0.0050756
0.000462997
0.000454456
0.000460832
0.000540472
0.000439694
0.000462198
0.00149617
0.00110521
0.00858131
0.000448418
0.000434166
0.00772093
0.000442172
0.00420588
0.000451228
0.000472584
0.000448131
0.000442215
0.00316668
0.000454523
0.000448192
0.000450898
0.0153675
0.00419114
0.00778906
0.00044334
0.000444599
0.00366003
0.000432938
0.00043396
0.000610935
0.00860416
0.000454266
0.000462528
0.000449864
0.00789496
0.000447054
0.000448355
0.000452066
0.000434087
0.0010707
0.000446956
0.000439905
0.00493685
0.000491709
0.0138835
0.00111055
0.000446319
0.000459301
0.000440456
0.000440135
0.000446481
0.000451338
0.000447804
0.000880633
0.000448809
0.000516588
0.00044455
0.000466801
0.000449646
0.000439145
0.000441227
0.00918307
0.000430474
0.00298998
0.000509587
0.000451742
0.000483407
0.000462326
0.000459553
0.000446768
0.000442554
0.00044137
0.000437787
0.0120868
0.000462951
0.000424582
0.000438964
0.00043983
0.000433033
0.000539507
0.000443611
0.0118424
0.000475079
0.000436714
0.000448393
0.000436783
0.000474762
0.00051257
0.0122131
0.000576155
0.0103153
0.000464071
0.000570338
0.000448892
0.0110934
0.000436065
0.00043047
0.000452711
0.00697186
0.000437015
0.0112295
0.000445659
0.000439715
0.000627762
0.00256768
0.00204436
0.000571695
0.000453891
0.00443378
0.000471024
0.000434519
0.0112311
0.000449154
0.000430365
0.0114629
0.000436223
0.0117898
0.000528437
0.000443216
0.000448595
0.000434712
0.0130717
0.000435181
0.000434334
0.000519713
0.000446294
0.000440311
0.000430507
0.000434176
0.000474748
0.000450202
0.000446992
0.000439211
0.00675631
0.00196589
0.000439461
0.000439488
0.00044923
0.000448079
0.000453142
0.000443769
0.000438396
0.000450163
0.000446155
0.000448712
0.000447905
0.00051036
0.000436551
0.000529835
0.000444381
0.000479384
0.000438559
0.000447732
0.000443113
0.00043092
0.000465221
0.000451276
0.000454786
0.014681
0.000116591
0.0130347
0.0115095
0.000529041
0.0103944
0.000444629
0.000447738
0.00346825
0.0154283
0.000433293
0.0076381
0.000437563
0.000621398
0.00349922
0.000452882
0.000534406
0.0199175
0.0126638
0.000437764
0.000476834
0.000441673
0.00557327
0.000453354
0.012516
0.00271364
0.000448077
0.000931817
0.00268448
0.000438354
0.00823214
0.0115686
0.000449994
0.000442623
0.00663576
0.00850585
0.000434476
0.000461446
0.000446345
0.00174974
0.000656886
0.000446733
0.000438534
0.00604138
0.000439831
0.000449899
0.000450646
0.000438699
0.00675316
0.000453983
0.000457371
0.0100575
0.000447872
0.000496952
0.000450952
0.0060168
0.000488045
0.00485976
0.00043836
0.000456534
0.000430361
0.000440509
0.000453929
0.000446821
0.00898153
0.000449303
0.00043903
0.000445086
0.0107716
0.000442353
0.0132116
0.0124286
0.0124875
0.00044322
0.000439128
0.000446945
0.00561536
0.000447039
0.00854768
0.00043805
0.00327932
0.000449579
0.000440273
0.00223101
0.00044667
0.000437915
0.00799729
0.000598948
0.0112345
0.000439205
0.0119587
0.00980663
0.000445672
0.00897134
0.000445913
0.000450472
0.0118065
0.000448589
0.000470084
0.00590998
0.000455952
0.000506454
0.000450326
0.00720148
0.000449303
0.0135778
0.000447086
0.00480514
0.000449662
0.000450651
0.000445828
0.0107029
0.000439374
0.000137299
0.000503617
0.0206076
0.000446304
0.000456322
0.0127862
0.00141812
0.00833772
0.000526186
0.000438322
0.000602366
0.00227267
0.000449852
0.00589914
0.000430049
0.000692474
0.00275057
0.000439519
0.0028489
0.000448442
0.0114172
0.0057832
0.000450922
0.000446897
0.0129213
0.0105885
0.00045077
0.000451025
0.000438776
0.000446265
0.0106915
0.000503353
0.00240991
0.000442948
0.000455474
0.0120111
0.000458905
0.00279287
0.00608721
0.000445607
0.00044907
0.000888398
0.0145307
0.0124126
0.00549279
0.000890717
0.000467858
0.000446793
0.0125517
0.0117239
0.00517929
0.000442587
0.000530673
0.000474367
0.000514305
0.00044735
0.00045579
0.000494456
0.000650354
0.0100301
0.000438109
0.0139807
0.00976513
0.000472339
0.000449705
0.000449755
0.0127933
0.000439062
0.0132037
0.000456045
0.000433525
0.00255185
0.000196933
0.000439229
0.000464393
0.000458872
0.000447656
0.0128102
0.00044364
0.0131898
0.000438014
0.00984887
0.00335493
0.000952192
0.000430708
0.000453783
0.000456717
0.00121136
0.000626753
0.000507095
0.0107865
0.00210664
0.000426119
0.000453579
0.000439634
0.000644587
0.00275712
0.000429725
0.000438926
0.000449831
0.00624162
0.00190932
0.00043856
0.000481701
0.00315551
0.000442135
0.000441448
0.000450011
0.0131442
0.000452176
0.0130109
0.00874747
0.000457041
0.000450166
0.00558971
0.000444412
0.000477054
0.008449
0.000474746
0.000543339
0.000461388
0.000491068
0.0144541
0.0118656
0.000450304
0.00817433
0.00185936
0.000436405
0.000652473
0.000506081
0.00061426
0.00826119
0.00332418
0.00459087
0.000595129
0.00932493
0.000454458
0.000503961
0.000426708
0.000450136
0.000447576
0.000441258
0.00232703
0.000606559
0.000430403
0.000473327
0.0007986
0.000444403
0.00642599
0.0117514
0.000427061
0.000446962
0.000426006
0.000448177
0.000474017
0.000449271
0.0116438
0.000458598
0.000511645
0.000451521
0.000510905
0.000440276
0.000458942
0.0162692
0.000447429
0.000448334
0.000430188
0.000438377
0.012648
0.000558225
0.000455881
0.0136189
0.000443043
0.000446533
0.000458256
0.000437787
0.00043689
0.000523426
0.000453601
0.00762071
0.0138594
0.0153797
0.000451016
0.0174458
0.000446401
0.00319192
0.000438931
0.000687899
0.0152675
0.000443714
0.00485976
0.00700367
0.00045965
0.000448012
0.00043261
0.000454982
0.0115882
0.000438463
0.000449992
0.000445835
0.000460618
0.000874734
0.000452501
0.000453798
0.000445189
0.00044371
0.0059822
0.000462791
0.000447891
0.000645501
0.00461337
0.0126752
0.00387048
0.000450011
0.000447085
0.0082099
0.000447121
0.00050396
0.00045055
0.0106345
0.000441793
0.00044398
0.000457906
0.0116398
0.000449326
0.00043808
0.000435799
0.000684616
0.00129309
0.000633768
0.000450939
0.000449048
0.000441934
0.00975388
0.000423102
0.00714727
0.000490123
0.000443202
0.00133572
0.000459824
0.00841899
0.00045214
0.000433985
0.000458151
0.000469968
0.00060948
0.000450165
0.000447179
0.000441599
0.0109078
0.000444072
0.000451648
0.0117721
0.000449519
0.000452772
0.000453061
0.000440716
0.000438751
0.01241
0.000453292
0.0198178
0.011314
0.000429796
0.00465164
0.00044822
0.000593032
0.000479455
0.000452584
0.000430952
0.00042957
0.000449133
0.00684388
0.000477524
0.00894994
0.010396
0.000441385
0.000435628
0.000467309
0.00566675
0.00044869
0.00884264
0.0120886
0.00985688
0.000439768
0.000451104
0.000449544
0.00239344
0.0126256
0.000433141
0.000450584
0.00045942
0.0103456
0.000450103
0.000451351
0.000448297
0.000613018
0.00504807
0.00043644
0.0117692
0.000453945
0.000449621
0.0101661
0.00048969
0.00631095
0.00320766
0.000459643
0.000450697
0.000451774
0.000452927
0.000447346
0.000501078
0.000479074
0.000438534
0.000453045
0.00172116
0.0144903
0.000438362
0.000609022
0.0174135
0.00625792
0.000438559
0.000448727
0.0120898
0.00823236
0.00552467
0.00044251
0.0180547
0.000504563
0.000430024
0.00499302
0.000454635
0.000445737
0.00175193
0.000443545
0.000426778
0.000438845
0.000429059
0.0004433
0.000435831
0.0114208
0.00043068
0.000444488
0.000525734
0.000454663
0.000450129
0.000670461
0.000446542
0.000450882
0.000449611
0.000448901
0.0108396
0.0101315
0.00447885
0.00637797
0.000461482
0.0115269
0.00050255
0.0117694
0.0163139
0.0114754
0.000440564
0.000455842
0.000449206
0.000445608
0.000438277
0.000439216
0.000862347
0.000492907
0.000466858
0.00044414
0.000449243
0.000488164
0.000449788
0.000446746
0.000446203
0.0103363
0.000459173
0.00187766
0.000451115
0.0119445
0.000447339
0.000443663
0.000445911
0.000471909
0.000442915
0.000543134
0.010089
0.000471039
0.0073024
0.0124287
0.000468402
0.00045559
0.0124965
0.000620834
0.000431142
0.000437987
0.000429661
0.0102686
0.000428749
0.00158351
0.000414036
0.000525979
0.0196176
0.019213
0.000502217
0.0129115
0.000434259
0.000435728
0.0104969
0.00807553
0.000447378
0.000450239
0.00168695
0.000442681
0.00395734
0.000451435
0.00042523
0.00045219
0.00044924
0.000514504
0.0100992
0.0082654
0.000453243
0.000440198
0.000533319
0.000449909
0.000528802
0.000441247
0.000674634
0.000550627
0.000446881
0.000445583
0.000430096
0.000599957
0.000464882
0.000908926
0.00694519
0.000457529
0.0092961
0.000517939
0.000596189
0.0111549
0.000446684
0.0107923
0.000449462
0.0101528
0.00300437
0.0105363
0.0111422
0.000440351
0.000486237
0.010842
0.000443016
0.00568871
0.000446492
0.00044867
0.000455543
0.000449818
0.000459851
0.00195034
0.00546207
0.0131117
0.000454048
0.000469129
0.000449011
0.000443179
0.000449985
0.000645097
0.000543295
0.0154652
0.000474088
0.000430662
0.000438918
0.000445561
0.0011455
0.000450029
0.000445623
0.000452696
0.000547332
0.000460518
0.000470839
0.000463709
0.0113433
0.000457047
0.000461881
0.000448998
0.000455452
0.00481676
0.000554266
0.000478352
0.000437569
0.0107066
0.000461402
0.000442423
0.000479291
0.0112514
0.0133195
0.000460715
0.000442811
0.0122979
0.000447059
0.00044226
0.000430677
0.0121159
0.00640924
0.000456027
0.00897176
0.0103838
0.000464206
0.000463786
0.000495008
0.0132228
0.000458438
0.0125527
0.000446852
0.000343374
0.000467857
0.012317
0.000462223
0.000437771
0.012022
0.000448536
0.0004486
0.0151176
0.00836613
0.000457929
0.00612137
0.000453935
0.000450905
0.00771037
0.000442677
0.00044614
0.000450336
0.000474454
0.000448403
0.000456788
0.000475295
0.0057397
0.00633576
0.000450431
0.00577644
0.000463465
0.0111566
0.00769999
0.000450279
0.000449709
0.0004546
0.00173157
0.000861058
0.000505942
0.0109108
0.0114907
0.0028093
0.000441547
0.00764557
0.00716198
0.000466342
0.00596929
0.00044642
0.000442895
0.00045092
0.000447696
0.00044706
0.000462224
0.00826339
0.000456621
0.0113231
0.00518319
0.00706541
0.015431
0.0127244
0.000453115
0.0127994
0.000597899
0.00051887
0.000438642
0.000443417
0.000507922
0.00591164
0.000445064
0.0112952
0.0124861
0.000440578
0.000449088
0.000438966
0.000551747
0.000447156
0.000517455
0.0106852
0.000438085
0.000449837
0.000440573
0.000449531
0.000570147
0.00951407
0.000464052
0.00879071
0.000614608
0.000444952
0.0115921
0.000636328
0.000436511
0.00387278
0.00589786
0.015547
0.00957305
0.00729794
0.000443126
0.00777887
0.00994613
0.000936368
0.00938778
0.000438386
0.000449483
0.000451028
0.000452739
0.0107209
0.000504987
0.000449228
0.000455235
0.0122704
0.00960408
0.000441312
0.000441902
0.01318
0.0126742
0.000449556
0.000454946
0.000593238
0.000448228
0.000449722
0.0149408
0.000444201
0.00129426
0.0116329
0.0110122
0.000442856
0.000522728
0.000707332
0.000442206
0.000429901
0.0155747
0.0123584
0.000443408
0.00045909
0.00086964
0.0010328
0.0129475
0.00823175
0.000453361
0.0109533
0.00971629
0.000463099
0.000445104
0.000554572
0.000435443
0.000430278
0.00738145
0.00046619
0.000564537
0.000453166
0.000448081
0.000439275
0.000435052
0.000450278
0.000450393
0.0101642
0.000452957
0.00666462
0.00319515
0.000473863
0.000514276
0.0120455
0.0120971
0.0107475
0.000431226
0.000453608
0.000463463
0.000453052
0.00292544
0.0101431
0.000450461
0.00595339
0.00877405
0.000453669
0.000555496
0.00052231
0.000575702
0.000599434
0.000451108
0.000635261
0.00067283
0.000717413
0.000779288
0.000608453
0.00053747
0.000448759
0.000444275
0.000461561
0.00055409
0.00044339
0.00419902
0.0129859
0.00406583
0.0119935
0.000429958
0.000437173
0.00020101
0.00987615
0.000450336
0.000449808
0.000500282
0.0150494
0.00193439
0.000446549
0.000456808
0.000453272
0.0045862
0.0112431
0.000453716
0.00349079
0.009718
0.000580114
0.0125973
0.00056689
0.00861388
0.0129441
0.000426007
0.0125426
0.010362
0.000448733
0.000513439
0.000575183
0.000450266
0.000439122
0.00175789
0.0150384
0.0004359
0.000435995
0.0149009
0.00486247
0.000531178
0.00044787
0.0015118
0.000668028
0.0123838
0.00715557
0.000449634
0.000449226
0.000450176
0.000448187
0.0122537
0.00157443
0.0118372
0.000540115
0.00286341
0.00481986
0.000447686
0.000442886
0.00946524
0.000438118
0.0126044
0.000426859
0.0126873
0.000450689
0.000447406
0.00254217
0.000444191
0.000607739
0.0144441
0.000463205
0.000448662
0.000450862
0.000837468
0.00749903
0.000915099
0.0117768
0.000461225
0.000445338
0.000456641
0.000525074
0.0128345
0.014055
0.000572255
0.00115616
0.000643804
0.00863863
0.000429625
0.0004377
0.000438185
0.000438645
0.0024822
0.000523153
0.0126163
0.000470494
0.000723431
0.000442927
0.0095468
0.00192047
0.0039679
0.000450805
0.000450989
0.000429144
0.0107494
0.000252564
0.0154012
0.00221706
0.000635902
0.00209629
0.000429881
0.000466203
0.000844621
0.002806
0.00468495
0.000448461
0.000673914
0.000446332
0.000441799
0.000605159
0.00542179
0.00839965
0.000445772
0.000547013
0.00136479
0.0157971
0.00379492
0.0119457
0.0111588
0.000440233
0.000496721
0.00044264
0.000690338
0.000438922
0.000620969
0.000447475
0.000479683
0.0102122
0.0140018
0.000471949
0.000536637
0.010502
0.000616194
0.000448187
0.0132156
0.000590288
0.000442115
0.00044274
0.0108748
0.000457112
0.000636551
0.00412822
0.0118505
0.00508451
0.00045705
0.0108174
0.010098
0.00397659
0.0015573
0.000460177
0.000599715
0.000573085
0.0116154
0.000488582
0.000450111
0.00593737
0.000485406
0.00327364
0.000454576
0.0111485
0.00624089
0.00661968
0.000455784
0.0194894
0.000451147
0.00835735
0.000894028
0.00701554
0.00232292
0.000442405
0.000428819
0.00910341
0.0124335
0.000432599
0.00044982
0.000472176
0.00045557
0.010385
0.00053923
0.010219
0.000453283
0.00990843
0.000611845
0.0100834
0.000449997
0.00187294
0.013695
0.000474111
0.000540113
0.00043016
0.000452773
0.00044938
0.0105153
0.000444472
0.000450755
0.0128655
0.00841912
0.000438387
0.0126915
0.000449893
0.000443595
0.000447006
0.00043903
0.000450203
0.0040557
0.0130063
0.000436791
0.00304676
0.000508805
0.000478398
0.00600098
0.000544928
0.000453045
0.000461514
0.000448106
0.0103937
0.000455935
0.0127332
0.00046448
0.00994224
0.00514931
0.000515158
0.00589782
0.00954956
0.000440208
0.00643522
0.000489391
0.000505572
0.000466218
0.000443158
0.000428117
0.000876583
0.000449857
0.000828037
0.000450099
0.0112897
0.000711551
0.0132348
0.000826675
0.000794454
0.0127898
0.000447421
0.000438683
0.000500697
0.000449986
0.000449776
0.000449936
0.000454227
0.000442561
0.00044626
0.000449639
0.000473363
0.000450347
0.000454176
0.000450022
0.000463527
0.000576495
0.000450779
0.0115501
0.000450494
0.000446478
0.000562445
0.000472292
0.000448921
0.000442222
0.00218424
0.000453334
0.0088061
0.000453421
0.00062565
0.000447656
0.000442784
0.000549891
0.0131027
0.000515034
0.000463068
0.000431881
0.0123912
0.000449765
0.00044567
0.000527924
0.000453078
0.000717272
0.0106333
0.000577255
0.0032123
0.000471686
0.00496359
0.000444592
0.00044875
0.000502065
0.0111159
0.000495595
0.000585039
0.0129118
0.000454673
0.000448296
0.000456879
0.00155497
0.000491896
0.000449984
0.000583509
0.000568798
0.000504844
0.00045022
0.000450746
0.00205426
0.000503175
0.00623745
0.00898695
0.000448417
0.000515553
0.000449908
0.000474702
0.00902146
0.000447618
0.000904917
0.000360183
0.00054219
0.0121411
0.000449867
0.0004437
0.00044721
0.0127185
0.00112683
0.000449986
0.000545921
0.000609112
0.000449761
0.00044367
0.0014954
0.012689
0.00417285
0.00993598
0.00264447
0.000460168
0.004308
0.000641674
0.0004597
0.0139867
0.000550309
0.0163533
0.000448061
0.000569719
0.000680172
0.000449072
0.0030155
0.000468663
0.000549238
0.000454324