/*--------------------------------*- C++ -*----------------------------------*\
| =========                 |                                                 |
| \\      /  F ield         | OpenFOAM: The Open Source CFD Toolbox           |
|  \\    /   O peration     | Version:  v2012                                 |
|   \\  /    A nd           | Website:  www.openfoam.com                      |
|    \\/     M anipulation  |                                                 |
\*---------------------------------------------------------------------------*/
FoamFile
{
    version     2.0;
    format      ascii;
    class       volVectorField;
    location    "100";
    object      ddtCorrDdt0(U);
}
// * * * * * * * * * * * * * * * * * * * * * * * * * * * * * * * * * * * * * //

dimensions      [0 1 -2 0 0 0 0];


internalField   nonuniform List<vector> 
14315
(
(-0.00174629 0.000577413 2.57494e-22)
(-0.000409266 -0.000189181 1.36822e-22)
(0.000258697 0.000265116 -8.02101e-24)
(-9.64468e-05 6.18771e-05 6.24811e-23)
(-0.0001012 0.000101414 2.8617e-22)
(-1.67236e-05 3.34276e-05 -5.73648e-23)
(0.00100978 -3.37401e-05 -1.17984e-21)
(2.01104e-06 0.000195019 4.131e-22)
(-0.000345629 9.38842e-05 -2.18237e-22)
(0.000999869 -0.000159056 0)
(0.000377106 -0.000157141 -7.30115e-23)
(0.000508924 0.000891937 -1.28707e-22)
(-0.000240857 0.000256466 2.12331e-23)
(-4.55386e-05 3.62379e-05 -1.72454e-22)
(0.00113015 -0.000160867 0)
(1.17861e-05 0.000143305 -5.0459e-22)
(3.54961e-05 4.2431e-05 2.13836e-22)
(-0.000254349 -3.87584e-06 -8.66148e-23)
(0.000405233 0.000124997 -2.22341e-23)
(1.0761e-05 0.000146079 0)
(-0.000133617 4.85124e-05 0)
(7.16884e-05 0.000206144 0)
(-0.000118241 -3.57249e-05 1.66009e-22)
(0.000441801 -0.00019808 1.3436e-22)
(-0.000407981 -8.24474e-05 1.38606e-22)
(-5.00223e-05 4.01836e-05 1.28048e-22)
(-0.000232455 -0.000141299 -7.44432e-23)
(0.000945811 -0.000284554 8.24266e-23)
(-0.000265745 -0.000140827 0)
(0.000320968 -8.24507e-05 0)
(-0.000116794 4.35399e-05 0)
(0.000393053 -8.94938e-05 -4.22439e-22)
(-0.000166065 -7.13123e-05 -7.86436e-23)
(0.00400935 0.00145829 -1.2728e-21)
(-4.78841e-05 0.000145302 9.16439e-22)
(0.000385247 -9.19495e-05 4.2304e-22)
(0.000391699 6.0696e-05 -2.20818e-23)
(-4.57125e-05 0.000142998 0)
(-0.00029837 -3.44163e-05 -2.2812e-22)
(-7.38154e-05 6.94956e-05 -6.0083e-22)
(-0.000340588 9.203e-05 1.779e-22)
(-3.18886e-05 7.23851e-05 5.11932e-22)
(-0.000122957 0.000173832 -8.41392e-22)
(-6.82842e-05 6.03441e-05 1.90491e-22)
(-0.00020571 4.51682e-05 -1.30384e-22)
(-0.000105932 7.63879e-05 0)
(0.000241627 0.000258318 0)
(0.000811236 -0.000263817 -2.82417e-22)
(9.64807e-06 0.000158181 -1.22965e-21)
(-0.000118636 0.000172116 3.29595e-22)
(0.000389038 5.50708e-05 0)
(-0.000125604 -1.47094e-05 1.73742e-24)
(0.000426407 -0.000142969 9.03968e-22)
(0.000530044 0.000108175 1.3806e-22)
(0.000420694 -0.000150857 8.00417e-22)
(-5.75354e-05 0.000124157 0)
(0.000280703 0.000514574 -1.43017e-21)
(0.000540548 -0.000120455 0)
(-4.8509e-05 4.13177e-05 0)
(-0.000437323 -0.000117604 -1.20034e-22)
(0.000511784 0.000105327 -1.17186e-22)
(-0.000105901 7.86453e-05 -2.7795e-22)
(-0.000115465 4.26027e-05 0)
(0.000751886 -8.32875e-05 2.16375e-22)
(8.4177e-05 6.54259e-05 1.57249e-22)
(0.000156291 8.94535e-05 0)
(0.000263562 0.000277876 1.52786e-23)
(-0.000117155 4.26267e-05 0)
(-4.37323e-05 0.000152825 0)
(0.000373192 -8.37276e-05 5.66851e-22)
(0.000518213 0.000191921 1.62155e-22)
(0.000805626 -0.000157892 0)
(0.000662044 0.000138128 2.1076e-22)
(-2.53828e-05 0.000134322 1.94429e-22)
(5.45999e-05 2.25373e-05 -1.36079e-22)
(7.98596e-07 0.000217529 1.64665e-22)
(0.000811832 -9.79074e-05 0)
(-0.000145642 0.000113657 -3.25696e-22)
(0.000366553 -8.42296e-05 -4.36973e-22)
(-7.14815e-05 8.86017e-05 1.68082e-22)
(0.000140555 8.69043e-06 -1.54193e-22)
(-0.000786629 -0.00208492 0)
(1.31585e-05 0.000160783 3.5781e-22)
(0.000876598 -0.00018683 0)
(0.000424098 -0.000124242 9.0687e-22)
(-0.000290968 0.000270036 1.15041e-22)
(-0.000208196 5.25893e-05 -3.69679e-24)
(0.000746579 0.00015241 0)
(0.000699327 0.000170967 0)
(0.000510674 0.0002308 -1.58179e-22)
(-0.00014168 3.40597e-05 1.82115e-22)
(-0.000132212 1.9429e-06 2.5231e-22)
(-0.000157206 0.0002959 0)
(-2.10403e-05 2.32425e-06 0)
(0.000321532 -1.2688e-07 8.69974e-23)
(0.00014716 1.14243e-05 1.78124e-22)
(0.000438913 -0.000112549 9.93737e-22)
(1.40162e-05 -0.000850331 -2.79874e-22)
(0.000317684 -9.41882e-06 0)
(-3.14058e-05 6.97435e-05 -2.29297e-22)
(-2.76971e-05 3.0634e-05 0)
(0.00452021 -0.000923661 4.86953e-22)
(-0.000100131 -3.24031e-05 -4.06635e-22)
(-0.000108626 0.000142503 0)
(0.000802663 0.000193618 0)
(6.25469e-05 8.54418e-05 -2.34225e-22)
(-7.25459e-05 6.75433e-05 3.091e-22)
(-0.00011963 5.69649e-05 1.52807e-22)
(-7.19469e-05 0.000137555 -8.45666e-23)
(-0.000117668 1.10403e-05 0)
(-0.000152098 0.000149564 0)
(-0.000101284 5.87141e-05 1.36978e-22)
(3.68333e-06 0.000240903 7.50845e-22)
(-0.000225707 -6.27075e-05 -2.21569e-22)
(7.08457e-05 0.000212708 4.91952e-22)
(-0.000126301 -7.88466e-06 -1.69854e-24)
(-0.000131412 0.000197494 6.32811e-22)
(-4.72969e-05 0.000149354 -5.80198e-22)
(-0.000417527 -8.94538e-05 0)
(-0.000656211 -0.00235502 -4.41984e-21)
(0.000715198 -0.000333857 8.71779e-23)
(3.30151e-05 4.44665e-05 -1.86861e-22)
(0.000400134 0.000116817 4.51648e-23)
(-0.000167452 7.94953e-05 4.64717e-22)
(-7.51143e-05 0.000142187 2.07666e-22)
(9.53326e-05 0.000120684 -9.88829e-23)
(-0.00153515 0.000753656 -1.72682e-23)
(-0.00214739 0.000233694 -2.60393e-22)
(0.000141117 0.00023141 0)
(-2.98185e-05 3.03736e-05 0)
(-0.000114005 5.559e-05 0)
(-0.000195042 -0.000260428 0)
(-2.20407e-05 2.51758e-05 2.09812e-21)
(-0.000196368 -0.00849831 8.3504e-23)
(3.73275e-06 0.000220036 1.00897e-21)
(0.00014843 0.000231044 0)
(-0.000439586 -2.76948e-05 9.35668e-24)
(-0.00022795 -4.76579e-05 1.09116e-22)
(-0.000317852 3.30747e-05 0)
(-0.00188021 0.000827517 0)
(-0.000221168 6.18925e-05 -2.62184e-22)
(-7.05367e-05 0.00014833 3.18834e-23)
(0.000327798 -8.2897e-05 0)
(-0.000228376 -0.00023308 0)
(-0.000105233 -7.18348e-05 -1.99221e-23)
(-2.16441e-05 0.000134444 -1.71566e-22)
(4.34593e-06 0.0002469 3.03244e-22)
(0.000481499 -0.000112756 -9.02336e-23)
(-0.000109283 3.7903e-05 0)
(-0.000122321 1.31023e-05 0)
(-2.6994e-05 3.24488e-05 -2.70993e-22)
(-0.000526077 -0.000252445 5.43505e-23)
(0.000698037 -0.000544657 -4.19143e-22)
(-0.000518707 -3.52861e-05 2.30077e-23)
(0.00132839 0.000460115 1.89571e-21)
(-6.93479e-05 0.000135669 6.67851e-23)
(-8.76335e-05 8.43026e-05 2.80365e-22)
(-0.000545473 -4.34077e-05 -2.05173e-24)
(0.000636099 0.000644833 0)
(-7.7769e-05 8.55897e-05 -3.71961e-23)
(-0.000107163 6.4439e-05 2.90852e-22)
(-5.55347e-05 4.4075e-05 1.54285e-23)
(-8.25908e-05 -0.000207146 5.06708e-24)
(-0.000108158 4.03823e-05 2.28924e-22)
(-4.22987e-05 -3.01094e-05 0)
(-0.000255963 0.000289423 8.17754e-23)
(-0.000281367 -3.33569e-05 0)
(-0.000102518 3.63714e-05 3.83543e-22)
(0.000236777 -1.6294e-05 -4.0202e-22)
(-1.66077e-05 3.13552e-05 0)
(-0.000433352 -0.000120122 0)
(-6.42985e-05 2.06843e-05 -8.21334e-23)
(-0.000171158 0.000175514 -3.30844e-22)
(-0.000122781 0.000106413 0)
(-0.000172161 -0.000105055 0)
(0.000379826 -0.000701767 2.2115e-21)
(0.000565315 0.000796047 0)
(9.9437e-05 0.000121335 4.64025e-22)
(-0.000178608 4.17981e-05 -1.63211e-22)
(-0.000172535 -4.98098e-05 1.75504e-22)
(-8.05909e-05 -6.90512e-05 0)
(-0.000168634 8.34417e-05 -1.44098e-22)
(-2.50614e-05 3.27281e-05 2.84774e-22)
(-0.000120701 0.000236207 0)
(-0.000132366 5.03424e-05 3.23437e-22)
(-0.000426684 -0.00193573 -6.73849e-21)
(-0.000155889 0.000145492 -1.82847e-22)
(-0.000154176 0.000139267 3.5193e-22)
(0.000202983 0.000270632 -5.26357e-23)
(-0.000109106 3.65501e-05 -7.14282e-23)
(-1.30999e-05 0.000189029 3.23211e-22)
(-0.000444131 0.000799396 0)
(-0.000106278 -0.000187831 9.84344e-23)
(-0.000559936 -0.000265923 2.96898e-24)
(-1.05354e-05 -0.000739586 0)
(-7.15906e-05 0.000150698 8.05327e-22)
(8.62413e-07 -0.00828345 0)
(-3.30654e-05 2.67437e-05 -1.32801e-22)
(-0.000107883 6.26831e-05 -3.49433e-22)
(-0.000115488 5.34513e-05 -2.00579e-22)
(-0.00011385 -6.65531e-05 4.29536e-23)
(-3.12242e-05 2.1529e-05 1.9293e-23)
(0.00513238 -0.000348245 0)
(-2.06621e-05 0.000130108 5.13563e-22)
(-9.65253e-05 6.39396e-05 -2.37873e-22)
(9.34381e-05 0.000136242 4.21137e-22)
(-1.51814e-05 0.000184032 -6.25672e-22)
(-6.65022e-05 6.6103e-05 -3.37177e-22)
(0.00105226 -0.000279099 0)
(-0.000509827 -0.000290906 7.55139e-23)
(0.000198595 0.000263539 5.20601e-23)
(-2.6089e-05 0.000139073 -3.13638e-22)
(-6.96791e-05 -2.5114e-05 0)
(-0.000101572 3.7207e-05 -7.53788e-23)
(-0.000192884 -7.02073e-05 6.91184e-23)
(-0.000113825 6.47474e-05 0)
(-0.00013857 0.000182033 0)
(-3.04721e-05 2.86152e-05 0)
(-2.40875e-05 3.44913e-05 0)
(0.000218702 -1.2541e-05 3.8977e-22)
(-0.000210902 0.000195905 0)
(-5.40399e-05 0.000125315 2.34053e-22)
(-0.000235766 0.000198796 0)
(-0.000184826 0.000228298 -2.28273e-21)
(-0.000143481 0.000117154 6.07063e-22)
(-0.000100759 5.9109e-05 0)
(-0.00012536 0.000203837 -4.07176e-22)
(-0.000110011 4.05767e-05 -1.13307e-22)
(0.00038727 0.000113 -5.60932e-23)
(-0.000104301 4.5689e-05 0)
(-6.93271e-05 0.000155074 -4.38376e-22)
(-3.85375e-05 -0.000123172 8.5795e-23)
(0.000238949 0.000248802 0)
(0.00928409 0.00406035 2.30997e-23)
(-9.1475e-05 9.39721e-05 4.44989e-22)
(-0.00012019 8.94043e-05 0)
(-7.54228e-05 5.90298e-05 -3.29945e-22)
(-0.000112696 0.000151718 5.94651e-22)
(-2.63137e-05 0.000230013 7.46481e-22)
(-0.000479537 -2.25173e-05 3.65784e-23)
(-0.000171037 4.13777e-06 -1.566e-22)
(-0.000114093 4.20305e-05 1.18912e-22)
(0.000153839 9.39838e-05 0)
(0.000174859 -0.000427017 0)
(-0.000192857 0.000183215 0)
(0.00152373 -0.0016631 6.4107e-22)
(-0.000131946 3.67186e-05 -6.94215e-23)
(0.000869632 0.000338442 0)
(0.000384132 0.000104934 4.40113e-23)
(0.000232338 2.14399e-05 -9.08166e-23)
(-8.80479e-05 8.14461e-05 3.05519e-22)
(0.000496972 0.000170237 -1.31105e-22)
(-0.000435285 9.03382e-05 3.47029e-23)
(0.000400748 6.41223e-05 -6.03327e-23)
(-1.27161e-06 0.000195744 -6.20342e-23)
(1.26793e-05 -0.000249984 8.32798e-23)
(-0.000497528 1.06982e-05 0)
(-0.00013632 9.86771e-05 -1.50576e-22)
(-8.4618e-05 -6.44006e-05 0)
(-1.70879e-05 0.000130292 0)
(7.55008e-05 0.000210228 -1.27298e-22)
(-9.62418e-05 9.4389e-05 5.5628e-22)
(-0.000112489 6.40096e-05 0)
(-0.000460235 0.000139489 -6.45159e-23)
(-0.000111463 4.22357e-05 -4.28075e-22)
(-4.42814e-05 0.000101386 0)
(-0.000141114 0.000276861 4.08138e-22)
(-4.31251e-05 -5.4486e-05 0)
(-0.000129367 4.92398e-05 3.26271e-22)
(-0.000116574 4.22948e-05 0)
(0.00048765 0.000289688 -4.02986e-21)
(-2.02979e-05 3.14212e-06 0)
(0.000277643 8.08453e-06 6.3547e-23)
(0.00116244 -0.00161163 0)
(0.000153435 -1.42853e-05 -4.09343e-22)
(0.00103621 9.525e-05 1.43644e-21)
(2.41424e-07 4.74827e-05 -1.97786e-22)
(-0.000519772 -0.000233066 -1.04509e-22)
(-0.000102074 3.2319e-05 -3.44471e-24)
(-0.000128191 5.0782e-05 -1.57332e-22)
(5.82255e-05 2.44941e-05 -1.48289e-22)
(-0.00010759 3.8835e-05 -2.39852e-22)
(2.48861e-05 0.000176353 2.23808e-23)
(-0.000120876 3.78732e-05 0)
(-9.86992e-05 9.95255e-05 -5.83889e-22)
(-0.000327341 8.57019e-05 1.10732e-22)
(-0.000208428 3.77939e-05 -1.30839e-22)
(-0.000115415 6.18284e-05 -8.0959e-23)
(0.000758138 -0.00049399 -1.69361e-21)
(0.000469048 0.00014048 -3.8836e-22)
(-5.4614e-05 -3.16667e-05 -1.42938e-22)
(-3.21879e-05 2.05501e-05 2.47793e-22)
(-4.96187e-05 -2.1731e-05 -5.52414e-23)
(-7.22208e-05 0.00014078 0)
(0.000318783 -8.82074e-05 0)
(-5.73218e-05 4.36228e-05 -2.58666e-22)
(0.000524206 0.000210874 2.24518e-23)
(-1.37237e-05 -0.000296974 0)
(-3.29477e-05 4.50272e-05 1.60307e-22)
(-0.0066028 0.00527423 0)
(-0.000174395 8.80948e-05 0)
(-4.25516e-05 3.84475e-05 9.34195e-23)
(-4.68868e-05 3.74141e-05 4.82231e-22)
(-0.000123026 0.00018877 -6.39297e-22)
(-9.77993e-05 6.04222e-05 0)
(0.000788628 -0.000519433 0)
(-0.000113049 0.000144512 -3.11179e-22)
(-0.000173328 8.3999e-05 3.60013e-22)
(-0.000110932 4.30699e-05 3.03523e-22)
(-0.000115361 4.22824e-05 -4.93827e-23)
(0.000316844 -0.00023906 6.74485e-22)
(0.000325283 -0.000226375 1.04243e-21)
(-0.000153972 7.5427e-05 3.59259e-22)
(-0.000122524 1.79298e-05 0)
(-0.000109489 0.000261386 -3.76936e-22)
(-0.000119214 0.000216596 -2.82146e-22)
(-0.000706363 -0.00232923 -1.38519e-21)
(6.69161e-05 0.000200379 1.62304e-21)
(0.000151552 -1.92078e-05 -2.12514e-22)
(-0.000342872 1.18627e-05 1.48155e-22)
(-6.88058e-05 2.95897e-05 0)
(-3.18962e-05 6.4498e-05 4.22527e-22)
(-0.00483332 0.0331479 -1.02215e-24)
(-3.08644e-05 4.49557e-05 0)
(0.000545141 0.000257177 0)
(-0.00011761 5.94214e-05 0)
(-0.000130792 0.000197779 -1.08684e-22)
(8.75439e-05 6.33999e-05 -4.30111e-22)
(-0.000108599 -0.00868773 -1.88432e-22)
(0.000631973 0.000203318 3.00944e-22)
(-0.000232255 2.74343e-05 -8.3942e-23)
(-0.000237521 0.000177152 -1.09259e-22)
(-0.000144562 -6.82438e-06 -2.55622e-22)
(-5.84915e-05 0.000268752 2.33286e-23)
(-0.000395497 -0.000292728 0)
(0.000258457 -2.21897e-05 -5.52874e-23)
(-0.00049843 0.00649277 0)
(-0.000105304 4.6861e-05 0)
(-0.000262568 -7.7155e-05 2.52855e-23)
(-7.20877e-05 0.000141781 -3.00703e-22)
(-0.000117012 4.14915e-05 0)
(-0.000418139 -0.000277924 -8.53853e-23)
(-7.8733e-05 1.31029e-05 2.62716e-22)
(0.000200757 0.000379024 -1.63395e-24)
(0.000253372 -2.5613e-05 -6.32279e-23)
(-0.00032721 5.03965e-06 -1.02613e-22)
(-0.000120933 -0.000190011 0)
(-0.000342399 9.2303e-05 7.32224e-23)
(0.000380444 5.20792e-05 0)
(-6.93785e-05 0.000145705 -5.50196e-22)
(-0.000431216 -0.000289094 -1.17015e-22)
(-0.000134885 0.000235261 -5.50816e-24)
(3.73711e-05 8.9601e-06 1.43057e-22)
(0.000847988 -0.000452971 -1.28425e-22)
(-0.000119672 3.81459e-05 3.0727e-22)
(-0.000218591 5.24811e-05 -4.1106e-24)
(-0.000114253 4.19294e-05 -1.31827e-22)
(-0.000148025 -0.000102759 4.94538e-24)
(-4.35347e-05 -0.000234221 0)
(0.000711979 0.000380218 -3.3884e-21)
(-0.00011594 4.27181e-05 0)
(-0.000138203 -0.000173621 0)
(0.000401546 -0.00014971 0)
(0.000860089 0.000156327 -9.95254e-22)
(0.000401164 -0.000153746 0)
(-0.000115263 6.32195e-05 0)
(-0.000126205 2.02496e-05 0)
(-2.22594e-05 0.000226412 0)
(-0.000117406 0.000154069 -6.59414e-22)
(8.58139e-05 5.78105e-05 -2.09965e-22)
(-0.000132747 -0.000174722 -1.34601e-23)
(-0.000163454 8.57203e-05 -7.32393e-24)
(-0.000125059 5.10978e-05 1.88659e-22)
(-0.000113328 0.000198225 1.73883e-22)
(-6.06406e-05 -1.79253e-05 3.05167e-23)
(9.09914e-06 0.000133941 -2.62845e-22)
(0.000964758 0.00158277 0)
(-0.000157891 5.36047e-05 0)
(-0.000120775 4.11216e-05 1.38387e-23)
(0.000386868 0.000196712 0)
(-0.000148342 0.000266983 4.17532e-22)
(2.04851e-05 0.000172179 0)
(4.5274e-06 5.56325e-05 1.62914e-22)
(0.000582585 0.000486408 -1.22459e-22)
(0.000838108 -0.000343292 8.63983e-22)
(-0.000166489 2.72143e-05 -7.86949e-23)
(0.00128095 0.00666796 0)
(-0.000110904 0.000134247 4.27337e-22)
(-9.64831e-05 -0.00024881 0)
(-7.2982e-05 7.07391e-05 1.93509e-22)
(6.36741e-05 -2.54971e-05 2.27759e-23)
(-0.000161634 0.000167884 -3.70207e-22)
(0.00075213 3.19928e-05 -2.13836e-22)
(-7.31423e-05 -2.63228e-05 2.78182e-23)
(4.96089e-06 0.000224221 0)
(-0.000226974 -2.13268e-05 3.0054e-22)
(0.000285241 8.9974e-06 -5.33752e-23)
(-0.000121455 9.238e-05 -1.72919e-22)
(6.65451e-06 0.000226463 0)
(-0.000177152 0.000164511 0)
(0.000627246 0.000149593 -2.15394e-22)
(6.59397e-05 8.37596e-05 2.27778e-22)
(-0.000349364 0.000323401 -1.60168e-22)
(-0.000104267 4.40706e-05 2.78559e-22)
(-0.000411807 -0.000285462 1.37252e-22)
(-0.000220048 0.000219663 0)
(7.29206e-05 -0.000119469 8.61279e-23)
(-0.000100701 5.59504e-05 1.00518e-22)
(-0.000163282 3.7706e-05 -8.50923e-23)
(-0.000120497 4.00875e-05 1.79126e-22)
(0.000370018 -0.000140595 1.00614e-21)
(7.88811e-06 0.000137638 -5.57929e-22)
(0.000239393 6.77814e-05 -3.93211e-23)
(-3.8309e-05 -0.00019181 -1.8863e-24)
(-0.000110443 4.1899e-05 1.18212e-22)
(-0.000157659 0.000135584 -3.54631e-22)
(-0.00017282 0.000168193 3.61054e-22)
(-0.00018455 3.81734e-05 0)
(-0.000108325 0.000137035 0)
(-0.00326525 -0.00473877 2.58214e-22)
(0.00265307 0.00561982 4.14454e-22)
(-0.000321448 9.76998e-05 -6.33436e-23)
(-7.20145e-05 9.44284e-05 -1.6137e-22)
(-4.2908e-05 4.01129e-05 4.89617e-23)
(-0.000484817 -0.00044431 -2.45681e-23)
(-0.000152339 7.94973e-05 -3.44291e-22)
(-0.000159049 4.05026e-05 7.83851e-23)
(-2.97698e-05 0.000139228 0)
(-0.00251514 0.00724653 0)
(-0.000344648 -0.000165282 3.45087e-23)
(-0.000270083 0.000240269 1.3503e-22)
(0.000204017 0.00039821 4.70054e-23)
(8.81131e-05 0.000111534 -5.75127e-23)
(-0.000213357 0.000124962 0)
(0.000461714 0.000684587 3.02005e-22)
(0.000372901 -0.000135665 -3.36214e-22)
(-0.000338366 9.88044e-05 -4.10469e-24)
(-5.21531e-05 0.000105234 -1.25842e-22)
(-0.000145782 3.53128e-05 9.01601e-23)
(-1.81228e-05 2.94344e-05 0)
(-0.000169118 -9.08066e-05 0)
(0.000320617 -0.000100832 -5.64566e-22)
(-3.14642e-05 2.30241e-05 -8.96801e-23)
(-0.000223384 0.000190962 0)
(-7.09265e-05 -0.000120609 5.73388e-23)
(-5.70496e-05 -2.62154e-05 6.27766e-23)
(0.000325141 -9.67598e-05 7.56166e-22)
(0.000321871 -0.000109694 7.93577e-22)
(0.000306168 -1.68215e-05 -3.34316e-22)
(6.52527e-05 0.000121394 -6.73019e-25)
(0.000250661 0.000557923 -1.12964e-22)
(9.2329e-05 0.000112702 2.51134e-22)
(-0.00128512 -0.00191561 0)
(-0.00190534 -0.00507997 0)
(0.00033073 -0.000113262 0)
(-0.000216677 -0.000164105 8.52492e-23)
(-0.000547865 -0.000250999 0)
(0.00434908 0.00080217 2.69761e-21)
(-0.000125247 8.38839e-05 8.75151e-23)
(-9.6696e-05 0.000319009 5.77585e-22)
(-0.00839623 0.00172016 -3.09022e-22)
(-0.000249536 -2.9471e-05 -3.90681e-22)
(-0.000141231 9.64207e-05 3.12813e-22)
(-0.000483519 -0.000251312 -2.1256e-23)
(-0.000196237 -7.46709e-05 -1.43723e-22)
(-0.000507524 -0.000270979 0)
(-0.000246421 -8.99396e-06 9.83525e-23)
(-0.000324767 0.000125636 -1.73723e-22)
(-0.000228461 0.000182206 -7.79542e-22)
(0.000287951 0.000174597 0)
(-0.000132717 -5.49977e-05 8.77928e-23)
(-0.000158131 0.000157529 -1.70941e-22)
(-3.30708e-05 0.000114584 0)
(-9.37999e-05 9.61513e-05 -2.86343e-22)
(0.000184191 0.000108194 -1.16314e-22)
(-0.000118416 5.56827e-05 -6.32499e-22)
(-7.2126e-05 7.62738e-05 -2.81587e-22)
(-0.0066225 0.00301459 6.92696e-23)
(-6.72218e-05 7.21963e-05 -9.01267e-23)
(0.000272384 0.000117372 -1.3577e-22)
(0.00688578 0.00380127 -1.09107e-22)
(3.90553e-05 6.44917e-06 0)
(-0.00135719 -0.00165497 1.26874e-21)
(-0.000109756 0.000236068 0)
(-0.000103219 3.15396e-05 -1.5048e-23)
(-0.00278918 -0.00574702 -2.66772e-22)
(-0.000176841 -6.3427e-05 0)
(2.84363e-05 0.000187939 3.09381e-22)
(-0.000413269 -0.000155178 -7.79489e-23)
(-0.000119385 0.000106325 0)
(-0.000365031 7.53628e-05 -5.91703e-23)
(0.00029605 -5.27888e-06 1.4148e-22)
(8.75972e-05 0.000134653 0)
(-0.000100815 0.000273183 0)
(-0.000151388 -0.000240662 2.83618e-23)
(-0.000161859 3.12864e-05 -8.11741e-23)
(-7.91371e-05 0.000133315 0)
(2.03246e-06 0.000190315 -4.19195e-22)
(-0.000119059 9.53615e-05 7.06665e-22)
(-9.1572e-07 2.03149e-06 2.62253e-22)
(-0.00020903 -0.000212463 -2.76253e-23)
(0.000620585 0.00025102 2.33963e-22)
(-0.000151133 0.000179454 0)
(0.000237286 1.76295e-05 7.25757e-23)
(-0.00017077 9.85709e-05 0)
(0.000489571 0.000133894 -1.19127e-22)
(-0.000504767 -0.00043338 0)
(0.000109643 -2.73178e-05 2.16764e-22)
(-0.000117286 6.12972e-05 8.56723e-23)
(0.000744689 -4.09744e-05 9.44469e-22)
(-0.000204972 0.000124881 2.05893e-23)
(-5.92712e-05 0.00012736 0)
(-9.89138e-05 9.53631e-05 3.86897e-24)
(-0.000111892 -0.00220329 -6.11932e-21)
(0.000245295 0.000224595 3.09504e-23)
(-0.000152734 3.26553e-05 -1.79717e-22)
(-0.000159136 0.000126764 1.83329e-22)
(-0.000404665 0.000400536 1.35429e-22)
(-0.000372489 -6.27161e-05 -4.27706e-22)
(-0.00254039 0.00355989 0)
(-0.000355453 -5.17813e-05 3.03305e-22)
(-0.0112707 0.0743833 1.11362e-23)
(-0.00190889 0.00452398 0)
(-0.000221903 -1.11598e-05 5.51122e-23)
(-4.94409e-05 -0.000209636 2.82583e-26)
(0.000575398 0.000993474 -1.38457e-22)
(-0.000115787 4.28192e-05 0)
(-9.65962e-05 7.55009e-05 -2.62547e-22)
(-0.000219121 3.11679e-05 9.24737e-23)
(0.000154541 4.09425e-06 1.29912e-22)
(-0.000123932 0.000180422 -4.88111e-25)
(0.0176318 -0.00220777 -1.12638e-21)
(-3.3114e-05 6.69598e-05 0)
(0.000366289 5.15143e-05 0)
(0.000184298 0.000255107 0)
(2.42784e-05 0.000183151 -6.18067e-22)
(-0.000114581 3.7617e-05 4.42244e-22)
(0.00032218 -0.000273599 0)
(-0.000289534 -5.79659e-05 -2.25686e-23)
(0.000333362 -0.00025953 -8.31163e-22)
(0.0001648 9.68838e-06 -1.37267e-22)
(-0.000222014 4.4414e-05 -4.4185e-23)
(-0.000163883 -0.000155534 -1.05272e-23)
(0.000864278 -0.000255101 0)
(0.000161742 0.000246623 0)
(0.000785495 -0.000265625 0)
(0.000270413 -2.10843e-05 4.01718e-22)
(-1.74253e-05 2.72914e-05 -2.26385e-22)
(-0.000325362 8.73332e-05 -1.47271e-22)
(0.000175106 0.000256998 0)
(0.000245491 0.000228218 1.76563e-23)
(6.54544e-05 0.00012672 1.53781e-22)
(0.000256775 6.5905e-06 -3.55591e-23)
(8.89522e-05 5.58303e-05 3.13974e-22)
(-0.000171 -2.67197e-05 -1.74057e-22)
(-4.69591e-05 0.000168077 0)
(6.06229e-06 0.000125503 3.78091e-24)
(-0.000116441 4.35355e-05 0)
(2.79996e-05 0.00019377 3.77371e-22)
(0.000159392 0.000240299 0)
(-9.17961e-05 4.42084e-05 4.64343e-22)
(0.000794342 0.00175244 1.23676e-21)
(-0.000155718 4.86452e-05 -8.5534e-23)
(-0.000341094 -0.00010444 -8.6387e-23)
(0.000179867 0.000338186 0)
(1.00888e-05 3.44631e-05 0)
(-7.35727e-05 0.000121172 -5.54848e-22)
(0.00412589 0.0020973 0)
(0.000264562 -0.000531903 -4.28378e-21)
(6.28706e-05 0.000165162 1.7524e-21)
(0.000124533 0.000109502 -1.72875e-22)
(-2.28285e-06 9.6456e-07 -2.76216e-22)
(8.84761e-05 0.000157876 0)
(0.00108217 0.000555712 -4.58348e-21)
(-0.000559124 -0.000119102 -6.22072e-21)
(-0.000810612 0.00207501 1.43496e-24)
(0.00192715 0.00321478 0)
(-4.48504e-05 3.23996e-05 5.61848e-22)
(-0.000245021 -3.72934e-05 0)
(-0.00023481 1.44477e-05 9.29431e-23)
(-6.54075e-05 0.000185336 -6.70569e-22)
(-0.000359815 -0.000309667 -1.13422e-22)
(-4.20007e-05 0.000661138 0)
(0.00645687 0.00128261 -4.28929e-23)
(0.000245281 -2.37654e-05 0)
(-0.000220356 -6.24774e-06 5.04693e-23)
(0.000248586 -0.000424359 0)
(0.0204613 0.000998706 4.71045e-22)
(8.86139e-05 4.27004e-05 0)
(-0.00169348 -0.0034221 1.82529e-22)
(0.000899637 -0.000273346 0)
(0.000129003 0.000213994 5.11921e-23)
(-0.000142902 8.02289e-05 0)
(-0.000421179 0.000291169 6.44995e-23)
(-0.000510162 1.54677e-05 7.4457e-23)
(-8.92779e-05 -0.00015077 0)
(-0.000122459 -2.43859e-05 -1.54697e-22)
(0.00129899 0.000230446 0)
(-0.000371303 2.35425e-05 -1.24121e-22)
(-0.00014755 8.33774e-05 4.41178e-22)
(-0.000162011 0.000208444 1.85829e-23)
(-3.24064e-05 2.85937e-05 -1.03919e-24)
(-1.55946e-05 0.000228997 -4.18942e-22)
(0.000291252 -0.000192067 -3.77464e-23)
(0.000247395 -0.000558561 0)
(-4.26246e-05 0.000167202 -2.74708e-22)
(1.01657e-05 0.00012512 0)
(-0.000230662 0.000259273 0)
(-4.03298e-05 3.7699e-05 -3.19836e-22)
(-2.53376e-05 -4.84931e-05 5.03251e-22)
(-7.15455e-05 1.83e-05 1.98228e-24)
(-1.52893e-05 -5.02806e-05 -2.43692e-22)
(-0.000114717 3.66764e-05 0)
(0.000765217 -0.000312371 0)
(0.00030397 -1.91662e-05 3.62741e-22)
(-6.76923e-05 3.2839e-05 -4.13284e-22)
(0.00033615 -4.42569e-07 -2.42466e-23)
(-0.000162669 0.000149132 0)
(-8.08492e-05 0.000333156 2.0438e-22)
(-5.35873e-05 5.15035e-05 -3.25223e-23)
(-0.000514584 -0.000280216 4.6646e-23)
(0.000248626 0.000226327 -4.57924e-23)
(-0.000129323 0.000243805 -3.17248e-23)
(-0.000276373 -0.000101337 -5.80172e-24)
(0.000202421 0.000548059 3.91102e-22)
(0.000360707 0.000167728 0)
(-5.56166e-05 5.10836e-05 -2.9909e-22)
(-0.000411066 0.000108773 0)
(-0.000121504 3.88827e-05 0)
(0.000332447 1.58959e-08 -1.25045e-22)
(-0.000192335 -0.000135884 7.83216e-24)
(-8.39821e-05 0.00013854 -2.82786e-22)
(-9.31006e-05 4.46212e-05 -2.94344e-22)
(-0.000159615 0.000301249 0)
(0.00012843 0.000109326 0)
(-0.000165521 0.000132286 0)
(0.000267584 8.32116e-06 -8.90951e-24)
(0.00024345 0.000193701 3.95187e-21)
(-3.37443e-05 0.000227258 0)
(0.000309286 -0.000209195 7.39972e-22)
(-7.69623e-05 5.38289e-05 2.57829e-22)
(-1.83373e-05 3.42985e-05 -3.13659e-22)
(-0.000132427 7.10129e-05 2.07566e-22)
(-8.84412e-05 0.000237293 -4.00959e-22)
(-0.000132289 9.43354e-05 7.82946e-23)
(-0.0002425 -2.29032e-05 0)
(-0.000866959 -0.00107716 2.46828e-22)
(-5.84471e-05 6.92825e-05 1.70626e-22)
(0.000581019 0.000563896 0)
(-0.000641467 -0.00131316 -8.34162e-22)
(0.00512836 -0.00685137 6.52111e-23)
(-5.89646e-05 0.000209774 3.51372e-22)
(7.47261e-05 -4.146e-05 2.65873e-22)
(9.15569e-05 3.94818e-05 6.57614e-23)
(-9.22418e-05 7.40917e-05 3.67234e-22)
(-0.000527142 -0.000355248 0)
(-0.00012073 -0.000255498 0)
(-1.24923e-05 0.000225574 -4.06278e-22)
(-8.39963e-05 7.08381e-05 -9.21663e-23)
(3.20287e-05 1.46805e-05 3.18947e-22)
(-0.00010311 0.000898821 3.43746e-23)
(0.000158917 0.000136998 1.82027e-22)
(-0.000126049 4.9756e-05 1.977e-22)
(-9.28339e-05 -0.00024736 7.59818e-23)
(-0.000124407 8.66307e-05 2.03247e-23)
(0.000260168 6.3445e-05 -3.20981e-23)
(-0.000243923 -0.000249708 0)
(-0.000169563 7.78905e-05 4.94237e-23)
(0.000161202 0.000132357 0)
(-4.3558e-05 3.65899e-05 4.14706e-22)
(-7.27591e-05 -1.76375e-05 3.73527e-23)
(-0.0101592 0.0809472 -2.34706e-22)
(-0.000337945 -0.000296123 0)
(8.88675e-06 2.95846e-05 -1.07329e-22)
(-0.0147999 0.0773596 2.79046e-22)
(0.000220111 0.000279181 0)
(-0.000177665 9.76106e-05 -3.15224e-22)
(-9.75783e-05 5.76316e-05 0)
(-0.000320507 0.000630782 -6.26371e-22)
(0.000318463 -0.000198342 1.35141e-21)
(0.000248123 0.000243517 0)
(0.000318244 9.3349e-06 -4.856e-23)
(0.000423953 0.000335617 -3.92876e-23)
(-0.000148748 7.95918e-05 -5.44673e-22)
(-0.000365368 -0.00031255 -2.93046e-23)
(-0.0022791 -0.000984213 -2.87046e-21)
(-8.51675e-05 8.85071e-05 0)
(-3.54407e-05 0.000112424 0)
(0.000233124 0.000274747 0)
(-6.78651e-05 3.4268e-05 4.09491e-23)
(-0.000511554 -0.000414014 0)
(-0.000123784 1.77571e-05 0)
(-7.32945e-05 0.000115179 0)
(5.01165e-05 0.00022545 0)
(6.35936e-06 0.000190199 -4.18627e-22)
(0.000265945 6.32965e-05 2.52243e-24)
(6.69933e-06 0.000185097 1.22582e-21)
(-0.000808528 0.000227561 -1.11528e-22)
(-0.000147058 -5.95684e-05 0)
(-0.000212527 -0.000219026 -6.4545e-23)
(0.000364835 0.000103607 -2.56985e-23)
(-8.27339e-05 8.98188e-05 -2.32184e-22)
(0.000595841 0.000347148 4.42756e-22)
(-7.58895e-05 0.000123858 2.7921e-22)
(-5.23391e-05 0.000122212 -2.18746e-22)
(-4.06441e-05 -3.51937e-05 0)
(-0.000529906 -0.000403691 2.91016e-24)
(-3.87356e-05 3.84153e-05 1.86852e-22)
(-0.000108122 -0.000132895 -6.35232e-24)
(4.78787e-05 -4.76917e-05 0)
(0.00835413 0.00751165 -2.83351e-23)
(-3.01176e-05 2.54721e-05 1.60976e-22)
(0.000243296 7.32941e-05 -8.48816e-23)
(-0.000413564 1.2959e-06 1.55642e-22)
(-0.000214562 0.000109882 -1.05224e-21)
(0.000239168 0.000223053 -4.60123e-24)
(-0.00238357 -0.000521248 1.49388e-21)
(0.000168706 0.000347121 1.4255e-22)
(0.00477394 0.00108459 2.05891e-22)
(-7.12419e-05 1.34395e-05 0)
(-5.63345e-05 9.11127e-05 0)
(-4.63008e-05 3.35949e-05 -3.97707e-22)
(-3.0102e-05 -7.75798e-05 -5.99166e-23)
(0.000132982 0.000346644 -6.32499e-23)
(0.000490493 0.000609654 -3.46651e-22)
(-7.77134e-05 0.000279445 0)
(0.000180752 8.11046e-06 1.4411e-22)
(0.000395762 0.000454373 0)
(-7.53063e-05 4.42825e-05 1.24791e-22)
(-0.000263616 -3.62221e-06 4.74977e-23)
(0.000457273 0.000128612 1.95324e-22)
(-7.46433e-05 7.47895e-06 -3.41462e-22)
(-0.000247055 0.000234851 -1.81245e-22)
(-0.000156996 -4.89851e-05 0)
(-7.70923e-05 -3.18838e-05 -2.20182e-22)
(-0.000263101 -8.37922e-06 0)
(-0.0004271 -1.16817e-06 -5.32851e-23)
(4.33265e-05 5.08921e-05 -1.1613e-23)
(-0.000120075 9.89211e-05 -4.58067e-22)
(-9.45739e-05 6.01161e-05 1.42835e-22)
(6.37121e-05 0.000225215 -2.04825e-21)
(-6.19128e-06 8.7218e-05 4.13648e-22)
(-0.000525066 -0.000374261 0)
(-0.000115331 5.77234e-05 8.08415e-23)
(-5.58967e-05 -0.000293487 1.36402e-23)
(0.000249629 0.000232597 0)
(-9.76356e-05 6.54959e-05 -1.59737e-22)
(-0.000184712 0.00016128 -4.23907e-22)
(0.000301432 -0.000703819 2.00089e-21)
(0.00153084 -0.000834641 -2.58835e-21)
(-5.73279e-05 0.000400346 0)
(0.00584895 0.00341194 4.32182e-22)
(-0.000151729 4.61254e-05 0)
(-9.00775e-05 -1.92234e-05 0)
(0.000226264 -0.00310759 0)
(-0.000274865 -6.31606e-06 6.00146e-23)
(-0.000399205 0.000131895 0)
(-0.000401939 -0.000352579 -1.88422e-22)
(-6.73919e-05 0.000174547 8.30935e-22)
(0.000122715 -0.000881853 1.21883e-23)
(-0.00031287 -7.17309e-05 2.41857e-23)
(-0.0181745 0.0613902 1.24378e-21)
(-0.000324021 -0.000150225 0)
(-0.000134166 7.32507e-05 1.09346e-22)
(-0.000148081 3.12738e-05 9.06455e-23)
(-0.000424593 1.29438e-06 1.35325e-22)
(0.000354029 -0.000167959 -4.49265e-22)
(2.76576e-05 3.93002e-05 -1.96717e-22)
(-0.000102032 0.000110429 2.59995e-22)
(-0.00169958 0.00354297 4.58374e-22)
(-7.50943e-05 0.000116797 5.63418e-22)
(0.000342211 -0.000166441 -1.43504e-21)
(-0.000495346 -0.000276497 -5.10452e-21)
(0.000268498 -0.000374458 7.58851e-22)
(9.94515e-05 7.26194e-05 -9.60264e-23)
(0.00020197 9.21471e-05 0)
(-0.000279414 9.08167e-05 -7.40987e-23)
(0.000300136 -6.49439e-05 0)
(-9.01913e-05 4.1457e-05 -1.14377e-22)
(5.20663e-06 -0.000146577 2.90866e-23)
(-5.1544e-05 4.07762e-05 -1.43163e-22)
(-0.000100173 0.000138675 7.5523e-23)
(0.000374224 5.47009e-05 0)
(-6.2742e-05 0.000197006 3.5684e-22)
(-2.73681e-05 4.7362e-05 -1.62251e-22)
(0.000303441 -6.05081e-05 0)
(-0.000365698 -0.000325231 6.96289e-23)
(-0.000393192 1.25168e-05 2.7382e-23)
(-6.91421e-05 3.1356e-05 2.99894e-22)
(-1.8783e-05 2.56436e-05 0)
(-2.73472e-05 2.0562e-05 2.54682e-22)
(-0.000314481 -0.000310652 6.81767e-23)
(2.84022e-05 3.75137e-05 1.88453e-22)
(0.000100963 7.73333e-05 -9.33761e-23)
(-0.000115518 4.26557e-05 0)
(-0.00150181 -0.00675002 0)
(-0.00041429 -8.51097e-06 -9.31601e-23)
(0.000293002 -0.000362625 -5.05875e-22)
(0.00228357 0.00380821 7.67625e-22)
(4.49061e-05 4.48095e-05 0)
(-0.000224314 -0.000744096 0)
(-9.91961e-05 6.09814e-05 0)
(0.00192019 -0.00836775 -2.90747e-23)
(0.00253292 0.00189704 0)
(1.0825e-05 0.000593055 0)
(0.000339213 9.58521e-05 0)
(0.00171383 -0.00135137 -6.66273e-22)
(0.000347062 0.00010077 -1.23808e-23)
(0.00369511 -0.0102859 -3.62276e-21)
(-3.04521e-06 8.65626e-05 -4.87921e-22)