/*--------------------------------*- C++ -*----------------------------------*\
| =========                 |                                                 |
| \\      /  F ield         | OpenFOAM: The Open Source CFD Toolbox           |
|  \\    /   O peration     | Version:  v2012                                 |
|   \\  /    A nd           | Website:  www.openfoam.com                      |
|    \\/     M anipulation  |                                                 |
\*---------------------------------------------------------------------------*/
FoamFile
{
    version     2.0;
    format      ascii;
    class       volScalarField;
    location    "100";
    object      epsilon_0;
}
// * * * * * * * * * * * * * * * * * * * * * * * * * * * * * * * * * * * * * //

dimensions      [0 2 -3 0 0 0 0];


internalField   nonuniform List<scalar> 
14315
(
7.78169e-07
1.36594e-05
1.03518e-06
1.5288e-06
1.45426e-06
1.4551e-06
5.78607e-07
1.24441e-06
0.00177099
8.16553e-07
7.79938e-07
1.09648e-06
8.992e-05
1.54729e-06
5.74403e-07
1.25044e-06
1.24971e-06
0.0047093
8.25998e-07
1.24664e-06
1.58639e-06
1.1541e-06
5.60757e-07
7.83881e-07
0.000601807
1.53726e-06
2.98168e-06
8.10459e-07
2.92543e-06
6.18434e-07
1.67832e-06
6.4113e-07
0.00410296
7.17108e-07
1.33652e-06
6.3857e-07
7.67724e-07
1.34012e-06
5.5532e-07
1.48738e-06
0.00161687
1.40767e-06
1.40755e-06
1.89854e-06
1.75327e-06
1.50295e-06
1.03504e-06
8.05427e-07
1.2475e-06
1.40496e-06
7.6259e-07
1.79769e-06
6.10497e-07
8.07546e-07
6.14182e-07
1.37278e-06
1.20709e-06
7.90041e-07
1.53057e-06
0.000807353
8.03539e-07
1.49928e-06
1.62555e-06
6.80374e-07
1.13274e-06
1.0179e-06
1.04054e-06
1.67604e-06
1.32909e-06
6.3823e-07
7.39845e-07
6.74827e-07
7.12104e-07
1.31618e-06
1.20852e-06
1.2492e-06
6.7948e-07
1.48587e-06
6.35675e-07
1.99519e-06
1.11691e-06
0.00286449
1.24219e-06
6.73206e-07
6.08435e-07
0.0165205
1.74604e-06
7.06478e-07
7.11287e-07
7.38803e-07
1.63303e-06
0.00508776
8.72293e-05
1.64048e-06
8.45831e-07
1.10622e-06
6.0549e-07
5.31721e-07
7.78867e-07
1.41364e-06
1.51465e-06
7.21238e-07
5.87522e-07
1.41581e-06
7.05684e-07
1.17489e-06
1.49205e-06
1.56072e-06
1.37654e-06
1.7142e-06
1.46003e-06
1.77137e-06
1.20956e-06
2.23591e-06
1.15344e-06
1.77173e-06
1.40527e-06
1.33675e-06
0.00147016
0.00276105
7.99537e-07
1.25904e-06
8.21523e-07
1.57741e-06
2.60667e-06
1.12011e-06
0.00668331
7.92586e-07
1.08888e-06
1.52669e-06
1.74393e-06
0.00058405
0.00389618
0.00104444
1.24287e-06
1.08609e-06
0.0062075
2.20456e-06
0.00012656
0.00609116
1.80033e-06
2.70356e-06
6.20289e-07
0.000531162
0.00182842
1.31178e-06
1.20334e-06
7.85592e-07
1.67462e-06
1.70376e-06
1.50699e-06
4.22721e-07
6.52666e-07
6.29231e-07
5.84354e-07
1.37865e-06
1.47115e-06
5.00092e-07
1.07596e-06
1.95247e-06
1.53324e-06
1.53361e-06
0.00191077
1.68235e-06
5.66872e-07
0.017002
5.69988e-07
1.617e-06
7.00115e-07
1.46378e-06
0.00146814
0.00489352
1.46743e-06
1.46921e-06
0.000149215
0.00333898
1.08916e-06
1.11684e-06
1.67045e-06
1.97413e-06
0.00430173
1.57305e-06
1.49633e-06
1.39118e-06
1.58152e-06
0.00287953
1.46695e-06
1.47205e-06
1.0567e-06
1.67346e-06
1.26771e-06
0.00430358
2.93617e-06
4.17887e-07
5.29131e-07
1.36959e-06
0.000984662
1.5536e-06
1.53764e-06
1.73521e-06
0.00358794
1.57755e-06
7.33108e-07
1.31106e-06
1.52537e-06
1.12316e-06
1.27471e-06
1.91122e-06
5.71641e-07
4.22681e-07
1.05368e-06
1.31543e-06
1.97797e-06
1.61328e-06
0.00430667
1.5349e-06
2.59958e-06
1.53463e-06
1.48787e-06
7.33811e-07
3.91806e-06
1.36792e-06
4.69057e-06
0.00375292
1.48106e-06
1.54152e-06
1.40227e-06
1.67253e-06
8.25195e-07
1.58696e-06
1.3639e-06
0.00149414
1.03106e-06
4.19601e-07
1.45788e-06
1.49122e-06
1.85724e-06
1.41299e-06
1.30154e-06
0.00527575
0.0202268
1.64442e-06
1.0249e-06
0.00301131
3.88181e-06
5.565e-07
0.0165449
5.8909e-07
8.18538e-07
9.17423e-07
1.4767e-06
7.44783e-07
0.0197464
7.66284e-07
1.2484e-06
0.00183685
0.00228623
1.9805e-06
0.00189042
1.30677e-06
1.27509e-06
1.46241e-06
1.53774e-06
0.0107934
1.6111e-06
2.16719e-06
1.41229e-06
0.00380416
1.58279e-06
1.66774e-06
1.54259e-06
1.61085e-06
8.95352e-07
5.53726e-07
7.10779e-07
5.81603e-07
2.37504e-06
4.23802e-07
1.63144e-06
1.57896e-06
1.19286e-06
1.68219e-06
1.22006e-06
1.68494e-06
1.45627e-06
0.00198852
0.000344541
1.54279e-06
5.62479e-07
7.54676e-07
2.06539e-06
1.58573e-06
6.69336e-07
2.51711e-06
6.14213e-07
1.53976e-06
5.97524e-07
0.00282111
1.47899e-06
0.000895547
1.58502e-06
1.53123e-06
1.54432e-06
1.40538e-06
1.53665e-06
6.57596e-07
1.41973e-06
1.58687e-06
1.6053e-06
1.6299e-06
5.67247e-07
5.7012e-07
1.55271e-06
1.68653e-06
1.38308e-06
0.00197766
0.00266749
1.27104e-06
7.10042e-07
0.00318002
1.60899e-06
1.42498e-06
2.36006e-05
1.474e-06
7.34371e-07
1.55158e-06
2.77322e-06
1.12557e-06
0.00102973
5.93903e-07
0.00252781
4.24743e-06
0.00734699
5.10442e-06
0.00114761
6.42116e-07
4.65952e-07
1.5834e-06
0.000208717
1.37663e-06
1.66717e-06
0.00103194
0.00458046
1.08501e-06
6.36581e-07
0.00349501
0.00186323
0.00176352
7.6351e-07
1.36975e-06
0.000833989
4.7342e-06
1.29608e-06
5.64652e-07
1.67848e-06
1.805e-06
1.64031e-06
0.000195331
0.00149328
5.92537e-07
1.62123e-06
0.00186998
6.02264e-07
7.00868e-07
6.0111e-07
1.53987e-06
1.6773e-06
1.29455e-06
1.41659e-06
1.12735e-06
2.83864e-06
0.0058666
1.57759e-06
0.00215238
6.60554e-07
1.2598e-06
8.15268e-07
0.00371516
1.68982e-06
7.52749e-07
1.41533e-06
1.22726e-06
2.42065e-06
1.06074e-06
5.69245e-07
1.68186e-06
4.66379e-07
1.42485e-06
0.000958659
1.91191e-06
7.65205e-06
1.45834e-06
6.93417e-07
6.55445e-07
1.24198e-06
6.35375e-07
8.74993e-07
1.4867e-06
1.23584e-06
1.22398e-06
7.17346e-07
1.16912e-06
1.63843e-06
1.59137e-06
0.00114048
4.65682e-06
0.0035763
1.76355e-06
1.64789e-06
1.68617e-06
6.0499e-07
1.25995e-06
9.01649e-07
0.00264579
1.67297e-06
1.4798e-06
1.46941e-06
1.69794e-06
1.42156e-06
0.00109585
6.02994e-07
0.0014938
2.0261e-06
1.5249e-06
4.20372e-07
1.54459e-06
1.634e-06
1.32161e-06
3.60142e-07
1.26912e-06
4.71287e-06
1.08399e-06
1.13081e-06
1.94997e-06
1.08479e-06
6.08264e-07
0.00165574
2.16969e-06
1.63265e-06
1.47455e-06
2.22975e-06
6.09286e-07
1.57193e-06
4.29337e-06
0.000145616
2.02765e-06
6.10985e-07
6.01859e-07
6.67165e-07
1.16984e-06
1.09435e-06
1.12574e-06
0.0026486
0.00100513
6.06165e-07
0.00800983
4.20239e-07
7.10725e-07
1.50585e-06
1.38856e-06
0.000964379
6.34309e-07
1.98485e-06
0.00159418
2.21827e-06
4.24746e-07
0.00627951
0.00104875
1.21755e-06
7.56667e-07
1.98388e-06
1.46467e-06
1.34929e-06
1.45687e-06
9.88558e-07
1.56325e-06
1.92628e-06
0.000939181
1.4735e-06
7.59404e-07
1.31347e-07
1.34487e-06
0.00258813
1.38241e-06
1.63635e-06
0.00112497
2.03661e-06
1.21115e-06
2.67672e-05
1.46614e-06
0.00107636
9.04741e-07
1.13281e-06
1.37674e-06
0.000137115
1.66156e-06
2.38864e-06
1.24599e-06
1.48101e-06
1.68569e-06
0.00839085
7.24922e-07
0.0116693
9.24747e-07
2.24416e-06
7.51385e-07
4.19584e-07
6.12182e-07
1.54716e-06
6.84848e-07
1.9471e-06
1.37159e-06
1.46232e-06
0.00234967
9.92282e-07
1.64478e-06
1.49293e-06
1.6167e-06
4.8925e-07
6.34912e-07
4.93446e-07
2.99048e-05
6.56901e-07
0.00664461
0.00238829
1.09851e-06
1.62162e-06
1.85986e-06
0.00254357
1.57234e-06
1.40948e-06
7.74133e-07
1.42161e-06
7.71348e-07
1.06872e-06
1.21773e-06
1.64431e-06
5.62526e-07
0.0158969
5.65032e-07
1.0883e-06
0.00237453
0.00186877
6.69993e-07
1.07439e-06
6.64447e-07
6.46864e-07
1.48072e-06
0.00196163
1.07193e-06
1.00515e-06
1.16455e-06
9.57099e-07
1.12177e-06
1.85836e-06
1.3278e-06
1.26973e-06
1.61624e-06
1.20874e-06
1.07094e-06
1.57732e-06
8.87297e-07
1.6103e-06
0.000476834
1.97548e-05
1.34996e-06
1.398e-06
7.25688e-07
0.00372957
1.26987e-06
1.07167e-06
1.87199e-06
1.28395e-06
5.87706e-07
7.82342e-06
9.54092e-07
7.42109e-07
1.563e-06
2.20426e-06
0.0029866
1.34467e-06
0.00019653
1.75378e-06
1.88377e-07
6.30279e-07
0.00585196
5.42148e-07
1.25089e-06
1.11825e-06
0.000946346
5.71339e-07
1.09608e-06
1.89864e-06
0.00190958
0.00223744
0.0019502
6.44935e-07
5.81094e-07
0.00154576
1.52957e-06
0.00184475
1.54196e-06
1.28727e-06
7.77974e-07
5.3829e-07
1.32101e-06
1.2641e-06
1.20427e-06
1.52914e-06
5.38043e-07
1.85572e-06
5.41308e-07
1.64769e-06
6.62478e-07
6.49558e-07
1.59211e-06
8.19578e-07
0.0115041
1.38244e-06
1.50467e-06
0.0015642
9.97021e-07
3.62116e-06
0.0296848
1.09985e-06
7.56114e-07
1.51058e-06
8.94695e-06
1.68785e-06
8.40109e-07
0.00191044
2.52636e-06
1.57443e-06
0.0174083
1.06427e-06
1.49995e-06
9.46866e-07
5.53074e-07
1.30853e-06
5.71752e-07
1.84296e-06
1.45777e-06
1.53566e-06
1.36289e-06
1.96517e-06
2.17187e-06
7.87518e-07
1.46537e-06
1.06853e-06
7.91081e-07
5.89637e-07
1.33384e-06
0.00652771
1.11614e-06
1.8584e-06
4.20707e-07
0.000875797
1.28102e-06
1.8723e-06
1.28079e-06
0.0046128
1.03526e-06
1.58209e-06
0.0134662
1.50054e-06
8.76103e-07
0.00977404
2.3681e-06
1.02974e-06
1.54188e-06
1.94127e-06
2.96931e-05
0.000830495
1.3542e-06
3.13296e-05
1.05612e-06
1.58998e-06
1.54183e-06
0.00428469
5.75175e-07
1.02203e-06
8.05249e-07
1.04329e-06
1.53701e-06
0.000433711
0.00250648
1.45958e-06
1.35251e-06
1.04907e-06
1.59038e-06
4.19856e-07
0.00352385
1.40431e-06
1.27123e-06
1.23973e-06
8.69624e-07
1.24051e-06
0.00337293
1.98133e-06
0.00017831
8.26525e-07
1.45432e-06
7.28375e-07
1.39806e-06
1.36825e-06
2.15399e-06
4.18503e-07
1.52255e-06
0.00187014
6.71269e-06
8.09262e-07
1.54951e-06
9.00855e-07
0.00326506
1.97594e-05
9.94511e-07
0.00245775
1.09201e-06
2.46487e-07
1.8541e-06
1.4202e-06
1.56107e-06
0.00502779
9.88534e-06
1.07668e-06
1.36159e-06
1.10288e-06
1.06554e-06
1.83296e-06
0.0123713
7.58858e-07
1.8582e-06
4.64194e-06
1.96258e-06
1.97258e-06
0.01208
0.00291101
1.22766e-06
1.47671e-06
1.79593e-06
1.27344e-06
1.32784e-06
4.196e-07
1.75588e-06
0.0155858
1.00964e-06
1.5218e-06
1.49741e-06
0.00366285
5.63363e-07
1.4111e-06
7.30207e-07
1.61035e-06
6.32561e-07
5.46574e-07
0.00538256
7.81997e-06
7.50585e-05
1.35093e-06
5.3505e-07
0.00935548
4.59096e-05
0.00366826
1.53243e-06
1.64501e-06
0.00187085
5.88399e-07
1.26978e-06
2.06235e-06
0.000117232
1.40409e-06
5.88232e-07
2.38973e-05
5.46717e-07
1.1051e-06
9.58979e-07
0.00209466
6.18067e-07
1.58521e-06
0.00430819
1.53647e-06
3.58799e-06
7.70168e-07
1.33899e-06
1.45575e-06
6.22778e-07
0.000678293
0.0016245
1.60548e-06
1.4929e-06
1.56172e-06
1.72409e-05
1.26389e-06
1.10228e-06
1.62532e-06
4.13462e-07
0.00164198
5.49833e-07
7.47529e-07
1.21918e-06
5.24939e-07
1.78872e-06
3.70558e-07
2.17723e-05
1.67861e-06
8.34581e-07
5.60024e-07
8.34113e-07
4.33811e-07
1.32098e-06
1.49465e-06
1.61846e-06
7.62351e-06
0.0013947
1.17629e-06
1.5747e-06
2.99494e-05
1.36941e-06
5.217e-07
1.56046e-06
1.83053e-06
0.0128948
1.14704e-06
1.287e-06
1.53589e-06
0.000847826
1.45419e-06
1.12701e-06
1.64459e-06
1.05945e-06
1.49627e-06
1.55471e-06
1.45214e-06
1.78649e-05
3.74439e-06
3.9579e-06
1.43845e-06
1.17036e-06
0.00514273
1.69022e-06
6.94133e-07
0.00201242
2.18305e-06
1.19565e-06
5.59913e-07
1.56591e-06
7.12563e-07
1.26768e-05
1.55743e-06
8.42613e-07
1.33214e-06
1.1207e-06
1.81766e-06
1.2027e-06
1.6441e-06
7.06798e-07
3.13779e-05
1.31042e-06
0.00191309
6.50633e-07
1.67521e-06
8.27262e-07
1.20205e-06
1.81174e-06
1.45432e-06
1.84309e-06
1.60332e-06
1.80796e-06
0.00510202
7.00265e-07
1.66115e-06
7.11653e-07
1.36486e-06
0.0368525
1.3031e-06
6.89273e-07
5.50189e-07
1.45935e-06
6.57951e-06
0.00103034
1.63434e-06
2.51167e-06
5.17437e-07
0.00281011
0.00359347
0.000218808
1.78199e-06
1.21481e-06
0.0127755
1.62116e-06
1.21885e-06
7.91369e-07
1.53407e-06
7.1851e-07
0.002827
1.53475e-06
1.20235e-06
6.334e-07
1.36857e-06
1.62226e-06
7.92611e-07
2.51067e-06
7.68693e-07
0.00212338
7.12419e-07
0.0168558
5.14148e-07
2.30306e-06
1.06209e-06
8.24272e-07
1.40954e-06
1.54115e-06
6.64777e-07
4.75581e-07
1.5256e-06
1.50214e-06
8.50516e-07
5.35773e-07
0.000413606
7.25274e-07
6.56517e-07
5.3915e-07
1.35121e-06
7.55296e-07
1.58928e-06
1.49818e-06
3.59564e-06
8.31794e-07
5.47965e-07
5.58153e-07
1.77687e-06
1.66152e-06
1.11445e-06
1.22846e-06
1.00994e-05
1.35078e-06
0.00501958
1.09117e-06
0.000306778
1.536e-06
5.51307e-07
1.44021e-06
1.48884e-06
3.78688e-06
4.07822e-07
0.00270083
0.00579792
0.0129711
1.57175e-06
1.17526e-06
1.52217e-06
0.00425637
0.00122109
6.88726e-07
1.61425e-06
0.021261
1.61302e-06
4.29369e-07
0.0129922
1.5771e-06
9.31386e-06
1.14977e-06
0.000186001
3.26552e-05
1.77839e-06
1.08628e-06
3.2865e-06
5.25498e-07
1.10469e-06
1.39775e-06
6.03243e-05
1.58947e-06
5.57495e-07
9.3627e-07
0.00472376
1.33926e-06
4.18521e-07
8.00379e-07
1.22905e-06
1.41486e-06
5.45075e-07
1.45161e-06
0.00116571
2.82133e-05
2.67647e-06
7.49164e-07
7.94419e-07
5.30258e-07
0.000501617
5.27434e-07
1.38809e-06
8.19438e-07
1.58444e-06
1.6494e-06
0.000958903
1.40384e-06
1.2845e-06
1.23519e-06
4.21926e-07
2.94151e-05
1.5432e-06
1.6575e-06
1.345e-06
4.11018e-06
1.09332e-06
1.16867e-06
0.000219563
9.35462e-07
8.16136e-07
1.72289e-06
2.17055e-06
1.73952e-06
9.80043e-07
1.26834e-06
1.18991e-06
1.35709e-06
8.44349e-07
1.33475e-06
1.58723e-06
2.9724e-05
1.58135e-06
0.0052293
1.6075e-06
8.42127e-07
0.00186735
1.12165e-06
1.42656e-06
5.10286e-07
1.70941e-06
4.90222e-07
5.1439e-07
1.51489e-06
7.2327e-07
0.000618442
1.29696e-06
1.56918e-06
0.000191322
1.65708e-06
5.41894e-07
9.83206e-07
1.86088e-06
1.6026e-06
1.57037e-06
5.18077e-07
1.42857e-06
1.67627e-06
0.0235275
1.71191e-06
3.95609e-06
1.37207e-06
1.60774e-06
3.8393e-05
1.12649e-06
1.5013e-06
1.48864e-06
1.1547e-06
4.39161e-07
1.01364e-06
1.41128e-06
1.66119e-06
4.14604e-07
2.30251e-06
1.48352e-06
0.0038366
2.5036e-06
0.00717836
1.53082e-06
2.05744e-06
1.57806e-06
1.33405e-06
1.92177e-06
0.00204908
0.00308287
1.0428e-06
1.27979e-06
2.09017e-06
1.68106e-06
1.76022e-06
7.45742e-07
9.88576e-07
1.58398e-06
1.61681e-06
1.358e-06
1.35856e-06
0.000817582
0.00297096
1.84682e-06
7.77863e-07
1.34564e-06
1.53346e-06
1.08788e-06
5.60113e-07
1.49366e-06
4.83818e-07
0.00456301
1.44096e-06
0.00706722
1.68035e-06
1.07676e-06
0.00364032
2.22445e-06
1.67084e-06
1.51164e-06
1.8125e-06
7.55417e-07
1.4103e-06
1.70827e-06
1.49336e-06
7.50771e-07
0.00344846
1.80407e-06
3.56912e-07
4.88268e-07
1.93846e-07
2.66329e-07
8.20343e-07
1.06138e-06
3.83059e-05
6.96648e-07
5.21288e-07
5.90068e-07
5.90561e-07
0.00201108
1.27436e-06
4.50847e-07
0.00180355
0.0112972
1.38997e-06
1.33981e-06
1.62207e-06
1.48401e-06
1.66424e-06
0.00185391
1.5887e-06
1.37968e-06
1.1183e-06
3.29021e-06
1.30122e-06
0.00517315
1.11631e-05
7.60334e-07
6.5427e-07
2.60432e-06
4.78535e-07
7.34047e-07
0.00511374
4.17268e-07
1.18336e-06
7.29393e-07
0.00667261
7.96628e-07
3.27024e-05
9.56582e-07
1.1173e-06
7.20619e-07
0.0132896
2.06768e-06
1.56949e-06
5.1377e-07
0.00269598
1.77507e-06
9.75685e-07
1.51999e-06
3.45384e-06
1.57287e-06
3.40842e-05
1.40882e-06
1.24009e-06
7.32007e-07
0.00262353
1.26114e-06
7.44532e-07
1.09322e-06
7.06781e-07
7.37584e-07
8.29775e-07
8.22023e-07
1.01796e-06
1.24867e-06
1.5649e-06
1.31568e-06
1.83743e-07
1.59729e-06
1.64244e-06
1.52733e-06
1.5938e-06
1.19721e-06
1.37611e-06
1.30538e-06
1.22341e-06
0.00403356
6.49028e-07
1.43131e-06
0.00431589
1.87907e-06
0.000265987
4.44142e-07
0.00202831
1.36973e-06
1.19646e-06
1.67159e-06
5.14143e-06
7.069e-07
1.77288e-06
7.94809e-07
1.39861e-06
1.37737e-06
1.67627e-06
0.000948334
0.00102423
1.69954e-06
1.66954e-06
7.40953e-07
1.21363e-06
7.83993e-07
1.55894e-06
2.72021e-05
1.44587e-06
0.0055312
5.27044e-07
0.00274328
1.12732e-06
8.12959e-07
1.57818e-06
1.36857e-06
9.28597e-07
1.11654e-06
1.2993e-06
5.44077e-07
7.24291e-07
9.97666e-06
6.66719e-05
1.41889e-06
5.5272e-07
1.34869e-06
0.00357314
6.8771e-07
1.65088e-06
5.18962e-07
0.00169598
1.14035e-06
1.37564e-06
1.45037e-06
1.20916e-06
1.26985e-06
3.09191e-06
9.76021e-07
1.23986e-06
5.18131e-07
1.05158e-06
3.42608e-06
7.86557e-07
0.00257966
0.00186029
1.47306e-06
7.97362e-07
7.33326e-07
1.09296e-06
1.40221e-06
1.28898e-06
4.43133e-07
6.88834e-07
1.0669e-06
0.00188634
1.47652e-06
0.00610885
1.17603e-06
6.49443e-07
0.0160791
6.75281e-07
1.21635e-06
4.2692e-07
0.00288912
1.38567e-06
1.6039e-06
0.00220443
2.10683e-07
9.82222e-07
0.00218301
1.55749e-06
9.44997e-07
1.46858e-06
0.00168347
1.05434e-06
9.70001e-07
1.68936e-06
0.000899064
2.0743e-06
1.61269e-06
1.31999e-06
4.46207e-07
6.56198e-07
4.61858e-07
1.05072e-06
1.73392e-06
1.38947e-06
1.19515e-06
1.64473e-06
1.64423e-06
1.99743e-07
2.11583e-07
1.46314e-06
5.43898e-05
1.59886e-06
0.005863
1.85768e-06
0.00183713
1.17948e-06
1.0893e-06
1.36944e-06
1.4646e-06
1.01018e-06
1.51646e-06
0.00271609
2.07882e-06
1.997e-06
1.06886e-06
1.3558e-06
2.26023e-06
0.00221331
1.64062e-06
1.41398e-06
1.47333e-06
1.40593e-06
0.00313798
1.33829e-06
5.51519e-07
0.00214659
0.00239126
1.22233e-06
1.07848e-06
1.64541e-06
7.81744e-07
4.48318e-07
0.000144737
1.683e-06
0.00661355
7.30512e-07
1.1218e-06
1.04931e-06
1.21464e-06
7.3029e-07
1.11179e-06
1.73575e-06
7.27768e-06
1.58622e-06
6.80249e-07
9.92663e-07
0.00117326
5.23778e-05
1.8721e-06
0.000412632
5.82769e-07
1.21176e-06
1.18851e-06
6.08922e-06
4.18279e-07
1.68244e-06
9.16265e-07
1.27729e-06
1.60337e-06
6.14883e-07
1.12974e-06
9.54639e-07
1.21067e-06
1.26567e-06
3.83939e-06
1.39271e-06
6.84754e-07
0.00232876
1.56102e-06
1.05774e-06
0.000447463
1.64418e-06
6.2261e-07
3.81587e-06
1.64324e-06
9.65983e-07
0.00116141
0.000662271
5.1242e-07
1.58324e-06
1.46802e-06
1.80432e-06
1.80173e-06
6.83458e-06
2.03178e-06
1.40287e-06
3.93583e-06
1.67915e-06
9.73829e-07
1.59847e-06
1.74783e-06
1.22851e-06
1.189e-06
6.21457e-07
6.98004e-07
1.26921e-06
1.22895e-06
1.76789e-06
1.54936e-06
6.94626e-07
1.6707e-06
1.30715e-06
7.91054e-07
1.95052e-06
5.08392e-06
7.28436e-07
1.23066e-06
1.30804e-06
1.23453e-06
9.91142e-07
1.27409e-06
1.46588e-06
7.96068e-07
1.23639e-05
1.02282e-06
1.06574e-06
1.60385e-06
0.00140311
2.09862e-06
0.0201007
6.86217e-07
1.99647e-06
1.38519e-06
1.55558e-06
4.61967e-06
9.90365e-07
1.85455e-07
9.55234e-07
1.75293e-06
1.62341e-06
9.68556e-07
1.47552e-06
1.14964e-06
1.46368e-06
0.00371844
1.59246e-06
1.84734e-06
4.45383e-07
1.37606e-06
0.00206914
4.95031e-06
0.000977845
1.54346e-06
1.97815e-06
3.71531e-06
1.48386e-06
1.05717e-06
1.44411e-06
1.5061e-06
1.12035e-06
0.0106486
3.57688e-06
0.00378885
1.59025e-06
1.31325e-06
1.41374e-06
1.86618e-06
1.55494e-06
4.49739e-07
1.0742e-06
9.57296e-07
1.17418e-06
1.11251e-06
7.9633e-07
1.51115e-06
1.40011e-06
1.17647e-06
0.0084557
2.05735e-06
0.0017196
1.35212e-06
1.27132e-06
1.51519e-06
1.58153e-06
1.22194e-06
2.83764e-06
1.29809e-06
2.75596e-06
1.47682e-06
4.52177e-06
1.23833e-06
1.22396e-06
7.26923e-07
1.55012e-06
1.3771e-06
8.49763e-07
6.45139e-05
9.44899e-07
1.37739e-06
6.6672e-07
1.46981e-06
0.000970319
2.22273e-06
1.4569e-06
1.43841e-06
0.000890398
1.02752e-07
6.53555e-07
0.00862738
2.49543e-06
2.04314e-06
1.47602e-06
1.55289e-06
1.49596e-06
1.29853e-06
1.92209e-06
1.04771e-06
0.000170106
1.26724e-06
5.63054e-07
1.59063e-06
1.55862e-06
1.38683e-06
6.64046e-07
6.9755e-07
0.000630043
1.7888e-06
1.8196e-06
1.39656e-06
1.55297e-06
5.56071e-07
2.12839e-06
2.60042e-06
1.58616e-06
1.08193e-06
4.275e-07
1.06934e-06
5.60242e-06
8.06399e-07
2.3741e-06
1.54392e-06
1.49646e-06
0.00231925
1.39543e-06
3.28399e-06
2.20456e-06
1.41052e-06
1.26566e-05
7.29853e-07
1.26817e-06
3.28648e-06
0.00185196
1.48908e-06
9.65006e-07
1.06795e-06
0.00213767
4.25006e-07
0.0007657
1.64684e-06
8.76441e-07
1.48895e-06
1.68728e-06
0.0022295
1.45202e-06
1.57764e-06
1.615e-06
1.76532e-06
8.80596e-07
1.35749e-06
0.000833959
2.01821e-06
2.98669e-07
1.64299e-06
1.23832e-06
8.79621e-07
5.39571e-05
0.00100416
1.45573e-06
1.43602e-06
2.83968e-05
0.00150741
5.67342e-07
5.942e-07
5.7282e-07
1.43777e-06
1.2924e-06
1.19574e-06
1.64716e-06
5.95888e-06
1.62606e-06
1.6188e-06
2.05798e-06
0.00990445
9.81577e-07
1.54011e-06
0.0200873
0.00801695
1.02219e-06
7.17902e-07
6.3084e-07
9.03893e-07
1.37754e-06
1.32241e-06
1.77488e-06
1.38674e-06
0.000103462
1.37817e-06
6.84219e-07
2.30326e-06
0.00547442
8.82868e-05
1.22975e-06
8.07493e-07
4.46159e-07
2.85718e-06
7.58835e-07
7.90317e-07
9.65334e-07
1.71647e-06
1.72433e-06
0.0046689
0.00191879
1.58141e-06
1.54904e-06
5.85557e-07
5.62047e-07
8.39439e-07
1.67237e-06
1.7504e-06
4.4232e-07
1.24463e-06
1.37793e-06
1.64814e-06
1.62208e-06
1.00311e-06
2.3397e-06
7.29535e-07
1.89781e-06
1.18965e-06
7.13442e-07
8.85108e-07
1.62864e-06
1.62607e-06
1.47665e-06
6.96771e-07
1.21748e-06
1.37568e-06
4.35455e-07
6.41543e-07
1.01278e-06
0.00242878
1.51551e-06
3.42016e-06
1.321e-06
1.50443e-06
0.00233541
1.35165e-06
6.23905e-07
1.87458e-06
1.4588e-06
0.00020041
0.00238047
3.26009e-05
1.27707e-06
0.00538803
1.227e-06
1.27551e-06
0.00182756
4.24367e-06
0.00636627
1.28663e-06
1.47162e-06
1.51281e-06
1.08444e-06
7.92761e-07
1.27514e-06
1.40434e-06
1.04252e-06
0.00975115
1.67715e-06
7.40638e-07
1.92052e-06
1.95493e-06
5.702e-07
1.58749e-06
1.62863e-06
0.000168926
1.43356e-06
4.49831e-07
8.28539e-07
6.82126e-07
1.60936e-06
4.79813e-07
7.65774e-07
4.71517e-07
4.85737e-06
4.79292e-07
1.46627e-06
1.19786e-06
4.48969e-07
1.36446e-06
2.23197e-06
1.37124e-06
1.54836e-06
0.00192528
1.92683e-06
1.4333e-06
1.4385e-06
1.12256e-06
3.23757e-05
6.73415e-07
1.059e-06
1.64987e-06
5.21042e-06
1.00068e-06
1.62045e-06
1.09248e-06
1.47971e-06
0.00768604
1.51213e-06
1.58127e-06
1.72949e-06
1.25355e-06
1.87723e-05
9.91962e-07
0.00205163
1.92257e-06
1.43917e-06
2.13502e-06
0.0252189
1.75805e-06
1.50224e-06
6.2767e-07
1.24333e-06
1.32139e-06
9.7755e-07
1.78731e-06
6.77164e-07
4.79502e-07
9.96505e-07
4.58988e-07
9.77275e-07
0.000374036
1.65645e-06
1.57208e-06
1.30652e-06
1.42092e-06
1.6465e-06
0.00180753
4.31431e-07
1.61131e-06
0.010295
1.32415e-06
1.61239e-06
0.00544874
1.00904e-06
1.46466e-06
1.36155e-06
6.43156e-07
1.62046e-06
0.00179411
1.60635e-06
1.41109e-06
1.3976e-06
1.05023e-06
1.55615e-06
6.68e-07
1.37903e-06
0.000136083
1.6468e-06
1.56591e-06
0.0041849
6.37918e-07
1.58279e-06
6.50518e-07
1.16172e-06
1.60512e-06
7.11304e-05
7.01531e-07
1.09159e-06
1.57209e-06
6.48583e-07
8.64868e-07
1.36139e-06
0.00192171
8.64447e-05
0.00234662
2.30863e-06
1.45274e-06
1.96493e-06
0.00233847
1.46988e-06
1.74413e-06
1.52976e-06
1.5183e-06
0.00438542
1.33193e-06
2.50845e-06
8.28201e-07
1.53887e-06
7.37793e-07
9.70143e-07
1.47537e-06
2.54841e-06
1.30082e-06
1.71413e-06
1.39746e-06
5.58751e-06
1.54988e-06
0.00128755
4.18791e-07
0.00460293
1.39356e-06
4.87121e-07
8.34583e-07
1.54968e-06
0.0182169
0.00366284
1.49522e-06
0.02781
1.58919e-06
1.84242e-06
0.0190204
1.46866e-06
1.46399e-06
4.94804e-07
1.27511e-06
0.0206472
0.0269544
9.16166e-07
0.0032626
8.35202e-07
0.0281135
1.65401e-06
1.43942e-06
0.0283912
1.45081e-06
1.31536e-06
1.33765e-06
1.31749e-06
1.58777e-06
1.68147e-06
1.18088e-06
5.81303e-07
8.13111e-07
1.73751e-06
1.49003e-06
5.20304e-06
1.43958e-06
1.12564e-06
4.86853e-07
1.94166e-06
1.18243e-06
0.00556798
1.28521e-06
7.64635e-07
4.42465e-06
1.40679e-06
1.27629e-06
1.57343e-06
1.51938e-06
1.46551e-06
9.49857e-07
1.32789e-06
0.00258505
1.34268e-06
1.77893e-06
0.000136158
0.0015406
1.51706e-06
6.72091e-07
1.33846e-06
0.0074759
1.2923e-06
1.41001e-06
0.00346868
6.85602e-07
1.5539e-06
1.13752e-06
0.0246666
1.41111e-06
0.00278679
1.39176e-06
1.59319e-06
1.26556e-06
6.83135e-07
0.0130896
1.69533e-06
0.0027934
2.32556e-06
0.00197616
0.00221984
1.47775e-06
1.162e-06
1.07224e-06
0.00129092
1.4136e-06
0.0201112
1.53008e-06
0.00184842
1.42468e-06
1.17092e-06
0.00192498
1.46196e-06
0.0049037
1.27151e-06
1.5945e-06
0.00185053
8.73949e-07
1.14659e-06
6.25092e-07
9.45595e-07
1.6582e-06
8.08796e-07
1.2492e-06
1.99712e-06
0.00232078
1.38851e-06
5.87876e-06
0.00244443
1.68448e-06
1.25086e-06
4.0595e-06
0.0259333
1.60063e-06
1.93302e-06
1.56134e-06
2.44979e-06
3.13636e-05
8.69397e-07
1.46016e-06
1.3385e-06
3.84021e-07
1.48542e-06
1.22545e-06
1.00604e-06
1.37763e-06
0.019146
1.38081e-06
0.00191353
1.01621e-06
0.000261564
1.57337e-06
0.00273129
1.05011e-06
1.35207e-06
1.56147e-06
7.49251e-05
1.7989e-06
0.003941
2.28853e-06
5.90655e-06
1.37737e-06
1.94994e-06
7.76929e-07
1.30594e-06
0.00486803
0.00180468
1.01119e-06
1.30934e-06
4.19956e-07
0.00282413
1.40246e-06
4.49574e-07
1.21773e-06
1.42653e-06
1.05492e-06
1.52382e-06
6.77431e-07
4.88498e-07
1.63505e-06
1.38747e-06
1.73506e-06
1.88569e-06
1.44683e-06
1.61237e-06
1.56826e-06
1.03668e-06
0.00101026
0.0165221
1.13613e-06
4.945e-07
1.27999e-06
4.53159e-07
1.13985e-06
0.0174666
1.11509e-06
5.79155e-07
0.0193879
9.66106e-07
4.51076e-07
1.48936e-06
5.66073e-07
0.00206528
3.33618e-05
4.74236e-07
4.57224e-07
1.43196e-06
1.44723e-06
1.76858e-06
9.28122e-07
0.00110014
9.52291e-07
1.21356e-06
0.00315829
5.6101e-07
1.15588e-06
4.65676e-07
1.64599e-06
4.50607e-07
2.58237e-07
1.9691e-06
1.10534e-06
1.1753e-06
0.0152713
0.000575553
0.0026669
1.14104e-06
1.05534e-06
1.56048e-06
2.15364e-06
4.9101e-07
4.34153e-06
4.49815e-07
1.62801e-06
1.18904e-06
1.26666e-06
2.66689e-07
1.62643e-06
0.00747924
1.77987e-06
0.000285674
1.67593e-06
1.23051e-06
0.0139684
1.63726e-06
1.79568e-06
5.65058e-07
1.30035e-06
1.32771e-06
1.73768e-06
0.00303348
8.8144e-07
1.59367e-06
2.2371e-06
1.57731e-06
1.24536e-06
8.58347e-07
1.44282e-06
0.00393086
0.00174872
2.82958e-06
6.46011e-07
1.29243e-06
0.00219934
1.11851e-06
1.3905e-06
1.04208e-06
3.15508e-06
1.64197e-06
0.0226622
2.38555e-06
0.000191079
1.57336e-06
1.46512e-06
1.45499e-06
1.01149e-06
1.33969e-06
0.00798888
0.00113002
1.54953e-06
2.52076e-06
9.10742e-07
7.91611e-07
0.000463072
6.36518e-07
0.0245834
3.46077e-06
1.80589e-06
0.0164594
1.39391e-06
1.09612e-05
1.34048e-06
6.74594e-07
0.00376626
1.10072e-06
1.09454e-06
1.29824e-06
0.000597844
1.52445e-06
1.28392e-06
1.58639e-06
0.000490577
1.53888e-06
0.000262304
1.70889e-06
1.04075e-06
2.58225e-06
1.46899e-06
1.52562e-06
1.67127e-06
1.57075e-06
1.57244e-06
7.79132e-07
2.11643e-06
1.44528e-06
1.45939e-06
0.00785037
1.45392e-06
1.45876e-06
1.08225e-06
6.72147e-07
0.00222265
0.00310718
1.53664e-06
0.00114342
0.00201554
1.42122e-06
7.52806e-07
1.50828e-06
2.3458e-06
1.22741e-06
6.39709e-07
0.00190736
0.00332998
0.0185146
0.0196781
1.50376e-06
4.46588e-07
1.5272e-06
1.04998e-06
0.00216157
5.11907e-07
0.000985409
0.000851978
1.2455e-06
1.33762e-06
1.44692e-06
1.50247e-06
0.0021441
9.27114e-07
1.20561e-06
1.31977e-06
0.00599953
4.47111e-07
6.08762e-07
1.59535e-06
4.40592e-07
1.32998e-06
1.80686e-06
1.89844e-06
8.40841e-07
1.58728e-06
1.28435e-06
0.00361551
6.89548e-07
1.07883e-06
1.04412e-06
1.81374e-06
0.00692707
8.20566e-07
4.99346e-07
1.22879e-06
1.75715e-06
1.2963e-05
1.32485e-06
1.26171e-06
3.92571e-05
1.04746e-06
6.74855e-07
1.09978e-06
2.88251e-06
0.00273319
4.46699e-07
0.0223381
0.000777059
3.30396e-06
8.46371e-07
0.00163698
3.21294e-06
0.00189077
1.39264e-06
1.19777e-06
1.62869e-06
1.10772e-06
1.2945e-06
0.0017603
0.00317434
1.07776e-06
1.69594e-06
1.16962e-06
4.45492e-07
1.53597e-06
1.5089e-06
1.50858e-06
1.92097e-06
1.48402e-06
3.67665e-07
0.00369559
1.40042e-06
1.35529e-06
1.10556e-06
0.000302044
1.5211e-06
0.000702026
2.3072e-06
8.62801e-07
1.48355e-06
1.94355e-06
4.18738e-06
1.04529e-06
1.3821e-06
1.36646e-06
2.27585e-06
7.90519e-07
1.32865e-06
0.0261354
2.33069e-06
1.34413e-06
4.22392e-06
0.00197387
1.5864e-06
5.1541e-07
1.37961e-06
1.32015e-06
3.02781e-08
1.05191e-06
0.00206205
5.23054e-05
1.74037e-06
1.38341e-06
3.58333e-06
1.95063e-06
5.76286e-07
8.92562e-07
2.06119e-06
0.00287954
1.55869e-06
0.00827305
0.00183909
0.000163421
2.04547e-06
2.74214e-05
1.74442e-06
1.31748e-06
2.24951e-06
1.18786e-06
1.39833e-06
6.79663e-07
1.58152e-06
4.43917e-07
3.85504e-05
1.45081e-06
9.7728e-07
0.00887443
1.4562e-06
0.000728591
1.88786e-06
9.98703e-07
1.92061e-05
0.00152254
0.00299881
1.30366e-06
1.28264e-06
1.2874e-06
0.00174046
0.000627057
6.43305e-07
1.04313e-06
1.73033e-06
1.83647e-06
0.000726642
1.51956e-06
0.00206266
7.71612e-07
0.000663277
1.78422e-06
0.00867781
1.64625e-06
1.53163e-06
1.30009e-06
1.5308e-06
5.01819e-07
1.5038e-06
1.33622e-06
9.70841e-07
2.34405e-06
3.72606e-06
1.29052e-06
1.66351e-06
1.48316e-06
2.83863e-06
3.28476e-06
1.3838e-06
1.49391e-06
0.00179997
4.95652e-07
0.0001606
1.47025e-06
2.55903e-06
1.88166e-06
0.00234159
1.32029e-06
0.000589011
0.00173823
1.98178e-06
1.26263e-06
6.87637e-07
1.50228e-06
6.35207e-07
7.69164e-07
1.88797e-06
2.39059e-06
4.7654e-07
0.00136244
1.06252e-06
0.00291428
1.60818e-06
4.06485e-06
0.00196324
1.62322e-06
1.54823e-06
0.000247832
1.59656e-06
5.84681e-07
1.6271e-06
6.845e-07
2.04579e-06
1.46463e-06
2.11722e-06
1.20345e-06
3.14145e-06
0.00249725
1.48921e-06
1.38784e-06
1.2199e-06
2.04748e-06
0.000461523
1.18187e-06
1.40941e-06
1.08178e-06
2.23101e-06
1.44356e-06
0.00279471
0.00230997
2.28561e-06
1.19568e-06
1.93533e-06
1.7199e-06
1.30722e-06
0.00163744
2.01823e-06
6.8102e-07
0.0231494
4.74474e-07
1.58146e-06
1.43383e-06
2.01586e-06
1.40336e-06
1.73261e-06
0.00447306
3.21001e-06
1.62605e-06
1.33206e-06
0.00223973
0.00207307
4.67538e-05
1.87433e-06
1.39997e-06
0.00191586
0.00891869
1.28035e-06
0.00326493
1.69543e-06
1.01368e-06
1.567e-06
0.000520006
0.00256239
1.47475e-06
0.0118097
1.21261e-06
3.29577e-07
0.0226316
1.56179e-06
1.61217e-06
1.53219e-06
1.40328e-06
1.24489e-06
0.00577506
0.0011023
1.50466e-06
1.95034e-06
1.61025e-06
1.51818e-06
1.49947e-06
2.03599e-06
1.53348e-06
0.0031987
2.83359e-06
1.20911e-06
1.56755e-06
1.29111e-06
1.31348e-06
4.90949e-07
1.86043e-06
1.5747e-06
0.00173742
2.31077e-06
1.31755e-06
1.38553e-06
5.07695e-07
2.14675e-06
2.86424e-06
4.47463e-07
1.43538e-06
1.88675e-06
1.40441e-06
4.83418e-07
6.6298e-07
6.80275e-07
1.03986e-06
1.63719e-06
9.72443e-07
1.34827e-06
2.4859e-06
5.66669e-07
2.00783e-06
1.759e-06
0.000316194
0.00186238
2.20622e-06
1.65221e-06
0.00193221
0.00251998
0.00132538
2.88321e-06
1.38934e-06
0.00128977
2.76669e-05
1.43118e-06
1.21991e-06
1.27966e-06
8.92558e-07
1.74848e-06
1.50166e-06
1.48608e-07
1.40281e-06
1.79544e-06
1.18761e-06
0.00369101
1.82366e-06
1.77411e-06
0.00247124
1.8991e-06
1.49829e-06
2.37978e-06
0.00710107
8.55514e-07
2.23415e-06
1.28051e-06
2.80351e-06
1.01127e-06
1.19713e-06
7.55138e-07
1.53499e-06
3.24915e-06
2.25949e-06
2.15117e-06
1.83671e-06
1.34733e-06
1.6789e-06
1.53739e-06
1.40644e-06
2.19965e-06
1.75309e-06
0.000376798
0.00269874
1.4405e-06
2.13084e-06
1.45186e-06
1.6476e-06
6.36422e-07
1.41729e-06
1.85593e-06
0.00277018
2.26334e-06
1.82052e-06
1.00996e-06
1.98921e-06
6.9406e-07
1.68256e-06
1.85397e-06
0.00198125
0.00631588
5.86859e-07