/*--------------------------------*- C++ -*----------------------------------*\
| =========                 |                                                 |
| \\      /  F ield         | OpenFOAM: The Open Source CFD Toolbox           |
|  \\    /   O peration     | Version:  v2012                                 |
|   \\  /    A nd           | Website:  www.openfoam.com                      |
|    \\/     M anipulation  |                                                 |
\*---------------------------------------------------------------------------*/
FoamFile
{
    version     2.0;
    format      ascii;
    class       volScalarField;
    location    "100";
    object      k_0;
}
// * * * * * * * * * * * * * * * * * * * * * * * * * * * * * * * * * * * * * //

dimensions      [0 2 -2 0 0 0 0];


internalField   nonuniform List<scalar> 
14315
(
6.14276e-05
0.000323971
7.14918e-05
8.76419e-05
8.54893e-05
8.52019e-05
5.27804e-05
7.86926e-05
0.0101914
6.32455e-05
6.17267e-05
7.44285e-05
0.00111045
8.8007e-05
5.25899e-05
7.8785e-05
7.87128e-05
0.00906445
6.34721e-05
7.86742e-05
9.01341e-05
7.5592e-05
5.2331e-05
6.18939e-05
0.00469696
8.76967e-05
0.000144238
6.30221e-05
0.000143533
5.45682e-05
9.27927e-05
5.56046e-05
0.028025
5.97989e-05
8.16738e-05
5.54874e-05
6.10749e-05
8.17635e-05
5.20901e-05
8.6291e-05
0.00953584
8.37612e-05
8.43319e-05
0.000101713
9.72882e-05
8.69693e-05
7.14776e-05
6.27937e-05
7.87204e-05
8.4208e-05
6.08625e-05
9.84889e-05
5.42337e-05
6.27561e-05
5.44083e-05
8.28096e-05
0.000123979
6.21283e-05
8.75234e-05
0.00581452
6.26038e-05
8.68546e-05
9.09822e-05
5.74058e-05
7.47784e-05
7.07342e-05
7.17145e-05
9.26696e-05
8.14444e-05
5.54686e-05
5.99753e-05
5.71739e-05
5.87806e-05
8.09654e-05
7.73685e-05
7.89563e-05
5.73724e-05
8.69412e-05
5.5355e-05
0.000105176
7.50512e-05
0.0269765
7.85429e-05
5.71113e-05
5.41486e-05
0.0387039
9.70276e-05
5.85521e-05
5.8756e-05
5.99434e-05
9.20454e-05
0.00908279
0.00111402
9.08335e-05
6.52926e-05
7.45868e-05
5.40095e-05
5.05225e-05
6.24391e-05
8.3935e-05
8.69974e-05
6.04209e-05
5.37127e-05
8.44293e-05
5.85281e-05
7.62236e-05
8.64367e-05
8.89307e-05
8.30009e-05
9.50072e-05
8.62902e-05
9.6507e-05
7.77716e-05
0.000115646
7.55852e-05
9.74111e-05
8.44276e-05
8.16824e-05
0.00908386
0.0287967
6.25569e-05
7.9017e-05
6.32922e-05
9.03575e-05
0.000127308
7.4356e-05
0.038711
6.1737e-05
7.33382e-05
8.73635e-05
9.53311e-05
0.00471884
0.0289989
0.0197846
7.87662e-05
7.3238e-05
0.00866133
0.000114474
0.00144881
0.0339593
9.91932e-05
0.000130872
5.46523e-05
0.00427626
0.0106815
8.08182e-05
7.75541e-05
6.19423e-05
9.30498e-05
9.46662e-05
8.6772e-05
4.47538e-05
5.62275e-05
5.5917e-05
5.30858e-05
8.3049e-05
8.58921e-05
4.92631e-05
0.000108227
0.000103545
8.78972e-05
8.75984e-05
0.0174295
9.32786e-05
5.2701e-05
0.0425151
5.28229e-05
9.02486e-05
5.89764e-05
8.5472e-05
0.00907075
0.00940733
8.68513e-05
8.61488e-05
0.00162196
0.0247416
7.40065e-05
7.42427e-05
9.38226e-05
0.00010546
0.031145
9.02115e-05
8.6438e-05
8.41048e-05
8.99451e-05
0.0253925
8.658e-05
8.6682e-05
7.22493e-05
9.30172e-05
7.949e-05
0.0299518
0.000140274
4.44821e-05
5.0376e-05
8.28096e-05
0.0191621
8.81637e-05
8.80353e-05
9.49472e-05
0.0282175
8.88694e-05
6.13332e-05
8.07925e-05
8.75395e-05
7.44668e-05
7.97086e-05
0.000102134
5.24448e-05
4.47395e-05
7.21202e-05
8.09449e-05
0.000105235
9.01322e-05
0.0274265
8.8015e-05
0.000126718
8.76009e-05
8.6177e-05
6.08044e-05
0.000166084
8.2647e-05
0.000185687
0.0264777
8.67665e-05
8.80615e-05
8.43301e-05
9.28706e-05
6.34306e-05
8.93836e-05
8.2646e-05
0.00838369
7.13128e-05
3.50106e-05
8.55153e-05
8.67721e-05
0.000100017
8.43805e-05
8.08437e-05
0.00861353
0.0475352
9.17818e-05
7.09869e-05
0.0211816
0.000165007
5.17875e-05
0.0461955
5.32913e-05
6.31613e-05
6.71273e-05
8.60603e-05
6.01883e-05
0.00825366
6.10128e-05
7.88634e-05
0.00870462
0.0090097
0.000104062
0.00967022
8.06358e-05
8.04254e-05
8.56729e-05
8.8093e-05
0.00825779
9.02617e-05
0.000111614
8.51495e-05
0.0309429
8.99293e-05
9.23846e-05
8.9541e-05
8.98779e-05
6.67357e-05
5.1643e-05
5.97323e-05
5.29334e-05
0.000119852
4.48089e-05
9.06742e-05
8.97718e-05
7.68474e-05
9.32716e-05
7.78101e-05
9.27385e-05
8.55164e-05
0.0109821
0.00314189
8.82761e-05
5.19936e-05
6.06052e-05
0.000108512
8.91103e-05
5.78222e-05
0.000124205
5.43733e-05
8.77846e-05
5.36747e-05
0.0110844
8.59368e-05
0.0167497
9.07671e-05
8.75106e-05
8.79256e-05
8.4336e-05
8.78822e-05
5.64365e-05
8.45968e-05
9.08224e-05
9.00825e-05
9.11332e-05
5.21725e-05
5.23096e-05
8.92643e-05
9.39208e-05
8.38877e-05
0.0108046
0.0287178
8.03053e-05
5.97441e-05
0.00910618
8.98237e-05
8.43087e-05
0.00171755
8.57906e-05
5.97532e-05
8.85923e-05
0.000133203
7.45364e-05
0.0194622
5.35071e-05
0.0101905
0.000173919
0.00882428
0.000200812
0.00772819
5.59783e-05
5.40951e-05
8.93134e-05
0.00212922
8.30065e-05
9.23137e-05
0.00709329
0.00940303
7.33711e-05
5.57317e-05
0.00907133
0.0165553
0.0101546
6.08976e-05
8.28027e-05
0.00605913
0.000191871
8.04706e-05
5.21101e-05
9.25284e-05
9.93569e-05
9.16566e-05
0.00203744
0.00833463
5.34553e-05
9.09884e-05
0.0170138
5.38399e-05
5.83227e-05
5.37858e-05
8.81843e-05
9.36364e-05
8.06015e-05
8.45295e-05
7.45872e-05
0.000137781
0.0159064
8.96501e-05
0.0114738
5.74098e-05
7.90873e-05
7.88788e-05
0.0141403
9.30352e-05
6.05539e-05
8.52589e-05
7.80474e-05
0.000121563
7.27754e-05
5.23187e-05
9.419e-05
5.87551e-05
8.47119e-05
0.00686854
0.000102141
0.000268386
8.641e-05
5.79783e-05
5.71795e-05
7.87571e-05
5.6164e-05
6.58247e-05
8.66411e-05
7.85526e-05
7.90159e-05
5.90076e-05
7.60337e-05
0.000103849
8.9514e-05
0.00766077
0.000186374
0.0109413
9.62592e-05
9.28806e-05
9.28656e-05
5.39561e-05
7.91042e-05
6.63985e-05
0.00957147
9.28601e-05
8.69881e-05
8.69296e-05
9.49793e-05
8.46096e-05
0.0184327
6.02254e-05
0.00900866
0.000106443
8.73165e-05
4.46222e-05
8.89539e-05
9.22535e-05
8.11511e-05
4.80403e-05
0.00016188
0.000183384
7.33441e-05
7.47286e-05
0.000105533
7.36721e-05
5.41084e-05
0.00972715
0.000111665
9.20448e-05
8.57982e-05
0.000115166
5.4147e-05
8.87159e-05
0.000174528
0.00157034
0.000106994
5.4225e-05
5.38017e-05
5.70378e-05
7.60754e-05
7.3872e-05
7.45549e-05
0.0274274
0.018597
5.40026e-05
0.0264836
4.46162e-05
5.94826e-05
8.72671e-05
8.4378e-05
0.0156962
5.61414e-05
0.0001042
0.00886501
0.000114856
4.48601e-05
0.00905071
0.00692714
7.90143e-05
6.07345e-05
0.000105675
8.65806e-05
8.19881e-05
8.54992e-05
6.96722e-05
8.90069e-05
0.000102622
0.0169157
8.58322e-05
6.08648e-05
2.07909e-05
8.25335e-05
0.0276556
8.3761e-05
9.08207e-05
0.0182431
0.000107844
7.75243e-05
0.000470796
8.60127e-05
0.00713637
6.87562e-05
7.48099e-05
8.37101e-05
0.00150615
9.33272e-05
0.000119425
7.87293e-05
8.64565e-05
9.39105e-05
0.0258275
5.93457e-05
0.0477865
6.75634e-05
0.000115818
6.04556e-05
4.45724e-05
5.48555e-05
8.8455e-05
5.76034e-05
0.000105551
8.27878e-05
8.56808e-05
0.0298063
6.99053e-05
9.25951e-05
8.74074e-05
0.000105417
4.85176e-05
6.04374e-05
4.87346e-05
0.00142597
6.14823e-05
0.00913163
0.0107102
7.43864e-05
9.08993e-05
9.99082e-05
0.0103516
9.41792e-05
8.44748e-05
6.45848e-05
8.42024e-05
6.12176e-05
7.26472e-05
7.7741e-05
9.12914e-05
5.19516e-05
0.00925386
5.20721e-05
7.40041e-05
0.0108979
0.0163531
5.69727e-05
7.28333e-05
5.67226e-05
5.61764e-05
8.59854e-05
0.0108947
7.27628e-05
7.03755e-05
7.5888e-05
6.94149e-05
7.44118e-05
0.000101063
8.14592e-05
7.94011e-05
9.07923e-05
7.74582e-05
7.27046e-05
8.90256e-05
7.56152e-05
9.13411e-05
0.00391663
0.00042974
8.19341e-05
8.36242e-05
6.07256e-05
0.0302138
8.03384e-05
7.26626e-05
0.000100691
8.08934e-05
5.32424e-05
0.000113921
7.00166e-05
6.04514e-05
8.84527e-05
0.000114531
0.00960771
8.20918e-05
0.00200766
9.80316e-05
2.58785e-05
5.5432e-05
0.00908259
5.09653e-05
8.41149e-05
7.42858e-05
0.0183227
5.24357e-05
7.35702e-05
0.000100836
0.0132936
0.00891111
0.0117195
5.65606e-05
5.29222e-05
0.00941709
8.83948e-05
0.0102878
8.7827e-05
8.03564e-05
6.16663e-05
5.08023e-05
8.1221e-05
7.92356e-05
7.83812e-05
8.74422e-05
5.09701e-05
0.000100366
5.11424e-05
9.139e-05
5.6631e-05
5.61025e-05
8.93332e-05
6.4101e-05
0.0479639
8.42307e-05
8.67511e-05
0.00880914
7.00768e-05
0.000159359
0.0151767
7.40857e-05
6.07015e-05
8.69329e-05
0.000270469
9.28749e-05
6.49683e-05
0.0166122
0.000124342
8.89573e-05
0.048742
7.23997e-05
8.77803e-05
6.90478e-05
0.000141292
8.10755e-05
5.23834e-05
9.95085e-05
8.52722e-05
8.8331e-05
8.29974e-05
0.00010354
0.000113334
6.19083e-05
8.5587e-05
7.30725e-05
6.20844e-05
5.39968e-05
8.1845e-05
0.0157825
7.42174e-05
9.98785e-05
4.46407e-05
0.00643251
8.01305e-05
0.000100475
7.97605e-05
0.038658
7.1375e-05
8.98336e-05
0.0287341
8.70996e-05
6.54259e-05
0.0248589
0.000115595
7.11705e-05
8.78327e-05
0.00010378
0.00158985
0.00603082
8.20702e-05
0.00203808
7.22328e-05
9.11598e-05
8.80267e-05
0.0322112
5.25481e-05
7.09905e-05
6.29064e-05
7.19578e-05
8.86382e-05
0.00373992
0.0255201
8.55337e-05
8.20901e-05
7.19962e-05
8.92862e-05
4.45852e-05
0.00967458
8.37996e-05
8.01518e-05
7.85198e-05
6.51585e-05
7.85463e-05
0.0172395
0.000105624
0.00191396
6.34822e-05
8.53642e-05
5.95129e-05
8.3643e-05
8.26464e-05
0.000111742
4.45083e-05
8.7244e-05
0.0117355
0.000244959
5.53334e-05
8.80417e-05
6.63849e-05
0.00898823
0.000314397
6.99594e-05
0.0261516
7.35737e-05
3.03084e-05
0.000100335
8.42229e-05
8.84069e-05
0.0116953
0.000286828
7.33734e-05
8.31593e-05
7.48335e-05
7.27924e-05
9.92085e-05
0.00778381
6.07782e-05
0.000100519
0.000181545
0.000104896
0.000105079
0.00830124
0.00893062
7.79764e-05
8.63367e-05
9.74858e-05
8.02866e-05
8.12494e-05
4.45678e-05
9.5743e-05
0.0286834
7.05385e-05
8.74373e-05
8.80961e-05
0.031061
5.20859e-05
8.54671e-05
6.26612e-05
9.12956e-05
5.6128e-05
5.13005e-05
0.00898179
0.00025032
0.000967496
8.22725e-05
5.06792e-05
0.0338655
0.00288425
0.0210738
8.8241e-05
9.26021e-05
0.0103582
5.31713e-05
7.93691e-05
0.00010745
0.00144602
8.38081e-05
5.31741e-05
0.000375829
5.11894e-05
7.38199e-05
6.85656e-05
0.0113221
5.45516e-05
8.92395e-05
0.0108736
8.76826e-05
0.000159768
6.11718e-05
8.19539e-05
8.52351e-05
5.47756e-05
0.00517403
0.00960419
8.97252e-05
8.63443e-05
8.8398e-05
0.000411355
7.91683e-05
7.3728e-05
9.10716e-05
0.000103731
0.00957225
5.13439e-05
6.1945e-05
7.76903e-05
5.02044e-05
9.71673e-05
0.000317888
0.000340947
9.5739e-05
6.37855e-05
5.19488e-05
6.37685e-05
0.000259356
8.10413e-05
8.80387e-05
9.01935e-05
0.000106654
0.00877933
7.63362e-05
8.92806e-05
0.00167157
8.32092e-05
5.00526e-05
8.96403e-05
9.94636e-05
0.00844989
7.5483e-05
8.06278e-05
8.79239e-05
0.00649291
8.61443e-05
7.4807e-05
9.32587e-05
7.26345e-05
8.69265e-05
8.87383e-05
8.53247e-05
0.00158515
0.000163735
0.000173773
8.49516e-05
7.6139e-05
0.0310745
9.47836e-05
5.86017e-05
0.0109677
0.000112151
7.72165e-05
5.18306e-05
8.98577e-05
5.95023e-05
0.000416082
8.82804e-05
6.41064e-05
8.18383e-05
7.44076e-05
0.00010034
7.82276e-05
9.10491e-05
5.87099e-05
0.00184388
8.07442e-05
0.0104704
5.61809e-05
9.23721e-05
6.34958e-05
7.72411e-05
9.8096e-05
8.53516e-05
0.00010248
8.99845e-05
9.90256e-05
0.041943
6.13095e-05
9.17507e-05
5.93629e-05
8.35994e-05
0.0193546
8.05009e-05
5.8777e-05
5.14817e-05
8.53337e-05
6.92049e-05
0.0175436
9.22636e-05
0.000123504
4.98587e-05
0.0153611
0.0356102
0.00203101
9.8584e-05
7.75595e-05
0.0188982
0.000109507
7.76903e-05
6.211e-05
8.78876e-05
6.01344e-05
0.0296273
8.76834e-05
7.74547e-05
5.55434e-05
8.33747e-05
9.18751e-05
0.000225603
0.000125683
6.20868e-05
0.0111827
5.89305e-05
0.0490952
4.9751e-05
0.000116439
7.29254e-05
6.34337e-05
8.53751e-05
8.807e-05
0.000188698
4.76226e-05
8.74276e-05
8.78044e-05
6.44186e-05
5.07057e-05
0.00388892
5.99952e-05
5.63694e-05
5.08689e-05
8.22261e-05
6.06138e-05
9.11365e-05
8.65027e-05
0.000158904
6.37047e-05
5.13593e-05
5.1794e-05
9.64991e-05
9.27735e-05
7.41696e-05
8.82923e-05
0.000287872
8.22845e-05
0.0393217
7.3406e-05
0.00275827
8.78777e-05
5.15374e-05
8.49465e-05
8.65905e-05
0.000167325
0.000282828
0.0300541
0.0253029
0.0433453
8.9199e-05
7.76133e-05
8.73291e-05
0.0363402
0.0198232
5.77781e-05
8.99672e-05
0.0275807
9.03479e-05
4.5164e-05
0.0298315
9.07321e-05
0.00028189
7.53752e-05
0.0019971
0.00232842
9.69565e-05
7.32195e-05
0.000196915
5.02046e-05
7.38273e-05
8.39318e-05
0.000871934
9.26345e-05
5.17154e-05
6.77169e-05
0.00886934
8.1994e-05
4.451e-05
6.26199e-05
7.83698e-05
8.43627e-05
5.11099e-05
8.5389e-05
0.0197999
0.000473165
0.000129733
6.03712e-05
6.23915e-05
5.0985e-05
0.00471475
5.12841e-05
8.31408e-05
6.31852e-05
8.92376e-05
9.20416e-05
0.0161842
8.36801e-05
7.98828e-05
7.85826e-05
4.4701e-05
0.00054865
8.80507e-05
9.20009e-05
8.21287e-05
0.000162579
7.36339e-05
7.73891e-05
0.00216299
6.76946e-05
6.3101e-05
9.52609e-05
0.000113306
9.60818e-05
6.93572e-05
8.80843e-05
7.7136e-05
8.24608e-05
6.50101e-05
8.1539e-05
9.02878e-05
0.000488938
9.15959e-05
0.00864698
9.05256e-05
6.40908e-05
0.0103263
7.44307e-05
8.44137e-05
4.95077e-05
9.618e-05
4.85696e-05
4.9775e-05
8.72467e-05
5.92546e-05
0.00707641
6.57038e-05
8.86264e-05
0.00208492
9.19267e-05
5.09822e-05
6.94662e-05
0.000101122
9.15865e-05
8.92228e-05
4.98415e-05
8.44609e-05
9.23402e-05
0.0238599
9.48926e-05
0.000169354
8.37923e-05
9.04409e-05
0.00227168
7.47695e-05
8.65843e-05
8.718e-05
7.55457e-05
4.58839e-05
7.07131e-05
8.4e-05
9.17288e-05
4.44328e-05
6.54632e-05
8.64042e-05
0.00970941
0.000125266
0.0315992
8.75751e-05
0.000108265
8.91739e-05
8.1646e-05
0.000103663
0.00909772
0.00932273
7.18936e-05
7.98846e-05
0.000109808
9.29533e-05
9.69254e-05
6.02116e-05
6.97528e-05
8.90428e-05
9.01628e-05
8.24284e-05
8.22609e-05
0.0171152
0.0202411
9.96998e-05
6.09345e-05
8.18732e-05
8.9587e-05
7.32319e-05
5.19394e-05
8.72992e-05
0.000129905
0.0328625
8.49618e-05
0.024162
9.33651e-05
7.2895e-05
0.0241635
0.00011499
9.30607e-05
8.71378e-05
9.91716e-05
6.05633e-05
8.38863e-05
9.61507e-05
8.63505e-05
6.03726e-05
0.00924563
9.98998e-05
6.8702e-05
4.84756e-05
2.43895e-05
2.92473e-05
6.34181e-05
7.23597e-05
0.000566692
5.94301e-05
5.00152e-05
5.38868e-05
5.34623e-05
0.0110615
7.9914e-05
4.63064e-05
0.0103004
0.0246382
8.36729e-05
8.17034e-05
9.15944e-05
8.7071e-05
9.30298e-05
0.0104251
8.91742e-05
8.28727e-05
7.42933e-05
0.000150917
8.05085e-05
0.00925194
0.000310388
6.07597e-05
5.6368e-05
0.000127026
4.78217e-05
5.96645e-05
0.0208146
4.44794e-05
7.69015e-05
5.9779e-05
0.00872509
6.22632e-05
0.00192488
6.84851e-05
7.42614e-05
5.91562e-05
0.0242415
0.000109067
8.86123e-05
4.91145e-05
0.00956632
9.78276e-05
6.92727e-05
8.90221e-05
0.000259281
8.9282e-05
0.000463042
8.41251e-05
7.83982e-05
5.95767e-05
0.0107705
7.92907e-05
6.01089e-05
7.34213e-05
5.86859e-05
5.98202e-05
6.36536e-05
6.35604e-05
7.0838e-05
7.88107e-05
8.89849e-05
8.1056e-05
0.000287297
8.94571e-05
9.12908e-05
8.83301e-05
9.05128e-05
7.73887e-05
8.28261e-05
8.0565e-05
7.82528e-05
0.0196975
5.60209e-05
8.61349e-05
0.0239692
0.000104539
0.00240583
4.59489e-05
0.0111177
8.2635e-05
7.73166e-05
9.29778e-05
0.000191072
5.8678e-05
9.63689e-05
6.23228e-05
8.45569e-05
8.32631e-05
9.43303e-05
0.00644007
0.0190728
9.50803e-05
9.37831e-05
5.99601e-05
7.75202e-05
6.21516e-05
8.85613e-05
0.000489573
8.51379e-05
0.0398974
5.26448e-05
0.0104749
7.46205e-05
6.29282e-05
9.33387e-05
8.32646e-05
6.75143e-05
7.42466e-05
8.04662e-05
5.12155e-05
5.93271e-05
0.000288885
0.00091496
8.44954e-05
5.16825e-05
8.19691e-05
0.0216589
5.89382e-05
9.22997e-05
4.94505e-05
0.00977085
7.52157e-05
8.27614e-05
8.52239e-05
7.73791e-05
7.94204e-05
0.00014425
6.91951e-05
7.84685e-05
5.18948e-05
7.19588e-05
0.000155184
6.18493e-05
0.00934532
0.0104615
8.57921e-05
6.23406e-05
5.97214e-05
7.37299e-05
8.40662e-05
8.07626e-05
4.58669e-05
5.77269e-05
7.29097e-05
0.016747
8.5928e-05
0.00932025
7.63339e-05
5.62925e-05
0.0289683
5.93512e-05
7.79927e-05
4.49883e-05
0.00844247
8.45005e-05
9.04528e-05
0.00897428
2.5456e-05
6.94228e-05
0.0154707
9.0548e-05
6.80451e-05
8.5635e-05
0.00954812
7.21094e-05
6.89797e-05
9.47535e-05
0.00660109
0.000107815
9.06176e-05
8.13751e-05
4.60493e-05
5.51444e-05
4.70079e-05
7.22491e-05
9.58361e-05
8.46821e-05
7.70054e-05
9.32614e-05
9.1827e-05
2.44261e-05
0.000146176
8.5522e-05
0.00305961
9.02698e-05
0.0234913
0.000142576
0.00848497
7.65235e-05
7.36021e-05
8.35329e-05
8.57071e-05
7.04487e-05
8.70543e-05
0.00951385
0.000107978
0.000104975
7.26088e-05
8.21857e-05
0.000115108
0.00802766
9.13053e-05
8.42979e-05
8.58308e-05
8.38294e-05
0.00847485
8.83006e-05
5.15273e-05
0.0114503
0.0110256
7.78811e-05
7.29376e-05
9.55804e-05
6.16481e-05
4.61684e-05
0.00163359
9.31873e-05
0.0396354
5.95162e-05
7.43993e-05
7.21046e-05
7.7546e-05
5.9508e-05
7.40935e-05
9.50841e-05
0.000244085
9.01648e-05
5.76525e-05
6.98076e-05
0.0077322
0.000663701
0.000101454
0.00348419
5.32044e-05
7.74656e-05
7.69195e-05
0.000241934
4.44929e-05
9.3187e-05
6.78005e-05
7.9634e-05
9.06466e-05
5.44408e-05
7.46781e-05
6.84061e-05
7.8018e-05
7.92649e-05
0.000167011
8.428e-05
5.75453e-05
0.0114291
8.83977e-05
7.25066e-05
0.00374356
9.13858e-05
5.47988e-05
0.000166432
0.000103962
6.88392e-05
0.00748679
0.00490269
4.95819e-05
8.85577e-05
8.59208e-05
9.80686e-05
9.79072e-05
0.000110935
0.000107358
8.39401e-05
0.000168816
9.24713e-05
6.91424e-05
8.94915e-05
9.55979e-05
7.89113e-05
7.68037e-05
5.47465e-05
5.81258e-05
7.97909e-05
7.84275e-05
9.65969e-05
8.82124e-05
5.79818e-05
9.30572e-05
8.08945e-05
6.21482e-05
0.000104261
0.000198832
6.1397e-05
7.92625e-05
8.08254e-05
7.83891e-05
7.0055e-05
7.97269e-05
8.57248e-05
6.23097e-05
0.000305616
7.09184e-05
7.31659e-05
9.03548e-05
0.00884405
0.000108663
0.0320314
5.76064e-05
0.000112805
8.35242e-05
8.82224e-05
0.000181411
6.97371e-05
3.27248e-05
6.84383e-05
9.55107e-05
9.024e-05
6.89538e-05
8.58956e-05
7.58512e-05
8.56884e-05
0.0161436
8.93007e-05
9.95116e-05
4.59929e-05
8.31764e-05
0.0111259
0.000223076
0.0179217
8.80324e-05
0.000105025
0.000164486
8.60795e-05
7.27775e-05
8.51439e-05
8.68389e-05
7.45849e-05
0.032577
0.000159613
0.0250074
9.0007e-05
8.11178e-05
8.54339e-05
0.000101254
8.82684e-05
4.6283e-05
7.36664e-05
6.98996e-05
7.62096e-05
7.69606e-05
6.23634e-05
8.68962e-05
8.48717e-05
7.66649e-05
0.0456714
0.000140727
0.0100592
8.20634e-05
7.94533e-05
8.9216e-05
8.89767e-05
7.78565e-05
0.000138213
8.03538e-05
0.000134187
8.59058e-05
0.000180721
7.83257e-05
7.7907e-05
5.94076e-05
8.81307e-05
8.34831e-05
6.43952e-05
0.00083321
6.80523e-05
8.415e-05
5.67568e-05
8.63451e-05
0.00669699
0.000115046
8.74621e-05
8.69364e-05
0.00608955
5.09191e-05
5.699e-05
0.0340166
0.000124822
0.000108255
8.59833e-05
8.81664e-05
8.6488e-05
8.03453e-05
0.000103668
7.19538e-05
0.00721695
7.95233e-05
5.24117e-05
9.24499e-05
8.85564e-05
8.30811e-05
5.66398e-05
5.81637e-05
0.00706348
9.83089e-05
0.00010056
8.42707e-05
8.82135e-05
5.20911e-05
0.000111752
0.00012868
8.91189e-05
7.30214e-05
4.50162e-05
7.33916e-05
0.000228165
6.29203e-05
0.000119927
8.80362e-05
8.74842e-05
0.0269397
8.3967e-05
0.000158241
0.000114743
8.47507e-05
0.000315294
5.95533e-05
7.66939e-05
0.000150899
0.0100897
8.62784e-05
6.88283e-05
7.25913e-05
0.0113734
4.49193e-05
0.00583385
9.30734e-05
6.57437e-05
8.73656e-05
9.3186e-05
0.00986461
8.5143e-05
8.89278e-05
9.01841e-05
9.60017e-05
6.57055e-05
8.21994e-05
0.016689
0.000107357
5.26598e-05
9.20396e-05
7.83879e-05
6.59222e-05
0.000569637
0.00712627
8.52419e-05
8.46925e-05
0.000512778
0.00926497
5.22532e-05
5.36957e-05
5.27493e-05
8.46856e-05
8.01022e-05
7.71915e-05
9.11377e-05
0.000219908
9.0325e-05
9.00907e-05
0.000108281
0.0469068
6.94827e-05
8.77607e-05
0.0122796
0.0108072
7.1007e-05
5.90211e-05
5.64856e-05
6.78847e-05
8.29346e-05
8.10785e-05
9.78597e-05
8.3109e-05
0.00129361
8.29426e-05
5.8262e-05
0.000116427
0.0166475
0.00129433
7.80903e-05
6.27069e-05
4.60651e-05
0.000136156
6.07032e-05
6.22842e-05
6.88113e-05
9.43461e-05
9.45943e-05
0.0126234
0.00954896
9.01393e-05
8.82159e-05
5.31147e-05
3.95053e-05
6.40087e-05
0.00013832
9.67291e-05
4.63345e-05
7.85864e-05
8.28153e-05
9.15876e-05
9.18805e-05
7.019e-05
0.000116178
6.45207e-05
0.000102687
7.73866e-05
5.89274e-05
6.58806e-05
9.4734e-05
9.21961e-05
8.63863e-05
5.80793e-05
7.7713e-05
8.35532e-05
4.55246e-05
3.67945e-05
7.05467e-05
0.00887607
8.70146e-05
0.000149968
8.14764e-05
8.69779e-05
0.0245727
8.22456e-05
5.39777e-05
0.000100594
8.55239e-05
0.00200483
0.00899666
0.000973448
7.9824e-05
0.00872913
7.79742e-05
7.998e-05
0.0111792
3.85314e-05
0.022984
7.99077e-05
8.71276e-05
8.70463e-05
7.31029e-05
6.23031e-05
7.96867e-05
8.45008e-05
7.21723e-05
0.0468584
9.36373e-05
0.000141086
0.000113216
0.000103037
5.24105e-05
8.96082e-05
9.27095e-05
0.00202415
8.47644e-05
4.62505e-05
6.4338e-05
5.74276e-05
9.08994e-05
4.78475e-05
6.09893e-05
4.75463e-05
0.000192951
4.84735e-05
8.6071e-05
7.73509e-05
4.62007e-05
8.25211e-05
0.000114055
8.3193e-05
8.82398e-05
0.0107599
0.000102622
8.47999e-05
8.48466e-05
7.48278e-05
0.000451566
5.70424e-05
0.000142585
9.16798e-05
0.000348919
7.01108e-05
9.30383e-05
7.34545e-05
8.64702e-05
0.0106727
8.70571e-05
8.97408e-05
9.64687e-05
7.88911e-05
0.000524846
7.01334e-05
0.011158
0.000103393
8.49544e-05
0.000110523
0.0133747
9.62937e-05
8.68501e-05
5.67059e-05
7.8559e-05
8.1035e-05
6.93246e-05
9.77598e-05
5.76165e-05
4.78507e-05
6.99632e-05
4.73601e-05
6.92694e-05
0.00446492
9.22861e-05
8.94657e-05
8.08406e-05
8.63549e-05
9.18914e-05
0.010092
4.53367e-05
9.15209e-05
0.019716
8.16698e-05
9.0706e-05
0.0313321
7.0537e-05
8.5515e-05
8.23204e-05
5.58208e-05
9.16592e-05
0.0102239
8.9686e-05
8.40026e-05
8.38143e-05
7.25263e-05
8.86083e-05
5.52011e-05
8.39443e-05
0.00265227
9.30757e-05
8.85306e-05
0.0351128
5.56287e-05
8.90334e-05
5.60319e-05
7.58456e-05
8.97034e-05
0.000953805
5.82838e-05
7.34043e-05
8.90492e-05
5.59467e-05
6.68832e-05
8.23252e-05
0.0106551
0.00112421
0.0234449
0.000124732
8.56852e-05
0.000103573
0.0115163
8.58706e-05
9.51957e-05
8.75031e-05
8.9395e-05
0.0226924
8.14611e-05
0.00011426
6.3805e-05
8.89319e-05
5.98313e-05
6.90085e-05
8.65328e-05
0.000126321
8.06247e-05
9.59484e-05
8.37468e-05
0.00016405
8.80663e-05
0.00836354
4.45346e-05
0.00850078
8.38482e-05
4.82308e-05
6.41445e-05
8.9422e-05
0.0359122
0.00961204
8.66907e-05
0.0262635
8.94128e-05
0.000100444
0.0277772
8.59821e-05
8.58835e-05
4.86191e-05
8.01287e-05
0.0456449
0.0270598
6.69829e-05
0.0104374
6.61814e-05
0.0274436
9.27051e-05
8.4726e-05
0.0256553
8.51452e-05
8.10575e-05
8.16085e-05
8.09148e-05
8.91811e-05
9.41768e-05
7.64743e-05
5.31743e-05
6.29873e-05
9.62907e-05
8.6527e-05
0.000202309
8.48675e-05
7.46449e-05
4.82179e-05
0.000103303
7.79891e-05
0.00867577
7.99727e-05
6.09519e-05
0.00018207
8.38532e-05
7.97081e-05
8.87601e-05
8.8075e-05
8.5508e-05
6.85906e-05
8.12522e-05
0.0251294
8.17033e-05
9.90011e-05
0.00161516
0.00924297
8.71862e-05
5.6994e-05
8.16638e-05
0.0400065
8.01532e-05
8.42405e-05
0.0319733
5.75863e-05
8.83853e-05
7.49545e-05
0.022731
8.39605e-05
0.00888705
8.36118e-05
9.01016e-05
7.97804e-05
5.75035e-05
0.0364168
9.44202e-05
0.0320199
0.000385536
0.00954349
0.0267777
8.62014e-05
7.58534e-05
7.33421e-05
0.00832692
8.53355e-05
0.0235671
8.8598e-05
0.00957725
8.45807e-05
7.61481e-05
0.0185685
8.84273e-05
0.0269653
7.95215e-05
9.03867e-05
0.0100138
6.54387e-05
7.54537e-05
5.42963e-05
6.91563e-05
9.34341e-05
6.27616e-05
7.8824e-05
0.000104921
0.0111015
8.32523e-05
0.000139625
0.0158522
9.40679e-05
7.87852e-05
0.000167539
0.0264674
8.95435e-05
0.000107394
8.87771e-05
0.000121311
0.000522543
6.52628e-05
8.58191e-05
8.18717e-05
1.67537e-05
8.61551e-05
7.79458e-05
7.04785e-05
8.2834e-05
0.0379971
8.29042e-05
0.00971229
7.06806e-05
0.00245587
8.9207e-05
0.00948629
7.21492e-05
8.20262e-05
8.99928e-05
0.000995078
9.88026e-05
0.023
0.000121594
0.00023259
8.33947e-05
0.000103082
6.14529e-05
8.06451e-05
0.0084053
0.0101467
7.04955e-05
8.10757e-05
4.46237e-05
0.0259452
8.56271e-05
4.62901e-05
7.76562e-05
8.5767e-05
7.20609e-05
8.73165e-05
5.72183e-05
4.84946e-05
9.17077e-05
8.3164e-05
9.48337e-05
0.000101735
8.51468e-05
9.12045e-05
8.93619e-05
7.14614e-05
0.0072514
0.0111866
7.49787e-05
4.85936e-05
7.97893e-05
4.64299e-05
7.52463e-05
0.0395776
7.42225e-05
2.14034e-05
0.0190653
6.88421e-05
4.63105e-05
8.62707e-05
5.24076e-05
0.00843471
0.000545742
4.74941e-05
4.66139e-05
8.47761e-05
8.50982e-05
9.66518e-05
6.75125e-05
0.00736021
6.836e-05
7.75726e-05
0.0100678
5.1665e-05
7.56438e-05
4.70688e-05
9.13786e-05
4.6266e-05
0.000297721
0.00011244
7.39061e-05
7.63003e-05
0.0111204
0.00470616
0.0259602
7.52317e-05
7.21312e-05
8.95735e-05
0.000111133
4.8154e-05
0.000200501
4.62304e-05
9.04603e-05
7.69937e-05
7.93557e-05
7.78228e-05
9.0614e-05
0.026052
9.85268e-05
0.00350339
9.27471e-05
7.82272e-05
0.0482597
9.11353e-05
9.8488e-05
5.25925e-05
8.04099e-05
8.12411e-05
9.54825e-05
0.0285661
6.67455e-05
8.94607e-05
0.000114403
8.88681e-05
7.8613e-05
6.48305e-05
8.49904e-05
0.0345857
0.0100118
0.000135337
5.59895e-05
8.00982e-05
0.0107093
7.4383e-05
8.46993e-05
7.16503e-05
0.000147064
9.11486e-05
0.039589
0.000119003
0.00624659
8.90084e-05
8.63848e-05
8.59555e-05
7.07132e-05
8.16616e-05
0.0390292
0.00754236
8.95959e-05
0.000123845
6.67784e-05
6.20537e-05
0.00386167
5.54388e-05
0.035564
7.22442e-05
9.84402e-05
0.0168114
8.37498e-05
0.00011598
8.16382e-05
5.7103e-05
0.0217916
7.38161e-05
7.34743e-05
7.03276e-05
0.00463052
8.72888e-05
7.99469e-05
8.95574e-05
0.00403186
8.78831e-05
0.00252193
9.41131e-05
7.16231e-05
0.000127809
8.60477e-05
8.81786e-05
9.21574e-05
8.8673e-05
8.95436e-05
2.52326e-05
0.000109827
8.51311e-05
8.61569e-05
0.0361088
8.51938e-05
8.53834e-05
7.30815e-05
6.50743e-05
0.0116727
0.0238023
8.78478e-05
0.0190499
0.0105925
8.44351e-05
6.21064e-05
8.68769e-05
0.000116676
7.80432e-05
6.01714e-05
0.0106196
0.0254001
0.0358304
0.038626
8.69717e-05
4.61493e-05
8.74454e-05
7.19466e-05
0.010945
4.94643e-05
0.00686179
0.00612458
7.86381e-05
8.15589e-05
8.56707e-05
8.68439e-05
0.0101302
6.75498e-05
7.72974e-05
8.14136e-05
0.0433171
4.60835e-05
5.42096e-05
9.01868e-05
4.56615e-05
8.18718e-05
9.83554e-05
0.000103989
6.4039e-05
8.91679e-05
7.98364e-05
0.00919094
5.77561e-05
7.31198e-05
7.1886e-05
9.83581e-05
0.0391426
6.33999e-05
4.88275e-05
7.82961e-05
9.57778e-05
0.000350103
8.22001e-05
7.96717e-05
0.000636125
7.18615e-05
5.71046e-05
7.38247e-05
0.000137322
0.00767449
4.60779e-05
0.0406017
0.00623492
0.000158411
6.61717e-05
0.00955614
0.000148712
0.0105014
8.36789e-05
7.69919e-05
9.34006e-05
7.40787e-05
8.05651e-05
0.00998158
0.0111723
7.28784e-05
9.44428e-05
7.64144e-05
4.64632e-05
9.35909e-05
8.70281e-05
8.70084e-05
0.000103503
8.80428e-05
5.31273e-05
0.00897334
8.58624e-05
8.22425e-05
7.39012e-05
0.0030033
8.71994e-05
0.0058409
0.000119712
6.50022e-05
8.61907e-05
0.000104406
0.000174473
7.17322e-05
8.30423e-05
8.24559e-05
0.000115567
6.46632e-05
8.144e-05
0.0181515
0.000117032
8.18084e-05
0.000178045
0.0107002
8.98334e-05
4.99035e-05
8.28936e-05
8.16067e-05
4.76534e-05
7.23479e-05
0.0143491
0.00130889
9.53697e-05
8.3679e-05
0.000160972
0.000104341
4.68732e-05
6.6091e-05
0.000107424
0.0243835
8.84672e-05
0.0162829
0.0104791
0.00179349
0.000108556
0.000329217
9.50944e-05
8.16069e-05
0.000117829
0.00020596
8.44473e-05
5.74595e-05
8.94948e-05
4.58921e-05
0.000644985
8.53169e-05
6.92604e-05
0.0435538
8.59351e-05
0.00571163
0.000103849
7.02361e-05
0.000206053
0.00905823
0.00913838
8.04785e-05
7.9958e-05
8.02943e-05
0.0101002
0.00540836
2.86065e-05
7.17479e-05
9.64897e-05
9.97963e-05
0.00538411
8.7202e-05
0.0105257
6.13899e-05
0.00532034
9.74326e-05
0.0460411
9.13077e-05
8.75322e-05
8.0698e-05
8.74741e-05
4.91295e-05
8.67981e-05
8.15242e-05
6.90268e-05
0.000119006
0.000164466
8.01915e-05
9.29941e-05
8.61905e-05
0.00013665
5.74213e-05
8.35928e-05
8.66742e-05
0.0100102
5.17049e-05
0.00236537
8.5671e-05
0.000127246
0.000101501
0.00949795
8.10017e-05
0.00489867
0.0100399
0.000104418
7.91585e-05
5.7702e-05
8.66921e-05
5.89289e-05
6.12858e-05
0.000102837
0.00011951
4.7718e-05
0.00849664
7.23387e-05
0.0107131
9.01109e-05
0.000171954
0.0105547
9.04134e-05
8.80311e-05
0.00709256
8.94137e-05
5.30827e-05
9.06643e-05
5.76581e-05
0.000106939
8.56419e-05
0.000109646
7.72379e-05
0.000146305
0.00920641
8.71067e-05
8.31483e-05
7.77132e-05
0.000109119
0.00386108
7.67245e-05
8.41958e-05
7.30787e-05
0.00011383
8.51651e-05
0.00967593
0.0099834
0.000113513
7.76306e-05
0.000103202
9.45821e-05
8.09714e-05
0.00881425
0.000107387
5.73794e-05
0.0391329
1.06803e-05
9.00901e-05
8.45558e-05
0.000106192
8.39904e-05
9.5126e-05
0.0259212
0.000155274
9.0415e-05
8.13886e-05
0.0116446
0.0112551
0.000710952
0.000100917
8.39517e-05
0.0104049
0.0201381
7.97107e-05
0.00987254
9.45175e-05
7.1655e-05
8.8859e-05
0.00449555
0.0108005
8.58114e-05
0.0445509
7.75657e-05
0.000300205
0.0234459
8.89047e-05
9.24725e-05
8.86094e-05
8.35953e-05
7.85622e-05
0.00853397
0.00710388
8.67518e-05
0.000103757
9.49614e-05
8.79166e-05
8.66607e-05
0.000106912
8.77507e-05
0.0102669
0.00013484
7.73837e-05
8.90206e-05
8.00511e-05
8.10542e-05
4.83981e-05
0.000101838
8.90296e-05
0.0101129
0.000117936
8.19983e-05
8.4108e-05
4.92483e-05
0.000111629
0.000134441
4.6164e-05
8.47678e-05
0.000101365
8.40616e-05
4.80413e-05
6.1155e-05
5.7495e-05
7.16345e-05
9.25396e-05
6.90643e-05
8.19341e-05
0.000125446
5.2259e-05
0.000107682
9.63593e-05
0.00344232
0.0102663
0.000114494
9.24944e-05
0.0107956
0.00910504
0.00794306
0.000138854
8.39044e-05
0.00805239
0.00049152
8.4618e-05
7.77781e-05
7.96972e-05
6.61524e-05
9.52461e-05
8.67228e-05
5.6045e-05
8.37184e-05
9.70595e-05
7.73075e-05
0.0302538
9.80966e-05
9.6268e-05
0.00963184
0.000102827
8.65707e-05
0.000121265
0.008695
6.49276e-05
0.000114348
8.03049e-05
0.000132386
7.06991e-05
7.77654e-05
6.05489e-05
8.86495e-05
0.000156032
0.000116676
0.000110955
9.93919e-05
8.19987e-05
9.26413e-05
8.78522e-05
7.1475e-05
0.00011604
9.54776e-05
0.00327409
0.00908915
8.47622e-05
0.000110268
8.62916e-05
9.28733e-05
6.43381e-05
8.40617e-05
9.99298e-05
0.0111067
0.000113482
9.8808e-05
7.06865e-05
0.000106403
5.79952e-05
9.35831e-05
0.000101455
0.0106091
0.00909584
5.88988e-05
5.90506e-05
0.0331632
9.54189e-05
6.32086e-05
0.000109959
9.49725e-05
7.38607e-05
5.79331e-05
0.000880316
5.24229e-05
9.22515e-05
0.00965018
8.21361e-05
8.52577e-05
8.04113e-05
0.0324753
6.81354e-05
0.000249578
0.000121582
6.98991e-05
8.73336e-05
0.000123867
7.85901e-05
0.000110453
0.000111197