/*--------------------------------*- C++ -*----------------------------------*\
| =========                 |                                                 |
| \\      /  F ield         | OpenFOAM: The Open Source CFD Toolbox           |
|  \\    /   O peration     | Version:  v2012                                 |
|   \\  /    A nd           | Website:  www.openfoam.com                      |
|    \\/     M anipulation  |                                                 |
\*---------------------------------------------------------------------------*/
FoamFile
{
    version     2.0;
    format      ascii;
    class       volScalarField;
    location    "250";
    object      ddt0(epsilon);
}
// * * * * * * * * * * * * * * * * * * * * * * * * * * * * * * * * * * * * * //

dimensions      [0 2 -4 0 0 0 0];


internalField   nonuniform List<scalar> 
13851
(
5.12441e-10
1.87675e-09
6.24583e-10
0.000308026
3.39178e-10
-4.99925e-10
-1.19004e-09
-3.8553e-10
2.87838e-06
-1.92574e-09
-1.03748e-10
5.93277e-10
-7.5244e-11
1.55532e-05
2.65903e-10
-1.35389e-09
-5.5712e-05
3.67494e-10
1.63055e-08
-2.40632e-10
2.78426e-10
1.24406e-09
0.000746895
8.9721e-11
-1.1605e-05
3.96577e-10
-6.54081e-06
3.00356e-05
-2.02125e-05
2.13836e-10
0.000152435
-1.10653e-09
5.71528e-09
3.83991e-05
1.66868e-12
-2.17376e-05
-1.5193e-10
-3.01403e-05
-9.5127e-05
1.49542e-09
5.62334e-05
-2.27532e-05
3.18141e-05
3.16615e-05
-2.33954e-05
6.6642e-10
-2.27646e-10
-2.78651e-09
-1.87211e-09
1.33046e-10
-7.84251e-06
3.37853e-10
-7.60472e-10
-3.29848e-10
1.83667e-06
3.12174e-09
4.6196e-09
5.40322e-05
-2.17517e-05
3.56031e-05
8.97222e-11
-1.70824e-06
-7.71287e-10
-5.02857e-10
1.06633e-07
-2.10005e-08
3.81137e-05
5.41383e-07
2.38834e-10
0.000328357
2.97896e-05
6.74432e-10
1.13472e-09
3.70008e-05
4.77341e-10
-8.84404e-10
-4.96127e-05
8.25135e-10
-4.52236e-06
2.15945e-09
1.30358e-09
-4.44612e-08
8.83862e-12
1.67199e-05
3.41884e-05
0.000106598
2.11442e-09
-5.07308e-06
1.92129e-09
0.000173026
3.82717e-10
-1.05854e-09
-6.15012e-05
0.000102351
-4.73706e-05
4.60868e-07
-1.02124e-09
2.49925e-09
2.71588e-05
7.98504e-09
-4.15394e-10
1.38691e-08
-9.00141e-09
-3.15019e-09
-7.04178e-10
3.04558e-10
-3.26997e-10
4.85923e-05
-7.39136e-10
-2.66992e-10
3.19041e-10
1.14535e-09
-2.10599e-08
-1.07042e-09
3.3477e-09
-3.71461e-10
2.98912e-10
3.72362e-10
0.000268793
0.000389105
5.06081e-08
-3.02827e-10
1.1833e-09
3.6642e-05
-4.29369e-08
3.10284e-06
-6.69151e-10
-1.13871e-10
4.84539e-05
1.55588e-10
1.67652e-09
6.58843e-10
-6.77953e-06
3.57194e-05
-4.25868e-10
-6.34544e-05
-4.2825e-07
8.44624e-05
2.0181e-09
2.47514e-10
-1.76507e-07
1.41644e-09
-5.53971e-10
-1.47229e-07
1.08585e-05
-1.01135e-09
6.56573e-11
0.000125324
-1.04205e-05
-2.78025e-10
-2.87979e-09
-3.05624e-08
-1.76655e-09
-4.26584e-09
-7.87833e-10
-6.99696e-10
-5.50943e-10
-9.74841e-05
2.37288e-10
8.27907e-10
-3.43603e-10
-2.10659e-05
3.42058e-10
-3.23346e-09
1.41442e-05
-6.30626e-06
-6.26304e-06
-1.1414e-05
-4.46858e-10
0.000138704
2.33922e-11
1.74148e-09
2.24485e-10
-4.35874e-10
-4.51176e-05
-1.91013e-06
5.23907e-09
-2.46633e-09
4.39355e-10
9.32995e-10
-2.06771e-08
2.56014e-05
-1.22057e-09
1.6203e-10
-3.61543e-05
-1.08436e-05
6.32361e-09
5.57953e-10
-2.81795e-10
2.52926e-10
1.30649e-06
1.93075e-10
2.13716e-05
-3.94857e-10
-1.25715e-09
2.36651e-09
5.47864e-09
4.45267e-10
1.82002e-09
9.54094e-08
-4.32051e-07
5.17672e-06
5.17503e-05
2.91546e-10
0.000101627
5.02622e-06
6.37284e-10
1.33127e-09
6.77648e-06
-7.13255e-10
-2.36196e-10
2.28068e-09
-2.88928e-07
1.42261e-09
2.01902e-11
1.07661e-09
8.88117e-11
2.79633e-10
-1.58466e-09
-2.16229e-05
-9.54709e-10
4.64912e-09
1.88112e-05
-5.63059e-05
1.34247e-09
1.00672e-09
2.14551e-10
-9.88335e-08
-5.64989e-11
-1.19516e-10
0.000550764
9.43186e-10
-8.74567e-10
-3.64143e-10
5.13179e-05
-1.36886e-10
0.000430255
4.8531e-05
-2.5009e-08
1.93236e-10
2.62983e-05
3.31266e-05
-2.65205e-05
-1.1973e-09
5.55864e-11
3.96764e-07
1.06652e-08
3.86246e-10
6.93676e-07
-3.45861e-10
-2.44705e-06
-3.57084e-10
7.38012e-10
-4.33972e-10
3.03403e-09
-1.9957e-05
-4.4948e-06
9.24669e-10
-5.16327e-08
1.56832e-09
8.62779e-09
-3.73921e-08
-5.01978e-10
3.60552e-10
-3.91424e-09
-2.89748e-09
-6.27123e-08
7.23075e-10
1.51603e-05
-1.26503e-08
2.12424e-10
1.13308e-09
7.13109e-06
0.000181555
3.78969e-10
1.98432e-09
-1.45539e-08
-1.39413e-08
3.16951e-09
4.6154e-10
1.12566e-05
3.85495e-05
-2.00927e-10
1.73915e-10
-9.63912e-05
-3.35353e-11
1.43199e-09
3.82698e-09
-6.10267e-10
-6.40213e-10
5.62692e-10
2.6222e-10
1.64801e-10
-8.27957e-11
2.43561e-10
3.91129e-06
2.97191e-10
4.19069e-09
-2.00256e-05
3.42609e-05
-2.88415e-10
-1.34674e-10
1.26402e-05
-3.25302e-10
4.39209e-10
3.47892e-10
2.17461e-05
-0.000173457
-3.27608e-10
2.1949e-10
0.000136878
2.30043e-10
-1.46029e-10
9.49049e-06
1.04259e-05
5.05992e-10
-8.29285e-05
5.85022e-06
5.73762e-06
-5.95115e-08
-4.81758e-08
-6.4807e-05
4.18017e-05
2.55104e-05
6.0095e-10
1.40692e-05
8.29868e-06
2.55976e-05
-2.94659e-05
9.01061e-10
1.50097e-10
-2.49376e-10
-6.7147e-06
1.99274e-08
-1.38482e-10
-8.20271e-11
-5.52819e-10
4.1041e-06
5.78894e-06
-1.48285e-09
-5.13418e-05
1.17197e-10
9.97412e-10
9.46381e-10
2.20452e-05
-1.04598e-08
8.6524e-10
4.18247e-10
-4.48264e-10
-2.04488e-05
1.41051e-10
-4.64043e-09
-7.97882e-11
3.52662e-10
3.1073e-10
1.91562e-09
-4.90037e-09
2.94836e-09
-2.95894e-08
4.17743e-10
1.23367e-06
-2.18979e-05
-1.30717e-09
4.789e-05
-2.12217e-08
-8.66257e-12
1.12422e-05
1.70907e-09
2.49472e-05
5.03363e-10
-5.97727e-10
-6.31084e-06
-2.01715e-05
1.91857e-08
-9.31312e-06
7.92742e-11
-3.10928e-06
1.03327e-05
7.39243e-10
-6.89153e-06
2.98375e-10
4.81758e-05
4.10994e-10
1.0073e-10
-1.2345e-08
-4.03486e-08
-5.89805e-10
5.72396e-10
-4.44065e-10
5.01474e-10
7.98281e-10
3.50032e-10
1.5999e-05
2.18452e-09
9.10662e-10
0.000247591
-3.64803e-10
8.92401e-05
-5.22318e-10
-0.000199499
-4.55942e-10
4.73233e-10
5.61226e-05
-4.88363e-08
2.56678e-11
-1.99427e-06
3.66476e-05
2.20431e-05
-7.60951e-10
-2.75303e-08
3.54112e-10
-2.67179e-10
-6.44481e-10
-7.93021e-06
4.20873e-05
-1.91296e-05
-1.98989e-10
-8.28214e-09
-1.42445e-06
0.00019637
-6.98478e-10
-7.08141e-06
1.33978e-07
0.000848382
-1.8286e-10
4.09253e-05
-1.47919e-09
2.70116e-10
2.46123e-06
-1.54376e-06
1.53998e-09
1.44577e-09
9.09552e-10
-1.11217e-10
4.01651e-05
1.61748e-10
1.68172e-09
-2.66336e-10
-9.69798e-11
5.64427e-09
-2.52074e-05
-3.64361e-11
6.61377e-09
-6.59795e-05
1.4557e-05
1.26881e-09
-8.69303e-07
8.04909e-10
5.24307e-10
-7.13111e-10
1.76203e-09
-4.28292e-10
-6.95759e-10
2.94816e-10
3.86404e-08
-9.69962e-10
-0.000228272
4.55423e-10
1.05e-10
-2.42084e-05
9.14711e-10
-2.89466e-10
6.80157e-10
-3.48474e-10
-6.65701e-10
-1.64203e-05
-5.51208e-05
-3.79922e-11
-0.000114082
-2.39171e-10
4.02571e-09
3.52298e-05
-6.06687e-06
2.98691e-09
3.92461e-10
3.91145e-05
2.45189e-09
0.000200558
-1.57814e-09
6.88418e-10
1.66746e-08
-2.28255e-10
4.43668e-05
-2.84293e-06
-4.68239e-06
-3.13519e-10
-5.19913e-08
-2.46129e-09
-1.93621e-05
-5.66402e-10
6.12659e-09
4.42245e-10
-2.13338e-10
9.79517e-10
2.14051e-10
4.52208e-10
0.000123922
3.58277e-05
-0.000250399
0.000227748
-5.8316e-05
-7.18307e-05
-2.85196e-08
9.83283e-10
2.98787e-10
0.000117204
2.60534e-09
-3.14775e-10
1.06218e-09
-3.54774e-05
-1.09853e-09
-1.75989e-09
-3.9814e-08
-6.59646e-10
-7.98706e-10
3.22118e-06
1.31069e-09
4.45001e-05
-1.25079e-05
-2.68874e-09
3.68538e-11
-2.78749e-07
1.54863e-05
-8.53649e-10
-0.000157544
0.000187161
-2.00308e-10
-9.25021e-05
1.66388e-08
4.6005e-09
-3.28019e-10
-6.93214e-05
4.03134e-05
-1.2184e-11
-2.76276e-07
-1.34784e-09
8.63728e-10
-5.26635e-05
4.7869e-05
-2.42211e-10
-2.43397e-10
-1.28819e-10
4.17234e-10
4.752e-05
-8.38045e-05
3.72001e-10
-8.13435e-05
2.48684e-09
-1.64849e-09
5.52027e-11
-4.36564e-10
-5.51229e-10
-8.72347e-10
-0.000100604
-6.16519e-08
-9.40687e-05
-9.40262e-10
-3.42132e-09
1.99002e-06
-2.44061e-09
-6.25859e-08
7.71563e-10
1.87528e-10
2.30697e-10
-3.62968e-05
3.6116e-05
1.04159e-09
2.57383e-05
-3.94639e-11
-9.96563e-10
-2.3657e-05
-3.26494e-07
2.78505e-09
-1.79523e-09
8.5754e-09
-9.9824e-05
-3.40882e-07
1.6074e-10
0.000320662
-4.32059e-10
3.8045e-10
0.000541006
-2.96288e-05
5.90271e-08
4.30003e-05
-1.15635e-09
-2.46164e-05
-1.24881e-09
-2.67408e-05
1.14406e-05
-2.66906e-11
7.85682e-06
8.22021e-05
-1.21823e-09
1.54886e-10
-3.2077e-09
1.39587e-05
1.18258e-09
0.000346927
-9.69149e-10
-5.98475e-10
-1.75751e-10
-6.75375e-10
-7.02409e-10
-3.99473e-05
2.64072e-10
1.57678e-09
1.38152e-09
4.37035e-11
-2.40279e-09
-7.98348e-10
-9.06651e-10
-8.64837e-05
-2.58877e-10
-5.84291e-05
7.33636e-10
-7.22082e-11
-1.54252e-11
1.04589e-11
1.20049e-09
-5.96973e-09
6.61164e-10
4.4971e-09
-2.1261e-05
-4.12117e-11
3.94008e-06
-2.97009e-10
2.55572e-10
3.93874e-05
-1.70942e-05
6.44925e-09
0.000241739
-2.22857e-08
2.59859e-07
7.63038e-05
1.28149e-10
-1.22266e-05
-1.53914e-10
7.2348e-10
0.000248587
-3.51153e-06
-6.58787e-11
-5.14852e-09
1.78638e-10
-2.20982e-05
-2.05438e-05
-8.75049e-10
1.57042e-06
6.36222e-05
8.0401e-09
2.85989e-10
3.07983e-10
1.14744e-05
-7.92103e-05
1.28573e-10
-1.14748e-08
-7.44635e-10
-6.21852e-11
-2.53957e-05
-1.11561e-08
-4.44619e-08
1.44874e-10
8.82824e-10
7.85794e-10
-3.04897e-10
-7.06534e-10
-1.36629e-09
1.33384e-09
-6.01994e-11
3.36663e-10
6.688e-10
6.80325e-10
3.24264e-09
0.000123673
-4.46694e-08
-3.94659e-05
-0.000118053
-7.33814e-10
1.47045e-05
6.14239e-10
-5.28785e-05
3.3516e-09
6.82311e-10
4.10607e-10
-5.82578e-08
-6.92683e-10
-1.92038e-09
4.11878e-10
8.90848e-10
-9.33429e-06
4.43853e-10
4.46207e-05
7.58817e-10
-7.86632e-05
6.89106e-08
7.75035e-06
-6.45465e-09
-4.52991e-11
1.82555e-10
5.35864e-06
-4.66338e-08
7.08798e-10
-2.56316e-06
-8.91941e-10
5.71428e-05
5.89507e-10
-1.05055e-08
6.83782e-10
-1.6367e-06
-2.06851e-09
1.24887e-09
-1.69038e-09
-4.71178e-10
-2.20399e-05
1.94829e-09
-1.8395e-05
6.22597e-06
-7.42037e-09
-7.63265e-05
2.70386e-05
-1.29393e-08
1.77554e-07
8.12095e-09
-3.84823e-09
3.2965e-10
1.45321e-10
6.98105e-11
6.38312e-11
-2.93553e-10
5.37103e-09
1.86301e-09
2.10416e-05
4.26912e-10
5.39607e-06
1.431e-11
0.000374921
-1.63858e-10
-6.48273e-10
-8.72399e-10
-1.40648e-05
-1.10137e-09
-9.18302e-05
9.30245e-05
3.84304e-10
1.30481e-09
3.51426e-10
4.00059e-05
6.44985e-10
-6.50184e-10
-2.44012e-05
3.0358e-10
6.05396e-10
7.13086e-11
-3.51476e-10
-5.93604e-06
-4.77029e-11
5.45049e-10
2.5029e-08
-8.48906e-05
9.70037e-10
9.0559e-10
-2.55757e-05
-2.32101e-10
-2.43497e-05
-6.6099e-10
-1.80017e-10
3.78642e-06
1.80023e-10
3.75341e-09
-3.328e-09
-2.50523e-10
6.7332e-11
-2.03087e-10
-1.0158e-09
-8.50027e-10
-2.09262e-10
2.5933e-10
-2.90667e-07
1.39453e-09
5.8403e-08
6.62245e-05
-9.04836e-05
-3.14373e-09
0.000301587
2.01747e-08
-6.79537e-10
-2.90645e-08
1.07013e-09
6.16743e-10
-4.8965e-05
-2.12016e-05
-2.04195e-05
-2.92721e-05
-3.27524e-09
1.8367e-10
-1.14044e-07
-8.81504e-10
-3.20865e-10
0.000725619
8.2811e-09
-5.88795e-06
2.90495e-10
2.69566e-10
-8.72195e-10
-1.54049e-10
2.85412e-05
1.1182e-09
-4.83168e-10
4.98179e-09
3.9515e-09
-3.27791e-09
4.45748e-05
-3.36378e-10
-2.46373e-10
-2.15646e-06
-7.76907e-10
2.48164e-10
-3.18398e-10
-2.55602e-05
7.20196e-10
3.66494e-05
9.12922e-10
-2.53202e-08
1.14916e-10
-2.36054e-09
7.04541e-10
9.56056e-11
1.33021e-09
-2.72254e-10
-1.44004e-05
4.56727e-10
-9.60338e-06
-1.96461e-10
-3.6409e-05
2.85685e-05
4.91804e-10
-1.02558e-09
0.00028201
-5.81061e-05
5.88743e-10
-1.20288e-10
7.48509e-10
1.58647e-06
-6.93985e-12
-6.54453e-08
-2.7961e-09
-8.66101e-11
-9.02474e-05
2.16805e-10
1.48799e-09
-1.77887e-10
5.32291e-05
0.000119273
6.73093e-05
-6.28767e-11
1.43997e-05
2.78087e-10
5.30131e-10
-4.3632e-10
-7.97699e-11
9.10715e-09
9.36686e-05
-3.46147e-05
-1.25089e-09
-2.74681e-09
-3.85247e-10
4.02717e-09
0.000353902
1.80641e-08
1.43379e-05
-6.83302e-05
1.04426e-09
3.06473e-10
4.15092e-09
2.52025e-10
4.31491e-09
6.29025e-10
-5.75841e-10
4.45015e-05
-2.15332e-05
1.52064e-09
-9.63877e-05
5.83659e-10
-9.18656e-10
-2.09268e-10
2.83657e-10
-0.000105121
-1.5044e-10
-6.79123e-05
9.50365e-10
3.26909e-10
0.000356526
0.000392833
-1.08866e-05
-3.20384e-06
-4.87919e-05
-3.10831e-10
4.34817e-07
3.07937e-08
-1.73573e-06
-8.13365e-10
3.25021e-10
7.69708e-05
2.53221e-10
-4.76816e-10
2.55841e-09
4.6468e-10
-3.13059e-05
-1.06293e-08
-2.15892e-09
-1.30512e-10
1.89791e-05
-1.39051e-09
-8.79269e-05
-6.47372e-10
1.17582e-09
3.87818e-05
-1.28024e-09
-2.74719e-06
6.40785e-10
7.67765e-10
0.000128874
1.07476e-09
-5.52394e-08
-1.11099e-10
5.59234e-05
1.47193e-09
-9.25337e-06
1.1961e-10
3.06294e-05
-3.3161e-05
-1.07085e-06
6.54988e-10
9.80272e-10
-1.6983e-09
-1.62647e-09
1.06554e-10
2.81559e-10
4.65362e-05
-1.36676e-09
6.88967e-10
1.40243e-09
-5.5404e-10
-3.5913e-10
6.96332e-10
-9.41113e-10
2.81276e-10
9.39698e-10
6.77592e-05
-1.17205e-05
8.55209e-10
-2.03038e-10
8.15586e-05
4.06392e-09
-8.58333e-06
7.02133e-11
-9.49742e-11
-3.06763e-10
2.25203e-11
-8.41799e-11
3.20247e-09
-1.17743e-09
-1.13773e-07
-4.51208e-10
-1.78103e-07
8.09804e-10
7.75209e-06
4.39694e-06
-2.50253e-08
-1.4175e-07
3.80732e-10
-7.92959e-05
-7.52577e-10
2.00774e-09
-8.62566e-10
-2.32401e-09
-1.39441e-05
-1.89851e-10
-4.31606e-08
8.37807e-06
0.000228002
9.37245e-10
-1.32059e-09
-3.13772e-05
6.08261e-06
-4.93973e-05
3.66986e-10
1.82858e-09
6.73369e-11
-4.1422e-10
4.42385e-09
4.21237e-05
-4.4892e-08
4.95414e-10
-2.24873e-08
-9.89078e-08
4.11584e-10
8.36606e-05
2.33532e-05
8.43167e-09
-1.98735e-10
-3.3351e-05
-1.2945e-10
-6.62554e-10
-9.72616e-07
9.74632e-10
-4.09364e-10
1.34626e-09
5.63733e-10
1.86771e-10
6.52228e-06
0.000190191
-3.49334e-10
-2.97625e-06
-4.30715e-10
-1.07086e-09
-1.43422e-06
1.12175e-09
-1.30961e-05
1.6482e-10
-1.75396e-10
-1.02329e-09
-1.02945e-09
1.76029e-05
-1.76713e-06
-1.38767e-07
3.48727e-05
-0.000102395
1.21633e-09
2.15303e-09
1.13025e-09
3.40043e-08
3.21634e-10
-1.41647e-12
-1.20967e-10
2.10147e-06
-5.28441e-06
-2.25698e-10
9.1551e-10
5.98613e-10
-6.09902e-09
3.77265e-05
-1.93704e-10
-2.63162e-10
5.23683e-10
-3.52487e-07
-5.06875e-11
5.00745e-05
-1.17444e-09
3.11446e-10
9.94851e-10
-1.33535e-09
1.79608e-09
-3.71881e-09
-2.59087e-05
-1.08292e-05
6.59242e-09
1.69778e-09
3.94813e-05
-1.05549e-09
5.56914e-05
3.95218e-05
1.3384e-09
-7.57427e-05
-2.13267e-05
0.000288319
-3.53225e-10
1.54774e-10
1.63186e-05
1.11692e-09
9.46163e-10
6.49623e-08
1.35447e-07
1.99146e-11
0.0001364
-9.30667e-10
-6.12884e-05
-8.28365e-06
2.70928e-10
1.67887e-10
-6.93692e-11
-5.95491e-07
-6.2092e-11
-4.97936e-10
8.80955e-10
-1.84614e-09
-2.86733e-10
1.86421e-05
-1.75235e-09
-5.40312e-05
-6.99267e-06
4.70574e-10
1.55686e-10
1.09315e-10
-2.4721e-09
-1.9679e-05
3.04442e-05
-7.2534e-05
-1.2804e-05
1.4009e-09
1.27616e-09
1.27048e-09
9.29326e-10
-8.5907e-08
-6.09691e-11
-8.23797e-10
3.51274e-10
-3.04855e-10
-4.01779e-05
1.66601e-10
2.20034e-05
-1.49176e-09
-1.21052e-09
6.56253e-08
5.65081e-10
-2.33974e-10
-1.6922e-09
2.78983e-05
3.79049e-05
0.000943316
-8.08413e-05
-5.3076e-05
-1.62569e-06
2.85905e-05
1.25702e-09
-2.72995e-09
1.51539e-09
-3.15211e-07
-4.29392e-10
-1.10313e-10
7.78185e-05
6.58058e-10
4.04413e-10
-6.53705e-10
-2.45593e-08
-2.09175e-10
-1.63567e-09
-9.53966e-10
-8.02188e-05
1.96641e-09
6.6685e-10
6.75178e-09
7.99445e-10
1.71632e-09
5.84145e-10
-1.11461e-07
8.0399e-10
4.18469e-05
1.43294e-09
-1.57859e-09
4.59098e-05
2.76235e-05
-7.31778e-06
-8.79402e-05
-3.70047e-09
-7.62626e-05
2.04105e-10
3.67246e-09
2.36137e-10
-2.16001e-09
1.06857e-09
3.34641e-05
8.51808e-10
5.49145e-10
-1.72825e-05
-4.21364e-10
-3.47645e-10
-1.47686e-10
-1.43731e-08
-4.47897e-10
-7.82671e-05
6.6129e-10
-2.28343e-08
-1.61059e-09
-1.50673e-09
6.14925e-10
-6.09052e-09
3.00509e-10
-1.06278e-05
5.43586e-05
-2.1672e-09
3.22667e-05
-2.21072e-11
-9.12263e-05
-8.14049e-07
-2.8426e-09
-9.82714e-06
3.65675e-10
-2.82305e-08
-7.7907e-10
-7.40992e-10
2.12198e-10
-1.44497e-09
3.70819e-10
1.01911e-08
1.40566e-09
-1.53397e-11
1.22331e-09
-2.24055e-07
5.54002e-10
-0.000219734
9.20659e-10
4.32987e-10
4.43046e-10
3.68957e-05
6.37651e-06
-1.09853e-09
-1.52144e-09
-1.72678e-10
-5.79602e-10
1.71806e-10
-8.46032e-05
5.53593e-10
-7.24746e-10
1.06273e-09
4.96983e-08
1.52618e-09
-1.11903e-07
1.15582e-09
-6.78608e-09
3.86956e-10
1.1611e-09
1.66524e-09
4.78015e-11
-8.91812e-05
0.000240473
7.12077e-10
-8.7641e-11
-4.46934e-05
-3.2044e-10
-1.98568e-10
1.52247e-09
4.8811e-10
-4.23285e-05
1.1973e-10
0.000122499
6.53497e-10
1.36007e-10
-9.25052e-10
1.90247e-10
1.59264e-08
-1.3366e-05
-7.28506e-10
-9.18328e-05
-2.62827e-10
-5.11845e-10
3.82255e-08
7.3225e-09
-2.53954e-09
6.61498e-10
-1.4817e-10
1.41088e-09
-1.74207e-09
-3.70029e-10
5.98057e-10
-1.34816e-10
5.02443e-09
-1.48217e-09
-3.98215e-09
3.53319e-05
-4.94111e-10
-4.96343e-10
-9.7574e-07
-1.89782e-09
-7.35302e-10
1.65331e-05
2.5071e-09
8.44104e-06
1.22522e-10
-6.08217e-06
-2.01776e-08
3.15437e-09
4.26451e-05
-6.27339e-10
2.56095e-05
-2.37885e-09
-2.37392e-08
5.01074e-10
4.65637e-10
1.42655e-09
-2.25819e-10
1.05692e-09
9.77888e-10
8.89463e-11
4.54675e-10
-1.89744e-09
-3.88878e-05
-1.1352e-05
0.00014812
1.01838e-09
-1.84742e-09
3.26809e-05
0.000506983
2.87697e-11
-1.83959e-09
5.27073e-05
-2.00058e-09
2.679e-10
-4.08658e-05
-1.3876e-05
2.50865e-10
1.05238e-09
6.90031e-10
-1.59153e-07
-3.92453e-09
1.22431e-09
4.04475e-05
2.13073e-09
5.57153e-10
-0.000224295
-1.34641e-10
-1.54915e-07
3.30065e-05
1.18494e-09
-6.79144e-10
3.50163e-10
-1.38658e-09
-7.0665e-05
1.0074e-05
4.43325e-05
8.91245e-10
-5.39458e-10
9.85057e-06
-1.5579e-09
-1.27927e-08
-4.13959e-09
-8.212e-11
-2.63623e-12
-2.3523e-09
8.61791e-05
-7.92553e-05
-6.04177e-12
6.1399e-10
-6.35785e-10
-3.79993e-05
-3.19575e-10
-1.33317e-10
-1.44643e-07
1.10502e-10
-9.36784e-06
6.21343e-10
3.22094e-10
-2.71514e-10
-3.30427e-07
-6.71565e-05
-1.38143e-09
-5.81226e-05
-4.22039e-10
-1.96287e-10
3.1497e-10
-0.000143623
-1.0862e-09
-3.92285e-10
1.77184e-09
6.61069e-10
6.9166e-10
2.71385e-09
1.90186e-11
2.26714e-10
-1.57035e-10
-7.60981e-05
6.22876e-10
1.16604e-09
-3.53307e-10
9.48201e-12
-6.32577e-08
-2.05243e-09
-3.14039e-09
-0.000104718
-6.66925e-10
-2.17676e-05
4.9569e-11
2.53104e-05
-3.19136e-07
8.52611e-10
-2.03555e-05
1.62828e-10
2.46788e-09
-3.98533e-10
-9.08923e-12
-5.5399e-09
-1.14614e-10
9.01907e-10
-1.15305e-09
4.4449e-10
-1.16305e-09
9.65467e-11
-8.24801e-09
-9.78136e-10
-1.41189e-10
4.86513e-06
-1.27365e-10
8.63492e-10
-5.20392e-09
-1.22989e-05
6.39583e-11
-3.24889e-09
1.34701e-09
-7.6145e-09
2.40124e-05
-3.92631e-08
-5.2433e-10
-2.52075e-05
4.42636e-07
1.78563e-05
-5.12407e-10
-3.15494e-06
7.85542e-10
2.20354e-05
1.88795e-10
-2.8377e-09
-7.40861e-05
-1.89856e-05
-2.17851e-07
3.95899e-05
-7.92138e-10
2.4769e-05
4.4599e-10
3.59572e-10
6.94497e-10
-6.93881e-05
8.74727e-05
1.35524e-10
2.26241e-09
-2.59539e-08
6.39491e-08
1.89663e-09
-5.75286e-05
-2.13296e-09
-6.39373e-10
-1.9943e-09
-6.50746e-10
3.54654e-10
-1.93853e-08
-7.97246e-10
1.32527e-09
-1.55816e-06
1.14463e-10
4.93856e-10
3.27877e-09
2.22167e-05
-1.98951e-05
-2.55368e-10
-1.08186e-06
5.5929e-10
1.2108e-09
4.40278e-06
-1.46377e-10
5.80009e-10
2.59145e-10
8.5161e-06
4.25215e-10
1.12481e-10
1.08797e-10
-4.582e-05
3.76871e-10
1.28313e-09
-2.60311e-10
4.53059e-06
-2.48296e-10
2.9644e-10
-1.37279e-08
-2.56267e-09
-2.34983e-07
-3.85931e-10
3.84825e-05
1.18992e-10
-1.59725e-09
-4.48861e-10
-4.10403e-09
-4.15028e-10
-1.52532e-09
-6.77625e-09
-3.49791e-05
-1.10573e-09
3.26819e-05
3.004e-09
8.48565e-10
-1.12083e-10
1.37287e-09
-7.21697e-10
0.000118085
1.1086e-09
-3.11602e-10
-4.669e-09
-3.39892e-05
3.88933e-06
-1.08323e-10
1.02343e-08
8.91491e-10
1.99458e-10
4.27644e-09
-3.19594e-09
-6.38547e-05
3.20406e-09
-6.22192e-06
3.14067e-09
6.23456e-10
2.52491e-10
2.63191e-11
3.1953e-09
-1.07123e-06
2.78307e-09
-1.03903e-10
-9.96254e-10
1.34058e-06
1.59536e-09
-9.69646e-10
6.86985e-10
-7.90786e-10
-4.07485e-09
0.000688514
1.66934e-10
-1.06631e-05
-3.00891e-05
0.000448986
4.97205e-10
-5.02203e-09
5.06897e-10
1.82494e-09
-6.61274e-10
-7.6499e-10
1.47658e-08
-3.07209e-09
-2.28031e-09
1.60819e-09
-2.27717e-10
3.3584e-11
4.90689e-10
-3.82798e-05
4.90428e-10
-3.52249e-05
1.30197e-09
-4.38967e-09
1.64045e-10
3.49917e-09
7.25591e-09
-8.7658e-10
-3.26315e-05
3.25651e-09
4.76737e-09
1.09869e-10
-3.73424e-10
1.35139e-09
5.84258e-10
-2.895e-05
1.37057e-09
-6.10274e-10
-2.97147e-07
-4.05179e-05
-8.92885e-10
-9.79545e-06
3.70173e-06
-6.77522e-10
3.93222e-10
6.20898e-11
5.41758e-08
-4.59875e-10
-3.82691e-05
-4.64762e-10
0.000425935
2.32696e-09
-1.13729e-07
-0.000249982
2.40054e-11
-6.09343e-05
2.24069e-09
7.96545e-10
6.12825e-10
-7.19908e-05
3.96733e-10
3.41087e-09
-7.32098e-10
-2.33206e-09
-1.76361e-09
-1.51456e-10
3.77695e-10
-9.14483e-05
-7.6909e-10
-8.84019e-10
3.3689e-05
1.07264e-09
-1.00847e-09
-3.78304e-10
1.89051e-09
-5.37122e-05
-2.58808e-11
-2.66393e-09
7.24446e-10
-1.03941e-08
-3.1612e-09
8.06216e-10
5.9196e-10
3.20635e-05
-1.38276e-10
1.41689e-09
3.51821e-05
8.16979e-10
0.000140395
-4.0771e-11
-0.0001405
-4.95759e-10
1.53781e-09
-2.61658e-10
-1.38844e-05
2.62986e-05
1.05894e-09
6.94621e-09
-7.91649e-10
1.27396e-10
1.03808e-09
-3.11085e-05
-4.06769e-10
5.29945e-10
3.8111e-10
4.59977e-11
-9.49919e-10
4.63082e-05
3.8553e-10
3.36825e-10
-3.37284e-10
7.15917e-07
6.58134e-06
1.06635e-09
2.92814e-10
2.80288e-05
1.16868e-09
-8.37614e-05
-6.40335e-05
-4.08227e-08
-1.09098e-09
2.0064e-10
-1.02806e-09
2.18908e-05
-3.16804e-10
1.86878e-10
1.12982e-09
5.30036e-10
-1.01389e-05
0.000482584
1.32144e-09
-7.1408e-09
-1.02327e-07
2.07407e-09
-2.32285e-06
6.02454e-10
5.50124e-10
-7.17177e-09
-0.000107414
-5.44568e-08
4.37517e-09
3.26225e-06
-1.08964e-09
-0.000124303
-8.0544e-06
-0.000307682
-2.29054e-10
-5.35168e-05
0.000261751
1.72695e-07
0.000105933
1.84622e-05
3.31862e-11
4.14138e-10
2.04426e-09
-1.00121e-08
1.65366e-10
-1.96657e-05
2.62499e-09
2.90652e-10
3.55858e-05
5.91904e-09
4.91715e-10
1.69208e-10
-2.66908e-11
1.84201e-06
6.4243e-10
0.000223486
-5.0669e-10
-1.40447e-08
-2.73642e-05
2.56922e-05
-4.1286e-09
2.07996e-08
-1.20755e-09
-5.57398e-10
5.92159e-09
3.20728e-11
-5.8448e-10
3.91643e-09
-1.92816e-08
1.54583e-09
-5.12235e-08
-7.32083e-10
-1.12358e-09
-6.77192e-05
-1.25476e-05
1.09367e-08
3.06359e-08
-6.44911e-05
1.77031e-09
3.29846e-10
-0.000234808
-4.08214e-07
4.80146e-10
-1.56112e-10
-2.53772e-09
4.33858e-10
-2.20092e-10
-2.37261e-05
-5.06051e-09
-1.56138e-10
1.1539e-09
3.40379e-08
-9.79937e-10
2.78041e-07
-1.61892e-05
-2.43216e-10
-5.0063e-10
-1.03742e-09
-1.02348e-09
-6.85123e-10
5.82405e-10
-1.67189e-10
-5.15619e-10
-2.77378e-09
1.29529e-10
1.14987e-10
4.06416e-10
2.03031e-05
3.92954e-10
4.34954e-05
-9.99814e-05
8.95237e-10
1.60419e-07
-5.28233e-08
-3.88707e-09
8.34047e-10
2.92979e-09
-4.51996e-11
-2.66061e-08
5.06264e-10
-1.16256e-09
1.7985e-09
-4.02386e-05
4.10635e-10
-9.27583e-05
1.96295e-09
-1.36715e-09
2.88903e-10
-1.1406e-09
-2.07928e-09
3.54353e-10
4.97438e-10
2.93363e-05
2.68167e-10
1.93864e-08
-3.74298e-05
3.96153e-05
3.07585e-10
-2.734e-08
5.77179e-05
-4.23779e-05
1.64927e-06
-7.91458e-09
-9.27173e-10
1.77174e-08
1.92854e-06
-8.69045e-05
-2.95729e-11
-1.5084e-06
-1.6709e-11
1.24631e-09
1.31963e-10
-1.12281e-09
-2.91166e-08
-5.84161e-08
3.90673e-10
-8.84143e-08
-1.05103e-09
4.85987e-05
2.19548e-05
-3.64088e-05
-7.0838e-05
3.84127e-05
-5.25137e-10
-1.05941e-08
0.000131125
-3.92848e-10
9.77144e-10
5.40333e-10
5.49796e-08
4.63456e-05
-4.15303e-05
3.80206e-10
-5.04222e-10
-2.23878e-10
7.63306e-11
1.54741e-05
-6.19301e-11
-6.82823e-05
4.91762e-05
4.26246e-09
-1.04077e-09
-1.06292e-06
3.78006e-10
-4.85441e-10
-7.9926e-10
7.24906e-05
3.03632e-05
2.64442e-10
-9.91347e-10
-2.63795e-10
3.82057e-05
0.000116777
1.08352e-10
0.000528408
7.65176e-05
5.81256e-05
1.23252e-10
-3.25813e-10
1.25885e-09
2.6256e-09
2.8886e-05
1.43533e-09
-2.8124e-08
-3.69311e-06
-3.04272e-05
-1.01813e-10
-5.2614e-10
1.31886e-07
-5.39754e-10
0.000140989
-7.11702e-05
-2.10583e-10
-1.07696e-09
2.14734e-10
3.1741e-09
-2.49423e-05
-1.20388e-11
-8.87552e-06
-1.06495e-10
6.88682e-10
2.41218e-10
6.93992e-10
-7.75137e-08
2.52789e-10
0.000366534
-3.1716e-09
5.53522e-10
-6.63572e-10
4.23084e-09
-3.1787e-10
3.02164e-05
-2.64445e-05
8.05732e-08
4.74106e-10
-7.12011e-10
-1.03119e-09
2.47783e-09
1.05011e-07
1.39583e-06
8.89988e-05
-6.33404e-10
-7.59045e-05
-8.74561e-09
-5.32621e-05
7.72935e-10
-8.91535e-12
2.56898e-10
-7.86499e-10
5.88036e-05
-1.02503e-10
3.0563e-10
-1.0259e-05
5.33654e-05
-1.52059e-05
5.09925e-05
-1.22907e-09
3.46127e-10
-3.80514e-10
4.60319e-05
-1.32796e-09
4.13868e-05
-4.15912e-10
-4.50598e-05
1.91589e-10
-5.72849e-10
4.88617e-10
7.06919e-10
1.23472e-09
4.83277e-11
-7.36969e-06
-2.65259e-10
-2.43234e-09
1.80763e-10
-1.25091e-05
1.23091e-05
2.79284e-09
-7.26139e-05
1.24712e-09
-6.06267e-10
4.55741e-10
-2.31254e-10
-1.55518e-09
2.30677e-09
-2.89328e-05
-3.0437e-10
-7.40978e-10
5.14375e-09
-3.97787e-07
-3.21021e-10
-3.70095e-10
-4.59783e-06
8.24164e-06
-9.04591e-09
-3.0814e-10
3.28655e-06
-4.86252e-09
3.52209e-08
2.41942e-10
-2.95724e-08
1.15659e-05
-2.983e-06
2.43261e-09
4.74241e-05
3.31062e-10
5.08537e-10
1.94712e-09
-2.8889e-06
1.66084e-09
-5.35652e-09
-2.02422e-07
1.47874e-09
-5.78146e-05
-4.57971e-09
-6.04443e-07
-6.66313e-07
6.28866e-05
-8.66e-06
-8.16737e-06
-6.86102e-05
4.14899e-10
6.66043e-10
-3.91353e-09
-1.55324e-09
2.57748e-10
1.79669e-08
-1.2743e-09
3.48659e-10
-0.000109789
1.73704e-09
-2.28392e-11
-3.24597e-10
-2.75329e-09
-7.00014e-11
-5.60893e-10
1.68651e-06
-1.50616e-11
-5.2883e-10
-5.45108e-10
-1.44379e-05
2.75601e-10
8.84913e-05
3.31603e-09
2.54591e-10
-2.36741e-10
2.31858e-09
0.000209042
6.43535e-08
-1.96219e-09
-1.46982e-10
-2.43351e-10
4.4361e-06
7.75207e-05
-2.06364e-05
-1.036e-09
-2.1059e-09
5.19745e-07
8.37677e-10
-3.6293e-10
3.83119e-11
4.37843e-05
3.9998e-08
1.63295e-09
5.48151e-10
-7.8879e-10
-5.53224e-05
-3.17512e-09
-1.15145e-08
-4.60069e-10
8.48805e-10
-1.94869e-10
-1.34124e-08
-4.27316e-10
-4.02564e-09
-3.05657e-05
-8.2464e-05
5.137e-05
-3.63098e-05
0.000252951
-0.000233013
0.000128112
-7.49922e-09
3.41188e-10
0.000117199
-2.97679e-06
2.76008e-05
-2.87057e-09
-5.25056e-10
-9.78968e-11
2.76788e-09
-5.38669e-05
5.48422e-05
1.19963e-09
-1.8771e-10
-1.73969e-06
6.59099e-10
-3.87785e-10
2.02772e-05
-1.34789e-05
-1.45597e-06
-1.05655e-10
3.32372e-05
-5.88576e-05
-1.228e-07
1.87858e-10
-5.2036e-10
2.0795e-11
1.19771e-10
2.59772e-10
-5.33637e-10
1.73065e-09
4.46838e-10
-8.6013e-11
-3.68316e-10
-1.54556e-07
6.84199e-07
1.1726e-09
4.54105e-10
4.01772e-05
-2.22544e-08
1.81297e-09
-3.57184e-05
-3.61504e-05
-1.11776e-05
-6.40781e-12
-1.31981e-09
-1.61531e-10
-4.03442e-10
1.64267e-09
1.58854e-10
-2.91252e-09
2.95903e-10
1.22833e-09
7.4728e-08
-8.99629e-10
3.73166e-10
-5.94241e-06
-3.0333e-05
5.94524e-06
4.51021e-07
1.39722e-09
1.0924e-10
5.85652e-11
-9.32979e-10
4.2124e-11
5.31412e-06
8.25219e-10
-7.11471e-11
3.72739e-10
-2.81015e-05
0.00038058
-1.03089e-09
8.9862e-10
-8.27655e-10
2.19013e-09
-2.80712e-10
-2.48088e-09
1.38356e-10
5.07071e-10
0.000261924
-4.53186e-11
2.47991e-05
1.0489e-10
-1.6117e-05
-4.42597e-10
-2.80735e-10
2.7594e-10
2.17175e-09
-2.83206e-09
3.33294e-10
1.13344e-09
3.33226e-11
-3.19811e-10
-7.12813e-05
0.000516095
-6.78108e-05
5.14854e-10
2.77435e-06
6.53806e-10
1.66931e-09
3.22486e-09
-1.95422e-09
-1.44111e-09
-9.51336e-06
3.28984e-05
1.42385e-09
7.85053e-09
-3.09435e-05
8.70022e-10
9.05308e-06
1.91313e-05
-1.25232e-07
-2.51518e-10
-2.19227e-09
-6.679e-05
1.31905e-06
2.05589e-05
-1.21091e-09
1.36286e-10
4.91549e-11
4.24565e-10
-0.000279975
-1.59257e-11
7.997e-10
-2.62464e-06
-5.55345e-05
1.00075e-10
-6.85085e-11
-5.93691e-05
9.57304e-11
-0.000231171
-7.00124e-09
3.61769e-09
5.05491e-11
-1.33225e-08
-1.14697e-09
-8.52736e-05
1.60358e-09
2.73132e-06
6.16181e-10
-1.74192e-08
7.58144e-10
-1.00416e-07
4.5314e-10
-1.66401e-08
-1.02247e-09
-3.00058e-09
3.9466e-08
-5.6488e-10
-4.05137e-10
-9.67254e-10
2.31768e-10
8.96135e-07
3.79601e-10
3.14182e-10
-2.85072e-12
-7.12184e-10
-2.12698e-09
-4.02467e-08
-6.2461e-10
-6.92047e-10
1.30878e-07
1.16712e-10
1.60967e-08
-4.71288e-09
-9.68434e-11
1.53067e-09
0.000338316
-1.19163e-05
-4.94524e-10
2.62336e-05
4.33969e-06
-2.98634e-09
-8.00341e-10
-2.02383e-05
2.71581e-05
8.66277e-09
-2.23288e-06
-8.71041e-08
-1.30023e-09
6.66433e-10
1.30014e-10
1.42959e-09
-9.66232e-10
-9.15703e-05
-1.69324e-05
-9.50405e-07
-3.93241e-07
-3.41799e-05
4.12069e-05
-7.4032e-11
1.18269e-05
-4.82725e-10
-5.30331e-05
4.31491e-05
-1.10486e-09
2.55496e-09
-1.30354e-05
-9.26783e-10
-8.52917e-09
-4.22326e-07
-2.00962e-05
-3.98511e-08
-2.39012e-10
4.0558e-05
4.38468e-10
-3.53555e-05
4.89664e-06
1.24445e-09
-6.93835e-06
-2.4789e-05
-7.6655e-06
-1.33567e-05
1.32362e-06
-1.36281e-05
1.30596e-09
-1.25243e-10
-4.57173e-10
1.30512e-09
-2.63226e-10
-8.68945e-09
-1.0645e-09
-2.52186e-06
-2.87175e-07
2.14393e-09
-1.91369e-07
-5.88385e-06
-3.26006e-07
-5.02457e-08
-1.41865e-07
-4.85122e-05
-3.3245e-07
-1.939e-10
7.1922e-10
-6.88332e-05
2.2066e-09
-4.07686e-10
-0.000128349
-2.17482e-09
-7.79454e-05
-6.31795e-10
5.70661e-05
1.26648e-11
-9.5617e-10
0.000629168
1.63415e-09
7.86085e-10
-1.06823e-05
0.000149109
8.97913e-06
1.91538e-10
-1.05557e-10
5.98474e-10
-2.74568e-10
1.12618e-09
6.34313e-11
-3.13372e-10
3.89507e-05
3.1528e-10
4.49333e-10
-1.17187e-05
-8.89216e-10
1.95645e-09
-4.14006e-08
-3.32168e-10
4.84449e-10
-3.59903e-09
-3.43638e-08
8.21592e-10
2.14976e-09
-2.06776e-05
3.99156e-05
9.96822e-10
1.85608e-10
0.000282032
1.79637e-10
-1.60437e-09
5.75951e-10
-9.33479e-11
0.000109868
8.37918e-10
-2.34568e-10
0.000140347
7.73319e-11
-3.12131e-05
1.38172e-09
-1.07405e-10
3.69298e-09
-2.20336e-05
2.03138e-09
6.21983e-06
2.501e-05
1.27562e-10
1.2748e-09
-3.61575e-08
-3.59335e-10
-0.000105058
-8.37564e-10
0.000249802
-3.32206e-09
6.12503e-10
-1.27759e-09
1.76589e-08
2.61565e-10
7.96564e-08
1.10116e-09
1.36508e-09
-2.92646e-10
-1.04608e-09
4.04583e-05
-3.4643e-10
1.78234e-10
-4.33461e-10
2.73205e-09
-5.0193e-10
9.34338e-10
2.24246e-05
2.42011e-08
-6.56715e-09
-2.82911e-10
-3.65815e-10
-3.11964e-09
-2.3112e-10
-8.86214e-10
-3.16067e-10
7.86342e-10
3.79806e-05
7.4299e-10
9.47543e-11
5.02814e-11
4.9238e-10
-8.29214e-06
-1.30123e-09
-7.43161e-05
-7.91796e-06
6.55698e-05
4.36961e-09
9.49158e-10
-1.22411e-10
-3.78642e-09
-1.53668e-10
-9.53873e-08
-2.68119e-11
3.19906e-05
3.99802e-10
-3.9642e-05
-4.56559e-09
-1.61832e-11
4.45243e-11
-1.25225e-05