/*--------------------------------*- C++ -*----------------------------------*\
| =========                 |                                                 |
| \\      /  F ield         | OpenFOAM: The Open Source CFD Toolbox           |
|  \\    /   O peration     | Version:  v2012                                 |
|   \\  /    A nd           | Website:  www.openfoam.com                      |
|    \\/     M anipulation  |                                                 |
\*---------------------------------------------------------------------------*/
FoamFile
{
    version     2.0;
    format      ascii;
    class       volVectorField;
    location    "250";
    object      ddtCorrDdt0(U);
}
// * * * * * * * * * * * * * * * * * * * * * * * * * * * * * * * * * * * * * //

dimensions      [0 1 -2 0 0 0 0];


internalField   nonuniform List<vector> 
13851
(
(0.000820317 0.000787159 -1.73156e-22)
(0.000178949 0.000159022 0)
(0.000171064 0.000161319 0)
(-0.000820171 7.73932e-05 0)
(1.95776e-05 -2.39831e-06 1.76663e-23)
(0.000234856 9.76201e-05 -3.10741e-22)
(-8.68796e-05 0.000217444 -1.65968e-21)
(1.9094e-05 2.32254e-06 0)
(0.00154023 0.000628564 -9.63734e-22)
(1.69282e-05 -3.10643e-05 8.07068e-22)
(0.000291234 -2.05576e-05 0)
(2.89384e-05 -2.22704e-05 1.5079e-22)
(4.35136e-05 -0.000176257 1.94299e-22)
(0.000712882 0.000192926 6.48146e-22)
(0.000301611 0.000455566 5.8113e-22)
(0.00039917 0.000607135 0)
(0.00159426 0.000115643 0)
(7.97487e-05 1.14903e-05 1.30679e-23)
(0.00129753 -0.000226636 0)
(0.000829064 0.000754743 4.59275e-22)
(0.000388215 0.000396413 4.90581e-22)
(0.000232457 -7.49401e-05 -8.6822e-23)
(2.16314e-05 -6.8313e-05 1.8559e-22)
(4.50987e-08 -8.41215e-07 0)
(-0.000102636 -0.000923374 4.60142e-23)
(0.000287812 0.000810118 -1.76884e-21)
(0.000294893 0.0011655 -8.12518e-22)
(0.00128925 0.000428363 5.64097e-22)
(0.00283544 0.000310186 2.09005e-22)
(4.16628e-05 1.50655e-05 0)
(0.00103881 0.000649604 -4.25025e-23)
(-7.19668e-05 0.00022109 5.38387e-22)
(0.000709911 0.00085285 -8.25714e-23)
(0.000439181 0.000768739 6.29843e-23)
(0.000315219 -1.13454e-05 -4.81614e-23)
(0.00293279 0.000218024 0)
(2.74033e-08 -4.42902e-07 0)
(0.000272357 0.000561605 5.08976e-24)
(0.00106021 -0.000517656 1.93481e-22)
(0.000102136 -2.57481e-05 3.97629e-22)
(-0.000464659 0.000135534 6.97915e-22)
(0.00278809 0.000348135 -2.07985e-22)
(0.000122109 5.64711e-05 0)
(0.00115925 -0.000824936 0)
(0.00258504 0.000505871 0)
(7.35336e-05 1.18473e-05 -5.54971e-23)
(-1.339e-05 5.94785e-06 -4.13065e-22)
(0.00028752 0.00076742 6.86764e-24)
(0.000182569 -3.27477e-05 -5.38051e-23)
(4.07213e-05 -0.000176529 0)
(0.00055339 -0.000151562 -7.75824e-22)
(2.6681e-05 -0.000192213 3.70919e-22)
(0.000383726 0.000630786 0)
(-1.11033e-05 0.000489823 6.89005e-22)
(0.00173013 0.000187414 -1.07222e-21)
(0.000102053 -2.97961e-05 -3.63599e-22)
(0.000739158 0.000857867 0)
(-0.000519772 9.5429e-05 -9.1361e-22)
(0.000486333 0.000783406 0)
(-0.000715501 0.000103861 2.90099e-22)
(2.80197e-05 -3.11904e-05 -4.26636e-22)
(0.000156898 0.00114669 1.3637e-21)
(8.31464e-06 -6.98447e-05 0)
(0.000188176 -3.50147e-05 -2.79591e-23)
(0.000657028 -0.000845114 3.30098e-24)
(0.000545151 -0.00094026 -3.97128e-24)
(-0.000756323 6.66321e-05 1.90339e-22)
(-2.57815e-05 -0.000762934 6.90535e-22)
(0.000113039 2.42386e-05 -1.02699e-22)
(-0.000274912 0.000301578 2.71447e-22)
(0.00113721 0.000526288 3.37803e-23)
(0.000466762 0.000399092 -1.38171e-23)
(6.56003e-05 -0.000139162 -2.33851e-22)
(-0.000680555 0.000106259 0)
(9.25914e-05 0.000503336 6.94829e-22)
(0.00018248 -4.13388e-05 0)
(0.00145973 0.000190798 -6.71202e-23)
(2.81263e-05 1.01714e-05 -1.74501e-22)
(-8.42264e-05 -0.000933889 5.10241e-23)
(5.05114e-05 -7.47051e-05 5.45983e-22)
(0.000115531 2.29394e-05 0)
(-0.000224875 -0.000187062 -9.79429e-23)
(0.000313841 -1.1888e-05 0)
(0.000482506 0.000207666 -1.04587e-21)
(-0.000638206 0.000134954 -1.43954e-22)
(0.0010709 0.000623003 0)
(0.000238564 -7.70568e-05 9.5931e-23)
(0.00319712 5.40477e-05 1.01965e-24)
(2.69177e-05 -5.00949e-05 2.69759e-23)
(0.00102998 0.000644335 0)
(2.5083e-05 -0.000194568 1.89379e-22)
(-6.12765e-05 0.000240697 2.05744e-21)
(0.00101876 -5.08875e-05 5.98413e-22)
(0.000876511 0.000581721 3.12681e-23)
(0.000564296 -0.000610535 5.11503e-22)
(0.000646116 -0.000419224 6.96873e-23)
(7.47455e-05 -4.003e-05 3.36626e-22)
(0.000304359 0.000685294 0)
(-0.000635524 -9.72487e-05 7.65875e-23)
(0.000314284 0.000240274 4.79557e-23)
(0.000279212 0.000695507 0)
(0.000150178 -0.000422705 -4.17456e-22)
(0.000189439 -0.000442708 -2.00813e-22)
(6.86977e-05 -0.000146857 0)
(7.19537e-05 3.6371e-05 0)
(0.00045298 0.000273312 2.57765e-22)
(7.09892e-05 3.32677e-05 -4.61524e-23)
(0.00114855 0.000569524 -3.23017e-23)
(-5.20948e-05 0.000241942 -1.1269e-21)
(7.76024e-05 1.13088e-05 8.86216e-23)
(0.000287452 -0.000129981 -6.71003e-23)
(7.45937e-05 1.94389e-05 0)
(0.000522236 -0.000347142 0)
(0.000406307 -5.61294e-06 0)
(0.000528057 0.000922851 4.25987e-22)
(-1.27822e-05 0.000472962 -1.70252e-21)
(3.4371e-05 2.46009e-05 7.65484e-23)
(1.69928e-05 2.45935e-06 1.69313e-22)
(-0.000946091 5.57657e-05 -3.63104e-23)
(-6.31581e-05 0.000324956 9.87953e-23)
(0.000847978 -0.000183903 -4.67072e-23)
(6.03858e-05 3.35774e-06 -2.38252e-23)
(0.000111472 1.68205e-05 -9.73605e-23)
(-0.000323009 0.000315677 1.31959e-22)
(0.00134053 0.000257173 2.99193e-24)
(7.78405e-05 -0.000554524 0)
(7.44613e-05 -3.67083e-05 -4.28144e-22)
(0.000344559 -1.88738e-05 0)
(-0.00012233 0.000476864 8.55401e-22)
(0.000399058 0.00049155 -8.94496e-23)
(0.000233374 -7.70545e-05 1.57148e-23)
(0.000287481 1.49997e-05 0)
(-1.1996e-05 0.000476119 -3.03565e-23)
(0.00045666 0.000755453 7.89578e-22)
(0.000287753 -2.58657e-05 0)
(0.000798966 -0.000594347 1.6294e-22)
(0.000127494 -0.000544723 6.20739e-22)
(0.00105251 0.000600984 -7.75756e-26)
(0.000123879 -0.000331964 3.45108e-22)
(0.000368087 0.00052556 6.76072e-22)
(-0.000206852 -0.000137409 9.10085e-23)
(9.42433e-05 -0.000106664 0)
(2.75608e-05 -5.82214e-05 0)
(0.000348531 -0.000533201 -1.66873e-22)
(0.000312864 -0.00112507 1.7808e-23)
(0.000167362 -4.00844e-05 0)
(2.67804e-05 1.12326e-05 4.33767e-23)
(0.000859477 0.000591103 -1.94589e-23)
(0.00240356 0.00035753 -4.25605e-22)
(0.0003481 -9.78572e-06 0)
(0.000275076 0.000719377 0)
(0.000491764 -0.000328012 -4.01421e-23)
(0.000411185 -1.70569e-05 -2.56188e-22)
(0.00121444 -5.89704e-05 -6.77607e-22)
(5.32383e-05 -0.0001759 0)
(1.84421e-05 -0.000128967 0)
(2.56196e-05 -4.0401e-05 -3.89445e-22)
(0.00117839 -0.000453133 -1.83899e-22)
(0.000346445 0.00049813 0)
(2.9413e-05 0.000256244 -6.03848e-22)
(5.59672e-07 -4.10618e-06 3.92161e-22)
(0.00288308 0.00027235 0)
(0.000443831 0.000284999 0)
(0.000289884 0.000786143 -1.42912e-21)
(0.000761442 0.000209219 -6.11704e-22)
(0.00186782 0.000721135 1.94321e-22)
(0.00182233 0.000762249 0)
(0.000612017 -0.000203136 1.04604e-21)
(0.000277526 -0.000121336 2.92435e-22)
(-0.000202905 -0.000281153 0)
(2.63287e-05 -4.80251e-05 -2.86231e-22)
(3.30953e-05 2.37061e-05 6.17141e-23)
(0.000516508 0.000185713 0)
(1.27343e-05 -5.08002e-06 0)
(0.000484474 -0.000661733 -4.70265e-22)
(0.000634055 0.00135871 -1.10329e-21)
(0.000261271 0.000868027 -2.77373e-22)
(3.16723e-05 2.25089e-05 0)
(7.01649e-05 0.000514267 0)
(0.000275186 0.000846121 0)
(0.00129941 0.000298888 -2.29819e-22)
(0.000995098 -0.000789327 -3.42086e-23)
(0.000271067 -0.000110142 1.11029e-22)
(0.000384136 0.000496155 0)
(0.00109669 0.000188561 1.41601e-22)
(0.00243815 0.000377385 1.60371e-25)
(0.000693646 0.000883716 -3.89232e-22)
(0.000101368 -0.000243062 -2.97406e-22)
(5.28366e-05 -0.000175254 3.55654e-22)
(5.6013e-05 3.64397e-05 -1.11077e-23)
(0.000418025 -0.00106726 2.85974e-22)
(0.000352402 0.000485194 0)
(0.000685992 0.000124192 -3.44228e-22)
(0.000235041 0.000112766 3.4721e-22)
(0.000164007 -3.42744e-05 1.94868e-22)
(0.000338312 0.000655142 0)
(0.000663757 0.000873559 0)
(6.3302e-05 0.000135935 -1.89033e-22)
(0.00011197 6.64574e-06 -1.6343e-22)
(0.00010897 -0.000435488 0)
(-0.000212489 -2.01511e-05 3.93009e-23)
(-0.000205808 -0.000537957 -3.43816e-22)
(-0.000567996 -2.9002e-05 0)
(0.000289085 0.000463014 -1.11281e-21)
(0.000787565 -0.00113307 6.07177e-23)
(-0.000216895 -0.000493319 0)
(3.51175e-05 -0.000159287 0)
(0.000299501 0.000589375 -9.64456e-22)
(0.00135784 0.000655008 -4.33538e-22)
(0.000228369 4.91868e-05 0)
(0.000452573 0.000587502 -2.19313e-23)
(0.000109039 1.61879e-05 -1.13085e-22)
(-0.000254213 -6.69132e-05 -1.04071e-23)
(1.95914e-06 -2.77616e-05 -2.52727e-23)
(0.000317843 -4.25941e-06 -1.39686e-23)
(0.000200045 -5.81014e-05 -1.53133e-22)
(3.90356e-05 -0.00017216 -3.23498e-22)
(0.00109902 0.000859828 0)
(9.67899e-05 6.39657e-05 -2.67427e-22)
(5.06028e-05 -0.00107988 -4.29035e-22)
(3.02652e-05 2.09783e-05 -5.71817e-23)
(0.000873061 0.000707659 0)
(0.000416731 0.000152613 1.06347e-21)
(0.000657038 -0.000630063 2.75985e-22)
(0.000119427 -0.000228782 0)
(0.000300369 0.000601621 7.64589e-22)
(1.54184e-07 -5.01881e-06 0)
(0.000362828 -0.000571429 1.70554e-22)
(3.44825e-05 -9.33634e-06 0)
(0.000320034 -2.56863e-06 0)
(-3.25978e-06 6.79937e-05 -1.08325e-22)
(0.00010229 -0.00023527 -5.06937e-22)
(0.000222813 5.7922e-05 0)
(2.23763e-06 -0.000102335 8.88373e-23)
(-0.00059081 -5.79662e-06 1.69443e-24)
(4.16009e-05 1.05423e-05 1.29699e-22)
(0.000681835 -0.000290123 0)
(-0.000589476 -0.000100661 -8.05227e-22)
(0.00030913 0.000198713 0)
(3.43054e-07 -3.23251e-06 -4.55059e-22)
(0.0010924 0.000327494 0)
(-0.000531055 0.000138555 -1.10212e-21)
(0.00259962 0.000512733 0)
(0.000438034 0.00060901 0)
(0.000311909 0.000276998 0)
(0.00036128 -0.000670291 -3.77382e-22)
(0.00105866 0.000831864 5.12643e-22)
(5.8658e-05 0.000526298 0)
(0.0006428 -0.000392414 0)
(0.000304782 -0.000115032 -9.70104e-23)
(0.0025903 0.000112429 0)
(0.000972179 0.000286598 -1.06536e-21)
(2.90034e-05 8.53967e-07 -2.8844e-24)
(0.000195024 0.000251466 0)
(0.000311656 0.000658594 -8.02366e-23)
(0.00292735 0.000236762 0)
(0.00339053 7.9624e-06 3.1365e-22)
(5.40955e-05 3.59832e-05 2.09763e-23)
(0.000991991 -0.00156139 0)
(2.93286e-05 -4.79874e-05 1.38589e-21)
(0.000761261 0.00103205 -1.44974e-21)
(0.00130069 0.000141927 -4.1164e-23)
(0.000200696 0.000257674 0)
(0.000455156 0.000308911 -1.26709e-21)
(0.000994219 0.000252813 1.09315e-21)
(6.46422e-05 -0.000117558 -8.41853e-22)
(0.000162047 -0.000428978 4.87502e-22)
(0.000329832 0.000797785 0)
(0.001488 0.000747986 -2.52846e-22)
(2.48411e-05 -4.03143e-05 0)
(3.59372e-05 -0.000171432 -4.18998e-23)
(0.000114691 -0.000238949 3.20454e-22)
(0.00130758 0.000858907 0)
(-0.00114303 6.20485e-05 0)
(0.000420654 0.000428539 7.32966e-22)
(6.32545e-05 3.52781e-06 1.26125e-22)
(0.0013307 0.000370805 5.37575e-23)
(0.0012625 3.87119e-05 1.09422e-21)
(0.000568343 0.000860667 -1.09684e-21)
(0.000446664 0.000321802 1.05138e-21)
(0.00122745 0.000806629 0)
(-0.000946079 -3.93266e-05 -3.34025e-22)
(0.000233054 0.000208265 0)
(0.000254639 0.000435369 -1.8258e-21)
(0.000849492 0.00091862 0)
(6.93467e-05 3.93212e-05 6.87605e-24)
(2.49245e-05 -3.77136e-05 -1.99226e-22)
(0.000596217 0.000870598 -2.32768e-22)
(0.00030617 -1.46218e-05 1.16703e-22)
(4.26627e-05 5.58408e-06 3.18038e-22)
(1.99851e-06 -2.72533e-05 -3.84579e-22)
(3.54101e-05 -1.24173e-05 0)
(1.89972e-05 3.56443e-07 -1.49989e-24)
(0.000294598 0.000341781 -2.10522e-21)
(2.61344e-05 -3.3546e-05 5.8446e-22)
(0.0014919 0.000666485 4.80079e-22)
(0.000402849 0.000403414 0)
(9.31437e-05 -5.73574e-06 -1.78156e-22)
(0.00294441 0.000216476 0)
(-0.000324244 0.000292872 0)
(4.18659e-05 -0.000186629 0)
(0.000872236 0.000743821 -3.69471e-22)
(-0.0001124 -0.000131255 1.34471e-22)
(9.80148e-05 -0.000103138 0)
(3.75335e-05 -0.000187971 0)
(0.000418828 0.000395952 0)
(0.000153216 0.000161045 -7.45186e-23)
(0.00171481 0.000276676 5.19137e-23)
(0.000584381 0.00025261 6.72712e-22)
(1.92061e-05 -1.86825e-06 -7.07297e-23)
(-0.000124365 -0.000211718 0)
(2.74279e-05 -3.84576e-05 0)
(0.000613505 0.000217434 6.50108e-22)
(-5.33365e-05 -0.00017744 0)
(0.00148097 0.000863221 1.36298e-21)
(2.87333e-05 0.000249425 4.43276e-22)
(0.000625817 0.000971699 -5.8747e-25)
(-6.41708e-05 0.00050861 0)
(0.0013802 0.000539645 3.65204e-23)
(0.000417691 -0.000331161 0)
(0.00010785 -0.000466469 -4.86e-22)
(0.000702305 -0.00065739 -1.21699e-23)
(-0.000271066 0.000376916 5.25982e-24)
(0.00135843 0.000361536 -6.0652e-22)
(0.000116264 5.3762e-06 1.75062e-22)
(0.00062374 0.000235085 -3.32454e-23)
(0.00209649 -3.39219e-07 -4.99531e-24)
(0.000196674 -0.000122402 -3.70295e-22)
(0.000291895 -0.000975174 5.82695e-22)
(3.79328e-05 -0.000157728 3.21456e-22)
(0.000556589 0.000192371 -7.2261e-22)
(0.000208229 -0.000192961 0)
(0.00322838 7.45104e-05 1.07638e-21)
(0.000181858 -0.000500205 4.29577e-22)
(2.91327e-05 -4.86406e-06 6.05194e-24)
(-1.18747e-05 7.59959e-06 4.40045e-22)
(0.000256114 -5.10845e-05 -5.87448e-23)
(0.00130145 0.000526198 -4.50912e-23)
(7.86828e-05 -0.0010885 3.88409e-22)
(6.75454e-05 3.87897e-05 -1.65903e-23)
(0.000648419 -0.000598114 -4.95112e-22)
(0.00019931 -0.000208723 -3.48716e-22)
(0.000289135 8.13963e-06 -7.21282e-23)
(2.16813e-05 0.000257602 6.54448e-22)
(0.000190515 0.000123344 -4.5412e-23)
(0.00129738 0.000412903 0)
(0.000351316 0.000629326 0)
(0.000193431 -5.40037e-05 -6.66358e-23)
(0.000216615 5.15733e-05 3.66236e-22)
(0.00301625 -2.88018e-06 0)
(5.52491e-05 -0.00016951 -1.13031e-21)
(0.00127442 -2.67054e-05 -3.77002e-22)
(0.000222801 0.000215616 0)
(0.000425165 0.00037983 0)
(0.000201382 -0.000218322 0)
(2.91395e-05 -5.53414e-05 -9.46926e-22)
(9.27441e-05 -9.04168e-08 1.77988e-22)
(9.77077e-05 -0.000130569 0)
(0.000271385 0.000267108 1.66866e-24)
(0.000982647 0.000365597 -1.22021e-21)
(-1.22273e-05 0.000504995 2.28671e-23)
(0.00299179 2.13141e-05 2.24454e-22)
(0.000172244 -4.37206e-05 0)
(-0.000614723 -7.03989e-05 4.34885e-22)
(0.000871426 0.00108527 -3.56672e-22)
(3.65336e-05 3.88834e-05 -1.86065e-23)
(0.00142075 0.000917938 -1.15246e-21)
(0.000703721 0.000586549 2.94828e-22)
(-0.000568255 -0.000133533 -5.31343e-22)
(0.000249907 -5.06658e-05 0)
(0.000333899 0.000892595 0)
(0.000146432 0.00079539 0)
(-0.000263542 -6.46887e-05 -1.96554e-23)
(0.000108701 -5.87346e-05 2.43585e-25)
(0.00305912 9.12927e-05 1.46414e-22)
(0.00014962 -1.15341e-05 -9.80282e-23)
(0.000728448 0.00139244 1.32046e-21)
(0.000227141 8.34405e-05 0)
(0.000288955 0.000200724 7.39756e-22)
(0.00256046 0.000160588 1.41014e-21)
(0.000315933 0.000188388 -3.15628e-22)
(-0.000549258 -0.000176821 -7.57512e-22)
(0.000250808 0.000428354 1.10712e-21)
(-1.41635e-05 0.000706244 1.18164e-21)
(0.000955571 0.000172922 0)
(0.0001033 0.000295639 0)
(2.15652e-05 -0.000132856 0)
(0.000228048 0.000167797 2.52155e-22)
(0.000302478 -1.13315e-05 1.00854e-23)
(9.04748e-05 0.000518387 0)
(7.87331e-05 -4.09382e-06 0)
(0.000424054 0.000443201 -7.72403e-22)
(0.000871468 0.000997631 2.57643e-23)
(6.60157e-05 -0.000136918 -5.77785e-22)
(0.000316782 0.000574543 0)
(-0.00109814 -3.60335e-05 4.63193e-22)
(0.00019529 4.22446e-05 -1.96554e-22)
(0.00123074 -0.000181236 -1.11991e-22)
(0.000162031 0.000675808 -1.43272e-22)
(0.00166367 0.000202261 0)
(0.000240198 4.5208e-05 2.71395e-22)
(0.000270722 0.000806001 0)
(0.000635039 -0.000925859 -9.55647e-23)
(0.00134184 0.000177797 1.85042e-22)
(0.000441646 0.00023658 2.27997e-22)
(0.00341538 9.01707e-06 1.17947e-24)
(-0.000579731 0.000111013 1.36981e-21)
(0.00104826 0.000332194 0)
(6.35387e-05 -0.000119406 -3.37725e-22)
(0.000112894 -0.000143259 0)
(0.000316154 0.000148756 -6.2587e-22)
(0.0003172 0.000867366 0)
(6.2506e-05 5.08917e-06 -2.67939e-22)
(0.000513647 0.000148664 1.02687e-23)
(0.000467535 0.000760061 -4.18579e-22)
(-0.000293704 -0.000447449 -4.715e-23)
(0.000211616 6.06433e-05 -3.5951e-22)
(0.000984431 0.000193465 0)
(0.000261889 0.00123669 -1.50731e-21)
(-0.00109179 6.00272e-05 0)
(8.45632e-06 5.49978e-05 3.05026e-22)
(0.000630911 0.000132427 -1.51402e-23)
(1.04505e-05 0.000280005 6.41749e-24)
(-0.000651446 -0.000104372 1.69994e-23)
(0.000311611 -0.000115419 1.21601e-22)
(0.00102163 -0.000477351 -8.47813e-22)
(3.8895e-05 -0.000136296 7.4203e-22)
(1.49144e-05 -4.14247e-06 -8.88074e-23)
(0.00179938 0.000133486 1.244e-21)
(0.000341106 0.00127242 1.21275e-21)
(1.79081e-05 -4.07506e-05 -4.46605e-22)
(0.000180151 0.000148126 1.20706e-22)
(0.000331516 0.000581072 -2.31657e-22)
(3.95259e-05 1.75945e-05 3.10301e-23)
(0.000575947 0.00081326 0)
(0.000572366 0.000208607 1.74073e-22)
(0.000702395 0.000569766 0)
(0.000120124 0.000328354 3.5012e-22)
(0.000147814 -7.82058e-06 0)
(1.39232e-05 -0.000195068 0)
(-0.000323874 5.03759e-05 0)
(9.13849e-05 -1.63511e-05 0)
(1.26141e-05 -0.000192782 0)
(0.00242325 0.000426365 3.34603e-22)
(0.000895294 0.00101401 0)
(0.000226662 -7.46312e-05 0)
(-8.2421e-06 0.00084321 6.58256e-22)
(5.99153e-06 -7.89386e-05 -9.24594e-23)
(2.5535e-05 -3.10691e-05 -1.89871e-22)
(0.000201602 4.51711e-05 5.7974e-22)
(0.00100518 0.000337646 1.29909e-21)
(0.000118272 0.000700049 -1.42368e-21)
(8.19923e-05 -3.82043e-06 0)
(0.000151477 4.86037e-05 2.98687e-22)
(0.000841909 -0.000144217 -3.07813e-23)
(0.000134164 0.000172254 -4.97357e-22)
(0.00190196 0.000440467 0)
(2.87057e-05 -2.44837e-05 -2.08322e-22)
(5.70526e-05 0.000393225 8.57809e-22)
(0.00253896 0.000543035 3.86805e-22)
(0.000278135 -0.000263317 0)
(4.29778e-06 1.07842e-05 -8.94218e-23)
(2.34273e-05 -6.95504e-05 -3.29183e-22)
(0.000123565 0.000321103 -1.66994e-22)
(6.13351e-05 0.000157815 0)
(0.00130804 0.000467576 5.45597e-23)
(0.00253082 0.000373649 -3.65437e-22)
(0.000314658 0.000287329 1.02053e-22)
(-4.06533e-05 -0.00101089 0)
(0.000202871 5.67158e-05 -3.20217e-22)
(3.20095e-05 -7.06536e-06 -3.66848e-22)
(0.000333788 0.000647707 -4.5762e-22)
(8.68821e-05 0.000841216 6.59273e-22)
(0.000182304 -0.00031591 0)
(7.69552e-05 -0.000121887 0)
(-0.000254077 0.000366347 5.93023e-22)
(0.000135409 -0.000322622 6.56166e-22)
(0.00122585 -0.00105208 -2.88617e-23)
(6.53711e-05 -0.000150422 -5.27707e-22)
(0.000291603 3.32557e-05 0)
(9.27201e-05 -8.02404e-05 0)
(0.000171114 0.000521525 0)
(-0.000199782 0.000424062 3.7887e-22)
(0.00028217 0.00123489 1.39994e-21)
(-0.000354799 -0.000421847 4.15294e-23)
(0.000144795 -8.37707e-05 0)
(0.000446459 -0.000354375 2.86972e-24)
(6.95788e-05 -0.000112221 2.7379e-22)
(0.00288352 0.000276473 0)
(0.000170911 0.000666405 4.8564e-22)
(0.000644152 0.000884252 0)
(0.000312756 0.000159923 5.05646e-22)
(0.000189047 -4.8511e-05 -1.25051e-22)
(0.000275912 -0.000251228 0)
(0.000532923 0.000204009 1.49177e-22)
(1.81361e-05 -3.19252e-06 0)
(-0.000797342 0.000154334 0)
(0.000232227 0.000589055 0)
(0.00191034 0.000462668 -3.40063e-23)
(-0.000882609 -0.000103907 -2.39801e-23)
(0.00249427 0.000412685 3.34303e-22)
(0.00194365 -2.81257e-05 1.25148e-23)
(0.00131728 6.8045e-05 -8.23065e-22)
(0.000131469 -0.000210333 0)
(4.37619e-06 -7.93716e-05 -7.66465e-22)
(0.00122291 -0.000136685 -9.24628e-23)
(1.50711e-05 -2.81229e-05 -6.22606e-22)
(7.63116e-05 -9.68302e-06 4.55171e-24)
(0.000155691 -0.000238586 2.64175e-22)
(0.000328038 -0.000693715 3.25001e-22)
(0.000150294 0.000201259 -7.08447e-22)
(8.26783e-05 -0.000124994 5.8781e-24)
(0.000616282 -0.000165404 -1.3718e-24)
(0.000402497 0.000102336 0)
(5.47885e-06 -3.63184e-05 7.32226e-23)
(0.000178188 -0.00101292 1.10741e-22)
(7.13969e-05 -5.96401e-05 -2.58512e-22)
(0.000103848 0.000596378 -4.10117e-22)
(0.00121074 0.000471493 -1.74414e-22)
(5.31162e-05 -7.82583e-05 0)
(9.61286e-05 0.000238938 -7.52238e-22)
(-0.000114768 0.000167484 -3.7402e-23)
(0.00141855 0.00080325 -1.44343e-22)
(4.34096e-05 9.6781e-06 1.69044e-23)
(0.000609178 0.000464078 0)
(0.00111753 -8.41135e-05 1.5749e-22)
(3.13194e-06 8.87482e-05 0)
(0.00161482 0.000111631 -2.66095e-23)
(0.00128722 -0.000157408 -4.28932e-23)
(0.000906476 0.000649266 0)
(0.000140198 -8.41153e-05 4.45885e-22)
(0.00237988 0.000481685 -1.36585e-21)
(-0.000974336 1.89388e-05 4.55009e-22)
(5.34209e-06 9.21182e-05 -2.93064e-22)
(0.000579475 -0.000598796 5.31192e-22)
(0.000111663 2.22608e-05 -1.17228e-22)
(7.30798e-05 -5.32118e-05 1.27547e-22)
(0.0023052 2.86324e-05 9.0181e-23)
(-0.000539234 -0.000213288 8.67375e-22)
(0.000359277 0.000143408 0)
(9.89699e-05 0.000698584 1.19993e-21)
(1.30664e-05 -3.04239e-05 -8.28047e-22)
(0.000262898 0.000735096 0)
(-1.71464e-05 0.000534522 -5.35626e-24)
(0.00100864 -0.000543554 2.15735e-22)
(2.68695e-05 0.000108933 6.59207e-23)
(0.00183852 8.20193e-05 0)
(8.04172e-05 -9.20449e-06 0)
(0.000114063 2.23093e-05 1.14559e-22)
(0.000450547 0.00024669 3.16218e-23)
(-1.01012e-05 0.000388091 0)
(5.42102e-06 5.6099e-05 1.6857e-22)
(0.000179575 -4.0981e-05 -1.05458e-22)
(0.00158265 3.54919e-05 0)
(0.000120091 0.000275217 -3.48943e-23)
(0.00163633 8.39704e-05 0)
(0.000144133 0.000190553 -5.68835e-22)
(3.10159e-05 -5.27394e-05 -9.59658e-24)
(0.00144581 0.000872803 -1.94244e-22)
(9.26736e-06 -0.00010887 0)
(0.000136476 -0.000198023 0)
(0.000118035 0.000381723 1.07227e-21)
(0.000115015 0.00050195 -1.3743e-21)
(0.000313965 0.000248927 1.6523e-22)
(0.00257272 0.000544667 0)
(-0.000903159 -5.95658e-05 0)
(0.00022673 0.000135941 -3.84662e-22)
(0.000276796 0.000202789 0)
(3.48315e-05 0.000239725 2.12891e-22)
(0.000512132 9.24132e-05 0)
(0.00274192 0.00038566 6.17202e-22)
(0.0016933 0.000269979 3.17124e-23)
(0.000108339 3.1453e-06 -2.02716e-22)
(6.83037e-05 -0.000115508 3.35896e-22)
(0.000210119 -0.000453359 0)
(0.00161384 1.77086e-05 0)
(6.73011e-05 0.000509079 -2.20797e-21)
(0.000250119 0.000736192 0)
(0.000992097 -0.00074933 2.35978e-23)
(-1.92676e-05 0.000393165 0)
(0.000232179 0.000429749 0)
(0.000338319 0.000132712 -2.01229e-22)
(0.000230052 -0.000933589 7.07187e-23)
(0.000782117 -0.000250332 8.7243e-23)
(0.000122537 0.000576162 0)
(0.000466457 0.00105766 -2.75751e-22)
(0.00292152 0.000143539 -5.88827e-22)
(0.000138696 -1.16585e-05 8.52337e-24)
(0.00065859 0.000731139 0)
(0.00130893 -0.000462986 0)
(2.97211e-05 -2.84666e-05 3.7089e-22)
(0.00137514 -9.56119e-05 -2.8584e-22)
(-0.000284803 -0.000978101 2.0111e-22)
(0.000278013 -0.000116321 -2.47494e-22)
(0.000384381 0.000517191 -6.98873e-22)
(9.5039e-05 -6.24062e-05 1.1126e-23)
(-3.08959e-05 -0.0010217 -1.0242e-22)
(0.000397726 2.0938e-05 0)
(0.000983695 7.08002e-05 3.92767e-22)
(9.18287e-05 -1.93415e-05 -2.10296e-22)
(8.55258e-06 -7.26628e-06 0)
(7.89883e-05 -0.000193404 0)
(0.00039173 9.58654e-05 9.90948e-23)
(2.80929e-05 -2.58687e-05 0)
(0.000401997 -0.000651759 -5.49405e-22)
(1.03302e-05 -8.41259e-06 1.34652e-22)
(0.000493472 0.0010461 0)
(0.000134643 -9.42051e-05 1.37457e-23)
(0.000331233 0.000852161 -4.79724e-22)
(6.90337e-05 -0.000145742 -5.59722e-22)
(5.37202e-06 -4.41287e-05 -8.34941e-22)
(0.000364233 -7.26043e-05 0)
(0.00188105 9.53508e-05 -3.30792e-22)
(0.000433672 0.000201737 -8.82144e-22)
(0.00078207 -0.000575779 4.99923e-23)
(0.000292291 2.43916e-05 4.20581e-23)
(4.16068e-05 1.80987e-05 1.91487e-23)
(4.91381e-05 3.57598e-05 2.61477e-22)
(0.000519324 0.000163029 -3.53336e-23)
(0.000150896 3.84261e-05 4.62482e-23)
(0.000480086 -0.000132021 5.80814e-22)
(0.000172117 0.000199993 -3.79099e-22)
(0.000171668 -0.000307613 0)
(0.000472742 0.000695248 0)
(8.48545e-06 -0.000111358 4.03042e-22)
(0.00342637 -4.57819e-05 0)
(5.82959e-07 -1.20977e-05 3.99077e-22)
(0.000467965 0.000794954 2.71803e-21)
(0.000208184 0.000271235 0)
(0.00218626 0.000710716 0)
(4.2653e-05 -0.000240597 5.50003e-22)
(0.00114323 3.77473e-05 -3.42328e-22)
(0.000585679 -0.000199619 2.48363e-22)
(0.000558317 0.000326639 -2.05114e-23)
(-0.000299156 -0.000943094 0)
(3.41797e-05 0.000116246 -1.32604e-22)
(0.000277268 -0.000900171 4.47002e-23)
(0.000210634 -0.000204504 0)
(0.000299547 0.000200872 -1.58761e-22)
(-0.00085495 -0.000130941 1.91467e-22)
(0.000425219 -0.000960861 -3.02805e-23)
(3.94772e-05 3.7091e-05 -2.08129e-22)
(0.000463329 -0.000119125 -5.46517e-22)
(5.79141e-05 0.000138274 -1.99828e-22)
(0.00297778 0.000126023 1.18799e-22)
(0.00122903 -0.000150172 -1.30191e-22)
(0.000121667 1.73844e-05 -2.88792e-24)
(2.62515e-05 -0.00054626 -6.60268e-22)
(0.000310782 0.000588461 7.57642e-22)
(-2.37319e-07 -8.16523e-06 -6.09946e-22)
(-1.48926e-09 -1.85075e-05 -4.52446e-22)
(0.000294481 0.000819327 2.21076e-21)
(0.00340447 -3.62337e-05 2.06083e-22)
(0.00221641 0.000540849 -8.94657e-22)
(3.29616e-05 -0.000190208 1.6806e-22)
(0.000927074 9.47684e-05 6.22119e-23)
(0.000129704 0.000165002 2.46863e-22)
(7.89791e-06 -6.14327e-05 0)
(0.000653265 0.000598453 1.89265e-22)
(0.000962128 0.000113995 0)
(0.00024593 0.000217823 2.90019e-23)
(6.31061e-06 4.70429e-05 0)
(0.00034249 0.000808036 1.21905e-21)
(0.000328872 -0.000365358 0)
(0.000240569 0.000813622 3.96556e-22)
(3.76903e-05 -0.00016906 -1.27028e-21)
(0.000158115 -3.11143e-05 1.1157e-23)
(0.000404092 6.82548e-06 0)
(8.04956e-05 -0.000187558 0)
(0.000305804 0.00078699 -5.30989e-22)
(0.000452834 0.000414996 6.08577e-22)
(0.00046243 0.000379673 -1.36409e-23)
(0.000728013 -0.000249225 -1.30638e-22)
(0.00135438 -0.00116893 -5.27988e-23)
(0.00123965 -0.000260484 2.10176e-24)
(0.00178192 0.00118161 -3.21624e-25)
(0.000293322 0.000442645 0)
(0.000288496 0.000725262 0)
(0.000601984 0.000305795 5.89449e-22)
(0.00035823 -0.000174611 3.22888e-22)
(0.00237064 6.12532e-05 0)
(0.00091177 0.000689957 0)
(7.77861e-05 2.79637e-06 0)
(0.0002269 0.000420519 -5.36762e-22)
(0.00117355 -0.000227652 -9.84682e-22)
(0.000247584 -6.73259e-05 5.68119e-24)
(4.84596e-05 -6.94832e-05 6.1808e-24)
(4.65753e-05 -6.45657e-05 -2.34838e-22)
(0.000427486 0.000774211 1.12157e-21)
(0.00310605 6.20442e-05 4.79854e-22)
(7.08528e-05 0.000402209 -9.01799e-22)
(-0.00062208 -0.000128318 4.36934e-22)
(4.33632e-05 1.53614e-05 1.19896e-23)
(0.0022907 0.000576888 1.88578e-22)
(0.000678068 -0.000377935 0)
(1.16319e-05 -0.000134657 1.17807e-21)
(0.000433221 -0.000128021 -2.5933e-22)
(0.000236861 4.97289e-05 -2.83483e-22)
(0.000168097 0.000175907 -3.5428e-22)
(8.25523e-05 -0.000176702 -4.44642e-22)
(0.000222474 0.000215229 -1.11107e-22)
(0.000347259 -0.00016805 -3.96115e-22)
(0.000345753 0.00127843 -2.73818e-22)
(0.000140875 -4.98468e-06 0)
(0.00125321 5.78687e-05 0)
(0.000451278 0.000770369 -6.88686e-22)
(0.00053092 0.00105861 -4.96714e-22)
(0.00030427 9.90596e-05 1.05886e-22)
(-0.000155946 0.000325261 0)
(3.99746e-05 -0.000133631 4.98615e-22)
(1.12724e-06 -1.71139e-05 2.58138e-23)
(3.54258e-05 -0.000158574 9.77452e-22)
(9.48481e-06 -7.22074e-05 -1.31965e-22)
(0.00268642 0.00042018 0)
(1.817e-05 5.54969e-07 0)
(0.000438053 0.000562678 0)
(0.00135562 0.000833111 0)
(0.000412731 -0.000145731 0)
(0.000871214 -0.000605135 0)
(-0.000663219 -0.00011169 0)
(0.000553456 0.00107698 0)
(0.000551483 0.000380744 4.24367e-23)
(5.27934e-05 -0.000236053 -4.3934e-22)
(-8.13648e-09 -0.000127296 -1.25823e-21)
(3.475e-05 -0.000163784 4.41158e-23)
(2.85427e-05 3.6174e-06 0)
(4.89664e-05 3.00027e-05 -3.36334e-22)
(1.24768e-05 -7.06305e-06 -9.56085e-23)
(0.000538162 0.000127227 0)
(0.000600567 -0.000297342 -3.40875e-22)
(0.000340937 -0.000381628 0)
(0.00143743 0.000504767 -1.18397e-21)
(0.000166089 -2.25257e-05 -2.88675e-23)
(0.00141773 0.000623643 -2.20045e-22)
(3.11742e-07 5.12515e-07 -3.50898e-22)
(-0.000634325 7.58988e-05 -6.01652e-22)
(0.000308561 -2.02625e-05 -3.64526e-23)
(-5.5109e-08 -8.65461e-07 -1.00715e-22)
(2.15439e-06 -0.000121741 -6.73308e-22)
(0.00208526 0.00073607 8.60363e-22)
(0.000242069 8.7936e-05 2.37725e-22)
(0.00207338 0.00110785 3.81837e-22)
(-0.000377728 -0.000972074 2.89084e-23)
(0.00035213 0.000517683 0)
(0.000581549 0.00049455 -2.95026e-22)
(-2.88065e-06 8.08429e-05 -2.62828e-22)
(0.000298724 0.000736721 -8.85401e-22)
(0.00016939 -8.55966e-05 0)
(0.00015789 0.000195823 7.44542e-22)
(0.000621502 0.00065305 0)
(1.94415e-06 -0.000126926 5.68075e-22)
(8.95373e-05 -0.000113599 -1.70922e-22)
(5.59655e-05 6.35874e-05 0)
(0.000189617 0.000650493 1.09776e-21)
(0.00283551 9.38119e-05 9.48544e-22)
(0.000274459 2.47485e-05 -2.4835e-22)
(0.000309281 0.000123669 -5.0226e-22)
(5.90011e-06 0.000313168 0)
(0.00113447 -0.000485969 -2.17571e-22)
(9.29311e-05 -0.000246334 -5.87743e-22)
(0.000212199 -0.000120391 0)
(0.00282874 0.000288726 1.88926e-24)
(2.7315e-05 3.60895e-06 0)
(0.00287497 0.000245703 -4.01923e-22)
(3.86712e-06 -1.76115e-05 -1.17831e-22)
(0.00012996 0.000186175 0)
(1.43247e-05 -0.00101711 -7.67602e-23)
(0.000408136 0.000766413 2.31064e-21)
(0.000551145 0.000906974 0)
(0.000232299 -4.25744e-05 -2.27013e-22)
(0.000445199 0.000213267 1.16884e-22)
(4.21023e-07 -6.12418e-05 -5.2796e-22)
(5.06918e-08 5.59043e-07 -7.33209e-22)
(0.00052572 7.72994e-05 0)
(0.000140947 -1.04997e-05 -6.8614e-23)
(1.1255e-06 -4.53067e-05 -9.62973e-22)
(3.51503e-05 0.000417925 0)
(0.000248977 0.000455044 -5.91278e-23)
(2.32192e-05 -3.57167e-06 -2.00568e-22)
(0.000601146 0.000250538 4.36805e-23)
(0.00121704 -4.67902e-05 9.29692e-23)
(0.00202758 0.000963295 3.45808e-22)
(0.000242315 -5.13864e-05 1.4728e-22)
(0.000901602 0.000603178 9.72876e-23)
(0.000126141 -0.000348046 7.05944e-22)
(1.31954e-06 -0.000132222 0)
(0.000110473 -6.17528e-06 4.94105e-23)
(4.42974e-05 6.38373e-06 0)
(0.000226281 0.000182372 -5.70547e-23)
(0.00185529 0.00120797 -3.34891e-22)
(0.00298951 -3.33576e-05 9.49185e-22)
(0.000264726 -0.000814249 1.89545e-23)
(0.00277798 0.000316203 0)
(0.00012608 1.07159e-05 0)
(0.000119278 1.8964e-05 2.89846e-24)
(0.000513651 -0.000346124 2.96791e-22)
(0.000150282 -3.01378e-05 -4.64392e-23)
(6.25583e-05 2.98994e-05 0)
(-4.4554e-05 -0.000161796 1.74429e-22)
(0.000735728 0.00106645 5.08945e-22)
(0.0023043 0.000194337 0)
(0.000489062 0.00079285 -3.0154e-21)
(0.000418926 0.00077123 -1.54207e-21)
(1.31929e-05 -9.50034e-05 1.61006e-22)
(4.35632e-05 1.81586e-05 0)
(0.00127469 0.00049102 6.00791e-23)
(0.000718986 0.000544219 1.11096e-21)
(0.000137051 0.000197036 6.75243e-22)
(-4.82354e-07 -2.36198e-05 -2.3242e-22)
(0.000507415 0.000917178 -5.46203e-22)
(0.000294119 -0.000360102 1.53469e-23)
(-0.000599221 -0.000161068 0)
(4.8907e-05 -0.000180506 0)
(1.40116e-05 -4.48896e-05 2.72607e-22)
(0.00279069 6.42636e-05 -7.26835e-22)
(3.49992e-05 -0.000173229 1.04502e-21)
(0.000315591 0.000217459 8.31619e-23)
(3.87115e-05 1.54479e-05 0)
(0.000181126 -0.00070707 0)
(3.10292e-05 -1.30617e-07 6.06953e-23)
(0.000397812 0.000278914 0)
(1.59385e-05 -3.24705e-05 9.3003e-22)