/*--------------------------------*- C++ -*----------------------------------*\
| =========                 |                                                 |
| \\      /  F ield         | OpenFOAM: The Open Source CFD Toolbox           |
|  \\    /   O peration     | Version:  v2012                                 |
|   \\  /    A nd           | Website:  www.openfoam.com                      |
|    \\/     M anipulation  |                                                 |
\*---------------------------------------------------------------------------*/
FoamFile
{
    version     2.0;
    format      ascii;
    class       volScalarField;
    location    "250";
    object      nut;
}
// * * * * * * * * * * * * * * * * * * * * * * * * * * * * * * * * * * * * * //

dimensions      [0 2 -1 0 0 0 0];


internalField   nonuniform List<scalar> 
13851
(
0.000665437
0.000456873
0.000456502
0.00926932
0.000464006
0.000459398
0.0004544
0.000456412
0.0128788
0.00046241
0.000531805
0.000463796
0.000460403
0.00471137
0.000469267
0.000704399
0.00574007
0.000455204
0.00132831
0.000665214
0.00047505
0.000461746
0.0053648
0.000468637
0.00477123
0.000510956
0.00200682
0.00450463
0.0129203
0.000455901
0.013669
0.000454508
0.000660853
0.0145987
0.000485927
0.0130248
0.000468831
0.00554869
0.0155335
0.000458566
0.0149292
0.0133543
0.000613575
0.00565777
0.0136791
0.000458168
0.000451309
0.000676579
0.00045806
0.000460463
0.00542012
0.000460177
0.000700546
0.000461478
0.00464863
0.000458486
0.000665694
0.014805
0.00276927
0.00539872
0.00046404
0.0016023
0.000464378
0.000458185
0.00161614
0.00178438
0.00341618
0.000695755
0.000457565
0.0112001
0.0135866
0.000486787
0.000460032
0.00414925
0.000463808
0.000459165
0.00838533
0.000454563
0.00407148
0.000460849
0.000457441
0.00148009
0.000485574
0.00553263
0.00562686
0.013778
0.000461445
0.00309019
0.000462021
0.0135505
0.000460183
0.000454531
0.000517031
0.0133886
0.0149575
0.00441595
0.000458976
0.00070896
0.00476897
0.000902621
0.000724717
0.000524022
0.000540554
0.000459936
0.000457416
0.000485723
0.00045775
0.0138653
0.000454602
0.000455186
0.000469629
0.000457682
0.000761021
0.000516462
0.000658083
0.000460756
0.000456848
0.000456426
0.00846109
0.0115584
0.00118762
0.000455308
0.000457872
0.011611
0.00102069
0.00106369
0.000459118
0.000523935
0.014453
0.000481201
0.000461285
0.000466681
0.00509662
0.014601
0.000533738
0.0150537
0.000642522
0.0137284
0.000489601
0.000479985
0.0014638
0.000459332
0.000461977
0.000939396
0.00471679
0.000459204
0.000454472
0.0133879
0.0106892
0.000530545
0.000720163
0.000763779
0.000524712
0.0009976
0.000459888
0.000461171
0.000464475
0.0154471
0.000475855
0.000454627
0.000468337
0.0129874
0.000484019
0.000677084
0.005027
0.013762
0.013884
0.00710871
0.0004687
0.0109349
0.000464583
0.000457376
0.000503467
0.000465447
0.015259
0.00171395
0.000752208
0.00045678
0.000463505
0.000742308
0.00098542
0.00482443
0.000467113
0.000480474
0.000576538
0.010965
0.000661628
0.000470315
0.000459811
0.000457101
0.00404402
0.000475805
0.00279657
0.000459761
0.00045896
0.000704995
0.000650752
0.000453977
0.000455833
0.000693474
0.00143716
0.014964
0.0149187
0.000469408
0.0109636
0.0144932
0.000460687
0.00047857
0.0130692
0.000459203
0.000704162
0.000457901
0.00148657
0.000467774
0.000487075
0.000459836
0.000460552
0.000917714
0.000454812
0.00740941
0.000455393
0.000664924
0.00408139
0.0151636
0.000469916
0.000479569
0.000468622
0.000841206
0.000462389
0.000486138
0.0100078
0.000469938
0.000458923
0.000464859
0.0147785
0.000455671
0.00557826
0.0148671
0.000834037
0.00046828
0.00543762
0.00564979
0.0137507
0.000695985
0.000466261
0.00120053
0.000844581
0.000463577
0.00330732
0.000472517
0.00343773
0.00067251
0.000458048
0.000458214
0.000715914
0.0127227
0.00513244
0.000457243
0.00107996
0.000462297
0.000813539
0.00100606
0.000458591
0.000484917
0.000688105
0.000460315
0.000529708
0.00061472
0.00355353
0.000463814
0.000460518
0.000470201
0.0141947
0.00549437
0.000481394
0.000455197
0.000998896
0.000998802
0.000618487
0.000483668
0.0140728
0.00459932
0.000459419
0.000465469
0.00574147
0.000457065
0.000464571
0.000627638
0.000516127
0.000455452
0.000467846
0.000462056
0.000461827
0.000465507
0.000464351
0.0131846
0.000477842
0.000458553
0.0127154
0.0108978
0.000460157
0.000669592
0.00510583
0.000459334
0.0004601
0.000480484
0.00489031
0.0130714
0.00051219
0.000463774
0.0104573
0.00046425
0.000523353
0.00679497
0.00361921
0.000454392
0.00565813
0.00439615
0.0144238
0.000759461
0.000537114
0.0154468
0.0130322
0.00392551
0.000455844
0.00971982
0.000404117
0.00958385
0.00679054
0.000460733
0.00051243
0.000469748
0.00359085
0.000558393
0.000459377
0.000451428
0.000462878
0.0141176
0.00959595
0.000457148
0.0148911
0.000470828
0.000467462
0.000454516
0.00385096
0.000978341
0.000709624
0.000459606
0.000458571
0.0129867
0.000459851
0.00104495
0.000458965
0.000480378
0.000471519
0.000462089
0.000458063
0.000772715
0.000975255
0.000673213
0.00473834
0.0131386
0.000459117
0.014681
0.000978497
0.000454131
0.00374222
0.000560762
0.00644637
0.000461825
0.000519383
0.00198102
0.00485118
0.000758855
0.0046303
0.000456399
0.00208847
0.00191232
0.000463756
0.00528247
0.000466662
0.0151115
0.000465126
0.00047157
0.000679364
0.00122721
0.000461215
0.000458961
0.000526505
0.000463957
0.000458808
0.000481526
0.0129818
0.000459853
0.000479223
0.00693961
0.000457485
0.00692969
0.000476555
0.0125524
0.000459537
0.000503993
0.0107051
0.00102758
0.000485177
0.00375767
0.00410729
0.00506544
0.00045998
0.000759549
0.000467286
0.00051739
0.000455696
0.000623422
0.0132275
0.00451493
0.000458119
0.000683345
0.00157764
0.00699574
0.000452651
0.0071758
0.00134022
0.00519571
0.000474327
0.00428453
0.000461017
0.000465027
0.00354286
0.00156997
0.000462061
0.000456818
0.000480058
0.000457902
0.0125079
0.000512436
0.000558093
0.000457128
0.000456243
0.0004602
0.00453541
0.000458502
0.000460261
0.011356
0.0125999
0.000461296
0.0014782
0.000464342
0.000464465
0.000457764
0.000683838
0.000475579
0.000458429
0.000455869
0.0011353
0.000455647
0.0117114
0.000463795
0.000458101
0.0137466
0.00048605
0.0004527
0.000465027
0.000457248
0.000453691
0.00563229
0.0123618
0.000466213
0.00227612
0.000457838
0.000462981
0.0141677
0.00180355
0.000488001
0.000459594
0.0125463
0.000486498
0.00772019
0.000460249
0.000466909
0.000768874
0.000466026
0.0137309
0.00163983
0.00456236
0.00046014
0.00075864
0.000459758
0.0126663
0.000476393
0.000649661
0.000466826
0.000459494
0.00048573
0.000503704
0.000464327
0.00587579
0.0139277
0.0112458
0.00454762
0.0120864
0.0110055
0.00103616
0.000467407
0.000467014
0.00691569
0.000462715
0.000458699
0.000472196
0.0153408
0.000456135
0.000459491
0.000687666
0.000486617
0.000462312
0.00953901
0.000459229
0.0145593
0.00490699
0.000460603
0.000455028
0.00134928
0.00394805
0.000455416
0.00625038
0.00590159
0.000452378
0.0151393
0.0012561
0.000662963
0.00046014
0.0110478
0.00584928
0.000452386
0.00123637
0.000457728
0.000459237
0.0103072
0.0151517
0.000473993
0.00047526
0.000462317
0.000493034
0.0145822
0.015392
0.000453284
0.00774461
0.000458404
0.000457619
0.000485166
0.000457894
0.000452456
0.000459319
0.0152648
0.00115373
0.0150899
0.000455959
0.000462134
0.0141956
0.000466513
0.000759979
0.000458619
0.000463965
0.00046629
0.0136617
0.00607628
0.000459199
0.00658937
0.000454344
0.000514435
0.0134711
0.00706234
0.000458003
0.000459946
0.000544066
0.0151821
0.00131681
0.000492431
0.0061297
0.000458112
0.000464093
0.00973583
0.00992084
0.00103956
0.0144281
0.000813117
0.0133667
0.000456264
0.00310941
0.00350593
0.000463874
0.00193342
0.0130727
0.000468542
0.000480525
0.000458788
0.00899009
0.000585163
0.00703477
0.000458357
0.000466033
0.000464339
0.000486005
0.000464201
0.0151065
0.000466013
0.000789155
0.000460314
0.000520157
0.000459944
0.000462318
0.000503048
0.0080421
0.000485271
0.0148189
0.000466809
0.000457835
0.000454213
0.000504409
0.000455956
0.000594172
0.000456899
0.00048589
0.00281094
0.000466369
0.00358601
0.000468356
0.000574482
0.00790602
0.013867
0.000468182
0.00633155
0.000678989
0.0013371
0.0134413
0.000453092
0.0106448
0.00047049
0.000464781
0.00561574
0.00324538
0.000454025
0.000589168
0.000453919
0.0130758
0.00562719
0.000457369
0.000728344
0.012404
0.000468381
0.000468665
0.000512646
0.00247247
0.0096114
0.000460082
0.000680026
0.000455482
0.000462119
0.00321758
0.000684165
0.000859865
0.000452444
0.000615979
0.000529945
0.000496647
0.000459853
0.000458731
0.00057679
0.000463971
0.000645448
0.000486741
0.000486906
0.000886843
0.00932054
0.00126639
0.0127552
0.00549318
0.00069772
0.00832367
0.000492651
0.0108552
0.0006732
0.000455709
0.000463336
0.00107639
0.000462178
0.000460456
0.000460807
0.000574726
0.00383469
0.000458445
0.0146201
0.000458037
0.0102394
0.00107499
0.00495964
0.000589632
0.000459572
0.000456623
0.00635661
0.000846937
0.000487785
0.00177663
0.000456131
0.00674602
0.000576688
0.000797059
0.000466928
0.00225108
0.000460871
0.000468109
0.000460541
0.000461754
0.0134237
0.000462372
0.00244413
0.0141084
0.000596002
0.015457
0.00558197
0.000813297
0.00140814
0.000468548
0.000467064
0.00046055
0.000454655
0.000454318
0.000465569
0.00051448
0.000740529
0.000546849
0.00374388
0.00045814
0.0128093
0.00046918
0.00992786
0.000481258
0.000469385
0.000465264
0.0138679
0.000460013
0.00911268
0.012989
0.000477624
0.000513476
0.000452301
0.0146473
0.000460603
0.000456433
0.00294504
0.00046646
0.000459419
0.000454138
0.000476525
0.00419366
0.000463858
0.000467052
0.00151606
0.0151459
0.000469956
0.000463679
0.0134895
0.000454512
0.0133766
0.00046705
0.000455584
0.00391794
0.00053611
0.000651318
0.000593696
0.000485263
0.000467625
0.00046935
0.000523563
0.000456286
0.000467807
0.000458822
0.00153129
0.000462179
0.00123919
0.00723938
0.00816241
0.000588539
0.012856
0.000494041
0.000466425
0.000757109
0.000458257
0.000459198
0.0122695
0.0131425
0.0106044
0.0136269
0.000457095
0.00045725
0.000624713
0.000458712
0.000456638
0.00533563
0.00083439
0.00584811
0.000578407
0.000540147
0.000461453
0.000455839
0.00606887
0.000558777
0.000455776
0.000468249
0.000651644
0.000819621
0.0147959
0.000460003
0.000465671
0.00303162
0.000459867
0.000466521
0.000458005
0.0153939
0.000458501
0.00902809
0.000463911
0.000789054
0.000472572
0.000635541
0.000466896
0.000460273
0.000456925
0.000462581
0.00228134
0.00045971
0.00710742
0.000456029
0.007441
0.0142509
0.000465311
0.000462524
0.00755939
0.0123143
0.000459419
0.000536266
0.000460567
0.00316213
0.000455441
0.00107451
0.000463573
0.000462577
0.00831382
0.000466239
0.000464499
0.000462178
0.0145259
0.0108733
0.0128882
0.000457326
0.00926084
0.000463078
0.000462004
0.000459906
0.000451191
0.00046737
0.0131381
0.012444
0.000455083
0.000465787
0.00047428
0.000458744
0.00856153
0.000765389
0.0066718
0.0155214
0.000456894
0.000645071
0.000463539
0.000475318
0.000877212
0.000453297
0.000467174
0.00529062
0.00653113
0.000510408
0.00192416
0.000501518
0.000464316
0.000476645
0.000537823
0.00632875
0.000464317
0.00525923
0.000563645
0.000467259
0.00832192
0.0090063
0.0063782
0.00364552
0.0101205
0.000460028
0.00117744
0.000459308
0.00279477
0.000461121
0.000459425
0.0131967
0.000458101
0.000462265
0.000457875
0.000457886
0.0152014
0.00105197
0.000458403
0.000478197
0.00494811
0.000457945
0.00232421
0.000460046
0.000530231
0.0151878
0.000464616
0.00152358
0.000465484
0.000466991
0.00975903
0.00045799
0.00137575
0.000502875
0.0148268
0.000453378
0.00580687
0.000463263
0.00926489
0.00583591
0.00375947
0.000477394
0.000460326
0.000457312
0.000468643
0.000469496
0.000465012
0.0140198
0.000465855
0.000466804
0.000469354
0.000459939
0.000457399
0.000456924
0.000462659
0.00045509
0.000462933
0.0143187
0.00217117
0.000462248
0.000508593
0.0128572
0.000459512
0.0143747
0.000454998
0.000473468
0.00045976
0.00045698
0.000499038
0.000463151
0.000458893
0.00053639
0.000461049
0.00137342
0.00045582
0.00181087
0.00255798
0.000858566
0.0010861
0.000454808
0.0152528
0.000722734
0.000467678
0.000462219
0.00045962
0.0146209
0.000460058
0.000529242
0.00403115
0.00529973
0.000592889
0.000455915
0.0137562
0.00317662
0.0106825
0.000465704
0.000457673
0.000452924
0.00051244
0.000460621
0.00440802
0.00077144
0.000466814
0.000969056
0.00139897
0.000454253
0.0139351
0.00828671
0.000814705
0.000456106
0.0137102
0.000513523
0.000462635
0.00369128
0.000463269
0.000454509
0.000459924
0.000462506
0.000469935
0.0136321
0.0135021
0.000471906
0.0138663
0.000464464
0.000460976
0.000773502
0.000460638
0.0052749
0.000453199
0.000463119
0.000459523
0.000456193
0.0141997
0.00388376
0.00112665
0.00588565
0.0124776
0.000469518
0.000459654
0.000455992
0.00152194
0.000453006
0.000454856
0.000485219
0.00454764
0.00182924
0.000452835
0.000481061
0.000467025
0.000664788
0.00177683
0.000452199
0.000452265
0.000454519
0.00443874
0.000458587
0.0146034
0.000458876
0.000465977
0.000454393
0.000459485
0.000459686
0.000805939
0.0134422
0.013724
0.000469262
0.000463077
0.00674953
0.000453776
0.00499351
0.00829647
0.000472858
0.00919637
0.0132814
0.012888
0.0004876
0.000463802
0.010761
0.000463014
0.000478462
0.000638852
0.00137006
0.000456459
0.0102054
0.000461299
0.0118884
0.00460413
0.000454965
0.000460566
0.000502167
0.00154025
0.000465604
0.000465645
0.000459037
0.000460199
0.000456756
0.0096049
0.000465892
0.0126831
0.0041716
0.000461171
0.000462946
0.000469806
0.000464101
0.0129529
0.000746997
0.015357
0.00924675
0.000462936
0.000459687
0.000461087
0.000459809
0.00113619
0.000465933
0.000468501
0.000499714
0.000463255
0.00918402
0.000472528
0.00341589
0.000460292
0.000458021
0.00056539
0.000560547
0.000522085
0.000460345
0.000481498
0.0104799
0.00466568
0.0123324
0.012345
0.0136777
0.00860667
0.000460893
0.000462149
0.000454267
0.00125748
0.000475584
0.000522547
0.00573539
0.000453426
0.000454905
0.00046231
0.0011323
0.000454042
0.000458316
0.000459427
0.0106484
0.000459375
0.000458653
0.000464252
0.000458965
0.000466199
0.000482628
0.00112409
0.000478669
0.011206
0.000462568
0.000459269
0.0144383
0.0144548
0.00325345
0.00898335
0.000542492
0.0100668
0.000457798
0.000564375
0.00045807
0.000463925
0.00045469
0.0102525
0.00045518
0.000563359
0.00585115
0.000453885
0.000456966
0.000464114
0.000826829
0.000468775
0.0106695
0.000454215
0.00103592
0.00046527
0.000455099
0.000459662
0.000814477
0.000460343
0.00252356
0.013655
0.000919368
0.0145394
0.00046102
0.00786947
0.00207571
0.000462783
0.00473468
0.000459691
0.000517972
0.000459894
0.000452044
0.000461103
0.000462119
0.000457584
0.000465392
0.000508096
0.000456016
0.000464238
0.000629033
0.00045347
0.0102697
0.000465128
0.000465019
0.000464022
0.00703341
0.00317456
0.000465591
0.000829011
0.000457867
0.000460257
0.000569181
0.00830829
0.000479784
0.000468758
0.000604444
0.000713376
0.00053872
0.00218059
0.000484658
0.000704549
0.000492402
0.000509061
0.000459352
0.00045563
0.00790197
0.0064229
0.000459068
0.00046248
0.00205606
0.000457714
0.00047535
0.000460897
0.000590911
0.00523897
0.000451287
0.00694553
0.00045892
0.000466288
0.000743973
0.000459375
0.000511015
0.00997619
0.000474067
0.00847913
0.000461113
0.000468674
0.000524716
0.000467751
0.000467989
0.000458758
0.000462506
0.000509373
0.000598235
0.000459718
0.000481386
0.000455607
0.000463243
0.000467524
0.000462765
0.00522459
0.000453714
0.000460141
0.0014053
0.000458251
0.000462164
0.0143106
0.000468425
0.00142027
0.000455192
0.0141802
0.00094835
0.000561808
0.00596974
0.000524345
0.0103135
0.00045541
0.000840719
0.000461617
0.000455417
0.000458463
0.000460112
0.000463437
0.000459118
0.000512334
0.000459664
0.000458123
0.00185598
0.00515739
0.00909723
0.000454795
0.000544474
0.00838223
0.010242
0.000466234
0.000457996
0.0101717
0.000454817
0.000478186
0.00546357
0.013754
0.00045823
0.000473946
0.000457927
0.00154778
0.000469302
0.000484588
0.00441419
0.000459315
0.000456091
0.00984847
0.000482264
0.00120234
0.0144999
0.000575904
0.000459628
0.000459852
0.000455072
0.0109477
0.00309214
0.00956516
0.000507548
0.000461556
0.0104779
0.000464781
0.000762625
0.000465171
0.000454251
0.000476012
0.000463476
0.0134434
0.0122549
0.000451378
0.000511798
0.000476258
0.00533664
0.000482282
0.000491363
0.00117025
0.00046421
0.00213463
0.000495014
0.000464716
0.000465954
0.000750683
0.011557
0.000462778
0.00462505
0.000486266
0.000496122
0.000468839
0.0129007
0.000457699
0.000459687
0.000456734
0.000479297
0.000476664
0.00056781
0.000465025
0.000458105
0.000520623
0.00046508
0.000517716
0.000466163
0.000459793
0.000465889
0.000910683
0.00046634
0.000597964
0.00568311
0.000504707
0.0139671
0.000469362
0.00476411
0.0013504
0.000460711
0.00414562
0.000467884
0.000460048
0.000463371
0.000466487
0.000586236
0.000476952
0.000495582
0.000497003
0.000464949
0.000459712
0.000453862
0.000736101
0.000457115
0.000467447
0.00296473
0.000460825
0.000468364
0.000460305
0.00528436
0.000580812
0.000459808
0.000456818
0.000460589
0.00493739
0.00075835
0.000463287
0.0136828
0.00200992
0.00451102
0.000564706
0.00171077
0.000459357
0.00221095
0.000454784
0.000464792
0.00570202
0.0129361
0.00137638
0.00554424
0.000464954
0.00363585
0.000459412
0.00053432
0.000461269
0.00965315
0.01346
0.000455794
0.000462971
0.00130285
0.000524362
0.000462417
0.0128079
0.000463377
0.00045977
0.000457246
0.000460094
0.000465404
0.00046101
0.000461421
0.00047376
0.00198447
0.000472187
0.000517666
0.000462215
0.00619569
0.013115
0.000462183
0.00141624
0.000461154
0.00046955
0.0106156
0.000462052
0.000459318
0.000466269
0.0116825
0.000462697
0.000466691
0.000474393
0.0105103
0.000461436
0.000474178
0.000475324
0.00285296
0.000486194
0.000474362
0.000950955
0.000463484
0.00102306
0.000455604
0.00469651
0.000465088
0.000462661
0.000457303
0.000589381
0.000465589
0.000454821
0.00067862
0.0134108
0.00045358
0.00524042
0.000466662
0.000454966
0.000509994
0.000462949
0.000453502
0.0119916
0.000468866
0.000473244
0.00073583
0.0147752
0.00240778
0.000452672
0.000460331
0.000467165
0.000463893
0.000460719
0.000464426
0.00779323
0.000466533
0.00225484
0.000616222
0.000456141
0.000453499
0.000463929
0.000617411
0.0014108
0.000560159
0.000517054
0.000459348
0.0131963
0.000584084
0.000460088
0.000471426
0.000561448
0.000570944
0.00526095
0.000467756
0.00771002
0.00712368
0.00935455
0.000456608
0.00045761
0.000474503
0.000485606
0.000454409
0.00045373
0.000896151
0.000468238
0.000456905
0.000463179
0.000452447
0.000454951
0.000454984
0.0078442
0.000463022
0.00520525
0.000463852
0.000675369
0.000456482
0.00062211
0.000617966
0.000460285
0.0127448
0.000460898
0.000467474
0.000471193
0.000455629
0.000471362
0.000455146
0.0135119
0.000459198
0.000476241
0.000926484
0.0123685
0.000465269
0.00231682
0.00259493
0.000509236
0.000454821
0.000455608
0.000788098
0.000511744
0.00671352
0.000455547
0.0113805
0.000458182
0.000795502
0.0111251
0.000473099
0.00941613
0.000460414
0.00046486
0.000460614
0.0127327
0.000466711
0.000465866
0.000506429
0.000679755
0.000457782
0.000462193
0.000465919
0.0155269
0.000468149
0.000464211
0.0145212
0.000462511
0.000460245
0.00052216
0.000459734
0.0103194
0.000454675
0.000460988
0.000458865
0.00046372
0.000455424
0.000455061
0.000501513
0.0142189
0.000460327
0.000464423
0.00877425
0.000453046
0.00730039
0.000453601
0.0135403
0.000456852
0.000460471
0.000457869
0.00769034
0.0144779
0.000468891
0.000639219
0.000465116
0.00045822
0.000464861
0.0135138
0.00046569
0.000533487
0.000454233
0.00047208
0.000466623
0.0107355
0.000458447
0.000474859
0.000457193
0.00403898
0.00493189
0.000455562
0.000498727
0.0126137
0.000507832
0.0100175
0.00894333
0.00111963
0.000460462
0.000467082
0.000569166
0.00426088
0.000452118
0.000467587
0.000467117
0.000457788
0.00668582
0.0113197
0.000510777
0.000707546
0.00129232
0.000471027
0.0141773
0.000454306
0.000455782
0.000593862
0.0111827
0.0008848
0.000756813
0.00307156
0.000458072
0.0126792
0.00865776
0.010226
0.00046724
0.00967274
0.013232
0.00541186
0.010977
0.0112947
0.000539428
0.000464719
0.000771733
0.000463183
0.000458772
0.00372892
0.000555809
0.000453762
0.00761741
0.000466549
0.00046713
0.000474484
0.00046405
0.00306619
0.000484033
0.00650968
0.000474039
0.000464049
0.00608423
0.0153656
0.000667443
0.000459467
0.000462812
0.00052427
0.000555928
0.000458169
0.000486458
0.000597751
0.000708752
0.000459441
0.000812895
0.000459923
0.000506627
0.0116979
0.00253805
0.000459886
0.000768181
0.0114785
0.000459507
0.000458193
0.0114813
0.00135648
0.000458482
0.000457711
0.000464464
0.000578971
0.000456457
0.0133767
0.00058706
0.000459637
0.000467884
0.000662601
0.000466704
0.00202051
0.00683727
0.000457723
0.000462743
0.000462822
0.000466775
0.000457505
0.000458099
0.000456223
0.000463127
0.000459594
0.000460728
0.000460131
0.000477555
0.00367839
0.000468865
0.0121505
0.00498988
0.00045523
0.00180281
0.000744016
0.000594188
0.000459261
0.000554727
0.00045926
0.000724108
0.000461735
0.000457521
0.000467301
0.00715994
0.000457527
0.008791
0.000459298
0.000462117
0.000462521
0.000572387
0.000460089
0.000484562
0.000495832
0.00852535
0.000459956
0.00164897
0.00466606
0.011025
0.0004576
0.000712064
0.00933571
0.00455995
0.003516
0.000460277
0.000457728
0.000803305
0.00296815
0.00713416
0.000472968
0.00154181
0.000467807
0.000454977
0.000488769
0.000467105
0.000461378
0.00076871
0.000468662
0.000808772
0.000456455
0.0152242
0.0128054
0.0087623
0.0114483
0.0101076
0.000460265
0.00046593
0.0113476
0.000455394
0.000455596
0.000454993
0.000726999
0.014692
0.00751735
0.000465284
0.000453163
0.000458084
0.000483417
0.00541293
0.000462997
0.00905336
0.0152504
0.000466709
0.000466439
0.00813162
0.000525959
0.000454088
0.000462593
0.0126159
0.0109608
0.000454819
0.000838002
0.000468344
0.011565
0.00901434
0.000453328
0.00918952
0.0067988
0.0097464
0.000456635
0.000452299
0.000467652
0.00046929
0.0145077
0.000458774
0.00120136
0.00176918
0.0055483
0.000456032
0.000515143
0.00193056
0.000487124
0.0110918
0.0148368
0.000454078
0.00045752
0.000457736
0.00069184
0.0139285
0.000452529
0.00452577
0.000471799
0.000473635
0.000459146
0.00046128
0.00115923
0.000476926
0.00894809
0.000466814
0.000505655
0.000456118
0.000624785
0.000456351
0.0140683
0.00526832
0.00135701
0.00056153
0.000459262
0.000459342
0.000543438
0.00158104
0.0141237
0.0123732
0.000465966
0.00944236
0.000808378
0.015528
0.000456825
0.000481794
0.000474416
0.000455655
0.010899
0.000463688
0.000464699
0.00843784
0.0151141
0.0044683
0.0147739
0.000465018
0.000483025
0.000454435
0.0152788
0.000463857
0.00495626
0.00045422
0.0113234
0.000451546
0.000462082
0.000464357
0.000474507
0.000475003
0.000458785
0.00935096
0.000473726
0.000458756
0.000475328
0.00773657
0.00469351
0.000461024
0.0150163
0.000459204
0.00046463
0.0004622
0.000455117
0.000515127
0.000461986
0.00551534
0.000641494
0.000457104
0.000462271
0.00152348
0.000473487
0.000454201
0.00992154
0.00318688
0.000957539
0.000451241
0.00275031
0.000465537
0.00075929
0.000458643
0.000743485
0.00366501
0.00870904
0.00048605
0.0147191
0.000502431
0.000465577
0.000457408
0.0117547
0.000737537
0.000596863
0.000621108
0.000468091
0.010173
0.00057288
0.00150798
0.0013336
0.0133826
0.00950588
0.00516252
0.0108831
0.000466503
0.000474977
0.000464246
0.000455717
0.000452715
0.000764139
0.000466179
0.000477464
0.0154141
0.000459718
0.000458969
0.000471512
0.000680036
0.000460006
0.0004566
0.0150924
0.000457625
0.000476686
0.000458603
0.00855397
0.000467523
0.0130084
0.000564008
0.000466773
0.000504862
0.000464368
0.0048906
0.00168701
0.000525028
0.000458643
0.000460148
0.00334353
0.0139574
0.012807
0.000454573
0.000528945
0.0021768
0.00045504
0.000462389
0.000457503
0.0146789
0.000854635
0.000472706
0.000457045
0.000457417
0.0120762
0.000605194
0.000993758
0.00045677
0.000464716
0.000452235
0.000756228
0.000506595
0.000460964
0.0134087
0.0149922
0.0142682
0.0132762
0.0131526
0.0113133
0.0118461
0.000460482
0.000453383
0.0107586
0.00969899
0.00478338
0.000458736
0.000472891
0.000461749
0.000460309
0.00857185
0.0151611
0.000502862
0.000462034
0.00165367
0.000560417
0.000485427
0.00829935
0.00374998
0.00146215
0.000460252
0.0140102
0.00705721
0.00151527
0.000462365
0.000475794
0.000460271
0.000458898
0.000473732
0.000482239
0.000459643
0.000470999
0.000459656
0.000461022
0.00121686
0.00799799
0.000473082
0.000472792
0.0108436
0.000987893
0.000464686
0.0037499
0.00800081
0.0056135
0.000476899
0.000455743
0.000461969
0.000461511
0.000469768
0.000455501
0.000482111
0.000462046
0.000476145
0.00114198
0.00046778
0.000457211
0.00920609
0.0136555
0.0153582
0.00175571
0.000600007
0.000451474
0.000462205
0.000463526
0.000454499
0.0132684
0.000461831
0.000468875
0.000455483
0.0134299
0.00578312
0.000459716
0.000500029
0.000463618
0.000480417
0.000463565
0.000487916
0.0004722
0.000473526
0.00958057
0.000457803
0.00983472
0.000476294
0.0154243
0.000463463
0.000460687
0.000457524
0.000561817
0.000681583
0.000458116
0.000491664
0.000463473
0.000507698
0.011185
0.00883435
0.00952903
0.000468852
0.00278755
0.000467716
0.000475343
0.000462038
0.000525029
0.000459223
0.0075364
0.00934946
0.000481015
0.000463286
0.0136102
0.000465699
0.00735911
0.008793
0.00127627
0.000459756
0.000649037
0.0108589
0.00263618
0.012329
0.000507389
0.000456499
0.000477495
0.000454349
0.00976949
0.000460335
0.000467068
0.00186913
0.0154879
0.000456561
0.000459098
0.013535
0.000478355
0.011754
0.000482501
0.00046251
0.00047822
0.000884218
0.000520769
0.00873657
0.000473674
0.00244198
0.000458986
0.000469019
0.000458668
0.00117464
0.000459617
0.000777724
0.000461371
0.000456822
0.00109869
0.000457377
0.000455928
0.000462876
0.000471865
0.00229428
0.000472853
0.000473692
0.000463847
0.000506921
0.000459283
0.000805139
0.00046394
0.000476525
0.000679007
0.000457559
0.000642181
0.000526889
0.000454292
0.000507445
0.0120002
0.00973623
0.000454883
0.00615474
0.00738884
0.000459476
0.000459858
0.00633078
0.00909311
0.00046694
0.00764137
0.0014127
0.000453027
0.000538399
0.000452697
0.000458227
0.00050594
0.00565682
0.00530771
0.00154073
0.00178475
0.0132593
0.0126225
0.000454188
0.0109533
0.000462189
0.00740277
0.0119718
0.000464472
0.000464453
0.00905586
0.000460469
0.000463973
0.00149596
0.0140257
0.000882365
0.000457214
0.0106507
0.000464451
0.0136041
0.00913649
0.000466883
0.00237675
0.00470565
0.0114478
0.00930723
0.00963577
0.00829952
0.000459034
0.000460096
0.000504766
0.000504467
0.000463781
0.000984174
0.000462488
0.0101125
0.00143475
0.000543207
0.00127467
0.0105411
0.00139796
0.00111408
0.000621224
0.00659294
0.00197358
0.000456791
0.000453623
0.00793522
0.000478286
0.000455486
0.0133235
0.000460512
0.00828727
0.000460347
0.0148898
0.000456474
0.000460695
0.00522204
0.000466091
0.000485484
0.00765774
0.00979193
0.00643894
0.000458065
0.00047479
0.000459775
0.000469448
0.000634233
0.000470512
0.000467108
0.00937145
0.000501906
0.000471037
0.0074307
0.000473728
0.000484706
0.000945711
0.000526182
0.000474893
0.000460511
0.000848826
0.000457648
0.000630052
0.00296124
0.00937706
0.000459135
0.000474535
0.0105704
0.000455185
0.000517087
0.00046109
0.000476713
0.0118709
0.000500079
0.000460257
0.00613119
0.000459487
0.0135634
0.000464925
0.00045569
0.000625519
0.0130494
0.000469499
0.00290334
0.00541334
0.000461747
0.000455921
0.00120175
0.000482075
0.0154875
0.000464392
0.00646464
0.000675735
0.000461385
0.000462667
0.000691618
0.000473964
0.000696953
0.000499215
0.000488269
0.000458199
0.000453197
0.00549459
0.00046061
0.000462519
0.000452949
0.000591377
0.000462682
0.000497346
0.0100698
0.00045927
0.000900236
0.000451794
0.000460197
0.00046688
0.00046707
0.000456893
0.000460598
0.000540646
0.00439402
0.000495652
0.000478301
0.000456038
0.000456708
0.00215836
0.000459419
0.00986198
0.00867235
0.0110492
0.000695794
0.000472098
0.000457708
0.000466535
0.000469827
0.000840465
0.000481709
0.0118768
0.000494235
0.0147638
0.000705818
0.000467202
0.000458452
0.009472
0.000459054
0.000461608
0.000657289
0.00130048
0.000454791
0.0145316
0.000466359
0.000460404
0.00046184
0.000459019
0.00127999
0.000586464
0.000456895
0.000462745
0.00048646
0.000478629
0.000492002
0.00453525
0.00381358
0.00117384
0.000668764
0.000455862
0.000457236
0.000490547
0.0130786
0.0113583
0.0137305
0.000462887
0.00483663
0.000583512
0.000455624
0.000461763
0.000497378
0.000465596
0.000462188
0.00929286
0.000460278
0.000455148
0.00227214
0.0089231
0.000477007
0.00462351
0.000460243
0.00468933
0.000480734
0.0154267
0.000470003
0.000458902
0.0136598
0.000618552
0.000460698
0.00059627
0.000468262
0.000824874
0.000463426
0.00058948
0.0129449
0.000480988
0.0103432
0.00046129
0.0141042
0.000460276
0.00045956
0.000457583
0.000486152
0.000465649
0.000562636
0.013594
0.00790767
0.000485724
0.000469759
0.000706791
0.000457069
0.00045774
0.00045509
0.00430823
0.000456916
0.0150615
0.00719739
0.000754754
0.000467106
0.000746479
0.000988179
0.000688139
0.000455917
0.00915609
0.000459358
0.000451704
0.000459486
0.00450496
0.000455878
0.000460434
0.0136966
0.000460744
0.00075851
0.000814158
0.000453159
0.0141708
0.000457749
0.0149081
0.000456505
0.00357146
0.000457342
0.000690303
0.00832897
0.000507625
0.000459731
0.000457362
0.0101698
0.000462059
0.000752185
0.000463611
0.000460934
0.000779829
0.000466435
0.000452888
0.000503511
0.000463828
0.000458236
0.000700559
0.000460268
0.000457432
0.00046707
0.000460528
0.00045976
0.000462062
0.0110404
0.00472732
0.000857851
0.00478181
0.000496774
0.000463649
0.0155418
0.0143718
0.000459496
0.00508027
0.00587876
0.00846864
0.00427125
0.000465325
0.00968207
0.0138393
0.00730319
0.00422698
0.0120978
0.000511865
0.000719552
0.000468639
0.000456672
0.000462725
0.00665273
0.000469179
0.00896943
0.000948482
0.00266869
0.000453513
0.000518819
0.000524832
0.000461195
0.00046934
0.000464857
0.000969455
0.000455026
0.000453815
0.000470529
0.0151532
0.000456841
0.000788669
0.000458195
0.00101341
0.000730508
0.000459725
0.000462889
0.000460294
0.0148698
0.0142807
0.00073124
0.00642052
0.000473018
0.000549517
0.000465127
0.000471756
0.000462485
0.000457012
0.000467969
0.0127494
0.000455994
0.00047528
0.00571404
0.000463979
0.000462533
0.000461481
0.0155019
0.000825944
0.00814524
0.00678878
0.000765346
0.00117085