/*--------------------------------*- C++ -*----------------------------------*\
| =========                 |                                                 |
| \\      /  F ield         | OpenFOAM: The Open Source CFD Toolbox           |
|  \\    /   O peration     | Version:  v2012                                 |
|   \\  /    A nd           | Website:  www.openfoam.com                      |
|    \\/     M anipulation  |                                                 |
\*---------------------------------------------------------------------------*/
FoamFile
{
    version     2.0;
    format      ascii;
    class       surfaceScalarField;
    location    "250";
    object      phi;
}
// * * * * * * * * * * * * * * * * * * * * * * * * * * * * * * * * * * * * * //

dimensions      [0 3 -1 0 0 0 0];
oriented        oriented;


internalField   nonuniform List<scalar> 
20580
(
-0.124697
0.00565037
0.119047
0.124614
-0.245229
0.120615
0.255122
-0.130508
0.00402152
-0.000250873
-0.00377064
0.583847
-0.619755
0.0359077
0.258605
-0.183405
-0.0752007
-0.296333
0.0445822
0.575416
-0.578235
0.00281876
-0.0322312
0.0289272
0.00330394
0.423392
-0.246494
-0.176897
0.141336
0.00577737
-0.147114
-0.518703
0.312607
0.206096
-0.20768
0.285601
-0.0779215
0.0256205
-0.0112175
-0.014403
0.186878
-0.0351366
-0.151741
-0.1117
0.0996922
0.0120075
1.22443e-05
0.00136641
-0.00137865
-0.170517
0.354617
-0.184101
0.0929578
-0.101857
0.00889915
-0.11375
-0.0109467
0.0592819
-0.187082
0.1278
0.234027
-0.199345
-0.034682
0.0267847
-0.0586428
0.0318581
-0.584795
0.591841
-0.00704672
0.0783167
-0.0960681
0.0177514
0.00167168
0.112807
-0.114479
-0.0126621
-0.0672525
0.0799145
-0.0895691
0.0754058
0.0141633
-0.00910236
0.0407153
-0.0316129
0.483551
-0.323233
-0.160318
-0.0178996
0.00685036
0.0110492
-0.223465
-0.0728679
-0.112878
0.123059
-0.0101812
0.0486222
-0.0411994
-0.00742289
-0.153763
0.14549
0.00827299
-0.0310621
-0.00750604
0.0385681
-0.6152
0.0304059
0.000789274
-0.0684754
0.0676861
-0.0154743
0.0269327
-0.0114584
-0.129057
-0.16226
0.291318
-0.0263539
-0.00578889
0.0321427
-0.0423045
0.0332021
0.00840714
-0.00840714
0.093428
0.00486103
-0.098289
0.0386566
-0.0473672
0.00871064
0.449918
-0.277253
-0.172665
-0.535034
-0.0694273
-0.126832
0.0447949
0.0820373
-0.0485434
-0.211874
0.260418
-0.299344
0.0916647
-0.0113122
0.0109903
0.000321807
0.145175
-0.285199
0.140024
-0.100842
-0.0108579
-0.045972
-0.12629
0.172262
0.0236595
-0.00120448
-0.0224551
0.103851
-0.232908
0.00576408
-0.118642
-0.0342103
0.00785644
-0.0185517
0.0876831
-0.0691314
-0.0124796
0.0187095
-0.00622996
-0.354552
-0.164151
0.0735792
-0.0862413
-0.217957
-0.197156
0.415113
-0.192551
0.144008
-0.0412862
0.0952
-0.0539138
-0.0853818
0.0440957
-0.0159051
0.00342551
-0.0976921
0.067363
0.353648
-0.247291
-0.106357
-0.00300535
0.000854204
0.00215115
-0.0106413
0.00182177
0.00881951
0.161826
-0.179426
0.0176002
-0.0332655
-0.221497
0.254763
0.0178491
0.000860413
0.17605
-0.0159763
-0.160074
0.221709
-0.213747
-0.00796221
0.000333114
-0.00032087
0.342004
-0.525267
0.183263
0.0949418
-0.016625
0.449096
-0.216704
-0.232392
0.24432
0.109328
-0.102936
0.111875
-0.0089399
-0.0259604
-0.127803
-0.0182764
0.0232557
-0.00497932
0.0188253
-0.000976214
-0.00661782
0.0131201
-0.00650225
0.0683696
0.165657
0.0300763
-0.00519234
-0.024884
0.230355
0.146468
-0.376823
-0.0135902
-0.00430935
0.268433
-0.123258
-0.301085
0.0776204
-0.00536341
0.00536341
-0.010656
0.00403813
0.0151551
-0.0230858
0.0079307
0.0339148
0.0673435
-0.101258
0.14646
-0.35135
0.204889
-0.0906496
0.105245
-0.0145951
-0.0138502
0.0143303
-0.000480124
0.00905649
0.0987999
-0.107856
-0.108685
0.0180356
0.126355
-0.0483848
-0.0779698
0.0852823
-0.123772
0.0384894
-0.168616
-0.0805456
0.249162
-0.46838
0.131587
0.336792
0.1286
-0.167099
0.0384988
-0.164698
-0.303682
-0.00874189
-0.00189939
-0.0734299
-0.227655
-0.336163
0.165646
-0.0135604
0.154344
-0.140784
0.336127
0.113791
-0.0977698
0.109786
-0.0120163
0.0180887
0.106548
-0.124637
-0.112748
0.108801
0.00394733
0.162693
-0.208665
0.168574
-0.397683
0.229108
0.465398
0.110018
-0.00162096
0.00564248
-0.00876804
0.00576269
0.0666221
-0.104507
0.0378847
0.158452
-0.416978
0.258526
-0.275911
0.287839
-0.0119287
0.0180875
0.000864819
-0.0189524
0.081979
-0.107257
0.0252783
0.0286595
-0.0697595
0.0411
0.341771
-0.195311
0.0603694
0.0891542
-0.149524
0.0282938
0.00476468
-0.0330585
0.145468
0.0147153
-0.160183
-0.199919
0.000574209
-0.129149
0.183299
-0.0541501
-0.0758238
0.076613
0.0334895
0.0151327
0.00194602
0.13939
-0.00797638
0.0235321
-0.0155558
-0.0504926
0.0101128
0.00300724
-0.0126059
0.127731
-0.115125
-0.161938
0.0260736
0.135865
-0.101464
-0.00147134
0.252672
-0.231015
-0.0216569
-0.066621
0.296976
-0.0828139
0.0029878
0.0798261
-0.00355377
-0.0668636
0.0704173
-0.0401744
0.231657
-0.191482
0.513966
-0.171962
-0.00380559
0.0390809
-0.0314377
-0.00764318
-0.0602595
0.120629
-0.0534641
-0.0552211
-0.105611
0.00784155
-0.100489
0.118577
0.0966924
-0.0929067
-0.00378566
-0.21606
-0.021742
0.237802
0.12896
0.188972
-0.317932
0.309861
0.21397
-0.523831
-0.0231202
0.00764589
-0.18237
0.0873366
0.0950332
-0.0481518
0.206665
-0.158513
-0.416276
-0.164223
0.580499
0.0418254
-0.0368267
-0.00499873
0.155042
-0.0264415
-0.038771
-0.0880611
0.0127675
0.0128531
-0.0442926
0.00590731
0.0383853
-0.0352488
-0.00904385
-0.00949839
-0.00181376
0.153787
-0.167347
0.0658151
-0.0565457
-0.00926933
0.535012
-0.326938
-0.208075
0.437625
-0.269051
0.151113
-0.137665
-0.013448
0.549917
-0.110294
-0.439623
0.022865
-0.0077099
-0.0728589
-0.0157845
0.0886434
0.092649
-0.102975
0.0103257
0.255868
0.181758
0.180288
-0.164714
-0.0155738
0.107395
-0.014746
0.096819
-0.01484
0.127343
0.0116455
-0.175665
0.16402
0.17872
-0.0332521
-0.0043655
0.0043655
0.013673
0.0254079
0.0936267
0.029432
-0.0740728
-0.059751
0.133824
0.229625
0.00655388
-0.236179
-0.134738
-0.240306
0.375044
-0.0715795
0.0680258
-0.129263
-0.0531071
-0.0158511
0.00463358
0.128697
0.129908
-0.227106
0.186931
-0.0976626
0.111899
-0.0142367
0.115207
-0.0215804
0.200647
0.10263
-0.303277
0.127851
-0.311803
0.183952
-0.0116665
-0.0742991
0.0859657
0.11086
-0.105454
-0.00540534
0.010345
-0.0262344
0.0158894
0.0377657
-0.0282923
-0.00947338
0.0176773
0.169201
-0.010143
-0.0501057
0.0602487
-0.00939115
0.0197361
0.195786
-0.213661
0.017875
0.115429
-0.133085
0.0176558
0.0343041
-0.00928861
-0.0250155
0.19906
-0.00855633
-0.190504
-0.0987581
0.105182
-0.00642383
-0.243795
-0.0321155
0.00939566
-0.646359
0.396535
0.249824
-0.134416
0.156081
-0.0216648
-0.21363
0.180429
0.033201
-0.247296
-0.0520484
-0.00356065
0.0799638
-0.0764031
-0.173642
-0.138675
0.312317
-0.00188231
0.0259813
-0.201761
0.457629
0.114899
-0.106501
-0.00839753
-0.0211252
0.00284886
0.0253483
-0.0193964
-0.00595189
0.0353427
-0.141379
0.106036
0.138259
-0.0228306
0.668471
-0.366467
-0.302005
-0.0321515
-0.0506624
0.171872
-0.455364
0.283491
0.0110741
0.00833351
0.0097672
-0.0181007
0.0858269
-0.1599
-0.0361883
0.235248
-0.480669
0.221954
0.00663705
0.0311286
0.227471
0.25608
0.0830445
-0.0562599
0.0330647
-0.0254494
-0.0076153
-0.105122
0.114178
0.143149
-0.559425
-0.0497091
0.0868622
-0.0371531
-0.0181349
0.0216323
-0.00349743
-0.00703041
0.045687
0.000934137
0.174667
-0.174155
-0.000512333
0.0658746
-0.064125
-0.00174957
0.080847
-0.0844076
0.0256435
0.154644
0.103398
-0.0360544
0.155094
-0.155795
0.000701022
0.0034035
-0.0204153
0.0170118
-0.102934
0.110543
-0.00760909
-0.309203
0.645279
-0.336076
0.0573135
0.152295
-0.209608
0.00758208
0.0416472
0.000178186
-0.0196941
-0.00610397
0.0257981
-0.347199
0.212461
0.0532954
0.186301
0.154662
-0.340962
0.0945183
-0.093599
-0.000919364
0.103244
-0.0974646
-0.00577971
-0.0973824
0.154696
0.141746
0.0132961
-0.122834
0.0198998
-0.0929764
0.30195
-0.208974
0.0554875
0.070867
-0.126882
0.0373708
0.0895112
0.0944561
-0.0770936
-0.0173624
0.458814
-0.190746
-0.268067
-0.29418
0.0468838
0.12117
-0.0334903
0.0413039
-0.00781362
0.00930601
0.000534518
-0.00984053
0.148499
-0.0151063
-0.133393
0.386535
-0.228083
0.0902671
0.00655188
-0.0932876
0.0973418
-0.00405414
-0.093454
0.11373
-0.0202764
0.15358
-0.0118341
-0.0389427
0.00545244
-0.0157343
0.0154965
0.000237749
0.14432
-0.1919
0.0475806
-0.0979411
-0.0604692
0.15841
-0.0868452
0.0903414
-0.0034962
0.181956
0.167589
-0.349545
0.226782
0.295784
-0.522566
-0.108502
0.0150483
-0.0158367
0.136782
-0.120945
-0.458741
0.229677
0.229064
0.492157
0.131484
-0.623641
0.404899
-0.233027
-0.563842
0.57053
-0.00668761
-0.0162631
-0.151396
0.167659
0.536643
-0.027992
-0.0042392
-0.0883847
0.147667
0.150343
-0.287556
0.137212
0.0105852
0.021807
-0.00371946
0.0584342
0.214639
-0.273074
0.00114849
-0.0124574
0.000302537
0.0121549
0.0718543
0.180818
-0.18332
0.241754
-0.208379
0.119994
0.018128
-0.0186641
0.000536064
0.0293447
0.0106715
-0.0400162
0.153313
-0.0266023
-0.126711
0.461496
0.122351
0.062306
0.00350904
0.18046
0.138562
-0.143755
0.00519268
-0.0112684
-0.00118905
0.0864005
-0.0814855
-0.00491506
-0.251799
0.203647
-0.0932741
0.00642893
0.00326455
0.0804584
-0.083723
-0.00720354
0.0137939
-0.00659037
0.104063
-0.00288732
-0.101175
0.0451677
-0.113169
0.0680009
-0.0260903
0.0181139
0.0229063
-0.00192195
-0.0209843
-0.0278518
-0.0617173
0.313538
-0.185688
-3.12851e-06
0.00129109
-0.00128796
-0.0216399
0.0216399
0.00360124
-0.033887
0.0302857
-0.0405366
0.0441378
0.145837
0.0499494
0.154676
-0.0272688
-0.127407
0.0241183
-0.158913
0.134795
0.0130421
0.0170342
0.0536451
-0.114817
0.0611719
-0.215819
-0.300525
0.516344
-0.105621
-0.429413
-0.0515022
0.178554
-0.127052
0.00375967
-0.0109632
0.0294448
0.36946
-0.187504
0.00226258
0.0534159
0.112967
-0.166383
-0.17674
0.0475911
-0.0468075
0.253473
0.0187478
-0.000619762
0.0919819
-0.00171477
0.0110576
-0.012503
-0.201127
0.180272
-0.21646
-0.0413887
0.0365666
0.00482213
0.247319
-0.017694
0.00340472
-0.0618074
0.206127
-0.121504
-0.0868753
0.142201
-0.0887848
0.332768
0.289199
-0.138856
0.108207
-0.126174
0.0179666
-0.0133711
0.112171
-0.109361
0.113785
-0.00442399
-0.0725592
-0.031706
-0.00968272
0.190466
0.0411907
0.00477238
-0.101504
0.0916749
0.0098293
-0.192438
0.429536
-0.237098
0.089008
-0.00260746
-0.0998758
0.120396
-0.0205206
-0.0119924
-0.00185781
0.164609
-0.216111
-0.133508
0.0044707
-0.0870714
0.0685197
-0.0844932
0.0730809
0.0114123
0.110739
-0.115942
0.00520305
0.0286201
-0.0241665
-0.00445357
0.285511
-0.235315
-0.0501963
0.0162067
-0.0890656
0.000267301
0.00813984
0.0183814
-0.179614
0.161232
0.0198263
-0.0164228
-0.0288956
-0.148132
0.177028
-0.0373351
0.0102245
0.0271106
0.0817266
-0.179668
-0.0285654
-0.129785
0.110581
-0.109591
-0.000989687
0.0486437
-0.0864203
0.0377766
0.307583
-0.178623
0.232405
-0.151062
-0.0813437
0.0934406
-0.109277
0.0113361
-0.294428
-0.0236735
0.318101
-0.00750926
0.156008
-0.0446541
-0.00276149
0.0474156
-0.209879
0.176613
-0.0755055
-0.0575792
-0.00890585
0.0106284
-0.00172251
0.102897
-0.251405
0.148508
-0.0347191
0.107033
-0.0723138
-0.151199
0.148581
0.00261749
-0.0131146
0.0424593
0.186818
-0.195375
0.12954
-0.127868
-0.0721595
0.0620165
-0.00401299
0.15788
-0.151368
-0.00651119
-0.0309141
0.01122
0.000690419
-0.0893802
0.0396711
-0.279354
0.186377
0.110666
-0.00245878
0.150007
-0.175603
0.0255966
-0.124194
-0.00931418
0.41569
-0.20655
-0.20914
-0.00673745
0.00673745
-0.00732377
0.0451671
-0.0378433
-0.0810447
0.0859061
-0.00486144
-0.0554358
0.235708
-0.0122533
0.0807356
-0.0785337
-0.00220191
0.0095849
-0.000278884
0.481854
-0.212539
-0.269315
-0.00401903
0.0040159
-0.0988548
0.101092
-0.0022377
-0.0225613
-0.0160343
0.0385956
0.16544
-0.0103464
-0.0143631
-0.0718211
0.0861842
-0.0402874
-0.237933
0.27822
0.567752
-0.0178349
0.000174112
0.0234854
0.0847958
-0.00632434
-0.0784714
0.145687
0.277705
-0.204743
-0.0404863
-0.132857
0.0573513
-0.156791
0.459205
-0.302414
-0.0495623
0.0422385
0.0334234
0.121252
-0.118791
0.0189152
-0.218756
0.216122
0.00263451
0.0121364
0.273375
-0.331124
0.251598
0.0795255
-0.0715291
-0.0129641
-0.0778506
-0.209705
-0.0302318
-0.300892
0.0164839
-0.0675073
0.0510234
-0.0490445
0.00439045
-0.166764
-0.0331549
0.0163343
-0.0881873
0.071853
0.216734
-0.434691
0.515212
-0.219428
0.269294
-0.166397
0.00118271
0.126198
-0.141868
0.0156704
-0.326676
0.0299694
0.296706
-0.312174
0.21128
0.100894
-0.0404653
0.107087
-0.119406
0.293473
-0.174067
-0.0577632
0.0433521
0.014411
-0.171088
-0.378841
0.549929
-0.152129
-0.0559228
0.208052
-0.0247807
-0.0225865
0.00193753
-0.0951783
0.0932408
0.429133
-0.606266
0.177133
0.498277
-0.200139
-0.298138
-0.193964
-0.0247923
0.317077
-0.123091
-0.193986
0.0790153
-0.10022
0.0212046
-0.0649637
0.0581114
0.0068523
0.187221
-0.0125534
-0.0130187
-0.0373429
0.0503615
0.213858
0.266658
-0.485878
0.21922
-0.0223511
0.0320095
-0.00965843
-0.0707371
-0.160542
0.0857584
0.0747835
-0.300273
0.272793
0.0274802
0.0237711
-0.128173
0.115567
0.0740341
-0.0261532
-0.0478809
-0.237534
0.068918
-0.165108
0.00062456
0.164484
-0.0154345
-0.19197
0.168253
0.0237175
-0.0287443
0.0268224
0.0869466
-0.00621102
-0.0857513
0.00470664
-0.234579
0.0819609
0.152618
-0.00154861
-0.159018
-0.150227
0.309244
0.0038886
-0.13523
-0.0159687
0.0398989
0.0753082
0.17486
-0.0248532
0.209206
-0.112926
0.114864
0.123844
-0.446102
-0.173653
-0.00876224
0.00778633
0.000975912
0.00686434
-0.0292154
-0.0182244
-0.0395388
-0.00743766
-0.000682467
0.00812013
-0.0484798
-0.00558506
0.0076094
-0.00202434
-0.000122806
0.151682
-0.0287485
-0.122934
0.577232
-0.305406
-0.271826
0.0572406
-0.0919597
0.148093
-0.394587
-0.373738
0.0793105
0.0194076
-0.140412
0.121004
-0.0171977
0.025473
-0.00827532
-0.0585024
-0.183625
0.242127
0.206126
-0.229598
0.0234713
-0.142672
0.0950577
0.0476142
-0.143485
0.010683
0.132802
0.396644
-0.181585
-0.215059
-0.0400257
-0.0277778
0.0678035
0.45998
-0.286184
-0.173796
0.0344121
-0.0296726
-0.00473943
0.0907775
-0.0117622
0.166264
0.282832
-0.295958
0.204293
0.0916649
0.0984062
-0.0974329
-0.000973264
0.0129706
-0.23127
0.069435
-0.0894654
0.0200304
-0.0363018
0.0935425
-0.143442
0.35575
-0.212308
0.0221064
-0.014445
-0.00766142
-0.00713726
0.100095
0.10195
-0.100481
-0.00146833
-0.0481205
-0.186458
-0.010683
-0.0568244
0.016987
-0.00266807
-0.0143189
-0.336651
0.193209
-0.00794619
-0.0763215
0.0842676
0.368208
-0.176759
-0.191449
0.10863
-0.0626203
0.0705625
-0.00794222
-0.020493
-0.0168421
0.18772
-0.165514
-0.0222061
0.141062
-0.0148647
0.231384
-0.405887
0.174503
0.119095
-0.118208
-0.000886591
0.0333936
-0.00509977
-0.0170697
0.0229558
-0.00588612
-0.256132
0.394214
-0.138082
0.000988866
-0.00153606
0.000547194
-0.350349
0.120917
-0.00921961
0.161335
-0.158666
-0.00266873
0.334557
0.147297
-0.0744174
-0.139329
-0.0165436
0.0203965
-0.00385295
0.109282
-0.0606383
0.0055628
0.201807
-0.260309
-0.174686
0.329348
-0.0304524
0.0378877
-0.0074353
0.144952
0.406347
-0.551299
-0.106376
-0.00642098
0.112797
-0.177385
0.240619
-0.0632339
0.177805
-0.164168
-0.0136371
0.185124
-0.0349474
-0.150177
-0.0393735
0.0464443
-0.00707071
-0.014063
-0.00167131
0.0879375
-0.223774
0.135837
0.00509545
-0.00482815
0.0864363
0.179105
-0.265541
0.000459934
0.123489
-0.123949
-0.0328112
-0.00949334
0.0233597
-0.0245642
0.281548
-0.315739
0.034191
0.142933
-0.00882622
0.0941085
0.01871
0.00168652
0.00782203
-0.0857145
0.0778925
-0.014033
0.133128
0.0923152
-0.0182811
0.183619
-0.0222843
-0.0726743
0.154401
-0.0231898
0.0315233
0.0618936
-0.00870047
-0.0531932
-0.0656242
0.125874
-0.0602497
0.0301126
0.00429945
-0.0759935
0.0909751
-0.0149816
0.00521075
0.034903
-0.0401138
0.308398
-0.207102
-0.101295
0.0797604
0.00792276
0.0719716
-0.0863348
0.516041
-0.245487
-0.270554
-0.00428827
-0.00107514
0.0526084
-0.0156629
-0.0369454
0.165433
0.0167814
0.30995
-0.134002
-0.175948
-0.052126
0.0391073
-0.114397
0.122988
-0.00859144
-0.0443439
0.0674636
-0.0231197
-0.261725
0.183875
0.60324
-0.0569509
-0.54629
-0.0978001
0.131842
-0.0340423
-0.125771
-0.0177143
-0.503017
0.331929
0.00566724
0.503155
0.100085
-0.094693
0.0186996
0.223729
-0.21651
-0.0072189
0.00644966
-0.130644
-0.254665
0.174119
0.210321
0.186323
-0.127945
-0.00981636
0.137761
0.00023462
0.000754247
0.167297
-0.144046
-0.0232516
0.0041357
0.0181907
-0.286166
0.48231
-0.196144
-0.417687
0.0163258
0.401361
0.00412997
-0.141795
-0.146793
-0.165381
-0.0952078
0.119243
-0.0240348
-0.260808
0.173249
0.0875586
-0.116897
-0.0436452
0.0835233
-0.00376289
0.325068
-0.558011
0.232943
-0.0212303
0.024134
-0.00290361
0.311009
0.357462
-0.10787
0.0954005
0.0124693
0.00512947
-3.40194e-05
-0.0340198
-0.00543489
0.0394547
0.0182515
0.0207973
-0.0651412
-0.0577776
-0.0848944
0.0995052
-0.109704
0.0101986
0.0434485
0.00915988
0.227752
-0.376827
0.149075
-0.0617932
0.0217675
0.137086
-0.148508
0.166889
0.000522608
-0.00796027
0.00623644
0.0766265
-0.082863
-0.349616
0.157178
-0.118881
0.0236733
-0.105311
0.305958
-0.0323846
0.0375954
0.00931866
-0.00114479
-0.00817387
0.0158305
0.191857
-0.207687
0.0556965
-0.041208
-0.0070026
0.0482106
0.618636
-0.333169
-0.285467
0.384594
0.234042
0.127187
-0.0143797
-0.0237555
0.00252514
-0.0585457
0.0681766
-0.00963093
-0.21981
0.0364898
0.11466
-0.104988
-0.00967257
0.158524
-0.27793
0.319103
-0.382793
0.0636905
0.0678212
-0.0826547
0.0148335
0.00506909
0.131401
-0.096185
-0.0352155
0.163504
0.311216
-0.47472
-0.0609004
-0.0659816
0.0965494
0.0371383
-0.133688
0.0204283
-0.133096
0.112668
-0.26759
0.0858987
0.181691
-0.195812
-0.0312939
-0.124653
0.0102558
-0.179735
0.0819351
-0.123322
0.0845512
0.0133988
0.148427
-0.122403
-0.0570228
-0.122971
0.0573472
-0.0948086
0.0686554
-0.0289745
-0.0728824
0.0387475
-0.0526804
0.0139329
-0.0165149
0.0859499
-0.0747429
0.0212788
0.0208096
0.00153069
-0.0223403
-0.0305809
-0.0997219
0.130303
0.00779975
-0.07042
-0.0045518
0.152638
0.187018
-0.339656
0.103866
-0.17654
-0.112447
0.0834727
-0.0168134
0.183952
-0.167139
0.219782
-0.436486
-0.451531
0.245962
0.205569
0.111157
-0.101234
-0.00992278
0.0036202
0.0249999
-0.202999
0.0508695
-0.0309977
0.00554837
0.189113
-0.47528
0.0104548
-0.0690004
-0.0452769
0.103018
-0.0577414
-0.012479
0.00121064
-0.0815093
-0.0373719
-0.017936
0.204754
0.100361
0.154761
-0.00257154
-0.00990746
0.0690666
0.0623339
-0.146741
0.116161
0.00626212
-0.313645
0.325781
-0.0918782
0.0961552
-0.00427699
0.00328735
-0.0633522
-0.0313408
0.180788
-0.0285407
-0.152247
0.1024
-0.10666
0.00426024
-0.25199
0.211703
-0.33535
-0.0304859
-0.183176
0.340497
-0.0213944
0.0405181
-0.00916622
-0.0313519
-0.412194
-0.151648
0.0832756
-0.0154544
0.0108515
-0.115879
0.0343696
-0.0173928
0.0248592
-0.00746644
0.00573481
0.00859549
-0.0938444
0.0304922
-0.00647849
0.105984
0.169692
-0.151441
0.136679
-0.237398
-0.0567818
0.0240184
0.336619
-0.360637
-0.000880823
-0.416806
0.392861
0.141622
-0.125356
-0.0162662
-0.023452
-0.0819357
0.105388
0.106341
-0.00979187
-0.00731509
0.0827208
-0.245004
0.0140499
0.230954
0.00631215
0.486977
0.110038
-0.00151186
0.00126099
0.0129674
-0.14196
0.128992
0.0436216
0.443356
0.23287
0.246593
-0.479463
-0.0311189
0.0400065
-0.00888769
0.0314176
-0.214822
0.0294665
0.0299283
-0.0593948
0.044764
-0.0013155
0.11341
0.0923658
-0.120539
0.0281731
-0.233161
-0.146737
0.379898
7.52236e-06
-0.0412069
0.000388705
0.160067
-0.160456
0.0573891
-0.241014
0.000868534
0.342782
0.181285
-0.524067
0.0237263
-0.254742
-0.153484
-0.18314
0.336625
-0.0152704
0.142988
-0.127718
-0.020487
0.0215001
-0.00101315
0.0300403
-0.190907
0.160867
-0.169863
0.171476
-0.00161264
-0.112653
0.0137987
-0.0233379
0.00626817
-0.176564
0.116813
0.0116633
0.139607
-0.15127
0.0404766
-0.00592634
-0.0345503
-0.355637
0.379655
0.0329706
-0.328636
-0.192477
0.521114
0.0464343
0.247039
-0.0758165
-0.0131888
0.0890053
-0.0765224
0.114745
-0.038223
-0.0130351
-0.0997129
0.110798
-0.00877064
-0.102028
0.0159291
-0.539472
0.314959
0.224513
0.377337
0.219678
0.11445
-0.11399
0.232373
0.0760249
-0.119251
-0.42022
0.197693
-0.219196
0.0215038
0.105739
0.00258068
-0.10832
-0.398796
0.43418
-0.0353845
0.0980533
-0.103943
0.00588938
0.0151547
-0.0613244
0.0475978
0.0137266
-0.00299127
0.11379
0.00516421
0.0127086
-0.0178728
-0.00289008
0.130621
0.479461
0.118641
-0.111095
-0.0075466
-0.516311
0.236875
0.279436
0.136685
0.0957204
-0.0143949
0.0531424
0.0366903
-0.00012376
0.000100423
-0.0431751
0.0372488
-0.177152
0.301426
-0.124274
-0.192527
0.208358
0.123733
-0.07721
-0.0465226
0.224986
-0.20788
-0.017106
-0.187078
-0.192478
0.379556
-0.0196385
-0.0390043
0.0936342
0.000884158
0.000929283
0.0195823
-0.0205116
-0.0185552
-0.114563
0.0380407
-0.347712
0.305811
0.0419018
0.00767056
-0.330904
0.0956702
-0.0596528
-0.0360174
-0.0800804
-0.0387106
0.248241
0.490261
0.136387
-0.626648
0.0306035
0.0781971
0.100645
-0.00214859
-0.0984967
-0.0207732
-0.254722
0.0386624
-0.628505
0.362421
0.266084
-0.0227781
0.00229114
-0.254725
-0.0128653
-0.0169563
-0.15529
0.172247
0.358402
-0.515192
-0.0200315
0.026689
-0.00665743
-0.477269
0.168066
-0.00424056
-0.00058759
-0.282991
-0.121464
0.404455
0.00354321
-0.108665
0.174781
-0.151551
-0.0232299
0.136229
-0.0762411
-0.0599882
0.0109247
-0.313965
0.092468
-0.259188
0.149895
0.109293
0.597043
-0.346694
-0.250349
-0.014638
-0.0674533
0.0820913
0.074169
-0.242109
0.16794
-0.0312241
0.0251201
-0.0477505
0.252634
-0.204884
-0.0869181
0.0266673
0.0602508
-0.00689481
-0.0272004
0.0340952
0.017899
-0.172328
0.154429
-0.159238
0.411435
-0.252197
-0.000870397
-0.00601046
0.00688085
-0.0500663
-0.00907408
0.0591404
0.222248
-0.13431
0.0919198
0.0228256
0.044242
-0.28164
-0.0277428
0.000864313
0.0268785
0.323739
-0.171101
-0.0588111
-0.0536361
0.473743
-0.224835
-0.248908
0.426794
0.170249
0.0630728
-0.0336063
0.0109694
0.288849
0.209428
-0.179995
0.0537048
-0.00766166
-0.0221939
0.0298555
-0.0546345
0.0707869
-0.0161524
-0.0520588
0.0108508
-0.130834
-0.216366
-0.00328565
0.0240952
0.115728
0.343086
-0.60616
0.207364
-0.230022
0.20828
-0.4036
0.297979
0.286691
-0.550526
0.263835
0.0506382
-0.011786
-0.0388522
0.054731
-0.011861
-0.04287
-0.274437
0.100795
-0.434847
0.534932
0.140446
0.0472737
0.0692858
0.266841
-0.000805486
-6.49115e-05
0.00269884
-0.0128723
-0.0180684
-0.00802187
-0.177179
-0.0820097
-0.0859515
0.24907
0.266971
-0.0269425
-0.16014
0.0663093
-0.111586
-0.140803
0.368555
0.186213
-0.514849
-0.0950727
0.0946494
0.000423386
0.003617
0.00570166
0.118644
-0.0262786
-0.0029991
0.149642
-0.0232378
-0.126404
-0.410071
0.212915
0.15439
-0.00970992
-0.14468
0.115991
-0.0240712
-0.00249469
0.00216077
0.000333913
0.152106
-0.168369
0.0638238
0.00448574
-0.0683095
-0.11413
0.03405
0.0617145
0.430443
0.0359091
0.00691551
-0.0428246
-0.00560615
0.0415152
0.00236163
0.021895
-0.0242567
-0.0653431
-0.0575048
0.0663404
-0.00883561
-0.0987695
0.18073
0.0624484
0.00342616
-0.0167536
0.0821881
-0.0654345
-0.191505
0.174691
-0.582456
0.366637
-0.0490366
0.049204
-0.000167375
-0.235523
0.222039
0.0134835
-0.475898
0.31666
0.034413
0.247135
-0.217275
-0.0182474
0.00544151
-0.100044
0.224225
-0.381412
0.157187
0.00812691
0.146263
-0.0169869
-0.00413832
-0.122189
-0.118282
0.240471
-0.000122873
0.00448838
0.0796907
-0.222561
0.14287
0.000632919
0.104141
-0.104774
0.00801051
0.0213195
-0.02933
-0.289047
0.0768976
-0.0690756
-0.218441
0.115047
0.103394
0.173838
-0.155939
-0.0714879
0.0168534
-0.0229653
-0.0914664
-0.00704484
0.0985113
0.149968
0.0264019
-0.0340636
-0.158026
0.317932
-0.159906
0.00253994
-0.026159
0.023619
-0.0210649
-0.158549
0.0226148
-0.00422523
-0.0183896
0.00527082
-0.00537321
0.00010239
0.0242856
-0.0217457
-0.00185911
0.128529
-0.12667
-0.143999
-0.156512
0.300511
0.120402
-0.297554
-0.324351
0.657683
-0.333331
-0.170338
0.419524
-0.109568
-0.309957
-0.0239797
-0.159911
-0.0157546
0.0235573
-0.156208
0.132651
-0.0553521
-0.121212
0.117859
-0.216629
-0.366512
0.235678
0.00396568
-0.187877
0.183911
-0.17207
0.168677
0.00339273
-0.147234
-0.148724
-0.121614
0.189983
0.0312697
0.00899926
-0.040269
-0.0106858
-0.0702357
0.0809214
0.0233168
0.163912
-0.187229
-0.134097
-0.00854593
0.142643
-0.0418631
-0.00717349
0.229853
0.00917974
0.00461417
-0.55774
0.202103
0.143784
-0.00332123
-0.140462
-0.135663
0.209832
-0.190446
0.353562
-0.163117
0.115122
-0.139086
0.0239634
-0.157859
0.424517
-0.148212
0.372437
-0.0627142
0.107882
-0.0930504
0.282023
0.100262
0.00547729
-0.297576
0.150783
0.00428827
-0.000847237
-0.00344103
-0.0800941
0.088878
-0.00878396
0.00750913
-0.0894112
0.0819021
0.0747474
-0.0826936
0.133363
-0.325249
0.191886
0.00556305
-0.108264
0.103812
0.00445249
0.528018
0.0118829
-0.0231385
-0.206459
-0.00663297
0.0158127
0.210803
-0.209628
-0.0011754
-0.0682841
0.0671242
0.0218838
-0.0100811
0.00117526
-0.122181
0.0932762
0.0289052
0.123846
0.188423
-0.312269
-0.046404
-0.0163664
0.0834907
0.0130577
-0.105281
-0.11316
0.32163
0.160681
-0.257518
0.385035
-0.127516
0.061189
0.0921243
0.25518
-0.306204
0.0510242
-0.000238357
0.0172254
0.00428988
0.278626
0.298606
-0.0409861
-0.0605181
-0.0965844
0.0181328
0.0784516
-0.302514
0.14903
-0.010677
0.0419467
-0.00255456
-0.00168601
0.100631
-0.00699642
-0.213087
0.165336
0.00819275
0.0382515
0.145752
-0.161087
0.477552
-0.316465
0.0196289
-0.0186996
-0.132298
0.143961
0.374504
-0.258795
-0.115709
0.424313
-0.180896
-0.243417
-0.185636
0.169659
-0.1606
0.139098
0.0215025
0.0270636
-0.0363522
-0.00153634
-0.0120539
0.0172617
0.133282
-0.150543
0.0377633
-0.00465418
-0.0331092
0.064222
-0.210394
0.146172
0.164918
0.158884
-0.323802
-0.0896013
0.0420718
0.0475295
-0.236677
-0.214853
-0.00187885
-0.0822287
0.0841075
-0.396934
0.591638
-0.245742
-0.345896
0.131716
0.0781566
-0.209873
-0.0812721
0.0103111
-0.0349355
0.0246244
-0.0242346
-0.0035082
-0.0795782
0.0882689
-0.00869077
-0.00248735
0.0142996
-0.0118122
-0.0136585
0.0538853
-0.0402267
0.122451
0.0292318
-0.0922172
-0.208056
-0.149196
-0.14838
0.020409
0.136695
0.497853
0.0361578
-0.534011
0.14468
-0.131713
0.0191252
-0.0284812
-0.0541718
-0.113538
0.542671
-0.0994016
0.140637
-0.0412359
-0.00412761
-0.0969566
0.104238
-0.00728152
-0.00299682
-0.00541032
0.122589
-0.0990264
0.433583
-0.165362
0.0927329
-0.0836695
-0.00906338
0.0210422
0.17665
-0.00537576
-0.0276827
0.0291745
-0.300592
-0.327914
0.14057
0.233934
0.44125
-0.271958
-0.169292
0.220125
-0.0396964
0.0904975
-0.0905325
3.50637e-05
-0.00585091
0.0407539
0.00597135
-0.0370902
0.0572434
0.112449
0.313972
-0.471831
0.00641795
0.0897372
0.226458
0.0906187
0.0131671
-0.0849882
-0.017832
0.0151639
0.134528
-0.11512
-0.00139482
-0.000141245
0.00770694
0.0114338
-0.00626958
0.0149525
0.113126
-0.128079
-0.0225546
0.17466
-0.0255169
0.0222313
0.183393
-0.160076
0.0744196
0.0927221
-0.167142
0.0878556
0.035877
-0.0116505
0.333213
-0.143733
-0.18948
0.0500538
0.020733
0.325791
-0.160873
-0.042397
-0.0102448
0.0526418
0.00698163
-0.374027
-0.183713
0.175608
0.147201
-0.0320788
0.0975179
0.000888223
0.176417
-0.13813
-0.0382871
-0.34415
0.551378
-0.207229
0.0261364
-0.203522
-0.175274
0.215005
-0.0397314
-0.115089
-0.116109
0.231197
0.0212511
0.0514232
-0.0726743
0.279359
-0.458593
0.179234
0.00661077
-0.056677
0.0237014
-0.0213398
0.179438
0.146353
-0.176563
0.154008
-0.0251226
-0.135478
-0.487859
0.242372
0.0393944
-0.0027041
-0.0180197
0.00679081
0.026386
0.00441457
-0.0308006
0.20936
0.243474
-0.452833
0.0287716
-0.209169
0.180398
0.0208131
0.169742
-0.190555
-0.221819
-0.0246753
0.246494
-0.0949688
0.014907
0.0800617
0.0250217
0.380742
-0.598517
0.217774
-0.0110829
0.1103
-0.0992173
-0.133106
-0.0466294
-0.0716563
0.0163399
0.0553164
0.147838
0.00176085
0.0395221
-0.214796
-0.21964
0.0512508
0.168389
0.0921344
0.11233
-0.0117704
-0.100559
0.11196
-0.232683
0.367667
-0.134984
0.0164476
-0.0236397
0.00512515
0.0185145
-0.0497514
0.0271901
0.00144566
-0.00703072
-0.0523488
0.00995171
0.00251455
0.0179361
0.00467867
0.366416
-0.19296
-0.173456
-0.33815
0.163464
0.180824
0.116551
-0.297375
-0.0110167
-0.0746978
-0.107678
-0.0341898
-0.110332
-0.00745804
0.00670909
0.000748952
-0.316052
0.158026
0.185003
0.336268
-0.521271
0.379477
-0.0111422
-0.0779829
0.300592
0.213374
0.131488
-0.206643
0.0751558
0.100109
0.0903571
0.0724393
-0.0548566
-0.0175827
-0.111999
0.216436
-0.104437
-0.334597
-0.181714
-0.448039
0.257293
-0.142419
0.329171
-0.186751
0.185838
-0.620685
0.123257
-0.115216
-0.00804152
-0.0802977
-0.014671
-0.0477728
0.122192
-0.0575649
0.00827034
0.0492945
-0.200519
0.346606
-0.146087
0.155066
0.00372095
-0.0368887
0.0299939
-0.0247441
0.000577566
0.0722433
-0.00573608
-0.0665073
0.0667247
0.0413569
-0.108082
0.0574936
0.0340548
0.42515
-0.129854
0.110991
0.0188634
0.0229335
-0.242573
-0.425186
0.142195
-0.18253
0.195251
-0.0127209
-0.00126347
0.110618
-0.27959
0.168972
0.110026
0.00230394
-0.0698134
0.0679345
0.294817
-0.192186
-0.302734
0.112289
-0.160836
0.126702
0.0341338
-0.00334697
0.366468
0.206008
-0.572477
0.0274177
0.0450216
-0.124098
0.304922
0.0769404
-0.0879572
0.463457
-0.230587
-0.0973011
-0.177136
0.0711862
-0.0681057
-0.0267862
0.0948919
0.056558
0.229043
0.0125107
-0.0797632
-0.00658303
-0.00215886
-0.0898271
-0.0442937
0.0107321
0.0335616
-0.344624
0.106692
-0.00120675
-0.00128794
-0.0796425
0.0628889
-0.394226
0.300165
0.094061
-0.000408936
-0.0832606
0.0255008
-0.107358
0.0795335
0.0278247
-0.223468
-0.192706
-0.112559
0.305265
0.43063
-0.441199
0.0105686
0.308804
0.253616
-0.0479477
-0.205669
-0.139281
0.143605
-0.00432475
-0.109656
-0.012209
0.121865
-0.182486
0.306332
-0.215596
0.43233
-0.106218
0.0319187
-0.241156
0.418293
-0.177137
-0.0641841
0.0438915
0.0202926
-0.177404
0.0177312
-0.000362094
0.0171067
-0.0167446
0.0678401
-0.0956919
0.250321
-0.473875
0.223554
0.0100981
0.244748
-0.531686
0.286939
0.185836
-0.023143
0.114836
-0.124974
0.0101377
0.0824584
-0.0102151
0.126477
-0.128336
0.336103
-0.593515
0.257412
0.110682
-0.0211713
-0.0901148
0.0373997
0.0527151
0.104065
-0.103432
0.0195691
-0.0961557
0.0765866
0.134478
-0.103318
-0.0311596
0.0990079
-0.12246
-0.080382
-0.0378264
0.126567
-0.00568893
-0.120878
0.0796162
-0.191615
0.22388
0.19181
0.0629318
0.000141038
0.0046179
-0.0429895
0.212661
-0.169672
-0.425463
0.264376
-0.0051093
-0.00162816
0.293337
0.19871
-0.492047