/*--------------------------------*- C++ -*----------------------------------*\
| =========                 |                                                 |
| \\      /  F ield         | OpenFOAM: The Open Source CFD Toolbox           |
|  \\    /   O peration     | Version:  v2012                                 |
|   \\  /    A nd           | Website:  www.openfoam.com                      |
|    \\/     M anipulation  |                                                 |
\*---------------------------------------------------------------------------*/
FoamFile
{
    version     2.0;
    format      ascii;
    class       volScalarField;
    location    "350";
    object      nut;
}
// * * * * * * * * * * * * * * * * * * * * * * * * * * * * * * * * * * * * * //

dimensions      [0 2 -1 0 0 0 0];


internalField   nonuniform List<scalar> 
14315
(
0.000437685
0.0043169
0.000444218
0.000452105
0.000452116
0.000448872
0.000433406
0.000447958
0.0048901
0.000440605
0.000439372
0.000454059
0.000704879
0.000450379
0.000433383
0.000446717
0.000446182
0.00152632
0.000438859
0.000446701
0.000461046
0.000445427
0.000446184
0.000439525
0.0037094
0.000450455
0.000484905
0.000440667
0.000702254
0.000433331
0.000461342
0.000433972
0.0171335
0.000465224
0.000449356
0.000433891
0.0004372
0.000449028
0.000449997
0.000450438
0.00458028
0.000448692
0.000454645
0.000489334
0.000485302
0.000452749
0.00044407
0.000440232
0.00044697
0.00045424
0.000437096
0.000483984
0.000433526
0.000438808
0.000433711
0.000449274
0.00061766
0.000439441
0.000450309
0.00432413
0.000438744
0.000452685
0.000458207
0.000435636
0.000444323
0.000442295
0.000444571
0.000460935
0.000449344
0.000433836
0.000437327
0.000435648
0.000436423
0.000448124
0.000445807
0.000449042
0.000435717
0.000457636
0.000433811
0.000497468
0.000453357
0.0218249
0.000446914
0.000435774
0.000433651
0.00796672
0.00048475
0.0004365
0.000436655
0.000437515
0.000466213
0.00134999
0.000654508
0.000452676
0.000455099
0.000452158
0.00043351
0.000431756
0.00045187
0.000448686
0.000449539
0.000467216
0.000450768
0.000452916
0.000436612
0.000444984
0.000450346
0.00045576
0.000450141
0.000472813
0.000458739
0.000472455
0.000449909
0.000549406
0.000445614
0.000480223
0.000456317
0.000449408
0.00549544
0.0257016
0.0004402
0.000446242
0.000438759
0.000465365
0.000548957
0.000444274
0.0194634
0.000440836
0.000444457
0.000449906
0.000468001
0.00379396
0.018917
0.0311483
0.000449221
0.000444391
0.00113657
0.000537567
0.00237191
0.0164546
0.000490307
0.00055287
0.00043338
0.00350753
0.00563302
0.000447942
0.000449595
0.000439275
0.000465373
0.000472247
0.000449495
0.000426755
0.000435686
0.000476347
0.000434162
0.000449912
0.000450969
0.000447055
0.000525343
0.000492551
0.000453309
0.000450309
0.0143299
0.000465457
0.000447266
0.00933751
0.000452135
0.000453021
0.000450568
0.000448945
0.00547994
0.00147938
0.000462166
0.000454337
0.0004692
0.0161274
0.000452545
0.000444227
0.000473602
0.000503086
0.0201546
0.000465196
0.00044941
0.000457711
0.000460325
0.0193746
0.000459692
0.000459205
0.000444318
0.000465363
0.000448587
0.0182303
0.000628233
0.000426387
0.000431645
0.00045028
0.0305604
0.000450227
0.000453435
0.000466631
0.0198525
0.000450457
0.000482574
0.000447967
0.000452099
0.000444387
0.000448474
0.000490115
0.000433134
0.000426559
0.000444018
0.00044816
0.000503184
0.000452952
0.0156395
0.000454223
0.000537392
0.000449952
0.000449297
0.000459597
0.000685826
0.000449155
0.00128916
0.0163017
0.000457191
0.000452381
0.000456258
0.000464018
0.000438657
0.000453231
0.000450359
0.00365776
0.000443891
0.000487683
0.000451069
0.000454384
0.000483665
0.000453372
0.000451817
0.00132523
0.0101158
0.000460616
0.000442374
0.0129406
0.00069485
0.000432936
0.0115461
0.00043395
0.000438482
0.000441967
0.000451107
0.000437565
0.000310412
0.000437166
0.000448485
0.00315637
0.00348534
0.00049058
0.00446814
0.00044784
0.000456507
0.000451457
0.000454192
0.000592439
0.000454858
0.000517247
0.000462165
0.0225001
0.000459834
0.000460457
0.000454573
0.000451266
0.000447696
0.000432768
0.000460677
0.000433657
0.000539579
0.000426767
0.000453089
0.000459165
0.000445537
0.000465458
0.000446572
0.000459512
0.000451701
0.00518879
0.00238221
0.000454605
0.000432549
0.00043782
0.0005119
0.000450486
0.000465208
0.000547237
0.000433205
0.000450415
0.000433851
0.00395179
0.000449372
0.0263022
0.000467756
0.000450087
0.000450144
0.000455316
0.000452197
0.000435695
0.00045343
0.000467744
0.000454711
0.000458489
0.000431944
0.000432065
0.000461105
0.000469939
0.000458235
0.00452376
0.0265467
0.000456934
0.000461635
0.00234382
0.00045144
0.000448846
5.82154e-05
0.000449448
0.000437327
0.000455131
0.000547088
0.00044426
0.0302097
0.000433886
0.00353048
0.000713396
0.000889412
0.00168439
0.00511515
0.000440348
0.000494843
0.000453406
0.000621433
0.000450159
0.000460058
0.00497892
0.00158334
0.000446398
0.000440405
0.00209927
0.0132577
0.00483052
0.000437101
0.000450138
0.00462675
0.00171312
0.000449451
0.000432719
0.000459389
0.000490544
0.000460503
0.00171673
0.0035778
0.000433995
0.000459116
0.0139391
0.000433183
0.000436478
0.000433166
0.000454514
0.000469575
0.000451529
0.000453917
0.000444227
0.000630029
0.00389256
0.000458104
0.00475269
0.000464044
0.000446742
0.000662779
0.00485343
0.000460931
0.000438126
0.000462336
0.000446756
0.000545734
0.000448964
0.000432813
0.00047382
0.000622922
0.000453116
0.00408762
0.00048997
0.000197862
0.000460428
0.000436149
0.000464422
0.000449449
0.000466029
0.000445724
0.000454324
0.00044946
0.000458452
0.000436595
0.000444932
0.000718193
0.000453283
0.00509154
0.00135337
0.00257143
0.000472236
0.000470337
0.000460453
0.000433095
0.00044687
0.000440071
0.00313639
0.000463645
0.000460129
0.000462345
0.000477679
0.000453048
0.0248572
0.00062622
0.00439965
0.000501235
0.000450014
0.00042668
0.00046038
0.000467902
0.000448368
0.000438253
0.00445839
0.000717234
0.000446536
0.000444378
0.000511542
0.000450545
0.000433213
0.00475779
0.000516682
0.000466312
0.00044912
0.000532121
0.000433103
0.000450351
0.000739293
0.00133891
0.000509137
0.000433144
0.000432873
0.000439389
0.000445166
0.00044852
0.000444278
0.0241201
0.0278562
0.000432987
0.00781666
0.000426602
0.000460661
0.000455297
0.000461259
0.0202546
0.000466607
0.000490543
0.00468216
0.000536726
0.000426769
0.00114632
0.00363761
0.000461851
0.000438534
0.000503875
0.000460338
0.000448247
0.000451236
0.000441745
0.000455684
0.000490806
0.0255724
0.000450324
0.000438812
0.000455226
0.000455332
0.0251687
0.000456841
0.000453192
0.0237459
0.00050579
0.000446418
0.00352166
0.000454019
0.00387202
0.000474067
0.000444599
0.000458452
0.00151793
0.000470748
0.000533837
0.000447745
0.000454189
0.000469771
0.00708465
0.000437105
0.0175348
0.000444137
0.000697249
0.000437663
0.000426568
0.000446904
0.000455039
0.00043576
0.000512111
0.000449326
0.0004516
0.0327937
0.00044293
0.000468215
0.000460599
0.000827594
0.00043754
0.000561628
0.000437716
0.0256863
0.00059315
0.0010913
0.0043496
0.000453553
0.000458266
0.000481967
0.00358532
0.000507248
0.000455499
0.000156684
0.000448916
0.000437195
0.000444343
0.000446603
0.000456199
0.000431924
0.000510221
0.000432016
0.000452495
0.00426696
0.0128814
0.000435701
0.000444283
0.000435586
0.00044006
0.000449183
0.00509111
0.000444449
0.000443245
0.000445096
0.000453044
0.00044431
0.000492598
0.000449818
0.000446892
0.000458609
0.000446571
0.000444103
0.000452077
0.000614095
0.000465549
0.00315022
0.00139081
0.000447614
0.000450215
0.000475167
0.0217675
0.000457624
0.000443324
0.000485606
0.000459999
0.000433941
0.00864624
0.000437518
0.000448285
0.000450524
0.00054349
0.00264701
0.00045098
0.00316312
0.00043323
0.000444603
0.000440066
0.00122496
0.000431274
0.000134268
0.000444075
0.029002
0.000433028
0.000444447
0.000482086
0.00816905
0.00348856
0.00637198
0.000462566
0.000433646
0.00563389
0.00045932
0.00435349
0.000450081
0.00045138
0.000439546
0.000431513
0.00044944
0.000446922
0.000459993
0.000450088
0.000436903
0.000486971
0.000437361
0.000456229
0.00043548
0.000436459
0.000451259
0.000452377
0.01794
0.000461462
0.000450012
0.00463809
0.000443004
0.000598991
0.000712601
0.000448964
0.000438321
0.000450213
0.00297567
0.000460098
0.000453196
0.0129918
0.000538671
0.000452197
0.0120542
0.000443171
0.000462362
0.000453139
0.00433504
0.000451917
0.000432069
0.000482728
0.000449058
0.000457378
0.000454991
0.000489489
0.000530476
0.000436568
0.000449505
0.000449585
0.00043877
0.000449243
0.000451787
0.00318421
0.000444113
0.000482038
0.00042658
0.00402848
0.000450896
0.000484147
0.000446953
0.0284992
0.000442776
0.000458887
0.00544171
0.00045519
0.000439703
0.00562735
0.000712132
0.000442612
0.000450338
0.000498219
0.0257314
0.00453455
0.000447593
0.0226203
0.000444352
0.000470577
0.00045222
0.0212451
0.000432215
0.000443675
0.000442487
0.000446578
0.000459564
0.00383988
0.0217889
0.000450693
0.000448293
0.000444385
0.000451267
0.000426561
0.00219331
0.000450081
0.000455129
0.000447579
0.000439378
0.000447503
0.00735254
0.000503762
0.0018931
0.000438614
0.000450652
0.000437418
0.000450371
0.000449114
0.000519854
0.000426469
0.000449973
0.00664806
0.000206636
0.000567437
0.000450175
0.000440224
0.00227523
0.00452027
0.000442671
0.0234291
0.000445969
0.000433434
0.000487054
0.000449424
0.000450519
0.00209247
0.00231221
0.000450038
0.000457469
0.000456463
0.000447591
0.000482479
0.000448154
0.000437823
0.000487701
0.000742619
0.000501451
0.0005028
0.000524607
0.00254484
0.000445813
0.000454161
0.00047567
0.000456222
0.000447452
0.000426496
0.000468792
0.00468321
0.000443293
0.000452003
0.000465857
0.0233524
0.000433134
0.000466496
0.000598394
0.000465058
0.000462443
0.000428368
0.00132259
0.00219447
0.00302811
0.000450686
0.000431916
0.0110278
0.0102685
0.0108188
0.000457442
0.000468246
0.00549103
0.000432525
0.000446374
0.00049915
0.00130627
0.00045025
0.000432565
0.00355461
0.000431433
0.000443707
0.000441077
0.00508811
0.000433367
0.000452057
0.00210612
0.000450463
0.000796338
0.000437234
0.000451429
0.000449182
0.000433617
0.00428456
0.00558361
0.00045146
0.000449463
0.000450215
0.00257311
0.000446345
0.00044366
0.000458859
0.000460364
0.00548517
0.000431565
0.00049168
0.000445579
0.000431633
0.000474407
9.82978e-05
0.000422588
0.00044685
0.000438603
0.000432964
0.000438683
8.61446e-05
0.000447394
0.000466087
0.000452298
0.00010911
0.00546893
0.00044593
0.000455371
0.0250439
0.000455005
0.000431567
0.000462676
0.000484796
0.000522194
0.000446914
0.000454251
0.000452603
0.00418244
0.000458976
0.000446776
0.000476142
0.000447975
0.000454463
0.000455571
0.000450832
2.32589e-05
0.000871832
0.000779001
0.000451249
0.000445791
0.0167955
0.000478203
0.000447105
0.00460504
0.000517892
0.000448548
0.000431918
0.00046342
0.000449517
3.49499e-05
0.000450217
0.000438796
0.000452315
0.000444322
0.000495807
0.000460374
0.000453429
0.00043678
0.0252607
0.000447869
0.005418
0.000436167
0.00045869
0.000438516
0.000446429
0.000477413
0.000450557
0.000510139
0.000454365
0.000486599
0.0306399
0.000588057
0.000455714
0.000446854
0.000460264
0.000933822
0.000447731
0.000462036
0.000432805
0.000449215
0.000376507
0.0238212
0.000467894
0.000540633
0.000431647
0.00753991
0.0311556
0.00127599
0.000489858
0.000445682
0.00253509
5.01045e-05
0.000445801
0.000438503
0.000452876
0.000460031
0.0268356
0.000450578
0.00044886
0.000439399
0.000457527
0.000467419
3.34115e-05
0.000562159
0.000452677
0.00513229
0.000436941
0.0126513
0.000431731
0.000527345
0.000450294
0.000439184
0.000466293
0.000452601
0.00170615
0.000429849
0.000450848
0.000462
0.000439032
0.00043176
0.00368957
0.000447991
0.000435345
0.000431945
0.000450187
0.000437606
0.000470585
0.000449521
0.000594297
0.000438984
0.000432135
0.000432438
0.000470461
0.000466086
0.000444205
0.00044163
0.000216967
0.00045089
0.027024
0.000444388
0.0032314
0.000452182
0.000431801
0.000450708
0.000453004
0.00067064
0.000151312
0.0291248
0.00987271
0.0129589
0.000455404
0.000457397
0.000450758
0.0273311
0.0277344
0.000435979
0.000451513
0.00321221
0.000455232
0.000428817
0.00620705
0.000469966
0.000945661
0.000444633
0.00200806
3.36521e-05
0.000475312
0.000444184
0.000511698
0.000431475
0.000444025
0.000453665
0.002097
0.000484216
0.000431877
0.000440692
0.00153737
0.00045169
0.000426318
0.000440742
0.00044978
0.000452644
0.000431417
0.000451826
0.0288319
0.000266077
0.000552241
0.000437648
0.000440935
0.000433125
0.00464404
0.000431208
0.000447969
0.000446128
0.000452159
0.000461971
0.0223416
0.000448721
0.000447074
0.000449974
0.000426728
0.000388721
0.000452152
0.000459674
0.000451301
0.000239321
0.000446208
0.000456965
0.00119552
0.000440855
0.000446702
0.000473148
0.000535428
0.000476021
0.000441764
0.000454006
0.0004497
0.000450638
0.000451007
0.000448249
0.000462046
0.000198678
0.000476412
0.00131818
0.000458321
0.000438804
0.00548257
0.000444554
0.00044937
0.000431137
0.000486776
0.000437726
0.000431096
0.000452134
0.00043663
0.00645608
0.00010066
0.000450349
0.00200052
0.000459205
0.00043177
0.000441659
0.000492584
0.000471254
0.000455801
0.000431658
0.000449336
0.000457878
0.00220404
0.000472494
0.000716029
0.000460205
0.000457566
0.0205783
0.000446579
0.000449538
0.000459417
0.000444681
0.000465898
0.000443731
0.000450122
0.000455675
0.000465826
0.00018105
0.000452688
0.0020091
0.000538355
0.0124924
0.00045048
0.00051092
0.000453507
0.000449797
0.000511866
0.00399063
0.00244411
0.000445932
0.00044864
0.000512709
0.000462013
0.000478651
0.00043738
0.000442711
0.000450582
0.000452556
0.000450037
0.000448381
0.0303661
0.0119166
0.000483403
0.000431315
0.000448163
0.000470153
0.000443673
0.000433382
0.000459078
0.000424047
0.0207651
0.00045061
0.00700637
0.000466892
0.000443968
0.0143484
0.000533401
0.000466436
0.000451975
0.000486564
0.000436985
0.000448852
0.000486713
0.000449406
0.000436906
0.00212291
0.000495819
0.000763809
0.000438006
0.000328129
0.000319598
0.000440996
0.00044384
0.000591533
0.000519721
0.000431696
0.000450543
0.0004365
0.00495754
0.000450871
0.000428167
0.00557975
0.00479292
0.000453337
0.000448455
0.00046502
0.00045969
0.000467487
0.00458729
0.000450354
0.000447838
0.000444238
0.000622774
0.00044837
0.00139294
0.000840707
0.000436986
0.000436633
0.000552611
0.000429947
0.000436391
0.00756246
0.000427214
0.000449431
0.000441201
0.00103982
0.000437951
0.0243889
0.000441275
0.000444201
0.000436999
0.00395718
0.000510277
0.000450323
0.000429957
0.0025834
0.000483979
0.000442441
0.000468337
0.000437239
0.000455751
0.00248156
0.000452086
0.000445894
0.000436306
0.00362879
0.000448707
0.000436747
0.000443781
0.000438288
0.000436587
0.000439318
0.000437677
0.000443513
0.000447569
0.000455192
0.00044931
0.00183539
0.000450681
0.000456716
0.000459333
0.000462486
0.000450009
0.000448652
0.00044767
0.000450559
0.00859548
0.00043497
0.000465204
0.0119006
0.000520973
0.00164145
0.000427861
0.00509378
0.000448444
0.000449391
0.000465525
0.000948755
0.0004381
0.000470304
0.000439592
0.000460493
0.000452984
0.000477686
0.00322236
0.0289995
0.000478375
0.000473366
0.000436622
0.000445573
0.000440533
0.000452731
0.00373209
0.000450843
0.0257539
0.000436121
0.00326511
0.000444416
0.00043828
0.000495236
0.00045615
0.000441568
0.000444333
0.000448362
0.000435513
0.000437233
0.00348391
0.00345399
0.000452773
0.000436999
0.000448148
0.0117343
0.000504415
0.000464501
0.000430164
0.00430627
0.000446405
0.000447811
0.000450482
0.000445669
0.000446976
0.000516988
0.000441516
0.000446965
0.000439989
0.000443106
0.000653515
0.000437615
0.00315744
0.00552577
0.000449748
0.000438422
0.000437499
0.000447418
0.000453614
0.000455227
0.000427656
0.000435344
0.000448315
0.0134057
0.000450207
0.00117345
0.000445972
0.000440271
0.00474622
0.000149087
0.000450041
0.000426994
0.00240735
0.000464291
0.000458573
0.0035958
0.000475014
0.000441624
0.00947323
0.000472864
0.000440961
0.000449339
0.00531926
0.000443756
0.000441552
0.000478241
0.00388934
0.000499579
0.000457957
0.000451225
0.000428177
0.000433496
0.000433578
0.000447034
0.000475216
0.000464706
0.000446262
0.000476108
0.000461177
0.00046865
0.0146009
0.000449559
0.00738397
0.000458168
0.00839415
0.00154884
0.00371489
0.000446589
0.000447413
0.000458703
0.000451022
0.000442087
0.00044974
0.00299975
0.000499302
0.00049378
0.000443724
0.000448367
0.000524112
0.00262998
0.000457507
0.000452334
0.000449703
0.000449918
0.00223566
0.000453943
0.000429764
0.00473687
0.00430258
0.000446427
0.000443891
0.000497546
0.000437422
0.000428358
0.000433152
0.000464005
0.0212002
0.000436344
0.000444134
0.000445689
0.000445538
0.000436316
0.000444371
0.000468096
0.00303774
0.000461308
0.000474086
0.000441776
0.00502342
0.0012445
0.000492596
0.00294667
0.000489814
0.000445631
0.000447929
0.00106451
0.000426476
0.00046434
0.000451679
0.000446891
0.000461375
0.000433651
0.000444218
0.000441178
0.000452069
0.000446787
0.000669134
0.000459303
0.000435155
0.00472081
0.000450499
0.000447199
0.00364243
0.000457292
0.000434035
0.000682493
0.000342222
0.000441451
0.00386083
0.00219618
0.000926888
0.00043672
0.000452298
0.000478988
0.000478243
0.000408851
0.000508412
0.000451988
0.000669779
0.00045842
0.000441801
0.000450953
0.000469973
0.000456452
0.000446297
0.000434018
0.000435593
0.000451302
0.000450548
0.000474666
0.000452023
0.000435557
0.000466428
0.000450482
0.000439143
0.000500167
0.00167328
0.000485758
0.000456846
0.000449384
0.000448002
0.000445581
0.000449012
0.000450801
0.00043862
0.00290698
0.000442479
0.000451267
0.000457626
0.00552105
0.000501063
0.00450315
0.000435159
0.000408204
0.000453329
0.000450245
0.000740464
0.000441952
7.35868e-05
0.000441376
0.000467294
0.000451575
0.000441714
0.000449653
0.000446234
0.000451173
0.00629239
0.000450738
0.000481435
0.000427806
0.00045246
0.00524221
0.000253674
0.0267245
0.000451915
0.000518331
0.000643204
0.000449442
0.00045027
0.000451482
0.000450414
0.000446817
0.00857437
0.000763364
0.0147681
0.000458019
0.00045091
0.000463899
0.000492352
0.000450418
0.000428587
0.000452297
0.000446944
0.00044507
0.000483153
0.000439319
0.000449737
0.000462743
0.000449244
0.0220235
0.00119521
0.00554967
0.000448292
0.000446918
0.000471798
0.000450421
0.000446241
0.000605738
0.000447807
0.000525747
0.000449682
0.000732013
0.000445914
0.000446353
0.000436673
0.000450444
0.000455463
0.000439077
0.000790603
0.000441081
0.000462124
0.000434755
0.000456036
0.0044512
0.000541275
0.000493615
0.000502269
0.00289673
0.000535443
0.000494579
0.0120507
0.000592886
0.000510965
0.000450619
0.000450523
0.000449907
0.000447502
0.000500009
0.000444466
0.0282387
0.000449053
0.000485251
0.000481967
0.000452749
0.00044804
0.000434678
0.000436279
0.00604937
0.000484781
0.000497792
0.00045762
0.000450566
0.000474048
0.000523615
0.000570448
0.000450541
0.000443444
0.000426993
0.000451733
0.00139479
0.000441993
0.000541024
0.000451801
0.000460287
0.026488
0.00045454
0.000386916
0.000640274
0.000458042
0.00125257
0.00043713
3.3858e-05
0.00059761
0.00535428
0.000449843
0.000441634
0.000443928
0.0046844
0.000427707
0.00357948
0.000473101
0.000443308
0.000461354
0.000462502
0.00407369
0.000449165
0.000450938
0.000452935
0.000468699
0.000441014
0.000447711
0.0289009
0.000508925
0.000216489
0.000464015
0.000446629
0.000444147
0.000421796
0.0040923
0.000449297
0.000449328
0.000284958
0.00560392
0.000433091
0.000438157
0.000440084
0.000448663
0.000446819
0.000448314
0.00045345
0.000932396
0.000451489
0.000451228
0.000510964
0.0197599
0.000442438
0.000450069
0.000693041
0.00133073
0.000443818
0.000436405
0.000454003
0.000460726
0.000449207
0.000447098
0.000484243
0.000448143
0.000408089
0.000449194
0.000450229
0.000527032
0.00455756
0.00208327
0.000446322
0.000438196
0.000427955
0.000568055
0.000437036
0.000440267
0.000441389
0.000465924
0.000466071
0.00280928
0.00467943
0.000462029
0.000452117
0.000433672
0.000268416
0.000439205
0.000624238
0.000479514
0.00042839
0.000446587
0.000448028
0.000458324
0.000467639
0.000441977
0.000501618
0.000541426
0.000496347
0.000452636
0.00043613
0.00044103
0.000493692
0.000470108
0.000454598
0.00043557
0.000446259
0.000456977
0.000430587
0.000266347
0.000442201
0.00316593
0.00044975
0.00065833
0.000452064
0.000452432
0.0215012
0.000450206
0.000424279
0.000484647
0.000450813
0.00317703
0.00330962
0.00624685
0.00044897
0.00128727
0.000445943
0.000451428
0.00617395
0.0011395
0.00739766
0.000446657
0.000463558
0.000450395
0.000443368
0.000440777
0.000447852
0.000457436
0.000449395
0.0200642
0.000469579
0.00263646
0.000608539
0.000485712
0.000433382
0.000455084
0.000475131
0.00165802
0.000450892
0.000428195
0.00044983
0.000435077
0.000462267
0.000430283
0.000437173
0.000435089
0.000730551
0.000423159
0.000454383
0.000449158
0.000428065
0.000448941
0.000521159
0.000454038
0.000452409
0.00491622
0.000490567
0.000451352
0.000450463
0.000446837
0.0046355
0.000434865
0.000580575
0.000458725
0.00238408
0.000442127
0.00047918
0.000444434
0.000454624
0.00133242
0.000450952
0.000457885
0.000483739
0.00044682
0.00429839
0.000445363
0.00515827
0.000498334
0.000451008
0.000515357
0.000656312
0.000474308
0.000451853
0.000446147
0.000446701
0.000447177
0.00044231
0.000479638
0.000442041
0.000430052
0.000441906
0.000427427
0.000441828
0.00454525
0.00046244
0.000457833
0.000450119
0.000487651
0.00046113
0.00428192
0.000427567
0.000467058
0.00340339
0.000453576
0.000458775
0.0155797
0.000443422
0.000449405
0.000447727
0.000434922
0.000465867
0.00468699
0.000450748
0.000450176
0.000452172
0.000450255
0.00045399
0.000443637
0.000459825
0.0262025
0.000473345
0.000450375
0.0259778
0.000435261
0.000450658
0.000434337
0.000445601
0.000451005
0.000403372
0.000435627
0.000444242
0.00045384
0.000434247
0.000482692
0.000448056
0.00457496
0.00167551
0.0193413
0.000779811
0.000454358
0.000489971
0.00473025
0.000451146
0.000466551
0.000450312
0.00047234
0.0104881
0.00044843
0.000584229
0.000442513
0.000462239
0.000436552
0.000441658
0.000456334
0.000568039
0.000449613
0.000482849
0.000451596
0.000926882
0.000450521
0.00507808
0.000426545
0.00150683
0.000453979
0.000430107
0.000443905
0.00046422
0.00631481
0.00206635
0.000452344
0.00226117
0.000452662
0.000491144
0.00362689
0.000452954
0.000453402
0.000430057
0.000453068
0.00918247
0.00245182
0.000440656
0.00301865
0.00050485
0.00241959
0.000467125
0.000448792
0.00209269
0.000449494
0.000449433
0.000447973
0.000447258
0.00045056
0.000473863
0.000445578
0.000440711
0.000439023
0.000478922
0.000452237
0.000756492
0.000450361
0.000445386
0.000430286
0.000471305
0.000462278
0.00126439
0.000447906
0.000437284
0.000733766
0.000449874
0.000447778
0.000450588
0.000459147
0.000448848
0.000446451
0.000447144
0.0218601
0.000447516
0.000493839
0.00311004
0.00461061
0.000450921
0.000434913
0.00044849
0.019084
0.000447533
0.000452747
0.0259869
0.000435258
0.00045245
0.000444561
0.00187105
0.000449473
0.00270852
0.000451876
0.000458151
0.000452642
0.000435367
0.00913719
0.000472069
0.032438
0.0123353
0.00452719
0.0273896
0.00045248
0.000445543
0.000451127
0.00533083
0.000463425
0.00250471
0.000461443
0.00489195
0.000451848
0.000445558
0.0161159
0.000470592
0.0128071
0.000447661
0.000461268
0.00529054
0.000440831
0.000446819
0.000427855
0.000436775
0.000473445
0.000438256
0.000447483
0.000493426
0.00454124
0.000449311
0.000445234
0.00922614
0.000471596
0.000446584
0.00094594
0.00240404
0.000450592
0.000534837
0.00045421
0.000532359
0.00284973
0.000440727
0.000453847
0.00045066
0.000488562
0.000449648
0.000446189
0.000444064
0.000448293
0.0068936
0.000447895
0.00483907
0.000442425
0.0016182
0.000455123
0.0028874
0.000445939
0.000447907
0.000466949
0.00270652
0.000459499
0.0119978
0.000713805
0.000220637
0.000454229
0.000488811
0.000437343
0.000448201
0.00139546
0.00554106
0.000442268
0.000451623
0.000427128
0.0213255
0.000466289
0.000428685
0.000445724
0.000463895
0.000443045
0.000450528
0.000434931
0.000428975
0.000462993
0.000448628
0.000465533
0.00049257
0.000450638
0.000463985
0.000457986
0.000443217
0.00526365
0.000704756
0.000445134
0.000430272
0.000447642
0.000428637
0.000446957
0.00806274
0.000444424
3.24246e-06
0.0016682
0.000441485
0.000428457
0.000449538
0.000439412
0.00331978
0.000692657
0.000430166
0.000428072
0.000451578
0.00045032
0.000474994
0.000441796
0.00431628
0.000441412
0.000446219
0.00258424
0.000472536
0.000445478
0.000428381
0.000456709
0.00042781
0.00819639
0.000647174
0.000444647
0.000445521
0.000749409
0.00364999
0.0226104
0.000446322
0.000443661
0.000461961
0.000516363
0.000429711
0.000582301
0.000427821
0.000452194
0.000448504
0.000447484
0.00015064
0.000454556
0.00772225
0.000489901
0.00345917
0.000461518
0.000447532
0.0148289
0.000456616
0.000484496
0.00047818
0.000447268
0.000447589
0.000471879
0.0234595
0.000455829
0.000451958
0.000524552
0.000450512
0.000446593
0.000440411
0.000450517
0.0269055
0.00447552
0.000552699
0.000436233
0.000446726
0.00467371
0.000445137
0.000463761
0.000443307
0.000665702
0.000455193
0.00614025
0.00052484
0.02071
0.00045317
0.000458101
0.000456679
0.000444647
0.000447867
0.0167629
0.00502632
0.000466355
0.000531767
0.000440566
0.000437724
0.00348494
0.00043442
0.00444663
0.000132292
0.000481349
0.00156546
0.000452776
0.000521614
0.000447385
0.000434984
0.0108355
0.000445421
0.000444012
6.41182e-05
0.00301545
0.000449774
0.000447886
0.000454861
0.00342489
0.000451717
0.00130482
0.000465891
0.00044342
0.000605165
0.000453625
0.000458551
0.000457474
0.000450377
0.00045879
0.000142352
0.000511768
0.000450923
0.000457477
0.0145167
0.00044954
0.000449368
0.000444053
0.000661796
0.00477409
0.0163121
0.000452006
0.025878
0.00518336
0.000451488
0.000554572
0.000450481
0.000509654
0.00044664
0.000671646
0.00546331
0.0173348
0.00632655
0.00678117
0.00045258
0.000428557
0.000450424
0.000443659
0.00494143
0.000430292
0.0048365
0.00455413
0.000446801
0.000447604
0.00045622
0.00045184
0.00448158
0.000442848
0.000446039
0.000451788
0.0279847
0.000428114
0.000432344
0.000458379
0.000428566
0.000453721
0.000480885
0.000509016
0.000438896
0.000450712
0.000446653
0.00206029
0.000435325
0.000445868
0.000445199
0.000479294
0.0197159
0.000440966
0.000430016
0.000448992
0.00046874
0.000855914
0.000458332
0.000452316
0.000219412
0.000443598
0.000434879
0.000445857
0.000621621
0.00194714
0.000428689
0.00659924
0.004419
0.000390766
0.000502223
0.00433822
0.000723644
0.00445788
0.000452286
0.000445239
0.000475401
0.000445754
0.00045102
0.00428284
0.00355625
0.000443417
0.000472135
0.000448958
0.000428262
0.000515049
0.000451829
0.000451786
0.000498766
0.000501314
0.00048801
0.00202248
0.000494049
0.000448924
0.000444468
0.00171786
0.000449879
0.0043829
0.000524341
0.000440467
0.000450606
0.000500947
0.000770809
0.000442945
0.000448969
0.000447816
0.000524461
0.000504748
0.00044942
0.00118594
0.000525196
0.000448052
0.000781702
0.00536334
0.000457347
0.000439687
0.000448175
0.000454122
0.000316808
0.000447656
0.0090319
0.00614307
0.000469927
0.000455414
0.00061947
0.000500381
0.000195843
0.000440333
0.000499162
0.0184743
0.000451849
0.00250943
0.00542297
0.00205687
0.000515512
1.08073e-06
0.000465665
0.000454812
0.000534706
0.00314801
0.00045923
0.000436951
0.000455555
0.000427619
0.000333183
0.000451158
0.000441703
0.0191131
0.000455944
0.00372842
0.000508064
0.000444224
0.0007903
0.00516506
0.00253436
0.000447217
0.000448352
0.000450376
0.00559738
0.00422471
0.000243981
0.000443829
0.000483743
0.000486284
0.00423781
0.00045044
0.00500621
0.00043931
0.00363288
0.000478001
0.0217648
0.000455787
0.000450083
0.000450578
0.000449727
0.000436025
0.000450676
0.000447594
0.000441621
0.000536074
0.000679099
0.000448276
0.000467444
0.000450613
0.000611314
0.000259538
0.000454261
0.000452494
0.005439
0.000474818
0.00403093
0.000449111
0.000622001
0.00049149
0.0036334
0.000447115
0.00349476
0.00562748
0.000492346
0.000446605
0.000435545
0.000450454
0.000469902
0.000439219
0.000502463
0.000532063
0.000430237
0.00476093
0.000443203
0.00313996
0.0004543
0.000699727
0.00531535
0.000452933
0.000450593
0.00515476
0.000450785
0.000434193
0.00045466
0.000436761
0.000499574
0.00045047
0.000507978
0.000446116
0.000663901
0.00318319
0.000458365
0.000448264
0.00044565
0.000517999
0.00326398
0.00044815
0.000452518
0.000444232
0.000519965
0.00045192
0.00290499
0.00394835
0.00050887
0.00045392
0.00049408
0.000467711
0.000451195
0.00450874
0.000511352
0.000435077
0.00584882
0.00121301
0.000461693
0.000448569
0.000501944
0.000452271
0.000469734
0.0127281
0.000423286
0.000452391
0.000447606
0.0050053
0.00489733
0.00370604
0.000487805
0.000452982
0.00538548
0.00408482
0.000446464
0.00246315
0.000472946
0.000455659
0.000453355
0.00334137
0.00376133
0.000449417
0.014981
0.000446289
0.000853756
0.00209913
0.00045527
0.000475913
0.000460708
0.000448318
0.000446202
0.00119744
0.00406534
0.000450473
0.000495567
0.000502044
0.000458043
0.000450483
0.000504155
0.000451865
0.00263748
0.000576802
0.000445686
0.000454879
0.000446673
0.000450152
0.00043015
0.000500713
0.000453114
0.00529541
0.000530852
0.000459507
0.000459739
0.000430246
0.000516329
0.00061976
0.00042843
0.000450534
0.000488924
0.000452598
0.000430206
0.00060908
0.00043719
0.000443915
0.000470077
0.000441406
0.000448113
0.000531167
0.000433509
0.000513921
0.000474585
0.00314313
0.00436742
0.00052719
0.000465815
0.00514064
0.00316399
0.0036729
0.00060458
0.000455943
0.0046943
0.000172865
0.000450433
0.000446196
0.000446736
0.000440995
0.000466106
0.000450413
0.000285488
0.000449625
0.000471017
0.000452918
0.0221746
0.000473626
0.000468984
0.0034156
0.000498699
0.000450468
0.0005185
0.000994542
0.000457425
0.000525532
0.000453013
0.000595153
0.00044462
0.00045513
0.000436913
0.000460232
0.000414829
0.000528355
0.00051402
0.000483143
0.000449083
0.000460254
0.000451938
0.000237332
0.000544554
0.000466968
0.00322709
0.00291572
0.000448891
0.000512705
0.000461191
0.000470374
0.000609022
0.000448699
0.00048331
0.00355906
0.000510643
0.000481826
0.000445081
0.000509839
0.000435977
0.000468159
0.000500222
0.00512718
0.00110509
0.000685746
0.000145281
0.00719383
0.000475208
0.000438446
0.000513932
0.000466451
0.000445953
0.000460294
0.000264241
0.000433632
0.00045917
0.00491709
0.000447646