/*--------------------------------*- C++ -*----------------------------------*\
| =========                 |                                                 |
| \\      /  F ield         | OpenFOAM: The Open Source CFD Toolbox           |
|  \\    /   O peration     | Version:  v2012                                 |
|   \\  /    A nd           | Website:  www.openfoam.com                      |
|    \\/     M anipulation  |                                                 |
\*---------------------------------------------------------------------------*/
FoamFile
{
    version     2.0;
    format      ascii;
    class       surfaceScalarField;
    location    "350";
    object      phi_0;
}
// * * * * * * * * * * * * * * * * * * * * * * * * * * * * * * * * * * * * * //

dimensions      [0 3 -1 0 0 0 0];
oriented        oriented;


internalField   nonuniform List<scalar> 
21240
(
-0.362265
0.573209
-0.210943
-0.0421114
0.151953
-0.109841
-0.158494
-0.348326
0.506821
0.248938
-0.181457
-0.0674815
-0.0876618
0.246932
-0.15927
-0.256441
-0.215261
0.471702
0.620416
-0.48518
-0.135237
-0.256501
-0.114857
0.371358
0.0429982
-0.0629773
0.0199791
0.572076
-0.480103
-0.0919736
-0.644626
0.375144
0.269482
0.390203
0.0201725
-0.410375
0.185058
-0.0196941
-0.165363
0.139405
0.236399
-0.375804
0.503186
0.117231
0.0135021
-0.345781
0.332279
-0.387035
0.536261
-0.149226
0.0402773
-0.0348956
-0.00538165
0.414783
-0.57331
0.158527
0.279253
-0.265751
0.00941552
0.141582
-0.150998
0.0741257
-0.407221
0.333095
-0.680403
0.484103
0.1963
-0.310416
-0.334211
0.0413286
0.0459174
-0.087246
0.321331
-0.0592968
-0.262034
0.167234
-0.0587735
-0.10846
0.426222
0.145854
0.152553
0.0146804
-0.579357
0.622019
-0.0426621
-0.0508155
0.150007
-0.0991917
0.633925
-0.167056
-0.466869
-0.00261815
0.0049081
-0.00228995
0.627219
-0.453899
-0.17332
-0.031115
0.238889
-0.207774
0.105251
0.528674
0.414032
0.146731
-0.560763
-0.298389
0.267274
-0.752371
0.398687
0.353684
-0.184883
0.279622
-0.0947385
0.0671333
-0.0241351
-0.181833
-0.135675
0.317508
0.017008
0.168931
-0.185939
-0.108008
-0.0171756
0.125183
0.234881
-0.137319
-0.0975625
0.291036
-0.158912
-0.132124
0.355969
-0.514464
0.581954
-0.155732
0.456578
-0.211281
-0.245296
0.235571
-0.218563
-0.160611
0.574644
0.00299542
-0.118376
0.11538
-0.70294
0.378303
0.324637
0.395454
-0.568838
0.173384
-0.443238
-0.259703
0.218662
0.0732209
-0.291883
0.371239
-0.278803
-0.0924355
0.670306
-0.496083
-0.174224
-0.0369996
0.35833
0.103118
-0.0617896
0.629009
-0.233555
0.15485
0.136186
-0.166607
0.188123
-0.0215159
0.211018
-0.625657
0.414639
0.398682
0.0900716
-0.488754
-0.382948
0.554061
-0.171113
-0.493168
0.144841
0.0865448
-0.13736
-0.357283
0.167558
0.189725
0.678623
-0.573372
0.199963
-0.655317
0.455354
-0.616329
0.220892
0.395436
0.174953
-0.570155
0.395203
0.264364
0.0894492
-0.353813
0.627315
-0.43916
-0.188156
0.461193
-0.224958
-0.236236
-0.405311
0.244632
-0.0463533
-0.198279
0.543207
0.135417
-0.040197
-0.062625
0.102822
0.562414
0.0146927
-0.577107
0.0653416
-0.284103
0.218761
0.271159
0.185419
0.644757
-0.423865
0.787168
-0.408865
0.0974171
-0.046936
-0.0504811
0.080996
0.153885
-0.625569
0.160274
0.465294
-0.450616
0.669064
-0.469101
0.176373
-0.0423602
-0.134013
0.0315378
0.00496432
-0.0365021
0.0213613
0.163696
0.0683706
0.488046
0.605128
-0.615867
0.0107386
0.558598
0.00381611
0.424136
0.363032
0.466991
-0.677668
0.210677
-0.253891
0.646903
-0.393012
-0.380603
0.19877
-0.401231
0.543605
-0.142374
-0.439805
0.592204
-0.152399
-0.363635
-0.316768
0.0434729
-0.234739
0.191266
0.58603
-0.425756
0.358082
0.0735893
-0.431671
-0.31569
0.130806
-0.224254
0.194395
0.0298592
-0.0217409
0.214918
-0.193177
0.126391
-0.132964
0.00657352
-0.18562
0.248762
-0.0631423
0.113994
-0.00303239
-0.110962
0.367947
-0.379366
0.0114192
0.130978
-0.000161881
-0.130817
0.355923
-0.281797
-0.117687
0.120682
0.331331
-0.172816
-0.158515
-0.118395
0.0751588
-0.000380042
-0.0747787
0.257729
-0.192387
0.144857
0.437097
-0.583815
0.19678
-0.198584
0.613366
0.252484
-0.13253
-0.119955
-0.0473428
-0.0497762
0.097119
0.560399
-0.265157
-0.295242
0.0353033
0.0991675
-0.134471
-0.536977
0.174711
0.617938
-0.376839
-0.241099
-0.556916
0.155685
-0.0460813
-0.0884113
0.134493
0.141349
-0.0291527
-0.112197
-0.269519
0.186269
0.0832499
-0.0831025
0.201871
0.259323
0.359367
0.258571
-0.0452927
-1.82207e-05
0.0453109
0.151434
-0.0204557
-0.0125109
-0.114041
0.126552
0.171498
-0.136194
-0.19228
0.150307
0.0419737
-0.0815462
0.0342034
-0.154267
-0.425089
0.139755
0.00159445
0.00235758
-0.0040068
0.00164922
-0.0917735
0.356137
-0.0634655
0.431412
0.359891
0.148888
-0.136296
-0.0125921
-0.0133949
0.139785
0.400164
0.143441
-0.281309
0.713337
-0.432028
-0.607982
0.28129
0.326692
-0.486501
-0.105029
0.59153
-0.678555
0.513895
0.164661
0.242774
-0.264515
-0.257565
0.167749
0.0898152
-0.637186
0.150685
0.304594
0.0666448
0.0794836
-0.119681
-0.174895
-0.0120865
0.186982
-0.218059
0.350861
-0.132802
0.00291485
-0.0223767
0.149084
-0.126707
0.405125
-0.641714
0.236588
0.0201221
0.077295
-0.323098
-0.429273
0.118719
-0.182505
0.0637857
0.609346
-0.127963
-0.481383
-0.551994
0.295553
0.0766731
-0.00151438
0.0474487
-0.0351524
-0.0122963
-0.303795
0.140863
0.162931
-0.00861288
-0.191244
0.199857
-0.060963
0.0891353
-0.0281723
-0.284274
0.0834962
0.200778
-0.114458
0.504661
0.176552
0.383847
0.0147562
-0.155555
0.140799
0.0209075
-0.138376
0.117468
0.00151464
0.00331657
-0.00483121
0.096
0.156484
0.502628
-0.102464
0.202563
-0.291801
0.0892375
-0.14915
0.158565
-0.205555
-0.0785479
-0.241364
0.0557439
-0.189511
-0.0518532
0.0682277
0.327694
-0.395921
0.155865
-0.00697658
-0.276318
-0.0889077
0.365226
0.239996
-0.026298
-0.213698
0.1072
-0.00295068
-0.104249
-0.399819
-0.212714
0.612533
0.641665
-0.174673
0.332112
-0.147315
-0.184797
-0.353404
0.253176
0.485185
-0.211846
-0.273338
-0.177712
0.00281666
0.103554
-0.149635
0.00295095
-0.0055691
-0.500038
0.356587
0.14345
-0.646456
0.206651
0.268927
-0.3607
0.145076
0.103862
-0.543612
0.289367
0.254245
-0.304191
0.0278732
-0.124094
0.0160857
-0.119631
0.622816
-0.182722
0.630653
-0.447931
-0.333842
0.40207
-0.243432
0.332882
-0.0684287
-0.0708541
0.139283
-0.0745654
0.193284
0.00341222
0.00149588
-0.142721
-0.0539225
0.196643
0.0256117
0.0676589
-0.0932706
-0.361913
-0.195002
0.159317
0.343311
0.601928
0.00741808
0.0254795
-0.101558
0.0760783
-0.0789573
0.29762
0.0943852
-0.0689058
-0.190905
-0.0786141
-0.00337343
0.248005
0.0385662
0.185684
-0.22425
0.150165
0.181166
-0.151435
0.129058
0.418387
-0.616971
0.109278
-0.270174
0.160896
0.20256
0.129551
0.0111033
-0.107628
0.0965249
0.485835
-0.129866
-0.369148
-0.179905
0.549053
0.0775522
0.194075
-0.271627
0.228168
-0.206187
-0.0219815
0.107064
-0.12424
-0.258372
0.0773078
0.181064
0.232747
-0.355096
0.122349
-0.0061224
-0.0391703
0.0187792
0.0249104
-0.0436895
0.0473775
0.0838223
-0.1312
-0.571871
0.188922
-0.0980051
-0.0638498
-0.037708
0.459235
-0.670758
0.211523
-0.011668
0.0304471
-0.75375
0.299135
0.454615
0.542618
-0.124231
0.472765
-0.608561
0.135796
-0.155994
-0.10157
-0.449484
-0.205832
0.0122376
-0.0262258
0.0139882
-0.406934
0.553665
0.123038
-0.37954
0.0538116
-0.103661
0.0498495
0.0556741
-0.0489116
-0.00676251
-0.135893
0.0992441
0.0366491
0.00306528
-0.000707703
-0.094961
0.363888
0.398195
-0.226287
-0.171908
0.169389
0.0748615
-0.24425
0.0464787
-0.1892
-0.0315852
0.0438228
0.178937
-0.00405386
-0.174883
-0.114494
0.0181524
0.0963412
-0.321846
0.140678
0.181169
0.00562508
-0.00404323
-0.145106
-0.0586947
0.145239
0.370063
-0.28795
-0.0821128
-0.414219
0.48259
0.68697
-0.376695
-0.310275
0.623036
-0.163801
0.666166
-0.595961
-0.0702048
0.128831
-0.614011
-0.0880529
0.112841
-0.0247884
-0.608936
0.327627
-0.153369
-0.0854942
0.238864
-0.157818
0.153775
0.510273
0.117042
0.0127877
-0.482545
0.195643
0.286903
0.130407
0.0149489
-0.145356
-0.237556
0.149894
-0.0569694
0.00497267
0.0519967
-0.133509
0.120998
0.222106
-0.0275011
-0.194605
-0.426507
0.599243
-0.172736
-0.457382
-0.110484
0.567866
-0.0478984
-0.0532024
0.101101
-0.199826
-0.300212
0.545969
-0.140843
-0.0317768
-0.0630052
0.094782
0.179005
0.443014
-0.34919
0.131132
0.758163
-0.354042
-0.404121
0.000364885
0.00162005
0.282304
0.140587
-0.422891
-0.394348
0.126589
0.267759
-0.221379
0.170289
0.0510898
0.339475
0.0619109
-0.401386
0.406875
-0.26747
-0.319693
0.146877
-0.239805
0.0583485
-0.256399
-0.351583
-0.214899
-0.125379
-0.0225786
0.201516
-0.148081
-0.0185258
-0.699564
0.28863
0.410934
-0.272949
-0.426615
0.163626
0.0137085
-0.177335
0.129753
-0.143148
0.292147
-0.20897
-0.0831766
-0.0358863
0.0628848
-0.0269984
0.19612
0.0616091
0.235288
0.162907
0.552652
0.113514
-0.0387546
0.00787004
0.0308846
0.349491
-0.122998
-0.226492
0.11455
0.255869
-0.370419
0.664384
-0.509962
-0.154422
0.426484
-0.144179
0.24248
0.426584
0.212268
-0.010438
-0.20183
0.0900453
-0.0644336
-0.0659507
0.464633
-0.084371
0.322216
0.435947
-0.047633
0.013589
0.0340439
-0.0940155
0.0301657
0.0369453
-0.00540752
-0.0802376
0.0760536
0.004184
-0.103422
0.0606119
0.0428101
0.547988
-0.493869
-0.054119
0.586075
-0.41697
-0.169105
0.221108
-0.111829
-0.0897731
0.0288102
0.342612
-0.127694
0.102651
-0.161345
0.00590778
0.0570862
-0.062994
0.0311038
0.0163449
0.0059085
-0.389193
0.383284
0.496885
0.0511034
-0.0405805
0.00182588
-0.00157103
-0.00104263
0.00261366
-0.00494962
-0.0580276
-0.569024
0.408413
0.195297
-0.086875
0.0927828
-0.0809847
0.000747109
0.455818
-0.652731
0.196914
-0.614338
0.187831
-0.0203211
0.150728
-0.111284
0.124831
-0.0774536
0.089589
-0.000311119
-0.0892779
0.109033
-0.0552216
-0.431534
0.140016
-0.172503
0.0324865
0.00186025
-0.00343128
0.68497
-0.299913
-0.385057
0.424696
0.161334
0.33745
0.34752
0.168184
-0.0193762
0.149129
0.348059
-0.115313
0.245396
-0.168088
0.489494
-0.555445
-0.00620584
0.113406
-0.00237296
0.00161694
0.000756013
0.0196654
-0.166664
0.146999
-0.0531113
0.0172249
0.516578
0.0293901
0.0726812
-0.349442
0.276761
-0.491579
0.318321
0.173258
-0.00325843
0.000885474
0.00321385
-0.119215
0.116001
-0.451018
0.494847
-0.043829
-0.192929
-0.128917
-0.232296
-0.250249
-0.107725
0.0196725
-0.322474
-0.135755
0.458229
-0.470992
-0.143346
-0.0345216
0.161325
-0.126804
0.345272
0.240803
0.253457
-0.172923
-0.0805346
-0.0719002
0.1324
-0.0604998
-0.102797
-0.0212966
0.0783791
-0.102543
0.0241643
0.116132
-0.278653
0.162521
0.611602
-0.449217
-0.162385
0.49195
0.0246281
0.434573
-0.232702
0.539174
-0.498833
-0.0403408
0.455052
0.231918
0.185414
0.0427542
0.201531
0.233042
0.393852
-0.0721808
-0.321671
-0.14983
-0.420325
-0.0889427
0.447025
-0.200708
0.260692
-0.0599838
-0.136484
-0.13369
-0.0463358
0.0719297
0.0224556
0.0977151
-0.0866118
-0.00736514
0.121359
-0.034745
-0.125592
0.160337
-0.136193
0.139407
-0.670635
0.396083
0.274551
-0.273099
0.145029
0.392098
-0.537127
-0.00275263
0.000336371
0.00241626
-0.115819
-0.0356161
-0.241664
0.0521529
-0.187663
-0.125949
0.140706
0.0187185
0.0717259
-0.370227
0.298501
-0.157733
0.503005
-0.0459232
0.0666112
-0.020688
-0.0958269
0.033202
-0.0495663
0.389041
0.477106
0.150238
-0.627344
-0.0244672
0.188094
-0.170942
0.136197
-0.330533
0.0871007
0.157955
-0.574925
0.0853114
-0.127423
0.0793482
-0.00933885
-0.0700093
-0.341943
0.347851
0.600958
-0.33193
-0.269027
0.213169
-0.180088
-0.0330808
0.335006
-0.449464
-0.280642
-0.389993
0.0212101
-0.103389
-0.0111047
0.0437669
0.132606
-0.17471
-0.377284
-0.0337549
0.14249
-0.108736
-0.66877
0.388597
0.280173
0.304052
0.0525355
-0.028039
-0.0659765
0.101106
-0.0115173
-0.116327
-0.489765
-0.115794
0.504392
-0.218499
-0.336305
0.554804
0.120127
0.311501
-0.431629
-0.500528
0.336562
0.163965
0.335801
0.293758
-0.0976383
0.340257
-0.268531
0.316761
-0.432555
-0.00254618
-0.00157538
0.00412156
0.313518
0.255101
0.372118
0.218387
-0.179039
-0.0393477
0.295523
-0.201461
-0.0940617
-0.301727
0.412787
-0.11106
0.5013
0.0378741
-0.0660428
-0.0698503
0.08787
-0.0193148
-0.0685552
-0.12988
0.00849613
0.121384
-0.614751
0.0416578
-0.00138058
0.0720109
-0.0223978
-0.0496131
0.318546
0.075306
-0.539572
-0.016405
0.555977
0.165707
-0.0497316
-0.115976
-0.071583
-0.20707
-0.391529
0.222191
0.169338
0.246941
0.392022
-0.534173
0.142151
-0.164089
-0.0601652
-0.119479
0.0166825
-0.12846
-0.265888
-0.130846
-0.15475
0.285596
-0.149799
-0.389773
0.275903
-0.64505
-0.0947545
0.550572
0.202884
0.0908742
-0.0989077
0.301471
-0.222647
0.0692776
-0.270454
-0.0997724
-0.0988139
0.119721
-0.457501
0.167729
0.289772
0.147665
0.00428745
0.210321
-0.218934
0.0585623
0.0134486
0.215269
-0.46916
-0.344976
-0.198636
0.212227
0.07992
-0.0958727
-0.0076809
0.103554
-0.160114
-0.0969688
0.065192
0.264864
-0.37972
0.22087
-0.0354556
-0.570313
0.0446287
0.525684
-0.000835353
-0.00171083
0.45037
0.133416
-0.583786
0.0475815
-0.0335011
-0.0140804
-0.118634
0.591399
0.212093
-0.040935
-0.171158
-0.43829
0.588501
-0.150211
-0.102988
0.580094
0.476832
-0.642465
0.165633
0.184767
-0.460955
-0.164702
0.0190653
0.194104
-0.213998
0.287219
-0.162694
0.0305773
-0.190851
-0.359424
-0.13165
0.491074
-0.168535
0.143051
0.0254836
0.05428
0.174191
-0.228471
0.0706402
-0.271348
-0.554556
0.515602
0.0389539
0.554021
-0.177481
-0.37654
-0.614457
0.0599017
-0.546397
0.216166
0.330231
0.372301
0.18172
-0.0388703
0.00397467
-0.00171498
-0.00103765
0.341437
-0.321264
0.0333312
0.154791
0.110616
-0.0181033
-0.0925127
-0.0133959
-0.0342371
0.018088
-0.497635
0.479547
-0.150762
-0.465658
0.636788
-0.17113
-0.266053
0.160206
0.427871
-0.588076
-0.589179
0.255337
-0.261858
-0.197081
0.0378931
0.159188
-0.728718
0.30748
0.421238
0.0510414
-0.0373381
-0.0137032
-0.440088
0.661171
-0.296397
-0.364774
-0.048367
0.0349712
-0.000725466
0.00258571
0.5053
0.139457
0.342653
0.0375392
-0.380192
0.685006
-0.179705
0.551725
-0.617762
0.0660374
-0.495108
0.320398
-0.0474338
-0.00953561
-0.246526
0.487017
-0.363963
-0.123054
0.406216
-0.286089
0.526538
0.0109916
-0.53753
-0.0062543
0.495749
-0.160653
0.132456
0.0281969
0.209568
-0.323596
0.114028
0.302869
0.0843203
-0.387189
-0.0333201
0.173336
0.41503
-0.247301
0.396906
0.0069386
-0.203075
0.196137
-0.244929
-0.24665
-0.171553
0.028907
0.142646
0.0894102
-0.0434928
-0.0471636
0.0786589
-0.0314953
-0.208827
0.485324
-0.276497
0.0592417
-0.257579
0.198337
0.104545
-0.558445
0.24372
-0.160224
-0.0588524
0.29414
0.56262
-0.207588
-0.355032
-0.570313
0.213722
-0.272574
-0.37942
-0.255663
0.0962943
0.159369
-0.503918
0.316133
0.187785
0.0864577
0.459738
-0.546196
0.118824
-0.387859
0.269035
0.13293
0.0185038
0.0432652
-0.0296762
-0.311882
0.103299
0.208583
-0.0497174
-0.0748448
0.124562
0.198325
0.0602016
-0.258527
-0.334003
0.609906
0.368922
-0.0114301
-0.0274402
-0.646387
0.421662
0.224725
-0.655801
0.190143
0.485542
0.0804552
-0.565998
0.261947
0.0783095
-0.590623
0.414939
0.0394847
-0.454423
0.0608365
0.061405
-0.227076
0.312248
-0.0851724
0.0352468
0.0204273
0.00282093
-0.00359406
0.00077313
0.596628
-0.112525
0.642726
0.00858145
0.0574828
-0.0660643
-0.160908
0.191463
-0.0305548
-0.0429919
0.0619276
-0.0189357
0.123271
0.243977
0.104082
0.445172
-0.0700277
-0.64617
0.396
0.25017
0.35875
-0.149181
-0.109745
0.412614
0.373553
-0.0550068
0.385339
-0.323428
-0.665231
0.19218
0.473051
0.107048
0.00302567
-0.110073
-0.244929
-0.420302
-0.0704448
-0.126636
0.518826
0.16618
-0.527407
0.308908
0.3135
-0.248798
-0.0647022
0.516475
0.0886533
0.023729
0.0238525
0.213881
0.0816416
-0.21979
0.347516
-0.127726
0.0306814
0.0571886
0.127593
0.0971867
-0.023496
-0.0736907
-0.0278285
-0.00377285
0.0316013
-0.25118
-0.249348
-0.467423
0.119662
-0.339452
0.141899
-0.143287
0.00138791
-0.121245
-0.420243
-0.195624
-0.00341444
0.00268898
0.0223599
-0.0721361
0.160244
-0.153305
0.058544
-0.0384219
0.374817
0.187803
-0.22374
0.177299
0.0464405
0.480504
0.0460346
-0.145399
-0.110265
-0.202566
-0.152529
-0.675304
0.402355
0.120609
-0.013544
-0.424845
0.209584
0.175902
-0.0314562
-0.144446
-0.286265
0.0845805
0.201684
0.113863
-0.0146187
0.152562
-0.0196322
-0.625454
0.290434
0.33502
0.119375
-0.305244
0.185869
-0.451432
0.128958
-0.259229
-0.366225
-0.641179
0.43275
0.208429
0.0920363
-0.300241
0.208205
-0.00445819
0.102173
-0.0827818
0.568324
0.0263627
0.0842532
0.144485
0.446073
-0.590558
-0.101053
0.356254
-0.112276
-0.0349049
0.113371
-0.078466
-0.2166
-0.329948
0.546548
-0.134759
0.0946073
0.360953
-0.540292
0.179339
-0.138153
-0.0103603
0.00952495
0.0107099
0.207677
0.567461
-0.339456
-0.228006
0.00638664
-0.00514962
-0.00123702
0.172745
0.0393485
0.532435
-0.171482
-0.164987
0.0355609
-0.106415
-0.278138
-0.268259
-0.0470581
0.101115
-0.0540564
-0.4726
0.263773
-0.308205
-0.155301
0.463506
0.584583
-0.256889
0.195487
-0.162051
-0.0334356
-0.0699514
-0.169854
0.0490908
-0.271687
-0.403617
0.359
0.126835
-0.61093
0.583982
0.0269479
-0.14172
-0.308607
0.450326
-0.185375
0.0710895
-0.116443
0.0453533
0.29925
-0.0963656
0.19811
-0.278561
0.0804504
-0.153131
-0.238398
0.199537
0.385046
0.286359
0.0271416
0.480921
-0.583909
0.0396154
-0.0346511
0.0755146
-0.26051
0.184995
0.0160748
0.291842
-0.307917
-0.111641
0.376505
0.392046
0.175415
-0.38203
0.270389
-0.0529305
0.198087
-0.145157
0.138907
0.0268005
0.00523359
-0.106761
0.544413
-0.437653
-0.0751153
0.273225
0.448385
-0.617356
0.168972
-0.199176
0.258418
-0.308385
0.229428
0.0698047
-0.123007
-0.0304357
0.511357
-0.0447829
0.430122
4.80098e-06
0.00281613
-0.0202343
0.0986135
0.325008
-0.504913
-0.197998
-0.295029
0.493026
0.522258
-0.377229
0.0461209
-0.0432864
-0.00283451
-0.241915
0.0641964
0.177719
0.361401
-0.49305
0.079797
0.219453
0.101609
-0.413107
0.311498
-0.612852
0.278849
0.108732
-0.00168391
-0.364602
0.240397
0.124205
-0.25698
0.108631
-0.0333852
-0.0752458
-0.07777
0.0306064
-0.116427
-0.31329
0.110429
0.202861
-0.436119
0.454207
0.128989
0.312461
-0.44145
-0.110376
-0.0129929
0.123369
0.0433633
-0.018416
-0.0249473
-0.558639
0.101256
0.083411
0.0253207
0.0839935
-0.00464537
0.000530939
0.103121
0.0361617
0.0217255
0.0216379
0.0166644
0.0294565
0.419127
-0.567546
0.148418
0.0369478
0.183922
-0.0957996
-0.0230975
0.118897
-0.210212
0.303819
-0.442563
0.138744
0.571324
-0.426839
-0.125984
0.0375728
-0.00397366
-0.496879
0.132915
0.18556
-0.0404836
0.278459
-0.0765034
-0.201956
0.0778408
0.165879
0.654322
-0.409356
-0.244966
0.291915
-0.0968118
-0.195104
-0.590867
0.442071
0.148796
-0.145766
-0.025787
0.128315
-0.651362
0.207103
0.444259
0.0163589
0.0252989
-0.0174391
0.159339
-0.0778588
0.134192
-0.056333
0.120705
-0.309468
0.188763
-0.28479
-0.392878
-0.0023387
0.00396164
-0.00162295
-0.596104
0.24972
0.346384
-0.00390466
0.00186104
0.00204363
0.0323769
0.143525
-0.124768
0.0535288
-0.0057673
-0.0477615
0.0890314
0.352298
-0.44133
0.118216
0.322106
-0.440321
-0.0923508
-0.0145663
0.106917
0.305523
0.149743
-0.455265
-0.182064
0.406276
-0.317245
-0.145621
-0.676513
0.265178
0.411336
0.113098
0.32757
-0.440668
0.161941
-0.543575
0.381634
-0.0136971
-0.0409737
0.0546708
-0.739173
0.516283
0.22289
0.0603675
0.167418
-0.227786
0.0430058
0.0656252
-0.2646
0.205303
-0.0633585
0.0887765
-0.025418
-0.408818
0.104021
-0.305014
0.200993
-0.276769
0.420606
-0.143837
-0.192445
-0.546728
0.0450955
-0.0921536
0.0576501
-0.0490687
0.100692
-0.167268
-0.32784
-0.286641
-0.158552
0.445193
0.015153
-0.0930119
-0.34442
0.462636
0.441179
-0.328081
-0.139172
-0.449513
-0.13575
0.585263
-0.000295353
0.0579455
-0.32228
-0.354233
-0.373239
0.459697
0.41879
0.0549359
-0.473726
0.680134
-0.18653
-0.493604
-0.098832
-0.598117
0.457056
0.141061
0.455848
-0.330848
-0.125
-0.0690022
0.267327
0.110926
-0.502636
0.39171
-0.228397
-0.442361
0.497445
-0.386519
-0.447142
-0.150975
-0.142636
0.446456
0.0622706
0.216189
0.0797489
-0.232286
0.152538
0.478604
-0.297902
-0.180702
0.0782044
-0.0380149
-0.0401895
0.313215
0.09991
-0.413125
0.196643
-0.0521152
-0.144527
-0.547493
0.269355
-0.211114
-0.075151
0.289505
0.390629
-0.0227696
-0.158194
0.180964
-0.0310437
0.114455
0.0232129
-0.161229
0.429495
-0.268266
0.0950635
0.211008
-0.306072
0.0166407
-0.195029
0.178388
-0.210926
0.157996
0.177179
-0.131399
0.420082
-0.288682
-0.184001
0.152452
0.0315499
-0.440531
0.304776
-0.195477
0.183957
0.264967
-0.0708923
0.228924
0.435461
0.0323149
-0.0956734
0.0590194
0.027698
-0.0867174
-0.201518
0.270824
-0.069306
0.420184
-0.10697
-0.000282588
0.00359915
-0.157169
0.17435
-0.0171802
-0.675555
0.282876
0.392679
0.0198929
-0.025922
-0.0774669
-0.330636
-0.0747047
0.40534
0.653918
-0.346439
-0.155299
-0.372184
-0.303372
0.19089
0.287715
-0.409844
0.110892
-0.520591
0.409699
-0.201362
0.293399
-0.276339
0.565706
0.192422
-0.173357
0.0505984
0.322955
-0.142879
-0.0797685
-0.558923
0.200216
0.358707
-0.289355
-0.258138
0.270949
-0.36591
-0.0132483
0.0575803
-0.044332
-0.368522
0.597286
-0.228764
-0.155602
0.13528
0.390684
0.279718
0.135312
0.0674745
-0.090572
0.19004
-0.265156
0.612558
-0.612558
-0.188069
0.165491
0.0356117
-0.145299
0.109688
0.021341
-0.0486838
-0.362968
-0.227899
0.0332653
0.0941613
-0.733005
0.3967
-0.316236
0.109673
0.206563
0.00416168
-0.00793453
-0.104254
0.375203
-0.0887855
0.565617
0.220841
0.402195
0.149715
-0.338262
0.445198
-0.106936
0.10473
-0.406456
-0.0278907
0.029191
0.0653156
0.716168
-0.297896
-0.418271
0.00156049
-0.00290317
0.00134268
-0.050646
0.134717
0.0731631
-0.0605162
-0.0126469
-0.0268567
0.177163
-0.118768
0.537557
0.00763714
-0.0060202
0.461093
-0.63903
0.177937
0.474063
-0.596991
0.404131
0.19286
0.191323
-0.174683
0.209382
0.382822
-0.205689
-0.0499685
0.255658
0.261651
-0.0122762
-0.249375
-0.394101
0.0578558
-0.101064
0.165104
0.192978
-0.640119
0.158461
-0.0643029
-0.0941577
0.510411
0.136492
0.0455268
0.00504183
-0.0505686
-0.196132
-0.362791
0.0120388
0.0465052
0.284086
0.432081
0.111832
-0.0936795
0.182453
0.478718
-0.587798
0.245724
0.342074
0.212485
0.0794298
-0.156463
0.624838
-0.174572
-0.450266
-0.438498
-0.142662
0.58116
0.230816
-0.272823
0.0420071
-0.16946
0.146058
0.392181
-0.538239
-0.703743
0.418953
0.108521
0.0665404
-0.175062
-0.388135
-0.344871
0.171299
0.347527
-0.416253
-0.287491
-0.31414
0.117563
0.196577
-0.548774
0.166719
0.0287673
-0.490257
0.32299
0.0691477
-0.378328
-0.194982
-0.644772
0.231661
0.413111
0.421248
0.177995
0.112498
0.0115875
-0.124085
-0.0254767
-0.124264
0.149741
-0.570578
0.231105
0.339473
-0.359784
0.120268
0.239516
-0.0608679
-0.0416755
-0.191177
-0.083449
-0.0513104
-0.065867
0.480805
-0.0414492
0.112539
0.244032
-0.423931
-0.0811661
-0.185721
0.266888
0.150203
0.0303581
-0.180561
-0.0294597
0.0884791
-0.140503
0.597558
-0.175112
-0.000409383
-0.001166
0.00365284
-0.0153208
0.0479051
0.148738
0.503054
-0.365872
-0.137182
0.273024
-0.0422088
-0.140154
0.0895085
0.342525
-0.256274
-0.0862506
0.150646
-0.322783
0.199785
-0.00907308
0.0152313
-0.00615826
-0.141174
0.13712
0.102773
0.499921
-0.602694
0.0359157
-0.0828517
-0.0287562
0.195475
-0.0974145
0.0590039
0.0384105
-0.114114
-0.308983
0.423097
0.0297684
-0.21485
0.185081
-0.060112
-0.44985
0.0126871
0.111302
-0.12399
0.505731
-0.373864
-0.131867
-0.674143
0.378157
0.295985
0.455135
-0.523353
0.162249
0.361104
0.195028
-0.241112
0.0460833
-0.109029
0.0593114
0.528836
0.0837218
0.410516
0.243402
0.136379
-0.517265
0.380886
-0.0483473
0.0299312
-0.19622
-0.519412
0.306698
0.580817
-0.43596
-0.430061
0.159425
0.270636
-0.226903
-0.031885
0.258788
-0.38121
0.188579
0.0583532
0.259422
-0.205081
-0.00290047
0.207982
0.0921282
0.118381
0.426512
0.154305
0.707447
-0.289443
-0.418004
0.191292
-0.0827708
0.274273
0.433174
0.479448
-0.195479
-0.283969
0.58967
-0.415995
-0.173675
-0.142708
-0.0390268
-0.114219
0.153245
0.284327
-0.362681
0.227949
0.134732
0.297834
-0.514435
-0.22853
0.111242
-0.0991555
0.0914746
-0.234085
0.164134
-0.0462341
0.148885
-0.201715
0.117586
-0.287584
0.107131
0.395923
0.0181743
0.0549887
-0.390462
0.526841
0.440474
0.149196
0.119678
0.0107252
-0.130403
0.126861
0.0257017
-0.00236287
-0.118593
0.120956
-0.142058
0.540445
-0.398386
0.249241
0.120821
0.27834
-0.399864
0.121525
-0.189665
-0.119803
0.473026
-0.64581
0.172784
-0.0851418
0.307333
-0.0789637
0.167375
-0.0884113
-0.175313
-0.0721445
0.22445
-0.152305
-0.0316828
0.170647
-0.0265575
-0.144089
-0.391744
0.0517589
0.00176985
-0.316333
-0.167009
-0.197593
-0.706256
0.280598
0.425658
0.189955
-0.163943
-0.0260115
0.535166
-0.0195643
-0.422169
0.184767
0.00079234
-0.420711
0.577248
-0.156537
-0.409232
0.299586
0.109646
0.633954
-0.17286
-0.488918
0.202278
-0.148309
0.108322
-0.154556
-0.235595
-0.410575
0.552028
-0.160006
-0.125041
0.0414881
-0.203539
-0.203452
0.0393626
-0.71458
0.416683
-0.354777
0.187768
0.0215131
0.134326
-0.155839
0.0113331
-0.00369593
-0.0132859
0.0922581
-0.112492
-0.102355
-0.149764
0.174398
-0.0246337
0.297201
-0.605406
-0.432999
0.3016
-0.135519
0.482164
-0.346645
-0.239757
0.0677225
0.172035
-0.414872
0.300758
-0.697257
0.263604
0.433653
-0.499285
0.362706
0.136578
0.207955
0.0721869
-0.280142
0.169453
-0.284594
-0.412663
-0.200072
-0.202472
0.402544
-0.0464284
0.196631
0.0437211
-0.0126173
0.158299
-0.0014841
-0.000854594
0.263324
-0.00167323
0.114347
-0.137296
0.0229494
0.140102
0.0810061
-0.128028
-0.195569
-0.204177
0.235407
-0.0312298
0.0418015
-0.00655472
0.0378836
-0.443073
0.301353
-0.225072
-0.0791186
-0.132569
-0.108184
-0.0318181
0.140002
-0.12005
0.382669
0.487943
-0.126542
-0.322566
-0.166352
-0.152623
0.232372
-0.111579
0.0929797
0.253161
-0.34614
0.223269
-0.322016
-0.253374
0.0102327
0.190896
0.382313
-0.134626
0.303964
-0.121455
-0.119504
0.240959
-0.183584
0.473675
-0.290091
0.425925
-0.123701
-0.116056
-0.590016
-0.0489882
-0.164709
-0.265985
0.184819
-0.0736574
0.148614
-0.074957
0.114153
-0.14068
0.0265272
0.510597
-0.183469
-0.327128
0.00383945
-0.00459411
0.000754664
0.0126102
0.149676
-0.0355231
-0.00573324
0.190501
-0.0316349
-0.113664
0.555766
-0.156426
-0.399339
-0.267488
-0.0951929
0.0281635
0.161791
0.275325
0.301087
-0.576412
0.388438
0.167328
-0.0411062
-0.0108301
0.203252
0.111582
-0.311654
0.461103
0.0740634
-0.67723
0.228445
0.448784
-0.265948
-0.411281
-0.133396
-0.346706
0.34875
-0.492567
0.143816
-0.447584
0.116736
-0.637343
0.247335
0.390008
-0.425075
-0.449533
0.611191
-0.486665
-0.124526
-0.0579731
0.044276
0.121625
0.234629
0.150184
0.444284
-0.594468
0.0540773
-0.0598446
-0.00161172
-0.0035379
0.263881
-0.0688523
0.201406
-0.286548
0.102305
-0.144665
-0.0674725
0.130606
-0.149982
0.0441249
0.0165762
-0.060701
-0.327877
0.00531074
0.153837
0.325611
-0.510983
0.591438
-0.0658484
0.0934379
-0.0275895
0.0699422
0.235494
-0.305436
-0.0272139
-0.0137915
0.0410054
-0.0368319
-0.0605826
0.169795
-0.587429
0.417635
0.164157
-0.532678
0.0341138
0.144268
-0.582766
0.551579
-0.399024
-0.152554
-0.000672531
0.00199786
-0.00132533
-0.355903
0.604011
-0.248108
0.396113
-0.117774
0.659377
-0.199639
-0.0351185
0.00142162
0.0336969
0.612002
-0.202453
-0.409549
-0.444655
0.541793
-0.379852
0.466734
-0.549516
0.611864
-0.161494
-0.0081955
-0.000877585
0.128218
-0.473147
0.314595
-0.704313
0.41487
-0.00325738
-0.100404
0.147575
-0.0200079
-0.127568
-0.357646
-0.136532
0.494178
-0.197959
-0.349135
-0.155547
-0.425466
-0.171698
0.597164
-0.203523
0.276989
-0.0734656
-0.498682
0.332673
0.166009
0.481047
0.0705319
-0.0349555
0.0411115
-0.00615603
-0.197152
-0.0856103
0.282762
0.564998
-0.17656
-0.453707
0.270123
-0.182196
-0.364985
0.547181
0.170303
-0.583535
0.413231
-0.398501
-0.189298
0.130411
0.357559
-0.487969
-0.137879
-0.105652
-0.276377
0.206468
-0.0577309
0.132056
0.226693
0.446645
0.178193
0.128634
0.262313
-0.390947
0.0478793
-0.18717
0.139291
0.166819
0.0246432
0.076868
-0.155832
-0.140524
-0.25934
0.0724282
0.239031
-0.311459
0.268414
-0.372668
0.296716
-0.403188
0.106471
0.0016472
-0.00231973
0.471354
-0.300055
0.191408
-0.299459
0.108051
0.00343006
0.534849
-0.534849
0.0812546
-0.0289566
-0.052298
-0.150035
-0.454005
0.60404
-0.0149434
0.0594611
-0.0445177
-0.210775
0.283203
0.290888
0.110507
0.0453582
-0.0557396
0.0464007
-0.537127
0.354931
0.0160445
0.0964535
0.103076
-0.599159
-0.106758
0.247436
-0.191922
-0.0783751
0.270297
-0.150321
-0.0223308
0.172652
0.0181103
-0.0687649
0.0506546
-0.0939617
0.347138
-0.134677
-0.0224924
-0.135316
-0.0202391
0.165973
0.107325
-0.540851
0.433526
-0.582629
0.323399
0.0631815
0.161609
-0.22479
-0.0782908
0.0553147
0.0229761
0.079246
0.000163819
-0.700862
0.416269
-0.0432358
0.00828025
-0.571581
0.430785
0.111833
-0.536824
0.519461
0.0173632
-0.218294
0.302875
0.135954
0.347782
-0.483736
0.529282
-0.0625481
0.293211
-0.223269
-0.62047
0.450919
0.169551
0.5818
0.128192
-0.149156
0.0209635
0.0973143
0.0368776
-0.208185
-0.349319
-0.271151
-0.37914
0.244514
-0.00137645
-0.00252822
-0.42796
0.128202
-0.153679
-0.423715
0.0615926
-0.0174677
-0.255989
-0.171364
0.427353
-0.432647
0.291823
0.140824
0.276073
-0.0860331
0.147511
-0.586671
-0.265121
0.0709146
0.0816387
0.385979
0.166049
0.26453
0.00662921
-0.426589
0.557337
-0.344066
-0.213272
-0.0953081
0.610582
-0.452087
-0.158495
-0.0208837
0.0503402
0.0452142
-0.0584625
-0.122784
-0.227028
0.349812
0.251585
0.377424
-0.374877
0.493157
-0.358331
-0.134826
-0.069002
-0.17211
0.295327
-0.200264
-0.440007
-0.149689
0.589696
-0.430588
0.520992
-0.0904043
-0.311542
0.00187222
0.154029
-0.284875
-0.0382747
0.00312232
-0.308389
0.408299
-0.334886
0.0551187
-0.0595769
0.18441
0.452378
-0.0826496
-0.207779
-0.401157
-0.0616038
0.0214641
0.0401397
-0.319263
0.104512
0.214751
0.140773
0.0298744
0.0455126
-0.00371106
-0.694601
0.428653
-0.531608
0.38955
0.233634
-0.191648
-0.528231
0.11775
0.410481
0.123183
0.251737
-0.37492
0.0438648
-0.0441602
-0.130684
0.479434
-0.152435
0.538414
0.0240288
0.102062
0.0259261
-0.127988
0.100125
-0.0834318
-0.0166932
-0.183084
-0.354897
-0.447617
-0.147721
0.595338
-0.417557
0.570083
-0.152526
-0.639106
0.205238
0.433868
-0.449351
0.140744
-0.112019
-0.106777
0.407595
-0.127877
-0.144782
-0.0392194
-0.167656
0.12863
-0.430997
0.143575
0.0348361
-0.178411
0.277182
-0.157807
-0.328075
-0.268029
0.168907
-0.028134
0.000518714
-0.00222954
0.138508
-0.155947
-0.0515279
0.0822093
0.313088
0.176464
-0.489552
0.0884646
0.404692
-0.195782
0.306211
0.105844
0.174695
-0.280539
0.373946