/*--------------------------------*- C++ -*----------------------------------*\
| =========                 |                                                 |
| \\      /  F ield         | OpenFOAM: The Open Source CFD Toolbox           |
|  \\    /   O peration     | Version:  v2012                                 |
|   \\  /    A nd           | Website:  www.openfoam.com                      |
|    \\/     M anipulation  |                                                 |
\*---------------------------------------------------------------------------*/
FoamFile
{
    version     2.0;
    format      ascii;
    class       volVectorField;
    location    "450";
    object      ddt0(U);
}
// * * * * * * * * * * * * * * * * * * * * * * * * * * * * * * * * * * * * * //

dimensions      [0 1 -2 0 0 0 0];


internalField   nonuniform List<vector> 
14479
(
(-0.154988 0.740513 -1.81996e-20)
(-0.0281114 -0.0801919 0)
(0.032392 -0.0056807 0)
(0.000230831 2.73482e-05 0)
(-0.0572075 -0.0290234 0)
(0.000308495 -3.65673e-05 3.1988e-20)
(-0.000829991 0.000963572 -8.83607e-21)
(-0.0526152 -0.0919088 -3.54816e-20)
(0.00850375 -0.0549077 1.00917e-19)
(0.0406309 -0.0240165 1.04418e-19)
(0.00215296 -0.00179189 5.25469e-21)
(-0.00511577 -0.0105695 -1.80858e-20)
(0.0438895 -0.00873829 3.91843e-20)
(0.0563011 0.0518035 0)
(-0.0132782 -0.143436 0)
(0.000256284 -6.61696e-05 0)
(-0.000549732 0.00151276 0)
(-0.0278234 -0.145472 -6.41502e-20)
(0.00072177 0.00123971 2.02834e-20)
(0.0218272 0.00341397 3.04539e-20)
(-0.0231542 -0.0292619 3.14172e-19)
(-0.0429106 -0.0356925 0)
(0.00766384 -0.0425886 3.12015e-20)
(-0.187602 -0.313358 -2.66972e-20)
(0.00228484 -0.00194478 -6.18364e-20)
(0.000263944 0.0012818 -4.26376e-20)
(0.0491849 -0.0635633 0)
(0.0170937 -0.0181137 0)
(-0.000484666 0.00160729 4.11263e-20)
(0.0508594 -0.0281601 2.91243e-21)
(0.0336442 -0.0073256 7.59037e-20)
(-0.176311 -0.330374 0)
(-0.0171963 -0.0153955 0)
(-0.0156831 -0.00546979 0)
(0.0181758 -0.00280695 -5.30789e-20)
(0.0307329 0.0456681 3.95042e-20)
(0.00205196 -0.00264518 5.4171e-21)
(0.000151573 2.33934e-05 0)
(0.0804828 -0.0139157 2.88055e-21)
(-0.0282687 0.0461862 0)
(0.000264082 -4.02957e-05 2.13025e-20)
(0.00223514 -0.000205733 4.51868e-20)
(0.0240553 0.0501315 1.34651e-22)
(0.0312489 0.0275526 0)
(0.00196078 -0.00317368 2.00563e-20)
(0.000310938 -8.22181e-05 -1.66038e-20)
(0.000390085 0.000188845 2.99238e-20)
(-0.0984808 -0.0594819 0)
(0.00405073 -0.0371437 0)
(0.00225265 0.000119855 6.32243e-20)
(0.029618 0.00326807 7.66181e-20)
(0.015809 -0.0536198 -1.35041e-19)
(0.00105284 0.00133632 3.5295e-20)
(0.0302606 0.00174612 -1.06332e-19)
(-0.00190604 -0.0374658 -5.78249e-20)
(-0.00992921 -0.00714283 1.56039e-19)
(0.037656 0.0612843 -4.6029e-20)
(-0.00204281 0.00323655 -4.21759e-20)
(0.0309363 0.00182529 0)
(-0.00210342 0.00374897 -3.7991e-20)
(0.00258296 0.00139339 0)
(0.00444338 -0.000656291 0)
(-0.00927509 0.500076 -3.16438e-20)
(0.000632487 0.000820709 0)
(-0.0011904 0.000666947 1.95236e-20)
(-0.0440799 -0.0823044 1.31817e-22)
(-0.112043 -0.0205275 1.12055e-19)
(0.0455136 0.00159865 -4.64359e-20)
(0.00104421 0.000919615 -3.70421e-20)
(-0.000711604 0.00147818 -2.46129e-20)
(0.240762 -0.190307 0)
(0.000297112 0.000190319 -6.00729e-20)
(0.0258681 0.00213967 0)
(-0.0426793 0.0551917 0)
(0.00377049 -0.00337364 0)
(0.00039794 0.000148168 7.25004e-20)
(-0.00919004 0.0172421 3.56704e-20)
(-0.0247291 0.474074 1.6143e-19)
(-0.000896249 -0.00129125 4.41248e-20)
(-0.0958051 -0.0500796 1.48636e-20)
(0.00071163 0.00133337 -4.07847e-20)
(-0.0891537 0.0708549 0)
(-0.0187308 -0.176068 2.09039e-20)
(0.0368525 -0.0070924 0)
(0.0980612 -0.235977 1.04319e-19)
(-0.00797856 -0.00980024 -2.96034e-20)
(-0.00790121 0.00203793 2.50949e-20)
(-0.000972041 0.000700423 2.92394e-20)
(-0.0793862 -0.0788104 0)
(6.38265e-05 0.00679303 0)
(0.00608171 -0.0618866 -1.09476e-19)
(-0.0479352 -0.0685842 -5.83758e-20)
(-0.165415 -0.269165 3.52154e-20)
(0.000509662 0.000636381 0)
(0.0220927 -0.0276426 3.55771e-20)
(0.000289654 0.000111873 2.47347e-20)
(-0.000902491 -0.00102452 -8.80959e-20)
(2.32721e-05 -2.53281e-05 0)
(0.000646538 0.000149731 3.08888e-20)
(0.0778727 0.0302288 -6.6582e-21)
(0.122054 -0.134102 -3.1831e-20)
(5.47545e-05 1.54305e-05 2.97358e-20)
(0.0320727 0.00247365 1.87641e-19)
(0.0191737 -0.00252848 0)
(0.0900267 0.00115597 -3.22702e-22)
(-0.0280569 -0.1189 -2.49649e-19)
(0.100139 -0.0637393 3.94347e-20)
(-0.0184666 0.00247515 -1.01758e-20)
(0.0284189 -0.00977701 -3.22554e-19)
(0.0776199 0.0521557 -9.62114e-21)
(0.113612 -0.0373623 -6.3698e-20)
(-0.00999031 -0.129411 0)
(-0.0226009 0.0184531 1.53905e-20)
(-0.0134019 -0.011332 0)
(0.0179766 -0.0260924 0)
(0.00583621 -0.0128038 -5.29183e-20)
(-5.9347e-05 1.13036e-05 -2.00504e-20)
(-0.36238 0.261319 -1.0095e-19)
(0.000349561 -3.52237e-05 0)
(0.00566826 -0.000255154 3.92135e-21)
(-4.36133e-05 4.9851e-05 -7.00296e-21)
(0.126681 -0.0350498 0)
(0.0328295 0.00305997 -9.66628e-20)
(0.000626498 0.000130992 0)
(0.0349354 -0.00813125 5.60555e-20)
(-0.0267066 0.0219304 -1.54446e-20)
(0.00143553 0.00509932 5.66073e-21)
(0.176406 -0.334136 0)
(-0.0126447 0.0149138 4.64299e-20)
(0.0207467 0.0188481 4.39292e-20)
(-0.0187983 -0.0557562 -9.37417e-20)
(0.0551921 0.090872 7.62401e-19)
(0.0299801 -0.00749875 1.22024e-19)
(-0.32544 0.483014 -1.24306e-19)
(-0.0492948 -0.00521516 3.51102e-20)
(-0.0269231 0.0034477 -6.49816e-20)
(-0.182299 -0.0773243 -1.1937e-19)
(-0.0874947 0.0587306 -4.62798e-21)
(-0.100806 0.499433 -5.13858e-21)
(0.0378187 -0.010671 -7.69679e-20)
(-0.0962194 0.0237294 3.2973e-23)
(-0.0682449 -0.317182 -6.38535e-20)
(0.00269414 0.00198887 0)
(-0.100037 0.0881992 0)
(0.000716663 0.00150471 -1.71857e-21)
(-0.0403852 0.0228613 2.39662e-20)
(-0.0573389 -0.316266 5.24651e-20)
(0.00147041 -0.00504881 0)
(-0.016951 -0.0594752 8.14822e-20)
(0.0607696 0.0606352 0)
(0.010326 0.0773022 -2.80874e-20)
(0.00107646 -0.000529768 0)
(0.0477067 0.0385581 0)
(-0.00776084 0.00414549 0)
(0.000234346 0.00122115 -4.58088e-20)
(0.00239291 0.00091511 1.55702e-20)
(0.0310837 0.203797 3.14839e-20)
(0.276498 0.134588 1.60823e-19)
(0.0973834 -0.00222978 -3.8563e-21)
(-0.0269686 -0.000866089 0)
(-0.0424445 0.0381722 4.34104e-20)
(-2.63841e-05 7.47723e-05 -1.3889e-20)
(0.00112939 -0.000480532 -1.83925e-20)
(-0.0479196 -0.00710283 -4.61517e-20)
(0.0359009 0.00355965 -8.53826e-21)
(-0.000438235 -8.18262e-05 -4.09598e-22)
(0.00119289 -0.000750167 1.9656e-20)
(-0.0880364 -0.0338564 1.10018e-19)
(0.029982 -0.00834032 0)
(0.0947168 0.0275796 1.48919e-20)
(-0.0634905 -0.2722 7.93966e-21)
(-0.00127086 -0.0136424 1.38635e-19)
(0.000218399 8.66115e-05 -1.37017e-20)
(0.0420868 -0.0116349 -2.06884e-20)
(0.00038811 -0.000108526 -3.90971e-20)
(0.0209315 -0.00683512 -2.9282e-20)
(-0.0263426 0.00433917 -1.26912e-19)
(0.000293421 -0.000133711 0)
(-0.0462186 0.00878794 1.89328e-21)
(-0.314161 0.635591 -1.36576e-19)
(0.00578432 -0.0222472 -4.89884e-20)
(-5.10343e-06 0.000350965 1.94537e-22)
(0.0624491 0.0651471 0)
(-0.00444535 0.0227478 1.64331e-20)
(0.0559372 0.0590818 -3.05245e-21)
(0.00193387 0.000746958 5.62307e-22)
(0.0443222 -0.0101485 5.5259e-20)
(-0.0582387 0.143129 -2.72211e-20)
(-0.00108232 0.00369243 -1.46347e-20)
(0.0867542 0.000431412 0)
(0.0160087 -0.365809 0)
(0.0667349 -0.0310098 0)
(-0.0701234 -0.100396 9.22869e-21)
(-0.0430921 -0.222351 0)
(0.00018702 2.20956e-05 0)
(-0.00192584 -0.013169 -1.65404e-19)
(-0.0010343 -0.00358431 4.62139e-20)
(-0.0431199 0.00836387 -2.20766e-21)
(-0.0145203 -0.0062827 0)
(0.00105607 -0.000363193 7.22008e-20)
(0.0665425 0.0537558 1.51786e-19)
(-0.0125514 0.0116273 0)
(-0.00669853 0.0171167 -6.25508e-20)
(0.0012329 -0.00074068 0)
(0.00238918 0.0222505 -8.61301e-20)
(-0.000248798 -4.19489e-05 2.47167e-21)
(0.0401104 0.0478254 1.59912e-20)
(3.23444e-05 1.73495e-05 -1.28207e-21)
(0.00024541 0.000514194 -2.95612e-20)
(0.00704734 0.0411306 2.93652e-20)
(-0.00920772 -0.00875597 0)
(0.00149435 0.0032294 0)
(0.003737 0.0352395 -6.08275e-20)
(0.00212536 0.0295343 -5.64099e-20)
(0.0990872 -0.0908138 1.3482e-19)
(0.0830156 -0.0317425 -9.49144e-21)
(-0.136109 -0.07483 -5.5185e-20)
(0.00850926 0.0131766 1.98416e-20)
(0.0693677 -0.0454493 6.07144e-21)
(0.00421488 -0.041047 5.98345e-20)
(-0.00749312 -0.158416 -2.75537e-20)
(0.0241609 0.00370436 -2.4292e-19)
(-0.00311833 0.00632791 7.19077e-22)
(-0.0019362 0.0261058 0)
(0.0760863 -0.00458431 -1.47268e-19)
(0.00055491 1.89304e-05 4.66907e-20)
(0.0347678 -0.00395368 5.65161e-20)
(0.000602848 -0.000106181 -9.14115e-20)
(0.0164627 -0.0249567 0)
(0.00641651 0.00403901 -1.0276e-20)
(0.00505152 0.000431865 -3.07765e-20)
(0.00643513 0.00342302 8.61917e-21)
(0.0632482 -0.0689274 0)
(8.20463e-05 -0.00294301 4.05959e-20)
(2.36888e-05 -2.36598e-05 8.82056e-21)
(0.119665 -0.288121 2.3605e-19)
(0.000196356 -0.0178899 -4.59067e-20)
(-0.0461604 -0.0716691 -8.91971e-20)
(-0.067455 0.134505 -5.95298e-19)
(0.000939935 0.00142724 2.54507e-20)
(-0.000842488 0.0150807 0)
(0.0010554 -0.000141576 -9.25368e-21)
(-0.00322576 -0.0581126 0)
(-0.0131436 -0.00142004 0)
(0.00196457 0.000518973 -5.73051e-22)
(-0.123594 0.0866935 -7.17905e-20)
(-0.0417219 0.40497 -2.15005e-19)
(-0.00946485 -0.14944 0)
(0.00475602 -0.000674479 1.49292e-20)
(0.000371091 0.00138122 2.97917e-20)
(0.0203725 -0.0277109 -1.9066e-20)
(-0.00913333 -0.0102652 0)
(0.0145812 0.0325748 2.86018e-21)
(0.0294243 -0.00897699 0)
(0.0538125 -0.079107 -9.37767e-23)
(0.000488818 7.17961e-05 0)
(0.00373191 0.0224502 -5.02615e-20)
(0.000462047 0.00112644 -3.04364e-20)
(0.00192167 0.0426212 0)
(-2.19676e-05 0.000862554 0)
(0.000565674 -0.000125127 4.08501e-20)
(-0.00254468 0.0120564 0)
(6.77973e-05 0.00106002 -4.43848e-20)
(0.000210148 -0.000196466 -4.30467e-20)
(-8.46816e-05 -5.49609e-05 4.7288e-20)
(-0.0143621 0.0208944 0)
(-0.0395453 -0.00611062 3.44822e-20)
(0.000368802 0.00112492 -3.23212e-22)
(-0.0888304 0.127139 1.93637e-19)
(-0.0349332 -0.0151659 -1.03815e-19)
(0.0142653 -0.0120331 0)
(-0.000316669 2.78363e-07 -2.59508e-21)
(0.131765 -0.0660383 -1.83262e-21)
(-0.000107521 -0.0131346 1.05208e-21)
(-0.0851474 -0.0112131 2.31193e-20)
(-0.0577234 -0.177482 0)
(-0.0432476 -0.0660066 0)
(0.00108603 0.00168896 0)
(-0.0144674 -0.00793259 0)
(0.00851825 0.00766261 9.10608e-20)
(-0.0819487 0.115082 7.57253e-20)
(0.000529687 2.88045e-05 0)
(0.00158067 0.00778367 -5.07599e-20)
(-0.00331231 0.00721868 3.03741e-20)
(-0.00877939 -0.0904318 0)
(0.0889541 -0.153472 -1.54596e-19)
(0.00997616 -0.0213045 0)
(0.0351378 -0.000495693 2.53591e-19)
(-0.00546819 -0.0154996 0)
(0.0410549 0.322902 5.43102e-19)
(0.0402046 -0.032432 8.93303e-20)
(0.00349945 -0.00334883 0)
(0.0053158 0.0280726 1.4156e-20)
(0.0479447 -0.00813477 -5.91903e-20)
(-0.00225525 -0.00937782 4.07975e-20)
(-0.0448994 -0.215889 -8.65489e-21)
(-0.132991 -0.332055 1.37035e-19)
(-0.000215343 0.00427196 -1.83438e-21)
(-0.0394988 0.00569344 -5.8301e-20)
(-0.0696747 -0.171244 1.45701e-20)
(0.090688 -0.366461 0)
(-0.0591887 -0.0498215 0)
(-7.84915e-05 -2.68206e-05 0)
(0.00229294 -0.0013616 0)
(-0.00835146 -0.0161686 -9.98904e-20)
(-0.227427 0.757041 -1.05877e-18)
(2.25894e-05 7.50525e-05 0)
(0.268307 -0.25868 -1.50951e-19)
(-2.73889e-06 0.000669601 0)
(0.0170925 -0.0623483 0)
(-7.9243e-05 -0.000156317 0)
(0.206388 -0.245532 1.26404e-19)
(-0.00582432 0.00216435 -6.77371e-20)
(0.00354107 -0.00812695 0)
(-0.00781952 -0.0199049 1.14894e-19)
(0.0817004 -0.00756578 -4.24837e-20)
(0.0708921 -0.0224529 2.17304e-20)
(-0.00764898 -0.00288146 1.36096e-19)
(-0.00653091 -0.0190244 0)
(-0.000107546 8.37809e-05 1.60504e-20)
(0.174981 -0.314304 -4.76323e-20)
(-0.00741804 -0.0794579 1.27386e-19)
(-0.0794615 0.182136 -2.41046e-19)
(0.0552617 -0.0218783 -2.49863e-20)
(0.00234291 0.00156726 -4.5545e-20)
(0.2189 -0.215474 -5.87046e-20)
(0.198403 0.0713873 -5.19028e-20)
(-0.0159344 -0.0629342 -3.48343e-20)
(0.0438335 -0.0150104 4.49579e-20)
(0.00814224 0.0099084 6.89923e-20)
(0.014419 -0.0488385 6.42735e-20)
(-0.000426734 -0.00275087 -1.06641e-19)
(0.00915358 0.0258666 -4.99419e-20)
(0.0111458 -0.0148225 1.04407e-19)
(0.000346619 4.50448e-05 0)
(0.00116974 0.00868948 0)
(0.0589511 -0.0500052 0)
(-0.0119344 0.0177174 6.78279e-20)
(0.000902211 -0.014078 -4.22682e-20)
(0.00638464 2.1604e-05 -4.98591e-21)
(0.00205997 0.00188865 0)
(-0.0326634 -0.0365961 2.56485e-20)
(0.000132521 0.000541109 -5.18405e-22)
(0.00196512 -0.0107206 2.10654e-19)
(-0.080693 -0.160151 -3.04316e-20)
(-0.00501386 -0.0113383 -2.03176e-19)
(-0.335894 0.301974 1.64876e-19)
(-0.0047497 -0.0163463 3.86638e-20)
(0.0119277 -0.0227987 -5.81102e-20)
(0.00791806 0.0167387 0)
(0.000167021 0.000681699 0)
(-0.122777 0.0275409 0)
(0.0244293 0.00270913 -7.96118e-21)
(-0.163802 -0.244467 -9.19543e-20)
(0.0189184 0.0162448 0)
(-0.305198 1.06866 0)
(0.0160324 -0.104981 9.11503e-20)
(0.0996963 -0.0051463 -1.60888e-19)
(0.00215956 0.00227683 5.1658e-20)
(-0.0662015 0.0310801 6.53098e-20)
(0.00144929 0.00434287 -2.2926e-20)
(0.054754 -0.0274682 -9.74216e-20)
(0.0784441 -0.0052343 0)
(0.0372948 -0.064292 2.87107e-20)
(-0.00532403 0.00287197 4.6238e-20)
(0.00166663 0.00440411 0)
(-0.000784061 0.000653878 0)
(5.68585e-05 1.75845e-05 0)
(0.0132298 -0.0159762 -1.72796e-19)
(-0.000975792 0.000251855 9.16889e-21)
(0.000249121 4.07228e-05 -1.85925e-20)
(0.0716123 -0.0149174 0)
(2.60138e-05 8.64727e-05 -2.10703e-20)
(-0.0920501 0.093573 -7.90052e-20)
(-0.0325274 -0.209712 -1.77272e-21)
(0.0059803 -0.131532 -3.76404e-21)
(0.00421703 -0.000310617 0)
(-0.0723561 -0.0778728 0)
(-0.0112154 -0.00900308 -3.87353e-20)
(0.000248401 0.00526376 7.73042e-20)
(-0.00936328 -0.0172253 1.11412e-21)
(-0.0866048 -0.0376234 -1.24695e-19)
(5.64254e-05 0.000679905 6.7399e-23)
(-0.0146738 0.0174607 -2.66389e-20)
(0.0487905 0.0033862 -1.31491e-19)
(-0.0202119 -0.00207022 0)
(-0.105068 -0.00715928 -3.18229e-19)
(0.00195135 0.00280397 -1.01518e-19)
(0.0272381 0.0256517 -4.48308e-20)
(-0.0317344 0.00310879 -1.4602e-20)
(-0.0619668 -0.104993 -6.7285e-20)
(-0.0984494 0.0249032 -1.01872e-20)
(-0.00645507 0.00480027 -1.39599e-19)
(-0.350745 0.491726 -3.02409e-19)
(-0.0856649 -0.147873 3.06347e-20)
(0.00776691 0.0123697 -6.13396e-20)
(-0.0147686 -0.00027448 0)
(0.0246092 0.225574 3.83941e-20)
(0.0795403 0.0523412 1.01897e-21)
(0.000356448 -0.0735623 -1.74794e-19)
(-0.00904842 -0.0332264 -1.94278e-19)
(-0.00616203 -0.0608459 1.25244e-19)
(-0.0385889 0.00821339 5.86443e-20)
(-0.0303204 -0.0611015 -1.53274e-20)
(-0.00912404 0.0759835 -1.05976e-19)
(0.00882788 0.00576369 0)
(0.0409825 -0.0219637 2.21571e-20)
(-0.0095694 -0.0186482 0)
(0.0252575 0.00231399 0)
(-0.00242841 -0.0272388 0)
(-0.0324884 -0.0452732 0)
(-0.0372517 -0.169539 1.60511e-19)
(-0.0102166 0.0315326 -5.76453e-20)
(0.0732622 0.0389524 -8.49065e-20)
(0.000729867 0.00220128 -1.18691e-19)
(-0.000210784 0.332928 -1.61594e-20)
(-0.000593767 0.00286133 4.82059e-20)
(-0.00219962 0.00591368 7.5675e-20)
(0.0386347 0.102607 -6.09885e-19)
(-0.106084 0.0667352 0)
(0.0423496 0.0353033 0)
(-0.0584349 -0.201448 1.15638e-21)
(-0.0651092 -0.0190599 2.59591e-19)
(-0.0176478 0.34955 0)
(-0.162857 -0.273678 4.51031e-20)
(0.000449185 0.00524641 0)
(-0.00726769 0.00244324 1.44652e-19)
(-0.0139038 0.025327 0)
(0.000323466 0.00245963 0)
(0.00130315 -0.00321214 -8.12346e-20)
(-0.0049106 -0.00474818 5.35096e-20)
(-0.0488459 0.00632913 -7.73462e-20)
(-0.152521 -0.103478 0)
(0.0204717 0.0920714 0)
(0.212725 0.106111 -3.68028e-19)
(0.00602764 -0.0186985 -3.28611e-19)
(-0.0584518 -0.18536 0)
(-0.00548953 -0.0404333 5.94077e-20)
(0.0136616 -0.0125701 2.11454e-19)
(0.00206924 0.00136168 0)
(-0.186468 0.803694 2.71237e-21)
(0.000860344 0.00128252 0)
(8.25613e-05 -0.00373692 -2.28793e-20)
(0.128944 -0.0319323 -9.5173e-22)
(0.00216739 -0.00235372 4.68848e-20)
(0.000257018 -0.000136066 -1.93812e-20)
(-0.00336127 0.00989446 0)
(0.034709 0.200597 -1.73067e-20)
(0.017309 0.0124024 -2.88827e-20)
(-0.00591275 -0.00753407 -4.64154e-20)
(0.002199 -0.00644162 -3.2074e-20)
(0.00401542 -8.18377e-05 0)
(0.0449443 0.0036177 4.41129e-20)
(-0.0144203 -0.0036034 -6.35349e-20)
(0.0488726 0.00014679 1.55613e-20)
(-0.0101923 -0.0336231 2.71909e-19)
(0.00301275 0.00165453 -1.68669e-20)
(0.0273334 -0.00611599 1.23059e-19)
(0.0604551 -0.0585473 4.17623e-20)
(0.0285856 -0.00744408 -6.22094e-20)
(-0.0777053 -0.114486 1.13405e-19)
(-0.000462807 0.00233697 0)
(-0.0116617 -0.00147374 -3.07116e-20)
(-0.0215995 0.00445819 1.8596e-19)
(-0.0402668 -0.208679 0)
(0.000280252 -0.00014714 0)
(-0.0430489 0.0196688 1.3323e-19)
(0.0459893 0.00356182 9.0209e-22)
(-0.0943636 0.707513 -3.18896e-19)
(0.00227797 0.00178653 -4.78239e-20)
(0.000570685 -6.06994e-05 -1.3091e-20)
(0.0251283 -0.0168588 -2.07704e-20)
(8.11053e-05 -3.50976e-05 5.06191e-21)
(1.23418e-05 -2.74399e-05 0)
(0.012548 -0.233206 8.94382e-20)
(-0.080592 -0.0871321 -2.90418e-20)
(-0.0898665 -0.00923877 0)
(-0.0602872 -0.0481902 -4.27452e-20)
(-0.0251068 -0.0260192 2.01302e-21)
(0.000442007 -3.68697e-05 0)
(0.048701 -0.0674257 0)
(0.0368098 0.050432 -7.97714e-20)
(0.0249849 0.0346389 0)
(-0.0524356 -0.20092 0)
(-0.0520529 0.00803599 -9.7088e-20)
(0.000183288 -0.00012214 8.17997e-22)
(3.1388e-05 0.000419905 0)
(-0.00880093 -0.0016365 -2.56578e-20)
(-0.154461 0.0204297 3.46576e-20)
(-0.0917641 -0.0859173 3.42303e-20)
(8.49942e-05 0.000533986 8.02429e-20)
(-6.98475e-05 7.44074e-05 0)
(-0.078789 -0.0862819 -9.437e-20)
(0.00107424 0.00198853 3.27697e-20)
(0.000244145 2.57115e-05 -5.15541e-22)
(-0.00721381 -0.00396879 -2.57175e-20)
(0.000437616 9.9888e-05 -5.39512e-21)
(-0.157125 -0.035755 1.15927e-19)
(-0.000466573 -0.000104348 1.28923e-22)
(-0.0358497 -0.123148 -1.25083e-19)
(0.0165445 0.0456227 9.68359e-20)
(-0.0112945 -0.048397 0)
(-0.107 -0.19881 1.87882e-20)
(-0.0140799 0.0728132 7.60418e-20)
(0.125761 -0.299635 -1.31026e-19)
(0.0350192 -0.0133157 0)
(-0.0157235 -0.0760361 0)
(-0.0562674 -0.203945 1.69862e-19)
(0.0177036 -0.0472444 0)
(-2.16864e-05 -4.023e-05 5.99416e-21)
(-0.00528869 -0.00409448 -5.91941e-20)
(0.00916106 0.0058869 2.53911e-20)
(-0.00462133 0.00786298 -2.65992e-20)
(0.0283202 -0.0558552 -1.8087e-19)
(-0.00107375 0.0044779 0)
(-0.342899 0.257487 0)
(0.0528298 -0.0406537 1.67447e-19)
(-0.0061946 0.00314114 0)
(-0.0322359 0.191975 2.22274e-19)
(0.0227477 -0.0274661 0)
(0.043482 -0.243388 0)
(-0.0328265 0.00312663 1.63575e-20)
(0.000567717 -9.6312e-05 3.23965e-21)
(-0.00145908 0.0250941 5.5436e-20)
(-0.00651739 -0.00344959 -6.59948e-21)
(-0.0181452 -0.059739 -1.08669e-19)
(0.000430789 -2.12186e-05 2.56759e-20)
(-0.0155656 -0.00663668 0)
(-0.0174871 -0.0636405 -5.4544e-21)
(0.000173177 7.85927e-05 9.17871e-21)
(0.21163 -0.199545 0)
(0.0449601 0.00496717 0)
(-0.00963618 0.0130707 0)
(9.89756e-05 0.000540981 -4.92857e-20)
(1.23749e-05 0.000488547 -2.14311e-20)
(0.00373458 -0.00183436 -1.79333e-20)
(0.00904015 0.0191752 -3.86869e-20)
(-0.00231689 0.0205087 0)
(-0.0266287 -0.0305557 -1.55366e-19)
(-0.0237805 0.00330112 6.35087e-20)
(-0.00626191 -0.0138947 0)
(0.0827301 0.00936397 1.33473e-20)
(-0.00538838 0.0205017 0)
(0.000397501 0.00108249 -2.86795e-20)
(0.0085597 0.168038 -1.28759e-19)
(-0.0129113 -0.00919961 1.55809e-19)
(0.0184272 0.0263708 -3.99159e-20)
(-0.165179 -0.0571496 0)
(0.0326037 -0.0848071 2.73216e-20)
(-0.0612072 0.0206358 -2.58329e-20)
(0.0131042 -0.00995573 0)
(-0.0512185 -0.156989 0)
(-0.220688 -0.0693687 -1.59211e-21)
(0.000343359 -1.42093e-05 4.72372e-21)
(-0.0107907 0.0231293 0)
(0.0111535 0.0485888 0)
(0.13394 -0.14004 2.84417e-20)
(0.00570087 -0.0163036 5.19131e-20)
(0.000437597 -5.76238e-05 -2.68026e-20)
(-0.0951115 -0.334863 -7.75756e-20)
(-5.36112e-05 -0.000162695 -9.38082e-22)
(0.000203598 0.0045646 -1.10969e-19)
(0.000233532 -8.39867e-07 0)
(-0.10703 -0.333524 -1.30692e-20)
(0.00726346 -0.0655468 6.85398e-20)
(-0.00510294 -0.0073644 8.80382e-21)
(0.000249575 7.48404e-05 1.46772e-20)
(0.0399181 0.0482947 0)
(-0.0369149 -0.00860614 -5.79576e-21)
(-0.000462925 -0.000208758 0)
(0.0639779 0.0467942 2.77881e-21)
(0.00542994 0.018684 -1.93502e-20)
(0.0045934 -0.0172193 2.20781e-20)
(0.00209897 0.00296076 2.75379e-21)
(-0.0322573 0.00781095 -1.36034e-19)
(0.0281002 -0.0543134 5.20663e-19)
(0.06822 -0.0174833 3.2245e-19)
(-0.00214046 0.00437884 -1.03067e-19)
(-0.017971 -0.159472 0)
(-0.143286 0.734134 -4.4638e-20)
(0.264924 -0.0965185 0)
(0.00132481 0.0146198 2.2065e-20)
(-0.00964351 0.0108142 0)
(-0.106195 0.020915 0)
(-0.00897327 -0.00388283 0)
(0.0713161 -0.0446494 4.80287e-21)
(-0.00790494 -0.00231368 -1.40114e-19)
(0.0240914 0.0245164 4.19736e-20)
(0.0650493 -0.0122862 3.36564e-20)
(-0.00604747 -0.000564529 2.92312e-20)
(-0.0347643 -0.00643696 6.66159e-20)
(0.000237144 -0.000141347 1.03084e-20)
(-0.152589 -0.317309 0)
(0.12001 -0.0438414 4.43495e-20)
(0.018892 -0.0128738 2.811e-20)
(0.0174344 0.234387 -4.51304e-20)
(-0.357018 0.284642 -1.23817e-19)
(-3.10394e-05 -4.05506e-05 0)
(-0.162979 -0.0385567 3.1388e-20)
(-0.0677863 0.0429465 7.2352e-20)
(-0.000749749 0.00112036 0)
(-0.0291492 0.0048681 1.08262e-19)
(0.000181194 8.12285e-05 4.23409e-21)
(0.00181463 -0.0165829 5.47377e-20)
(-0.00647919 0.00575147 6.08686e-20)
(0.00940901 -0.022616 -4.97097e-20)
(-0.0805068 -0.0552277 7.02817e-20)
(-0.00543226 -0.0311612 1.96567e-19)
(0.0331641 0.113746 -9.88448e-20)
(-0.0353816 -0.0430249 -8.84217e-22)
(0.0126378 0.0240388 -2.06337e-20)
(0.0674299 -0.0310181 -1.98793e-20)
(0.0583015 0.0761794 -2.67741e-19)
(0.0184628 -0.0023406 0)
(0.216627 0.0584957 -5.81622e-20)
(-0.112923 0.434699 2.43058e-19)
(-0.00720704 0.000545245 3.88516e-20)
(0.0562682 -0.0142395 0)
(0.000260466 -0.000145866 2.17566e-20)
(0.04756 0.0258252 -5.44356e-21)
(0.0235744 0.0275501 0)
(-0.0120849 0.323438 -4.63043e-19)
(-0.0250722 0.0227825 6.10773e-20)
(0.0592479 -0.0464844 0)
(0.00151458 0.00208942 2.70885e-20)
(0.00370667 -0.0392419 6.21922e-20)
(0.00269101 0.00495708 1.75189e-21)
(0.123628 -0.039737 -7.19447e-20)
(-0.00820243 0.00511593 0)
(-0.0119788 -0.00257734 0)
(0.0199008 0.0111852 -4.96513e-20)
(0.000398523 -0.000145873 1.39932e-22)
(0.0508027 0.00245492 -5.16654e-20)
(0.00828851 0.00507281 -2.70859e-20)
(0.000927 0.00584725 0)
(-0.0881658 -0.0893062 -1.84437e-20)
(-0.00768797 -0.00172469 3.03026e-20)
(0.0164577 -0.0110628 0)
(0.00820371 0.219294 2.05495e-19)
(0.000429948 6.96231e-05 -4.68471e-20)
(-0.0118782 -0.001239 0)
(0.00122245 0.00327442 -5.42695e-20)
(-0.0103899 0.1599 0)
(-0.0750907 -0.209728 9.7886e-20)
(-0.215669 0.0428397 0)
(0.100781 -0.112057 6.4767e-20)
(0.0782945 0.131734 7.14842e-20)
(0.019251 -0.0104435 3.09872e-20)
(0.019831 -0.0211567 -1.18475e-19)
(-0.0207408 0.00363825 0)
(0.000979971 0.00119698 -4.46145e-20)
(-0.0018347 -0.00022322 0)
(0.0102557 0.00870716 -2.39313e-20)
(-0.135672 -0.341833 -2.22233e-20)
(0.0620027 0.0704237 1.65971e-20)
(0.0180067 0.00083176 4.5623e-20)
(0.0790717 -0.0178715 -3.60161e-19)
(-0.0130082 -0.00284377 -6.32001e-20)
(-0.0806552 -0.0580874 0)
(0.00555555 0.000346083 -3.617e-20)
(-0.342227 0.395426 1.9783e-19)
(0.0963824 0.230459 -8.87734e-21)
(-0.00881267 -0.0386188 -1.10531e-20)
(0.000431358 4.21426e-05 -3.70056e-20)
(0.00147827 -0.0210537 0)
(0.226492 0.0549895 2.82932e-19)
(0.0158122 -0.00997785 6.99218e-20)
(-0.000201714 0.00241514 0)
(-0.00920586 -0.0107146 6.33249e-20)
(0.000286595 -0.000182202 0)
(0.025064 0.00125687 6.10917e-21)
(0.00596259 0.0169723 7.51292e-20)
(-0.00211734 0.000798965 0)
(7.0018e-05 0.000478508 1.6386e-20)
(-0.000137935 0.000296119 -2.41894e-20)
(-0.000490785 0.000816775 2.6673e-20)
(0.00412267 -0.0149148 1.38551e-19)
(-0.00334533 -0.0166936 0)
(0.00335445 -0.00102665 1.84618e-20)
(-0.165902 -0.0452099 0)
(-1.22772e-05 0.00596154 -3.89419e-20)
(0.0102297 0.00584089 0)
(-0.0243562 0.00585443 -6.32552e-20)
(0.05252 -0.0954263 0)
(-0.0379386 0.129221 0)
(-0.00150459 0.000409075 -1.06903e-20)
(0.0819197 -0.0157058 5.02971e-21)
(0.000397213 0.00804464 1.66433e-21)
(0.0300847 0.0816595 0)
(0.0213373 0.057653 1.43418e-20)
(0.0295985 0.0588596 1.44978e-20)
(-0.0907713 -0.0367179 4.74306e-20)
(-0.00232172 0.0077363 -4.61383e-20)
(0.011753 0.0107201 0)
(-0.0141711 -0.00711675 -7.47301e-20)
(-0.0826283 -0.244085 -1.48835e-19)
(0.000910766 0.00328855 8.8352e-21)
(-0.00167878 0.00043746 -5.17023e-20)
(0.00765824 -0.00162635 0)
(-0.00481149 0.00872431 1.48567e-20)
(0.0206181 0.00322796 0)
(0.000230016 1.70544e-06 0)
(-0.038428 0.0177627 6.4581e-20)
(-0.00522233 0.00357998 0)
(-0.000410873 0.00100467 0)
(0.0044478 -0.020068 -1.70891e-19)
(0.00845402 -0.0174197 0)
(0.255185 -0.115489 -3.02691e-19)
(0.025663 -0.0852153 7.18128e-20)
(-0.161586 -0.00840085 -2.57182e-20)
(0.091008 0.268788 -1.80369e-20)
(0.0567301 0.0267507 0)
(0.0292127 -0.354588 4.28817e-20)
(0.0533475 0.0235555 8.5227e-20)
(-0.00322054 0.00662961 -3.28947e-20)
(0.00873648 0.0333936 0)
(-0.00501593 0.00476564 2.17218e-20)
(-0.059068 -0.0520538 3.93929e-20)
(0.0169632 -0.00582365 4.59033e-22)
(-0.000137112 5.26661e-05 2.9948e-20)
(0.064334 -0.0120053 -4.52844e-20)
(0.140402 0.0139618 6.29157e-19)
(0.00148853 -0.0111585 4.5754e-20)
(-0.0117369 0.000407155 -7.77554e-20)
(-0.0443552 0.133787 7.96953e-19)
(-0.358447 0.653078 7.86341e-19)
(-0.0784726 -0.104738 -1.29786e-19)
(0.108566 -0.318261 -1.37508e-19)
(0.0702908 -0.0100954 2.65598e-19)
(0.020571 0.0292276 -4.30043e-20)
(8.42838e-06 0.00030266 1.65016e-20)
(0.000992234 0.00134621 4.70209e-20)
(-0.192606 0.0119396 2.1536e-20)
(0.125926 -0.0509478 -4.60136e-19)
(-0.000170536 -0.14172 0)
(-8.98219e-05 0.000425417 2.4826e-20)
(-0.0343254 0.033858 1.25898e-20)
(-0.0106238 0.00202591 0)
(0.033626 0.0370644 8.27714e-20)
(0.0464069 0.00287933 0)
(0.00191923 -0.0244723 2.31924e-19)
(0.000566139 -0.00084062 0)
(-0.00160279 0.00175515 0)
(0.018822 -0.034281 0)
(0.000645532 -0.00105522 0)
(0.0006273 0.00212603 6.97736e-20)
(-0.145632 -0.121938 2.19663e-20)
(-0.00106293 -0.0152131 -3.24098e-20)
(0.000215758 2.89471e-05 3.12488e-20)
(0.0286787 -0.131258 0)
(-0.362923 0.357499 1.52918e-19)
(0.000339235 0.00583188 0)
(0.00778745 -0.057115 1.57915e-19)
(0.00185397 -0.133087 -2.55768e-21)
(-0.0299601 0.150831 4.71615e-19)
(-0.0322807 0.0460312 -7.69072e-22)
(0.0660897 -0.0239537 2.14711e-20)
(-0.121991 -0.0891741 -5.51646e-21)
(0.0228275 -0.0250183 0)
(-0.0431481 0.0100407 0)
(0.0495036 -0.064031 9.1548e-22)
(-0.00602936 -0.012354 -6.83715e-21)
(-0.106168 -0.162071 2.48051e-19)
(-0.186773 -0.257021 -1.23405e-19)
(-6.70883e-05 -3.69214e-05 -4.95452e-22)
(-0.0154678 0.322106 -1.64018e-21)
(-0.195692 -0.0952685 -1.28188e-20)
(-0.00131215 0.0171271 0)
(0.0379099 -0.00541021 -4.83633e-20)
(-0.00201626 0.00129189 3.42026e-20)
(-0.0415427 0.0191897 6.68399e-20)
(-0.00141425 -0.0212748 0)
(-0.000182497 8.65821e-05 2.70371e-20)
(0.00703752 -0.00316134 2.9524e-20)
(-0.00628739 0.000208527 0)
(0.086602 -0.28414 4.76691e-20)
(0.0398059 0.0300612 1.51112e-20)
(-0.297415 0.050601 -4.5889e-21)
(-6.32974e-05 0.00170931 -3.37616e-20)
(-0.0278978 -0.22355 -8.71107e-20)
(0.017428 -0.00222765 -4.94427e-20)
(0.00846886 0.00670675 7.80495e-20)
(-0.188135 -0.00486075 -6.26679e-20)
(0.000774316 -0.000904674 -3.56747e-20)
(0.0329759 0.132162 -2.88732e-20)
(4.52999e-06 -0.0246128 -1.34129e-19)
(0.028344 0.0436468 0)
(-0.0887385 0.00519199 1.21204e-19)
(0.000285374 -6.67097e-05 0)
(-0.0544583 -0.0821897 -5.90865e-20)
(0.0477687 -0.104584 0)
(-0.0353222 0.00932316 1.3775e-19)
(0.00391646 0.00934144 0)
(0.151046 0.139466 8.63327e-21)
(0.00558155 -0.13853 0)
(-0.0925168 -0.234561 1.11689e-19)
(0.0659299 -0.172587 0)
(-0.169169 -0.00408934 1.66804e-19)
(0.000483562 -4.67001e-05 0)
(-0.0997366 0.180584 2.39596e-19)
(-0.00188802 0.00744231 6.76479e-20)
(-0.0111424 -0.00753088 -3.69057e-20)
(-0.00741198 0.000164993 7.23594e-20)
(0.0045572 -0.0250244 -1.40797e-19)
(-0.159634 -0.0323714 -2.35242e-20)
(9.55292e-05 -0.00023521 1.82039e-21)
(0.00883987 -0.00189153 -1.01993e-20)
(0.0268903 -0.128796 -3.42838e-20)
(-0.137266 0.0107069 0)
(0.000340469 -0.00356157 -6.26899e-21)
(0.0562992 -0.0328814 0)
(-0.00909534 -0.140269 3.02141e-20)
(-0.000579394 0.00106033 0)
(0.00675799 0.00769704 0)
(0.000732012 0.00358429 3.06486e-21)
(-0.0356781 0.0530913 0)
(0.0280078 0.0700732 2.90838e-20)
(-0.0696381 -0.0103971 -3.63065e-20)
(-0.00483716 0.000481706 0)
(-0.00170825 0.00249347 -6.85422e-21)
(0.0507024 0.0539345 2.00157e-21)
(0.000441065 0.000809433 -7.25802e-20)
(0.26833 0.129233 0)
(0.102 0.0511677 3.81122e-19)
(0.00729551 -0.0205501 0)
(-0.052721 0.125025 1.43697e-19)
(-0.0259611 -0.0106362 2.71976e-20)
(0.000380012 0.000127805 0)
(-0.138391 -0.0912621 5.18333e-20)
(0.00824915 -0.0413483 -1.76764e-20)
(0.00165551 -0.0184962 -2.19068e-19)
(-0.000621704 0.000830972 -9.15921e-20)
(0.00884904 -0.00874301 2.67571e-20)
(-0.117596 -0.280717 -1.2385e-19)
(-0.0307931 -0.30567 3.78346e-20)
(0.0406595 0.0152064 0)
(-0.0517906 0.253568 4.26984e-21)
(0.0012391 -0.00525897 2.66065e-20)
(0.230748 -0.310967 0)
(-0.0959302 -0.0194111 6.28545e-20)
(-0.00353778 0.00744059 0)
(-0.0327106 0.0163539 5.8578e-20)
(-0.0021239 -0.0151002 0)
(0.00236866 -0.0224964 -6.97705e-20)
(0.120153 -0.117425 0)
(0.000210588 2.10899e-05 0)
(0.00110253 0.00275392 -2.72462e-20)
(-0.0937074 0.228824 5.39289e-21)
(-0.00281311 0.00721778 4.03213e-20)
(-0.00455365 0.00907802 0)
(0.00701966 0.00976353 0)
(-0.0687993 0.123642 0)
(0.0469973 -0.0522069 -1.91284e-20)
(0.043038 -0.0191425 -2.27227e-19)
(0.0244383 -0.00417146 2.33424e-19)
(-0.041863 -0.353823 -5.3173e-21)
(-0.0145965 -0.0852096 6.18511e-21)
(0.000428947 2.23892e-05 3.01955e-20)
(0.0339617 -0.0606096 -7.23196e-20)
(-0.000236303 0.00916002 -5.80201e-20)
(-0.0321302 -0.0445232 -1.87678e-21)
(-0.114477 -0.0177647 -5.71326e-20)
(-0.0388681 0.164213 -8.82938e-19)
(0.000252492 0.000825766 3.87482e-20)
(-0.128708 0.0138314 0)
(0.00479881 -2.25736e-05 4.74829e-20)
(0.000141515 -5.08141e-05 -5.80772e-21)
(0.0764348 -0.0237311 0)
(0.0242505 0.00440023 2.17041e-19)
(-0.0808656 0.18355 -2.76497e-19)
(-0.00465009 0.0169113 -4.68391e-20)
(-0.00759005 0.00823028 -6.5663e-20)
(-0.00199583 -0.0137042 3.83752e-20)
(0.000314249 4.32713e-05 0)
(0.0421205 -0.0214627 6.5762e-20)
(-0.000430459 -0.000141774 0)
(0.00160217 0.00298377 -3.04776e-21)
(-0.0210966 0.00390126 -6.25476e-20)
(0.0138917 0.0214087 0)