/*--------------------------------*- C++ -*----------------------------------*\
| =========                 |                                                 |
| \\      /  F ield         | OpenFOAM: The Open Source CFD Toolbox           |
|  \\    /   O peration     | Version:  v2012                                 |
|   \\  /    A nd           | Website:  www.openfoam.com                      |
|    \\/     M anipulation  |                                                 |
\*---------------------------------------------------------------------------*/
FoamFile
{
    version     2.0;
    format      ascii;
    class       volScalarField;
    location    "450";
    object      ddt0(omega);
}
// * * * * * * * * * * * * * * * * * * * * * * * * * * * * * * * * * * * * * //

dimensions      [0 0 -2 0 0 0 0];


internalField   nonuniform List<scalar> 
14479
(
-0.752928
-0.0169358
-0.614748
1.67307e-05
0.0144435
-0.000139817
1.88986e-05
0.0136988
0.00478402
0.212241
-4.77062e-05
-0.000417536
0.00245069
-0.0795357
-0.051656
0.000162027
2.33537e-05
-0.0527549
1.46543e-05
-0.000468709
-0.00183055
-0.00297295
-0.268833
0.291304
-4.70808e-05
1.60336e-05
0.134796
0.0118296
3.73087e-05
0.0557063
0.581814
0.14198
-0.0244218
-0.0184668
-0.659959
4.07117e-05
-7.81888e-05
0.000152955
0.0541551
-0.000343161
3.92183e-05
1.16035e-05
0.0111032
0.0404007
-6.9437e-05
-4.9916e-05
1.12447e-06
-0.205478
0.0223362
-1.67814e-06
1.7646
0.00436463
1.62733e-05
-5.16871
-0.20359
-0.00189081
0.00289423
3.44283e-05
-0.0355197
1.47767e-05
3.71594e-05
5.19037e-05
0.00538385
5.95039e-06
1.07494e-05
0.917275
-0.105873
-1.00986
1.54834e-05
4.48741e-05
3.96203
-2.58489e-07
2.49811
-0.00550582
1.49415e-05
3.44002e-06
-0.00137513
-0.00631788
-1.3641e-05
-0.101601
1.74143e-05
-0.00600407
0.0761694
-0.358051
-0.36271
-0.000164563
0.00014801
1.87496e-05
0.00822702
0.000160992
0.0251322
-0.705366
-0.360027
4.68679e-06
-0.0152408
-1.18945e-06
-1.99682e-05
5.50352e-05
8.48453e-06
-0.0585602
0.028941
-0.000467285
-2.60912
-0.916377
-0.978609
-0.0472308
-0.000769988
-0.0356631
0.593303
-0.0488048
0.00181021
-0.0496944
0.0171681
-0.000447465
-0.105725
0.0040371
-6.17856e-07
-0.530845
3.41802e-05
6.92228e-05
2.1065e-06
-1.26051
-0.414796
6.39889e-06
0.00249845
0.0125426
9.14436e-05
3.53817
-0.000453703
0.116492
-0.162547
0.151339
-0.651425
-0.483854
-0.00446747
-0.00212329
0.0675316
-0.00306241
-0.942885
-1.80914
-0.0359138
0.646778
9.69883e-05
-0.0221638
1.6285e-05
-0.0125079
0.786704
3.6694e-05
-0.167084
0.000741077
0.00291533
-8.76527e-06
-0.0301122
-7.40371e-05
1.37782e-05
9.03645e-05
0.0252812
-1.48981
-0.0129174
-0.00212646
-0.00256135
2.26411e-05
-5.90921e-06
0.000584907
-0.0371354
8.18352e-05
-1.36252e-05
-0.00239127
-0.106464
-0.0177905
0.256033
7.66131e-05
-0.000320533
0.000950108
1.47174e-05
0.000404144
-0.00157389
-6.05384e-06
-0.0230409
-0.434698
0.00385297
-6.18556e-05
-0.0694642
0.0339109
-0.012209
0.000275066
0.430811
0.918233
9.36009e-05
0.999659
2.92785
9.53809e-05
0.889013
-0.0049931
7.04265e-05
-0.000142153
-0.000103232
-0.0128827
-0.000866256
-3.57048e-06
0.00265021
0.000335854
-0.00283671
-1.22961e-05
-0.000213762
-0.00108353
-0.0071412
-0.00060716
2.33745e-05
-0.001819
-0.000448381
3.38064e-05
-0.000439767
-0.000799169
-0.321177
-0.0179317
-0.451685
-0.0153065
0.422912
-0.010567
-0.048422
0.230908
8.39814e-05
0.0568199
0.852641
7.59128e-06
-1.11939
-2.96055e-06
-0.023652
0.000597323
7.40307e-05
-0.000425757
0.163213
-2.19686e-05
-0.000149755
1.86545
0.000296813
0.00826834
0.969889
1.45946e-05
-0.000199135
-1.83941e-06
0.004998
4.86109e-05
0.000717681
-0.0082848
0.263807
-0.069996
6.40383e-05
1.7155e-05
0.0245712
0.00554762
0.064072
0.154684
0.217466
2.87627e-05
9.43651e-05
2.56192e-05
0.00406542
8.98943e-06
-3.45459e-06
-0.000678503
1.12619e-05
-4.96324e-06
-5.62708e-07
-0.000496968
-8.32896e-05
1.72971e-05
-0.00602401
-0.00155751
-0.0250387
-0.000700963
-1.07199
0.000987692
0.00245898
-0.0589039
0.0108625
4.4068e-05
-0.000913695
0.000115003
-0.00557276
4.00036e-05
1.10697e-05
0.000144807
0.0632535
-0.164394
-0.00835552
1.22178
-0.0012985
-0.326667
0.193423
2.19925e-05
0.00236165
0.00898871
0.000305267
0.035736
0.676674
6.20972e-05
-0.00237667
-0.00202742
2.95887
-0.667762
-2.46463e-07
-4.95618e-05
0.00025142
-0.397364
-6.67989e-05
3.61762
1.85329e-05
-0.0516513
0.000668893
2.48952
5.59882e-05
-0.000151053
-0.000915537
-0.533383
-0.0017323
4.29554e-06
-0.00165963
-3.38814e-06
2.6716
0.0129737
0.0547665
0.017957
3.40437e-05
2.02526
-1.57351
-0.0472761
0.00311417
0.000581542
-0.20832
-8.98561e-05
0.000676252
0.00224654
0.00022275
5.08407e-05
-0.686545
-0.000403785
0.000293992
4.85867e-05
4.57356e-05
-0.00436736
1.7944e-05
-0.00160157
0.013849
-0.00159007
-0.447671
-0.00181585
0.0263237
-0.0178506
7.09297e-06
-0.0691837
1.62458
-0.397188
3.35578e-06
-0.328986
-0.45301
2.1774
3.15841e-05
-1.0067
0.000108522
-0.000979955
0.906274
0.0172475
-1.02847e-05
0.000158449
3.17262e-05
-3.94221e-05
-0.0153544
3.76576e-05
0.000298566
0.0562221
-0.000343937
-0.00669549
0.0570015
-0.00496146
4.87585e-05
0.00491905
-0.000656366
1.55051e-05
0.00102457
-0.0084499
7.0261e-06
0.000858261
-1.32292
-0.111797
2.72957
3.67248e-05
0.223349
0.000187207
0.00539739
-0.0615533
-7.78863e-05
-0.482885
0.0428475
-0.00267239
-0.000120413
0.0198655
0.00581975
0.0473337
0.00208531
0.00630958
-0.00434638
-0.130077
-0.000556193
0.000390271
-0.00173767
0.00123071
1.98746
0.00107873
-0.0221547
0.127717
-0.00117678
0.00705552
3.78047e-05
-0.162321
2.79809e-05
4.25989e-05
0.419342
-0.00264889
0.0468453
0.331494
3.08422
-0.169129
-0.362611
-4.72606e-06
-0.000162948
-0.00123392
7.32913e-05
-4.35641e-05
-0.000152936
-0.0045047
0.0149477
0.00304543
-1.74047
-0.00107362
0.372471
-0.242051
-0.00482588
3.45304e-05
-0.780695
3.81318e-05
7.22316e-06
-1.16225
-1.83201e-05
-5.22671e-06
-3.00525e-05
0.0284701
0.00100416
-0.000205814
-6.34889e-05
4.16024e-05
0.00212563
-0.000379489
0.00168478
0.00154163
3.78049e-05
0.238721
-0.00315718
-0.364895
-0.00815768
4.89799e-05
-0.000164762
-0.000790796
-0.026364
-7.60315e-06
-0.00382926
2.93626
-0.929628
2.74667e-05
-2.9232e-06
0.0506636
-0.000692162
-0.000217078
-0.0532319
0.478012
0.00733567
-0.156271
-0.00178669
-2.41272e-06
0.0600841
0.00333202
0.230675
-0.0120835
-0.0038168
0.000140568
-3.1516e-05
-0.000244005
-0.118044
-0.0515712
1.76129e-05
-8.76356e-06
0.0348275
3.89375e-05
2.75251e-05
-1.64383e-05
-2.41695e-05
0.132385
-3.64036e-05
-0.00701858
-0.000608337
-0.207774
0.4087
-0.00381771
2.01587
-0.173577
0.191947
-0.473538
-0.0038677
-0.000238121
-0.000155913
0.000210474
9.83248e-05
-0.0293587
5.01803e-05
-0.520145
0.339015
-7.20181e-05
0.057665
-0.163825
-0.049104
-0.00022182
-1.5189e-06
-0.000388213
6.8127e-06
0.00742939
3.51355e-05
-0.000586732
-0.0186971
2.94546e-05
1.44121
3.23027
-0.000170664
1.67472e-05
7.2617e-06
6.63132e-05
0.000124216
-0.00133196
-0.00141955
-0.000896892
-0.00188962
-0.438028
-0.00156639
1.78617e-05
-0.00621523
-0.000834284
-0.0122671
-0.328866
0.0544266
0.0133904
0.000249521
0.206347
-0.303544
2.79376e-05
-0.00170403
0.0164975
0.0155212
0.00217756
1.30386e-05
0.719927
-0.000348762
4.33547e-05
-6.86817e-05
2.01147
0.00951562
-0.000319742
-0.000132427
-0.00239092
-0.00333392
2.31831e-05
-0.0127926
0.000159926
-0.000993304
0.000736293
-0.00212728
-0.391213
2.28786
1.18321e-05
0.148554
-0.686287
-3.85888
-0.000201595
-4.14326e-05
0.115805
0.000242726
0.102071
0.000100456
0.00237649
0.0050616
-0.000132907
-0.00281769
0.000186582
0.0397832
0.00762743
-0.00126636
0.0229576
-0.506873
-4.98836e-06
-0.252406
0.0453321
3.51278e-05
-0.00207465
-0.000897643
-0.000112194
1.31045e-05
-0.0225886
-0.519294
0.00149168
0.00216451
-0.0129117
0.00131233
-0.268104
0.077982
0.000336415
-1.83191
-0.635889
5.83425e-05
0.317789
-1.73013e-05
-0.0295488
0.220712
-0.617465
-0.000480349
-0.00581461
3.92424e-05
0.0139719
0.037875
0.0071518
8.29755e-06
-0.000247077
0.000962093
5.72742e-05
-2.67342
0.000388084
7.19323e-05
0.0750177
0.000312754
0.0683321
0.00134178
-5.84872e-07
-0.000641478
4.25254e-05
0.915519
-0.430017
-0.135311
0.0298901
0.00119394
-0.000365966
0.00363799
-0.000536746
1.58246e-05
3.17735e-05
-3.99796e-05
-0.0649204
-0.00374718
0.000720608
-0.6089
-0.0003241
0.0573343
8.33738e-05
-0.491367
-0.0713043
-0.780616
0.000416893
-0.000388372
-1.71375
0.0753504
4.59385e-05
-0.000430189
-5.40522e-06
0.000385924
-0.000350269
2.40438e-05
1.51043e-05
4.11856e-06
3.67021e-05
-0.00193506
-0.00162754
0.00012148
-0.308094
9.27413e-05
0.000233846
-0.00165979
0.218319
1.11771
3.33088e-05
-1.27279
-4.34771e-05
-0.00578345
0.150447
0.220944
0.00420667
0.000107251
-3.41436e-05
-0.00108874
0.0816458
-0.000138285
-9.40516e-07
0.000127298
3.92036e-05
0.000126659
-0.000495163
-0.00426717
5.64727e-05
2.31209e-05
-0.00298024
-0.00118529
0.652835
-0.705524
-0.189229
-0.12212
0.205678
1.85725
0.190538
3.2072e-05
0.0463872
0.00298941
-0.108541
0.000576382
2.36949e-06
0.0713093
-0.172608
5.5728e-05
-0.000608551
1.26011
-0.43533
-0.00171554
2.38773
0.706811
0.00138312
1.09568e-05
1.56289e-05
0.100744
-0.34583
-0.0733142
6.98931e-06
-0.00696221
-0.00037434
0.00315284
0.138856
0.00180336
-1.71035e-05
5.63579e-05
-0.00620135
-1.78982e-05
4.84955e-05
0.305215
-0.000860543
0.000269379
0.162401
-0.535805
0.000137401
0.00908323
-0.101679
0.965061
-0.00638204
-0.759226
-0.548516
0.0262225
-0.00351178
0.269856
0.00238569
-2.70506
0.0954389
5.38132e-05
0.00320089
-0.267578
0.000330836
0.48438
3.42709e-05
-0.00451283
0.000719758
2.29588e-06
0.0002703
9.6452e-05
1.27525
-0.0369037
-0.289733
2.12524e-05
0.345056
-0.000395153
0.000188516
-0.0278107
-1.70109e-05
0.0141364
0.00128264
-0.00096902
-0.0349299
-3.11538e-06
-0.0727671
0.47096
-0.00264595
0.00018061
0.00823904
0.21866
0.0431124
-0.110962
0.0393871
-1.92175e-05
-0.0276894
0.000180081
-0.000654261
-0.000236307
-0.002061
-0.233392
7.02287e-05
0.000299552
0.00921871
-0.118082
1.66567e-05
-0.00622638
-0.0343063
5.89866e-06
0.00141904
-4.09447e-05
-0.00265786
0.00519443
-0.0616843
-0.000125399
3.66784e-05
-0.00888364
9.29257e-06
-2.01796
-0.787442
-0.000639542
1.70004
-0.000990959
-3.40717e-06
-0.423504
-0.00484336
0.00127022
1.12068e-05
-0.00145183
2.52539
0.895356
-0.134848
-0.266699
-3.57791e-05
3.26392
0.00630539
5.44682e-05
-0.00128146
-0.0010466
0.00184741
-0.610271
6.88173e-06
5.03802e-05
2.65637
1.91351e-05
5.61038e-05
0.000267659
0.849804
0.00045215
0.459267
0.572495
0.22376
-0.0145152
0.000464408
0.0390146
0.000416096
-0.00653494
0.000542905
0.888194
7.13614e-06
-0.0862761
7.31738e-05
-8.60358e-05
0.117044
-0.682535
-0.0208685
0.00178487
-0.000196381
-0.000491278
0.000891332
-0.00165073
2.05828e-05
0.000575294
4.78107e-05
0.0388747
4.59097e-05
-0.00035852
-3.29311e-05
1.27998
-0.0356441
0.625793
-0.0013583
-0.112036
0.000669328
7.46877e-06
-0.00713311
-0.207447
-0.0970746
3.88119e-05
4.04268
-1.80345e-05
-0.00198801
4.90462e-05
-1.00511
-2.0736e-05
-3.36956e-05
-4.68219e-05
0.000711586
0.00302437
-0.00101004
-0.120299
0.000401265
0.240901
-2.40949e-05
0.000409855
1.13895e-05
-5.05683e-05
-0.00122872
3.34973e-05
0.0308649
-0.00272898
-0.00023915
-0.00334663
-0.00269786
-0.000830872
0.00737683
-0.0695927
-0.00260412
0.000480374
-0.61124
0.00388307
0.39686
-0.130483
-5.85252e-05
2.7795e-05
-0.125504
-0.000344574
0.0460418
-1.73448
-2.66079e-05
8.62712e-06
2.43035
0.354347
0.002016
-0.0865227
-6.35033e-05
0.00340445
0.309102
-0.478039
0.00165301
2.15426
0.260715
0.290198
-0.0780102
0.59314
7.05002e-06
0.174131
0.0105485
-0.000568874
-0.000267974
5.7783e-06
-0.00111644
-0.00206358
0.0115871
-0.127802
1.61559e-06
2.49235e-05
0.000762787
2.21474e-05
2.6808e-05
6.75252e-05
-0.00751674
-0.000171779
0.000150371
0.000501271
-0.00332611
3.71079e-05
-0.000218163
-1.10344
2.01019e-05
-0.000136368
0.26787
-6.51442e-05
-0.00402602
0.336979
1.75947
-0.000355155
-8.13e-05
-0.0139009
-0.00100377
-0.325435
1.29033
-0.132971
0.000754876
0.00816532
-0.000746503
-0.000937248
1.65865
0.168941
-0.000189426
0.0087297
1.21395e-05
-0.00228853
0.000112926
-0.314025
0.00961214
9.66102e-05
0.23597
0.000966878
4.07424
-1.22577
0.264999
-0.186618
4.26518e-06
0.00790297
9.42247e-05
-0.0830535
-1.07735
4.48132e-05
0.0431431
1.5037e-05
-0.000245923
-1.05345
4.853e-05
0.51404
-0.000349565
0.000807072
-0.0402003
-0.432482
0.000553098
-0.00132415
-0.00103437
-0.000564715
-0.000745702
0.000590387
0.507178
-5.67635e-05
-0.000227734
-0.104456
-0.702089
0.000722437
0.278561
-0.00632773
0.262767
1.37041e-05
-1.27602
-1.40115e-06
-0.00499533
-9.44008e-05
1.59373e-05
-0.006236
0.000793038
-0.0158322
0.00114105
0.0592007
-0.00271212
6.5563e-07
-0.00318898
-0.0295197
-1.12399e-05
-0.00182892
1.3154e-05
0.629108
-4.30797e-06
-0.000100692
-0.00127066
0.000149711
3.1941e-05
-0.417011
0.00111683
-0.0449447
0.00707962
4.81094e-05
0.000396943
0.19132
2.30063
-0.0547806
-1.33012
-0.00173439
-0.0207894
-0.548709
-0.000494669
0.000411733
-7.42884e-06
-0.0374851
-0.231543
-0.072014
-0.503679
-8.07159e-05
-12.5014
3.31977e-05
1.74751e-05
0.275192
0.0119694
0.915014
0.264579
0.0798103
-0.0367057
1.01916e-05
-0.000190141
0.0174236
-0.0343731
-0.846812
0.00867085
0.329485
0.362783
-0.0012755
-0.000425515
0.00339527
1.81401e-05
-0.00126219
-0.000141164
0.00322022
0.0425122
-0.00699739
0.00537386
-0.0645761
5.12941e-05
0.000103684
0.00852271
-4.84901e-05
-0.00287033
0.000573151
-0.122247
-0.0798433
0.00626995
0.000119232
0.0593497
-2.01286
-0.0827905
0.0459958
-0.000102742
-0.0157809
0.169237
0.00532297
-5.48575e-06
-7.42191
-0.0832387
-0.687179
-0.230743
0.00697256
0.000260211
-0.00402465
-0.0204762
0.0209171
-0.00140239
0.00825534
-0.00500152
0.0529563
-5.55571e-05
0.530628
-0.000677447
-0.000538814
0.00100437
1.01222e-06
-0.000954937
-7.10996e-06
-0.000117483
-0.00235483
0.759242
-0.156859
0.339358
0.5997
0.00850625
-0.000143703
0.00355875
-0.00218857
-1.63586e-05
-0.00180543
0.0311608
-0.00255915
0.00021513
-0.105398
0.000279491
0.161186
-0.00126517
-0.000426887
-1.32007
-0.00163306
0.00114339
-0.121151
0.000329478
0.319983
0.00746436
2.83104e-06
0.0350929
-0.562118
0.000369788
0.00813997
-9.15904e-05
0.000668143
0.0100346
0.00269907
0.00677685
-0.00136359
3.54344e-05
0.0106905
-0.000582312
-0.0817122
-0.00092172
0.0010464
0.00120861
5.88846e-05
1.32003
1.18922e-05
0.00492283
-2.54665
0.2026
-0.230682
-0.000521115
-1.11176
-0.00102185
-0.000185701
-0.0113355
-0.00485406
-1.234
-0.000519277
-0.0555912
-0.00139705
0.0090826
-0.000178603
-0.551653
-0.000374687
0.0078992
0.00035408
-0.0113823
0.00031947
-3.9931e-05
-0.000872116
0.0197933
4.96641e-05
-0.00427859
-0.000280712
0.113276
-0.00554262
-0.0445927
-0.390777
0.460141
-0.576745
0.00451203
0.0271601
-0.00013397
2.55542e-06
-0.000269462
1.20695e-05
4.56586e-06
-0.00726405
-0.421112
0.214897
3.2857e-05
-0.536798
-0.716598
-0.000718255
-0.00057381
-0.108665
0.915211
-0.0897802
0.254905
0.00141003
-0.00805452
0.0126641
0.00115955
0.000435239
0.128566
-0.000330963
-1.04887e-05
-0.0166059
4.2265e-06
-0.00239683
-0.000139273
-0.0158786
-0.0236872
-0.00201434
-0.00434417
0.19947
0.00639104
-0.000601501
-0.00171499
0.88052
-0.47572
2.0428e-05
-0.124764
-0.0542715
-0.00191381
0.0478948
-0.0333634
-0.000282236
1.80012e-05
-0.000755538
0.0714797
0.00137856
0.266064
0.0289385
0.0979734
-0.000592915
-0.00321616
9.99754e-06
0.000625516
2.42274
0.0170277
-0.00793798
-2.11634e-05
0.000552326
0.00120361
0.00702845
2.62525e-05
-0.0101132
0.144529
-0.000251342
0.299493
-0.00970935
0.282004
-0.000742975
3.30762e-05
-0.000923929
0.391979
0.0332318
5.50486e-05
-1.16189
-0.000998198
0.000355534
0.300098
-1.86904e-06
-0.139818
0.000164992
-0.00010096
-0.00343692
-2.65171e-05
0.0358479
0.00051617
-6.12933e-06
-0.000886081
-1.4162
0.000267106
-0.0023977
0.000355015
0.00201809
-0.0012513
6.51254e-07
-6.88296e-05
1.45819
-0.0407387
1.75278e-05
-0.000656791
6.55764e-05
-0.01136
-4.09347e-05
-0.165464
-1.61862
-0.128209
-0.00113336
1.79172
-9.37541e-06
0.0072153
3.47717
0.0480217
-0.000958316
0.000431458
0.0913932
-0.0122738
-0.687658
0.000136997
-1.15566e-05
-0.00280134
-0.00235156
1.19945e-06
3.91568e-05
0.00926339
-0.232369
-0.000208618
-0.118165
0.000381222
0.0487498
1.14949e-05
-0.000525413
-7.21664e-06
2.51492e-07
0.482457
0.00217806
0.0883453
0.000140537
-0.00874249
-2.61871e-05
-0.000613861
2.59187e-05
-0.134698
1.22126
-0.218255
7.09799e-05
0.0341746
0.00617994
1.74445e-05
0.297051
9.9577e-05
0.0545612
0.202533
-0.000289455
0.013291
-0.000917115
-0.0255784
-0.01066
2.83201e-05
4.45773e-05
0.000997199
-0.0172464
0.91304
0.000801711
-4.22142e-06
-0.0752759
-0.044387
1.89474e-07
-8.49804e-06
0.0223775
-0.00374431
0.000921297
1.24091
-6.29782e-06
0.000642885
-2.47368e-06
-2.39272e-05
0.0118785
0.00817679
-0.247538
-0.0401745
-0.00720899
6.41049e-07
3.16109e-05
3.41752e-06
0.000224306
-0.00408473
0.0604944
-0.00434822
0.00175457
-0.0475013
1.19227
0.00235986
6.88374e-05
-0.244832
0.00439733
-0.931192
-0.000323248
0.526772
0.00223421
0.412305
-0.594329
0.00394317
-0.000144327
0.897227
2.86658e-05
0.493153
0.00233167
-0.00455699
-0.00908003
-0.11302
-1.34822
0.00157172
-1.79356
0.00206128
-0.0706839
-0.032518
0.690418
-1.45345e-05
0.343002
0.000246052
-0.00118853
0.00244944
0.00186493
0.027728
3.79089e-05
0.000845396
0.0255541
0.00561266
0.00283003
0.129655
0.80841
-1.40354
-0.836246
0.0145896
-9.36825e-06
-1.26531e-05
-0.471264
1.06362e-05
-1.50677e-05
0.000158141
2.95953e-05
-0.11592
0.00593487
0.000119347
-0.0014268
0.00316353
-0.0771601
0.254359
0.00787077
0.00137895
0.000937204
0.164313
0.00283226
1.41694e-05
0.0573107
-0.0950564
-0.00041202
0.199425
-0.0128103
0.000629772
1.28091
0.0931324
0.0184244
4.96478e-05
-0.00690018
0.0671577
0.00129431
-0.00936181
-0.00465547
0.0113425
1.47939
-0.000107431
-1.35583e-06
0.143805
0.0224662
-0.723003
-0.000193792
-0.628142
-0.202933
0.191303
-0.00100324
-3.41396
0.000519482
0.111348
0.0256901
0.00063998
-0.216069
-0.453454
0.120053
0.000125673
-8.51982e-05
-0.3969
-0.351481
0.0339897
-0.977604
0.000784781
-8.20583e-06
4.02537e-05
0.00277265
0.000164991
0.000216545
0.00155657
3.66231e-07
0.206128
0.00386215
-0.085318
0.00174627
-0.00724902
4.67627e-06
-0.00327324
-0.383345
-0.00042478
-0.201088
0.694912
0.295052
-0.0687291
-0.0292538
-0.000637972
-0.348153
3.21754e-05
0.585412
-0.00101971
-0.298671
-1.21468
-0.424295
7.57891e-06
0.0954179
-0.004806
-0.16778
0.000749745
0.0643409
0.0107323
0.00145823
0.00247929
-0.000336705
6.53891e-05
-0.00756336
0.000419493
0.171389
-0.0423947
-2.79028
1.92125e-05
0.485503
0.00029802
-0.154444
0.0973196
0.0580818
0.0442782
-0.00954673
-0.000628867
-0.00150807
2.08568e-05
-0.000266688
0.000338683
0.948912
-0.00129415
5.32132e-06
-0.0013319
1.28584e-05
3.97688e-05
2.17473
-2.92612e-05
0.00470462
0.000263091
0.580011
0.00194273
-0.00256582
0.34758
-0.0344055
-0.0014537
1.37438
-0.000542298
-5.0559e-05
3.17758e-05
2.07717e-05
-0.0333653
0.000965116
0.00251565
0.0146408
0.0384774
0.0435201
-0.0682141
0.695255
-0.000189278
-0.175806
0.0002962
-0.000668542
0.0310928
0.316704
2.30236e-05
0.0263613
1.50335e-05
-0.000301802
0.150539
1.33138e-05
2.24148
-0.00245058
-0.0178204
4.94358e-07
0.180241
-0.0063529
0.0319956
-0.0334348
0.0125781
-0.00789307
0.865001
2.97927e-05
-0.093691
-0.000232387
-0.439437
0.000260702
-0.0568888
0.108449
0.54177
0.000206277
0.0031011
-0.000213873
0.00542014
-0.0316464
0.000962065
2.32592
0.356235
2.76609e-05
-9.26644e-07
-0.0425413
0.537136
0.177639
-0.917466
1.89467e-06
-0.00147525
-0.00162205
0.128676
0.273969
-0.000157836
-0.00594222
0.00449054
-0.00066991
-2.58278
1.43361e-05
0.00018885
0.365525
0.905432
-0.157693
3.13755e-05
0.000233921
-2.03608e-06
9.50853e-05
-0.748182
-1.18901
-0.000927746
-0.000262985
2.93667e-05
0.0965307
-0.0442355
-0.00457141
-0.0745691
0.057206
2.37022e-05
4.21343
-0.863669
-0.901124
3.34472e-05
0.0281836
-0.0140171
0.399539
-0.653055
-0.0252269
1.79209e-07
0.00269805
-0.000910712
-0.00617441
-0.00565583
4.73244e-06
0.207179
2.9912e-05
-0.0172664
-0.0360516
-0.00223309
-0.00106314
-0.377725
1.68796e-05
-0.0288265
0.000414846
0.000334724
0.015776
-0.00623865
-0.000373747
-0.00124494
-0.0403368
-1.2993e-05
-0.0169535
7.99024e-05
-0.0127855
-0.000446574
2.75499e-05
-0.00134789
-7.92366e-05
-5.63419e-05
0.000630534
-0.000912586
-0.0604246
2.92296e-05
-0.0012393
0.00097992
0.0481512
-0.000605341
0.000375823
0.0424351
-0.00126
-0.00331322
-1.36618e-05
0.00832454
1.75651e-05
0.900564
-0.59049
0.000273321
-0.838935
0.0574128
7.61587e-06
-0.00283196
-0.732291
-0.781854
0.093957
0.000588816
0.00712323
1.25569e-05
0.000431686
1.699e-05
0.000819925
-0.000419631
0.00010934
-0.00593677
0.0642638
2.27223e-05
0.0478601
-8.09012e-06
-2.27102
0.0478757
2.53691e-05
0.00756072
0.258277
0.00659336
-2.38165e-05
-0.0230157
-0.290529
-0.000138114
-0.00900203
0.000347167
-0.00636352
-0.00427644
0.00282281
-0.0551872
3.58369e-05
0.00236367
9.93469e-05
-0.680071
0.549649
-0.0340113
-0.00181315
-0.000953887
-0.000754656
1.12654
-0.000995528
-9.56688e-05
1.17693e-05
0.117322
0.00570898
-0.0490651
9.7981e-05
2.19322e-05
0.123263
8.68825e-05
0.000802093
-0.00155516
1.0101
-0.000222758
-3.02115e-06
-0.00104685
-0.00365692
-0.264688
2.04734e-05
0.00311423
-0.116231
-3.03875e-06
3.14073e-05
-0.00796664
-0.528095
0.0811869
-0.00268301
0.000485141
-0.714307
-1.14775
0.000548734
-0.000549491
-0.000328871
-0.336851
-0.00662098
1.29399e-06
-2.32429e-07
-0.0203608
-0.00281283
-0.161708
5.77444e-05
-0.000769129
-0.000798548
5.64245e-05
0.348428
0.00052199
0.0382023
0.0191008
0.0304749
0.443471
-0.0418203
-3.53257
-0.000290699
-0.000233451
-0.0284953
-0.000370322
-0.0766917
1.40275
1.33178
-0.47798
-5.29677e-05
-8.1932e-05
3.57449e-06
-0.000336873
-0.00310849
-0.0127341
0.00506324
0.0225419
-1.09365e-05
-0.00404784
0.000953844
0.393123
1.42134e-05
-0.00110946
0.189371
0.0856688
0.0688858
0.0367783
0.018873
-0.001154
1.28288e-05
-0.00158853
-2.83846
-0.000235606
-0.0893345
-0.00206746
-9.47376e-05
0.00632668
5.7429e-05
-0.00460762
4.67578e-05
-2.21052e-05
0.471553
0.0346505
0.682765
-3.46172e-05
0.000414916
3.50825e-05
1.52827e-05
-0.320777
1.33895e-05
5.07816e-06
-0.000106619
-0.599264
0.0298231
0.104739
0.132629
0.38723
-1.75066
-0.000750394
-6.6425e-05
-5.99632
0.896776
0.000632182
-0.00151373
2.43682e-05
-0.000201085
-0.0020247
3.56986e-05
4.04461e-05
0.632007
5.64954e-06
5.03271e-05
-8.03614e-06
0.743144
0.00786977
-0.658096
-8.98495e-05
2.88568e-06
-4.3944e-06
-0.000521491
9.31337e-05
-0.0775849
0.000377522
6.64598e-07
-0.000506316
1.10297e-05
-3.28822e-05
-1.55688
0.0583122
0.541772
-0.497602
0.302821
-8.04684e-06
0.475323
-0.00253919
-0.006892
7.02776e-05
1.87468e-05
-1.53456e-05
0.000433561
-0.00271475
0.167532
-0.343097
0.00855642
0.000780336
-0.00098865
0.00041503
-0.000587393
-0.137262
-0.135205
1.82122e-06
0.716445
-0.00376153
-0.046616
0.143932
-0.00269798
0.768197
1.87726e-05
0.000787347
-0.000311079
0.000431976
-0.00314362
-0.284325
-0.040937
-0.0183165
1.5411e-05
8.07212e-05
-0.000583997
-0.268077
-0.00743377
-0.0264481
-0.00351965
-0.531431
-0.000686148
4.61049e-06
-0.000105609
1.34465
0.0145446
-0.345395
-0.00895354
-0.00713024
-0.0140782
0.488275
-0.00230481
-0.00139825
0.893211
-0.607728
7.19424e-05
0.238745
0.000245756
0.77192
7.94771e-05
3.17375e-05
-0.00463864
-1.18251
0.00266797
-7.38337e-05
-0.0170124
-0.00372487
0.112848
-0.00735207
1.06016
0.00133643
-1.91462e-05
0.0327265
0.00073164
0.000314726
3.1248e-05
0.00847313
-0.0173119
-7.68692e-05
-0.00030692
0.000183877
0.0185849
0.00111083
-0.00304444
0.193139
-0.00968063
-0.372773
0.000801763
0.000328903
-0.00746447
2.74508e-07
1.29022e-05
1.10744e-05
0.219324
-0.549648
-0.00117231
0.00066375
-0.0383821
-0.249065
3.15723e-05
0.000435986
0.118063
1.38798e-05
-0.044432
0.00178054
-0.0105599
8.85568e-06
3.78093
-0.494329
-0.000243677
-0.580717
-0.00198451
-0.000451695
-0.000324513
0.0266444
0.000179901
-0.00278631
0.893605
3.68121e-05
-0.000819117
-0.126648
3.65934e-05
-4.62406e-06
-0.0359761
-0.00462731
1.97958e-06
-0.0676327
0.391498
0.000362906
-0.196774
-0.252969
0.000440409
3.51513e-06
-0.579171
3.18554e-05
-1.16827e-05
-0.000106992
4.82295e-08
-0.23596
0.919803
-0.0530564
-0.000702001
-0.171458
0.000110328
-1.4464
-5.78993
2.42397e-05
1.19044e-06
-0.0151907
0.00221945
1.32506e-06
1.15463
0.155133
0.00823338
-4.86981e-05
0.808859
0.000183504
-0.000901964
0.834783
5.34732e-05
-3.09009e-06
-0.00485401
0.0044701
0.163776
0.44037
0.00562223
3.06477e-05
0.0266396
0.00412072
9.1017e-05
0.531498
0.00332544
2.03698e-05
1.28349e-05
0.108039
0.000698995
-0.00550997
-1.64141
-0.150605
0.000612503
3.9225e-05
0.173412
0.824639
-0.260378
2.45522e-08
0.021633
-0.629436
-0.44673
-3.1136e-05
-0.117095
5.64737e-05
-2.26399e-05
0.264735
-0.925434
0.457488
0.123916
-0.00633528
0.225746
-0.000867975
0.00132975
-1.19373e-05
-1.46332
-0.000139532
-0.009846
0.148271
9.7488e-05
-0.0661216
-0.10021
0.128322
-0.209695
6.43272e-05
0.333124
0.114825
4.42154e-05
-0.849715
0.64674
-0.0139302
-0.228763
0.00164241
0.000385737
-0.000120053
0.00179391
0.505741
0.153418
0.400142
-0.747511
0.0171591
-0.0706114
1.03837e-06
7.21831e-06
0.000451238
0.884139
0.000900143
2.79675e-05
-0.0529784
3.25142e-05
1.01704e-05
-3.61295e-06
0.366031
0.130982
-8.50775e-06
0.167294
1.46464e-05
-0.750125
-0.0279385
-0.0588536
0.0460064
0.22084
2.92727e-05
0.16384
0.017501
-0.00278648
-0.036002
-0.00770686
8.80598e-06
9.94986e-06
-0.0566213
-3.13485e-05
0.0826056
-0.00261441
9.67588e-05
0.488875
-0.000699843
-3.23444e-06
0.069142
-0.000781338
0.000146853
9.93943e-05
0.848395
-1.33426e-05
-0.048314
0.00607415
0.149052
0.000287837
-0.182653
-0.00424336
0.685074
0.890307
-0.00353511
4.06389e-05
-0.193365
-0.188116
-0.00466647
0.00517548
2.33319e-06
-0.247831
0.000142107
0.0279889
-0.0425309
-6.01483e-05
0.787363
-0.0684312
0.337241
-0.00026276
1.43263e-05
0.153912
5.28934e-05
2.38375e-05
-0.000330331
0.00289328
-0.000185061
0.186434
-0.323806
-0.621682
-0.00120762
-0.000347667
4.44972e-05
0.172039
-0.53564
0.0162559
7.36462e-06
0.0153206
0.00481485
-0.000237481
-0.355142
7.28125e-05
0.000222695
-0.000481355
4.5657e-05
-6.77946e-06
-0.00655342
-0.000912819
0.000283594
7.69157e-05
3.23253e-05
0.757065
-0.268918
-0.000290608
-0.000771885
-0.53553
0.000131021
-0.120039
-0.0294232
-0.00743952
-0.416783
0.0198619
0.166145
0.272664
-0.0367483
-0.265423
-0.00766746
9.82554e-06
-3.80687e-05
-0.00623493
-0.0127055
0.584362
0.000763758
-0.000466009
8.8181e-05
1.6605e-05
-0.373498
0.355726
0.138298
-0.427921
-0.473218
0.00467226
1.24975
-0.00229515
-0.0629784
0.238944
0.00223146
-0.00485249
-9.08441e-06
0.000752053
0.635372
4.71157e-05
-0.971441
-0.00126075
-0.00123427
-0.00638499
-4.34847e-05
-2.43866e-05
-0.00740864
-0.00364021
-0.00458262
-0.3731
-0.000441962
-0.0131616
0.545894
0.0139005
-0.000151521
-0.00218014
3.95108e-05
0.000704879
0.0262498
0.000776996
-0.00263075
-0.255879
-0.266797
3.09176e-06
-0.0918723
-0.0735034
3.66661e-05
3.42596e-05
0.00491483
8.66201e-06
0.00227559
-5.12487e-05
0.227513
0.0010851
0.0378988
0.840275
-0.00354072
-0.949671
0.000292171
-0.000263083
0.0916742
0.146508
-0.00296793
-0.0330081
1.16243e-05
2.35973e-05
-0.0007326
-0.00278788
-7.09593e-05
-0.14005
0.0170273
1.05224
0.300764
0.105081
6.76206e-05
-0.000165474
-0.129092
-2.61494e-07
-4.12261e-05
0.00233215
-3.85973e-06
0.0625018
0.00288571
0.000233904
-0.00338883
-0.000591495
-0.00375749
0.0246505
-0.000497807
0.00377765
3.05394
2.78713e-05
-1.81569
-0.00125043
-0.553709
0.074848
0.487218
-4.5951e-05
-0.000535751
-0.000373884
0.0171282
-0.636106
-0.00674195
-0.303278
2.48593e-05
0.000351017
-0.000277927
0.801603
-0.00304876
0.000967315
0.0071846
-1.51886e-05
0.0173939
0.0198881
-0.00103713
-1.06486
-3.88216e-05
0.250952
-0.00166172
-0.21069
0.0109951
-0.000203126
0.00174042
-0.00139893
0.000618534
0.00350658
0.00183512
0.0481066
-0.232163
-1.55916e-05
-0.518326
-0.0543775
-0.0731893
1.62059e-05
0.0019129
0.122815
-1.22263e-05
0.0911004
-0.00260735
-7.56578e-06
-0.0804711
-0.00864078
0.854772
-0.00390031
-0.00526184
-0.00162032
-0.0534484
2.02371e-05
3.11056e-06
-0.05005
-0.00145942
0.00181754
0.058484
-8.06918e-06
0.00250417
-0.00066934
-0.00447648
0.000127365
0.0101005
-0.00100655
-0.000854643
0.0419763
-0.719692
0.00379031
-0.210095
0.723567
7.29028e-06
-0.0117833
-0.988411
0.0749418
0.0635491
-0.0141093
-5.19523e-06
-1.99315e-05
0.592116
0.00598359
1.08073
-0.443283
-0.28477
0.13116
-0.375405
-5.40485e-06
0.00068992
0.00291246
1.97684e-05
4.50284e-05
1.62923
0.00323911
-1.48842
-0.238456
-1.83605
-0.0020832
-0.0126707
-0.0242073
1.45718e-05
4.10338e-06
0.103603
1.23261
-3.30446
2.41062e-05
0.00297029
-0.244384
-0.063256
-6.28707
-0.0644116
0.00111832
0.0737237
-0.00180596
-2.06407
-0.0389304
-0.406209
0.97763
9.15859e-05
-0.00116669
0.208343
0.0919661
0.000241002
0.358898
-0.00329
-0.000894242
-0.000727031
0.0196758
-2.53869e-06
3.04741e-05
0.00101722
-2.87704
0.00398364
-0.13873
1.59659
0.570449
2.24616e-05
-0.0110898
-0.00140095
-4.31314e-05
0.00148777
3.15072e-06
2.66191e-05
0.00041172
0.000125414
0.136212
0.00318955
0.671394
2.74388e-05
8.15637e-06
-3.12456
-1.42498
-4.24806e-05
0.00395152
0.000382136
-0.595735
2.11619e-05
-0.0375228
-0.00446547
-0.00157214
-0.000393606
0.16512
0.0636084
2.99475e-05
0.000184216
2.86651e-05
0.0904104
-0.0368215
-0.00144775
7.01753e-07
-0.00237747
0.000730524
-12.7358
0.765973
-8.39996e-06
0.000427629
-0.12387
0.00038923
-3.98443e-05
1.07752
2.5254e-05
-0.000125523
-1.47481
-0.0032196
-7.87993e-05
-0.371053
1.15351
0.000157558
-0.58426
2.03173e-05
-0.587581
0.00107499
0.883834
0.0074368
-0.101679
1.9297
0.0421658
0.0109972
0.650661
-0.462548
0.104199
0.000267302
-9.65256e-06
-0.00117843
0.0055515
1.06402
-0.314288
-0.105709
1.84307
0.689138
0.866471
0.0011352
0.00365764
5.56247e-05
0.000308011
1.77258e-05
7.81586e-05
0.762896
0.583893
-0.415076
0.825636
-0.000771219
-0.00170408
2.09634e-07
4.30242e-05
-0.26297
1.29118e-05
0.00599657
-0.00296425
3.13008e-06
-0.0243695
1.69211
-0.148486
-0.64109
1.20381
5.33744e-06
1.96228e-05
0.00289335
-0.00182295
-0.000294379
0.327687
-7.20027e-05
-2.82941
-0.00205648
0.000286852
-0.0135494
-0.000154232
0.572558
-0.00047539
-0.000632069
8.59347e-05
-0.00526951
-0.000523054
0.000167561
-0.00465451
-0.000344002