/*--------------------------------*- C++ -*----------------------------------*\
| =========                 |                                                 |
| \\      /  F ield         | OpenFOAM: The Open Source CFD Toolbox           |
|  \\    /   O peration     | Version:  v2012                                 |
|   \\  /    A nd           | Website:  www.openfoam.com                      |
|    \\/     M anipulation  |                                                 |
\*---------------------------------------------------------------------------*/
FoamFile
{
    version     2.0;
    format      ascii;
    class       volScalarField;
    location    "450";
    object      k;
}
// * * * * * * * * * * * * * * * * * * * * * * * * * * * * * * * * * * * * * //

dimensions      [0 2 -2 0 0 0 0];


internalField   nonuniform List<scalar> 
14479
(
0.0305528
0.0102564
0.00054079
0.000146261
0.000190098
0.000150565
0.000141703
0.000201589
0.000195627
0.0002119
0.000141769
0.000166145
0.000185174
0.0224189
0.0277775
0.000153404
0.0001417
0.0266182
0.000144834
0.000180649
0.000177768
0.000240882
0.000338256
0.0479022
0.000141794
0.00014513
6.44452e-05
0.00019324
0.000148275
5.53147e-05
0.000381885
0.0378781
0.000220317
0.000136286
0.000616874
0.00018664
0.000142901
0.000150774
0.0101855
0.000181565
0.000157337
0.000141187
0.01116
0.00851386
0.000142987
0.000153582
0.000143821
0.0205799
0.000316878
0.000141088
0.00466283
0.000192804
0.000144383
0.00478967
0.00013888
0.000167243
0.000190565
0.000151285
0.0160003
0.000151179
0.000145701
0.00014744
0.0270606
0.000143998
0.000142022
0.00269667
0.0228826
0.00353866
0.000144296
0.000148481
0.00579538
0.000144245
0.00377514
0.000183396
0.000147656
0.000143324
0.000181454
0.0261411
0.000143798
0.000838106
0.000145055
0.00020721
0.0158578
0.000290289
0.000595864
0.000155491
0.000155685
0.000142151
0.000200563
0.00015183
0.000195046
0.00510559
0.0140956
0.000143953
0.000285292
0.000144723
0.000144023
0.000142352
0.000139885
0.0213854
0.000353898
0.00016098
0.0047291
0.00126269
8.94732e-05
0.000213398
0.000275052
0.000357511
0.000169961
0.0214491
0.000267248
0.0259468
0.00395974
0.000168071
0.000199976
0.000183235
0.000145854
0.092004
0.000167819
0.00014881
0.000146684
0.00271245
0.00481055
0.000139792
0.000246265
0.00447189
0.000151479
0.00249581
0.000167509
0.000157147
0.00383193
0.040299
3.69384e-05
0.0836935
0.0129067
0.000169901
0.00022523
0.000208046
0.0336632
5.47502e-05
0.0164582
0.0902128
0.000141039
0.0177115
0.000145137
0.0138821
0.0994156
0.000150998
0.00304221
0.000201908
0.017967
0.000143057
0.0157623
0.000157001
0.000145219
0.000140141
0.0188892
0.0495619
0.0189522
0.000170231
0.00018513
0.000137667
0.000143086
0.000213812
0.0161013
0.000136138
0.000143318
0.000191158
0.000194783
0.0191497
0.0172215
0.000172899
0.000157042
0.000183055
0.000138946
0.000184787
0.000170353
0.000141536
0.00523088
0.0751112
0.000182454
0.000138182
0.0224215
0.00255078
0.0130533
0.000175638
7.41531e-05
0.0755047
0.000150382
0.00800166
0.104229
0.000211585
0.00603412
0.0265257
0.000160661
0.000172578
0.000143432
0.00530445
0.000166461
0.000143047
0.00020261
0.000166393
0.000180471
0.000143409
0.000169754
0.000200487
0.0131393
0.000166862
0.000139121
0.000171177
0.000166797
0.00014725
0.000168943
0.000167904
4.81037e-05
0.000455798
0.00552836
0.000231126
0.00110674
0.000258164
0.0227002
0.00445914
0.000154079
0.00205607
0.00722869
0.000153414
0.00226554
0.00014224
0.000190035
0.000202755
0.000148275
0.000218076
0.00713095
0.00014898
0.0001459
0.108519
0.000157632
0.000193025
0.0756447
0.000144778
0.000160586
0.000143106
0.000193379
0.000161783
0.000167538
0.000214351
0.0248925
0.0188002
0.000147893
0.000145146
0.000320349
0.000290414
0.00436966
0.00021704
0.0049157
0.000139791
0.000166033
0.000139369
0.000190687
0.000145171
0.000142181
0.000161004
0.000145099
0.000141769
0.000142059
0.00016736
0.000218921
0.00014523
0.0280727
0.00017551
0.000189562
0.000193038
0.00554798
0.000172448
0.000192369
0.0201137
0.000192729
0.000139602
0.000167509
0.000155294
0.000209787
0.000163761
0.000151585
0.000154829
0.000205144
0.000309949
0.000188764
0.00032622
0.000170456
0.0320336
0.000216472
0.000147233
0.000189591
0.000235272
0.000154951
0.0255946
0.0717672
0.000150683
0.000175062
0.0208866
0.104532
0.00169282
0.000141937
0.000146328
0.000173779
0.0378054
0.000136557
0.00374925
0.000139253
0.000200333
0.000176357
0.00162166
0.000155251
0.000154046
0.000174148
0.00515183
0.000210487
0.000160247
0.000173809
0.000138769
0.104584
0.000194673
0.026664
0.000238935
0.000146212
0.0908705
0.0482437
0.0103087
0.000184378
0.000155253
6.90089e-05
0.000142366
0.000190931
0.000184811
0.000152196
0.00015131
0.00822978
0.000166079
0.000155858
0.000149248
0.000146745
0.000213991
0.000138976
0.000178445
0.0200064
0.000167278
0.0699564
0.0001736
0.00019144
0.000193811
0.000144898
0.0155153
0.00419493
0.0117216
0.000164921
0.0308871
9.57901e-05
0.0279976
0.000146221
0.0255311
0.00015013
0.000202814
0.00488586
0.00041517
0.000154943
0.000150177
0.000139991
0.0001816
0.000186941
0.000140423
0.000154625
0.00970952
0.000156149
0.000211152
0.0201333
0.000227148
0.00014698
0.000203591
0.00016589
0.000149867
0.000174166
0.000189546
0.000144857
0.000170422
0.00482058
0.00087127
0.0748922
0.00014725
0.000392128
0.000193886
0.000202264
0.0128477
0.000155893
0.0808247
0.0192193
0.000236205
0.000164506
0.0182971
0.000207698
0.000204417
0.000181177
0.000191803
0.000174983
0.00426478
0.000185161
0.000155925
0.000184934
0.000173744
0.00408301
0.000180175
0.0112489
7.88312e-05
0.000168479
0.000207521
0.00014656
0.0287792
0.000148549
0.000152289
0.0396398
0.000211059
0.00788081
0.0137841
0.072391
0.0275397
0.017552
0.000150492
0.000156293
0.000165769
0.000142323
0.000144049
0.000151016
0.000179663
0.00177523
0.0187967
0.0477204
0.000178704
0.010252
0.000681317
0.000186566
0.000146472
0.0308531
0.000139218
0.000147217
0.00135639
0.000146139
0.000141388
0.000156311
0.0191577
0.000164036
0.000152953
0.000148853
0.00014654
0.000217191
0.00016397
0.00022774
0.000180797
0.000146066
8.80179e-05
0.000215689
0.000179226
0.000213441
0.000148336
0.000160585
0.000167948
0.0247712
0.000141601
0.000177963
0.00484356
0.0319339
0.000145465
0.000142062
0.000193048
0.000159261
0.000147378
0.0245525
0.00185506
0.000192719
0.0218104
0.000176853
0.000147727
0.000159952
0.000185132
0.00184098
0.0246411
0.000180644
0.000148306
0.000137478
0.00015714
0.0220722
0.00737552
0.000139101
0.000138602
0.000213189
0.000146747
0.000167269
0.000153688
0.000139848
0.000293318
0.000142025
0.000204986
0.000176726
0.00261159
0.011984
0.000186174
0.11059
0.000200977
0.000234455
0.0436327
0.000202482
0.000145977
0.000150919
0.000154199
0.000155359
0.00019993
0.000150181
0.0544376
2.59463e-05
0.000155681
0.0273549
0.00019483
0.0235169
0.00019702
0.000142052
0.00016715
0.000153113
0.00019154
0.000165202
0.000167217
0.0151115
0.000164581
0.0892288
0.00475483
0.000160629
0.000138945
0.000144839
0.000143138
0.000160407
0.000171608
0.000178263
0.000168706
0.000171231
0.000823013
0.000168533
0.000145198
0.0163504
0.000166261
0.000143527
0.0147476
0.000420853
0.0011449
0.000157127
0.000261899
0.0911935
0.000165742
0.000168908
0.0116635
0.000340497
0.000181986
0.000154118
0.0777641
0.000196417
0.000150045
0.000148817
0.104196
0.000197778
0.000153924
0.000153527
0.0128934
0.000175513
0.000132733
0.0127709
0.000158178
0.000157408
0.000158514
0.000173998
0.000199686
0.0257361
0.000152657
0.000227315
0.0293474
0.0311831
0.000158124
0.000160699
0.0832709
0.00015612
0.00911494
0.000160067
0.000173477
0.00024506
0.00015587
0.000174559
0.00014249
0.0312665
0.000261964
0.000185189
0.0182096
0.0853397
0.000138364
0.0151243
0.00134036
0.000147417
0.000170625
0.000166705
0.000158285
0.000156536
0.000189809
0.00168124
0.000181138
0.000200331
0.000216959
0.000171963
0.00186828
0.0375039
0.000158972
0.0539859
0.0310982
0.000153627
0.00022717
0.000144741
0.0155699
0.000515822
0.036269
0.000173286
0.000212076
0.000146977
0.00018948
7.96909e-05
0.000258517
0.000157177
0.000162222
0.000182179
0.000139851
0.00478333
0.000153645
0.000152532
0.0148437
0.000155173
0.000190082
0.0159144
0.00014452
0.000161918
0.000147038
0.0698572
0.0411863
0.000394049
0.00035835
0.000214486
0.000188576
0.000192768
0.00016672
0.000144559
0.000149638
0.000154421
0.0242755
0.000212534
0.000180424
0.00618634
0.000163549
0.0136568
0.000148651
0.0849089
0.0350918
0.00347768
0.000152344
0.00017951
0.0535723
0.000190545
0.000142408
0.00016651
0.000141691
0.000193253
0.000159866
0.000142747
0.000139073
0.000142065
0.000142214
0.000178892
0.000173005
0.000141615
0.0131132
0.00015136
0.000155298
0.000169395
0.000201931
0.0649372
0.00014136
0.00181602
0.000150798
0.0191126
0.00487702
0.000115044
0.000198682
0.000154719
0.000155053
0.00016609
0.0832359
0.000149282
0.000149479
0.000154543
0.000156667
0.000181389
0.000158128
0.000175775
0.000154545
0.00014175
0.000181292
0.000177609
0.0643749
0.00833101
0.0150888
0.0326072
0.0004557
0.114981
0.00596483
0.000153684
0.00484685
0.000190587
0.00453745
0.000160142
0.000142125
0.00318875
0.00102479
0.000152289
0.000160696
0.0693066
0.062885
0.000200842
0.00199191
0.00330809
0.000171773
0.000138918
0.000144888
0.00025775
0.00205003
0.0191224
0.000141999
0.000183092
0.000160014
0.000180968
0.000184405
0.000179493
0.000143072
0.000150099
0.000188133
0.000143147
0.000146814
0.00294773
0.000172746
0.000158272
0.0825299
0.0906281
0.000151393
0.000198864
0.014626
0.0718072
0.000186807
0.00182559
0.00592224
0.00019196
0.000177258
0.00362044
0.000262467
0.00467024
0.0487641
0.000136278
0.0212454
0.0926902
0.00016429
0.000283203
0.000149903
0.000176981
0.000161904
0.000142236
0.000154655
0.000152967
0.000774
0.016234
0.0537643
0.000146673
0.111193
0.000158133
0.000153082
0.000185463
0.000143157
0.0203108
0.000179913
0.000182714
0.00983292
0.000157773
0.00632313
0.000247145
0.000173743
0.000154229
0.000236201
0.0844258
0.0861886
0.000216538
0.000235426
0.000139434
0.0205566
0.000154355
0.000165305
0.000156868
0.000178398
0.0132004
0.000194462
0.000223072
0.000189195
0.016335
0.000146771
0.000205753
0.0258645
0.0001471
0.000206086
0.000149427
0.000179672
0.00020182
0.00620885
0.000155191
0.000149733
0.0119963
0.000144184
0.052075
0.0390194
0.000181978
0.0686048
0.000173057
0.000144382
0.00781107
0.000191736
0.000179877
0.000146866
0.000178499
0.103999
0.108781
0.000232042
0.0303749
0.000147044
0.0958529
0.000197503
0.000154606
0.000172541
0.000173243
0.000179472
0.0111597
0.000159302
0.000143504
0.00725366
0.000154154
0.000156125
0.000209142
0.0811414
0.000203746
0.000121045
9.78919e-05
0.0230122
0.0147397
0.000149287
0.000210548
0.000157205
0.0186742
0.000199303
0.0581058
0.000144339
0.0169022
0.000147811
0.000149487
0.00843424
0.00431856
0.0210501
0.000226165
0.000157874
0.00017305
0.000157689
0.0001829
0.000132671
0.000151442
0.000167468
0.000132715
0.000149881
0.000146914
0.000151053
0.0887124
0.00839195
0.00997253
0.000175832
0.0260162
0.000179136
0.000144907
0.000197477
0.000192822
0.0437782
0.00014697
0.0922687
0.000143163
0.000176504
0.000149877
0.000355666
0.000145168
0.000138584
0.000160606
0.000152544
0.000210657
0.000199023
0.0830436
0.0172297
0.00187694
0.00014135
0.00020901
0.000144016
0.000140777
0.000166447
0.00018009
0.000319305
0.000253707
0.000153757
0.000175355
0.000193205
0.000166831
0.000189846
0.0368484
0.000194801
0.000188593
0.0111254
0.000211879
0.000421439
0.00170792
0.000140634
0.000145265
0.000206825
0.000157672
0.000190025
0.0018179
0.000144195
0.000144127
0.00414804
0.0133615
0.000173396
0.0300937
0.000157923
0.000224819
0.11313
0.0109008
0.000264015
0.000592049
0.0178393
0.000891695
0.004873
0.0741061
0.000144387
0.0027008
0.000229634
0.000161709
0.000162721
0.000139015
0.000214028
0.0208444
0.000231506
0.0319878
0.000138864
0.000147297
0.000205415
0.000146629
0.00014555
0.000135501
0.000183664
0.000160789
0.000143959
0.000165464
0.000178905
0.00015965
0.000182718
0.00327197
0.000146531
0.000180797
0.000701298
0.000156083
0.00018002
0.00155272
0.0654153
0.00015895
0.000148179
0.00820006
0.000224119
0.000120536
0.104453
0.0141296
0.000183196
0.000246076
0.000166945
0.000212591
3.67261e-05
0.000124834
0.000161476
0.000188724
0.00014404
0.000171624
0.000144687
0.00268326
0.00666202
0.000155817
0.016609
0.000187705
0.0926037
0.00122932
0.000156868
0.000194873
0.0001471
0.0740597
0.000157367
0.0406488
0.000102553
0.000148098
0.000524865
0.000144597
0.000179785
0.00493698
0.00014967
0.00544852
0.000161595
0.000164808
0.0355913
0.0554535
0.000185645
0.000173672
0.0132549
0.000161062
0.000158315
0.000159217
0.0791115
0.000146919
0.000149255
0.00517303
0.0533783
0.00020065
0.00818764
0.000186111
0.00464983
0.00014125
0.0391427
0.000138907
0.000186551
0.000178881
0.00014942
0.000192787
0.000183384
0.000199415
0.000178259
0.000203789
0.00017468
0.000144431
0.000190428
0.0145255
0.000147937
0.000169015
0.00014112
0.000176709
0.000149538
0.000145324
0.000217111
0.000153797
0.000146639
0.0640291
0.000159594
0.000220587
0.000196231
0.000146962
0.000152377
0.0748198
0.113232
0.0261143
0.00196429
0.000175653
0.0131626
0.031825
0.000168536
0.0001578
0.000144325
0.035563
0.000231485
0.0242021
0.0105877
0.000158105
0.0094192
0.000145058
0.000146551
0.011784
0.000198721
0.0774436
6.23701e-05
0.000204155
0.0146575
0.000145426
0.000157739
0.000230263
0.0153315
3.22051e-05
0.0172513
0.00443988
0.00350259
0.000163684
0.000178529
0.000180475
0.000146666
0.00017021
0.000161842
0.000193428
0.000190295
0.000180549
0.000186869
0.0784893
0.0001582
0.000154719
0.000240708
0.000142187
0.000176653
0.000164525
0.0936965
0.021931
0.000233662
0.00015909
0.0162787
0.0219749
0.000268224
0.000194706
0.000144015
0.029238
0.0357711
0.000186673
0.000141313
0.0105444
0.0227534
0.011266
0.00472169
0.000206595
0.000166348
0.000222106
0.00375102
0.000199737
0.000158873
0.000211861
0.000195609
0.0148765
0.00014212
0.0788508
0.000203364
0.000165449
0.000163549
0.000142171
0.000173328
0.000153593
0.000145303
0.000180218
0.00731045
0.000206819
0.000270327
0.0531378
0.000239817
0.000163824
0.000233287
0.000177779
0.000143247
0.000169826
5.49691e-05
0.000188776
0.0001708
0.00161436
0.000173686
0.000238196
0.000170323
0.000160901
3.91439e-05
0.00021131
0.000172398
0.0275996
0.000153813
0.000182376
0.000321661
0.000143035
0.0137451
0.0130163
0.000154042
0.000228992
0.000158387
0.000160003
0.00020221
0.000179306
0.0127315
0.000166106
0.000146203
0.000196247
0.000177475
0.0276381
0.000182731
0.000167623
0.000179115
0.00014844
0.0007959
0.000326655
0.000213171
0.00486188
0.000225759
0.000194686
0.000178562
0.00352998
0.000173404
0.000150736
0.000185978
0.000179898
1.41648e-05
0.000165503
0.0226728
0.000173455
0.000296567
0.000152002
0.0844236
0.000167853
0.000197377
0.000153573
0.000231032
0.000160816
0.000151174
0.000164195
0.000205333
0.000154
0.000179058
0.000144039
0.000196782
0.00020772
0.0234409
0.0746071
3.84204e-05
0.0456994
0.000213359
0.0196174
0.00015964
0.000155614
0.000141441
0.000154628
0.000144401
0.000194659
0.0424994
0.00154408
0.000141543
0.00841398
0.00598586
0.000190187
0.00016492
0.00021715
0.0763179
0.0316155
0.000224166
0.00019077
0.0181247
0.000193092
0.000188395
0.000170184
0.00760417
0.000164959
0.000143234
0.000255567
0.000144361
0.000174039
0.00014883
0.000375399
0.0202203
0.00021707
0.000181504
0.0249966
0.0202193
0.000195382
0.00018248
0.0824049
0.0710576
0.000150889
0.000408886
0.00700997
0.000168738
0.000402882
0.0250741
0.000158754
0.000146858
0.000156841
0.0163523
0.000189137
0.0906616
0.000304334
0.000256509
0.000165329
0.000175141
0.000160323
0.000171039
0.098838
0.000364532
0.00021316
0.000160273
0.000177284
0.000164875
0.000215278
0.000163303
0.000199955
0.000204523
0.000167854
0.0239197
0.000199773
0.0814273
0.000161824
0.00014692
0.000166331
0.000204826
0.000329895
0.000148317
0.00220375
0.000221919
0.000201875
0.000224768
0.000141844
0.00235011
0.000151616
0.000141098
0.000215451
0.000139843
0.00020701
0.000170151
0.000151393
0.000168543
0.0506527
0.000174185
0.000174579
0.000151378
0.000177113
0.000173695
0.000144048
0.000179303
0.00472396
0.0246515
0.000144946
0.000168701
0.000154439
0.000304686
0.000140245
0.00457246
0.0502382
0.00741287
0.000164097
0.11536
0.000143862
0.000133256
0.0045094
0.000363828
0.000166311
0.000192899
0.000221656
0.000282267
0.0534738
0.000156396
0.000158677
0.000183395
0.000179077
0.000142967
0.000147761
0.000244306
0.00161951
0.000167131
0.00020066
0.000188725
0.0148983
0.000160889
0.000155764
0.000153296
0.000144815
0.0569656
0.00018656
0.0105124
0.00014782
0.000202108
0.000148404
0.000165343
0.000151618
0.000881218
0.00493693
0.000193177
0.000144133
0.000309602
0.0164851
0.000144972
0.000217108
0.0001435
0.0145011
0.0940013
0.000162318
0.000387182
0.00758798
0.000215078
0.0230982
0.000140229
0.000147377
0.000187191
0.0213739
0.00701305
0.000181884
0.000141803
0.0213294
0.0200589
0.000151999
0.000156203
0.0172497
0.000176035
0.000162005
0.0166194
0.000144009
0.000154064
0.000143785
0.000143946
0.000309967
0.0170998
0.000214198
0.0285482
0.000192809
0.000144197
0.000146151
0.000143255
0.000170002
0.000194616
0.0164407
0.00019535
0.000194228
0.000191128
0.0477701
0.000185777
0.000154406
0.000602857
0.000193822
0.0330188
0.000150109
0.00817634
0.000224178
0.0650535
0.0847543
0.00019182
0.000166092
0.0774143
0.000139547
0.000138058
0.000205673
0.000182325
0.00134126
0.0251672
0.00479872
0.000185081
0.0265874
0.000170199
0.015852
0.025978
0.082273
0.000143223
0.0150568
0.000150842
0.000169004
0.0001856
0.000178629
0.000208334
0.000133657
0.000174076
0.0189763
0.000189087
0.00018572
0.020369
5.47792e-05
0.00312255
0.0311514
0.0195522
0.000138498
0.00014273
0.038822
0.000149803
0.000138461
0.000155858
0.000157078
0.00262783
0.000185586
0.000150181
0.000164444
0.00018514
0.0226218
0.083121
0.000223372
0.0002039
0.000192531
0.01405
0.000195812
0.000144722
0.0146603
0.0125246
0.000174017
0.107043
0.0322838
0.000159657
0.061652
0.00419836
0.000199353
0.00014956
0.00023673
0.0182943
0.000178095
0.0165832
0.000181216
0.000212988
0.104537
0.000152991
0.000142967
0.000201176
0.0202892
0.00475198
0.000175924
0.000750041
0.00027235
0.0225625
0.000166673
0.00403398
0.000178808
0.105471
0.000253082
0.000185942
0.00099493
0.0706795
0.000206247
0.0258584
0.000154777
0.000222204
0.000193188
0.0208565
5.37385e-05
0.000190246
0.000147568
0.000146936
0.000201176
0.000164786
0.000156865
0.000178261
0.000142517
0.000674516
0.000216584
0.000191532
0.0122705
0.0130899
0.000143195
0.0249001
0.0927047
0.000182402
0.000248697
0.00575822
0.000232346
6.61352e-05
0.00521783
0.000168407
0.00977792
0.000151771
0.0816883
0.000188014
0.0573682
0.0456459
0.0871093
0.000143761
0.000310761
0.000215911
0.0285297
0.000165102
0.00913398
0.02208
0.000179513
0.00017957
0.000160737
0.000153472
0.000193665
0.000195337
5.83089e-06
0.0203146
0.00440372
0.000145471
0.000221805
0.000160084
0.0255213
0.0105895
0.00020221
0.0669532
0.000212293
0.000173934
0.000169181
0.000151134
0.0001533
0.000160174
0.055762
0.000170648
0.000143788
0.000165986
0.000146416
0.000156085
0.0185582
0.000140042
0.000194491
0.000163039
0.0567627
0.0230504
0.000179252
0.00182494
0.0268054
0.000174761
0.0725065
0.000166916
0.000140141
0.000141396
0.00018277
0.0133704
0.000178256
0.000181515
0.000195506
0.000208558
0.000295367
0.0110545
8.42847e-05
0.000143191
0.000209054
0.000155536
0.000178086
0.00924527
0.000236875
0.000145804
0.000318295
0.000143976
0.000156653
0.0317253
0.000144817
0.0192072
0.0316226
0.000193327
0.000146571
0.0176318
0.000183725
0.000315747
0.000194964
0.000194304
0.000185599
0.0889058
0.000145129
5.55698e-05
0.000151672
0.0512697
0.0101441
0.0223247
0.000201448
1.68891e-05
0.000156971
0.000175199
0.000158595
0.000214502
0.0227585
0.000166115
0.00563618
2.23916e-05
0.000141105
0.000143053
0.0248858
0.0224916
0.000235289
0.000532493
0.000142908
0.000174075
0.000180632
0.0751609
0.0492471
0.000177009
0.000182461
0.0137176
0.00016892
0.00354896
0.000144902
0.000165565
0.043677
0.0736108
0.0309512
0.000145356
0.000160172
0.000143312
0.000151078
0.00780017
0.00223437
0.000177367
0.000207888
0.0001466
0.00834542
0.00653767
0.000215762
0.0257668
0.00020321
0.000160374
0.0037721
0.00509636
0.0355197
0.000147874
0.0175125
0.0285477
7.28648e-05
0.040371
0.0156887
0.000142416
0.000190088
0.000167152
0.000182343
0.000197007
0.000143274
0.000194982
0.000146002
0.00022572
0.0169712
0.00021317
0.000168979
0.0121508
0.000146064
0.0205105
0.000161099
0.000152371
0.000311485
0.000182717
0.000161115
0.000174519
0.000194821
0.000142656
0.000245827
0.00015711
0.000275354
0.000159787
0.00014766
0.000185224
0.000154165
0.000164595
0.000175125
0.000178998
0.0335279
0.000152779
0.000177514
0.0322619
0.00707323
0.000161965
0.000169626
0.000307954
0.000178018
0.00018744
0.000143459
0.0276906
0.000133642
0.00485266
0.00588865
0.000192574
0.000846515
0.0139481
0.000169007
0.00017207
0.0493694
0.00156285
0.105454
0.000162565
0.000194932
0.000149016
0.000169025
0.000146359
0.000164339
0.000158992
0.000149213
0.000192465
0.000107634
0.000148143
0.000194675
0.00013995
0.0542948
0.0165534
0.000140987
0.000214769
0.00146518
0.00019388
0.000151268
0.0201811
0.108053
0.000137864
0.000186055
0.00015443
0.000191258
0.000196708
0.000186097
0.000223877
0.000151024
0.000186322
0.000153364
0.00746688
0.0865783
0.0268422
0.000193974
0.000169789
0.00017609
0.0960415
0.00017661
0.000158827
0.000150872
0.000191278
0.000219434
0.000191496
0.000151402
0.000145744
0.000199054
0.000150634
0.013167
0.000176013
0.0662845
0.000163962
0.000140424
0.000179592
0.000236504
0.000301171
0.000145858
0.000186861
0.021279
0.000153855
0.00014593
0.000185083
0.000612571
0.000334683
0.00017371
0.000190998
0.009078
0.00375081
0.000223068
0.000168173
0.000165259
0.100611
0.000183834
0.000142584
0.000140173
0.000231472
0.000172653
0.0511227
0.000161955
0.000167168
0.000164164
0.000149755
0.0472177
0.00017484
0.000190263
0.000199589
0.0137363
0.0612687
0.0211247
0.0280879
0.000163607
0.000164748
0.0350528
0.0001583
0.0347266
0.0734515
0.0999533
0.0503458
0.00013807
0.000159168
0.000144416
0.000160992
0.000174988
0.000292405
0.000297529
0.000189469
0.000147908
0.00017742
0.000177557
1.64173e-05
0.000144997
0.000169613
0.00455424
0.11042
0.00105135
0.0295981
0.00020877
0.000275957
0.000144761
0.000175725
0.00186252
0.000162685
2.27087e-06
0.00017874
0.000240621
0.000191557
0.000150055
0.000187093
0.000155597
0.000133349
0.0124902
0.000170816
0.0825438
0.000153893
0.00015964
0.00015179
0.000167943
0.0328526
0.000143211
0.000143203
0.000139686
0.0426462
0.000303863
0.000771211
0.0196192
0.0548909
0.0560842
0.000165256
0.000160117
0.00478047
0.0493272
0.000162021
0.000167549
0.000155411
0.000156516
0.000182916
0.000150702
0.000151049
0.0835114
0.000144015
0.000147896
0.000141719
0.00589821
0.000222613
0.000753391
0.00016679
0.000141749
0.000143782
0.0001692
0.000157087
0.00605861
0.000155908
0.000146067
0.000160373
0.000154845
0.000143554
0.000471174
0.0360406
0.0881647
0.0577125
0.000208357
0.000141829
5.86292e-05
0.000177161
0.000197195
0.000154278
0.000146151
0.000159108
0.000213802
0.000175659
0.00011788
0.00909007
0.0114694
0.000171751
0.000165339
0.00016093
0.000167594
0.000228837
0.00353862
0.000141875
0.0806598
0.000174966
0.0215605
0.0149531
0.000177792
0.0820945
0.000154958
0.000162963
0.00017929
0.000185044
0.000176274
0.0669717
0.000190363
0.000200977
0.000144403
0.000155532
0.000410665
0.0375701
0.000184259
0.000191324
0.000179337
0.0509513
0.000161854
0.00015342
0.000155563
0.0310138
0.000193017
0.000192378
0.000184187
0.000185928
0.0143457
0.000214292
0.000201904
0.000183397
0.0111047
0.000740303
0.000139489
0.00624599
0.00015943
0.0835201
0.00016162
0.000165256
0.0108026
0.00270492
0.000207673
0.000159457
0.00022121
0.000235649
0.00710594
0.000188122
0.0359189
0.000182783
0.000154944
0.000225199
0.00017679
0.00015551
0.000138602
0.0129362
0.021936
0.000137745
0.000165158
0.00019661
0.0107499
0.000185119
0.000187083
0.000197926
0.000282995
0.0572138
0.000177177
0.000179841
0.000188298
0.000144768
0.000141508
0.00014096
0.0988256
0.00220801
0.000182021
0.000175193
0.0090269
0.0163124
0.000148104
0.000183631
0.0686638
0.000143543
0.0223887
0.000167888
0.00015199
0.000154175
0.03504
0.0494548
0.000156886
0.0499506
0.0234971
0.00016568
0.000167894
0.109503
0.000159186
0.0239753
0.112841
0.000140118
0.000181312
0.000511469
0.000156459
0.000144062
0.000208119
0.000181057
0.000143817
0.00187227
0.0378108
0.000155288
0.05085
0.0510113
0.000176156
0.000144382
0.0514873
0.000138296
0.000143279
0.000152837
0.0001517
0.0200083
0.0746085
0.0261476
0.000196353
0.0511147
0.000141952
0.0416076
0.00397083
0.000139765
0.000143365
0.000230262
0.000179392
0.000141675
0.0038957
0.0235568
0.000197624
0.000139704
0.0627041
0.000209162
0.000165065
0.000512798
0.000138698
0.000151207
0.000179193
0.000239205
0.00722469
0.0493567
0.000117792
0.000154786
0.0192142
8.24356e-05
0.000141642
6.16775e-05
0.000185883
0.000145423
0.000144664
0.00658155
0.000161281
0.000226372
0.000562524
0.000190462
0.000170896
0.000153677
0.0489413
0.0608649
0.108448
0.0001448
0.0187772
0.000224266
0.0205743
0.000156284
0.0303815
0.000152067
0.000150757
0.000203678
0.0318938
0.000140131
0.00223357
0.00018258
0.000205254
0.000164138
0.000171438
0.00014425
0.00412619
0.000154075
0.00166838
0.00023364
0.000141419
0.0266461
0.000189948
0.0522997
0.000267193
0.000139211
0.00010839
0.00462654
0.000147679
0.0387715
0.000155583
0.000245675
0.0650179
0.000186661
0.000161952
0.000158673
0.000186605
0.000212145
0.000198121
0.000210864
9.04368e-05
0.0180364
0.00387415
0.000144867
0.000151431
0.000165269
0.007214
0.000164375
0.000152567
0.100525
0.000147888
0.000146436
0.000141884
0.0765988
0.0286059
0.00014172
0.000195466
0.000145962
0.0481774
0.0024856
0.0328675
0.0163611
0.000204518
0.000147459
0.0476234
0.0110682
0.0129128
0.0325437
0.0113849
0.000145156
0.000140818
0.0343463
0.000139761
0.00550178
0.000224754
0.000150637
0.000221382
0.000165875
0.000142916
0.0327333
0.000164345
0.000176812
0.000149566
0.0807731
0.00014274
0.00203548
0.000188803
3.3421e-05
0.000154645
0.0542056
0.000226749
0.000131382
0.00664715
0.000180761
0.000138832
0.000211954
0.0208771
0.000181495
0.000187505
0.000140087
9.59069e-05
0.000150676
0.000197916
1.08631e-05
0.000153981
0.0785051
0.000190088
0.0262324
0.000192644
0.000141455
0.000199474
0.000136272
0.00015034
0.000166273
0.0205339
0.000160972
0.10385
0.028906
8.35541e-05
0.0001757
0.000158178
0.000164772
0.027197
0.0504604
0.000225741
0.000146159
0.000189661
0.000194908
0.000161066
0.0986286
0.000151443
0.000160708
0.000170339
0.000147199
0.00015143
0.000213629
0.000192404
0.000173006
0.000146731
0.000148978
0.0679719
0.063362
0.000171643
0.000165167
0.0734893
0.000152514
0.0270868
0.0103714
0.000187529
0.000219977
0.000172201
0.000203235
0.0512602
0.000272134
0.000417768
0.000212577
0.00014623
0.000176712
0.000188775
0.000200494
0.0608587
0.000235135
0.000160175
0.000153152
0.000153731
0.0628965
0.000216628
0.000712762
0.087647
0.0543053
0.000204884
0.00389895
0.000185103
0.0207078
0.0251874
0.000195077
0.00017809
0.000147779
0.000184198
0.000114425
0.000138071
0.000394367
0.000182348
0.000175063
0.000198088
0.000153736
0.000137325
0.000207491
0.000241996
0.000179153
0.000193116
0.000211133
0.000245235
0.000213344
0.0256885
0.000156087
0.000219859
0.000137779
0.000207259
0.000267772
0.000181625
0.000183208
0.0699363
0.00110315
0.000140853
0.0332378
0.0235955
0.000148088
0.000148122
0.00018573
0.000146997
0.000178036
0.00013873
0.0491293
0.000191857
0.0310583
0.0770149
0.000186968
0.035229
0.00015283
0.000167789
0.0155711
0.000116641
0.000195048
0.000195066
0.000144545
0.000144988
0.000189707
0.000187065
0.000142303
0.00025915
0.000198877
0.0740371
0.0022091
0.000201262
0.000149022
0.000149014
7.82829e-05
0.00014476
0.000142889
0.000193356
0.000139863
0.0364765
0.000179065
0.000178805
0.00017378
0.000164736
0.000212936
0.11112
0.00017728
0.000186799
0.00411254
0.000146105
0.00456075
0.000166933
0.00269327
0.000605409
0.0462014
0.000137709
0.000162135
0.000165561
0.000228395
0.00324824
0.00018566
0.000171304
0.00014827
0.00016082
0.000190614
0.0856475
0.000159493
0.000201481
0.00018964
0.000169785
0.010751
0.0180064
0.00017013
9.00567e-05
0.000144266
0.00338038
0.000169389
0.00519264
0.000196506
0.000164731
0.000178044
0.000181973
0.000163944
0.000192623
0.000210868
0.0911822
0.00140563
0.000148505
0.0442123
5.19071e-05
0.0213607
0.000133317
0.000167102
0.000105887
0.000158774
0.000194635
0.000182846
0.000142904
0.00650793
6.24891e-05
0.0704803
0.000165439
0.000188908
0.000183348
1.41051e-05
0.000146543
0.000142998
0.107496
0.00017088
0.000184921
0.0295219
0.000142823
0.000187262
0.000166316
0.000181607
0.000210418
0.000190778
0.000163453
0.000170801
3.65934e-05
0.010784
0.000227436
0.0782346
0.0065664
0.000143723
0.00022216
0.00433281
0.000199181
0.000191856
0.000196098
0.000139918
0.000153949
0.0667507
0.000187546
0.00185287
8.13715e-05
0.000601935
0.000194532
0.0819755
0.000147551
0.000182762
0.000267457
0.000133385
0.000138573
0.00291326
0.000189207
0.0453787
0.000191881
0.00989495
0.000235642
0.000206228
0.000198642
0.00014437
0.000160236
0.0281014
0.00320259
0.00301557
0.000157644
0.000190276
0.000438062
0.000310851
0.00171364
0.0372188
0.000187518
0.000275743
0.000177446
0.0422887
0.000250441
0.0763708
0.00333118
0.00016412
0.00017778
0.0001942
4.3375e-05
0.000152264
0.000129356
0.000174835
0.000236635
0.000198079
0.00027497
0.000170551
0.000137441
0.000170722
0.00132798
0.000195028
0.025937
0.00327079
4.64715e-05
0.000164342
0.000196703
0.000173773
0.000155275
0.000185514
0.000142993
0.000153309
0.000190926
0.000142305
0.000193974
0.0001856
0.0563358
0.000155518
0.000143658
0.0113037
0.000929237
0.000143761
0.000290816
0.000185874
0.0378513
0.000145816
0.0156176
0.000186031
0.00018559
0.000170479
0.000194977
0.00111716
0.000147642
0.000171734
0.000151341
0.00253812
0.000226272
0.000190799
0.000150843
0.000189613
0.00016209
0.00272295
0.0702263
0.000194273
0.000178978
0.000202647
0.000153828
0.000154696