/*--------------------------------*- C++ -*----------------------------------*\
| =========                 |                                                 |
| \\      /  F ield         | OpenFOAM: The Open Source CFD Toolbox           |
|  \\    /   O peration     | Version:  v2012                                 |
|   \\  /    A nd           | Website:  www.openfoam.com                      |
|    \\/     M anipulation  |                                                 |
\*---------------------------------------------------------------------------*/
FoamFile
{
    version     2.0;
    format      ascii;
    class       volScalarField;
    location    "450";
    object      nut;
}
// * * * * * * * * * * * * * * * * * * * * * * * * * * * * * * * * * * * * * //

dimensions      [0 2 -1 0 0 0 0];


internalField   nonuniform List<scalar> 
14479
(
0.0139713
0.0233546
0.000384741
0.00667673
0.000975692
0.00647838
0.0068166
0.000213737
0.000286124
0.000206294
0.00678223
0.00142852
0.000912517
0.033687
0.0482867
0.00636291
0.00681806
0.045151
0.00676013
0.00408531
0.00198442
0.00250765
0.00211892
0.0120596
0.0067817
0.00676057
4.26847e-05
0.000265238
0.0055076
3.01384e-05
0.000316375
0.0113573
0.00757528
0.00354734
0.000398755
0.000480002
0.00681354
0.00645019
0.021917
0.000497309
0.00634154
0.00676037
0.0234972
0.0190653
0.00681684
0.00640952
0.00674657
0.020579
0.00619958
0.00675898
0.00103328
0.000479391
0.00675349
0.000836417
0.00133093
0.0016316
0.000593584
0.00339477
0.0409028
0.00290244
0.00679168
0.0065091
0.0286949
0.00674163
0.00682194
0.00608319
0.0222979
0.00542594
0.00675254
0.00516074
0.00442389
0.00674597
0.00145622
0.000451815
0.00603034
0.00674263
0.00378962
0.0280833
0.00678319
0.00234687
0.00676464
0.00033651
0.0336052
0.00026194
0.000369811
0.00286256
0.00407136
0.0068267
0.00022645
0.00285279
0.000313272
0.00851079
0.00682338
0.00673989
0.00731444
0.00677155
0.0067878
0.00669033
0.0067206
0.0315726
0.00178941
0.00635428
0.000749065
0.000600157
0.000469504
0.0001254
0.00183403
0.0030733
0.000198852
0.0321071
0.00152183
0.0459939
0.0109642
0.00335125
0.000186007
0.000596004
0.0067643
0.0303907
0.00195905
0.00506275
0.00673914
0.00530425
0.00113954
0.00671956
0.00762404
0.0116888
0.0030271
0.00303393
0.00105194
0.00332136
0.00803787
0.0100705
4.99638e-05
0.0278164
0.0289275
0.00121314
0.0001515
0.000276146
0.0142456
8.26524e-05
0.0270026
0.0194921
0.00682112
0.0289479
0.00676554
0.030941
0.0204007
0.00702557
0.00710448
0.000671604
0.0388084
0.00674068
0.0432549
0.00194795
0.00676168
0.00679801
0.0431847
0.00690088
0.0278135
0.00143469
0.000439055
0.00671712
0.00674006
0.00290344
0.0419439
0.006675
0.00674878
0.000323226
0.000252942
0.028456
0.0186194
0.00123532
0.00639967
0.000932739
0.00673337
0.00439646
0.00135629
0.00674236
0.0129329
0.0258055
0.000929997
0.00691947
0.0340245
0.00849546
0.0277366
0.00773222
7.84678e-05
0.0123094
0.0031529
8.19731e-05
0.0204236
0.00132591
0.00890837
0.0447744
0.00629682
0.00153377
0.00683937
0.0126633
0.00216027
0.00673835
0.000704637
0.00270466
0.00331126
0.00675061
0.000828829
0.00693856
0.0357911
0.00638182
0.00675979
0.000599774
0.00171606
0.00626997
0.000758637
0.000826713
2.94581e-05
0.00669521
0.00828912
0.00683774
0.00892171
0.00518484
0.0414095
3.8508e-05
0.0023976
0.00689487
0.000251425
0.00658791
0.00443409
0.00672407
0.000438672
0.00826424
0.00537637
0.00876424
0.0171999
0.00697979
0.00660336
0.0190834
0.00204127
0.000308278
0.0137861
0.00676009
0.00473281
0.00673851
0.000330698
0.00292188
0.00746932
0.000279306
0.0107637
0.0351881
0.00505111
0.00676293
0.00760453
0.00900862
0.0115002
0.000251444
0.0139549
0.00673724
0.000893939
0.00676681
0.00259155
0.00675847
0.0067242
0.00426965
0.00675794
0.00674581
0.00674859
0.00105338
0.00266136
0.00676406
0.0116833
0.00138807
0.000450561
0.00684163
0.00743446
0.00130047
0.000308199
0.0353519
0.00031704
0.00677531
0.00217023
0.00184534
0.000321586
0.00626051
0.00254497
0.00196397
0.00016112
0.000245518
0.0004443
0.000273729
0.00162948
0.0126608
0.000158244
0.00682945
0.00287011
0.00704898
0.00282968
0.0494234
0.0167917
0.00345967
0.000765995
0.0361382
0.0172063
0.00393458
0.00674666
0.00681705
0.00162146
0.0151055
0.00672962
0.00376736
0.00676109
0.000185135
0.00682593
0.00274067
0.00216537
0.00709776
0.00164055
0.000401264
0.000988705
0.00201732
0.001511
0.00674044
0.0189672
0.000300212
0.0269468
0.00425626
0.00680204
0.0167962
0.00376398
0.0235957
0.000928213
0.00211489
0.00109672
0.00681051
0.00365207
0.000555868
0.0064812
0.00258969
0.00992623
0.00111904
0.00216112
0.0032018
0.0068124
0.00282807
0.00675357
0.000703119
0.0349997
0.00187311
0.0224455
0.00123808
0.000379744
0.00286116
0.00675084
0.0160645
0.00162232
0.00661762
0.00090218
0.0134
3.82972e-05
0.000495
0.00680196
0.00145179
0.0070583
0.0011287
0.000818434
0.00214079
0.00243866
0.00706271
0.00685164
0.00340675
0.000336997
0.00685852
0.00641742
0.021099
0.00641426
0.000308088
0.0405056
0.000156633
0.00662107
0.000217183
0.00226425
0.00362347
0.00258022
0.000273142
0.00674927
0.00273044
0.00115457
0.00449007
0.0154219
0.00644374
0.00327392
0.00268401
0.000180633
0.0138821
0.00212314
0.0274451
0.0340493
0.00811374
0.00303041
0.0423364
0.000751651
0.00012764
0.000933657
0.000310711
0.00113426
0.00858033
0.000474415
0.00167632
0.000909848
0.00309829
0.00113971
0.00105067
0.0253551
3.23425e-05
0.000778046
0.00075362
0.00680063
0.028559
0.00443643
0.00224326
0.00896226
0.000269237
0.0177264
0.0224819
0.0135267
0.0278147
0.00835574
0.00353932
0.00210446
0.000963036
0.00690577
0.00684601
0.00530472
0.000599593
0.0030379
0.0399831
0.00686703
0.000719857
0.0186787
0.00329015
0.000475006
0.00680653
0.0143831
0.00676499
0.00693302
0.00419981
0.00681196
0.0067472
0.00176519
0.0433055
0.00107261
0.00497747
0.00696983
0.00681587
0.00347794
0.00154114
0.00291808
0.00106817
0.00679957
0.000115731
0.00130687
0.000194867
0.000166826
0.00525987
0.00276651
0.00143225
0.0420954
0.00673331
0.000708214
0.000615573
0.0144263
0.0067855
0.00672617
0.000393404
0.0063309
0.00664546
0.0225422
0.00478368
0.000340788
0.021485
0.00286449
0.00668561
5.21549e-05
0.000522093
0.00598038
0.0415004
0.000639411
0.00656951
0.00688416
0.00387338
0.021797
0.0122027
0.00675462
0.00674163
0.000154998
0.00680653
0.00657032
0.00384129
0.00674228
0.000186655
0.00669669
0.000152548
0.000601598
0.00661529
0.0134901
0.00041311
0.020432
0.000208415
0.000122615
0.0207074
0.00129577
0.00659358
0.00532103
0.00226067
0.00197538
0.000222278
0.00331674
0.0170753
1.07513e-05
0.00218568
0.0276584
0.000271719
0.0214337
0.00211222
0.00672616
0.000880958
0.00468578
0.000304456
0.00612804
0.00196908
0.0369274
0.00654465
0.0166914
0.000988557
0.00150624
0.00675016
0.00674695
0.00688947
0.00122986
0.00324409
0.00116522
0.00124746
0.00120032
0.00552027
0.000962533
0.00676502
0.0374865
0.00238554
0.00353826
0.0162252
0.00209408
0.00397241
0.00202757
0.000112475
0.0271164
0.00611449
0.000884978
0.0245947
0.00178619
0.000693469
0.00645593
0.0158642
0.00695656
0.00386874
0.0065835
0.0264809
0.000246319
0.00328422
0.00641269
0.0347189
0.00125155
0.00674255
0.0268509
0.00132073
0.00162371
0.00728622
0.000790461
0.000268992
0.000881807
0.00298311
0.000130063
0.0137434
0.00609659
0.00154797
0.00146477
0.0159252
0.00397402
0.0201389
0.00181864
0.000786341
0.00379366
0.0022363
0.00138641
0.00653883
0.0100493
0.00141262
0.00527743
0.0418386
0.0276179
0.00675577
0.0162293
0.00540482
0.00648103
0.00115062
0.00628501
0.00186333
0.00197522
0.000428908
0.00390372
0.000773868
0.000414902
0.00213352
0.000779733
0.000902362
0.00941651
0.0017924
0.0051578
0.0127617
0.00515014
0.000218675
0.00651947
0.0422459
0.0027705
0.0143164
0.0010586
0.00105535
0.00681322
0.000514274
0.00187662
0.00146717
0.00180177
0.00158262
0.00423593
0.00672049
0.000583458
0.0022969
0.00711832
0.0292271
0.0040275
0.000616963
0.0358659
0.00675502
0.00151401
0.00647738
0.0113168
0.0194534
0.000813158
0.00183752
0.000543576
0.0048996
0.000358894
0.00161384
0.00675687
0.00402921
0.00166768
0.00706201
0.000476456
0.00497624
0.000418357
0.00169747
0.0281775
0.00456813
0.0279853
0.0323167
0.00673025
0.00645278
0.00078926
0.00431627
0.000534494
0.00690711
0.00199069
0.00674766
0.00507986
0.00123992
0.00691811
0.00675126
0.00675419
0.00683722
0.000813699
0.00139182
0.00684593
0.0147524
0.0029034
0.00190804
0.0011892
8.06258e-05
0.0070121
0.00687057
0.00400462
0.00707287
0.0392807
0.0104568
0.00202842
0.000292499
0.00219603
0.00182245
0.00202803
0.0277249
0.00718215
0.00400053
0.00706661
0.00182142
0.00375796
0.006424
0.00071963
0.00236882
0.00682361
0.0007513
0.00617453
0.0115897
0.0117777
0.015913
0.0306338
0.00395985
0.0212059
0.0124872
0.00186466
0.012794
0.00710627
0.00896607
0.00110672
0.00675258
0.00127335
0.000595567
0.00273845
0.00175846
0.00721025
0.0223476
0.000183002
0.00303999
0.00144535
0.000703472
0.00674656
0.00676459
0.000167055
0.000758171
0.0357591
0.0067541
0.000446914
0.00162588
0.000646623
0.00259575
0.00109051
0.00674988
0.00314059
0.000579868
0.00675094
0.00680658
0.00486045
0.00145856
0.00639287
0.01936
0.0302256
0.00307465
0.000279177
0.0286011
0.0123878
0.000418474
0.000883793
0.0088191
0.000403167
0.000747092
0.0126937
0.00741208
0.00380975
0.0195539
0.00682157
0.0365958
0.0273494
0.0010134
0.000250817
0.00382248
0.000675356
0.00155271
0.00675571
0.0070745
0.00489849
0.00200358
0.0439487
0.021419
0.00679622
0.0297548
0.00134638
0.00222689
0.000109139
0.00674838
0.0429094
0.00148865
0.000527022
0.015577
0.00633167
0.0109429
0.000141812
0.000932984
0.00207858
0.000598308
0.0202233
0.0291427
0.000112946
0.000236561
0.00673357
0.033911
0.00259373
0.00239721
0.00225546
0.000888814
0.0144943
0.00669414
0.00882269
0.000556928
0.0166694
0.00691865
0.00112622
0.0462441
0.00647664
0.0080943
0.00717269
0.000490686
0.000515435
0.0111282
0.00224614
0.00392459
0.0253189
0.00674164
0.00607187
0.00927269
0.00581934
0.0170716
0.00261115
0.0067702
0.0104487
0.000387853
0.00093074
0.0064838
0.00641559
0.022565
0.0234575
0.000131356
0.0120268
0.00692467
0.0163455
0.000307659
0.0021684
0.000859805
0.00136292
0.00106324
0.0117635
0.00645626
0.00680255
0.00491045
0.00242973
0.00230898
0.00826861
0.00946502
0.00138598
5.56897e-05
0.000119421
0.0237069
0.0358881
0.00653369
0.000225326
0.00170873
0.0489788
0.00023138
0.00733452
0.00674246
0.0170328
0.00562269
0.00659307
0.0191698
0.000264944
0.034384
0.00714826
0.00176703
0.00128181
0.0063388
0.000919992
0.00674369
0.00719642
0.00144681
0.00526397
0.00375933
0.00702812
0.00348876
0.0177523
0.0137197
0.0121317
0.000622603
0.0253571
0.000812837
0.00674892
0.000232598
0.000352274
0.0177476
0.00636051
0.0155185
0.00674936
0.00223718
0.00348801
0.00157553
0.00698546
0.00675298
0.00304932
0.00714931
0.00431086
0.000407269
0.0320984
0.0395014
0.0106715
0.00676682
0.00648351
0.00674675
0.0067702
0.00617513
0.00616147
0.00187309
0.00137661
0.00685873
0.00132985
0.000424305
0.0063937
0.000412998
0.0350962
0.00611641
0.00666294
0.0117694
0.00366609
0.00161646
0.00555901
0.00676771
0.00677941
0.000127885
0.00491646
0.00056533
0.000795361
0.00685303
0.00674147
0.00416403
0.022255
0.000675461
0.0291615
0.00216959
0.00366541
0.0315197
0.0119559
0.00185006
0.000728997
0.0269337
0.00284486
0.00956341
0.016725
0.006744
0.00778257
0.00426244
0.00196448
0.00109142
0.0067471
0.00108923
0.0363106
0.00058597
0.0306263
0.00674272
0.00664133
0.000960667
0.00679783
0.0067864
0.00679755
0.000608759
0.00197015
0.0066568
0.000918926
0.00605575
0.00221632
0.00654179
0.00512957
0.00679221
0.00154745
0.00717241
0.0024164
0.00131004
0.00812606
0.0149521
0.00516131
0.0056333
0.010664
0.00736704
9.3693e-05
0.022582
0.0148443
0.00495532
0.000226415
0.00245259
0.00026101
7.08473e-05
4.47307e-05
0.00111708
0.00043925
0.00674652
0.0019549
0.00667569
0.00162536
0.0150959
0.00222649
0.017766
0.00382734
0.0138896
0.00362744
5.94184e-05
0.000248389
0.0067956
0.0304284
0.00708162
0.0382551
6.63633e-05
0.00504778
0.000405977
0.00675645
0.000947393
0.000677583
0.00403741
0.000169164
0.00152864
0.00427813
0.0322549
0.0201745
0.00694167
0.00206096
0.0297562
0.0018586
0.00590917
0.00139995
0.0293375
0.00682759
0.00429043
0.009648
0.0128145
0.00817777
0.0158525
0.000437863
0.0105529
0.00674255
0.00829601
0.0067428
0.000418534
0.000653894
0.00392111
0.00127416
0.00403986
0.0029918
0.00604796
0.000182482
0.00138364
0.00674533
0.000416934
0.037803
0.00581769
0.00317548
0.0067397
6.71777e-05
0.00421386
0.00656087
0.00889101
0.00701422
0.00680126
0.0249094
0.00723993
0.000255927
0.00369837
0.00681564
0.00285068
0.030053
0.0176645
0.0451285
0.00399057
0.00241985
0.0293022
0.0133139
0.0014857
0.00167072
0.00680071
0.0322931
0.000143282
0.0336198
0.0114876
0.00291271
0.00113079
0.00690708
0.00679693
0.0199584
0.000225507
0.0132586
2.29511e-05
0.000166317
0.0383591
0.006919
0.00206653
0.00667102
0.0404178
5.17774e-05
0.0402484
0.00116169
0.0136491
0.00409526
0.00470024
0.000980826
0.0067837
0.0020321
0.00317668
0.000781029
0.000515703
0.000772504
0.000645633
0.02993
0.00709697
0.00206782
0.00815824
0.00681458
0.000752277
0.00120127
0.0337443
0.0360133
0.000907119
0.00127394
0.0389177
0.00649569
0.00023102
0.000106521
0.00685323
0.0536773
0.010667
0.000586664
0.00675052
0.00126636
0.0362832
0.00628946
0.0010266
0.000203223
0.00509131
0.000387166
0.00609445
0.000248359
0.00163166
0.000166509
0.00132122
0.0379029
0.00681166
0.0291862
0.00157
0.00187914
0.00108498
0.00675191
0.00277345
0.00644743
0.00688783
0.00138265
0.00988806
0.000367184
0.00182085
0.0071807
0.000980882
0.00108225
0.000985131
0.000599265
0.00674924
0.00147659
0.00176275
0.000405422
0.00387504
0.000950279
0.00375212
0.000216453
0.00214753
0.00210163
3.18634e-05
0.000198503
0.00601086
0.0270322
0.0025866
9.69646e-05
0.00795086
0.00673083
0.0362178
0.0069777
0.00206011
0.00051256
0.00207866
0.0023094
0.00148489
0.000615207
0.0336273
0.00398467
0.00679306
0.000333689
0.00105003
0.0378832
0.00669937
0.000992888
0.000911906
0.00506984
0.0020014
0.00811623
0.000671762
0.000584136
0.00021542
0.000235747
0.00059897
0.000212503
0.00155199
0.00324996
0.000635681
0.000850013
2.87178e-05
0.00192798
0.0408968
0.00196703
0.00851373
0.00429169
0.0314045
0.000841366
0.000244749
0.00701169
0.00863715
0.00220995
0.00312198
0.00486036
0.000153064
0.00226716
0.000827756
0.00690268
0.000101345
0.000976194
0.0214323
0.0252675
4.73309e-05
0.0106421
0.000681226
0.0436219
0.0022291
0.00220863
0.00686779
0.00240143
0.00674245
0.000307245
0.0163343
0.00303165
0.0067562
0.00512271
0.00958291
0.000454481
0.00208604
0.000147464
0.00866947
0.0307047
0.000172602
0.000339716
0.0379029
0.000361827
0.00531375
0.000804692
0.0139657
0.00208625
0.00674492
0.00741546
0.00674095
0.00118041
0.00519355
0.00730626
0.035677
0.00148063
0.000873615
0.0113282
0.0417522
0.00350944
0.00058404
0.0101293
0.0276082
0.00693711
0.0102552
0.0116876
0.000720809
0.0125728
0.0245787
0.00168213
0.00678894
0.00212567
0.0379818
0.000520904
0.0258409
0.00774629
0.000303373
0.00170364
0.00118744
0.00149539
0.0060329
0.0170604
0.00195502
0.000271298
0.00136728
0.00164747
0.00464418
0.000854287
0.00630514
0.000450034
0.00013925
0.00092259
0.0104803
0.000277266
0.0172607
0.00242997
0.00681729
0.000778557
0.000123907
0.0018668
0.0050811
0.00452247
0.00887834
0.00705459
0.000142008
0.00674358
0.0062924
0.00358928
0.00674274
0.00752106
0.00674361
0.000300534
0.00728234
0.00290566
0.00243331
0.00408095
0.00651885
0.000826722
0.0069744
0.00066723
0.00442904
0.00674531
0.0073765
0.00111075
0.0110275
0.00676478
0.00149635
0.00219963
0.00224588
0.00675684
0.0144392
0.0048007
0.020305
0.00414381
0.0194182
0.00678665
0.00119524
0.00401004
0.00845861
0.00178144
0.00310604
0.00201359
0.00706401
0.0127844
0.00220827
0.00209564
0.000572961
0.000850835
0.00673069
0.00565034
0.000968717
0.00746313
0.000755019
0.000234536
0.000422031
0.0380106
0.00146223
0.00697491
0.00226615
0.00674067
0.0128828
0.000798831
0.0178635
0.00659342
0.00139706
0.00688303
0.000995465
0.00662276
0.00375232
0.000975042
0.000370771
0.00681895
0.0023482
0.0383877
0.00675748
0.000438052
0.00688803
0.0369954
0.0278997
0.00125092
0.00200627
0.0167742
0.000106027
0.0520679
0.00678886
0.00682653
0.000555813
0.0443234
0.000212594
0.00679863
0.00674012
0.0194171
0.0422849
0.00663311
0.00156735
0.040143
0.0011101
0.00598115
0.00755544
0.00679375
0.00642606
0.00673408
0.00678442
0.00765467
0.039386
0.000163792
0.0484101
0.000245663
0.00674197
0.00680804
0.00673111
0.00240197
0.000329465
0.0390034
0.000380707
0.00732372
0.000393156
0.00676901
0.00089513
0.00240669
0.00438672
0.000368618
0.014441
0.00368083
0.0100959
0.000365551
0.0171114
0.0309034
0.000817219
0.00221603
0.0146955
0.0066827
7.37973e-05
0.00121382
0.000678278
0.000689875
0.0265704
0.00112159
0.00075181
0.00803699
0.000799885
0.0355927
0.025263
0.029152
0.00674736
0.0163673
0.00696429
0.00336516
0.00534856
0.00056113
0.000155849
0.00670343
0.00235612
0.0415607
0.000434833
0.000733906
0.0191188
4.00777e-05
0.00125502
0.0143232
0.0420587
0.00674796
0.00674443
0.00303686
0.00692385
0.00674507
0.00197781
0.00228469
0.00679998
0.000581348
0.0036858
0.00100881
0.000711721
0.0350925
0.015485
0.000583073
0.000194424
0.00419283
0.00675337
0.000258875
0.00676138
0.0369207
0.029923
0.00474835
0.030178
0.0322289
0.00118662
0.00825985
0.00335129
0.000183101
0.00485841
0.00707429
0.0400112
0.00174104
0.0357321
0.000521705
0.00151272
0.0219298
0.00241301
0.00673505
0.000207698
0.0436842
0.00120338
0.00203617
0.000427366
0.000399419
0.0230823
0.00245593
0.00130601
0.00312713
0.0300385
0.00204853
0.00605606
0.000336461
0.0242587
0.000309609
0.0254928
0.0063245
0.000556542
0.000600933
0.0436364
7.84369e-05
0.000398036
0.00675797
0.00682023
0.000396662
0.00101164
0.00649637
0.00130623
0.00672473
0.000449822
0.000841342
0.000386018
0.0310179
0.035632
0.00673172
0.0245452
0.0351337
0.000578393
0.000145452
0.00837624
0.000112537
2.90191e-05
0.0104545
0.00231955
0.0104674
0.00561293
0.0293611
0.00195057
0.025533
0.0120784
0.0338445
0.00673246
0.0054746
0.00165381
0.0282905
0.0019566
0.0213137
0.0451781
0.00091617
0.00154344
0.00228842
0.00569712
0.000354684
0.000302191
1.71146e-05
0.0356748
0.00102848
0.00679232
0.000533447
0.00645711
0.026776
0.0231226
0.000176061
0.0274591
0.00146714
0.00660476
0.00292115
0.00692998
0.00698974
0.00127598
0.00881569
0.00205812
0.00673199
0.00167751
0.00678402
0.00202875
0.00778191
0.00674941
0.000404561
0.00122741
0.0119354
0.0520243
0.000895297
0.000887393
0.0252077
0.00162571
0.0184456
0.00188869
0.00675696
0.00675364
0.000489193
0.0310205
0.000894545
0.000539995
0.000211637
0.000241681
0.000168143
0.00671383
7.39588e-05
0.00659301
0.000173037
0.00175169
0.00226789
0.0057686
0.000150159
0.00679902
0.00169294
0.00680555
0.0019749
0.00918549
0.00682282
0.00735397
0.0289501
0.000487608
0.00681973
0.0168062
0.000585755
0.00872943
0.000279585
0.0003255
0.000607191
0.018503
0.00677438
5.50304e-05
0.00296927
0.0237899
0.0240598
0.0387047
0.000201135
1.98113e-05
0.00662618
0.000657377
0.00223763
0.000199861
0.0389194
0.00720547
0.00412918
4.03356e-05
0.00674747
0.00673615
0.00759072
0.00927962
0.000169291
0.000388461
0.00674217
0.00171257
0.00729113
0.030361
0.0165194
0.000940737
0.00067637
0.0281138
0.00188778
0.00115767
0.00675509
0.000926846
0.0101776
0.0120392
0.0294395
0.00678037
0.00143103
0.00674337
0.00301279
0.00938888
0.00448452
0.00736101
0.00710401
0.00681395
0.0152082
0.0116839
0.00126458
0.0245769
0.000190303
0.00113139
0.00144218
0.00886166
0.014827
0.00579561
0.0405476
0.053696
8.43238e-05
0.0157298
0.040012
0.00672413
0.00701362
0.00238536
0.000740662
0.00129029
0.00673206
0.000404844
0.00678636
0.00149138
0.0383898
0.0028019
0.00130324
0.014305
0.00678406
0.0452372
0.00128903
0.00267728
0.00881071
0.000534736
0.00124089
0.00265292
0.000336107
0.00674517
0.00146671
0.002659
0.00690407
0.00230243
0.00599976
0.00064753
0.00201989
0.00176245
0.000717085
0.00736157
0.032242
0.00618497
0.00179444
0.032184
0.0164959
0.00144341
0.000826209
0.0105238
0.000966559
0.000425225
0.00677392
0.051322
0.0067562
0.000686986
0.0075589
0.00733154
0.000518112
0.0350983
0.00603557
0.00112214
0.0183947
0.00356549
0.0349772
0.00620469
0.000248001
0.0069107
0.00633902
0.00678648
0.00120893
0.00165932
0.00693448
0.000277118
6.05023e-05
0.00525233
0.000301536
0.00673249
0.0051159
0.0396172
0.00674567
0.000174617
0.0116937
0.00036549
0.003473
0.0326243
0.0350928
0.00693133
0.00043644
0.00218674
0.000505953
0.000372358
0.000546354
0.000205411
0.00702936
0.00054021
0.00264791
0.00463371
0.00817271
0.00780383
0.000710604
0.00152165
0.00103329
0.0218325
0.00097991
0.00194048
0.00301559
0.000398633
0.000841204
0.000393142
0.0028933
0.0067796
0.000402019
0.00296587
0.0352715
0.00079443
0.0128634
0.00183534
0.00677971
0.000865798
0.00134531
0.000938432
0.00677856
0.000595791
0.00163131
0.00643782
0.00678601
0.000480659
0.000800807
0.00026965
0.000862154
0.0021574
0.0124607
0.00125568
0.0077486
0.00225967
0.00191167
0.0313322
0.000481069
0.00672499
0.00677415
0.00562154
0.00126834
0.0115377
0.00317238
0.00244164
0.000989079
0.00440845
0.0125998
0.00729878
0.00048047
0.000251227
0.0366892
0.0169206
0.034113
0.00474854
0.000974978
0.00335298
0.031716
0.00347185
0.0323401
0.0213275
0.0227063
0.0182132
0.00676517
0.00194838
0.00674071
0.00262498
0.00091976
0.00202104
0.00716513
0.000556358
0.00687474
0.000780198
0.00231471
3.28809e-05
0.00676153
0.00205605
0.010658
0.0347811
0.000574324
0.0273957
0.000191147
0.00174512
0.00675253
0.00219395
0.000422183
0.000974961
4.40747e-06
0.00094861
0.00143089
0.000288709
0.00475003
0.000467313
0.00206306
0.00670538
0.0140098
0.00257657
0.0127946
0.00221224
0.00627983
0.00311539
0.00614105
0.00312266
0.00678641
0.00673243
0.00673991
0.0207388
0.0063281
0.00407542
0.0208409
0.011486
0.00531365
0.00218246
0.0027771
0.00103362
0.00806975
0.00659169
0.0016423
0.00198988
0.00173863
0.00156697
0.00285557
0.00657318
0.0117854
0.0067398
0.00569937
0.00672893
0.000739317
0.000171472
0.00044045
0.00361836
0.00674477
0.00679076
0.00162161
0.00548133
0.0107109
0.00159367
0.00666081
0.00243575
0.00639604
0.00683455
0.000481942
0.0347527
0.00957922
0.00992785
0.000183936
0.00672718
5.25208e-05
0.00174679
0.000263738
0.0024634
0.00678222
0.00673613
0.000834172
0.000592676
0.000127224
0.0100571
0.0306581
0.00737306
0.00146665
0.00138137
0.00223793
0.00180916
0.00764461
0.00674693
0.0145815
0.00077077
0.0340628
0.0223228
0.00130918
0.0132042
0.00243806
0.00092404
0.00156939
0.000594584
0.000548625
0.0228164
0.000337237
0.000181171
0.00681526
0.00271512
0.00209137
0.00245959
0.000525578
0.000430796
0.000608384
0.0156968
0.00103859
0.00347089
0.00158103
0.00276447
0.000416641
0.000254438
0.000453653
0.00041137
0.0361636
0.000300287
0.000200761
0.000705469
0.00119411
0.000492963
0.00677933
0.0137276
0.00253849
0.0100186
0.00128133
0.00147559
0.0109661
0.00121312
0.00687244
0.00166586
0.00153054
0.00149243
0.00765425
0.000449278
0.00212191
0.00707863
0.00191745
0.000132309
0.00147926
0.00212866
0.00674914
0.0324714
0.0489576
0.00675827
0.00144721
0.000744386
0.0230992
0.000632735
0.00042562
0.000195056
0.00210682
0.0258468
0.00111216
0.00234751
0.000557986
0.0067388
0.00674609
0.00673457
0.0260253
0.000255461
0.00104657
0.00599668
0.014699
0.0164765
0.00564849
0.000846815
0.0275645
0.0067939
0.020433
0.00403221
0.000848767
0.00647056
0.0012058
0.00887682
0.00256998
0.00765565
0.0532183
0.00193141
0.00218312
0.0330217
0.00204555
0.0534376
0.0262632
0.00678717
0.00159423
0.00226564
0.00704451
0.00679682
0.000159803
0.000827588
0.0067516
0.00730133
0.00245238
0.00172785
0.00877207
0.00756614
0.00606061
0.00673929
0.00662315
0.006742
0.00677039
0.00345348
0.00235492
0.0199996
0.00969382
0.0244604
0.000431359
0.0101719
0.00684773
0.00839071
0.00161855
0.00677572
0.00674132
0.00505954
0.000835706
0.00674215
0.00105285
0.0107043
0.000243419
0.00674588
0.0146747
0.000866575
0.00221429
0.000365243
0.00675483
0.00667769
0.000725041
0.00127722
0.00789325
0.0125228
0.00445231
0.00285748
0.0425115
0.00185253
0.00683064
7.17019e-05
0.000637701
0.00683786
0.00675363
0.0166179
0.0012473
0.00761097
0.000243856
0.00037471
0.00653355
0.00243838
0.0161757
0.013774
0.0364752
0.0067379
0.0417833
0.00015779
0.00168316
0.00204254
0.0300571
0.00264176
0.00652946
0.000467919
0.0144433
0.000152393
0.00936385
0.000744734
0.000131184
0.00115226
0.00716234
0.006797
0.00153873
0.00637155
0.0058113
0.000217735
0.00682573
0.024843
0.000567274
0.00654501
0.000312383
0.0067701
4.98039e-05
0.0123072
0.00591528
0.0157845
0.000144113
0.00744888
0.0268414
0.00280511
0.0067273
0.0013841
0.000692645
0.000181967
0.000228876
0.000215569
9.00563e-05
0.0401513
0.012005
0.00674086
0.00657705
0.000895072
0.0106803
0.00162351
0.0067319
0.0352916
0.00574645
0.0067832
0.00674275
0.0288446
0.0283176
0.00672833
0.000293557
0.00677705
0.0180913
0.00684977
0.00218001
0.0393778
0.000187741
0.0059361
0.0121082
0.0282259
0.0319713
0.0304771
0.0116524
0.00678514
0.00673196
0.0329113
0.00674596
0.0140826
0.0069468
0.00374461
0.000115117
0.00194984
0.00673529
0.010359
0.00200308
0.00103417
0.00407327
0.0114255
0.00674642
0.00618634
0.000412879
5.52093e-05
0.00200747
0.00578465
0.00126453
0.000126709
0.0092015
0.00121565
0.0067559
0.000170994
0.00714587
0.000664939
0.000413849
0.00673221
4.30802e-05
0.00325264
0.000312085
0.000108421
0.00258214
0.0150275
0.000465165
0.0127582
0.000450828
0.00674575
0.000185977
0.00670937
0.0047956
0.00148079
0.0504271
0.00116111
0.0334855
0.0142133
4.40501e-05
0.00182777
0.00206621
0.00616714
0.013205
0.0238412
0.00307412
0.0068096
0.000507855
0.000251305
0.00219328
0.0307155
0.00306439
0.00383306
0.000734832
0.00578193
0.00667465
0.000299135
0.000508532
0.000610804
0.00688454
0.00694106
0.0102099
0.0211712
0.00071288
0.00200807
0.023592
0.00661113
0.0250083
0.0261444
0.000523813
0.000193072
0.000111007
0.00036063
0.0130209
0.000247709
0.000943183
0.000239935
0.00677764
0.00133567
0.000455436
0.00621447
0.0137773
0.0012169
0.00157387
0.00211171
0.00247058
0.0279317
0.000249578
0.000484501
0.0272064
0.0251587
0.000785072
0.00139097
0.000942839
0.0357014
0.0118101
0.00772678
0.000837518
0.00676151
0.000624721
9.30345e-05
0.00674532
0.000330178
0.00732117
0.0014801
0.000207355
0.00224366
0.00674736
0.00979969
0.00826808
0.000776576
0.000142015
0.00193484
0.0082152
0.000195255
0.0432282
0.00231806
0.00139959
0.00673726
0.000743316
0.00944229
0.000558591
0.000999917
0.0296614
0.000765104
0.00679173
0.0315657
0.0229417
0.00494537
0.00507607
0.00069643
0.00682387
0.000940347
0.00674542
0.0170838
0.00746
0.00708874
0.0102636
0.000520635
0.0150768
0.00226824
0.00723856
0.00709007
6.17407e-05
0.000459822
0.000284297
0.00675157
0.00677341
0.000433542
0.000650732
0.00681351
0.00110547
0.00024149
0.0135855
0.0109775
0.000174481
0.00485375
0.00441462
0.00181015
0.00673591
0.00683521
0.000350665
0.00676533
0.0351383
0.00205997
0.0065111
0.000974902
0.00148597
0.000187656
0.0351561
0.00116263
0.000555833
0.00123315
0.00679202
0.00409595
0.00191192
0.00464994
0.00605328
0.0158477
0.0067562
0.0062353
0.00168428
0.000754495
0.00128781
0.000627758
0.000160262
0.00537108
0.00126909
0.000308424
0.0100497
0.00713513
0.000216045
0.00036623
0.00601612
0.0283973
0.0424603
0.00175809
9.86907e-05
0.00685601
0.00860859
0.00285207
0.000353395
0.000295944
0.00648827
0.00135695
0.000799056
0.00104888
0.000437049
0.000856843
0.0245645
0.000808139
0.00692622
0.010832
3.34876e-05
0.0360685
0.00670724
0.00308587
0.000101792
0.00680175
0.000323601
0.000999829
0.00673747
0.0154914
5.31101e-05
0.0100723
0.00713135
0.000371973
0.000908056
2.9686e-05
0.00681652
0.00672837
0.0358273
0.0015385
0.000662069
0.0271512
0.00673643
0.000513983
0.00134437
0.00113588
0.0025171
0.000401453
0.00178241
0.00190892
3.3735e-05
0.0138786
0.000754601
0.031598
0.0103402
0.00673062
0.00757572
0.00136339
0.000202551
0.000428484
0.000405191
0.00673102
0.00234574
0.013858
0.000401358
0.000848713
0.000140009
0.000423021
0.000294042
0.0247318
0.00675136
0.000677004
0.00208046
0.00670753
0.00675072
0.00123955
0.000572668
0.00798492
0.000339731
0.00503954
0.000809072
0.000153256
0.000266959
0.00681269
0.00642405
0.0260837
0.00113573
0.00130435
0.00656666
0.00038266
0.000270267
0.00272433
0.00112861
0.0358473
0.007765
0.000547742
0.00167694
0.00699781
0.000221947
0.0231018
0.00753463
0.000932554
0.00105742
0.00029531
6.3135e-05
0.00257587
8.60297e-05
0.000688715
0.00813331
0.000836895
0.00186509
0.00600239
0.00672932
0.00634339
0.00133752
0.000235699
0.0242135
0.00139793
0.000102468
0.00147969
0.00156374
0.00714502
0.00225684
0.000575862
0.00672752
0.00551978
0.000257953
0.00685506
0.000413755
0.000588826
0.0114347
0.00213291
0.00674024
0.00492645
0.00109112
0.00685801
0.00810257
0.000527275
0.0185724
0.00678575
0.0400127
0.0006474
0.000927105
0.00240759
0.000228622
0.00554095
0.00564656
0.00251582
0.00694871
0.00876619
0.000178263
0.00042478
0.00653514
0.000497471
0.0011777
0.000806149
0.0104871
0.000319321
0.00772547
0.000136577
0.00640686
0.00238557
0.0138324
0.0067378
0.00116908
0.00390519
0.00058531
0.000659696
0.0194434
0.0136366
0.00299655
9.61721e-05
0.00677941
0.00526054
0.000845015
0.0104642
0.0252871
0.0214885
0.0238811
0.000142113
0.000154985
0.000220181
0.0252587
0.000155957
0.00182232
0.00673785
0.00082099
0.000458314
0.0149761
0.0350626
0.000171803
0.0196962
0.00679027
6.67018e-05
0.000374201
0.000833358
0.00193398
0.00093326
0.00677769
0.00217126
0.00565087
0.00202891
0.0283445
0.0127109
0.00207291
0.000927834
0.00675815
0.00230919
0.000125059
0.00675674
0.000458075
0.00774226
0.00674007
0.000173639
0.00119949
0.0221052
0.00132123
0.00141969
0.00673396
0.00691924
0.00767862
0.000551822
0.00243794
5.60024e-05
0.00676488
0.00133771
0.00185687
0.0023193
0.000373413
0.00230076
0.0161271
0.00175806
0.00193973
0.00691434
0.0012091
0.00160467
0.00691132
0.000478865
0.000887756
2.8509e-05
0.00767936
0.000439342
0.0205961
0.00224192
0.0124745
0.00175545
0.000462011
0.0272211
0.00677867
0.0309023
0.000188785
0.00235686
0.000664055
0.00212688
0.00649185
0.000104911
0.0330839
0.0280982
0.02713
0.0286823
0.000265911
0.00164262
0.00649125
0.00673919
0.002587