/*--------------------------------*- C++ -*----------------------------------*\
| =========                 |                                                 |
| \\      /  F ield         | OpenFOAM: The Open Source CFD Toolbox           |
|  \\    /   O peration     | Version:  v2012                                 |
|   \\  /    A nd           | Website:  www.openfoam.com                      |
|    \\/     M anipulation  |                                                 |
\*---------------------------------------------------------------------------*/
FoamFile
{
    version     2.0;
    format      ascii;
    class       volScalarField;
    location    "150";
    object      epsilon_0;
}
// * * * * * * * * * * * * * * * * * * * * * * * * * * * * * * * * * * * * * //

dimensions      [0 2 -3 0 0 0 0];


internalField   nonuniform List<scalar> 
13851
(
4.4434e-06
1.90286e-06
1.90149e-06
0.0752384
3.26122e-06
1.96579e-06
1.67424e-06
2.15457e-06
0.00990748
2.97297e-06
2.88839e-06
3.23643e-06
2.62145e-06
0.0105489
1.93257e-06
4.74914e-06
0.0326706
1.99416e-06
2.3873e-05
4.4556e-06
2.01699e-06
2.17039e-06
0.176215
4.11092e-06
0.00268888
2.23481e-06
0.000139806
0.00164907
0.00794746
2.12409e-06
0.0738429
1.67723e-06
4.34317e-06
0.0150205
2.29942e-06
0.00769548
4.1685e-06
0.00681701
0.0389872
2.38295e-06
0.0183961
0.00823882
0.0714624
0.00115789
0.00891854
2.38149e-06
1.64049e-06
4.35931e-06
2.09578e-06
2.64119e-06
0.0200878
2.6129e-06
4.70047e-06
1.75859e-06
0.00923966
2.40166e-06
4.42302e-06
0.0180715
0.000350943
0.0123743
3.26731e-06
4.35311e-05
3.2837e-06
2.10147e-06
5.0324e-05
6.09468e-05
0.0136539
5.83839e-06
2.24883e-06
0.0801428
0.0538104
2.14131e-06
2.61115e-06
0.0129387
1.80466e-06
2.20248e-06
0.0325436
1.94898e-06
0.00216795
2.69957e-06
2.23869e-06
4.25911e-05
2.29524e-06
0.0103031
0.0121143
0.066633
2.16939e-06
0.00917116
2.92233e-06
0.0762887
2.60323e-06
1.68788e-06
0.0461604
0.0612687
0.0279578
8.3179e-05
2.4716e-06
4.89928e-06
0.0172511
1.1213e-05
5.14155e-06
3.02533e-06
3.27863e-06
2.58008e-06
2.29322e-06
2.16212e-06
2.31735e-06
0.058337
1.69097e-06
2.00073e-06
2.26546e-06
2.35891e-06
6.89782e-06
2.59819e-06
4.22722e-06
1.75286e-06
2.23649e-06
2.14222e-06
0.0664643
0.0937028
3.02419e-05
2.02976e-06
2.2976e-06
0.0120185
1.19937e-05
1.81238e-05
2.47345e-06
2.83613e-06
0.0150999
2.05782e-06
2.18151e-06
2.08417e-06
0.00425768
0.0147273
2.88937e-06
0.0301038
5.32637e-06
0.0623146
2.61273e-06
2.03013e-06
3.14549e-05
2.41851e-06
2.89615e-06
1.30932e-05
0.0027179
2.24625e-06
1.94125e-06
0.0646323
0.00794447
2.94118e-06
5.12253e-06
6.53308e-06
2.713e-06
1.16427e-05
2.54659e-06
2.77865e-06
3.33387e-06
0.0376167
1.99127e-06
1.74026e-06
3.99486e-06
0.00784181
2.143e-06
4.38266e-06
0.01023
0.0102047
0.0104236
0.0195588
2.25513e-06
0.0157647
3.33221e-06
2.25036e-06
2.37872e-06
3.50733e-06
0.0292192
8.24778e-05
5.73997e-06
2.21228e-06
1.79453e-06
5.56655e-06
1.13923e-05
0.000793969
2.22992e-06
2.04058e-06
0.064195
0.00793125
4.32318e-06
2.39907e-06
2.55823e-06
2.23457e-06
0.00139751
1.99229e-06
0.0124231
1.95901e-06
2.2478e-06
4.80511e-06
4.17103e-06
1.84076e-06
2.01939e-06
6.23279e-06
3.61504e-05
0.023755
0.0191105
1.92478e-06
0.04217
0.0223861
2.41061e-06
1.98737e-06
0.0103043
1.99517e-06
4.73328e-06
2.30448e-06
4.19201e-05
3.95245e-06
2.30147e-06
2.19175e-06
2.65877e-06
9.4803e-06
1.92839e-06
0.0334882
2.21192e-06
4.47669e-06
0.0110816
0.029759
2.38609e-06
1.99051e-06
4.1066e-06
9.73342e-06
2.95239e-06
2.28882e-06
0.148035
2.39396e-06
1.98797e-06
3.38508e-06
0.0185522
2.10658e-06
0.101119
0.0194261
9.27883e-06
4.04703e-06
0.00311336
0.0118635
0.00895
4.58565e-06
1.96083e-06
2.41229e-05
8.02813e-06
1.79267e-06
7.30436e-05
2.27363e-06
0.00886716
4.77242e-06
2.35628e-06
1.87837e-06
4.97647e-06
0.00765814
0.00661027
2.23735e-06
1.9555e-05
2.9132e-06
7.28737e-06
1.14577e-05
1.87627e-06
2.1439e-06
4.9316e-06
2.63254e-06
3.12249e-06
3.52075e-06
0.000926164
3.2281e-06
2.67355e-06
2.39163e-06
0.0117864
0.0514801
2.07373e-06
2.01931e-06
1.13625e-05
1.14109e-05
3.7075e-06
2.12928e-06
0.0116582
0.0156437
1.91482e-06
1.89008e-06
0.01196
2.23766e-06
3.33203e-06
3.82789e-06
2.69368e-06
2.07369e-06
3.94038e-06
2.91396e-06
2.90778e-06
1.92997e-06
3.30261e-06
0.0102118
2.04107e-06
2.38115e-06
0.00756114
0.0116558
2.5953e-06
4.53557e-06
0.0185667
2.40696e-06
2.5828e-06
2.07511e-06
0.0110842
0.060896
2.45974e-06
3.2235e-06
0.0144913
3.30038e-06
2.59489e-06
0.0176797
0.000792052
1.74481e-06
0.00807199
0.00184839
0.0581126
6.51044e-06
3.21295e-06
0.0324286
0.0131147
0.00138358
2.01156e-06
0.0405177
0.021843
0.0019657
0.00130638
2.41007e-06
2.47618e-06
2.34549e-06
0.00855172
3.53302e-06
2.53996e-06
1.66104e-06
2.10812e-06
0.0542328
0.0279963
2.23942e-06
0.0282977
2.36229e-06
2.09736e-06
1.74015e-06
0.0118279
1.121e-05
4.84558e-06
2.1967e-06
1.98607e-06
0.00714385
2.55227e-06
1.30901e-05
1.90772e-06
2.07624e-06
2.36936e-06
2.90196e-06
2.37678e-06
7.25471e-06
1.35683e-05
4.7589e-06
0.00305334
0.00728834
2.24306e-06
0.0187119
1.00503e-05
1.9e-06
0.00103989
2.99337e-06
0.0165338
2.10216e-06
2.3032e-06
9.49102e-05
0.0030618
6.92402e-06
0.00782452
2.04323e-06
0.000101556
0.0493999
1.96379e-06
0.00794071
1.99871e-06
0.0207749
1.8892e-06
1.82848e-06
4.83372e-06
2.27123e-05
2.77006e-06
1.92895e-06
2.82324e-06
1.80426e-06
2.40756e-06
2.07153e-06
0.0136099
2.59684e-06
1.99677e-06
0.0633967
1.98633e-06
0.0179882
1.91081e-06
0.0571657
2.00055e-06
2.17014e-06
0.0255967
1.26982e-05
2.16552e-06
0.00715369
0.0128055
0.00244096
2.62855e-06
6.99043e-06
2.02397e-06
2.30001e-06
2.07274e-06
0.0688628
0.0153281
0.00286567
1.97953e-06
4.9479e-06
3.94914e-05
0.0544955
1.77942e-06
0.0375821
3.42297e-05
0.244176
2.28605e-06
0.0019809
2.73773e-06
3.43587e-06
0.00987451
4.63731e-05
2.94471e-06
1.91199e-06
2.01176e-06
2.34503e-06
0.0142859
2.47307e-06
2.9405e-06
1.80464e-06
2.02989e-06
2.634e-06
0.0024958
2.40547e-06
2.64858e-06
0.00677009
0.0133097
2.18178e-06
2.50981e-05
3.31412e-06
3.29786e-06
1.98663e-06
4.85284e-06
1.89131e-06
2.40243e-06
1.96217e-06
2.62588e-05
1.8758e-06
0.0608444
3.21489e-06
1.7685e-06
0.00908973
2.50511e-06
1.78196e-06
3.40495e-06
1.8087e-06
1.82181e-06
0.00313471
0.00753359
1.95846e-06
0.215374
1.97802e-06
3.12376e-06
0.0133843
9.5898e-05
2.56788e-06
2.5453e-06
0.0125643
2.56725e-06
0.0428445
2.59584e-06
2.07302e-06
7.23133e-06
1.85003e-06
0.0138296
6.74983e-05
0.00210594
2.31534e-06
6.81783e-06
2.59749e-06
0.00773936
1.91282e-06
4.1525e-06
2.01243e-06
2.19734e-06
2.49843e-06
2.37856e-06
3.30887e-06
0.0468891
0.0131322
0.0593673
0.0889962
0.00741096
0.028303
1.28514e-05
2.35941e-06
3.8101e-06
0.0279199
2.98975e-06
2.41953e-06
2.39214e-06
0.0289696
1.87121e-06
2.43457e-06
5.81498e-06
2.22927e-06
2.97214e-06
0.021865
2.51146e-06
0.0149373
0.0023792
2.67653e-06
1.81171e-06
3.05432e-05
0.00110158
2.09399e-06
0.012595
0.0517824
1.73777e-06
0.0486826
2.21584e-05
4.45942e-06
2.31987e-06
0.00658737
0.0137986
1.7352e-06
2.2555e-05
2.27125e-06
2.50527e-06
0.00529689
0.0212723
2.08548e-06
1.88006e-06
2.98973e-06
2.08784e-06
0.0152672
0.0346232
1.80005e-06
0.0293795
2.41273e-06
2.26147e-06
2.16429e-06
1.7393e-06
1.76866e-06
2.21192e-06
0.047907
1.92161e-05
0.0463135
1.87207e-06
2.89696e-06
0.0116112
3.67374e-06
6.92501e-06
1.8004e-06
1.81629e-06
1.97177e-06
0.00901256
0.0149892
1.94267e-06
0.0406807
1.75568e-06
2.53036e-06
0.00841088
0.0085113
2.33573e-06
2.6016e-06
3.35313e-06
0.0454057
1.60562e-05
2.07401e-06
0.068353
1.73588e-06
1.87197e-06
0.155588
0.0254825
1.51841e-05
0.0144973
7.05308e-06
0.00770412
2.06769e-06
0.000427896
0.000710226
3.215e-06
0.0312357
0.02785
2.24688e-06
2.03806e-06
2.44857e-06
0.106884
3.74774e-06
0.110754
2.39574e-06
3.63554e-06
2.36906e-06
2.22716e-06
3.25925e-06
0.0279845
3.6014e-06
6.56856e-06
2.32969e-06
2.32062e-06
2.58567e-06
2.95835e-06
2.59927e-06
0.0293257
2.17742e-06
0.028677
2.08261e-06
2.35649e-06
1.92432e-06
2.39607e-06
1.97233e-06
3.66783e-06
1.88348e-06
2.54514e-06
0.000337153
3.68231e-06
0.00704836
4.05193e-06
2.93517e-06
0.0412085
0.00986523
2.3927e-06
0.080745
5.57469e-06
2.97308e-05
0.0282898
1.80766e-06
0.0273685
2.35752e-06
1.9749e-06
0.102756
0.000526283
1.89716e-06
3.57033e-06
1.83271e-06
0.00748569
0.0224412
2.1992e-06
6.57934e-06
0.0151904
4.09663e-06
4.0465e-06
2.25753e-06
0.00798405
0.00534372
2.58681e-06
4.88744e-06
1.87436e-06
2.92285e-06
0.000404215
4.97398e-06
9.84966e-06
1.77807e-06
3.55174e-06
3.08543e-06
2.09175e-06
2.47903e-06
2.25314e-06
3.62645e-06
2.36638e-06
3.90449e-06
2.13544e-06
2.14473e-06
1.07493e-05
0.028778
2.36703e-05
0.0108393
0.00924593
4.70868e-06
0.00965691
2.52716e-06
0.00577079
4.60528e-06
2.04556e-06
1.86822e-06
1.40628e-05
2.13452e-06
2.71759e-06
2.71418e-06
2.9507e-06
0.00813129
1.77491e-06
0.0189834
2.36542e-06
0.00596231
1.63674e-05
0.0186847
3.60053e-06
1.9963e-06
1.89186e-06
0.0181785
9.43136e-06
2.47341e-06
6.13364e-05
2.03808e-06
0.0199579
2.96304e-06
6.7714e-06
2.03897e-06
0.000134227
2.72821e-06
4.00634e-06
2.42506e-06
2.88646e-06
0.00851731
2.94794e-06
0.000309694
0.0115138
3.69661e-06
0.0340923
0.0164616
7.1076e-06
3.66795e-05
2.39345e-06
3.68164e-06
2.69416e-06
1.9724e-06
1.93181e-06
3.52998e-06
2.52004e-06
6.40628e-06
3.33831e-06
0.00112508
2.19712e-06
0.0100232
4.27736e-06
0.0908465
2.26556e-06
4.21316e-06
3.45821e-06
0.0100322
1.97335e-06
0.00563642
0.0267121
2.00328e-06
2.41788e-06
1.71704e-06
0.0150589
2.27937e-06
1.8771e-06
0.000398326
3.69987e-06
2.42988e-06
1.88554e-06
1.92438e-06
0.00818247
2.05145e-06
2.02889e-06
3.94291e-05
0.033356
2.39922e-06
2.26957e-06
0.00814232
1.97909e-06
0.00796492
3.78934e-06
1.86287e-06
0.00178671
2.58944e-06
4.16927e-06
3.76926e-06
2.17643e-06
3.91443e-06
4.27854e-06
2.64996e-06
2.05667e-06
3.95151e-06
1.76028e-06
4.27067e-05
2.88781e-06
2.49983e-05
0.0141346
0.00451501
3.69274e-06
0.0953477
2.65883e-06
3.66253e-06
6.92083e-06
2.40072e-06
1.92249e-06
0.0102093
0.00716952
0.0273274
0.00832155
2.18124e-06
2.20763e-06
4.63791e-06
2.27191e-06
2.18051e-06
0.176917
7.59464e-06
0.00808103
2.97494e-06
2.62674e-06
2.83484e-06
2.13711e-06
0.0107669
2.97081e-06
1.8661e-06
4.04934e-06
4.15023e-06
8.4822e-06
0.0196605
2.56425e-06
3.55648e-06
0.00900791
2.4856e-06
1.98588e-06
2.36423e-06
0.0284825
2.39548e-06
0.0407964
3.17201e-06
7.95519e-06
1.99816e-06
4.83215e-06
2.03836e-06
2.63313e-06
1.92644e-06
3.0264e-06
0.000235596
2.46899e-06
0.00620575
2.0175e-06
0.00487543
0.0130107
2.03902e-06
2.96619e-06
0.076261
0.00777233
1.9447e-06
2.56993e-06
2.70642e-06
0.0080662
2.03935e-06
1.45071e-05
3.15652e-06
3.01565e-06
0.00483911
1.97118e-06
3.36198e-06
1.76606e-06
0.0166878
0.0620277
0.0161792
2.26318e-06
0.00963866
3.19336e-06
2.916e-06
2.54808e-06
1.65226e-06
3.94438e-06
0.0185876
0.0110107
1.93174e-06
3.57989e-06
2.08503e-06
2.35051e-06
0.0974227
7.14447e-06
0.00980546
0.0336486
1.92917e-06
3.92824e-06
3.18418e-06
2.01988e-06
1.0826e-05
1.80376e-06
3.83804e-06
0.00357234
0.0213888
2.38899e-06
0.0417999
2.23815e-06
3.30369e-06
2.1376e-06
2.60476e-06
0.027373
1.91983e-06
0.00182921
3.02636e-06
3.89464e-06
0.134544
0.140929
0.00734517
0.00102797
0.00503866
2.30562e-06
2.24639e-05
2.63323e-06
0.000359955
2.12675e-06
2.55356e-06
0.0173566
2.21502e-06
2.96884e-06
2.3269e-06
2.22465e-06
0.0277053
1.32899e-05
2.4486e-06
2.14318e-06
0.0108838
2.1323e-06
0.0415526
2.39996e-06
2.53782e-06
0.0221429
3.31486e-06
4.76129e-05
2.16343e-06
2.05168e-06
0.0801506
2.20691e-06
3.64676e-05
2.15035e-06
0.0175238
1.76587e-06
0.00689464
1.96649e-06
0.0110658
0.0243897
0.00775479
1.99215e-06
2.64751e-06
2.18439e-06
4.10177e-06
1.81182e-06
3.40971e-06
0.0143768
2.22437e-06
2.34688e-06
2.39552e-06
2.31166e-06
2.26787e-06
1.69984e-06
2.12464e-06
1.82035e-06
2.17283e-06
0.0280676
0.000196509
1.93067e-06
2.64711e-06
0.0170721
2.42789e-06
0.0547564
2.01508e-06
2.29994e-06
2.46373e-06
2.21505e-06
2.5649e-06
3.09938e-06
2.43626e-06
3.2644e-06
2.75912e-06
3.74705e-05
1.97484e-06
0.0318447
0.000342618
8.44297e-06
1.51563e-05
1.93022e-06
0.0330232
5.44868e-06
3.90333e-06
2.13476e-06
2.44985e-06
0.0581759
2.40552e-06
3.1216e-06
0.000996949
0.0575712
3.82682e-06
2.05998e-06
0.00909267
0.000759958
0.00552819
2.16427e-06
2.33208e-06
1.77939e-06
2.46037e-06
2.69984e-06
0.0145184
7.2049e-06
3.76272e-06
1.01257e-05
3.85145e-05
1.89744e-06
0.0268943
0.0390726
7.25162e-06
2.01266e-06
0.00890205
2.50308e-06
3.01016e-06
0.00913967
2.26486e-06
1.95242e-06
2.58458e-06
1.7941e-06
1.82531e-06
0.0107918
0.0836603
1.88891e-06
0.0106086
1.8406e-06
2.79722e-06
8.2062e-06
2.74033e-06
0.00466133
1.8078e-06
3.11837e-06
2.24148e-06
2.0504e-06
0.0121952
0.00754641
1.34839e-05
0.0153471
0.0411421
2.37291e-06
2.56663e-06
1.98615e-06
3.92502e-05
1.78703e-06
1.93214e-06
2.30502e-06
0.00222474
0.000103842
1.78355e-06
2.30973e-06
2.02569e-06
4.54096e-06
0.0487631
1.7207e-06
1.74846e-06
1.75342e-06
0.00215324
1.75369e-06
0.015587
2.26608e-06
3.60368e-06
1.94055e-06
2.54712e-06
2.18173e-06
7.01748e-06
0.007719
0.00990865
2.39874e-06
3.12393e-06
0.0154808
1.81607e-06
0.00259311
0.0133318
2.40353e-06
0.0309326
0.00832885
0.0858773
2.01595e-06
1.90791e-06
0.00997343
1.94074e-06
2.40832e-06
4.77479e-06
3.44246e-05
2.08349e-06
0.0657068
2.78807e-06
0.0093304
0.0027915
2.02327e-06
2.32247e-06
2.59945e-06
4.19583e-05
1.94306e-06
3.51311e-06
1.80795e-06
2.42876e-06
1.78967e-06
0.00820354
3.59557e-06
0.00816514
0.00817247
2.76908e-06
1.898e-06
1.82525e-06
3.24163e-06
0.00702263
0.0158549
0.0327118
0.00627813
3.06004e-06
2.15188e-06
2.08466e-06
2.52309e-06
1.24468e-05
1.94067e-06
4.07209e-06
2.18437e-06
2.36504e-06
0.00727493
1.9975e-06
0.0119359
2.44153e-06
2.15439e-06
3.6147e-06
3.01512e-06
2.58893e-06
2.6673e-06
0.0185725
0.012139
0.20675
0.0308864
0.0099397
0.0103207
0.0108712
2.70792e-06
2.90758e-06
1.89272e-06
1.58049e-05
1.89193e-06
2.59722e-06
0.0427948
1.77105e-06
1.99099e-06
2.9712e-06
1.08148e-05
1.91701e-06
1.85574e-06
2.23171e-06
0.00650595
2.3812e-06
2.42869e-06
3.24573e-06
2.46791e-06
3.61024e-06
2.47882e-06
1.27368e-05
2.40573e-06
0.0123048
2.97841e-06
2.53359e-06
0.0147805
0.0134687
0.00869944
0.00495125
3.29101e-06
0.00567661
2.32749e-06
3.51106e-06
2.1605e-06
3.19558e-06
1.74332e-06
0.0423562
1.86831e-06
3.05554e-06
0.00718638
1.83779e-06
2.2223e-06
2.35669e-06
7.38116e-06
4.15432e-06
0.00649364
1.88445e-06
9.91089e-06
3.4241e-06
1.94806e-06
1.93673e-06
9.20268e-06
2.61547e-06
0.000197543
0.0572491
8.02304e-06
0.0144127
2.76024e-06
0.0275836
0.000122425
3.07315e-06
0.00294306
2.52884e-06
2.94749e-06
2.56427e-06
1.68979e-06
2.80111e-06
2.92921e-06
2.21673e-06
2.37939e-06
2.34306e-06
2.05436e-06
3.28512e-06
4.81079e-06
1.85138e-06
0.0367356
3.42672e-06
1.98759e-06
1.81589e-06
0.0121809
0.000506653
3.52276e-06
7.44856e-06
2.35169e-06
1.74539e-06
3.51957e-06
0.00434285
2.018e-06
4.15851e-06
3.41851e-06
6.4832e-06
2.63391e-06
0.000116935
2.48117e-06
5.43943e-06
2.08257e-06
2.32286e-06
2.38786e-06
2.05806e-06
0.00438751
0.0618819
2.07988e-06
2.991e-06
0.0463705
2.36899e-06
2.0412e-06
2.75664e-06
3.8267e-06
0.00420215
1.65844e-06
0.0469431
1.95058e-06
3.64279e-06
5.56558e-06
2.55878e-06
2.87142e-06
0.00630335
2.07223e-06
0.00482467
2.78172e-06
4.11212e-06
3.08357e-06
3.90484e-06
4.0187e-06
1.79487e-06
1.95672e-06
2.36681e-06
3.96543e-06
2.54772e-06
2.32272e-06
2.08137e-06
3.15386e-06
3.85199e-06
3.08412e-06
0.00363408
1.85928e-06
2.39481e-06
2.67075e-05
2.35494e-06
2.95345e-06
0.0124547
4.0346e-06
0.0311234
1.86535e-06
0.0116106
1.04508e-05
3.58486e-06
0.00895298
2.76048e-06
0.0195042
1.96893e-06
8.6895e-06
2.09089e-06
2.04677e-06
2.39046e-06
2.40069e-06
1.93762e-06
2.48122e-06
2.67992e-06
2.60097e-06
2.14276e-06
0.0472998
0.0208572
0.0395763
1.74654e-06
3.32286e-06
0.0149187
0.129081
3.64237e-06
1.84694e-06
0.0204067
1.93943e-06
2.20597e-06
0.00474803
0.00978564
1.80465e-06
1.94642e-06
2.24391e-06
4.35109e-05
4.2254e-06
2.47827e-06
0.00164834
2.50174e-06
2.10378e-06
0.0347177
2.22821e-06
1.44267e-05
0.0146918
2.97854e-06
2.46716e-06
2.6145e-06
1.94257e-06
0.0330356
0.000593771
0.00950336
2.55079e-06
2.85497e-06
0.0176793
3.34711e-06
6.95367e-06
2.37714e-06
1.74908e-06
2.04545e-06
3.13124e-06
0.0272363
0.038308
1.64431e-06
2.41705e-06
1.90692e-06
0.00528466
2.20741e-06
2.05825e-06
1.37088e-05
1.82691e-06
0.000153909
2.11588e-06
3.36117e-06
1.85106e-06
7.83699e-06
0.00710588
3.04125e-06
0.00135201
2.25107e-06
2.09185e-06
4.15706e-06
0.0470835
1.87059e-06
2.30335e-06
2.20911e-06
2.26845e-06
2.23686e-06
3.63321e-06
3.35383e-06
2.26364e-06
2.78115e-06
0.0498902
2.69226e-06
3.5721e-06
2.47711e-06
1.83945e-06
9.93146e-06
3.63666e-06
3.94956e-06
0.0106601
2.626e-06
0.0101028
1.81255e-06
0.0175764
3.30475e-05
2.69267e-06
0.00150164
3.97629e-06
2.16361e-06
1.8447e-06
1.95527e-06
3.54345e-06
1.93702e-06
2.53531e-06
2.51642e-06
2.03886e-06
2.2368e-06
1.91096e-06
7.00998e-06
1.86184e-06
2.3321e-06
0.000408899
2.12903e-06
2.26556e-06
2.69506e-06
0.00734283
3.63027e-06
2.56043e-06
1.89137e-06
2.43333e-06
0.0112615
6.78938e-06
1.84258e-06
0.00877677
9.18648e-05
0.00169889
3.13679e-06
5.07611e-05
2.53138e-06
0.000117597
1.92573e-06
2.37656e-06
0.00906633
0.00694296
3.18586e-05
0.00455762
3.40561e-06
0.0121307
2.51844e-06
2.55896e-06
2.24827e-06
0.00509114
0.0188864
1.69332e-06
3.0387e-06
2.33531e-05
3.03256e-06
2.9598e-06
0.0387362
3.1415e-06
2.29831e-06
1.85536e-06
2.57843e-06
2.07634e-06
2.42933e-06
2.82567e-06
2.24963e-06
9.81104e-05
1.98464e-06
2.67989e-06
2.93443e-06
0.0169166
0.00701456
2.96494e-06
3.54026e-05
2.25242e-06
2.37034e-06
0.0103442
2.94968e-06
2.3907e-06
2.32751e-06
0.0184215
3.01237e-06
3.69523e-06
2.09856e-06
0.00529838
2.90544e-06
2.35805e-06
2.31881e-06
0.000359184
2.27178e-06
2.10881e-06
9.86169e-06
3.17203e-06
1.58973e-05
2.08248e-06
0.0130368
2.09725e-06
3.01499e-06
1.74028e-06
3.62735e-06
3.55253e-06
1.92802e-06
4.73942e-06
0.00796567
1.80383e-06
0.0117275
3.71391e-06
2.05011e-06
2.43731e-06
3.04307e-06
1.84496e-06
0.0237175
4.16185e-06
2.02368e-06
5.4125e-06
0.0578576
0.000291272
1.76824e-06
2.39809e-06
2.35364e-06
3.21947e-06
2.68698e-06
3.29426e-06
0.00336851
3.75051e-06
0.000108187
3.62728e-06
2.09739e-06
1.85746e-06
2.02679e-06
3.63946e-06
3.21764e-05
3.50383e-06
2.65475e-06
2.21616e-06
0.0100548
3.73042e-06
1.73407e-06
1.9271e-06
3.41167e-06
3.2689e-06
0.259245
1.81161e-06
0.00623404
0.00467844
0.127253
1.87698e-06
2.33267e-06
2.15989e-06
2.56108e-06
1.93213e-06
1.79992e-06
1.10768e-05
3.99643e-06
2.16003e-06
3.10618e-06
1.77319e-06
1.79308e-06
1.96457e-06
0.0345446
3.02987e-06
0.00509099
3.25062e-06
5.35141e-06
2.07428e-06
3.72936e-06
4.38821e-06
2.6587e-06
0.0112087
2.40293e-06
3.89765e-06
1.94865e-06
2.07108e-06
2.33629e-06
1.98497e-06
0.00784471
2.1708e-06
2.09408e-06
1.23141e-05
0.0106876
2.23833e-06
0.00018769
0.000346731
2.66221e-06
1.94549e-06
1.94223e-06
8.32777e-06
2.48943e-06
0.0237816
2.06473e-06
0.101521
2.35085e-06
8.48271e-06
0.0555413
2.19171e-06
0.00467673
2.16613e-06
1.97449e-06
2.23829e-06
0.0394951
2.10946e-06
3.51804e-06
2.63132e-06
4.94044e-06
2.10931e-06
2.99909e-06
3.51391e-06
0.0376414
4.04503e-06
2.23432e-06
0.0140792
2.26515e-06
2.66088e-06
2.82402e-06
2.15275e-06
0.00839951
1.98623e-06
2.78314e-06
2.47501e-06
2.37689e-06
1.97818e-06
1.96738e-06
2.23909e-06
0.0132068
2.64428e-06
3.31223e-06
0.0080291
1.74613e-06
0.0487761
1.6636e-06
0.0507367
2.21268e-06
2.27821e-06
2.34225e-06
0.00681654
0.0140679
2.27294e-06
4.86122e-06
2.37713e-06
2.4153e-06
3.3815e-06
0.00796603
3.49335e-06
2.53752e-06
1.88888e-06
1.84106e-06
3.72666e-06
0.0116406
2.39792e-06
1.93362e-06
2.24616e-06
0.000376487
0.00235273
2.06969e-06
2.56394e-06
0.0317733
2.31111e-06
0.00598679
0.00432349
1.79485e-05
2.4216e-06
2.01102e-06
3.18743e-06
0.00130677
1.69677e-06
1.81281e-06
2.35252e-06
2.32279e-06
0.00647637
0.120272
2.3685e-06
5.33103e-06
2.58408e-05
2.21169e-06
0.0113982
1.92597e-06
2.07841e-06
3.70434e-06
0.0351284
9.66835e-06
6.61537e-06
0.000598074
2.31982e-06
0.0440022
0.00778486
0.0547889
3.78948e-06
0.0251922
0.0874523
0.00282385
0.0511832
0.0102636
2.59912e-06
2.06152e-06
6.78673e-06
2.37836e-06
2.42904e-06
0.00129218
2.93132e-06
1.88224e-06
0.0118281
3.71336e-06
2.26284e-06
2.00078e-06
2.33969e-06
0.000421236
2.49111e-06
0.0573502
1.90588e-06
2.37626e-06
0.00306625
0.025085
4.6205e-06
2.54782e-06
2.37109e-06
2.647e-06
3.37468e-06
2.39835e-06
2.24324e-06
4.12623e-06
5.60122e-06
2.53083e-06
7.70967e-06
2.23161e-06
2.63839e-06
0.00739263
0.000206154
2.4415e-06
7.49725e-06
0.0347686
2.51836e-06
2.25404e-06
0.0648335
3.07115e-05
2.07965e-06
1.97254e-06
3.27826e-06
3.66419e-06
1.78981e-06
0.00811587
3.57647e-06
2.45482e-06
3.89315e-06
5.40921e-06
2.22035e-06
0.000147409
0.0201455
2.35345e-06
3.02374e-06
2.12194e-06
3.75353e-06
1.99455e-06
2.23443e-06
2.02807e-06
2.35585e-06
2.56618e-06
2.24671e-06
2.6074e-06
1.95215e-06
0.00113481
4.10412e-06
0.0139048
0.0310394
2.075e-06
6.55206e-05
6.84883e-06
3.90597e-06
2.38101e-06
2.90427e-06
1.92161e-06
6.75751e-06
1.92232e-06
2.11239e-06
3.83148e-06
0.0245545
1.70553e-06
0.00496997
2.39645e-06
2.89328e-06
2.99213e-06
3.57726e-06
2.64521e-06
2.131e-06
2.14676e-06
0.0138452
2.6115e-06
5.01645e-05
0.00317982
0.0124847
2.31025e-06
5.74833e-06
0.00445706
0.0031965
0.000728154
2.51653e-06
2.26361e-06
8.42316e-06
0.000516352
0.00347427
2.01139e-06
3.84966e-05
3.94508e-06
2.00808e-06
2.45784e-06
3.75906e-06
2.6722e-06
7.10934e-06
4.11404e-06
8.92288e-06
2.18979e-06
0.0221362
0.0138253
0.00681156
0.0072189
0.0123063
2.64308e-06
3.5185e-06
0.0212901
2.06571e-06
2.08012e-06
2.04201e-06
6.52435e-06
0.0158205
0.024113
2.34015e-06
1.76577e-06
2.1533e-06
2.41462e-06
0.010146
3.08661e-06
0.00452008
0.0226559
3.71292e-06
3.66926e-06
0.00839099
2.4391e-06
1.73412e-06
3.02566e-06
0.0159793
0.0158281
1.96757e-06
7.68474e-06
4.05246e-06
0.0122361
0.0274069
1.66502e-06
0.153688
0.0425902
0.0101181
2.19377e-06
1.707e-06
3.99833e-06
4.23292e-06
0.0137919
2.44176e-06
2.31484e-05
5.66332e-05
0.0233151
2.0161e-06
2.67054e-06
8.12983e-05
2.24375e-06
0.0196667
0.0494366
1.93749e-06
1.87015e-06
1.88503e-06
4.49107e-06
0.0100681
1.76881e-06
0.00789872
2.28047e-06
1.94472e-06
2.38288e-06
2.77138e-06
1.85307e-05
2.19181e-06
0.0999176
3.75627e-06
2.54248e-06
2.03271e-06
3.81039e-06
1.88635e-06
0.012834
0.00226408
3.14192e-05
2.78945e-06
2.54283e-06
2.22998e-06
2.74445e-06
4.90218e-05
0.0113507
0.0268956
3.54855e-06
0.00508204
8.61833e-06
0.0348352
1.69186e-06
2.22674e-06
2.11951e-06
2.0562e-06
0.0122918
3.18297e-06
1.94731e-06
0.00604458
0.0203931
0.00183938
0.0161775
2.22972e-06
2.11321e-06
1.95267e-06
0.0227564
2.22656e-06
0.00333483
1.922e-06
0.00974678
1.67579e-06
2.90807e-06
1.94711e-06
2.40303e-06
2.36339e-06
2.42462e-06
0.00791831
1.90388e-06
2.4438e-06
2.22153e-06
0.00706596
0.00109355
2.77688e-06
0.0540422
2.15627e-06
1.84306e-06
1.79576e-06
2.06199e-06
2.61122e-06
2.87661e-06
0.00724467
4.81726e-06
1.73156e-06
2.93484e-06
4.03412e-05
2.07099e-06
1.91932e-06
0.00911439
0.000651865
1.07268e-05
1.63673e-06
0.000302935
3.50006e-06
7.10528e-06
1.80986e-06
6.96847e-06
0.00107461
0.00826054
2.56119e-06
0.0158243
2.55147e-06
2.26334e-06
2.30078e-06
0.0116853
6.75224e-06
3.6599e-06
4.72928e-06
3.99707e-06
0.0053271
3.40525e-06
4.33417e-05
2.2064e-05
0.0298134
0.00780308
0.00423352
0.0276155
2.26925e-06
2.40687e-06
3.29168e-06
2.04957e-06
1.79919e-06
6.14474e-06
2.23436e-06
2.41547e-06
0.0448904
2.59617e-06
2.47842e-06
1.87555e-06
4.92027e-06
1.90094e-06
2.18474e-06
0.0245624
2.01102e-06
1.92468e-06
2.3884e-06
0.038048
2.33683e-06
0.0178522
3.57073e-06
1.99787e-06
2.55932e-06
3.25775e-06
0.0541238
6.91339e-05
2.73183e-06
2.43406e-06
2.65928e-06
0.0101787
0.0638
0.00748941
1.96206e-06
2.77504e-06
0.000188544
1.9699e-06
2.95946e-06
2.25607e-06
0.0154671
1.00316e-05
2.23362e-06
1.70802e-06
1.82084e-06
0.00976529
4.01983e-06
1.11914e-05
1.73114e-06
1.9617e-06
1.75466e-06
7.23126e-06
2.55951e-06
2.79213e-06
0.00763634
0.0491099
0.0163244
0.00780593
0.0809441
0.047893
0.0223142
2.44323e-06
1.82317e-06
0.0139942
0.0184683
0.00264212
2.4414e-06
2.0221e-06
2.87256e-06
2.6282e-06
0.00385717
0.0210171
2.29991e-06
2.90716e-06
6.67669e-05
2.99783e-06
2.19064e-06
0.0101617
0.000982324
4.27833e-05
2.67421e-06
0.0129967
0.00279972
3.89749e-05
1.80744e-06
2.06748e-06
2.63414e-06
2.47669e-06
2.11661e-06
2.18631e-06
2.16643e-06
1.91402e-06
1.89364e-06
2.2421e-06
1.33605e-05
0.00852289
2.35403e-06
1.91692e-06
0.0126725
9.43622e-06
3.35606e-06
0.000272469
0.00430485
0.00742526
2.17067e-06
2.05151e-06
1.9472e-06
2.10519e-06
2.32008e-06
2.05318e-06
2.51062e-06
1.84839e-06
1.96388e-06
1.94999e-05
3.9366e-06
2.12339e-06
0.00803685
0.0084731
0.0260746
7.66252e-05
3.34705e-06
1.67759e-06
2.9365e-06
1.99178e-06
1.96675e-06
0.0346885
2.89693e-06
4.16064e-06
2.05905e-06
0.00754685
0.0894067
2.48e-06
2.23121e-06
2.14375e-06
2.40097e-06
2.01662e-06
2.58379e-06
1.98486e-06
2.15716e-06
0.0668896
1.88475e-06
0.0160847
2.20901e-06
0.0280342
2.05342e-06
2.74151e-06
2.2986e-06
2.97975e-06
4.80294e-06
2.38402e-06
2.52796e-06
2.0403e-06
2.53137e-06
0.00685503
0.155874
0.00708531
4.16013e-06
0.00029419
2.26834e-06
2.2445e-06
2.94642e-06
2.74435e-06
2.2285e-06
0.00608841
0.0188503
2.30751e-06
3.20173e-06
0.00829885
2.37393e-06
0.00928603
0.016612
1.31508e-05
2.2077e-06
4.39138e-06
0.00846734
0.0002427
0.0107702
2.50602e-06
2.14863e-06
2.22315e-06
1.91022e-06
0.0410249
2.2398e-06
2.10066e-06
7.30136e-05
0.0319589
2.15765e-06
2.4697e-06
0.0414177
2.18613e-06
0.0573395
2.51801e-06
3.03138e-06
2.15389e-06
8.69388e-06
2.99e-06
0.00461778
2.22509e-06
0.000187599
2.03983e-06
4.00531e-06
2.43689e-06
1.96282e-05
2.46243e-06
7.74623e-06
2.80659e-06
2.20911e-06
1.82476e-05
1.81684e-06
2.07907e-06
3.05847e-06
2.18832e-06
0.000148397
1.91658e-06
2.10538e-06
2.3368e-06
2.47698e-06
2.50665e-06
8.17511e-06
2.00243e-06
2.08145e-06
5.66225e-06
1.71035e-06
4.81951e-06
3.05362e-06
1.91516e-06
2.326e-06
0.11239
0.0061354
1.95234e-06
0.00608805
0.00885661
2.56268e-06
2.47007e-06
0.00260081
0.010717
2.38437e-06
0.00829659
3.09936e-05
1.78052e-06
2.61658e-06
1.80284e-06
1.91406e-06
2.44366e-06
0.0122012
0.000368275
2.60077e-05
6.34632e-05
0.00759947
0.0129203
1.74085e-06
0.00971326
2.92785e-06
0.00293239
0.0135468
3.31187e-06
3.2674e-06
0.00636702
2.66347e-06
3.24287e-06
3.50029e-05
0.0108483
9.10408e-06
1.79752e-06
0.0128761
3.33282e-06
0.00852446
0.00891773
3.73562e-06
0.000222628
0.00371682
0.019475
0.00712913
0.00866958
0.00666606
2.49145e-06
2.41731e-06
2.41014e-06
2.30508e-06
3.21375e-06
9.03742e-06
3.00464e-06
0.00844836
2.57567e-05
3.30247e-06
1.65143e-05
0.00826735
2.31848e-05
1.15684e-05
4.62976e-06
0.0341101
9.74063e-05
1.82511e-06
1.89098e-06
0.00356546
2.37488e-06
2.07709e-06
0.0477214
2.6465e-06
0.00402848
2.64507e-06
0.0177076
1.79677e-06
2.71469e-06
0.116855
2.37475e-06
2.50332e-06
0.00634792
0.0157082
0.00825322
1.7863e-06
1.8684e-06
2.35172e-06
1.86076e-06
4.03088e-06
1.89957e-06
3.82079e-06
0.0141261
2.33212e-06
2.23786e-06
0.0071877
2.04828e-06
2.44716e-06
1.22578e-05
2.66008e-06
1.93395e-06
2.70139e-06
8.91181e-06
2.2855e-06
3.94336e-06
0.000326758
0.0129329
2.50459e-06
2.14027e-06
0.0708823
1.85602e-06
2.62992e-06
1.77666e-06
2.14862e-06
0.0163945
2.29333e-06
2.41074e-06
0.0547931
2.54934e-06
0.00813149
3.42882e-06
1.94671e-06
3.85171e-06
0.00758268
2.20434e-06
0.000210393
0.000597106
1.82431e-06
2.03272e-06
2.39802e-05
2.19641e-06
0.0409928
2.37202e-06
0.0536719
4.67625e-06
1.79993e-06
1.98183e-06
5.84531e-06
2.17704e-06
6.15751e-06
2.27451e-06
2.49128e-06
2.04883e-06
1.77619e-06
0.00465854
2.65812e-06
2.03045e-06
1.80699e-06
3.28892e-06
2.00615e-06
2.23796e-06
0.01036
2.44904e-06
9.59641e-06
1.71537e-06
2.62442e-06
3.71959e-06
3.8096e-06
1.75106e-06
2.69529e-06
2.65459e-06
0.0161317
2.20156e-06
2.06999e-06
1.79563e-06
2.19988e-06
0.000142903
2.51949e-06
0.00723663
0.00710157
0.0470223
4.71027e-06
2.20269e-06
1.78632e-06
3.67189e-06
2.34387e-06
9.83613e-06
2.25793e-06
0.0162661
2.16769e-06
0.0627655
4.89154e-06
3.83326e-06
2.43117e-06
0.00620275
2.47765e-06
1.90972e-06
5.20948e-06
2.53338e-05
1.79571e-06
0.0145957
3.64979e-06
2.12342e-06
2.8676e-06
2.40046e-06
2.62041e-05
3.1757e-06
2.16758e-06
1.80578e-06
2.57054e-06
2.04464e-06
2.11183e-06
0.000375306
6.18334e-05
1.97121e-05
4.18078e-06
1.68921e-06
2.11485e-06
2.08068e-06
0.00737103
0.0193381
0.00879088
1.85166e-06
0.00244717
3.09452e-06
1.94505e-06
2.88639e-06
2.10794e-06
3.50951e-06
1.7827e-06
0.0446956
2.66632e-06
2.02021e-06
0.000132783
0.00399609
1.93646e-06
0.00195653
2.6586e-06
0.00933062
2.23967e-06
0.0275467
2.40345e-06
2.4622e-06
0.00871498
4.55309e-06
2.71907e-06
4.00922e-06
4.0495e-06
8.88772e-06
2.06393e-06
4.04023e-06
0.0422391
2.48383e-06
0.0103407
2.62908e-06
0.0745352
2.61223e-06
2.00771e-06
2.21473e-06
2.2825e-06
3.51617e-06
3.56569e-06
0.00815846
0.00585153
2.19266e-06
2.22026e-06
6.2931e-06
2.21858e-06
2.2774e-06
1.87838e-06
0.00119499
1.84703e-06
0.0196053
0.0103325
7.03472e-06
3.84999e-06
6.74666e-06
1.31973e-05
5.05543e-06
1.69381e-06
0.0151992
2.56226e-06
1.69256e-06
2.57584e-06
0.00215969
2.0719e-06
2.64819e-06
0.00863915
2.71465e-06
6.58556e-06
9.1685e-06
1.80727e-06
0.0119519
1.71752e-06
0.0180372
2.15224e-06
0.000675801
2.13667e-06
5.94392e-06
0.184193
2.3687e-06
2.62366e-06
1.7593e-06
0.00800816
1.78412e-06
6.83533e-06
1.95076e-06
2.09785e-06
7.77225e-06
2.25085e-06
1.74002e-06
0.0629771
2.0629e-06
1.74736e-06
4.64685e-06
2.63159e-06
2.30229e-06
3.73144e-06
1.74126e-06
2.58057e-06
2.25915e-06
0.011665
0.237143
1.05344e-05
0.0536306
2.10715e-06
1.75878e-06
0.0332181
0.064976
2.48936e-06
0.0314438
0.00780624
0.00791308
0.00170971
2.06231e-06
0.00746318
0.00939158
0.178741
0.00162601
0.0199076
2.83399e-06
6.73595e-06
2.33018e-06
1.74996e-06
2.85684e-06
0.00564172
4.22512e-06
0.0818804
1.3157e-05
5.57367e-05
1.86448e-06
2.43615e-06
3.01282e-06
2.4196e-06
4.2732e-06
3.41283e-06
1.39556e-05
1.79758e-06
1.82676e-06
1.84933e-06
0.039673
1.91132e-06
7.93203e-06
2.39261e-06
1.50791e-05
6.98345e-06
2.56587e-06
2.22625e-06
2.71159e-06
0.0173311
0.0121339
5.64907e-06
0.0146861
2.283e-06
2.88904e-06
3.45161e-06
1.88838e-06
2.85382e-06
2.16476e-06
3.94672e-06
0.0108751
2.13247e-06
1.87923e-06
0.00161587
2.21267e-06
1.90152e-06
2.83202e-06
0.0434289
8.64331e-06