/*--------------------------------*- C++ -*----------------------------------*\
| =========                 |                                                 |
| \\      /  F ield         | OpenFOAM: The Open Source CFD Toolbox           |
|  \\    /   O peration     | Version:  v2012                                 |
|   \\  /    A nd           | Website:  www.openfoam.com                      |
|    \\/     M anipulation  |                                                 |
\*---------------------------------------------------------------------------*/
FoamFile
{
    version     2.0;
    format      ascii;
    class       volScalarField;
    location    "150";
    object      k_0;
}
// * * * * * * * * * * * * * * * * * * * * * * * * * * * * * * * * * * * * * //

dimensions      [0 2 -2 0 0 0 0];


internalField   nonuniform List<scalar> 
13851
(
0.000181184
9.8307e-05
9.82092e-05
0.0880234
0.000129668
0.000100129
9.19421e-05
0.000104521
0.0376937
0.000123568
0.000130656
0.000129148
0.000115774
0.0235049
0.000100388
0.000192762
0.0456412
0.000100429
0.000593365
0.000181408
0.000103144
0.000105532
0.102447
0.000146311
0.0119335
0.000112662
0.00178113
0.0090802
0.0338019
0.000103738
0.106011
9.20331e-05
0.000178509
0.0494112
0.00011146
0.0333891
0.000147363
0.0205129
0.0819729
0.00011016
0.0552257
0.0349917
0.0220799
0.00852249
0.0368584
0.000110115
9.07039e-05
0.000180995
0.000103247
0.000116235
0.0347757
0.000115592
0.000191255
9.49608e-05
0.0218638
0.000110637
0.00018079
0.0545044
0.00330646
0.0272257
0.000129785
0.000884025
0.000130149
0.00010341
0.000949675
0.00109814
0.0227458
0.000213289
0.000106909
0.0999109
0.0902051
0.000107602
0.000115544
0.0244048
9.64311e-05
0.000105986
0.0550673
9.91842e-05
0.00990565
0.000117598
0.000106676
0.000838032
0.000111315
0.0251687
0.0275024
0.101097
0.000105478
0.017769
0.000122479
0.107285
0.000115367
9.23379e-05
0.0162859
0.0955536
0.0681037
0.00201723
0.000112279
0.000196396
0.0302086
0.000335606
0.000203398
0.000132739
0.000140342
0.000114787
0.000107953
0.000108007
0.000108533
0.0948879
9.24317e-05
0.000100592
0.000108719
0.0001096
0.000241572
0.000122116
0.000175764
9.47348e-05
0.000106555
0.000104213
0.0790319
0.109756
0.000631459
0.00010132
0.000108107
0.0393739
0.000368888
0.000461564
0.000112325
0.000128502
0.0492607
0.00010487
0.000105757
0.000103939
0.0155351
0.0489289
0.000130922
0.0709003
0.000195714
0.0975859
0.000119202
0.000104043
0.000716344
0.000111095
0.000121894
0.000369618
0.0119156
0.000107058
9.89945e-05
0.0981424
0.0307436
0.000131682
0.000202394
0.000235527
0.000125782
0.000359312
0.000114054
0.000119313
0.000131198
0.0803036
0.000102598
9.37534e-05
0.00014419
0.0336611
0.000107338
0.000181548
0.0239088
0.0395582
0.0401592
0.0392978
0.000108363
0.0436723
0.000131112
0.000106893
0.00011533
0.000134684
0.0703145
0.00125868
0.000219005
0.000105965
9.6131e-05
0.000214262
0.000353109
0.00651736
0.000107571
0.000104358
0.0202875
0.0311126
0.0001782
0.000111966
0.000114327
0.000106505
0.00791485
0.000102616
0.0196546
0.0001
0.000107069
0.000193981
0.000173605
9.63506e-05
0.000101124
0.000219198
0.000761024
0.0627803
0.0562509
0.000100202
0.0716351
0.0599836
0.000111071
0.00010282
0.0387245
0.000100887
0.000192387
0.000108277
0.000833229
0.000143332
0.000111638
0.000105814
0.000116643
0.000310895
9.87123e-05
0.0525007
0.000105988
0.000181806
0.0224136
0.0707437
0.000111614
0.000103006
0.000146232
0.00030168
0.000123147
0.000111222
0.128313
0.0001118
0.00010068
0.000132214
0.0551625
0.000103298
0.0791319
0.0566112
0.000293478
0.00014508
0.0137105
0.0272727
0.037021
0.000188274
0.000100799
0.000567044
0.000274506
9.6089e-05
0.00163627
0.000109245
0.0184317
0.000188822
0.000109494
9.78031e-05
0.000198916
0.0329214
0.0194315
0.000106589
0.000485777
0.000122349
0.000256624
0.00035804
9.7788e-05
0.000107463
0.000194155
0.000116033
0.000135562
0.000155074
0.00605043
0.000128921
0.000116987
0.000111776
0.0431827
0.0560435
0.000105294
0.000101072
0.000355154
0.00035604
0.000159587
0.000106953
0.0427561
0.028248
9.88894e-05
9.88754e-05
0.0276408
0.000106608
0.000131131
0.000163348
0.000124303
0.000102463
0.000143081
0.000122292
0.000122149
9.99279e-05
0.00013055
0.0387226
0.000104068
0.000110133
0.0327011
0.0375632
0.000115183
0.000183644
0.0324382
0.000110838
0.000114905
0.000105229
0.0245382
0.0941479
0.000118286
0.00012888
0.0409478
0.000130451
0.000122809
0.0365165
0.0056483
9.38547e-05
0.0225305
0.0095093
0.0965943
0.000234505
0.00013856
0.0745303
0.0435821
0.00776525
0.000100919
0.0661644
0.00990324
0.0144642
0.00992989
0.000111067
0.000118708
0.000110646
0.0184946
0.000148049
0.000113869
9.12812e-05
0.000104129
0.0923138
0.0546257
0.000106656
0.0683657
0.000111168
0.000104347
9.37357e-05
0.0224901
0.000349001
0.000195441
0.000105892
0.00010058
0.0321052
0.000114191
0.000389956
9.86646e-05
0.000105246
0.000111417
0.000122074
0.000110073
0.000249921
0.000383712
0.000188665
0.0126818
0.03262
0.000106969
0.0552141
0.000330631
9.79051e-05
0.00659446
0.000136522
0.034387
0.000103876
0.000115316
0.0014539
0.0128569
0.000241865
0.0200871
0.00010177
0.00154349
0.0323315
0.000100582
0.0216137
0.000101799
0.0590159
9.88158e-05
9.78805e-05
0.000191012
0.000556622
0.000119136
9.91741e-05
0.000128527
9.6433e-05
0.000110731
0.000105253
0.0443887
0.000115204
0.000103125
0.0698913
0.000100464
0.0371808
0.000100589
0.0893877
0.000101071
0.000110265
0.0551413
0.000380866
0.000108032
0.0172988
0.024157
0.0117169
0.00011591
0.000243189
0.000102515
0.000115013
0.000102448
0.0218494
0.0475063
0.011999
0.000100361
0.000193803
0.000834746
0.0650677
9.46026e-05
0.0547265
0.0007146
0.118669
0.000109752
0.00968896
0.000118402
0.000133237
0.0197283
0.000902694
0.000122993
9.85459e-05
0.000103596
0.000109224
0.044604
0.000118634
0.000134996
9.5725e-05
0.000101426
0.000116063
0.0112217
0.000110686
0.000116379
0.0292849
0.0432455
0.000105755
0.000644258
0.000130773
0.000130441
0.000100505
0.000192005
9.99615e-05
0.000110608
9.97141e-05
0.000575184
9.74294e-05
0.0891202
0.0001287
9.48981e-05
0.0373055
0.000116314
9.46768e-05
0.000132589
9.58457e-05
9.5849e-05
0.0139987
0.0322146
0.000100731
0.073801
0.000100295
0.000126818
0.0459368
0.00139302
0.000118001
0.000114031
0.0418538
0.000117791
0.060602
0.000115171
0.00010369
0.000248819
9.78609e-05
0.0459442
0.00111449
0.0103371
0.000108796
0.000239784
0.000115187
0.033025
0.000100625
0.000173075
0.000102168
0.000105899
0.000116118
0.000115348
0.000130654
0.0553161
0.0451098
0.0862733
0.0670277
0.0316003
0.0588497
0.000384812
0.000110687
0.000140617
0.0462872
0.000123936
0.000111045
0.000112021
0.0701983
9.73741e-05
0.000111492
0.000210615
0.000109787
0.000123565
0.048049
0.000113212
0.049187
0.0113848
0.000117015
9.57288e-05
0.000678265
0.00696312
0.000102987
0.0296106
0.058237
9.34615e-05
0.0905244
0.000555633
0.00018118
0.000108905
0.0285006
0.0299191
9.33922e-05
0.000557067
0.000107458
0.00011307
0.0246487
0.0597941
0.000104819
9.96303e-05
0.00012394
0.000106969
0.0497598
0.0768964
9.51978e-05
0.0502852
0.000110842
0.000107212
0.000108
9.40585e-05
9.43053e-05
0.000106234
0.0901575
0.000496508
0.088144
9.73686e-05
0.000121941
0.042865
0.000138037
0.000241967
9.5773e-05
9.67563e-05
0.000101076
0.0370354
0.0317816
9.95316e-05
0.0545622
9.4152e-05
0.000120245
0.0355124
0.0258601
0.000109057
0.000115274
0.000142407
0.0875296
0.000486339
0.000106548
0.0682025
9.39865e-05
9.82475e-05
0.12975
0.0529229
0.000418312
0.0482378
0.000252409
0.0338373
0.000102399
0.00387171
0.00525364
0.000128705
0.0259366
0.0634554
0.000108147
0.000104301
0.00011172
0.103306
0.000156109
0.093063
0.000110461
0.000137214
0.000110562
0.00010967
0.000129649
0.0684708
0.000136545
0.000239932
0.000109158
0.000115838
0.000114936
0.000123273
0.000120539
0.0511929
0.000108342
0.0686603
0.000103913
0.000109514
9.8555e-05
0.000115851
9.99795e-05
0.00015566
9.77856e-05
0.00011722
0.00326297
0.000138152
0.0167746
0.000145214
0.000136887
0.0601632
0.0390449
0.00011163
0.0753592
0.000205343
0.000664357
0.0648561
9.54137e-05
0.0568036
0.000111019
0.00010098
0.0800292
0.00435497
9.78155e-05
0.00015293
9.61304e-05
0.0329878
0.0374717
0.000105718
0.000229227
0.045769
0.000146152
0.000145212
0.000113422
0.0148319
0.023963
0.000114996
0.000192195
9.73807e-05
0.000122504
0.00382447
0.000194469
0.000306937
9.45567e-05
0.000155904
0.000134797
0.000107464
0.000112551
0.000107174
0.000152455
0.000110459
0.000167329
0.000107456
0.000107703
0.000325437
0.0545571
0.000576894
0.0393123
0.0237786
0.000191014
0.0298894
0.000117631
0.0264032
0.000185538
0.000101747
9.80674e-05
0.000410091
0.000104714
0.000117942
0.000117832
0.000137274
0.0186327
9.51072e-05
0.0554943
0.000109702
0.0261214
0.00044154
0.0320723
0.000153636
0.000100963
9.79667e-05
0.0358149
0.000298029
0.000115796
0.00110641
0.00010162
0.0386421
0.0001378
0.00024482
0.000102854
0.00183651
0.000118168
0.000144339
0.00011138
0.000121702
0.0356755
0.000123028
0.00291714
0.042548
0.000156515
0.0764577
0.0319246
0.000253394
0.000757844
0.000111661
0.000138168
0.000117453
9.98118e-05
9.87538e-05
0.000135126
0.00012
0.000229768
0.000142428
0.00684229
0.000105762
0.0378092
0.000149343
0.100108
0.000110102
0.000148254
0.000133696
0.039376
0.000100398
0.0240117
0.0619426
0.000103104
0.00011743
9.2875e-05
0.0495472
0.000107998
9.75524e-05
0.00363323
0.000138483
0.000111373
9.75288e-05
0.000100952
0.0195514
0.000102823
0.000102613
0.000815801
0.0748769
0.000111933
0.000108135
0.0349582
9.99556e-05
0.0344267
0.000140242
9.71036e-05
0.0088166
0.000124196
0.000173653
0.000157735
0.000108316
0.00014261
0.00014938
0.000124142
0.000102116
0.00014331
9.4751e-05
0.000853573
0.000121739
0.00058632
0.0336974
0.0203459
0.000155445
0.116813
0.000120818
0.000137785
0.000241299
0.000110556
9.90517e-05
0.0374303
0.0323536
0.0566659
0.0355234
0.000105226
0.000105924
0.00017933
0.00010761
0.000105191
0.102361
0.000265355
0.0229352
0.000138286
0.000125558
0.000120572
0.000104066
0.026925
0.000135764
9.72035e-05
0.000145139
0.000173305
0.000278238
0.0568115
0.000114472
0.000135661
0.017446
0.000112703
0.000101459
0.000109684
0.0697219
0.000110453
0.0639869
0.000127869
0.000264319
0.000102412
0.000184719
0.000102836
0.000116057
9.89294e-05
0.000124712
0.00245651
0.000112304
0.0221465
0.000101094
0.0201745
0.045435
0.000102676
0.000123458
0.0800053
0.0326707
9.96086e-05
0.000123736
0.000117717
0.0168556
0.000101597
0.000416181
0.000127508
0.000124487
0.0212609
0.000101056
0.000131758
9.52362e-05
0.0518902
0.0865319
0.0481406
0.000107223
0.031501
0.000128234
0.000122327
0.000114105
9.10152e-05
0.000143201
0.0520449
0.0391371
9.8807e-05
0.00013613
0.000104836
0.000109385
0.0962413
0.000246591
0.0269606
0.076101
9.89927e-05
0.000167779
0.000128059
0.000103253
0.000324668
9.53167e-05
0.000141141
0.0144917
0.0394066
0.000116379
0.0298299
0.000111681
0.000130521
0.00010641
0.000124757
0.0438564
9.95413e-05
0.0104192
0.000137631
0.000142246
0.111583
0.118804
0.0228364
0.00644988
0.0238146
0.000108538
0.000541963
0.000115948
0.00336996
0.000104414
0.000114169
0.0504383
0.000106183
0.000123503
0.000108837
0.000106386
0.0683385
0.000394127
0.000111739
0.000106718
0.0244597
0.000104141
0.0326508
0.000110752
0.000122288
0.0610701
0.00013082
0.000899525
0.000105775
0.000103177
0.0931991
0.000105977
0.000748039
0.00010964
0.0537244
9.4316e-05
0.0211103
0.000100603
0.0337432
0.0398068
0.0180244
0.000102802
0.000116394
0.000105349
0.00014609
9.72239e-05
0.000132728
0.047335
0.000107295
0.000110314
0.000111776
0.000108661
0.000107334
9.28819e-05
0.00010453
9.5969e-05
0.000105726
0.0666969
0.00218607
9.9581e-05
0.000122311
0.0493669
0.000111328
0.0935956
0.000100922
0.000110001
0.000112189
0.000106062
0.000119266
0.000126298
0.000111441
0.000139466
0.000118881
0.000757106
0.000100021
0.0253532
0.00312425
0.000283855
0.000427963
9.8766e-05
0.0747585
0.000209098
0.000142467
0.000104734
0.000111858
0.0973003
0.000110897
0.000135483
0.00669942
0.0582025
0.000158808
0.00010214
0.03733
0.00519345
0.0256288
0.00010582
0.000108907
9.46187e-05
0.00011833
0.000117561
0.0266407
0.000248761
0.000139713
0.000330245
0.000774482
9.78446e-05
0.0643988
0.0599854
0.000256209
0.000100991
0.0368701
0.000119482
0.000124399
0.0193858
0.000107983
9.9325e-05
0.000114931
9.60171e-05
9.76204e-05
0.0404814
0.112154
9.9524e-05
0.0404854
9.74574e-05
0.000119728
0.000266356
0.000118491
0.016528
9.54092e-05
0.000126676
0.000106975
0.000101942
0.0439238
0.0180734
0.000411983
0.0316516
0.0754905
0.000111253
0.00011452
0.000100328
0.000816007
9.48278e-05
9.88055e-05
0.000111509
0.0105957
0.00145255
9.47309e-05
0.000111092
0.000102528
0.000183107
0.0310176
9.29879e-05
9.37455e-05
9.4097e-05
0.0103099
9.45389e-05
0.0503086
0.000107495
0.000136597
9.89967e-05
0.000114014
0.000105553
0.000250661
0.0339634
0.0389252
0.000111876
0.000126779
0.0340507
9.57013e-05
0.0119629
0.035029
0.000112368
0.056231
0.0350884
0.110992
0.000104531
9.91726e-05
0.0345464
9.9916e-05
0.000113132
0.000183407
0.000723449
0.00010283
0.0862976
0.000119505
0.0352314
0.0119593
0.00010113
0.000109032
0.000120439
0.000849498
0.000100275
0.000134844
9.60117e-05
0.000111435
9.53058e-05
0.0295648
0.000136468
0.0339816
0.0194883
0.000119093
9.88201e-05
9.76055e-05
0.000129258
0.0317869
0.0114998
0.0746492
0.0254044
0.000125488
0.000104839
0.000103338
0.000113521
0.00039766
0.000100254
0.000145553
0.00011013
0.00011034
0.0273592
0.000102387
0.0212802
0.000111745
0.000104728
0.000150674
0.000136999
0.000122521
0.000116796
0.00998007
0.0375833
0.103494
0.0650698
0.0370452
0.0396594
0.0322347
0.000117707
0.000122142
9.77309e-05
0.000471335
9.998e-05
0.000122773
0.0522111
9.44533e-05
0.000100296
0.000123537
0.000369644
9.83342e-05
9.72062e-05
0.000106729
0.0278262
0.000110242
0.000111251
0.000129373
0.00011219
0.000136735
0.000115299
0.000399963
0.000113089
0.0391837
0.000123761
0.000113688
0.0487182
0.0465643
0.017755
0.0223227
0.000140841
0.025266
0.000108805
0.000148376
0.000104881
0.000128301
9.38478e-05
0.0694886
9.71996e-05
0.000138258
0.0216063
9.62766e-05
0.00010624
0.000110246
0.000260392
0.000147109
0.0278279
9.7522e-05
0.000338423
0.000133003
9.92585e-05
9.94436e-05
0.000288583
0.000115635
0.00237741
0.0932803
0.000286311
0.0483112
0.000118925
0.0491064
0.00168821
0.000125703
0.0124529
0.000113643
0.000130266
0.000114468
9.2145e-05
0.000119818
0.000122641
0.000106156
0.000110942
0.000115011
0.000102042
0.000130171
0.000183407
9.65797e-05
0.0647817
0.000133086
0.000101324
9.67505e-05
0.0308313
0.00423131
0.00013498
0.000261954
0.000109377
9.44771e-05
0.000149194
0.0201105
0.000103719
0.000147174
0.000151509
0.000226643
0.000125571
0.00168464
0.000115584
0.000206439
0.000106762
0.000114632
0.000110407
0.000102051
0.0197417
0.0664264
0.00010297
0.000123978
0.0325038
0.00010978
0.000103824
0.000118785
0.000158533
0.0156517
9.1195e-05
0.0601814
9.96989e-05
0.000137376
0.000214507
0.000114276
0.00012773
0.0264381
0.00010449
0.0214348
0.000119379
0.000146336
0.00013425
0.000142464
0.000144623
9.56433e-05
0.000100273
0.00011573
0.000162377
0.000114034
0.000111429
0.000102632
0.000127453
0.000141454
0.000125929
0.0145256
9.6814e-05
0.000110639
0.000647505
0.00010947
0.00012316
0.0445745
0.000144895
0.0221872
9.71294e-05
0.0428508
0.000331953
0.000149567
0.0243556
0.000126852
0.0472397
9.98189e-05
0.000285237
0.000103562
0.000101761
0.000110308
0.000110785
9.98831e-05
0.000112516
0.000123522
0.00011529
0.000104416
0.0311323
0.0345689
0.0632138
9.39409e-05
0.000141775
0.037245
0.121206
0.000137427
9.69377e-05
0.047991
9.89842e-05
0.000108273
0.0169786
0.0387254
9.58419e-05
0.000101257
0.000106843
0.000865708
0.000148417
0.000115508
0.00897656
0.000112965
0.000103239
0.0616814
0.000109286
0.00044071
0.0487125
0.000138055
0.000112242
0.000115578
9.90998e-05
0.0634138
0.00451326
0.0318151
0.000119958
0.000121017
0.0453378
0.000131498
0.000243056
0.000110797
9.39562e-05
0.000103994
0.000126976
0.0636433
0.072171
9.08109e-05
0.000117209
0.000100451
0.0177036
0.00010877
0.000106031
0.000423663
9.70657e-05
0.00191434
0.000107895
0.000131714
9.78816e-05
0.000255764
0.0302728
0.000125072
0.00840471
0.000110295
0.000107412
0.000147154
0.0821591
9.75362e-05
0.000108436
0.000105889
0.000109923
0.000108863
0.000151393
0.000131639
0.000107329
0.00012685
0.0160586
0.000124464
0.000136011
0.000112499
9.75648e-05
0.000317154
0.000137285
0.00016202
0.0259556
0.00012136
0.0396617
9.7226e-05
0.0304786
0.000705812
0.000117356
0.00832598
0.000143776
0.000105167
9.74524e-05
0.000100687
0.000151956
0.000101335
0.00011817
0.000117885
0.000102633
0.000106889
9.81882e-05
0.00023943
9.72414e-05
0.000110059
0.00367642
0.000104423
0.000108578
0.000117366
0.0207777
0.00015309
0.000114346
9.79923e-05
0.000111639
0.0248495
0.000239233
9.73879e-05
0.0365665
0.00143462
0.0092281
0.000140273
0.000984389
0.000113638
0.00169024
9.86332e-05
0.000110789
0.0239781
0.0315834
0.000698942
0.0167489
0.000132648
0.0221312
0.000113343
0.000123241
0.000107369
0.0234181
0.0531081
9.25984e-05
0.000124999
0.000582212
0.000133068
0.000123325
0.0742838
0.000127179
0.000108328
9.70873e-05
0.00011479
0.000103593
0.000111545
0.000120364
0.000108789
0.00147441
0.000102019
0.000124179
0.000122758
0.034101
0.0319627
0.000123399
0.000748592
0.000107454
0.000111195
0.0350103
0.000123043
0.000110475
0.000109801
0.0488645
0.000124476
0.000138406
0.000105187
0.0248808
0.000122065
0.000111432
0.000110672
0.00338223
0.000110805
0.000105437
0.000322776
0.000127818
0.000425148
0.000102652
0.0260609
0.000104083
0.00012447
9.40337e-05
0.000154182
0.000135586
9.86594e-05
0.000189014
0.0344743
9.53509e-05
0.0261155
0.000138735
0.000101831
0.000117492
0.000125115
9.64223e-05
0.0560665
0.000147246
0.000103147
0.000210341
0.0975402
0.00279528
9.43108e-05
0.000110763
0.00011052
0.000128814
0.000117242
0.00013033
0.017117
0.000139504
0.00164585
0.000157578
0.000103087
9.67512e-05
0.00010222
0.00015799
0.000712274
0.00014753
0.00012353
0.000106335
0.0384415
0.000155608
9.41515e-05
0.000100485
0.00014589
0.000144021
0.123035
9.70295e-05
0.0231194
0.019338
0.114987
9.75818e-05
0.000108888
0.000106704
0.000117492
9.87792e-05
9.52646e-05
0.000332078
0.000144194
0.000104704
0.000126446
9.44281e-05
9.52101e-05
9.9658e-05
0.0548708
0.000124839
0.0171711
0.000129454
0.000200285
0.000102593
0.000160527
0.000173538
0.000116637
0.0399565
0.000110881
0.000142313
0.000101005
0.000102383
0.000110592
0.000100173
0.0343298
0.000105231
0.000105283
0.000356306
0.0384465
0.000107583
0.00219782
0.00316459
0.000122739
9.91819e-05
9.91669e-05
0.000270087
0.000118953
0.0421521
0.000102231
0.113354
0.0001094
0.000273909
0.0829888
0.00010737
0.0221517
0.000105279
0.000100976
0.000107037
0.074689
0.000104581
0.000134907
0.000121687
0.0001932
0.000103559
0.000124099
0.000134839
0.0805275
0.00014504
0.000107362
0.0477107
0.000107907
0.000116653
0.00012801
0.000104868
0.0311611
0.000100183
0.00011943
0.000112347
0.000110645
0.000100046
9.97515e-05
0.000111705
0.0457193
0.000116308
0.000130704
0.0280196
9.37545e-05
0.0628917
9.15654e-05
0.087384
0.000105983
0.000107953
0.000109147
0.024149
0.0476373
0.000108814
0.000185749
0.000110817
0.00011097
0.000132179
0.0346026
0.000134447
0.000122625
9.76358e-05
9.8264e-05
0.000139053
0.0372984
0.000110509
0.000101028
0.000106833
0.00410757
0.0113502
0.000102354
0.000119207
0.0666057
0.000114205
0.0259067
0.0207651
0.000473124
0.000111295
0.000102161
0.000141956
0.00787193
9.23475e-05
9.70419e-05
0.000110485
0.000108737
0.0219479
0.123055
0.000115936
0.000204646
0.000609331
0.000107563
0.0424427
9.8622e-05
0.000102586
0.000156406
0.0660341
0.00030848
0.000236127
0.00453537
0.000108609
0.0787198
0.0273877
0.0790494
0.000140226
0.0520591
0.113515
0.0130249
0.0789726
0.0359054
0.000124802
0.000103157
0.000241362
0.000110623
0.000111263
0.00732544
0.000134513
9.74087e-05
0.0316213
0.000138807
0.000108368
0.000102673
0.000109835
0.00378597
0.000115752
0.0643843
0.000100201
0.000110658
0.0144713
0.0653658
0.000185096
0.000114084
0.000110426
0.000124151
0.000144362
0.000110509
0.00011012
0.00016553
0.000210191
0.00011368
0.000263925
0.000106773
0.000121876
0.0310708
0.00241523
0.000111797
0.000252917
0.0666179
0.00011336
0.00010711
0.0911014
0.000681803
0.000102903
0.000100141
0.000130019
0.000153534
9.5278e-05
0.0347557
0.00015278
0.000111957
0.000142231
0.000199668
0.000107287
0.00182552
0.0391178
0.000109458
0.000124724
0.000104477
0.000139533
0.000100686
0.000106639
0.00010138
0.000110112
0.000114449
0.000107257
0.000115468
0.0001018
0.00681328
0.000146195
0.0433679
0.0414515
0.000102479
0.00114438
0.00023811
0.000160626
0.000110232
0.000133769
9.90354e-05
0.000233166
9.93156e-05
0.000103594
0.000141049
0.0442377
9.30983e-05
0.0221429
0.000110589
0.00012188
0.000124029
0.000150838
0.000116304
0.000107101
0.000108759
0.0361879
0.000115521
0.000960864
0.0128479
0.0390939
0.000108379
0.000213411
0.0214877
0.0127343
0.00533302
0.000113442
0.000107309
0.000274399
0.00414699
0.0166971
0.000102797
0.00081523
0.000143198
0.00010076
0.000115551
0.000139616
0.000116995
0.000246503
0.000146362
0.000283295
0.000105406
0.0611359
0.0444226
0.0258615
0.0303805
0.0371593
0.000116271
0.000134887
0.0516638
0.000102257
0.000102614
0.000101609
0.000229638
0.050859
0.044911
0.00010998
9.42812e-05
0.000104682
0.000113897
0.0247001
0.000126011
0.0213701
0.0618984
0.000138782
0.000137889
0.0275543
0.000119371
9.35277e-05
0.000124746
0.0473269
0.0438716
9.97121e-05
0.000267485
0.000145221
0.0396473
0.0523598
9.15766e-05
0.12524
0.056715
0.0331219
0.000105518
9.26287e-05
0.000144204
0.000148581
0.0472059
0.00011158
0.000555925
0.00105818
0.0379322
0.000101059
0.000123652
0.00132357
0.000110202
0.0490892
0.0903242
9.88809e-05
9.75052e-05
9.79318e-05
0.000185771
0.0395436
9.43097e-05
0.0199518
0.000109332
0.000101176
0.000110274
0.00011917
0.000489462
0.000107777
0.099648
0.000139507
0.000119538
0.000101481
0.000162601
9.77833e-05
0.0448298
0.0115694
0.000687882
0.000131929
0.000113924
0.000106667
0.000128719
0.000927157
0.042271
0.0606615
0.000135502
0.023156
0.000278262
0.077429
9.26605e-05
0.000109196
0.000105706
0.000102044
0.0386024
0.000128041
0.000100278
0.0238093
0.0584812
0.00956331
0.0515588
0.000107338
0.000106478
9.93044e-05
0.0620928
0.000107132
0.01352
9.8482e-05
0.0351436
9.16925e-05
0.000122165
0.000100226
0.000112558
0.000111653
0.000111158
0.0287064
0.00010012
0.0001116
0.000108345
0.024666
0.00754292
0.000119321
0.0950133
0.000104886
9.754e-05
9.60358e-05
0.000102149
0.000122286
0.0001215
0.0210811
0.000185286
9.37661e-05
0.000122813
0.00082844
0.000104401
9.84091e-05
0.0317845
0.00479968
0.000337887
9.05821e-05
0.00305224
0.000134578
0.000245089
9.60156e-05
0.000239969
0.00660693
0.0282927
0.000117565
0.0509027
0.00011935
0.000108204
0.000108146
0.0391603
0.000235443
0.000155839
0.000180564
0.000144224
0.0245675
0.000147259
0.000853801
0.000573373
0.0664389
0.0287333
0.0155898
0.0578074
0.00010845
0.000112705
0.0001303
0.00010186
9.51549e-05
0.000228373
0.000107583
0.000113207
0.0876691
0.000115189
0.000112413
9.91226e-05
0.000192859
9.85943e-05
0.000105286
0.0641089
0.000101131
0.000100976
0.000110325
0.0601423
0.000110171
0.0507643
0.000149548
0.000101789
0.000119828
0.000129635
0.0542075
0.00114027
0.000126268
0.000111358
0.000116621
0.0194596
0.099568
0.0326597
9.95691e-05
0.000127742
0.00214326
9.97953e-05
0.000123294
0.000107081
0.0502636
0.000308645
0.000108285
9.3112e-05
9.61795e-05
0.0363226
0.000164454
0.000351615
9.37358e-05
0.000100638
9.39114e-05
0.000246331
0.000120044
0.000119636
0.0337364
0.0904873
0.0508608
0.0339555
0.108867
0.0776677
0.0540492
0.000111792
9.5833e-05
0.0408473
0.0445895
0.0118281
0.000111554
0.000103079
0.000121403
0.00011593
0.0191866
0.0594574
0.000113349
0.000122145
0.00111106
0.000136587
0.000108692
0.0306112
0.00640127
0.000836351
0.000116959
0.0450145
0.01485
0.0008117
9.63647e-05
0.000104555
0.000116063
0.000112408
0.000105553
0.000108241
0.000105182
0.000100095
9.83642e-05
0.000107183
0.000426363
0.0275383
0.000111215
0.000100364
0.0390586
0.000322298
0.000131621
0.00336786
0.0195496
0.0215388
0.000107248
0.000101918
9.9974e-05
0.00010392
0.000110024
0.00010193
0.000115958
9.74003e-05
0.000101956
0.000497759
0.000143031
0.000103866
0.0286948
0.0358891
0.0666236
0.00122391
0.000149374
9.17381e-05
0.000122796
0.000101284
9.96776e-05
0.0713932
0.000121902
0.000147226
0.000102082
0.0335601
0.0757654
0.000112552
0.00011134
0.000105094
0.000113198
0.000101916
0.000118363
0.000102028
0.000106535
0.0843895
9.79315e-05
0.0418935
0.00010815
0.069232
0.000102819
0.000118464
0.000108085
0.000136348
0.000190704
0.000110164
0.000117521
0.000102498
0.000119533
0.0292599
0.123663
0.0275217
0.000147224
0.00301748
0.000108567
0.000108859
0.000122991
0.000126571
0.000106625
0.0225855
0.044217
0.000111031
0.00012844
0.0354542
0.000110842
0.0275653
0.0402585
0.000433239
0.000106175
0.000177969
0.0320954
0.00266545
0.0384344
0.000118893
0.000104389
0.000108642
9.81888e-05
0.0668314
0.000107034
0.00010439
0.00123835
0.0740804
0.000104599
0.00011225
0.0789644
0.000107788
0.0866607
0.000116108
0.000124869
0.000106983
0.000292312
0.00013156
0.0212559
0.00010821
0.00225657
0.000102017
0.00014439
0.000111459
0.000507166
0.000112153
0.000258804
0.000119936
0.000105881
0.000472397
9.60679e-05
0.000102635
0.000125432
0.000107142
0.00194677
0.000100362
0.000105275
0.000109741
0.000118117
0.000113096
0.000270483
0.000101606
0.000104987
0.000206609
9.32303e-05
0.000185398
0.000133707
9.83216e-05
0.000114523
0.122544
0.0257648
9.93667e-05
0.0203987
0.0269791
0.000114412
0.000112342
0.0135215
0.0329002
0.000111243
0.0265583
0.000697931
9.4675e-05
0.000125117
9.52415e-05
9.87437e-05
0.000117188
0.0277143
0.0046561
0.00066758
0.00112412
0.0334697
0.0425685
9.37236e-05
0.034401
0.000122642
0.0155516
0.042434
0.000130713
0.000129819
0.0253206
0.000116741
0.000129232
0.000764636
0.0411969
0.000298828
9.55557e-05
0.0390163
0.00013114
0.0359327
0.0301047
0.000139181
0.00245053
0.0139479
0.0497414
0.0271731
0.0304877
0.0248078
0.000112746
0.00011116
0.000116236
0.000113661
0.000128712
0.000314714
0.00012423
0.0308342
0.000642856
0.000141187
0.000485385
0.031144
0.00060222
0.000379506
0.00017877
0.0499709
0.00146457
9.62338e-05
9.76253e-05
0.0177777
0.000112327
0.00010255
0.0840466
0.000116351
0.0193259
0.000116323
0.0541246
9.54643e-05
0.000117881
0.0823368
0.00011091
0.000116207
0.0232522
0.0412073
0.024279
9.53591e-05
9.92736e-05
0.000109606
9.85011e-05
0.000168484
9.96616e-05
0.000140826
0.0383255
0.000114015
0.000108196
0.0243819
0.000103837
0.000114801
0.000359312
0.000124681
0.000101042
0.0001176
0.000290091
0.00010777
0.000166096
0.00329675
0.0366839
0.000113038
0.000106221
0.0912702
9.68949e-05
0.000122958
9.54152e-05
0.000106688
0.0464484
0.000112863
0.000111032
0.061074
0.000114074
0.0350295
0.000133089
9.92981e-05
0.000163554
0.0331711
0.000107206
0.00260006
0.00598922
9.67422e-05
0.000101466
0.000565402
0.000108473
0.0839539
0.000110628
0.0620704
0.000187323
9.60701e-05
0.000100933
0.000212104
0.000107098
0.000218286
0.000112306
0.000116259
0.000102142
9.45675e-05
0.0168583
0.000116611
0.000102156
9.53694e-05
0.000146995
0.000101551
0.000111202
0.0340511
0.000111886
0.00030989
9.28016e-05
0.00011585
0.000138875
0.000140612
9.42932e-05
0.000117433
0.000126288
0.028036
0.000110108
0.000104868
9.53897e-05
0.000105663
0.00185275
0.000113395
0.0282932
0.0262405
0.076016
0.000190814
0.000107493
9.53243e-05
0.000137811
0.00011062
0.000303137
0.000109965
0.0462961
0.000109098
0.101564
0.000195808
0.00014105
0.000111296
0.0255546
0.000112431
9.89813e-05
0.000195102
0.000605376
9.52599e-05
0.0485801
0.000137492
0.00010424
0.000121303
0.000110664
0.000609862
0.000143846
0.000104896
9.63536e-05
0.000117821
0.000104245
0.000107443
0.00434672
0.00161597
0.000507377
0.000176233
9.24978e-05
0.000103663
0.000106501
0.0327338
0.0492681
0.0366622
9.75833e-05
0.011442
0.000141632
9.92218e-05
0.000121659
0.000107958
0.000134764
9.56782e-05
0.0679446
0.000116748
0.000101086
0.00183497
0.019911
0.000101325
0.0100312
0.000116616
0.0220633
0.000109403
0.0686274
0.000112078
0.000112017
0.0364104
0.000176672
0.000117992
0.000162932
0.00014516
0.000285716
0.000103072
0.000162551
0.077902
0.000115214
0.0345356
0.00011592
0.108205
0.000115565
0.000101274
0.000106109
0.000111067
0.000134907
0.000149299
0.035126
0.0226508
0.000108774
0.000107624
0.000222269
0.000106112
0.000107634
9.74611e-05
0.0076228
9.68297e-05
0.0572546
0.0287423
0.00024284
0.000141343
0.000236773
0.000380925
0.000196643
9.26289e-05
0.039291
0.000114384
9.21666e-05
0.000114691
0.0104032
0.000102437
0.000116407
0.0362982
0.000117842
0.000235832
0.000287973
9.53773e-05
0.0434435
9.34442e-05
0.0546522
0.000104469
0.00520405
0.000104192
0.000213487
0.130519
0.00011556
0.000115797
9.45723e-05
0.0302124
9.57083e-05
0.000239009
0.000100233
0.000103659
0.000259697
0.000108008
9.35722e-05
0.018782
0.000103098
9.4319e-05
0.000190136
0.000115998
0.000108185
0.000139108
9.43968e-05
0.000114845
0.000107707
0.0378836
0.111533
0.000316877
0.053359
0.000107873
9.52e-05
0.0756544
0.101967
0.000112736
0.0421074
0.0225934
0.0273086
0.00901706
0.000103244
0.0284647
0.0380547
0.120401
0.00874844
0.0516132
0.000126963
0.00023204
0.000110158
9.42364e-05
0.000121193
0.0204084
0.000148416
0.0903207
0.000372225
0.00128446
9.69225e-05
0.000118515
0.000132555
0.000111297
0.000149255
0.000132785
0.000387542
9.53429e-05
9.59756e-05
9.83153e-05
0.0817084
9.85277e-05
0.000263712
0.000110367
0.000411868
0.000238057
0.000114517
0.000107019
0.000117785
0.0535156
0.0439569
0.000214235
0.0323479
0.000109531
0.000132782
0.000133564
9.94941e-05
0.000121097
0.000104829
0.000143231
0.0393676
0.000103949
9.96091e-05
0.0101227
0.000106805
9.88683e-05
0.000120465
0.0864458
0.000281871
0.129143
0.0270183
0.000244589
0.000495506
0.0245304
0.000586426
0.00289434
0.0509373
0.00038747
0.000117551
0.00674011
0.0655225
0.000124826
0.108977
0.000278935
0.0463946
9.78414e-05
0.000112116
0.0840527
0.000147215
0.0891467
0.000110629
0.0368017
0.000130542
0.000117544
0.000126458
0.000855124
9.45466e-05
0.000120759
0.000100425
0.000101044
0.0256394