/*--------------------------------*- C++ -*----------------------------------*\
| =========                 |                                                 |
| \\      /  F ield         | OpenFOAM: The Open Source CFD Toolbox           |
|  \\    /   O peration     | Version:  v2012                                 |
|   \\  /    A nd           | Website:  www.openfoam.com                      |
|    \\/     M anipulation  |                                                 |
\*---------------------------------------------------------------------------*/
FoamFile
{
    version     2.0;
    format      ascii;
    class       volScalarField;
    location    "150";
    object      nut;
}
// * * * * * * * * * * * * * * * * * * * * * * * * * * * * * * * * * * * * * //

dimensions      [0 2 -1 0 0 0 0];


internalField   nonuniform List<scalar> 
13851
(
0.000664934
0.000457094
0.000456514
0.0092682
0.000464013
0.000459015
0.000454415
0.000456343
0.0129064
0.00046223
0.000531915
0.000463817
0.000460184
0.00471351
0.000469315
0.00070418
0.00573849
0.000455205
0.00132743
0.00066475
0.000474723
0.000461817
0.00536048
0.000468658
0.00476677
0.000511157
0.00204204
0.00449963
0.0129389
0.000455975
0.0136969
0.000454504
0.000660327
0.0146281
0.000486243
0.0130383
0.000468854
0.00555534
0.0155123
0.000458328
0.0149208
0.0133754
0.000613971
0.00564651
0.0137094
0.000458208
0.000451357
0.000676339
0.000457778
0.000460391
0.0054184
0.000460231
0.000700382
0.00046149
0.00465612
0.000458698
0.000665089
0.0147948
0.00280369
0.00539115
0.000463979
0.00161567
0.000464255
0.000457981
0.00161291
0.00178068
0.00341028
0.000700004
0.000457406
0.0112097
0.0136091
0.000486642
0.000460156
0.00414291
0.000463747
0.000459019
0.00838614
0.000454275
0.00407356
0.000461071
0.000457479
0.00148392
0.000485862
0.00553329
0.00561935
0.0138044
0.000461564
0.00309834
0.000461999
0.0135783
0.000460141
0.000454632
0.000517125
0.0134118
0.0149311
0.00440281
0.000459051
0.000708554
0.00476102
0.000903953
0.000724175
0.000524336
0.000540523
0.000459617
0.00045735
0.000485583
0.000457479
0.0138903
0.000454723
0.00045518
0.000469562
0.000458294
0.000761372
0.000516553
0.000657738
0.0004608
0.000456899
0.000456265
0.0084578
0.01157
0.00118667
0.000455178
0.000457798
0.0116093
0.00102119
0.001061
0.000459082
0.000524
0.014463
0.000480988
0.000461424
0.000466519
0.00510162
0.0146295
0.000533901
0.015029
0.00064436
0.0137536
0.000489476
0.00047989
0.00146819
0.000459293
0.000461729
0.000939035
0.00470174
0.000459224
0.000454339
0.0134121
0.0107073
0.000530604
0.000719721
0.000764181
0.000524844
0.000997963
0.000459736
0.00046109
0.000464667
0.0154292
0.000475755
0.000454572
0.000468388
0.0130042
0.00048387
0.000676858
0.0050289
0.0138007
0.0139245
0.00710631
0.000468635
0.0108887
0.0004643
0.000456971
0.00050325
0.000465478
0.0152292
0.00172859
0.000752024
0.000456795
0.000463467
0.000742219
0.000985069
0.0048157
0.000467033
0.000480328
0.000577021
0.0109841
0.000661083
0.000470297
0.000459827
0.000456862
0.0040344
0.000475674
0.0027985
0.000459419
0.000459004
0.000704784
0.000650318
0.000453904
0.000455753
0.000693586
0.001442
0.0149329
0.0149015
0.000469472
0.010952
0.0144656
0.000460594
0.000478761
0.0130973
0.000459138
0.000703793
0.00045787
0.00149065
0.000467798
0.000487371
0.000459759
0.000460558
0.000917591
0.000454757
0.0074077
0.000457077
0.000664508
0.00407998
0.015136
0.000469893
0.000479735
0.000468642
0.000841441
0.000462298
0.00048642
0.0100095
0.000469905
0.000458902
0.000464766
0.0147617
0.000455879
0.0055734
0.0148478
0.000835444
0.000468077
0.00543428
0.0056427
0.013782
0.000695722
0.000466349
0.00119968
0.000844742
0.000463543
0.00329857
0.000472418
0.00344803
0.000672368
0.000457923
0.000458321
0.000715578
0.0127373
0.00514085
0.000457019
0.00108248
0.000462443
0.000813333
0.00100697
0.000458692
0.000484797
0.000687953
0.000460301
0.000529805
0.00061473
0.00355715
0.000463401
0.000460714
0.000470164
0.0142384
0.00549106
0.000481172
0.000455306
0.000999096
0.000999776
0.000618239
0.000483504
0.014112
0.00459081
0.000459625
0.000465521
0.00574895
0.00045712
0.000464461
0.000627356
0.000516254
0.000455651
0.000467596
0.000461908
0.000461804
0.000465652
0.000464449
0.0132146
0.000477556
0.000458432
0.0127286
0.0108949
0.000460081
0.000669225
0.00510073
0.000459356
0.000460082
0.00048026
0.00488895
0.0131001
0.00051194
0.000463751
0.0104137
0.000464058
0.000523095
0.00678823
0.00362487
0.000454372
0.00565965
0.00440311
0.01445
0.000760278
0.000537895
0.0154168
0.0130345
0.00392222
0.00045568
0.00972392
0.000404096
0.00957809
0.00678695
0.000460663
0.000512179
0.000469761
0.00359968
0.000558169
0.00045944
0.000451466
0.000462908
0.0141419
0.00959273
0.000457169
0.0148656
0.000470834
0.000467233
0.000454429
0.00384871
0.00097787
0.000709464
0.0004594
0.000458435
0.0129859
0.000459811
0.00104547
0.000459243
0.000480162
0.000471533
0.00046216
0.000458822
0.000774837
0.000976571
0.000673157
0.00474081
0.0131399
0.000459114
0.0146631
0.000978979
0.000454042
0.00376314
0.000560386
0.00643678
0.000461966
0.000519627
0.00200455
0.00485897
0.000760273
0.00464094
0.000456219
0.002111
0.00190457
0.000463656
0.0052945
0.000466637
0.0150884
0.000465179
0.000471566
0.00067936
0.0012278
0.000461148
0.000458893
0.000526612
0.000463868
0.000458378
0.00048131
0.0130287
0.000459969
0.00047933
0.00693463
0.000457321
0.00691712
0.000476569
0.0125795
0.000459572
0.000504229
0.0106909
0.00102818
0.00048505
0.00376479
0.00410141
0.00506188
0.000460011
0.000761463
0.000467318
0.00051761
0.000455732
0.000623916
0.0132504
0.0045217
0.000457949
0.000683199
0.00158795
0.00699221
0.000452658
0.00717228
0.00134227
0.00519057
0.000474218
0.00426529
0.000460875
0.000465002
0.00354727
0.00158137
0.000462322
0.000457124
0.000480115
0.00045786
0.012533
0.000512181
0.000557783
0.000456983
0.00045611
0.000460252
0.00454101
0.000458377
0.000460229
0.0114009
0.0126451
0.000461353
0.00148838
0.000464432
0.000464346
0.000457619
0.00068371
0.000475492
0.000458306
0.000456058
0.00113393
0.000455434
0.0117481
0.000463698
0.000458301
0.0137795
0.000486051
0.000452723
0.000464666
0.000457108
0.000453851
0.00562546
0.0123979
0.000466287
0.00227602
0.00045769
0.000463368
0.0141891
0.00182107
0.000488013
0.000459786
0.0125479
0.000486419
0.00771459
0.000459898
0.000466781
0.000770438
0.000465889
0.0137368
0.00165608
0.00456649
0.0004601
0.000759014
0.000459717
0.0126831
0.000476413
0.000649238
0.00046682
0.000459335
0.000485711
0.000503434
0.000464313
0.00587319
0.0139454
0.0112834
0.00454342
0.012127
0.0110128
0.00103703
0.000467346
0.000467071
0.00690675
0.000462392
0.000458697
0.000472121
0.0153097
0.000456039
0.000459538
0.000686708
0.000486611
0.000462338
0.00950382
0.000459305
0.0145766
0.00490231
0.00046045
0.000455242
0.00135544
0.00396085
0.000455862
0.00626517
0.00589488
0.000452392
0.0151496
0.001254
0.000662504
0.000460119
0.0110978
0.00583865
0.000452393
0.00123841
0.000457568
0.000459282
0.0103237
0.0151268
0.000474144
0.000475172
0.000462406
0.000493246
0.0145958
0.0153709
0.000453122
0.00774597
0.00045829
0.000457445
0.000485035
0.000457794
0.000452554
0.000459205
0.0152705
0.00115462
0.0150982
0.000455775
0.000461953
0.0142414
0.000466796
0.000760985
0.000458522
0.000463892
0.000466319
0.013697
0.00606494
0.000458946
0.00658626
0.00045442
0.000514287
0.0134946
0.00707122
0.000458271
0.000459702
0.00054411
0.0151862
0.00132577
0.000492632
0.00612471
0.000457992
0.000464076
0.00973803
0.00989286
0.00103733
0.014445
0.000812957
0.0133758
0.000456417
0.0031528
0.00349765
0.000463713
0.00193831
0.0130131
0.000468487
0.000480399
0.000458758
0.00898635
0.000585224
0.00703758
0.000458373
0.000466093
0.000464376
0.000486041
0.000464157
0.0150781
0.000465929
0.000788756
0.000460304
0.000520397
0.000459808
0.000462302
0.000503093
0.00804288
0.000485172
0.0147956
0.000466639
0.000458051
0.000454282
0.000504134
0.000456125
0.000594548
0.000456917
0.000485874
0.00284223
0.000466498
0.00359299
0.000468376
0.000574556
0.00790524
0.0139076
0.000468669
0.0063298
0.000680996
0.00133578
0.0133826
0.000453258
0.0106115
0.000470523
0.000464701
0.00560966
0.00324326
0.000453892
0.00058954
0.000453814
0.0130835
0.0056313
0.000457383
0.000723757
0.0124107
0.000469255
0.000469009
0.000512859
0.00247973
0.00967116
0.000460092
0.000680226
0.000455327
0.000462103
0.00325677
0.000684313
0.000860881
0.000452564
0.000615906
0.000530013
0.000496882
0.0004599
0.000458804
0.000576817
0.00046404
0.000645389
0.000486648
0.000486777
0.000886829
0.00930839
0.00126552
0.0128312
0.00550369
0.000697399
0.00832591
0.000492777
0.0108728
0.000672756
0.000455484
0.000463306
0.00107636
0.000462321
0.00046067
0.000460422
0.000574764
0.00384258
0.000458658
0.0146004
0.00045789
0.0102995
0.00107199
0.00495482
0.000590009
0.000459565
0.000456578
0.00635072
0.000847644
0.000487892
0.00179605
0.000456015
0.00673387
0.000576766
0.000796648
0.000466954
0.00226102
0.000460637
0.000468014
0.000460407
0.000461822
0.0134486
0.000462094
0.00247308
0.0141503
0.000596411
0.0154327
0.00557228
0.000813056
0.00140891
0.000468808
0.000466693
0.000460828
0.000454585
0.000454346
0.000465532
0.000514283
0.000741618
0.0005469
0.00374491
0.000458188
0.0128356
0.000469285
0.0099282
0.000481562
0.000469507
0.000465186
0.0139091
0.000459719
0.00920548
0.0129282
0.000477579
0.000513284
0.000452131
0.0146713
0.000460524
0.000456282
0.0029825
0.000466493
0.000459432
0.000454016
0.000476634
0.00420432
0.000463831
0.000467079
0.00151893
0.0151278
0.000469982
0.000463695
0.0135082
0.000454353
0.0133923
0.000467129
0.000455535
0.00391568
0.000536115
0.000650953
0.000594065
0.000485157
0.000467595
0.000469388
0.000523419
0.000456332
0.00046777
0.000459018
0.00153547
0.000461878
0.00123778
0.00723058
0.00825092
0.000588903
0.0128795
0.000494054
0.000466515
0.000757117
0.000458213
0.000459294
0.0123498
0.0131404
0.0105759
0.0136481
0.000456877
0.000457406
0.000624353
0.000458728
0.000456717
0.00533028
0.000834423
0.00585826
0.000578525
0.000540159
0.000461544
0.000456068
0.00605993
0.000558387
0.000455683
0.000468189
0.000651319
0.000821376
0.0147748
0.000459921
0.000465725
0.00304083
0.000459918
0.000466521
0.000457971
0.0153609
0.000458358
0.00903224
0.000463936
0.00079046
0.000472409
0.000635534
0.000466927
0.000460382
0.000457227
0.000462519
0.00230542
0.000459742
0.00711312
0.000455907
0.00751214
0.0142793
0.000465323
0.000462466
0.00755402
0.0123597
0.00045918
0.000536194
0.000460804
0.00316994
0.000455512
0.00107463
0.00046356
0.000462498
0.00840614
0.000466272
0.000464716
0.00046221
0.0145214
0.0108647
0.0128912
0.000457196
0.00926542
0.000463392
0.000461847
0.000459881
0.000451224
0.000467899
0.0131151
0.012519
0.000454862
0.000465883
0.000474401
0.00045817
0.00855665
0.000765846
0.00667158
0.0154907
0.000457163
0.000644943
0.000463512
0.00047504
0.000876405
0.000453315
0.000467133
0.00529118
0.00653432
0.000510239
0.00191599
0.000501546
0.000464101
0.000476733
0.00053778
0.00632392
0.000464495
0.00534071
0.000563322
0.000467573
0.00832832
0.00901338
0.00638978
0.00364209
0.0101307
0.00045985
0.00117677
0.000459441
0.00283883
0.000461353
0.000459402
0.0131912
0.000458106
0.000462395
0.000458157
0.000457871
0.0151713
0.00105192
0.000458923
0.000478252
0.00494721
0.000457761
0.00230923
0.000459991
0.000530334
0.015159
0.000464652
0.00152957
0.000465446
0.000466979
0.00975364
0.000458011
0.00138069
0.000503118
0.0148234
0.000453382
0.00581718
0.000463212
0.00926038
0.00584721
0.00377033
0.000477442
0.000460539
0.00045728
0.000468287
0.00046954
0.000465003
0.0140261
0.000465798
0.000466677
0.000469391
0.000459697
0.000457185
0.000456769
0.000462842
0.000455354
0.000462999
0.0142649
0.00218909
0.000462258
0.000508632
0.0128474
0.000459436
0.0143984
0.000454903
0.000473499
0.000459781
0.000457065
0.000499118
0.0004632
0.000458789
0.000536615
0.000460993
0.00137702
0.000455925
0.00181666
0.00256397
0.00085893
0.00108767
0.000454855
0.015232
0.00072219
0.000467982
0.000462451
0.00045966
0.0146461
0.000460125
0.000529201
0.00405123
0.0052957
0.000593126
0.000455802
0.0137931
0.00319384
0.010694
0.00046566
0.000457732
0.000452816
0.000512189
0.000460721
0.0043997
0.000773062
0.000466882
0.000969414
0.00140181
0.000454098
0.0138789
0.00828816
0.000814703
0.000456069
0.0137436
0.000513303
0.000462689
0.00370052
0.000463351
0.000454764
0.000459989
0.000462481
0.000469879
0.0136661
0.0135313
0.000471942
0.0139048
0.000464419
0.000461191
0.000775015
0.000461117
0.00527415
0.000453181
0.000463129
0.000459487
0.000456163
0.0142375
0.00389555
0.00113285
0.00587515
0.0124669
0.000469443
0.000459877
0.000456113
0.00152656
0.00045288
0.000454744
0.000485488
0.00454199
0.00182886
0.000452836
0.000480887
0.000467041
0.000664535
0.0017757
0.000452263
0.000452363
0.000454478
0.00444294
0.000458685
0.0146135
0.000458927
0.000465989
0.00045453
0.000459321
0.000459601
0.000805836
0.0134497
0.0137618
0.000469574
0.000463049
0.00674065
0.000453886
0.00496719
0.00828357
0.000472802
0.00919973
0.013304
0.0129103
0.00048781
0.000463944
0.0107694
0.000462962
0.000478301
0.000633668
0.00136823
0.000456771
0.0102009
0.000461003
0.011972
0.00461124
0.000454936
0.00046067
0.000502221
0.00154794
0.000465732
0.000465816
0.000458886
0.000460161
0.000456776
0.00959024
0.000466147
0.0127282
0.00418238
0.000460971
0.000463059
0.000469751
0.000463866
0.0129494
0.000750638
0.0153321
0.00925195
0.00046314
0.000459695
0.000461032
0.000459692
0.00114339
0.00046611
0.00046825
0.00049972
0.000463302
0.00925896
0.000472337
0.00341456
0.000460302
0.000458192
0.000565268
0.000560239
0.000521844
0.000460281
0.000482643
0.0104724
0.00466257
0.0123377
0.0124251
0.0137154
0.00860221
0.000460494
0.000461804
0.000454177
0.00126503
0.000475513
0.000522324
0.00573294
0.000453364
0.000454718
0.000462272
0.00113714
0.00045397
0.000458262
0.000459381
0.010711
0.000459347
0.000458644
0.000464107
0.000459003
0.000466089
0.000482668
0.00113035
0.000478456
0.0112291
0.000462836
0.00045911
0.0144518
0.0144878
0.0032612
0.0090574
0.000542446
0.0101211
0.000457772
0.000564321
0.000458222
0.000463621
0.000454685
0.01026
0.000455112
0.000563036
0.00584632
0.000453933
0.000457103
0.00046416
0.000826777
0.00046884
0.0107327
0.000454216
0.00104004
0.000464956
0.000455171
0.000459538
0.000814349
0.000460125
0.00257477
0.0136787
0.000919583
0.0145737
0.000461167
0.00786804
0.00209489
0.000462728
0.00474235
0.00045963
0.000518212
0.000459881
0.000452217
0.000461275
0.000462125
0.000457534
0.000465543
0.000508086
0.000456164
0.000464219
0.000629031
0.000453441
0.0102818
0.000465194
0.000464893
0.000463939
0.00702344
0.00318019
0.000465487
0.000829142
0.000457844
0.00046026
0.000569189
0.00838103
0.000479772
0.000468777
0.000604343
0.000713221
0.000538792
0.00218429
0.0004846
0.00070511
0.000492578
0.000509127
0.000459433
0.000455435
0.0079938
0.00641747
0.000458807
0.0004625
0.00205061
0.000457854
0.000475286
0.000460642
0.00059109
0.00524654
0.000451321
0.00694376
0.000458629
0.000466265
0.000744075
0.000459327
0.000510963
0.00998016
0.000474181
0.00856995
0.000461089
0.000468685
0.000525862
0.000467782
0.000468412
0.000458688
0.000462475
0.000509293
0.000598399
0.000459366
0.000481116
0.000455465
0.00046355
0.000467511
0.000462756
0.00522552
0.000453709
0.000460043
0.00141283
0.000457985
0.000462221
0.0143569
0.000468311
0.00142357
0.000455171
0.0142326
0.000948972
0.00056165
0.00596329
0.000524624
0.0102978
0.000455443
0.000842669
0.00046165
0.000455343
0.000458115
0.000460122
0.000463398
0.000459195
0.000512391
0.000459928
0.000457946
0.00184436
0.00515664
0.009087
0.000454747
0.000544298
0.00836867
0.0102429
0.000466657
0.000457905
0.0101571
0.00045468
0.000478287
0.0054638
0.0137922
0.000458099
0.000474082
0.00045786
0.00155036
0.000469191
0.00048453
0.00439967
0.000459075
0.000455959
0.00986302
0.000482413
0.0012116
0.0145353
0.000575889
0.00045958
0.00045983
0.000455002
0.0109553
0.00308755
0.00958508
0.000507718
0.000461674
0.0104642
0.000464965
0.000764604
0.000464804
0.00045424
0.000475857
0.000463411
0.0133851
0.0122377
0.000451375
0.00051154
0.00047623
0.00533726
0.000482367
0.000491595
0.00117834
0.000464148
0.00214348
0.000495167
0.000464529
0.000465829
0.000749864
0.0116072
0.000462931
0.00470174
0.000486375
0.000496377
0.00046881
0.0129032
0.000457718
0.000459438
0.000456802
0.00047938
0.000476818
0.000567766
0.000465022
0.000458014
0.00052071
0.000465203
0.000517861
0.000466088
0.000459826
0.000465739
0.000911566
0.00046644
0.000598183
0.00568753
0.000504777
0.0140129
0.00046937
0.00475681
0.00135657
0.00046034
0.00415459
0.000467884
0.000460075
0.00046334
0.000466632
0.000586482
0.000477124
0.000495707
0.000497025
0.000464965
0.000459713
0.000454058
0.000735988
0.000457092
0.000467458
0.00297475
0.000460942
0.000468329
0.000459981
0.00529138
0.000581019
0.000459597
0.000456935
0.00046096
0.0049349
0.000758655
0.000463259
0.0137111
0.0020162
0.00451144
0.000564563
0.0017182
0.000459127
0.00219605
0.000454666
0.000464824
0.00570732
0.0129309
0.00137991
0.00553984
0.000465
0.0036338
0.000459082
0.000534184
0.000461473
0.0096948
0.0134403
0.000455739
0.000462774
0.0013062
0.000525469
0.000462481
0.0128206
0.000463381
0.000459528
0.000457232
0.000459934
0.000465163
0.000460979
0.000461443
0.000473489
0.00199382
0.000471979
0.000517863
0.000462198
0.00618692
0.0131082
0.000462219
0.00142458
0.000461353
0.000469462
0.0106634
0.000461936
0.000459452
0.000466182
0.0116658
0.000462919
0.000466564
0.000474505
0.0105161
0.000461541
0.000473929
0.000475386
0.0028661
0.000486407
0.000474447
0.000950858
0.00046355
0.00102295
0.000455409
0.00468871
0.000464902
0.000462467
0.000457293
0.000589811
0.000465729
0.000454384
0.000678448
0.0134283
0.000453619
0.00523399
0.000466422
0.000455221
0.000509739
0.000462962
0.000453537
0.0119291
0.000468857
0.000473178
0.000735711
0.0147994
0.00241418
0.00045271
0.000460445
0.000467081
0.000463857
0.000460423
0.000464056
0.00782854
0.000467001
0.00225412
0.000616097
0.00045601
0.00045356
0.000463985
0.000617259
0.00141902
0.00055911
0.000517321
0.000459192
0.0132268
0.00058417
0.000460074
0.000471559
0.000561469
0.000571078
0.00525521
0.000467718
0.00771659
0.00719267
0.00935116
0.000456587
0.000457451
0.000474444
0.000485105
0.000454495
0.000453787
0.000896052
0.000468237
0.000456781
0.000463243
0.000452574
0.000454999
0.000454982
0.00784409
0.000462934
0.00521256
0.000463988
0.00067479
0.000456693
0.000621881
0.000617641
0.000460513
0.0128183
0.000460443
0.000467652
0.000471181
0.000455512
0.000471159
0.000454985
0.0135213
0.000459101
0.000476389
0.000927397
0.0124463
0.000465381
0.00231682
0.00259942
0.00050929
0.00045507
0.000455714
0.000788198
0.000511564
0.00672416
0.000455565
0.0113907
0.000458183
0.000795845
0.0111599
0.000473385
0.00944349
0.000460517
0.000464758
0.000460673
0.0127126
0.000466639
0.000465597
0.000506474
0.000679966
0.000457593
0.000462138
0.00046567
0.0155052
0.000468048
0.000464303
0.0145504
0.000462641
0.000460261
0.000522231
0.000459773
0.0104032
0.000454778
0.000461226
0.000458975
0.00046356
0.000455379
0.000455179
0.000501549
0.0142439
0.00046044
0.000464184
0.00879948
0.000453065
0.00729827
0.00045358
0.0135455
0.000456881
0.000460376
0.000457753
0.00769968
0.0145173
0.000468843
0.000638787
0.000464956
0.000458852
0.000465
0.0135277
0.000465697
0.000533322
0.000454207
0.000472021
0.000466953
0.0107552
0.000458361
0.000475072
0.000457311
0.00403318
0.00492784
0.000455565
0.000498811
0.0125671
0.000507911
0.0100892
0.00897623
0.00112242
0.000460359
0.000467084
0.000569002
0.00426752
0.000452337
0.000467529
0.000467
0.000458106
0.00669412
0.011331
0.000510746
0.000707045
0.00129321
0.000470814
0.0142231
0.000454498
0.000455713
0.000594335
0.0111723
0.00088583
0.000758484
0.00309495
0.000457636
0.0126751
0.00867145
0.0102644
0.000467
0.00968212
0.0132606
0.00540651
0.0109667
0.0113045
0.000539345
0.000464572
0.000772463
0.000463097
0.000458683
0.00373731
0.000555528
0.000453695
0.00760828
0.000466974
0.000467083
0.000474199
0.000464054
0.00306261
0.000484066
0.00650531
0.000474129
0.000463811
0.00614568
0.0153299
0.000667349
0.0004597
0.000462846
0.000524074
0.000555776
0.000458276
0.000486526
0.000597641
0.000709893
0.000459549
0.00081319
0.000459785
0.000506683
0.0117528
0.00254711
0.000460678
0.000767742
0.0114877
0.000459239
0.000458091
0.0115208
0.00136233
0.000458258
0.000457551
0.000464115
0.000578985
0.000456479
0.0133956
0.00058738
0.00045955
0.000467653
0.000662944
0.000466566
0.00203449
0.00683629
0.000458195
0.000463016
0.000462964
0.000466826
0.000457452
0.000458039
0.000456109
0.000463195
0.000459409
0.00046083
0.000460208
0.000477783
0.00368139
0.000468696
0.0121727
0.00498211
0.000455504
0.00179901
0.000745203
0.00059449
0.000459297
0.000554519
0.000459355
0.000724115
0.000461793
0.000457244
0.000467322
0.00717289
0.00045737
0.00887821
0.000459292
0.000462085
0.000462711
0.000572418
0.000460198
0.000484451
0.000495889
0.00851187
0.000459923
0.00165633
0.00467177
0.0110175
0.000457585
0.000713093
0.00932357
0.00456568
0.00351542
0.000460254
0.000457835
0.000804447
0.00299706
0.0072214
0.000472844
0.0015537
0.000467797
0.000455037
0.000488922
0.000466708
0.000461105
0.000769269
0.00046863
0.000809217
0.000456639
0.0151962
0.0128453
0.00883571
0.0115068
0.0100983
0.000460336
0.000465404
0.0112841
0.000455576
0.000455593
0.000455038
0.000727257
0.0147142
0.00752826
0.000465188
0.000453056
0.000458018
0.000483522
0.00541179
0.000462993
0.00909328
0.0152203
0.000466857
0.00046637
0.00814321
0.000525789
0.000453988
0.000462876
0.0126149
0.0109443
0.000454783
0.000837933
0.000468362
0.0115617
0.00900245
0.000453305
0.00918516
0.00679716
0.00975759
0.000456774
0.000452378
0.000468068
0.000469383
0.0145409
0.000458873
0.00120187
0.00177954
0.00555423
0.00045591
0.000515288
0.00193912
0.00048714
0.0110283
0.0148526
0.00045418
0.000457535
0.000457904
0.000691589
0.0139777
0.000452561
0.00453564
0.000471751
0.000473741
0.000459282
0.000461193
0.00116345
0.000476976
0.00894407
0.000466322
0.00050582
0.000455973
0.000624482
0.000456198
0.0140928
0.00531988
0.00135559
0.00056157
0.000459364
0.000459204
0.000543342
0.00157808
0.0141672
0.0123145
0.000465666
0.00949585
0.000808421
0.0154899
0.000456741
0.000481937
0.000474462
0.000455777
0.0109101
0.000463563
0.000464744
0.00844062
0.0150935
0.00447476
0.0147885
0.000465057
0.000482859
0.000454521
0.0152485
0.000463926
0.00493352
0.000454155
0.0114033
0.000451533
0.000461883
0.000464314
0.000474498
0.000474734
0.000458651
0.00936604
0.000473854
0.00045868
0.000475548
0.00774926
0.00468249
0.00046146
0.0150341
0.000459169
0.000464586
0.000462233
0.000455432
0.000515414
0.000461857
0.00552101
0.000641444
0.000456985
0.00046255
0.00153092
0.000473658
0.000454116
0.00997462
0.00318065
0.000957855
0.000451184
0.00276742
0.000465702
0.000760739
0.000458442
0.000743886
0.00365605
0.00872113
0.000485689
0.0147362
0.000502446
0.000465569
0.000457502
0.0118102
0.000738959
0.000597211
0.000620584
0.000468356
0.0101975
0.000573132
0.00151387
0.00134096
0.0133261
0.00952218
0.00516694
0.0108907
0.000466472
0.000474978
0.000464201
0.000455595
0.000452929
0.000763876
0.000466212
0.000477514
0.0154096
0.000459977
0.000458884
0.000471476
0.000680341
0.000460233
0.000456655
0.0150598
0.000457724
0.000476779
0.000458648
0.00855593
0.000467464
0.0129915
0.000563703
0.000466744
0.00050493
0.000464265
0.00488627
0.00169251
0.000525258
0.000458508
0.000460288
0.00334815
0.0139847
0.0128181
0.000454745
0.00052922
0.00219249
0.000454995
0.000462288
0.000457417
0.0147002
0.000854528
0.000472467
0.000456837
0.000457232
0.0121584
0.000605507
0.000994187
0.000456797
0.00046466
0.000452362
0.000755238
0.000506724
0.000461353
0.0134143
0.0150055
0.0142616
0.0132937
0.0131777
0.0113359
0.0117833
0.000460382
0.000453359
0.0107305
0.00968924
0.00476588
0.000458739
0.000472915
0.000461776
0.00046023
0.00859015
0.0151385
0.000502766
0.00046188
0.00166386
0.000560084
0.000485364
0.00829911
0.00375409
0.00147141
0.000460378
0.0140313
0.00708938
0.00152103
0.000462395
0.000475876
0.000460249
0.000459153
0.000473739
0.000482293
0.000459606
0.000471112
0.000459855
0.000461144
0.00122454
0.00800789
0.00047289
0.000472934
0.0108346
0.000990746
0.000464591
0.00374361
0.00798819
0.005623
0.000476905
0.000455692
0.000461966
0.000461686
0.000469589
0.000455429
0.00048202
0.000461926
0.000476376
0.00114329
0.000467722
0.000457262
0.00922047
0.0136813
0.0153212
0.00175929
0.000599973
0.000451498
0.000462149
0.000463543
0.000454663
0.0132251
0.000461673
0.000468878
0.000455487
0.0134319
0.00577864
0.000459735
0.000500034
0.000463688
0.000480313
0.000463553
0.000487972
0.000472017
0.000473542
0.00958198
0.00045797
0.00982044
0.000476536
0.015388
0.00046335
0.000460707
0.000457417
0.000561514
0.00068149
0.000458154
0.000491702
0.000463417
0.000507998
0.0112402
0.00882967
0.00962008
0.000468911
0.00278536
0.000467667
0.000475173
0.00046207
0.000525377
0.00045915
0.0075405
0.00933437
0.000480822
0.000463672
0.0136321
0.00046578
0.00736425
0.00878105
0.00128454
0.000459561
0.000649127
0.0109481
0.00263465
0.0123438
0.000507666
0.000456451
0.000477816
0.00045424
0.00979837
0.000460342
0.000466886
0.00189004
0.0154551
0.000456364
0.000459173
0.0135493
0.000478309
0.0117877
0.00048187
0.000462888
0.000478238
0.000884584
0.000520988
0.00880559
0.000473615
0.00244289
0.000459183
0.000468499
0.000458792
0.0011793
0.000459721
0.00077833
0.000461278
0.000456742
0.00110043
0.000457175
0.000456008
0.00046297
0.000472105
0.00229833
0.000472995
0.000473758
0.00046383
0.000506934
0.000459247
0.000805484
0.000464009
0.000476591
0.00067871
0.000457375
0.000641833
0.000526928
0.000454296
0.000507483
0.0120249
0.00973775
0.000455169
0.00615125
0.00739638
0.000459711
0.000459858
0.0063241
0.00909
0.000467092
0.00765125
0.00141439
0.000453071
0.000538449
0.000452831
0.000458458
0.000505796
0.0056655
0.00529779
0.00154232
0.00179199
0.0132671
0.0126223
0.000454132
0.010965
0.000462352
0.00742342
0.0119628
0.00046432
0.000464205
0.00906263
0.000460512
0.000463516
0.00150322
0.0140796
0.000882811
0.00045717
0.0106403
0.00046441
0.0136319
0.00914629
0.000466703
0.00242708
0.00471061
0.0114343
0.00932132
0.00964901
0.00830895
0.000459179
0.000460054
0.000504532
0.000504408
0.00046395
0.000986363
0.000462281
0.010128
0.00144389
0.000543244
0.00128387
0.0105588
0.00140763
0.00112044
0.000621099
0.00658863
0.00198143
0.000456675
0.000453609
0.00797799
0.000478146
0.000455677
0.0133224
0.000460403
0.00834414
0.0004604
0.0148889
0.000456487
0.000460683
0.00522127
0.000466188
0.000485506
0.00766549
0.00972958
0.00642785
0.00045815
0.000474721
0.000459749
0.000469285
0.000633825
0.000470594
0.00046715
0.0093576
0.000501667
0.000470802
0.00744349
0.00047376
0.000484684
0.000947926
0.00052596
0.000475117
0.000460733
0.000849804
0.000457358
0.00062965
0.00299381
0.00936485
0.00045914
0.000474461
0.0105768
0.000455254
0.000517387
0.000461182
0.000476772
0.0118435
0.000499889
0.000460241
0.00612666
0.000459399
0.0135814
0.00046493
0.000455859
0.000625049
0.01306
0.000469254
0.00289487
0.00540727
0.000461714
0.000455835
0.0012
0.000482141
0.0154749
0.000464356
0.00646052
0.000675366
0.000461489
0.000462636
0.000692773
0.000474176
0.000696828
0.000499063
0.000488281
0.000458281
0.000453143
0.0054909
0.000460417
0.000462568
0.000453007
0.000591282
0.000462644
0.000497296
0.0100726
0.000459984
0.000900616
0.000451849
0.000460257
0.000466654
0.000467097
0.000456987
0.000460489
0.000540721
0.00438538
0.000495626
0.000478157
0.00045607
0.000456767
0.00216247
0.000459333
0.00995452
0.00872527
0.0110596
0.000695686
0.000472109
0.00045781
0.000465493
0.000469862
0.00084068
0.000481991
0.0118591
0.000494176
0.0147909
0.000705457
0.000467115
0.000458549
0.00947545
0.000459179
0.000461716
0.000657394
0.00130184
0.000454809
0.0145518
0.000466151
0.000460539
0.00046182
0.000459149
0.00127776
0.00058641
0.00045689
0.000462713
0.000486075
0.000478342
0.00049197
0.00453092
0.00380035
0.00117519
0.000668593
0.000455852
0.000457318
0.000490618
0.0130832
0.0112975
0.0137609
0.000462841
0.00481492
0.000583412
0.000455556
0.000461509
0.000497614
0.000465752
0.000462158
0.00929572
0.000460055
0.00045522
0.00228221
0.00892951
0.000477168
0.00462815
0.000460369
0.00469526
0.000480964
0.015388
0.000470371
0.000458655
0.0136907
0.00061753
0.000460813
0.000595947
0.000468311
0.000826605
0.00046327
0.000588832
0.0129314
0.00048098
0.0103798
0.000460091
0.0141373
0.000460141
0.000459767
0.00045754
0.000486409
0.000465851
0.000562632
0.0136112
0.00789211
0.000485642
0.000469526
0.000706633
0.000456773
0.000457828
0.00045511
0.00437546
0.000456862
0.0150482
0.00719569
0.000754487
0.000467003
0.000747946
0.000989377
0.000688416
0.000455906
0.00914149
0.000459561
0.000451696
0.000459611
0.00451021
0.000455814
0.00046052
0.013726
0.000460394
0.000760128
0.000814001
0.000453016
0.0142114
0.000457558
0.0149033
0.000456378
0.00360605
0.000457266
0.000690172
0.00832362
0.000507393
0.000459949
0.000457547
0.0102572
0.00046208
0.000752227
0.000463509
0.000460983
0.000780875
0.000466459
0.000452886
0.000504123
0.000463728
0.00045821
0.000700193
0.000460206
0.000457519
0.000466732
0.000460565
0.00045999
0.000462147
0.011072
0.00472106
0.000857765
0.00477803
0.000497016
0.000463771
0.0155078
0.0144013
0.000459488
0.0050749
0.0058854
0.00848176
0.00427979
0.000465172
0.00976962
0.0138775
0.00729918
0.00423592
0.0120437
0.000511916
0.000719413
0.000468692
0.00045672
0.000462709
0.00664428
0.000469209
0.00896672
0.00094782
0.00266356
0.000453455
0.000518899
0.000524882
0.000460835
0.000469188
0.000464973
0.000968688
0.000455131
0.000453819
0.000470404
0.0151458
0.000457114
0.000788991
0.000458196
0.00101258
0.000730359
0.000459981
0.000463015
0.000460473
0.0148719
0.014331
0.000731257
0.00641257
0.000472943
0.000549248
0.000465157
0.00047179
0.000462468
0.000456862
0.000467815
0.0128249
0.000456029
0.000475181
0.00570633
0.000463993
0.000462651
0.000461185
0.0154869
0.000827229
0.00813972
0.00679138
0.000766842
0.00117263
0.00690094
0.00128391
0.00279751