/*--------------------------------*- C++ -*----------------------------------*\
| =========                 |                                                 |
| \\      /  F ield         | OpenFOAM: The Open Source CFD Toolbox           |
|  \\    /   O peration     | Version:  v2012                                 |
|   \\  /    A nd           | Website:  www.openfoam.com                      |
|    \\/     M anipulation  |                                                 |
\*---------------------------------------------------------------------------*/
FoamFile
{
    version     2.0;
    format      ascii;
    class       volVectorField;
    location    "150";
    object      U;
}
// * * * * * * * * * * * * * * * * * * * * * * * * * * * * * * * * * * * * * //

dimensions      [0 1 -1 0 0 0 0];


internalField   nonuniform List<vector> 
13851
(
(1.09695 0.0127549 -5.87906e-21)
(1.05616 -0.0216355 0)
(1.05507 -0.0209006 0)
(-0.0706135 0.0101826 0)
(1.00175 -0.000412665 2.71155e-22)
(1.06302 -0.0314096 -1.50951e-20)
(1.05007 0.00474764 -2.43113e-20)
(1.0119 -0.000757871 0)
(0.573159 0.0173493 -3.14676e-20)
(0.992594 -0.00673467 1.08536e-20)
(1.12263 -0.0635241 0)
(1.00104 -0.00705164 1.99897e-21)
(0.983915 -0.0167327 3.79429e-21)
(0.431846 0.00485167 2.2559e-20)
(1.07792 -0.0023585 1.56607e-20)
(1.0863 0.0239798 0)
(-0.0353955 0.00926464 0)
(1.02894 -0.0171353 1.0662e-22)
(1.12326 0.014419 0)
(1.09732 0.0121715 1.61173e-20)
(1.08412 -0.00618613 1.63326e-20)
(1.03385 -0.0730849 5.56227e-21)
(0.906395 -0.307394 9.8358e-20)
(1.00006 -0.000185594 0)
(1.16534 0.0103521 1.85986e-20)
(1.07868 0.0195392 -2.76066e-20)
(1.09597 0.0204984 -2.25705e-20)
(1.0979 0.0246858 2.35802e-20)
(0.6405 0.0176124 6.34086e-21)
(1.01726 -0.0108253 0)
(0.246097 0.0313711 -1.11761e-19)
(1.05008 0.004245 7.79644e-21)
(1.09448 0.0134992 -2.62232e-21)
(0.654664 0.028559 5.63433e-22)
(1.09924 -0.0586636 -7.80064e-21)
(0.658313 0.0183767 0)
(1.00004 -0.000166273 0)
(1.22878 -0.0513645 -9.15414e-21)
(0.428829 0.0430899 8.19229e-20)
(1.00561 -0.0320462 6.3701e-21)
(0.560987 0.0304971 2.70603e-20)
(0.665192 0.0188179 -6.29513e-21)
(-0.148113 -0.00176154 0)
(1.18507 -0.410894 0)
(0.679301 0.0204842 0)
(1.01207 -0.0191721 -4.85639e-22)
(1.01795 -0.000263151 -3.31576e-21)
(1.08716 0.0205544 -7.84522e-23)
(1.03721 -0.0460134 -8.73416e-21)
(0.983611 -0.0159314 0)
(0.192678 0.00955638 -6.85904e-20)
(0.977769 -0.0111532 7.52466e-21)
(1.08616 0.0236336 0)
(1.06404 0.00915129 1.09284e-20)
(0.456787 0.00566179 -3.61087e-20)
(1.00476 -0.0322801 -5.8615e-21)
(1.09508 0.0136884 0)
(0.537419 0.0286112 -3.53559e-20)
(1.08942 0.0221434 0)
(0.365906 0.00585194 1.03616e-20)
(1.00095 -0.00664493 -5.64138e-21)
(1.09565 0.0202105 3.75277e-20)
(0.996222 -0.00241577 0)
(1.03765 -0.0477273 -6.08905e-21)
(0.93585 -0.422177 -6.47721e-24)
(0.920409 -0.446399 7.79085e-24)
(0.344037 0.00328581 6.78826e-21)
(0.723334 -0.12062 7.96664e-20)
(1.01686 -0.0329714 -1.93731e-22)
(0.0430701 0.0184038 1.25346e-19)
(0.146838 0.0354906 -1.16563e-19)
(1.08952 -0.00452538 2.32142e-22)
(0.994914 -0.0223699 -4.24356e-21)
(0.36051 0.00477316 0)
(1.068 0.00619812 1.23523e-20)
(1.01833 -0.0605611 0)
(-0.0110203 0.0123343 -5.83372e-20)
(1.01833 -0.00593974 -2.06898e-21)
(1.17283 0.00864354 1.66327e-20)
(1.00408 -0.0151173 7.96777e-21)
(1.01785 -0.0334476 0)
(1.18517 -0.0294773 -6.83153e-20)
(1.09727 -0.0602067 0)
(0.427236 0.00566446 -3.63467e-20)
(0.376415 0.00684977 -5.21702e-21)
(0.211031 0.0339191 0)
(1.03651 -0.0737593 -6.1451e-21)
(0.503838 0.00442659 1.27197e-22)
(0.993167 -0.0102187 3.9045e-22)
(0.251717 0.0326292 0)
(0.976697 -0.0104892 3.88833e-21)
(1.05096 0.00388127 3.12064e-20)
(0.0774744 0.005249 9.34974e-20)
(0.147204 0.0320512 1.2512e-19)
(0.37955 0.0327175 5.89323e-20)
(1.14821 -0.373568 -8.9003e-20)
(1.00805 -0.0203972 4.5464e-21)
(1.08694 0.0221261 0)
(0.264514 0.00826981 3.63911e-21)
(1.18646 -0.114166 6.15079e-20)
(1.08741 0.0218579 0)
(0.835363 -0.109313 -3.29644e-20)
(0.837455 -0.140398 -1.75165e-20)
(0.991513 -0.0238935 0)
(1.01501 -0.0190046 0)
(1.09249 -0.0121682 1.18201e-20)
(1.01442 -0.0187845 1.26927e-22)
(0.176523 0.0355398 1.2418e-19)
(1.05091 0.00329981 -1.71582e-20)
(1.02821 -0.0166695 2.04211e-21)
(1.02783 -0.105277 1.47055e-21)
(1.0127 -0.0195135 0)
(1.13569 -0.0072495 0)
(1.11314 -0.0304688 0)
(1.09145 0.0155713 1.18565e-20)
(1.06335 0.00842913 -2.69022e-20)
(1.01216 -0.00720024 8.48791e-22)
(1.01228 -0.000886095 1.48508e-21)
(-0.117036 0.0093043 -1.81689e-20)
(0.123257 0.0131582 4.16219e-20)
(1.15067 -0.286937 7.31005e-20)
(1.0237 -0.0141628 -4.88751e-22)
(1.01294 -0.0335063 -8.1847e-22)
(0.458527 0.0152481 4.68997e-21)
(1.11178 0.0146993 -6.69416e-23)
(0.648927 -0.204612 0)
(1.00847 -0.0201629 -5.75658e-21)
(1.111 -0.105396 0)
(0.561117 0.0257009 2.97391e-20)
(1.08437 -0.000305424 -2.75455e-21)
(1.03137 -0.0748617 -6.04749e-22)
(1.0758 -0.0492654 0)
(1.24355 -0.0573372 7.51726e-20)
(0.642609 0.0274862 2.34784e-20)
(1.12487 -0.0608262 0)
(0.367896 0.0363202 2.50257e-20)
(0.735872 -0.112521 5.89892e-20)
(0.187828 0.033566 1.66117e-20)
(0.868904 -0.0813903 2.22069e-20)
(1.08238 0.0016306 1.91136e-20)
(1.18399 -0.0323547 6.18127e-20)
(0.979458 -0.0378152 0)
(0.992581 -0.0103252 0)
(0.785207 -0.300871 -1.81158e-20)
(1.14062 0.0198208 2.30166e-21)
(1.00734 -0.0598367 0)
(1.01817 -0.00557408 4.98095e-22)
(0.160014 0.0317689 -6.32836e-20)
(0.552502 0.012993 -1.37527e-20)
(1.11544 -0.10602 0)
(1.08752 0.0215204 0)
(1.1359 -0.00892865 -4.66966e-21)
(1.11529 -0.0293669 -2.48249e-20)
(1.11803 0.0120321 -3.97872e-20)
(0.976972 -0.0195145 0)
(0.986307 -0.00773942 0)
(1.00106 -0.00556165 -5.17862e-21)
(0.385867 0.039988 -8.12779e-20)
(1.08106 2.4795e-05 0)
(1.05084 -0.0031964 -1.07674e-20)
(1.00012 -0.000425652 5.59203e-21)
(0.647393 0.0175244 0)
(1.09097 -0.0117613 0)
(1.08725 0.0202426 -3.14061e-20)
(0.434832 0.00507791 -2.12734e-20)
(0.63038 0.0213885 6.33699e-21)
(0.638837 0.0217005 0)
(0.204014 0.0117895 9.39981e-20)
(1.02788 -0.1012 -7.56667e-21)
(0.90811 0.0373058 0)
(1.00071 -0.00610679 -3.74723e-21)
(1.01211 -0.00685719 6.26388e-22)
(1.10055 -0.0132601 0)
(1.0009 -0.000370786 0)
(0.41035 0.0369336 -5.40865e-20)
(1.09956 0.0194053 -3.41105e-20)
(1.08906 0.0197597 -6.70413e-21)
(1.01261 -0.00684529 0)
(1.06717 0.0074197 0)
(1.08865 0.0198371 0)
(1.11051 0.0142174 -1.07668e-20)
(1.1801 -0.389622 3.83418e-20)
(1.03155 -0.0949485 -3.02263e-21)
(1.08332 -2.71424e-05 0)
(-0.088628 0.000628607 -4.17795e-20)
(0.558038 0.0127018 1.26371e-22)
(1.0942 0.0140816 -1.21579e-20)
(0.905416 -0.0596104 -1.48637e-20)
(0.980766 -0.0201285 7.78409e-21)
(1.01573 -0.0143804 -4.24755e-22)
(1.15409 0.0170554 3.43513e-20)
(1.08133 -0.000609522 0)
(0.412112 0.00174415 -1.14881e-20)
(1.06397 -0.0299829 1.55777e-20)
(1.00869 -0.0580368 2.76954e-21)
(1.08657 0.0228608 0)
(1.09358 0.0138966 0)
(1.03751 -0.0112544 -3.68465e-21)
(1.0333 -0.0237436 -5.58197e-21)
(0.740606 -0.154398 0)
(1.18836 -0.0389734 3.23854e-20)
(0.440622 0.0327111 -2.01987e-20)
(0.528705 0.0314125 0)
(1.0771 -0.00175725 -2.95649e-20)
(1.03759 -0.692178 -8.44459e-20)
(0.410333 0.030669 0)
(0.946917 -0.0184909 0)
(1.07937 0.00588673 -2.21991e-20)
(0.572435 0.0183393 -1.43618e-20)
(1.05928 -0.0368143 0)
(1.08598 0.0248234 -3.83247e-22)
(1.01239 -0.0328405 -1.21828e-21)
(1.18966 -0.0355236 -9.46616e-21)
(1.0001 -0.00180446 -3.18517e-22)
(1.10061 -0.0533905 -1.80409e-21)
(1.02168 -0.0665188 1.83385e-21)
(0.984678 -0.0149889 -5.9538e-21)
(1.10083 0.0160462 0)
(1.03658 -0.0175845 -6.34808e-21)
(0.161632 -0.586457 -8.65821e-20)
(1.01265 -0.00649219 -5.81367e-22)
(1.09864 0.01165 0)
(0.409875 0.00287911 3.68809e-20)
(0.385977 0.0361343 3.26311e-20)
(0.916522 -0.0676414 0)
(1.07947 0.00639192 1.75873e-20)
(1.00002 -0.000922148 0)
(0.786353 -0.27904 1.82884e-20)
(1.00133 -0.0112527 0)
(1.09853 -0.0547819 0)
(0.309006 -0.0300005 -4.34137e-20)
(0.910548 -0.0600835 -2.47079e-20)
(1.05909 -0.0353203 0)
(0.996876 -0.000709196 8.98892e-22)
(0.517603 0.0302871 3.06021e-22)
(1.01783 -0.0106865 2.02866e-21)
(1.08897 -0.384383 0)
(0.514312 0.0304652 -3.27614e-20)
(1.17916 -0.11297 0)
(1.00009 -0.000407642 -6.48779e-21)
(1.28984 -0.200017 0)
(0.383193 0.00744481 -3.99244e-20)
(0.697791 0.021542 0)
(1.0858 0.0244929 0)
(1.07839 -0.015866 0)
(0.751626 -0.336202 -4.30471e-20)
(1.10054 0.0153361 1.89056e-20)
(1.06716 0.00826188 0)
(1.14446 -0.353411 0)
(1.04353 -0.104621 7.87281e-21)
(0.470583 0.00432378 0)
(1.10801 0.00701803 -5.28474e-20)
(1.00892 -0.000788193 -2.43704e-24)
(1.06329 -0.015933 0)
(1.08703 0.0225375 -1.62998e-21)
(0.638751 0.0170747 0)
(0.542203 0.00741566 9.66681e-21)
(1.01535 -0.0137779 5.64481e-22)
(0.624503 -0.201194 0)
(0.993901 -0.0109209 2.04612e-20)
(1.09539 0.0164745 -4.59062e-20)
(1.11364 0.0134921 -2.07245e-21)
(1.06453 -0.0155829 0)
(1.09103 -0.010062 -5.34531e-20)
(1.1093 0.00724841 5.42571e-20)
(0.999674 -0.0208054 -1.39297e-20)
(0.831354 -0.118839 3.84667e-20)
(1.08643 0.0190931 0)
(1.10541 0.0224551 -9.68862e-21)
(0.998135 -0.0070856 0)
(0.984582 -0.0141642 -7.54502e-22)
(0.911529 -0.0664669 1.65067e-20)
(0.640667 0.0237596 0)
(-0.20261 0.00893342 0)
(1.08613 -0.0037948 2.45776e-20)
(1.0245 -0.0145891 2.60082e-21)
(1.10974 0.0150601 2.47378e-21)
(1.11573 0.0128116 5.83319e-20)
(1.09155 0.0140436 -3.13392e-20)
(1.08994 -0.00967608 4.42974e-20)
(0.621255 0.0223926 0)
(0.294725 0.00693723 -1.36096e-20)
(1.06652 -0.0209856 0)
(1.07474 -0.00321685 -4.80929e-20)
(1.22779 -0.0761248 0)
(1.01669 -0.01837 5.99914e-22)
(1.00116 -0.00527248 -2.65951e-21)
(1.09221 0.0140794 -6.84856e-21)
(1.11592 -0.0766043 3.76401e-20)
(1.01895 -0.0108903 5.02971e-21)
(1.00011 -0.00177523 -4.92058e-21)
(1.00114 -0.011585 0)
(1.00367 -0.000598207 -2.58654e-23)
(1.07669 -0.0107606 -6.92627e-20)
(1.00121 -0.00563463 7.78172e-21)
(0.582622 0.0183394 1.56445e-20)
(1.08517 -0.00552077 0)
(1.00958 -0.0271414 -2.27034e-21)
(0.642305 0.0163885 0)
(0.44842 0.014446 0)
(0.978821 -0.0156536 0)
(1.09828 0.0122848 -1.30454e-20)
(0.229171 0.00860954 8.08007e-21)
(0.978561 -0.0398555 0)
(0.977639 -0.0150996 0)
(1.08645 -0.00583308 0)
(0.406456 0.00501638 -2.63317e-21)
(0.683893 0.0331314 -4.10271e-20)
(1.10027 -0.00709913 3.40525e-20)
(1.0019 -0.000540233 -1.09539e-21)
(0.926756 0.0363417 0)
(1.00079 -0.00650361 0)
(1.10315 -0.0068809 3.3816e-20)
(0.239881 0.0108909 0)
(1.10492 0.0220092 4.99527e-20)
(1.0499 -0.00338909 7.94828e-21)
(1.25291 -0.0889495 -1.21073e-21)
(1.25055 -0.0685896 0)
(0.235437 0.0363563 -9.42701e-20)
(1.13859 -0.0121644 0)
(0.806105 -0.0904436 -3.97165e-20)
(0.416256 0.0385912 4.92086e-22)
(0.492431 0.0196743 -1.0113e-22)
(1.10519 0.023991 -2.53222e-20)
(1.03432 -0.0243379 5.97954e-21)
(-0.0354454 0.0200019 -7.67386e-20)
(0.320102 0.000936183 -4.80314e-22)
(0.504701 -0.489118 -9.40446e-20)
(0.542139 -0.48481 8.48734e-20)
(0.945559 -0.0195284 1.0115e-20)
(1.10212 -0.01064 -4.08392e-20)
(0.959508 -0.101728 0)
(0.509588 0.00549225 3.42008e-20)
(0.813566 -0.135196 3.73145e-20)
(1.00685 -0.00173364 7.03687e-22)
(1.01769 -0.000356665 3.53233e-21)
(1.05655 -0.0628144 -1.59978e-20)
(0.189099 0.0318073 1.28237e-19)
(0.230482 -0.589753 7.48216e-20)
(1.0167 -0.0177168 -1.42986e-21)
(0.370172 0.0343 -5.91964e-20)
(0.949916 -0.100227 -1.50062e-20)
(1.07663 -0.0512839 -7.61166e-21)
(1.05113 -0.00262937 1.16662e-20)
(0.397346 0.00372609 -1.58271e-21)
(1.10871 0.0146937 0)
(1.08667 0.0232373 0)
(1.01968 -0.0648801 3.88553e-22)
(1.05724 -0.0347951 1.86609e-20)
(0.680958 0.0192353 0)
(0.980668 -0.0214917 -2.433e-20)
(1.11735 0.0130696 -2.05881e-20)
(1.06558 -0.0201629 0)
(1.08709 -0.00653264 0)
(0.945037 -0.102432 0)
(0.993349 -0.0109135 -1.39756e-20)
(1.01021 -0.0268035 2.25192e-21)
(1.15979 -0.0402105 0)
(1.19086 -0.108542 2.13654e-21)
(1.10634 0.00804543 -5.69868e-20)
(1.2523 -0.0650821 1.25163e-21)
(0.688085 0.019638 6.59363e-21)
(1.00845 -0.0609715 0)
(0.500129 0.0294761 1.75172e-20)
(1.09689 0.0173783 -1.17776e-20)
(1.02331 -0.00808388 -2.58519e-22)
(1.09768 0.0228347 -4.19308e-20)
(1.09609 0.00721112 1.05842e-20)
(0.275068 0.00977561 -2.62625e-20)
(1.05486 -0.061135 0)
(1.07793 0.0227807 0)
(1.09401 0.0217281 0)
(1.21034 -0.0184325 5.56414e-20)
(1.16059 -0.0475162 8.29512e-23)
(0.505111 0.00385502 4.64073e-21)
(1.037 -0.0325834 -5.1373e-21)
(1.10011 0.0197692 4.07105e-20)
(-0.168944 0.0050611 0)
(1.07545 -0.0230123 3.15884e-20)
(0.487992 0.00554221 4.52699e-20)
(1.07991 -0.0241153 -1.48417e-20)
(0.537865 0.0323624 -3.17452e-20)
(1.07409 -0.00376703 2.90913e-20)
(1.0684 0.0163098 1.62951e-20)
(1.111 0.00539851 0)
(1.20184 -0.0844303 0)
(0.98637 -0.00850559 0)
(1.06472 -0.0243276 9.74093e-21)
(1.11958 -0.0779472 3.28037e-21)
(1.06804 0.00701769 0)
(1.01065 -0.020877 0)
(1.08613 -0.0028219 -2.58644e-20)
(0.809167 0.0317975 7.91338e-22)
(0.995572 -0.0223129 -1.0256e-20)
(1.07992 0.00505168 0)
(-0.174342 0.00247466 2.37445e-19)
(1.05227 -0.0330508 -9.49373e-21)
(1.27739 -0.348683 -8.41777e-20)
(1.07405 0.0126773 -2.39581e-21)
(0.739141 0.0311652 0)
(1.06108 -0.0377833 1.6003e-20)
(1.07796 0.0191727 0)
(1.02615 -0.668466 1.08227e-19)
(1.11309 0.0141439 8.91843e-21)
(1.09294 -0.0149525 1.14614e-20)
(0.528092 0.00583145 3.69191e-23)
(0.3665 0.00481037 4.95139e-20)
(1.28126 -0.20574 0)
(0.999033 -0.0208705 -5.69465e-21)
(1.15616 -0.0389786 0)
(1.08108 -0.0282026 -3.32178e-20)
(1.07796 0.0219513 0)
(1.02247 -0.0154554 -5.99287e-21)
(-0.118624 0.00366539 1.21749e-21)
(0.79562 0.0330517 -1.40141e-20)
(1.19011 -0.00334363 -9.80914e-20)
(1.05692 -0.0333836 -1.77891e-20)
(1.11063 0.00626542 0)
(1.09656 0.0199001 -4.33599e-20)
(-0.180305 0.00981557 0)
(1.02103 -0.00369609 3.37693e-21)
(-0.0801814 0.016681 -8.576e-20)
(1.20259 -0.0717983 9.05303e-21)
(0.64054 -0.256642 1.59552e-21)
(1.04734 -0.106304 -9.90701e-21)
(1.11652 0.0242448 -4.85924e-20)
(0.989564 -0.0145029 1.24973e-20)
(1.00107 -0.000322789 -1.33098e-21)
(0.445804 0.00498719 4.20214e-20)
(1.09709 0.0196887 3.54535e-20)
(0.992022 -0.00720118 -6.25076e-21)
(1.05604 -0.0226672 4.10322e-21)
(1.08085 0.00497874 -5.89439e-21)
(1.01066 -0.0076185 2.66131e-22)
(0.835638 0.0328695 0)
(1.10193 -0.00934467 8.85954e-21)
(1.0962 0.00667883 0)
(1.0606 -0.00595814 7.41016e-21)
(1.03752 -0.0317021 0)
(0.976415 -0.00605685 0)
(1.21778 -0.0232427 0)
(1.00864 -0.0265199 0)
(0.977313 -0.0051786 0)
(0.896845 0.0263929 9.21223e-21)
(0.828763 0.0304962 0)
(1.02871 -0.0731864 0)
(1.09341 0.0213729 1.66842e-20)
(0.996392 -0.00195245 -9.99542e-22)
(1.0013 -0.00534089 -2.55514e-21)
(1.05395 -0.0336783 2.84254e-20)
(1.10741 0.0082469 6.07072e-20)
(1.07245 0.0144218 -2.20872e-20)
(1.01055 -0.0220778 0)
(1.04443 -0.0262512 1.03529e-20)
(1.14785 -0.275585 3.64471e-20)
(1.05049 -0.0172042 -1.36208e-20)
(0.780111 0.0233623 0)
(1.00118 -0.00659573 -2.77696e-21)
(1.06186 0.00160506 1.59337e-20)
(0.684266 0.0208908 1.17709e-20)
(0.955463 -0.140385 0)
(1.01665 -0.000850194 -8.1059e-22)
(1.00035 -0.00563947 -4.23147e-21)
(1.06021 -0.00660088 -3.74182e-21)
(1.03978 -0.0106353 0)
(1.2794 -0.259123 3.58881e-20)
(0.852652 0.026427 -1.04939e-20)
(1.07903 -0.0149349 3.74454e-21)
(0.367952 -1.13419 0)
(1.05512 -0.0326582 -1.49016e-20)
(1.00019 -0.00899733 -4.96022e-21)
(0.575667 0.0232447 -1.5531e-20)
(1.09448 0.0214982 1.7074e-20)
(0.897739 -0.111557 0)
(0.996575 -0.0255273 0)
(0.481163 0.0182302 2.17265e-20)
(0.877848 -0.0860532 4.11379e-20)
(1.201 -0.521312 -1.88555e-20)
(0.990971 -0.0231849 -1.01093e-20)
(1.07725 -0.0454906 0)
(1.16187 -0.044715 0)
(1.07158 0.00463961 0)
(0.518736 0.0223505 1.37187e-20)
(1.09651 0.0200521 3.98665e-20)
(1.1997 -0.00697949 9.3611e-20)
(0.981651 -0.0599274 0)
(1.13829 -0.0101937 3.74763e-22)
(1.00062 -0.0218525 4.52664e-21)
(0.631859 0.0172623 0)
(1.07408 0.0121688 8.50814e-21)
(1.0932 0.0141228 0)
(1.07999 -0.0270353 2.68354e-20)
(1.01996 -0.0622898 7.9019e-22)
(0.961081 -0.137376 0)
(1.10056 -0.0115805 8.19921e-21)
(1.00153 -0.000489221 0)
(-0.175418 0.0100191 0)
(0.555221 0.0218145 0)
(0.814486 0.0195305 3.5757e-20)
(-0.174636 -0.0030769 -2.08523e-20)
(0.864082 0.0267922 9.22429e-21)
(0.114904 0.023086 -2.10151e-20)
(1.11518 0.0137074 -4.34103e-20)
(0.926708 -0.0703664 0)
(0.999727 -0.00239109 -8.66467e-21)
(1.261 -0.349304 -5.15319e-20)
(0.992617 -0.00612875 -8.42681e-21)
(1.01039 -0.0203132 8.87375e-23)
(0.922143 -0.08555 1.35536e-20)
(0.433878 0.0378105 3.2344e-20)
(1.05458 -0.0168643 -1.99921e-20)
(0.975582 -0.0338995 -7.27542e-23)
(1.0946 -0.225147 -1.36006e-21)
(1.09843 -0.0267424 0)
(0.990924 -0.00227347 9.3701e-22)
(0.969965 0.034678 3.20808e-20)
(1.00697 -0.0195757 -3.63647e-21)
(0.589885 0.0264344 -1.44948e-20)
(1.27244 -0.247209 -1.2794e-19)
(1.00443 -0.0156047 0)
(1.05137 -0.0105343 -1.63015e-20)
(1.19528 -0.0538956 -3.8348e-20)
(1.09859 0.0231954 -5.38028e-21)
(1.01842 -0.0111061 2.73569e-22)
(1.17154 -0.0268053 0)
(1.19733 -0.311296 9.25081e-20)
(1.0271 -0.00414348 0)
(0.330348 0.0414351 1.87606e-20)
(1.12101 0.0139478 -2.56238e-21)
(1.09994 0.0110097 0)
(0.980318 -0.0585157 1.28257e-20)
(0.908189 0.0262099 -3.77854e-20)
(0.334879 0.00835694 1.71496e-20)
(1.02764 -0.00435024 -3.8121e-21)
(1.14251 0.00375744 6.36547e-20)
(1.0149 -0.0331933 -7.91643e-22)
(1.00735 -0.020038 1.79261e-21)
(0.936647 0.0281993 2.29711e-21)
(0.542907 0.0336529 3.76604e-20)
(1.08839 -0.0270725 0)
(1.07173 0.0146073 1.86019e-20)
(0.992072 -0.0050516 -1.1068e-20)
(1.07846 0.0148945 0)
(0.582287 0.0265776 -8.88016e-23)
(0.38748 0.0382053 5.58764e-20)
(1.02996 -0.00706755 9.81544e-22)
(0.0167248 0.0174754 0)
(1.01024 -0.0215554 0)
(1.01592 -0.0337838 2.16102e-22)
(1.09334 -0.0138784 1.54225e-21)
(1.06015 0.00518489 0)
(1.02127 -0.00348604 1.83986e-21)
(1.01604 -0.0607838 -5.53028e-22)
(0.352661 0.0406426 0)
(1.19614 -0.0834442 -3.70423e-20)
(0.309953 0.040099 0)
(1.05306 -0.0171054 -1.52332e-20)
(0.994084 -0.0115241 -1.23853e-22)
(0.652828 0.0230439 -6.28587e-21)
(0.999547 -0.0033288 0)
(1.1539 -0.0334771 0)
(1.06364 -0.00248618 2.28251e-20)
(1.06885 0.00484275 -2.72263e-20)
(1.07895 -0.0184529 6.66307e-21)
(0.745306 0.0234782 0)
(0.304899 0.00872177 0)
(1.06333 -0.0271107 -1.61624e-20)
(-0.106179 0.0120267 0)
(1.04888 -0.00474575 3.7874e-21)
(1.10682 -0.016774 0)
(0.672274 0.0195458 1.8792e-20)
(0.478607 0.00804891 1.06787e-21)
(1.00982 -0.0337625 -2.47755e-21)
(1.00001 -0.021784 5.59077e-21)
(0.844739 -0.148353 0)
(0.327113 0.0400671 0)
(1.09148 0.0234927 -4.90237e-20)
(1.07784 0.0150119 0)
(1.16195 -0.476375 1.78602e-20)
(1.06028 0.00568845 0)
(1.0729 -0.00320209 0)
(0.472089 -0.0508609 -7.94617e-20)
(0.946203 0.0332733 4.53391e-20)
(1.12146 -0.275094 -3.81484e-20)
(0.577296 0.0254866 0)
(1.09212 0.0178377 -7.83893e-21)
(0.695228 0.0203035 -1.74814e-20)
(1.03376 -0.0315793 7.87789e-23)
(1.08513 0.0227343 0)
(1.1299 0.0219751 0)
(0.999894 -0.00776927 4.89042e-21)
(0.113015 0.00590993 -4.56246e-20)
(0.78478 0.0439551 1.8244e-20)
(1.03184 -0.0992895 6.66453e-21)
(1.08328 0.00112572 -1.9789e-20)
(1.00202 -0.0299099 2.74077e-22)
(0.522873 -0.876026 3.3137e-21)
(1.13031 -0.129115 0)
(0.954891 -0.178996 1.69799e-19)
(1.00809 -0.0269451 -3.01198e-21)
(1.00063 -0.000429952 0)
(0.923661 -0.0418954 0)
(1.09791 -0.0283896 7.62648e-21)
(1.00123 -0.00634633 0)
(0.401725 0.0359279 -5.51418e-20)
(1.00074 -0.000509585 1.99045e-21)
(1.09221 0.017625 0)
(0.975803 -0.0574248 4.27023e-22)
(1.07868 0.0217741 -7.1772e-21)
(0.992291 -0.023562 -1.0537e-20)
(0.990317 -0.00237692 -1.0741e-20)
(1.08511 -0.119672 0)
(0.0209336 0.014808 1.34638e-19)
(1.09405 -0.0176268 -4.68678e-20)
(0.353056 0.0350935 6.87528e-21)
(1.07771 -0.0475212 3.86987e-21)
(1.01081 -0.00847842 1.38415e-22)
(1.02555 -0.010178 4.20981e-21)
(1.10208 -0.0140016 -2.1006e-21)
(1.04358 -0.0269477 1.6807e-21)
(1.1259 -0.0181179 6.16407e-20)
(1.05748 -0.0184183 -1.14495e-20)
(0.897214 -0.104522 0)
(1.08943 0.0225281 0)
(0.999451 -0.00310119 4.67981e-21)
(0.54078 0.00221248 0)
(1.00005 -0.00124065 5.07256e-21)
(1.08173 0.0243035 4.12493e-20)
(-0.0918333 0.0143078 0)
(0.666254 0.0211548 0)
(0.897956 -0.0251212 2.64067e-20)
(1.08622 -0.230705 -1.48386e-19)
(1.08439 -0.226786 -4.81801e-20)
(1.20927 -0.14947 -3.79283e-20)
(0.762732 0.044685 0)
(1.03181 -0.00805554 -2.00673e-21)
(0.917749 0.0359369 1.32662e-20)
(0.955016 -0.10397 0)
(1.07707 -0.0229898 -6.97918e-21)
(-0.123482 -0.00462356 1.43975e-19)
(1.16109 0.0128167 -4.08699e-21)
(1.02364 -0.00847613 -3.00835e-21)
(1.12546 -0.0195556 -5.79535e-20)
(1.03703 -0.0106241 -3.7399e-21)
(0.672238 0.0187081 3.54437e-21)
(0.157454 0.0111721 -2.12515e-20)
(1.02005 -0.0348517 3.97503e-23)
(0.722644 -0.145116 -8.22453e-20)
(0.840383 0.0343811 2.712e-20)
(0.999989 -0.00104808 -7.26239e-21)
(0.999985 -0.00139653 -5.37983e-21)
(1.07873 0.0200311 3.44382e-20)
(0.523905 0.000603938 6.44917e-21)
(0.955193 0.026591 -2.48103e-20)
(0.977801 -0.013914 3.33461e-21)
(1.11314 0.00413675 3.53593e-21)
(1.0492 -0.0170971 6.59741e-21)
(0.989374 -0.00324541 0)
(1.08548 0.0230551 4.76978e-21)
(1.11261 0.0051621 0)
(1.18162 -0.100418 2.70778e-20)
(1.01997 -0.00313967 0)
(1.0866 0.018705 2.63313e-20)
(0.931626 -0.186381 0)
(1.07655 0.0188896 6.14168e-21)
(0.96387 -0.0163518 -3.14841e-20)
(1.00749 -0.0559652 5.00634e-22)
(1.12437 -0.130889 0)
(0.927378 -0.0427633 0)
(1.08679 0.0198667 -1.09418e-20)
(1.08832 -0.00396146 2.21513e-20)
(1.08971 -0.00562365 2.78489e-22)
(1.10746 -0.266212 5.49216e-20)
(1.20522 -0.536334 -6.81889e-20)
(1.12372 0.0134073 -2.78164e-22)
(0.82806 0.0272104 -8.12152e-23)
(1.19652 -0.0289153 0)
(1.08726 0.0213437 0)
(0.456738 0.00948193 2.03577e-20)
(1.03063 -0.144181 -1.01466e-20)
(0.918763 0.0277544 0)
(1.09957 0.011713 0)
(1.02617 -0.0178433 0)
(1.0721 -0.00379881 -1.36921e-20)
(1.12237 0.0116917 -6.24901e-20)
(1.04764 -0.0682611 -1.26623e-20)
(1.00414 -0.0145733 6.48617e-23)
(1.00455 -0.0138147 -3.36859e-21)
(1.08224 0.0232829 1.82972e-20)
(0.498311 0.00162602 1.54277e-20)
(1.06278 0.00134289 -1.67514e-20)
(0.486878 0.0288602 1.79381e-20)
(1.01064 -0.00877811 8.73361e-23)
(0.936601 0.0265869 5.08022e-21)
(1.04689 -0.324429 0)
(0.217537 0.00766242 7.62283e-20)
(1.12657 -0.0219124 -2.98595e-20)
(1.06264 -0.0372913 -1.67177e-20)
(1.05554 -0.0197913 -1.09194e-20)
(0.226807 0.0101087 -2.77375e-20)
(1.18063 -0.0958696 -9.66991e-20)
(1.03004 -0.138295 1.02064e-20)
(1.09723 0.0198836 -8.03156e-21)
(1.03653 -0.0301371 0)
(1.27707 -0.30657 0)
(1.08229 0.0237302 -1.06836e-20)
(1.0926 0.0174305 -1.43122e-20)
(1.07981 -0.0345228 7.32183e-21)
(1.21571 -0.0580419 0)
(0.990185 -0.0148463 8.35006e-21)
(1.00006 -0.00145309 3.25337e-22)
(0.949777 -0.0180741 2.86857e-20)
(0.988837 -0.00390003 -1.84525e-21)
(0.661965 0.0189689 0)
(1.00338 -0.000720363 0)
(1.08991 0.0232482 0)
(0.631808 0.022462 0)
(1.12885 -0.0223631 0)
(0.407043 0.0394084 0)
(0.274751 0.00906991 0)
(1.09303 0.0175378 0)
(1.21601 -0.143063 8.44842e-20)
(0.900663 -0.0316799 -2.13667e-20)
(0.998828 -0.000268121 -1.17624e-20)
(0.985614 -0.0135127 7.94409e-22)
(1.01736 -0.00596669 0)
(1.02494 -0.0102018 -5.40131e-21)
(1.00086 -0.000478642 -1.41594e-21)
(1.10524 -0.0136622 0)
(1.13147 -0.00538345 -3.66193e-20)
(0.929887 -0.197369 0)
(1.10676 0.0233329 -4.74622e-20)
(1.02013 -0.0520111 1.01538e-22)
(0.565684 0.0173948 -7.3396e-21)
(0.999981 -0.000144372 -3.64044e-21)
(0.00618571 0.00522723 -2.414e-19)
(1.09288 -0.0647692 -6.82139e-21)
(0.999935 -0.000287234 -1.04121e-21)
(0.99749 -0.000888604 -6.89581e-21)
(0.657744 0.0215407 2.73736e-20)
(1.06371 -0.0326154 1.14404e-20)
(0.969581 0.0245986 1.12149e-20)
(0.793029 0.0414326 2.41951e-21)
(1.08144 0.0012786 0)
(1.09338 0.0021018 -1.07029e-20)
(1.02683 -0.00344421 -3.18471e-21)
(0.63183 0.0274176 -2.49028e-20)
(0.989621 -0.0685208 0)
(1.05529 -0.0177732 2.10107e-20)
(1.08564 0.0228833 0)
(0.998858 -0.000682764 5.60803e-21)
(0.978478 -0.0363546 -4.45363e-21)
(1.02943 -0.0112804 0)
(1.07493 0.0109452 2.01541e-20)
(0.48668 0.00275149 3.0055e-20)
(1.0714 -0.0457102 -2.12614e-20)
(1.08015 -0.0311591 -2.89016e-20)
(1.20863 -0.0756514 0)
(0.350473 0.0364206 -5.68224e-20)
(0.902812 -0.0516336 -2.91851e-20)
(0.992889 -0.0881253 0)
(0.68916 0.0200205 1.51902e-23)
(1.01702 -0.00579221 0)
(0.681038 0.0199431 -1.21275e-20)
(1.00033 -0.00104376 -1.6716e-21)
(1.05095 -0.0161379 0)
(1.16989 0.0105367 -1.79207e-20)
(1.08593 0.0136963 5.47557e-20)
(1.09166 0.0151433 0)
(1.14052 -0.055732 -5.76938e-20)
(1.09438 -0.0163181 6.52438e-21)
(0.999595 -0.000857591 -5.28992e-21)
(0.99999 -0.00014836 -7.68232e-21)
(1.10866 -0.0159765 0)
(1.03495 -0.0314967 -3.72518e-21)
(0.999694 -0.000713799 -9.47596e-21)
(1.06257 0.00410284 0)
(1.21562 -0.107202 -8.50135e-20)
(1.00397 -0.00482874 -3.13995e-21)
(1.20441 -0.164939 7.28601e-20)
(1.28586 -0.333314 6.49722e-20)
(0.993341 0.0243409 9.68478e-21)
(1.13838 -0.0532535 3.65164e-20)
(0.304583 0.0181061 6.82281e-20)
(0.860503 -0.0844869 4.83165e-20)
(0.998711 -0.000533279 0)
(1.16298 -0.0546895 2.2229e-20)
(1.01017 -0.00911584 0)
(1.06517 -0.0230507 -2.17903e-21)
(0.851277 0.0283523 -1.04488e-20)
(0.694081 0.0194036 2.79411e-20)
(0.912565 0.0371796 9.82709e-21)
(0.714751 0.021639 0)
(1.02304 -0.0350792 0)
(1.01994 -0.0341882 -3.98953e-23)
(1.00835 -0.241251 -5.16963e-21)
(1.00446 -0.0539798 -5.40072e-22)
(1.01838 -0.0164488 0)
(0.885377 -0.325131 9.78029e-20)
(1.0951 0.0168433 1.62513e-20)
(0.485205 0.00657062 0)
(1.0819 0.0247364 -4.55459e-20)
(1.08654 0.0136989 -3.66862e-20)
(0.987672 -0.00548123 2.3586e-21)
(1.01707 -0.0112162 0)
(1.28517 -0.188296 4.67276e-20)
(1.09697 0.00606029 4.23697e-20)
(1.05241 -0.016138 1.81645e-20)
(0.999836 -0.000208757 -2.11379e-21)
(1.09093 0.0156547 -1.51473e-20)
(1.1467 -0.0148235 -7.0487e-22)
(0.497871 0.0299425 0)
(0.977081 -0.0178601 0)
(1.00077 -0.00285008 3.73789e-21)
(0.470354 0.00145321 -2.31019e-20)
(0.964808 -0.0151578 2.59001e-20)
(1.0794 -0.0212925 3.62797e-21)
(1.01035 -0.00720282 0)
(0.452185 0.0374363 0)
(1.00879 -0.000486305 1.73234e-22)
(-0.0655124 0.0163956 0)
(0.995694 -0.00508634 1.13927e-20)
(1.17436 -0.118532 5.57722e-20)
(1.0827 -0.00933939 -1.80469e-20)
(0.9872 -0.24901 1.09852e-21)
(1.08093 -0.0333319 4.27526e-21)
(0.994345 -0.0215568 0)
(1.05583 -0.0246037 0)
(1.00281 -0.0034719 -7.24716e-23)
(1.09079 0.0235294 -8.81834e-21)
(0.967576 -0.0229207 0)
(0.559729 0.0082318 -8.35508e-21)
(1.03815 -0.029496 -2.63204e-21)
(1.01364 0.0254541 -1.44594e-20)
(0.598904 0.0233604 0)
(1.07724 -0.0377167 -1.47212e-20)
(1.00332 -0.00251224 -1.37104e-21)
(-0.127193 -0.00127719 -6.30203e-20)
(0.853238 0.0260243 -5.27168e-21)
(1.06494 -0.0270273 3.42796e-20)
(1.08551 0.0142643 -3.72784e-20)
(0.98563 -0.0127281 0)
(0.510349 0.00397611 0)
(1.02685 -0.01839 1.98143e-21)
(1.12358 0.0108986 0)
(0.99936 -0.00850951 5.61519e-21)
(1.00305 -0.0036214 1.53129e-21)
(0.991478 0.0258465 1.60063e-20)
(1.07943 -0.0174041 0)
(1.0004 -0.00607033 0)
(1.06488 0.00900788 7.01318e-21)
(0.528859 0.0269149 0)
(0.809153 -0.821059 1.36775e-20)
(0.81509 0.0352634 -2.78279e-20)
(1.01464 -0.013757 -5.50631e-22)
(0.469855 0.010856 -4.48876e-21)
(0.997945 -0.007518 7.25046e-21)
(1.0038 -0.00456311 2.36442e-21)
(0.978223 -0.0202988 -9.06174e-21)
(1.01755 -0.000453297 0)
(0.999901 -0.00189774 -4.20575e-21)
(0.797493 0.0377426 2.18569e-20)
(0.840151 0.0286796 0)
(1.03696 -0.0183945 0)
(1.00077 -0.000694018 -3.47949e-21)
(1.089 -0.0253307 1.85616e-20)
(1.01315 -0.0194569 -2.1336e-22)
(-0.0320817 -0.00454696 -5.57715e-20)
(1.16411 -0.0513594 -6.35818e-21)
(0.440962 0.00742967 -3.34548e-21)
(0.429615 0.0396156 -2.60489e-20)
(1.05551 -0.0253422 0)
(1.08689 0.0194825 0)
(0.999919 -0.00824106 5.19344e-21)
(1.08412 -0.00750258 -1.74209e-20)
(1.03772 -0.308229 4.10544e-21)
(1.03129 -0.00753586 8.00498e-21)
(1.00029 -0.0010273 4.6693e-22)
(1.28493 -0.178695 0)
(0.166972 0.0111451 -2.23349e-20)
(1.0924 0.00227432 0)
(-0.0807893 0.00311362 4.97283e-20)
(1.08595 0.00740935 0)
(0.996488 -0.00267234 0)
(1.09203 -0.0321053 -2.32022e-20)
(1.08552 0.0146267 3.48061e-20)
(0.0369011 0.010781 -7.68874e-21)
(1.07536 -0.0113264 0)
(1.05692 0.0230644 -1.32369e-21)
(1.09794 0.00615129 -5.77138e-20)
(1.00018 -0.00197297 6.56357e-21)
(0.804563 -0.116576 0)
(0.707655 -0.0859554 0)
(0.510216 0.00537203 1.29307e-20)
(1.16025 0.0148419 4.73907e-21)
(0.942747 0.0281964 -1.55642e-20)
(0.984131 -0.0604633 3.34775e-21)
(0.774351 -0.348166 4.64484e-20)
(0.976778 -0.0037096 -8.79234e-21)
(1.10293 0.0204394 -4.05464e-20)
(1.04657 -0.0657933 1.13621e-20)
(1.0067 -0.00139896 -5.08063e-22)
(0.793376 0.0366523 -3.20631e-20)
(1.0171 -0.051468 1.02448e-21)
(1.00326 -0.00231024 0)
(1.01086 -0.0337878 2.64804e-21)
(1.01589 -0.0501282 -1.59345e-21)
(0.421055 0.0359309 0)
(1.11977 0.0123127 2.26446e-20)
(1.00997 -0.0125938 -3.78439e-22)
(1.09298 -0.0303826 0)
(0.415837 0.00503921 4.63584e-20)
(1.03085 -0.0466763 0)
(-0.0857011 0.00596835 7.28992e-20)
(0.964797 -0.0374641 0)
(1.08756 0.0112628 2.01943e-20)
(0.517286 0.0338132 0)
(1.00106 -0.00582678 0)
(1.09339 0.0235698 2.20488e-21)
(1.05541 -0.076501 5.0017e-21)
(1.07934 -0.0381939 0)
(0.743785 -0.861473 0)
(1.01899 -0.0508453 0)
(1.17697 -0.0243522 3.84652e-20)
(1.07719 0.0194155 -1.6587e-20)
(0.562272 0.0293533 0)
(1.03868 -0.00658326 8.17496e-21)
(0.534725 0.00588562 -2.59348e-21)
(1.07469 -0.0245222 -6.13481e-21)
(0.428197 0.0106596 1.97633e-20)
(0.0988506 0.0101004 -9.96948e-20)
(0.516661 0.00414078 2.51716e-20)
(1.08057 0.00284448 0)
(0.991861 -0.0202724 0)
(1.02256 -0.0360194 0)
(0.999974 -0.00101433 0)
(1.06767 0.0157826 1.45759e-20)
(0.997477 -0.00244866 7.29057e-21)
(0.530052 0.0233746 1.61292e-20)
(1.0281 -0.093001 3.00834e-21)
(0.93871 -0.0771338 0)
(0.905272 -0.0485172 4.94279e-20)
(0.985791 -0.0592387 0)
(1.01431 -0.0132799 0)
(1.05618 0.00744412 0)
(1.05191 -0.066022 -6.61574e-21)
(1.05118 -0.0113625 0)
(1.03746 -0.0764765 2.17225e-21)
(0.701736 0.0425186 0)
(1.09144 0.0240869 0)
(1.07284 -0.0192193 -1.1958e-20)
(1.09845 -0.107866 0)
(0.812323 0.0357328 1.5978e-20)
(0.976197 -0.0359985 1.5312e-20)
(0.220901 0.0351369 -2.48801e-20)
(1.01651 -0.00573211 1.86825e-21)
(1.03174 -0.112393 0)
(0.966036 -0.0218227 1.50343e-20)
(1.01906 -0.0236493 1.53444e-21)
(1.07399 -0.125112 3.3829e-20)
(1.00002 -0.00931965 2.96621e-21)