/*--------------------------------*- C++ -*----------------------------------*\
| =========                 |                                                 |
| \\      /  F ield         | OpenFOAM: The Open Source CFD Toolbox           |
|  \\    /   O peration     | Version:  v2012                                 |
|   \\  /    A nd           | Website:  www.openfoam.com                      |
|    \\/     M anipulation  |                                                 |
\*---------------------------------------------------------------------------*/
FoamFile
{
    version     2.0;
    format      ascii;
    class       volScalarField;
    location    "100";
    object      ddt0(k);
}
// * * * * * * * * * * * * * * * * * * * * * * * * * * * * * * * * * * * * * //

dimensions      [0 2 -3 0 0 0 0];


internalField   nonuniform List<scalar> 
14033
(
5.09294e-11
-0.000164306
7.25206e-11
-1.51733e-08
-2.91881e-06
2.5052e-08
1.1636e-08
2.36548e-06
4.00753e-08
2.0291e-09
8.42497e-06
-5.38857e-06
-2.29459e-05
3.46063e-10
1.79995e-08
7.36201e-10
-1.58477e-10
-1.35912e-06
1.62882e-05
2.30934e-08
-3.36762e-09
7.8755e-06
-8.28505e-06
-2.29309e-08
3.99401e-06
3.20817e-08
-8.60561e-09
1.55392e-08
-4.61497e-06
-6.88009e-06
-3.58767e-10
-1.08715e-09
5.58016e-08
1.81017e-05
1.19617e-08
8.71729e-10
-3.84471e-08
-4.43585e-08
8.0563e-09
-5.38831e-09
2.95123e-08
-1.8572e-08
-6.12899e-06
4.84779e-06
-5.5832e-08
4.32674e-06
-9.42331e-09
-2.49751e-08
2.11112e-08
3.77862e-06
-2.09126e-06
1.72529e-07
-7.08763e-06
1.23526e-06
1.37322e-08
-3.07159e-08
-8.72593e-06
4.24819e-08
2.91798e-08
-4.31025e-08
2.80798e-08
1.05508e-08
-2.68398e-05
-8.03484e-08
-1.99495e-09
-3.27118e-05
-1.71458e-06
2.85769e-06
-7.50415e-10
6.2376e-09
1.06267e-08
1.2912e-08
-8.22713e-06
-4.86707e-06
-1.59391e-06
-1.15506e-08
-3.37632e-06
-5.5089e-09
1.6775e-08
-6.59059e-08
2.97912e-08
3.89358e-06
-5.79937e-06
4.57487e-06
2.2546e-08
-1.95588e-08
9.27589e-09
1.33345e-09
2.23827e-07
-1.59053e-06
1.20443e-08
-2.42138e-08
-8.40678e-07
-2.21149e-06
4.24946e-06
5.81964e-08
-1.88864e-09
-0.000104002
-5.33246e-06
4.82466e-08
9.23562e-09
7.27771e-06
4.72099e-08
8.21793e-11
-3.93745e-06
1.1619e-05
1.73516e-08
8.63366e-05
2.55788e-07
-5.2698e-06
-2.62033e-09
-1.49026e-09
-4.98191e-09
-7.44996e-06
-4.23938e-09
4.53332e-06
-5.22191e-06
5.28546e-08
-4.28159e-08
-7.94267e-06
-1.18406e-08
0.00024899
-1.04105e-08
-1.09533e-09
-6.44934e-06
-8.9859e-09
-1.11253e-05
-4.68847e-07
1.95959e-09
-8.10363e-09
-8.04452e-06
1.79442e-07
-2.68586e-08
3.87293e-06
8.99423e-07
1.64853e-09
2.35119e-06
1.70001e-06
-8.85146e-09
-1.17644e-06
6.65478e-06
-8.35414e-06
1.93473e-09
1.02992e-05
-1.81087e-09
-2.92802e-10
-3.7941e-06
-1.00712e-06
-4.05321e-10
7.63274e-08
-2.02745e-07
-1.73932e-07
6.42602e-09
0.000165674
-3.06867e-07
1.90929e-08
-5.92464e-06
1.98275e-09
-7.38551e-08
-1.91963e-06
3.07673e-06
8.78151e-07
-2.06622e-09
-1.12037e-08
4.51556e-06
-4.64046e-09
-7.95889e-06
8.55782e-09
-4.44274e-06
1.22228e-08
4.9157e-06
-2.75803e-08
8.4249e-08
1.22737e-07
2.19044e-08
-8.70346e-08
-1.05717e-09
-4.98723e-10
1.10796e-09
-4.90279e-06
-9.45028e-07
-3.73063e-07
-2.68621e-08
-8.45496e-06
3.02771e-09
-2.59566e-08
1.2938e-08
-1.39676e-08
-4.2219e-06
3.25858e-08
9.78143e-09
-1.81714e-08
3.28418e-05
-4.25473e-08
-5.51981e-08
-1.07194e-06
1.25038e-08
-8.87583e-06
-2.05833e-05
1.88789e-09
-9.50396e-06
1.34807e-08
-1.32574e-06
2.50675e-08
-1.01176e-05
-6.77472e-06
1.41969e-08
1.48292e-09
-8.74019e-06
-7.90332e-06
-1.0223e-09
-2.25262e-09
-1.89954e-05
-9.11014e-10
6.14684e-09
3.398e-09
-2.35265e-07
1.14509e-05
2.71999e-07
2.39925e-08
3.64178e-06
3.63808e-06
4.29318e-08
4.3515e-08
-1.36734e-09
-7.06015e-06
-5.21293e-06
1.13806e-08
3.34579e-06
-2.36726e-09
-6.78954e-08
5.12635e-09
-8.56845e-06
-1.15818e-05
3.26521e-09
8.59908e-10
-1.25388e-05
-4.38395e-08
-8.08017e-08
-5.33169e-08
-5.87735e-09
-7.1399e-07
-2.01983e-08
2.79034e-06
-5.62063e-08
-4.83203e-06
-3.59459e-08
-6.7035e-06
-1.10832e-06
3.87897e-08
-4.71925e-07
-1.89269e-06
2.83923e-10
-2.93044e-07
-1.05751e-08
-5.91151e-07
1.04746e-10
-3.61903e-07
-9.66471e-12
-1.60231e-05
-8.3514e-09
-6.02578e-06
-2.44308e-11
2.31378e-08
-3.14395e-09
8.12366e-08
3.63578e-08
9.60913e-08
-5.09688e-08
2.85004e-08
-1.58756e-08
-5.31441e-09
-1.11199e-07
-2.23826e-06
-2.01089e-05
-9.02777e-10
-1.95975e-10
-1.30582e-09
-7.61039e-06
5.92464e-07
1.32998e-07
4.53912e-08
-1.29367e-05
5.02396e-06
1.91321e-09
-1.02414e-05
-3.84795e-08
1.3016e-09
-2.10753e-08
3.20134e-08
1.24679e-07
8.60939e-08
-2.57879e-11
-9.68851e-06
-9.72411e-09
1.02866e-06
-5.34591e-07
-2.40162e-08
-4.54654e-06
1.83324e-06
-1.06804e-06
-7.53979e-06
3.85808e-09
-7.54049e-10
-1.05876e-05
-1.03422e-09
3.19285e-08
1.85131e-08
-3.57094e-09
8.7093e-10
2.31111e-08
-5.55908e-07
-2.48062e-09
2.08092e-05
4.1589e-06
-3.13579e-05
-1.23687e-09
-6.72902e-08
6.01559e-06
-1.77854e-08
-1.61563e-08
-5.39331e-08
-3.46478e-08
1.6539e-08
2.57765e-08
1.42754e-09
2.90709e-09
-3.28142e-10
6.22444e-10
-1.0881e-05
-5.37811e-06
1.01041e-08
8.55321e-12
-6.7145e-06
-2.86554e-09
2.1074e-10
-2.34627e-10
-3.99909e-09
-1.82921e-05
-7.41494e-09
-6.33312e-06
-1.98899e-06
-3.7591e-09
4.47584e-06
-1.65114e-09
3.35301e-08
2.80925e-08
1.75143e-08
-6.36348e-05
4.11388e-10
4.45679e-06
-1.23443e-07
-4.42736e-08
-2.28338e-08
-3.01736e-08
-3.92138e-09
9.94193e-09
4.7176e-06
-6.53924e-06
-1.88451e-05
7.93711e-09
-2.07281e-05
1.06196e-08
-8.44747e-06
3.63939e-10
-1.33501e-08
-3.50874e-08
3.18818e-08
-7.42258e-06
-7.89154e-06
0.000106352
-1.33248e-08
5.00544e-09
3.50448e-08
2.9662e-09
-6.12338e-06
4.07917e-08
3.54199e-08
4.52992e-06
5.81865e-09
9.20657e-08
-2.51582e-09
4.55908e-08
2.21066e-08
-7.21308e-06
3.51184e-05
7.11205e-07
6.05961e-08
7.96864e-08
-0.000542186
-4.87855e-06
4.93913e-09
-3.13687e-06
2.75578e-09
1.63573e-09
0.000139229
5.65393e-06
-8.34334e-07
-6.90465e-06
-1.27314e-08
-2.19117e-10
-5.50908e-06
1.59883e-10
-1.44527e-06
-4.88611e-05
7.27957e-05
-3.86053e-09
2.2631e-08
-9.35519e-06
3.83869e-05
4.91267e-08
1.28118e-08
2.0712e-08
-5.65738e-07
-1.45254e-07
-4.83598e-06
-1.06162e-05
-8.0537e-09
-5.71723e-09
-6.79873e-06
4.69475e-09
2.55056e-09
-5.42749e-06
-4.30404e-06
-3.90705e-09
-7.55301e-06
3.96686e-06
6.0932e-06
2.8834e-08
5.4311e-10
-3.13879e-08
3.20992e-09
1.48213e-05
-4.06333e-08
4.56687e-10
2.01801e-05
-1.79509e-05
-6.7827e-08
5.11136e-07
-3.79156e-08
-9.4923e-06
-0.000713259
-8.56904e-11
4.2945e-06
1.25642e-07
-7.11491e-06
-1.54767e-05
4.50073e-05
-1.53737e-08
-2.97607e-05
-3.21636e-08
-1.03994e-05
-3.85902e-09
-4.99502e-06
-1.95531e-05
-1.20439e-09
-7.18366e-06
-3.4896e-08
-0.000192904
4.08032e-06
-0.000124402
-4.64998e-06
5.30642e-07
-1.29909e-05
-7.30385e-06
-3.63402e-07
1.39239e-08
-7.60933e-06
6.79359e-05
-1.47616e-07
-7.12576e-11
-7.78009e-06
-1.99488e-08
-2.3368e-08
-1.92784e-05
4.95745e-08
1.01238e-08
-2.76926e-09
-4.26681e-06
-1.29646e-06
-2.43853e-05
-1.57339e-08
-9.36768e-06
-9.27982e-06
-1.62311e-08
-5.74419e-06
4.37754e-09
1.337e-09
-6.65103e-07
-2.34023e-12
6.94702e-06
7.50633e-06
-4.0028e-10
-5.4215e-09
-2.56487e-08
-7.23675e-08
-5.68018e-08
-2.14384e-08
3.95403e-09
-6.68325e-08
7.5754e-09
1.47881e-09
-4.92078e-06
-1.47015e-09
0.000144534
1.95608e-05
4.16522e-08
-7.78122e-10
7.53136e-06
-9.33635e-06
-1.34e-05
2.14834e-09
-6.47417e-08
-6.38305e-08
-1.04496e-10
5.88812e-08
1.69199e-08
-1.20004e-05
-7.58494e-07
-4.63576e-06
-1.2301e-08
1.61128e-08
-8.94581e-07
2.39969e-08
-3.94804e-08
9.80882e-05
-1.90983e-10
4.92714e-05
4.80022e-06
-4.11105e-08
-2.05358e-06
6.18321e-07
-5.86643e-06
-4.58635e-09
-5.9961e-08
-1.09396e-07
6.34479e-07
1.8316e-08
-7.95881e-06
4.48847e-06
4.0613e-08
2.33858e-10
2.02845e-06
-2.32948e-05
-1.15612e-05
-2.67969e-06
-3.3716e-09
-3.7949e-09
-1.42993e-05
-2.37381e-08
1.19042e-10
-9.37464e-07
-1.88991e-10
-1.86041e-08
2.1931e-06
4.50669e-07
-6.93965e-07
8.08619e-09
4.03776e-06
-4.03545e-08
-3.01479e-08
-2.71833e-09
-4.11481e-09
1.65989e-06
5.32062e-07
9.89243e-07
-5.82296e-09
0.000347972
-4.976e-09
-9.93208e-06
-2.77582e-08
2.95909e-06
-7.89529e-06
5.93626e-08
-1.06345e-05
-2.26807e-06
-1.79687e-08
1.74819e-06
-1.77448e-05
-9.07407e-11
4.28361e-06
3.51352e-08
-8.6929e-06
2.23171e-08
-1.50649e-08
-9.38953e-06
-1.02189e-08
-2.08716e-08
8.9267e-07
-9.76279e-06
-8.55218e-05
-3.51567e-08
6.30547e-08
2.35467e-07
-4.25885e-08
-8.72403e-06
6.15616e-09
3.46381e-08
6.85561e-07
-1.24512e-06
-2.97801e-06
8.6929e-08
5.1076e-06
-9.47242e-06
1.68282e-09
-1.28735e-05
9.84087e-10
-5.40427e-09
-1.03551e-09
4.357e-08
4.41924e-10
-6.24641e-06
1.56701e-08
-2.78975e-08
2.6474e-09
-7.96816e-09
1.00129e-08
5.76288e-08
-8.24047e-06
4.61581e-08
-1.12294e-08
3.547e-06
-4.78014e-06
-1.00013e-05
3.80277e-06
-1.27826e-06
-2.59318e-08
-1.14079e-05
-1.05133e-05
-1.23069e-05
2.43362e-08
2.55551e-06
3.33611e-10
-2.20895e-08
-1.66219e-08
-6.37195e-06
-8.77463e-09
7.88153e-06
-7.38594e-09
-0.000126583
-5.83993e-06
-1.56182e-05
5.0689e-08
-5.16058e-06
-1.37041e-08
6.05473e-09
6.94706e-09
-3.7927e-08
-1.3354e-08
6.26289e-10
-7.1144e-09
1.46628e-09
-3.31932e-08
-7.79385e-05
-6.13665e-06
-2.49769e-08
-1.68375e-06
-7.30666e-06
6.4142e-05
5.8222e-10
1.26994e-09
-4.12941e-08
-4.94827e-09
-9.18439e-06
-1.28463e-05
4.03154e-08
1.93329e-08
-5.44525e-10
4.77858e-07
1.3054e-10
5.35823e-06
-7.80077e-09
-1.39878e-08
-3.06251e-08
3.13361e-08
7.92248e-09
7.03803e-08
-7.3187e-06
-5.44855e-06
1.722e-05
-4.44493e-06
3.37679e-05
5.03715e-08
4.1924e-08
-3.20443e-07
-4.89119e-06
1.20882e-08
-6.26589e-08
2.7642e-08
-0.00017056
-5.38379e-10
-4.38823e-06
6.74706e-07
1.2121e-08
2.25661e-07
-1.96881e-09
-7.83472e-09
-4.69823e-06
-3.48135e-06
-1.41123e-08
7.57739e-08
3.41286e-08
8.1192e-09
1.9515e-08
7.3489e-07
-4.51039e-08
2.1426e-05
-6.6737e-07
9.79133e-09
-2.2376e-08
-7.95918e-06
2.17455e-12
-5.18731e-06
-1.82744e-06
2.83528e-08
2.30974e-08
-1.37537e-07
-1.12524e-05
-1.3199e-09
1.90525e-08
-3.49701e-08
-4.66312e-08
-2.95633e-06
4.87996e-08
-2.92813e-06
-7.82203e-09
-1.66374e-05
9.94002e-10
7.41207e-09
-4.85244e-06
-7.55511e-06
2.46704e-06
1.60221e-09
-1.88157e-09
-1.04354e-07
-2.70665e-09
4.53557e-06
-2.69206e-08
-1.62599e-05
-5.41868e-06
6.5838e-09
-2.74366e-07
-7.98348e-07
-4.89836e-06
-2.43778e-08
1.51723e-08
-3.34702e-06
1.51187e-08
2.6518e-06
-2.64764e-09
-8.4472e-11
-2.52879e-08
-8.21482e-08
2.22276e-08
-6.74252e-07
-2.01977e-08
5.12246e-10
2.4726e-11
-1.37002e-05
-5.23855e-06
3.24209e-08
-3.42693e-06
3.67759e-10
1.47063e-10
1.68348e-10
2.47737e-08
-6.6344e-06
-8.97013e-09
-4.57013e-06
-2.45723e-06
-1.72687e-09
6.7971e-06
2.62389e-06
2.78122e-06
2.07475e-07
-5.52193e-09
-2.59074e-06
-3.69849e-06
-1.85089e-06
-8.60808e-06
-3.98559e-09
4.59088e-06
-8.56904e-06
2.91453e-09
-8.62228e-06
-1.47307e-05
2.42244e-08
3.47529e-08
5.31046e-06
-1.36566e-05
2.45491e-08
-6.04376e-07
-2.27848e-06
4.92169e-06
-1.02724e-05
-1.40375e-08
-9.47809e-06
-1.29407e-05
1.75368e-09
-1.19738e-08
-5.67977e-06
2.37211e-10
-8.3711e-10
-1.03162e-06
-1.09649e-05
-1.21098e-08
1.7616e-08
-2.9837e-08
-1.25006e-05
-8.05045e-06
-0.0001205
-1.25165e-08
-6.57411e-06
-6.76021e-06
-9.92614e-06
2.80656e-10
2.89343e-05
-1.98486e-08
-4.32044e-09
3.28489e-10
6.33462e-10
-3.16649e-11
-7.99912e-08
-1.9356e-08
-1.15195e-05
-6.60634e-08
-9.65237e-06
-9.99154e-06
6.37954e-09
7.74979e-10
4.81681e-08
4.97309e-06
-2.04792e-05
1.80842e-05
4.05735e-08
1.68529e-05
-6.95447e-08
-1.92168e-05
-1.09482e-08
-1.84924e-05
-5.97989e-09
-3.66875e-08
2.31968e-09
-5.38287e-08
-1.5288e-08
-1.17921e-11
-1.22359e-08
-1.30752e-05
1.04348e-08
-2.65332e-10
-5.94133e-09
3.26293e-08
-9.91281e-06
5.47443e-06
-6.34894e-06
-1.13028e-05
2.41884e-07
-1.92247e-05
3.43717e-08
2.57238e-09
4.2912e-08
-1.08043e-05
-1.13525e-05
-2.88163e-08
-9.68206e-06
1.10414e-08
-6.9569e-09
-8.03979e-10
-1.12387e-08
-3.63455e-05
-7.30423e-09
1.65788e-07
-9.67785e-09
8.30521e-08
1.97197e-08
1.28425e-08
4.5861e-06
-2.13028e-08
1.46798e-08
0.000269853
5.88166e-06
-3.07138e-08
8.47727e-09
-3.89742e-09
-7.19605e-06
1.60288e-08
2.71433e-07
-1.52206e-08
3.66772e-06
1.26928e-06
1.35313e-10
8.41123e-09
4.61608e-06
-1.06704e-07
4.17322e-09
-8.66157e-06
-5.51383e-09
-1.18788e-05
-9.64975e-06
-1.58484e-08
-5.86409e-08
-2.24902e-08
1.63591e-05
1.11458e-08
-2.88948e-05
-5.73083e-06
2.60966e-08
-1.19776e-05
-2.81692e-09
-1.55065e-08
-9.70147e-09
9.27607e-10
-1.48334e-05
-1.54365e-06
3.61576e-09
1.60577e-05
1.56842e-08
8.22056e-06
-2.41094e-08
-1.69123e-09
6.03601e-08
2.11697e-08
4.2446e-06
-1.56806e-08
-1.01721e-07
-1.55841e-05
-1.15492e-11
1.19245e-08
5.00891e-06
-1.3162e-08
-3.8264e-08
-2.41409e-09
-9.60681e-06
-1.30277e-05
9.15169e-08
3.53642e-06
7.7501e-09
1.12256e-08
4.97282e-07
4.00801e-10
-1.15575e-09
-9.48342e-06
2.56809e-06
-1.11924e-10
-2.88743e-08
-4.85209e-08
2.37913e-09
3.52392e-08
-2.84282e-08
-1.6727e-05
-1.33665e-06
2.99317e-08
1.34826e-08
3.92185e-06
-3.29802e-05
9.36481e-09
-4.26441e-08
-2.93352e-08
-2.50951e-05
-4.66793e-09
-4.3921e-06
4.41697e-09
-5.27113e-08
-8.13607e-06
4.78263e-06
6.58989e-08
7.78921e-08
7.64863e-09
9.12279e-07
-3.96981e-06
3.89625e-09
8.85981e-08
-4.59287e-08
3.04766e-08
-6.51505e-08
-1.38735e-06
5.10436e-09
1.45116e-08
8.27148e-09
2.14951e-10
1.71651e-09
-6.80178e-06
2.28205e-06
1.57732e-08
1.68985e-07
-2.23421e-08
1.02969e-08
3.39877e-06
-1.42452e-05
-4.45948e-06
-1.8269e-08
1.14389e-11
-9.24502e-08
6.00614e-07
2.50596e-05
-2.12778e-06
-1.11908e-08
4.31181e-08
-2.15727e-08
4.41633e-11
-4.35553e-06
-5.99011e-08
4.4998e-06
-7.81694e-06
-6.8098e-06
-3.03816e-09
3.51059e-07
3.88821e-06
-8.66609e-10
6.68712e-06
-2.88543e-09
-3.02711e-08
-1.20809e-05
-5.67648e-09
-5.80348e-06
-1.54569e-05
3.41345e-09
-1.60342e-05
-8.82577e-10
-2.74199e-08
-2.16859e-06
1.56867e-08
-5.80627e-05
-9.44551e-08
4.19745e-08
2.60524e-08
-2.86534e-08
-7.24883e-06
6.00307e-09
-9.81891e-06
4.83736e-08
-2.04645e-10
4.97208e-09
2.27979e-10
3.00068e-08
-4.29324e-08
-7.6348e-06
1.18667e-07
-2.69926e-06
-3.48342e-08
-1.50625e-07
-1.66963e-08
-6.60782e-10
1.84937e-09
-1.38673e-05
4.46253e-06
7.51058e-09
1.33713e-07
8.89737e-08
-6.54122e-09
-1.06744e-06
-6.37794e-08
-1.31205e-05
3.41911e-05
-7.12782e-06
-2.85423e-05
6.40073e-09
-8.16231e-06
-9.61025e-06
2.40903e-08
-1.33204e-08
-3.26939e-08
-9.01743e-06
-2.17495e-05
-5.18569e-06
-9.44071e-06
-2.6828e-05
-2.29267e-08
6.81726e-08
3.1783e-06
7.24248e-09
-6.75109e-06
5.28376e-06
-6.62239e-06
1.35201e-08
2.0643e-06
-1.23144e-08
-2.16882e-08
5.03747e-05
6.64895e-06
-6.34992e-06
2.1539e-05
-1.23941e-05
-6.12955e-06
4.36347e-08
2.1796e-08
-9.80775e-06
-8.5281e-06
-1.70167e-05
3.41165e-09
-2.61559e-08
-5.54971e-07
-1.64728e-05
2.00523e-08
3.9933e-08
2.96949e-09
-1.10793e-06
4.52029e-06
-4.46027e-06
6.14334e-10
2.94086e-06
-1.75104e-05
-1.85232e-08
1.96819e-07
-1.49681e-05
1.43025e-08
-9.67596e-05
-4.80778e-06
-1.58289e-08
-8.27813e-06
-1.87329e-09
3.27916e-08
-5.03024e-09
-7.65309e-06
-1.67504e-05
-8.86815e-06
9.95017e-08
-5.50509e-06
-8.32386e-05
4.25562e-06
-5.3776e-09
6.16691e-08
-1.53215e-08
-5.50284e-08
6.24558e-09
-6.50162e-08
-9.04321e-09
3.31884e-08
-1.00501e-05
4.9801e-06
4.83789e-08
5.45073e-10
0.000123186
4.82092e-10
-9.77378e-06
-6.85618e-08
-9.46629e-06
-9.96828e-10
-6.21768e-06
2.92986e-08
-3.00464e-06
-1.50243e-05
7.13248e-09
-4.13108e-08
-7.61088e-06
-5.11466e-06
4.4828e-06
-8.47816e-06
-8.46406e-08
-2.26249e-08
2.64142e-09
1.24174e-08
-6.39473e-09
-4.16738e-09
-9.37697e-06
-2.03943e-08
1.15973e-11
-4.77569e-09
6.26346e-06
-4.30207e-08
-1.53288e-05
2.25993e-06
-3.10189e-08
-8.80954e-06
-2.18087e-08
-0.000114225
-3.41465e-07
3.85428e-09
-1.44261e-08
-1.76758e-05
-3.36253e-09
-4.34774e-06
6.42757e-09
-8.36024e-08
7.28437e-09
-4.90609e-06
-7.92131e-07
-1.39169e-08
2.22886e-10
-5.32738e-09
-1.75976e-09
-8.97296e-08
0.000336091
-2.86279e-09
7.606e-09
-2.34723e-11
4.74094e-06
1.76767e-05
-2.65627e-08
2.05093e-08
5.38539e-07
6.3589e-08
-2.60582e-05
-4.09058e-08
-4.35798e-09
6.02986e-09
-1.67606e-05
-2.75953e-10
3.83017e-09
3.99692e-05
4.61698e-06
-1.37442e-05
-7.88544e-06
-2.38905e-08
1.76209e-08
-5.81562e-06
-1.23553e-05
4.89729e-09
-1.95008e-09
-2.55071e-08
1.16766e-06
9.2817e-08
5.1484e-09
-1.26857e-09
1.1496e-06
-3.52444e-09
-1.96694e-05
-4.90467e-08
-1.07214e-06
-1.1937e-05
-2.15777e-10
2.75877e-08
-4.61742e-05
-1.24051e-08
-1.11121e-05
-7.49352e-06
-1.21439e-08
-1.70739e-05
1.49808e-08
4.23847e-08
-5.40931e-09
9.99533e-08
2.19659e-08
-2.57374e-07
-3.11987e-10
5.41115e-09
-5.58329e-06
-2.61361e-05
1.47563e-09
-6.90426e-06
-2.29577e-11
-7.41929e-06
1.8782e-09
3.92192e-06
2.09069e-09
-3.1611e-07
-1.99296e-07
3.60217e-08
-4.10642e-08
-5.54016e-06
6.33284e-06
3.2021e-05
-2.9772e-05
-3.15214e-05
-2.36258e-08
-3.77817e-08
-4.03613e-08
6.46281e-09
4.38045e-06
-3.85865e-08
2.11641e-08
-6.45066e-08
5.61272e-08
-2.74566e-06
-1.08261e-08
-1.25661e-05
-5.39271e-06
-2.74361e-07
-2.1002e-07
-8.94531e-06
3.61441e-08
3.82837e-10
4.86707e-06
9.00027e-09
-2.40358e-08
5.44911e-05
4.19227e-08
3.97941e-06
-1.08638e-08
-1.88166e-05
6.23646e-11
-3.37106e-06
2.71153e-05
-1.06645e-05
1.33088e-05
4.75541e-08
-2.17186e-09
2.55825e-10
-1.59634e-08
2.12003e-08
-8.20811e-06
0.00014041
-7.66652e-06
7.36774e-09
3.6848e-06
-2.91429e-06
1.74262e-07
6.28642e-09
1.73472e-08
-7.99022e-06
-5.13481e-08
-2.40089e-09
1.27397e-08
3.60978e-06
-4.68035e-08
-7.89612e-06
1.50812e-09
-2.9952e-05
-1.15039e-11
2.59269e-08
-3.21984e-08
-1.69626e-08
-1.15191e-05
8.25543e-07
-6.51198e-06
3.93474e-06
3.83069e-09
-7.24089e-09
5.35662e-08
-4.32362e-08
-3.08606e-05
1.23925e-08
1.37697e-09
1.55839e-09
-8.14795e-05
3.01853e-08
5.47369e-07
-7.691e-08
5.28805e-11
-1.2474e-07
-7.24931e-06
-7.6475e-06
-2.43473e-05
2.2944e-08
-7.5768e-06
-8.0758e-06
-9.82246e-06
2.78738e-08
-3.30591e-08
-2.16393e-08
-2.1974e-08
-7.73931e-06
-2.06083e-05
-1.27614e-05
2.5329e-09
1.14351e-06
-2.40638e-08
-6.74411e-08
-3.55888e-05
-1.74584e-05
-3.69958e-06
-1.32793e-05
-9.52555e-08
-3.67881e-07
-3.18864e-08
8.86805e-09
1.51517e-08
3.30999e-06
3.37265e-09
-5.58432e-09
1.04551e-11
-5.7749e-08
-4.76269e-05
-2.25088e-09
6.98887e-05
-3.17105e-05
-3.85414e-08
1.17964e-07
-8.97763e-10
3.08617e-08
-0.000472545
-0.000174064
-6.39547e-09
1.5268e-08
-9.31545e-09
3.24309e-09
2.44887e-08
-2.19747e-05
-5.24439e-07
-1.10299e-08
-1.68025e-08
1.43641e-08
2.6724e-08
-3.50138e-05
2.8699e-05
8.66471e-07
5.74461e-09
-6.91378e-06
2.6399e-08
-3.55573e-08
-4.14108e-06
-1.83202e-08
-9.46256e-06
-1.06765e-09
-1.45346e-05
1.21984e-10
-1.2483e-08
-4.34842e-08
-3.61036e-08
-1.60993e-06
-1.37663e-06
-1.18891e-05
2.11108e-06
1.69441e-08
-2.48011e-06
-7.96986e-09
3.76787e-05
-2.09025e-08
-1.12006e-08
1.80648e-08
9.30156e-10
-3.92246e-09
-9.20771e-09
-4.68042e-06
-8.19149e-06
6.7163e-10
5.24984e-10
-2.59025e-09
-1.53671e-08
1.47667e-10
3.02737e-08
5.34713e-09
-3.18424e-08
-9.02335e-09
-1.32617e-08
-1.00929e-07
-1.16077e-05
-8.19128e-06
-1.76339e-08
3.53681e-09
1.10323e-07
-4.51963e-06
-3.02e-08
-5.2312e-08
-5.18927e-06
-5.5477e-06
1.39435e-08
-9.92185e-06
0.000207167
6.44185e-08
5.45913e-08
2.44469e-06
3.44897e-10
-8.68238e-06
-5.13783e-09
-9.21812e-09
-2.60702e-08
-5.3544e-06
6.44852e-07
3.58018e-06
-6.03899e-08
-2.11747e-08
-2.74131e-05
1.95146e-09
-1.33121e-08
-4.53212e-06
5.39111e-08
3.50313e-09
0.000222548
4.19544e-08
-4.81045e-08
-7.28198e-06
-2.84262e-08
-7.34046e-09
-2.50372e-09
3.37529e-09
-3.44244e-09
2.43363e-07
-0.000240561
-4.59862e-08
2.25552e-06
-1.09892e-07
-3.46981e-07
4.92015e-06
1.02787e-08
-4.71108e-08
-3.24159e-05
1.18846e-07
-3.73717e-06
-4.41833e-09
2.05085e-05
1.1409e-09
-1.37101e-06
2.71575e-06
7.5503e-07
-7.02459e-09
-6.68137e-09
-8.10639e-06
-7.37001e-06
6.77233e-07
6.35218e-09
-7.6674e-06
-2.25115e-06
-6.40651e-10
-3.25576e-08
1.40415e-08
7.60114e-09
2.87995e-06
1.91933e-08
7.25185e-10
-5.94528e-08
-5.86852e-06
2.50571e-06
-5.98903e-07
4.7708e-06
1.15519e-05
9.24554e-09
1.48661e-10
9.5117e-09
1.03927e-07
6.1769e-08
-1.74845e-08
1.70637e-08
-4.99874e-06
-2.71417e-06
-2.30501e-08
-5.46554e-06
1.1469e-06
-1.17234e-07
-5.43077e-09
-7.33246e-06
2.40139e-08
4.88057e-06
4.81841e-08
2.08542e-08
4.80782e-06
-1.91036e-07
-3.37074e-08
-5.4218e-09
-3.37698e-05
-2.81127e-08
-1.05581e-08
-1.33796e-10
7.4948e-05
1.74287e-08
-2.24605e-09
4.31366e-06
-1.13093e-05
4.58359e-07
-4.64456e-09
1.86782e-08
-8.9828e-06
-9.44096e-08
-2.91442e-09
-2.47982e-08
-3.15064e-08
-4.13182e-05
1.87001e-08
-7.34657e-06
-2.07273e-08
-4.21361e-09
6.61457e-09
-6.96282e-09
2.16409e-08
1.94289e-06
-1.04051e-05
-7.55124e-05
2.08202e-11
1.26609e-08
-1.50628e-09
2.07308e-06
2.53115e-08
9.36503e-10
4.45151e-09
1.52103e-08
4.49726e-06
2.52766e-06
-5.17061e-06
-8.39327e-06
-1.12445e-05
-4.95638e-07
3.81878e-08
-1.54577e-05
4.9059e-06
4.54164e-06
-2.22958e-09
-1.4364e-06
1.22507e-09
-1.52773e-08
4.37388e-06
-2.53667e-08
4.43901e-05
-1.18548e-05
1.55447e-08
1.7508e-05
-8.06003e-06
-1.82681e-05
1.91229e-05
-9.77943e-06
9.03359e-07
-8.93467e-06
1.69093e-05
-1.23067e-05
-6.98365e-08
8.49219e-08
5.64841e-09
-8.72431e-09
9.75256e-10
-4.3914e-09
2.37877e-08
1.02019e-06
3.45802e-08
5.06095e-06
-6.12725e-07
5.11591e-05
1.28735e-06
-8.31967e-06
4.38039e-08
1.44157e-06
9.89372e-10
1.27459e-09
3.51558e-07
-1.02477e-10
-3.23426e-08
-1.59949e-08
7.28419e-06
-1.71801e-08
2.30495e-05
1.64524e-05
-9.33688e-08
-2.26728e-08
1.45523e-08
7.02112e-09
-9.49604e-05
-2.88797e-08
-3.76779e-08
4.17565e-08
-1.6964e-09
4.4351e-08
-3.68336e-08
-1.0801e-08
1.57885e-07
6.69955e-10
-9.69246e-06
-6.88958e-09
4.93505e-06
-7.3115e-06
-7.8611e-08
6.52582e-10
-4.28521e-06
4.85313e-07
-9.76027e-10
-3.73899e-09
-1.67069e-09
-1.47788e-08
-5.29929e-06
-1.14129e-05
1.95872e-09
-6.05007e-06
-5.6938e-06
-4.44387e-09
3.12637e-06
6.99423e-06
-1.92211e-08
3.82397e-08
-2.04571e-08
1.15689e-08
1.77389e-08
-1.17956e-05
-9.85769e-08
5.25443e-06
4.37413e-06
2.07042e-09
1.73251e-08
-5.98126e-06
1.02587e-08
1.0469e-08
4.5011e-09
-3.34231e-08
-7.07719e-06
5.46215e-06
8.75832e-09
-3.67158e-08
-1.01866e-05
5.34822e-06
-1.00631e-05
3.246e-05
-1.11992e-08
-1.58675e-08
-5.26599e-08
-3.49517e-06
-3.60227e-07
-6.85855e-06
-2.776e-07
-2.86206e-08
-4.09701e-08
-4.74871e-08
1.52479e-09
1.15056e-05
1.42319e-08
-4.49949e-10
-2.77744e-05
6.0361e-06
-6.56393e-06
5.04455e-09
-1.2306e-06
-3.49565e-08
1.81035e-05
5.18608e-08
-8.40289e-08
4.35951e-09
4.27823e-09
5.50382e-09
3.6938e-06
-7.34467e-06
-3.68132e-08
-1.96697e-06
1.3638e-08
5.08351e-09
-6.1052e-08
1.10768e-08
4.49327e-06
5.64201e-10
-1.85132e-09
-3.11584e-06
-1.68594e-09
5.39334e-09
1.24576e-07
5.81374e-06
1.45746e-07
-1.78879e-07
1.64355e-08
2.57365e-06
-1.35134e-08
-3.23914e-08
9.44202e-09
7.40333e-05
-4.59565e-08
5.23121e-09
1.92449e-05
6.40087e-08
-5.63168e-10
-4.93997e-08
-1.64251e-10
1.06286e-09
3.20804e-06
5.26484e-07
-8.18686e-06
4.47835e-06
7.33642e-10
1.89855e-05
8.88301e-08
-8.12017e-06
4.14743e-06
-1.81937e-08
8.6793e-08
6.12046e-06
-4.51537e-08
-4.93384e-08
1.87797e-06
4.2759e-06
-1.30261e-05
-6.91232e-06
-1.04058e-09
-9.11805e-06
-7.24418e-06
-3.26054e-05
2.33467e-08
-1.52951e-05
1.34184e-07
1.30786e-07
-8.90183e-05
-1.57062e-05
-1.13859e-05
3.10246e-05
-3.31964e-08
-6.69359e-06
5.75272e-08
1.01267e-05
-6.47209e-08
-3.94367e-09
3.59382e-09
-4.50817e-06
-2.74904e-06
9.16821e-09
4.93805e-05
5.57696e-06
-1.37478e-05
-2.70804e-08
5.83233e-10
-4.75357e-06
-9.73217e-06
1.28499e-07
-1.42889e-08
-2.82439e-07
-6.95344e-06
4.02246e-06
1.62568e-08
-3.33735e-08
-2.42709e-05
-7.81061e-06
6.66994e-06
1.42382e-07
5.75474e-09
-1.49432e-05
4.81926e-06
-1.62692e-05
-2.20528e-08
-1.74201e-07
2.26576e-08
-2.01232e-08
-5.18488e-07
1.88806e-08
-9.58689e-07
-6.45776e-06
4.69122e-06
-2.98227e-09
-1.92494e-08
5.36583e-06
-1.45441e-08
-1.5257e-05
4.24319e-06
1.06885e-06
1.94222e-08
-2.36794e-07
-5.44086e-08
-1.12866e-05
-2.17362e-05
4.86542e-09
1.18653e-10
-2.14207e-08
2.43666e-05
3.3863e-09
8.78945e-09
-8.74346e-09
5.06067e-10
-2.37132e-05
-4.66402e-07
4.62832e-06
-2.45972e-06
-9.55607e-06
-3.62073e-09
-1.23585e-05
1.68421e-08
1.25656e-08
1.52946e-08
-7.54239e-06
-7.53593e-08
2.31359e-08
-6.88067e-08
5.92959e-09
-5.53086e-07
5.88529e-08
-6.18523e-08
-1.7825e-08
-1.64362e-08
-5.81352e-06
2.39982e-08
-9.30227e-06
-6.02079e-08
-4.93611e-08
-1.38493e-08
9.48104e-09
-7.19903e-06
1.98214e-07
3.72355e-08
5.10007e-09
5.55824e-06
-2.31067e-08
-1.09257e-08
1.12029e-07
3.68863e-08
-1.27974e-08
-5.40467e-09
5.1319e-06
-8.4141e-08
5.40314e-09
-2.56177e-08
-2.85292e-08
-8.66905e-06
-3.76434e-08
-5.90159e-05
-2.82956e-07
-4.33807e-09
9.01655e-08
4.40875e-06
1.4556e-06
-0.00011689
-6.42973e-06
-3.06702e-08
6.50682e-06
8.75692e-09
-9.44148e-08
-4.0314e-08
2.01176e-06
-0.000170245
2.21977e-08
-6.92502e-05
-2.42385e-06
8.6212e-06
-4.40105e-07
-1.89583e-05
-3.04679e-08
-8.28119e-09
1.36418e-08
5.0929e-06
-3.18771e-07
-8.26889e-06
5.64185e-06
-2.80407e-05
-1.44435e-08
-4.91066e-06
-1.06629e-08
3.73745e-08
-3.96132e-08
9.60159e-08
3.89704e-05
-1.74245e-10
1.39435e-08
6.03735e-05
-9.56807e-06
-3.94272e-08
3.1808e-06
-7.58595e-10
-9.9476e-09
-1.89668e-08
-5.26143e-06
3.10278e-07
-1.02157e-05
-1.71189e-08
3.38835e-07
1.03849e-07
-5.01161e-08
-3.45523e-06
1.17947e-08
-1.51615e-08
-5.74992e-08
-1.61716e-05
-1.26444e-05
5.06675e-06
-1.1651e-05
-1.49881e-05
3.63099e-06
-8.16519e-06
-5.97692e-06
7.14668e-08
-0.000477989
-2.86619e-06
1.54311e-08
2.24394e-05
2.46158e-06
-1.27673e-05
8.805e-08
3.66386e-05
-1.89889e-07
-1.96111e-08
1.88036e-08
-7.61464e-06
2.4754e-06
2.30374e-09
-6.85382e-06
-3.85925e-06
1.93097e-09
1.73493e-09
1.04517e-05
-7.43757e-06
-8.52227e-09
-7.37699e-06
-1.31058e-09
-5.05137e-08
-5.60672e-06
-5.07208e-09
-6.83754e-06
-8.71007e-06
2.79238e-09
5.51764e-07
-2.98447e-06
-1.39566e-08
8.8433e-07
-1.26707e-05
1.64303e-06
-2.98247e-09
6.92983e-10
4.79084e-06
6.31602e-06
-6.30594e-09
2.33594e-05
-7.42953e-09
-0.00021339
-1.04634e-06
-7.90866e-06
-8.40416e-09
-6.96155e-08
-6.67499e-08
-2.20838e-08
-9.95e-09
6.95343e-06
-1.16642e-07
-0.000104206
-9.75427e-08
-1.29945e-09
9.0047e-08
-5.597e-09
-8.67969e-05
3.30816e-08
2.616e-05
4.36507e-06
-1.18442e-05
3.90127e-08
-1.27909e-05
4.41437e-09
1.57191e-08
-8.31928e-06
-2.79829e-08
-3.68945e-08
7.93708e-06
1.0543e-08
-1.51068e-08
-1.39279e-08
-1.15582e-05
-1.15165e-05
-1.45528e-08
2.44722e-09
-9.09152e-06
-1.7692e-05
-8.31485e-09
-1.54209e-08
3.341e-08
2.23498e-06
1.8126e-07
-3.76416e-09
-5.06467e-08
1.70621e-08
6.10954e-06
1.88119e-08
-3.85417e-07
-7.9314e-06
-4.74347e-09
-1.22271e-05
-3.37184e-08
-9.48763e-09
-2.69013e-08
3.36155e-06
-2.81961e-07
-1.05339e-05
-4.11149e-05
-8.58667e-06
-5.49702e-09
-9.56515e-06
5.0499e-05
3.32172e-08
0.000123627
9.62058e-08
-6.64467e-06
7.371e-09
-1.67069e-05
4.20986e-09
-6.24061e-06
1.25837e-08
-7.88693e-06
-7.88729e-06
-7.78096e-08
-2.81636e-08
-1.10147e-09
-1.32373e-08
-2.02008e-08
6.50602e-09
-8.06647e-09
-5.24542e-08
8.644e-10
-9.17494e-06
3.22104e-05
-4.48386e-08
-7.30348e-06
-7.96924e-06
-8.7381e-06
-3.85961e-06
-3.99631e-08
-1.59598e-05
-4.7348e-10
3.04071e-06
-3.05919e-07
-1.35433e-05
2.03595e-05
-8.42175e-06
-1.25097e-08
-1.20548e-08
1.7113e-08
7.69272e-09
-1.11972e-08
-8.03286e-06
1.6906e-09
-7.4235e-06
-6.71655e-06
3.28488e-08
-3.47702e-09
1.78288e-07
-7.41632e-08
-4.33216e-09
1.87776e-08
-4.46962e-08
-5.79081e-07
-8.05658e-06
-6.3002e-06
3.25457e-08
-1.0484e-08
-7.84172e-06
5.37408e-08
-1.33588e-05
6.65343e-09
-6.46956e-07
-8.31299e-06
-7.50073e-06
-3.65227e-05
-9.52223e-09
-2.17482e-05
-4.683e-08
2.76276e-09
-8.09735e-06
-1.24016e-05
1.30774e-09
-1.84247e-08
-5.99437e-06
-1.59851e-05
1.25677e-07
-8.23467e-06
1.10602e-07
-3.13525e-08
3.19413e-08
-9.79469e-06
-2.43567e-09
6.1379e-10
-6.34639e-09
-3.47467e-10
-5.01859e-09
-1.48788e-09
4.85074e-07
-3.03687e-09
-7.35201e-10
6.76787e-08
-9.22277e-06
0.000144506
6.17483e-09
1.12549e-07
-2.91588e-07
-3.91021e-10
4.17906e-05
5.46078e-06
-1.79231e-08
-5.72838e-06
1.80825e-09
-1.55995e-05
-6.12991e-09
-1.61258e-05
4.13519e-06
2.94915e-08
0.000183044
-4.50024e-06
-7.2275e-09
-2.04913e-07
-4.80664e-08
4.06339e-08
-1.36434e-05
-4.31671e-09
-9.26251e-06
1.47266e-08
5.37645e-06
7.35564e-12
-3.4626e-08
-2.02283e-08
1.99051e-08
8.35185e-06
2.93117e-11
3.64117e-07
-5.327e-06
5.22185e-06
-7.20065e-06
2.70254e-09
-2.18375e-07
3.40604e-09
3.56596e-06
-5.7856e-08
-5.54701e-07
2.26371e-09
5.91839e-08
3.81162e-06
-7.89917e-06
-2.53444e-08
-7.60834e-06
-3.86754e-09
-4.99596e-05
-3.21342e-08
-7.69006e-06
-3.37233e-06
-6.66089e-06
-0.000496797
-8.17812e-09
8.3262e-09
-2.44344e-08
2.31527e-06
7.76934e-08
-4.18879e-08
1.3458e-08
1.06189e-07
4.26721e-05
-8.3788e-06
-2.5818e-05
-1.88655e-05
4.4762e-06
1.2361e-07
-1.78361e-05
5.16442e-07
-6.83311e-06
-7.55575e-06
6.46779e-09
-4.69066e-06
-6.61006e-06
0.000210684
8.93503e-08
-4.26648e-08
1.07158e-06
-1.64079e-05
1.59925e-09
-3.47313e-05
-1.7912e-08
-9.08305e-10
1.38252e-09
3.01087e-05
-8.33846e-05
-4.5586e-08
1.12834e-08
-4.2861e-08
-1.13616e-05
-8.2013e-06
2.12005e-09
-1.31229e-06
-8.27681e-06
4.8022e-10
4.98272e-06
4.70328e-07
-2.31653e-06
-1.34299e-08
-1.93241e-08
-2.59289e-07
2.30294e-05
-1.00871e-05
-2.4508e-08
-1.88234e-08
3.71551e-10
-1.32107e-08
4.00601e-08
1.00042e-07
-5.63879e-06
-2.10443e-07
9.94745e-06
1.68423e-08
-7.97923e-06
-4.65521e-09
6.24825e-09
1.36996e-05
-2.49712e-08
3.41525e-08
-1.68193e-08
8.37418e-09
6.23712e-05
-1.63025e-09
-1.60899e-08
-8.26689e-06
-4.3858e-08
4.18665e-06
7.35567e-06
-6.17556e-09
4.78281e-06
-6.03496e-09
-2.66635e-08
9.604e-09
4.76353e-08
-6.35303e-07
-2.90025e-08
7.34934e-08
-0.00010534
-7.39366e-08
1.03056e-08
-6.15808e-06
-3.43765e-05
3.41463e-05
-6.32416e-06
-9.10309e-09
-3.58348e-08
-0.000133092
-7.46921e-08
1.17609e-05
-1.57436e-08
3.90896e-09
-4.52562e-06
-5.65113e-07
-2.30023e-05
-1.1924e-05
-2.53246e-08
-1.74349e-07
9.13438e-09
1.51035e-08
-2.15053e-11
4.08875e-09
-1.68887e-08
-3.60777e-08
-8.20013e-06
-2.41155e-08
-9.53547e-06
1.29813e-05
-1.74227e-06
-1.33402e-05
8.75817e-09
-1.01113e-06
-1.75691e-05
9.04732e-09
1.87418e-08
-1.78174e-09
-8.51267e-06
-4.81946e-08
-1.14156e-05
4.96048e-05
3.67425e-08
-2.51202e-08
-2.57606e-08
-9.80171e-05
6.36334e-05
-3.0613e-10
-6.00041e-05
5.8368e-09
-3.51402e-10
-1.13354e-05
1.94357e-10
6.95022e-08
2.96253e-05
1.84543e-08
3.54131e-08
1.04341e-08
9.15942e-09
-5.95988e-06
-1.02088e-08
1.01164e-07
5.58509e-08
-2.55796e-05
5.74373e-08
-7.51266e-06
5.47201e-07