/*--------------------------------*- C++ -*----------------------------------*\
| =========                 |                                                 |
| \\      /  F ield         | OpenFOAM: The Open Source CFD Toolbox           |
|  \\    /   O peration     | Version:  v2012                                 |
|   \\  /    A nd           | Website:  www.openfoam.com                      |
|    \\/     M anipulation  |                                                 |
\*---------------------------------------------------------------------------*/
FoamFile
{
    version     2.0;
    format      ascii;
    class       surfaceScalarField;
    location    "100";
    object      phi_0;
}
// * * * * * * * * * * * * * * * * * * * * * * * * * * * * * * * * * * * * * //

dimensions      [0 3 -1 0 0 0 0];
oriented        oriented;


internalField   nonuniform List<scalar> 
20823
(
0.723956
-0.255323
-0.468633
-0.0210617
0.0662855
-0.0452237
0.495465
-0.602852
0.107386
0.02684
0.138597
-0.165437
0.115964
-0.141216
0.0252522
-0.052745
0.161519
-0.108774
0.151251
0.0583927
-0.209644
0.012978
-0.0137193
0.000741339
0.398877
-0.309224
-0.0896538
-0.467013
0.4372
0.0298132
-0.0107214
-0.0835857
0.0943072
-0.000566282
0.00762769
-0.0070614
-0.0018263
0.0456168
-0.0437905
0.483545
0.0543634
-0.537909
-0.097378
0.246389
-0.149011
0.010931
-0.477944
0.281081
-0.556858
0.275778
0.102171
-0.137295
0.035124
0.00562246
-0.00238963
-0.00323283
0.477232
0.175874
-0.653106
0.0661871
-0.258854
0.192667
0.00346004
0.000128652
-0.00358869
-0.00624225
-0.0159526
0.0221948
-0.211048
0.188297
0.0227509
0.00149955
0.00104993
-0.00254948
-0.12357
0.275465
-0.151895
0.118585
-0.160677
0.0420923
-0.0346912
0.423865
-0.389173
0.0184888
-0.00312426
-0.0153646
-0.067145
0.0603793
0.00676562
0.318955
0.405002
-0.421301
-0.0670361
0.488337
-0.278627
0.128321
0.150306
0.00127816
0.0043443
-0.381421
0.317897
0.0635247
-0.336001
-0.000831933
0.336833
0.106491
-0.230062
-0.0747359
0.551968
0.185158
0.0846808
-0.269839
0.253654
-0.016539
-0.237115
0.00710957
-0.155508
0.148398
0.204308
-0.240264
0.0359558
0.00110739
-0.00456531
0.00345792
0.0105686
0.000594933
-0.0111636
0.318849
-0.397477
0.0786278
-0.00125307
0.00275262
-0.203774
0.269961
0.00351309
0.200795
-0.0304806
0.148663
-0.118182
0.00763701
-0.00795401
0.000316992
-0.0722896
0.0951295
-0.0228399
0.155338
-0.0463521
-0.108986
-0.000274368
0.00688064
-0.00660627
-0.00231664
-0.00333213
0.00564877
0.164628
-0.11377
-0.0508582
0.250759
0.00289475
0.0269379
-0.0274245
0.000486565
-0.372912
0.338221
0.0736958
0.133986
-0.207682
0.359792
-0.273312
-0.0864803
-0.11548
0.0849992
0.0941981
-0.292819
0.198621
-0.0362069
0.0143271
0.0218798
0.329474
-0.203105
-0.126369
-0.34199
0.0946774
0.247313
0.0658806
0.0275272
-0.0934078
0.0793208
-0.0967092
0.0173884
0.126219
-0.0240481
0.41439
-0.529164
0.114774
-0.33531
-0.0461112
0.230335
-0.161801
-0.0685336
-0.384478
0.351359
0.0331193
0.0312976
-0.0375398
0.0188824
-0.0212513
0.00236884
0.0981045
-0.0187837
0.0250035
-0.361005
0.01361
-0.0858996
0.319299
-0.377219
0.05792
-0.3972
0.0146763
0.382524
-0.0232014
0.141786
0.177416
-0.130752
-0.0466641
0.0016006
-0.001993
0.000392396
-0.00192462
0.00303201
-0.0012575
-0.00254225
0.00379975
-0.0454252
0.309124
-0.263699
-0.167655
0.261853
0.122227
-0.219605
-0.215695
0.496775
0.000178061
0.141484
-0.141662
0.00115434
-0.00152254
0.000368202
0.248318
-0.307652
0.059333
0.0936873
0.24938
-0.343067
-0.110804
0.00285158
0.107952
-0.0129075
0.0129075
0.0125905
-0.013274
0.000683431
0.0203134
-0.1367
0.116387
-0.0866119
-0.255378
0.0986241
-0.0327435
0.0168608
-0.0142181
-0.00264272
0.558997
-0.25724
-0.301757
-0.215272
0.1501
0.0651724
0.000324874
0.0102438
-0.312345
0.106264
0.206081
0.610534
-0.115069
-0.000574736
-0.000369559
0.000944295
0.0018184
0.0886618
-0.0904802
0.0564098
0.0976646
-0.154074
-0.0277326
-0.0141359
0.0418684
-0.11558
0.115758
0.0121127
0.00676975
-0.344042
0.455601
-0.111559
-0.419969
0.460052
-0.0400824
-0.0645653
0.446889
-0.382323
-0.0100379
0.00976354
-0.474252
0.409687
0.00639009
-0.00764759
0.0107277
-0.0114644
0.000736713
-0.209891
-0.102454
-0.108883
-0.00308992
0.111973
0.0188716
-0.0217432
0.00287166
-0.311833
0.251362
0.0604708
-0.0208182
-0.0328923
0.302724
-0.183234
-0.119491
0.064864
-0.484833
-0.0189851
-0.00226616
-0.0502952
0.201547
0.00350593
0.0251507
-0.0286566
0.112682
0.0045962
-0.117278
0.475182
0.00836329
-0.0495724
-0.1657
-0.0413205
0.00682891
0.0344916
0.156651
-0.149511
-0.00713924
-0.140509
0.0250292
0.0092124
0.00142089
-0.0106333
-0.11157
0.113191
-0.00162155
-0.445232
0.499595
0.0131719
-0.000147125
-0.0130248
-0.00427085
0.00195422
-0.156821
-0.0215226
0.178344
0.126015
-0.122075
-0.00393994
0.0030439
-0.0912156
0.0881717
-0.0206908
0.0186306
0.00206024
0.0397724
0.12621
-0.165982
-0.0470491
0.0193165
0.0655525
-0.462752
0.61504
-0.604286
-0.0107542
0.00395424
-0.00668213
0.00272788
-0.0080153
0.100956
-0.0929402
0.267487
-0.52281
-0.155211
0.0970757
0.0581352
-0.28238
-0.266562
0.548941
-0.130859
0.0219755
0.29312
-0.107962
0.0228336
-0.0436518
0.0193057
0.0834213
-0.102727
-0.0534012
-0.331077
-0.00198643
0.0030445
-0.00105808
-0.176046
0.542398
-0.366352
-0.157698
-0.0702189
0.227917
-0.0800035
0.0945693
-0.0145658
0.0008066
0.0121714
0.0325369
-0.114982
0.0824451
0.283537
-0.155029
-0.128507
-0.0576887
-0.153359
0.000761789
-0.00538344
0.00462165
0.195031
-0.290461
0.0954301
0.0230852
-0.0109725
-0.0962856
0.208544
-0.112259
0.0125992
-0.00187154
0.395535
-0.303882
-0.0916527
0.0147888
-0.126359
-0.0475655
0.244941
-0.197376
-0.034383
-0.120828
-0.0944187
0.114732
-0.108475
0.164885
0.0513771
0.0922487
-0.143626
0.292261
0.190069
-0.482331
-0.568165
0.446268
0.121897
0.0815403
-0.526772
0.0077004
0.0107884
0.0304957
0.0414062
-0.0719019
0.133549
-0.00753465
-0.512315
0.297458
0.214858
0.0220066
-0.00313499
-0.538302
-0.0261815
0.564483
0.264098
-0.0157797
-0.269548
0.224123
-0.537573
0.426994
0.110579
0.00795952
-0.00400528
0.00880753
0.100086
-0.108894
0.104104
-0.121252
0.0171487
-0.285092
-0.0267409
-0.0272249
0.0044458
0.0227791
-0.255511
0.349198
0.115665
-0.273364
-0.00669997
-0.0583636
0.345072
-0.286709
-0.0300532
0.0282269
-0.04273
0.120754
-0.0780237
-0.467457
0.390906
0.0765509
-0.0175424
0.0210483
0.3251
-0.415233
0.090133
0.118661
-0.130551
0.0118897
0.22118
0.177697
-0.00498078
-0.0165949
0.0215757
-0.0535522
-0.0135928
0.344303
-0.33483
0.296311
0.0385189
-0.0021742
-0.0185166
-0.0327528
-0.00856774
-0.140451
0.180224
0.416085
-0.329695
-0.0863903
-0.0834853
0.111012
-0.0821823
0.401031
0.289012
-0.215915
-0.0730963
0.239513
-0.297877
-0.123707
0.112058
0.0116492
-0.103398
0.105217
-0.014909
-0.0877599
0.102669
0.284193
-0.238569
-0.0456245
0.00734559
0.000291425
-0.00242746
0.00347738
0.301365
0.257632
-0.133705
0.17708
-0.0433749
-0.308502
0.610536
-0.302034
-0.117822
0.10807
0.00975194
0.0748496
-0.00628237
-0.0685673
0.0478924
0.236301
-0.00119322
0.0104056
0.27611
-0.0651122
-0.210998
-0.427748
0.273777
0.153971
0.155558
0.173917
-0.103576
0.10662
-0.00619779
-0.0231307
0.0293285
0.293619
-0.0985877
-0.039248
0.515731
-0.476483
-0.0307137
0.0278589
0.00285481
-0.262625
-0.165123
-0.239377
-0.0707648
0.310142
0.107262
-0.22655
0.119288
-0.167744
0.339958
-0.172214
0.108153
-0.116169
0.0764343
-0.186671
0.110237
0.012409
0.000762927
-0.194506
0.14694
0.0856687
-0.00325945
-0.0824093
-0.27378
-0.238535
0.000140645
-0.0116423
0.0115017
-0.00939282
0.196034
-0.262221
0.0661871
-0.0005698
-0.107655
0.108224
0.018101
0.0307911
0.351652
-0.382443
-0.111145
-0.0125618
-0.157123
0.253517
-0.0963939
-0.103813
0.123119
-0.546488
0.513423
0.0330657
0.116659
0.0020026
-0.583391
0.599553
-0.0161615
-0.0116012
-0.0252553
0.0368565
-0.0227831
-0.51479
0.00835237
-0.00891865
0.683632
-0.464002
-0.21963
-0.263891
0.367916
-0.104025
0.526675
-0.112285
0.388575
-0.0531177
-0.335457
0.141987
-0.13318
-0.110323
0.111658
-0.00133548
-0.17312
-0.0493932
0.222513
0.140083
-0.132974
0.174942
-0.308765
0.133822
-0.0179987
-0.449459
-0.0721758
0.104713
0.0908109
-0.119614
0.028803
0.0765177
-0.119248
0.370641
0.112888
-0.483529
0.315122
0.295412
-0.371858
-0.124981
0.496839
-0.00771134
0.0118591
-0.00414779
-0.00919475
-0.374879
0.550753
-0.275718
0.374993
-0.0992749
-0.00569687
-0.0250168
-0.000756567
-0.00581863
0.00657519
0.514589
-0.161867
-0.352722
0.0236311
-0.0264808
0.00284963
0.203065
-0.0958027
-0.140008
0.166848
0.404007
-0.312071
-0.0919361
0.215343
-0.105422
-0.109921
0.200222
-0.575101
0.131193
0.0241454
-0.0990096
0.46965
0.0333545
-0.0333841
2.96501e-05
0.222927
-0.203445
-0.0194822
-0.0940799
0.0789663
0.0151137
0.117604
-0.026793
-0.170706
0.0138845
0.0368571
-0.0491802
0.0123231
-0.0508049
0.0813007
-0.114011
0.00504048
0.10897
-0.0065741
0.00933805
-0.00276395
0.0800991
-0.176385
-0.196517
0.280038
-0.0835209
-0.00142093
0.0250521
-0.0969696
-0.391788
0.488757
-0.17702
0.0433155
-0.17558
0.127943
0.0476376
-0.0825027
-0.0724972
0.155
-0.487318
0.143276
-0.0225301
-0.109287
0.131817
-0.0111831
-0.103799
-0.515838
0.143981
-0.0163969
0.00478741
0.0116095
-0.000940896
0.0025415
-0.011726
0.0573428
-0.166798
0.084295
0.462793
0.17072
-0.633513
0.0111892
0.00140136
-0.207505
0.0370077
0.170497
0.0910417
0.185069
0.0838681
0.0888843
-0.172752
-0.29878
0.12566
-0.049937
0.404868
-0.354931
0.199741
0.0892708
0.305097
-0.21042
0.0987205
-0.184181
0.0854606
0.107392
0.398166
-0.505558
-0.131621
0.452719
-0.321097
0.0206216
-0.0256023
0.0138322
0.00497515
-0.0188073
0.052974
-0.387804
-0.451822
-0.0946665
-0.0128674
-0.000769821
0.0136372
-0.29952
0.0684278
0.231092
-0.520195
-0.018107
-0.408236
-0.177753
0.585989
-0.162435
0.254886
-0.092451
-0.060507
0.0624392
-0.0019322
-0.361206
0.193462
0.00167344
-0.0139705
0.012297
-0.000657969
0.00181231
0.135648
0.167076
-6.29583e-05
0.00068371
-0.000620752
0.231688
0.0734089
0.0663451
-0.11909
0.010195
-0.165703
0.17749
0.0979753
-0.0112107
-0.0385428
0.0497535
0.43881
-0.408019
0.000342861
-0.00158443
0.00124157
-0.0874806
-0.0648259
0.152306
-0.325284
0.390836
-0.119662
-0.00346758
0.123129
-0.0992628
0.348642
-0.262947
0.105824
-0.395264
0.325165
0.0700986
0.0824585
-0.09318
-0.0142015
0.000503656
0.0136979
-0.0143916
-0.0199467
0.0343383
0.30693
0.0631704
-0.3701
0.0370926
-0.0486938
0.334119
-0.0404996
-0.110672
0.0947035
0.0159682
0.310539
0.373093
-0.0323708
0.333735
0.020251
-0.139913
0.00884082
0.453952
-0.0108989
0.00318761
0.0526956
-0.0158385
-0.0246115
0.0330706
-0.00845905
-0.4006
0.124882
-0.191558
0.276239
0.146152
0.0691916
0.327723
-0.37766
0.0787317
0.00693705
0.008733
-0.109128
0.100395
0.33906
-0.106503
-0.232557
-0.00155585
0.00149289
0.172133
-0.073413
0.336945
-0.369316
-0.484997
0.308951
-0.0825929
0.142173
-0.260842
0.118669
0.00206767
-0.00864177
-0.0884278
0.00160402
0.0868238
0.106601
-0.12151
-0.134168
0.135137
-0.000968202
0.513163
-0.151363
-0.3618
-0.0128463
0.0402
-0.0273537
-0.00552422
0.00890163
-0.00337741
0.24707
-0.25535
0.00828041
-0.101436
0.0981768
0.374023
-0.508751
0.134728
0.017394
-0.148907
0.131513
-0.0753952
0.0733827
0.00201249
0.00317681
-0.00393338
-0.137689
0.111498
0.0261904
0.0159728
0.0154733
-0.0314461
-0.310056
-0.384342
0.491734
-0.00253387
0.00054744
0.689219
-0.291433
-0.397786
-0.0846467
-0.0167895
0.0315801
-0.0260418
-0.0055383
-0.0704105
0.10039
-0.0299794
0.352909
-0.218806
-0.134104
0.0659822
0.121962
-0.187944
0.00511943
0.0260361
-0.0311555
-0.376522
0.112631
-0.0254807
0.247919
0.0861997
0.118628
-0.0472755
-0.0713524
0.322779
0.247856
-0.570634
0.00171664
0.0151442
0.0215673
-0.0178242
-0.00374307
0.277544
-0.102601
0.232162
0.0748976
-0.30706
-0.097076
-0.0135958
0.0875289
0.0950917
-0.182621
0.274991
0.0367916
-0.311782
-0.00652811
0.000221397
0.00630672
0.00125526
-0.00159072
0.000335466
0.0691733
-0.304457
-0.000174912
0.0141477
-0.0139728
0.00704555
0.000300034
-0.110151
0.0593464
-0.216836
-0.0908154
0.338231
-0.553926
0.420735
-0.0128234
-0.407911
0.0063933
0.38669
-0.393084
0.0162974
-0.0340773
0.0177799
-0.0673788
-0.164881
0.23226
-0.089429
-0.0114838
-0.0157411
-0.0550029
-0.0055041
0.146861
-0.0954839
0.107268
-0.107838
0.232572
0.0510991
-0.283671
-0.0189881
-0.00427071
0.0232588
-0.039053
0.0732533
-0.0342004
-0.546053
0.137817
0.00215185
-0.00180899
0.0168476
0.0976732
-0.114521
-0.0103057
-0.0012379
0.0115436
-0.0841304
0.111105
-0.0269747
0.000638823
-0.0890666
0.083135
-0.322512
-0.0115295
0.0103657
0.00116381
-0.061336
0.336327
0.00331696
0.0182504
-0.163767
-0.0789454
0.242712
0.00198878
-0.00073352
-0.0131715
-0.0465333
0.0597048
-0.597123
0.288621
0.0202156
-0.00638341
0.162055
0.197737
-0.0633782
0.0423165
-0.0154905
0.00620428
0.0092862
0.0407158
-0.0519266
-0.000457906
-0.0100066
0.0104645
-0.0824755
-0.0116044
-0.0265291
-0.0033394
0.0298685
-0.0104807
-0.0191669
-0.0930727
0.378074
-0.00471158
-0.0115579
0.0162695
-0.0387474
-0.134681
0.0472003
0.520953
-0.414481
-0.106472
0.0164501
-0.100581
-0.0404385
0.209079
-0.168641
0.311534
-0.0789619
0.00324069
0.071609
-0.0296092
-0.104559
0.249043
-0.0019732
0.167665
-0.00473004
-0.162935
-0.0956707
0.0329815
0.0626891
0.093012
-0.0868701
-0.00614195
0.0332021
-0.0475936
0.170628
-0.0941934
0.0340237
-0.000669225
-0.0228353
0.0279547
0.10648
-0.268916
-0.00855594
0.0102294
0.365772
-0.480814
0.115043
0.365104
0.15585
0.0890833
0.0295446
-0.210552
0.548783
-0.128988
0.119694
0.00929365
-0.0730594
0.00756626
0.0654932
0.511695
0.150049
-0.661744
0.316967
0.0359427
0.181228
0.0416996
-0.0255019
0.0748102
-0.0493082
0.402736
-0.167705
0.0354015
0.132304
0.524013
-0.158241
0.00537341
-0.345259
0.339886
-0.412055
0.0769659
0.335089
-0.546679
0.321634
0.225045
0.111398
0.00456606
0.105374
-0.0100208
-0.0653743
-0.0801012
0.0398688
0.0402324
0.121753
0.0397657
0.475332
-0.51458
0.00417836
-0.000718315
-0.0134871
0.0202752
-0.0067881
0.00132982
-0.297991
-0.248688
0.153347
-0.144695
-0.00865194
0.129048
0.0242989
-0.194388
-0.408076
0.354674
-0.043446
0.305372
-0.261926
0.0288513
-0.0350491
0.103348
-0.0887304
-0.0146177
-0.0149597
0.000741655
-0.247333
0.338058
-0.0907248
0.172753
-0.0990568
0.00185935
-0.00221339
0.000354032
-0.0660725
0.153601
0.122076
-0.104809
-0.0172669
-0.110568
0.0401577
-0.493099
0.426063
0.116055
-0.117217
0.00116228
0.00593681
-0.00690924
0.000972427
-0.179935
-0.00089408
0.180829
0.0033979
-0.0926748
0.0892769
-0.10595
0.116258
-0.0103089
-0.0057847
-0.000743408
-0.0720969
-0.120467
0.204335
0.0147292
-0.1016
0.0868711
0.113907
-0.105174
-0.170336
0.240666
-0.0703294
0.0166377
-0.0213493
0.00128197
-0.00382423
0.210195
-0.127953
-0.0822421
0.515697
-0.00400184
-0.103863
0.0108729
0.0929903
0.00302041
-0.0413692
0.0383487
-0.0182245
0.028933
-0.0107085
0.000631442
0.000375883
-0.00100733
-0.378617
-0.189548
-0.232811
0.0690448
0.00415366
0.0369231
-0.0410768
-0.204208
0.0242732
0.408777
0.280441
0.0877348
-0.0162903
-0.0714445
-0.18249
-0.050321
0.00536671
-0.00488858
-0.000478127
0.0275998
-0.00430645
0.333718
-0.51783
0.184112
-0.00662643
-0.00886405
0.1075
0.107254
-0.214754
-0.215962
0.175524
0.0256016
0.44973
0.172896
-0.391702
0.00464915
-0.00459693
-5.22159e-05
-0.127179
0.0680823
0.0196525
0.261703
-0.11953
0.0324682
-0.0453145
0.34007
0.250765
-0.590835
-0.00531013
-0.0275435
0.0328536
0.0883778
0.141957
-0.00798975
0.00556229
0.00630519
-0.0201289
0.0138237
-0.214163
0.305204
0.0369424
-0.0353864
-0.00155598
0.00836535
-0.334648
-0.00437978
0.000593843
0.00378593
0.0270771
-0.0240567
0.313036
-0.523587
0.00709595
-0.00633416
0.114256
0.0836503
-0.197906
0.00514346
-0.255623
0.175747
-0.16976
0.420977
-0.251216
-0.0232637
0.00427551
0.0530113
0.111617
0.345085
-0.100175
-0.24491
-0.121966
0.0994359
-0.0165889
0.0213916
-0.00480272
0.011247
0.0550385
0.51079
0.230149
0.114936
-0.107778
0.11324
-0.00546246
-0.14755
0.00285506
0.0283384
-0.00140045
0.129169
0.148789
-0.146899
-0.00189034
0.107828
0.00843068
-0.00610658
-0.105921
0.112028
-0.0683993
-0.0688958
0.168971
-0.35485
0.185879
0.0113856
-0.0115651
0.000179514
-0.0480383
-0.00804167
0.05608
0.158564
-0.14117
-0.00796692
-0.0217076
0.0296745
-0.0267354
0.406699
-0.379964
-0.152788
0.128343
0.0244455
0.0575846
-0.240075
0.0125843
-0.120362
0.202338
0.321675
0.00849302
-0.0710849
-0.225513
0.296598
-0.00244286
0.19074
-0.242708
0.534969
0.0723483
-0.346128
0.511362
-0.177644
-0.0682052
-0.0531265
0.121332
0.0381265
0.0780887
-0.146294
-0.0582993
0.113659
-0.00601525
-0.107644
0.0541445
-0.0634857
0.00934119
0.0310931
-0.0364033
0.00836807
-0.00132252
0.00250042
-0.000641065
0.201181
0.0786472
-0.279828
-0.00620153
0.0268231
0.036447
0.000495419
-0.00343446
-0.0245163
0.0279508
-0.0592427
-0.126055
0.185298
0.00571111
-0.000344404
-0.426409
0.596363
-0.169954
-0.148881
0.256381
-0.292655
0.432613
-0.139958
0.00207555
-0.014943
0.238983
-0.134855
-0.104128
-0.000548166
0.000676818
-0.441975
0.138321
0.303653
0.0273741
0.0577145
-0.0850886
-0.00122178
0.00587658
-0.0046548
0.0497746
-0.0333174
-0.0164572
-0.289151
-0.0873704
-0.0475558
-0.0191551
0.066711
0.139049
-0.431703
0.202946
0.192589
0.100962
0.182575
0.523001
0.108212
-0.30751
0.199298
-0.0571478
0.466273
-0.409125
0.386865
-0.511058
0.124193
-0.575015
0.292636
-0.295845
0.203663
0.0921829
-0.0143817
0.0550975
0.0229899
0.09077
-0.11376
0.234246
-0.0740713
-0.0359365
0.110008
0.015084
-0.00877882
0.0478808
-0.296066
-0.203636
0.499702
0.142934
-0.0807889
-0.0621454
0.106063
0.112694
-0.218757
0.0937827
0.10293
-0.196713
0.0036863
-0.100488
-0.0172313
0.117719
-0.085671
0.254642
-0.247172
0.31952
-0.390779
0.364043
0.00424777
0.10358
-0.520059
-0.11058
0.630639
-0.0553843
-0.0547671
0.419886
-0.164803
-0.255083
-0.185059
-0.110786
-0.170087
-1.49382e-05
0.170102
0.0860022
0.0914137
0.242356
0.270807
-0.0261534
-0.381922
-0.0168841
0.0161142
-0.0109731
0.0105152
-0.00496578
-0.0114311
0.00243531
-0.0498493
0.0661466
0.0758348
0.184997
-0.260832
-0.253362
0.083026
-0.290928
-0.120462
0.41139
6.7664e-05
0.00756002
-0.297248
0.487317
0.145696
-0.213075
0.219947
0.0927729
-0.31272
-0.0718657
0.0328127
-0.234965
0.548001
0.0213481
-0.00651671
-0.0148314
-0.100572
0.106964
-0.0063918
-0.405393
0.114465
0.0381521
0.118499
-0.323644
0.338321
-0.09395
-0.0116191
0.000154721
0.0815776
-0.0899745
0.00839694
0.235547
-0.306312
0.0876928
-0.0976071
0.0515793
-0.165349
-0.403257
0.0779733
-0.101984
0.0184992
-0.309503
-0.0341743
0.343678
-0.0231593
-0.0569419
-0.106008
0.0172775
-0.0515222
0.163375
-0.111853
0.263041
-0.19369
-0.0693507
-0.0393351
0.00658231
-0.0541963
0.537241
-0.483044
-0.0132981
-0.00166163
-0.109369
0.00550542
0.0565471
-0.171736
0.115189
0.107405
-0.168827
0.0614222
-0.0424321
-0.0269461
0.00872163
-0.212096
0.138951
-0.0226922
-0.116259
-0.160862
0.0133122
-0.139323
0.0230189
0.116304
-0.000873424
0.000298688
0.100548
0.109647
-0.0111908
0.11582
0.300265
0.069141
-0.0759965
0.00685548
0.490065
-0.377177
0.115256
0.0980763
-0.213332
0.00210865
-0.00247821
0.000462996
0.0141507
-0.0146137
0.0971878
-0.143043
-0.00974534
-0.141816
0.279151
0.347585
-0.368605
0.0210205
0.000472483
0.0109131
0.206794
-0.277879
0.0187934
0.0309812
0.0661676
-0.0120231
0.362422
-0.133682
0.0357388
0.0979437
-0.0128602
0.0127713
-0.113259
0.310143
-0.0487658
-0.10569
0.154456
0.0169017
0.00444646
0.170808
0.0755813
0.000907877
-0.0119448
0.0110369
-0.311363
0.0640291
0.535919
-0.137753
-0.34369
0.0881791
0.136853
0.00858138
-0.145434
-0.10972
0.126568
0.102047
-0.237496
-0.0247247
0.135972
-0.499519
-0.0838717
0.0348548
-0.0307011
-0.0103601
-0.00125908
-0.0382908
0.124293
-0.0542645
-0.349182
-0.397573
0.56205
-0.164478
0.605728
-0.464738
-0.14099
-0.378263
0.0891117
0.0730616
-0.00392058
-0.138539
0.232321
0.00840389
0.00419536
0.0097832
-0.43305
0.51283
-0.0797801
-0.00183511
0.000132769
0.00170234
0.0125191
-0.0128874
0.000368329
0.0887364
0.0232175
-0.111954
0.0160868
-0.150624
0.256686
-0.0894944
0.111596
-0.0221017
0.0261748
-0.0259816
-0.000193194
-0.0776466
-0.0190626
0.00196117
-0.0331396
0.0311784
0.349552
-0.00462264
-0.000760794
-0.0305477
0.00312324
-0.273161
0.446058
-0.0174998
-0.00593536
0.0234352
0.0312801
-0.122419
0.0911392
0.178239
-0.121691
0.223284
-0.122736
-0.00416515
-0.00115417
0.00531932
0.00236765
0.0324871
0.042206
-0.172958
0.0199016
-0.133912
0.000661835
-3.03932e-05
-0.013809
0.00529271
0.00851627
-0.0202807
-0.00620007
0.167728
-0.270949
0.10322
0.102646
-0.097606
-0.0295334
0.0260989
-0.0443063
0.351236
0.343742
-0.13104
-0.212703
0.0186117
0.3398
-0.103313
-0.452311
0.555624
0.0307882
-0.104859
0.0404971
-0.0340671
-0.00642999
0.119697
-0.00899716
-0.110699
-0.152728
-0.265151
0.417879
-0.232767
0.0320185
-0.00686782
0.021653
-0.0157066
-0.00594632
-0.0570517
0.04267
-0.0523555
0.146672
-0.0943164
-0.00219071
-0.0117798
0.13081
-0.10782
-0.0273484
0.00706769
0.416533
-0.603165
0.186632
0.0165247
0.0150554
-0.0633207
-0.213242
0.276563
0.320403
-0.417373
0.317339
0.106526
-0.536452
0.440099
0.0963527
-0.499841
0.102268
0.413582
-0.137782
-0.2758
0.20648
0.20673
-0.41321
-0.0980248
-0.00584854
0.103873
0.00463236
-0.119507
0.114875
-0.01526
-0.0080037
0.0232186
-0.00590219
-0.0173164
0.0703788
-0.379882
-0.137508
0.554041
-0.217001
-0.0744887
0.29149
-0.0076047
-0.0780159
0.00923461
0.0687813
0.00432694
-0.00685145
0.00252451
0.116692
-0.178118
0.0614261
0.102004
0.0140515
-0.0931937
-0.0674834
-0.0701315
0.101412
-0.130414
-0.0372911
-0.115297
0.0748027
0.0404946
0.270932
-0.0382646
-0.232668
0.240972
-0.0397913
-0.457933
0.103997
-0.150401
0.0464042
0.135346
0.208397
-0.550675
0.550675
-0.300309
0.11525
-0.0271657
0.227486
0.243986
-0.407004
0.034092
0.054429
0.0942337
-0.0256728
0.0255988
7.39871e-05
-0.0148277
0.103564
0.00465734
0.0380141
-0.0318914
-0.00612265
-0.00474615
0.143697
-0.0716965
-0.00631948
0.262349
0.157537
0.26562
-0.469255
-0.304895
0.0880593
0.00511066
0.00580234
0.13292
0.0100146
0.0201879
0.00303071
-0.496112
0.11182
0.384292
-0.152582
0.0717934
0.156195
0.290405
-0.4466
-0.225009
0.161127
0.0638824
-0.0141058
0.00257633
-0.281657
0.0393253
0.109464
0.297166
-0.428788
-0.363466
0.210739
0.121911
0.246005
-0.125996
0.191979
0.121799
-0.110926
0.177374
0.160684
0.114094
0.252085
-0.366179
-0.0183106
-0.0483622
0.0666728
-0.00473566
0.118395
-0.169663
-0.000424081
0.154997
-0.100568
0.234294
-0.38494
0.150646
0.0602
-0.0132044
-0.0469956
-0.297865
-0.0973991
0.104516
0.0281153
-0.132631
-0.0481584
-0.0136463
0.00133004
0.0123162
0.0238246
0.0542156
-0.0780402
-0.552401
0.449087
-0.066935
0.200921
0.00784149
-0.00190468
0.248779
0.0664645
-0.211969
0.145504
-0.0182946
-0.00254302
0.0208376
0.16432
0.256657
0.0104571
-0.0357124
0.0282379
-0.0222602
-0.00597771
0.25132
-0.289585
-0.153411
0.121078
0.0323329
-0.0902358
0.253836
-0.1636
-0.00833208
0.0174717
-0.00913967
0.160935
-0.05353
-0.041126
-0.0741712
-0.00889753
-0.152985
0.217436
-0.0644512
0.029109
-0.0327753
0.00366629
0.225507
-0.159043
-0.338714
-0.0968247
0.435539
0.277821
-0.169609
0.370061
-0.0224766
-0.0363204
0.0283535
0.00319622
0.0438868
-0.047083
0.0619645
-0.214949
-0.00465163
0.00897857
-0.386065
0.0209485
-0.0049757
-0.175308
0.0439085
0.1314
-0.540155
0.113746
0.122866
-0.188938
-0.299905
0.232023
0.0678827
-0.00668275
0.00746097
-0.00077822
-0.137685
0.00278347
0.134901
0.136095
-0.00490249
0.0596607
-0.00814972
-0.051511
-0.568979
0.427766
0.141212
-0.0622193
-0.0231235
0.027721
-0.00459748
-0.122707
-0.148579
0.271286
-0.147034
0.0221092
0.124925
-0.205427
-0.313416
0.518843
0.0025651
0.0450901
-0.0391942
-0.00589587
0.001001
-0.140324
-0.00917438
0.0100823
0.148461
0.0747542
-0.223215
-0.195875
-0.0649675
-0.00142635
0.108027
0.265245
-0.586714
-0.503212
0.11887
-0.0224882
0.00722829
-0.0112285
0.00706338
-0.526504
-0.0424747
-0.281685
0.318477
-0.0282269
0.132224
-0.0826361
0.421302
-0.338666
0.124339
0.0989452
-0.275525
0.1793
0.0962249
-0.0539485
0.0589602
-0.00501165
-0.06827
-0.0694187
0.322232
-0.209882
0.0772916
0.13259
0.00168533
0.00273433
-0.0996824
0.0969481
-0.388563
-0.122494
0.0683604
-0.301127
-0.0825714
0.282517
-0.199946
-0.00974446
0.046837
-0.252128
0.161892
0.088347
0.00635655
-0.374001
-0.0545402
-0.274864
0.329405
0.0172163
0.00173115
-0.0189474
-0.0216224
-0.107366
0.0796481
-0.0801836
0.000535482
-0.13651
0.148406
-0.0118963
-0.497666
0.217634
0.280032
0.0114439
-0.118732
0.107288
2.12161e-06
-0.448135
-0.320666
-0.295595
0.112362
-0.54892
0.282359
0.124418
-0.0613549
-0.0364955
0.0978504
-0.0699205
0.32064
-0.25072
-0.262099
-0.235567
-0.0746381
0.317607
0.28812
0.466087
0.0763111
0.0944831
0.00435242
-0.0988355
-0.00640841
-0.00941486
-0.153896
0.163311
0.0605221
-0.106874
0.279544
-0.0727499
0.104243
-0.377404
0.0128785
-0.000359428
-0.102639
0.0131446
-0.00851483
-0.109307
0.0755321
-0.304112
0.22858
0.436288
-0.490484
0.226156
-0.0584279
-0.00140598
0.108674
-0.0125345
-0.0908639
0.00363516
-0.0905052
-0.111885
-0.265334
-0.397437
0.253342
0.144095
0.0859425
0.647703
-0.296346
-0.351358
-0.000504626
-0.0010861
0.319223
0.193132
-0.512355
0.000892321
-0.000447156
-0.000445165
-0.0345814
-0.00475365
-0.0121042
-0.00209733
0.11416
0.401571
-0.0972711
0.0359162
0.0883625
-0.0807963
0.0833945
0.0128249
-0.0964107
-0.278588
0.155881
-0.385931
0.0332079
0.352723
0.035539
-0.00668762
-0.120697
-0.0831859
0.203883
0.09843
-0.00976824
-0.03429
0.0143433
0.264356
-0.0326675
0.00571215
-0.127125
-0.386565
-0.0899299
0.29641
-0.00740305
-0.10286
-0.0888175
-0.0561106
0.0834847
0.529489
-0.210266
-0.0956564
-0.179869
-0.0391255
0.155818
0.0935969
-0.214294
-0.0180367
0.11252
0.0615757
-0.185602
0.124026
-0.0347712
0.00138706
0.349785
0.217147
-0.566932
-0.516901
-0.0873855
-0.180725
-0.315387
0.0229962
-0.543055
0.0965028
-0.134794
-0.137606
0.0123324
0.125274
-0.00216769
-0.00787022
-0.316649
-0.0887446
-0.00167217
0.0042176
-0.00254543
0.0837391
0.170097
-0.298247
-0.240291
0.538539
0.230415
-0.642617
0.247089
0.395528
0.114532
-0.471837
0.357305
-0.00126525
0.0163241
-0.0150588
-0.0441496
-0.0970666
-0.115598
-0.0339139
-0.088987
0.0198481
0.0691388
0.00855156
-0.0670415
-0.066641
-0.117993
0.0962737
0.0217191
-0.0165583
0.0345664
0.0105237
0.00138428
0.00210376
-0.00348804
-0.0162374
0.0140467
-0.00988071
0.0430828
-0.140047
0.201623
0.00371196
0.00409987
-0.0279528
0.0238529
-0.278252
-0.119185
-0.385331
-0.0548378
0.440169
0.503887
-0.139813
-0.364074
-0.0212768
0.0269653
-0.00568845
-0.0158758
-0.0238631
0.0397388
0.0204052
-0.0229482
-0.00869901
-0.0326701
0.15663
-0.241406
0.084776
-0.106654
-0.00366879
-5.05882e-06
-0.0136412
0.113786
-0.165309
0.00415315
-0.00309499
-0.00212068
0.00521567
0.0206562
0.0397232
-0.090584
-0.119298
-0.000239433
0.00328782
-0.146574
0.143287
-0.252876
0.0900682
0.162807
-0.0915874
-0.0103342
0.101922
-0.0326076
0.0564321
0.00607897
-0.00730075
0.00147398
0.00237365
-0.00384762
0.0296328
-0.000523809
0.00450898
0.112659
0.159802
-0.149607
0.022372
-0.0021841
-0.0217735
-0.00877421
-0.0606487
0.0906579
-0.0300092
-0.511669
0.123106
-0.162827
-0.0654175
0.000522157
0.0648953
0.00634262
-0.0669913
0.327154
-0.24402
0.194508
-0.0802518
0.310268
-0.384145
0.0738766
0.0753033
-0.0719054
0.00404794
-0.00315562
-0.0126299
0.100977
0.279249
-0.272856
-0.00321237
-0.00477738
-0.0213063
0.020041
-0.181882
-0.0810646
-0.0608714
-0.00291326
0.0637847
0.0128961
-0.0223174
0.00942138
0.308729
-0.0889849
-0.219744
0.0349834
-0.0103262
-0.0246572
0.0140694
-0.00891699
-0.00515243
0.273165
0.166468
-0.439633
-0.0155677
0.0214058
-0.00583804
0.0639638
-0.454743
-0.245337
0.204201
0.0411365
-0.207782
0.289673
-0.0818915
0.0163571
-0.00220941
0.0130803
0.00706155
0.127368
-0.0158697
0.00327284
-0.00411963
0.000846795
-0.0330314
0.00698951
0.00174611
-0.00196954
0.000223428
0.413114
-0.248794
0.120982
0.0646046
-0.185587
0.226495
-0.300477
0.0739825
0.0893148
-0.405963
-0.260335
0.374429
-0.0397838
0.0692104
-0.260769
-0.259438
0.196118
-0.00318481
-0.0315864
-0.00109311
-0.000742004
0.0737475
-0.290749
-0.0514
0.53974
-0.48834
0.0205127
0.0144707
-0.28684
0.0785953
0.208244
-0.00174956
0.30121
0.281518
-0.582728
-0.0181964
0.0236449
-0.0054485
-0.155666
0.000859197
-0.00711255
0.00625335
0.118996
0.0852127
0.0417943
-0.00487116
0.282703
0.0874804
-0.370184
0.0227243
-0.160409
-0.0142385
0.020064
-0.0058255
0.005296
0.0208788
0.0205097
-0.02114
0.000630329
0.0192993
-0.00208299
0.00349623
-0.000605318
-0.00289091
0.192637
-0.275208
0.283983
-0.397181
0.113198
0.103491
-0.152257
-0.0956205
-0.0785025
0.0255471
-0.0214473
-0.0726426
-0.237413
-0.117652
-0.374987
0.492639
-0.236308
-0.000617993
0.00379481
-0.448233
0.0629018
-0.00721293
-0.107503
-0.0765485
-0.024565
0.0250516
-0.084718
-0.00426896
-0.0243809
0.0633578
-0.591842
0.143707
-0.152677
0.0159765
-0.0249929
0.0166608
-0.365405
0.479937
-0.0228569
0.00387176
0.189995
-0.0223297
0.178275
0.325612
-0.335428
0.0756419
0.259786
0.00623927
0.00783015
-0.00228002
-0.000506933
0.00278696
0.0719113
0.191129
0.0826474
-0.134312
0.416871
-0.471708
-0.124812
-0.012794
0.0443441
-0.0626547
-0.459635
0.11733
0.342305
0.354553
-0.47676
0.122207
0.457411
-0.142289
-0.0109922
0.00789726
-0.00537747
-0.0268696
0.165467
0.0696769
-0.265552
0.109247
0.00835664
-0.0242525
0.147118
-0.0359324
-0.0111167
-0.000366494
0.121694
-0.121327
-0.0210706
0.137756
-0.116686
0.0652005
-0.191197
-0.0518109
0.0203771
0.0314338
-0.468036
0.148376
0.31966
0.223
-0.301313
0.0783124
-0.0095596
0.0184057
-0.00884614
-0.0650092
0.00413777
0.00316429
-0.0393568
0.0361925
-0.018338
0.018801
-0.174111
-0.0787643
-0.185344
0.188632
0.00413204
-0.0320251
0.0258236
-0.12706
-0.288174
-0.376053
-0.144142
-0.0131776
0.333932
-0.320754
0.11269
-0.00344309
0.0526628
0.0968888
-0.149552
0.286054
0.353445
0.145206
-0.498651
0.00128164
0.00157495
-0.0028566
-0.0220645
-0.153244
0.0519508
-0.0651222
0.0518937
0.099673
-0.151567
0.0146231
-0.128002
0.113379
0.0103109
0.564297
-0.4212
-0.143097
-0.171608
0.0548107
0.116797
-0.044328
0.00738497
0.036943
-0.263818
0.0701281
0.003947
0.00957395
0.00228518
-0.295588
0.0700748
0.00395727
-0.23583
-0.281696
0.162205
-0.237429
-0.0696048
0.307034
-0.130035