/*--------------------------------*- C++ -*----------------------------------*\
| =========                 |                                                 |
| \\      /  F ield         | OpenFOAM: The Open Source CFD Toolbox           |
|  \\    /   O peration     | Version:  v2012                                 |
|   \\  /    A nd           | Website:  www.openfoam.com                      |
|    \\/     M anipulation  |                                                 |
\*---------------------------------------------------------------------------*/
FoamFile
{
    version     2.0;
    format      ascii;
    class       volScalarField;
    location    "300";
    object      omega_0;
}
// * * * * * * * * * * * * * * * * * * * * * * * * * * * * * * * * * * * * * //

dimensions      [0 0 -1 0 0 0 0];


internalField   nonuniform List<scalar> 
13851
(
0.120638
0.0241811
0.0239886
4.8958
0.0220834
0.0260277
0.0238594
0.0218775
3.78843
0.0220424
0.0669682
0.0220786
0.0220884
5.47226
0.0363606
0.126328
7.68932
0.0219124
0.290343
0.115522
0.039932
0.0259959
23.3465
0.0222626
5.90718
0.0599824
0.271814
2.40766
3.52118
0.0217643
5.02564
0.0238649
0.13386
5.25152
0.0447286
3.50364
0.0222726
5.70856
5.00082
0.0220617
5.26825
3.61412
19.294
0.729402
3.79216
0.021888
0.0215251
0.120955
0.0233625
0.022091
7.80145
0.0221689
0.12451
0.0298176
5.34345
0.0220568
0.135324
5.06734
0.168931
5.37476
0.0220867
0.307051
0.0220978
0.0236684
0.214406
0.261789
6.91362
0.0701768
0.0221145
4.81376
4.38083
0.0493271
0.0220105
6.25294
0.0313917
0.0235471
5.9346
0.0216685
4.32716
0.0219477
0.0221223
0.30873
0.0433787
5.07853
5.1885
4.7381
0.0259017
7.44143
0.0220279
5.09609
0.0221981
0.0239456
24.7516
4.4937
4.57659
0.41812
0.0219055
0.126001
7.15777
0.176156
0.131693
0.0425566
0.0463527
0.0220531
0.0218772
0.0479661
0.0218776
4.49699
0.0239088
0.0218937
0.0303356
0.0218871
0.179194
0.0612152
0.116486
0.029273
0.0217813
0.0217962
4.92565
5.32072
0.260822
0.0218046
0.0220916
4.06201
0.246378
0.133062
0.0219104
0.0513125
4.8012
0.0442822
0.0262012
0.0313367
2.57096
5.13936
0.0683474
4.57647
0.0682666
4.57376
0.0353717
0.0427404
0.346659
0.0225697
0.0220329
0.106612
5.98048
0.0236177
0.0216595
4.57195
3.56688
0.0615718
0.12872
0.168679
0.0643967
0.244033
0.0222349
0.0220448
0.022102
4.76712
0.0397563
0.0233833
0.0222428
3.51281
0.0461564
0.121023
5.22459
3.97384
4.05678
5.92797
0.0298799
6.21892
0.0221019
0.0217785
0.0595738
0.0221387
4.73715
0.311188
0.149077
0.0217667
0.0313212
0.141907
0.228652
0.520512
0.0290975
0.0427263
21.4016
3.53037
0.133381
0.0299291
0.0221688
0.0218216
4.33147
0.0399194
7.45275
0.026162
0.023447
0.126248
0.126915
0.0220656
0.0221399
0.075954
0.346356
4.81177
5.10279
0.0355372
2.53943
4.63029
0.0237618
0.0428842
3.86774
0.0253799
0.122127
0.0220974
0.387454
0.0222348
0.0455192
0.0246333
0.0220549
0.210758
0.0221211
3.81011
0.0217626
0.123274
6.24407
4.64181
0.0286901
0.0427216
0.0222654
0.0941379
0.0220164
0.045472
9.05364
0.029004
0.0252038
0.0221147
4.95003
0.0217592
13.8693
5.03739
0.158086
0.0222515
0.79418
5.08475
3.8584
0.122063
0.0326495
0.152533
0.182044
0.0315602
0.413685
0.0311274
6.20582
0.135259
0.0218351
0.0256629
0.131926
3.47328
4.3746
0.0218183
0.142344
0.022026
0.173302
0.234588
0.0260485
0.0464515
0.147827
0.0219727
0.0430968
0.10463
0.905613
0.0220822
0.0220748
0.0286745
4.41343
6.83604
0.0453497
0.0218151
0.233776
0.240866
0.104119
0.0449324
4.29968
7.21478
0.0267415
0.0325766
6.96412
0.0218589
0.0221009
0.111139
0.0540166
0.0217524
0.0222324
0.0220119
0.0219979
0.0320493
0.0220952
3.86266
0.0423645
0.0219811
3.45347
4.04864
0.0221454
0.123137
7.72226
0.0226858
0.0222324
0.0438891
5.36999
7.9406
0.0620912
0.0220701
6.12199
0.0220928
0.0689888
5.73683
0.731885
0.0232729
4.84869
0.780646
4.61248
0.152854
0.047266
4.82032
4.2268
1.9877
0.0222176
5.18113
23.2894
0.915717
0.897185
0.0236036
0.0661773
0.029196
6.0957
0.0486764
0.0218693
0.0214133
0.0275571
4.44623
3.25944
0.021851
4.52704
0.0295907
0.0326447
0.0234746
6.38511
0.218996
0.130314
0.0246
0.0247761
3.46329
0.0221867
0.263248
0.0264321
0.0436355
0.030395
0.0220248
0.0219887
0.154264
0.19437
0.125519
0.816469
3.5032
0.0238487
4.88906
0.217157
0.0216987
0.829354
0.0885323
5.73472
0.0267422
0.0652502
0.283056
3.76287
0.144388
5.11621
0.0226315
0.320109
13.4077
0.0300635
4.92932
0.0334023
5.26842
0.0322366
0.0380199
0.14578
0.264787
0.0220432
0.0261053
0.0564314
0.0317702
0.0219078
0.0458572
5.36329
0.0220028
0.0438098
5.6511
0.0240512
2.91228
0.0408536
8.23406
0.0258545
0.057445
1.97251
0.233563
0.0475796
5.40042
6.15096
0.848745
0.0219699
0.145703
0.0332558
0.0632869
0.0218201
20.7143
5.64447
4.26837
0.0246486
0.148456
0.306227
5.99082
0.0215894
6.70462
0.300648
24.3531
0.0318035
3.99262
0.0220339
0.0221273
6.6684
0.299771
0.0220386
0.0241794
0.0449014
0.021816
5.55245
0.0657329
0.086327
0.0253424
0.0225791
0.0221981
2.34591
0.0219693
0.0221657
3.97533
5.3356
0.0260944
0.261088
0.0221026
0.0220936
0.0242235
0.134431
0.0410659
0.0219053
0.0228205
0.249783
0.0232294
9.05219
0.0220799
0.0268556
3.85787
0.0349658
0.0215149
0.0221199
0.0252489
0.0221737
0.771951
4.04036
0.0334613
11.3942
0.0242574
0.0220575
4.54215
0.271793
0.0356959
0.0220109
4.13075
0.0342199
3.54732
0.0220559
0.0307335
0.145074
0.0332529
4.40912
0.298128
3.28924
0.0235758
0.168009
0.0219686
3.47583
0.0410625
0.123559
0.0332609
0.0241025
0.0345055
0.0606638
0.0220926
6.59368
4.40666
9.39212
6.57438
4.052
4.75826
0.235935
0.0277706
0.0222079
5.07223
0.0220461
0.0219085
0.0295404
4.87451
0.0237717
0.0225744
0.0930875
0.0472897
0.0220411
7.70229
0.0219162
4.917
0.538506
0.0219415
0.0232777
0.275424
1.14094
0.0217605
9.61361
10.2802
0.0216604
4.72887
0.269111
0.135592
0.0236873
3.96309
5.58842
0.0216763
0.298139
0.022092
0.0219145
3.66019
5.35449
0.0382193
0.0406052
0.0220473
0.0513075
4.9376
4.72333
0.0217638
5.67495
0.0219054
0.0221305
0.0476653
0.0268759
0.0215832
0.0235344
4.79017
0.244168
4.59916
0.0235101
0.0220244
4.41562
0.0221785
0.153063
0.0269929
0.0314178
0.0319009
4.04943
5.71047
0.0257421
6.99176
0.0230814
0.0603457
3.66622
4.30419
0.0221155
0.0219731
0.0471149
4.62475
0.240353
0.0501857
9.38691
0.0269884
0.0312864
12.0626
7.80065
0.15577
4.76761
0.165978
3.58642
0.0224407
0.150452
1.79217
0.0220785
16.9951
6.77801
0.031312
0.0428596
0.0220468
8.11596
0.0820891
16.8507
0.0219621
0.0221676
0.0265546
0.0464306
0.0220845
4.70881
0.022159
0.162334
0.023629
0.0647637
0.02203
0.0220446
0.0451614
6.05255
0.045842
4.50004
0.0313393
0.0218218
0.0217506
0.0604578
0.0228305
0.108202
0.0243395
0.0345724
0.160027
0.0221799
5.39418
0.0222537
0.085893
5.67731
3.99721
0.0288377
15.0102
0.0877136
0.257023
6.68439
0.0218261
7.60641
0.0296393
0.0309054
5.75146
0.731851
0.0217098
0.104633
0.0220365
3.49847
6.7944
0.0222647
0.0805137
5.73079
0.022264
0.0222526
0.0603545
7.28863
3.73068
0.0222337
0.133641
0.0230699
0.0220416
0.149375
0.143225
0.163469
0.0215716
0.103297
0.0451132
0.0541063
0.0227016
0.0228396
0.0743171
0.0261454
0.113679
0.0490193
0.0478409
0.134569
2.12331
0.279344
4.80188
7.957
0.124412
4.17136
0.0388108
3.74281
0.134288
0.0218828
0.030708
0.262713
0.0268579
0.0219507
0.0219491
0.0842765
5.9312
0.0271173
4.83626
0.0218277
3.87293
0.116177
8.41765
0.102874
0.0260562
0.0240449
6.54663
0.161143
0.0385952
0.308734
0.0225285
3.88119
0.0864791
0.163754
0.032354
0.436971
0.0220227
0.0222468
0.0234999
0.0220398
3.66412
0.0219949
0.189399
4.30599
0.099499
4.801
6.1443
0.169206
0.255158
0.0293651
0.0221797
0.0220518
0.0216792
0.0217476
0.0221421
0.0659739
0.154696
0.0481203
1.5054
0.0231303
3.80085
0.0222934
5.06405
0.0384642
0.0222836
0.0221304
4.0159
0.0262549
3.70488
6.72767
0.0413767
0.0648785
0.0216452
5.15266
0.0245749
0.0239078
0.169831
0.022181
0.0226066
0.0218167
0.0415756
5.31313
0.0292136
0.031879
0.336658
4.55827
0.0292146
0.0257974
3.65276
0.0216757
3.59814
0.0222021
0.0232447
3.98716
0.0750787
0.112325
0.0960835
0.04715
0.0222277
0.0222933
0.0632002
0.022493
0.0222371
0.0275291
0.319784
0.0219834
0.24546
1.81516
3.26056
0.0899565
6.14192
0.0365626
0.0221743
0.143827
0.0218438
0.0262185
4.69622
3.49548
7.6741
3.76379
0.0222573
0.0221322
0.0676569
0.0230621
0.021831
21.467
0.177107
4.70522
0.08737
0.0761058
0.0220433
0.0217702
2.82439
0.0864825
0.0234411
0.0222536
0.116669
0.170855
4.95449
0.0221905
0.022151
6.99269
0.0227267
0.0322823
0.0218187
4.96471
0.0219435
5.23514
0.0220751
0.145689
0.0366921
0.0668849
0.0320819
0.0220069
0.0241474
0.0220264
0.196734
0.0226363
3.83368
0.0225577
2.99729
4.54935
0.0314084
0.0220023
4.98663
4.11795
0.0261733
0.0751599
0.0220666
6.58331
0.0219007
0.259922
0.0220652
0.0220196
3.32717
0.0324273
0.0221095
0.0302254
4.88017
4.71084
5.82012
0.0218193
3.98973
0.0220753
0.0219903
0.0222417
0.0214521
0.0222334
6.10156
4.86317
0.022149
0.0221543
0.038745
0.0218857
5.11492
0.148826
4.66419
4.90723
0.024173
0.112968
0.0220702
0.0390234
0.115689
0.0218095
0.0222105
1.0047
6.45434
0.0630265
14.2028
0.0582311
0.0221014
0.0401742
0.0763887
7.45698
0.0310527
0.675037
0.0888188
0.0222239
15.9789
15.0569
4.3305
2.97092
3.59979
0.0238902
0.149714
0.0221851
0.235029
0.0265956
0.0218725
5.93258
0.0229876
0.0220045
0.0221104
0.0227616
4.77908
0.255523
0.0218678
0.0414363
5.40972
0.0230776
15.1155
0.0229783
0.0705606
5.20637
0.0220966
0.272532
0.0280191
0.0335516
6.82694
0.0229683
0.268461
0.0562503
5.17294
0.0220941
4.45345
0.0294875
4.14654
7.79789
5.5077
0.0423832
0.0220226
0.0223435
0.0222643
0.0369252
0.0221238
4.54358
0.0272033
0.0277336
0.0288763
0.0235714
0.0218167
0.026095
0.026867
0.0232443
0.0265383
6.43286
0.19707
0.0290703
0.0512316
5.94442
0.0226445
4.50611
0.0216863
0.0331683
0.0226338
0.0219221
0.0423492
0.0220529
0.0218616
0.0466325
0.0220601
0.292321
0.0227045
17.4354
0.418451
0.199752
0.270717
0.0220245
4.62775
0.162086
0.0222265
0.0270106
0.0225132
4.72131
0.0232028
0.0443923
0.773274
6.77509
0.0753787
0.022093
4.00311
0.540605
3.68593
0.0283622
0.0218136
0.0217494
0.0609007
0.0220298
6.71421
0.159635
0.0221972
0.213477
0.273412
0.0218051
6.50641
5.97846
0.166526
0.0226896
3.98165
0.0660268
0.0220213
6.05971
0.0261601
0.0218043
0.0219327
0.0304768
0.0374853
4.02137
5.68007
0.0384316
4.07599
0.0320136
0.0220163
0.0863302
0.0219554
0.974959
0.0217839
0.0220474
0.0243101
0.0224421
4.41839
5.44346
0.204071
5.96287
7.65487
0.0282427
0.0220013
0.0226998
0.295758
0.0217666
0.0219849
0.0415643
5.3888
0.224947
0.021604
0.0355041
0.0319872
0.12937
14
0.021657
0.0215713
0.0232006
2.73563
0.0274153
4.94807
0.0230605
0.0221634
0.0218053
0.021925
0.024506
0.163721
3.62809
3.91789
0.0294407
0.0220568
2.58573
0.0221833
5.15602
4.67473
0.02989
5.14739
3.60922
5.31792
0.0482966
0.0305838
3.85553
0.0298553
0.033763
0.0719379
0.276508
0.0224004
6.30061
0.0220135
4.52929
4.06409
0.021692
0.023668
0.0407419
0.321097
0.0327038
0.0221425
0.0272189
0.0231255
0.025153
1.1558
0.0221614
4.15527
5.4434
0.0220185
0.0300335
0.0369191
0.0220829
3.45626
12.3966
4.71103
3.4915
0.0220412
0.0244159
0.0261657
0.0222382
0.20085
0.0329042
0.0222565
0.0562524
0.0256783
4.11613
0.0367475
6.95894
0.0232061
0.0231238
0.0498175
0.086566
0.0651869
0.0219744
17.8601
4.12228
24.6211
4.49433
4.63711
3.96765
4.23071
0.0219791
0.0220258
0.0219446
0.224651
0.0401451
0.0705052
7.07491
0.0220581
0.0216582
0.0220479
0.181069
0.02165
0.0260918
0.0236158
3.97951
0.0229575
0.0218497
0.0220859
0.0219618
0.0221628
0.0346324
0.194429
0.0331448
5.37595
0.0220345
0.0219215
4.78208
4.78431
6.917
3.6002
0.047625
3.81275
0.0218109
0.0623928
0.0230659
0.0220783
0.0237649
4.81947
0.0228567
0.0876733
2.09268
0.022106
0.0219091
0.0259293
0.168848
0.0222715
3.98127
0.0219268
0.183374
0.0221256
0.0221409
0.0263882
0.0948581
0.0220954
0.247868
4.45942
0.160978
5.15818
0.0220358
5.90289
0.302171
0.0220496
4.04455
0.022233
0.0430241
0.0221897
0.0219923
0.0219619
0.0220412
0.0223504
0.0268746
0.0597841
0.0221234
0.0220962
0.0631609
0.0216834
8.75374
0.0221252
0.0313957
0.0318524
4.78492
0.60244
0.0221459
0.170302
0.0218142
0.0289569
0.0625593
3.29547
0.04403
0.0222722
0.100403
0.0723576
0.0745238
0.306782
0.0346738
0.140853
0.0506866
0.0634929
0.0228567
0.0218182
3.10945
5.34994
0.0245242
0.022021
11.7363
0.0218327
0.040143
0.0219595
0.0806775
3.79787
0.0215196
5.8276
0.0256928
0.0221699
0.144573
0.021879
0.0405937
3.41092
0.0383347
3.34373
0.0219557
0.0222651
0.0442234
0.0222266
0.0222454
0.0270271
0.0286098
0.061644
0.0755965
0.022076
0.0367469
0.0218096
0.0220651
0.0222143
0.0220541
0.656553
0.0218145
0.0232342
0.24742
0.0218264
0.0220062
4.60204
0.0222487
14.5962
0.0229682
4.59602
0.223702
0.0513346
2.1303
0.0602746
1.24643
0.0222726
0.1831
0.026785
0.021805
0.0218891
0.0231775
0.030149
0.0219499
0.0474463
0.021902
0.0230344
15.9074
7.6579
3.49154
0.0236845
0.0467576
4.87828
6.99871
0.0221729
0.0257954
2.1396
0.0220859
0.0396625
1.43376
3.92132
0.0263709
0.0402762
0.0226988
0.304985
0.0222856
0.0346677
3.60903
0.0221474
0.0218403
8.91246
0.0420392
0.223951
5.26335
0.0844489
0.0223663
0.0219068
0.0221868
4.65006
1.11297
5.10048
0.0560687
0.0220401
4.59695
0.0221109
0.152074
0.0267731
0.0229678
0.0405063
0.0220588
6.65064
7.61035
0.0216219
0.0643306
0.0409564
1.4917
0.0426762
0.0504318
0.212789
0.0318187
0.196131
0.052705
0.0221131
0.032995
0.0882675
4.04752
0.0220381
0.286263
0.0459417
0.0535045
0.0222721
7.66061
0.025487
0.0237186
0.0218411
0.0397379
0.0387765
0.0588113
0.0221054
0.0226112
0.0513323
25.654
0.0628177
0.0221561
0.0225069
0.0326837
0.226717
0.0221709
0.0928939
5.8519
0.0429386
4.16585
0.0367119
7.65301
0.304957
0.0219769
1.04412
0.02224
0.024655
0.0306851
0.0337704
0.0894867
0.0419259
0.0463063
0.0401627
0.0306309
0.0237023
0.0216414
0.0834294
0.0249244
0.0283922
0.391494
0.0262636
0.0289338
0.0219466
4.44622
0.0769665
0.0220708
0.0243014
0.0232987
5.4353
0.159027
0.0306192
3.78648
0.336502
0.690758
0.0855467
0.288409
0.021888
0.320078
0.0218749
0.0264481
5.91431
3.44156
0.324026
1.30227
0.0221237
6.62434
0.0218854
0.0727088
0.0250375
3.67913
6.08969
0.0252238
0.0220232
0.324985
0.0439356
0.0220279
4.34366
0.0220657
0.0237451
0.0250287
0.022176
0.0305799
0.023611
0.0220417
0.0360026
0.373023
0.0375692
0.0621031
0.0220243
6.06883
3.48844
0.0220055
0.285793
0.0242717
0.0282879
4.96854
0.0220056
0.022638
0.0273621
4.42507
0.0220322
0.022183
0.0386763
3.63313
0.0219909
0.0315112
0.0341827
0.287544
0.0440536
0.0376453
0.20427
0.0220722
0.121153
0.0217073
5.8965
0.02947
0.0220514
0.0260758
0.0913058
0.0221501
0.0220595
0.129062
3.8646
0.022173
5.39005
0.0221879
0.0216957
0.0618791
0.0220356
0.0218082
6.81876
0.0222735
0.0389883
0.136526
4.84799
0.328532
0.0217503
0.0242951
0.0277178
0.0220743
0.0220317
0.022095
3.12411
0.022195
0.189192
0.110256
0.0218454
0.0216945
0.0294706
0.1091
0.275522
0.0567781
0.057975
0.0234692
3.83859
0.081132
0.028851
0.0379511
0.0608519
0.0851216
22.3069
0.0358537
3.74051
2.78767
6.57762
0.0241727
0.0219723
0.036247
0.033793
0.0217754
0.0221699
0.117682
0.0222439
0.0222494
0.0220526
0.0215738
0.0231961
0.0219705
6.04812
0.0220188
7.29306
0.0220812
0.0904863
0.0224777
0.10515
0.0758703
0.0220355
4.88933
0.0243122
0.0222265
0.0371047
0.0217973
0.0300882
0.021913
3.72348
0.02417
0.039658
0.103732
4.7902
0.0285305
0.191857
0.479249
0.0541398
0.0220126
0.0228011
0.0998331
0.0596112
6.86866
0.0217538
5.70947
0.022092
0.0872268
9.23087
0.0356756
3.56999
0.025446
0.0311762
0.0249156
7.42375
0.030668
0.0221422
0.0542137
0.135388
0.0232314
0.0220384
0.0221431
4.90585
0.0222523
0.0285712
4.92923
0.0265495
0.0219719
0.0524304
0.0247284
4.40246
0.0216567
0.0220094
0.0218683
0.0256066
0.0222409
0.022028
0.0577329
4.55328
0.0219622
0.0221003
4.7476
0.0220626
5.30136
0.0232463
7.2977
0.0218481
0.024289
0.0218121
3.83952
5.13768
0.0293596
0.0711569
0.0271358
0.0219387
0.0221158
3.77676
0.0221371
0.0700781
0.0217991
0.0386317
0.0221905
5.32923
0.0218368
0.0400337
0.0218727
0.499886
0.598713
0.0217779
0.0450351
7.1238
0.0620466
3.88056
3.47345
0.238598
0.0234685
0.0344036
0.0887184
1.54677
0.0220279
0.0352402
0.0282046
0.0219543
4.03826
7.3281
0.0622097
0.154938
0.30285
0.0335059
4.40882
0.0217655
0.0217724
0.0881929
7.9879
0.213886
0.147546
0.422453
0.0218085
7.68469
3.82942
10.093
0.0222031
5.27038
5.72579
0.612054
3.91788
3.85474
0.0760702
0.0295094
0.176406
0.0256932
0.0219626
0.627295
0.0858679
0.0216243
4.5695
0.0221888
0.0282235
0.0395071
0.0262069
0.409505
0.0346049
5.85169
0.040406
0.0263731
1.73754
5.38115
0.119621
0.0224193
0.0254324
0.0701241
0.0568294
0.0218307
0.0466504
0.0622026
0.127615
0.0219666
0.191815
0.0240095
0.0521814
4.11047
0.178027
0.0233318
0.121687
4.53796
0.0221491
0.0227252
9.48468
0.313671
0.0240135
0.024238
0.0220923
0.0721656
0.0248603
3.61007
0.0942477
0.0224848
0.0222232
0.0677063
0.0298374
0.289131
6.05665
0.0218723
0.0220375
0.0271163
0.0221944
0.0239163
0.0227462
0.0226511
0.0254976
0.0219308
0.0240612
0.0221774
0.041801
1.276
0.0222645
5.52805
10.4967
0.021706
0.24365
0.130167
0.0774869
0.022755
0.0846611
0.0265097
0.0787282
0.0286635
0.0231779
0.022209
6.65775
0.0268534
3.47326
0.0226363
0.0220314
0.0220241
0.0643817
0.0219567
0.0456038
0.0543971
1.67964
0.0219171
0.369702
2.27403
4.11943
0.021806
0.125827
0.985034
2.66348
1.19163
0.0225794
0.0222525
0.154833
0.326234
2.49039
0.0378799
0.295201
0.0222328
0.0218145
0.0385281
0.022196
0.0221345
0.163969
0.0222665
0.0913502
0.0218378
5.47421
5.43793
3.88969
4.09375
4.17823
0.0221008
0.022144
6.77403
0.0217642
0.0217906
0.0216967
0.107013
5.34546
6.15532
0.0272386
0.0219925
0.0230004
0.037106
5.16781
0.0220368
3.53095
5.59381
0.0221891
0.0221798
4.00257
0.0674001
0.0228908
0.0220424
5.83232
4.39794
0.0219432
0.185721
0.0222534
4.08034
2.4659
0.023103
8.92713
6.22011
5.28388
0.0218249
0.0220191
0.0222458
0.022286
4.91485
0.0219119
0.214062
0.281119
8.58434
0.0224908
0.0512386
0.340152
0.0477385
6.68496
4.58678
0.0216308
0.0251098
0.0251909
0.117598
4.2242
0.0215612
5.06828
0.0315884
0.0396462
0.0227021
0.0219479
0.270033
0.0392008
5.34103
0.0221951
0.0543467
0.0225339
0.113415
0.0238484
4.43207
1.10375
0.262234
0.0792296
0.0219541
0.0235238
0.0808745
0.214748
4.31164
6.91889
0.0221493
3.67065
0.0895246
5.37185
0.0257833
0.0414905
0.0371493
0.0220374
5.46333
0.0220695
0.0312408
3.54202
5.36585
0.8818
5.23036
0.0275371
0.044504
0.0217273
5.48306
0.0273332
6.13229
0.0217159
4.65788
0.0215261
0.0220012
0.0305024
0.0310529
0.0319947
0.0219611
3.7275
0.0397357
0.021908
0.0389793
3.88276
0.739654
0.022031
4.91438
0.0241143
0.0319406
0.0301446
0.0216908
0.0619025
0.0219956
5.17096
0.0806208
0.0258302
0.0220291
0.303432
0.0380464
0.0217143
4.7043
1.3516
0.212167
0.0216075
0.243269
0.0221406
0.136346
0.0266155
0.124157
2.92785
3.86284
0.034105
5.21858
0.0459439
0.027961
0.0218205
5.0989
0.114066
0.104255
0.0631683
0.0222439
3.68382
0.0788892
0.351441
0.239457
6.77651
3.68907
2.34393
4.85801
0.028368
0.0309991
0.0220963
0.0220166
0.0215805
0.164265
0.0274069
0.0327624
4.95603
0.0219325
0.0218569
0.0379137
0.129414
0.0271679
0.0217846
4.88019
0.0239871
0.0417629
0.0222065
5.25716
0.028101
6.02832
0.0573922
0.0334049
0.0524313
0.0220888
7.50357
0.336999
0.0641214
0.0220182
0.0219072
6.99653
4.70066
3.45786
0.0218155
0.0683906
0.280934
0.0219939
0.0220101
0.0220567
5.20066
0.10934
0.0357784
0.0262699
0.0252241
4.6135
0.0788394
0.222882
0.0255035
0.0310607
0.0215666
0.128666
0.0509798
0.0220097
3.74619
4.65432
4.70683
3.88548
5.17767
8.72359
6.73235
0.0231898
0.0217798
5.92594
4.86959
5.89959
0.0220566
0.0384762
0.0220377
0.0219585
3.32582
5.5098
0.0581965
0.0220057
0.312177
0.0857876
0.0451268
4.20615
1.35814
0.290925
0.0219136
4.42616
2.68415
0.321264
0.0301884
0.0397018
0.0221722
0.0218738
0.0363917
0.0431122
0.0243354
0.0376654
0.02703
0.0253546
0.202809
4.0475
0.0307789
0.0380678
4.15905
0.174417
0.0221102
0.402897
0.49259
4.65715
0.0399316
0.0220648
0.0283744
0.026267
0.0294519
0.0216879
0.0325828
0.02969
0.0415277
0.231894
0.0222303
0.0229924
3.76273
3.82771
5.17047
0.327829
0.0983631
0.0215102
0.0220406
0.0294103
0.0217207
7.00842
0.0220437
0.0222731
0.0217199
3.70416
14.6045
0.022372
0.0575988
0.0271723
0.0354914
0.0292264
0.0346141
0.0365362
0.03486
4.74369
0.0254878
4.60479
0.0369082
5.07129
0.0290481
0.0219383
0.0218154
0.0887356
0.126518
0.0218243
0.0396906
0.028696
0.0550421
4.02259
8.7126
4.01984
0.0222728
0.272977
0.0286775
0.0347041
0.0220302
0.0694797
0.0235498
3.70716
1.83541
0.037012
0.0220786
3.80877
0.0271074
4.28936
4.93094
0.213386
0.0241779
0.125424
4.37822
0.303958
3.90037
0.0571007
0.0219367
0.0380531
0.0218048
9.54802
0.0240179
0.0326336
0.319763
4.9279
0.0219005
0.0219401
4.31092
0.0408036
8.92308
0.0322619
0.0220423
0.0404901
0.205749
0.0427026
3.50851
0.0340236
0.253176
0.0247551
0.0222438
0.0219398
0.240153
0.0225632
0.127359
0.0220435
0.0219803
0.224626
0.0253314
0.0220441
0.0220392
0.0337429
0.26473
0.0381681
0.036294
0.0260394
0.0573971
0.0220221
0.151131
0.0297861
0.0405048
0.0649599
0.0267387
0.078631
0.0456492
0.0217925
0.0601672
7.97358
3.39641
0.0220394
1.01505
4.235
0.0219545
0.0226765
0.496849
4.14194
0.0273577
4.08672
0.328467
0.0219484
0.0736075
0.0215788
0.0253495
0.0579882
7.01741
0.510935
0.273803
0.372724
3.82121
4.16198
0.0229987
3.80082
0.0220366
2.91989
4.19238
0.0220992
0.022083
3.53697
0.0220957
0.0220862
0.329993
4.47953
0.208235
0.0253652
4.20148
0.0221033
3.93599
3.88883
0.0221896
0.220402
2.3509
4.51391
3.60715
3.77818
3.72497
0.0218774
0.0231356
0.0567426
0.0584716
0.0220793
0.173058
0.02204
3.6864
0.288191
0.0494322
0.233837
3.62369
0.280487
0.195935
0.061595
7.59577
0.410058
0.0247542
0.0216243
3.17877
0.0337909
0.0217636
7.40045
0.0219713
3.33244
0.0221345
5.34599
0.0247985
0.0219743
16.9566
0.0277565
0.0349509
3.77607
6.67565
1.57481
0.0266598
0.0406691
0.023287
0.0367652
0.128781
0.0370845
0.0222151
1.95941
0.0554842
0.0314629
3.98519
0.0372934
0.0371397
0.184322
0.0750206
0.03943
0.0219714
0.181731
0.0218152
0.11718
0.162795
4.37432
0.0218741
0.0377467
4.65898
0.0230316
0.0646893
0.0294225
0.039237
6.03373
0.0559939
0.0232776
11.9066
0.0218829
3.79234
0.0221247
0.0228419
0.112843
3.49867
0.0319239
0.369905
0.497169
0.0295106
0.0221074
0.148455
0.0421156
4.86298
0.0267108
7.59355
0.141973
0.0294572
0.0288463
0.0972997
0.035405
0.072499
0.0563859
0.0377077
0.0241021
0.0219871
1.16628
0.0220042
0.0281816
0.0215575
0.0967301
0.0284696
0.0552109
3.96765
0.0228146
0.210255
0.0215063
0.0221133
0.0221891
0.0222088
0.025595
0.0219417
0.0750453
7.28689
0.0528974
0.0416276
0.0244939
0.0220102
0.199515
0.0220094
4.11134
4.24667
4.60285
0.13042
0.0326576
0.0262568
0.0221776
0.0292841
0.0957879
0.0405268
4.33318
0.054856
5.31837
0.127099
0.0222098
0.0218406
3.44232
0.0219456
0.0285786
0.0644833
0.311678
0.0230538
4.87901
0.0221742
0.0255687
0.0220446
0.0225681
0.163908
0.0921704
0.022124
0.0305653
0.0347133
0.0435293
0.0506249
0.414474
0.456641
0.245766
0.117242
0.0252906
0.022876
0.0515415
3.49254
6.57172
3.84942
0.0301905
4.13877
0.0924344
0.0226858
0.0219947
0.0544807
0.0221435
0.0303395
5.17377
0.0219586
0.0217943
0.484808
3.37878
0.0424804
0.852652
0.0220805
5.30633
0.040976
5.18169
0.0292764
0.0220146
3.96152
0.0600107
0.0220308
0.0733116
0.0222527
0.148135
0.0286377
0.0541804
7.43911
0.0320931
5.02893
0.0219277
5.52771
0.0221075
0.0259
0.0224568
0.044364
0.0221439
0.0572883
3.74904
0.841403
0.0464998
0.029746
0.0761351
0.0219006
0.0219858
0.0228086
0.22138
0.0248483
5.5499
4.48765
0.136379
0.0222148
0.131862
0.197395
0.136824
0.0250899
4.67626
0.0219688
0.0215156
0.0219507
2.3044
0.0220246
0.0220042
3.84429
0.0219706
0.140372
0.0914874
0.0217427
4.41168
0.0270202
5.30568
0.0219197
0.319081
0.0227401
0.0674844
12.3714
0.0615933
0.0219408
0.0262145
4.30016
0.03011
0.140053
0.0302581
0.0258094
0.131125
0.0288166
0.0220672
23.3938
0.0293856
0.0269909
0.12218
0.0219647
0.0218622
0.0221888
0.0291803
0.0221102
0.0263831
5.24715
16.5295
0.0970478
7.60285
0.0535764
0.0318008
5.03799
4.91513
0.0223892
9.4424
8.53208
3.887
1.14794
0.0299259
4.13594
3.9887
19.7057
0.955529
6.43749
0.0419009
0.0819572
0.0289589
0.0252736
0.0221753
0.87559
0.0222863
4.98372
0.118875
0.361884
0.0215911
0.0675208
0.043977
0.0237329
0.0222933
0.0221173
0.11698
0.0232756
0.0221211
0.0365911
4.54316
0.0240174
0.149313
0.021829
0.127091
0.0780805
0.0221303
0.025708
0.0219451
5.3623
4.65177
0.145529
4.29571
0.0320369
0.0857706
0.0221322
0.0376129
0.0220421
0.0223163
0.0222329
4.8118
0.0217747
0.0412811
0.716982
0.0271866
0.029742
0.0219968
5.19145
0.171154
16.7952
4.5123
0.160217
0.284863
4.27045
0.297668
0.169483
8.16697
0.124139
0.0337582
1.17068
5.58236
0.0220456
6.18305
0.132136
5.56064
0.0216105
0.0555442
5.37489
0.0222729
4.75334
0.0253338
6.20581
0.0220915
0.0220989
0.0647766
0.197739
0.0258296
0.0609158
0.0217791
0.0220489
3.62688
5.60095
8.62951
0.0475532
0.0220567
0.0224038
0.0221358
0.0369687
0.894433
4.62457
2.15494
1.4586
0.0328289
0.0219543
0.0219841
5.42203
8.16507
0.24924
0.0261055
0.0243966
0.0816368
5.54647
6.80574
0.0215087
0.0219553
4.91696
0.0228941
0.198106
0.0274062
0.0220443
0.0318567
0.0448866
4.44655
4.58974
0.0222023
0.0217904
0.0248163
0.180073
5.50745
0.022266
0.117789
4.44329
0.0215181
3.2571
4.02447
15.0464
0.0221105
6.80884
4.75408
0.0349337
0.280974
0.0240489
0.188212
0.310996
0.0249902
0.0219383
8.68157
0.541155
0.0218715
0.145572
0.119778
0.0289705
0.241401
4.54811
5.55291
5.50294
0.0270101
0.0234514
0.0228992
4.95369
4.87054
4.70031
6.43178
4.50978
0.0217093
0.0411164
0.0220673
0.0221148
0.0244854
0.021967
0.0220611
0.0222496
4.35884
10.801
6.39525
0.0543874
0.182307
0.0363667
0.0218579
0.021988
4.30622
0.0221382
5.64933
3.78645
0.0221784
0.0218863
3.5612
0.022522
0.548935
0.0254366
0.0217479
0.0217075
4.40373
0.0216768
4.56882
4.23659
0.0215601
0.0437471
0.0218994
0.02277
0.0218243
0.102277
3.54673
0.0219708
5.58335
0.454617
0.0245512
0.0218689
0.0225856
0.0233607
0.0222269
0.379004
5.15764
5.43336
0.0370039
8.48428
0.0222725
0.0253758
0.0220591
0.149764
0.0232349
4.70396
0.0218602
3.97374
0.344382
5.28244
0.136995
0.0218566
0.0430693
0.0219146
4.29933
0.0220489
0.0272847
0.0260763
0.0252316
0.0221087
0.0222508
0.0320332
5.61064
0.0221917
0.0227521
0.0237731
0.0322886
0.152824
0.0221884
6.00659
3.73642
0.0237674
5.20793
4.72934
3.62255
6.38814
0.0215329
0.0232397
3.80396
4.22246
0.133552
3.8891
4.40149
0.0315329
0.0461642
0.0295254
4.15667
0.0220369
0.021966
5.49705
0.111023
5.40457
0.0245316
0.0216192
0.0220456
4.94453
0.0654121
0.0235001
0.201361
0.0218088
0.05563
0.0294001
0.0298324
0.0219073
0.0221893
0.0219173
0.0245435
1.54158
1.62553
0.0215692
0.0219062
4.86652
0.0220521
0.0589692
0.0260347
0.025611
0.0357686
0.0222865
4.22806
0.0288943
0.024995
15.8625
0.0820931
0.0233295
0.0309402
0.0220168
0.0224368
8.72904
0.257163
3.47492
0.0222419
0.0221543
0.055055
0.0268212
0.0220321
0.0365468
4.53832
0.0256787
0.038153
0.0245981
0.121008
0.022116
0.0216849
5.08147
4.92086
4.6905
0.0219618
0.154556
0.0215927
0.022023
0.0606389
4.73451
0.0642911
0.0278958
0.143119
0.022672
0.0288165
0.0543029
0.69192
0.0222123
0.0216349
0.0224938
0.0236356
0.0264688
0.0219565
1.23959
11.5357
0.0220292
0.031207
0.0224023
0.0216355
3.78232
6.03378
7.04507
0.0704776
0.0222726
0.0512423
5.45308
0.0877752
0.086601
0.0324175
0.0288249
4.90126
0.221958
0.814491
0.021762
0.0300983
0.0220821
0.0304547
7.43062
0.0216229
0.0414237
0.025513
0.0286998
0.0228025
0.0217758
0.021877
4.2452
0.0429729
0.0295784
0.0643371
0.0344561
4.92811
0.030954
0.524042
0.0219197
5.20479
4.71367
6.98653
0.0222649
0.0307574
0.0220847
0.0219525
6.88394
0.0444625
5.15811
0.0219939
0.0440563
0.119978
4.89707
0.0277443
0.0216311
6.93138
0.0222859
0.0222853
0.0225077
0.0220376
7.52941
0.0218178
0.0218706
0.0362741
0.027013
0.128909
0.117353
0.0317448
4.8009
0.0219216
0.156572
0.02176
5.0211
0.0334247
0.485902
0.127534
2.19611
0.104777
4.91375
0.0229562
6.59582
0.0316962
4.64699
0.171468
0.0281699
0.180651
0.0221583
8.91925
0.0229856
0.0362513
0.0267687
3.98694
0.130773
4.51567
0.0309839
0.0220061
4.72463
0.206642
0.051733
0.132922
8.9637
5.18004
0.0350402
0.216291
0.0413637
0.0218761
0.0459437
0.248995
0.0671862
25.4209
0.101005
0.021812
0.0219142
0.136001
0.0220859
5.17439
0.070404
0.0220849
3.71106
0.522937
3.50964
0.106952
0.021977
0.0285419
0.0252535
4.63042
3.63773
0.0254438
4.90442
0.0218719
0.030833
0.521974
0.0219994
0.0381061
0.0219287
0.0262699
0.022251
0.146445
0.240911
0.0295651
0.0286787
0.0217049
0.128041
0.021885
0.0218207
0.0323257
0.0219242
0.186289
5.15605
1.17134
4.80876
0.0217839
5.63484
0.0221892
0.0366403
0.125919
0.0220046
8.04523
0.0687848
0.0220162
0.0216235
0.0405353
0.0358693
0.182521
0.22749
0.0255477
0.0244491
4.24285
0.0577134
0.260886
0.788676
8.99816
4.01778
5.24241
0.892003
0.0221493
0.022114
0.0478194
0.0222089
0.048618
0.0356815
5.87861
5.54644
6.08774
0.0216721
0.0217715
0.113393
0.323568
4.60127
0.553114
3.61987
0.0544042
0.0316018
0.806777
0.36456
0.0259597
5.13729
0.0329626
0.0298215
4.39796
0.0392333
0.0219182
4.54734
0.875137
0.0242912
0.129639
0.0231946
3.40537
5.91453
3.77933
0.0220105
0.0216797
0.141149
0.0220129
0.0219025
0.0220188
0.0217267
0.0220275
0.0220346
5.08628
0.0280521
0.0457812
4.32447
0.0218976
0.0220402
0.0306128
0.0254434
0.0259697
0.0220491
0.0553096
0.0312882
0.0260665
0.082052
4.40625
0.0220611
0.0408156
0.0220732
0.0220336
0.0215661
0.0220854
4.80364
0.0218985
0.0220246
0.022098
0.0380531
4.47066
4.31288
5.32398
0.817814
0.0432675
4.40736
6.64055
0.0219551
0.0410458
5.80188
0.27448
0.0221122
0.027372
0.0403618
0.037582
0.0220629
0.0389052
0.058179
0.0440565
0.0216254
0.048636
2.04979
0.0215693
0.67859
5.38291
0.0417903
0.757461
0.0348706
0.0220907
0.0251688
0.022001
0.186815
5.08225
0.0216666
0.0424645
0.0219685
0.0219739
0.0221556
0.0222863
0.0384345
0.0221725
0.115322
0.12773
0.025814
0.0250555
0.0434867
0.0220475
0.0443583
0.0314259
0.0222845
0.0221021
0.0221412
5.63974
0.0220035
0.24222
0.0394236
0.0222531
0.0220088
0.0217272
4.56826
0.0253267
0.0419947
0.0504639
5.32218
0.0272987
4.5325
0.76872
0.0421174
0.0219711
0.200538
0.0381525
4.8424
0.0638908
5.12061
0.0216315
0.0453405
0.0482464
4.94022
0.0219953
0.0428777
5.47525
0.0218559
8.27609
14.5263
2.76607