/*--------------------------------*- C++ -*----------------------------------*\
| =========                 |                                                 |
| \\      /  F ield         | OpenFOAM: The Open Source CFD Toolbox           |
|  \\    /   O peration     | Version:  v2012                                 |
|   \\  /    A nd           | Website:  www.openfoam.com                      |
|    \\/     M anipulation  |                                                 |
\*---------------------------------------------------------------------------*/
FoamFile
{
    version     2.0;
    format      ascii;
    class       volScalarField;
    location    "300";
    object      p;
}
// * * * * * * * * * * * * * * * * * * * * * * * * * * * * * * * * * * * * * //

dimensions      [0 2 -2 0 0 0 0];


internalField   nonuniform List<scalar> 
13851
(
-0.127311
-0.0584019
-0.0569504
-0.412352
0.00334512
-0.0677684
-0.0444211
-0.00805079
-0.091603
0.0304231
-0.157089
0.0118205
0.0396721
-0.0981301
-0.091061
-0.0967972
-0.361069
-0.0238051
-0.211898
-0.130304
-0.10308
-0.0260577
-0.385983
0.00550273
-0.295282
-0.0853714
-0.0988968
-0.189546
-0.098548
-0.0118194
-0.383729
-0.0446361
-0.121586
-0.121229
-0.12053
-0.103734
0.00557088
-0.335275
-0.315925
0.00925079
-0.183759
-0.0991834
-0.38533
-0.190077
-0.0961789
-0.00254066
-0.0133177
-0.0976008
-0.0316281
0.0400978
-0.288606
0.0485528
-0.0964667
-0.0634519
-0.0889322
0.010489
-0.123592
-0.189003
-0.0980213
-0.142954
0.0118964
-0.099512
0.0273777
-0.032107
0.0301353
0.0409149
-0.144602
0.265943
-0.00586214
-0.405832
-0.369739
-0.113965
0.0244557
-0.139532
-0.0712122
-0.00634209
-0.361339
-0.0140904
-0.29017
0.00880457
-0.00711223
-0.271519
-0.117463
-0.100953
-0.138147
-0.377879
-0.0307415
-0.097222
0.0288849
-0.383128
0.049721
-0.0459634
-0.306835
-0.380323
-0.301518
-0.157932
0.00397128
-0.0970627
-0.240774
-0.228312
-0.0975983
0.178926
0.175013
0.0291336
-0.0065141
-0.119062
-0.00547657
-0.371104
-0.0461432
-0.023065
-0.0166832
-0.0036458
-0.216064
-0.153555
-0.109668
-0.0623946
-0.00737607
-0.00849368
-0.413028
-0.406275
-0.157697
-0.0181917
-0.000878702
-0.130958
-0.179807
0.302927
0.00314355
-0.127658
-0.137828
-0.10291
-0.022122
-0.086889
-0.329116
-0.117012
-0.16277
-0.302449
0.25713
-0.376152
0.153967
-0.0982318
-0.267134
0.0424116
0.0297528
0.18314
-0.28197
0.00766056
-0.0139829
-0.382097
-0.0922568
-0.134225
-0.0977626
-0.213921
-0.157604
-0.196487
0.0474011
0.0381303
0.0102904
-0.319939
-0.0960354
-0.048426
0.00569168
-0.100246
-0.116024
-0.0978431
-0.0969784
-0.0883173
-0.090178
-0.290424
-0.0170375
-0.235736
0.0124589
-0.00746669
-0.135671
0.0043532
-0.297707
-0.109108
-0.0996565
-0.00793985
-0.0693791
-0.0993391
-0.174848
-0.185858
-0.0221656
-0.100827
-0.364566
-0.0936574
-0.119295
0.120358
0.0428962
-0.00893325
-0.278059
-0.096927
-0.0968895
-0.069396
0.00613377
-0.0968157
-0.117407
-0.0335627
-0.0281797
0.246801
-0.266252
-0.265164
-0.19987
-0.0889776
-0.181531
-0.26382
0.0821773
-0.0912516
-0.0922284
-0.0622153
-0.0966579
-0.000180393
-0.270464
0.0123879
-0.125361
-0.0111261
0.0388006
-0.140247
-0.0326602
0.330385
-0.00808819
-0.13465
-0.100879
-0.298954
0.108627
-0.0913829
0.0120151
0.19082
0.0130437
-0.120723
-0.413979
0.114788
-0.06201
0.0272766
-0.194904
-0.0125643
-0.376473
-0.208204
-0.217913
0.00581918
-0.314787
-0.13267
-0.0969878
-0.0961396
-0.0930177
0.203283
-0.139614
-0.0689971
-0.153419
-0.0355821
-0.0902048
-0.162226
-0.00477334
-0.0683391
-0.0972215
-0.0982097
-0.108638
-0.00860313
0.320318
0.0276876
-0.119146
-0.18631
-0.0705064
-0.115928
-0.16701
0.0173393
0.181089
-0.0974737
-0.16731
0.021556
0.039026
0.113247
-0.095036
-0.410979
-0.106761
-0.019064
-0.172814
-0.191087
-0.112298
-0.11473
-0.0966319
-0.209983
-0.0732541
-0.0852321
-0.352849
-0.00865075
0.009491
-0.113908
-0.140277
-0.0137051
0.0115494
0.0135536
0.00110001
-0.0894
0.00977254
-0.0920918
-0.105117
0.00332656
-0.104421
-0.127735
0.0462026
-0.133251
-0.26707
0.043466
0.0478156
-0.107512
-0.10684
-0.345183
-0.137039
0.00308745
-0.231366
0.0124037
-0.143623
-0.269517
-0.160658
-0.0471507
-0.341941
-0.314931
-0.364473
-0.215972
0.20515
-0.303792
-0.134243
-0.192589
-0.0294213
-0.379723
-0.0952555
0.293495
0.2736
0.0831482
-0.139917
0.0617151
-0.0980251
0.195056
-0.00274601
-0.013377
-0.0582617
-0.368279
0.315015
-0.00899886
-0.294726
0.070981
-0.0879948
-0.0487476
-0.104401
-0.169101
-0.0969346
-0.00879514
-0.0596981
-0.110749
0.042772
-0.195432
-0.0719224
-0.10913
0.0751581
0.0284854
0.00232783
-0.226921
-0.235757
-0.157254
-0.325216
-0.109563
0.0058972
-0.204644
-0.12248
-0.0187078
-0.158441
-0.127884
-0.244178
-0.0557771
-0.0830601
-0.0983737
-0.3136
-0.223514
-0.09525
-0.0319437
-0.10939
-0.386045
-0.0879161
-0.0910023
-0.0947441
-0.218286
-0.0841853
-0.0680152
-0.170646
-0.256218
0.0378636
-0.0702278
-0.144187
-0.0709606
0.000165194
-0.106708
-0.117403
0.0234132
-0.0925921
-0.412296
-0.0524827
-0.316032
-0.0793789
-0.343161
-0.0641027
-0.0841229
-0.145697
-0.185045
-0.119818
-0.108127
-0.133592
-0.296259
0.0183295
-0.222432
-0.0965435
-0.0833712
-0.0165699
-0.376456
-0.142387
-0.306286
-0.0593588
-0.170775
-0.102065
-0.410792
-0.016652
-0.379416
-0.267258
-0.395416
-0.042081
-0.237657
0.0328985
0.00414399
-0.08815
-0.103299
0.031242
-0.0582208
-0.0946458
-0.00533717
-0.142824
-0.140375
-0.12781
-0.0629344
-0.0328515
0.0508408
-0.31208
0.0043901
0.0496963
-0.100278
-0.121676
-0.0187371
-0.0985359
0.0274053
0.00905045
-0.0551096
-0.160658
-0.075759
0.000172821
-0.0424083
-0.154164
-0.0503249
-0.351459
0.0108388
-0.0627923
-0.0930545
0.0648712
-0.0129112
0.0139993
-0.0623112
-0.0361373
-0.294646
-0.101436
-0.09419
-0.166976
-0.0571699
0.0154578
-0.11391
-0.0983221
0.122667
0.0219099
-0.13205
0.143653
-0.307891
0.0298365
-0.0883639
-0.228161
-0.0777171
-0.134622
-0.101011
-0.302415
0.0394953
-0.217521
0.0159273
-0.0997913
-0.0796439
-0.115862
-0.0948325
-0.00905275
0.0597133
-0.136127
0.00361436
-0.404202
-0.116507
-0.354509
-0.405291
-0.100641
-0.333249
-0.190261
0.0985848
0.0196968
-0.339401
0.0307446
0.0005492
0.102175
-0.291164
-0.0556705
0.0480074
-0.0970968
-0.127711
0.0337354
-0.308677
0.00549486
-0.128393
-0.287325
0.00823178
-0.0504158
-0.266782
-0.164419
-0.0131254
-0.337777
-0.362567
-0.0219691
-0.339272
-0.205924
-0.138922
0.0412586
-0.100091
-0.180993
-0.0224542
-0.241194
-0.00330064
0.00499789
-0.10984
-0.220088
-0.108372
-0.0744896
0.0319263
-0.08644
-0.13462
-0.312515
-0.0250974
-0.351016
0.000624637
-0.00475324
-0.120961
-0.058774
-0.0168381
-0.00266148
-0.33716
-0.250457
-0.338184
-0.0538182
0.0272316
-0.0935333
0.0195926
-0.222499
-0.0662801
-0.0731102
-0.0938829
-0.096558
-0.213532
-0.0690188
-0.386184
-0.0460186
-0.147528
-0.0986242
-0.0898671
0.00387965
0.0168652
0.167289
-0.333014
-0.0999842
-0.0852625
-0.34452
-0.0588354
-0.0823084
-0.411481
-0.311273
-0.124288
-0.125483
-0.106619
-0.106582
-0.0280013
-0.0981415
-0.233518
0.0162683
-0.30764
-0.287427
-0.0215722
-0.100264
0.0141707
0.00919064
-0.146563
-0.396399
0.00521362
0.00471163
0.102954
-0.12655
0.010461
-0.294482
0.00457943
-0.10759
0.0461477
-0.0847787
0.0279453
0.0344595
-0.0911075
-0.349226
-0.121374
-0.301881
-0.089319
-0.00514995
-0.0210178
-0.138578
-0.0412175
-0.185299
-0.0599559
0.124395
-0.0985781
0.0203933
-0.112069
0.0119768
-0.0897106
-0.387741
-0.0917789
0.129411
-0.386927
-0.0822304
-0.245645
-0.286024
-0.0271237
-0.312225
0.0667475
-0.0906142
-0.406072
-0.270727
-0.0190605
-0.183181
-0.0329418
-0.106578
-0.305193
-0.00962208
0.260147
-0.164274
0.0163766
0.0163565
-0.0853295
-0.111211
-0.0991939
0.0487038
-0.175348
-0.0485217
0.0354249
-0.0994582
-0.174975
-0.22719
-0.0157003
-0.0980803
0.0813799
-0.0814058
0.0628669
0.00765464
-0.13838
0.0990855
-0.0974964
-0.111226
-0.114421
-0.109112
-0.270879
-0.213085
-0.0940991
-0.331263
-0.0975835
-0.0998478
-0.0227545
-0.109339
-0.13754
-0.0202552
-0.0808264
-0.208985
-0.0434523
0.00846787
0.00737576
-0.0906806
-0.0954163
-0.0644381
-0.212701
-0.00489085
-0.098472
-0.0529931
-0.271926
-0.183904
-0.0670923
-0.0574641
-0.274061
-0.228758
-0.0211389
-0.102392
-0.0321482
-0.334334
-0.0907426
-0.108862
-0.0940852
-0.285399
0.0320637
0.0124182
0.0779349
0.0359797
-0.0970198
0.00145415
-0.0997897
-0.0930353
-0.188243
-0.308873
-0.238678
-0.109881
-0.256808
0.127668
0.0251645
0.0378396
-0.0132224
-0.0201168
0.004429
-0.145363
-0.208037
0.0825455
-0.184807
-0.0087174
-0.0924339
0.0219883
-0.412079
-0.109103
0.0221781
0.0264877
-0.0905245
-0.0691357
-0.0931702
-0.285327
-0.0967555
-0.12212
-0.021535
-0.124542
0.0296983
-0.0568318
-0.0988749
0.0248692
0.0438608
-0.0247374
-0.081651
-0.0920676
-0.0796775
-0.0948292
-0.271195
-0.312899
0.124126
0.0249948
-0.102434
-0.0130133
-0.103038
0.00594967
-0.0509669
-0.287476
-0.100379
-0.111114
-0.186944
-0.122383
0.0234645
0.0213534
-0.151778
-0.0295204
0.0233655
-0.0629981
-0.267314
0.00215455
-0.23461
-0.314039
-0.0940318
-0.184985
-0.394155
0.162174
0.0251378
-0.22268
-0.0040607
-0.0707029
-0.093991
-0.112188
-0.307432
-0.102085
-0.0138297
-0.00992098
-0.00286958
0.0114641
-0.0115447
-0.385308
-0.117543
-0.0894577
-0.0900657
-0.101677
0.0371499
-0.0115333
-0.339381
-0.129979
-0.0527875
0.0239564
-0.108162
-0.227841
-0.215587
0.0474985
0.00748362
-0.0912199
0.0619
-0.0944354
-0.00511349
-0.288375
-0.00446288
-0.384631
0.0269514
-0.209528
-0.100499
0.0178759
-0.0960561
0.0255307
-0.0578944
0.00321953
-0.100275
0.0580147
-0.108375
-0.0343966
-0.112465
-0.107094
-0.0894686
0.00183331
-0.412083
-0.0995519
-0.0712542
-0.0991986
0.0380241
-0.103165
-0.0209483
-0.211803
0.0178337
0.00285707
-0.0941896
-0.09485
0.0139499
-0.0651427
-0.168612
-0.0721043
-0.167498
-0.00782002
-0.0990996
0.0218504
0.00223931
0.0458663
-0.0134738
0.0179389
-0.202667
-0.0968469
-0.0331284
0.00460509
-0.109569
-0.00421381
-0.411845
-0.226837
-0.0983439
-0.306155
-0.0573859
-0.0978437
0.0162698
-0.103039
-0.043206
-0.0264595
0.00613113
-0.315543
-0.304053
-0.11939
-0.362791
-0.104259
0.0269245
-0.115496
-0.0989491
-0.338722
-0.0874921
-0.0960094
-0.133175
0.0112195
-0.400578
-0.400239
-0.0933703
-0.276918
-0.111176
0.0366575
0.184989
0.0496168
-0.12556
-0.0424493
-0.00262515
-0.176959
-0.00444549
0.00188914
0.00209265
-0.00303036
-0.2895
-0.201372
-0.00208984
-0.117782
-0.103329
-0.0228007
-0.365227
0.0601218
-0.105246
-0.236815
0.010641
-0.100291
-0.0544617
-0.0925371
-0.0875858
-0.00690092
-0.261768
-0.0824434
-0.169743
-0.0343425
-0.10188
-0.0864932
-0.126068
-0.321071
-0.101516
-0.095092
0.029034
-0.0127428
0.0172456
-0.0669408
0.025793
-0.137834
-0.0181696
0.0854139
0.12103
0.0343295
-0.00754277
-0.0517626
-0.0500499
-0.0504709
-0.0323389
-0.276314
-0.101153
-0.0835869
-0.108481
-0.183644
0.0471145
-0.362239
-0.0125539
-0.0207825
0.059955
-0.0104159
-0.074089
0.0159875
-0.00258218
0.198358
0.0392145
-0.264084
-0.0394342
-0.310586
-0.178139
-0.15662
-0.237239
-0.0299641
-0.310417
-0.146466
0.0120008
-0.0472989
0.0464866
-0.360597
0.0639642
0.172718
-0.151681
-0.412457
-0.160087
-0.0243411
-0.0961076
-0.148342
-0.110566
-0.0494559
-0.00569386
-0.024821
-0.134697
0.0310951
-0.177754
-0.225717
0.0197957
-0.125326
-0.267133
-0.0240048
-0.274085
-0.382831
-0.116058
-0.0350836
-0.0974348
-0.142226
0.00653777
-0.0888671
0.0226162
-0.0218941
0.00842308
-0.0698348
-0.069214
-0.0924431
-0.384504
-0.0799966
-0.0907202
-0.0770103
0.0284159
0.277849
0.00791129
-0.327061
-0.025573
0.00387218
0.00511517
-0.030137
-0.0993214
-0.103187
-0.0994962
-0.21997
-0.32205
0.101501
0.0217778
-0.0384158
-0.268417
-0.0253756
-0.0112727
-0.112747
-0.289871
-0.105146
-0.0129113
-0.0842575
-0.096974
-0.148685
-0.38377
-0.0219413
-0.0166319
-0.0472747
-0.305052
-0.0612539
-0.141264
0.0104372
0.00763923
-0.0225159
0.0068691
-0.0133288
-0.113086
-0.107725
-0.0930981
0.130904
0.0166985
-0.328385
-0.0364976
-0.243599
-0.182636
0.109093
-0.351599
-0.0979233
-0.39327
-0.0826747
-0.0857591
-0.0997872
-0.0860846
0.033833
-0.0143755
-0.245813
-0.0259448
-0.123497
0.029416
-0.0918291
-0.307839
-0.0121073
0.0442493
-0.0808176
-0.270875
-0.0909375
0.00621447
-0.0680503
0.0717442
-0.0602165
-0.0459951
0.0232092
-0.0987773
-0.0929583
0.0297781
-0.0837203
-0.0697454
0.0157777
-0.110425
-0.0952243
-0.307278
-0.10794
0.013585
-0.0236125
-0.0541779
0.0440578
-0.0988838
-0.0908614
0.0236077
-0.0943319
0.0952012
-0.109226
-0.100689
-0.104134
0.0711268
-0.0196988
0.185669
-0.14037
-0.140327
0.0189173
-0.096273
-0.144275
-0.383014
-0.333805
-0.091656
-0.0906818
-0.122199
0.0200929
0.02644
-0.0289019
-0.0995432
-0.0763385
-0.143775
-0.396918
-0.0334619
-0.011256
0.0318243
-0.101866
-0.0144187
-0.0687431
0.00334975
-0.095284
0.0447146
-0.00345219
0.0208619
0.0091281
0.00479205
0.077595
-0.0991629
0.0290339
-0.147684
0.0250659
0.00642264
-0.131485
-0.107527
-0.0945836
-0.0960575
0.136921
-0.0998546
-0.00593224
-0.0699088
-0.0174924
0.0264242
-0.0507288
-0.381759
-0.0459106
-0.139509
-0.338153
-0.0346387
-0.0100685
0.0948011
-0.111696
0.010956
-0.0968027
-0.0284738
-0.0991719
0.0265305
-0.0324672
-0.0718243
0.0824709
0.0404336
-0.0990022
-0.375416
-0.10066
-0.113457
0.033296
-0.339992
-0.126505
0.0229708
-0.31055
0.0441997
0.190821
0.0443953
-0.0304467
0.00238381
0.0350854
-0.00652485
0.112218
-0.11344
-0.0254255
0.0278749
0.233144
-0.0197472
-0.330231
0.0268317
-0.0919332
-0.07276
-0.151816
-0.188409
0.0224337
-0.11463
-0.00531932
-0.0609795
-0.128603
-0.097273
-0.0965081
0.0102357
-0.0967112
0.180946
-0.106072
-0.184528
0.0458554
-0.203132
-0.0870922
-0.107088
0.0425572
-0.0173499
-0.0944121
-0.412545
-0.0415542
0.00699433
-0.374796
-0.00485844
-0.107296
0.00766837
-0.156221
-0.323015
-0.0163564
-0.403138
-0.0679309
0.00743111
-0.0990603
-0.0024297
0.190202
-0.108796
-0.109663
-0.0936689
0.00207493
0.0112837
0.200474
0.0199662
0.0241368
-0.0662361
-0.0837273
-0.116319
-0.168208
0.028639
-0.0834558
-0.0158917
0.0155845
0.0200507
0.0230028
-0.31834
-0.0256016
0.0628274
-0.0986141
-0.00517145
0.00579468
-0.0968372
0.0238203
-0.305394
-0.0475001
-0.0917808
-0.157592
0.142133
-0.336222
-0.156752
-0.0858862
-0.033865
-0.230062
-0.0565013
-0.0173809
-0.00137109
0.0641718
-0.0870479
0.00867442
-0.122078
-0.000186148
-0.0218368
-0.37715
-0.292508
-0.227377
-0.0500717
0.192077
-0.221768
-0.410744
0.0200453
-0.0670227
-0.175157
-0.0314323
-0.108193
-0.329629
-0.091123
-0.0654754
-0.0891874
0.000513332
-0.270626
0.0215916
0.0387136
-0.225477
0.0301
-0.0087929
-0.330502
-0.120424
-0.0996318
-0.115808
-0.0915409
0.042872
0.000450077
-0.0331169
-0.352357
-0.228741
-0.152524
-0.142487
0.0360702
-0.263986
0.0265122
-0.222568
0.112206
-0.0448406
-0.107745
0.0178526
-0.277886
-0.319477
-0.021017
-0.12784
-0.0779954
-0.331971
-0.12236
-0.0834415
-0.0990445
-0.0746563
-0.102065
-0.0883536
0.0261406
-0.0781833
0.273069
-0.0988082
0.0140348
-0.0965355
-0.126234
-0.0818767
0.0116488
-0.327999
-0.0665306
0.0296281
-0.0103136
-0.0966434
-0.0918743
0.0398418
0.0037628
0.0040068
-0.126677
-0.309166
-0.149348
0.0236052
0.060193
-0.0759153
-0.210406
0.0193276
-0.175551
-0.34332
-0.0879797
-0.0914663
-0.0675265
-0.246681
-0.260846
0.0199503
-0.306778
0.00529185
-0.0212487
-0.0772363
-0.0931538
-0.178242
-0.0838385
-0.0617979
-0.0858914
-0.087114
0.00551735
-0.0143138
0.0889734
-0.0633373
0.0615074
-0.183122
-0.0391186
-0.0088983
0.00757647
-0.0967007
-0.168612
0.029451
-0.0593614
0.0764741
-0.109965
-0.221613
-0.076502
-0.097127
-0.168855
-0.304312
-0.156044
-0.100803
0.000351415
0.340391
-0.0115274
0.111187
-0.346641
-0.115497
-0.252853
-0.321792
0.0254122
-0.108155
-9.51327e-05
-0.0966865
0.0150552
-0.103277
-0.198869
-0.0498259
0.00234561
-0.25065
0.185824
0.0174377
-0.354304
0.0304103
0.0319574
-0.0636722
0.0460311
-0.0833462
0.0782132
0.0363165
-0.0602362
-0.280597
-0.0987301
-0.147645
0.0181095
-0.250361
-0.115171
0.00219164
-0.0996882
0.0189759
0.0987479
-0.126499
0.00242771
0.0347605
0.0649888
-0.263048
0.0169478
0.00757543
-0.110986
-0.112667
0.00177002
0.0307669
-0.026223
-0.174542
-0.124203
-0.111366
-0.120462
0.0298465
0.20396
-0.0104675
-0.150153
-0.0746207
0.0312446
-0.0576625
-0.187248
0.00695505
-0.0310757
-0.151868
-0.106409
-0.0357825
-0.128913
0.0112987
-0.0112536
-0.136699
0.0129571
-0.0256941
-0.285433
0.017675
-0.104504
-0.0987072
-0.356383
-0.16996
-0.0250215
0.0894754
0.0934088
0.00837313
0.0306772
0.0206973
-0.104872
0.0156823
-0.103924
-0.104907
-0.00906472
-0.0200514
-0.0842096
-0.106159
-0.0991223
0.0115696
-0.152613
-0.000812355
-0.0916552
-0.148596
-0.0592073
-0.0882757
-0.11608
-0.174046
-0.403257
-0.068635
-0.107826
-0.11694
-0.411298
-0.0586163
-0.00179578
-0.104069
0.158674
-0.0215757
-0.0362531
-0.0941304
0.0115563
-0.0161641
0.0170596
-0.0160657
-0.0486278
-0.0271647
-0.367249
0.0022858
-0.317047
0.00884619
-0.10307
-0.0276272
-0.110848
-0.110056
0.0296555
-0.095285
0.0873751
0.0175328
-0.0932392
-0.0159781
0.0386371
-0.0245475
-0.107565
-0.0158433
-0.112357
0.29293
-0.0951708
-0.00519607
-0.105045
-0.185568
-0.106721
-0.02919
-0.0423034
-0.0777691
-0.144438
-0.320283
-0.014238
-0.407871
0.00503962
0.160404
-0.351426
-0.0884452
-0.106455
-0.0217687
-0.091735
0.00727246
-0.318425
-0.0771083
0.00464832
-0.100481
-0.183881
-0.028969
0.0254646
0.00664549
-0.315083
0.0172698
-0.00167898
-0.112816
0.0236056
0.0189293
-0.121196
-0.0239023
-0.100474
-0.0115075
0.0277633
-0.00247496
0.10558
-0.0324866
-0.0285374
-0.102197
-0.110117
0.0152549
0.0278604
-0.149296
-0.0333518
-0.405243
-0.040327
-0.33131
-0.0100069
0.0272111
-0.00553889
-0.0982423
-0.109323
-0.00356996
0.00544828
0.114566
0.00319505
0.0269449
-0.10648
0.0046627
-0.0950845
-0.0118675
-0.0702329
0.0202832
-0.152028
-0.00437767
-0.0850192
-0.00645717
-0.231184
-0.288959
-0.0153115
-0.0689917
-0.305044
-0.1054
-0.0954007
-0.105508
-0.244713
0.0746708
-0.0962329
-0.159147
-0.172309
-0.0310774
-0.0692065
0.0907312
-0.00211222
-0.104761
-0.407485
-0.115487
-0.148244
-0.255841
-0.0617568
-0.0916878
-0.0216052
-0.0147072
-0.189913
-0.320268
-0.210762
-0.220065
-0.142987
-0.0059396
-0.325027
-0.0902019
-0.357292
0.00749405
-0.325331
-0.391786
-0.295664
-0.118376
-0.101103
-0.0979109
-0.0826866
-0.213361
0.100993
0.00696136
-0.304301
-0.123469
-0.0145486
-0.145243
0.0160823
0.00405482
-0.10087
0.0827313
-0.262202
0.0706116
-0.412206
-0.0805352
0.107651
-0.118261
-0.258825
-0.153378
0.0571686
0.0952594
-0.149613
-0.0589512
-0.00440045
-0.126624
0.0360654
-0.212073
0.012716
-0.206247
0.00372514
-0.0985329
-0.0968122
-0.102822
0.0738162
-0.192997
-0.354069
0.0309516
0.00286454
-0.359884
-0.266916
-0.0399342
-0.0568972
0.0157923
-0.136213
-0.058773
-0.101272
-0.18048
0.0440376
0.00653314
0.22361
-0.0267864
-0.135092
-0.294167
-0.00390701
0.0172925
-0.0547688
0.0109985
-0.0509112
-0.00059523
-0.0346979
0.0915267
0.00787114
0.0103213
0.0461058
-0.0860537
-0.17591
0.0105376
-0.146996
-0.351253
-0.0107565
0.0646891
-0.200904
-0.169674
0.0365084
-0.120138
-0.072712
0.155252
-0.0821623
-0.0278485
0.00645547
-0.324863
-0.0536105
-0.0939107
0.0399645
0.0323102
0.0132288
-0.124863
0.0136833
-0.11473
-0.0933936
-0.165025
0.00298624
-0.135515
-0.318167
-0.148363
-0.00632514
-0.216134
0.125854
-0.315283
-0.283239
0.0619283
-0.00137943
-0.225669
-0.137154
-0.0951127
-0.102782
-0.0990575
0.00522408
-0.0198337
-0.0492753
0.0148122
0.0470337
-0.225252
0.0128857
0.181596
-0.0112463
-0.224825
-0.128586
-0.111502
-0.0961478
-0.150918
0.0431255
0.0200818
-0.280941
-0.0148065
-0.0153518
-0.0115251
-0.183994
-0.131601
-0.322246
0.0830683
-0.0317395
-0.0200254
-0.0268007
-0.0988317
0.00358662
-0.103984
-0.226754
0.0194292
0.0245551
-0.0899097
-0.0945093
-0.0435486
0.0240586
-0.173758
-0.227552
-0.0261023
-0.120779
0.0128604
-0.135812
-0.240641
-0.0396782
-0.413547
-0.395861
-0.161297
-0.0109601
-0.0313097
0.0178532
0.023639
-0.109376
0.0015787
-0.224418
-0.100053
-0.310904
-0.0350418
-0.140887
-0.161341
-0.128509
-0.273657
-0.346522
-0.0117492
-0.0647415
-0.0658131
-0.0955107
-0.0913991
-0.0155275
-0.0940638
-0.0209743
-0.0896322
0.038512
0.000652388
-0.254767
-0.107701
-0.412116
0.0139999
-0.138621
-0.0330315
-0.115374
-0.0561744
-0.108173
-0.118473
-0.234789
-0.0905537
0.0121969
0.00339753
-0.119277
0.0010719
-0.0923099
-0.29293
0.00650354
-0.100795
0.128001
-0.302914
-0.0508687
-0.117475
-0.110814
-0.0234019
-0.160786
0.0173238
-0.090119
-0.111044
-0.210115
-0.31674
-0.141437
-0.00971877
-0.112519
-0.0178108
-0.236067
-0.00273077
-0.278416
-0.0183266
-0.0996001
-0.0164918
0.0119
-0.0894745
0.0863834
0.0279493
0.00632612
-0.0903134
-0.0811429
0.00219629
-0.0922659
-0.0952585
-0.246387
0.0326208
-0.347037
-0.0207221
-0.077782
-0.0701084
-0.0100973
-0.151343
0.01233
-0.335875
-0.0989228
-0.0561079
0.0261259
-0.272048
-0.108077
-0.0188957
-0.124168
-0.235661
-0.163842
-0.0203939
-0.166364
0.0228796
-0.217656
-0.067346
-0.17075
-0.268309
-0.0893167
0.153489
-0.135132
-0.111582
0.0122471
-0.00651781
-0.117162
-0.153348
-0.184086
0.229309
0.00683859
-0.106651
-0.180762
-0.27085
-0.0986873
-0.293923
-0.0912109
-0.329151
-0.332173
0.00974628
0.0860179
0.0217223
-0.0235346
-0.0154956
-0.11929
-0.013846
0.0656181
-0.329981
0.0080783
-0.00301119
-0.0782393
-0.179077
-0.0763209
-0.00759511
-0.270636
-0.0497283
-0.0812593
0.0164488
-0.375736
0.065945
-0.194713
0.0196225
-0.0960765
-0.124601
0.0218981
-0.413323
-0.157341
-0.158563
0.0118652
-0.00151793
-0.0887529
-0.376581
-0.104595
-0.0218305
-0.161078
-0.14703
-0.0273724
0.00621677
-0.0058237
-0.129107
0.0989943
-0.0638538
-0.0532081
-0.0635169
-0.0924694
-0.17172
-0.167023
-0.0552203
-0.0911741
-0.0162277
-0.180802
-0.135144
0.0269092
-0.110457
-0.342898
-0.171776
-0.107202
-0.39374
-0.339126
-0.276982
0.0737588
-0.025178
-0.207538
-0.277957
-0.27794
0.0132594
-0.104144
0.0369567
0.0142398
-0.108867
-0.213638
-0.115672
0.0134339
-0.107066
-0.136306
-0.122607
-0.106768
-0.292135
-0.10015
-0.00124015
-0.112369
-0.105394
-0.272251
-0.0719337
-0.110856
0.0478874
-0.00129618
-0.108442
-0.121123
-0.0181931
-0.086629
-0.0749532
0.0113436
-0.100508
-0.0901836
0.0375201
-0.0850737
-0.154011
-0.0991026
0.0273636
0.288392
-0.127812
-0.0980876
-0.112583
-0.0245575
-0.0824727
-0.0514081
0.0359572
-0.0103536
0.137792
-0.0777698
-0.0899582
-0.239093
0.00676586
-0.0245752
-0.0897773
-0.101091
-0.271233
-0.164656
-0.0957808
-0.015799
0.0346423
-0.0857571
-0.0171915
-0.307393
0.0326494
0.0159117
-0.0124001
-0.110965
-0.368519
0.0437684
-0.104868
-0.0495775
-0.000416187
-0.0835692
0.141357
-0.0985749
-0.100912
-0.409713
-0.0678138
-0.239224
-0.101302
-0.283977
-0.0768647
-0.000212394
-0.00666247
-0.125905
-0.156284
-0.00476897
-0.00797101
-0.079237
-0.145999
-0.0983549
-0.410469
-0.0980692
0.0150063
-0.244952
0.00159681
-0.0782916
0.0253745
-0.158136
0.00154963
-0.110144
-0.133879
-0.0881193
0.0246526
-0.1028
0.105114
-0.0931144
-0.25215
-0.101143
-0.00533871
-0.180507
-0.0939444
-0.230969
-0.101681
-0.146873
-0.0151772
-0.101042
-0.0235078
-0.342298
0.00612883
-0.0815926
-0.105436
-0.301046
-0.0142842
0.00747557
-0.352181
-0.113609
-0.344691
0.151457
0.0233798
-0.117072
-0.127831
0.150416
-0.0977063
-0.079729
-0.216542
-0.0516445
0.0166494
0.00399514
-0.259107
0.055619
-0.173855
0.0374513
-0.0111024
-0.254744
-0.0636175
-0.0218882
0.0125187
-0.083999
-0.20103
-0.0844898
-0.109221
0.0782426
-0.146866
0.0183699
-0.217283
-0.086823
-0.113256
0.187648
-0.0540821
-0.116212
0.119109
-0.0227988
-0.110556
-0.398894
-0.111147
-0.0294745
-0.327168
-0.0913772
0.0127683
0.0620289
-0.126317
-0.118096
0.116438
-0.0888319
-0.257363
-0.0307645
-0.103669
-0.015136
-0.0679008
-0.144269
-0.350621
-0.0966591
-0.104235
-0.147241
-0.110214
-0.136716
-0.0447117
-0.0959673
0.0299473
-0.107931
-0.161679
0.0201508
0.00377955
-0.106234
0.0446142
0.0243645
-0.120695
-0.0905553
-0.182074
-0.0620332
-0.160328
0.00378619
-0.10097
-0.0921394
0.00737781
-0.104315
-0.319504
-0.278859
-0.0954588
-0.0906762
-0.101434
-0.00078418
0.0705695
-0.140724
-0.115021
0.0255789
-0.0998237
0.0265889
-0.0898682
-0.110403
0.108185
-0.100991
-0.0902217
-0.108048
-0.098807
0.22341
-0.365386
-0.281413
-0.0606915
-0.0141597
-0.103311
-0.00249493
-0.0142514
-0.327542
0.0167758
-0.100336
0.0463675
-0.16649
-0.0590561
0.0177234
-0.330287
0.109847
0.0695273
-0.105884
-0.27235
-0.306825
-0.0645339
-0.0726387
0.0441154
-0.077163
-0.142102
-0.0838322
0.0237478
-0.196379
-0.129746
-0.0483201
-0.0940045
-0.108099
-0.00543154
-0.235231
-0.151105
-0.0855955
0.0168353
-0.233638
-0.00698799
-0.132869
-0.100151
-0.169702
-0.00186516
-0.108561
-0.407896
-0.0480795
-0.153263
-0.0668538
-0.114705
-0.208218
-0.123947
0.0732471
-0.371868
-0.00138719
-0.104584
0.0135455
-0.0428767
-0.122562
-0.105213
-0.0568552
0.271101
-0.211292
-0.0742278
-0.0269091
0.0335793
-0.120768
-0.322472
0.105772
-0.334205
-0.14677
-0.0706412
-0.0830013
-0.144586
-0.0974757
0.164698
-0.120982
-0.00307933
-0.0456692
-0.0316497
-0.323803
0.0241784
-0.0765421
-0.0127353
-0.106654
-0.080733
-0.114292
-0.107882
0.0721687
-0.19868
-0.0138928
0.0446413
0.0143612
0.0238447
-0.0577993
0.00565955
-0.103039
-0.216439
-0.10876
-0.109948
-0.0577593
-0.0116503
-0.102881
0.0176214
-0.0949388
-0.125263
-0.385131
-0.0992685
-0.0765127
-0.06339
0.0185048
0.0558194
0.145843
-0.11284
-0.225226
-0.103043
-0.35664
-0.0978625
0.00780322
-0.00388542
-0.109619
0.00706493
-0.0815537
0.206454
-0.253511
-0.0473237
-0.123484
0.0248243
-0.0382314
0.037335
0.0397022
0.0464187
-0.0990015
-0.0152399
-0.0717326
0.163607
-0.10472
-0.0956691
-0.199596
-0.172141
-0.258037
-0.0961236
-0.0489422
-0.0253621
-0.0910312
-0.108691
-0.264122
-0.0979808
-0.0791108
-0.22689
-0.0952265
-0.0405792
0.0112039
-0.0833453
0.0176703
-0.0678874
-0.391038
0.0140831
-0.0181665
-0.283231
-0.111822
-0.0832626
-0.312342
0.0428082
-0.0891591
-0.112176
-0.279086
0.128302
0.0136716
-0.0991026
0.240047
0.0304829
-0.100687
0.0198578
-0.210534
-0.0736284
0.235218
-0.320944
0.108263
-0.136751
0.00595703
-0.37316
0.0395115
-0.0630261
-0.00840838
-0.123132
0.0071275
0.0301846
-0.103675
-0.25183
-0.123891
-0.0465894
0.139912
-0.0104194
-0.00633397
-0.0452832
-0.101919
-0.0621091
-0.191337
-0.108096
-0.207491
0.0192486
-0.218804
-0.245823
-0.179508
-0.0494933
-0.225807
0.014397
-0.0154747
0.0122675
-0.306463
-0.0221363
0.025338
-0.0993179
0.016224
-0.218467
0.0570945
-0.0243078
-0.0949111
-0.0555259
-0.174007
-0.014027
-0.1398
-0.0211201
0.203161
-0.413431
-0.125991
0.00990571
-0.0602776
-0.0983113
-0.068183
-0.220861
-0.0876229
-0.0493209
-0.201855
-0.00425281
-0.0334032
-0.35534
-0.0767475
-0.0597525
-0.0963375
0.0158238
-0.00604816
0.00648697
-0.0605317
0.0367444
0.0203977
-0.139873
-0.402919
0.115544
-0.412383
-0.0837444
-0.0620115
-0.302085
-0.368182
0.0506509
-0.352354
-0.320251
-0.0901065
-0.31238
-0.0851753
-0.0999365
-0.0945764
-0.399216
-0.310392
-0.251241
0.0712025
0.0759135
0.0512798
-0.0568089
0.000117098
-0.289216
0.0176472
-0.412746
0.0341464
-0.166581
-0.0125729
-0.109987
0.0723662
0.0815916
0.0237733
0.00395323
0.064488
-0.0497165
-0.0350225
-0.0737964
-0.32878
-0.0569144
-0.22349
-0.00454869
0.080887
0.108338
0.0375777
0.00033566
0.00551781
-0.15881
-0.0944074
-0.156908
-0.351415
-0.0305673
-0.142184
0.0258051
-0.0805391
0.000448229
-0.015575
0.0203076
-0.0920282
-0.0117133
-0.073945
-0.262321
-0.01427
-0.0832852
0.0191968
-0.322977
-0.229828
-0.406958
-0.0963081
-0.223658
-0.22362
-0.0896006
-0.24474
-0.100892
-0.377547
0.0444232
0.162782
-0.293733
-0.255738
0.0262308
-0.41216
-0.202366
-0.134252
-0.0121219
-0.110179
-0.31552
0.0133882
-0.411107
0.0991476
-0.287634
0.00539988
0.044687
-0.156934
-0.00576609
-0.05931
-0.151193
-0.0188857
-0.0269159
-0.0993375
-0.165024
-0.405317
-0.0812619
-0.0325971
0.0542057
0.0136098
-0.0207049
-0.0910205
-0.0933234
-0.112875
-0.286258
-0.0857113
0.000961517
0.00178069
-0.123718
-0.408317
-0.255848
0.107171
-0.0158567
0.127463
-0.410513
-0.405121
-0.0160713
0.0112774
-0.319389
-0.0303709
-0.144641
0.0686905
0.0158144
-0.0372292
0.0912672
-0.149659
-0.314829
0.00659235
-0.018989
-0.0447156
-0.105501
-0.304869
0.0198161
-0.211227
-0.274076
-0.0157641
-0.110502
-0.0982634
-0.409205
0.0257153
-0.413074
-0.307336
-0.0431418
-0.0488779
-0.0492553
0.320058
-0.244624
-0.0643235
0.00941136
-0.411207
-0.256517
-0.0117025
-0.141854
-0.210081
-0.0830294
-0.202754
-0.300637
-0.129416
-0.280288
-0.0651161
0.0755681
-0.0467105
-0.147658
-0.291257
-0.286585
-0.407385
-0.187317
-0.0171126
-0.0904341
0.00490259
0.00815797
0.0259087
0.00810116
0.0223965
-0.0132279
-0.0914155
-0.304628
-0.337837
-0.00140506
-0.201458
0.172241
-0.00575034
0.00142343
-0.143035
0.0197637
-0.107295
-0.0985538
0.0226524
-0.0168297
-0.0915761
0.0041872
-0.250375
-0.06033
-0.00877143
-0.0176541
-0.201985
-0.0136842
-0.327525
-0.15699
-0.0151901
-0.117889
-0.0136455
-0.0449729
-0.0269597
-0.174425
-0.0934869
0.00783615
-0.17483
-0.0950235
0.013413
-0.0187133
0.0316634
-0.0338615
0.0191648
-0.280109
-0.27463
-0.412858
-0.073238
-0.408399
0.0201732
-0.0653708
-0.0321981
-0.211428
0.0465678
-0.0976487
-0.00287687
-0.107132
-0.133002
-0.364122
-0.0985033
-0.00308884
-0.11568
-0.00679609
-0.188812
-0.0125941
-0.0180164
-0.0550602
-0.065589
-0.00216155
0.00918448
0.0603738
-0.159472
0.0483419
-0.0240951
-0.0545479
0.00134601
-0.103599
0.0184498
-0.409885
-0.105614
-0.0474449
-0.107051
-0.408987
-0.105052
-0.250162
-0.0142084
0.0140078
-0.0979042
-0.0908694
-0.21564
-0.104367
-0.0907115
-0.0429688
-0.125486
-0.0805718
-0.110026
0.0209394
0.00135655
-0.155875
-0.151615
-0.412607
-0.0604359
-0.0121383
0.0202388
-0.411957
-0.110802
-0.0131676
-0.230273
-0.0209646
-0.0923247
-0.0861255
-0.087678
-0.0293354
0.0152117
0.00301922
-0.0594367
-0.184064
-0.258572
-0.0150025
-0.0155376
-0.285005
0.00457604
0.00202856
0.105462
0.0976251
-0.0728802
0.0150489
-0.101123
-0.081167
0.0987019
-0.353592
-0.122478
0.0227578
-0.0611181
0.0313627
0.00330765
-0.402383
0.291249
-0.0995282
-0.0308691
0.0176568
-0.146444
0.0854048
0.0210088
-0.079355
-0.342083
-0.0156182
-0.104869
0.0249926
-0.120898
0.0253916
-0.0224528
-0.411594
-0.144956
-0.137732
0.0153799
-0.143059
-0.0199732
0.0204364
-0.0843867
-0.0939181
-0.118367
-0.0708425
-0.153464
-0.0437372
-0.0786673
0.221966
0.18036
-0.0242306
-0.0134366
0.0540858
-0.0131928
-0.0554291