/*--------------------------------*- C++ -*----------------------------------*\
| =========                 |                                                 |
| \\      /  F ield         | OpenFOAM: The Open Source CFD Toolbox           |
|  \\    /   O peration     | Version:  v2012                                 |
|   \\  /    A nd           | Website:  www.openfoam.com                      |
|    \\/     M anipulation  |                                                 |
\*---------------------------------------------------------------------------*/
FoamFile
{
    version     2.0;
    format      ascii;
    class       volVectorField;
    location    "300";
    object      U_0;
}
// * * * * * * * * * * * * * * * * * * * * * * * * * * * * * * * * * * * * * //

dimensions      [0 1 -1 0 0 0 0];


internalField   nonuniform List<vector> 
13851
(
(1.12425 0.0540316 -1.12997e-20)
(1.06939 -0.0206912 0)
(1.06799 -0.0187806 0)
(-0.160446 -0.0136885 0)
(1.00198 -0.000592053 1.38505e-22)
(1.07932 -0.0331739 -2.45637e-20)
(1.05452 0.0142238 -3.53069e-20)
(1.01213 -0.000945745 0)
(0.374837 0.0374713 -4.39554e-20)
(0.991938 -0.0076878 1.1858e-20)
(1.1588 -0.0972755 0)
(1.00131 -0.00788265 1.79579e-21)
(0.981897 -0.0200532 4.30075e-21)
(0.169532 0.0162052 3.27384e-20)
(1.09855 0.013863 2.61466e-20)
(1.10347 0.0533744 0)
(-0.250406 0.00212643 0)
(1.03403 -0.0177788 1.49241e-22)
(1.21112 0.0500256 0)
(1.12725 0.0528081 3.04344e-20)
(1.11045 0.007273 2.65396e-20)
(1.03986 -0.0899469 9.83016e-21)
(0.75277 -0.351297 1.08533e-19)
(1.00007 -0.000230507 0)
(1.24094 -0.037759 4.32503e-20)
(1.09092 0.0491007 -4.00349e-20)
(1.09469 0.0492164 -3.06775e-20)
(1.17792 0.106433 5.53122e-20)
(0.492806 0.0234143 9.58031e-21)
(1.01959 -0.0114876 0)
(-0.0358271 -0.00446752 -1.58666e-19)
(1.05475 0.0147898 1.12073e-20)
(1.11851 0.0551998 -4.6116e-21)
(0.45106 0.0810356 1.29783e-21)
(1.12696 -0.0781131 -1.2378e-20)
(0.518955 0.0228705 0)
(1.00003 -0.000211694 0)
(1.27148 -0.146726 -1.60558e-20)
(0.053174 0.00783163 1.80886e-19)
(1.00664 -0.0363113 5.01015e-21)
(0.244146 0.0722577 6.26376e-20)
(0.528087 0.0256083 -9.59719e-21)
(-0.286599 -0.00182449 0)
(1.1079 -0.458248 0)
(0.546518 0.0310349 0)
(1.01442 -0.0219027 5.71697e-22)
(1.01728 7.76719e-05 -4.89971e-21)
(1.10081 0.0490709 -9.33211e-23)
(1.04549 -0.0501604 -1.49988e-20)
(0.981679 -0.0179591 0)
(-0.216955 0.00436907 -1.72877e-19)
(0.973783 -0.0138954 8.74957e-21)
(1.10299 0.0523624 0)
(1.07206 0.0263595 1.63969e-20)
(0.23182 0.0107193 -4.82757e-20)
(1.00573 -0.0372842 -4.70668e-21)
(1.11997 0.0546324 0)
(0.20518 0.064734 -8.22698e-20)
(1.10137 0.0431657 0)
(0.0195106 0.0183957 1.96593e-20)
(1.00124 -0.00722649 -5.0253e-21)
(1.09513 0.050289 6.11488e-20)
(0.995797 -0.00259688 0)
(1.04568 -0.0562665 -1.04399e-20)
(0.88801 -0.450346 1.29702e-22)
(0.889669 -0.428691 -1.57189e-22)
(-0.000742832 0.0128211 1.31202e-20)
(0.705919 -0.119959 9.96745e-20)
(1.02011 -0.0375631 1.79468e-21)
(-0.119846 -0.00669728 1.43809e-19)
(-0.104413 0.000911021 -1.78705e-19)
(1.1198 0.0104499 5.46387e-22)
(0.994466 -0.0258207 -4.39008e-21)
(0.0204143 0.0156099 0)
(1.07952 0.0235671 1.93397e-20)
(1.02158 -0.0716972 0)
(-0.225685 0.000669487 -9.25862e-20)
(1.02008 -0.00555513 -3.56246e-21)
(1.24619 -0.0310476 3.39547e-20)
(1.00497 -0.0171683 6.28642e-21)
(1.02137 -0.0368682 0)
(1.25381 -0.0869504 -1.22837e-19)
(1.12358 -0.0797164 0)
(0.15727 0.0166835 -5.34857e-20)
(0.0379253 0.019439 -9.35402e-21)
(-0.0594042 -0.00178302 0)
(1.04421 -0.0859609 -1.10316e-20)
(0.300849 0.00582099 -1.45588e-22)
(0.992447 -0.0119068 4.22854e-22)
(-0.0321256 -0.00378162 0)
(0.972841 -0.012959 4.22099e-21)
(1.056 0.0134545 4.60658e-20)
(-0.27247 -0.00122253 1.99455e-19)
(-0.0947287 -0.00192306 1.76663e-19)
(-0.0125788 0.0105417 1.43164e-19)
(1.09251 -0.425504 -9.52958e-20)
(1.00973 -0.0227942 2.21137e-21)
(1.10187 0.050112 0)
(-0.158965 0.0110124 9.28538e-21)
(1.20793 -0.185235 8.23411e-20)
(1.10201 0.0496155 0)
(0.817637 -0.126451 -4.02441e-20)
(0.82292 -0.140027 -2.16592e-20)
(0.990522 -0.0273553 0)
(1.0177 -0.0199511 0)
(1.12576 -0.00353358 2.1172e-20)
(1.01672 -0.0212923 2.20542e-21)
(-0.0860052 -0.000675895 1.89542e-19)
(1.05613 0.0138573 -2.5069e-20)
(1.03313 -0.0168863 3.54313e-21)
(1.0285 -0.125036 2.31843e-21)
(1.01536 -0.0210189 0)
(1.21379 -0.0120059 0)
(1.15762 -0.0421712 0)
(1.10773 0.0506925 2.09634e-20)
(1.07111 0.0250883 -4.05513e-20)
(1.01366 -0.00736324 2.61297e-21)
(1.01259 -0.000744921 3.40457e-21)
(-0.176934 -0.0125 -1.90334e-20)
(-0.0793192 -0.0101159 4.74788e-20)
(1.11647 -0.340697 8.3475e-20)
(1.02738 -0.014367 -8.76416e-22)
(1.01562 -0.0378859 4.17521e-22)
(0.148174 0.0412159 8.39849e-21)
(1.17587 0.0684347 -2.01726e-22)
(0.63698 -0.187289 0)
(1.0101 -0.0228991 -2.61014e-21)
(1.12738 -0.136008 0)
(0.282857 0.0696716 5.68585e-20)
(1.10857 0.0177472 -4.62901e-21)
(1.03645 -0.0886334 -1.05375e-21)
(1.09709 -0.0598234 0)
(1.29273 -0.154513 1.0586e-19)
(0.433072 0.0779494 4.22913e-20)
(1.16277 -0.0875868 0)
(-0.0190107 0.0105241 5.96334e-20)
(0.713706 -0.120307 7.11882e-20)
(-0.0746116 -0.00123555 2.46634e-20)
(0.855222 -0.0834768 2.57214e-20)
(1.10398 0.0228683 3.25491e-20)
(1.25187 -0.0946787 1.15254e-19)
(0.976991 -0.0432296 0)
(0.991646 -0.0121278 0)
(0.774282 -0.29185 -2.3973e-20)
(1.19517 0.00967397 5.96857e-21)
(1.00848 -0.0721378 0)
(1.01986 -0.00509619 8.52034e-22)
(-0.0863277 -0.00239927 -8.92597e-20)
(0.366432 0.0207773 -1.93804e-20)
(1.13451 -0.145199 0)
(1.10172 0.0491835 0)
(1.21219 -0.0185953 -9.57702e-21)
(1.16189 -0.0390969 -4.5388e-20)
(1.19551 0.0530887 -9.28455e-20)
(0.974313 -0.0212815 0)
(0.98465 -0.00951115 0)
(1.00134 -0.00636833 -4.36591e-21)
(0.0150974 0.00490384 -1.80415e-19)
(1.10275 0.0182943 0)
(1.05887 0.00504428 -1.63524e-20)
(1.00017 -0.0004804 3.7998e-21)
(0.502989 0.0227272 0)
(1.12266 0.00112571 0)
(1.10067 0.0488332 -5.26702e-20)
(0.173733 0.0146434 -3.07549e-20)
(0.462776 0.0433242 9.15708e-21)
(0.473021 0.0447511 0)
(-0.201878 0.005235 2.36669e-19)
(1.02791 -0.118425 -1.18158e-20)
(0.808625 0.0885241 0)
(1.00096 -0.00672161 -3.39319e-21)
(1.0136 -0.00720447 2.03814e-21)
(1.14141 -0.00470119 0)
(1.00103 -0.00043279 0)
(0.0174412 0.0152039 -1.31501e-19)
(1.09889 0.068 -5.45195e-20)
(1.10067 0.0492168 -1.08218e-20)
(1.01402 -0.00686746 0)
(1.07772 0.0250512 0)
(1.10083 0.0491535 0)
(1.17176 0.0678058 -2.34115e-20)
(1.11632 -0.422889 4.01369e-20)
(1.03472 -0.106516 -5.13838e-21)
(1.10654 0.0212518 0)
(-0.289765 -0.00218123 -5.9144e-20)
(0.373662 0.0195492 7.58834e-23)
(1.11607 0.0552335 -2.22724e-20)
(0.893489 -0.0613257 -1.76701e-20)
(0.978548 -0.023819 8.41102e-21)
(1.01818 -0.015677 -1.52818e-21)
(1.25543 0.0045598 8.88534e-20)
(1.10329 0.0173816 0)
(0.148737 0.0100733 -1.68471e-20)
(1.0804 -0.0301738 2.56434e-20)
(1.00966 -0.0653243 1.8482e-21)
(1.10248 0.0515004 0)
(1.11436 0.0560105 0)
(1.04339 -0.00854146 -5.75763e-21)
(1.03975 -0.024831 -9.41322e-21)
(0.719851 -0.175967 0)
(1.25067 -0.105319 5.89834e-20)
(0.0418935 0.0312253 -5.35463e-20)
(0.18264 0.0649292 0)
(1.09647 0.0145866 -4.91463e-20)
(1.00489 -0.666098 -7.61399e-20)
(0.00590306 0.0295022 0)
(0.938088 -0.0251023 0)
(1.09722 0.0286499 -3.64123e-20)
(0.368863 0.0413015 -2.02505e-20)
(1.07366 -0.0409833 0)
(1.10413 0.0550782 -6.41811e-22)
(1.01518 -0.0374718 -2.9127e-23)
(1.2528 -0.0990232 -1.83033e-20)
(1.00016 -0.00227972 -2.89969e-22)
(1.13207 -0.0702989 -3.06666e-21)
(1.0259 -0.0790741 5.00423e-21)
(0.982903 -0.0173792 -6.66126e-21)
(1.13267 0.0715931 0)
(1.04329 -0.016885 -1.02965e-20)
(0.144607 -0.559522 -1.34062e-19)
(1.01405 -0.00684215 -1.639e-21)
(1.13122 0.0554842 0)
(0.136905 0.0124485 5.40918e-20)
(-0.00419658 0.0109731 8.09163e-20)
(0.907083 -0.0780331 0)
(1.09724 0.0287417 2.91485e-20)
(1.00001 -0.00118843 0)
(0.757942 -0.295052 2.33829e-20)
(1.00169 -0.0126066 0)
(1.12799 -0.0717118 0)
(0.0299178 -0.0422064 -4.71112e-20)
(0.900057 -0.0741269 -2.99256e-20)
(1.07377 -0.0400611 0)
(0.996486 -0.000888033 9.92758e-22)
(0.167601 0.063317 2.40637e-22)
(1.02032 -0.0110024 4.06421e-21)
(1.0408 -0.458461 0)
(0.157372 0.0592723 -8.19943e-20)
(1.2019 -0.17345 0)
(1.00011 -0.000530501 -4.39215e-21)
(1.2715 -0.292632 0)
(0.0529778 0.0196972 -7.10118e-20)
(0.574246 0.0319762 0)
(1.10337 0.0539504 0)
(1.10205 -0.00931647 0)
(0.729909 -0.328015 -5.40066e-20)
(1.13314 0.0671596 3.79718e-20)
(1.07718 0.0265181 0)
(1.0934 -0.412886 0)
(1.04607 -0.126493 1.12783e-20)
(0.262816 0.00580188 0)
(1.16164 0.0450241 -1.09698e-19)
(1.00932 -0.00116516 7.77113e-24)
(1.0786 -0.0117064 0)
(1.10247 0.0510844 -2.48382e-21)
(0.492288 0.0215575 0)
(0.351956 0.00686635 1.55097e-20)
(1.01771 -0.0144111 1.82622e-21)
(0.595254 -0.217522 0)
(0.993228 -0.0126603 2.20307e-20)
(1.11312 0.0640096 -8.36615e-20)
(1.18318 0.0649394 -4.57759e-21)
(1.08103 -0.0101652 0)
(1.12289 0.00267161 -8.9603e-20)
(1.16619 0.0419696 1.15388e-19)
(0.999933 -0.0236847 -1.32721e-20)
(0.819045 -0.111369 4.80981e-20)
(1.10002 0.048087 0)
(1.16227 0.106116 -2.08195e-20)
(0.997907 -0.00791877 0)
(0.982905 -0.0166369 -8.40918e-22)
(0.902726 -0.0724345 1.9867e-20)
(0.46171 0.0568809 0)
(-0.228013 -0.0057632 0)
(1.11285 0.0127798 4.17647e-20)
(1.0284 -0.0152521 4.56939e-21)
(1.16865 0.0707565 5.65148e-21)
(1.18917 0.0593399 1.34542e-19)
(1.11039 0.0507543 -5.28842e-20)
(1.12104 0.00411538 7.28028e-20)
(0.431346 0.0541571 0)
(-0.115207 0.0122088 -3.28689e-20)
(1.08378 -0.0173329 0)
(1.09311 0.0118087 -7.88295e-20)
(1.24755 -0.182514 0)
(1.01933 -0.0197511 1.95562e-21)
(1.00148 -0.00589849 -2.21313e-21)
(1.11155 0.0520167 -1.18992e-20)
(1.14243 -0.104921 5.80929e-20)
(1.02158 -0.0111237 9.71056e-21)
(1.0002 -0.00205501 -4.33482e-21)
(1.00154 -0.0137955 0)
(1.00393 -0.000744524 -5.54611e-24)
(1.09796 0.000520888 -1.14293e-19)
(1.00154 -0.00619408 6.53907e-21)
(0.386105 0.0404103 2.19545e-20)
(1.1118 0.010089 0)
(1.01138 -0.030828 -9.06779e-22)
(0.49561 0.0203124 0)
(0.137857 0.037818 0)
(0.975729 -0.0188602 0)
(1.12962 0.0553079 -2.5115e-20)
(-0.194478 0.00674327 2.0876e-20)
(0.976536 -0.0437509 0)
(0.974505 -0.0178425 0)
(1.11429 0.00864622 0)
(0.122211 0.0144088 -3.97777e-21)
(0.325371 -0.00600462 -7.75267e-20)
(1.14086 0.00786109 6.08953e-20)
(1.00217 -0.000425895 -5.25086e-22)
(0.842564 0.0924305 0)
(1.001 -0.00730928 0)
(1.14769 0.00707056 5.9918e-20)
(-0.180117 0.00845646 0)
(1.15509 0.103428 9.2779e-20)
(1.05732 0.00437409 1.2009e-20)
(1.28285 -0.193211 -1.89006e-21)
(1.28416 -0.164077 0)
(-0.0548662 -0.00030096 -1.45803e-19)
(1.21192 -0.0276808 0)
(0.792444 -0.0869356 -4.78181e-20)
(0.0297335 0.0108066 4.15287e-22)
(0.189049 0.0524577 5.16741e-22)
(1.17972 0.104447 -6.43903e-20)
(1.04087 -0.0264934 1.00916e-20)
(-0.2044 -0.000719586 -1.07438e-19)
(0.22398 0.00185886 -1.87575e-22)
(0.48151 -0.482556 -1.29784e-19)
(0.555016 -0.450462 1.21295e-19)
(0.937733 -0.0200656 1.28934e-20)
(1.14503 0.00163632 -7.0964e-20)
(0.952193 -0.110377 0)
(0.308247 0.00507663 5.45305e-20)
(0.798326 -0.132479 4.57771e-20)
(1.00771 -0.00186331 -1.47159e-21)
(1.01745 0.000124344 5.19915e-21)
(1.06998 -0.0759386 -2.60214e-20)
(-0.0826185 -0.00322964 2.00797e-19)
(0.268476 -0.565607 1.23457e-19)
(1.01947 -0.0194132 -4.39196e-21)
(-0.0215892 0.0106972 -1.47119e-19)
(0.942432 -0.107308 -1.71269e-20)
(1.0982 -0.062518 -1.24012e-20)
(1.05891 0.00539307 1.80672e-20)
(0.115038 0.011541 -2.40124e-21)
(1.16477 0.0699835 0)
(1.10294 0.052225 0)
(1.02381 -0.076982 1.55965e-21)
(1.07122 -0.0381221 3.02783e-20)
(0.554128 0.0245155 0)
(0.978534 -0.0238108 -2.6508e-20)
(1.19429 0.05338 -4.83807e-20)
(1.0824 -0.0164018 0)
(1.11529 0.00761976 0)
(0.937459 -0.118527 0)
(0.992555 -0.0126697 -1.50823e-20)
(1.01206 -0.0306936 8.6229e-22)
(1.21766 -0.0836422 0)
(1.21577 -0.170971 3.28334e-21)
(1.1559 0.0486769 -1.1797e-19)
(1.29562 -0.161693 -3.66124e-23)
(0.565157 0.025048 1.08731e-20)
(1.01028 -0.07062 0)
(0.138991 0.0585029 4.39572e-20)
(1.11438 0.0682419 -2.20334e-20)
(1.0261 -0.00704478 -4.22688e-22)
(1.15188 0.102481 -8.23074e-20)
(1.12855 0.0402632 2.00357e-20)
(-0.147498 0.012777 -6.70331e-20)
(1.06773 -0.0728367 0)
(1.08912 0.0535417 0)
(1.10035 0.0442307 0)
(1.28173 -0.100712 9.06835e-20)
(1.21367 -0.0933648 1.45663e-22)
(0.306586 0.00595197 6.83878e-21)
(1.04484 -0.0361387 -8.89574e-21)
(1.09857 0.0683109 6.53199e-20)
(-0.283481 -0.000708266 0)
(1.09769 -0.0211486 5.24176e-20)
(0.284141 0.0085998 6.33804e-20)
(1.10439 -0.0219974 -2.48479e-20)
(0.186326 0.0594951 -8.15997e-20)
(1.09256 0.00954127 4.82487e-20)
(1.0754 0.0394443 2.46772e-20)
(1.17086 0.0357278 0)
(1.2348 -0.156335 0)
(0.984699 -0.0106073 0)
(1.08117 -0.0217544 1.54729e-20)
(1.14466 -0.110671 4.86472e-21)
(1.07916 0.0252015 0)
(1.01263 -0.0232196 0)
(1.11208 0.0142768 -4.53769e-20)
(0.75153 0.0953672 1.50013e-21)
(0.995373 -0.0252856 -1.04139e-20)
(1.09849 0.0272432 0)
(-0.190434 -0.012054 2.34431e-19)
(1.06457 -0.0363104 -1.5381e-20)
(1.22291 -0.442272 -9.858e-20)
(1.08616 0.0352736 -3.84007e-21)
(0.391352 -0.0100658 0)
(1.07593 -0.041688 2.5105e-20)
(1.08977 0.0475692 0)
(0.952826 -0.630296 8.96147e-20)
(1.18196 0.0630978 2.04682e-20)
(1.12701 -0.00693789 2.01943e-20)
(0.332392 0.00484098 5.89217e-23)
(0.0334552 0.0151354 8.76411e-20)
(1.24737 -0.299702 0)
(0.999088 -0.024375 -5.56849e-21)
(1.21522 -0.0796294 0)
(1.10563 -0.0292913 -5.2888e-20)
(1.0894 0.0519574 0)
(1.02607 -0.0164715 -1.13301e-20)
(-0.284939 -0.00308736 4.13793e-22)
(0.697398 0.102901 -3.05207e-20)
(1.26144 -0.0701618 -2.05588e-19)
(1.07104 -0.0368524 -2.90739e-20)
(1.17045 0.0387132 0)
(1.09564 0.0547855 -6.63881e-20)
(-0.216424 -0.00699903 0)
(1.02252 -0.0023982 5.28886e-21)
(-0.237086 0.000202668 -1.23649e-19)
(1.24557 -0.144418 1.49437e-20)
(0.503412 -0.283593 1.77583e-21)
(1.05241 -0.126752 -1.47225e-20)
(1.19444 0.0756557 -1.30992e-19)
(0.988359 -0.0164369 1.37045e-20)
(1.00125 -0.000398922 -7.58767e-22)
(0.222563 0.00929394 5.81649e-20)
(1.09589 0.0579336 5.4669e-20)
(0.991044 -0.00878324 -6.94231e-21)
(1.06937 -0.0210936 6.49884e-21)
(1.10041 0.0275476 -9.84655e-21)
(1.01203 -0.00795172 1.65788e-21)
(0.771833 0.106348 0)
(1.14498 0.00136549 1.54661e-20)
(1.12875 0.0391489 0)
(1.07265 0.00316913 1.16715e-20)
(1.04519 -0.0360971 0)
(0.972313 -0.00683302 0)
(1.28321 -0.104722 0)
(1.01035 -0.0293363 0)
(0.973407 -0.00615811 0)
(0.906629 0.037686 1.52255e-20)
(0.776967 0.0964111 0)
(1.03271 -0.088558 0)
(1.10021 0.0458528 2.72721e-20)
(0.995944 -0.00217855 -1.09574e-21)
(1.00162 -0.00593952 -2.07546e-21)
(1.06716 -0.0376129 4.63983e-20)
(1.15914 0.0482159 1.28091e-19)
(1.08255 0.0385461 -3.43296e-20)
(1.01278 -0.0243606 0)
(1.05404 -0.0281568 1.70201e-20)
(1.11881 -0.322241 4.20021e-20)
(1.06157 -0.0137763 -2.08288e-20)
(0.44892 -0.0193003 0)
(1.00154 -0.00755137 -2.3852e-21)
(1.07193 0.0144248 2.45469e-20)
(0.554157 0.0331108 1.74456e-20)
(0.943238 -0.157403 0)
(1.01699 -0.000484472 -1.28668e-21)
(1.00052 -0.00629956 -3.96554e-21)
(1.07233 0.00260102 -5.90185e-21)
(1.04624 -0.00725673 0)
(1.23589 -0.333885 5.09488e-20)
(0.828706 0.0378375 -1.77227e-20)
(1.10269 -0.00665153 6.2981e-21)
(0.360682 -1.24077 0)
(1.06885 -0.0346218 -2.43729e-20)
(1.00037 -0.00994944 -4.72889e-21)
(0.331984 0.0637555 -2.5776e-20)
(1.09943 0.0450239 2.61027e-20)
(0.88727 -0.116771 0)
(0.996481 -0.028594 0)
(0.177901 0.0483294 3.83577e-20)
(0.866565 -0.093164 4.94386e-20)
(1.1642 -0.581583 -1.93718e-20)
(0.990004 -0.0267536 -1.05761e-20)
(1.09837 -0.0554663 0)
(1.21806 -0.0862664 0)
(1.08565 0.0215802 0)
(0.224877 0.0594341 2.41453e-20)
(1.09495 0.0535503 6.97369e-20)
(1.27781 -0.0749579 1.8854e-19)
(0.97845 -0.0662942 0)
(1.21351 -0.0220541 8.01957e-22)
(1.00096 -0.0248192 4.23235e-21)
(0.480536 0.0225284 0)
(1.08632 0.0363175 1.32928e-20)
(1.11289 0.0546289 0)
(1.10456 -0.0270279 4.45632e-20)
(1.02426 -0.0718499 3.08253e-21)
(0.949105 -0.149299 0)
(1.14153 -0.00277104 1.53721e-20)
(1.0017 -0.000510712 0)
(-0.237641 -0.00142037 0)
(0.299675 0.0597506 0)
(0.49235 -0.024444 6.46126e-20)
(-0.143817 -0.0197009 -1.79325e-20)
(0.847288 0.0384416 1.52712e-20)
(-0.184846 0.00263681 -4.17114e-20)
(1.18807 0.0590557 -1.01163e-19)
(0.9167 -0.0791126 0)
(0.999726 -0.00304933 -8.83671e-21)
(1.22805 -0.44665 -5.58545e-20)
(0.991817 -0.00767881 -9.1583e-21)
(1.01224 -0.022596 1.05514e-22)
(0.912208 -0.0908371 1.64938e-20)
(0.0408984 0.0186352 8.10737e-20)
(1.06641 -0.0132442 -3.19072e-20)
(0.972649 -0.0391433 -8.5164e-23)
(1.08282 -0.262141 -7.37245e-22)
(1.13466 -0.0284922 0)
(0.989751 -0.00288951 1.06229e-21)
(0.764317 0.00330706 7.72867e-20)
(1.00839 -0.0225251 -2.26239e-21)
(0.336549 0.0734821 -2.69831e-20)
(1.23618 -0.330159 -1.65435e-19)
(1.00544 -0.0176593 0)
(1.06091 -0.00601737 -2.44849e-20)
(1.24531 -0.123495 -6.77875e-20)
(1.15926 0.104452 -1.14472e-20)
(1.02103 -0.011618 5.32583e-22)
(1.13946 -0.109164 0)
(1.166 -0.404241 1.05294e-19)
(1.02938 -0.00141426 0)
(-0.00743869 0.00349143 3.41632e-20)
(1.20511 0.0515796 -6.13164e-21)
(1.13622 0.0549773 0)
(0.977013 -0.0679811 1.47926e-20)
(0.922564 0.0385972 -6.2656e-20)
(-0.0510377 0.0187005 3.82714e-20)
(1.03013 -0.00200669 -5.74703e-21)
(1.23823 0.000207114 1.30552e-19)
(1.01777 -0.0381671 8.57534e-22)
(1.00872 -0.0221405 1.11652e-21)
(0.971534 0.0430945 4.05061e-21)
(0.191515 0.0588194 1.01731e-19)
(1.11722 -0.0256082 0)
(1.08146 0.0383378 2.87069e-20)
(0.990941 -0.00628618 -1.21582e-20)
(1.09203 0.0417419 0)
(0.318604 0.0731645 -6.50989e-22)
(0.00970674 0.00707876 1.26834e-19)
(1.03343 -0.00461996 1.50732e-21)
(-0.229692 0.00244042 0)
(1.01264 -0.0245274 0)
(1.0193 -0.0371293 -2.05172e-21)
(1.12745 -0.0047226 2.7734e-21)
(1.06818 0.0193671 0)
(1.02264 -0.002114 2.85697e-21)
(1.0183 -0.0701201 4.52337e-22)
(0.00722843 0.00161646 0)
(1.23106 -0.150348 -5.27621e-20)
(-0.0233926 0.00248169 0)
(1.06456 -0.0146356 -2.4262e-20)
(0.993418 -0.013086 -1.7159e-22)
(0.48395 0.0551215 -9.03772e-21)
(0.999499 -0.00411488 0)
(1.21603 -0.0722874 0)
(1.07577 0.00973463 3.41599e-20)
(1.08148 0.0221603 -4.28057e-20)
(1.10275 -0.0124705 1.11581e-20)
(0.648257 0.0356724 0)
(-0.104969 0.0146779 0)
(1.07986 -0.0272013 -2.66139e-20)
(-0.237431 -0.000388807 0)
(1.05626 0.00200125 5.72399e-21)
(1.15132 -0.0150483 0)
(0.537991 0.027178 2.83146e-20)
(0.257375 0.0154873 1.42682e-21)
(1.01187 -0.0385376 -9.73295e-22)
(1.00024 -0.0252588 5.40633e-21)
(0.825219 -0.161303 0)
(-0.0132205 0.00201887 0)
(1.1071 0.0469803 -8.01159e-20)
(1.09096 0.0411716 0)
(1.13075 -0.561534 1.84918e-20)
(1.06824 0.0190209 0)
(1.09052 0.0104536 0)
(0.180526 -0.0616935 -9.12929e-20)
(0.714892 -0.000125955 1.05758e-19)
(1.08776 -0.329752 -3.94682e-20)
(0.319622 0.0703708 0)
(1.10252 0.0552855 -1.32544e-20)
(0.57498 0.0258903 -2.82587e-20)
(1.04055 -0.0352665 1.24086e-22)
(1.1024 0.0423824 0)
(1.23432 0.0684582 0)
(0.999961 -0.00890282 4.64811e-21)
(-0.269301 0.000910887 -9.96364e-20)
(0.517665 0.0365126 5.08072e-20)
(1.03341 -0.120393 1.04959e-20)
(1.10613 0.0199599 -3.4372e-20)
(1.00279 -0.0343395 4.13985e-22)
(0.614819 -0.835787 2.35604e-21)
(1.14267 -0.178446 0)
(0.822741 -0.247102 2.15998e-19)
(1.00977 -0.0313113 -1.84474e-21)
(1.00075 -0.000503125 0)
(0.915248 -0.0455648 0)
(1.13373 -0.0320104 1.34427e-20)
(1.0015 -0.00713324 0)
(0.0078248 0.016456 -1.38629e-19)
(1.00088 -0.00057334 1.2062e-21)
(1.10352 0.0556818 0)
(0.972599 -0.0639535 4.90858e-22)
(1.09063 0.0515935 -1.0624e-20)
(0.991682 -0.0268727 -1.11138e-20)
(0.989074 -0.00298102 -1.23775e-20)
(1.09253 -0.153474 0)
(-0.22847 -0.000113741 2.37792e-19)
(1.12874 -0.012083 -8.31495e-20)
(-0.0348725 0.0104929 1.67337e-20)
(1.09915 -0.0555624 6.36519e-21)
(1.01216 -0.00928375 1.57096e-21)
(1.02927 -0.00920231 6.99659e-21)
(1.14409 -0.00848847 -3.88417e-21)
(1.05319 -0.0287617 2.79657e-21)
(1.18599 -0.0205364 1.13964e-19)
(1.0708 -0.0161066 -1.8523e-20)
(0.884014 -0.118056 0)
(1.10354 0.0428892 0)
(0.999395 -0.00399687 4.78508e-21)
(0.344598 0.00546278 0)
(1.00011 -0.00152907 4.55534e-21)
(1.0959 0.0562589 6.52658e-20)
(-0.223851 -0.000994677 0)
(0.521167 0.0390544 0)
(0.888063 -0.0253772 3.18779e-20)
(1.00863 -0.322175 -1.8573e-19)
(1.06485 -0.268176 -5.36417e-20)
(1.21393 -0.233328 -4.95641e-20)
(0.486206 0.0384646 0)
(1.03588 -0.00575149 -3.11561e-21)
(0.672385 0.00530239 3.31509e-20)
(0.945901 -0.118679 0)
(1.10041 -0.021088 -1.16132e-20)
(-0.136278 -0.0210192 1.25283e-19)
(1.27001 -0.00379942 -8.35038e-21)
(1.02668 -0.0075819 -4.97641e-21)
(1.18428 -0.0265353 -1.12074e-19)
(1.04269 -0.00779547 -5.82224e-21)
(0.540366 0.0233144 5.65232e-21)
(-0.223968 0.00418085 -4.95511e-20)
(1.02405 -0.0385549 1.44101e-22)
(0.708223 -0.140906 -9.68116e-20)
(0.76069 0.109074 6.35087e-20)
(0.99992 -0.00164888 -6.98303e-21)
(0.999933 -0.00170638 -5.22887e-21)
(1.09087 0.0492815 5.18343e-20)
(0.326321 0.00387936 1.09477e-20)
(0.999837 0.038493 -4.13814e-20)
(0.973697 -0.01627 4.02066e-21)
(1.17622 0.0303363 6.74761e-21)
(1.05919 -0.0152176 1.04381e-20)
(0.987995 -0.00418862 0)
(1.10586 0.0425726 8.09986e-21)
(1.17622 0.0298595 0)
(1.21037 -0.160356 3.84364e-20)
(1.02114 -0.00199544 0)
(1.10036 0.04801 4.25758e-20)
(0.914143 -0.204728 0)
(1.08734 0.0465259 9.61074e-21)
(0.95929 -0.0178146 -3.74779e-20)
(1.00878 -0.063572 6.4709e-22)
(1.13294 -0.180991 0)
(0.918998 -0.0491037 0)
(1.10033 0.0484736 -1.65869e-20)
(1.1171 0.0143543 3.9369e-20)
(1.12024 0.0110751 5.83127e-22)
(1.08115 -0.300003 5.67054e-20)
(1.13998 -0.604172 -7.37651e-20)
(1.2124 0.0459532 -1.34675e-21)
(0.792905 0.0669894 -1.47675e-23)
(1.19856 -0.110332 0)
(1.10151 0.0495783 0)
(0.197837 0.0235524 2.9319e-20)
(1.02954 -0.170035 -1.35999e-20)
(0.941982 0.0414135 0)
(1.1341 0.0558597 0)
(1.03052 -0.0185189 0)
(1.08957 0.00861027 -2.12484e-20)
(1.20856 0.0424112 -1.51351e-19)
(1.05692 -0.0834791 -1.9947e-20)
(1.00496 -0.0167404 -2.70387e-23)
(1.00544 -0.0156794 -2.42149e-21)
(1.0966 0.0546606 2.92098e-20)
(0.297898 0.00372268 2.27868e-20)
(1.07365 0.0149945 -2.58312e-20)
(0.116821 0.0531993 4.50471e-20)
(1.01213 -0.00918385 1.55432e-21)
(0.971082 0.0386766 8.68139e-21)
(1.0144 -0.346658 0)
(-0.202632 0.00519545 2.01008e-19)
(1.18442 -0.0329392 -5.67055e-20)
(1.07881 -0.0415729 -2.69644e-20)
(1.06841 -0.0172162 -1.77147e-20)
(-0.192127 0.00803925 -7.27185e-20)
(1.20996 -0.162747 -1.41521e-19)
(1.02802 -0.168544 1.37442e-20)
(1.09545 0.0555935 -1.29795e-20)
(1.04467 -0.0326709 0)
(1.23759 -0.415494 0)
(1.09672 0.0554072 -1.73848e-20)
(1.10452 0.0570297 -2.44003e-20)
(1.10399 -0.0391174 1.21095e-20)
(1.2601 -0.130999 0)
(0.989081 -0.0180932 8.90633e-21)
(1.00013 -0.00190306 2.95089e-22)
(0.943327 -0.0152607 3.38074e-20)
(0.987332 -0.00484285 -2.06898e-21)
(0.522288 0.0271074 0)
(1.00369 -0.000845186 0)
(1.10628 0.0419306 0)
(0.450397 0.0535719 0)
(1.18827 -0.0381011 0)
(0.0252869 0.00929624 0)
(-0.146065 0.0124337 0)
(1.10511 0.0565161 0)
(1.22487 -0.217534 1.10525e-19)
(0.88702 -0.0399247 -2.62069e-20)
(0.998699 -0.00080211 -1.29309e-20)
(0.984049 -0.0154769 8.87715e-22)
(1.01914 -0.00559986 0)
(1.02845 -0.00952687 -8.87791e-21)
(1.001 -0.00041223 -8.49141e-22)
(1.15003 -0.0097536 0)
(1.20805 -0.00405206 -7.64201e-20)
(0.912198 -0.207887 0)
(1.17698 0.105885 -1.06168e-19)
(1.02426 -0.0598068 6.32699e-22)
(0.361356 0.0384238 -1.03045e-20)
(0.999976 -8.68241e-05 -3.76864e-21)
(-0.127078 -0.0176779 -2.56732e-19)
(1.11566 -0.0827844 -1.0733e-20)
(0.999931 -0.000592695 -1.08066e-21)
(0.997168 -0.00120643 -7.57583e-21)
(0.506127 0.040965 3.84052e-20)
(1.08043 -0.0336584 1.85228e-20)
(1.02485 0.0472879 1.83825e-20)
(0.5354 0.0397253 6.58277e-21)
(1.10294 0.0197557 0)
(1.1253 0.0266537 -1.99303e-20)
(1.02886 -0.000789899 -4.74423e-21)
(0.409387 0.0775426 -4.41108e-20)
(0.987753 -0.0785235 0)
(1.06766 -0.0144168 3.35514e-20)
(1.1043 0.0419437 0)
(0.998734 -0.00124718 6.10383e-21)
(0.976552 -0.0414033 -4.99314e-21)
(1.03376 -0.00987945 0)
(1.08821 0.0347529 3.22163e-20)
(0.283118 0.00622688 4.27055e-20)
(1.09089 -0.0527907 -3.4311e-20)
(1.10408 -0.0342456 -4.79223e-20)
(1.24764 -0.150826 0)
(-0.0230466 0.00618748 -1.2978e-19)
(0.891676 -0.0527232 -3.49228e-20)
(0.990028 -0.100404 0)
(0.56415 0.0265165 1.6625e-22)
(1.01875 -0.00523325 0)
(0.552334 0.0257304 -1.85731e-20)
(1.00042 -0.00124077 -1.152e-21)
(1.06153 -0.0131103 0)
(1.25235 -0.0246745 -3.87357e-20)
(1.10302 0.0432793 8.85925e-20)
(1.10891 0.0519171 0)
(1.18353 -0.0920393 -9.85801e-20)
(1.12896 -0.0101645 1.16892e-20)
(0.999535 -0.00140556 -5.64941e-21)
(0.999999 -0.000254386 -7.8614e-21)
(1.15679 -0.0116446 0)
(1.04236 -0.0342891 -6.53363e-21)
(0.99959 -0.00123859 -1.02322e-20)
(1.0723 0.0180472 0)
(1.23835 -0.184697 -1.3048e-19)
(1.00464 -0.00524571 -1.15257e-21)
(1.19987 -0.246138 9.87767e-20)
(1.23536 -0.425446 6.96244e-20)
(1.05188 0.0431365 1.61877e-20)
(1.18305 -0.0869688 6.27721e-20)
(0.00988384 -0.0126866 9.04264e-20)
(0.843401 -0.0951724 5.94015e-20)
(0.998519 -0.00105508 0)
(1.21271 -0.105632 3.7915e-20)
(1.01157 -0.00956283 0)
(1.08142 -0.0209962 -3.47876e-21)
(0.835797 0.0654125 -1.63903e-20)
(0.574086 0.025222 4.55225e-20)
(0.673419 0.00431351 2.45102e-20)
(0.60277 0.0292373 0)
(1.02764 -0.0404759 0)
(1.02395 -0.038214 -1.44556e-22)
(0.988122 -0.264296 -1.47707e-21)
(1.00563 -0.06192 -2.28867e-22)
(1.0214 -0.018086 0)
(0.790401 -0.377994 1.0757e-19)
(1.11155 0.0623314 2.965e-20)
(0.277466 0.0107221 0)
(1.09615 0.0573919 -7.25938e-20)
(1.10403 0.0437016 -5.91784e-20)
(0.985869 -0.00706874 2.6783e-21)
(1.01946 -0.0117251 0)
(1.27817 -0.296989 5.64921e-20)
(1.13076 0.0383279 7.72758e-20)
(1.06358 -0.0125184 2.89554e-20)
(0.999811 -0.000547492 -2.30289e-21)
(1.10654 0.0506632 -2.70275e-20)
(1.22243 -0.0397 -4.36617e-22)
(0.129946 0.0539507 0)
(0.974233 -0.0212554 0)
(1.00095 -0.00331108 2.82531e-21)
(0.265606 0.00495752 -3.36739e-20)
(0.960008 -0.0193692 3.06272e-20)
(1.1036 -0.0167714 6.07466e-21)
(1.01165 -0.0074584 0)
(0.0597411 0.021386 0)
(1.00877 -0.000508196 1.97927e-21)
(-0.21352 -0.000478291 0)
(0.995211 -0.00555214 1.23032e-20)
(1.1937 -0.183569 7.3329e-20)
(1.108 0.00351234 -3.02571e-20)
(0.963921 -0.26537 3.73896e-21)
(1.10501 -0.0353852 7.23294e-21)
(0.993678 -0.0246685 0)
(1.06913 -0.0250745 0)
(1.00323 -0.0039923 -7.64826e-23)
(1.10785 0.04265 -1.49218e-20)
(0.963498 -0.0270284 0)
(0.375499 0.00898429 -1.34346e-20)
(1.04681 -0.0313371 -4.65718e-21)
(1.07673 0.0896945 -2.45133e-20)
(0.377163 0.0631078 0)
(1.09973 -0.0431796 -2.43277e-20)
(1.00387 -0.00281208 -4.0146e-22)
(-0.163656 -0.0173533 -6.04725e-20)
(0.827816 0.0385966 -8.69046e-21)
(1.08222 -0.0267339 5.6235e-20)
(1.10209 0.0438696 -6.15054e-20)
(0.984027 -0.0153806 0)
(0.314453 0.00649361 0)
(1.03132 -0.019443 3.46367e-21)
(1.21099 0.041368 0)
(0.999349 -0.00971197 5.43114e-21)
(1.00357 -0.0036601 6.57072e-22)
(1.04836 0.0476042 2.61998e-20)
(1.10339 -0.0110312 0)
(1.00058 -0.00688104 0)
(1.07365 0.0261529 1.09475e-20)
(0.206483 0.0660352 0)
(0.738853 -0.824395 1.38087e-20)
(0.710398 0.106946 -6.62769e-20)
(1.01684 -0.0149435 -1.78621e-21)
(0.216003 0.02665 -6.42927e-21)
(0.997709 -0.00840621 7.58078e-21)
(1.00451 -0.00505185 8.67948e-22)
(0.975654 -0.0242286 -1.01337e-20)
(1.01768 2.17863e-05 0)
(0.99987 -0.00242598 -4.18367e-21)
(0.644958 0.0974872 5.8353e-20)
(0.815655 0.0736324 0)
(1.04383 -0.0174571 0)
(1.00094 -0.000892234 -2.13628e-21)
(1.1177 -0.0246285 3.20521e-20)
(1.01585 -0.0219818 8.15799e-22)
(-0.129234 -0.0202604 -5.26954e-20)
(1.21581 -0.0982897 -1.13522e-20)
(0.179662 0.0188606 -4.75029e-21)
(0.0446009 0.0104357 -6.25768e-20)
(1.06875 -0.0235995 0)
(1.10031 0.0485586 0)
(0.999952 -0.00902772 4.98186e-21)
(1.1103 0.00669802 -2.8315e-20)
(1.00916 -0.334188 3.22428e-21)
(1.03507 -0.00495019 1.22976e-20)
(1.00035 -0.00125632 3.27977e-22)
(1.27253 -0.283952 0)
(-0.215981 0.00308472 -5.37681e-20)
(1.12277 0.0278558 0)
(-0.287788 -0.00140047 7.30542e-20)
(1.10797 0.033743 0)
(0.996145 -0.003261 0)
(1.12398 -0.0381604 -3.97925e-20)
(1.10187 0.0439322 5.81335e-20)
(-0.243549 0.00083985 -1.44321e-20)
(1.09625 -0.00273866 0)
(1.09798 0.0445616 -2.19822e-21)
(1.13365 0.0381343 -1.09405e-19)
(1.00035 -0.00262139 5.70819e-21)
(0.543769 -0.141438 0)
(0.45724 -0.114041 0)
(0.31349 0.00872138 1.86597e-20)
(1.26343 -0.00148936 1.18705e-20)
(0.984207 0.0451881 -2.84703e-20)
(0.981543 -0.0704922 3.77216e-21)
(0.739919 -0.361466 6.42813e-20)
(0.973717 -0.00513806 -1.02124e-20)
(1.11413 0.0864387 -7.78419e-20)
(1.05564 -0.0783659 1.82446e-20)
(1.00758 -0.00137389 1.19074e-21)
(0.663666 0.103439 -7.87174e-20)
(1.02003 -0.0590116 -2.88716e-21)
(1.00374 -0.00244498 0)
(1.01318 -0.0379672 1.03923e-21)
(1.01859 -0.057826 2.73207e-21)
(0.0258223 0.0190534 0)
(1.20078 0.047943 5.3477e-20)
(1.01155 -0.0137648 5.29174e-22)
(1.12558 -0.0335392 0)
(0.139286 0.0150202 6.8754e-20)
(1.03698 -0.0539888 0)
(-0.286417 -0.000634729 1.04467e-19)
(0.960132 -0.0426672 0)
(1.10752 0.0406546 3.45962e-20)
(0.146678 0.0514207 0)
(1.0013 -0.00627199 0)
(1.10708 0.0451596 3.58312e-21)
(1.06582 -0.0919986 8.0494e-21)
(1.10281 -0.0447764 0)
(0.759507 -0.809339 0)
(1.02238 -0.0590154 0)
(1.24786 -0.0772344 7.25132e-20)
(1.08808 0.0485314 -2.58141e-20)
(0.255653 0.073085 0)
(1.04384 -0.00203224 1.20034e-20)
(0.342521 0.00706446 -4.03954e-21)
(1.0965 -0.0239389 -1.01295e-20)
(0.117484 0.0300233 3.40907e-20)
(-0.240065 0.00146322 -2.14168e-19)
(0.317968 0.0048923 3.93357e-20)
(1.10119 0.0215429 0)
(0.990903 -0.0239221 0)
(1.02689 -0.0402291 0)
(0.999943 -0.00151609 0)
(1.07445 0.0377193 2.20022e-20)
(0.997135 -0.00272316 7.93338e-21)
(0.237522 0.0626406 2.99324e-20)
(1.02972 -0.111713 5.09416e-21)
(0.929692 -0.0860198 0)
(0.894342 -0.0554505 6.10925e-20)
(0.983348 -0.0653668 0)
(1.01646 -0.0139613 0)
(1.06154 0.0208389 0)
(1.06295 -0.0784165 -1.03947e-20)
(1.06102 -0.00603524 0)
(1.04447 -0.0920497 3.86449e-21)
(0.404724 0.0438666 0)
(1.10985 0.0438496 0)
(1.09313 -0.0148861 -1.98135e-20)
(1.11194 -0.145641 0)
(0.688931 0.103363 4.00937e-20)
(0.972669 -0.0398893 1.73109e-20)
(-0.06567 0.000651289 -3.98482e-20)
(1.01824 -0.00575875 3.50083e-21)
(1.03133 -0.134756 0)
(0.961621 -0.0234679 1.71814e-20)
(1.0224 -0.026364 4.6117e-21)
(1.0787 -0.15188 4.58414e-20)
(1.00009 -0.0105234 2.88243e-21)