/*--------------------------------*- C++ -*----------------------------------*\
| =========                 |                                                 |
| \\      /  F ield         | OpenFOAM: The Open Source CFD Toolbox           |
|  \\    /   O peration     | Version:  v2012                                 |
|   \\  /    A nd           | Website:  www.openfoam.com                      |
|    \\/     M anipulation  |                                                 |
\*---------------------------------------------------------------------------*/
FoamFile
{
    version     2.0;
    format      ascii;
    class       volVectorField;
    location    "100";
    object      U;
}
// * * * * * * * * * * * * * * * * * * * * * * * * * * * * * * * * * * * * * //

dimensions      [0 1 -1 0 0 0 0];


internalField   nonuniform List<vector> 
13726
(
(1.02912 0.010464 2.89183e-21)
(-0.0158066 0.00507179 0)
(1.06914 0.0196789 4.07386e-20)
(1.02586 0.0172771 -5.93209e-21)
(1.16792 0.0753935 1.37158e-20)
(1.02533 0.0103722 -1.73625e-21)
(1.02048 0.0126009 0)
(1.01971 0.0135375 2.54935e-21)
(1.1636 0.0795128 1.09291e-19)
(1.11926 0.0540411 1.47959e-20)
(1.16454 0.0775791 -7.31899e-20)
(1.00391 0.00681254 1.67642e-22)
(0.990108 0.000403103 0)
(0.0998781 0.0264818 0)
(1.02548 0.0169431 8.18855e-21)
(0.997671 0.000529451 3.23919e-21)
(1.13363 0.0905835 6.73248e-20)
(1.03945 0.0320012 -1.10139e-20)
(0.160376 0.0463386 0)
(1.12272 0.102459 2.58596e-20)
(0.785622 0.105092 0)
(0.98441 0.00174884 1.93453e-22)
(1.03261 0.0227608 0)
(1.07096 0.0203157 0)
(0.987594 0.00121737 0)
(0.988041 0.00461806 0)
(1.07157 0.0507544 3.87986e-20)
(0.988147 0.00469811 0)
(0.987844 0.00135975 5.75104e-23)
(-0.0710107 -0.00284972 -4.62546e-20)
(0.621498 0.0925344 0)
(0.996836 0.00745176 0)
(0.140837 0.041844 -7.67499e-21)
(1.04147 0.043905 -4.8347e-21)
(1.01088 0.00126594 -1.45384e-21)
(0.122353 0.0477059 2.68933e-20)
(1.08706 0.0391536 2.65454e-20)
(-0.0124451 0.00631236 0)
(1.0252 0.018862 -6.09531e-21)
(1.03694 0.0270275 6.3954e-22)
(1.0458 0.0897939 0)
(1.01435 0.0021774 0)
(1.03788 7.19482e-05 0)
(1.02184 0.0159458 9.56021e-21)
(1.03007 0.0109138 -2.28179e-21)
(1.04686 0.0238359 2.49288e-20)
(1.00506 0.0400801 -1.99009e-22)
(0.998155 0.00575384 -2.18895e-23)
(1.11143 0.0750914 -3.50189e-20)
(0.988148 0.000651619 7.66791e-22)
(0.258009 0.00340134 3.14087e-21)
(0.998967 0.00596003 2.91249e-22)
(1.01146 0.0150168 0)
(1.0387 0.031534 -9.80147e-21)
(1.07789 0.0229 -4.79073e-20)
(1.02411 0.000677991 1.55557e-20)
(1.01424 0.0166937 -6.95051e-24)
(1.01255 0.0170118 7.48246e-24)
(1.10293 0.047626 3.96241e-20)
(1.07019 0.0143885 4.61231e-20)
(0.524099 0.0300434 9.23498e-22)
(1.02139 0.0156495 -9.32515e-21)
(0.024485 0.0100064 -5.59668e-20)
(0.984216 0.00172187 -1.42148e-22)
(-0.0309692 0.00106702 0)
(0.993672 0.0064008 0)
(0.821918 0.104458 0)
(0.0712704 0.0309629 -1.03089e-20)
(1.00071 0.00629878 2.26877e-22)
(1.15546 0.0824491 -1.91338e-20)
(1.00212 0.0351711 0)
(1.01933 0.0132195 0)
(1.00706 0.0011 -2.75983e-21)
(1.06256 0.00188156 -1.34431e-22)
(0.15854 0.0459496 -1.62169e-20)
(0.343498 0.0231668 -1.34724e-21)
(1.1575 0.0829192 0)
(0.425145 0.0569468 0)
(0.144234 0.0435449 0)
(1.08445 0.0855552 -4.1849e-20)
(1.05898 0.0870391 0)
(1.10554 0.0732146 -4.08584e-20)
(1.09005 0.0867307 -2.58926e-20)
(0.998134 0.00077136 4.45961e-21)
(1.02529 0.0190293 4.05342e-21)
(0.0442049 0.0111692 -2.62504e-20)
(1.07921 0.0883288 0)
(1.05806 0.0193531 2.12088e-20)
(0.98492 0.000202882 5.22254e-22)
(0.716233 0.102515 2.95043e-20)
(1.033 0.00238821 -8.6328e-21)
(1.16726 0.0774727 -1.42387e-20)
(1.04714 0.0231437 -1.41973e-20)
(1.07627 0.0231603 2.02097e-20)
(0.00630213 0.0146458 0)
(0.122831 0.0387506 8.84034e-21)
(1.06306 0.0636068 1.80406e-20)
(1.00366 0.00690071 -1.72162e-22)
(1.02822 0.0197836 0)
(0.668697 0.00469552 1.21143e-22)
(1.05324 0.0235098 4.57793e-21)
(1.11886 0.0560854 2.65572e-20)
(1.01234 0.0063867 -1.73036e-22)
(0.99946 0.00372367 -4.24179e-21)
(1.01128 0.0134816 -3.99319e-24)
(1.13135 0.0904045 0)
(1.09204 0.0865895 0)
(1.01218 0.00796695 0)
(1.03743 0.0268886 -4.97383e-21)
(1.06462 0.0635618 -1.12493e-20)
(1.12897 0.0667554 -2.0473e-20)
(0.998972 0.00374724 0)
(0.344273 0.069021 5.11197e-20)
(0.559332 0.0571013 2.69947e-22)
(0.439673 0.0433396 0)
(1.02681 0.0204222 -5.23662e-21)
(0.977888 0.0185599 0)
(0.432557 0.0761301 2.85561e-20)
(1.01224 0.00854805 0)
(1.0687 0.0184313 -3.20181e-20)
(-0.0586596 -0.00222744 5.35627e-20)
(1.00659 0.00106181 -2.67244e-21)
(1.06681 0.0220357 -1.40777e-20)
(0.149441 0.0447195 0)
(0.331616 0.0687058 1.20793e-20)
(-0.0132599 0.00817087 0)
(1.0282 0.0202283 -3.2894e-21)
(1.01592 0.0182078 0)
(0.999057 0.00373388 -1.79078e-21)
(1.02849 0.0191518 3.92887e-21)
(0.505561 0.0284906 0)
(0.865555 0.107652 -3.0989e-20)
(1.02861 0.0188659 -2.81966e-21)
(1.10949 0.0743714 3.38634e-20)
(0.0142673 0.0252701 -3.47531e-20)
(1.17132 0.0727949 2.69096e-20)
(-0.0255785 0.00279658 0)
(0.939266 0.0295763 -5.51473e-22)
(0.66074 -0.00130759 4.48091e-23)
(0.563054 0.0233601 -4.96268e-22)
(1.09595 0.08204 0)
(0.0178531 0.0213907 1.26565e-20)
(1.01323 0.00908554 0)
(0.996848 0.00530858 9.5867e-23)
(1.02593 0.0106876 2.3751e-21)
(1.08891 0.0389376 -1.41436e-20)
(0.751704 0.102186 -1.52975e-20)
(1.08965 0.00846916 0)
(1.05956 0.019956 -2.57193e-20)
(0.146254 0.0440239 1.83846e-20)
(1.02882 0.0208481 -1.72745e-21)
(0.995039 0.000402124 -2.69345e-21)
(1.10598 0.0754125 7.69057e-21)
(1.08736 0.00806697 0)
(0.999695 0.0060475 7.91675e-23)
(1.05644 0.0435115 -1.18591e-20)
(1.09674 0.0256893 1.95746e-20)
(0.999207 0.0214955 -1.06565e-22)
(0.000371199 0.0165109 0)
(0.986737 0.00099765 3.83769e-22)
(0.986919 0.000504748 -7.41499e-22)
(0.989069 0.000245597 0)
(0.0303529 0.0112703 5.10044e-20)
(0.138751 0.0343363 1.20262e-20)
(0.990726 0.00552285 0)
(1.01136 0.0166933 -1.87503e-22)
(0.567824 0.0234604 0)
(1.02086 0.0125555 0)
(1.05205 0.0216989 0)
(0.990954 0.000732869 1.15352e-21)
(1.03346 0.0113724 -5.18001e-22)
(1.05555 0.042194 1.15386e-20)
(0.965396 0.0214957 -1.13141e-21)
(1.07526 0.0249102 -2.16678e-20)
(0.391808 0.0608381 -1.64401e-21)
(1.02427 0.0347525 0)
(0.996261 0.00495347 -2.0152e-22)
(0.674059 0.0961652 0)
(0.36972 0.0720717 5.83381e-21)
(0.996457 0.000626184 2.52963e-21)
(0.304567 0.0646475 4.26887e-20)
(1.04961 0.00599366 -1.03748e-20)
(-0.00352619 0.0110276 1.491e-20)
(-0.0390761 0.0249132 0)
(0.99638 0.00514983 1.10141e-23)
(1.01257 0.00881882 -1.91887e-21)
(0.991989 0.000395416 0)
(1.05087 0.0210113 -1.88305e-20)
(1.03187 0.0223282 -1.58961e-20)
(1.09861 0.026649 -6.24823e-20)
(0.632612 0.0619589 2.69805e-21)
(1.0046 0.0215077 0)
(-0.0695296 -0.00167087 5.99337e-20)
(-0.0646325 -0.00118531 0)
(1.01864 0.0128358 -6.80523e-21)
(0.991657 0.00579963 -9.84396e-24)
(1.02627 0.0200101 0)
(0.848516 0.0956738 0)
(1.00671 0.0278104 3.24122e-23)
(1.01548 0.000356413 -6.55279e-21)
(-0.00218639 0.00445771 0)
(0.949304 0.0246143 0)
(-0.0447027 0.00106606 4.57058e-20)
(1.04152 0.0428643 5.17937e-21)
(0.998135 0.000810699 0)
(1.01434 0.0101097 0)
(1.0476 0.024637 0)
(-0.0289484 0.0332025 1.37713e-20)
(1.07436 0.0132254 1.76281e-20)
(1.10508 0.0791237 8.02628e-21)
(1.17057 0.0751079 1.45886e-20)
(0.0144413 0.0151437 0)
(-0.0506798 -0.000234806 -4.66046e-20)
(0.98197 0.001673 -2.13773e-23)
(0.419213 0.0623932 -5.33148e-21)
(0.149621 0.0435316 3.93355e-20)
(1.07143 0.0216956 -8.78115e-21)
(1.03747 0.000674883 -1.07122e-20)
(1.04297 0.0349095 5.98369e-21)
(0.452668 0.086707 0)
(1.08441 0.019631 4.71644e-20)
(1.13479 0.03282 0)
(1.00095 0.0177207 -2.24888e-22)
(0.126952 0.0489619 -5.02216e-20)
(1.01026 0.00739788 -5.55001e-21)
(0.82112 0.0943263 0)
(0.00195365 -0.0160683 -4.60636e-20)
(0.385043 0.062644 -1.36031e-20)
(0.680813 0.101573 1.73737e-20)
(1.04968 0.0193381 1.76874e-20)
(0.0464177 0.0288191 -5.09233e-20)
(0.00277446 0.00608624 0)
(0.284957 0.0627721 -4.71742e-20)
(0.478308 0.062983 -3.77553e-21)
(1.06286 0.00383547 0)
(1.04407 0.00345908 -1.36575e-20)
(-0.00693184 -0.00181622 -5.54761e-20)
(0.474714 0.0802951 2.63559e-20)
(0.963138 0.00749225 -3.81151e-22)
(0.449256 0.0845503 4.29282e-20)
(0.999214 0.00367307 -2.4058e-21)
(1.03675 0.0257405 -2.01609e-20)
(1.01259 0.00810908 0)
(0.0545155 0.0289191 -2.41802e-20)
(0.971054 0.0198107 0)
(0.821829 0.10573 -1.3791e-20)
(1.10507 0.0477215 -4.29537e-20)
(1.06389 0.0529811 6.73171e-21)
(0.978851 0.000277117 9.37584e-24)
(1.11291 0.0921608 -3.88925e-20)
(0.329429 0.0678896 -7.1949e-20)
(1.06358 0.00323694 -1.37759e-20)
(0.627641 0.09709 2.11734e-20)
(1.06813 0.0523956 8.41834e-21)
(1.06914 0.0736489 -1.14328e-20)
(1.03477 0.0498182 0)
(1.06715 0.0231543 1.53406e-20)
(0.336795 0.0678971 3.19905e-20)
(0.138645 0.0341124 5.623e-21)
(1.06883 0.0511975 -8.93766e-22)
(1.03097 0.0193889 -1.78941e-21)
(-0.00921488 0.000817432 4.52129e-20)
(1.08395 0.0641263 3.11168e-20)
(0.980158 0.0003085 -1.64546e-22)
(0.26375 0.00615955 -5.07877e-21)
(0.478512 0.0831497 -2.2834e-20)
(0.999504 0.000661285 -5.25106e-22)
(1.04461 0.00396995 4.33403e-20)
(0.988075 0.00111949 -4.14104e-22)
(1.05188 0.0636504 2.89339e-21)
(1.02038 0.0173492 0)
(1.06622 0.0518522 0)
(0.315171 0.0658668 -3.78303e-20)
(1.04072 0.0416941 0)
(0.06259 0.0306938 9.52856e-21)
(0.576138 0.0354126 -1.30936e-21)
(0.154761 0.0455494 -3.60873e-20)
(0.941006 0.0184504 0)
(1.07329 0.0176463 5.31419e-20)
(0.997852 0.00779996 -5.18702e-25)
(0.617187 0.0295783 0)
(1.07654 0.0246234 3.66375e-20)
(0.00774876 -0.0119839 0)
(1.06105 0.0522113 -7.20282e-21)
(0.0565363 0.027702 0)
(0.999362 0.000669076 -2.9745e-21)
(0.0174239 0.0130784 -2.6905e-20)
(1.107 0.106257 5.82564e-22)
(1.07071 0.0517441 -3.56102e-20)
(0.993162 0.00619703 0)
(-0.0171037 0.00703627 0)
(1.0625 0.0523009 3.46255e-21)
(0.983799 0.00304849 0)
(0.127624 0.0317816 6.45789e-21)
(-0.0242167 0.0342219 -5.20396e-20)
(1.08565 0.014688 2.29678e-22)
(1.03567 0.0330068 0)
(1.01439 0.0102957 5.52859e-21)
(0.836274 0.105878 7.16593e-20)
(0.993517 0.000795095 -7.42159e-24)
(1.14915 0.100304 0)
(0.166643 0.0549039 -1.17973e-20)
(1.12888 0.0767956 0)
(1.03391 0.00913013 0)
(1.01927 0.0178838 -1.74279e-22)
(-0.0161426 0.0260614 -1.85971e-20)
(0.885868 0.0704394 -2.35939e-21)
(0.310028 0.065881 4.47366e-20)
(-0.00806573 0.00205424 1.13927e-20)
(1.11031 0.0290087 0)
(0.756377 0.101346 6.2526e-20)
(1.11933 0.103483 0)
(0.603151 0.0915927 0)
(-0.0634441 -0.0036301 0)
(1.01992 0.0144965 -2.18902e-21)
(0.998212 0.0185059 0)
(1.01235 0.00793758 0)
(0.0397495 0.0114912 2.12781e-20)
(0.488199 0.0893316 -2.1929e-20)
(-0.00389446 0.0360127 0)
(0.881385 0.106741 1.21898e-22)
(1.03321 0.0335729 0)
(1.05076 0.00601476 1.06666e-20)
(1.03165 0.0106995 0)
(1.00707 0.0163584 8.52236e-23)
(1.06553 0.0526503 -8.29435e-21)
(1.03318 0.00903768 0)
(0.623426 0.0288401 1.52742e-22)
(1.03787 0.00177373 0)
(0.0234742 0.00602841 1.45203e-22)
(1.01292 0.00267107 1.68831e-22)
(-0.0137809 0.00424074 -4.1557e-20)
(0.993122 9.55245e-06 1.5258e-21)
(1.06051 0.0527545 0)
(1.14443 0.0710632 3.54826e-20)
(1.03806 0.00347805 1.2269e-20)
(0.992062 -9.11278e-05 0)
(1.10139 0.0458128 0)
(1.0209 0.0110805 -3.46593e-21)
(1.14294 0.0621318 -4.13047e-20)
(1.09444 0.106927 -2.84412e-20)
(0.0617915 0.028957 6.27856e-21)
(0.416831 0.0661417 1.31963e-20)
(0.0194105 0.0145662 0)
(-0.0120512 0.00594807 -3.29613e-20)
(1.08682 0.0867473 0)
(1.00255 0.000302529 0)
(1.05111 0.0621412 4.89009e-21)
(1.04412 0.0747914 0)
(1.02449 0.0142862 3.6166e-21)
(0.0235188 0.0354758 2.9271e-20)
(0.0671209 0.0294242 -5.57629e-21)
(0.118981 0.0394272 1.27713e-22)
(1.00198 0.00919797 -9.61423e-25)
(1.05832 0.0409215 -6.30068e-21)
(1.05083 0.0200129 2.74019e-20)
(1.01889 0.0135068 -7.02146e-21)
(0.862474 0.0687074 4.15684e-21)
(1.08897 0.0336004 0)
(1.08501 0.0211971 -3.33801e-20)
(1.03715 0.025569 2.1456e-20)
(1.1314 0.0367987 0)
(0.65197 -0.000554424 -3.27196e-23)
(1.01945 0.0139382 7.43956e-21)
(1.08565 0.0615933 4.33277e-20)
(0.292922 0.0640114 -6.37086e-20)
(0.353072 0.0701333 3.29681e-20)
(1.03119 0.0214369 -6.75094e-21)
(1.02138 0.0123125 3.96049e-21)
(1.02271 0.0144836 0)
(1.03796 0.049027 -4.21064e-21)
(0.989725 0.000444716 0)
(1.00129 0.00890764 1.06373e-24)
(1.04225 0.0345674 4.45514e-21)
(1.15222 0.100276 1.29927e-20)
(1.02187 0.0123009 0)
(0.987196 0.00116405 2.82651e-22)
(0.78377 0.0969786 4.42707e-20)
(1.05736 0.0621213 1.33983e-20)
(1.08268 0.0865022 1.74514e-20)
(1.01101 0.00759886 2.97081e-21)
(0.984768 0.000177145 3.0888e-22)
(1.02769 0.0191814 0)
(0.108961 0.0280545 0)
(0.752996 0.0978711 -1.92151e-20)
(0.43595 0.0792414 2.3968e-20)
(0.337048 0.0690551 -8.39011e-21)
(1.13518 0.0344865 1.11468e-20)
(1.02412 0.0179413 6.40633e-21)
(1.07045 0.0407513 0)
(1.01435 0.00994592 2.6831e-21)
(1.0378 0.00320837 -2.09021e-20)
(1.05324 0.024328 0)
(1.01955 0.0135631 -7.77967e-22)
(1.00243 0.0010826 2.05655e-21)
(1.07698 0.0411248 2.60154e-20)
(0.372547 0.081806 -1.44431e-21)
(0.12885 0.0325814 0)
(1.07611 0.0649372 -2.28572e-20)
(1.03701 0.000620493 8.29155e-21)
(1.01461 0.0099979 0)
(1.0192 0.00175826 -1.0899e-20)
(1.06064 0.0323577 0)
(1.14161 0.0598862 -1.32382e-20)
(1.07132 0.0136217 4.34687e-20)
(1.13376 0.0363779 -1.87941e-20)
(1.0755 0.0409004 -2.62451e-20)
(1.02903 0.0197748 1.7974e-20)
(0.370624 0.0717802 -1.95038e-20)
(0.89881 0.0284137 4.09297e-22)
(-0.00810353 0.0158841 -1.69133e-20)
(1.0645 0.0364939 8.86069e-21)
(0.854052 0.106428 3.71619e-22)
(0.771837 0.103505 -5.51464e-20)
(1.18025 0.0886198 0)
(1.04619 0.022148 0)
(0.427968 0.0847054 2.32004e-20)
(0.524774 0.00384108 5.26501e-21)
(-0.00304097 0.00921515 -1.49293e-20)
(0.285324 0.00261371 0)
(0.716521 0.10123 3.64749e-20)
(1.00813 0.0212245 0)
(0.981978 0.00180992 2.03446e-23)
(1.12687 0.0808168 0)
(0.0172461 -0.00442835 2.67724e-20)
(1.02194 0.00672529 5.99525e-22)
(0.0129195 -0.006156 0)
(1.02551 0.0158781 4.00947e-21)
(1.04763 0.0105311 -8.13281e-21)
(1.14503 0.0619582 0)
(0.407059 0.0765014 0)
(0.323401 0.0677422 5.69504e-20)
(0.0995686 0.0359307 -2.07909e-20)
(0.304239 0.0654536 -5.72929e-20)
(1.10134 0.0176944 0)
(1.01629 0.00581732 1.77601e-22)
(1.01938 0.0140376 1.93054e-21)
(1.02158 0.00650945 0)
(1.08813 0.0440998 1.50573e-20)
(1.12618 0.0821968 -1.44699e-20)
(1.02365 0.0175494 -1.41098e-21)
(0.017888 -0.00208643 2.70518e-20)
(1.01489 0.00600066 -1.81326e-22)
(0.946493 0.103818 -2.04906e-22)
(1.02748 0.0341328 0)
(1.01834 0.0125484 1.46844e-21)
(0.0218446 0.0380348 -3.03944e-20)
(0.987288 0.000873055 5.01577e-22)
(0.993173 0.00628198 3.7993e-25)
(1.11318 0.100716 0)
(1.02089 0.00714168 1.17557e-21)
(0.0240012 0.0324152 -3.21728e-20)
(0.369041 0.0311241 1.99418e-21)
(1.00316 0.00648541 -1.22829e-22)
(0.0966157 0.0302182 -2.3505e-20)
(1.00326 0.00123301 0)
(0.536527 0.0913756 2.21412e-20)
(0.0795394 0.027473 0)
(1.00355 0.00529484 -2.07073e-21)
(1.08614 0.00921323 0)
(1.10905 0.0475307 2.71594e-20)
(0.313167 0.071165 1.19548e-20)
(1.0844 0.0602309 -4.77328e-20)
(0.179113 0.019991 -9.27073e-21)
(1.11562 0.103214 5.5269e-22)
(1.10308 0.017142 -6.72148e-22)
(0.58109 0.0963318 0)
(0.0427749 0.00844795 4.10362e-20)
(1.00141 0.00100265 -3.9325e-21)
(0.368 0.0726023 -2.44628e-20)
(1.10331 0.0727039 3.38734e-20)
(0.99931 0.00398095 -2.54417e-21)
(1.02112 0.0107282 -1.94102e-21)
(1.01465 0.0101932 2.55442e-21)
(0.160202 0.0462616 -2.32249e-20)
(0.994879 0.00468581 1.92149e-22)
(0.984218 0.00696291 -5.09397e-22)
(1.16594 0.0955062 6.05106e-20)
(0.342188 0.0181 1.08395e-21)
(1.04561 0.0526944 -1.33218e-21)
(0.981242 0.0175021 0)
(1.0083 0.00669153 -3.85086e-22)
(0.989074 0.00496485 -2.96006e-23)
(-0.0132598 0.0341239 0)
(0.983381 0.00288195 -2.76929e-23)
(1.01959 0.00723863 0)
(0.991103 0.000429565 2.39332e-22)
(1.02163 0.010615 -2.17088e-21)
(0.156712 0.0527646 0)
(0.171976 0.0482849 0)
(1.06321 0.0363671 0)
(1.07737 0.0890804 0)
(1.01625 0.000996559 0)
(0.186051 0.0525907 4.49567e-20)
(0.102972 0.0288139 -1.84125e-20)
(1.05253 0.0444524 0)
(1.08727 0.0340526 2.4443e-20)
(0.273978 0.0600333 -7.28516e-21)
(0.0545844 0.0237171 2.02444e-20)
(1.03253 0.00246362 0)
(0.987147 0.000379738 -6.98758e-22)
(0.969382 0.00815516 6.49223e-23)
(1.01743 0.000142098 0)
(1.12635 0.0764669 4.57056e-20)
(1.0432 0.0359385 -6.21519e-21)
(1.01887 0.00478705 0)
(0.59367 0.0355766 0)
(-0.017596 0.00507566 -2.07518e-20)
(1.0068 0.00626782 1.17183e-21)
(1.02495 0.0152479 0)
(1.06086 0.00655876 3.35407e-20)
(0.030648 0.00877085 -2.30357e-20)
(1.00341 0.0052692 0)
(1.05744 0.0638152 0)
(0.989242 0.00502527 2.73427e-23)
(0.838528 0.0883618 3.24932e-21)
(1.11507 0.0931428 6.65282e-20)
(1.03643 0.0245582 0)
(1.0515 0.0437808 9.33506e-21)
(1.07077 0.0496609 -2.62858e-20)
(1.02889 0.020145 -1.36263e-20)
(1.10729 0.0798617 0)
(0.0341653 0.00460955 2.6126e-20)
(0.985641 0.0229996 -5.30841e-22)
(1.09659 0.084028 -3.17914e-20)
(1.14672 0.0712055 -3.32721e-20)
(0.193851 0.0486664 1.00018e-21)
(1.07894 0.0856619 8.36124e-21)
(0.98184 0.00215132 0)
(1.16178 0.0969851 -5.07101e-20)
(1.12785 0.0683614 4.86222e-20)
(1.12148 0.0538418 -5.01281e-20)
(0.468372 0.047731 0)
(1.06079 0.00823132 2.69883e-20)
(0.793531 0.0980594 1.06765e-21)
(1.02908 0.0167957 0)
(1.00501 0.0111203 0)
(0.353184 0.0134938 0)
(1.08538 0.0632272 0)
(1.08506 0.0172514 1.26253e-20)
(-0.0381909 0.0272839 2.26251e-20)
(0.987654 0.000319818 -7.14572e-22)
(1.01711 0.0168231 0)
(1.07726 0.0316067 -4.43272e-20)
(1.1756 0.0746089 -5.08038e-20)
(0.038219 0.00596992 0)
(1.11042 0.0463095 0)
(1.00955 0.00364401 0)
(0.999256 0.0230249 4.02672e-22)
(1.03691 0.00482467 1.08372e-20)
(1.03019 0.00945314 0)
(0.965596 0.0156043 -6.25399e-24)
(1.02165 0.0119595 0)
(0.284886 -0.00136554 4.89797e-21)
(1.06187 0.00598669 -5.12151e-20)
(1.02936 0.0193648 5.24209e-21)
(0.992301 0.000465915 8.37243e-24)
(0.116002 0.0491053 -1.8174e-20)
(0.97003 0.104494 2.56404e-20)
(0.192124 0.0284859 -2.93398e-20)
(0.689045 0.018399 1.03381e-21)
(1.02884 0.0167955 0)
(0.292634 0.0696476 0)
(1.04862 0.0249243 -5.04e-21)
(0.435365 0.0790126 0)
(1.00395 0.0260351 -1.21123e-22)
(1.0446 0.0517712 -6.18052e-21)
(1.03044 0.0210023 -1.39986e-20)
(0.285168 0.0724837 0)
(1.12378 0.0622084 -4.02445e-20)
(0.666416 0.0985878 0)
(0.996781 0.0051226 -1.27884e-23)
(1.00587 0.00606451 -2.60819e-24)
(0.482593 0.0895823 4.51129e-20)
(1.0298 0.00113753 1.04242e-20)
(0.00873071 0.0362435 0)
(1.02932 0.0196737 -5.43044e-21)
(1.09262 0.0402144 2.99643e-20)
(1.0808 0.0848372 2.07417e-20)
(1.03434 0.0322982 -2.88727e-21)
(0.120001 0.0371249 2.37479e-20)
(-0.02234 0.00846255 0)
(1.02203 0.0118896 0)
(1.00883 0.0071203 0)
(0.815213 0.0276726 0)
(1.03431 0.00829509 -9.63241e-21)
(0.165279 0.0470991 0)
(0.978382 0.0101681 3.30896e-22)
(0.995414 0.00476803 2.19534e-22)
(0.778442 0.0691041 0)
(1.02247 0.0142949 3.75471e-21)
(1.12756 0.0650493 0)
(1.02133 0.0109809 2.87506e-21)
(1.086 0.0119865 0)
(-0.0249065 0.0341245 1.39304e-20)
(1.03678 0.0243166 0)
(0.694498 0.100186 0)
(1.06435 0.0232029 -1.6211e-20)
(1.03292 0.0736116 0)
(0.116161 0.0154581 -2.10143e-20)
(1.04071 0.0407386 -5.50432e-21)
(1.03352 0.00200265 -8.37096e-21)
(1.0257 0.0192777 7.1607e-22)
(1.0167 0.0117842 -4.77936e-21)
(0.996951 0.000544189 -2.96041e-21)
(0.191399 0.0620611 2.99503e-20)
(0.301151 0.064207 -1.7971e-20)
(0.919267 0.0172846 2.64428e-21)
(1.04936 0.0165128 3.74936e-20)
(0.859761 0.0338529 8.79186e-23)
(0.45911 0.0432174 0)
(0.169399 0.0478366 -3.94187e-22)
(1.08455 0.0567751 -2.85283e-20)
(0.683126 0.0331455 -1.14961e-22)
(0.0233116 0.000421711 3.04807e-23)
(1.05768 0.0418454 0)
(1.05709 0.015987 6.23292e-21)
(0.993646 0.0044469 0)
(0.375117 0.0790071 2.31721e-21)
(1.0696 0.0393457 0)
(1.03682 0.000984178 0)
(1.00592 0.0119005 1.0785e-23)
(0.642598 0.0990369 3.86902e-20)
(0.319854 0.0765036 0)
(1.13023 0.078757 -5.28248e-20)
(1.01887 0.00258701 -5.85854e-21)
(1.10809 0.0297923 0)
(1.09379 0.0812156 0)
(0.992978 0.00424869 0)
(1.0041 0.000489053 -1.64338e-21)
(0.106228 0.0452819 1.64901e-20)
(1.01638 0.00345503 0)
(0.151741 0.0448565 1.81701e-20)
(1.03203 0.0148483 0)
(0.0127896 0.0136369 4.20698e-20)
(1.08092 0.0645856 2.54047e-20)
(1.01894 0.004444 2.08054e-21)
(-0.0692867 -0.00280113 -3.15922e-20)
(-0.0101773 0.00497082 0)
(1.0616 0.00768001 -1.41015e-20)
(0.898391 0.0299552 -1.53969e-22)
(1.07084 0.0157512 -3.20679e-20)
(1.04216 0.0451474 -5.94669e-21)
(-0.0487395 0.0278049 -1.14829e-20)
(1.11223 0.0898745 0)
(0.338545 0.0658316 1.01767e-20)
(1.08584 0.0186877 0)
(1.11025 0.0998102 -1.06326e-20)
(-0.030378 0.0330409 -7.53015e-21)
(1.09063 0.0404908 1.38508e-20)
(1.15224 0.0845178 2.95375e-20)
(1.09162 0.0557894 0)
(0.370371 0.080005 2.45289e-20)
(0.986262 0.00272995 2.58985e-22)
(0.918921 0.0172865 -7.98048e-22)
(1.02764 0.0185634 0)
(1.03546 0.000924518 -3.0525e-20)
(1.05139 0.0259316 2.00197e-20)
(0.747936 0.0678668 -1.92036e-21)
(0.986163 0.00274971 -9.26682e-24)
(1.03742 0.0046468 -1.19616e-20)
(1.01467 0.0103798 -3.11052e-21)
(0.789163 0.0302257 -1.28898e-22)
(0.929635 0.02605 -1.07607e-21)
(1.01333 0.00137626 0)
(1.00435 0.00578578 -2.14976e-24)
(1.02116 0.00904152 1.38924e-21)
(0.488411 0.0522376 -1.68008e-21)
(0.535101 0.0576695 0)
(1.01005 0.0072278 0)
(0.102887 0.0529804 6.87648e-21)
(1.10976 0.0974471 -1.00232e-20)
(0.352356 0.0778501 -3.24796e-22)
(0.279138 0.0127922 2.23184e-21)
(1.15456 0.0848521 2.26022e-20)
(1.09102 0.0781912 2.1564e-20)
(1.00171 0.0209434 0)
(0.999582 0.00405371 0)
(1.03135 0.0146316 6.50211e-21)
(0.476127 0.0882069 0)
(1.05042 0.0436116 -9.95696e-21)
(1.02756 0.0183365 -2.71979e-21)
(1.03996 -0.00640838 5.09837e-23)
(1.01536 0.0202536 2.49463e-21)
(1.03091 0.00897865 0)
(1.01032 0.00725233 -5.61825e-22)
(1.05029 0.0257884 -1.07309e-20)
(1.06214 0.031063 -2.28286e-20)
(0.762724 0.096681 4.86153e-20)
(1.04521 0.0546614 1.66485e-20)
(1.004 0.00143516 6.2505e-21)
(1.05003 0.0439061 0)
(1.03624 -0.000203865 0)
(0.99851 0.000609899 4.01912e-21)
(1.05204 0.0246009 0)
(1.06345 0.0226599 3.34017e-20)
(1.01842 0.0013792 1.5827e-20)
(0.43224 0.0783223 -2.60571e-20)
(1.00912 0.00717096 -1.92642e-22)
(1.08545 0.058291 1.66769e-20)
(1.00702 0.0145859 0)
(1.02309 0.0141122 -1.5676e-22)
(1.00573 0.00590794 1.42655e-21)
(1.02994 0.025053 8.66396e-22)
(0.979452 0.00013208 -5.11042e-23)
(1.14109 0.0772108 -8.45784e-21)
(1.09503 0.0468895 -5.61763e-20)
(0.219971 0.0670457 -3.69352e-20)
(1.00997 0.00745822 -3.35642e-21)
(0.088582 0.0340176 0)
(1.04371 0.0013578 -6.97094e-21)
(0.166239 0.0464583 1.799e-20)
(0.103624 0.0328122 2.08378e-20)
(1.06175 0.0660734 -1.67253e-20)
(1.07558 0.0334161 0)
(1.09868 0.0320293 0)
(1.02254 0.0134704 -6.78021e-21)
(1.0111 0.00780082 0)
(1.0345 0.0316682 2.73384e-21)
(1.03238 0.0120658 -5.85436e-22)
(1.01061 0.00768055 3.89478e-21)
(0.39222 0.0744737 -2.65355e-20)
(0.495361 0.083984 -4.52727e-20)
(1.16199 0.0970616 -1.44994e-20)
(0.11643 0.0428132 -1.89885e-20)
(0.985199 -1.57389e-05 -4.97564e-22)
(-0.0550048 -0.000828758 0)
(1.00527 0.00599182 -5.33675e-24)
(0.993252 0.000639213 -2.6347e-22)
(0.994126 0.00449835 -6.44868e-22)
(1.07396 0.012045 -1.19164e-20)
(-0.0566313 2.80116e-06 -6.02228e-20)
(1.12314 0.0583664 -4.20099e-20)
(0.812102 0.0998634 -3.86023e-20)
(1.09346 0.0562058 -1.85836e-20)
(1.18206 0.0890252 0)
(0.396576 0.0750349 0)
(0.932629 0.0125417 7.23663e-22)
(1.02227 0.0200125 0)
(1.04598 0.0543174 -1.69821e-20)
(1.0789 0.0314354 4.37789e-20)
(1.02599 0.0172102 7.58549e-21)
(1.04412 0.0212445 0)
(1.0141 0.00208533 -7.15982e-23)
(0.161517 0.0472751 2.02547e-20)
(0.389485 0.0825288 -1.60064e-20)
(1.1044 0.076936 -3.76429e-20)
(1.03299 0.0225287 0)
(1.00685 0.00528018 -2.97225e-21)
(0.339475 0.0690403 1.41911e-20)
(1.07319 0.014059 -1.5411e-20)
(1.00882 0.0068977 -2.71678e-22)
(1.01258 0.00866778 4.84443e-21)
(1.08718 0.010824 0)
(0.136725 0.0455651 -1.04512e-22)
(1.1738 0.0724276 4.9024e-22)
(1.06943 0.0716767 -2.21319e-20)
(1.00587 0.000832483 4.9501e-21)
(0.688552 0.0325405 -7.47656e-22)
(0.0229151 0.0282748 -2.3361e-20)
(1.05853 0.0164949 -6.08373e-21)
(-0.0339916 0.0215731 -1.87694e-20)
(1.02679 0.0506849 0)
(1.0376 0.0181891 -1.91114e-20)
(0.729677 0.100487 2.83184e-20)
(0.15961 0.0385396 2.00896e-20)
(0.144259 0.0383815 -2.80315e-20)
(0.980244 0.000151235 1.40431e-22)
(1.0425 0.0553831 4.26269e-23)
(0.0900293 0.0517448 -3.00118e-20)
(1.03726 0.00408179 0)
(0.00137001 -0.00213418 0)
(1.02133 0.00890614 -2.15169e-21)
(1.09315 0.0790778 -2.25733e-20)
(1.01538 0.00017284 1.67511e-23)
(0.985142 0.00013349 1.68138e-21)
(1.06095 0.0821468 -1.22014e-20)
(0.0227098 0.00277165 -1.12785e-20)
(1.03441 0.0087042 0)
(1.0127 0.0080627 0)
(1.05196 0.0227756 0)
(1.03729 -0.00304043 -5.25283e-23)
(1.01178 0.0027035 -5.3574e-23)
(0.736297 0.0944594 1.16792e-20)
(0.970011 0.0187987 -9.35867e-22)
(0.999271 0.00357136 2.29157e-21)
(0.986668 0.00159297 -9.11127e-23)
(1.01225 0.00850159 0)
(0.883068 0.102068 3.18197e-20)
(0.991326 0.000763889 1.23154e-21)
(0.829085 0.0153881 1.55201e-22)
(0.789707 0.103389 -4.02091e-20)
(0.450795 0.0797213 -5.42677e-20)
(0.658383 0.00374811 -1.88257e-22)
(0.176948 0.0498536 -4.80984e-20)
(0.539331 0.093105 -3.0592e-20)
(0.17607 0.0486648 0)
(1.05216 0.0252874 0)
(1.02599 0.0167359 2.17598e-21)
(0.723838 0.102739 0)
(0.993772 0.000829049 0)
(0.148686 0.0537337 -1.20745e-20)
(0.216668 0.0520707 -1.37117e-20)
(0.801834 0.0874839 6.94163e-21)
(0.989414 0.000788224 0)
(1.04371 0.0297524 -1.72552e-21)
(1.04474 0.00992162 2.49967e-20)
(1.10044 0.106728 -2.43222e-20)
(0.996108 0.00725072 7.40323e-24)
(0.222134 0.0484764 0)
(1.01407 0.09252 0)
(0.952468 0.0109829 7.6884e-22)
(0.605899 0.0933241 -2.12765e-20)
(1.1217 0.101101 0)
(0.143159 0.0349191 -3.03588e-20)
(1.02184 0.00619616 0)
(0.310635 0.0661466 3.62098e-21)
(1.05078 0.0501666 -1.0738e-20)
(0.123099 0.0247016 -1.63319e-20)
(1.05822 0.0292611 -1.08319e-20)
(1.05915 0.0825285 0)
(1.0152 0.00993267 -2.37905e-21)
(1.02912 0.0181159 -2.34221e-21)
(1.08287 0.0428127 -1.37508e-20)
(1.14731 0.0590152 0)
(1.05435 0.0437966 -2.27625e-20)
(1.02543 0.0162047 0)
(1.00838 0.00864451 1.22634e-22)
(0.958252 0.0978568 8.64188e-20)
(0.994957 0.000775111 -2.2345e-21)
(1.04744 0.0178228 0)
(-0.03237 0.00941217 3.17166e-22)
(1.02198 0.00545889 -2.37002e-22)
(1.03249 0.00164785 0)
(0.993002 0.000475879 0)
(-0.0489452 -0.000652986 0)
(1.01166 0.00797523 -1.22705e-21)
(1.02786 0.0105329 -1.1642e-21)
(1.04181 0.0541113 -7.16979e-21)
(0.990217 0.000957975 4.08494e-22)
(1.03463 0.0350243 0)
(1.00361 0.0052624 0)
(0.702242 0.0916129 1.02728e-20)
(1.0446 0.00921711 -8.24776e-21)
(0.985721 0.000858416 0)
(1.0374 0.0488147 4.07254e-21)
(0.658732 0.00187941 -2.27757e-22)
(1.01366 0.00980348 1.19263e-21)
(1.02431 0.0102977 -6.59199e-22)
(0.783553 0.105318 0)
(0.00566652 0.00539699 8.76683e-21)
(1.13936 0.0601458 2.81084e-20)
(1.00645 0.00513422 0)
(0.171213 0.0464256 0)
(0.138339 0.0404795 -1.56213e-20)
(-0.0149046 0.0176672 -3.15369e-20)
(1.14852 0.0861475 3.22547e-20)
(0.0313728 0.0174629 2.68792e-20)
(1.04396 0.00238333 0)
(1.02944 0.0124203 1.03859e-21)
(1.03021 0.0284514 4.62631e-21)
(0.986336 0.000997121 -2.23778e-22)
(1.0077 0.000820558 3.85797e-21)
(-0.0140419 0.00213245 4.83877e-20)
(1.06315 0.0657524 1.69547e-20)
(0.652251 0.0390788 -2.1871e-22)
(1.00622 0.00715625 0)
(1.04851 0.0702418 -6.10259e-21)
(1.01155 0.00768369 1.37309e-21)
(1.07566 0.0627016 1.22283e-20)
(-0.0382116 0.0215796 -4.68035e-20)
(0.0128924 -0.00182013 4.3897e-20)
(1.00999 0.00380771 4.53466e-21)
(1.07276 0.0163317 -4.43082e-20)
(1.08057 0.0824748 3.0446e-20)
(1.01698 0.00328566 0)
(1.00205 0.00474227 1.29607e-21)
(1.00519 0.00702067 0)
(0.162653 0.0459964 -1.9022e-20)
(1.03023 0.0996339 0)
(1.04347 0.0476485 -3.86809e-21)
(1.00612 0.00598653 0)
(1.0537 0.0442774 2.40576e-20)
(1.00604 0.00478518 0)
(0.116699 0.0399194 1.54381e-20)
(1.05519 0.0379092 0)
(1.01959 0.00457212 5.43648e-21)
(0.00198067 0.0104214 1.41544e-20)
(1.07613 0.0596637 1.24024e-20)
(1.0829 0.0888209 1.83025e-20)
(1.04507 0.0294074 -7.4967e-21)
(0.555762 0.0861828 2.88361e-20)
(0.865581 0.0152087 0)
(1.07189 0.0183395 -3.21846e-20)
(1.03818 0.00213448 0)
(-0.0143769 0.00195826 3.24694e-20)
(0.995363 0.0250341 -1.53567e-21)
(1.04457 0.00285415 7.4079e-21)
(-0.0352101 0.0262828 0)
(0.0355139 0.00579802 4.23302e-20)
(0.93063 0.106403 -7.18353e-20)
(0.384349 0.0807264 1.79906e-20)
(0.579437 0.0951449 2.39856e-20)
(0.00245344 0.000801606 0)
(1.00708 0.0145137 -2.17083e-22)
(1.15694 0.0986615 -5.70468e-20)
(0.979682 0.00029881 0)
(0.99404 0.000642242 2.49446e-21)
(0.155104 0.044738 4.91762e-20)
(1.00954 0.00736152 4.75738e-22)
(0.428822 0.0397735 3.82724e-22)
(1.01911 0.00172498 0)
(-0.0107272 -0.00187922 -4.19028e-20)
(0.0668119 0.0263535 0)
(1.08684 0.0408493 -1.41122e-20)
(0.29588 0.0708682 0)
(0.000557512 0.0044822 -5.37603e-21)
(0.755138 0.0354064 2.41278e-22)
(1.07264 0.0297283 -1.81292e-20)
(1.00753 0.0014851 7.47045e-22)
(0.99813 0.00354136 5.06365e-23)
(1.08119 0.0899255 0)
(-0.0322255 0.00331541 -4.56472e-20)
(1.00841 0.00654107 0)
(0.929412 0.0997396 -3.97369e-20)
(1.09658 0.0482705 3.96679e-20)
(-0.00784779 -0.00423457 2.44979e-20)
(1.16164 0.0579864 -4.2764e-20)
(1.01969 0.0228508 0)
(0.9553 0.0291756 0)
(1.00773 0.00680951 3.3948e-21)
(0.969038 0.0270427 3.16252e-21)
(1.04982 0.0496264 0)
(1.00411 0.00146242 -1.14069e-21)
(1.0133 0.00956892 3.73549e-21)
(0.642633 0.0952945 2.21414e-20)
(1.14514 0.0573111 5.85254e-20)
(1.06055 0.00996492 2.44123e-20)
(0.739 0.0999682 -2.61109e-20)
(1.03249 0.00164463 -9.22878e-21)
(0.83567 0.0215548 -2.10393e-23)
(1.04345 0.00869397 -1.3839e-20)
(0.795638 0.0125785 -3.45685e-22)
(0.177217 0.0484292 -1.54418e-20)
(0.149838 0.0427654 -1.65653e-20)
(1.0049 0.000773383 -6.03877e-21)
(1.00157 0.00641435 -3.02976e-22)
(1.12443 0.0569144 0)
(1.02661 0.0176978 -9.52282e-21)
(0.171531 0.0474242 -1.85267e-20)
(0.108539 0.012533 1.09801e-20)
(0.978733 0.000194653 0)
(1.02999 0.0276217 2.82352e-21)
(1.16087 0.0632591 0)
(0.07303 0.0299316 -1.83713e-20)
(1.11085 0.104576 2.38262e-20)
(1.02846 0.0166263 0)
(0.805474 0.0095294 -6.49229e-24)
(1.0207 0.0128841 2.84358e-21)
(1.02382 0.0140259 -3.74327e-21)
(0.967903 0.0993216 4.14702e-20)
(0.906503 0.106035 7.80451e-20)
(0.202461 0.0463799 1.12589e-20)