/*--------------------------------*- C++ -*----------------------------------*\
| =========                 |                                                 |
| \\      /  F ield         | OpenFOAM: The Open Source CFD Toolbox           |
|  \\    /   O peration     | Version:  v2012                                 |
|   \\  /    A nd           | Website:  www.openfoam.com                      |
|    \\/     M anipulation  |                                                 |
\*---------------------------------------------------------------------------*/
FoamFile
{
    version     2.0;
    format      ascii;
    class       surfaceScalarField;
    location    "400";
    object      ddtCorrDdt0(phi);
}
// * * * * * * * * * * * * * * * * * * * * * * * * * * * * * * * * * * * * * //

dimensions      [0 3 -2 0 0 0 0];
oriented        oriented;


internalField   nonuniform List<scalar> 
20823
(
4.02536e-06
4.50211e-07
-4.46192e-06
0.0112836
-0.00526282
-0.00602085
-4.33094e-06
-2.46618e-07
4.57561e-06
0.00025454
0.000565601
-0.000820142
-0.00686285
0.000268847
0.00659406
-0.00256629
0.00109243
0.00147383
-0.00065349
0.000591048
6.24381e-05
-0.000137002
0.0001327
4.30381e-06
-0.000105297
1.11004e-05
9.41925e-05
8.51381e-06
4.28176e-06
-1.27961e-05
0.00102982
0.000239885
-0.00126971
3.81986e-05
-0.000186755
0.000148558
-0.000613655
0.00136432
-0.000750667
1.31181e-05
-2.01141e-05
6.9734e-06
1.42717e-05
-0.000129766
0.000115496
5.64741e-06
2.8701e-06
1.11946e-05
-1.22503e-06
-9.96796e-06
-0.00248203
0.00123189
0.00125018
-0.000193663
7.87251e-05
0.00011496
-1.92785e-05
-1.25029e-05
3.18111e-05
0.000909086
-0.000615766
-0.000293312
3.2141e-05
-0.000316378
0.000284265
0.000370154
3.21198e-05
-0.00040227
-0.000133924
-0.000692981
0.000826901
7.96357e-05
-0.00013889
5.92582e-05
0.000417218
-0.000173476
-0.000243748
0.000602229
0.000132134
-0.000734372
-6.52278e-05
4.09139e-05
2.4312e-05
0.000220189
-2.82299e-05
-0.000191959
0.000516502
0.000460169
-0.000976676
-7.97636e-07
4.81933e-06
5.42522e-06
1.01934e-05
-1.56244e-05
-0.00041222
-0.000374845
0.000787064
-0.000317967
0.000124341
3.96239e-05
-0.000184761
0.000145136
0.000105124
-0.000243167
0.000138024
0.000121899
0.00029531
-4.30277e-05
2.3756e-05
6.04788e-05
-0.000626989
0.000566511
-2.09433e-05
-0.00119681
0.00121774
6.93829e-05
6.62596e-05
-0.000135637
0.000597365
-0.000255412
-0.00034201
3.99908e-05
-0.000120237
8.02561e-05
0.000544616
-0.000140679
-0.000403939
6.58643e-05
-5.88116e-05
-7.05945e-06
-1.9466e-06
8.15914e-05
0.000428902
0.000480184
0.000605736
-8.41371e-06
0.00048446
-0.0001692
-0.000315267
-0.000155578
0.000178327
-2.27423e-05
-0.00405263
-0.00369209
0.00774475
0.000181984
-0.00198748
0.00180547
4.08515e-05
0.000101356
-0.000142224
-0.000278778
0.000256201
2.26132e-05
-0.00011416
0.000722688
-0.000608561
3.10601e-05
-5.2014e-05
-0.000410413
0.000480489
-7.00734e-05
-4.84691e-05
-1.6762e-05
-0.000773421
0.000780156
-6.7334e-06
-4.27495e-05
0.000465516
-0.00042279
0.000255384
0.000229081
0.000125614
-1.00825e-05
-0.000115549
0.00290436
-0.00245201
-0.000452376
-0.000311615
0.00199866
-0.00168705
-0.000187887
0.000134185
5.37016e-05
0.00465715
-0.00549705
0.000839867
-8.82517e-07
0.000553136
-0.000552237
-0.00101127
-0.00147073
-8.59743e-06
-8.49978e-07
9.44217e-06
-4.1661e-05
8.12924e-05
-0.000303365
0.000606156
-0.000302794
0.00019483
0.000509018
-0.000703835
-0.000229885
0.000600043
0.000327556
-0.000346598
1.90458e-05
-0.000504237
0.000503361
2.40887e-05
8.10318e-05
-0.0012844
-0.00276822
7.03846e-05
-3.84924e-05
-3.1919e-05
0.000177614
-6.50855e-05
-0.000112528
0.000522254
7.99852e-05
0.000882688
-9.17091e-05
-0.000790977
-0.000240644
0.000238315
2.32757e-06
-5.96198e-05
9.96223e-05
-0.000326569
8.19365e-05
0.000244622
-0.000234031
0.000197463
3.65578e-05
1.36344e-05
0.000111979
0.00149513
-0.00148086
8.02413e-07
1.04052e-05
-0.00622309
0.00254557
0.00367752
0.000216803
-0.000222242
5.40946e-06
-0.000434082
0.000978185
-0.000544094
1.02479e-05
-2.69777e-05
1.67195e-05
0.000942688
-0.00199053
0.00104778
-0.000184353
0.000184351
-7.386e-05
7.22567e-05
1.61254e-06
0.00146915
-0.000252251
-0.00121689
-0.000119303
-6.8574e-05
0.00302487
0.00163225
0.000190971
-0.00013174
-5.92446e-05
5.59887e-05
6.29341e-05
-0.00011894
-0.000381517
0.000690613
-0.000309113
6.04038e-05
0.000484222
0.000176168
-0.00037663
0.000200477
-3.97209e-06
-3.52424e-07
0.000118678
-8.17104e-05
-3.69708e-05
0.000905184
-0.00144118
0.000536011
0.000308045
-0.000104385
-0.000203656
0.00449319
6.14802e-05
-0.00455468
-0.00452036
-0.00170273
0.000316449
1.11067e-05
3.8132e-06
-4.852e-06
1.04011e-06
4.73903e-06
-1.95173e-05
1.4774e-05
8.09281e-05
-3.09057e-05
-5.00312e-05
-0.000156928
0.000197787
3.84266e-05
4.2507e-05
-6.55939e-05
-0.000260979
-0.000161874
0.000222687
-6.08283e-05
0.000105794
7.03805e-05
4.03283e-05
0.000182795
-0.000223107
0.000191555
-0.000248221
5.66778e-05
6.59672e-05
0.00012839
-0.000194358
0.0028711
-0.00195221
-0.00030746
0.00170503
-0.00139759
1.96665e-05
-1.49365e-05
-0.000229222
-0.00011737
-0.000804572
0.000151082
0.000248545
-0.00078624
0.000537719
4.51307e-05
-1.24362e-05
-3.26853e-05
-1.19107e-05
2.50222e-05
-0.00037198
-9.55193e-06
0.000649205
-0.00038092
-0.000268281
0.000145284
0.000334617
-0.000479927
4.93119e-05
0.00020608
4.08184e-06
-7.38974e-06
3.31313e-06
-0.00138523
0.000979544
0.000405693
3.54386e-05
-5.55456e-05
-6.10185e-05
-1.45283e-05
7.55435e-05
-0.000141672
-0.000137096
-0.000178812
0.00134242
-0.00116359
0.00105226
0.000641626
-0.0016939
0.00605858
-0.00311569
-0.00294289
9.24447e-05
-0.000388945
0.000296529
0.00028495
-0.000379256
9.42994e-05
-0.00757664
0.0120697
0.000119638
5.79456e-05
-1.58654e-06
2.19789e-06
-6.14482e-07
-0.000238189
0.00033491
-9.67209e-05
-0.00627178
0.00329004
0.00298176
-2.93098e-06
3.38889e-06
-0.000856445
-0.00171439
0.00257082
-9.84163e-05
0.000150142
-5.17657e-05
0.000193786
-0.000153455
-0.000225209
0.000285688
0.00286173
9.36638e-06
0.00127244
5.33283e-05
-0.00132577
0.000169164
2.56686e-05
4.13932e-06
5.39394e-05
-5.80638e-05
-1.62421e-05
1.81287e-05
-1.87403e-06
-0.000133246
-0.000596404
0.000729647
0.000361115
-0.000211296
-0.000149806
-4.33553e-05
-9.36483e-05
0.00205167
-0.000865264
-0.0011864
0.00100217
-0.000883155
-0.000119033
0.00133861
-0.00147256
-4.19608e-05
-1.10017e-05
5.29535e-05
0.000331929
-0.000230861
-0.000101082
0.000389983
-7.35461e-05
-0.000221902
-0.000135065
0.000356971
-0.000210661
4.87641e-05
-2.79775e-05
5.01009e-05
-2.21583e-05
6.94057e-05
-0.00145463
4.44554e-05
-8.24559e-07
-4.36102e-05
-0.000787341
-6.91167e-05
0.00441046
-0.00294129
-1.50717e-05
0.000323115
0.000249923
0.00025685
-0.000506769
4.60498e-05
-0.000111078
6.50325e-05
1.10676e-05
-7.40132e-06
-3.66528e-06
9.89767e-05
-6.3549e-05
7.8216e-05
0.000141975
0.0016095
-0.00110394
-0.000505542
-0.000124742
0.00117701
-0.000110096
0.000285227
-0.00017514
0.000263663
-7.20949e-05
-7.19494e-08
5.88811e-07
-5.0964e-07
0.000215633
-0.000649714
-8.02376e-05
-0.000153799
-2.82473e-05
-1.99967e-05
4.82439e-05
-0.000347898
0.000109719
-0.00023158
-0.000252712
0.000484271
-0.000517488
-0.00191137
0.00242876
-3.17474e-05
9.77174e-05
0.000752818
0.00149036
-0.00224326
-1.0005e-05
2.02683e-05
0.00040786
-0.000541102
0.000425097
4.24422e-05
-6.20442e-05
1.96027e-05
-0.000879971
0.00026631
-0.00210394
0.000445614
0.00165832
-4.98206e-05
-6.09391e-05
0.000110715
0.000524813
-0.000276255
-2.28824e-05
7.24709e-05
-4.9596e-05
0.000840344
-0.00187474
0.00103444
0.000188293
-0.000293594
-0.000509152
0.000430916
7.82358e-05
-0.000664916
0.00118141
9.44685e-05
8.04859e-06
2.86184e-05
-3.66677e-05
-0.000386272
0.000478729
8.98959e-05
0.000559312
7.86372e-05
0.00020632
0.000125524
6.98407e-05
-0.000195362
-0.00260493
-0.00289216
4.16667e-05
2.41873e-05
0.000982394
-0.000436379
-0.00054601
8.37262e-06
3.40629e-05
0.00117055
0.000367295
-0.00153793
-0.00057895
0.00148417
-0.000843541
0.000741228
0.000102296
-0.000345382
-0.000187055
0.000532441
-0.000156946
1.37841e-06
-0.000129774
-9.12982e-06
-4.49991e-05
0.000100962
-0.000804275
0.000777601
2.66804e-05
4.44666e-05
3.73512e-06
-4.82025e-05
0.000583437
-0.00121572
0.000632263
0.00132408
-0.000477625
-0.000846429
-0.000426991
8.16147e-05
2.9457e-06
1.13659e-06
9.21224e-05
0.000109338
-0.000201476
6.72649e-06
-0.000339271
0.000332546
0.00231558
-0.00262719
0.00158825
0.00447035
-0.00039351
2.08484e-05
0.00037266
0.00031923
1.26913e-05
-3.67184e-06
-1.88606e-06
5.57164e-06
-0.000412533
0.000333685
7.88471e-05
-7.37982e-06
1.41e-05
-4.32096e-05
0.000449085
-0.00040587
0.000203353
5.42872e-05
-0.000257625
3.5866e-06
5.37942e-06
-8.98497e-06
-0.00494647
-0.00132533
-0.000226346
0.000269631
-4.32906e-05
-9.98244e-05
3.88007e-05
-7.4177e-05
0.000118639
0.00146163
-0.00229763
0.000836007
0.000115563
-0.00022567
-4.15362e-05
0.000258668
-0.000217129
0.000686756
-0.00064184
0.000263223
0.00037861
-0.000199869
-0.000920136
0.00112004
-0.000143121
1.10888e-05
-8.349e-07
-1.02434e-05
-0.000547706
0.00171816
-0.00116389
0.000105773
0.00105811
-0.000559099
0.00183156
1.47484e-06
2.49517e-06
-3.97476e-06
0.00168056
-0.000840213
-7.79557e-07
1.22401e-06
-4.5362e-07
-0.00067815
0.000257119
0.000421042
1.78935e-05
-4.61336e-05
-0.000164978
0.000203178
6.54637e-06
-1.04113e-05
3.87115e-06
6.58767e-05
-5.39598e-05
-1.19044e-05
8.40347e-06
-1.7006e-05
1.06591e-05
-0.000118611
0.000107963
-0.000149457
-8.21215e-05
-0.000318867
-0.00032903
0.000647894
-0.00018847
0.000275872
-8.73653e-05
4.14543e-05
2.79376e-05
-0.00010398
-0.000275133
0.000379118
-6.55917e-05
1.577e-05
0.000788452
0.00126323
0.00214478
-0.000110224
-0.00203453
-0.000255854
-0.00184809
-1.84128e-06
3.38267e-06
-1.54784e-06
2.45478e-06
-6.42368e-06
2.10085e-05
1.90408e-05
-4.00665e-05
-0.000173534
0.000100556
7.2991e-05
-0.00154408
-3.80915e-05
2.56031e-05
-1.67569e-05
1.54324e-05
1.36048e-06
-0.000154322
-0.000258201
0.000120045
-1.69634e-05
-0.000103093
3.53385e-06
-7.97108e-06
4.4401e-06
-0.000357943
6.60548e-05
0.000291888
0.000148951
5.44032e-05
-0.000372144
0.000626671
3.09868e-05
4.57514e-05
-7.67223e-05
-0.000659173
0.000127715
0.000531463
-9.36817e-05
5.56098e-05
0.000330072
-0.000148107
6.89583e-06
-8.73367e-06
-0.000125932
-0.000476104
0.000602039
-0.000207233
-0.000214448
0.000421671
7.31816e-05
0.000548625
-0.00062181
-0.000258277
0.00240307
-0.000288693
0.000109904
-0.000161834
0.000446738
-0.000284904
0.00118617
0.000423317
-0.00182647
0.00180838
1.81216e-05
8.63939e-05
9.90687e-05
-0.000185433
-0.000182537
-3.93701e-05
0.00076945
0.00044935
-0.00121882
-0.000448841
9.08949e-05
-2.60532e-05
1.60978e-05
9.95213e-06
-0.000629534
-0.000174763
-8.44112e-05
0.000543996
-0.000459598
-0.000450044
0.000583076
-0.000133036
6.0464e-06
-2.22445e-06
0.00212424
-0.000737922
-0.00138634
-0.000807587
-5.76758e-05
8.55678e-06
1.24395e-05
0.000533488
0.0013884
-0.00192178
-9.28076e-05
-0.000147824
0.000645691
0.00071862
-0.000399378
-5.06658e-05
3.94522e-05
-7.04193e-05
3.09545e-05
-7.40864e-05
2.17805e-07
0.000632699
-0.000700043
6.73526e-05
0.000108537
-1.63865e-05
0.000263377
-0.000365187
0.00010181
-6.28477e-05
-0.000125669
4.84539e-05
-4.58278e-05
-2.61729e-06
-0.000389901
0.00137229
9.02838e-05
4.3912e-05
-0.000203692
0.000186829
1.68776e-05
-1.30678e-05
6.19735e-06
6.85464e-06
1.47897e-05
-6.65381e-06
-8.13217e-06
-0.000495298
-1.38186e-05
0.000573158
-0.000401518
-0.00017162
-2.09378e-05
2.89861e-05
2.54632e-07
1.21983e-06
5.19598e-05
-0.00011847
6.65112e-05
0.000161138
6.90488e-05
-0.000230171
1.01389e-06
-1.08992e-06
-3.68689e-06
-7.04739e-07
4.39205e-06
0.000234465
-9.11376e-05
-0.00014333
-0.00115312
0.000667789
0.000485297
-8.89985e-06
1.24905e-05
7.20834e-05
4.50686e-05
-0.000117159
1.77471e-05
0.000199039
0.0010264
-0.00133388
-0.000252481
0.000159954
9.25405e-05
-0.0004341
0.000524365
-0.00243319
-0.0001331
-0.000158826
0.000225076
0.000613333
-0.000786817
-0.0361426
0.0102675
0.0258752
4.78539e-06
6.29947e-06
-7.3729e-05
-3.94765e-06
7.76859e-05
-0.000157552
-0.000283803
0.000441375
1.27412e-05
0.000106884
-0.00190862
0.0015795
0.000329107
-9.4732e-05
6.77513e-05
-0.000111364
-0.00105253
-1.31871e-05
1.25111e-05
6.89169e-07
-6.46811e-05
0.0010945
-9.46831e-05
7.54872e-05
1.92016e-05
0.000834303
-0.00079715
-3.71453e-05
3.49049e-05
-7.63651e-05
4.14618e-05
-0.000374206
-0.000303909
-0.000547634
0.000866857
0.00154298
-0.00172328
0.000180311
-1.06912e-06
7.61795e-06
-2.81415e-05
-1.68511e-05
-0.00451813
0.00260947
4.55966e-05
-6.17323e-06
-0.000150484
-2.30465e-05
-0.000447026
0.000285192
0.00377831
-0.00420256
0.000424282
-4.15991e-05
2.48488e-05
-0.000174022
-0.000452959
0.00104912
-0.00170828
8.60646e-06
3.98489e-05
-0.000341139
0.00180277
0.00434091
-0.00336804
-0.000972878
7.03307e-05
-0.000109258
3.89179e-05
-0.000180286
-7.21869e-05
-0.000101769
-0.000101911
-5.4847e-05
2.67077e-05
-1.69345e-05
6.87428e-07
-0.00105406
0.00131977
-0.000771034
-0.000548744
0.000128912
-4.2515e-05
0.000443369
0.00162435
-0.00206772
-0.000545115
-0.000298437
-0.000373216
-0.000473309
0.00084653
0.000235892
-0.000421682
0.000185799
0.00166725
-0.00220753
0.000540279
0.000310153
-0.000335574
2.54277e-05
0.000201944
0.000243385
-0.000445338
-0.00134841
-0.000949216
-8.73065e-06
-1.1625e-05
2.03538e-05
0.00255037
-0.000165385
-0.002385
0.00143733
-0.00119234
-0.000244995
-3.71338e-06
0.000123806
0.000459301
0.000774768
-0.00123408
-0.000473448
0.000481879
-8.44306e-06
-0.000232061
-1.39699e-06
-1.16509e-05
-2.69909e-05
3.11258e-05
3.26218e-06
1.21413e-06
-4.46769e-06
0.000854856
-0.00220327
-0.00138063
0.000648539
0.000732013
0.00911893
-0.00283318
-0.00628573
-1.08031e-05
2.90246e-07
1.05279e-05
0.000504097
-0.000518962
1.48657e-05
0.000168375
-0.000584195
0.000415811
-7.84723e-05
0.000144354
0.000606198
-0.000141575
-0.000406063
-0.0017567
0.00159201
0.000164728
4.28889e-05
-5.43056e-05
1.14512e-05
3.05976e-05
0.000160376
0.000246868
0.000202625
-0.000449475
0.000218591
-0.000322575
-0.000284389
0.000320532
-3.61535e-05
0.001692
-0.000149007
-0.000654594
0.00021173
0.000442884
-0.000126319
-2.26447e-05
0.000148937
-4.4782e-05
-1.65779e-05
6.13629e-05
-6.20763e-05
3.90528e-05
2.30301e-05
-2.43019e-05
-9.41555e-05
-0.00013408
-5.38279e-05
0.000187925
-0.000129131
-2.78014e-05
0.000541095
0.000645067
-0.000475501
0.00145369
-5.74372e-06
6.54548e-06
-2.04859e-05
-7.46995e-06
2.79579e-05
3.59142e-05
-3.19574e-05
-3.93607e-06
0.000470211
-0.00272936
0.0022592
-0.00119544
0.000552709
0.000642716
2.25115e-06
0.00676906
-0.00601621
-0.00025416
-0.00089896
3.06492e-05
0.000219311
0.000552424
-0.000752294
0.000335966
-0.000248286
-8.76729e-05
-0.000453034
0.000288609
0.000164412
-0.000317473
0.00275431
-0.00243685
4.7208e-06
-8.40249e-06
6.32622e-05
-0.000136988
-0.00108052
0.000327666
0.000752812
0.000187209
-5.87301e-05
-0.000128464
0.00293598
0.00106091
-0.00399687
-0.00115874
0.0016021
-0.000191323
0.000148119
0.00027156
0.000368967
-0.000640467
-0.000361833
0.000235496
0.000329094
-8.22233e-05
-1.31705e-05
4.60205e-05
-3.28505e-05
1.32421e-06
-6.33983e-05
-0.000683591
-0.000132807
0.000816394
-0.000108636
0.000153096
1.97344e-05
0.000553416
-0.000399057
0.000356273
-0.00506679
0.0163504
-0.000200437
4.16652e-05
0.000158778
-0.0216391
-0.0145034
-5.48673e-05
2.00903e-05
3.47757e-05
0.00206782
-0.00199466
-0.000339958
-2.84463e-05
0.00036838
5.31346e-05
-0.000698807
0.00166705
-4.38235e-05
-2.0104e-05
0.000278148
-0.000258047
0.00383975
-0.000213233
5.5705e-05
-2.83299e-06
-8.42151e-07
3.6809e-06
0.00170866
0.00122732
0.000485621
-8.98997e-05
-0.000395728
-2.67212e-05
0.00036267
0.00024268
0.00108142
-0.00103105
0.000657839
0.000102977
9.89695e-05
-0.000291491
-0.000989051
0.00128054
8.22289e-05
-0.00112824
0.00104604
0.000777756
0.000559755
-0.0013375
0.000910539
-7.62134e-05
-5.34812e-05
-0.000172868
0.000284871
-0.000410808
0.000516035
-0.000347668
0.000538067
-0.000303615
9.46648e-05
-2.25851e-05
4.31238e-06
-8.76546e-07
-3.43275e-06
-1.61052e-06
-1.22194e-06
-0.000545189
-0.00121151
-4.51647e-06
-1.22032e-06
0.000960487
-0.000558714
-0.000401763
-0.00131118
0.00151909
-0.000207924
7.08085e-05
-3.83129e-05
-3.24954e-05
-0.000139454
0.000128655
-0.00014083
-6.63669e-05
0.00665614
-0.00590898
-0.000747128
-8.6077e-05
0.000201688
-4.83359e-05
-0.000153343
-1.59486e-06
5.91158e-06
9.5261e-05
-2.97147e-05
-6.55537e-05
1.82406e-05
-4.8584e-05
3.03434e-05
2.55071e-06
2.96935e-07
-2.85617e-06
-0.00179893
-0.0050639
1.38198e-05
0.0050674
-0.00363008
0.00254221
-0.00415683
0.00161471
0.000866248
0.00022621
-9.66411e-06
5.99632e-06
-0.00013033
0.000162479
0.000646206
-0.00025331
-0.000392863
-6.26482e-06
1.19363e-06
1.3648e-06
0.000522175
0.000533135
-0.00105526
0.000198435
0.000323731
1.36635e-06
-2.28923e-05
0.000192061
0.000513203
-0.000362262
-0.000150923
0.000124048
-0.000517564
0.000817299
-0.00154112
0.000723849
-0.000156359
2.46273e-05
-0.000116043
-0.000761092
0.00087714
-0.00022034
-0.000553084
0.000200125
-0.000190801
-9.28579e-06
-0.000355131
-0.000299445
-0.00125824
-0.00122339
0.00248166
0.0039361
0.00518277
-2.03071e-06
1.22137e-05
0.00289477
0.00145476
-0.00434954
-2.02087e-05
9.46601e-05
-7.44335e-05
0.000652991
-0.00062904
-2.39356e-05
-0.000580094
0.000451697
0.000128419
0.000948428
-0.00015416
-0.000794247
-8.33281e-05
3.85406e-05
2.36225e-05
0.000255132
8.24972e-06
-0.00133589
0.00158891
-0.000253015
0.00305492
0.00128603
0.000463756
-0.00038298
-8.07939e-05
-0.000365064
0.000344959
0.000531789
-0.000449853
-0.000169301
-0.000343469
0.000512765
-6.32122e-05
0.000134021
-0.000341258
-0.00057459
0.000915846
-0.00057946
-0.000289783
0.000869259
0.000225483
0.00029178
-0.000517259
0.000218589
-0.000255713
3.7107e-05
1.43824e-05
-3.31243e-06
7.61204e-06
-2.0779e-05
0.000489446
4.19796e-05
-0.000531431
-0.000203637
0.000856624
-3.28143e-06
6.55319e-06
-0.000188517
0.000452751
-0.00026424
-9.42943e-05
0.000101902
-0.000100428
5.00561e-05
5.03719e-05
0.000823692
-0.00010282
-4.3504e-05
7.85846e-05
-3.5086e-05
-0.000145908
-5.45198e-05
0.000198992
-0.000220197
2.12016e-05
0.000259109
0.00022651
-6.06937e-06
-3.59296e-06
4.55093e-05
-4.52122e-05
-7.16209e-05
2.08735e-05
5.07455e-05
0.000443756
-0.000686387
0.000497845
-0.000565236
0.00188499
0.00304421
-0.00137694
8.00049e-05
-6.28373e-05
-1.71737e-05
-0.000386582
0.000618824
-0.000232245
0.00066148
-0.000964837
9.78296e-05
-0.000227569
0.000145376
-0.000212735
6.73662e-05
0.000162674
-5.41435e-05
0.000257759
-0.000623392
0.000365635
0.0016326
0.000103664
0.000197314
-0.00183057
0.00163329
-8.74764e-05
-0.000491978
6.21465e-07
-5.13177e-06
-1.49284e-05
-2.70167e-05
0.000904455
-0.00157754
0.000673088
0.000257272
0.000363719
-0.000522031
0.000184172
-6.89993e-05
-0.000115173
-0.000295176
-0.00015786
-3.54314e-05
-7.87482e-05
0.00103156
-0.00151467
0.000483112
0.00142863
0.000695604
0.00058536
-8.78024e-05
-0.00049753
0.00968011
-0.0149429
9.58322e-06
-0.000129509
0.00116108
-6.17131e-05
-0.000418002
0.000479727
-0.000380483
0.000913651
-0.000503296
9.28873e-05
0.000176137
-0.00039251
-0.000160375
0.000552909
-0.000651669
0.000497526
0.00629646
-0.00271963
-0.00357684
0.0008005
0.000431407
-4.88934e-05
-0.000178967
0.000227868
-9.31455e-05
0.000172556
-7.94161e-05
0.000375617
5.99919e-05
-0.000435621
0.00248279
6.75899e-05
-0.000416607
0.000733722
-0.000317116
5.87066e-05
1.33089e-06
-6.00473e-05
0.000385387
-6.34655e-05
-0.00032192
-6.25556e-05
-3.17361e-05
-0.000680186
0.000618474
-1.8198e-06
2.30102e-07
-0.000206511
-0.00103872
0.000310717
0.000728021
-0.000874708
0.000181716
4.55723e-05
4.84135e-07
-1.63554e-06
0.000117197
3.23829e-05
-7.59039e-05
0.00111557
-0.00039473
-0.000720925
-0.000610808
0.00183697
-0.000721431
-0.00051525
-6.36991e-05
-0.000104061
0.000167766
-0.000720036
6.02579e-06
0.000714019
-0.000699224
0.000312639
-0.000143248
1.4131e-05
0.000170147
3.00032e-05
-0.000414762
-0.000653199
0.00106795
-0.000635679
0.000140387
0.000520257
-0.000262483
-0.000247086
-0.000118835
0.000365921
0.000184381
-6.85736e-05
-0.000115771
-8.75324e-05
-1.28815e-05
-7.17064e-06
-3.36699e-06
1.05525e-05
0.000228545
-2.9554e-05
6.18965e-06
1.63508e-05
-2.25413e-05
8.81608e-05
-3.62067e-05
0.000130493
-0.000631783
0.000501302
-0.000383298
6.69333e-05
2.48983e-07
-4.68648e-05
4.66192e-05
0.0181161
-0.0193858
0.00126975
2.31135e-05
6.76327e-05
-9.07536e-05
-2.49047e-05
-0.000431298
0.000456225
1.01743e-05
-8.86336e-05
0.000135742
0.000468489
-0.00060425
-1.25423e-05
1.87388e-05
-0.000228564
0.000200586
-0.00177733
0.00277949
-5.07857e-05
0.000511257
-0.000141095
-0.000370164
-4.45022e-05
4.30037e-05
1.50004e-06
1.98298e-06
-6.78989e-06
4.81613e-06
-4.14008e-05
-5.70296e-05
0.000369519
-0.000373962
4.43025e-06
0.00532489
-0.0269639
0.00182329
-0.000831917
-0.000991353
0.000215163
0.000305202
-0.00160213
0.00129694
0.000159647
-1.42634e-05
0.00546382
5.41199e-06
3.96078e-06
-9.36679e-06
-0.000199334
0.0001179
8.14241e-05
-0.000211648
0.000220084
-8.44102e-06
0.000431056
0.000109563
-0.000540603
0.00033206
0.00125487
-0.00271745
0.00146258
9.23249e-05
-0.00014122
-9.57887e-06
7.9479e-06
3.48825e-05
2.38303e-05
0.000727206
-0.00137888
1.5445e-06
9.87928e-07
-2.52429e-06
-0.000633928
0.00117503
-0.000450586
0.000796449
-0.000345858
-0.00022291
0.000592435
-0.00048729
-0.000603364
0.00109067
-9.45405e-05
0.000977214
0.00014892
8.69721e-05
-0.000362701
0.000339825
-6.24506e-05
-5.60168e-05
-3.01563e-05
-2.47137e-05
-0.000765774
0.0012993
-3.77444e-05
0.000553351
-8.31521e-05
6.19288e-05
-0.000852238
0.000790301
-0.000304356
0.000768084
0.000627481
-0.000881669
0.000254205
-1.10363e-05
-0.000175714
-7.22751e-05
-3.87948e-05
-0.000221998
-0.000973444
-0.000296074
-0.00017469
0.000470764
0.00912235
-0.00943984
3.61836e-06
-2.99333e-06
0.000331213
-0.000354229
2.30333e-05
-0.000503715
0.00201925
-0.00151553
-4.14374e-05
0.000668904
-1.50297e-05
0.000160303
2.43523e-06
-6.75224e-05
1.11256e-06
0.000202593
2.00791e-05
-0.000635459
-4.68588e-05
0.000682323
-0.000157145
0.000606236
-0.00204556
-1.52141e-05
0.00084614
-0.000123471
-1.83628e-05
3.11007e-05
-0.00589932
0.00329439
6.59139e-05
-0.000116812
5.08872e-05
0.000845702
0.0016965
-0.00123213
-0.000308982
0.000194305
3.7032e-05
-0.000231328
-8.26021e-05
-0.000390626
0.000473227
0.000574685
-0.000484791
6.80044e-07
9.31062e-07
-1.60605e-06
-0.000106279
-5.00783e-05
0.00133219
-0.00167352
-0.000762045
0.000174545
0.000587479
0.0017012
-0.000381296
-0.00131992
4.36123e-05
-9.11804e-05
0.000316671
-0.00019841
-0.000272158
0.000323219
-5.1041e-05
0.000234545
-0.000614999
-0.000117406
0.000650306
-0.0005329
9.45215e-05
2.41567e-05
0.000318505
-0.000487793
-0.000153767
0.00020652
-8.10082e-05
0.000935374
0.000420777
-0.00135614
3.90972e-06
-5.28641e-07
0.0017131
-0.000474727
-0.00123839
-0.000134496
5.27839e-05
-8.17315e-05
-0.000230025
0.000311753
-0.00140057
-9.76285e-05
0.000483021
-1.78411e-07
-0.00024401
-4.62066e-05
3.4081e-05
1.21226e-05
5.57098e-05
-0.000148861
-0.000335502
-0.000703216
0.000594777
-0.000619673
-0.000497074
-0.000222962
-0.000352042
0.000218311
-0.000833908
0.000615599
0.00171837
0.00329312
-0.00203825
0.000164109
-0.00153327
0.00169862
-0.000165333
9.7302e-05
0.000233912
-0.000359929
0.000230162
1.92261e-05
8.3719e-05
-0.000102952
-0.000101596
-1.4446e-05
-2.53219e-06
8.71575e-06
-0.000107374
9.73629e-05
0.000172259
-0.000248691
7.64147e-05
-0.000398703
-0.000681801
0.00134997
0.000663636
-0.00040042
1.79198e-05
-1.07003e-06
2.96544e-07
0.000437361
5.2084e-05
0.000220368
-1.77791e-05
-0.000521428
0.000426878
-0.00102171
7.79307e-07
-4.80925e-07
-1.01602e-06
1.50137e-06
1.85826e-07
-1.53862e-06
1.35198e-06
2.57842e-05
-1.5589e-05
-1.79591e-05
0.000953335
0.000231981
0.000199081
-0.000156352
-5.42956e-05
0.000156114
1.60522e-05
7.92508e-05
-9.5303e-05
-0.000423502
0.000377882
4.56561e-05
-9.47656e-05
6.16299e-05
3.3126e-05
-0.00343009
0.00606773
-0.00263764
0.00117686
-9.24008e-05
-0.000119246
0.000966522
-0.00103212
6.56215e-05
-0.000302508
-2.32046e-05
0.000325708
0.00111642
-0.000563281
-6.14162e-05
0.000534735
-0.000473316
-4.31693e-05
-6.16236e-05
5.06331e-05
0.000527884
-4.739e-05
3.78449e-05
7.66621e-06
-0.000434905
0.000654347
-0.000219462
-0.00137049
9.13652e-05
0.00127909
1.63505e-05
-0.00077838
-2.95273e-05
0.00034803
-0.000665329
0.000337642
0.000327715
0.00034371
9.36555e-05
-0.000629345
0.000537627
-0.00291168
0.0010852
-1.65315e-05
0.000235142
-0.000291154
0.000118476
0.000172688
0.000464177
-0.000398123
-1.37623e-05
6.23748e-05
-4.85817e-05
0.000350281
0.00145809
-0.000402183
0.000155098
2.03668e-05
1.45388e-05
3.25715e-05
7.50391e-05
-0.0001076
-0.00036133
1.16814e-05
3.22042e-05
-3.69529e-05
4.75473e-06
0.00111934
-0.000814121
0.000445425
-0.000613041
0.000167625
-0.000621255
-0.000445946
0.00106719
-1.00238e-05
1.09025e-05
-8.95968e-07
0.000122943
-0.00056157
-0.000224657
-6.17146e-05
-0.000546687
0.000608375
0.0125508
-0.00722592
-0.000120761
0.000148795
-2.80083e-05
-0.000101664
0.000146731
0.000730622
0.00109265
0.000215934
0.000248247
6.26911e-06
-4.6564e-06
-1.6119e-06
-0.00160425
0.000223621
-0.000583819
-0.000549885
0.0011337
-9.78194e-07
-2.50789e-05
-4.71038e-05
8.80187e-05
6.64435e-05
-1.26575e-06
-6.51591e-05
2.34169e-07
-7.16546e-07
-0.000508637
0.000539116
-3.04584e-05
-0.000153721
0.000211491
-5.77765e-05
-0.000414561
0.00203331
-0.00161875
3.60412e-05
0.000374358
-0.000410389
-0.000416944
0.000121767
0.00030813
-1.87852e-05
-0.000289334
8.03336e-05
-1.44082e-05
9.06172e-06
-2.7963e-06
-0.000766745
0.00140035
-0.000633576
-0.00024947
-0.000917928
0.000428232
0.000489686
-0.000347985
4.76596e-05
0.000300297
-0.00151967
0.00068298
0.00083674
-0.000689182
0.00358396
2.05664e-05
0.00011158
-0.000636338
-0.000734134
6.67166e-05
0.000134976
-0.00246688
0.000402323
0.00206452
-0.000137945
-9.506e-06
0.000147471
0.000543339
-0.000958106
-2.54833e-06
-0.00019109
0.000158279
3.28009e-05
0.000296488
-0.000263917
-2.7067e-07
2.72514e-07
-0.000131929
-9.09777e-05
-5.84745e-05
0.000375264
3.30207e-05
-1.27919e-05
-3.56702e-05
-7.64712e-05
-9.27294e-05
0.000331728
8.41837e-05
-0.000415903
-0.00102561
-0.00240449
-7.14227e-05
0.000509837
-0.000540512
3.06792e-05
-0.000131369
-0.000140786
-0.000308888
-0.000609016
-0.000220328
-0.000230265
3.65803e-06
3.08593e-07
4.43192e-05
-0.000519819
-0.000177969
0.000312628
-0.000209181
9.83919e-06
0.000347533
-3.94016e-05
6.23312e-05
2.15096e-06
-6.44815e-05
7.36763e-05
4.42213e-05
8.63538e-07
1.03641e-05
-1.12261e-05
0.000762686
0.000323841
-0.00108654
-0.000388757
0.00066028
0.000147712
-0.00036523
-2.72834e-05
3.73642e-05
-2.25719e-05
-4.86977e-05
3.86626e-05
-0.000189233
0.000135265
0.000783165
-0.000279051
-0.00139097
0.000816399
-4.24974e-05
-0.000718571
0.000108974
-2.23737e-05
-8.65874e-05
0.0266533
-0.0214651
-0.00518811
-0.000746207
0.000682529
0.000844552
-0.00133185
-0.000223481
0.000147014
-2.6395e-06
-4.68107e-05
4.94507e-05
-0.000297239
0.00121245
-0.000915203
-2.81079e-05
1.49274e-05
-0.000364023
0.00121275
-0.00084871
0.000289536
-1.20086e-06
7.23137e-05
-7.11299e-05
-0.00267504
0.00112322
0.0015518
3.65952e-05
-4.39148e-06
0.000334998
0.000445152
-6.23493e-05
4.21469e-05
0.000287813
-0.000353922
0.000373643
-1.97302e-05
-0.000206238
-4.35187e-05
0.000249763
-0.000169272
0.000100281
0.000482848
-0.000225725
-7.92376e-05
0.000419929
-0.000340674
-0.000216774
0.000207258
-0.000442374
0.000648261
-0.000205866
-3.42566e-05
-0.000132086
0.00016634
0.000261345
-0.000792952
0.000531528
0.000124062
0.00157716
0.00124947
-0.00371641
5.80021e-05
0.000632463
0.000442847
-0.00107532
-0.000135676
-0.000198711
0.000334364
-0.000283551
-7.03752e-05
-2.60833e-05
5.57696e-05
-2.96714e-05
0.000342347
0.000168912
4.7209e-05
-9.34163e-05
0.000507258
-0.000923846
0.000401504
-0.000661027
0.000259541
0.000692428
-5.99711e-05
-0.000663434
0.000315501
9.17528e-05
-0.000279668
-0.000193778
-0.00030435
0.00020438
9.9995e-05
6.97747e-06
-1.41425e-05
0.000214899
-0.000570023
0.000150269
-0.000321456
0.000171193
0.000132467
-0.000121766
-1.06788e-05
0.00028478
0.000188877
-0.000473646
0.000554086
-0.000224026
0.000859155
-0.00118347
0.000324323
-7.1928e-06
4.16029e-06
3.03625e-06
-0.000332133
-0.000191843
-0.000336207
0.000528041
0.0002754
-0.000428231
0.000152824
6.74025e-05
0.000332026
-0.000399383
-0.00012599
5.23911e-05
7.3603e-05
0.000252494
0.000337214
0.000393642
-0.000730875
-0.000393348
0.000275946
0.000113734
-9.45219e-05
-0.000332354
0.000889097
-0.000556758
0.00131993
-0.00209095
-0.000848965
0.000303855
1.05216e-05
1.46605e-06
-7.15851e-06
5.74649e-06
-0.000346198
-7.07524e-05
-0.00060019
-6.51193e-05
1.9963e-05
-2.71539e-05
2.67588e-05
-4.94175e-05
0.000110251
-0.000301351
9.25895e-05
-5.36987e-05
-3.88643e-05
0.000269726
-0.00029924
-0.000945378
-0.000568792
0.00151415
4.25662e-06
0.000987087
-0.00099135
-0.000120759
0.000580068
4.6768e-05
0.000954782
-0.00138918
0.000434448
-1.07727e-05
0.00381483
-0.00403448
0.000219639
5.06203e-06
-1.18428e-05
0.000299756
-0.000176886
0.000625286
-4.6111e-05
-0.000579164
-0.000837505
0.000463268
0.000364396
-0.000398658
-0.000770401
-0.000952877
9.02054e-05
-2.01603e-06
3.50928e-06
-1.4948e-06
-0.000102568
0.000159121
-5.65484e-05
-0.000692178
0.00165272
0.000447683
8.26605e-05
-0.000530437
0.000242429
0.00205973
-0.00230225
6.11313e-05
-4.17925e-05
-1.93775e-05
-0.00121602
0.000266584
0.00094944
-0.00132914
-8.04162e-05
5.34089e-05
-0.00148037
0.0031854
6.20643e-05
8.8064e-05
-0.00327571
0.00113044
-0.0013822
0.000251767
0.000425453
-1.23229e-05
-0.000413103
8.51066e-05
-2.39789e-05
0.000977723
3.823e-06
-3.64351e-06
-7.01216e-06
2.51389e-05
0.00424788
-0.00234401
-0.00190388
-0.0017544
-0.0003526
0.000266314
8.62735e-05
-0.00111231
-0.000875186
0.000189693
-0.000525175
8.02344e-05
-4.23877e-05
-1.41939e-05
-8.0575e-05
8.15083e-05
0.000885014
-0.000968542
0.00155199
0.000583534
-0.000264884
-0.000318649
1.44413e-06
-7.57801e-07
-0.000111348
9.75994e-05
-0.000734373
0.0012868
0.00109409
-0.00167305
0.000991835
-0.000432101
0.000116771
-0.00015526
-0.000114871
-6.92862e-05
0.000184171
-0.000339823
1.22689e-06
-9.92988e-07
-2.30943e-07
8.54259e-05
-4.63652e-05
3.68535e-05