/*--------------------------------*- C++ -*----------------------------------*\
| =========                 |                                                 |
| \\      /  F ield         | OpenFOAM: The Open Source CFD Toolbox           |
|  \\    /   O peration     | Version:  v2012                                 |
|   \\  /    A nd           | Website:  www.openfoam.com                      |
|    \\/     M anipulation  |                                                 |
\*---------------------------------------------------------------------------*/
FoamFile
{
    version     2.0;
    format      ascii;
    class       volScalarField;
    location    "400";
    object      k;
}
// * * * * * * * * * * * * * * * * * * * * * * * * * * * * * * * * * * * * * //

dimensions      [0 2 -2 0 0 0 0];


internalField   nonuniform List<scalar> 
14033
(
0.000144994
0.000232546
0.000147572
0.000160268
0.000171249
0.000156984
0.000162403
0.0120821
0.00014977
0.000147447
0.000362666
0.0231494
0.0731103
0.000147134
0.000155022
0.000147351
0.000146388
0.000201641
0.0172338
0.000149817
0.000159648
0.0285356
0.0683975
0.000161036
0.0405832
0.000159527
0.000200365
0.000147954
0.021758
0.077011
0.000144514
0.000147579
0.00015451
0.0223879
0.000151136
0.000149661
0.000160202
0.000149754
0.000155229
0.000155628
0.000169439
0.00015238
0.0262345
0.0436205
0.000148836
0.0369878
0.000159123
0.000152637
0.000199103
0.020076
0.000170559
0.000182693
0.0371668
0.0468075
0.000181359
0.000156207
0.0648165
0.000147984
0.000167431
0.000149136
0.000200804
0.000149556
0.000290297
0.000150768
0.000160272
0.000180295
0.0357022
0.000204787
0.00014768
0.000151087
0.000164886
0.000149335
0.0711645
0.0624949
0.0284837
0.000149501
0.000169626
0.000149305
0.000148571
0.000201354
0.00018732
0.0342608
0.0210162
0.0179424
0.000149554
0.000149568
0.000155109
0.000146343
0.000174191
0.0187953
0.000153661
0.000150918
0.000161277
0.00726667
0.00569383
0.000166134
0.000159956
0.000201632
0.0246879
0.000148907
0.000183124
0.0414142
0.000149868
0.000147586
0.0217322
0.00930174
0.000170771
0.000194424
0.000175147
0.0632372
0.000148684
0.000147717
0.000148942
0.0411944
0.000148987
0.015464
0.0246572
0.000149742
0.000188956
0.0376675
0.000152055
0.000184707
0.000154037
0.000147728
0.064757
0.000163343
0.0722139
0.000205403
0.000147133
0.000183544
0.0750318
0.000188676
0.000201331
0.0182313
0.000217425
0.000147053
0.0129976
0.0443481
0.000165219
0.000213615
0.000197775
0.0619302
0.000176431
0.00018817
0.000148565
0.000150798
0.0460277
0.000182623
0.000144522
0.000160392
0.000149623
0.000188892
0.000156033
0.000336795
0.000262266
0.00014939
0.0250979
0.000147833
0.000154308
0.02509
0.0141306
0.000205018
0.000153371
0.000161027
0.0303317
0.000154305
0.0663673
0.000174557
0.0203212
0.000148968
0.000222053
0.000150136
0.000160073
0.000166472
0.000170291
0.000200116
0.000149488
0.000147064
0.000147002
0.0232302
0.0601887
0.000214017
0.000148781
0.0398849
0.000150494
0.000154068
0.000149689
0.000148694
0.0486018
0.000183464
0.000160249
0.000151891
0.000399943
0.000150744
0.000154325
0.00016079
0.000149857
0.065869
0.000297288
0.000148612
0.0681232
0.000151196
0.000120428
0.00014992
0.0661977
0.0762987
0.000149388
0.00015202
0.0641228
0.0759639
0.000175596
0.000148774
0.000180461
0.00014893
0.000154395
0.000149868
0.000159417
0.00134885
0.000249787
0.000158325
0.016525
0.0431121
0.000148908
0.000154991
0.000149607
0.00360573
0.062132
0.000158346
0.0144239
0.000149665
0.000148833
0.00015107
0.00024364
0.074175
0.00015437
0.000146586
0.0574039
0.0001486
0.000150103
0.000164573
0.000148873
0.000180767
0.000182985
0.0153631
0.00015032
0.0353648
0.000148774
0.0346971
0.00020972
0.000154658
0.000256899
0.0319872
0.000147252
0.00015903
0.000156939
0.000225636
0.000148783
0.000239022
0.000148434
0.076916
0.000148716
0.0282122
0.000149455
0.000148941
0.00014766
0.000149129
0.000182556
0.000199537
0.000149981
0.000170361
0.000151692
0.000148581
0.000222272
0.000203057
0.00020383
0.000147046
0.000146996
0.000147214
0.0440746
0.000159815
0.000149758
0.000148661
0.0587794
0.0280718
0.000147064
0.0584407
0.000165203
0.000160071
0.000151627
0.000155655
0.000149803
0.000182322
0.000147058
0.0758223
0.000159493
0.00016257
0.000202667
0.000164562
0.0772627
0.0540457
0.00016645
0.0447858
0.000175314
0.000153544
0.0599003
0.000147063
0.000154861
0.000183591
0.000181015
0.000148486
0.000181258
0.000241038
0.000147181
0.000476655
0.0350676
0.0735867
0.000180121
0.000149795
0.00653839
0.000152883
0.000149757
0.000178777
0.000150002
0.000148019
0.000154032
0.00015945
0.000175156
0.000146469
0.000147742
0.0700124
0.0628536
0.000151848
0.000147857
0.0342504
0.000152674
0.000148479
0.000148797
0.00015216
0.0682125
0.000148776
0.0324766
0.0221329
0.000154164
0.0391046
0.000159583
0.000156564
0.000168164
0.00015964
0.00106087
0.000147154
0.0363033
0.000202714
0.000148503
0.00016585
0.00015114
0.00015654
0.00014885
0.000231523
0.0326383
0.0771076
0.000148779
0.0808135
0.00015448
0.000278343
0.000149382
0.000148831
0.000164963
0.000149737
0.0414467
0.0784079
0.000211173
0.000148648
0.000154721
0.000155873
0.000148065
0.0379959
0.000172546
0.000149529
0.038459
0.000175948
0.000148837
0.000147828
0.000154525
0.000151716
0.0423621
0.00763371
0.000231104
0.000209741
0.000148075
0.000192898
0.0497413
0.000158145
0.024218
0.000147194
0.000159689
0.000191459
0.0315318
0.000200074
0.0378959
0.000149689
0.000146312
0.0206486
0.000149142
0.0186501
0.00020938
0.000197299
0.000150294
0.000173829
0.067752
0.00630654
0.000148912
0.000183711
0.00015456
0.000110897
0.000149811
0.0218815
0.0672476
0.000151574
0.000154062
0.00021909
0.000154519
0.000149172
0.0203191
0.0193099
0.000149387
0.0451791
0.0192704
0.0456523
0.000153428
0.000146361
0.000148555
0.000148372
0.0216828
0.000156129
0.000147996
0.000417455
0.0672515
0.000198362
0.000234238
0.000150333
0.0663432
0.000198642
0.000150466
0.0380174
0.000161881
0.0390556
0.000145746
0.00160385
0.00014976
0.000349796
0.00014917
0.0655522
0.000164996
0.0233285
0.0660238
0.000149671
0.0653742
0.000149307
0.000216656
0.0121663
0.000566491
0.0221473
0.000161811
0.05677
0.0414151
0.000258487
0.000151506
0.0438445
0.000207286
0.000201453
0.000146057
0.000191416
0.000154929
0.000150623
0.0682246
0.000207401
0.000157708
0.000166081
0.0660375
0.0210385
0.0811487
0.000181981
0.0741162
0.0647957
0.000151857
0.0286689
0.000147531
0.000145993
0.000178958
0.000146138
0.00022602
0.0291462
0.000149683
0.000150398
0.000159412
0.000210338
0.000148583
0.000178557
0.000147698
0.00014874
0.000148986
0.00014723
0.000171375
0.000147594
0.00019389
0.000169714
0.000157526
0.000146787
0.0264787
0.0648767
0.0584498
0.00014726
0.000179542
0.000179781
0.000145795
0.000149374
0.000149514
0.0776726
0.000256353
0.0210081
0.00015054
0.000168013
0.0186687
0.000154707
0.000159605
0.000247901
0.00014762
0.000230403
0.0246329
0.000153091
0.000165134
0.000211588
0.0241217
0.00014899
0.000178086
0.00024607
0.000171584
0.000152113
0.0475402
0.0202186
0.000155821
0.000149618
0.000165632
0.0803489
0.0735027
0.0300085
0.000147115
0.000164352
0.0687909
0.000152929
0.000149095
0.00016648
0.000148779
0.000164214
0.0208837
0.000215319
0.000266792
0.000149072
0.0120732
0.000171845
0.000154794
0.00014687
0.000150146
0.021771
0.000228188
0.000167293
0.000152272
0.000187829
0.000149821
0.0690641
0.000165039
0.0469095
0.0389915
0.000149716
0.0793759
0.0260283
0.000149082
0.00418078
0.0762667
0.000145852
0.026805
0.000157148
0.0623408
0.000151761
0.000151321
0.0643876
0.000181309
0.000149597
0.000182355
0.0656071
0.000261101
0.000149771
0.000149403
0.000189917
0.000178403
0.0626729
0.000149629
0.000205966
0.000213057
0.00017835
0.000200329
0.000149688
0.019589
0.0790673
0.000159484
0.0758283
0.000148558
0.00018651
0.000163646
0.000188961
0.000147673
0.0303173
0.000152144
0.000161634
0.000149475
0.000148819
0.000149016
0.000156857
0.0726458
0.000156756
0.00015429
0.000224586
0.065402
0.0715081
0.0162199
0.0221938
0.000152934
0.0722112
0.0777396
0.0588734
0.000167218
0.0169827
0.000147832
0.00017121
0.000148473
0.0322514
0.00016117
0.0313528
0.000148116
0.000190227
0.0237335
0.0786167
0.000148861
0.0643545
0.000148383
0.000149058
0.000153507
0.000149759
0.00015419
0.000148451
0.00014746
0.000149682
0.000151803
0.000556907
0.000190523
0.000151553
0.000221353
0.035899
0.000194585
0.000147297
0.000195544
0.000166389
0.000168512
0.0632414
0.000251361
0.000149715
0.000148762
0.00014857
0.000212177
0.000147576
0.0450662
0.000149009
0.00015157
0.000163095
0.000187462
0.000148009
0.000149329
0.0379692
0.0267237
0.000456264
0.0473402
0.0121962
0.00015318
0.000151993
0.000148171
0.0200535
0.000149445
0.000156265
0.000151916
0.000188953
0.000146128
0.0627193
0.000125357
0.000148201
0.000188919
0.000148572
0.00014756
0.0215391
0.0420505
0.000150089
0.000159968
0.000151406
0.000180324
0.000148451
0.000182762
0.000148369
0.000169228
0.000261375
0.000178512
0.000151341
0.0748933
0.000148632
0.0240006
0.000165353
0.000168227
0.000157963
0.00020164
0.0709069
0.000163907
0.000192321
0.000178181
0.000196476
0.0181589
0.000156266
0.0125992
0.000148793
0.0331302
0.000146956
0.000158945
0.0273077
0.0436808
0.000254696
0.000186847
0.000147233
0.000148971
0.000150436
0.0175375
0.000152095
0.0784208
0.0680088
0.000149302
0.000217663
0.000155862
0.000286978
0.00015191
0.000159002
0.0610074
0.000155695
0.0146476
0.000150251
0.000146543
0.000150673
0.000175776
0.000161858
0.000180904
0.00015476
0.00014701
0.000148441
0.0666914
0.0247831
0.000186442
0.065476
0.000148113
0.000148116
0.000147728
0.000148866
0.0232385
0.00016792
0.0209265
0.0126855
0.000149454
0.0305311
0.0111934
0.000164121
0.000176107
0.000165703
0.00029819
0.06302
0.0338587
0.0717883
0.00014847
0.0326763
0.0631926
0.00014998
0.067542
0.000145357
0.000167737
0.000156143
0.036564
0.065259
0.000186111
0.000165637
0.0274706
0.0146619
0.0599984
0.000150764
0.000167164
0.0614354
0.000148786
0.000152319
0.0682429
0.000147088
0.000149724
0.000205109
0.0796331
0.000158253
0.000148964
0.000149644
0.0746095
0.066472
0.000345908
0.000186412
0.0342248
0.000187586
0.0580412
0.000148508
0.000206282
0.000151207
0.000147103
0.000147953
0.000146816
0.000148091
0.00014883
0.000149053
0.000134103
0.000158042
0.0657345
0.0649449
0.000148345
0.000148453
0.000151945
0.0150664
0.0445339
0.000521731
0.000159218
0.000360304
0.00020079
0.000504996
0.000178597
0.000196363
0.000149391
0.000153148
0.000147145
0.00018952
0.000152263
0.000149803
0.000151217
0.0628394
0.000149572
0.000154306
0.00014801
0.00019862
0.0601777
0.000164523
0.0782002
0.0797935
0.000193404
0.0415243
0.000149231
0.000147449
0.000152442
0.0780667
0.0720523
0.000196034
0.0632973
0.000148357
0.000194202
0.000147263
0.000159615
0.000302868
0.000148797
0.000205566
0.000147857
0.000148983
0.000149036
0.000172957
0.000164925
0.00015078
0.000150289
0.000198977
0.000236581
0.000162884
0.000196936
0.00015024
0.077969
0.00014883
0.00016458
0.000152487
0.0080545
0.000165915
0.000149747
0.000166885
0.021756
0.000149108
0.000156789
0.0403367
0.000151373
0.0735339
0.0603797
0.000149431
0.000176838
0.000160218
0.000248172
0.000158322
0.000212735
0.0284569
0.000162049
0.0622515
0.000156533
0.000147907
0.000154034
0.00015041
0.0794517
0.0774947
0.000161538
0.00048217
0.000148941
0.0326721
0.000173597
0.000147844
0.000154567
0.000155589
0.0185705
0.000165443
0.000183665
0.0687979
0.000149608
0.00017458
0.0631769
0.000149243
0.00017874
0.000149511
0.0586925
0.0707275
0.000196673
0.0187111
0.000158625
0.000151467
0.000224992
0.000149794
0.000146268
0.0633859
0.0395146
0.00014967
0.000149134
0.000190821
0.00014797
0.000156568
0.000152285
0.0680879
0.000197145
0.000148055
0.000167675
0.014887
0.000348675
0.0001475
0.000149403
0.000155342
0.0828605
0.000160746
0.00022146
0.000148796
0.000148745
0.0434434
0.000215246
0.000165161
0.000156308
0.000148582
0.000219269
0.0369645
0.000149542
0.000149596
0.000153492
0.000149677
0.000165377
0.000277886
0.00014959
0.000148507
0.000160413
0.000146994
0.000147822
0.000180542
0.000155952
0.0001677
0.000183469
0.000152133
0.000149768
0.0134738
0.000304467
0.00144381
0.000150149
0.000148676
0.000150911
0.000219491
0.00013743
0.0269604
0.000149285
0.000149045
0.000153152
0.000149425
0.0218853
0.000149517
0.0378145
0.075883
0.0343922
0.000146494
0.000289519
0.0125342
0.000147051
0.000567198
0.000149287
0.000149067
0.079452
0.000160633
0.0150954
0.0733535
0.000159968
0.0698227
0.000144969
0.000149111
0.00017453
0.000151959
0.000183329
0.00014947
0.000152001
0.000159555
0.000159621
0.000184176
0.000156389
0.074642
0.00014952
0.000147916
0.000148432
0.000147638
0.000185666
0.000189016
0.0431974
0.000148362
0.0421313
0.000160447
0.000149622
0.000149383
0.0001484
0.000146487
0.000269761
0.000170312
0.000187327
0.000165279
0.000158643
0.000216232
0.00022106
0.000176416
0.0696413
0.000507875
0.038021
0.0832984
0.000155983
0.0382552
0.0633114
0.000148964
0.000148754
0.000147968
0.064619
0.0826925
0.00122453
0.0437628
0.0819988
0.000159925
0.000198071
0.00688645
0.000179604
0.0649194
0.00635377
0.0760662
0.000167557
0.0178454
0.000152639
0.000167842
0.00167453
0.000166097
0.0291
0.000485587
0.0635252
0.0639427
0.000198979
0.000167921
0.0651704
0.0647153
0.0525838
0.000147453
0.000183856
0.00016534
0.0463148
0.000149512
0.000157361
0.000150485
0.000165517
0.0343248
0.000226861
0.000148153
0.0481804
0.00026371
0.00015637
0.000170707
0.0239811
0.000153667
0.000188242
0.0233512
0.00014794
0.0667886
0.000148654
0.000151563
0.000151009
0.0470659
0.000121101
0.0626183
0.000204363
0.0342033
0.000197445
0.0397738
0.000151216
0.000158554
0.000152354
0.000148441
0.000150185
0.00017733
0.000153859
0.000151125
0.0762702
0.0319529
0.000151451
0.000148793
0.000187691
0.000156166
0.0581193
0.000149819
0.067772
0.000152704
0.040255
0.000167871
0.0369671
0.0694365
0.00014864
0.000165005
0.0658467
0.065362
0.0504309
0.045212
0.0208415
0.000155691
0.00015016
0.000159045
0.000150725
0.000148728
0.0601705
0.000149626
0.000146755
0.000153413
0.0326516
0.000148771
0.0733791
0.00016462
0.000159177
0.0677451
0.000164758
0.000166406
0.000165386
0.000149631
0.000165364
0.000221323
0.000146308
0.06212
0.000167055
0.000147958
0.00014906
0.0236796
0.0217851
0.00015162
0.00014952
0.000150315
0.000148769
0.000190797
0.00019722
0.000148093
0.000147957
0.000150211
0.00445243
0.000485304
0.000160993
0.000151864
0.000202676
0.000154818
0.000186845
0.000186362
0.000166555
0.000171905
0.0232542
0.000148484
0.000153144
0.000427044
0.000169493
0.0692848
0.0474789
0.000167684
0.000152467
0.0361367
0.0759747
0.000151124
0.000150025
0.000148707
0.000199305
0.000202251
0.000151299
0.000147333
0.0404525
0.00017352
0.0623626
0.000196224
0.000193283
0.073231
0.000147997
0.000187189
0.000328162
0.00015108
0.0781626
0.0426337
0.000152312
0.0691167
0.00015007
0.00015433
0.00015129
0.000168959
0.000147792
0.000182705
0.00014635
0.000148098
0.0640639
0.0728744
0.000146316
0.0650532
0.000149682
0.0430837
0.000147133
0.00018307
0.000147977
0.000253024
0.000211628
0.000151495
0.000165285
0.000294729
0.0587964
0.00030266
0.000164864
0.0633045
0.000150047
0.000148712
0.000166692
0.00015564
0.0180881
0.00015067
0.000154199
0.000206342
0.000148786
0.0479954
0.000156127
0.0578517
0.023589
0.000188304
0.000206568
0.000446137
0.000150693
0.000151025
0.021972
0.000168437
0.00014852
0.000219203
0.000150693
0.0536126
0.00015203
0.0681146
0.000150139
0.0180321
0.0166709
0.0214948
0.0227018
0.000162083
0.000150232
0.000149322
0.000156851
0.000148753
0.0750368
0.000180862
0.0455426
0.000151194
0.0365423
0.0459045
0.0439605
0.000150486
0.000182657
0.0469324
0.000149109
0.000148525
0.000158917
0.017937
0.000179738
0.0462106
0.000148009
0.0836382
0.000149774
0.000150748
0.000149065
0.000164234
0.0336621
0.0428631
0.0633715
0.0300932
0.000148207
0.000166743
0.000158953
0.000178675
0.0314276
0.000218322
0.000146876
0.000148918
0.000179349
0.000155286
0.000225783
0.000149335
0.000197862
0.000149914
0.0408364
0.0449473
0.000166662
0.000150828
0.0398541
0.040313
0.0712136
0.000155954
0.000162026
0.000152516
0.000150417
0.0455033
0.000186936
0.0632565
0.000147665
0.000156554
0.000149909
0.000187079
0.0126364
0.0421068
0.00017272
0.0670983
0.000258736
0.000181729
0.000148728
0.000149649
0.00015316
0.00843452
0.000148488
0.000148169
0.000153224
0.000164722
0.00322307
0.000148992
0.00374493
0.000559973
0.000148517
0.000149075
0.000149471
0.000147869
0.000206185
0.000224974
0.000147993
0.000188911
0.000161421
0.000150455
0.000156462
0.0814956
0.0186933
0.000175654
0.00015348
0.000180666
0.000155287
0.0851795
0.00604919
0.0763058
0.000183387
0.036847
0.000168235
0.000165796
0.0447495
0.00018658
0.0631119
0.00015057
0.0810692
0.000187792
0.000192032
0.000148766
0.00015282
0.0219651
0.00026381
0.0666133
0.000161796
0.000155425
0.000199824
0.000148067
0.000472428
0.000148746
0.00014881
0.000151111
0.000146893
0.000149423
0.000147485
0.0210771
0.0664702
0.000147671
0.000148987
0.000148614
0.000170148
0.000146876
0.000187264
0.000160284
0.000172484
0.000176573
0.000156051
0.00018461
0.0797128
0.0497244
0.000164987
0.000147757
0.000174018
0.000164306
0.000149638
0.000152862
0.0241762
0.0206389
0.000153268
0.0454814
0.000193047
0.000200221
0.000152965
0.000171528
0.000148845
0.0693041
0.000147932
0.000167171
0.000149621
0.0183383
0.000189425
0.000180127
0.000165036
0.000150309
0.0849108
0.000149311
0.000160175
0.0202977
0.000157213
0.000151215
0.000186038
0.000149857
0.000152529
0.0784582
0.000150971
0.000152836
0.00014835
0.000148515
0.000157809
0.000468602
0.000184278
0.000174875
0.0521995
0.000197983
0.000217314
0.0237253
0.000147817
0.000148981
0.0637304
0.000169999
0.0218915
0.000196626
0.0421761
0.000147741
0.00163981
0.0189775
0.0186336
0.00017669
0.000161404
0.0711073
0.0415603
0.000196104
0.000158956
0.0475877
0.0287884
0.000147678
0.000150944
0.000176503
0.000157421
0.000557114
0.000162748
0.000153909
0.000157829
0.028741
0.00023215
0.000162182
0.00677837
0.000179913
0.000151051
0.000151566
0.000151262
0.000169574
0.000162217
0.000165075
0.000151075
0.0673991
0.0276552
0.000193926
0.0254568
0.0161515
0.000150833
0.000169232
0.0688766
0.000148998
0.0297973
0.000154231
0.000156022
0.0050281
0.000204374
0.000151197
0.000158155
0.0845465
0.000147987
0.000150808
0.00015536
0.000234646
0.000161549
0.000148648
0.000215375
0.0815609
0.0171382
0.000157169
0.000149635
0.0676343
0.000149513
0.000148012
0.000157085
0.000147927
0.000348378
0.000166614
0.0397864
0.000148698
0.000147214
0.000148948
0.000149123
0.000154903
0.000223935
0.0667878
0.000189152
0.000148749
0.000148679
0.000148092
0.00104973
0.00015882
0.000150376
0.000154469
0.000148964
0.0372359
0.000165619
0.0197482
0.0730377
0.0798206
0.00035163
0.000148202
0.042277
0.060485
0.0107275
0.000145746
0.000125851
0.000149119
0.000159965
0.000196134
0.000148758
0.000164878
0.0795559
0.000151707
0.00023317
0.0679953
0.000281006
0.0383383
0.0472277
0.0147122
0.00016479
0.0323063
0.0620394
0.000149604
0.000177856
0.00015343
0.000147953
0.000187372
0.000154912
0.000156206
0.000168467
0.000147879
0.000441378
0.000249054
0.000178964
0.0187868
0.079578
0.000149465
0.000182376
0.000145828
0.000149357
0.000181206
0.000147537
0.000160326
0.000159875
0.026998
0.000155344
0.00014943
0.0423118
0.000148992
0.000177474
0.000154448
0.000152733
0.0001894
0.000162165
0.000160908
0.000152222
0.000149743
0.000150856
0.000154734
0.000153114
0.000149679
0.00015272
0.067737
0.000150863
0.0125147
0.0413181
0.000149105
0.000146785
0.000231548
0.000135129
0.000148483
0.000174562
0.0001469
0.000172974
0.0454175
0.0782238
0.000153278
0.0722587
0.0710235
0.000161615
0.0178343
0.0360044
0.000148795
0.000149801
0.000151521
0.000155646
0.000152708
0.0681535
0.000175809
0.000183339
0.0414834
0.00014696
0.000151584
0.0285968
0.000148504
0.000148894
0.000151359
0.000155036
0.0299327
0.0227432
0.000190375
0.000177784
0.0725215
0.0241348
0.0643195
0.000354188
0.000147337
0.000152718
0.000175824
0.000202685
0.000183285
0.0347856
0.0402234
0.00015631
0.000149555
0.000149049
0.000147541
0.000178223
0.000149867
0.000148623
0.00034081
0.0678862
0.00021442
0.000148686
0.0378138
0.000162453
0.000289892
0.000148588
0.000196346
0.000150044
0.000152507
0.000152306
0.0138631
0.0414136
0.000164328
0.0445008
0.000148775
0.000148566
0.000149776
0.000158196
0.0316463
0.000147731
0.00016146
0.0207691
0.000147446
0.000165648
0.00014903
0.0339632
0.000149888
0.000247621
0.000149252
0.000241183
0.000195854
0.000162521
0.00015205
0.00021494
0.000151103
0.000159501
0.000197333
0.000167375
0.000149773
0.000149415
0.000146706
0.000149544
0.0091892
0.000212992
0.0632945
0.0368113
0.000145972
0.000709349
0.000198259
0.0725322
0.0108718
0.00015062
0.000148477
0.000188778
0.00014873
0.000151283
0.00438731
0.0180106
0.0775842
0.0368881
0.000148924
0.0759076
0.0334161
0.0669177
0.000152819
0.0656864
0.000179275
0.000149804
0.000275206
0.0689902
0.0549396
0.000294896
0.00015081
0.0337105
0.000148824
0.000161274
0.000153759
0.000147576
0.00014829
0.000188471
0.0313619
0.000188221
0.000188282
0.0175836
0.0704775
0.000152715
0.000147593
0.0357681
0.0783936
0.000149774
0.000149293
0.000227713
0.0374978
0.0155183
0.000157634
0.000156712
0.0134215
0.0400423
0.000226009
0.00017784
0.000149029
0.0683319
0.0357439
0.0810482
0.000174568
0.000148939
0.000153363
0.000165387
0.000191593
0.000148154
0.00022375
0.0324859
0.0388725
0.000176181
0.000148086
0.0330614
0.000149309
0.0645005
0.0256573
0.00346085
0.000150813
0.000227372
0.000153584
0.068492
0.000297543
0.000149513
0.00015416
0.000149234
0.000496898
0.000149821
0.000153744
0.000153898
0.000180114
0.000142964
0.000227325
0.0264753
0.000213285
0.0691545
0.000192587
0.0659024
0.000176505
0.000166768
0.000149234
0.0453117
0.000164097
0.000153374
0.000149193
0.000149129
0.000161286
0.000149441
0.000149205
0.000155425
0.000147928
0.0463191
0.000159476
0.0728087
0.000176758
0.000192583
0.000147644
0.000158685
0.0642969
0.000225704
0.000194067
0.000150459
0.0290621
0.000149306
0.0001698
0.000169051
0.000161723
0.000166146
0.000148169
0.0160895
0.000203376
0.000187653
0.000149824
0.000155051
0.0729011
0.000150445
0.000372591
0.00022116
0.000152429
0.000149639
0.0356725
0.000207536
0.000211203
0.029591
0.000174683
0.0376529
0.00014948
0.000148129
0.000194589
0.000172374
0.00016782
0.000202146
0.000266264
0.0177555
0.035543
0.000240456
0.083859
0.000153252
0.000153884
0.000152832
0.037397
0.000199704
0.0725032
0.0201855
0.0843079
0.000149884
0.0430343
0.00016368
0.0001571
0.000161888
0.000174909
0.000332785
0.000150236
0.000153569
0.000212495
0.0638436
0.000196619
0.0173629
0.000147907
0.000152387
0.000148499
0.0232055
0.000179804
0.0651812
0.000152811
0.00022321
0.000151055
0.000153131
0.0217025
0.000147897
0.000187855
0.000195383
0.0675337
0.069925
0.0206286
0.0780051
0.0828257
0.000186307
0.0681435
0.0210798
0.000149771
0.000190821
0.0434344
0.000167917
0.0330935
0.000209356
0.0785891
0.00015176
0.000193535
0.000205038
0.000159307
0.000150794
0.0432612
0.00021533
0.000146538
0.00644037
0.048322
0.000148184
0.000171303
0.000374235
0.0432258
0.000155306
0.0426147
0.00016134
0.000223689
0.000185566
0.000162376
0.0379274
0.0688342
0.000151691
0.000210505
0.0460204
0.000185391
0.000203001
0.0316781
0.0363036
0.000153193
0.000148698
0.0382127
0.0272143
0.000149015
0.000321044
0.000170556
0.000195196
0.000166585
0.0492771
0.000148958
0.000193639
0.000163849
0.00019111
0.000147854
0.0326899
0.0476714
0.000220592
0.000168944
0.000148612
0.000156705
0.000153052
0.000211051
0.000151629
0.00021266
0.0273671
0.0778577
0.000151695
0.067466
0.000173944
0.000179785
0.0499073
0.000174608
0.000152538
0.000197229
0.000150615
0.000202889
0.000148783
0.0708248
0.000173038
0.000154957
0.000159822
0.0441599
0.0459901
0.000151994
0.000165705
0.000198573
0.0126533
0.000180182
0.000149166
0.000148966
0.000163254
0.0151252
0.000148977
0.000270553
0.0748645
0.000147971
0.0767335
0.000180428
0.000156519
0.00018668
0.0443907
0.000227378
0.06783
0.00601306
0.0450418
0.000160901
0.0648399
0.000195129
0.000152169
0.000167056
0.000177801
0.034478
0.00015066
0.0251752
0.00015236
0.0437201
0.000161899
0.0479328
0.0673593
0.000185756
0.000175714
0.000186558
0.00015566
0.00014873
0.000148158
0.0001476
0.00017582
0.000148766
0.0746721
0.0240824
0.000174798
0.0414545
0.048712
0.0438555
0.058659
0.000166878
0.0336019
0.000148264
0.013641
0.00016599
0.0338923
0.000299595
0.0436211
0.00014921
0.00015508
0.00015787
0.00015844
0.00014827
0.0435157
0.000153537
0.0380401
0.0349907
0.000158923
0.000148291
0.000209119
0.000150469
0.000150445
0.000153117
0.0001851
0.000216578
0.0664493
0.0422761
0.000152026
0.000151906
0.0434549
0.000153832
0.0657338
0.000147846
0.000226378
0.0499567
0.0399192
0.0342458
0.000183196
0.000303719
0.000150252
0.000154186
0.0703443
0.0823994
0.000153919
0.000185135
0.0302259
0.0808214
0.000190623
0.0750301
0.000148991
0.000148435
0.000154577
0.0694203
0.000149847
0.000157602
0.000153088
0.000147938
0.000171266
0.000149155
0.000201784
0.000148788
0.000148053
0.000147915
0.000224213
0.000184564
0.000188566
0.000173664
0.000182011
0.000148029
0.000179838
0.000182226
0.000150302
0.023499
0.000147775
0.0298286
0.000147744
0.000273235
0.0433431
0.000150109
0.000181782
0.020284
0.000186717
0.000189463
0.000163836
0.000148728
0.0818311
0.000152129
0.0436014
0.0001646
0.0409646
0.000149506
0.000173411
0.000153561
0.00016881
0.036884
0.000149458
0.000211253
0.0683243
0.0186243
0.0381572
0.000149505
0.0312813
0.000156023
0.045109
0.000194625
0.000209898
0.000152305
0.000148401
0.0418485
0.0651629
0.000148306
0.0463424
0.000149224
0.000198773
0.000152609
0.0469477
0.0769178
0.0328406
0.000188864
0.0001617
0.00014881
0.000152848
0.0475507
0.000168724
0.000150112
0.00015121
0.000188647
0.000220051
0.0715939
0.000184601
0.0453974
0.0298563
0.000208595
0.000244412
0.000215072
0.0354374
0.0451821
0.000148365
0.0219151
0.0321716
0.000203144
0.000201222
0.000166543
0.00017118
0.033388
0.000147774
0.000316512
0.000195054
0.000149352
0.000147312
0.000325391
0.000278238
0.000175802
0.000198055
0.000193534
0.0670432
0.0632705
0.000148968
0.0269853
0.0630468
0.000149417
0.000181273
0.0505013
0.000251139
0.000150677
0.000162894
0.000197678
0.0104538
0.0707323
0.000159683
0.000152853
0.000146395
0.000150719
0.000149939
0.000193894
0.00206916
0.000193204
0.0235699
0.000187743
0.0473685
0.000149703
0.000149764
9.60639e-05
0.000183032
0.000150998
0.000164135
0.000155211
0.000168563
0.000165063
0.000149375
0.0434857
0.000183604
0.017245
0.000193725
0.00016037
0.0363462
0.000165355
0.000184907
0.0001492
0.000184188
0.000206521
0.000194504
0.000148686
0.000205741
0.000149083
0.000156681
0.0500712
0.0281506
0.000283746
0.0282826
0.000165748
0.000149178
0.000202766
0.000158016
0.000275102
0.000149258
0.000149002
0.000286424
0.000199308
0.0707107
0.000230953
0.000173986
0.000196158
0.00015225
0.000166581
0.000146765
0.000166283
0.000161017
0.000156272
0.0711283
0.000164515
0.0698485
0.000278181
0.00696282
0.0376486
0.000166767
0.000160786
0.0224825
0.000184226
0.000154055
0.000148924
0.0639766
0.000148429
0.0639398
0.000283009
0.000159879
0.000164127
0.000149063
0.000233911
0.000186574
0.000148064
0.000187668
0.000149871
0.000147348
0.0823948
0.000149805
0.00014901
0.000164927
0.00015113
0.000148398
0.000153535
0.000148695
0.0417323
0.00015374
0.000151565
0.00014893
0.000184417
0.000160096
0.0432764
0.0415511
0.000149652
0.000195077
0.0438753
0.00014906
0.0265248
0.000153834
0.000160422
0.000148718
0.000153946
0.00016964
0.000165029
0.000160844
0.000164753
0.000149207
0.000145911
0.000162233
0.000146367
0.000148007
0.000148116
0.000148125
0.000166003
0.000338493
0.0403137
0.000158244
0.00015926
0.000177023
0.000154312
0.000152727
0.000150755
0.000159762
0.000181464
0.000303186
0.000158482
0.00785529
0.000150177
0.000191861
0.000162746
0.000451145
0.00016551
0.0779952
0.000148672
0.000224142
0.000155728
0.0640086
0.0240073
0.000152586
0.000178882
0.000151251
0.000150469
0.000148742
0.000150427
0.000174955
0.0156352
0.0455556
0.000161163
0.00018624
0.000300898
0.000253762
0.000361933
0.000153303
0.000149098
0.00014826
0.000196364
0.000151514
0.000146079
0.00020311
0.000159193
0.000180608
0.00256479
0.000164583
0.000168181
0.000155561
0.000151618
0.000203624
0.000233393
0.0455733
0.000240346
0.000130961
0.0694511
0.0772045
0.0631102
0.000149162
0.00018511
0.000148193
0.0144396
0.000151514
0.000147768
0.000160567
0.000157177
0.000300201
0.000149629
0.000149046
0.000189949
0.000149104
0.000151469
0.000165175
0.0138638
0.000163202
0.000169989
0.000157039
0.000152826
0.0546431
0.000155712
0.00015582
0.000184945
0.000164138
0.000159747
0.000153498
0.000150608
0.000205841
0.0482691
0.0242038
0.0562886
0.000151539
0.0381903
0.0001473
0.000163826
0.00014973
0.000149117
0.000159429
0.00014951
0.000163935
0.028253
0.000150199
0.000157966
0.000156239
0.0135609
0.000152573
0.000147731
0.000181748
0.0454163
0.0815433
0.000189797
0.0665011
0.00020588
0.000148603
0.0238237
0.000155259
0.000155658
0.00016856
0.00015541
0.000149913
0.0140483
0.000186375
0.000281716
0.000153516
0.000148209
0.000205365
0.000165776
0.000165175
0.00015316
0.000158192
0.000180445
0.0814999
0.00016393
0.000176457
0.000159212
0.000166494
0.0726805
0.000148623
0.000248967
0.000149743
0.0429054
0.000149316
0.000151021
0.0189701
0.000177445
0.0478945
0.000196563
0.000151916
0.000236436
0.000191083
0.000234518
0.0265775
0.000181864
0.000154285
0.000178485
0.0742466
0.000167185
0.0768525
0.000158593
0.000150328
0.000255473
0.0753507
0.000163767
0.00640818
0.000183401
0.000193096
0.000156631
0.000165676
0.000273399
0.000158146
0.000179643
0.0713746
0.000153543
0.00897196
0.000169629
0.000149663
0.000165916
0.00015259
0.000158225
0.0696899
0.000183908
0.000346113
0.0384266
0.000148221
0.0658904
0.000150255
0.00017323
0.000190618
0.000149276
0.000185457
0.000171082
0.0852213
0.000149988
0.000230118
0.0160455
0.000155857
0.000146024
0.000165305
0.0474555
0.000151859
0.000179756
0.00015965
0.000155643
0.000149164
0.00789498
0.000164522
0.000182465
0.000153015
0.00014821
0.000154577
0.00594098
0.000302249
0.000222583