/*--------------------------------*- C++ -*----------------------------------*\
| =========                 |                                                 |
| \\      /  F ield         | OpenFOAM: The Open Source CFD Toolbox           |
|  \\    /   O peration     | Version:  v2012                                 |
|   \\  /    A nd           | Website:  www.openfoam.com                      |
|    \\/     M anipulation  |                                                 |
\*---------------------------------------------------------------------------*/
FoamFile
{
    version     2.0;
    format      ascii;
    class       volScalarField;
    location    "400";
    object      omega_0;
}
// * * * * * * * * * * * * * * * * * * * * * * * * * * * * * * * * * * * * * //

dimensions      [0 0 -1 0 0 0 0];


internalField   nonuniform List<scalar> 
14033
(
0.0214871
1.43573
0.0218673
0.0316593
0.0883053
0.0295296
0.030713
5.99543
0.022229
0.021771
0.651524
5.31799
9.32019
0.0218358
0.0250761
0.0217687
0.0217301
0.214792
7.19496
0.0222733
0.0260777
3.26731
3.25226
0.0320383
3.07477
0.0279672
0.109739
0.0218983
5.31727
4.34687
0.0214161
0.0219338
0.0245496
9.19805
0.0222566
0.0222007
0.0286853
0.0222632
0.0245969
0.02541
0.0479885
0.0238102
4.43464
4.93775
0.0220543
3.01676
0.0257286
0.0239999
0.10245
4.96333
0.0967998
0.0978621
3.12386
2.92937
0.0659953
0.0257717
3.07142
0.0219008
0.0355761
0.0220943
0.108842
0.0222485
2.11685
0.0224934
0.0272556
0.287753
4.18742
0.206348
0.0219549
0.0222516
0.0339427
0.0220879
3.39655
3.78995
4.09027
0.0221593
0.0862101
0.0221169
0.0220276
0.113815
0.0717291
3.06456
5.91225
3.65518
0.0221636
0.0222409
0.0253259
0.0217284
0.070249
6.55465
0.02366
0.0223628
0.0407453
20.8744
5.01559
0.0529514
0.027088
0.447741
4.43597
0.022142
0.0611902
4.39727
0.0223178
0.0218776
5.55361
4.9808
0.0468952
0.410435
0.0729955
3.80324
0.0218091
0.021947
0.0221448
2.93025
0.0221495
3.52274
4.46973
0.0222639
0.0970326
2.79414
0.0228637
1.46583
0.0240806
0.0219524
3.99731
0.0319155
3.74372
0.189318
0.0218312
0.06245
3.67983
0.0997247
0.111684
4.56058
0.310713
0.0218285
6.44255
2.90817
0.0412805
0.190654
0.812204
3.16339
0.0453414
0.324172
0.0220309
0.0225204
2.87654
0.165908
0.0214517
0.0364386
0.0222461
0.0980443
0.0250773
3.19215
0.318318
0.0221016
4.44573
0.0219717
0.0243572
4.01342
4.58604
0.259999
0.0238461
0.0321099
3.10363
0.0235506
4.03153
0.0431262
6.02894
0.0220743
0.342966
0.0224678
0.0364595
0.0521149
0.0456371
0.109355
0.0222244
0.0217518
0.0218294
4.73906
4.50841
0.188514
0.0220403
2.70365
0.0222733
0.0237897
0.0222123
0.0220925
2.88617
0.0607029
0.0377754
0.0227931
2.99636
0.0223003
0.0244166
0.0394466
0.0221334
8.07245
1.14832
0.0220575
3.49896
0.0222138
0.159872
0.0222862
3.29481
4.39392
0.0221308
0.0224155
3.26016
3.77033
0.0441081
0.0220457
0.238719
0.0220715
0.0243788
0.0221434
0.0355435
2.55593
0.274743
0.0256966
6.67944
3.13314
0.0221376
0.0260272
0.0222434
2.21859
12.3346
0.025746
7.07185
0.022272
0.0220424
0.0227377
0.838116
3.652
0.0235465
0.0216647
2.78522
0.0219793
0.0223537
0.0327572
0.0218933
0.139583
0.0568747
4.893
0.0225927
3.98145
0.0220423
3.24411
0.200617
0.0247228
0.284812
4.13229
0.0218047
0.0348505
0.0252209
0.234308
0.0219991
0.204207
0.022081
5.53023
0.0220977
4.08058
0.0222245
0.0220782
0.0219495
0.022038
0.0582288
0.129485
0.0224147
0.0512467
0.0226093
0.0220587
0.284478
0.172113
0.71427
0.0217884
0.0218018
0.0218451
2.85003
0.0366555
0.0222642
0.0220678
2.83173
3.15899
0.0217655
2.82622
0.0335298
0.0314937
0.0224048
0.0265263
0.0222709
0.0944624
0.0217845
3.72707
0.0300697
0.0564016
0.163631
0.0392568
7.66135
4.51772
0.058284
2.85073
0.0443097
0.0239924
2.86958
0.0218157
0.0258562
0.0624355
0.063657
0.0217969
0.107951
0.250308
0.0218476
3.44049
3.02052
9.708
0.0613227
0.0222708
4.14744
0.024401
0.0222846
0.052441
0.0224278
0.0219485
0.0240108
0.0266117
0.0483574
0.0216918
0.0218707
3.48388
3.54599
0.0223841
0.0219153
3.10819
0.0230568
0.0218827
0.021995
0.0232959
3.77461
0.0218826
3.31742
4.88254
0.0242126
2.94756
0.026531
0.02876
0.0449793
0.0280645
10.565
0.0217979
2.99214
0.117879
0.0220248
0.0492626
0.0224608
0.0249537
0.0220582
0.266461
3.21983
4.77716
0.0220532
6.0616
0.0236229
0.381029
0.0222142
0.022126
0.0468891
0.0222622
2.92261
8.07575
0.688572
0.0220696
0.0242542
0.0267056
0.0219523
3.96936
0.0888328
0.0222042
2.94756
0.0497498
0.022127
0.021973
0.0245209
0.0228228
2.89229
5.57369
0.228644
0.147835
0.0219858
0.443168
2.89327
0.0253734
3.89653
0.0218577
0.0322322
0.37852
3.09716
0.160605
22.4195
0.0222021
0.0216787
7.05779
0.0221817
3.76134
0.6701
1.08654
0.0220931
0.045527
3.19511
21.5002
0.022073
0.0629767
0.0236627
0.335935
0.0222724
5.39806
3.31658
0.0225696
0.0234985
0.30536
0.0258056
0.0221295
6.8707
7.23741
0.0222046
2.80351
5.0266
4.54111
0.0236241
0.0217387
0.0220601
0.021797
35.1995
0.0253408
0.0219262
4.18189
3.80685
0.102726
0.224975
0.0225053
3.19934
0.602592
0.022181
3.00366
0.0387643
2.98999
0.459936
3.86827
0.022255
2.23273
0.0221329
3.23583
0.0307495
5.188
3.7655
0.0222522
3.69276
0.0221951
0.708363
4.29128
8.47255
5.31856
0.0511595
2.76578
2.89917
0.247473
0.0222818
2.76021
0.619863
0.112931
0.0216726
0.752078
0.0242482
0.0226404
11.846
0.142272
0.0250195
0.0386837
4.45557
3.85504
5.21779
0.0545161
3.60937
3.06095
0.0231408
3.82894
0.0218027
0.0216634
0.157681
0.021711
0.294023
14.533
0.022255
0.0221095
0.0297156
0.54979
0.0220581
0.0549799
0.0218105
0.0220072
0.0218983
0.0217089
0.0875237
0.0219395
0.424866
0.0998419
0.0307517
0.0216781
3.22107
3.26921
2.82057
0.0217136
0.0735589
0.0729921
0.0216056
0.0220887
0.0221912
3.88405
0.298504
5.73365
0.0225741
0.0362743
6.72344
0.025873
0.0348256
1.06867
0.021938
1.18754
3.63465
0.0244535
0.0547587
0.177576
5.04487
0.0219059
0.0507071
0.348249
0.0833816
0.0233794
2.71879
3.8697
0.0263553
0.0222445
0.0570961
5.22817
3.62491
3.51131
0.02176
0.0303649
3.31572
0.0243449
0.0221746
0.0691355
0.0220486
0.030368
5.02927
0.188705
0.295007
0.0221656
4.7443
0.0379907
0.0242145
0.0216796
0.0220655
4.52513
0.222513
0.0748507
0.02321
0.363035
0.0222739
3.26247
0.0338438
3.30487
2.77614
0.0222613
4.0014
3.9734
0.0221155
8.97446
4.80048
0.0216778
3.27905
0.0275247
3.16993
0.023461
0.0223034
3.12081
0.0653023
0.0221372
0.117053
3.28403
1.82295
0.0222661
0.0220568
0.128185
0.0695694
2.98804
0.0222365
0.129005
0.188082
0.117549
0.206936
0.0222524
3.48912
7.84936
0.0318556
3.94195
0.0220887
0.0751882
0.029807
0.121432
0.0218044
3.73793
0.0228377
0.0332881
0.022222
0.0220503
0.0221582
0.0298427
3.49162
0.0301196
0.0235695
0.320997
4.28986
3.41541
7.19085
4.92388
0.0236962
3.59881
3.87048
2.8324
0.038566
7.24234
0.0219779
0.0370368
0.0219032
3.29564
0.0313269
3.46978
0.0218965
0.384525
5.09875
6.0641
0.022067
4.24643
0.0218962
0.0220914
0.0239657
0.0222646
0.0232531
0.0220739
0.0218063
0.0222539
0.0231308
6.64267
0.206478
0.0223745
0.202259
2.93562
0.432198
0.0217787
0.0989473
0.0327396
0.0391374
3.19019
0.486075
0.0222698
0.0220366
0.022089
0.18522
0.0219547
4.5689
0.0220605
0.0230971
0.0357807
0.0718625
0.0219758
0.022076
2.87096
4.09995
3.12376
2.87667
20.0295
0.0238218
0.0233259
0.0219548
6.6979
0.022218
0.0253491
0.0227617
0.395353
0.0216905
3.9961
0.190073
0.0219657
0.0976789
0.0220285
0.0218093
5.91927
4.12556
0.0223379
0.0359753
0.0230357
0.0635293
0.0220239
0.193956
0.0219447
0.0901387
0.309267
0.0570187
0.0229776
3.66487
0.0221111
4.59663
0.0551264
0.0406384
0.0295674
0.114647
3.47942
0.0327344
0.108395
0.0701734
0.112473
7.45292
0.0269304
10.8338
0.0220494
15.3886
0.0217811
0.0297127
4.11712
2.78131
0.293637
0.0766741
0.021857
0.0220435
0.0220329
3.80335
0.0228014
5.93162
4.27002
0.0220713
0.199116
0.0282373
0.467684
0.0231543
0.0318229
3.81792
0.0260611
4.96907
0.0224294
0.0216918
0.0222588
0.063967
0.0389398
0.132072
0.0250863
0.0217566
0.0220864
3.17816
4.66487
0.0685088
4.48708
0.0217208
0.0220331
0.0219335
0.0220691
13.8369
0.0381119
5.62172
11.6882
0.0222216
3.55857
6.27259
0.0478471
0.177108
0.0319884
0.492878
4.33912
4.18411
3.43246
0.0220759
3.05061
3.01188
0.0220268
3.73938
0.485184
0.0396871
0.0266786
4.24435
3.10192
0.0687546
0.0553877
3.87403
3.59396
2.87447
0.0227253
0.0617656
2.92672
0.0220524
0.022685
4.25169
0.021787
0.0222615
0.205721
4.01728
0.0326407
0.0221428
0.0222816
3.89012
3.71574
3.7116
0.0848664
3.16107
0.180762
2.8174
0.0220909
0.63622
0.0227288
0.0218182
0.0218925
0.0218127
0.0220345
0.0220239
0.0220967
0.374465
0.0310859
3.17845
3.16055
0.021944
0.0220826
0.0229388
3.58631
3.65988
3.34399
0.0315423
1.65082
0.110839
1.76877
0.0557709
0.391823
0.0221562
0.0237801
0.0217721
0.0883486
0.0226623
0.0222729
0.0228738
2.98449
0.0222098
0.0243926
0.0219074
0.100293
2.88233
0.0499456
7.62127
4.02703
0.112493
3.67047
0.0220925
0.0217904
0.0231049
3.89124
3.53157
0.100343
3.09396
0.0220506
0.0945981
0.0218345
0.0294201
1.62766
0.0220498
0.126786
0.0218795
0.0221462
0.0220951
0.0443103
0.0532906
0.0226628
0.0221281
0.570461
0.352081
0.0360166
0.0947977
0.0220002
4.42775
0.022058
0.0489952
0.0230073
4.48199
0.0701941
0.0222647
0.0346373
4.30163
0.0220795
0.0269184
2.67917
0.0223095
5.19474
2.89269
0.022171
0.0654517
0.0285269
1.13311
0.0306032
0.392143
3.80354
0.0300309
2.95346
0.0268097
0.0219286
0.0231847
0.0220287
4.23815
8.32179
0.0295604
3.33704
0.0220794
18.5348
0.0522314
0.0219829
0.0257836
0.0241748
5.26527
0.0452836
0.100811
3.88098
0.0222458
0.0472468
6.04986
0.0221232
0.0637865
0.022228
2.84035
3.41682
0.115502
3.95087
0.0282356
0.0226767
0.209946
0.0222715
0.02168
3.08818
4.85558
0.0222543
0.0221199
0.0931021
0.0219387
0.0271351
0.0232703
3.84624
0.15243
0.021945
0.0387411
7.38854
1.93173
0.0218138
0.0221934
0.0239036
6.30501
0.0290067
0.290743
0.0220528
0.0220624
2.70437
0.264132
0.0589301
0.0277889
0.0219838
0.194404
15.0781
0.0222328
0.0222269
0.0235613
0.0222533
0.0533
0.349034
0.0221953
0.0219711
0.0287358
0.021864
0.0219654
0.154345
0.0282146
0.042819
0.102622
0.0229069
0.0219885
4.68367
0.533609
1.69282
0.0223875
0.0221162
0.0228187
0.206992
1.45359
4.01235
0.0221192
0.0220339
0.0237694
0.0222211
5.56092
0.0222321
3.07198
3.75467
3.08128
0.0216536
0.39302
9.60228
0.0218199
1.24977
0.02214
0.0221594
4.01424
0.0297117
5.33742
4.43116
0.0266653
3.8457
0.0215179
0.0221089
0.520226
0.0227338
0.252591
0.0222254
0.0230046
0.0315604
0.0284528
0.178051
0.0266633
3.64534
0.0222329
0.0218832
0.0220604
0.0219617
0.0664263
0.112565
2.8772
0.0219831
2.89862
0.0285408
0.0222456
0.0221849
0.0219039
0.021644
1.42574
0.0802513
0.0956096
0.0584853
0.0342018
0.192949
0.217606
0.0652183
3.34307
4.97322
2.90919
5.43975
0.0261118
2.75321
2.99637
0.0220076
0.0221023
0.0219912
3.05777
4.8616
1.77755
2.61554
5.48109
0.0278711
0.122873
5.56221
0.0603802
3.5838
3.93842
4.34143
0.0388177
6.82146
0.0238484
0.0344075
3.7992
0.073811
3.95593
3.25219
3.00813
3.56789
0.125432
0.0442434
3.16238
3.07432
5.24022
0.0218147
0.0574955
0.0633041
5.30732
0.0221727
0.0275637
0.0220069
0.0579241
3.03739
0.385657
0.0217808
3.41504
1.41237
0.0248554
0.101716
28.673
0.0229752
0.336847
4.94063
0.0219075
3.48283
0.0221011
0.023083
0.0225706
2.77734
0.611896
2.98167
0.158488
3.27696
0.460443
3.00277
0.0222577
0.0300373
0.0230032
0.0219934
0.0220981
0.0672464
0.0236789
0.0226779
3.76111
3.85989
0.0226688
0.0220555
0.376613
0.0243446
2.8222
0.0222735
4.07737
0.0243696
2.96156
0.0396635
4.08483
3.38137
0.0218747
0.0449485
3.46275
4.52329
5.70146
2.67627
5.23535
0.0240928
0.0219928
0.0321095
0.0220471
0.0218838
2.88947
0.022188
0.0217605
0.0239968
3.11794
0.0221075
4.47418
0.0519452
0.0289863
3.20329
0.0549759
0.0678745
0.0576103
0.022246
0.04957
0.817324
0.0216308
3.83262
0.0397572
0.0219852
0.022096
4.92844
5.03102
0.0231624
0.0222309
0.0220156
0.0221042
0.117084
0.572482
0.0218727
0.0218712
0.0221645
4.76752
3.59392
0.0330351
0.0229263
0.169691
0.0260962
0.328853
0.113596
0.0475522
0.0424539
26.2276
0.0220759
0.0231061
4.19651
0.0927626
3.33444
2.73184
0.034296
0.0236385
3.15635
3.83879
0.0222126
0.0221559
0.0220231
0.160095
0.113266
0.0222687
0.021884
2.91769
0.052893
3.77906
0.0938192
0.192223
3.7741
0.0220066
0.0702432
2.689
0.0228442
3.89525
2.88251
0.0229154
3.81053
0.0223405
0.0243177
0.0227095
0.0533433
0.0219253
0.0919239
0.021691
0.0218784
4.0254
10.1523
0.0216926
3.87866
0.0222534
2.87911
0.0217525
0.206379
0.0217637
0.295123
0.784448
0.0230731
0.0336474
1.90192
5.55022
2.22016
0.063949
5.74007
0.0223634
0.0221051
0.0329706
0.0276161
3.74755
0.0225777
0.0241634
0.136477
0.0220066
4.27214
0.0247044
3.96044
5.2799
0.112244
0.13221
3.78844
0.0225843
0.022322
3.40397
0.0369722
0.0220605
1.19442
0.0225584
6.02129
0.0235237
3.74967
0.0221609
7.9569
32.0237
24.8191
7.9748
0.0295814
0.0220035
0.0222071
0.026906
0.0220273
3.68561
0.20839
2.82123
0.0227434
2.9919
2.87604
2.89019
0.022019
0.0564805
2.8244
0.0221257
0.0220834
0.0274108
6.10031
0.0546442
2.83792
0.0217696
6.72078
0.022269
0.0222869
0.0221077
0.0435994
5.2999
2.89491
3.34467
3.88136
0.0220032
0.0481319
0.0307011
0.0644269
21.6061
0.19854
0.0218117
0.0220683
0.250301
0.0240598
0.287957
0.0221583
0.098408
0.0222871
2.89514
2.83177
1.55883
0.022303
2.79845
2.7352
3.43835
0.0275829
0.0344544
0.0230501
0.022518
2.84471
0.320159
2.99998
0.0219331
0.0293804
0.0223644
0.089467
16.3238
3.72011
0.0975323
3.19207
0.30317
0.0874444
0.0220975
0.022219
0.0227941
7.01755
0.0220348
0.0219962
0.0231929
0.0427894
4.57146
0.0220132
9.10571
1.71164
0.0220565
0.0221639
0.0222258
0.0219667
0.625397
0.758829
0.0219349
0.080064
0.0315396
0.0221725
0.0252394
4.82066
6.774
0.0483989
0.0238421
0.0546899
0.0248453
5.77364
7.87065
8.99098
0.0578758
3.09113
0.0445138
0.0457199
4.3258
0.0789853
3.08126
0.0225763
4.2579
0.077859
0.097209
0.0220255
0.0236684
5.09255
0.37308
3.14498
0.0457415
0.0247824
0.225595
0.0218984
4.30364
0.0220555
0.0220619
0.0227197
0.0217712
0.0221834
0.0218215
6.30014
3.15946
0.0219379
0.0221556
0.0220956
0.0358714
0.0218225
0.0709507
0.0281249
0.0386424
0.050423
0.0263903
0.102176
4.02071
2.71558
0.0314212
0.0218664
0.0672197
0.0495262
0.0222205
0.0239792
4.93659
6.53839
0.0228244
2.59995
0.447028
0.105838
0.0237704
0.0781475
0.0220288
3.28718
0.0218746
0.0371746
0.0221868
29.4974
0.252114
0.196553
0.0473099
0.0224427
5.18295
0.0222005
0.030187
5.97044
0.0310275
0.0224756
0.29372
0.0223852
0.0237109
4.37194
0.0226192
0.0241373
0.0220595
0.0218052
0.0251672
8.88632
0.29196
0.0453002
3.70885
0.100853
0.207637
5.06193
0.0218913
0.0220934
5.62925
0.0570707
5.38757
0.093368
15.4812
0.0219647
3.57431
5.66295
6.10649
0.0449504
0.0307959
3.40075
2.82134
0.225019
0.0276489
2.77078
4.07002
0.0219481
0.0227274
0.0458215
0.0248553
4.03181
0.0301996
0.0239078
0.0304684
3.69988
0.253767
0.0468613
4.42988
0.206832
0.0227502
0.0223793
0.0225151
0.0547139
0.0304523
0.0399857
0.0225348
4.30336
3.83003
0.0966756
4.21936
7.28353
0.0224835
0.0400432
4.17005
0.0220796
3.11173
0.0252338
0.0279167
5.19863
0.124623
0.0227251
0.0253658
5.85572
0.0219077
0.0226242
0.0269083
1.74915
0.0282525
0.0220736
0.229426
7.07902
7.36012
0.0253657
0.0219626
3.50014
0.022232
0.0218873
0.0270526
0.0219815
1.83213
0.0376758
2.83295
0.0220175
0.0218295
0.022066
0.0221015
0.0267651
0.216841
3.30762
0.369358
0.0219872
0.0220311
0.0220205
3.31028
0.0275547
0.0221543
0.024669
0.0220758
2.98932
0.0568943
7.04413
3.52113
6.55514
2.17267
0.0219185
3.76783
5.48658
3.78474
0.0216282
0.227386
0.022173
0.0335437
0.247918
0.0220645
0.06024
4.0128
0.0226583
0.662242
4.13739
1.14454
11.9273
3.95391
8.46663
0.0525146
11.6892
2.94739
0.0222449
0.0881586
0.0232532
0.0218567
0.0891827
0.0265895
0.0244536
0.0836753
0.0219718
1.55719
0.258745
0.207865
5.76535
7.69523
0.0222254
0.236297
0.0216304
0.0222084
0.0924312
0.0219154
0.034523
0.0279676
3.30927
0.026644
0.645885
19.7572
0.0221564
0.052106
0.0245779
0.0236937
0.3602
0.0341714
0.029415
0.0229753
0.0220876
0.0225257
0.0261845
0.0237812
0.0222534
0.023376
3.19177
0.0227297
3.64891
2.90572
0.0221382
0.0217983
1.19126
0.216639
0.0220605
0.04289
0.0218149
0.0501642
2.87201
3.90016
0.0228754
4.43296
4.45635
0.0309732
5.68692
3.22254
0.0220584
0.0221051
0.022572
0.0260759
0.0236287
3.22556
0.0889345
0.264613
2.99006
0.0218249
0.0226357
3.99447
0.0218689
0.0220717
0.0226473
0.0263745
3.84102
3.35928
0.101039
0.0606033
3.49547
3.26055
3.14282
2.67178
0.0218804
0.02393
0.0468518
0.233384
0.0968779
3.28868
5.21251
0.0256876
0.0220869
0.0221604
0.0216841
0.7858
0.0222642
0.0219747
2.09625
7.14266
0.332202
0.0220369
5.24318
0.0345
1.86966
0.0220731
0.0953232
0.0220636
0.0234844
0.0233769
8.50259
2.832
0.0327223
4.9861
0.0220569
0.022079
0.0222672
0.0266962
3.06894
0.02192
0.027772
5.69395
0.0217799
0.0385519
0.0221566
3.10131
0.0223048
0.280361
0.0221087
0.273031
0.102679
0.0333247
0.0232119
0.761855
0.022752
0.0321167
0.470958
0.145673
0.0222668
0.0222008
0.0217616
0.0222351
7.41461
0.185133
3.03099
2.98219
0.0215919
1.64405
0.115649
3.49237
5.33014
0.0225182
0.0220304
0.16057
0.0221095
0.0227867
11.989
5.3713
3.9709
3.07602
0.0221464
3.73787
3.0132
5.64717
0.0234777
3.15675
0.0979196
0.0222717
0.779348
3.37252
3.97434
1.69327
0.0226018
3.37039
0.0220646
0.459285
0.0243907
0.0217957
0.0218788
0.171943
4.96559
0.0772286
0.355813
3.40526
3.41965
0.023727
0.0219489
4.29705
3.93446
0.0222668
0.0221196
0.207658
3.03901
6.98213
0.0291553
0.0285845
11.9479
2.76803
0.28106
0.089202
0.0220106
3.30272
4.43723
6.50517
0.0422089
0.0221478
0.0228639
0.0400665
0.153284
0.0219175
0.216152
3.25934
3.11557
0.0440761
0.0219884
3.0841
0.0220478
3.09271
3.63494
16.1658
0.0225308
0.229382
0.0244285
3.2386
1.63859
0.0222352
0.0231817
0.0221075
2.06585
0.0222736
0.0232536
0.0230967
0.0504199
0.496522
0.204156
3.23008
0.240165
3.26835
0.0904422
3.11692
0.0458978
0.0409615
0.0221026
2.79545
0.0402902
0.0231024
0.0221775
0.0220265
0.0485494
0.0221386
0.0221822
0.0238852
0.021905
2.86737
0.0312728
3.50591
0.0482329
0.0912045
0.0218681
0.0311376
3.3635
0.198403
0.0951277
0.0224573
3.61103
0.0221244
0.0409682
0.0548654
0.029128
0.0413303
0.0217516
3.41274
0.121799
0.0785323
0.0222742
0.0237045
3.51024
0.0224446
3.76136
0.198017
0.0233702
0.0222436
3.00778
0.181739
0.743334
3.4028
0.0686568
3.22957
0.0219271
0.0220151
0.0885124
0.118766
0.0792714
0.142846
1.5897
7.56759
3.53759
0.23961
4.7232
0.0242427
0.0230646
0.023704
3.11246
0.145358
3.49335
3.31601
5.18354
0.0222838
2.89465
0.0306596
0.0277711
0.0376746
0.0824164
2.51416
0.0221145
0.0229756
0.767717
3.20009
0.0975101
6.41233
0.0219932
0.0237692
0.0220578
5.24704
0.0997986
3.23039
0.0239489
0.199558
0.0226425
0.0243427
5.22701
0.0218977
0.084014
0.0975911
3.28982
3.34737
3.44845
3.88854
4.4075
0.146965
3.24016
5.87788
0.0222663
0.418342
4.28006
0.0361988
13.9351
0.27778
3.99766
0.0233661
0.441845
0.131858
0.0327294
0.0225215
2.87215
0.238451
0.0216652
11.2399
6.23723
0.0220338
0.0416022
3.30945
2.81808
0.0256606
2.84152
0.0277992
0.197879
0.143577
0.0285963
3.94933
4.65077
0.0227083
0.168746
11.8254
0.0793888
0.159917
5.39323
4.66383
0.0231609
0.0221179
2.9711
3.153
0.0221556
2.60293
0.0415937
0.467151
0.0775121
2.79804
0.0221498
0.0913511
0.0403642
0.0850952
0.0218851
3.70955
2.91639
0.605188
0.0836293
0.0220859
0.029852
0.0235478
0.444086
0.0227941
0.510458
3.26133
3.88616
0.0231515
3.20936
0.0647482
0.0525445
2.83427
0.0459271
0.0237835
0.22906
0.022239
0.119904
0.022061
3.38836
0.351157
0.0263534
0.0264734
2.64222
5.39425
0.0235961
0.0402713
0.143887
6.35052
0.0872359
0.0221791
0.0220995
0.0305996
3.86307
0.0221488
0.31575
3.66244
0.0218634
3.84895
0.0734339
0.02501
0.0771012
3.13621
0.199485
3.29084
7.25543
3.96797
0.0274445
3.05909
0.484192
0.0232119
0.0784833
0.0920918
3.12705
0.0224328
4.96813
0.0229326
6.49
0.0283821
2.80551
4.42739
0.101656
0.0478307
0.0840572
0.024096
0.0220488
0.0218606
0.0218635
0.0465722
0.022127
3.67255
11.1432
0.044943
2.86473
2.83582
2.66116
4.30859
0.0331793
3.68694
0.0220465
10.0283
0.0527955
3.7287
1.47435
2.68274
0.0221012
0.0254804
0.0264239
0.0278919
0.0220478
2.71353
0.0230125
2.85434
3.2136
0.0304526
0.0220133
0.219463
0.0224811
0.0223858
0.0238333
0.0803653
0.222398
3.93165
2.90884
0.0230225
0.0231138
2.73111
0.0247715
3.11999
0.0217238
0.200367
2.70858
2.80883
25.9253
0.0704406
2.01799
0.0222745
0.0232221
4.14097
4.26886
0.0233589
0.0710045
3.53869
4.39532
0.112315
3.67265
0.0220522
0.0220298
0.0255621
3.34384
0.0222776
0.02498
0.0230591
0.0219967
0.042742
0.0220902
0.164004
0.0220617
0.0220181
0.0219757
1.03629
0.292435
0.072801
0.065746
0.0901799
0.0220131
0.219126
0.242343
0.0224486
4.95904
0.0218923
22.7033
0.0219493
1.51248
2.98591
0.0222226
0.238829
3.70633
0.0905249
0.117891
0.0417125
0.0219262
4.2665
0.0232809
2.62691
0.0351524
3.25407
0.0222313
0.0411828
0.0229962
0.0347103
3.76514
0.0220711
0.167861
4.37151
3.30542
2.89031
0.0219613
3.35075
0.0268544
2.98205
0.0891538
0.169762
0.0233978
0.0219733
3.07306
3.38055
0.0219645
2.77403
0.0221871
0.511086
0.0237622
2.76193
7.87337
3.43554
0.361098
0.0280195
0.0220622
0.0227874
2.99465
0.0529527
0.0224092
0.0224854
0.10509
0.843607
3.42278
0.284155
3.71076
3.13416
0.162787
1.07382
0.168363
3.22018
2.81271
0.0220614
5.49198
3.54386
0.705073
0.145963
0.0327116
0.105464
5.18963
0.0219686
2.01864
0.0885193
0.0219355
0.021829
2.35266
1.73557
0.0463471
0.0995851
0.0855368
3.16171
3.04044
0.0221507
3.90638
3.03852
0.0221203
0.223479
3.00833
0.380128
0.022657
0.0298916
0.137793
18.6287
3.72751
0.029814
0.0229547
0.0217035
0.0224225
0.0222978
0.0983104
3.18644
0.133393
4.31968
0.0700606
2.81984
0.0221018
0.0220265
0.63178
0.0695348
0.0225187
0.030878
0.0252481
0.0862083
0.0366704
0.021932
2.69443
0.0760296
5.35792
0.247767
0.0269981
3.07241
0.0337231
0.0807374
0.0220974
0.0991701
0.205474
0.148645
0.0219922
0.593493
0.0221653
0.0244601
2.88311
25.3063
1.75831
4.00482
0.040045
0.02218
0.58937
0.026977
0.471953
0.0220321
0.0221557
1.73106
0.150757
10.2934
0.928338
0.0590849
0.130029
0.0233589
0.0381474
0.0218002
0.0365106
0.0289964
0.0277842
3.40644
0.0325037
3.36004
0.641008
23.8497
11.715
0.0467162
0.0470622
19.2426
0.0794398
0.0235929
0.0221471
4.97203
0.0220165
3.01938
1.76722
0.0352622
0.0519685
0.0221594
1.16656
0.359179
0.0218623
0.349704
0.0222982
0.0218253
4.26575
0.0222727
0.0220963
0.0604533
0.0228675
0.0220251
0.02304
0.02206
2.92012
0.0233279
0.0232376
0.0220797
0.285517
0.0344565
2.86397
2.90357
0.0222516
0.0920746
2.86638
0.0221629
5.09263
0.0236256
0.0362248
0.0220186
0.0242778
0.0407163
0.0316876
0.0277763
0.0467361
0.0219054
0.0216465
0.0285916
0.0217056
0.0220104
0.022023
0.0217437
0.0694002
2.03569
2.93214
0.0279122
0.0322846
0.0603956
0.0254746
0.0238097
0.0226269
0.0283643
0.246218
2.02293
0.0273823
6.872
0.0220975
0.429618
0.0333141
2.6279
0.0372452
3.88676
0.0220958
0.276388
0.0258984
5.50902
3.23298
0.0238806
0.0514765
0.0228032
0.0225099
0.0220528
0.0222974
0.0611745
8.03664
2.86721
0.0309117
0.353717
2.07677
1.61383
2.54991
0.02293
0.022163
0.021869
0.209036
0.0228316
0.0216803
0.186117
0.0278012
0.054987
8.19241
0.0319314
0.078801
0.0240154
0.0226102
0.118927
1.0646
2.87462
0.728238
0.464571
7.5752
8.25792
2.99647
0.0221178
0.0760722
0.0220353
8.30384
0.0226396
0.0219013
0.0335357
0.0284251
1.76352
0.0219533
0.0220947
0.375683
0.0221611
0.022527
0.0381525
5.00577
0.0304067
0.0359752
0.0294596
0.0230197
5.1796
0.0240888
0.0260113
0.0653658
0.0429648
0.0299538
0.0232491
0.0225945
0.189566
3.31898
14.3729
10.8917
0.0225557
2.96041
0.0218803
0.0461865
0.0222201
0.0220766
0.0344613
0.0221584
0.0427357
3.1881
0.0222494
0.0276602
0.0242226
4.8765
0.0240144
0.0217648
0.0644118
2.60797
4.41074
0.366983
3.2005
0.273105
0.0220604
5.03672
0.026233
0.0265006
0.0346153
0.02573
0.0222867
8.19216
0.337643
1.54518
0.0246242
0.0218794
0.576233
0.0333926
0.0540627
0.023136
0.0252943
0.0669964
7.24297
0.0470601
0.0582688
0.0336313
0.0406456
3.50071
0.0221015
0.646224
0.0222626
2.82936
0.0219053
0.0228009
6.79556
0.158954
19.8693
0.233631
0.0225816
0.227224
0.425908
0.996692
17.093
0.0580715
0.0255668
0.207529
3.65759
0.0375341
8.485
0.0252356
0.0223466
1.29023
4.47675
0.041407
9.08373
0.0710431
0.414101
0.0259445
0.666858
0.463454
0.0289719
0.217774
4.17255
0.0229303
14.7765
0.0359607
0.0220872
0.0412307
0.0239548
0.0256838
3.90994
0.280088
2.42991
4.13091
0.022043
3.39328
0.0222635
0.0567447
0.180211
0.0221174
0.0728289
0.0757709
4.87055
0.0219732
0.210139
4.39445
0.0253322
0.0215966
0.0307111
5.17009
0.0230966
0.189476
0.0356903
0.0270773
0.0220958
4.92491
0.0433508
0.22041
0.02375
0.0217757
0.0259267
9.80588
2.58245
0.222444
0.133071
18.1129
0.0237645
5.16102
0.0221376
0.0220321
0.0252151
0.218626
0.0221712
3.9355
4.11661
6.99587
0.0399514
0.0221004
0.0216026
2.7084
0.0219421
3.24412
3.42541
0.0221796
0.0237422
0.0931042
0.0260844
0.292298
0.173228
3.40876
0.27734
0.203554
0.834347
0.232572
2.59311
0.0283478
0.0222873
0.0226184
0.0227008
0.0221622
0.0228273
3.51266
0.0219946
2.88126
0.0747604
0.0220852
3.34103
0.0494389
0.250612
0.0226668
0.195367
0.0494705
0.259782
5.58845
0.0896475
0.0526843
0.023277
21.5559
0.0220655
0.0284505
5.54881
0.0233489
0.0222197
0.0220829
0.0222064
0.37065
0.0222024
0.0219142
2.92538
0.0573141
0.0227387
0.0509018
0.0226478
0.0244222
0.0221748
0.0260096
0.024853
0.0240131
0.0223005
0.502496
0.482021
0.0232857
0.176214
0.0262638
0.0237515
3.59087
5.59462
0.0221723
0.0224784
0.0222265
0.0218061
0.0229918
0.0487171
0.0473322
0.0235605
0.0301152
0.0222004
0.127647
3.89719
0.0226029
0.0458873
0.0355363
4.18192
0.0221668
0.0409485
2.93466
0.0754422
0.0385619
0.0239481
5.32164
3.651
0.0231225
0.0231605
0.023189
0.0453461
0.0237619
0.17987
0.0231052
0.0261359
0.0721911
0.0938789
13.2263
0.600897
0.0238576
0.0492708
0.0223241
0.022265
0.0228023
2.60567
0.0744107
0.0220269
4.88163
3.35075
0.0251217
0.0247454
4.26967
0.227744
0.042776
0.0220289
0.126239
16.231
0.021874
0.0226432
0.0220601
0.0230269
3.95234
0.0231794
0.0526872
0.0278425
0.0411968
0.0222771
2.70401
0.0222672
0.0540569
0.0230233
0.022012
0.0637402
0.0227234
0.022196
3.89709
7.06618
0.0866849
0.0909197
0.0226897
0.0254938
0.0222469
3.09502
3.5948
0.0222727
0.0464635
5.34096
0.0217315
0.230837
17.7392
0.840604
0.0220959
0.0256631
0.0863468
0.0845327
0.0257667
7.42642
0.0451031
0.022737
0.0388077
0.0226976
4.30483
2.97891
0.0219949
0.105716
5.40629
0.0222436
3.26745
0.0269585
0.341976
0.0221024
0.025891
20.9621
10.9898
5.62646
0.03486
0.0219426
0.0220623
0.0279275
0.0363281
0.189084
4.76934
0.0219913
0.0218012
0.0236002
0.0384645
0.193523
0.032676
0.0526154
3.33018
0.172523
0.0315922
0.146077
0.0221917
0.0760849
0.985387
0.0219489
0.0575133
0.0613218
0.022068
0.0316676
0.14564
12.7805
0.0235113
0.0267833
0.0215766
5.41692
2.97199
13.6052
0.0237229
0.296847
0.02205
0.0218674
2.97729
0.0226818
0.0218842
0.0218534
0.0790051
5.01753
4.49974
0.0220866
0.288041
3.29538
0.0221266
0.0219874
0.0937995
0.0228112
6.93157
0.225706
0.0238945
0.0372987
0.0222226
4.06106
0.0506165
3.90766
0.0234838
0.0219493
3.7757
0.0410172
6.11339
10.6168
0.0553074
0.0366889
0.107448
0.311632
3.33886
0.0549145
0.0308846
0.0683036
4.81821
4.34009
0.0291501
0.932454
9.9615
0.0219393
0.0217436
0.0255403
0.0312066
3.90715
0.0748946
0.0221599
8.36473
0.0244336
4.17091
0.178026
0.022075
0.0268051
3.42565
6.51647
3.12477
0.0390974
0.0234604
0.0220974
0.28521
3.60369
0.0426503
0.0222933
0.0851177
0.297005
0.0227044
0.0220815
0.0222937
0.0261551
0.0225521
0.0667357
8.28249
0.0220109
0.0240836
0.0217563
0.0391829
11.0814
0.0220963
3.89344
0.0902151
0.0223052
0.0238728
9.48197
0.071706
0.042032
0.0227156
0.123368
0.0225878
0.0412488
3.1383
0.0222858
0.0659513
0.022286
8.95653
0.0233001
0.0401283
19.3268
0.0399345
0.0315431
0.965659
7.93147
0.0238068
0.0523367
0.0238125
0.0219196
3.79303
0.0224374
0.261004
8.8441
1.63637
0.0222673
0.0234963
9.52529
3.269
3.72226
0.0403301
0.216247
0.0220025
0.0217126
0.0225633
0.0260416
0.0299285
0.022112
0.0444225
0.274629
0.0221022
0.0469608
0.176864
0.0221047
0.0404996
3.15222
0.0231088
3.31782
0.310379
0.0558582
0.0452759
0.024415
0.0230265
3.38407
10.7731
0.0216298
4.5318
0.0251388
0.0229096
3.85266
0.039616
0.0272164
0.196338
0.0216565
0.0230822
0.0220191
11.4693
0.0220002
0.0220876
2.88065
0.022246
4.72244
3.11442
3.87435
0.0219957
0.0268949
2.50486
0.026446
2.9148
4.69798
3.92514
0.0217108
0.0803472
0.035526
5.10055
0.0223265
3.33456
0.0219014
1.75893
0.104542
0.869944
5.75845
0.0231735
0.0275343
3.7954
7.57927
0.0216033
0.0222749
3.32902
0.0223901
0.0295074
3.1694
3.42885
3.38182
0.285511
0.022388
0.0880815
0.0876079
4.44759
0.0358935
6.66493
0.0219939
0.0260203
0.0281292
1.83481
0.127518
0.0230366
2.96202
0.0222839
0.0284262
3.26239
0.0558842
0.0966933
5.30322
0.0224744
0.0505762
0.0222865
0.0223423
0.0218936
3.61216
0.222371
0.0250384
2.73506
4.77904
0.101264
0.022205
0.0224655
0.0219082
3.19502
0.186716
3.60334
0.021611
0.032018
0.126094
0.0248046
0.0687769
3.04712
3.4212
0.152796
3.61478
6.32157
0.0447856
0.0293278
0.0276293
0.0225213
0.0224421
0.022273
3.11923
0.0271202
0.0222645
0.578736
0.185588
6.58196
0.0254027
6.63214
0.0219535
3.21858
0.0227912
3.35404
4.87139
0.0237594
0.338969
11.4184
0.0220633
0.168591
3.50216
0.0217723
0.0880378
0.0227208
3.17221
0.0860649
0.301481
0.0222533
0.0533045
0.0510856
3.25162
0.100391
0.022024
0.0674661
0.0509858
0.0226219
2.90281
0.0633684
0.0233407
3.91175
0.0620858
0.0261289
0.0572854
0.0803851
2.39339
0.0257169
0.0287174
0.877709
2.75146
0.102692
1.61589
0.248192
0.0274302
4.25665
0.0469734
0.0218564
0.0270483
6.06099
3.12332
0.0255003
3.30035
0.0475108
0.0726751
3.72635
3.31953
0.0223307
0.0222952
0.0526256
0.0220048
0.101579
0.209418
3.23458
0.0354606
2.8543
0.0220646
3.88581
3.92555
0.0220394
3.07687
0.0219544
9.15064
0.0246853
0.0227377
1.2037
0.0291916
0.0226717
3.50342
0.0739208
0.0237752
5.49179
3.89673
0.288797
0.17927
0.0233754
0.0746064
9.91297
0.0215568
0.0223466
3.85767
3.31811
3.40693
0.0469587
0.0385121
0.0229451
4.43014
0.0224116
0.0252235
3.44819
2.93152
3.92457
3.78261
0.0228552
0.0488801
3.67992
0.0600431
0.0220711
0.0260764
3.03857
0.0241752
0.0406969
9.25051
0.0405728
3.31203
0.0221726
0.0774743
3.67575
0.0438119
0.129128
0.0247175
0.0274895
0.0822982
0.0435781
0.0916229
0.152967
0.0421009
3.00995
0.0219534
0.0424658