/*--------------------------------*- C++ -*----------------------------------*\
| =========                 |                                                 |
| \\      /  F ield         | OpenFOAM: The Open Source CFD Toolbox           |
|  \\    /   O peration     | Version:  v2012                                 |
|   \\  /    A nd           | Website:  www.openfoam.com                      |
|    \\/     M anipulation  |                                                 |
\*---------------------------------------------------------------------------*/
FoamFile
{
    version     2.0;
    format      ascii;
    class       volVectorField;
    location    "400";
    object      U_0;
}
// * * * * * * * * * * * * * * * * * * * * * * * * * * * * * * * * * * * * * //

dimensions      [0 1 -1 0 0 0 0];


internalField   nonuniform List<vector> 
14033
(
(1.02679 9.51977e-05 9.96244e-21)
(0.628575 -0.650488 -3.09539e-20)
(1.01429 -0.00146166 3.58925e-21)
(1.03711 -0.151478 1.63846e-20)
(1.00036 -0.322623 -9.22045e-21)
(0.871335 -0.0452692 -3.82212e-20)
(1.12301 -0.0540177 0)
(-0.261568 -0.0130356 -1.53243e-19)
(1.00314 -0.0501479 0)
(1.03272 -0.00945344 -2.51687e-21)
(1.24527 0.0521549 1.01554e-19)
(-0.158333 0.00173915 -4.87622e-21)
(0.374462 -0.078928 -7.59204e-20)
(1.01903 -0.010276 -9.58283e-21)
(1.03855 -0.107381 8.99344e-23)
(1.03182 -0.0100443 3.10503e-22)
(1.02222 -0.00430605 -1.64814e-20)
(1.27454 -0.107025 -3.19272e-20)
(-0.0650792 -0.0260166 6.57188e-20)
(1.00005 -0.00153428 0)
(1.08491 0.0143956 0)
(-0.139226 -0.0217794 1.95986e-19)
(0.129529 0.0497732 3.80644e-20)
(1.06233 -0.1466 0)
(-0.138857 -0.0113463 0)
(1.10619 -0.0532863 1.48777e-20)
(1.15823 0.0698314 6.29549e-20)
(1.02249 -0.0213459 -6.27274e-21)
(-0.0326654 0.00553425 4.355e-20)
(0.5014 0.0776594 1.17978e-19)
(1.02683 2.69055e-05 1.01583e-20)
(1.01084 -0.0108296 0)
(1.05928 -0.0806957 -5.02158e-22)
(-0.0121513 -0.0357503 6.40927e-20)
(1.05575 -0.00817139 0)
(1.00549 -0.0478754 -3.07518e-22)
(1.10828 -0.0580745 0)
(1.00008 -0.0024878 -6.23739e-23)
(1.08406 -0.038207 -8.23585e-21)
(1.07476 -0.0675608 0)
(1.13869 -0.137552 0)
(0.940024 -0.0386546 -3.58874e-20)
(-0.220543 -0.00245451 0)
(-0.00368941 -0.0298598 0)
(0.996586 -0.0314674 4.25098e-21)
(-0.166416 -0.0108373 0)
(1.08303 0.0128432 1.80077e-20)
(0.936394 -0.0353459 3.37599e-20)
(1.14518 0.0714463 0)
(-0.282237 -0.00964578 2.6666e-20)
(0.789583 -0.320109 -9.21532e-21)
(1.20299 -0.166245 5.73907e-20)
(-0.16356 0.00513074 4.91457e-22)
(-0.142 -0.00284327 -1.3905e-19)
(1.19245 -0.0360525 2.0509e-20)
(1.07827 -0.0672198 -2.69319e-21)
(0.111196 0.0449974 -8.15362e-20)
(1.02271 -0.0225021 -3.81054e-21)
(1.13728 -0.0260456 2.73023e-20)
(0.976667 -0.0197485 6.26688e-21)
(1.14609 0.0753477 3.83097e-20)
(0.972608 -0.0244035 -2.7347e-20)
(0.388928 0.481586 -1.0344e-19)
(1.02822 -0.0629541 0)
(1.09849 -0.000500588 -3.58131e-24)
(1.0027 -0.486761 -3.2458e-20)
(0.975187 0.104714 1.07753e-19)
(1.27138 -0.102284 1.0552e-19)
(1.00927 -0.00934254 -5.74239e-21)
(1.05608 -0.00850592 0)
(1.13257 -0.0501831 5.99e-20)
(1.03215 -0.0393795 1.24931e-20)
(0.165796 0.053006 0)
(0.0167472 -0.00499599 1.35847e-19)
(1.02364 0.106305 -4.41555e-20)
(1.00558 -0.0472884 2.15461e-21)
(0.790487 -0.31897 0)
(1.00723 -0.0446865 0)
(1.00155 -0.027099 0)
(1.15761 0.0701212 -1.0055e-19)
(1.16859 0.0348677 -2.9101e-20)
(-0.213539 -0.00797194 -7.59498e-20)
(-0.237569 -0.0041448 -4.87876e-20)
(-0.121119 -0.0271169 0)
(1.01164 -0.049684 -6.41252e-23)
(0.972673 -0.0233967 9.38698e-21)
(1.0373 -0.106972 -8.89826e-21)
(1.0222 -0.00388574 0)
(1.15276 -0.19391 -7.41685e-20)
(-0.279289 -0.00712094 -1.53011e-20)
(1.07107 -0.0411909 0)
(1.05771 -0.0237835 2.79764e-20)
(0.790424 0.00770181 -5.1166e-20)
(-0.0678344 -0.000594572 0)
(-0.170016 -0.0183269 -9.4245e-20)
(1.0129 -0.240879 0)
(1.09979 -0.00120285 2.27589e-20)
(1.03179 -0.490194 2.46475e-20)
(-0.0316564 0.0072596 -1.07774e-20)
(0.99758 -0.0076969 -5.62158e-21)
(1.16535 0.0219056 0)
(-0.0329186 -0.0271023 8.63026e-20)
(0.973326 -0.0335746 0)
(1.01497 -0.00198174 -8.28497e-21)
(-0.253703 -0.00538531 -9.40158e-20)
(1.25752 -0.00265089 0)
(1.15178 -0.110795 6.5322e-20)
(0.471717 -0.28337 -7.83195e-20)
(1.1572 -0.207213 0)
(0.0209174 -0.0035966 3.41235e-20)
(1.04147 -0.00512161 -2.25783e-20)
(1.01072 -0.0127186 -7.84466e-22)
(1.00131 -0.00866138 0)
(-0.143893 0.00787018 0)
(1.00138 -0.00828341 1.41412e-21)
(-0.146662 -0.0236479 1.21575e-19)
(-0.104756 0.00397796 -5.68931e-20)
(0.974081 -0.0317034 2.56487e-20)
(1.21853 -0.0420577 3.31081e-20)
(0.0356307 0.0188218 3.82004e-21)
(1.06597 -0.0326307 -2.10717e-20)
(0.56041 0.576279 1.63856e-19)
(1.06727 -0.068376 0)
(1.01019 -0.0119143 3.52051e-21)
(0.0397378 -0.00649246 -1.1605e-19)
(1.1261 -0.0484284 0)
(0.0736002 0.0221946 0)
(1.23294 0.0199511 1.19336e-19)
(1.01993 -0.0103776 1.08403e-20)
(1.16686 0.0192018 -5.09944e-20)
(0.243475 0.0614126 -1.22749e-19)
(1.22744 -0.0624964 -5.53911e-20)
(1.14871 0.0724051 0)
(-0.27353 -0.0112838 -1.34236e-19)
(1.28438 -0.174689 1.10548e-19)
(1.01861 -0.00905323 9.97717e-21)
(-0.275985 -0.0130106 2.7404e-19)
(-0.158288 -0.00462938 1.59164e-19)
(1.08332 -0.172559 0)
(1.23115 0.024617 3.5513e-20)
(1.21103 -0.468301 0)
(-0.0225349 0.0171006 -1.30671e-20)
(1.13135 0.0341153 3.05963e-20)
(0.487946 -0.290566 1.90997e-19)
(1.00188 -0.0266939 0)
(1.02568 -1.35422e-05 3.50852e-22)
(-0.150061 0.00431877 0)
(1.1233 -0.343344 2.79376e-20)
(1.02715 -6.04679e-05 3.60753e-21)
(0.835681 -0.0840107 -6.55243e-20)
(0.999859 -0.00274278 -1.50987e-20)
(1.22083 -0.0487152 4.66635e-21)
(1.08756 -0.0377515 -1.87998e-20)
(0.535871 0.555301 -1.09054e-19)
(1.19456 0.0870361 3.57698e-20)
(1.03059 -0.0386423 -1.20932e-20)
(-0.235381 -0.00422774 -1.02229e-19)
(1.00891 -0.0131179 6.08536e-21)
(1.05881 -0.0783579 2.1422e-20)
(1.03825 0.107951 0)
(-0.249334 -0.013777 -9.7014e-23)
(1.24727 0.0111367 -4.92093e-20)
(1.0318 -0.0900593 7.29859e-21)
(1.05725 -0.143719 1.12681e-20)
(-0.196725 -0.0128298 0)
(1.07953 -0.017621 2.34984e-20)
(0.0513417 -0.00120498 -5.72601e-20)
(1.13536 0.0214012 -5.96817e-20)
(-0.115566 0.00180251 -2.81699e-20)
(0.993335 -0.0346173 -2.68314e-21)
(1.2852 -0.177843 -1.51006e-19)
(0.961687 -0.0194787 6.56921e-21)
(0.835475 -0.101155 1.07764e-19)
(1.0095 -0.249221 4.9528e-21)
(1.15047 -0.103928 -2.66998e-20)
(1.16937 0.0629644 1.94132e-20)
(1.00011 -0.00420882 2.12499e-21)
(1.03017 -0.00929858 0)
(1.01778 -0.00887125 -1.20532e-20)
(-0.0262751 0.00609376 -7.49088e-20)
(0.817922 0.078952 -1.12393e-19)
(1.23162 0.0279978 1.93031e-20)
(1.00446 -0.0328304 -3.65443e-21)
(0.0488641 0.0217026 3.0092e-20)
(1.02324 -0.00113748 -5.39052e-21)
(1.07383 -0.0389228 -1.50445e-20)
(1.01119 -0.0503329 -1.19933e-22)
(0.998304 -0.0152069 0)
(-0.134056 0.00663318 -3.21899e-20)
(1.15585 0.0349659 -5.88111e-22)
(0.809759 0.00216011 1.24725e-19)
(1.06573 -0.032814 4.08378e-20)
(0.069375 0.400423 0)
(1.0565 -0.0208662 -2.71651e-20)
(1.05853 -0.0756147 -2.52182e-20)
(0.799419 -0.0174591 5.39792e-20)
(1.04234 -0.0301403 8.61987e-21)
(0.234313 -0.0583198 1.54408e-19)
(1.31572 -0.154033 6.95405e-20)
(0.999254 -0.0208322 0)
(0.0296745 0.0200711 0)
(1.05438 -0.000139478 3.18016e-20)
(1.18241 0.0990012 0)
(1.00474 -0.0527742 0)
(0.018388 0.0207574 1.445e-19)
(0.530218 0.0765311 -1.23534e-19)
(1.00727 -0.0447089 0)
(1.05747 0.00204937 0)
(-0.00926557 0.0171219 0)
(0.262117 0.0632645 5.5862e-20)
(1.12921 0.0319061 -7.89654e-20)
(0.994996 -0.0287706 -9.09489e-21)
(1.00552 -0.45769 1.89767e-20)
(0.996102 -0.033837 2.04425e-21)
(1.06093 -0.0729412 0)
(1.04301 -0.0318767 -2.24941e-20)
(0.826309 0.00278442 -1.12993e-19)
(1.2939 -0.00731499 0)
(1.1581 0.0946496 -2.87154e-20)
(1.09754 -0.00749659 -2.41123e-20)
(-0.294184 -0.0100884 6.32161e-20)
(-0.121563 -0.0111243 0)
(0.997018 -0.00736281 -7.5551e-21)
(0.924356 -0.0764188 2.32086e-20)
(1.00006 -0.00307674 2.24923e-21)
(1.13975 0.0978103 0)
(0.773941 -0.161351 -5.70793e-20)
(1.09776 -0.00611167 4.21903e-20)
(-0.287088 -0.0115409 1.39109e-19)
(0.97478 -0.0257978 -7.68853e-21)
(1.02345 -0.0337586 1.00449e-20)
(1.03141 -0.0611572 -8.77617e-21)
(1.19616 -0.435532 0)
(0.120622 0.0303016 0)
(1.08155 -0.0165178 -2.99929e-20)
(1.03291 -0.00320068 -2.45418e-21)
(0.184838 0.0448229 0)
(1.0218 -0.0336116 0)
(1.01694 -0.0526623 -1.4307e-21)
(1.13011 -0.0422254 0)
(1.03989 -0.0145813 2.90661e-20)
(1.11828 -0.319007 -5.27224e-20)
(1.13551 0.0491983 -4.04402e-20)
(-0.26434 -0.0129898 -2.40833e-19)
(0.962018 -0.0172653 8.22891e-21)
(0.932738 0.105829 7.0554e-20)
(1.00416 -0.0332342 -3.17816e-21)
(-0.113734 0.0099214 0)
(1.23356 0.0225171 -1.25314e-19)
(1.05459 -0.0797336 3.71034e-20)
(1.18018 0.0952429 0)
(0.992827 0.106828 -5.05563e-20)
(1.02578 -0.012226 -1.22648e-21)
(0.8311 -0.0192796 1.03341e-19)
(1.09522 -0.021106 0)
(1.19255 0.0822199 2.88468e-20)
(1.01315 -0.00134283 -3.85583e-21)
(1.1785 0.100154 0)
(1.00302 -0.000932912 0)
(0.219073 -0.01152 -6.19082e-20)
(0.99861 -0.0139201 5.14541e-22)
(-0.142212 0.00484456 -6.65925e-20)
(1.0005 -0.00181276 -3.81122e-22)
(0.986082 -0.025932 -3.03074e-20)
(1.00974 -0.010262 6.01184e-21)
(1.02711 -0.0325787 0)
(1.15449 0.0292857 0)
(1.21619 0.0170038 -8.89323e-21)
(0.963022 -0.0121461 3.55854e-20)
(1.14167 -0.150594 -4.51067e-20)
(1.05908 -0.0357388 1.7958e-20)
(0.9995 -0.0199747 5.30381e-22)
(1.24964 0.0168172 5.44985e-20)
(1.25962 -0.0746286 -2.63419e-20)
(1.31053 -0.15781 -8.40389e-20)
(1.02446 -0.0101774 0)
(1.01558 -0.00162949 0)
(1.01871 -0.011482 1.40468e-21)
(-0.118571 0.0115787 8.2013e-20)
(0.818242 -0.0162139 -2.06839e-19)
(1.00003 -0.00230779 4.81074e-21)
(0.995357 -0.0183601 4.79382e-21)
(0.19504 0.0466763 0)
(-0.195177 -0.0148562 -3.158e-21)
(1.02827 -0.00979786 0)
(0.118126 0.041805 0)
(1.13443 -0.0418336 -3.65705e-20)
(1.03945 -0.146682 1.50744e-20)
(1.06079 -0.00405262 1.52665e-20)
(0.950446 -0.104153 -1.55446e-21)
(0.999984 -0.00167632 -7.19917e-21)
(1.20388 -0.169149 -1.6622e-19)
(1.02542 -0.0102473 0)
(0.189935 0.0443297 -1.85493e-20)
(1.06496 -0.121601 -2.38874e-20)
(0.764193 -0.0472758 0)
(1.25728 -0.0672307 3.71657e-20)
(1.07631 -0.168548 1.92397e-20)
(0.391206 -0.0411115 0)
(0.877207 0.0825978 0)
(0.937184 -0.270706 -2.41862e-20)
(-0.141382 0.00696974 -1.46478e-19)
(1.13883 0.0215277 6.72108e-20)
(1.02672 -0.0907477 -5.63456e-22)
(0.13524 0.0440694 2.75464e-20)
(1.02085 -0.0103584 -1.13176e-20)
(0.929873 -0.0705984 -4.54226e-20)
(1.16388 0.0247447 0)
(1.18986 -0.0244309 0)
(1.04048 -0.00630005 4.11471e-20)
(1.1891 -0.215345 0)
(1.24733 0.0108262 1.34835e-20)
(1.01801 -0.0110558 0)
(0.0967197 -0.234307 1.87477e-19)
(-0.208855 -0.00676509 8.34401e-20)
(0.451212 -0.0742283 9.33782e-21)
(1.18699 -0.0296217 0)
(0.999867 -0.00114265 -3.66805e-21)
(-0.156992 -0.0260857 -2.05226e-21)
(0.930288 -0.0130646 0)
(0.973711 -0.0277773 1.85272e-20)
(1.16353 0.00482681 -5.03321e-20)
(0.963815 -0.0132214 -2.5558e-20)
(1.01404 -0.0215812 -7.55954e-22)
(1.06303 -0.0697102 -1.22466e-20)
(1.09562 0.000255619 3.93686e-20)
(1.16526 -0.0233531 4.71521e-20)
(1.02916 -0.00571114 1.54242e-20)
(1.02366 -0.0188791 3.69361e-21)
(0.0571088 0.0239072 -4.43826e-20)
(-0.00402789 0.00188168 -1.3677e-19)
(1.05687 0.000888066 0)
(1.01261 -0.00172205 0)
(-0.0276459 0.013717 -3.7921e-20)
(1.06811 -0.0311532 -1.23676e-20)
(1.02295 -0.000872845 4.02672e-21)
(1.01763 -0.00164585 0)
(0.998216 -0.0816392 5.20523e-21)
(0.563227 0.0811891 2.37866e-21)
(1.03895 -0.0147261 -1.45175e-20)
(-0.05148 0.0117103 -9.53426e-20)
(-0.268873 -0.00640638 0)
(1.06961 -0.0638571 1.90811e-20)
(-0.182078 -0.00866627 0)
(1.09532 0.000852728 -1.97815e-20)
(0.878057 -0.0288985 0)
(1.13041 -0.147401 -5.06428e-21)
(1.10743 -0.0534754 -1.45485e-20)
(0.4178 -1.22015 8.35341e-20)
(1.02541 -0.011549 8.80692e-22)
(-0.175433 -0.0100804 0)
(1.16582 0.0703919 7.06989e-20)
(1.00264 -0.0257957 -1.87576e-21)
(1.02684 -0.230263 1.24512e-20)
(1.0599 -0.0227783 -3.07884e-20)
(1.09283 -0.0216402 2.12981e-20)
(0.99224 -0.0275862 0)
(1.23802 0.0491273 9.61166e-20)
(-0.0247171 0.0130029 0)
(0.171626 0.0051495 5.41526e-20)
(0.996939 -0.0272987 -1.09702e-20)
(0.308693 -0.014903 -1.18587e-19)
(1.08213 -0.0157032 2.34109e-20)
(1.24569 0.0375715 -1.68864e-19)
(1.00057 -0.00183226 3.64198e-22)
(0.996842 -0.0090877 0)
(1.01784 -0.226686 -1.63583e-20)
(0.999751 -0.00198116 -3.08539e-22)
(-0.13291 0.00893193 -1.31393e-19)
(0.477079 -0.0472105 0)
(0.395135 -0.289947 -8.45647e-23)
(0.995808 -0.0177698 -4.79533e-21)
(1.08247 -0.0346342 -1.69662e-20)
(0.950529 -0.104637 2.00626e-21)
(1.01385 -0.021708 8.17353e-22)
(0.914752 0.103068 -1.14361e-19)
(1.02605 -0.341839 0)
(0.977186 -0.0306082 -2.50056e-20)
(-0.184906 -0.00694199 0)
(1.16822 -0.0184881 0)
(0.996884 -0.0083701 0)
(1.00867 -0.0129456 -2.12313e-21)
(1.0564 -0.084097 -2.72977e-20)
(1.05348 -0.0528641 8.27195e-21)
(-0.155611 0.00491346 1.3907e-19)
(1.28539 -0.164968 1.70015e-20)
(1.15963 0.0913522 4.96724e-20)
(1.15968 0.0799263 -4.1881e-20)
(1.00798 -0.0227435 0)
(0.44945 0.258783 2.39906e-19)
(-0.125319 0.00751493 0)
(1.08597 0.00411534 -3.73567e-20)
(1.01994 0.105959 -6.57778e-20)
(1.01659 -0.0105756 -2.5445e-21)
(0.961941 -0.161879 0)
(0.8794 -0.571362 9.64327e-22)
(-0.170598 -0.0154587 2.72414e-21)
(1.25054 -0.0392662 -3.91905e-20)
(0.282612 -0.163419 1.24936e-20)
(1.00366 -0.0494217 3.39182e-22)
(1.02866 -0.00467428 0)
(-0.248585 -0.00543821 1.0795e-19)
(1.00093 -0.00160784 0)
(1.05704 0.10767 1.14073e-19)
(0.349177 -0.174496 1.65368e-19)
(1.1955 -0.49549 -2.27353e-19)
(1.05191 -0.0110978 0)
(1.16255 -0.0292058 4.48868e-20)
(0.165132 0.0526622 6.28892e-20)
(-0.277335 -0.00689028 1.21135e-19)
(0.98761 -0.0247981 8.12809e-21)
(1.16579 0.0245414 -1.61794e-20)
(1.08106 -0.0151533 3.45693e-22)
(1.15267 0.0960312 3.34084e-20)
(0.999936 -0.00165141 -2.39714e-22)
(-0.0373687 0.00560984 4.61621e-20)
(0.0341947 0.0234157 -1.66112e-21)
(1.06094 -0.0339839 -1.30777e-20)
(1.07722 -0.0211923 0)
(1.24459 0.0368726 1.51805e-19)
(0.915275 -0.0466843 4.49741e-20)
(0.980056 -0.0214198 2.22803e-20)
(-0.210962 -0.00310832 -1.71597e-19)
(-0.257103 -0.0061432 0)
(0.970242 -0.00920186 1.73795e-22)
(-0.0848204 0.0167511 0)
(-0.284067 -0.00949075 -5.67027e-20)
(0.955487 0.0807352 -1.1512e-19)
(1.07 -0.0395415 0)
(1.02154 -0.00336765 1.06042e-20)
(1.00028 -0.0194408 0)
(1.03947 -0.00723656 -1.41338e-20)
(0.364401 -0.289341 0)
(1.08207 -0.0650996 0)
(1.01368 -0.00184573 1.06148e-20)
(0.125595 0.376451 1.76264e-19)
(0.588127 0.0814809 0)
(1.16659 0.059049 -1.76348e-20)
(1.1802 0.0883487 0)
(0.974628 -0.0439469 3.6943e-21)
(0.0528752 0.0317732 6.22843e-22)
(0.674613 -0.543957 -7.86329e-21)
(1.01699 -0.000955244 0)
(-0.163751 -0.0104726 -7.35066e-20)
(0.910242 -0.191531 -3.77569e-20)
(-0.114188 0.0113973 0)
(1.30887 -0.100396 -1.74232e-20)
(1.30521 -0.172654 1.49749e-20)
(1.01585 -0.0497096 1.34526e-21)
(0.172803 -0.0258705 0)
(0.978334 -0.019342 -2.16056e-20)
(0.0190009 0.0218574 5.5399e-20)
(1.10891 0.0175602 6.30404e-20)
(-0.244586 -0.0045356 -5.77377e-21)
(0.603266 0.0824577 0)
(1.00005 -0.00259447 -2.09712e-21)
(0.020434 0.00285406 3.18412e-20)
(0.974738 -0.0184058 0)
(0.678035 -0.581158 2.64413e-20)
(-0.221659 -0.0150596 0)
(0.635931 -0.845083 0)
(-0.0719742 0.00441557 -5.90296e-20)
(0.78002 -0.032812 -9.12396e-20)
(0.187313 0.0443221 4.86298e-20)
(-0.105115 0.0128901 0)
(1.14701 0.093839 -1.15533e-20)
(1.05523 0.00119166 -2.68614e-20)
(-0.0316972 0.0211155 -8.0215e-20)
(0.416516 -0.297024 -8.37408e-20)
(1.16649 0.0672365 -3.60187e-20)
(1.02552 -0.00341785 1.17991e-20)
(1.31158 -0.106463 4.41091e-20)
(1.07834 -0.0470266 1.95262e-20)
(0.972026 -0.0484991 0)
(0.703974 -0.127766 7.03782e-20)
(1.16088 0.0799749 4.55016e-20)
(1.08511 0.00620482 2.66489e-20)
(1.12405 -0.114747 -8.05639e-21)
(0.730334 0.079459 5.40571e-20)
(1.05043 0.108366 4.19652e-20)
(0.244755 0.00449505 -4.98031e-20)
(1.1342 0.0464419 0)
(0.167201 0.0439472 0)
(0.13086 0.0479594 0)
(0.998736 -0.0753113 1.33443e-21)
(-0.0665264 0.00866003 0)
(1.03034 -0.0131429 -1.51175e-20)
(1.02569 -0.0034283 -8.34858e-23)
(1.15181 0.0961815 0)
(1.02159 -0.00308633 -1.07176e-20)
(1.28369 -0.095168 -1.19877e-19)
(1.01457 -0.296102 3.76484e-20)
(1.00016 -0.00182093 -1.03184e-21)
(1.05249 -0.0104732 -4.51083e-21)
(1.06837 -0.121835 2.9016e-20)
(0.930212 -0.561607 -7.60741e-21)
(1.00002 -0.0199486 1.6214e-21)
(1.17213 -0.0135373 -6.13165e-20)
(1.03157 -0.0132112 1.46703e-20)
(1.0241 -0.0331335 0)
(1.04116 -0.0142808 -1.21475e-20)
(1.03582 -0.00429219 0)
(1.00502 -0.344478 5.89089e-21)
(1.01035 -0.00989368 1.45314e-21)
(0.886191 -0.526084 8.31158e-21)
(0.672263 -0.192024 0)
(0.865927 -0.0282656 -2.03901e-20)
(1.03384 -0.00385939 -1.73888e-20)
(-0.15137 -0.0213767 -2.73513e-19)
(0.00183373 0.0196177 9.73614e-20)
(0.201306 0.0459371 -4.56959e-20)
(1.03557 -0.00440352 1.66783e-22)
(1.19525 -0.115215 0)
(1.19445 -0.114668 0)
(1.0264 0.000275009 3.6041e-21)
(1.02993 -0.0364859 5.68809e-21)
(0.997611 -0.043208 0)
(0.16928 0.0334665 8.91665e-20)
(1.18656 0.0909938 0)
(-0.045723 0.00487344 5.03315e-20)
(0.984973 -0.0547166 0)
(1.14024 -0.0234151 -8.38244e-20)
(-0.28294 -0.00751072 -1.20949e-19)
(0.914986 -0.0506711 2.53115e-20)
(0.841251 -0.0763398 -1.31801e-19)
(1.16436 -0.486975 1.96743e-19)
(1.01079 -0.0112305 -5.88004e-21)
(1.27553 -0.336246 0)
(-0.253968 -0.0100844 0)
(0.92686 -0.0288841 2.03561e-21)
(0.809238 -0.216623 5.0105e-20)
(1.22528 0.0327241 1.90202e-20)
(-0.201761 -0.00148173 1.56087e-19)
(1.04102 -0.0145856 0)
(1.15912 0.00729969 4.26408e-20)
(1.23359 0.0481225 1.31652e-20)
(1.03644 -0.307635 0)
(0.970444 -0.0725317 -6.34956e-21)
(-0.011443 0.0247781 -3.45894e-20)
(-0.106419 -0.0288349 0)
(0.988446 -0.114639 -9.79743e-21)
(1.0002 -0.00261513 8.87081e-22)
(0.887293 -0.265274 0)
(0.234485 -0.000442116 0)
(0.108322 0.0296814 2.2292e-20)
(-0.239055 -0.00360199 9.35674e-20)
(1.02975 -0.00945277 0)
(1.1082 0.0139691 -5.36247e-20)
(0.308798 0.0615586 5.37092e-22)
(0.929781 -0.0269402 0)
(1.00115 -0.00160259 -8.41481e-23)
(0.714118 -0.131046 -9.03028e-20)
(1.02585 0.000148929 0)
(1.10956 0.0134227 -7.44583e-20)
(-0.281679 -0.00958039 -1.12573e-19)
(1.22927 0.0275227 1.93985e-20)
(1.1839 0.0935012 0)
(1.00109 -0.00635505 -6.07384e-22)
(-0.224883 -0.0157114 0)
(1.1168 0.0321665 0)
(1.07663 -0.0441156 0)
(1.0345 -0.00324087 2.26492e-20)
(1.0505 -0.0114818 5.53925e-21)
(-0.279187 -0.00925177 5.88833e-20)
(1.14658 0.0921519 -3.09226e-20)
(0.712923 -0.119129 0)
(1.05497 -0.0542624 -1.14119e-20)
(0.517223 0.237612 -2.25773e-19)
(0.999966 -0.00150649 0)
(0.199059 0.0560833 -5.77547e-20)
(1.13279 -0.0503475 2.14487e-20)
(-0.0886724 -0.0111023 -1.50473e-19)
(0.0205409 0.0193328 0)
(0.974137 -0.0281216 0)
(0.237463 0.0445539 8.83878e-20)
(1.01179 0.107434 -8.32144e-20)
(0.978319 -0.018587 0)
(-0.0922688 -0.0847357 -2.15779e-19)
(0.162473 -0.000290761 0)
(1.02098 -0.00254131 0)
(-0.218685 -0.0125709 0)
(1.02061 -0.123794 1.99051e-21)
(-0.0183943 0.0168033 -1.07672e-19)
(0.941417 -0.0101734 -6.3645e-20)
(1.0587 -0.00259445 -6.24824e-21)
(0.0324286 0.0294078 -1.19386e-20)
(1.19167 -0.0356074 -1.8979e-20)
(1.03004 -0.0445801 0)
(1.19199 -0.225916 -1.97033e-21)
(0.0100032 0.0199074 0)
(0.724355 -0.658035 -7.06623e-21)
(0.99992 -0.00165851 2.28397e-21)
(1.03128 -0.0428741 8.21188e-21)
(1.23752 -0.127926 -5.07476e-20)
(1.1914 -0.122488 0)
(0.0952025 0.0429156 8.28874e-20)
(0.976312 -0.0314764 -5.93276e-22)
(1.14632 0.0792892 4.20253e-21)
(1.22507 0.0333147 -1.76728e-20)
(1.1206 -0.299575 5.6841e-20)
(1.27219 -0.110095 -3.61363e-20)
(0.976441 -0.0342079 1.48816e-20)
(-0.213739 -0.0166288 0)
(0.480474 -0.0438201 -5.52674e-20)
(0.968983 -0.156293 9.82904e-21)
(0.119266 0.0254874 5.02597e-20)
(1.00303 -0.00967704 -3.27014e-22)
(1.18788 0.0101497 -6.51405e-20)
(1.10898 0.0108674 5.42118e-20)
(1.23192 -0.137432 5.47715e-21)
(1.03202 -0.0128326 -4.92009e-21)
(-0.130761 0.00661383 0)
(1.06335 -0.0438782 1.16686e-20)
(1.06921 -0.143192 0)
(1.00035 -0.0045274 0)
(1.00283 -0.0319887 -2.1653e-21)
(1.0011 -0.00671738 1.44473e-21)
(0.872224 -0.0283489 0)
(0.194234 0.0562437 0)
(0.875221 -0.00702736 9.10811e-22)
(1.07905 -0.0200148 1.19658e-20)
(1.27392 -0.213374 0)
(0.672651 0.093265 0)
(0.238605 0.060868 5.76233e-20)
(-0.294666 -0.0108957 2.14709e-21)
(-0.272042 -0.00703813 1.15574e-19)
(1.02798 -0.0841921 0)
(0.0824352 0.0258787 0)
(0.211827 0.0440626 -8.99227e-20)
(0.177596 0.0449729 0)
(1.13579 -0.0976667 6.96012e-20)
(-0.294182 -0.0108118 0)
(1.0081 -0.0101411 0)
(1.11352 0.032099 -3.96248e-20)
(1.03098 -0.0209523 1.20022e-20)
(-0.0396077 0.0118039 -4.1266e-20)
(1.09656 -0.104997 0)
(-0.11322 -0.0236089 1.02417e-19)
(1.02512 -0.021305 -8.13351e-21)
(0.789635 -0.512052 -5.71584e-20)
(-0.206088 -0.0016707 0)
(0.279942 -0.0181966 0)
(0.987827 -0.024279 1.90842e-20)
(0.678094 0.0955401 2.79337e-20)
(1.02979 -0.020617 -1.49817e-20)
(0.993399 -0.0344025 0)
(1.03535 -0.0895028 -3.67345e-21)
(0.999957 -0.00217322 -3.05942e-21)
(1.07148 -0.000885265 -2.47474e-20)
(1.00351 -0.0100133 1.99544e-22)
(1.02886 -0.0135228 -2.24312e-20)
(0.999887 -0.00261674 7.42575e-21)
(1.00297 -0.0753626 1.38768e-21)
(0.603529 -0.86556 1.0545e-21)
(1.19273 -0.297612 1.11799e-20)
(1.06055 -0.00377133 0)
(1.248 -0.00146983 -5.58209e-20)
(0.00685093 0.0169624 0)
(0.930908 -0.530673 0)
(1.02978 -0.0106148 8.95672e-21)
(1.1813 0.0471111 1.05431e-19)
(1.12418 0.000390001 0)
(1.14835 -0.0573092 0)
(-0.0117136 0.0179281 0)
(1.29411 -0.156556 0)
(0.977129 -0.0364638 -1.50272e-20)
(1.00196 -0.0336266 -7.7241e-21)
(1.0029 -0.0101074 0)
(1.22304 0.0366508 0)
(1.00769 -0.00198098 -9.1573e-21)
(0.963369 0.0814581 -1.26728e-19)
(1.02013 -0.0377951 -2.89664e-21)
(1.00137 -0.070997 4.41544e-21)
(1.07914 -0.154381 0)
(1.16751 0.0358896 -7.00584e-20)
(1.00882 -0.0225015 0)
(1.02861 -0.0358094 -3.42773e-21)
(-0.0104977 0.0175678 3.26422e-20)
(-0.0574446 0.00767969 2.88251e-20)
(0.106185 -0.195727 3.54932e-19)
(-0.141864 0.00584965 3.88382e-20)
(0.876796 -0.653924 8.05956e-20)
(1.03859 -0.0810558 -3.62291e-21)
(0.972415 -0.0668574 9.8853e-21)
(1.01211 -0.028854 0)
(-0.164834 -3.89555e-05 0)
(1.00005 -0.00484652 -7.05314e-21)
(1.0827 -0.0707485 -2.20649e-20)
(1.05617 -0.0368735 1.81812e-20)
(0.689993 -0.498916 2.26488e-20)
(1.02101 -0.00234888 -5.31822e-21)
(0.0280331 -0.0060731 6.82409e-20)
(1.17365 0.100055 0)
(1.01227 -0.0282537 4.65447e-23)
(1.22575 -0.0618133 8.97378e-20)
(1.00093 -0.0280096 0)
(1.02998 -0.0136377 5.0077e-21)
(-0.117348 0.00219877 6.75073e-20)
(0.8966 0.106186 4.40199e-20)
(1.01579 -0.0538839 0)
(0.835792 -0.0723911 1.46665e-19)
(0.945338 -0.0107627 9.98137e-21)
(1.18988 -0.0425969 6.04126e-22)
(1.00271 -0.0253701 3.51762e-21)
(0.996646 -0.439678 9.52575e-21)
(1.02139 -0.0269892 7.70517e-21)
(0.670768 -0.195464 1.12136e-19)
(1.18999 0.0899448 1.10081e-20)
(1.18038 -0.032032 3.50475e-20)
(0.960285 -0.0471127 -1.49088e-20)
(0.229271 0.0599973 -4.01624e-21)
(1.00197 -0.000612268 0)
(-0.0390969 0.00649156 -4.27859e-20)
(0.878676 -0.243059 0)
(1.13831 -0.113006 -3.83771e-20)
(0.934471 -0.122457 -1.15602e-20)
(1.16972 0.063964 0)
(0.0791608 0.0262699 -6.46362e-21)
(1.1286 -0.0547852 -4.06331e-20)
(1.22561 -0.0371598 9.127e-20)
(1.19284 -0.124609 7.02039e-22)
(1.20749 0.0219646 5.48358e-20)
(-0.266034 -0.0063795 -5.41999e-20)
(0.99031 -0.121633 5.7524e-21)
(-0.0624864 0.00191401 0)
(0.995121 -0.0297679 -9.83501e-21)
(0.952402 -0.314512 -4.79187e-20)
(1.02415 -0.00923087 0)
(1.02064 -0.146147 8.29186e-22)
(-0.235123 -0.00281924 4.06746e-20)
(-0.0406051 0.020186 0)
(1.23564 0.0531925 -1.1822e-19)
(1.19068 0.00713129 1.39886e-19)
(1.01715 -0.0114025 -2.81094e-21)
(1.02438 -0.0332264 -9.52693e-21)
(1.05 -0.000667104 0)
(-0.223906 -0.0159529 0)
(1.06404 -0.046108 -1.26122e-20)
(0.270871 -0.0155606 1.15784e-19)
(0.631079 0.0926355 0)
(1.02859 -0.0335538 4.23534e-21)
(1.21115 0.0598023 1.33093e-21)
(0.890005 -0.00365805 2.04013e-20)
(1.29562 -0.165885 -1.26776e-19)
(1.00231 -0.0752892 -2.88722e-21)
(0.9248 -0.14 -1.3527e-20)
(0.00822827 -0.00562181 -5.32065e-20)
(1.04363 -0.102507 5.64344e-21)
(-0.264051 -0.0129671 0)
(0.986845 -0.0521672 5.27019e-21)
(1.03006 -0.00540829 -1.66202e-20)
(1.05492 -0.0229855 2.91798e-20)
(1.17478 -0.138905 -3.40117e-20)
(0.919274 -0.182498 2.85659e-20)
(1.12337 -0.329416 -3.33529e-20)
(1.05132 -0.0823585 -2.56388e-20)
(1.02871 -0.00950865 0)
(1.00251 -0.000668643 0)
(0.268522 0.057068 4.59335e-20)
(-0.109872 0.00394351 6.38879e-20)
(1.16371 0.037748 0)
(0.745068 0.0802013 -4.25072e-22)
(1.0388 0.00174174 0)
(1.00416 -0.00079081 -4.20083e-21)
(1.01021 -0.00175966 -2.96405e-21)
(0.989191 -0.0233825 -7.66828e-21)
(1.06127 -0.332577 3.29529e-20)
(1.1453 -0.0516562 0)
(-0.110865 0.00203066 9.71164e-21)
(-0.0581056 -0.000705929 -2.75797e-20)
(1.00038 -0.00347552 -5.10733e-22)
(-0.102837 -0.025241 -7.74002e-20)
(-0.25607 -0.0135555 1.55066e-19)
(0.843902 -0.194438 -4.18336e-20)
(1.17695 0.0998465 -9.4315e-21)
(1.12068 0.00312401 -3.64576e-20)
(1.29362 -0.136883 -1.50411e-19)
(0.0545029 -0.00808228 1.26616e-19)
(0.992037 0.103631 -3.13069e-20)
(0.196551 0.0577918 -5.84164e-20)
(1.00333 -0.0102277 9.97856e-23)
(-0.183018 -0.012438 -2.10082e-20)
(0.0914811 0.0435937 -3.42342e-20)
(1.04923 -0.0100484 0)
(0.0346273 0.00857796 1.73172e-19)
(1.30828 -0.0577772 0)
(1.13593 -0.104272 3.45171e-20)
(0.995586 -0.118335 -5.64503e-21)
(-0.0515509 -0.0287136 0)
(0.252809 0.0553449 -5.15646e-22)
(1.16882 0.0309582 -2.58012e-20)
(0.937124 -0.263136 0)
(-0.250594 -0.00484001 -9.76723e-20)
(-0.195659 -0.0178549 0)
(0.127092 0.0442246 -6.92285e-21)
(0.954751 -0.0212874 1.83177e-20)
(0.926311 -0.283026 1.10073e-20)
(0.206516 0.0489153 -5.29479e-20)
(0.996563 -0.028569 9.16904e-21)
(1.06593 -0.0131001 -3.92779e-22)
(0.627149 0.0927219 -6.47822e-20)
(1.02584 -0.0111077 0)
(1.00016 -0.00124423 0)
(1.25362 -0.00317318 0)
(0.233282 0.0433019 0)
(0.847692 -0.021579 8.29123e-20)
(0.998336 -0.00964991 -1.25149e-20)
(0.973975 -0.0238964 -1.00562e-20)
(0.101026 0.0242636 -8.24043e-20)
(0.0276476 0.006227 0)
(0.68136 -0.746362 -2.35415e-20)
(1.21047 -0.0386561 -4.9523e-20)
(-0.0470858 0.0127793 9.79168e-20)
(1.18805 -0.282639 6.18909e-20)
(0.107555 0.04065 -1.67156e-20)
(1.00288 -0.00330338 1.40251e-21)
(0.349143 -0.161659 -2.25711e-19)
(1.01731 -0.0661805 2.39381e-22)
(1.021 -0.011368 0)
(1.02326 -0.0207321 -7.74992e-21)
(1.01675 -0.0037283 0)
(1.00406 -0.000786148 3.87379e-21)
(1.01799 -0.0379596 -9.26219e-23)
(0.987905 -0.0273917 -1.08301e-20)
(1.30858 -0.094266 -8.17223e-20)
(0.890674 -0.0927702 -7.62819e-20)
(0.0429468 0.0301725 9.60249e-20)
(0.0272325 0.0262286 7.81395e-20)
(1.02063 -0.0256827 -7.48049e-21)
(1.00313 -0.00402926 -1.5351e-21)
(1.05592 -0.0489556 0)
(-0.197622 -0.0178114 1.25006e-19)
(0.85934 0.0935564 -3.51382e-20)
(0.0563133 -0.124691 -1.08279e-19)
(0.980351 -0.154055 0)
(1.27735 -0.335464 9.4346e-20)
(1.1603 0.0680337 -3.83182e-20)
(1.3082 -0.0570616 2.05697e-19)
(1.17353 -0.0142159 3.34639e-20)
(1.0718 -0.462937 5.58742e-20)
(0.99554 -0.0412294 0)
(1.02816 -0.0843458 -6.41151e-22)
(1.02869 -0.010622 -1.43293e-20)
(1.20371 -0.00382126 -6.06091e-20)
(1.06612 -0.0121817 0)
(1.00005 -7.76501e-05 0)
(1.00237 -0.070228 -3.46564e-21)
(0.219043 0.0506248 4.78429e-20)
(0.995847 -0.0449614 0)
(1.05927 -0.0822165 6.98302e-21)
(1.02211 -0.0227377 -3.11969e-21)
(1.14277 0.0729415 1.17684e-19)
(0.117038 0.0428327 -2.84794e-20)
(0.831727 -0.209297 0)
(0.417126 -0.0388741 0)
(0.227666 0.0407588 5.34956e-21)
(1.22751 -0.0336911 -6.35769e-20)
(0.886024 0.0947282 -5.42987e-22)
(1.02178 -0.0372604 3.56746e-21)
(1.03019 -0.0115225 -4.86231e-21)
(1.06747 -0.0407981 -1.27008e-20)
(0.208401 0.042767 -2.59563e-21)
(0.0936729 0.0282344 0)
(1.17992 0.0462108 3.33783e-21)
(0.0134273 0.0254233 -5.03333e-20)
(1.004 -0.0154446 0)
(1.18085 0.0425539 -7.99919e-20)
(1.02158 -0.0132297 3.57107e-21)
(1.08668 -0.0992684 -3.22232e-20)
(0.196605 -0.0247748 -4.95679e-22)
(0.996375 -0.0307496 -4.55843e-21)
(1.14349 0.0831733 -3.28583e-20)
(1.0239 -0.019532 -3.9393e-21)
(0.998783 -0.00915379 1.33098e-20)
(0.985849 -0.0264255 4.48719e-21)
(1.15891 -0.0250994 -2.28901e-20)
(0.901475 -0.242112 -2.01074e-20)
(0.985222 -0.0571976 1.18969e-20)
(1.05245 -0.0159195 0)
(0.814246 -0.574587 1.15585e-20)
(1.27865 -0.190401 -7.4746e-20)
(1.07546 -0.150983 0)
(1.1415 0.0706225 -5.47618e-20)
(1.04925 -0.0023211 3.14952e-20)
(0.514149 0.0726955 6.39647e-20)
(0.992257 -0.0275926 -1.13962e-20)
(0.944324 -0.239939 -3.54851e-20)
(1.06788 -0.0313978 1.37231e-20)
(-0.182111 -0.0147278 0)
(0.684746 -0.0435626 -1.02415e-19)
(1.00022 -0.00103893 0)
(1.13401 -0.0211513 0)
(-0.266394 -0.0105497 0)
(1.01954 -0.037536 5.75342e-21)
(1.05137 -0.10495 -1.42988e-20)
(0.0578895 0.0226248 0)
(1.05845 -0.0024317 2.25549e-20)
(0.168517 -0.0102725 -6.4906e-20)
(0.109989 0.0435641 0)
(0.993706 -0.0430522 0)
(1.18287 -0.130508 0)
(1.10985 -0.0453901 4.95085e-20)
(0.288433 -0.0115243 -1.49832e-20)
(0.928491 -0.128753 -1.21814e-20)
(1.05493 -0.47402 0)
(-0.0539161 0.00890499 -2.5776e-20)
(1.11891 -0.0423578 2.27593e-20)
(0.188146 0.0482972 -1.602e-21)
(1.05155 -0.10545 0)
(1.01583 -0.020135 0)
(1.06996 -0.000172477 -1.29034e-20)
(1.04941 0.000280142 4.91466e-21)
(0.171234 0.0282487 9.83427e-20)
(0.471081 -0.0551041 7.88331e-21)
(1.11621 -0.0459542 -1.83552e-22)
(0.068896 -0.138744 1.08482e-19)
(0.994622 -0.0323904 -2.06933e-21)
(0.178585 -0.0840352 0)
(1.16816 -0.101371 1.15045e-19)
(1.00764 -0.00916381 -3.30978e-21)
(0.920265 -0.05089 -1.22764e-20)
(1.08238 -0.0124411 3.38188e-20)
(-0.284892 -0.0101773 1.6068e-20)
(1.05212 -0.215419 0)
(1.21214 -0.157953 1.09915e-19)
(0.576565 0.08358 -8.52498e-20)
(1.00028 -0.00112376 0)
(1.1656 -0.0253399 -3.13918e-21)
(0.133837 -0.0277588 -1.4762e-19)
(0.993368 -0.0398957 8.03338e-21)
(1.19105 -0.0747625 8.28584e-20)
(1.00039 -0.00435952 1.5979e-21)
(0.0991915 0.0414595 1.60005e-20)
(0.306691 0.0639071 0)
(1.21071 0.0156806 -5.63987e-20)
(-0.243195 -0.0137817 0)
(1.079 -0.099159 1.35037e-20)
(1.05132 -0.0548522 2.09782e-20)
(1.15771 0.0906495 -1.07225e-19)
(0.999931 -0.00072641 9.72402e-21)
(1.02798 -0.00518682 9.6687e-24)
(0.0204727 0.0266985 -8.55537e-20)
(-0.0179578 -0.0334203 0)