/*--------------------------------*- C++ -*----------------------------------*\
| =========                 |                                                 |
| \\      /  F ield         | OpenFOAM: The Open Source CFD Toolbox           |
|  \\    /   O peration     | Version:  v2012                                 |
|   \\  /    A nd           | Website:  www.openfoam.com                      |
|    \\/     M anipulation  |                                                 |
\*---------------------------------------------------------------------------*/
FoamFile
{
    version     2.0;
    format      ascii;
    class       volScalarField;
    location    "150";
    object      k_0;
}
// * * * * * * * * * * * * * * * * * * * * * * * * * * * * * * * * * * * * * //

dimensions      [0 2 -2 0 0 0 0];


internalField   nonuniform List<scalar> 
14479
(
0.000463895
0.0110626
0.00106504
0.000146675
0.000206025
0.000150858
0.000141009
0.000206432
0.000195703
0.000214124
0.000145818
0.000166487
0.000183406
0.00573236
0.00806305
0.000154103
0.000140823
0.00912757
0.000144943
0.000188741
0.000183394
0.000169262
0.0168348
0.097321
0.000145631
0.000145099
7.11534e-05
0.00019384
0.000147804
0.000103488
0.00082424
0.0956869
0.000176076
0.000207997
0.00101422
0.000181569
0.000147377
0.000150613
0.000271383
0.000180664
0.00015871
0.000143429
0.00022699
0.000223588
0.000147383
0.00015433
0.000144099
0.0378695
0.00374253
0.000143545
0.00508617
0.000193378
0.000144672
0.0051751
0.014186
0.000167904
0.000184832
0.000150502
0.00972858
0.000150417
0.000145823
0.000147414
0.0150635
0.000144252
0.000141727
0.0254762
0.0417122
0.0419315
0.000144642
0.000147978
0.000326313
0.000144553
0.00442525
0.000182298
0.000148057
0.00014361
0.000176431
0.0175876
0.000143926
0.0288568
0.000145105
0.00020597
0.0136707
0.000786442
0.00164535
0.000153005
0.000153544
0.000141643
0.000206522
0.000150964
0.000195173
0.0274718
0.0504591
0.000144206
0.000227275
0.000145056
0.000144206
0.000142487
0.000140567
0.00418083
0.00130757
0.000162364
0.00509953
0.00177871
0.0425397
0.000209421
0.00559066
0.00012614
0.000385065
0.00262693
0.00108898
0.00623628
0.000127868
0.000169203
0.000195674
0.000184558
0.000146559
0.000174293
0.000169473
0.000148131
0.000147389
0.0136169
0.00522393
0.000140518
0.000305239
0.00010556
0.000150631
0.000450646
0.000166623
0.000238505
0.0190669
0.0300739
0.000218617
0.000247494
0.0112583
0.000171212
0.000225858
0.000207275
0.000409237
0.000233227
0.0209079
0.0724047
0.000139969
0.0209466
0.000145153
0.0109897
0.0791026
0.000159148
0.0170577
0.000196265
0.0109054
0.000144034
0.0104725
0.000156187
0.000145182
0.000139526
0.0125053
0.0601234
0.00271559
0.00017168
0.000184543
0.000139171
0.000144046
0.000185098
0.0103065
0.000136167
0.00014447
0.000199183
0.000194843
0.00144372
0.0249507
0.000173796
0.000156546
0.000181268
0.000139733
0.000194381
0.000171447
0.000142106
0.000153771
0.000198621
0.000183758
0.000137244
0.00394744
0.00018968
0.000437641
0.000146377
0.000106494
0.0624706
0.000149628
0.00923397
0.10498
0.000221016
0.0251503
0.0102967
0.000162721
0.000173586
0.000147925
6.67493e-05
0.000167262
0.00014394
0.00019702
0.000158418
0.000176279
0.000144587
0.000167662
0.00020246
0.00254417
0.000169487
0.000138234
0.000168651
0.000167174
0.000146662
0.00016703
0.000166004
0.000723794
0.00731649
0.0360488
0.000206203
0.00706862
0.00320237
0.00340417
0.0044651
0.000153219
0.000208813
0.00642523
0.000153834
0.0455009
0.000142948
0.000191007
0.000153539
0.000147602
0.000156516
0.000465413
0.000159074
0.000146025
0.102405
0.000156219
0.000198695
0.0678671
0.000144916
0.000153386
0.000143984
0.000195193
0.000157322
0.000145939
0.000213433
0.0314951
0.00422142
0.000147579
0.000145129
0.000772454
0.000223383
0.000202787
0.000217042
0.000204505
0.00014025
0.000164095
0.000138395
0.000182541
0.000145172
0.000142901
0.000154492
0.000145088
0.000142262
0.000142075
0.000166458
0.000184801
0.000145187
0.0312527
0.0001799
0.000190689
0.000195721
0.0106505
0.000173236
0.000200518
0.00934072
0.000198213
0.000138596
0.000168344
0.000153604
0.000206627
0.000164354
0.00015072
0.000153877
0.000201453
0.00282753
0.000189904
0.000747921
0.000171533
0.000409856
0.000220221
0.000147904
0.000180374
9.08155e-05
0.000154432
0.00907939
0.0824372
0.000149902
0.000176741
0.00988137
0.104985
0.027256
0.00014194
0.000147454
0.000175881
0.000132235
0.000137992
0.000452834
0.000138383
0.000195817
0.000178855
0.000374702
0.000154438
0.000161669
0.000176126
0.00536656
0.000202989
0.000159866
0.000175587
0.000138124
0.104533
0.000195696
0.0390943
0.00343804
0.000146042
0.104275
0.0577854
0.0109581
0.000182091
0.000153555
0.0153747
0.000146469
0.000182902
0.000185137
0.000154143
0.000150407
0.0312104
0.00016514
0.00015488
0.000148483
0.000146345
0.000190935
0.000138183
0.00018067
0.00978802
0.000168192
0.000284191
0.000175241
0.000192866
0.000212911
0.000144984
0.000534863
0.00479902
0.0437155
0.00016213
0.000500176
0.000503172
0.0354459
0.000146053
0.0257881
0.000145544
0.000214046
0.00510306
0.0380843
0.000154162
0.000145592
0.000139225
0.0001836
0.000188674
0.000139461
0.000156968
0.00028929
0.000157025
0.000208179
0.0127414
0.000190172
0.000147048
0.000208323
0.00016667
0.000149234
0.000176417
0.00019702
0.000144922
0.000160445
0.00518103
2.28505e-05
0.0935028
0.000146646
0.000242125
0.000183414
0.000207978
0.0001428
0.000155104
0.000134615
0.0100416
0.000200746
0.000159254
0.0108775
0.000202248
0.000200715
0.000185452
0.000194671
0.000176863
0.017692
0.000181847
0.000154437
0.000184274
0.000176162
0.00471284
0.00018233
0.0110138
0.00155133
0.000167502
0.000201619
0.000146153
0.00140645
0.000148005
0.000151373
0.0270853
0.000211409
0.000231386
0.0198135
0.0929135
0.00055444
0.0500637
0.00014973
0.000155505
0.000165046
0.000139613
0.000149423
0.000149552
0.000182009
0.0341684
0.0110502
0.0559267
0.000180687
0.0197686
0.0156109
0.000188098
0.000146174
0.000420503
0.000138297
0.000155687
0.0177342
0.000147262
0.000141845
0.0001553
0.0119056
0.000161271
0.000150959
0.000155803
0.000146881
0.000327245
0.000164356
0.000265493
0.000185051
0.000146009
0.000256167
0.000264269
0.000420871
0.000224851
0.0001478
0.000157067
0.000168779
0.00975783
0.000142145
0.000180054
0.00513323
0.000396774
0.000145661
0.000142781
0.00019309
0.000162549
0.000149351
0.00831153
0.0267954
0.000201238
0.0372364
0.000182194
0.000148559
6.2411e-05
0.000179755
0.000229648
0.0100314
0.000182967
0.000150092
0.000136735
0.000154998
0.0423217
0.0197264
0.000138309
0.000137921
0.000215161
0.000146307
0.000170576
0.000151391
0.00014026
0.000236957
0.000142722
0.000203707
0.000173175
0.0181461
0.0254903
0.000182879
0.102277
0.000205965
0.000194411
0.0302977
0.000209368
0.00014844
0.000149169
0.000152757
0.000154403
0.000196103
0.00014941
0.000297449
0.000132246
0.00015492
0.0387077
0.000194925
0.00995846
0.000185375
0.00014276
0.000165494
0.000150811
0.000194447
0.000166629
0.000167976
0.00599388
0.000167754
0.104107
0.0051533
0.000159978
0.000138151
0.000144896
0.000143047
0.000158647
0.000162313
0.000183965
0.000169691
0.000172325
0.0449491
0.000167631
0.000145178
0.0162775
0.000167137
0.000217003
0.0409705
0.0331737
0.000222614
0.000155109
0.000325103
0.00804337
0.00016735
0.000167628
0.00029473
0.0014963
0.000182737
0.000155176
0.0787351
0.000198947
0.000149406
0.000149708
0.104684
0.000196584
0.000152194
0.000153136
0.00245742
0.000179514
0.000131736
0.000368804
0.00015669
0.000156427
0.000144272
0.000175344
0.000203074
0.028977
0.000151748
0.000991478
0.000465512
0.0968268
0.000156603
0.000160003
0.0966551
0.00015339
9.86826e-05
0.00015969
0.000170129
0.00445261
0.000155175
0.000177669
0.000143172
0.0941253
0.000662776
0.000188188
0.0103321
0.000234907
0.000137789
0.0355562
0.000222612
0.000147085
0.000171934
0.000165928
0.000156647
0.000155744
0.000191507
0.0288273
0.000184882
0.000194695
0.000289091
0.000169601
0.00300341
0.0300468
0.000156646
0.0569745
0.000477899
0.000151262
0.000572699
0.000145403
0.00963483
0.000229824
0.000394764
0.000173894
0.000237729
0.000146457
0.000190845
0.00018161
0.000789087
0.000156371
0.000162208
0.000179547
0.000140679
0.00509412
0.000152277
0.000147294
0.0110434
0.00015273
0.000190292
0.0186638
0.00014484
0.000161882
0.000146501
0.0569113
0.0305723
0.000235425
0.0049419
0.000205383
0.00019367
0.000193043
0.00016727
0.000144788
0.000149033
0.000152922
0.0817685
0.000204085
0.000183308
0.00713553
0.000163923
0.0112842
0.000147878
0.000179868
0.00108386
0.027402
0.000153111
0.00018051
0.061958
0.000190348
0.000139745
0.000167029
0.000142258
0.000204522
0.000157957
0.000141225
0.000138273
0.000141838
0.000141117
0.000180438
0.000174313
0.000141492
0.0402216
0.000150436
0.000153777
0.00017041
0.000102956
0.0439605
0.000140435
0.038882
0.000146757
0.0111919
0.000228572
0.000224457
0.0002057
0.00015377
0.000153477
0.000166843
0.0487436
0.00014247
0.000148863
0.000156864
0.000155703
0.00018606
0.000159817
0.000177394
0.00015372
0.000140658
0.00018226
0.000185234
0.10216
0.0266734
0.0211766
0.00111044
0.000267202
0.100719
0.00021909
0.000152867
0.000180683
0.000179693
0.0117671
0.000157514
0.000142016
0.00413871
0.001907
0.000151978
0.000160315
0.0460901
0.000112697
0.000207588
0.000357711
0.00424903
0.000168395
0.000138149
0.000145037
0.000233217
0.00336521
0.00358629
0.000141739
0.000182529
0.000159602
0.00017691
0.000344907
0.000181744
0.000144015
0.000149352
0.000189962
0.000144135
0.000146353
0.0315411
0.000173908
0.000159749
0.0880039
0.000102934
0.000150469
0.000197211
0.00410085
0.0603615
0.000185815
0.00282613
0.0351317
0.000193367
0.000179468
0.00133602
0.000236936
0.0188469
0.0958871
0.000135421
0.00670351
0.0166337
0.000162604
0.000675804
0.000149206
0.000178299
0.000159588
0.00014207
0.000159063
0.000150501
0.000973084
0.0109655
0.0381104
0.000146327
0.092686
0.000155825
0.000151778
0.000232366
0.000144224
0.0118574
0.000182162
0.000178654
0.00746051
0.000158184
0.0194879
0.000148246
0.000174928
0.000153083
0.00022554
0.0843764
0.0505553
6.75174e-05
0.000226684
0.000140071
0.01639
0.000153396
0.000166047
0.000156095
0.00017989
0.0324314
0.000196671
0.000163395
0.000190428
0.00622753
0.000154002
0.000225117
0.0050037
0.000146741
0.000151773
0.000142728
0.000179098
0.000195947
0.0054014
0.000154509
0.000149069
0.000309374
0.000144382
0.0608618
0.0377318
0.000191192
0.0784644
0.000175998
0.000144671
0.0388211
0.000192358
0.000181076
0.000146554
0.000189674
0.104854
0.0829141
0.000240272
0.000441162
0.000153622
0.105171
0.000206834
0.000153648
0.000172975
0.000174429
0.000181874
0.00706661
0.000160851
0.00014212
0.000244868
0.000153302
0.000155207
0.000152149
0.0635535
0.000231823
6.80072e-05
0.000270631
0.0250444
0.00627049
0.000150401
0.000214565
0.000156059
0.00644555
0.000208562
0.0310956
0.000144492
0.00286317
0.00014736
0.000151245
0.000288257
0.00431817
0.0135408
0.000187152
0.000157067
0.000174109
0.000160174
0.000182586
0.000131531
0.000143482
0.000168183
0.000212231
0.000149164
0.000143701
0.000150333
0.102413
0.0090129
0.0251252
0.000172271
0.00703271
0.000180693
0.000144958
0.000196526
0.000192997
0.0357147
0.000146451
0.104978
0.000144218
0.000181827
0.000149154
0.0186389
0.000142861
0.000138026
0.000157199
0.000144193
0.00023289
0.000193788
0.0473285
0.0134511
0.00691132
0.000144425
0.000213191
0.000144423
0.000143165
0.000169619
0.00018682
0.00090897
0.00284888
0.000148746
0.000178728
0.000189291
0.000165991
0.000192995
0.0035795
0.000197633
0.00019076
0.0049491
0.000228388
0.00336099
0.004451
0.000142576
0.000145492
0.000220448
0.000150961
0.000190151
0.00709055
0.000150508
0.000144344
0.000241344
0.0207466
0.000170479
0.00453417
0.00015728
0.000275908
0.0906576
0.0255113
0.00734236
0.000239796
0.0208515
0.0262285
0.00676962
0.067858
0.000144546
0.000224125
0.000115027
0.000161435
0.000161261
0.000138276
0.000222059
0.00493005
0.000220141
0.00191998
0.000138152
0.000146939
0.000216536
0.000146285
0.000145669
0.000134999
0.000184969
0.00016064
0.000144841
0.00016355
0.000180325
0.000158434
0.000194135
0.0385147
0.000146203
0.000183973
0.00442133
0.000155469
0.000182128
0.00455233
0.075791
0.000154123
0.000148987
0.000193919
0.000185498
0.000323376
0.10145
0.0164278
0.000183282
0.000159988
0.000167614
0.00022109
0.000180645
0.00141555
0.000160143
0.000195042
0.000144425
0.000172851
0.000145385
0.00436253
6.22536e-05
0.000154914
0.0252971
0.000180666
0.105216
0.0222625
0.00146174
0.00019445
0.00014677
0.100509
0.000156722
0.00555586
0.000269849
0.000147573
0.00110954
0.000144784
0.000181917
0.00508588
0.000148965
0.00836275
0.000161453
0.000156614
0.000736156
0.000178799
0.000188902
0.000176976
0.0113906
0.000160694
0.000152943
0.000157608
0.10232
0.000147956
0.000149773
0.0150591
0.0561929
0.000154784
0.0190768
0.000189153
0.00022097
0.000141228
0.0398213
0.00013826
0.000189997
0.000175195
0.000148701
0.000197746
0.000176579
0.000199289
0.000182326
0.000203261
0.000177973
0.000144841
0.000192272
0.00591327
0.000148747
0.000161193
0.000141171
8.67082e-05
0.000148863
0.000146891
0.000156185
0.000146956
0.000146204
0.0358744
0.000144876
0.000736311
0.00018779
0.000146442
0.000151208
0.0996958
0.103034
0.00847203
0.0185819
0.000180569
0.010875
0.000497138
0.000169313
0.000156622
0.000144027
0.000517333
0.000174154
0.0154224
0.0218208
0.000155483
0.0941814
0.000143536
0.000146215
0.0190301
0.000196848
0.0717592
8.1175e-05
0.000196217
0.00889741
0.000143411
0.000156989
0.000226401
0.00963128
0.000142926
0.0112649
0.00501903
0.00412012
0.000157554
0.000182656
0.000184781
0.000146458
0.000171365
0.00015825
0.000191832
0.000190311
0.000181701
0.000187812
0.0435289
0.000158396
0.000153473
0.000228309
0.000143428
0.0001778
0.000161625
0.0586959
0.00270207
0.000234138
0.000157507
0.0199532
0.0154927
0.000237819
9.1448e-05
0.000149414
0.00660827
0.0565458
0.000187437
0.000141695
0.0916905
0.00319218
0.0287841
0.00514982
0.000221487
0.000161381
0.00021373
0.000221651
0.000206085
0.000157969
0.000213825
0.000200585
0.0202599
0.000143599
0.101603
0.00022173
0.000166006
0.000160992
0.000142128
0.000176398
0.000154852
0.000151637
0.00018227
0.0251336
0.000210815
0.000215457
0.0229395
0.000257402
0.000162353
0.000244955
0.000178643
0.000144371
0.00017126
0.000179134
0.000194348
0.000161232
0.00343597
0.000176306
0.000489332
0.000171682
0.000160708
5.74506e-05
0.000211395
0.000175188
0.00767667
0.000153314
0.000163098
0.000249688
0.000143609
0.0206591
0.0349907
0.000152566
0.000216537
0.000157714
0.000158431
0.000212337
0.000174826
0.00301502
0.000159611
0.000145952
0.000201548
0.000176467
0.0155733
0.000186428
0.000164603
0.000177718
0.000147996
0.000438575
0.000290968
0.000207802
0.00519116
0.000501014
0.000194302
0.000177512
0.00478649
0.000174702
0.00015079
0.000188204
0.00018141
0.000140959
0.000165742
0.00562473
0.000176618
0.00025363
0.000150519
0.027745
0.000165293
0.000201917
0.000147087
0.000192628
0.000159353
0.000150407
0.000159489
0.00020533
0.000153133
0.000184321
0.000144108
1.07591e-05
0.000230835
0.00404316
0.000267481
1.83361e-05
0.0445147
0.000208812
0.0125635
0.000159239
0.000154912
0.000142686
0.000153735
0.000144542
0.000201647
0.000273389
0.000235885
0.000141515
0.0309361
0.0268921
0.000196622
0.000165513
0.000212554
0.0543909
0.00529979
0.000204642
0.000197409
0.0109134
0.000193448
0.000200555
0.000167448
0.00025436
0.000165461
0.000144338
0.000263813
0.000144489
0.000176224
0.000149537
0.00340627
0.000551227
0.000215095
0.00018869
0.02364
0.0115906
0.000231657
0.000178941
0.0672798
0.0393582
0.000147797
0.00512601
0.0177853
0.000166146
0.0014944
0.0386977
0.000158132
0.000146615
0.000155796
0.0198888
0.000195004
0.0579624
0.000243849
8.90676e-05
0.000165618
0.00017828
0.000159088
0.000171953
0.104501
0.0182883
0.00021164
0.000158218
0.000179435
0.000157582
0.000213226
0.000163968
0.000200792
0.000208647
0.000164662
0.0297695
0.000199828
0.0933594
0.000161833
0.000146464
0.000163415
0.000134018
0.0011306
0.000147792
0.0141296
0.00016205
0.000203114
0.000218124
0.000141904
0.00729544
0.00015153
0.000141174
0.000198395
0.000141517
0.000209016
0.000178042
0.00015063
0.000170082
0.0524146
0.000179069
0.000175409
0.000146121
0.000173467
0.000176376
0.000144685
0.000191477
0.00515444
0.0300309
0.000145053
0.000169478
0.000153468
0.0228262
0.000141943
0.0136036
0.0533392
0.0152628
0.000156742
0.0997551
0.000143841
0.000204702
0.000245343
0.000656472
0.000166643
0.000197618
0.0131513
0.000231216
0.0657302
0.000155637
0.000158092
0.000186627
0.000178378
0.00014358
0.000147089
0.000197157
0.0102856
0.000164374
0.000197361
0.000185056
0.0199767
0.000162538
0.000150172
0.000152136
0.000144956
0.0562333
0.000187636
0.000260929
0.000148786
0.000201586
0.000147614
0.000163369
0.00014863
0.000114786
0.00540239
0.000197108
0.00014235
0.0273067
0.0144367
0.000144972
0.000214989
0.000142382
0.0201832
0.059531
0.000161015
0.0195039
0.000103565
0.000212661
0.0137757
0.000139073
0.000146886
0.000188473
0.0206483
0.0110357
0.000184163
0.000141974
0.00298446
0.0204444
0.000152405
0.000154397
0.0170582
0.000179084
0.000155072
0.000666635
0.000143697
0.000155045
0.000144529
0.00014426
0.000145925
0.0158205
0.000218253
0.0091443
0.000200555
0.00014485
0.000146622
0.000143666
0.00016363
0.000202618
0.020111
0.000191045
0.00022456
0.000191653
0.018797
0.000188569
0.000153553
0.00827774
0.000194037
0.000308241
0.000150386
0.0283022
0.0002159
0.0557037
0.0171301
0.000190197
0.000161168
0.0766949
0.000141533
6.36351e-05
0.00024851
0.000189742
0.00270712
0.000772005
0.00522018
0.000188104
0.026668
0.000167209
0.0189419
0.0314671
0.102797
0.00014434
0.0255585
0.000146738
0.000170634
0.000201662
0.000174692
0.000209798
0.000133096
0.0001766
0.0120814
0.000193068
0.000188924
0.0219241
0.000123085
0.00393361
0.000319501
0.0114886
0.000137896
0.000143548
0.0620811
0.000147108
0.000137811
0.00015444
0.000156362
0.00325434
0.00018591
0.000149213
0.000163695
0.000188996
0.00547302
0.0930365
0.000212617
0.000209161
0.000191892
0.000242059
0.000196625
0.000144925
0.0201616
0.017993
0.000176711
0.0836981
0.0012515
0.000157671
0.0333303
0.000230738
0.000200341
0.000148944
0.000189174
0.0200534
0.000181817
0.0107387
0.000182772
0.0090493
0.101665
0.000151999
0.000143747
0.000194861
0.0122691
0.00516386
0.000167478
0.000906847
0.000196375
0.0252912
0.00016748
0.00470561
0.000180618
0.0777316
0.0297156
0.000197963
0.000955882
0.000309487
0.000209831
0.0393835
0.000148091
0.000255769
0.000195993
0.0206211
2.08512e-05
0.000186577
0.000147926
0.000146727
0.000195421
0.000162245
0.000159799
0.000180414
0.000143153
0.00142991
0.000215752
0.000193172
0.00797736
0.00208754
0.00014367
0.041731
0.0565729
0.000185327
0.00109244
0.0290414
0.000163137
0.000480331
0.000783077
0.000169726
0.0256161
0.00014936
0.102948
0.000184266
0.0319231
0.0266235
0.0551218
0.000143939
0.0127399
0.000217937
0.000221389
0.0001627
0.0229038
0.020855
0.000180967
0.000183963
0.000159162
0.000150515
0.000190208
0.00019658
0.000545929
0.000175535
0.00495736
0.000146151
0.000217512
0.000163316
0.000639508
0.0217951
0.000201597
0.0997354
0.000204729
0.000177994
0.000170944
0.000148681
0.000147746
0.000158557
0.0252889
0.000171931
0.000143915
0.000166336
0.000146199
0.000155295
0.000248214
0.000141912
0.000195614
0.000160828
0.081631
0.0184309
0.000184803
0.00240075
0.0195055
0.000178834
0.080289
0.000167751
0.000140435
0.000141543
0.000180096
0.0213099
0.000175097
0.00017734
0.000196135
0.00020883
0.000196117
0.047699
1.68699e-05
0.000143424
0.000214148
0.000153704
0.000181089
0.0395307
0.000814376
0.000146298
0.000460911
0.000142638
0.000155918
0.0813259
0.000143423
0.000250437
5.71662e-05
0.000195319
0.000147476
0.0228539
0.000189745
0.000290803
0.000194583
0.000202469
0.000188193
0.101728
0.000145333
0.00196961
0.000151558
0.03137
0.0224976
0.00932862
0.000195298
0.000267736
0.000158699
0.000172043
0.000158062
0.00021367
0.00962368
0.000179703
0.000241678
2.44886e-05
0.000141445
0.000143836
0.0918892
0.000389137
0.000144504
0.000864695
0.000143477
0.000177499
0.000188425
0.0996545
0.0973645
0.000178611
0.000189924
0.00079643
0.000169703
0.00425622
0.000144925
0.000163052
0.0275552
0.0588352
0.0002357
0.000145492
0.000158955
0.000144033
0.0001501
0.0275589
0.0425362
0.000189505
0.000184893
0.000146504
0.000241666
0.00186366
0.000240527
0.0293381
0.000204714
0.000158141
0.00445205
0.0293482
0.000422175
0.000147294
0.0180546
0.00439896
0.000252016
0.00036554
0.00540195
0.000143056
0.000179168
0.000167953
0.000183918
0.000198233
0.000143706
0.000194878
0.000145809
0.000188391
0.0184355
0.00018975
0.000170114
0.0406414
0.000145872
0.0171309
0.000158878
0.000151141
0.000228242
0.000184134
0.000159847
0.000178656
0.00019453
0.000143398
0.00575921
0.000156432
0.00024846
0.000158281
0.000147098
0.000181277
0.000153162
0.000164795
0.000171458
0.000177155
0.00170742
0.000149495
0.000167961
0.00401585
0.000186028
0.000161997
0.000166941
0.000207622
0.000176009
0.000195386
0.000143697
0.00905397
0.000132725
0.0052187
0.0241685
0.000215539
0.00126519
0.0198454
0.000171141
0.000173364
0.000351986
0.0226697
0.0718729
0.000164749
0.000202635
0.00014644
0.000170759
0.000146102
0.000161789
0.000158341
0.000146101
0.000198833
0.00230199
0.000148451
0.000194634
0.000139622
0.0662604
0.0194586
0.000141498
0.000221487
0.00336185
0.000193711
0.00015051
0.0104389
0.0475554
0.000137964
0.00018777
0.000153138
0.000191783
0.000195383
0.000186907
0.000191539
0.000160985
0.000193636
0.000152734
0.0267936
0.0742916
0.0930619
0.000189027
0.000170848
0.000177472
0.102243
0.000178399
0.000158189
0.00015002
0.000193481
0.000216073
0.000191986
0.000150431
0.000145649
0.000202291
0.000149724
0.00361024
0.00017792
0.0588491
0.00016407
0.000140049
0.000181207
0.000533931
0.000258947
0.000145689
0.000187444
0.0533541
0.000155217
0.000145777
0.000191149
0.0355833
0.000598838
0.000170369
0.00018734
0.0270466
0.00435216
0.000193756
0.000169453
0.000165523
0.0122874
0.000189359
0.000143182
0.00013964
0.00020168
0.000173979
0.0502096
0.000155863
0.00016798
0.000162274
0.000149115
0.0597789
0.000179353
0.000190185
0.000204498
0.0207148
0.0605888
0.00712007
0.100839
0.000161619
0.000157744
0.000677755
0.000155647
0.00851013
0.0840732
0.103502
0.000335043
0.000140048
0.000158645
0.000144539
0.000160994
0.000177442
0.0178043
0.000213821
0.000190239
0.00014721
0.000179385
0.000181405
8.36361e-05
0.000145033
0.000170812
0.00025063
0.0801293
0.00197674
0.0164463
0.000212463
0.0126762
0.000144832
0.000180498
0.0786572
0.000160099
0.0260177
0.000179935
0.00118581
0.000198447
0.000150385
0.000195109
0.000154775
0.000135505
0.0263938
0.000193129
0.0765573
0.000153
0.000160252
0.000150993
0.000169874
0.0316924
0.000142226
0.000143717
0.000140028
0.0288796
0.000222586
0.000219263
0.0328106
0.0581524
0.071111
0.000165552
0.000157705
0.00520066
0.0211282
0.000155534
0.000168659
0.000154604
0.000155292
0.000186839
0.000149701
0.000153206
0.0745314
0.00014425
0.000147394
0.00014233
0.013937
0.000217791
0.0582426
0.000158434
0.00014171
0.000143306
0.000170092
0.000149819
0.0109082
0.000153941
0.000146906
0.000160204
0.000155082
0.000148767
0.0724095
0.0253565
0.0804538
0.102863
0.000211719
0.000142482
3.34842e-05
0.000179387
0.000196433
0.000153405
0.000145897
0.00015594
0.000217414
0.000173231
0.000330915
0.0262121
0.00193673
0.00017976
0.00016561
0.000159577
0.00016839
0.000162064
0.0148495
0.000141828
0.0830762
0.000172377
0.00435839
0.0193033
0.000180177
0.0820294
0.000154166
0.000160367
0.000182247
0.000187358
0.000174436
0.000310099
0.000190358
0.000195752
0.00014294
0.000155018
0.0290728
0.0372712
0.000186962
0.000191473
0.000180425
0.000269577
0.000159284
0.00015329
0.000153931
0.0301296
0.000194118
0.000193321
0.00018624
0.000186975
0.00942829
0.000213604
0.000197759
0.000186938
0.0468885
0.00131946
0.000138952
0.0173909
0.00015909
0.0686048
0.000159738
0.000165996
0.0319321
0.00352962
0.000185298
0.000158722
0.000193174
0.00501043
0.0349154
0.000189027
0.0366773
0.000202281
0.00015409
0.000210517
0.00017881
0.000154086
0.000137873
0.00883553
0.0143872
0.000139776
0.000165304
0.000197252
0.000311183
0.000186996
0.000192629
0.000202729
0.0194601
0.0319544
0.000179125
0.000176825
0.000190828
0.000144931
0.000141391
0.000141098
0.0821396
0.0223364
0.000186459
0.000176546
0.00439595
0.0145827
0.000147505
0.000187644
0.100372
0.000142454
0.0146217
0.000160284
0.000204346
0.00015528
0.0354799
0.0575357
0.000156094
0.0632053
0.0156518
0.000166104
0.000168863
0.0781048
0.000158635
0.0164602
0.0969496
0.000138952
0.000185412
0.0463256
0.000153084
0.000143594
0.000213663
0.000187823
0.000144168
0.0153727
0.052475
0.000153356
0.0616947
0.0675421
0.00017788
0.000144503
0.068957
0.000137685
0.00014348
0.000152773
0.00015061
0.0419103
0.0496308
0.0164208
0.000191364
0.055904
0.000141195
0.0435143
0.0045853
0.00013876
0.000143894
0.000197418
0.000181712
0.000141685
0.00466321
0.0302253
0.000204313
0.000140441
0.0564358
0.000209583
0.000165709
0.00102443
0.000138085
0.000152189
0.000183536
0.000322008
0.0351054
0.0689549
0.000213889
0.000154359
0.010966
0.000224314
0.000139808
5.03776e-05
0.000180408
0.000143745
0.000144782
0.0209952
0.000159052
0.000240239
0.064674
0.000190694
0.000173216
0.000152716
0.000264554
0.0585464
0.0599828
0.000144977
0.0186703
0.000209875
0.0460187
0.000155395
0.0074031
0.000151222
0.000151809
0.00020491
0.000346614
0.000517417
0.0117363
0.00018448
0.000210115
0.000163468
0.000181112
0.000144119
0.00469844
0.000154421
0.000101694
0.000191525
0.000139765
0.00822473
0.000189993
0.0735059
0.000228268
0.000138524
0.000484022
0.000237005
0.000147196
0.000378501
8.1849e-05
0.000108215
0.0337203
0.000174258
0.000163611
0.00015674
0.000190013
0.000200285
0.000199561
0.000213149
4.93909e-05
0.0136705
0.0194658
0.000145326
0.000152241
0.000162718
0.0369637
0.000161646
0.000148416
0.0656834
0.000147277
0.000146209
0.000142008
0.10218
0.0259399
0.000142287
0.000195307
0.00014578
0.000333188
4.83071e-05
0.0471275
0.0188581
0.000204892
0.000147543
0.0312395
0.00859394
0.00756775
0.014487
0.0278768
0.000145935
0.000140995
0.000203163
0.000140838
0.000235037
0.000370092
0.000150767
0.000108199
0.00016659
0.000143723
0.000230471
0.000164802
0.000177757
0.000148907
0.0657956
0.000143507
2.9781e-05
0.000192109
0.000494573
0.000153043
0.0748033
0.000290267
6.04218e-05
0.0278019
0.000185011
0.00013804
0.000216981
0.077957
0.000183522
0.000190858
0.000142122
6.25119e-06
0.000149759
0.000197407
0.000167553
0.0001531
0.0803591
0.000189996
0.0163341
0.000188976
0.000141342
0.000204113
0.000137145
0.0001507
0.00016665
0.00432563
0.000159144
0.0699431
0.000470111
0.00063906
0.000180319
0.000157535
0.000165831
0.011263
0.0297039
0.00594471
0.00014684
0.000190001
0.000193933
0.000158834
0.00649085
0.000150627
0.000154625
0.000167704
0.000146632
0.00015226
0.000208708
0.000194345
0.000169702
0.000144438
0.000146902
0.0391407
0.000287183
0.000168648
0.000165767
0.000309493
0.000154178
0.00179829
0.0107566
0.000189059
0.000208741
0.000456302
0.000207137
0.0320539
0.00020192
0.000198302
0.00021727
0.000146052
0.000178722
0.000191072
0.000212212
0.051918
0.000234303
0.000158437
0.000151958
0.00015288
0.0327883
0.000216566
0.00301099
0.000157205
0.031487
0.000200112
0.00463847
0.000185859
0.000977859
0.0227966
0.00017603
0.000182553
0.000148365
0.00017927
3.25996e-05
0.000138355
0.000805796
0.000179016
0.00017938
0.000204369
0.000152896
0.000139128
0.00154421
0.000209788
0.000183321
0.000121148
0.000205112
0.000202656
0.000181509
0.0106202
0.000155321
0.000363738
0.00013803
0.000209084
0.000234192
0.00017874
0.000183406
0.0352639
0.00300715
0.000140414
0.00651288
0.0415611
0.000147625
0.000147607
0.000190025
0.000147323
0.000175244
0.000138677
0.000275777
0.000210299
0.0291158
0.0543584
0.000187952
0.000388417
0.00015168
0.000184138
0.066852
3.469e-05
0.000190212
0.00019456
0.000144679
0.000145333
0.000186271
0.000188734
0.000144545
0.0143284
0.000197614
0.069218
0.00138978
0.000195412
0.000148656
0.000149394
0.00345311
0.000144955
0.000144085
0.000195975
0.000139377
0.0241518
0.000183089
0.000182745
0.000175648
0.000164867
0.000217082
0.079251
0.000178718
0.000187141
0.00478567
0.000145903
0.00349283
0.000167769
0.0205443
0.00651112
0.000270363
0.000139716
0.000163344
0.000165857
0.000217576
0.00404514
0.000187485
0.00161872
0.000147819
0.000158566
0.000198464
0.0766243
0.000160615
0.000196052
0.000196563
0.000171977
0.00192916
0.0124638
0.000171151
4.03809e-05
0.000150703
0.000248894
0.000171172
0.00547708
0.000197889
0.000169327
0.000179957
0.000189122
0.000160822
0.000195181
0.000217233
0.0641949
0.00346487
0.000146148
0.0414841
0.000263159
0.0010532
0.000135006
0.000161143
5.41893e-05
0.000156613
0.000193998
0.000186471
0.000143787
0.0151476
2.10541e-05
0.0423759
0.000171053
0.000196336
0.00018682
0.00039945
0.000147006
0.000143479
0.0744186
0.000171966
0.000186154
0.00417881
0.00014368
0.000190017
0.000166297
0.000185508
0.000214339
0.000191173
0.000163677
0.000172287
3.4088e-05
0.0303082
0.000215793
0.0419477
0.00025389
0.000143858
0.000107092
0.00495685
0.000201394
0.000192663
0.00019898
0.00014219
0.000153145
0.0724479
0.000191884
0.00242127
0.000147227
0.000953973
0.000193791
1.35938e-06
0.00014789
0.000185388
0.0067111
0.00013506
0.000137936
0.00372276
0.000191627
0.0509694
0.000192999
0.00348928
0.000234878
0.000208879
0.000196735
0.000143063
0.000161584
0.00161664
0.00382292
0.00377409
0.000159299
0.000193907
0.00107778
0.0220576
0.0734902
0.00222856
0.000169702
0.00023025
0.000179982
0.0450141
0.000222978
5.62792e-05
0.0364579
0.000161881
0.000179521
0.000193884
3.79313e-05
0.000151147
0.000299681
0.000175889
0.000203108
0.000199604
0.0201508
0.000171139
0.00013784
0.000172141
0.00913257
0.000204195
0.00540443
0.00400507
6.86851e-05
0.000165208
0.000178232
0.000184774
0.000154448
0.000186473
0.000143441
0.000149344
0.000191707
0.000140993
0.000195021
0.00018645
0.0623553
0.000154692
0.000144143
0.0228766
0.0012687
0.00014513
3.48509e-05
0.000186895
0.02948
0.000145703
0.00981618
0.000188519
0.000185722
0.000171966
0.000194822
0.000213904
0.000147132
0.000173539
0.000147664
0.000215764
0.000191568