/*--------------------------------*- C++ -*----------------------------------*\
| =========                 |                                                 |
| \\      /  F ield         | OpenFOAM: The Open Source CFD Toolbox           |
|  \\    /   O peration     | Version:  v2012                                 |
|   \\  /    A nd           | Website:  www.openfoam.com                      |
|    \\/     M anipulation  |                                                 |
\*---------------------------------------------------------------------------*/
FoamFile
{
    version     2.0;
    format      ascii;
    class       volVectorField;
    location    "150";
    object      U;
}
// * * * * * * * * * * * * * * * * * * * * * * * * * * * * * * * * * * * * * //

dimensions      [0 1 -1 0 0 0 0];


internalField   nonuniform List<vector> 
14479
(
(0.698105 -0.628917 -2.80696e-20)
(1.05817 0.166534 0)
(1.10983 0.170058 0)
(1.0458 0.000972439 0)
(1.1116 0.0541134 0)
(1.05436 0.0005605 9.35225e-21)
(1.06405 -0.00201603 -1.99765e-21)
(1.19647 0.121297 1.60524e-22)
(1.13051 0.12281 1.84e-21)
(1.12926 0.145345 -6.58421e-22)
(1.05839 0.0145232 1.43667e-21)
(1.07517 0.0811224 -3.53096e-21)
(0.94969 -0.0113964 1.34724e-20)
(0.818575 -0.14809 0)
(0.920875 0.355796 0)
(1.05599 -0.000311091 0)
(1.06385 -0.00234687 0)
(0.991348 0.348253 4.51199e-21)
(1.03502 0.00811464 7.81032e-21)
(1.02373 0.033547 1.03335e-20)
(1.13871 0.0787553 1.24648e-20)
(1.10945 0.0594337 0)
(1.18305 0.16554 2.2479e-21)
(-0.0120605 0.455374 7.65495e-21)
(1.05715 0.0154713 -1.66665e-20)
(1.03368 0.00974839 -1.71665e-20)
(1.14663 0.123773 0)
(1.12899 0.121311 0)
(1.03905 0.0155994 1.46589e-20)
(1.14712 0.126246 -1.28922e-21)
(1.11403 0.168462 -1.48983e-21)
(-0.0074175 0.496068 0)
(1.0862 0.0138736 0)
(1.08678 0.0162212 0)
(1.08109 0.174693 -1.79247e-21)
(1.03292 -0.0905172 6.04673e-21)
(1.05967 0.0170841 1.57258e-21)
(1.05668 -0.000466947 0)
(1.05686 -0.0536258 -1.64145e-21)
(1.12141 -0.0579765 0)
(1.05538 -0.00024244 5.17859e-21)
(1.05386 0.0139734 1.34687e-20)
(1.08941 -0.0411763 1.83878e-21)
(1.08457 -0.0374564 0)
(1.06066 0.0162012 5.64269e-21)
(1.05364 0.000765358 -4.87988e-21)
(1.03228 0.00159093 1.28324e-20)
(1.25871 -0.283585 0)
(1.10428 0.0999242 0)
(1.05503 0.0135947 2.36362e-20)
(0.932619 0.158895 1.3268e-21)
(1.12824 0.12019 -2.08771e-21)
(1.03509 0.00721044 1.35037e-20)
(0.931586 0.158841 -1.19447e-22)
(1.18201 0.152029 -2.74483e-21)
(1.08729 0.0748637 2.12334e-20)
(1.02508 -0.10706 -5.84775e-21)
(1.04895 0.0158297 -1.16322e-20)
(0.904106 0.0624865 0)
(1.04876 0.0163624 -1.06419e-20)
(1.03639 0.00650722 0)
(1.03362 0.00731247 0)
(0.943653 -0.586632 2.16253e-20)
(1.03342 0.00631197 0)
(1.06485 -0.00122339 4.4976e-21)
(1.07528 0.524065 -7.70206e-21)
(1.24962 -0.336214 -5.81754e-20)
(0.792273 0.327311 5.73376e-20)
(1.03534 0.00693861 -1.38905e-20)
(1.03942 0.0163281 -8.40795e-21)
(0.784236 -0.428544 0)
(1.03177 0.00146225 -2.60594e-20)
(0.986871 0.164709 0)
(1.12785 -0.0625805 0)
(1.03358 0.0114513 0)
(1.03284 0.00160976 3.0966e-20)
(1.05019 -0.0150348 1.2243e-20)
(0.98505 -0.565597 1.35088e-20)
(1.04317 0.00953498 1.56251e-20)
(1.27859 0.269735 -4.58264e-20)
(1.03517 0.00858247 -1.56992e-20)
(1.20299 -0.110162 0)
(0.788144 0.296337 6.85883e-21)
(1.1314 0.162226 0)
(1.00813 0.120306 1.00116e-20)
(1.04894 0.0201604 -1.29987e-20)
(1.05129 0.0171569 1.28303e-20)
(1.06478 -0.00145495 6.57458e-21)
(1.20068 0.134046 0)
(1.04771 0.00445367 0)
(1.13 0.120468 -1.99173e-21)
(1.23693 0.0794519 1.18184e-19)
(0.179144 0.850123 -5.98777e-20)
(1.03318 0.00590359 0)
(1.00292 0.0350949 8.39328e-21)
(1.0314 0.00166512 1.06295e-20)
(1.04298 0.00972262 -3.41296e-20)
(1.05796 3.07494e-05 0)
(1.05202 0.00490619 1.01263e-20)
(0.842137 -0.127667 1.05547e-21)
(0.688259 -0.376653 4.75092e-21)
(1.05576 -0.000185501 7.54291e-21)
(0.931527 0.157446 4.4806e-22)
(1.06244 0.172684 0)
(0.693805 0.173576 1.2735e-21)
(1.15538 0.165223 -1.00325e-20)
(0.690609 -0.145413 9.45224e-21)
(1.09138 0.00898744 -1.65513e-21)
(1.11497 0.168249 2.50563e-21)
(0.853347 -0.142175 2.90611e-21)
(0.724922 -0.15487 -1.36996e-20)
(0.924705 0.342428 0)
(1.09486 -0.0133123 2.72239e-21)
(1.10116 0.0625352 0)
(1.131 0.123394 0)
(1.0971 0.123547 -5.00097e-21)
(1.02479 0.00143211 -1.01406e-20)
(1.34745 -0.381906 3.9151e-20)
(1.03561 0.000482574 0)
(1.03271 0.00584049 1.28293e-21)
(1.02425 0.00179558 -3.59342e-21)
(0.701521 0.31751 0)
(0.936134 0.158345 3.12821e-22)
(1.05248 0.00495959 0)
(0.999195 0.0109983 1.33868e-20)
(1.09615 -0.0103384 -2.70088e-21)
(1.04671 0.00417624 1.06936e-21)
(0.763995 -0.419795 0)
(1.08917 -0.0219282 4.81596e-21)
(1.02465 -0.0409557 7.49367e-21)
(1.27138 0.123235 1.27376e-20)
(-0.067274 0.0119047 -6.49987e-20)
(1.1156 0.169585 -1.36301e-21)
(1.23286 -0.418228 5.44649e-20)
(1.18334 0.0567697 -2.73805e-20)
(1.11815 0.0232165 -5.28891e-21)
(1.31848 0.0703972 2.21784e-20)
(1.21632 -0.0902575 1.27506e-21)
(0.722927 -0.600048 3.87724e-20)
(1.12916 0.164668 6.65856e-21)
(1.11597 -0.30381 8.18094e-23)
(0.444045 0.607903 2.03557e-20)
(1.05709 -0.00292777 0)
(1.09526 -0.318299 0)
(1.03493 0.00867191 -6.61604e-22)
(1.13938 0.0246247 -1.54765e-20)
(0.418792 0.564356 -1.66019e-20)
(1.06556 0.0234297 0)
(1.25635 0.0915116 -8.98401e-21)
(0.993151 -0.135575 0)
(0.940193 -0.0762927 2.45796e-20)
(1.03749 0.00699701 0)
(0.983405 0.0574716 0)
(1.06854 0.0230675 0)
(1.03339 0.0100176 -1.86976e-20)
(1.05698 -0.00240169 3.53366e-21)
(0.845243 -0.201688 1.86556e-20)
(-0.0376719 -0.0250792 -8.01499e-21)
(0.865861 -0.107052 5.17417e-21)
(1.12034 0.028053 0)
(1.14078 -0.0613208 -4.97625e-22)
(1.0585 -0.00106974 -3.62284e-21)
(1.0372 0.00670823 -1.512e-20)
(1.09577 0.0375454 -2.69749e-20)
(0.942261 0.0664886 3.92491e-21)
(1.0595 -0.000693972 -2.03285e-22)
(1.03761 0.00790163 7.63625e-21)
(1.213 0.05012 -5.4005e-21)
(1.12247 0.142159 0)
(0.879276 -0.119787 -9.56899e-21)
(1.00932 0.677725 -1.26402e-20)
(1.0841 0.101395 1.83215e-20)
(1.05564 -0.000360378 -3.35741e-21)
(0.953155 -0.0010055 -7.25217e-21)
(1.05481 0.00192568 -1.17584e-20)
(1.0169 0.0371732 -9.91037e-21)
(1.11894 0.0160438 -9.24352e-21)
(1.04134 0.0023203 0)
(1.10378 -0.000909818 2.72331e-22)
(1.21445 -0.485124 1.60867e-20)
(1.09557 0.121529 -4.35602e-21)
(1.06425 0.00337961 1.32638e-22)
(0.830724 -0.158794 0)
(1.09031 -0.0161756 2.88473e-21)
(1.08147 -0.0551381 -1.42507e-21)
(1.07004 0.00692316 7.33309e-22)
(1.1301 0.162633 -3.39563e-21)
(-0.0411743 -0.0251101 3.7349e-22)
(1.04622 0.01261 -4.26171e-21)
(0.780749 0.134494 0)
(0.0995764 0.24478 0)
(0.868499 -0.012531 0)
(1.08592 0.581955 -5.96241e-20)
(0.989417 0.355221 0)
(1.0551 -0.000331496 0)
(1.08431 0.100982 -2.19139e-20)
(1.06733 0.0103396 1.20092e-20)
(1.10229 -0.00239578 -3.16843e-22)
(1.09712 0.0539194 0)
(1.03717 0.00653422 2.81193e-20)
(0.985761 -0.121454 2.35555e-20)
(1.05701 0.00664041 0)
(1.04795 -0.0176079 -1.80577e-20)
(1.03747 0.00787753 0)
(1.0647 -0.0455781 -1.16528e-20)
(1.04984 -0.000439375 9.8457e-22)
(1.07626 0.0414997 3.45518e-21)
(1.05466 -0.000184169 -3.18341e-22)
(1.0598 -0.00240732 -6.86942e-21)
(1.06518 -0.0470924 3.86629e-21)
(1.08598 0.0733509 0)
(1.03829 0.00757531 0)
(1.06854 -0.0395687 -8.03944e-21)
(1.06597 -0.0384556 -8.23182e-21)
(1.09404 0.115487 2.70783e-21)
(0.884855 0.0778681 -1.44565e-21)
(1.36678 0.0687512 6.90196e-20)
(1.0419 -0.0311758 4.00876e-21)
(0.87031 0.051287 1.81812e-21)
(1.08758 0.116427 1.26514e-20)
(0.908118 0.316889 1.54334e-21)
(0.726769 0.127319 -1.44389e-20)
(1.05721 0.00908416 1.61751e-22)
(1.08856 -0.0187233 0)
(0.760473 0.116728 1.77857e-20)
(1.03409 0.000603009 1.88855e-20)
(0.796473 0.272778 -4.39806e-20)
(1.03757 0.00322756 -3.58502e-20)
(1.11019 0.133331 0)
(1.06203 -0.0173492 -2.17018e-21)
(1.03396 0.00570535 -1.03863e-20)
(1.06349 -0.0172918 2.16583e-21)
(1.05373 -0.0479224 0)
(1.06935 0.0190651 1.08095e-20)
(1.05743 6.47027e-05 2.31505e-21)
(0.363416 0.352398 4.4356e-21)
(1.03494 0.0314047 -1.65754e-20)
(1.18038 0.109278 4.53162e-23)
(-0.0490244 -0.0205314 3.61179e-20)
(1.03512 0.00794398 9.79419e-21)
(1.04492 0.0044832 0)
(1.03683 0.00632404 -3.85298e-21)
(1.14088 0.117738 0)
(1.0566 0.0128347 0)
(1.07086 0.00568864 -7.27803e-22)
(1.24362 -0.091841 2.29484e-20)
(0.734053 -0.679804 2.17829e-19)
(0.934134 0.304894 0)
(1.03357 0.00657357 4.99537e-21)
(1.03437 0.00947478 1.18108e-20)
(0.992255 0.0435122 -4.51134e-21)
(1.08078 0.0165327 0)
(1.08725 -0.0262722 2.04621e-21)
(1.12885 0.145864 0)
(1.05473 -0.0470417 -4.92435e-23)
(1.0507 0.00288636 0)
(1.06699 -0.0314791 -7.99571e-21)
(1.05989 -0.00268187 -7.00102e-21)
(1.03744 -0.0196738 0)
(1.03254 0.0100946 0)
(1.03797 0.003331 1.60392e-20)
(1.04599 0.00399215 0)
(1.03285 0.00993886 -1.85488e-20)
(1.0428 0.00241592 -1.60553e-20)
(1.04476 0.00613866 1.76377e-20)
(1.0899 -0.0184497 0)
(1.09632 0.0448964 2.39258e-20)
(1.03417 0.0097998 4.16389e-23)
(0.716985 -0.611148 -1.50664e-19)
(1.14249 0.047255 -4.62762e-21)
(1.11083 0.132031 0)
(1.04962 -0.000521175 -1.03921e-21)
(0.728137 0.375742 -4.18874e-23)
(1.08143 0.102327 1.34732e-22)
(1.21859 0.0344325 -1.45908e-21)
(1.14377 0.230509 0)
(1.17633 0.112144 0)
(1.05933 -0.00299896 0)
(1.09908 0.059082 0)
(1.03979 -0.00908606 1.9075e-20)
(1.19069 -0.131014 -1.55684e-20)
(1.03252 5.57198e-05 0)
(1.04609 0.00329298 -9.46082e-21)
(1.05966 0.00836126 6.41994e-21)
(1.14711 0.144609 0)
(1.05364 0.12946 -1.28864e-20)
(1.11161 0.128484 0)
(1.12718 0.162819 -9.06262e-21)
(1.09138 0.0867421 0)
(0.751199 -0.537233 -2.22796e-20)
(1.13468 0.133643 -1.51253e-21)
(1.03415 0.0116132 0)
(1.03377 -0.0172571 1.40864e-20)
(0.989918 0.0192141 -1.43922e-20)
(1.03698 0.026627 1.76446e-20)
(0.841546 0.307751 8.24088e-21)
(0.246809 0.60235 -5.01941e-20)
(1.04643 0.00888975 -4.96401e-22)
(1.13598 0.0021613 -2.1128e-21)
(1.16582 0.220891 -3.22667e-21)
(0.118224 0.255463 0)
(1.2362 0.183824 0)
(1.04506 0.0057235 0)
(1.03583 0.0119533 0)
(1.10391 0.0892124 -8.79206e-21)
(1.10084 -0.634764 -6.12888e-20)
(1.05864 -0.00109064 0)
(0.744086 -0.435854 2.70838e-20)
(1.06024 -0.00230499 0)
(1.13057 0.123175 0)
(1.05212 -0.000502562 0)
(0.723817 -0.433039 -2.50362e-20)
(1.06077 0.0286454 -1.97535e-20)
(1.06465 0.024874 0)
(1.1037 0.0903438 1.01073e-20)
(0.994056 0.115623 4.78957e-21)
(0.873053 0.00242197 8.49267e-21)
(1.06934 0.0535589 2.75904e-20)
(1.10104 0.091643 0)
(1.05987 -0.000146297 4.00729e-21)
(0.2494 0.296709 -6.25462e-22)
(1.142 0.118207 4.14698e-21)
(1.11312 -0.504378 1.00098e-19)
(0.929076 0.0754882 -9.24144e-21)
(1.03687 0.00642117 -1.56044e-20)
(0.400715 0.305711 -1.45918e-21)
(0.0991369 -0.0632988 2.45291e-21)
(1.00182 0.162343 3.58766e-20)
(0.951867 -0.015723 1.50672e-20)
(1.03849 -0.0087677 1.8292e-20)
(1.14633 0.189297 6.12943e-21)
(1.0657 0.0105128 -2.77555e-20)
(1.02932 -0.0100871 -2.74199e-20)
(1.08631 0.135707 1.85084e-20)
(1.04801 0.000927171 0)
(1.04508 0.00296934 0)
(0.774059 0.44196 0)
(1.08715 -0.0163902 9.41342e-21)
(1.0352 0.0263347 -1.87797e-20)
(1.03236 0.00537328 -1.6297e-21)
(1.03739 0.00667893 0)
(1.09213 0.0559747 1.43603e-20)
(1.06008 -0.00197985 -1.21909e-22)
(1.08958 0.115005 1.7869e-20)
(1.18685 0.190642 5.20916e-21)
(1.08621 0.077007 -2.76232e-20)
(1.28013 -0.342607 -2.78914e-20)
(1.09916 0.0923727 3.80557e-21)
(1.11631 0.131667 -1.21567e-21)
(1.04285 -0.0342309 0)
(1.03117 0.00927443 0)
(1.17718 -0.0545562 0)
(0.978661 0.163884 -1.58604e-22)
(0.176677 0.870441 1.40325e-19)
(1.02074 -0.0279075 0)
(1.07523 -0.66887 0)
(1.09355 0.117636 4.17695e-21)
(0.180481 -0.00239553 1.92385e-20)
(1.03687 0.00659158 1.75979e-20)
(-0.0992916 0.0788808 -9.42936e-21)
(1.06045 -0.00909815 -4.67857e-21)
(0.898171 0.0211555 -3.72686e-20)
(0.99329 0.116699 0)
(0.652102 -0.248414 -1.5824e-20)
(1.06028 0.0264287 1.35471e-20)
(1.05922 -0.0084677 0)
(1.06433 -0.0037083 0)
(1.04863 0.000165813 0)
(1.09395 0.138529 -1.14855e-20)
(1.06464 -0.00346093 2.27456e-21)
(1.04528 0.00106697 -6.48853e-21)
(1.06088 -0.0534381 0)
(1.05579 -0.000351035 -5.41353e-21)
(1.20271 -0.116495 1.70168e-20)
(0.812669 0.311711 -4.07978e-21)
(1.14671 0.164207 -1.95313e-22)
(1.0343 0.00711721 0)
(1.21229 0.118748 0)
(1.09166 0.0619287 -4.93609e-21)
(1.04427 0.00859962 2.2533e-20)
(1.10699 0.0874496 1.01486e-22)
(1.20452 0.0460347 6.2255e-21)
(1.03095 0.00899425 1.37932e-22)
(1.0594 0.00591233 -1.36857e-20)
(0.963581 0.16347 5.75413e-21)
(1.09514 0.0162936 0)
(-0.0224469 0.0825633 2.1259e-20)
(1.0383 0.00753931 -2.6833e-20)
(1.02576 -0.0439279 -7.68738e-21)
(1.08468 0.0288885 -7.54659e-21)
(1.21607 0.130232 3.33639e-21)
(1.15934 -0.0267798 -9.26995e-21)
(1.06331 0.0265466 -3.06355e-20)
(1.25317 -0.474954 7.11969e-20)
(1.19707 0.183971 -3.88068e-21)
(1.04609 -0.0258088 -1.17922e-20)
(1.05942 0.0114055 0)
(0.806808 -0.196135 3.32731e-21)
(0.966964 -0.128976 -1.19734e-21)
(1.1449 0.13947 -6.97478e-21)
(1.12678 0.0985361 -8.75038e-21)
(1.14235 0.116621 3.57627e-21)
(1.13667 0.00700754 2.58127e-21)
(1.26603 0.0615063 1.70494e-21)
(1.09486 -0.0843604 -4.56027e-21)
(1.03259 -0.00908094 0)
(0.951485 0.00302913 7.82888e-21)
(1.1072 0.0872751 0)
(0.986899 0.164928 0)
(1.10967 0.108027 0)
(1.09502 0.122498 0)
(1.12946 0.203757 1.26872e-20)
(1.09015 -0.0240906 -8.06881e-21)
(0.974564 -0.14242 -1.26075e-20)
(1.03731 0.0095343 -4.23116e-20)
(0.840204 -0.408219 7.95592e-21)
(1.04047 0.0140982 1.60448e-20)
(1.05179 0.0133135 1.9408e-20)
(-0.0540053 0.0042841 5.27762e-20)
(1.24238 -0.0886164 0)
(1.0811 -0.0408587 0)
(0.824099 0.267326 -3.0141e-21)
(-0.0109203 0.0785544 -1.8331e-20)
(0.868201 -0.415568 0)
(0.22287 0.833573 -5.61391e-20)
(1.04587 0.0078891 0)
(1.06465 0.0269723 3.18268e-20)
(1.08786 -0.0141935 0)
(1.06455 -0.00455609 0)
(1.06231 0.0168433 -2.27101e-20)
(1.04632 0.0159292 2.18424e-20)
(1.15565 -0.000551911 -3.17492e-22)
(1.33603 0.262501 0)
(0.88996 -0.0954968 0)
(-0.0473917 -0.029442 1.9622e-20)
(1.09182 0.114961 -3.17171e-20)
(0.8511 0.214944 0)
(1.20671 0.124088 8.20918e-22)
(1.09163 0.139802 1.37323e-20)
(1.03705 0.00682095 0)
(0.766216 -0.64934 -4.33723e-20)
(1.05943 -0.00261798 0)
(1.06734 0.0173176 -5.98734e-21)
(0.668527 0.286849 -6.32947e-23)
(1.03545 0.0113521 1.74373e-20)
(1.04255 0.0023873 -7.30138e-21)
(1.06227 0.00313483 0)
(0.809369 -0.194652 -6.41548e-21)
(1.0194 -0.0271759 -7.17773e-21)
(1.04769 0.0178423 -2.42122e-20)
(1.0636 0.02159 -8.35409e-21)
(1.03436 0.00787727 0)
(0.964077 0.0202657 1.7146e-20)
(1.09086 0.0446248 -8.54126e-21)
(0.956818 0.0165934 5.83428e-21)
(1.12724 0.0987289 1.22614e-20)
(1.03654 0.0064861 -5.83866e-21)
(1.11055 0.170621 -2.92079e-22)
(0.876424 0.0527561 1.78516e-20)
(1.11148 0.171302 -8.37274e-23)
(1.21964 0.181263 -3.43155e-21)
(1.04002 0.0134295 0)
(1.05544 0.0209206 -1.39785e-20)
(1.10997 0.0198119 1.73648e-20)
(1.04675 0.324979 0)
(1.04166 0.00285254 0)
(1.14788 0.00381383 2.56136e-21)
(0.94559 0.156978 -4.08831e-22)
(0.808343 -0.625793 3.58084e-20)
(1.03645 0.00675259 -1.69965e-20)
(1.0379 0.00258149 -5.11554e-21)
(1.11072 0.148728 -2.59334e-22)
(1.05519 -0.000425065 1.23714e-21)
(1.05741 -0.000412881 0)
(0.946756 0.528445 -6.42267e-21)
(1.21841 0.425877 7.12655e-20)
(1.22031 0.0378363 0)
(1.18428 -0.350687 4.95436e-20)
(1.13656 0.0757247 3.39152e-22)
(1.03868 0.000856857 0)
(1.1148 0.12061 0)
(1.02515 -0.0948878 -1.07275e-20)
(1.03461 -0.0586152 0)
(1.07444 0.31475 0)
(1.15698 -0.00225646 7.37683e-23)
(1.0552 -0.00086823 2.61405e-22)
(1.06446 0.00268819 0)
(1.05346 0.0178139 -1.29836e-20)
(1.28679 -0.287798 -1.87227e-20)
(1.28802 0.00982785 -9.90781e-21)
(1.06048 -0.00165734 1.90743e-20)
(1.0597 -0.000369829 0)
(1.22405 0.157728 2.20184e-21)
(1.03772 0.00880004 1.11249e-20)
(1.05273 -0.000764325 -1.64129e-22)
(1.04872 0.016408 -1.13981e-20)
(1.05091 0.00281815 -1.78157e-21)
(1.33421 0.098401 -2.5348e-20)
(1.05865 -0.000824534 5.98862e-23)
(1.16036 0.150205 -4.22044e-21)
(1.05594 -0.0666801 1.1279e-20)
(1.24741 0.156749 0)
(1.11602 0.601899 -7.35403e-20)
(1.1006 -0.0864058 2.98973e-21)
(0.310981 0.349572 -1.54253e-21)
(1.12709 0.141971 0)
(1.14935 0.190007 0)
(0.606433 0.469243 -3.1948e-19)
(0.980531 0.0941259 0)
(1.05744 -0.000604877 1.48589e-21)
(1.04685 0.0158226 -2.38884e-20)
(1.03047 -0.00426469 7.07966e-21)
(1.06116 0.0103166 -7.11078e-21)
(1.13056 0.123051 -2.23782e-21)
(1.0456 0.0137536 0)
(1.27211 -0.319989 0)
(1.14546 0.120022 -4.02435e-21)
(1.06231 0.0282981 0)
(1.05345 -0.552985 -1.58701e-19)
(1.12266 0.142204 0)
(0.95149 0.525501 0)
(1.08497 0.0382679 7.86315e-21)
(1.03761 0.00260546 1.27697e-21)
(1.06908 -0.033887 8.09689e-21)
(1.04898 0.0158663 -2.84916e-21)
(1.1443 0.112055 -3.11926e-21)
(1.03663 0.00040122 9.84607e-21)
(1.09894 0.0585196 0)
(0.781163 0.0524655 3.39326e-21)
(1.05314 -0.000762711 2.93286e-21)
(0.458548 0.310019 0)
(0.94948 0.159881 0)
(1.07783 0.00436022 0)
(1.0602 -0.00143181 -1.17745e-20)
(1.0301 0.00890475 -9.62546e-21)
(1.05478 0.00114556 -4.06021e-21)
(1.05056 -0.021292 -8.31575e-21)
(1.04409 -0.00204291 0)
(1.14127 0.0803389 -6.38915e-21)
(1.11294 0.0200111 5.23595e-21)
(1.09235 0.0867015 0)
(0.698456 0.136659 1.72731e-20)
(1.0866 -0.0282794 0)
(1.03466 0.00927494 -1.13136e-20)
(0.805312 -0.116841 6.76766e-22)
(1.09454 0.0581136 1.98239e-20)
(1.03219 -0.0341834 -7.53259e-21)
(1.34677 -0.0845842 0)
(0.639565 -0.306746 -1.53403e-20)
(1.11185 -0.0200323 -1.17917e-20)
(1.01697 0.00176865 0)
(1.14687 0.178543 0)
(1.51034 -0.00800505 1.02379e-21)
(1.0376 0.000283129 1.79118e-21)
(1.08657 -0.0301068 0)
(1.0952 -0.038934 0)
(0.707466 -0.354769 -4.63703e-21)
(1.09254 0.12281 5.15189e-21)
(1.0379 0.000980166 -1.02941e-20)
(0.306192 0.609619 2.6232e-20)
(1.04818 -0.000376191 -3.64951e-22)
(1.04492 0.00919883 -3.17797e-20)
(1.04512 0.00104093 0)
(0.0588073 0.266741 1.83308e-21)
(1.13845 0.12229 2.44643e-21)
(1.04754 0.0183679 3.75942e-21)
(1.05606 -0.000357596 3.595e-21)
(1.07681 0.0371767 0)
(1.14312 0.0473918 -2.52569e-22)
(1.06161 -0.00059913 0)
(1.07763 -0.0499145 1.51757e-21)
(1.05342 -0.0122202 -4.82116e-21)
(1.02815 0.0289298 9.56459e-21)
(1.06449 -0.0121196 7.32494e-22)
(1.13002 0.00306228 -6.68722e-21)
(1.12427 0.146116 -8.45176e-22)
(0.354879 0.0175391 -3.86831e-20)
(1.05333 0.0125074 -2.2937e-20)
(1.148 0.205598 0)
(0.685435 -0.642428 3.74846e-20)
(0.629618 0.251965 0)
(1.05524 -0.0116395 5.50049e-21)
(1.07797 0.00367882 0)
(-0.127606 -0.0872371 0)
(1.05008 0.0185705 0)
(1.05345 -0.0489718 -1.83067e-21)
(1.0702 0.0537503 -2.79244e-20)
(1.02135 -0.0565309 8.28239e-21)
(0.911418 0.0624669 1.24991e-20)
(1.06007 0.0378603 7.26244e-21)
(1.13946 0.0397506 2.8145e-21)
(1.05747 -0.00025921 2.51489e-21)
(-0.0229229 0.51329 0)
(0.763462 -0.173167 6.95007e-21)
(1.02618 0.0445341 9.49469e-21)
(0.783314 -0.185558 1.36007e-21)
(1.31079 -0.342962 3.97094e-20)
(1.05917 9.62649e-05 0)
(1.32707 -0.0832816 -2.05065e-20)
(1.1092 -0.0315481 2.2974e-20)
(1.0354 0.0160642 0)
(1.12041 0.0204518 8.03174e-21)
(1.05448 -0.000182432 1.04172e-21)
(1.03292 0.031316 2.26165e-20)
(1.0661 0.021063 1.24627e-20)
(1.11332 0.130054 -1.47265e-21)
(1.29721 0.205581 -1.46359e-19)
(1.12188 0.101359 9.7857e-21)
(1.07952 -0.133968 -1.11228e-22)
(1.09844 0.0579312 -3.37723e-22)
(1.04689 -0.0560026 -3.4187e-21)
(1.10861 0.138401 1.47913e-21)
(-0.0753535 0.018555 2.46338e-20)
(1.01281 0.00336253 0)
(0.0238453 -0.0517572 2.68962e-21)
(0.677674 -0.573515 -2.67331e-20)
(1.04956 0.015203 1.57344e-20)
(1.13699 0.156352 0)
(1.0571 -0.000218554 5.28812e-21)
(1.00047 0.0668714 2.65245e-21)
(1.0325 -0.0530181 0)
(0.764019 -0.556814 1.82215e-20)
(1.12229 -0.00902664 3.33595e-21)
(0.878246 0.044953 0)
(1.03804 0.00814867 1.18949e-20)
(1.12311 0.119639 -5.313e-21)
(1.07389 0.0174495 1.1072e-21)
(0.763555 -0.162589 -1.51889e-20)
(1.06903 0.0195765 0)
(1.08312 0.0453068 0)
(1.01786 0.00981875 -1.98847e-20)
(1.05478 0.00188084 8.99096e-23)
(0.949079 0.152083 2.7584e-21)
(1.03541 -0.00460646 -7.38098e-21)
(1.06118 -0.00950168 0)
(1.22231 0.111758 7.28304e-21)
(1.05025 0.018053 1.34124e-20)
(1.09245 0.15105 0)
(0.804128 -0.096816 7.74567e-22)
(1.03297 0.00151164 -2.00297e-20)
(1.0809 0.0455393 0)
(1.03814 0.00837987 -2.39798e-20)
(-0.0410425 -0.00919877 0)
(0.598272 0.525358 -1.67051e-19)
(1.34248 -0.035528 0)
(0.667555 -0.38408 -1.3072e-20)
(1.04357 -0.174533 9.02908e-22)
(1.02927 0.0495409 1.00215e-20)
(1.10915 0.145362 -2.57773e-21)
(1.10472 0.0213273 0)
(1.03516 0.00742211 -1.70693e-20)
(1.03881 0.0247227 0)
(1.03448 -0.0077664 -6.37117e-21)
(0.134769 0.701428 5.96085e-21)
(1.05446 -0.172163 -6.10166e-22)
(1.01792 0.0228714 1.73886e-20)
(0.88121 0.0736516 3.86283e-20)
(1.0896 0.0412028 -9.3139e-21)
(1.22653 0.0815828 0)
(1.03341 0.00508662 -1.19559e-20)
(1.26679 -0.406443 -7.24297e-20)
(0.848138 -0.321056 3.69933e-22)
(0.964326 0.0689866 1.52922e-19)
(1.05033 0.00104281 -1.19491e-20)
(1.09643 0.112403 0)
(0.0792141 -0.0550293 -2.07266e-21)
(1.09191 0.152536 4.72072e-21)
(1.06494 -0.00431033 0)
(1.08671 0.071622 8.46726e-21)
(1.04155 0.00246304 0)
(1.00261 0.0392416 -1.44778e-22)
(1.04814 -0.0204205 1.57672e-20)
(1.06635 -0.000631469 0)
(1.06049 -0.00108279 3.8932e-21)
(1.04617 0.00656758 -8.88504e-21)
(1.06318 -0.00382625 5.6426e-21)
(1.09389 0.113216 1.18727e-20)
(1.091 0.0981882 0)
(1.05557 0.000460589 4.14893e-21)
(1.34505 -0.0573276 0)
(1.04781 0.00706596 -1.09447e-20)
(1.03155 -0.00929328 0)
(1.11582 0.0166238 -5.21267e-21)
(1.11304 0.138212 0)
(-0.00245262 -0.138271 0)
(1.06551 -3.23192e-05 -2.59577e-21)
(0.719575 0.286409 1.06341e-21)
(1.06241 -0.00968533 3.11222e-22)
(0.795715 -0.0714288 0)
(1.04515 -0.0743929 1.72279e-21)
(1.00386 -0.0602121 6.47854e-21)
(1.22043 0.108251 -2.23232e-21)
(1.05755 0.00525436 -1.06264e-20)
(1.02883 -0.00693319 0)
(1.09469 0.0580925 -9.40068e-21)
(0.954287 0.483524 1.38243e-19)
(1.06587 -0.00760163 2.18449e-21)
(1.03868 0.0239494 -1.91395e-20)
(1.04731 0.0234455 0)
(1.06378 0.00411969 2.86711e-21)
(1.01773 0.0251883 0)
(1.05555 -0.000320206 0)
(1.13596 -0.00925355 2.07292e-21)
(1.0585 0.0264353 0)
(1.06298 -0.00335033 0)
(1.09256 0.119669 -1.62383e-20)
(1.064 0.0501682 0)
(0.571982 0.278801 -5.71472e-21)
(0.950732 -0.0515042 -1.49439e-19)
(1.28685 -0.0849434 4.28382e-21)
(0.865177 -0.342887 -1.5685e-21)
(0.993068 -0.0388225 0)
(0.234643 0.382246 -6.05266e-22)
(1.00653 -0.0683246 7.62999e-21)
(1.05602 0.0104818 -7.94752e-21)
(1.09003 -0.0232095 0)
(1.07048 -0.0221295 3.72455e-21)
(1.22991 -0.0206054 -1.24596e-21)
(1.0112 0.00281163 -1.2411e-22)
(1.04536 0.00647698 1.10909e-20)
(1.07702 0.134162 3.36184e-21)
(0.982996 0.0494424 -2.36699e-21)
(1.03593 0.0213693 1.69725e-20)
(1.08047 0.0356407 -1.2709e-20)
(-0.00859393 -0.121533 -4.04613e-20)
(1.21781 -0.552627 -9.97757e-20)
(1.23287 0.0902141 6.05299e-21)
(0.712132 -0.440085 2.91716e-20)
(1.07959 0.134771 -2.04769e-20)
(1.02412 -0.047162 -8.4841e-21)
(1.06018 -0.00103294 3.95488e-21)
(1.03565 0.00784875 1.77341e-20)
(1.33378 -0.0499358 -5.74631e-21)
(0.982035 0.0525014 1.2505e-20)
(0.906146 0.299649 0)
(1.0465 0.00671234 9.1185e-21)
(1.13502 -0.0493743 -1.21098e-25)
(1.07819 0.0342146 0)
(1.02448 -0.0806219 1.36134e-20)
(0.991194 -0.0286989 0)
(1.10415 0.107844 1.65744e-20)
(1.03923 0.00797684 0)
(1.04285 0.0215733 0)
(1.11242 0.126274 0)
(1.03906 0.00812903 0)
(1.03775 0.00894362 2.41742e-20)
(1.30745 0.31846 -1.2228e-20)
(1.08758 0.0995805 -3.9802e-21)
(1.05587 -0.000297019 7.70107e-21)
(0.937579 0.303106 0)
(1.31081 -0.4102 -5.42438e-20)
(1.04757 0.00672811 0)
(1.1409 0.12536 4.75422e-21)
(0.930863 0.281908 9.58181e-23)
(-0.0429483 -0.0110859 -2.86016e-20)
(1.1404 -0.0616756 4.62316e-24)
(1.10662 0.143041 -1.70224e-21)
(1.36558 0.029326 4.81077e-21)
(1.11634 0.13178 0)
(1.14652 0.00564876 0)
(1.05552 -0.048221 -1.28115e-21)
(1.07759 0.0171037 -1.31911e-21)
(1.21206 0.240867 -2.65696e-20)
(-0.0710422 0.370001 5.04857e-20)
(1.06353 0.00234733 -3.53043e-22)
(0.855866 -0.344316 -2.8924e-21)
(1.48479 0.00428229 9.86555e-21)
(1.06714 -0.0259307 0)
(1.11779 0.168929 1.1059e-21)
(1.04286 0.0198477 1.11924e-20)
(1.13801 -0.0103285 1.79535e-21)
(1.03634 0.034987 0)
(1.0455 0.00677827 1.00428e-20)
(1.0494 0.0254506 9.24028e-21)
(1.0496 0.0137844 0)
(0.694892 -0.433963 -1.13744e-20)
(0.9563 0.0572361 -7.36587e-21)
(1.28259 -0.506889 -1.29516e-19)
(1.03595 0.0125375 -1.27626e-20)
(0.885328 0.387485 2.3334e-20)
(1.0148 0.00152567 -1.76217e-20)
(1.03476 -0.00454115 2.11401e-20)
(1.3433 -0.0205201 1.81676e-20)
(1.03841 0.00781249 -1.37908e-20)
(0.824816 -0.144378 2.44404e-20)
(1.10831 0.107034 -8.64554e-21)
(1.02815 -0.080092 0)
(1.19735 -0.105122 -4.64708e-21)
(1.05389 0.000566591 0)
(1.28753 0.0410042 1.44291e-20)
(1.11677 0.139996 0)
(1.12842 -0.00317175 6.8612e-21)
(1.04369 -0.0065017 0)
(1.00292 -0.224405 1.28996e-21)
(0.993994 0.288911 0)
(1.03515 0.413919 -9.96997e-20)
(1.1204 0.117823 0)
(1.32304 0.0686545 -2.80201e-20)
(1.05426 0.00213068 0)
(1.01399 -0.347606 -1.81453e-20)
(1.05641 0.00454332 1.5052e-20)
(1.09031 0.0573397 -5.35751e-21)
(1.06481 0.0354132 1.60107e-20)
(1.09385 0.113014 -1.24806e-20)
(1.31712 -0.0523879 1.35208e-20)
(1.04875 -0.000561658 4.42817e-22)
(1.05739 -0.0198731 -3.07004e-21)
(1.12354 0.118637 9.085e-21)
(1.22765 -0.0749014 0)
(1.06521 0.0195291 -1.70315e-21)
(0.894819 0.0285184 0)
(0.904426 0.329283 -1.71005e-21)
(1.03364 0.0163179 0)
(1.06485 -0.0160739 0)
(1.06665 -0.00704166 8.1795e-22)
(1.12284 -0.0482285 0)
(1.07721 -0.143752 6.26301e-22)
(1.1962 -0.054373 4.99023e-22)
(1.05399 0.0426373 0)
(1.04257 0.0189527 -2.24874e-21)
(1.08219 -0.0507978 -3.5949e-23)
(1.03241 0.00665725 -3.01825e-20)
(-0.0119296 -0.0337736 0)
(-0.0948753 0.00532325 -3.58581e-20)
(1.07079 0.050326 0)
(-0.0533729 0.0274296 -1.08803e-20)
(1.12742 0.0568139 1.82425e-21)
(1.03207 0.00119287 0)
(1.35765 0.0225057 -5.66504e-20)
(1.12804 0.119954 -3.42155e-22)
(1.09852 0.112168 -1.70509e-20)
(1.03236 0.0165169 -3.89472e-20)
(1.05924 0.0491504 7.16049e-21)
(0.072956 0.251723 3.77047e-21)
(0.443596 0.530406 -3.34086e-21)
(1.13775 0.135258 0)
(0.715635 -0.547598 4.05443e-21)
(1.06397 0.0198215 7.11961e-21)
(0.235134 0.261442 0)
(1.24122 0.0661272 -5.33106e-21)
(1.05893 0.0109331 0)
(1.12099 -0.00693382 3.5703e-21)
(1.09057 0.0980773 0)
(1.10556 0.108135 -5.17889e-21)
(0.764012 0.400794 0)
(1.02761 0.000292322 0)
(1.04785 0.00960547 -1.01029e-20)
(1.20502 -0.278619 -4.90274e-20)
(1.05714 0.00836634 9.38005e-21)
(1.0627 0.0072019 0)
(1.0662 -0.0159958 0)
(-0.0328475 -0.11204 0)
(0.918923 0.0632718 -7.96231e-21)
(1.1429 0.116976 5.77755e-21)
(1.10631 0.171515 1.6916e-21)
(0.947341 0.72536 -1.08238e-19)
(0.79704 0.0559277 -3.76853e-21)
(1.05093 0.00089864 9.59268e-21)
(1.13358 0.132122 8.99531e-22)
(1.05998 -0.00410571 -1.15528e-20)
(0.654304 0.0299065 1.09176e-21)
(1.24996 0.0515456 5.8786e-21)
(0.00705367 -0.0982494 4.03112e-20)
(1.03166 0.00690305 1.64725e-20)
(1.20878 -0.0332535 0)
(1.034 0.00607103 1.56629e-20)
(1.05474 -0.000591447 -2.01942e-21)
(1.05576 -0.0517226 0)
(0.792071 0.137217 1.26089e-20)
(1.01982 -0.340233 2.44143e-20)
(1.06633 -0.0266373 -7.77358e-21)
(1.0709 0.0138199 -1.18894e-20)
(1.08715 0.0997576 4.48644e-21)
(1.04716 0.000916186 0)
(0.955057 0.0166937 2.38477e-20)
(1.06136 -0.000288432 0)
(1.06534 -0.00979786 -7.8118e-22)
(1.1078 0.0221491 -6.11963e-21)
(1.03768 -0.0402091 0)
(1.04247 0.0206765 -1.0143e-20)
(1.06799 0.00339453 -2.66195e-21)
(1.04396 0.0280339 1.30904e-20)
(0.578402 0.325953 0)
(1.21235 -0.0862931 0)
(0.99076 0.662325 8.79423e-20)
(1.06146 -0.0629085 -4.03205e-21)
(0.79537 0.637323 6.85017e-21)
(1.08459 0.121101 -1.03233e-20)
(1.03046 0.00929132 -2.16292e-20)
(1.13131 0.121209 -2.03154e-21)
(1.11062 0.149374 1.80755e-21)
(1.26757 -0.5613 5.36277e-20)
(1.0378 0.00706862 -3.15244e-23)
(0.155019 0.22049 -2.56588e-21)
(1.03867 0.00782108 2.25678e-20)
(1.13744 0.0776823 2.75491e-21)
(1.04436 0.0153086 8.87636e-21)
(0.789863 0.243585 -7.60624e-21)
(1.06689 0.00301186 -5.71988e-23)
(1.05897 -8.83205e-05 -4.19439e-21)
(1.05631 0.0146351 0)
(1.06634 -0.00933414 -2.50244e-21)
(0.972975 0.00633174 -1.62677e-20)
(1.09774 -0.129126 3.29629e-22)
(1.13219 0.295212 -9.6477e-21)
(0.786032 -0.147488 -2.27758e-21)
(1.07045 -0.0312706 8.31064e-22)
(1.05534 0.0146484 -2.21447e-20)
(1.0428 -0.000476942 2.87811e-21)
(1.03516 0.00660311 2.26284e-21)
(1.06362 0.00721856 0)
(1.05308 -0.000116083 0)
(1.07314 0.0492889 3.25045e-21)
(0.723319 -0.312917 -2.01752e-21)
(0.734179 -0.0796508 0)
(1.04694 0.00701938 1.64059e-20)
(1.14308 0.0332921 0)
(1.10453 -0.110171 -1.93828e-22)
(1.05385 -0.000193295 -9.4297e-21)
(1.14509 0.112654 0)
(0.845845 0.663179 -1.20781e-20)
(1.03597 -0.000203779 -6.18193e-21)
(1.0486 -0.000584235 0)
(0.788899 0.392488 0)
(0.976375 0.000834277 -2.16386e-20)
(0.660151 -0.44951 0)
(1.18414 -0.0176324 8.86669e-22)
(1.06344 0.00626111 0)
(1.03642 0.0070477 1.91955e-20)
(1.151 0.152331 1.05448e-20)
(1.04561 0.00639171 2.14459e-20)
(1.09484 0.149999 0)
(1.22421 0.240407 0)
(1.06439 0.0157669 1.67045e-20)
(1.03277 0.00646239 3.65494e-20)
(1.18442 -0.273925 5.4192e-20)
(0.742875 0.266144 5.08119e-20)
(1.05031 -0.0573259 -7.84226e-22)
(0.817517 0.654483 0)
(1.06187 0.0497054 -1.53579e-20)
(0.936592 0.0370669 7.01939e-22)
(0.920896 0.391613 0)
(0.770615 0.492779 -1.55106e-20)
(0.716708 -0.059833 9.81881e-21)
(1.21915 -0.254412 5.8657e-20)
(0.727246 0.307664 2.31049e-20)
(1.15606 0.416623 2.87094e-20)
(1.20299 -0.0495221 -6.78751e-22)
(0.403921 0.64687 -1.93427e-21)
(1.03204 0.00726329 -4.05714e-20)
(1.04154 -0.0710525 -9.3377e-21)
(0.939287 0.0309873 -8.38081e-22)
(1.08486 0.0345972 -7.78357e-21)
(1.068 -0.0196126 9.25338e-21)
(1.06038 -0.000670687 1.64879e-20)
(0.890059 0.0671786 -1.71072e-20)
(0.871247 -0.329859 1.93655e-21)
(1.0093 -0.213089 2.30247e-21)
(0.829313 -0.380822 1.45092e-21)
(1.06007 -0.000655858 -8.17151e-21)
(1.03482 0.016013 -1.54334e-20)
(0.895639 -0.00257509 3.43631e-20)
(1.03666 0.011025 1.35421e-20)
(1.03654 0.00680854 0)
(1.06365 0.00194963 1.85464e-22)
(1.08608 0.134191 0)
(1.07066 0.0548085 0)
(1.05451 0.000958552 -9.2407e-21)
(1.06985 -0.0271659 -8.98343e-21)
(1.05179 -0.000193879 7.83215e-21)
(1.04346 0.034376 2.09797e-21)
(1.08002 0.0419586 -9.37017e-21)
(0.753533 0.334703 -1.62059e-20)
(1.03544 0.0122932 9.48059e-23)
(1.11884 0.10271 6.6273e-21)