/*--------------------------------*- C++ -*----------------------------------*\
| =========                 |                                                 |
| \\      /  F ield         | OpenFOAM: The Open Source CFD Toolbox           |
|  \\    /   O peration     | Version:  v2012                                 |
|   \\  /    A nd           | Website:  www.openfoam.com                      |
|    \\/     M anipulation  |                                                 |
\*---------------------------------------------------------------------------*/
FoamFile
{
    version     2.0;
    format      ascii;
    class       surfaceScalarField;
    location    "50";
    object      ddtCorrDdt0(phi);
}
// * * * * * * * * * * * * * * * * * * * * * * * * * * * * * * * * * * * * * //

dimensions      [0 3 -2 0 0 0 0];
oriented        oriented;


internalField   nonuniform List<scalar> 
20386
(
-8.78112e-06
-4.4524e-05
5.33073e-05
0.000138066
-0.000160305
2.22456e-05
-1.05968e-05
1.41202e-06
9.1883e-06
1.99928e-05
-2.02313e-05
2.41144e-07
-4.91845e-05
-2.69994e-05
7.61843e-05
-0.000103385
0.000153659
-5.02529e-05
-7.69034e-05
-0.000119595
0.000196446
7.79681e-05
-0.000109946
3.19867e-05
0.000215265
-0.000217198
1.92249e-06
2.70765e-05
6.6509e-06
-3.37215e-05
6.55974e-05
-8.63276e-05
2.07316e-05
-0.000115327
0.000172667
-5.72993e-05
4.21505e-05
-0.000104687
6.25308e-05
-0.000131018
0.000124969
6.02969e-06
-4.96679e-06
0.00011722
-0.000112261
0.000158845
-0.000140691
-1.81463e-05
-0.000131476
7.71661e-05
5.43133e-05
-9.30617e-05
-0.000105797
0.000198759
4.08297e-05
2.47649e-05
0.000186183
-2.07564e-05
-0.000165439
9.28945e-05
0.00013234
-0.000225269
-7.12331e-05
0.000157448
-8.62138e-05
4.15442e-05
-0.000143308
0.000101777
4.16704e-05
-0.000125108
8.34856e-05
-2.05626e-07
-9.12177e-05
9.14437e-05
-1.04525e-05
-1.61045e-05
2.65559e-05
0.000233719
-0.000163554
-7.01478e-05
0.000159711
7.40187e-05
9.20985e-05
-0.000129734
3.76457e-05
0.000182228
-0.000166762
-1.54826e-05
-3.45411e-05
0.000112525
6.20285e-05
0.000125014
-0.000187099
-5.90821e-05
8.65037e-06
5.04699e-05
-0.000147456
1.47942e-06
0.000145991
0.000143309
-0.000138762
-4.52778e-06
-0.000119581
0.000119385
2.26527e-05
-7.18376e-05
-2.70733e-05
-8.13705e-05
0.00010844
0.000220318
-5.05928e-06
6.11652e-05
0.000125627
-0.000186778
0.000149234
3.30098e-05
-0.000143304
-1.27163e-05
0.000156035
2.84668e-05
-0.000111818
8.33485e-05
3.99421e-05
3.2815e-05
-7.27572e-05
-0.000180002
0.000199302
-1.93195e-05
2.39864e-05
8.06794e-05
-0.000104665
-3.03786e-05
0.000168443
2.06116e-05
6.45327e-05
-8.51332e-05
-0.000222902
6.38545e-05
0.000159099
-0.000162811
0.000159396
3.40543e-06
5.38854e-05
4.78603e-05
-0.00010174
-6.52864e-05
0.000107439
0.000112003
-1.98932e-05
4.07026e-05
-4.94784e-05
-1.48901e-05
-0.000115162
0.000130053
0.000142943
-9.80426e-05
-4.49066e-05
9.5836e-05
-0.000122913
9.54863e-05
-0.000166719
-0.00015464
7.51175e-05
7.9506e-05
0.000167586
-6.15588e-05
-0.000106035
4.2436e-05
-6.3776e-05
2.13399e-05
0.00018314
-0.000140987
-4.21514e-05
0.000209501
-0.000149783
-5.97164e-05
0.000152597
-0.000110913
0.000196571
-0.000212953
1.63626e-05
0.000128895
-8.73658e-05
4.69334e-06
-3.35813e-06
-1.33169e-06
0.000244689
-0.000168537
-7.60885e-05
-0.000143588
-3.86678e-06
-5.69524e-05
-0.00016589
0.000111397
4.08849e-06
-0.000115461
9.65841e-07
-1.15656e-05
-0.000176554
1.3742e-05
-9.46587e-05
-8.12955e-06
0.000102809
-0.000124004
0.00014455
-2.05349e-05
-9.14186e-05
0.000203435
-0.00011191
0.000148331
-8.20086e-05
-6.63399e-05
0.000134009
-5.66471e-05
-7.73385e-05
-9.15935e-05
8.66279e-05
-7.93408e-05
0.000147669
-6.82985e-05
-3.37765e-05
0.000130803
-9.70088e-05
7.60919e-05
-8.05419e-05
4.45738e-06
-0.000162975
0.000181102
-1.81359e-05
5.67959e-05
-0.000128493
7.16943e-05
0.000126264
-0.00011275
-1.35006e-05
7.88676e-05
-4.09617e-05
-3.78986e-05
0.000153288
-3.75532e-05
-2.15218e-05
8.2581e-05
1.75567e-06
-8.43289e-05
0.000161347
-0.000143822
-1.75233e-05
0.000178873
-2.76148e-05
-0.000151258
-0.000124794
0.000170614
-4.58286e-05
-5.8755e-05
-8.71155e-05
0.000145873
0.000203572
-0.000135952
-6.76186e-05
7.4772e-06
-2.49159e-05
1.74511e-05
2.71936e-05
6.05894e-05
-8.77672e-05
4.4009e-05
-0.000168805
-7.75913e-05
-8.91486e-05
-4.30006e-05
-3.64829e-05
7.94959e-05
2.01893e-05
8.57862e-05
-0.000105968
7.78694e-05
0.000131638
4.21552e-05
-1.50735e-05
1.63204e-05
9.35301e-05
6.57284e-05
-0.000159254
1.59272e-05
-0.000159231
2.214e-05
0.000122258
-0.000144393
-0.000115031
1.16559e-05
0.000136513
6.70615e-05
-0.000138815
9.78388e-05
4.09709e-05
0.000155574
3.27525e-06
2.18391e-05
-4.88669e-05
2.70375e-05
-0.000159107
-2.09112e-05
3.23339e-05
1.18325e-05
-4.41581e-05
-0.000124215
-6.81042e-06
0.00020562
-1.94457e-05
9.46824e-06
-0.000120705
0.000111244
6.95958e-06
-1.2334e-06
-5.72399e-06
-9.4357e-06
4.3801e-07
8.99919e-06
-0.000242469
0.000125496
0.000116956
-0.000188444
0.000111507
-0.000160671
0.000253549
8.9065e-05
-0.000208558
-2.95956e-05
8.34872e-05
2.80419e-05
-0.000152036
6.91712e-05
-4.65198e-05
5.4368e-05
-1.19348e-05
-0.00017029
0.000148538
2.17444e-05
6.83331e-06
-6.13778e-06
-6.9397e-07
-0.000188667
2.56777e-05
-0.000115017
8.12526e-05
-5.00677e-05
5.62594e-05
-6.18239e-06
1.12881e-05
7.12949e-05
9.99063e-07
9.64813e-05
-9.74845e-05
0.000164399
-0.000176803
1.23857e-05
-0.000138987
0.000147008
-8.01239e-06
-2.82264e-05
0.000146138
-0.000209766
6.36449e-05
-0.000144126
-2.61691e-05
-3.28877e-05
0.000125
-9.21043e-05
-0.00014064
0.000149174
-8.55155e-06
0.000133757
4.35738e-05
-0.000177332
7.36569e-05
-3.37159e-05
-0.00011697
7.47715e-05
4.22062e-05
-5.47261e-05
0.000111522
-9.29585e-05
-9.36702e-06
0.000102332
2.37374e-05
-0.000189821
0.000166111
6.27533e-05
4.64812e-05
-0.000109229
0.0001402
-1.82858e-05
-0.000121899
0.000195607
8.84129e-07
-0.000144277
2.51044e-05
0.00011916
-0.000146081
-1.66719e-05
0.000162764
-1.19459e-05
4.42759e-05
0.00020381
-2.68972e-05
-0.000176812
-8.76021e-05
-2.93527e-05
2.91279e-05
4.45286e-05
-0.000231187
0.000100418
0.000130817
-0.000203692
0.000225252
-2.15824e-05
-0.000160247
0.000101494
7.99919e-05
0.000123854
-1.28418e-05
-2.21672e-05
3.5011e-05
0.00014024
2.11056e-05
-0.000149251
0.000211294
0.000117308
-8.04405e-05
-3.68409e-05
1.2123e-05
-2.25764e-05
-0.000163563
0.000167418
-3.85593e-06
-0.000200472
7.23008e-05
0.000128173
7.76715e-06
-0.000100066
9.23062e-05
-0.000159737
9.99446e-05
5.97932e-05
0.000107888
7.93525e-05
-0.00018723
-7.43176e-05
4.73188e-05
-7.98859e-05
0.000118673
-3.8765e-05
-0.000185035
0.000150253
3.47934e-05
-0.000153678
0.000151793
1.86469e-06
0.000122184
-0.00013708
0.000162723
-0.000132182
-3.05334e-05
5.79909e-05
0.000103528
-0.00016151
-0.00015931
0.00022056
-8.44844e-05
-5.95844e-05
0.000143238
0.000108713
8.08883e-05
-0.000189601
-5.01282e-07
7.33928e-06
-0.000175002
9.74002e-05
-0.000168068
2.19897e-05
-2.03106e-06
-1.16786e-05
1.37088e-05
-1.43256e-06
-8.00007e-06
2.03759e-05
9.16013e-07
-2.12813e-05
-0.000154151
7.95877e-06
0.000146189
0.000104823
-0.000115348
1.0544e-05
-0.000151404
0.000196833
-4.54259e-05
-5.47366e-05
5.57579e-05
-1.01363e-06
-0.000166208
6.17331e-05
0.000104468
0.000109096
1.44263e-05
-0.000123509
-0.000185049
7.10197e-05
0.000114027
0.000141483
-3.42596e-05
-0.000107223
0.00017281
-0.000141641
-3.11872e-05
1.94868e-05
-6.94215e-05
4.99567e-05
-0.000205126
1.39503e-06
-0.000173297
2.90252e-05
1.01364e-05
-4.10227e-05
3.08918e-05
-0.000187777
4.45928e-05
0.000143203
-0.000145268
0.000167432
8.38285e-05
0.000119505
4.61425e-05
1.01194e-05
9.8415e-05
4.9909e-05
0.000152425
-0.000219646
6.72106e-05
0.000107574
-0.000162682
5.50827e-05
0.000226182
-7.37483e-05
-5.71954e-05
6.84838e-05
-8.10003e-05
0.000101213
-0.000117817
7.29071e-05
4.48996e-05
7.24452e-05
-5.29438e-05
-9.57345e-05
-5.89144e-05
1.71223e-05
2.8723e-06
2.25028e-06
-0.000165811
-7.78168e-05
-8.94177e-05
0.000167232
4.48424e-05
1.86755e-05
-6.35032e-05
-8.84741e-05
-4.47985e-06
0.000118512
-0.000130624
1.21206e-05
-3.54498e-05
0.000169206
5.52102e-05
-9.54251e-05
4.02313e-05
-4.13237e-05
-4.29861e-05
8.43071e-05
0.000159455
-1.36415e-05
-0.000145814
-0.000135308
5.54145e-05
-0.000134189
0.000214268
-2.47451e-05
0.00019885
-0.00017411
-5.87518e-05
5.74028e-05
1.35253e-06
-0.000137005
0.000195004
0.000115065
5.47193e-05
-0.000169782
4.09657e-05
7.63626e-05
7.27677e-05
-0.000105651
-0.000200768
0.000142163
5.86282e-05
-6.89578e-06
1.09282e-06
5.80479e-06
-8.43128e-06
3.41434e-05
-2.5708e-05
3.54418e-05
-5.01523e-05
1.47162e-05
-3.40245e-05
2.55964e-05
-0.000137682
-8.74874e-05
0.000225193
-5.54501e-05
-6.91236e-05
0.00012414
3.6604e-07
-1.10304e-06
7.40457e-07
-5.23851e-05
-0.000119374
0.000171768
-9.54269e-05
-7.07873e-05
-0.000104716
9.62825e-05
8.43528e-06
7.33211e-07
-1.06927e-05
9.95012e-06
-1.72998e-05
-9.47376e-05
0.000112059
1.78923e-05
-2.29254e-05
5.01278e-06
-0.00012653
4.71933e-05
7.12651e-06
3.80422e-05
-4.51607e-05
1.69001e-05
-0.000184712
0.000167827
0.000127047
-8.52534e-06
-0.000143867
7.44007e-05
6.94536e-05
-7.74072e-05
-3.00085e-05
0.000107407
0.000174563
-5.33929e-05
-7.8075e-05
4.19018e-05
-3.17628e-05
-3.10471e-05
-9.74453e-05
1.88997e-05
6.66589e-06
0.000104737
9.72645e-05
-0.000163638
6.63923e-05
1.95776e-05
6.6158e-05
-8.57294e-05
0.000119888
-1.07922e-05
1.67269e-05
3.65317e-06
-5.71328e-05
-6.06856e-05
2.72513e-06
4.12508e-06
-0.000122808
6.32863e-05
5.95146e-05
0.000181752
-4.52366e-05
0.000143851
-0.000179299
7.95143e-05
-7.85177e-05
-5.3703e-05
-2.86798e-06
5.65711e-05
-0.000103935
-5.23095e-05
0.000156253
-1.67085e-05
0.00011498
-9.8258e-05
0.00016389
4.83201e-05
-0.000212191
-0.000163238
9.4644e-05
6.86213e-05
4.18148e-05
0.000122079
1.97866e-05
-1.90526e-06
-9.41508e-05
-6.90711e-05
4.69398e-05
-8.99443e-05
-3.3249e-05
9.60004e-05
-4.32659e-05
-0.000157209
-8.06296e-05
0.000157921
-0.000149778
-8.15052e-06
-9.41835e-05
3.69878e-05
-0.00011308
0.000220989
7.68771e-05
6.60528e-05
-5.24981e-05
0.000167566
5.56631e-06
0.000132367
-8.37814e-05
-4.85687e-05
0.000130064
-0.000172788
4.27234e-05
0.000100183
-4.35292e-05
-5.66509e-05
-0.000181253
0.000128859
-3.46186e-05
-0.00013472
0.000169367
-3.972e-05
9.49385e-05
-0.000173162
8.00821e-05
5.78089e-05
-0.000119751
6.19596e-05
1.80702e-05
0.000118757
-0.000136829
-6.49416e-05
7.08369e-05
-5.91846e-06
-0.000105527
0.00015067
-7.34005e-06
6.66007e-06
4.38142e-06
-1.10534e-05
4.40599e-06
2.88671e-07
7.42804e-05
-9.93965e-05
2.51438e-05
-0.000183194
3.90574e-05
1.26556e-05
8.97528e-06
-2.16297e-05
-0.000121639
0.000131577
-9.94306e-06
0.000110644
-7.15666e-05
-3.90681e-05
-0.00013597
0.00015674
-2.07685e-05
6.37101e-05
-2.82623e-05
-0.000148134
0.000189962
0.000131529
-0.00011306
-1.84664e-05
6.45955e-05
-3.5469e-05
6.10897e-05
8.75663e-06
-6.98539e-05
0.00012861
-0.00017806
4.94621e-05
4.45132e-05
-0.000157679
0.000113162
0.000143682
-0.000174338
3.06595e-05
0.000152423
-0.000179492
2.7096e-05
-8.95766e-05
2.01663e-05
0.000139262
-0.000169547
3.02746e-05
1.74586e-05
5.86355e-05
-4.25345e-06
-2.64228e-06
0.000186872
-0.000155983
-3.08869e-05
-9.60697e-06
2.63459e-05
-1.8864e-05
1.58742e-05
-3.21752e-06
0.00014115
-1.72922e-05
-0.000123863
-4.11139e-05
0.000169725
-6.00039e-05
5.9584e-05
4.22685e-07
0.000110753
-0.000145365
-8.0119e-05
0.000104106
0.000180867
-1.99444e-06
7.03407e-06
-4.31331e-06
-0.000138245
5.38448e-05
5.6803e-05
-4.58576e-05
-7.78431e-05
0.00012371
5.74974e-05
0.000124255
5.27869e-05
-0.000177605
0.000124822
6.34068e-06
3.14341e-07
0.000168695
-0.000101503
-6.71893e-05
-0.000170543
-6.06127e-05
-0.000113172
3.5762e-05
-0.000141473
-3.26051e-05
-0.000217427
7.9744e-05
4.31709e-07
-3.44619e-07
-8.19351e-08
-0.000185166
0.000157185
2.79985e-05
-7.09662e-05
-6.79188e-06
0.000151182
-0.000144151
-9.25213e-05
5.60434e-05
0.000100633
-0.000117921
-5.96713e-05
4.84067e-05
1.0934e-05
-2.17172e-05
-7.49301e-05
9.66508e-05
-6.11314e-06
-4.75883e-05
-9.24091e-05
-8.49228e-05
-9.19904e-05
-6.77489e-05
7.23131e-05
9.5277e-05
1.3468e-05
-1.5503e-05
-1.80759e-05
0.000152152
-0.000134071
0.000123174
-2.37996e-05
-9.93849e-05
0.000161647
-5.29429e-05
0.000118446
3.22324e-05
-3.08977e-05
-0.00016984
-9.61952e-05
8.02222e-05
1.60336e-05
-1.60208e-05
-3.87123e-05
-0.000158995
0.000138436
2.05658e-05
-6.60354e-05
-6.36882e-05
1.87776e-05
0.000195018
-0.000116008
-7.89866e-05
2.13103e-06
-0.000115388
0.000113328
-1.91845e-05
6.40313e-05
0.000152695
-4.51316e-05
5.16474e-05
1.00312e-05
-6.16683e-05
-3.10464e-05
-8.8372e-05
0.00011942
0.000169016
-0.000187006
1.80328e-05
-6.01824e-05
-3.06787e-05
9.08707e-05
0.000160813
4.48054e-05
0.000117687
-4.4349e-05
-7.33342e-05
-0.000181331
7.74014e-05
5.14002e-07
-0.000122156
-0.000140583
-4.45779e-05
-4.74911e-06
-1.04851e-05
1.52406e-05
-9.13504e-05
0.000152672
-6.13351e-05
0.000191173
-9.38762e-05
6.16177e-05
5.60794e-05
-5.04604e-05
4.91232e-05
1.34516e-06
-2.43843e-05
-1.57939e-05
-4.22804e-06
2.00188e-05
-0.000120261
0.00010348
1.6783e-05
-0.000101836
-0.000104921
1.0275e-05
-1.13642e-05
0.000133552
-7.816e-06
2.18019e-05
-1.39857e-05
-2.62679e-05
-6.32929e-05
4.05425e-05
0.000158306
4.34163e-05
-3.15786e-05
-0.000171259
0.000113712
5.75611e-05
7.91443e-05
-8.5071e-05
0.000206754
-0.000121687
0.000156165
-0.00013157
-2.45787e-05
0.000134226
-1.57724e-05
-0.000110179
-0.0001018
0.000212063
-4.35769e-05
5.64242e-05
-1.28262e-05
-3.72458e-05
0.000168045
-0.000130833
5.24367e-06
-0.000126294
0.000137018
-1.07378e-05
-0.000122956
8.81227e-05
8.33934e-05
-0.000171526
3.14475e-05
0.000175082
-0.000142449
-3.26879e-05
-2.41876e-05
0.0001821
0.000118323
7.6715e-05
2.68331e-05
5.16644e-06
-3.1996e-05
-0.00012824
7.80403e-05
5.01935e-05
0.000104549
-7.60858e-05
-7.18152e-05
0.000189888
-0.000118054
5.99663e-05
-8.80724e-05
2.81153e-05
2.1996e-05
0.000164872
-0.000143588
0.000160481
0.000176457
-0.000208081
3.15978e-05
-0.000181939
0.000142862
3.90773e-05
6.49686e-05
-4.62867e-05
-3.64165e-05
0.000110722
0.000117118
2.43673e-05
-0.000164143
0.000146089
-9.11393e-05
0.000162934
-7.17936e-05
-0.000166493
0.00013096
3.55406e-05
2.72125e-06
0.00011218
-0.000114899
0.000132635
1.70699e-05
-1.63343e-05
0.000130711
8.49975e-05
-0.00021572
-7.22557e-05
-0.000107569
0.000179823
0.000105091
8.78355e-05
-0.000192895
0.000190658
2.96575e-05
0.000157321
-6.07525e-05
-9.65402e-05
0.000105078
-0.000141858
3.67804e-05
2.55879e-05
0.000133832
-0.000159395
6.57805e-05
0.000117357
-0.00010613
0.000135322
-2.91932e-05
-7.4693e-06
-8.09368e-05
8.84044e-05
9.36096e-07
-5.03439e-07
6.5049e-06
-2.15457e-05
1.50466e-05
-0.000157897
7.34144e-05
8.44809e-05
1.10649e-05
-5.55843e-05
2.90598e-05
-5.2823e-05
5.31007e-05
-2.66192e-07
-0.000153371
8.11138e-05
0.000165755
-6.22506e-05
5.2159e-05
-0.000150479
9.83208e-05
-3.17113e-05
3.81595e-06
2.78915e-05
-0.000107406
-0.000135071
-4.36575e-05
-0.000139547
6.76026e-05
-4.69883e-05
-2.73981e-05
-7.73397e-05
0.000130373
-1.27034e-05
-0.000117662
6.14897e-05
-3.42869e-05
0.000201938
-6.02512e-05
-0.000141707
0.000122832
4.81546e-05
-0.000170924
4.58543e-05
-0.000131516
-4.93748e-05
-4.42734e-05
4.21574e-05
6.17592e-05
-0.000103916
-0.000152263
-9.79826e-06
0.000162056
-0.000189621
0.000193224
-3.61515e-06
-0.000117004
-9.29069e-06
-0.000135409
0.000153486
0.00016498
-0.000114062
-5.09309e-05
6.90464e-05
-7.65155e-05
0.000154282
4.402e-05
-0.000198585
0.000200515
-9.85875e-06
0.000121582
-0.000206705
5.63095e-06
-3.35357e-05
2.79374e-05
3.02559e-05
2.19935e-05
-5.22501e-05
7.62692e-05
-0.000149961
7.37124e-05
3.64531e-05
-5.06918e-05
1.42398e-05
-1.59471e-05
-3.45136e-05
0.000107393
1.57794e-05
0.000144159
-5.58667e-05
-8.8296e-05
-3.93241e-05
8.62704e-05
1.49956e-05
-2.42679e-05
9.27324e-06
-0.000110108
-1.2032e-05
-0.000101865
0.000113906
0.000102182
-6.00183e-05
5.5391e-06
-0.000164688
7.27081e-06
0.000124662
-0.000131917
-1.44299e-05
-9.73872e-05
-0.000161817
7.12482e-05
9.05676e-05
-0.000123024
6.15733e-05
6.14547e-05
-0.000174904
2.34831e-05
8.00564e-05
7.72797e-05
0.000106234
-0.000188681
8.24153e-05
0.00013962
-0.000135754
-3.86835e-06
-0.000152084
6.07306e-05
2.40887e-05
-1.84458e-05
7.738e-05
0.000140434
-0.000217625
-8.65288e-05
-9.61759e-06
8.30119e-06
-2.44035e-05
-3.2534e-06
-5.77525e-05
6.09794e-05
0.00011921
1.17868e-05
-7.67235e-05
-0.000152153
0.00018476
-3.26038e-05
-0.000218763
0.000111348
0.000161624
-0.000176065
1.44398e-05
-3.64703e-05
0.000115983
-9.53493e-05
0.000137803
-4.24464e-05
0.000162167
-5.59649e-05
-4.52868e-05
-9.58127e-05
0.000141123
0.000197378
-1.71618e-06
0.000218552
-4.95431e-05
-0.000194759
0.000151091
6.92375e-05
5.60925e-06
9.58934e-06
-1.52011e-05
-3.0932e-05
-0.000128102
0.000159045
-0.000147899
7.00816e-05
0.000114011
-1.51192e-05
-9.88869e-05
3.4327e-05
-1.88174e-05
-1.55212e-05
3.09582e-05
0.000150136
-0.000122412
-3.20078e-05
0.000154424
3.24293e-06
-8.0588e-05
7.73399e-05
3.75586e-05
-5.67385e-05
-0.000121328
2.32802e-05
4.74167e-05
0.000127616
9.28346e-05
-8.95942e-05
-4.97381e-05
0.000149682
-7.9558e-05
1.98762e-05
5.96891e-05
0.000136452
-5.95778e-05
-3.72951e-05
-6.16968e-05
-0.000100123
1.04007e-05
-1.51467e-05
-4.84138e-05
-0.000105734
-8.22629e-05
4.09411e-05
4.03371e-05
0.000105772
-0.000146125
0.000107705
-3.05393e-05
0.000244894
-0.000167422
0.000136631
2.19417e-05
-0.00015856
-8.56857e-05
2.55089e-05
-0.000164034
-0.000168345
0.000115847
2.63274e-05
-1.71684e-05
-4.15808e-05
-0.000137979
7.72441e-05
7.62004e-05
-8.98905e-06
8.4807e-06
5.07879e-07
2.54477e-05
-1.69178e-05
5.44797e-05
-0.000127592
7.28642e-05
-8.73686e-05
1.04411e-06
7.38583e-05
7.98153e-05
-0.000118736
0.000136741
-1.8014e-05
-8.78373e-06
-2.0692e-07
0.000109507
-1.33269e-05
-9.61776e-05
-0.000133697
7.32489e-05
6.04707e-05
4.21501e-05
0.000122244
-0.000169123
4.11226e-05
0.000128002
-2.15119e-06
7.76187e-06
-0.00017167
4.29042e-05
0.000128767
9.14501e-05
-0.000136714
1.44187e-05
-0.00012957
-0.000132562
6.67944e-05
6.57739e-05
0.00018034
-2.31471e-05
1.33654e-05
0.000202909
-7.74039e-05
2.38223e-05
1.05079e-05
7.19529e-05
-1.0869e-05
-8.47535e-05
0.000158168
9.34348e-05
6.42977e-05
-0.000157741
0.00011973
-1.48926e-05
0.000190823
-1.43936e-05
9.85812e-05
-3.40428e-05
-0.000132215
0.000157822
7.34423e-05
6.05727e-05
-3.96855e-06
0.000190289
-0.000158555
-3.17356e-05
4.14254e-05
1.02253e-05
-4.95938e-08
-7.95073e-05
-0.000177844
-1.64536e-06
0.00017879
-0.000185526
-0.000160253
0.000194433
-3.41919e-05
-0.000129048
0.000131777
-6.59921e-05
-6.65626e-05
-3.97644e-05
-8.08875e-06
1.56129e-06
6.5205e-06
0.000135894
-6.52605e-05
-7.06506e-05
-4.44454e-06
0.000163901
-3.70366e-05
2.50857e-05
-3.12715e-05
0.000136353
7.30767e-05
-0.000157827
-8.73341e-06
7.30214e-06
-0.000155256
3.28441e-05
-1.22467e-05
0.000144623
-0.000132354
8.64971e-05
5.48312e-05
-0.000141338
7.97573e-06
-1.01511e-06
-4.50957e-05
-0.000168984
0.000214082
-3.49075e-05
0.000189166
-4.71065e-05
-8.92188e-05
-5.46867e-05
0.000143761
7.72327e-05
-0.000149059
-0.000118585
-1.35897e-05
0.000132173
2.3125e-05
4.68608e-05
-6.99829e-05
0.00016877
-0.000119659
-4.92503e-05
0.000103766
-0.000238099
-0.000188602
0.000153493
3.51169e-05
-5.73873e-05
-0.000130595
0.000187987
1.95687e-05
7.95202e-06
-2.75171e-05
-3.88306e-05
-6.40237e-06
4.52291e-05
-1.43968e-05
3.08664e-06
1.1314e-05
3.17314e-06
-4.43357e-05
-0.00014426
-6.67246e-05
-2.68957e-05
0.000183851
-5.827e-05
5.17047e-05
-0.000182003
0.000130293
6.14203e-05
7.50171e-05
3.34626e-05
3.83452e-05
-7.18083e-05
-6.19909e-07
1.88255e-05
-1.82025e-05
0.000192898
-0.000128188
-6.46605e-05
4.80399e-05
0.00012069
-3.16034e-05
5.91974e-05
-2.75967e-05
-0.000121167
0.000158637
-3.74677e-05
-7.6627e-07
2.34982e-05
-2.27058e-05
0.000167826
-3.32307e-05
-0.000134613
1.8778e-06
8.48781e-06
-1.03635e-05
2.39806e-05
-1.14111e-05
0.000128623
2.06885e-06
-9.17852e-05
8.96937e-05
-6.57604e-05
-9.69374e-05
0.000163076
-4.08107e-05
0.000109779
-1.76874e-06
-7.57324e-06
0.000126962
4.15744e-05
-8.51369e-05
-0.0002001
9.41954e-05
-1.47184e-05
-0.000138958
-2.31851e-05
-3.7263e-05
6.04454e-05
0.000172418
-0.000119626
0.000137881
-0.000150596
-0.000116323
-1.31325e-05
0.000129442
-0.000170258
0.000149568
2.06972e-05
-3.36599e-05
0.000103585
5.927e-06
-3.42164e-05
-4.35669e-05
7.77886e-05
-3.19307e-05
0.000176126
4.22082e-06
0.000106857
-0.000138124
0.000142107
-4.85778e-05
-2.63293e-05
8.62999e-05
-7.57809e-06
6.94967e-06
-0.000167226
4.60645e-05
2.86162e-05
2.06145e-06
-3.06864e-05
-2.372e-05
0.000104399
0.000107045
-0.000152299
0.000144314
7.97501e-06
-0.000165899
0.0001042
3.22567e-05
6.79295e-05
-6.86233e-05
0.000126944
-5.83061e-05
4.49688e-05
-4.25784e-06
-8.94667e-05
2.88564e-05
6.0613e-05
-1.63065e-05
-9.77601e-05
6.94733e-05
-3.60137e-05
-0.000192398
0.000135019
-1.8899e-05
6.57627e-05
-4.68383e-05
4.59638e-05
-2.28371e-05
-5.5394e-05
5.21231e-05
-6.72543e-05
-2.36207e-05
9.08813e-05
1.87763e-05
-3.77794e-06
1.67389e-05
-0.000192918
0.000167693
2.52192e-05
-1.21156e-05
-0.000159555
0.000172815
1.00628e-06
-0.000173866
-0.000152431
7.03944e-05
8.20364e-05
8.9955e-05
-8.22008e-05
-7.55906e-06
1.41776e-06
-0.000105288
4.86551e-05
9.46557e-07
0.00015278
-6.62102e-06
-1.84463e-05
0.000119096
-6.69977e-06
-7.69648e-06
-0.000115851
5.03703e-05
6.54723e-05
2.50114e-05
-1.67124e-05
0.000192476
-0.00014073
-2.94326e-05
-5.28277e-05
-2.45023e-05
-0.000103093
1.76577e-05
0.000148584
-0.000166235
-0.000101747
0.000126847
-5.97424e-05
0.000191923
-0.000102931
0.000173592
-3.36042e-05
-0.000139981
-8.98014e-05
0.000194927
-0.000177033
0.000187481
-1.04303e-05
-0.00010458
-0.000105183
-5.13264e-05
8.75491e-05
-3.62163e-05
-0.000156244
9.96419e-05
5.65933e-05
-5.92523e-05
0.000199109
-0.000139824
-2.67209e-05
-8.86158e-05
5.35523e-05
-0.000105582
9.81556e-05
7.43354e-06
2.0327e-05
0.000177242
9.13099e-05
-0.000107624
-1.79154e-06
0.000132604
-9.26223e-05
0.000109088
-1.64616e-05
-3.60219e-05
-8.18814e-05
0.000117904
-5.05961e-05
3.36859e-05
-8.13648e-05
-7.10664e-05
-0.000118188
0.000126513
-8.31031e-06
-0.000115707
0.000156412
-4.0702e-05
0.00018238
2.03727e-05
-0.000202845
-0.000116361
-4.72672e-05
0.000110668
-0.000235862
0.000125243
1.60323e-06
5.35025e-05
-5.51461e-05
-3.11707e-05
-0.000162814
0.000194021
-9.04039e-07
-0.000117282
-0.000163809
0.000151947
1.16574e-05
-0.00016361
-7.63937e-06
1.18101e-05
-0.000131879
0.000120077
-0.00012609
0.000148724
-2.26478e-05
-3.63328e-05
2.76658e-07
3.6068e-05
4.48736e-05
-0.000101994
5.71104e-05
6.10497e-05
1.08941e-05
-0.00014955
1.79839e-05
1.73329e-05
8.59237e-06
-2.59159e-05
2.05367e-05
-1.71075e-06
4.45089e-05
3.65038e-05
-8.10105e-05
-7.7091e-05
-6.17253e-05
0.000173517
-0.00010227
1.88069e-05
9.32101e-05
-0.000116208
-1.60619e-05
0.000132269
4.13169e-05
-0.000137115
-5.64412e-05
1.03839e-06
-0.000181229
2.8948e-05
0.000177796
-5.92779e-05
-0.000118522
-6.80192e-05
6.96039e-05
-0.000130933
-1.86129e-05
-0.00011821
0.00014942
-3.12008e-05
-1.16519e-05
-0.000148605
-0.000146914
-5.70431e-05
-2.86338e-05
-0.000203726
0.000130734
7.30233e-05
-0.00016275
-4.09683e-05
0.000102511
-0.000120954
0.000188595
-0.00015824
-3.03394e-05
-0.000203496
1.50495e-05
0.000180366
-0.00012808
-5.22866e-05
6.35429e-05
-0.000194141
5.93809e-05
-0.000220078
-2.9312e-05
-8.10423e-05
-6.14178e-05
2.69735e-05
3.44494e-05
-0.000102658
-1.06352e-05
0.000113301
-9.59769e-05
0.000120626
-2.46517e-05
8.84602e-05
-0.000144378
5.59212e-05
-0.000193457
0.000124148
-0.000128728
4.22395e-05
8.65041e-05
-7.21313e-05
6.40118e-05
0.000100227
-0.000210356
-5.71584e-05
2.55547e-05
6.10453e-07
1.28553e-05
2.67522e-05
-0.000142458
1.91441e-06
-1.5462e-06
-3.83426e-05
-0.000109838
0.00014818
-0.000145428
-7.92627e-05
6.04756e-05
1.87823e-05
-3.20911e-05
-4.23814e-06
-0.000117272
2.12957e-05
-7.58553e-06
0.000178689
-0.000122034
-5.66513e-05
-0.000117272
8.36956e-05
3.35734e-05
3.52117e-05
-0.000172232
-0.000151952
0.000169609
-1.38896e-06
1.31527e-05
-1.17653e-05
-0.00018224
8.87546e-05
9.34767e-05
-4.87242e-05
0.000137191
0.000147024
-2.0506e-05
4.43432e-05
-2.38374e-05
3.69789e-05
-0.000132876
9.58878e-05
2.62597e-06
2.89519e-06
-5.51847e-06
9.78385e-05
4.63191e-05
4.3377e-05
5.034e-05
-9.37094e-05
1.54976e-05
-9.82773e-05
5.65572e-06
7.23721e-05
-1.13304e-05
-8.57559e-05
0.000130036
5.03302e-05
-0.000148942
-2.13112e-05
-5.0931e-05
-0.000122261
-0.000137254
0.000135844
1.41582e-06
-8.33483e-05
5.39233e-05
-0.000111911
0.000123052
-1.11375e-05
0.000126781
-5.25874e-05
-7.41866e-05
9.9097e-05
4.18811e-05
-0.000140879
5.61582e-05
-0.000148149
-0.000145748
2.93829e-05
6.63937e-05
-0.000214579
-8.90966e-06
-0.000126408
0.000135326
0.000122841
-6.1261e-05
-5.73147e-07
-0.0001447
-0.000179853
0.000142656
4.09687e-05
-7.51806e-05
1.37826e-05
-4.71269e-05
3.33512e-05
-0.000109784
-5.74348e-05
-0.000116299
4.41807e-05
7.21434e-05
0.000195797
-0.000112039
0.000160858
-1.36942e-05
-0.000147138
0.000230494
-0.000143387
-8.70793e-05
5.06943e-05
-8.71005e-05
-0.000164837
7.45613e-06
1.02824e-06
0.000132355
1.68067e-05
-9.79324e-05
0.000140171
-0.000100524
-3.96465e-05
1.38701e-05
-1.46275e-05
0.000137445
2.34049e-05
0.000223959
-0.000166468
-5.76318e-05
-2.69028e-05
7.4792e-05
4.34859e-05
-0.000118168
2.88851e-05
-2.78283e-07
2.69956e-05
-2.04836e-05
0.000130373
9.35048e-05
1.62629e-05
0.00013634
0.000184361
-2.35531e-05
-4.71428e-05
1.36134e-06
4.57888e-05
1.17764e-05
-0.000132273
0.000120515
0.000118711
-8.17342e-05
-0.000101009
0.00017331
-0.000115461
0.000122752
-0.000145726
9.15148e-05
5.42113e-05
-8.02567e-05
7.80388e-05
2.21051e-06
-1.86734e-05
-7.67994e-05
9.54739e-05
-4.77313e-05
0.000128296
-8.0559e-05
1.89087e-05
-8.75288e-05
-1.92721e-05
9.17002e-07
1.83323e-05
0.000117898
-0.000106086
-7.03175e-05
-5.79182e-05
-3.50796e-05
8.6759e-05
-5.16666e-05
-8.67164e-05
-4.94321e-05
-7.95314e-05
1.95681e-05
5.95042e-05
7.64007e-05
-0.000109555
0.000119177
-9.63014e-06
2.45726e-05
5.72887e-05
-8.18478e-05
-3.08607e-05
-0.000126819
7.47512e-06
2.60574e-05
-3.35328e-05
-1.24415e-06
1.44024e-07
2.39616e-05
-3.65631e-05
8.14786e-05
-4.49151e-05
0.000155712
-0.000105179
-5.05285e-05
-2.31374e-05
0.000120973
-1.65851e-05
0.000175889
-0.000159309
-6.41112e-05
4.53672e-05
-8.19264e-05
1.71601e-05
5.76177e-05
0.000105327
-0.000162542
5.72129e-05
-0.000154175
0.000136143
1.8036e-05
-0.000134976
0.000191664
-5.66905e-05
3.33862e-05
3.12698e-05
-6.46497e-05
0.000124364
0.000106165
7.32115e-05
-0.00010426
-9.94963e-05
-0.000119259
-1.56567e-05
0.000138525
-1.78554e-05
9.75791e-06
6.07318e-05
7.16405e-05
-7.54562e-05
4.03811e-05
0.000205586
-3.2778e-05
-1.87499e-05
0.000167337
-5.49928e-05
-0.000101254
-0.000282623
0.000222633
-1.5249e-06
1.02337e-06
5.0829e-07
-0.000173252
4.14974e-06
-3.28264e-05
4.03012e-05
0.000137123
-3.92876e-05
-0.000124792
-2.75267e-05
1.4397e-06
-7.38952e-05
0.000157286
0.000120716
1.64059e-05
1.22557e-06
-1.80111e-06
5.91192e-07
5.27089e-05
7.40727e-05
0.000135356
4.51714e-05
-0.000180524
-7.0981e-05
-7.79036e-05
-9.91194e-05
2.29604e-05
-5.94805e-05
3.65268e-05
1.53131e-05
9.44631e-05
6.88675e-05
4.79968e-05
-0.000116835
0.000202049
-0.000112053
-8.99938e-05
-5.5026e-05
0.000141519
1.76081e-05
0.00017306
-7.83756e-05
-9.46827e-05
9.35419e-06
-1.89393e-06
0.000171322
-0.000187911
0.0001167
8.53456e-05
-0.000183955
7.6607e-05
0.000107353
-1.68852e-05
-1.50009e-06
1.83735e-05
1.57784e-05
-6.30276e-05
4.72545e-05
-4.97817e-05
0.000128676
-7.88894e-05
-2.79875e-05
0.000163517
-0.000135523
-0.000113179
-7.07714e-05
-0.000167057
0.000175256
-8.1698e-06
9.45227e-05
-4.38185e-05
5.04926e-05
4.60034e-05
-9.64682e-05
-3.41101e-05
-5.2896e-05
8.70269e-05
0.000152924
-1.95067e-05
-0.000133415
8.6223e-06
0.000140088
-2.58179e-05
0.000115097
-8.92728e-05
-3.10055e-05
0.000137867
-5.47389e-05
8.35096e-05
-0.00015741
-0.000180943
3.81444e-05
0.000142803
8.1567e-05
-0.000129299
0.000134132
-1.4388e-05
2.25908e-05
1.27461e-06
-2.38671e-05
-3.68099e-05
0.000133747
-0.000121963
9.63996e-05
0.000100436
-0.000157962
-3.19934e-05
0.00018994
0.000173138
2.87923e-05
0.00014219
-3.68683e-05
2.53363e-05
-0.000100267
-1.58914e-05
-4.41145e-05
4.29341e-05
2.11646e-05
-6.40941e-05
8.25293e-06
-8.27162e-06
0.000142574
-0.000154809
-6.97852e-05
0.000170216
-5.43996e-05
-7.18875e-05
-5.79543e-05
6.09008e-05
-2.94634e-06
3.61563e-05
-1.65876e-05
-9.9919e-05
7.11116e-05
2.88056e-05
-0.000113346
7.46575e-05
3.8682e-05
-8.89218e-05
-9.33275e-05
-4.23001e-05
0.000173335
-0.000131058
-0.000116782
3.54118e-05
2.51288e-06
2.00799e-05
-5.38674e-05
0.000128884
-7.50172e-05
-4.09754e-05
8.33984e-05
-4.24088e-05
-7.02709e-05
1.39107e-05
5.63599e-05
9.5992e-06
-6.60568e-07
-8.94909e-06
-0.000148805
0.000147923
8.84323e-07
0.000123805
-0.000139063
1.52553e-05
-5.34952e-05
-4.64248e-05
1.54331e-05
-8.28805e-05
6.74493e-05
-6.8322e-05
-1.19466e-05
-5.3761e-05
1.27412e-05
-1.21939e-05
0.000136862
0.000141735
2.60871e-05
6.61965e-07
0.000108823
-0.000110282
1.47345e-06
-6.29101e-05
-3.91057e-05
-1.76032e-05
2.53222e-05
5.08471e-07
-0.000107798
9.10915e-05
0.000114606
6.40785e-05
4.45271e-05
-0.000113177
0.00012046
3.04331e-06
-0.000123506
2.21598e-06
-8.4455e-06
6.23728e-06
-2.90868e-05
6.92138e-06
0.000139806
-0.000182119
1.57566e-05
-0.000182775
-0.000147294
-4.45173e-05
0.000191768
3.3505e-05
-0.000173508
0.000139958
0.000106028
-1.01972e-05
5.26694e-05
-0.00013468
0.000172802
-3.61603e-05
9.48243e-05
-0.000155092
0.000200327
-0.000105534
-9.16513e-05
0.000144323
-0.000102896
-4.75815e-05
0.000148519
-1.26047e-05
-0.00013591
0.000136845
5.89e-05
-7.41947e-05
-1.23597e-05
1.44738e-05
-2.11527e-06
0.000176323
7.00519e-06
0.00016101
-0.000167991
-2.5771e-05
7.40659e-05
-4.82866e-05
0.000170552
-6.83261e-05
-0.000102225
9.4607e-05
-0.000126356
9.04826e-05
-0.000140262
5.25921e-06
8.61147e-05
-9.1391e-05
0.00013524
-0.000144148
2.92203e-05
-0.000192917
0.000163696
4.1797e-06
-1.64951e-05
1.23187e-05
-2.35034e-05
-1.39994e-06
-5.19863e-07
-8.17206e-06
8.69668e-06
-4.66348e-05
2.61292e-05
4.72582e-05
6.7654e-06
-2.63866e-06
7.52072e-05
-0.000129606
1.5593e-05
-0.000143752
0.000128139
-8.45028e-05
-5.35278e-05
0.000138045
-0.000139345
4.99447e-05
8.9387e-05
0.000209092
-8.69636e-05
-0.000122109
0.000154464
-5.94453e-06
-8.1908e-05
8.71622e-05
1.74926e-05