/*--------------------------------*- C++ -*----------------------------------*\
| =========                 |                                                 |
| \\      /  F ield         | OpenFOAM: The Open Source CFD Toolbox           |
|  \\    /   O peration     | Version:  v2012                                 |
|   \\  /    A nd           | Website:  www.openfoam.com                      |
|    \\/     M anipulation  |                                                 |
\*---------------------------------------------------------------------------*/
FoamFile
{
    version     2.0;
    format      ascii;
    class       volScalarField;
    location    "50";
    object      nut;
}
// * * * * * * * * * * * * * * * * * * * * * * * * * * * * * * * * * * * * * //

dimensions      [0 2 -1 0 0 0 0];


internalField   nonuniform List<scalar> 
13726
(
0.000465864
0.000455782
0.00129192
0.0012873
0.000460595
0.00601122
0.00123835
0.000467862
0.000469806
0.00499294
0.00121379
0.00432079
0.000576386
0.000466202
0.000514977
0.000454968
0.000503732
0.00688285
0.00134919
0.00045946
0.00052179
0.00045932
0.000456287
0.000540779
0.000537211
0.00318143
0.000458132
0.000458302
0.000469394
0.000467525
0.00046722
0.000461724
0.00547546
0.000470298
0.000462056
0.000530185
0.000460852
0.000463419
0.000467746
0.00675848
0.000467162
0.00045728
0.000475044
0.000461379
0.000456013
0.000458352
0.000455551
0.000573042
0.000459572
0.000459128
0.000487678
0.00056443
0.000468652
0.000466405
0.000463566
0.00046107
0.000463534
0.000459359
0.000459676
0.000459997
0.000459744
0.000453708
0.00046055
0.000533116
0.000520208
0.000456477
0.00046711
0.000460371
0.00047043
0.000460041
0.000463168
0.00102161
0.000459325
0.00050446
0.00046445
0.00045955
0.000456723
0.00648402
0.000520857
0.00052596
0.00660994
0.0021619
0.000454669
0.000462764
0.000467883
0.000945925
0.00046037
0.00556335
0.000606678
0.000456551
0.000460247
0.000460812
0.000453546
0.000458271
0.000468044
0.000601522
0.000460762
0.000467598
0.000600158
0.000950216
0.000460481
0.00520251
0.000467808
0.00045909
0.000457441
0.000457909
0.00563003
0.000458239
0.000455299
0.000454975
0.000463975
0.000455959
0.00046474
0.000466267
0.000459365
0.000518866
0.000466219
0.00205716
0.000459198
0.00146498
0.000510843
0.00103698
0.00048991
0.000464628
0.000460812
0.000460057
0.00045455
0.0042997
0.000454758
0.00644071
0.000464029
0.000605436
0.00046326
0.000456405
0.000464033
0.00046407
0.000540834
0.000454603
0.000459252
0.000456585
0.000454719
0.000461832
0.00065403
0.000462421
0.000743688
0.000455746
0.000489526
0.000462212
0.000515691
0.000454425
0.000489495
0.000464829
0.000482595
0.000620299
0.000461727
0.000470912
0.000478835
0.000453593
0.000480353
0.00511338
0.000456581
0.00046208
0.000656212
0.00238805
0.000458077
0.000454075
0.000457316
0.000459053
0.000464499
0.000460306
0.000461559
0.000466423
0.000458236
0.000462892
0.000456697
0.000457306
0.00687496
0.00592445
0.000457212
0.00431269
0.000467365
0.000489658
0.00333698
0.00224328
0.00129536
0.000458924
0.00474767
0.000456469
0.00195521
0.000457712
0.000472508
0.000454157
0.000458232
0.000461028
0.00598852
0.000480824
0.000454579
0.00499129
0.000455477
0.000457419
0.000459539
0.000463872
0.000456711
0.000459471
0.000460557
0.000459367
0.000597676
0.000901449
0.000461855
0.00572839
0.000459948
0.00153392
0.000457913
0.000452844
0.000463769
0.000745986
0.000479186
0.000454519
0.000650954
0.000451217
0.000453915
0.000461743
0.000477778
0.000455989
0.00193327
0.000457042
0.000453483
0.000601744
0.000458966
0.000491662
0.0039471
0.00494244
0.00529657
0.00516734
0.000480997
0.00538476
0.000468212
0.000472565
0.000457745
0.00429522
0.00046863
0.000465287
0.000468595
0.000521296
0.00537613
0.000554867
0.000478607
0.000461373
0.000486891
0.000455896
0.000503656
0.00509805
0.000462829
0.000456717
0.000462926
0.00335467
0.000460453
0.000472198
0.00161608
0.000461604
0.00271162
0.000461113
0.00045804
0.000454735
0.000463864
0.00335533
0.000453921
0.000465665
0.000482756
0.000512746
0.000480732
0.000468793
0.00051359
0.000608473
0.000487959
0.000454164
0.000523601
0.000456411
0.000597458
0.000463442
0.000461046
0.000453737
0.000464794
0.00051547
0.000489771
0.000500563
0.000472015
0.000462812
0.000581594
0.00661364
0.000506429
0.00046214
0.00574913
0.000453588
0.000462024
0.0012514
0.000466887
0.000673846
0.000454784
0.00150843
0.000460877
0.0029551
0.000457899
0.00559415
0.000478197
0.000468119
0.000461669
0.000464854
0.000476762
0.00045126
0.000490072
0.000466645
0.00611957
0.000459328
0.00268625
0.00407257
0.000453967
0.000971374
0.000467872
0.0011152
0.000461909
0.000476758
0.00194727
0.000463625
0.000458407
0.000460084
0.00339362
0.00304833
0.00269449
0.000458994
0.000458076
0.000453899
0.000951346
0.00045862
0.000471335
0.000485025
0.000454646
0.00046684
0.000479822
0.000952143
0.000460293
0.000461442
0.000790312
0.000596256
0.000464633
0.0056782
0.000458648
0.00354861
0.000454848
0.000459073
0.000459741
0.00385781
0.000455408
0.000462921
0.000457202
0.000462241
0.000493428
0.000665739
0.00236347
0.000457256
0.000469375
0.000468061
0.00108871
0.000555287
0.000464185
0.000460545
0.00151005
0.00046735
0.000462579
0.000628638
0.000459232
0.000481773
0.000453917
0.000460775
0.000460353
0.00470573
0.000451931
0.00260511
0.000481961
0.00179786
0.000490461
0.00307217
0.000470683
0.000458661
0.000502749
0.000462429
0.00462144
0.00597161
0.000455889
0.000464485
0.000459594
0.000458997
0.000544587
0.000456899
0.000461686
0.000481053
0.00562394
0.00119728
0.000459077
0.000458403
0.000548374
0.00045143
0.00045784
0.000457053
0.00045643
0.00110931
0.0048908
0.000493345
0.000477519
0.00045895
0.00559343
0.000453997
0.000542188
0.000457753
0.000490905
0.000463836
0.000648044
0.000458362
0.000455295
0.000458662
0.000457987
0.00046028
0.000451279
0.000468334
0.000479498
0.000458979
0.000459674
0.00046797
0.00403876
0.000453423
0.000475006
0.000453584
0.000460646
0.000457311
0.00127526
0.000468516
0.000459467
0.000465741
0.00511047
0.00188902
0.000458981
0.000457232
0.000459707
0.00278737
0.000459352
0.000454885
0.000585012
0.00465432
0.000458313
0.000546397
0.000456205
0.00191975
0.00638236
0.000458161
0.000491127
0.000562576
0.000456008
0.000455954
0.00045817
0.000461612
0.000460135
0.000456167
0.00515682
0.000467289
0.000565815
0.00493945
0.000462965
0.000529189
0.000460516
0.00211801
0.000462888
0.000452797
0.000598115
0.00154117
0.00052733
0.000507845
0.000552355
0.000456056
0.000460671
0.000474809
0.000453036
0.000460903
0.000456492
0.00374891
0.000456502
0.000470645
0.000451981
0.00459358
0.000727974
0.000607785
0.00364882
0.000466068
0.000466549
0.00601193
0.000499042
0.000459182
0.000455896
0.000464059
0.000453398
0.000456385
0.00107206
0.00051551
0.000462238
0.000454753
0.000460157
0.00351168
0.000456709
0.000452679
0.000468127
0.00205522
0.000454527
0.000454521
0.000457484
0.000464541
0.000460917
0.000456994
0.000455558
0.000458972
0.00253909
0.000461293
0.00045936
0.000453231
0.00461012
0.000460948
0.000459587
0.000560224
0.000460825
0.000498863
0.000668881
0.00046391
0.000566535
0.000455752
0.000454053
0.00490775
0.00229295
0.00513905
0.00398702
0.000468827
0.000460998
0.000464616
0.000462274
0.00130263
0.00587288
0.000461496
0.000468937
0.000456212
0.000460096
0.000456284
0.000459738
0.00384664
0.000455801
0.00119353
0.000464151
0.000473519
0.000460202
0.000458562
0.000459319
0.00189534
0.000465204
0.000459277
0.000452489
0.00530938
0.000457637
0.000565089
0.000473802
0.00651014
0.000470785
0.000454309
0.00197258
0.00213654
0.000467409
0.000730025
0.000457002
0.00045994
0.000473407
0.000492838
0.00422392
0.000460116
0.000453783
0.000465223
0.000453299
0.000459313
0.00313709
0.000454673
0.000453508
0.000460148
0.000466055
0.000455744
0.00496318
0.000504201
0.00618214
0.000459317
0.000460355
0.000880207
0.000458811
0.000477018
0.000458341
0.000457655
0.00495581
0.000466286
0.00418478
0.0004665
0.000458472
0.000452416
0.00520275
0.00647031
0.000464116
0.000461263
0.000475013
0.000468845
0.000464509
0.000458493
0.000462191
0.000459943
0.000468268
0.000454825
0.000468118
0.0004569
0.000512701
0.000457195
0.000460911
0.000457797
0.000463963
0.000526305
0.0059511
0.00685581
0.000458252
0.000461787
0.000453991
0.000456861
0.000461328
0.000465391
0.00424248
0.000456067
0.00385648
0.000589561
0.000460014
0.000453466
0.000459067
0.0057269
0.000469157
0.00045975
0.00046859
0.000458097
0.000460938
0.000513908
0.000453133
0.000500347
0.000690342
0.000466272
0.00045985
0.000460462
0.000449125
0.000457577
0.00537203
0.0015048
0.00046626
0.000731349
0.00116805
0.000460759
0.000454232
0.000456088
0.000463195
0.000456971
0.000457405
0.00440348
0.00618945
0.000468367
0.000534674
0.000463898
0.00398045
0.000462955
0.00421711
0.000463405
0.000559598
0.000462242
0.000460534
0.000454085
0.000460875
0.000945811
0.000454162
0.000459928
0.000456175
0.000545123
0.000555544
0.000460334
0.000543408
0.00512889
0.0056873
0.000483857
0.000511052
0.000460479
0.00662908
0.000457796
0.000465425
0.000464862
0.000457959
0.000485339
0.00045862
0.000464763
0.00349823
0.00083992
0.000464265
0.000462704
0.000484781
0.000454811
0.000459449
0.00340631
0.00045749
0.000460698
0.00527948
0.000463287
0.00046505
0.000457089
0.00469106
0.000468436
0.000587872
0.00045556
0.000452926
0.000469003
0.000461808
0.00104345
0.00576262
0.000456077
0.00045265
0.000464331
0.000457088
0.000457247
0.000457057
0.000455925
0.000547995
0.00045987
0.000459874
0.000463113
0.00658958
0.00146529
0.000457718
0.00045775
0.000508876
0.000476054
0.00548395
0.000471844
0.000467696
0.000455646
0.00612977
0.00079643
0.000507552
0.000484604
0.000462586
0.00391758
0.000458864
0.0004681
0.00045895
0.000453794
0.000459044
0.00532126
0.000467608
0.000469393
0.000452634
0.000455286
0.000457143
0.000460436
0.00325359
0.000451593
0.000455698
0.00045429
0.000462912
0.000459497
0.00409206
0.000452747
0.000668063
0.000461932
0.000457926
0.00046505
0.000460954
0.000457739
0.000466233
0.0065244
0.00046379
0.000627714
0.000466291
0.000487842
0.000460195
0.000459399
0.00305227
0.0004779
0.000456576
0.000460545
0.000457336
0.00145661
0.00452906
0.000465238
0.000459801
0.00544198
0.000458948
0.000489266
0.000466537
0.000723556
0.000456621
0.00046853
0.000456494
0.000521217
0.000462037
0.000468671
0.000488524
0.000467446
0.000462513
0.000857227
0.000468503
0.000468316
0.000466876
0.000529332
0.000459114
0.0017267
0.000460857
0.000459453
0.000454058
0.0004611
0.000461667
0.000465491
0.000463543
0.000459579
0.00072299
0.000468785
0.00045762
0.000493786
0.000571479
0.000480153
0.000453982
0.00556761
0.00046005
0.000477949
0.000463133
0.000451482
0.000460891
0.000468721
0.000462018
0.000484009
0.000455939
0.00045579
0.000461839
0.00524544
0.00048585
0.000700956
0.000455824
0.000454863
0.000457661
0.00142206
0.000466031
0.000463032
0.000459333
0.00260622
0.0041774
0.000515131
0.000585482
0.000462478
0.00046034
0.000460335
0.00652038
0.000863105
0.000459797
0.000461182
0.000452415
0.000516962
0.000462346
0.000451266
0.000452544
0.00418655
0.000487189
0.000476833
0.000463082
0.000456969
0.00360872
0.000464075
0.000811062
0.000454058
0.000460118
0.00045419
0.000459584
0.000468843
0.000461603
0.000453865
0.000457975
0.00435847
0.00223623
0.000458421
0.000464981
0.00045792
0.000460437
0.000677586
0.00048076
0.00607292
0.000455857
0.00046077
0.000457738
0.000453337
0.000460572
0.000451362
0.000457646
0.000459753
0.00484062
0.00139343
0.000465005
0.000461425
0.00045639
0.000464298
0.000456242
0.000455815
0.000458898
0.0023357
0.000463104
0.000469391
0.000453571
0.000471757
0.000450964
0.00196308
0.00516808
0.000457613
0.000491262
0.00045166
0.000456838
0.000463532
0.00167317
0.000451424
0.000615074
0.000460319
0.000468776
0.000458535
0.000454852
0.000457769
0.0004627
0.000465614
0.00491074
0.000460288
0.00045472
0.000469237
0.000465701
0.000463153
0.000459464
0.004598
0.000468628
0.000464914
0.000452563
0.00571655
0.000462519
0.00456602
0.00493545
0.000456924
0.000460551
0.000462102
0.000458711
0.00046387
0.000456858
0.000463989
0.000456222
0.000456162
0.000457168
0.00045995
0.000454843
0.000458928
0.000460143
0.000467767
0.000459533
0.000471672
0.000460695
0.000452469
0.00655633
0.000453557
0.000458458
0.00045794
0.000456277
0.000474812
0.00434105
0.000468357
0.00179273
0.000463096
0.000564886
0.00217177
0.000451058
0.00048756
0.000459455
0.000459846
0.000528102
0.000454615
0.000458013
0.000478505
0.000468656
0.000460142
0.000468759
0.000451629
0.00046256
0.000467824
0.000464437
0.00092754
0.000739058
0.000457445
0.000459547
0.000461715
0.000456909
0.00045612
0.00503205
0.00158622
0.00132116
0.000455034
0.00241184
0.000456878
0.000488794
0.000794008
0.000485648
0.000458636
0.000452418
0.000459092
0.00598921
0.000452523
0.000461706
0.000496078
0.000457103
0.000455682
0.000471703
0.00140423
0.00574352
0.00326594
0.000466346
0.000453236
0.000889422
0.00601348
0.000459267
0.00438916
0.000463569
0.000808324
0.000459434
0.000513733
0.00046083
0.00345051
0.000456958
0.00046373
0.00444267
0.000459485
0.00174068
0.000459524
0.000456118
0.000654891
0.00361133
0.000467213
0.000460518
0.00046639
0.000457235
0.000528808
0.000461537
0.000459234
0.000454134
0.000458843
0.000460769
0.000458885
0.000453665
0.00053455
0.000461341
0.00590871
0.000467741
0.000464535
0.000465901
0.000455416
0.000456679
0.000523436
0.000453442
0.00226219
0.00045752
0.000472103
0.000577571
0.000444529
0.000617889
0.000462125
0.000464562
0.000719639
0.0055055
0.000460532
0.00102267
0.00301731
0.00164061
0.000482861
0.000460079
0.00172438
0.00326208
0.000458585
0.000460422
0.000459894
0.00045555
0.00045337
0.000455805
0.000452547
0.000457962
0.00190139
0.000453442
0.000525054
0.000498624
0.000455136
0.00045781
0.00046832
0.000491637
0.00049153
0.000465657
0.000455859
0.000455844
0.000468752
0.000459792
0.000458411
0.00476237
0.000466671
0.0039407
0.00241082
0.000464119
0.000462667
0.000462072
0.000484025
0.000461383
0.00045639
0.000461904
0.000498459
0.000456627
0.000456345
0.000457001
0.000773427
0.000457201
0.000470739
0.000466456
0.000459052
0.000459215
0.000463007
0.000459207
0.000479367
0.00549683
0.000461332
0.000460948
0.000455586
0.00598388
0.00045977
0.000463689
0.00045974
0.0038773
0.000455751
0.000639358
0.000453231
0.000460939
0.000594148
0.000648514
0.00327416
0.00406743
0.000456007
0.000457092
0.000462796
0.00045978
0.000464177
0.000470466
0.00049341
0.000460222
0.000461759
0.000453906
0.0041193
0.000390084
0.000460016
0.000742938
0.000453414
0.000457022
0.000461685
0.000460972
0.000472343
0.00316267
0.00595673
0.000459991
0.000459765
0.00189103
0.00045975
0.00047395
0.000476586
0.000459235
0.00046079
0.000452941
0.000466004
0.000536679
0.000460267
0.000461586
0.000480158
0.000480263
0.00615075
0.0036263
0.000468257
0.000484208
0.000562338
0.000921674
0.000457574
0.000457222
0.000594224
0.00164278
0.000461796
0.000467369
0.000464643
0.000456096
0.000461724
0.000483782
0.000468845
0.000451374
0.000703521
0.00046685
0.00189396
0.000456759
0.000469184
0.00453091
0.000455968
0.00115865
0.00374529
0.00230399
0.000593707
0.000459668
0.000483069
0.000456016
0.000463314
0.000465646
0.00156592
0.000463006
0.000453143
0.000462524
0.000465516
0.000452805
0.00599607
0.000461953
0.000470069
0.000533805
0.000458265
0.000472706
0.000463344
0.000513419
0.000457123
0.000452375
0.00239046
0.00629517
0.000452681
0.000461056
0.000505514
0.000470473
0.000467274
0.000461917
0.000457583
0.000462099
0.000457886
0.000465635
0.00122488
0.000455051
0.000460368
0.000629555
0.000455992
0.000462749
0.00045465
0.000465706
0.000504373
0.000466083
0.000454244
0.00322567
0.000457709
0.000465132
0.00103533
0.000467237
0.00512638
0.000551726
0.000593093
0.00142748
0.000463235
0.00569585
0.000466725
0.00046627
0.00045448
0.000463733
0.0049535
0.000458706
0.000461932
0.000457023
0.00056556
0.000460151
0.00564003
0.00045496
0.000466445
0.000456131
0.000458074
0.000459597
0.00046301
0.000476974
0.000456153
0.00256404
0.00526539
0.00336405
0.000999633
0.000462736
0.000667288
0.000693467
0.000460843
0.000483732
0.000459614
0.000457644
0.00074161
0.0083749
0.00283737
0.000460977
0.000458914
0.000639168
0.000734575
0.000470802
0.000454047
0.000458137
0.000465769
0.000476064
0.000452665
0.000463565
0.00440121
0.000476142
0.000505775
0.000460275
0.000459153
0.00050126
0.000465704
0.0007699
0.000454266
0.000466686
0.000478752
0.000461902
0.00045452
0.000692651
0.00045598
0.000467523
0.000466784
0.0004623
0.000474113
0.000457089
0.000462995
0.000757234
0.00655083
0.000456885
0.000495939
0.000460688
0.00418025
0.000456135
0.000504762
0.000456376
0.000458925
0.000491965
0.000933347
0.000462926
0.000457531
0.000469471
0.000559876
0.000479619
0.00049779
0.000459951
0.000519426
0.000458375
0.00534435
0.000296076
0.00405928
0.000464612
0.00601065
0.000458188
0.00243391
0.000463459
0.000461781
0.00574077
0.0014118
0.000465116
0.000455981
0.000531928
0.000462522
0.000492285
0.000467233
0.000453308
0.00552773
0.000459102
0.00625738
0.00342609
0.000456241
0.00058321
0.000465733
0.000459869
0.000452662
0.000455102
0.00473542
0.00045888
0.000463275
0.00441865
0.000587738
0.000655523
0.000459925
0.00204177
0.000461715
0.000457239
0.00045553
0.00045969
0.000483601
0.00483484
0.000458208
0.00266114
0.000653806
0.0004581
0.000456524
0.000458837
0.00382275
0.000472807
0.000344544
0.000476602
0.000561812
0.000459886
0.000458981
0.000469273
0.000468221
0.000459989
0.000463248
0.000464894
0.00045693
0.000500727
0.00428389
0.000460779
0.000460537
0.000604576
0.000465629
0.00374484
0.000456606
0.00428442
0.00235028
0.000476236
0.000678658
0.000619187
0.000460022
0.000466429
0.00598004
0.000464368
0.00067943
0.00578068
0.000456713
0.000457091
0.000455357
0.00214142
0.000604251
0.000465703
0.000464905
0.000461382
0.000610393
0.000463163
0.000462646
0.00512995
0.000467427
0.00424175
0.00440353
0.00605723
0.000467306
0.0038283
0.000464915
0.000455963
0.00430041
0.000460186
0.0023885
0.000471151
0.00558431
0.00649591
0.000457303
0.000892546
0.000458542
0.00541643
0.000526191
0.00447688
0.000460002
0.00507691
0.000461061
0.00522042
0.0018465
0.000464076
0.000466308
0.00324999
0.000466153
0.00051733
0.00141622
0.000454471
0.000462399
0.000526815
0.00227129
0.00045935
0.000486723
0.000453056
0.0032538
0.000451278
0.000454258
0.00627118
0.000451616
0.000511428
0.000464667
0.000466738
0.000483282
0.000462959
0.000461009
0.000460562
0.000509721
0.000583487
0.00046009
0.000454291
0.000457908
0.000456005
0.000465841
0.000475824
0.000454119
0.00846474
0.000470077
0.000464378
0.000462581
0.00541401
0.000452763
0.000456453
0.000453953
0.000457179
0.000453991
0.000452527
0.000457641
0.00351316
0.00122373
0.000460207
0.000513579
0.000455987
0.000485621
0.000694322
0.00430748
0.000480796
0.000460314
0.000466585
0.00354565
0.000466356
0.000452324
0.000624061
0.000769611
0.000462383
0.00459835
0.000492714
0.00475559
0.00238739
0.00061613
0.000458198
0.00526097
0.000454087
0.000454844
0.000462801
0.000452901
0.00543145
0.000567411
0.00046349
0.000487887
0.000500745
0.000459121
0.00049057
0.0045773
0.000641052
0.000467284
0.000454802
0.000465163
0.000460077
0.000463041
0.000457428
0.000490776
0.00046065
0.000454136
0.0049087
0.00502273
0.00046679
0.000453522
0.00050013
0.00045884
0.00449335
0.000463108
0.000456924
0.00416441
0.000794542
0.00048197
0.00145433
0.000648335
0.000500315
0.00110461
0.000459645
0.00605809
0.000463377
0.000452368
0.00512352
0.000460943
0.000459366
0.00247224
0.00391426
0.00809452
0.000454878
0.000477264
0.00504684
0.000460326
0.000605067
0.000507683
0.000613955
0.0064245
0.00340236
0.00383315
0.000459135
0.00489977
0.0044699
0.000613128
0.000466778
0.00045877
0.00045879
0.00045902
0.00473536
0.00426648
0.000525093
0.000454086
0.000501578
0.000465145
0.000458903
0.00433584
0.000458164
0.00424507
0.0055985
0.000459245
0.00047797
0.0021772
0.000518171
0.000709214
0.00046012
0.00046021
0.000668588
0.000460603
0.000455255
0.000463063
0.000463446
0.000459098
0.00623919
0.000582271
0.000464871
0.000506017
0.000468653
0.000454585
0.00048111
0.000462227
0.000459849
0.000479738
0.00169638
0.00627632
0.000463667
0.000465898
0.00420541
0.000452302
0.000470009
0.00457443
0.000459321
0.00197952
0.000514979
0.000468666
0.00661702
0.000459017
0.000469045
0.000598786
0.0040675
0.000456308
0.000457998
0.00131363
0.000456944
0.00107431
0.000572707
0.000636255
0.000472985
0.000458192
0.000499206
0.000456521
0.000468892
0.000474585
0.00046215
0.000477191
0.00045515
0.00636085
0.000453504
0.000453471
0.00345212
0.00141684
0.00437525
0.00049781
0.00045376
0.000458951
0.000459581
0.000567449
0.00104656
0.000457795
0.000617784
0.00576366
0.00503417
0.000499097
0.00045157
0.000462361
0.00117951
0.00450821
0.000455489
0.000451612
0.000456303
0.000455875
0.000456875
0.000507719
0.000457696
0.000454523
0.000468778
0.000490957
0.000496412
0.000507142
0.000543892
0.000456881
0.000493421
0.00372588
0.00046987
0.000463021
0.000516369
0.00390264
0.000629298
0.000459802
0.000454275
0.000623849
0.00393094
0.000577263
0.000458914
0.000458565
0.000456109
0.00438363
0.00501474
0.00420604
0.000465091
0.0033804
0.000460488
0.00045508
0.000493977
0.000477934
0.00045592
0.0062051
0.000459403
0.000457756
0.000474449
0.000594369
0.000477028
0.000453546
0.000482531
0.000459177
0.000500803
0.000463698
0.000469307
0.00399496
0.000515732
0.00383511
0.00046352
0.000471105
0.000459296
0.000456642
0.000463481
0.00086309
0.000557039
0.00451086
0.00421443
0.000451666
0.000452072
0.000451641
0.000462424
0.000614694
0.0050215
0.000459869
0.000459132
0.000455205
0.000458895
0.004382
0.00335934
0.000473895
0.000460764
0.000461938
0.000566165
0.00596523
0.000493242
0.00444342
0.00437411
0.000464812
0.00045494
0.000459092
0.00045598
0.00407583
0.000814689
0.000469238
0.000460502
0.00444922
0.000560604
0.00045991
0.00529936
0.00440196
0.00147076
0.000464374
0.000462599
0.00664842
0.00398185
0.00452093
0.00456414
0.000462021
0.000456327
0.000462307
0.000458513
0.000635464
0.000451676
0.000487217
0.000458559
0.00049774
0.00676055
0.000462852
0.000455222
0.00389723
0.00389377
0.00393505
0.000463511
0.00054319
0.000678138
0.00556135
0.000468895
0.00274613
0.00524816
0.00341301
0.000465582
0.000468648
0.000459571
0.0024163
0.000460879
0.00477237
0.000455885
0.00045407
0.00392829
0.000465162
0.000499192
0.00390138
0.000495789
0.000468445
0.00056253
0.000471814
0.000659095
0.000466321
0.000463996
0.000689485
0.000457491
0.000456812
0.000474361
0.00433081
0.000459581
0.000454193
0.000460736
0.00492722
0.000773717
0.0023993
0.00585509
0.000589929
0.00401818
0.000459907
0.000455043
0.000491433
0.000463147
0.00473093
0.000468832
0.000459063
0.00045831
0.00454351
0.00046313
0.00135721
0.000454415
0.000502977
0.000487939
0.00046203
0.000455223
0.000457583
0.000641568
0.00547646
0.00554056
0.000458134
0.00419408
0.000474443
0.0039444
0.000463969
0.000456095
0.000493068
0.00490867
0.000462089
0.000491772
0.000463754
0.000542945
0.000464176
0.000458728
0.000461858
0.00388225
0.000592872
0.00368643
0.000463679
0.000467142
0.00393953
0.000469483
0.00615986
0.000460782
0.000458647
0.000659594
0.00320759
0.000456348
0.00197858
0.0049665
0.00538406
0.000457631
0.000456989
0.000460906
0.000466666
0.000460797
0.000458911
0.000456402
0.00430126
0.00388927
0.000462895
0.000427261
0.000468897
0.00046183
0.000520888
0.000459006
0.000459236
0.000459069
0.000465115
0.000507197
0.0050802
0.00530029
0.00045373
0.000463454
0.000461668
0.000457452
0.00212992
0.00544901
0.000459637
0.00526933
0.00426151
0.000523356
0.000462175
0.000452442
0.000452828
0.000457196
0.000453952
0.000460128
0.000461019
0.000534167
0.000560095
0.000456941
0.00394641
0.000456981
0.00483511
0.00409988
0.000461364
0.000458846
0.00401378
0.000456833
0.000451647
0.000453862
0.000473605
0.000459222
0.000464159
0.000457176
0.000456687
0.00120475
0.000462362
0.00290561
0.000467416
0.000463582
0.00167707
0.000462363
0.00382191
0.000486269
0.000459304
0.000453412
0.00045989
0.00396938
0.000459316
0.000472422
0.000485361
0.000453459
0.00578585
0.00049289
0.000461035
0.000456549
0.000456253
0.00412908
0.000460005
0.000461708
0.000461413
0.0004615
0.000460625
0.00515452
0.00381235
0.000458856
0.000455894
0.000463198
0.000458497
0.000458821
0.000459211
0.000633942
0.000467074
0.00457106
0.000458718
0.000459141
0.000456196
0.000460983
0.00046497
0.000461568
0.000464427
0.000546001
0.000558769
0.00569638
0.00046235
0.000537964
0.000459211
0.00127701
0.000463662
0.000460368
0.000471676
0.00045963
0.000461666
0.000454179
0.000458913
0.000579953
0.00364158
0.000464747
0.00498277
0.00305545
0.000463964
0.000456772
0.000469187
0.00311965
0.000453311
0.000461715
0.000461225
0.000743932
0.00403129
0.000457255
0.000460736
0.00509717
0.003393
0.000462337
0.00226069
0.00423773
0.000650048
0.00046016
0.000461643
0.000465195
0.000696668
0.000465255
0.0059003
0.000462096
0.000463828
0.000465055
0.00337736
0.00378585
0.000462687
0.00579936
0.00318135
0.000502564
0.000463956
0.000465685
0.000852594
0.000498309
0.00493856
0.000457518
0.000468866
0.00367129
0.000457228
0.000457571
0.00316656
0.000461432
0.000458308
0.00104412
0.000496201
0.000456548
0.000493887
0.00357029
0.00045662
0.000465252
0.00046021
0.00476333
0.000459297
0.000464745
0.000460498
0.00487736
0.000533085
0.000467183
0.000480771
0.000491966
0.000453716
0.000469444
0.000459856
0.000397818
0.000456874
0.000457206
0.000454407
0.000724758
0.000458492
0.00748749
0.000489324
0.00353714
0.000458159
0.000591163
0.00482304
0.000460473
0.000455135
0.00054184
0.0022678
0.00660169
0.000458721
0.000464666
0.000463773
0.00476725
0.000486958
0.00083669
0.00046199
0.000465842
0.000468838
0.000461817
0.000507333
0.000457927
0.000484003
0.000457379
0.000484792
0.00442038
0.000457861
0.000459205
0.000467999
0.000453182
0.00104106
0.000462405
0.000480137
0.000459366
0.000476832
0.000461062
0.000459956
0.00047837
0.000451795
0.00472399
0.00359487
0.00289386
0.000455535
0.000461433
0.000467549
0.000474457
0.000458492
0.00412954
0.000453647
0.000618683
0.000456599
0.000456911
0.000593942
0.000453515
0.000455859
0.000460591
0.000453685
0.000458823
0.00415028
0.000462967
0.000608739
0.000466915
0.000468429
0.000604823
0.000457822
0.000460927
0.000468818
0.000460569
0.000458001
0.000456457
0.00294025
0.000458469
0.00501342
0.00236682
0.000465687
0.000455892
0.000462951
0.000468461
0.0061132
0.000457285
0.000800998
0.00559363
0.000476986
0.000462584
0.000459528
0.00455081
0.000960779
0.000468469
0.000466214
0.000462369
0.000461291
0.00046025
0.000462479
0.00288213
0.000538518
0.000457086
0.000785201
0.00046907
0.000459026
0.000468342
0.000459238
0.000472315
0.000455552
0.000453347
0.000458613
0.000460301
0.000459631
0.00471923
0.000457027
0.000457724
0.000458264
0.00046376
0.000465492
0.000461167
0.000465167
0.000580086
0.000454899
0.00401191
0.000464576
0.000464802
0.000461691
0.000459815
0.000488606
0.000466467
0.00045991
0.000462042
0.000454588
0.00047376
0.00370716
0.00375212
0.0043857
0.000721766
0.000460876
0.00724198
0.00500528
0.000454565
0.000459652
0.000578136
0.00367477
0.000454817
0.0027784
0.00178394
0.00436861
0.00316963
0.00074016
0.000463558
0.00509592
0.000764166
0.000460152
0.000465755
0.00203882
0.000512127
0.000478267
0.000460216
0.000452627
0.000511987
0.000458778
0.000965858
0.000459257
0.000459669
0.00058614
0.000509414
0.00337603
0.000686788
0.00184818
0.000465653
0.00045979
0.000460422
0.000515523
0.000827355
0.00046029
0.000458799
0.00404643
0.000460976
0.0030027
0.00496273
0.000453596
0.00513554
0.000462336
0.00439872
0.00244718
0.000458721
0.000460481
0.000458716
0.000460521
0.000457175
0.00537984
0.000457051
0.00045967
0.000453654
0.000460592
0.00257615
0.000458924
0.000550611
0.000466252
0.00440219
0.000790093
0.000453673
0.000718909
0.0064536
0.00231671
0.000929768
0.00494083
0.000465138
0.00737772
0.000460384
0.000454744
0.000665153
0.000477503
0.00537926
0.00444165
0.000716231
0.000469407
0.00045716
0.00286583
0.000458562
0.000489566
0.000454362
0.00401351
0.000458788
0.000464301
0.000466199
0.000463663
0.00472842
0.000522417
0.00154019
0.000454477
0.000553244
0.0006826
0.00295932
0.000483987
0.00599628
0.00117404
0.000703427
0.00559728
0.000679147
0.0011329
0.000516719
0.000701306
0.000477339
0.000594112
0.00673114
0.000456886
0.000463237
0.000605801
0.00633752
0.000630257
0.000462733
0.000459058
0.00378032
0.000472124
0.000458284
0.000457879
0.0042532
0.000466477
0.000461343
0.000454761
0.000456032
0.000458666
0.00414212
0.000611255
0.000660818
0.00355615
0.000830924
0.000464672
0.000452818
0.000461372
0.000463939
0.000685324
0.000457498
0.000463576
0.00284475
0.000456404
0.00334168
0.000465237
0.00540694
0.000461413
0.000476946
0.000452196
0.000575137
0.000465288
0.000461627
0.000461912
0.000462643
0.000611515
0.000468902
0.0013775
0.000457842
0.000453837
0.00046258
0.00646064
0.000513092
0.000458898
0.00220275
0.00045786
0.000542083
0.00457754
0.00481711
0.000457985
0.000454189
0.000473102
0.000481392
0.00160817
0.000455958
0.000452897
0.000457018
0.000705905
0.000465411
0.000452496
0.000892908
0.000460501
0.00556466
0.000810819
0.00108452
0.000610982
0.000457817
0.000465341
0.000458657
0.00046078
0.000455532
0.000455153
0.00477253
0.000459789
0.000459192
0.000505235
0.00133715
0.000460433
0.00176061
0.000445891
0.000458987
0.001631
0.00598358
0.00046362
0.000463734
0.000837927
0.000462102
0.000454761
0.000459623
0.000610229
0.000452359
0.000451789
0.000525315
0.000455446
0.000456662
0.000465928
0.000691471
0.00500453
0.000464284
0.00375771
0.00393029
0.000460759
0.00482461
0.000452278
0.00393507
0.000460309
0.000467793
0.000505412
0.000461067
0.000460241
0.000633963
0.000497705
0.000459572
0.00111516
0.000461773
0.00308906
0.000457963
0.000465203
0.000458933
0.0004658
0.000460823
0.000452558
0.000464204
0.000478153
0.00473178
0.000589197
0.000454406
0.000458184
0.00046651
0.000497014
0.000465502
0.005138
0.00152104
0.0057256
0.000641122
0.000465374
0.000511114
0.000463747
0.000452485
0.000701101
0.00045747
0.000466188
0.00402987
0.0030038
0.00120282
0.000605797
0.000568826
0.000544236
0.000655148
0.00610149
0.000456334