/*--------------------------------*- C++ -*----------------------------------*\
| =========                 |                                                 |
| \\      /  F ield         | OpenFOAM: The Open Source CFD Toolbox           |
|  \\    /   O peration     | Version:  v2012                                 |
|   \\  /    A nd           | Website:  www.openfoam.com                      |
|    \\/     M anipulation  |                                                 |
\*---------------------------------------------------------------------------*/
FoamFile
{
    version     2.0;
    format      ascii;
    class       surfaceScalarField;
    location    "50";
    object      phi;
}
// * * * * * * * * * * * * * * * * * * * * * * * * * * * * * * * * * * * * * //

dimensions      [0 3 -1 0 0 0 0];
oriented        oriented;


internalField   nonuniform List<scalar> 
20386
(
-0.509976
0.299297
0.210679
0.159224
-0.188553
0.0293295
0.0401152
-0.00784395
-0.0322713
-0.0414897
0.0412209
0.000268818
-0.560496
0.300071
0.260425
0.0313044
-0.0419552
0.0106508
-0.0139458
-0.0663301
0.0802759
0.0849614
-0.119229
0.034268
-0.0668688
-0.0650848
0.131954
-0.0226072
-0.0325467
0.0551539
0.0663151
-0.074695
0.00837997
0.0224676
-0.0312757
0.0088081
0.0347127
-0.0847307
0.050018
-0.137829
0.129721
0.00810809
0.00714047
0.0838942
-0.0910347
0.188501
-0.167403
-0.0210982
-0.122284
0.0733386
0.0489456
0.0143244
0.0228643
-0.0371887
0.0558807
0.0104343
-0.028018
0.203576
-0.175558
-0.091875
0.119776
-0.0279013
-0.36712
0.230836
0.136284
-0.130582
-0.232509
0.363091
-0.00335495
-0.0646552
0.0680102
-0.00858487
-0.0640886
0.0726735
0.0190964
0.0245244
-0.0436208
0.119435
-0.211545
0.0921103
0.245296
-0.125861
0.0977971
-0.137676
0.0398791
0.0940852
-0.136094
0.042009
-0.037601
0.122562
0.224918
-0.135511
-0.0894079
0.0584628
-0.0203171
-0.0381458
-0.145149
0.0108473
0.134301
0.156555
-0.141713
-0.0148414
-0.0915304
0.0829455
-0.281196
-0.279301
-0.443166
0.30028
0.142887
0.0927495
-0.159618
-0.00243699
-0.0377095
0.0401465
0.146349
-0.0522636
-0.153112
-0.0268283
0.17994
0.028906
-0.119319
0.090413
-0.311822
0.572743
-0.260921
-0.160529
0.309944
-0.149415
-0.199779
0.456583
-0.256804
-0.0393079
0.198531
0.0158348
0.0710721
-0.0869069
-0.132098
-0.048763
0.180861
-0.131531
0.171282
-0.0397515
0.0550719
0.0539133
-0.108985
-0.0534027
0.0881154
0.119489
-0.0216921
-0.298401
-0.211576
-0.024897
-0.110338
0.135235
0.249576
0.15608
-0.405656
-0.256506
-0.18666
-0.152834
-0.214286
-0.172814
-0.186421
0.359235
0.156215
-0.284129
0.127914
0.335219
-0.622756
0.287537
0.505749
-0.326916
-0.178833
0.169438
-0.0100849
-0.159353
0.0818909
-0.0852459
-0.0219047
-0.0591168
0.0810214
0.248058
-0.378641
0.384634
-0.641595
0.256961
0.174558
-0.18901
0.0144514
-0.127968
-0.0171804
0.0494815
-0.181579
0.235516
-0.388213
0.152697
-0.000538884
0.0406541
-0.179544
0.0480136
-0.0848054
-0.0083782
0.0931836
-0.137858
0.136466
0.00139175
0.00753244
0.160479
-0.168011
0.348038
-0.383733
0.0356948
-0.0456149
0.0142513
0.0313637
-0.0633414
0.0704819
-0.0713519
0.105558
-0.0342064
0.00400306
-0.0348088
0.0308057
-0.0326133
0.0335723
-0.000958983
-0.168862
0.292446
-0.123584
0.442953
-0.217028
-0.225925
0.136559
-0.121844
-0.0147154
0.0844796
-0.0411676
-0.043312
0.182091
0.0375641
0.0208987
0.0909589
-0.00250108
-0.0884578
0.189942
-0.163166
-0.026776
0.174983
-0.206714
0.0317306
0.264881
0.078561
-0.343442
-0.147843
-0.118575
0.266417
0.127972
-0.259393
0.131421
0.67812
-0.372731
-0.305389
0.0184047
0.061667
-0.0800718
0.290769
-0.0258875
-0.131602
-0.00449222
-0.0327788
-0.0508208
0.0835996
0.0225568
0.0413572
-0.063914
0.16503
0.00440774
-0.048638
0.0260308
0.0173295
-0.130958
0.307616
-0.176658
0.0275544
-0.180666
-0.00442771
0.151307
-0.14688
0.0311819
0.000122539
0.293908
-0.165936
-0.647424
0.426171
0.221253
0.185191
0.00331039
-0.454903
-0.0132011
0.468104
-0.242649
0.0821202
-0.32296
0.659614
-0.336654
-0.12758
-0.0102496
0.197856
-0.225874
0.0189397
-0.0961185
0.0771788
0.645889
-0.374904
-0.270986
0.0426578
0.00255987
-0.0452176
-0.174754
0.216107
-0.0413529
-0.0650759
0.05113
-0.112521
0.0206457
0.0253425
-0.0916726
-0.0342867
0.0893586
0.00277931
-0.140637
0.257
-0.538196
0.488966
-0.153747
-0.266449
0.178236
0.0882128
-0.0657433
0.0451946
0.0205488
-0.288038
0.119176
0.0451632
-0.0411601
-0.0477399
0.565828
-0.518088
0.0169913
0.0739676
0.418182
-0.183385
-0.234797
0.18912
-0.208181
0.019061
-0.111779
0.144747
-0.0329675
-0.502643
0.0415329
-0.107343
0.0658097
-0.164986
-0.101463
0.286411
0.204707
-0.491118
-0.183575
0.153611
0.0299645
0.141475
0.179149
-0.320624
0.245383
-0.557205
-0.101978
0.0707966
0.0311809
0.25862
0.184334
-0.0949224
0.0265181
0.0684043
0.20306
-0.409011
0.205952
0.0626773
0.0435857
-0.106263
0.150734
-0.0301435
-0.120591
0.083993
-0.105898
-0.179026
0.0316469
0.147379
-0.131066
0.0141265
0.11694
-0.607862
0.284902
0.0699968
0.0426381
-0.112635
-0.0719639
-0.0300136
-0.292219
0.537602
-0.119854
0.144406
-0.0245521
0.0499553
0.0919112
-0.141867
-0.298459
0.150617
-0.0366412
0.106638
0.0243906
0.0295293
-0.0539199
0.160187
0.0297557
0.104854
0.120064
0.0802919
-0.0557339
-0.0245581
-0.0170988
0.0361952
-0.16286
0.188568
-0.0257077
-0.307426
0.151868
0.155559
-0.230827
-0.230119
0.460945
-0.22789
0.415412
-0.187523
-0.0118039
0.13947
-0.127666
-0.210415
0.510486
-0.464544
0.16722
0.297323
-0.115769
0.143772
-0.0280032
-0.176272
0.161449
0.0148239
0.118501
-0.143398
0.191474
-0.147846
-0.0436287
-0.0759452
0.216443
-0.140498
0.0239147
-0.0263517
-0.0159924
-0.0579752
0.0739676
0.318981
-0.113512
-0.20547
-0.0221282
-0.0436152
-0.135747
0.00414529
-0.114244
-0.0168224
-0.0109442
0.0452492
-0.0343049
-0.00236415
0.0450219
-0.0374397
-0.000935836
0.0383755
-0.137817
-0.0276666
0.165484
-0.0295268
0.030767
-0.00124022
-0.230778
0.207129
0.0236486
0.0349865
-0.0361678
0.00118129
-0.237529
-0.110364
0.347893
0.110462
0.0147008
-0.125163
-0.340371
0.213672
0.126699
0.208995
0.179267
-0.388261
0.149095
0.151778
-0.300873
-0.0299154
0.0466624
-0.0167469
-0.0605269
0.110482
-0.215493
0.0364667
-0.0177232
0.043802
-0.0260788
-0.398874
0.231464
0.16741
-0.176747
0.17232
0.00223036
0.158249
0.072864
0.492964
0.0847025
0.263336
-0.0642175
-0.126435
0.190652
-0.156482
-0.13625
0.292733
0.153013
-0.217231
-0.0556049
0.0725962
-0.0431783
0.0657352
-0.238904
0.46091
-0.222006
-0.0571366
0.0272212
-0.339217
0.166402
-0.034351
-0.0071387
0.0215302
-0.18439
-0.136065
-0.178101
0.314166
-0.3122
0.610611
-0.298411
-0.0610214
-0.033901
0.102576
-0.118539
0.0159627
-0.185283
0.326757
0.0422188
-0.0835351
0.0413163
-0.0335557
-0.0460359
0.0795915
0.353104
0.0414766
-0.394581
-0.217441
-0.247102
-0.13714
0.100499
-0.144515
0.305528
-0.161013
0.0359407
-0.035519
-0.000421708
-0.231392
0.155447
0.168656
0.156553
-0.325209
0.0356601
0.0446319
0.393974
-0.107563
-0.105018
0.115104
-0.0100853
0.0379379
0.011407
-0.0493449
0.031048
-0.0559803
0.0249323
-0.0177577
0.0543299
-0.0365721
0.0494377
-0.0183896
-0.153458
0.10158
0.0518786
-0.0256823
-0.0476052
0.0732875
0.570086
-0.586622
0.0165355
-0.153599
0.0783781
0.075221
0.0347784
-0.272307
0.0327223
-0.0311178
-0.00160447
0.616538
-0.341031
-0.275507
-0.0200931
-0.100977
0.12107
-0.475332
0.0147974
0.460535
-0.0885678
0.017216
-0.0213447
-0.0304896
0.0518344
-0.0974249
0.0108117
0.0866132
0.117575
-0.0149988
-0.276779
0.484932
-0.208153
-0.0791716
-0.0335221
0.112694
0.165429
-0.0506275
-0.0716568
-0.050822
0.0330988
-0.429408
0.21238
0.0283078
0.364863
-0.129347
0.0227205
-0.0735038
0.0507833
-0.330529
0.494222
-0.163692
0.122299
-0.0118368
-0.0301761
-0.00726355
0.216858
-0.455762
-0.0239995
-0.0235732
-0.260902
0.463835
-0.202933
0.147544
0.146364
0.176093
-0.361375
0.332084
0.0860979
0.0399303
0.00458449
-0.0445148
-0.165754
-0.0538038
0.219558
-0.0197241
0.123783
-0.104059
0.0641812
0.0689866
-0.133168
-0.117979
0.0586918
0.0592876
-0.0351756
0.0993569
0.103095
-0.578427
-0.0782424
-0.0397369
0.0529477
-0.0857266
-0.0311151
0.0937924
-0.113973
-0.193453
0.0606595
0.212272
-0.146314
-0.0659583
-0.0984486
0.0428437
-0.161049
0.149245
-0.200392
0.449968
-0.148698
0.317354
0.0246868
0.109376
-0.0720071
-0.0373688
0.110724
-0.10507
-0.00565413
0.105573
-0.0431813
-0.0623915
-0.0953411
-0.058258
0.00147381
-0.144913
0.143439
-0.0375533
0.0797721
0.0510091
-0.0366846
0.0515539
-0.105946
0.0543919
-0.000503931
0.129482
-0.128978
0.0515357
-0.0583249
0.00678918
-0.141906
0.157354
-0.000799464
-0.0248166
-0.0174175
0.0422341
0.543612
-0.158978
0.0484633
-0.0728476
0.0243843
-0.283842
0.118855
-0.0222526
-0.0155239
0.0377764
-0.13591
0.143005
-0.00709465
-0.0394414
0.0270533
0.0123881
-0.139163
0.179987
-0.0408246
-0.0479825
0.0302248
-0.134813
0.0996377
0.141815
-0.121674
-0.0201411
0.242924
-0.535143
-0.247979
0.494413
-0.246434
0.131242
-0.123126
-0.00811546
0.13988
-0.383445
0.243564
0.124692
-0.112617
-0.0120756
0.15022
-0.106916
-0.0433041
0.0495447
-0.0028823
0.177484
-0.163194
-0.0142899
-0.00918379
-0.0234296
0.0489852
-0.0110473
0.246004
-0.1986
-0.0474039
0.0234582
0.245325
0.432796
-0.0306528
0.00840026
0.246791
-0.406898
0.160107
0.00701961
0.124222
0.0350839
-0.0351907
0.000106782
0.123147
-0.121674
-0.497747
0.297968
0.0412835
0.1337
-0.0568524
0.0328529
0.0250609
-0.0207177
-0.0187237
0.220401
-0.437911
0.21751
-0.145394
0.292938
0.114921
-0.274216
0.159296
-0.0347512
0.00993459
0.244819
-0.387841
0.143022
0.0107707
-0.130625
-0.118605
0.0394329
-0.161222
0.0344511
-0.0456793
-0.107779
-0.0374513
0.0386164
-0.00116507
-0.190238
-0.0447635
0.235001
0.18413
-0.0579704
0.0749955
-0.0170251
-0.0931313
0.0423105
0.107961
-0.128054
0.0408345
0.0213322
-0.0621667
0.232497
-0.493764
0.261267
0.000924304
0.039006
-0.105242
-0.215383
-0.388273
0.160384
0.28478
-0.128565
-0.0499498
0.0390056
-0.068805
0.210325
-0.14152
0.268591
-0.412641
0.14405
0.215976
0.103005
0.117628
0.0397266
0.0208892
-0.125907
-0.0820216
0.0581312
0.0238904
0.00904681
0.0259397
-0.229119
0.39944
-0.170321
-0.0703238
-0.0673523
0.0199711
0.0876332
-0.0309838
-0.0566494
-0.0240796
-0.0550077
0.0790873
-0.589208
0.277008
0.144145
-0.300628
0.0270559
0.0429401
-0.069996
-0.0773032
-0.0325104
0.109814
0.00255623
-0.123263
0.120707
-0.0472699
-0.0338121
0.081082
-0.066226
0.264082
0.119626
-0.0461029
-0.0735227
-0.258582
0.0928281
-0.00366019
-0.13225
0.10123
-0.291467
-0.017574
0.0502842
-0.0327102
-0.185839
0.331987
-0.146148
0.0813814
-0.058661
0.0614836
0.058142
0.0351534
-0.0348749
-0.000278477
0.0104487
0.0299373
0.015042
-0.0449792
-0.127945
0.110546
0.0173993
-0.265249
-0.0940255
0.0092201
-0.0235576
0.142059
0.0336761
-0.0603234
0.0266473
0.00764429
0.0419004
0.147966
0.157562
0.426738
0.232876
-0.15451
-0.11775
0.27226
0.425108
0.0667772
0.0260609
-0.0928381
0.182706
-0.145664
-0.0370422
0.141973
-0.0243456
0.0335404
-0.141072
0.107532
0.0402119
-0.0549116
0.0146997
-0.0361329
0.0910641
-0.0549313
0.0334648
-0.144014
0.154272
-0.010258
-0.0887348
0.176678
0.240532
-0.41721
0.0494053
0.144008
-0.204421
0.060413
0.0168741
0.195398
0.0426605
0.0449727
-0.0490339
0.00150891
0.047525
-0.126268
0.0745558
0.0517123
0.111537
-0.0826308
-0.00264582
0.150622
-0.147976
-0.0327242
0.0404028
-0.0076786
0.033659
0.212345
-0.0942363
-0.00318859
0.24018
-0.155109
-0.0850709
-0.1004
0.11643
-0.0160296
0.390781
0.21983
-0.03234
0.0808033
0.39131
-0.182315
-0.221733
0.152928
0.0718849
0.308905
-0.38079
-0.213818
0.435983
-0.222165
-0.00381303
0.125202
-0.121389
0.316559
0.379274
0.237264
0.142802
-0.118668
-0.0241344
0.208907
-0.285832
0.0769248
0.190831
-0.0422438
-0.148587
-0.0407864
0.133536
-0.032156
0.011164
0.020992
0.321422
-0.489275
0.167853
-0.0939679
0.129978
-0.0360102
0.224028
0.281722
-0.112104
0.148511
-0.0364068
0.0129728
-0.476307
0.463334
-0.0380448
0.000593526
0.620535
-0.303331
-0.317205
-0.168812
0.330999
-0.162187
0.502798
-0.203501
-0.0264313
0.0353145
-0.0360472
0.000732689
-0.0319187
0.240825
0.1866
0.0298432
0.297722
-0.168265
-0.129457
-0.0348716
-0.032353
0.0672246
-0.211683
0.0369292
-0.132008
-0.151834
0.0683688
-0.052534
0.00768488
0.0250374
0.148043
-0.016778
-0.131265
0.0669451
-0.0485404
0.195908
0.081933
-0.277841
0.0487177
0.0288711
-0.0775887
0.0532687
-0.0692611
0.177492
-0.00189279
0.0374911
0.0492035
-0.0866946
-0.285224
0.141524
0.143699
-0.276317
0.18699
0.0893269
-0.131058
-0.012956
-0.146931
0.146427
0.12889
-0.335407
0.206516
0.417953
-0.404981
0.0527023
0.0238614
-0.0765637
0.107531
-0.148317
0.0909773
-0.0242002
-0.0407114
0.0611362
-0.0204248
0.607598
-0.325119
-0.282479
0.0430916
-0.102213
0.0591209
0.503574
-0.569661
0.0660872
0.00969456
0.0254588
-0.0652707
0.333862
0.497018
-0.205793
-0.291224
-0.0332099
0.0861576
-0.0232118
0.0395003
-0.0162885
-0.0725907
-0.0119432
-0.0877088
0.099652
0.0866707
-0.0491797
-0.118028
-0.124622
0.0193649
0.125714
-0.145079
-0.014548
-0.104771
-0.415325
0.206076
0.209249
-0.266284
0.442974
-0.17669
-0.161958
-0.0688201
-0.0185166
-0.0136394
-0.0131915
-0.191589
0.20478
0.135764
-0.117492
-0.0182722
-0.339975
0.154135
-0.0634815
0.0227701
-0.0570065
0.0848491
-0.0278426
-0.0669061
-0.0151155
-0.0176368
0.0421612
-0.536801
0.32381
0.21299
0.0664693
0.00349057
0.0480451
-0.120385
0.109654
0.0107309
-0.167746
-0.0439373
0.179432
-0.220068
0.0406363
0.262935
0.0691486
-0.333046
0.525564
-0.192518
0.202589
-0.215781
-0.0208194
-0.0569106
0.07773
0.00110801
0.082885
0.151673
-0.149117
-0.305361
0.173354
-0.210326
-0.03459
0.0637209
-0.0291308
-0.255408
-0.0812754
0.336684
-0.270046
0.13398
0.122527
-0.0165359
-0.105991
-0.0402646
0.0193363
0.0209283
0.123922
0.168525
-0.148445
-0.0439422
0.192387
0.0283468
-0.48788
0.459533
-0.29705
-0.292158
-0.210911
0.366991
-0.0451199
0.189128
0.417678
-0.389331
0.186438
0.228975
0.0315583
-0.00953229
-0.022026
0.228261
-0.428653
-0.00206004
-0.195736
-0.219589
-0.0587348
0.0411609
0.22403
0.12891
-0.0831169
0.0495612
0.322446
-0.191552
-0.130894
0.100967
-0.0276288
0.0333378
-0.0903443
0.162785
-0.179509
0.0167241
-0.0772866
0.0300166
-0.195815
-0.32763
0.178932
-0.0223043
0.00940235
0.0265384
0.0323123
-0.0211483
-0.0163133
-0.456165
-0.0671499
0.523315
0.0309002
-0.561989
0.264938
-0.00449407
0.263114
-0.0652358
-0.00945928
-0.0155204
-0.0264348
-0.119962
0.146615
-0.0266528
0.127752
-0.583917
0.520493
-0.239215
-0.281277
-0.220059
0.417963
-0.197904
0.0454263
0.143694
0.0600598
-0.210221
0.150161
-0.057442
0.022852
-0.377962
0.229061
0.148901
0.0571241
-0.0779436
0.0232194
-0.133557
-0.131562
0.0655831
0.0659787
0.242493
-0.287257
0.0169851
0.132889
0.0832181
-0.0263434
-0.0139212
0.244647
-0.492626
0.167332
0.163667
0.141254
0.0747391
-0.215993
-0.0306161
0.00108933
0.14619
0.0939901
0.101874
-0.0308021
-0.114509
0.0205413
-0.0331069
-0.0125081
0.00779533
0.303875
-0.199261
-0.104615
0.0681761
-0.0411202
0.000830173
0.0307281
-0.147191
0.0402742
0.0128257
-0.0707961
-0.287789
0.173187
0.114602
-0.144706
0.140893
-0.0645258
-0.0670359
0.0147036
-0.0600588
0.0271315
0.0329273
0.20601
-0.393849
0.187839
-0.0794638
0.432568
-0.299691
-0.308171
-0.158697
0.480119
0.327163
-0.159832
0.0396764
-0.0420406
-0.192997
0.044552
-0.0306831
0.207567
-0.176884
-0.185322
0.379007
-0.193685
0.393719
0.25217
0.0373491
-0.281202
0.243853
-0.0205811
0.0732834
-0.0424715
0.0375653
0.0106439
-0.0482092
0.119773
-0.122419
-0.127003
-0.0193046
0.146308
0.0330358
0.0338429
-0.0668787
0.13062
-0.155146
0.0245265
-0.018697
-0.118443
-0.23961
0.0475529
0.192057
0.120312
-0.23601
0.115698
-0.0257898
-0.029547
0.0553368
0.286549
-0.531447
0.244897
-0.0130062
0.0526813
-0.039675
0.168708
-0.234367
-0.00524265
-0.0786068
0.0280929
-0.0472777
0.00956816
-0.0563306
-0.0912467
0.147577
0.416272
-0.188011
0.0461452
0.0295975
-0.0757427
-0.589211
0.327164
0.262047
0.14944
-0.136621
-0.0128186
-0.0251496
0.155769
-0.591578
0.337983
0.253595
0.185459
0.107618
-0.293077
-0.596702
0.345951
0.250751
0.250498
-0.102457
-0.148041
0.601504
-0.34672
-0.254784
0.034861
-0.0184919
0.102386
0.238868
-0.521893
0.283025
-0.304916
0.168666
0.178211
-0.0269031
0.304746
-0.497042
-0.0154945
0.09844
-0.0120564
0.0522683
0.0326685
-0.00980421
-0.0332546
-0.143018
0.280668
-0.581444
0.300776
0.260859
-0.145938
0.15129
-0.178118
-0.120064
-0.0203858
0.14045
-0.126167
0.144111
-0.017944
0.00327055
0.342902
0.177591
0.0133937
0.0216231
-0.0350168
-0.0314642
0.00542814
0.237065
0.354693
-0.51339
0.17536
-0.306319
0.00727478
-0.039999
-0.330176
-0.259034
-0.0590933
0.244553
0.3241
-0.540291
0.216191
0.181583
0.275001
-0.155821
-0.0911661
0.108057
-0.0168908
-0.440859
0.245122
0.0315641
0.0740087
-0.0476486
0.0937157
-0.0460671
0.255153
-0.553554
-0.269951
-0.230809
0.50076
-0.427836
0.0924297
0.0765479
-0.0304028
-0.097499
0.217811
0.0402053
-0.0587196
0.0185143
0.0657132
-0.0326774
-0.263372
-0.273428
-0.0444982
-0.0339932
0.0784914
-0.032116
0.00890421
0.0215081
-0.264982
0.211337
0.0536455
-0.185502
-0.19246
0.00378246
0.119508
-0.123291
-0.768129
0.294906
0.473223
0.244572
-0.475398
0.0390505
0.00614403
0.0480891
-0.0338378
0.000853038
0.0848689
-0.043336
-0.0216408
0.129602
-0.0610059
0.0479996
-0.210866
0.423474
-0.212609
-0.0457281
0.0280913
0.123491
-0.179822
-0.0320714
-0.0510454
0.268856
-0.27335
0.274036
-0.12352
-0.150516
-0.127748
0.159395
0.197551
0.0859613
-0.0606188
0.228819
-0.053149
-0.17567
0.0129009
0.17793
-0.202633
0.0937386
0.108894
-0.0908698
-0.0164728
-0.0587911
0.091868
-0.0330769
-0.14003
-0.147394
0.287424
-0.081021
0.111208
-0.0301875
0.00543854
0.0253285
-0.0169314
-0.10786
0.0990339
0.00882589
-0.0922238
0.0933318
-0.119507
-0.308329
0.00388015
-0.0386889
-0.500659
0.341298
0.159361
-0.0394333
-0.0896674
0.129101
-0.297416
-0.264572
-0.455428
-0.312701
-0.105558
0.0985544
0.00700382
-0.266753
0.121641
0.145112
-0.0130585
0.133239
-0.12018
-0.0579268
-0.015577
0.0166686
-0.0832631
0.0665945
-0.489949
0.404798
0.0851508
-0.193866
0.0845174
0.109349
-0.0182094
-0.0873489
-0.18144
0.185205
-0.0390391
-0.146166
0.0510834
-0.252436
-0.167769
0.420205
-0.136163
-0.107279
0.243442
0.050931
-0.0144671
-0.0364639
0.412508
-0.181155
-0.231354
-0.262704
0.507352
-0.17434
0.0286758
-0.0294196
-0.0291243
0.0585439
-0.308386
0.63555
0.0302995
0.0459404
-0.0762399
-0.37888
-0.268544
0.432505
-0.226428
0.0200274
0.0994618
0.244686
-0.370224
0.125538
0.0249603
-0.0818708
-0.0680686
0.0423863
-0.206494
-0.0787294
0.253014
-0.0831144
-0.1699
-0.301676
-0.188272
-0.143158
-0.0311817
-0.370593
0.22503
0.145563
-0.16187
-0.125919
-0.17995
-0.0435598
-0.0337268
-0.117825
-0.137838
0.255663
0.134593
-0.252418
0.110567
-0.132208
-0.038269
0.0303858
0.00788314
-0.0876935
0.0226176
0.156063
-0.288733
0.13267
-0.118475
-0.117535
-0.0887262
-0.0237945
-0.0333118
-0.0871921
0.0548499
-0.0341122
-0.0207377
-0.104687
-0.0116388
0.116325
-0.10031
0.12036
-0.0200495
0.0876012
-0.172614
0.0850127
0.030981
-0.0232024
-0.0927357
0.0290692
0.0636665
-0.0651834
0.0568052
0.112459
-0.078919
-0.361974
-0.229603
-0.0180186
-0.0319312
-0.188169
-0.0785844
0.472301
0.0977848
-0.3089
0.0726015
0.236299
-0.40638
-0.66385
0.437278
0.226572
0.0394631
0.0114679
-0.115782
0.0154718
0.266839
0.448986
-0.290234
-0.158752
-0.604167
0.382537
0.22163
-0.104714
-0.126678
0.136151
0.137885
-0.04094
0.0651695
-0.0242295
-0.313676
0.126482
0.187194
-0.0790952
0.166696
0.189903
0.306327
0.234001
-0.540328
0.356049
-0.253697
-0.102352
0.0155926
-0.0613596
0.045767
0.336267
0.16075
0.0417527
0.0411348
-0.0828875
0.0220112
-0.297903
-0.202756
0.224412
-0.487116
0.186283
0.298301
-0.142238
-0.139822
0.0136557
0.0110357
0.0399734
-0.118836
0.138263
-0.0194272
-0.0837307
0.0516593
-0.113777
0.128486
-0.0147092
0.129862
-0.0551989
-0.0746628
0.0316982
0.0931629
-0.124861
-0.199206
-0.189067
-0.073487
0.0155602
-0.0178354
-0.116978
-0.0284503
-0.132369
0.160819
0.259538
0.183436
-0.0314067
-0.145341
-0.0801754
0.0440426
-0.0239569
0.0373507
0.556741
-0.321376
-0.235366
0.227947
-0.287041
0.035335
-0.0109135
-0.0244215
0.175429
-0.173199
0.0991117
0.0119595
-0.111071
0.0960466
-0.132202
0.0361558
0.0349975
-0.0673374
-0.166701
0.516056
-0.583206
0.170998
-0.017387
-0.0783103
0.0615274
0.299393
-0.360921
-0.269326
-0.327376
0.110627
-0.0115152
0.10305
-0.139325
0.0362749
0.245623
-0.0535359
0.0749393
-0.0214034
-0.155432
0.479531
0.181762
0.438773
0.129522
-0.026472
-0.0150657
0.0969566
0.157934
-0.22416
0.0346041
-0.000212795
-0.0343913
0.024899
-0.14491
0.120011
0.285091
0.0709586
-0.102994
0.254862
-0.114952
0.134317
-0.174365
-0.192312
0.366677
-0.259643
-0.145278
0.404921
-0.475254
0.268688
0.206566
-0.323787
0.169765
0.154022
0.0169319
-0.0645805
0.349132
-0.548367
0.199235
0.162327
-0.414762
-0.0673639
-0.0589043
-0.0438206
0.0908228
-0.0470022
0.0971226
-0.118658
0.0550043
-0.0141698
-0.209506
0.415516
-0.0972867
0.111775
-0.0144884
0.485142
-0.204611
-0.280531
-0.0986394
-0.284805
-0.0261469
0.408177
-0.382031
-0.191244
-0.395378
0.306213
-0.0395294
0.0847203
-0.0451909
0.30846
-0.37808
0.0696197
-0.125413
0.551585
-0.197311
0.171637
0.0256731
0.0167919
0.0455755
-0.0851049
0.0187347
0.0520619
0.152751
-0.199043
0.0462923
-0.456063
0.293482
0.162581
-0.287783
0.17476
0.113023
0.0347874
0.0330368
-0.0678242
-0.0254526
0.121499
-0.205286
-0.224122
-0.196103
0.0283576
-0.0231277
0.0718454
-0.0239048
-0.036154
0.0522416
0.0571343
-0.0803078
0.0364873
0.137609
-0.133826
-0.282409
0.158889
-0.294005
0.153975
-0.083714
0.0257388
0.0358501
-0.0364746
0.0006245
-0.174143
0.234203
-0.497902
0.471755
0.473401
-0.137134
-0.0954321
0.00426602
0.00902099
-0.148678
0.38921
0.421884
0.0515173
0.0397914
-0.0626523
0.0228609
0.0525002
0.0773615
0.132505
-0.0175171
-0.114988
0.201643
-0.193285
-0.0093481
-0.0201552
0.0442881
-0.0241329
0.317178
-0.0124321
0.0499252
0.0258326
-0.0757579
0.324561
-0.225584
-0.0989772
-0.357917
0.172595
0.0302188
0.175921
-0.298419
0.122498
0.0497787
0.466277
-0.0351106
-0.1622
0.230654
0.0939065
-0.154203
-0.139971
0.294175
-0.021297
0.0595288
-0.0382318
-0.00884954
0.0299219
-0.0210724
-0.314789
0.242114
0.072675
0.0369659
0.112737
-0.149702
-0.29256
0.138357
0.0947454
0.0882091
-0.182954
0.0720911
-0.0370936
0.052497
0.0512917
-0.103789
0.0142299
0.0333934
-0.0476233
0.328477
0.118085
-0.446562
-0.26238
0.155101
0.207393
0.203626
-0.411018
-0.150782
0.505475
-0.540944
0.252024
-0.400702
-0.112554
-0.115675
0.228229
-0.121489
-0.202299
-0.0355378
0.00492169
-0.0339773
-0.000453118
0.0344305
0.259325
0.145096
-0.120197
0.154546
0.0525828
0.128063
-0.185635
0.0575724
0.315952
-0.120044
0.170703
-0.0179518
-0.215743
-0.278021
0.00827311
0.0268108
-0.293501
0.511974
-0.218472
0.312132
0.284883
0.194394
-0.225077
0.0631586
0.0812478
-0.125426
-0.279059
0.0322061
-0.0343748
0.00216875
-0.0526826
0.0268928
-0.606655
0.38986
0.216795
-0.116205
0.0783085
0.0378965
-0.13423
-0.179447
0.11642
0.148058
-0.264479
-0.00063269
0.300912
-0.00674354
-0.0272338
-0.147735
0.43985
-0.292115
-0.0365129
0.0791148
-0.0426019
-0.267758
-0.246972
0.51473
0.384594
-0.574551
0.189957
-0.143009
0.170227
-0.0272177
0.538043
-0.600627
0.0625845
-0.352787
-0.253868
0.493165
-0.299379
-0.193786
0.148517
-0.40816
0.0508302
-0.00702817
-0.0243977
0.150112
0.166361
0.0841369
0.578971
0.117637
-0.117814
0.00017619
0.242002
-0.423156
0.0220108
-0.0236901
0.452227
-0.116493
0.0967686
0.282608
0.166377
0.0261812
-0.0737864
-0.174775
0.369292
-0.194518
-0.0296015
0.0526899
-0.0230885
0.0562255
-0.0266962
0.267265
-0.150845
0.197703
-0.102958
0.14642
-0.214859
0.0684389
-0.0272551
-0.142042
0.169297
0.160598
-0.417105
-0.132537
-0.251196
0.0379322
0.124853
0.236407
-0.154474
0.264678
-0.0282703
-0.398346
0.265809
0.12446
-0.292725
0.188464
-0.0240937
-0.164371
0.0656322
0.109797
-0.429565
0.311261
0.267586
-0.578847
0.151471
-0.133104
0.146425
-0.0133209
-0.528243
0.444765
0.0834781
0.280074
-0.112843
-0.167231
-0.00971231
-0.483828
-0.134748
-0.180041
-0.213219
0.519134
-0.305915
0.148165
-0.176616
0.138399
-0.0953268
-0.0430724
0.0235913
0.0358337
-0.059425
0.217232
-0.589964
0.0103956
0.030745
-0.0411407
-0.225071
0.531399
0.0430831
-0.0479442
0.024371
0.299986
-0.425412
-0.0118036
-0.0950217
0.106825
-0.392236
0.21031
0.181926
-0.234616
0.390675
-0.156058
0.00466408
0.0767983
-0.0814624
0.189784
-0.00131964
-0.521107
0.307888
0.0202882
0.617374
-0.354212
-0.263162
0.233375
0.140486
-0.097241
-0.0432448
-0.156299
-0.115229
0.271527
0.145674
-0.0161917
0.553223
-0.241962
0.0259106
-0.0345271
0.0376027
-0.00307556
-0.0588829
-0.0338528
-0.198956
-0.171637
0.13027
0.293561
0.0691425
-0.362703
-0.431246
0.175837
0.189539
0.0751392
0.0112232
-0.0374398
0.0262166
0.0308124
0.000541156
-0.0313535
0.0282145
0.0425757
-0.0707902
-0.235891
-0.220171
-0.0788929
0.0440213
-0.152061
0.192342
-0.0402807
0.0474562
-0.0997835
0.0523273
0.0897774
-0.0731087
0.0631007
0.0447282
-0.107829
0.316704
0.176157
0.103917
-0.109095
-0.199805
0.0471335
0.0289743
-0.0761078
-0.185563
0.238926
-0.0533629
0.0265502
0.102969
-0.0284132
0.126041
-0.230755
0.484701
-0.141799
-0.104792
-0.00769042
0.112482
-0.0022684
-0.0322587
0.0285445
0.0264598
-0.0157414
-0.0577456
0.541702
0.215315
0.310249
0.0888192
-0.0461586
0.0334528
0.0156353
-0.049088
0.158617
0.168546
0.0544883
-0.0388958
-0.0682758
-0.0896233
0.157899
-0.0212893
0.0712145
0.204911
-0.00133476
-0.0561722
-0.0365433
0.0927155
0.222141
0.19413
-0.0171356
0.0470729
-0.143877
0.011508
0.10645
0.0355178
-0.0651193
-0.357652
-0.306198
-0.0446586
0.02643
0.0182286
0.208797
-0.420839
0.212042
-0.151665
0.186426
-0.0347607
-0.0831048
0.039545
0.0227809
-0.149654
0.0139067
-0.423921
-0.104322
0.120676
0.0212743
-0.14195
0.128176
-0.357295
0.100607
-0.0575159
0.03023
0.14749
-0.17772
-0.215193
0.112199
0.0571979
-0.228069
0.170871
0.13805
-0.243387
0.105338
-0.201403
0.281926
-0.240449
0.0742743
-0.0439748
0.153945
0.418798
0.0139896
-0.035138
0.331751
0.269753
0.133659
0.00581077
0.103435
0.20213
0.0081948
-0.0293168
0.180607
-0.0667431
0.105951
-0.039208
0.116769
-0.180435
0.0636664
0.00911726
0.0261973
0.233864
-0.140126
0.0176122
0.0582746
0.0335973
-0.0918719
0.0305121
-0.0764965
0.0753677
0.00112878
-0.189844
0.0543278
0.135516
0.109378
-0.148811
-0.0530614
0.0699933
-0.0467364
0.45972
0.0438543
0.03841
-0.0238026
0.000573118
0.0232295
-0.024957
0.0828843
-0.0579273
0.0866968
-0.10087
0.0141734
0.30984
-0.152124
-0.157716
-0.0211049
-0.0182236
0.0393285
-0.0604709
0.0281178
0.0363757
0.272529
-0.149859
0.202782
0.215181
0.275851
-0.0443862
-0.152171
-0.113076
0.265247
0.00547088
0.323006
-0.178625
0.32503
-0.146405
0.147797
-0.030794
0.0655814
-0.0735978
0.00557961
-0.100642
0.0950626
-0.0208574
-0.099528
0.19052
-0.0376516
-0.152869
0.126712
-0.245188
0.29086
0.326514
0.0397673
-0.102703
0.0629359
-0.0637047
-0.0191464
0.426545
0.17501
0.00442184
-0.611717
-0.286044
0.168293
0.136146
-0.163401
-0.0147072
0.0464405
-0.0317333
-0.124507
0.0107298
0.0301681
-0.0414075
0.0112394
0.0379624
-0.0229205
0.00591047
0.143529
0.413125
0.0800396
-0.220029
0.139722
-0.012073
0.0987697
-0.0218329
-0.125098
-0.180982
0.523593
0.0289861
-0.0701537
-0.284735
0.20346
0.129838
-0.189557
0.0597191
-0.238325
-0.192921
0.0144445
-0.0679804
0.483439
-0.107918
0.000906158
-0.174453
0.151183
0.0232694
0.0198715
0.131418
-0.151289
-0.521646
0.228145
0.224532
0.162166
-0.386698
-0.0461545
-0.0530705
0.099225
0.0243603
0.119476
0.519052
-0.262052
0.0229104
0.162026
-0.184936
0.0531933
-0.0421576
0.177353
0.132487
0.223609
-0.406994
0.703846
-0.440217
-0.263629
-0.0218738
-0.0391321
0.396547
0.0881541
-0.0374941
0.081469
-0.0439749
0.189348
-0.438984
0.249636
-0.161484
-0.0872245
0.0434915
0.043733
-0.0073521
0.0494751
-0.042123
-0.00319187
0.0217301
-0.0185383
-0.0337391
0.0130214
-0.578238
0.515174
0.0630639
0.211153
0.188286
-0.597713
0.298487
0.299226
0.268437
0.435409
-0.270072
-0.010915
0.121461
-0.00956777
0.111298
-0.10173
-0.0258131
-0.118269
0.144082
0.00218695
0.297206
-0.217601
-0.218814
0.436415
0.0401871
-0.0614841
-0.000148229
-0.0195454
0.0196936
-0.0474573
-0.159257
-0.0890853
0.0323167
0.0567686
-0.181391
0.276039
-0.0946484
-0.40874
0.170415
0.351777
-0.12376
-0.228017
0.170272
-0.171292
0.00102002
-0.119276
0.0144848
0.041823
0.00342616
-0.0353847
0.036474
0.144391
0.0454213
-0.255642
-0.0407431
0.0689576
0.136978
-0.131179
0.112482
0.104158
-0.0104994
-0.0936586
-0.0883245
-0.0961088
0.184433
0.42812
-0.205978
-0.517949
0.301719
0.21623
0.354783
0.172795
-0.527578
-0.0852902
-0.175039
-0.182878
-0.101778
0.284423
-0.182645
0.0752638
-0.00831868
-0.0991896
-0.00979101
0.108981
-0.0399857
0.00460102
0.0423729
-0.0642467
0.563183
-0.0351858
0.0982865
0.0585265
0.0197405
-0.0782671
-0.0819793
-0.00128381
-0.190954
-0.429479
0.19936
0.0049498
-0.0814463
-0.0185824
-0.0174572
0.0360396
0.295748
-0.539505
0.397429
0.142077
0.192736
-0.150907
0.292431
0.177412
-0.0463762
0.512346
-0.434592
0.286856
-0.0824234
0.0173053
0.0651181
-0.10859
-0.0107327
0.119323
-0.031177
0.0326985
-0.00152151
-0.122021
-0.14532
0.267342
0.325111
0.271904
-0.0351436
-0.12835
0.0667299
0.0243342
0.0148126
0.0349893
-0.0498019
0.0301185
0.0787422
-0.0737924
0.190839
0.0190121
-0.209851
-0.0542806
0.106778
-0.363831
-0.240336
-0.507294
0.036253
0.471041
-0.576948
0.289604
0.287344
-0.022104
-0.0225546
-0.13457
-0.0264791
-0.302634
-0.089012
-0.58659
0.286899
-0.378586
0.200485
-0.0378355
0.0445514
-0.00671599
0.315934
0.0418917
0.0985942
0.00867085
-0.0896918
0.0463996
0.115049
-0.0633424
0.110955
-0.0476121
-0.094992
0.0125746
-0.0845817
-0.178488
0.147081
0.382407
-0.0997989
0.0109375
-0.0330415
0.01236
0.0332911
-0.0456511
0.0160622
-0.569429
0.2256
-0.0875505
-0.0880429
0.100739
-0.0126956
-0.0151974
-0.117907
-0.40216
-0.137346
-0.202789
-0.204109
-0.286091
-0.235802
-0.243461
0.10489
0.0733204
-0.0380835
0.392866
0.0413061
0.02855
-0.0698561
0.00704761
-0.17445
-0.14606
-0.136349
-0.041601
0.0833537
0.224339
-0.219821
0.422031
-0.202211
0.323539
-0.147446
0.26085
0.266118
-0.526968
-0.0973405
0.0788486
-0.297904
-0.279044
0.320441
-0.027335
0.0184855
0.146733
-0.249053
0.473464
-0.026079
-0.0346711
0.142202
-0.0385874
0.0566937
-0.0181063
-0.0383405
-0.0516128