/*--------------------------------*- C++ -*----------------------------------*\
| =========                 |                                                 |
| \\      /  F ield         | OpenFOAM: The Open Source CFD Toolbox           |
|  \\    /   O peration     | Version:  v2012                                 |
|   \\  /    A nd           | Website:  www.openfoam.com                      |
|    \\/     M anipulation  |                                                 |
\*---------------------------------------------------------------------------*/
FoamFile
{
    version     2.0;
    format      ascii;
    class       volVectorField;
    location    "50";
    object      U_0;
}
// * * * * * * * * * * * * * * * * * * * * * * * * * * * * * * * * * * * * * //

dimensions      [0 1 -1 0 0 0 0];


internalField   nonuniform List<vector> 
13726
(
(0.998977 -0.000349096 -1.63819e-22)
(1.03379 0.0336142 1.15442e-21)
(0.791175 0.0723521 7.90044e-21)
(0.746871 0.0638319 4.82046e-21)
(1.0017 0.00338273 3.01493e-20)
(0.647002 0.0401621 1.62302e-21)
(1.02752 0.110633 0)
(1.0472 0.0448295 2.66737e-21)
(0.893592 0.0152995 -1.05709e-19)
(0.896866 0.0661161 4.72003e-22)
(1.01893 0.076036 0)
(0.521621 0.0347917 -1.657e-21)
(1.01108 0.0720148 2.98867e-21)
(1.03012 0.0540189 -1.5884e-22)
(1.00688 0.0726457 -3.24179e-21)
(1.03504 0.0288468 4.12479e-22)
(1.02059 0.0669573 0)
(0.666411 0.0258101 6.87013e-21)
(1.01773 0.0758064 0)
(0.957701 0.00827416 -1.02465e-20)
(0.852684 0.0920146 1.72205e-20)
(0.978432 0.00649147 -1.02375e-20)
(1.00317 0.0128829 7.54701e-21)
(1.00141 0.0880274 -9.52034e-21)
(1.00679 0.0742652 6.59439e-21)
(0.784998 0.064418 0)
(0.971142 0.0267756 -3.63878e-20)
(0.97273 0.0268806 2.83702e-20)
(1.04039 0.0514548 5.19171e-21)
(0.979914 0.0692118 3.62012e-20)
(1.04729 0.0442236 -2.61181e-21)
(0.926251 -0.00892928 0)
(0.8792 0.0602028 2.74496e-21)
(1.01312 0.0619474 1.49735e-21)
(1.02308 0.0519946 0)
(1.00645 0.0742212 -1.72025e-21)
(1.00152 0.00316902 -8.35488e-21)
(0.991866 -0.00950604 -1.3171e-20)
(0.898104 0.0155318 2.97089e-20)
(0.697462 0.0273955 -8.15457e-21)
(0.981199 0.0680866 -1.166e-20)
(1.02563 0.0422874 0)
(1.04839 0.0500926 5.94033e-21)
(1.00055 0.00297887 -7.87457e-21)
(0.997674 0.0315382 6.11775e-23)
(1.00227 0.00671341 0)
(1.03381 0.0327896 -1.3426e-21)
(1.04916 0.065893 1.60919e-20)
(0.981539 0.0501322 0)
(1.00816 0.0508129 -1.02693e-20)
(1.0535 0.0523058 3.06157e-22)
(1.01119 0.0716669 0)
(1.0407 0.0504699 -7.02468e-21)
(0.999143 -0.000377952 1.99381e-20)
(1.01983 0.0549492 0)
(0.993899 0.00272778 0)
(0.992542 -0.00930808 1.06756e-20)
(0.978853 0.00570288 -8.71869e-21)
(0.993159 0.00593515 0)
(0.977383 -0.00257956 -2.30783e-20)
(1.00329 0.000579088 1.58182e-20)
(1.0126 0.0117984 1.99603e-21)
(0.959791 0.0415972 -1.56074e-20)
(1.00022 0.0877089 0)
(0.866063 0.102763 4.06235e-20)
(1.00338 0.0124146 -7.6896e-21)
(1.00015 0.000108871 -1.33413e-20)
(0.986035 0.0539767 1.88134e-20)
(1.01253 0.0618435 4.40914e-21)
(0.980228 0.050708 0)
(0.990486 -0.0124447 0)
(0.76326 0.0684236 -1.07388e-21)
(1.00751 0.0515131 1.12945e-20)
(1.01681 0.06781 1.32696e-21)
(1.00901 0.0589848 -1.90373e-21)
(0.987396 0.051847 0)
(1.00269 0.0110117 1.88632e-21)
(0.770004 0.0432892 2.87205e-21)
(1.00713 0.0727814 0)
(1.00386 0.07863 0)
(0.726187 0.0386081 -1.09573e-21)
(0.625976 0.0506268 3.50545e-21)
(1.00702 0.0287306 2.19432e-20)
(0.993463 -0.00164344 8.14952e-21)
(1.04584 0.0459166 -1.43597e-20)
(1.04117 0.075022 -5.71091e-21)
(0.987285 0.0533771 -1.35177e-20)
(0.871772 0.0595988 0)
(1.05933 0.064844 -1.7967e-20)
(1.03039 0.0381601 0)
(0.945161 0.0153993 -5.36854e-20)
(0.976399 -0.0121419 4.06719e-20)
(1.01476 0.0220549 0)
(0.981223 0.0139608 2.21485e-20)
(0.99981 -0.00037644 0)
(1.03987 0.0717549 0)
(0.975225 -0.0127838 -3.79089e-20)
(0.978086 0.0691752 1.43922e-20)
(1.04153 0.0702308 1.02232e-20)
(1.01352 0.0807635 0)
(0.961473 0.0422465 -1.62396e-20)
(0.874141 0.0648882 -9.52324e-22)
(1.04667 0.0457308 7.50254e-21)
(0.985906 0.00825692 0)
(1.02533 0.0431459 0)
(1.01491 0.0467381 0)
(0.622233 0.0385083 2.62039e-21)
(0.982244 0.0142322 8.9642e-21)
(1.01024 0.00108229 0)
(1.03577 0.0284863 0)
(0.9997 0.00175521 2.17507e-20)
(0.996731 0.0321616 1.07529e-20)
(0.999868 0.00134126 -2.96794e-20)
(1.02937 0.053972 0)
(0.959717 0.00873415 8.45259e-21)
(1.00571 0.0743763 -6.8712e-21)
(1.00025 0.000138187 -1.04941e-20)
(0.832028 0.0690401 0)
(0.965775 0.0357005 0)
(1.03227 0.110776 0)
(0.857653 0.0847969 -3.68766e-20)
(1.02423 0.114261 -1.85439e-22)
(1.05432 0.0525501 -6.68369e-21)
(1.00834 0.0589397 -4.25405e-21)
(1.00157 0.00299444 0)
(1.0035 0.000454568 -1.60938e-20)
(1.01122 0.0300911 -1.15195e-20)
(0.946562 0.0712734 0)
(1.00642 0.0293862 -1.22756e-20)
(0.78462 0.0438288 0)
(0.999906 0.00168488 1.52922e-20)
(1.06001 0.0643042 2.35097e-20)
(0.993814 -0.00494125 8.02946e-21)
(1.03214 0.0369253 0)
(1.01015 0.0581926 -3.03335e-21)
(0.999772 0.00168452 -1.66633e-20)
(0.987302 0.108851 -1.17947e-20)
(1.01043 0.0300098 -6.13401e-21)
(0.998302 0.00720127 -4.04138e-22)
(1.01025 0.0434011 -9.9534e-21)
(1.00713 0.0219911 -1.43018e-20)
(1.00065 0.00282913 0)
(1.02336 0.073103 -2.13378e-23)
(0.993056 -0.00148472 9.76019e-21)
(1.04392 0.0745236 3.02594e-21)
(1.00285 0.0183594 1.68988e-20)
(1.02584 0.0642582 -2.85976e-22)
(1.02166 0.0527295 -2.12195e-21)
(0.872437 0.100053 -6.50273e-20)
(1.03193 0.0276098 -1.72573e-22)
(0.99819 0.0774609 3.69582e-21)
(0.999949 0.00130276 1.50107e-20)
(0.958035 0.0889598 3.59093e-20)
(1.0229 0.0730518 8.15711e-23)
(1.00086 0.00285091 1.63103e-20)
(0.934667 0.0666495 1.49633e-20)
(0.880277 0.0421075 4.1404e-20)
(1.01451 0.0216039 -4.04987e-21)
(0.960323 0.0872073 -1.15974e-20)
(0.87581 0.0655255 -3.23579e-22)
(1.03114 0.038005 1.43781e-22)
(0.92394 -0.00712214 -3.45135e-20)
(1.01031 0.0746079 1.18289e-21)
(0.770193 0.0649532 -1.47084e-21)
(1.01801 0.0467556 0)
(1.01403 0.0287247 8.26296e-21)
(1.0051 0.00613142 0)
(0.992348 0.00840803 1.16123e-20)
(0.973202 0.0625859 2.37637e-20)
(1.00164 0.00358706 -2.57599e-20)
(0.989203 -0.00310817 0)
(0.989709 0.0660699 -1.02605e-20)
(1.02142 0.0466392 3.11992e-21)
(1.01959 0.0542405 -1.57653e-21)
(1.02926 0.0392161 1.04475e-21)
(0.986568 0.0369578 0)
(0.583954 0.0146556 1.3086e-20)
(1.0943 0.22639 -2.86035e-20)
(0.986577 0.0206333 0)
(0.942125 0.0711236 0)
(0.976932 0.0684041 -2.73517e-20)
(0.997229 0.0777758 0)
(0.856828 0.0692129 -8.09627e-21)
(0.844895 0.0696313 0)
(0.738187 0.0609832 -3.01418e-21)
(1.00971 0.0502159 0)
(0.597805 0.0397107 4.82801e-21)
(1.00083 0.0394587 0)
(0.669383 0.0563509 4.73133e-22)
(0.994813 0.0136605 3.7046e-20)
(1.02922 0.0583862 -1.51571e-21)
(1.00793 0.0228809 0)
(0.997928 0.00976817 2.79337e-20)
(0.980193 -0.00811669 -1.70139e-20)
(0.840376 0.0528933 3.42858e-21)
(0.874101 0.0428993 -5.43359e-20)
(1.03182 0.0282498 0)
(0.829723 0.062675 0)
(1.00338 0.0194819 9.14579e-21)
(1.01479 0.045967 0)
(0.988538 0.0514033 -9.31632e-21)
(0.999967 0.00176618 -9.54405e-21)
(1.00313 0.0111267 -9.05298e-21)
(0.958524 0.030517 -2.33076e-20)
(0.97946 -0.00591916 0)
(0.960381 0.0294244 0)
(1.06007 0.0628941 -2.95097e-21)
(1.01241 0.0807377 -2.0429e-21)
(0.996973 0.00287004 -2.21613e-20)
(0.873637 0.0572785 -2.08363e-21)
(0.992742 0.00566758 1.19884e-20)
(0.76956 0.065099 -1.06584e-20)
(1.01751 0.0475488 0)
(1.0187 0.0179437 -5.98157e-21)
(0.999177 0.00150654 -2.16517e-20)
(1.04362 0.0744534 -6.18256e-21)
(1.01419 0.0648515 5.48603e-23)
(1.00757 0.0213969 0)
(1.01511 0.0731909 0)
(1.04767 0.0713893 8.31072e-22)
(1.01216 0.013154 0)
(0.989625 -0.00332737 -1.0531e-20)
(0.959793 0.0842554 -1.19717e-20)
(0.998434 0.0330471 1.04667e-21)
(0.662838 0.0551039 4.27511e-21)
(0.987215 0.0359998 -6.37372e-21)
(1.01351 0.0211786 0)
(1.01009 0.0745471 -6.17662e-21)
(0.997968 0.00741125 -2.13956e-21)
(0.986476 0.0869765 -4.82984e-21)
(0.888284 0.0692568 -2.36338e-21)
(0.911181 0.0661732 -5.83721e-21)
(0.885904 0.0622877 1.27765e-22)
(0.890391 0.0647831 3.66962e-21)
(0.861805 0.0178247 4.80342e-20)
(1.07346 0.150519 7.39337e-21)
(1.00004 3.96149e-05 1.38623e-20)
(0.877697 0.00527269 5.20543e-20)
(0.994186 0.0135184 -3.00741e-20)
(0.62918 0.0458024 4.89759e-21)
(0.999959 4.33009e-05 1.38905e-20)
(1.04029 0.0473936 2.68329e-21)
(0.999911 -0.00177431 -5.15334e-22)
(1.00314 0.0787219 0)
(0.863506 0.0624538 -8.65505e-23)
(0.856571 0.122919 4.555e-20)
(1.01455 0.0643075 0)
(0.997071 0.00343051 -5.61016e-21)
(1.04573 0.0566196 0)
(0.998592 0.0318898 1.60757e-20)
(1.02006 0.0670058 0)
(0.851331 0.0647187 -1.31706e-22)
(0.993382 -0.00207212 1.55799e-20)
(1.03007 0.0390425 -3.3679e-24)
(0.990084 -0.0120837 -1.37055e-21)
(1.03654 0.0846202 3.38011e-22)
(1.00137 0.00387124 0)
(1.02958 0.0577691 1.45846e-21)
(0.762443 0.063273 0)
(0.996713 0.00268668 1.43115e-20)
(0.867356 0.0694491 -2.25365e-20)
(0.997233 0.00398401 1.34934e-20)
(0.982301 0.0152582 -3.36353e-20)
(1.00737 0.0208373 5.01521e-22)
(0.993264 -0.00511746 1.07106e-20)
(0.738122 0.0598684 1.29886e-22)
(1.0203 0.0294999 9.38176e-21)
(1.03708 0.0496658 1.92074e-21)
(0.979712 0.0851426 -2.37747e-20)
(1.00446 0.0754469 7.74927e-21)
(0.980335 0.0828897 -1.21775e-20)
(0.999901 -0.00135125 -3.98788e-23)
(1.00415 0.0758658 7.96907e-21)
(1.04121 0.0696441 -3.49097e-23)
(1.02617 0.0636863 2.58997e-22)
(1.01321 0.0288407 4.54732e-21)
(0.857366 0.0987638 3.99372e-20)
(1.00854 0.0418301 0)
(1.05938 0.0625843 0)
(0.973979 0.0607124 1.98105e-20)
(0.994189 0.00308478 0)
(1.01396 0.0205986 0)
(1.00963 0.0588393 1.89798e-21)
(1.01056 0.0703359 0)
(0.993697 0.0810766 0)
(1.0529 0.0563242 1.08225e-20)
(0.88085 0.00274928 -4.7242e-23)
(1.00556 0.0579386 -7.43895e-21)
(1.01529 0.0735329 1.94237e-21)
(0.765475 0.037043 1.81867e-23)
(1.0156 0.0683462 -1.46713e-21)
(1.01473 0.0548546 0)
(0.892521 0.0553277 0)
(1.01378 0.0217286 1.11488e-20)
(1.02383 0.0520532 -1.01003e-22)
(0.794004 0.0705726 0)
(1.00018 9.06046e-05 7.65964e-21)
(1.01004 0.0740238 0)
(1.00983 0.0307461 0)
(0.750687 0.0662428 4.68526e-22)
(1.03241 0.0465383 -1.31039e-21)
(0.637739 0.0518037 1.7296e-21)
(1.01936 0.0459193 0)
(0.855647 0.0602438 2.43899e-21)
(0.979193 0.0815058 2.77638e-20)
(1.04453 0.0472332 -1.20413e-20)
(1.0009 0.00266647 -1.48085e-20)
(0.997736 -0.00124608 0)
(0.991982 0.0742804 0)
(1.02004 0.0117505 0)
(0.995557 0.0794645 0)
(0.987206 0.0668781 0)
(0.825388 0.052031 -1.68615e-21)
(1.0058 0.0514101 1.1319e-20)
(0.642771 0.0514065 0)
(0.899936 0.0693711 -7.2367e-21)
(1.02667 0.0292774 -1.77679e-21)
(1.04156 0.075065 0)
(0.999729 -0.000436553 8.67234e-21)
(0.719112 0.0648903 0)
(0.983543 -0.0163312 -3.61739e-20)
(0.993218 0.0743088 7.54332e-21)
(0.656064 0.0543295 1.92949e-21)
(1.00564 0.0587093 -8.29747e-21)
(1.00241 0.00638327 0)
(0.945935 0.0170689 3.93882e-20)
(0.881262 0.0699863 9.4455e-21)
(0.491892 0.0333297 2.31845e-22)
(0.629731 0.0520667 -9.88803e-21)
(0.999046 0.00699457 -1.35156e-20)
(0.98338 0.0155532 2.05255e-20)
(1.01522 0.0277824 -4.62532e-21)
(0.755547 0.0692344 0)
(0.991544 0.00984659 -3.69304e-22)
(0.93105 0.0657234 -1.39021e-20)
(1.04503 0.0562355 -2.81475e-21)
(1.00728 0.0228172 9.6774e-21)
(0.988642 0.0670571 0)
(0.863674 0.0121572 4.76182e-20)
(0.785088 0.0654865 0)
(0.962986 -0.0147477 0)
(0.996814 0.00321298 6.20846e-21)
(0.927118 0.201558 4.22544e-20)
(1.04109 0.0709931 5.50327e-21)
(1.03974 0.0468303 2.51244e-21)
(1.00096 0.137452 -3.18004e-20)
(1.00231 0.00582302 -2.67888e-21)
(0.751543 0.0591809 -1.794e-22)
(1.00644 0.0219217 8.42897e-21)
(0.991725 0.00808695 0)
(0.97775 -0.00176432 -2.30801e-20)
(0.872081 0.0694212 1.46736e-20)
(1.01361 0.0376676 0)
(0.990976 -0.00636318 0)
(0.986762 0.0213045 0)
(1.02455 0.051741 -2.72674e-21)
(0.985864 0.0888854 0)
(1.01144 0.0735982 -3.2619e-21)
(0.687578 0.0566509 4.26547e-22)
(0.999563 0.0120521 1.35814e-20)
(1.03956 0.0516749 2.02343e-21)
(1.04543 0.047163 1.36356e-20)
(1.02453 0.0858253 -1.53377e-21)
(1.0029 0.0904726 -9.64025e-21)
(0.999347 0.00151356 1.50389e-20)
(0.980515 -0.0054168 -1.20798e-21)
(1.02704 0.0761664 0)
(0.991661 0.066522 1.1627e-21)
(0.954702 0.0505091 2.53302e-21)
(1.0205 0.0739997 0)
(0.960407 0.0103542 -3.01794e-22)
(1.03202 0.0607251 2.42474e-21)
(1.01977 0.0293428 -3.46399e-21)
(1.03168 0.0465642 1.36224e-21)
(0.963215 -0.0161186 0)
(0.901614 0.0686495 0)
(1.01967 0.0133252 -5.43795e-21)
(1.03638 0.086551 0)
(1.03266 0.0605364 0)
(0.679496 0.0564787 -2.80022e-22)
(0.996746 0.0792824 3.90858e-21)
(0.826432 0.0683513 5.7239e-21)
(1.04284 0.0510368 4.40932e-21)
(1.00219 0.00611968 0)
(1.01637 0.0676365 0)
(1.02016 0.0535328 1.53868e-21)
(0.932047 0.0676676 0)
(0.843529 0.0532103 7.81073e-22)
(0.99926 0.0333256 -1.06628e-20)
(0.999865 0.00144647 8.68179e-21)
(0.977327 -0.00022234 0)
(0.998768 0.00730695 0)
(0.822927 0.0944029 0)
(1.02808 0.0403425 1.67819e-21)
(1.02491 0.0511301 2.82263e-21)
(0.941708 0.086045 0)
(0.892324 0.0560127 -2.16222e-21)
(1.02995 0.0983464 0)
(1.00914 0.0509823 0)
(1.03943 0.036161 2.46327e-22)
(1.00155 0.0903911 1.34499e-20)
(1.01962 0.0110789 0)
(1.01894 0.0467665 0)
(0.993241 0.0396652 -7.73163e-21)
(1.00943 0.042039 0)
(1.0232 0.0847843 0)
(0.861244 0.0661787 8.33591e-22)
(1.02884 0.0640485 0)
(1.04897 0.0507803 -1.25929e-20)
(0.995318 0.0510016 1.37009e-20)
(0.740701 0.052397 0)
(1.02734 0.0290575 -1.64424e-21)
(0.857503 0.11423 -9.25095e-20)
(0.982526 0.0384893 1.90834e-20)
(0.989109 0.0849135 -1.50045e-20)
(0.999106 0.00165531 1.45938e-20)
(1.00996 0.0738541 0)
(0.998392 0.00970484 -1.91694e-20)
(1.01331 0.037034 2.71674e-21)
(0.992853 0.00990084 -5.59579e-21)
(0.999187 0.0102245 -3.14886e-21)
(1.029 0.0470882 -6.75045e-23)
(1.01998 0.0112008 0)
(0.999924 5.46182e-05 1.83395e-20)
(0.860958 0.00139517 0)
(0.971165 0.0087545 -1.22651e-20)
(0.974929 0.0480633 -2.27065e-20)
(0.899696 0.0200874 6.94122e-22)
(0.538847 0.0374738 3.71951e-21)
(1.01278 0.00738025 1.34595e-20)
(0.937981 0.0768833 1.13102e-21)
(1.0131 0.0118234 6.10714e-21)
(1.03322 0.0453633 2.87606e-21)
(1.00725 0.000834002 -1.18607e-20)
(0.816648 0.0700483 -3.37551e-21)
(0.999849 -0.000876923 0)
(0.980482 0.0020739 1.91941e-20)
(0.998813 -0.000503861 0)
(0.853709 0.0642297 4.43561e-22)
(0.67502 0.0562548 3.87193e-22)
(0.969872 0.00906268 0)
(0.987205 0.0375557 -9.31011e-21)
(0.98066 0.000627964 0)
(1.01504 0.0732321 -1.0173e-20)
(0.963892 0.0351368 0)
(1.00903 0.0307021 -1.27336e-20)
(1.04933 0.0663862 -4.60825e-21)
(0.643208 0.0461642 -3.77486e-21)
(1.0377 0.0375657 -4.14149e-21)
(1.04062 0.0722907 0)
(0.994216 0.0259926 -2.05097e-21)
(1.04449 0.101678 -2.35205e-22)
(1.0849 0.223386 0)
(0.998633 0.0102345 1.46006e-20)
(0.995049 0.080898 -1.12518e-21)
(1.01218 0.0716439 4.26188e-21)
(0.997112 0.0290463 1.58046e-20)
(0.999948 0.0347512 8.58093e-21)
(1.0387 0.0363343 2.33596e-21)
(1.01463 0.0541385 -4.65009e-21)
(0.992397 0.00489744 0)
(1.00703 0.00107675 0)
(1.07928 0.139519 -1.77004e-20)
(0.903981 0.0206742 6.47959e-20)
(0.81536 0.101983 0)
(0.918022 0.0642857 0)
(1.00055 0.00201425 0)
(1.00532 0.0769362 0)
(1.00257 0.000707871 0)
(0.695843 0.0569677 -5.62192e-22)
(0.990842 -0.00594816 -4.31174e-21)
(1.01423 0.0070791 7.48468e-21)
(1.04174 0.0689328 -4.72788e-21)
(0.74516 0.0666899 -2.40183e-21)
(1.00606 0.0745771 -6.67056e-21)
(1.01384 0.0687194 -9.37359e-22)
(1.01235 0.0713404 -5.83924e-21)
(0.995913 0.0316483 1.08381e-20)
(1.02184 0.0505444 2.23317e-21)
(1.04744 0.0504202 0)
(1.01456 0.0126759 -9.33633e-21)
(0.997453 0.00453046 -2.27085e-22)
(0.999967 0.0390044 0)
(0.529149 0.038331 0)
(0.992911 0.0298561 1.0733e-20)
(1.01132 0.0623997 0)
(1.01934 0.0130896 0)
(0.94303 0.0667334 0)
(0.852002 0.191069 -1.5139e-20)
(1.01128 0.0736744 0)
(0.802749 0.0651373 2.09628e-21)
(0.998023 -0.00310823 2.19185e-20)
(0.991068 0.0660571 3.86504e-21)
(0.858296 0.0477538 0)
(0.993671 0.0853983 -1.3135e-20)
(0.963868 0.0329641 0)
(1.01753 0.0403961 -8.38361e-21)
(0.992977 -0.00487817 5.51928e-21)
(1.01301 0.0055523 -1.44112e-20)
(0.993581 0.0290931 -1.01646e-20)
(1.02361 0.0918679 2.71947e-22)
(0.880506 0.104738 3.93795e-20)
(0.956734 0.0491034 1.43605e-20)
(1.00885 0.0298466 9.97432e-21)
(0.992897 0.00512736 -9.84867e-21)
(0.997091 0.0713009 0)
(1.00008 0.0150184 0)
(1.01862 0.0184322 7.29655e-21)
(1.04323 0.0483317 4.37397e-21)
(0.732388 0.0635847 2.35782e-21)
(1.00781 0.0288606 -1.77902e-20)
(1.0301 0.0300004 -3.84783e-22)
(1.01063 0.000340697 1.02093e-20)
(0.999398 0.00133369 2.2738e-21)
(0.993342 0.00267046 -9.97743e-21)
(0.99425 0.0391865 -3.96879e-21)
(1.01126 0.000593171 1.19918e-20)
(0.992267 0.00894157 -1.3044e-20)
(0.632914 0.0508225 2.36164e-21)
(0.994751 0.00308794 0)
(1.00657 0.0516085 -1.24352e-20)
(1.01405 0.0127564 -1.00422e-20)
(0.921572 0.0700247 0)
(0.99693 0.00377785 -7.1608e-21)
(0.979987 0.00128407 2.10491e-20)
(1.04648 0.0706039 0)
(0.978527 -0.0105579 0)
(1.02087 0.0664595 -8.33248e-22)
(0.852876 0.176977 2.53682e-20)
(0.911793 -0.00763077 2.87354e-20)
(1.01998 0.0736007 0)
(1.00279 0.0192253 0)
(1.01367 0.020058 0)
(0.909176 0.0657084 -1.30013e-22)
(0.680358 0.0554584 -3.02831e-21)
(0.58478 0.0367452 -5.18649e-21)
(0.510172 0.0348749 0)
(0.999987 0.000152366 1.79226e-20)
(1.03296 0.0460795 -3.33802e-21)
(0.999521 0.00133328 1.16232e-21)
(0.992543 -0.00160345 0)
(1.01733 0.0758975 0)
(0.635883 0.0387022 0)
(1.02622 0.0503733 -4.74668e-22)
(0.999988 0.000110294 -1.62988e-20)
(1.00685 0.00653012 0)
(0.995718 0.00552105 -1.70179e-20)
(1.03236 0.0363374 6.49986e-22)
(0.960528 -0.00159807 -2.14202e-20)
(0.983824 0.0714934 -8.72621e-21)
(1.00237 0.0174035 1.06023e-20)
(1.02774 0.0919103 9.9217e-23)
(1.01933 0.0556461 -1.84639e-21)
(1.02548 0.0599039 2.25241e-22)
(0.964573 -0.0131454 -2.74874e-20)
(1.03841 0.0374092 1.75285e-21)
(0.966198 0.0373819 2.28878e-20)
(0.730557 0.0647324 -1.22515e-22)
(0.997984 -0.00101376 1.41789e-21)
(0.97994 0.00278084 -1.96567e-20)
(1.02947 0.0206826 -1.17541e-21)
(0.619137 0.0399862 -2.60389e-22)
(0.983326 0.039291 -2.2606e-21)
(1.04972 0.0650687 -9.90569e-21)
(0.937803 0.0745784 0)
(0.758742 0.0418511 -2.44496e-21)
(1.01193 0.0625621 -4.33528e-21)
(1.01215 0.0279373 -1.20397e-20)
(1.01959 0.075825 8.46609e-22)
(0.61659 0.0500018 -3.87742e-22)
(0.986373 0.0680717 -9.34848e-21)
(0.918552 0.194879 -3.23725e-20)
(0.987827 0.0234975 -2.13824e-20)
(1.02875 0.0464141 -1.62175e-23)
(1.02487 0.0599962 0)
(0.988341 0.0866398 1.52025e-20)
(0.952251 0.0711467 8.14044e-21)
(0.994395 0.00511828 -1.89406e-20)
(1.01252 0.0128415 0)
(0.999951 0.00115443 1.66867e-20)
(1.01299 0.00704769 -6.05244e-21)
(0.978759 0.00255472 -2.19635e-20)
(0.861689 0.0693813 0)
(1.02994 0.0308564 -3.91818e-22)
(1.02244 0.0277577 5.16633e-21)
(0.988489 0.0035171 0)
(1.00031 0.000163879 -1.73336e-20)
(1.00096 0.0329506 3.92108e-21)
(1.06632 0.127856 1.8738e-20)
(1.01583 0.0679736 -5.31138e-23)
(0.836376 0.0537137 2.22498e-20)
(0.995176 0.051758 0)
(1.03455 0.0442992 0)
(1.01815 0.0758073 -1.84834e-21)
(0.994218 0.0491358 0)
(0.956992 0.0829275 0)
(0.971263 0.019939 0)
(0.97573 0.0270298 0)
(0.898809 0.0665928 -9.13145e-22)
(0.999375 -5.57326e-07 3.05519e-22)
(0.958242 0.0705462 0)
(1.00022 9.18422e-05 1.55517e-20)
(0.970505 0.0191545 0)
(1.0294 0.0200909 1.29991e-21)
(0.889719 0.0644358 -8.97487e-22)
(0.774266 0.0422231 -7.83425e-21)
(0.977531 0.0628773 1.5077e-20)
(0.995042 0.00342151 1.01166e-21)
(1.04735 0.0729896 1.07725e-20)
(0.999897 -0.000907631 3.07321e-20)
(0.998148 0.061944 3.102e-22)
(0.995179 0.0486062 -4.82475e-21)
(1.00085 0.00233071 2.0401e-20)
(0.968115 -0.00765955 -1.0125e-20)
(0.99983 -0.000551728 0)
(1.01098 0.0324372 9.98287e-21)
(1 0.000326479 -1.62188e-20)
(1.0289 0.0401806 -7.39799e-22)
(1.00709 0.072154 -8.46103e-23)
(1.00538 0.005234 -4.22743e-21)
(0.97922 -0.00691346 -9.79118e-21)
(1.01567 0.0469594 0)
(0.993765 -0.0145717 -2.28562e-20)
(1.00654 0.0736802 -3.07236e-21)
(0.855226 0.0519846 4.14882e-21)
(0.591548 0.0169911 0)
(1.0206 0.0466277 1.39886e-21)
(1.00112 0.00248122 -4.08614e-21)
(1.01564 0.0283839 -4.86711e-21)
(1.02506 0.0416164 2.53199e-21)
(1.02752 0.0495364 0)
(1.00207 0.0617337 0)
(0.485296 0.0288255 0)
(1.00717 0.00669186 0)
(0.683442 0.0521871 -3.89886e-21)
(1.04027 0.0710845 -5.35172e-21)
(0.964034 -0.0123383 2.23456e-20)
(1.01275 0.00664635 -1.7575e-20)
(0.986742 0.00818974 0)
(0.761342 0.0531623 1.79133e-21)
(0.999953 -0.000467735 1.29403e-20)
(0.966795 -0.00829987 4.90292e-22)
(0.999751 -0.00276161 0)
(1.00249 0.00698988 -2.57074e-20)
(0.980207 -0.00734149 2.6775e-20)
(1.00122 0.0804357 -3.75382e-21)
(1.01381 0.0123118 0)
(1.05375 0.0559993 0)
(1.00841 0.0746927 3.83886e-21)
(0.999274 -0.000236029 -2.81441e-20)
(1.00179 0.00404413 -2.24119e-21)
(0.992263 0.00419654 0)
(1.04693 0.0722648 -1.36846e-20)
(0.974871 0.028327 0)
(0.904837 0.059259 9.76824e-21)
(1.01536 0.0757074 -3.59712e-22)
(0.998319 -0.00293399 -1.04865e-20)
(1.02176 0.0750166 -8.6413e-22)
(0.71346 0.0643616 2.99242e-21)
(1.03422 0.0451572 5.50462e-22)
(1.01965 0.0326133 -3.89776e-21)
(1.00188 0.0171747 -9.97742e-21)
(0.940717 0.0424738 2.5931e-20)
(1.01491 0.000167674 0)
(1.00505 0.00574241 -4.54109e-21)
(0.937371 0.0703296 0)
(0.82329 0.049061 0)
(1.0441 0.0483162 4.81958e-21)
(0.986515 0.106306 -1.47172e-20)
(1.04016 0.0458895 -5.45617e-21)
(0.97424 0.0709825 3.57207e-21)
(0.995552 -0.000277794 1.53683e-20)
(0.820127 0.0652853 3.34191e-22)
(0.977674 0.0609215 0)
(1.04559 0.0707106 6.65666e-21)
(0.992203 -0.00193328 0)
(0.962814 -0.0224476 0)
(1.0316 0.0270184 0)
(0.997157 0.00433067 0)
(1.02009 0.112971 3.9419e-22)
(1.0256 0.0303607 -2.15746e-21)
(0.975853 0.0492977 1.3257e-20)
(0.977967 0.0313724 2.03082e-20)
(0.985245 0.111556 1.08099e-20)
(1.05104 0.0638575 8.82649e-22)
(0.980178 -0.00326345 0)
(0.962432 0.125345 -1.55204e-20)
(0.615658 0.040117 -4.96149e-21)
(0.870446 0.0553492 -6.40313e-21)
(1.03371 0.0606361 3.03456e-21)
(0.887 0.101346 -3.27301e-20)
(0.992634 0.00396686 0)
(0.697014 0.0381329 0)
(1.00349 0.00664436 1.20082e-20)
(1.0484 0.040823 4.7562e-21)
(0.999573 0.00120067 -1.174e-21)
(1.01356 0.000315988 0)
(1.00631 0.0694664 6.26351e-21)
(0.973634 0.00877656 2.61922e-20)
(0.938154 0.0465245 3.91317e-22)
(1.03609 0.085133 -1.94822e-21)
(1.00591 0.157635 0)
(0.997117 -0.00102928 8.25518e-21)
(0.918112 -0.00682749 4.40032e-20)
(1.00573 0.0695149 0)
(1.00801 0.0297532 1.86198e-20)
(1.00404 0.0519413 -3.74949e-22)
(0.872597 0.069071 0)
(1.00008 0.0105123 -1.48864e-20)
(0.977486 -0.00901295 0)
(0.870743 0.0638083 0)
(0.995777 -0.000756104 2.48516e-20)
(0.997955 -0.000771612 2.71551e-21)
(1.02771 0.0411943 -1.41521e-21)
(0.918506 0.0682896 -1.88008e-22)
(0.999855 -0.00106084 -2.9144e-20)
(1.0268 0.0730053 0)
(1.00978 0.00097063 -6.30936e-21)
(1.01482 0.0130895 2.0987e-20)
(1.0415 0.0503254 2.14707e-21)
(0.984899 -0.0105731 3.62956e-20)
(1.02165 0.0940003 0)
(1.05166 0.142526 -7.90673e-21)
(0.996344 0.0286162 0)
(1.02595 0.0232749 -4.41124e-21)
(0.997397 -0.00098709 -1.85194e-20)
(1.02685 0.0413405 -1.47625e-21)
(0.998248 0.0127888 0)
(0.987348 0.0227288 0)
(1.00231 0.0181053 0)
(1.01957 0.0736348 9.924e-22)
(0.95581 -0.0109756 0)
(0.955714 -0.012853 0)
(1.0396 0.0452038 0)
(0.604108 0.029934 -3.81451e-22)
(1.03596 0.114048 1.44817e-21)
(0.982767 0.0181523 0)
(0.975204 0.0257715 3.21799e-20)
(0.853521 0.0758131 -1.72506e-20)
(1.05424 0.0463117 5.52386e-21)
(0.837738 0.0602864 0)
(1.03083 0.0571644 1.40044e-21)
(1.02173 0.0577818 2.81473e-21)
(1.02017 0.0377564 2.78582e-21)
(0.527335 0.0229243 0)
(1.00859 0.0743385 0)
(1.01662 0.0683363 2.00613e-21)
(0.940236 0.0904506 0)
(1.00077 0.00217017 2.06069e-20)
(0.875082 0.0692543 0)
(0.973786 0.00805888 8.56755e-21)
(1.00006 6.11442e-05 0)
(0.979413 0.00974633 4.49345e-20)
(1.01227 0.0121893 -2.48621e-21)
(1.00417 0.000649047 0)
(0.864916 0.0631585 -1.94363e-21)
(1.02113 0.0577293 -2.07642e-21)
(0.999984 -0.000250653 -1.33419e-20)
(1.01553 0.0125642 -4.49411e-21)
(1.00867 0.00159693 7.8877e-22)
(0.98632 0.0349999 -2.18966e-20)
(0.960946 -0.0224453 0)
(1.00824 0.0715118 9.41496e-22)
(1.02388 0.0158592 0)
(1.02039 0.0373294 5.57141e-21)
(1.01292 0.0279389 -2.28937e-21)
(1.00074 0.00177074 -2.10266e-21)
(0.988636 0.0057718 0)
(0.957871 0.0723054 -2.95231e-22)
(1.01459 0.00710557 -4.35526e-21)
(1.01868 0.0728356 2.22153e-21)
(1.0258 0.0511072 0)
(1.0033 0.00642136 0)
(0.998193 -0.000575239 0)
(0.977628 -0.0103358 0)
(0.98391 0.0183508 2.03901e-20)
(1.00146 0.0624943 2.54088e-21)
(0.783702 0.039673 8.36702e-21)
(1.01154 0.0575515 -9.52259e-21)
(1.0448 0.0699881 -6.37575e-21)
(1.02801 0.0546091 0)
(1.03656 0.0607966 -3.51673e-21)
(0.995813 0.0532583 1.17181e-20)
(0.991793 0.0074825 1.1625e-20)
(1.04085 0.0885513 -3.47521e-22)
(0.976849 0.081341 1.97793e-20)
(1.02144 0.0418919 4.90321e-21)
(0.997377 0.00489385 2.32497e-22)
(1.01391 0.0457488 -8.45814e-21)
(1.03589 0.0984442 0)
(0.711721 0.0537424 0)
(0.999579 0.000973326 -1.1732e-21)
(0.966426 -0.0100875 3.05859e-20)
(0.64155 0.0426277 7.00568e-21)
(0.989042 0.0497375 -1.22868e-21)
(1.00033 0.0753842 1.51061e-20)
(0.946369 0.0603556 2.97156e-20)
(1.00969 0.0737085 -6.70815e-21)
(1.00944 0.0432052 9.81168e-21)
(0.999989 0.000138148 -1.22736e-20)
(1.01094 0.0427829 1.60554e-20)
(1.02075 0.0745198 9.12153e-22)
(0.984305 -0.0123283 2.62343e-20)
(0.999908 -0.000389017 3.17994e-20)
(1.00048 0.0743972 -1.28009e-20)
(0.966377 0.0691183 -1.13705e-20)
(1.00063 0.0021663 -1.6633e-20)
(0.7672 0.193372 1.0065e-19)
(0.999648 -0.00305011 0)
(0.999757 -0.00113033 0)
(0.968332 0.0683394 7.64756e-21)
(1.00027 0.0862114 0)
(0.962423 0.010673 -1.85445e-20)
(0.683365 0.0566095 1.00047e-22)
(1.02036 0.0513108 0)
(0.988263 0.00608279 0)
(1.01448 0.0292843 -9.34733e-21)
(1.02209 0.0512155 4.93099e-21)
(0.992042 -0.0001356 0)
(0.997035 -0.00534687 0)
(0.99466 -0.00356597 -1.50563e-20)
(0.984449 0.00532444 -9.92328e-21)
(1.0085 0.0748022 0)
(0.999915 -0.001189 1.39733e-20)
(1.00028 0.0100453 2.33817e-20)
(1.02817 0.0642608 0)
(1.03626 0.0688938 -2.85078e-21)
(0.85837 0.00668672 5.5351e-20)
(1.01443 0.0278988 0)
(0.91982 0.10674 5.9766e-20)
(0.99481 0.00540244 3.61316e-20)
(1.01556 0.0638541 1.6179e-21)
(0.997896 0.00132152 0)
(1.01972 0.0119378 -4.45209e-21)
(1.00219 0.000574669 0)
(1.00002 3.96721e-05 4.85985e-24)
(0.98422 -0.0112826 -3.01938e-20)
(1.03897 0.0589084 0)
(1.00514 0.0129155 1.02324e-20)
(1.0106 0.000814944 5.30636e-21)
(0.93656 0.0278474 1.85119e-20)
(0.590169 0.0379938 -3.19339e-21)
(1.03876 0.0593283 0)
(1.02367 0.072793 -4.19043e-22)
(1.01494 0.0398614 0)
(1.00867 0.0117223 -6.13428e-21)
(0.983514 0.0208926 1.29784e-20)
(1.0149 0.0755974 -3.43618e-21)
(0.948932 0.0605623 0)
(0.993852 -0.00223824 -1.42363e-22)
(0.962091 0.0324219 6.72403e-21)
(1.04686 0.098542 3.9922e-21)
(0.953348 0.0712764 3.74003e-21)
(1.01094 0.070157 5.12583e-21)
(1.03592 0.0694759 -6.87443e-23)
(0.943224 0.0418171 -4.51187e-20)
(0.964133 -0.0207573 -2.84971e-20)
(0.979898 -0.00413304 2.07963e-20)
(1.09283 0.245813 3.9489e-20)
(0.759469 0.0654492 -5.57685e-21)
(0.959011 -0.00255072 3.6034e-20)
(1.00225 0.000418195 0)
(1.01479 0.00672896 1.4403e-20)
(1.0012 0.0815257 3.89231e-21)
(1.02245 0.0528393 1.89673e-21)
(1.01966 0.0106071 0)
(1.01513 0.0067586 -8.18972e-21)
(0.96405 0.0684895 -1.48602e-21)
(1.03716 0.0606994 -5.34032e-22)
(0.989568 0.0755865 2.22012e-20)
(0.995444 -0.000585672 -7.81615e-21)
(0.977045 0.0305137 0)
(0.742919 0.0589931 0)
(0.993185 -0.014811 4.57168e-20)
(1.01032 0.0783394 4.33864e-21)
(1.01161 0.0244107 5.55822e-21)
(0.989259 0.00362326 -3.2052e-21)
(1.02635 0.0302136 4.29503e-21)
(0.976509 0.00382965 -3.73173e-20)
(0.999993 0.000181357 2.3503e-20)
(0.937875 0.025502 -6.57053e-20)
(1.01223 0.0242788 0)
(0.988929 0.0135257 0)
(0.940167 0.0706015 1.81938e-21)
(0.640875 0.051597 2.45132e-21)
(0.986726 0.0114126 -1.32594e-22)
(0.99173 0.0636743 -1.21224e-20)
(0.988123 0.0132411 1.21255e-20)
(0.942336 -0.00883713 2.92733e-22)
(1.00986 0.0735126 7.89675e-21)
(1.05392 0.0489128 -1.77517e-20)
(0.827568 0.0530137 0)
(1.00576 0.0120677 6.51335e-21)
(0.978262 -0.00843157 0)
(1.00234 0.00941661 0)
(1.01298 0.00628775 2.07652e-20)
(1.00141 0.00361543 8.71531e-21)
(1.01932 0.0103383 1.82603e-21)
(0.981554 0.0318494 1.59824e-20)
(0.984827 0.00472426 3.01147e-20)
(0.593329 0.0397592 0)
(0.719221 0.0592384 2.60259e-21)
(0.999515 0.00109825 1.19244e-21)
(1.02058 0.0520374 -2.91434e-21)
(1.00172 0.0392162 0)
(0.909471 -0.0177522 0)
(0.995268 0.025719 4.55198e-22)
(1.01547 0.0401126 5.29823e-22)
(1.0021 0.00556445 1.32279e-20)
(0.67495 0.0548688 -2.40131e-21)
(0.999459 0.0021716 -5.19073e-21)
(0.999995 -0.000319495 -1.59504e-22)
(1.02213 0.0271846 -1.10253e-20)
(0.936081 0.0690711 0)
(1.01854 0.00675813 3.28181e-21)
(0.648613 0.0540659 0)
(0.875882 0.0648951 1.88681e-21)
(1.00659 0.000805216 0)
(1.03803 0.0613552 -2.60786e-21)
(1.02346 0.0162369 0)
(0.990676 0.0231816 0)
(0.991387 -0.00999793 2.26086e-20)
(0.740451 0.0616739 -2.06599e-21)
(1.01731 0.00636533 -5.85868e-21)
(1.02494 0.0719434 5.27096e-22)
(1.00215 0.00302806 0)
(0.999982 8.84602e-05 -2.33242e-20)
(1.01281 0.0490356 2.42598e-21)
(1.01203 0.00079845 5.69221e-21)
(1.00621 0.000729022 0)
(0.997804 0.00175897 5.9998e-21)
(0.997226 -0.00545756 -3.49428e-21)
(0.820138 0.0626464 -4.06185e-23)
(1.02245 0.049826 -3.44993e-21)
(1.01176 0.0324762 -3.39882e-21)
(0.999944 -0.000576084 1.32804e-20)
(1.03857 0.0486468 7.82877e-21)
(0.995663 -0.00106718 -1.99472e-20)
(1.00494 0.0521843 -1.71211e-20)
(0.939018 0.0657513 0)
(0.999873 -0.00157792 -1.36402e-20)
(1.03674 0.0489826 0)
(1.01597 0.0125414 4.86695e-21)
(1.08855 0.166747 0)
(0.98732 -0.0164178 -1.42086e-21)
(0.919735 0.069161 -2.60609e-21)
(0.897531 0.067011 3.23822e-22)
(0.990209 0.0240356 0)
(0.940267 -0.00998519 -5.86301e-20)
(0.926942 -0.0318105 3.37617e-20)
(0.998341 0.0501993 0)
(0.99306 -0.00850302 -5.09406e-22)
(1.00242 0.0105966 -1.3637e-20)
(0.910978 -0.00529679 -3.43519e-20)
(0.993769 0.0266007 1.08152e-20)
(0.994191 0.0274414 0)
(1.00258 0.0102165 3.10045e-21)
(0.980321 -0.000178781 2.70714e-21)
(1.02787 0.0326617 4.04231e-22)
(0.990289 0.0497344 0)
(0.995314 0.00526267 -1.7215e-20)
(0.999988 0.000403089 -1.75694e-20)
(0.996191 0.0525568 -9.56775e-21)
(0.917579 0.0587352 -1.75315e-20)
(1.00095 0.00372696 0)