/*--------------------------------*- C++ -*----------------------------------*\
| =========                 |                                                 |
| \\      /  F ield         | OpenFOAM: The Open Source CFD Toolbox           |
|  \\    /   O peration     | Version:  v2012                                 |
|   \\  /    A nd           | Website:  www.openfoam.com                      |
|    \\/     M anipulation  |                                                 |
\*---------------------------------------------------------------------------*/
FoamFile
{
    version     2.0;
    format      ascii;
    class       volScalarField;
    location    "500";
    object      ddt0(k);
}
// * * * * * * * * * * * * * * * * * * * * * * * * * * * * * * * * * * * * * //

dimensions      [0 2 -3 0 0 0 0];


internalField   nonuniform List<scalar> 
14479
(
-2.62778e-07
1.0979e-06
-7.54823e-07
0.00117111
1.93851e-05
0.0008284
-3.65018e-08
-1.74955e-07
-5.25987e-07
0.00506111
1.90675e-06
0.00115909
-0.00112955
-0.000914962
-0.000183473
-0.000270457
-0.000329322
0.000474251
0.00726554
3.66623e-06
4.77415e-08
-4.75352e-07
-0.000623462
2.95837e-05
-4.95469e-07
1.2999e-07
8.43538e-07
0.00493715
0.00431981
-0.000203543
-0.00186034
0.000501841
0.00665497
-1.95318e-07
2.9921e-07
1.84879e-07
1.93353e-07
-9.23991e-05
1.67267e-06
-8.11685e-06
-2.45345e-05
1.39054e-06
1.70744e-07
2.37642e-06
-0.000828033
1.23151e-05
7.82371e-05
-0.00319856
-1.49354e-06
-1.27542e-08
9.39943e-08
0.00438087
0.000113768
3.16855e-05
-1.10643e-06
-1.36561e-07
-2.62051e-06
0.00364327
1.80891e-07
-3.08564e-06
-7.98984e-07
8.17039e-08
-5.81956e-05
2.60203e-05
-0.0208522
0.00846732
-4.20016e-07
-3.68468e-07
0.00332595
-0.00463896
-0.000704002
-2.85973e-06
0.001045
-0.000552408
1.35015e-07
-5.11703e-07
-0.000156232
-0.00092172
0.00155169
-0.000773318
0.00151133
3.26717e-09
-1.7891e-07
5.22836e-07
1.07681e-06
1.50317e-06
-4.61068e-05
5.68962e-09
-0.000576008
3.03132e-07
0.00600187
0.00808122
-9.63119e-05
-0.000242246
2.03019e-06
0.00565272
7.68465e-08
0.00575009
1.49447e-06
0.00317518
-0.00155508
0.00228293
3.07826e-05
-5.39917e-08
8.68771e-07
1.7958e-07
-0.0187012
0.00122839
-2.5656e-06
-6.12417e-05
-1.20568e-06
1.88166e-06
-0.00127353
2.27695e-05
1.11785e-06
6.03327e-07
-1.57995e-07
-1.48946e-05
4.50462e-07
-3.86107e-05
3.66295e-07
1.16613e-07
0.000512455
-8.69371e-08
0.000644441
1.95855e-08
-1.91541e-06
1.81125e-07
1.34325e-07
0.00343275
3.40582e-08
-0.0181481
-4.7074e-05
1.58133e-07
1.23434e-05
-1.12162e-06
4.14545e-05
2.18082e-07
0.00390453
0.00126391
6.69667e-08
0.000962626
1.97421e-06
2.76246e-05
1.44071e-05
1.35698e-06
-8.59902e-05
-3.81344e-07
1.30517e-06
-1.91531e-06
0.00539946
-2.36965e-07
-9.89154e-08
-1.68271e-05
-0.000306019
3.28974e-07
0.0034172
4.90141e-08
-0.00296124
0.00208312
0.00350006
0.005155
0.00265198
-4.57192e-05
-0.00425113
-0.00387632
2.67086e-07
-0.0023582
1.58295e-07
-4.34984e-07
9.29067e-09
-4.26308e-06
-9.90287e-08
-3.7373e-05
2.98371e-08
-4.80395e-05
-8.72251e-08
1.27757e-06
7.91992e-06
3.44001e-07
1.07326e-05
1.3586e-07
6.33885e-07
-0.000145041
4.77525e-08
8.44133e-06
-6.98098e-07
2.77866e-07
9.66362e-06
4.36392e-05
4.43567e-08
-0.00139157
3.18402e-08
-3.08391e-08
0.00110454
0.00210853
9.15155e-06
-0.00497049
1.27865e-06
-2.97859e-07
3.17506e-07
0.00358466
-0.0129023
-0.000262233
0.0011986
3.39836e-07
-4.99322e-07
9.72401e-06
8.15137e-07
1.55744e-05
0.000709176
0.00347136
6.55984e-08
-2.6879e-07
-2.16731e-07
-3.55451e-05
0.00462028
0.000155928
1.83437e-08
-2.08241e-06
-3.39112e-05
-0.00204021
-0.0043789
-1.90958e-06
3.01922e-05
0.00103348
1.5036e-07
3.17982e-08
-2.74741e-06
9.79192e-08
2.11683e-07
-2.67723e-08
-2.26782e-07
-0.000566953
-6.4868e-07
-4.89378e-08
-2.4768e-06
9.4187e-05
-1.07187e-07
-2.79665e-06
0.00101308
9.92285e-06
-8.07647e-07
-6.03193e-07
0.00390265
0.000868294
3.69492e-07
-8.33907e-08
-0.00107222
0.00380773
-1.59341e-07
-2.75724e-05
4.49164e-08
5.60333e-08
0.00327225
1.67494e-05
2.70934e-07
6.09724e-05
-8.31784e-07
-1.242e-05
0.00231103
0.0040694
0.00133354
-3.15272e-06
1.86745e-07
2.10612e-06
2.13154e-07
-0.00428216
0.000558354
0.00339829
0.000111827
2.25087e-07
0.00636224
-6.94791e-07
-3.45698e-08
-0.00237
0.0011974
3.09549e-07
-0.00549613
-0.00104951
0.00796914
-0.00586916
0.00401421
0.00326892
4.48864e-08
-9.56034e-08
-3.04909e-05
-1.1384e-06
0.000367026
0.00100784
0.000609655
0.000572158
-1.27933e-05
0.000771377
-2.18011e-07
-4.99574e-07
2.65188e-07
-2.27894e-06
2.5633e-07
1.36047e-06
-6.66767e-08
-0.00062944
3.23823e-07
3.47539e-06
-1.65884e-06
-1.52864e-05
-0.00116502
-0.00016909
1.21284e-06
1.39472e-06
-0.00206344
-4.45184e-06
2.3791e-05
-2.70234e-08
-3.47999e-06
-1.45341e-08
0.00127211
-3.03254e-06
-2.05876e-08
-2.40685e-10
-9.3615e-08
1.13105e-07
-2.24029e-07
0.00166522
-3.26779e-05
0.000611073
0.00765451
-5.72644e-07
-0.00244153
-3.58455e-07
-5.67407e-07
-5.7322e-06
-0.00525933
-0.000576598
0.000179521
-7.7804e-08
-1.94776e-06
-3.79999e-05
-2.11926e-05
4.30753e-06
0.00738841
-2.83588e-07
0.000919675
-1.83302e-07
0.000607851
3.32547e-07
0.00626174
-0.00151648
2.92708e-07
1.67516e-06
-0.000321137
-0.00582252
2.14976e-07
-1.13388e-07
-0.00283119
3.22188e-09
-3.58738e-08
-0.00249311
-2.93154e-06
-2.9915e-07
-9.70737e-08
0.00120493
-3.48716e-05
-2.37355e-07
-0.0055752
1.37464e-06
6.06138e-07
-0.000386416
-0.00253613
0.00388194
8.37895e-06
0.00452538
1.5231e-05
-0.00451145
-0.000111426
0.00262414
2.33585e-06
3.08533e-06
0.00664795
1.33874e-07
-4.03922e-07
1.92881e-06
5.75839e-06
-5.17571e-07
0.00402512
6.45178e-06
8.28913e-08
-6.18701e-05
2.58037e-08
1.80824e-05
-3.29011e-06
9.05361e-07
7.13371e-05
3.50944e-05
-0.00469266
0.00245189
-8.24474e-05
-0.0223187
5.215e-09
2.43821e-08
0.00471453
0.00686204
0.000333037
-9.47245e-07
0.000238053
1.18482e-06
0.000159026
-0.000565518
-6.63448e-07
-2.4529e-08
0.0055034
-0.00119269
1.22322e-08
2.42061e-08
-0.000568261
-1.3778e-07
5.13511e-05
-0.000161298
5.42724e-09
-4.90688e-07
1.64583e-06
1.77571e-06
-0.00625239
3.24334e-05
0.00716841
-2.79976e-08
-0.00231517
-1.64293e-07
-7.96565e-07
0.000206863
0.00147933
1.36463e-05
0.000147172
-3.01877e-06
2.9299e-06
-0.00511484
3.39968e-06
0.00308842
0.000605438
1.0397e-05
0.00851892
0.00575976
-9.43123e-06
-1.51691e-07
-1.81993e-05
1.35744e-06
-1.47838e-06
0.000362439
-2.04048e-06
1.49573e-06
6.8735e-08
-0.000154153
2.03848e-05
2.46432e-05
6.47467e-08
-3.07342e-05
2.77237e-09
-3.19009e-05
0.00281476
0.000537627
1.17318e-06
7.77745e-08
-0.00125499
-4.0503e-05
-0.00436444
3.21152e-05
2.1281e-06
0.000980836
-0.000751207
1.15369e-07
2.01361e-07
3.70383e-08
-0.000543165
0.00225493
0.000952951
-0.000136971
0.000387565
1.21566e-05
2.76014e-06
1.05694e-05
-1.57614e-06
0.000565863
3.79977e-06
-2.30866e-06
2.31811e-06
-1.95834e-06
-1.65029e-07
0.00371322
-8.91724e-05
0.00332763
0.00153587
-4.56163e-08
-1.53627e-07
0.00399926
9.17089e-05
-1.51394e-07
-1.98969e-06
0.00129631
-3.70681e-06
1.7898e-07
-9.85922e-08
2.14688e-05
-3.51736e-07
-8.72454e-08
0.000185384
0.00178873
0.00491297
3.04825e-08
2.07899e-07
-0.000990841
3.32504e-06
7.43582e-06
1.35922e-06
-0.00159001
-3.60132e-08
8.65988e-08
9.29485e-08
1.1317e-07
-0.00287186
-2.10523e-06
-0.00130416
0.000656352
-0.000986379
0.000324075
0.00384836
-0.00506393
5.75984e-07
1.71341e-06
-0.00817278
-0.000827073
-5.76123e-09
-7.83459e-06
-0.0071563
0.00243179
2.3577e-06
-4.35507e-06
1.6045e-07
-0.000431888
7.0354e-05
0.00409375
0.000828407
0.00216455
-8.71848e-06
-0.00368433
1.58608e-07
4.95556e-09
0.00759496
8.65986e-08
-4.79343e-06
-4.23175e-06
-3.19797e-06
-2.26134e-05
-2.29364e-07
1.32546e-07
-0.00545082
5.48726e-07
-0.000917966
-3.83887e-05
0.0012478
-1.39366e-05
4.85337e-07
-0.000228795
-1.55492e-07
0.00365726
1.40939e-07
1.81145e-05
3.57238e-06
3.49331e-08
-4.38533e-07
-1.34941e-06
-1.30705e-06
-6.40453e-08
0.00452171
-0.000353582
2.96039e-08
0.00136125
-0.012742
1.9502e-07
7.57271e-07
-1.71196e-05
0.000187652
3.78577e-07
5.18154e-06
-2.1531e-06
0.00211416
2.2974e-08
-1.00505e-07
-0.00237954
-0.00271233
-0.00375829
-1.80124e-06
3.88786e-08
-3.26181e-07
0.00338249
-0.000107543
-0.0117463
-6.92299e-08
-1.19939e-07
-1.12098e-06
-2.89193e-07
0.000228548
8.66509e-08
0.000805581
-0.00151383
-0.00261246
1.07893e-07
-7.29126e-05
-0.000140353
-5.21518e-08
2.87842e-06
-3.9548e-07
0.000923883
1.41004e-06
3.51943e-07
-1.82198e-08
-1.95779e-07
-0.00287156
-6.84768e-07
0.00314422
-1.17794e-07
1.64175e-07
-4.99356e-06
-1.07223e-06
-1.59878e-06
0.000126534
-0.00326685
-1.29811e-07
1.39481e-07
1.57192e-06
-0.000602893
5.87396e-06
-1.86016e-06
6.38193e-08
-0.000423855
3.37967e-06
1.81081e-07
-1.47203e-07
-0.0159313
-0.00694037
3.66354e-07
0.00526659
1.34768e-05
1.59147e-07
-0.00569234
-0.000615167
-8.12086e-08
-1.50081e-06
-1.05648e-06
-2.57832e-06
0.00169397
0.00252894
-4.60597e-05
4.70049e-09
0.000963421
-0.00139194
0.000391714
0.00180717
-4.8088e-06
8.00317e-08
5.76689e-07
0.000543459
-5.75017e-08
-2.58923e-07
-0.00464844
6.94455e-05
1.34642e-06
-6.87917e-07
3.06719e-05
0.00656079
-9.31462e-09
-6.56961e-08
5.22336e-07
2.85582e-06
-0.000138883
-0.0153877
-1.60872e-05
0.00228947
1.84821e-06
-2.23395e-05
-8.1278e-07
1.96675e-07
-1.82885e-06
0.00451642
-5.54347e-08
0.00414116
-1.74527e-06
-0.000967062
-0.00209479
3.23205e-06
-0.0114009
4.76713e-08
2.74699e-06
-0.00196149
-0.0101587
0.000114011
0.00541041
0.00265825
0.00481957
-3.87693e-06
0.000107489
-0.00177908
0.0013462
-0.00343354
5.58032e-08
-0.000716176
0.00751204
-7.93173e-05
0.00697193
-7.13453e-07
0.00236035
-2.10391e-07
-5.88685e-07
-0.00195571
0.00303333
0.000306575
-1.85136e-07
6.49184e-07
0.0029454
-0.00325583
2.96867e-05
3.76911e-05
0.000535177
-1.23273e-06
8.16183e-05
-0.0191693
5.89823e-07
-0.000933131
0.00604797
0.00441672
-1.34065e-07
-3.33409e-06
4.89313e-05
1.0294e-07
-7.59722e-08
-6.80738e-08
-1.29674e-08
1.2001e-06
-3.36821e-07
-1.42302e-06
1.69135e-08
1.4757e-07
-8.21049e-08
5.12048e-08
-2.42138e-08
1.91879e-07
0.000297276
-0.0206919
-9.91314e-05
0.000478131
0.0012778
4.00021e-05
-3.90299e-06
-2.13164e-08
1.2738e-06
8.81058e-07
-4.75153e-05
5.44521e-07
-0.00212889
-1.04629e-06
-3.18284e-07
0.000154205
-3.5855e-07
-0.00124228
-0.00184504
-4.222e-07
0.0042723
4.58888e-09
-0.00223792
-0.000115603
2.73205e-05
-1.03208e-06
-0.00215307
0.00726053
1.45196e-06
3.91253e-08
-0.00216212
0.000167191
0.00120409
1.13993e-06
0.0026202
0.00534143
-2.13864e-07
0.000192339
-0.00489098
-1.23394e-07
3.92239e-07
-0.000852751
-1.98255e-05
-3.82838e-07
0.000543436
4.86431e-08
-0.00263992
-0.00249926
0.00459985
0.00458768
-0.0397933
0.000106702
0.000181916
3.45654e-05
1.18962e-05
0.00471496
1.23632e-06
-3.12745e-06
2.49398e-05
2.49509e-07
-0.00616841
-0.00617713
-9.51485e-08
0.0091938
-3.78306e-05
0.000128991
0.00694273
-1.20458e-06
4.27449e-06
0.000624166
0.00482097
-5.98821e-08
4.56773e-05
4.72345e-06
-0.00151785
1.51293e-07
0.000734865
-6.34657e-07
0.000624678
-6.4352e-07
0.00112631
3.22609e-05
1.15956e-06
8.25555e-07
-2.18549e-07
6.56735e-06
0.00575185
-0.017617
0.00571067
0.000657659
-1.76702e-05
0.000246594
-1.26752e-06
0.000859835
0.000258923
-0.00108258
4.44367e-07
2.02494e-06
2.66606e-05
-0.00273718
-1.37931e-06
0.0050562
-4.65619e-05
-1.2705e-07
-7.19579e-07
-0.0168793
9.02691e-06
1.45252e-05
4.62459e-05
-0.000872824
-9.22553e-07
0.0051399
-6.90621e-07
-1.13339e-07
6.15217e-06
3.3621e-07
4.64074e-07
-2.45637e-06
0.000780296
-4.34023e-07
0.00217343
-7.33745e-08
-9.97519e-08
-1.75649e-07
-3.54462e-07
0.000189778
-0.00536906
-0.00160727
0.00477538
-0.00470015
-0.00403101
1.72162e-06
0.00428495
0.00235498
-0.00496657
-0.00324419
-0.000630003
-0.00611522
-2.65481e-07
-1.326e-07
-6.35671e-08
-4.02033e-08
1.35157e-06
7.1799e-06
2.20771e-07
-1.45318e-05
2.67713e-06
1.36851e-06
0.0012212
3.94272e-07
3.48071e-10
-8.79195e-06
-0.00172013
8.07761e-06
6.89689e-07
0.000152788
1.90475e-09
2.56132e-05
-2.46691e-07
4.48862e-07
4.48039e-08
3.64804e-06
9.07505e-07
-0.0142824
-0.00162793
-0.00514613
-0.00463488
-4.91664e-08
1.05645e-06
0.000163478
2.8899e-07
9.43687e-08
0.00338206
0.00468219
-0.000805836
-3.09875e-06
7.17365e-05
0.00586982
0.00197539
-3.41161e-08
1.27232e-07
0.00214089
-0.000115956
0.000269357
1.30023e-06
0.00205207
-0.0125717
-1.06788e-05
1.33767e-07
0.000385739
-0.00515361
-0.00482771
0.0035283
-3.30132e-05
-3.76839e-06
7.6966e-07
-0.00162467
7.75408e-10
6.03774e-07
-4.64446e-08
1.46768e-06
0.00339045
0.0053085
-6.77393e-07
9.72247e-08
0.0021162
3.02283e-07
-0.0040662
0.00367936
4.4223e-06
-2.1794e-06
-1.00367e-06
0.00482738
1.22312e-08
6.4517e-07
-1.47019e-07
-0.00221993
-1.62613e-07
2.63186e-10
-0.000487962
-0.00226711
1.23596e-06
1.87315e-06
-6.86466e-08
-5.38752e-08
0.00371916
-0.000978672
-0.00275545
-4.61766e-10
-0.00837374
-0.00513996
-1.09652e-06
-1.39857e-07
2.16692e-06
-0.00841005
1.10388e-05
0.000201809
-2.33041e-06
-0.000326609
1.33368e-06
-3.85802e-06
-1.58558e-05
1.28156e-05
8.87486e-08
2.29923e-05
-1.80236e-07
8.14343e-07
0.00862725
0.000621484
2.9853e-07
0.00284707
-1.68416e-07
-8.62975e-07
9.84592e-08
-4.60402e-06
-0.00462694
-2.38808e-07
0.00189985
-1.58025e-06
-0.00233263
-4.8282e-08
-5.03806e-06
0.00529948
-2.76549e-08
-5.04012e-06
-0.00354441
0.00222456
-2.02922e-06
0.00180862
2.15359e-06
-0.00257217
1.23703e-07
-2.7131e-06
0.00204792
-9.79547e-08
3.08935e-07
4.37182e-08
0.00413103
-1.28076e-07
0.00188712
-0.00336712
1.71043e-05
1.4953e-06
8.73779e-05
4.88721e-05
0.00258204
-5.06041e-07
3.03251e-06
-2.59966e-06
-1.82888e-06
-5.99985e-08
1.02259e-05
-0.0188992
1.06477e-05
8.97824e-05
-6.65319e-08
0.000356077
-0.00106396
-2.24877e-05
4.01092e-05
0.000265317
-2.32945e-07
1.12382e-05
2.51835e-06
-0.00288106
-0.00529492
-1.691e-06
-0.000565774
-0.00564684
-2.66395e-06
-0.00518963
0.000161543
-0.000174365
-2.06587e-05
9.15505e-08
6.89991e-05
-2.01451e-07
-3.05395e-08
-4.61444e-07
1.46684e-07
0.00719092
-0.00586762
0.000163243
-0.00184862
0.0022235
7.62174e-05
-0.000486619
-0.00111926
3.2603e-06
-1.3746e-07
-0.00441396
-0.00566352
0.00782215
-7.6634e-10
-1.02599e-08
-0.00460997
1.49907e-06
7.69586e-08
7.02576e-08
1.21175e-05
-2.70335e-07
0.00049809
4.57951e-07
-7.48697e-05
1.01592e-06
0.0051629
0.000158159
0.000954042
9.76353e-08
-1.72454e-07
3.79634e-05
4.8063e-05
-4.13125e-07
-9.2364e-07
-1.77982e-06
-4.92712e-05
-0.0025564
3.14176e-06
-2.40816e-08
-5.26093e-06
6.14939e-06
-1.55017e-07
-2.53681e-07
-0.00123991
-0.00978379
-0.000325374
-7.41423e-08
-0.00102061
2.10072e-07
6.75611e-09
6.43916e-05
2.35067e-05
3.60607e-05
1.31916e-08
6.98111e-06
0.00436748
-0.000453742
-0.0357401
-1.51746e-07
6.09359e-09
-0.000401719
-0.000754728
-1.69021e-05
-0.000294967
7.52955e-06
-1.45464e-07
-1.73426e-06
0.000121499
-5.13134e-07
-0.00441789
-4.35488e-06
-1.55175e-07
0.000402268
-3.23122e-05
0.00149075
1.21243e-08
-4.08058e-06
0.000452646
-7.3219e-09
0.00219727
4.90593e-05
2.58566e-05
-5.02588e-08
-2.26224e-06
2.9706e-06
-0.00158462
1.62416e-07
2.33852e-06
-1.68104e-06
6.20324e-08
-1.18766e-05
-1.04142e-06
-1.45448e-08
0.00283895
0.00256063
-0.00607676
8.10769e-05
1.09984e-05
2.18028e-06
-1.19796e-06
3.91617e-07
1.38854e-06
-7.38832e-08
0.00211051
4.75311e-05
-3.21813e-07
-2.20114e-07
1.06511e-06
0.00026101
3.7762e-05
6.98271e-08
-0.000405039
-0.000505123
-0.00552182
-1.66895e-08
-2.80557e-07
1.35227e-06
0.00332216
-0.00442532
0.000303926
-1.75913e-05
0.000117414
-1.99702e-05
4.84064e-07
5.09378e-07
2.20466e-06
0.00440707
0.00152854
0.000430807
-2.53957e-06
2.32959e-06
-7.70666e-07
-1.12298e-07
7.5997e-08
1.35516e-08
-5.08848e-08
1.23487e-05
-0.0155117
-2.14275e-06
-0.00307071
0.000831348
-3.64496e-07
-1.19772e-06
0.000304323
6.21167e-08
-5.59597e-07
-1.42747e-05
3.49111e-07
-1.97582e-07
1.34094e-08
0.00019761
8.3935e-08
0.000209499
1.1496e-05
4.91631e-08
-2.84056e-08
-0.00339666
-0.00828976
2.15002e-05
-5.82603e-06
1.37336e-07
0.000165469
8.31076e-07
-1.55814e-07
-0.000951548
-3.2356e-07
-0.000147379
1.08056e-05
0.000335751
-7.86424e-06
0.00159416
-1.1354e-06
1.15403e-07
0.107034
0.00116915
1.10879e-06
-1.2683e-05
3.16827e-06
1.28978e-06
0.00412333
-6.07439e-07
6.65416e-08
-0.000787223
-0.000319684
0.000518087
0.000274135
-6.46409e-08
-2.35224e-06
-9.59264e-05
-4.79207e-05
0.0030139
2.28754e-06
9.4903e-07
-1.0088e-05
-6.90614e-07
1.82192e-06
3.92804e-07
2.10313e-07
9.62466e-05
1.26552e-06
1.7196e-07
-0.000913277
4.40387e-06
1.03547e-05
-0.000164823
-1.89335e-06
-6.24967e-09
0.00415998
2.53472e-06
-0.00367539
4.55971e-05
0.000818559
-6.77529e-05
-4.92751e-07
-6.01577e-06
0.00387506
-0.000740106
-3.25403e-06
-0.00482089
0.00536734
0.000158315
-5.92889e-08
1.33437e-07
-2.50547e-05
-0.0047887
0.000254046
-0.00216905
0.00120815
1.55415e-07
8.55988e-09
-0.00287327
1.40922e-05
-0.0226954
-0.000142817
-4.14992e-06
0.000365195
8.4665e-08
3.01764e-06
-0.00374261
-2.04456e-07
-5.58337e-05
-5.70498e-06
-3.53881e-06
-4.82889e-07
-2.94593e-05
2.45154e-08
-0.00600199
0.000135677
-0.00464023
-3.47034e-06
8.55499e-08
-1.35893e-06
-2.44884e-06
0.000688378
-6.35951e-07
6.72832e-08
-5.48967e-07
0.000894251
3.10688e-09
-3.89188e-05
2.87784e-06
0.000187266
-0.00450873
-4.11762e-05
0.000102142
0.000134944
-1.11745e-05
-4.99859e-07
1.98818e-08
-0.000142817
-4.60068e-08
0.00661697
0.00121335
3.11563e-08
1.99558e-06
-3.31287e-08
1.68949e-07
0.00566243
-2.65135e-06
0.0028025
-7.33713e-07
1.88738e-05
4.9548e-07
0.00135402
3.84949e-07
-3.77105e-07
0.00357474
1.06547e-06
-0.000373866
0.00129576
1.07264e-05
0.000106727
5.71513e-05
4.11794e-06
-1.72278e-07
0.00356849
-3.98626e-06
-0.00241053
3.97793e-07
-0.00286536
4.01724e-08
0.00235184
-0.00345268
5.14696e-06
-0.000705219
0.000384606
2.55828e-05
-1.78049e-07
0.00304688
0.000216826
0.000614594
1.079e-07
-1.39755e-07
-3.19914e-06
-2.35014e-05
0.00573717
2.30673e-06
2.01012e-07
-3.22927e-06
6.98676e-07
-3.27788e-07
-0.00126408
-2.2506e-07
7.85279e-08
7.10864e-05
-0.00461905
0.00123139
-4.68909e-06
4.0912e-05
6.73136e-07
-0.00188114
2.0279e-07
1.16552e-06
7.92401e-08
0.000134565
-1.7131e-06
-0.00101928
0.000343385
5.86753e-08
9.69773e-08
0.00143565
0.000733488
3.69054e-06
-1.1939e-07
0.00131683
0.000163794
-7.23086e-07
-2.06641e-07
-0.000745511
-0.00141931
3.70125e-05
7.05646e-05
-6.14827e-07
1.73409e-06
-0.000944136
-2.73203e-05
0.00175173
0.0188825
0.00263471
0.00485022
0.0019941
-1.111e-06
-0.0112135
0.000317189
-3.06391e-06
0.00208115
1.65088e-09
0.00660209
-6.81466e-07
-0.0019414
5.31718e-08
1.64644e-06
4.03081e-06
5.4654e-07
-0.00367122
-6.16582e-06
3.37932e-05
6.27389e-07
1.08975e-05
4.176e-05
-5.19234e-07
4.7644e-07
-1.14265e-07
-1.71164e-07
2.935e-07
-0.00260468
-0.000149639
2.27069e-06
2.57721e-07
-7.47985e-07
-0.012202
-0.00201744
0.00117742
-2.44607e-06
1.29973e-07
1.82276e-06
-0.00294991
-3.38426e-06
-0.00513366
-0.00148953
2.03429e-07
-3.51611e-05
-0.00154395
-0.00439493
3.41948e-11
-9.18063e-08
-2.07872e-07
1.91032e-06
0.00101572
2.65329e-07
1.94343e-05
2.65852e-07
7.96321e-08
4.89326e-07
0.00378083
-5.24841e-08
-0.00116011
-3.42762e-07
4.2629e-06
0.00176558
1.11261e-07
5.20958e-05
-5.00683e-06
-1.34639e-05
0.000793925
3.0301e-06
-0.000453227
-2.34108e-05
-0.00493949
-0.00215104
-0.000783502
0.00170646
0.000122913
6.5011e-05
4.99526e-06
-0.00398357
1.63575e-05
-0.0012537
-1.1411e-05
-7.61806e-06
0.000286099
-6.59625e-05
0.00182754
1.86958e-05
0.00314669
-0.00159839
-0.00406629
0.00154905
0.00164687
0.000275789
8.12955e-08
-2.91987e-05
-1.7729e-07
-0.00224759
-0.000865372
-6.86195e-07
0.00161131
0.000221417
-1.12e-06
0.00257561
-1.31785e-07
3.5841e-06
-0.000165544
-1.12008e-07
-0.0359585
-0.00241634
-3.774e-06
-0.00525411
1.93863e-07
-5.13928e-07
1.56477e-05
-3.44857e-08
-0.0112388
-8.71627e-06
-2.25914e-07
0.000665684
-1.13634e-05
-0.000817644
-0.00145249
-1.03203e-06
-0.00288835
-0.0074403
-1.83905e-05
0.000984578
0.00183222
-1.06601e-07
-4.2368e-08
-7.84477e-07
-0.00526536
0.00146462
-8.64176e-07
-0.00469856
-7.90125e-08
0.00431393
0.000179625
0.000496641
-0.00352346
-1.98736e-06
-0.00107597
-2.28752e-06
-0.00414878
-0.00024631
0.00616418
-1.4083e-06
-0.00378547
-4.68298e-07
2.01483e-06
0.000115559
-5.80408e-06
-0.00343511
-5.33302e-06
1.72089e-06
-0.00272282
-0.00522006
0.00698846
4.16639e-06
8.38194e-07
-1.84297e-05
1.1694e-07
1.33548e-07
1.84077e-06
1.13911e-07
-0.00219623
0.00638273
2.01041e-07
0.000747628
0.00352101
1.96237e-07
-1.83842e-07
2.70386e-07
-9.23616e-05
7.87101e-07
1.14388e-07
1.87016e-07
-0.00352377
0.00687492
-0.00185808
2.76305e-07
0.000901255
-0.00271192
-0.0103919
4.58562e-08
5.06803e-08
6.19027e-08
-2.71631e-07
1.00106e-06
-0.000254334
1.73944e-06
8.43496e-07
-4.03562e-05
-1.71752e-06
1.08295e-07
1.0431e-06
3.33784e-06
4.1631e-07
-0.00312644
6.21371e-05
2.32834e-08
-0.00225252
6.12179e-07
-1.69323e-05
-2.00079e-06
1.87513e-06
3.1557e-06
-0.00482129
2.74951e-08
5.78192e-09
3.15587e-05
0.000295056
-1.8636e-06
0.000281125
-1.69943e-06
0.000275166
1.77162e-05
0.00681113
-0.00290009
1.11493e-07
0.00492988
-2.08624e-07
-4.01802e-07
-0.00488306
-0.00410484
1.51476e-07
-0.00186711
0.00176848
-2.7999e-07
-9.69828e-08
-0.000629597
-5.16699e-05
-3.68562e-06
6.40051e-05
-0.00271204
-7.06639e-08
0.00110599
-2.99153e-06
-0.00609483
0.000286881
1.6047e-07
9.13562e-05
-5.62233e-09
2.64764e-08
-3.86896e-06
7.69308e-09
-8.42637e-06
-0.0046206
-6.99558e-08
1.2249e-05
2.79933e-06
-1.44449e-06
-3.69635e-07
-0.00172855
5.46206e-08
0.000292049
-0.00249877
7.48872e-06
-2.89988e-06
-3.37025e-08
0.00815515
5.48036e-08
9.45473e-08
-8.73169e-07
-0.0081665
-9.19585e-06
-0.000780046
-6.22621e-06
-0.00129619
0.00067621
-0.000130846
-9.86459e-08
-0.00997966
6.88594e-06
-0.0026196
6.68792e-08
-0.000196495
-1.11028e-05
0.00116071
1.0331e-06
6.3357e-08
5.33891e-09
-1.47035e-05
-6.99024e-05
-5.10469e-09
0.000273828
-5.88306e-08
-0.00088078
4.90837e-07
-0.00367442
2.19362e-06
1.40722e-07
-1.48586e-07
-0.0015529
-0.00094773
-0.000368272
-6.28354e-05
-0.00539667
-0.00389504
0.00182794
-1.65962e-06
1.05111e-07
-5.94769e-07
-7.88292e-07
-0.0109832
-0.00696014
-4.89368e-06
4.90893e-06
0.0014534
-0.00204629
-1.43359e-05
0.00149028
0.00199708
1.34847e-07
-2.25601e-06
5.76623e-07
-8.10875e-06
-0.00242837
-2.45724e-07
-0.00111944
7.61216e-08
-0.00112234
0.000493357
-1.20097e-07
-0.000645755
-0.00604616
-0.000714483
0.000797745
-1.94469e-07
2.861e-06
-1.5368e-07
-1.56531e-06
1.20811e-05
0.00118681
-5.24624e-05
3.18993e-06
-3.9844e-07
2.69276e-08
3.85331e-07
-0.00199733
-0.000358856
-1.2776e-06
3.64795e-08
4.57788e-07
6.00218e-07
0.00289217
0.000236713
-2.80729e-08
9.26778e-06
-0.00270913
-0.0110873
1.82488e-09
-0.000502147
-0.000648056
-5.18935e-07
0.00284626
-1.417e-06
1.11713e-07
2.16745e-07
-1.67164e-06
2.00061e-07
-0.00100136
2.76276e-07
-4.83184e-07
6.41581e-08
-2.09733e-08
1.35539e-07
7.99475e-07
-0.000663874
-5.61766e-07
-0.00330377
0.00437345
2.5816e-07
-0.00337866
-0.000779185
-0.0020662
1.01806e-07
-0.00505198
9.13371e-05
0.00055015
-0.00212602
7.18794e-10
-3.67272e-05
0.000220557
2.43918e-07
2.47498e-05
-1.2386e-06
-0.00347002
-4.03837e-06
-1.41884e-06
1.01222e-06
0.00218554
-2.85065e-06
-1.04413e-05
1.7956e-06
-0.0101043
-6.9106e-07
-0.000410991
0.00119415
-0.00346085
0.00146397
-4.19081e-08
-1.75717e-06
-1.48636e-07
-0.00312458
-2.24324e-08
1.58271e-05
-1.2717e-06
-0.0019923
0.00500357
-0.00142384
8.13094e-08
0.00368859
-0.00105653
-1.61604e-06
0.000144165
1.00051e-05
1.73836e-05
-0.00223217
4.37986e-07
-2.97833e-07
-0.0167387
-0.00011853
-7.88231e-05
0.00132907
-0.00491616
1.87928e-07
-0.0049218
-0.00509513
-0.0028019
0.0063477
-1.3647e-06
2.64411e-07
2.06625e-06
1.62946e-06
-1.56067e-05
0.00762666
-5.90128e-05
3.41905e-07
1.64069e-07
0.000470204
-0.00145388
-5.25829e-05
0.00125695
7.28696e-07
-0.000122903
0.00865545
-2.50001e-07
0.0168124
-0.00300148
-0.000785589
6.04927e-06
0.000737024
-2.92885e-07
-4.766e-06
0.000904489
-0.0018861
-5.92854e-05
1.3754e-05
-0.000218034
0.00158788
-0.00473352
-1.04124e-06
0.00632423
0.00213926
-2.41748e-05
-0.0025522
-2.37229e-07
0.00344486
3.05687e-07
6.25073e-07
-4.0741e-07
-5.11478e-07
1.53153e-06
1.88228e-06
-2.27726e-05
2.6662e-06
-6.79279e-07
0.00348937
5.48461e-07
-3.35763e-07
2.08678e-07
-1.8838e-06
0.00383142
6.72989e-08
-0.00035218
0.000808684
-8.59144e-07
-1.23942e-06
-0.000762513
0.000809555
-4.76452e-08
2.26447e-06
-8.60345e-08
8.20485e-07
-6.03915e-05
0.00273069
0.00461865
0.00154654
0.00419835
-4.93088e-07
-5.25413e-05
2.71716e-07
-5.96842e-07
-0.00234308
-0.000818254
-5.85601e-07
0.000766319
1.28343e-05
-1.6843e-06
-9.04463e-05
1.26854e-07
0.0036382
-4.04067e-07
-0.0110935
0.00274772
6.16579e-07
-0.00297769
-9.55995e-08
1.33277e-07
0.00138572
3.3061e-07
-9.81978e-05
0.00053469
0.00255736
1.21048e-08
-2.87604e-06
-2.07261e-06
2.40974e-06
-1.3389e-07
-0.000407221
4.0089e-07
-6.79537e-08
-4.15727e-06
2.10303e-07
-1.19934e-05
-0.00373038
7.53989e-08
4.58924e-07
1.44365e-05
-0.00258123
1.71876e-06
-0.000636178
-2.03628e-08
7.18221e-07
1.3519e-06
7.36233e-08
1.2835e-06
6.31446e-07
0.00442307
-3.48306e-06
0.00660205
0.00128076
0.00653124
0.00800459
-1.34901e-08
-1.79222e-07
2.43992e-07
3.46979e-07
-1.02417e-05
0.00479702
0.000934952
-1.29183e-07
-2.74456e-05
1.13002e-07
5.24711e-05
-0.000171165
0.000708702
0.000836187
0.000188666
0.00026113
-0.00238042
-9.73916e-07
4.86435e-08
-0.000740948
-1.53616e-06
-5.95393e-11
1.48262e-07
3.32482e-05
0.000158241
-2.8089e-05
0.00463275
3.34783e-08
-0.00407674
1.12682e-06
0.00423408
0.00159333
-0.0190461
8.97113e-07
2.1575e-06
0.00704982
-2.00505e-06
-7.87472e-05
2.62739e-05
2.56308e-07
1.37313e-05
1.04801e-06
0.000457349
-0.00598323
0.00657971
-4.95868e-06
1.91813e-07
-0.00195319
0.000342659
0.000252276
-4.0649e-07
0.0011232
0.00214118
-0.000634531
-0.0053923
0.0083946
9.92608e-08
0.00028265
0.00125618
0.00151661
-3.07926e-07
-0.00673927
1.73806e-06
-0.00113577
-9.50726e-05
0.000625722
0.0030046
-1.53217e-07
3.2756e-07
-6.01655e-06
-0.00323122
2.43914e-07
0.000518306
-4.07638e-07
-0.000136914
-0.000289853
-3.17752e-07
1.04869e-07
3.02761e-06
-4.59533e-08
-5.40732e-07
0.00512815
7.93432e-05
-1.97122e-06
1.75828e-07
-0.00343963
6.43485e-07
-1.53138e-08
5.17454e-07
0.000515452
-0.0036091
0.000784638
-1.225e-06
-0.00310559
1.67282e-07
-0.0044421
-1.87156e-05
2.08627e-07
9.289e-07
9.27765e-06
0.0263627
5.59452e-07
1.48891e-06
0.000557257
1.54435e-06
0.0030092
-1.88014e-07
2.39092e-06
-1.37444e-07
1.90622e-07
3.90209e-07
2.78556e-07
1.00545e-06
-0.00418055
-2.9758e-05
-2.18901e-06
-2.50025e-05
8.4828e-05
-0.000492918
0.000224386
0.000632249
8.38575e-08
0.00514876
-3.22049e-05
-0.0219263
-2.41225e-06
-0.0214104
-4.61953e-08
-4.60374e-07
-2.65169e-06
-0.000386069
3.64347e-08
-0.00038277
0.0145859
8.18777e-07
-1.92737e-07
0.000323191
-4.56493e-06
1.02435e-06
-2.44523e-07
0.00305392
2.40714e-06
1.19983e-05
-1.07236e-07
-2.00839e-06
0.000259748
0.00199492
0.000241698
-1.25831e-07
3.16887e-07
0.00582067
1.14725e-07
-1.11752e-07
0.00114277
0.00550929
-0.000944905
2.23027e-07
-3.0799e-06
2.10981e-07
-0.000571119
3.39094e-06
5.71257e-07
-0.005031
1.01134e-05
4.4587e-06
0.00311537
-5.61197e-06
1.68345e-08
1.72944e-07
4.7686e-09
-0.000628853
3.09701e-08
-2.29958e-06
6.43183e-09
3.24911e-05
1.8238e-08
1.39764e-07
5.97727e-07
0.0017253
-2.1461e-07
-9.16568e-08
1.16396e-06
5.05241e-06
-2.41008e-06
-6.35456e-05
-0.00366598
-4.5952e-07
1.49185e-07
-2.06449e-06
-2.88348e-05
1.45267e-06
-8.7546e-05
0.000285076
1.09875e-06
0.000180824
-1.59528e-07
0.00561746
-0.000298768
0.00638822
-1.67171e-06
-1.44751e-05
9.39294e-09
-3.50351e-06
-1.26966e-06
-2.10761e-06
2.4703e-06
-0.0023213
1.07985e-07
-1.58314e-06
-6.79658e-05
-0.00433403
-6.49195e-06
-2.77974e-06
0.00103865
-3.82673e-07
-1.06989e-05
1.01277e-06
-3.97275e-05
7.99537e-08
0.000738063
5.87863e-06
-2.21786e-05
-1.83026e-07
9.47964e-07
0.000108471
-1.83551e-05
-0.00594415
1.83843e-07
-2.98042e-06
-0.00302775
2.73753e-06
-2.683e-08
-1.49245e-06
1.93411e-06
1.1045e-06
1.01677e-07
-9.76587e-06
0.00131729
-0.00492924
0.00163458
2.09343e-07
0.000655381
-0.000252475
-0.00456965
0.00110304
2.53776e-07
1.53746e-07
4.73365e-08
0.00032638
-4.53517e-05
-7.61328e-07
0.00435881
0.00642311
-1.25986e-07
-1.76234e-07
-0.000200096
-0.00607343
-9.85862e-07
0.0086074
3.49816e-08
-0.000949894
-0.00219333
-0.0257357
-1.06456e-06
2.6793e-06
-0.00337802
2.70825e-05
0.00480256
-0.00406838
0.000837235
5.61215e-07
-4.31168e-07
3.57694e-06
2.30059e-08
1.22888e-06
-0.0042189
-0.000146394
-1.93902e-08
2.33536e-07
1.66359e-05
-0.000664284
0.000133636
-5.45926e-07
0.00121481
1.51329e-07
-0.00567423
1.71757e-05
0.00126384
3.67675e-07
1.00049e-07
0.000892894
-0.000505895
-0.00572172
-0.000107911
3.61553e-05
-0.0056715
-0.00212627
1.73755e-07
0.00119035
7.33907e-07
5.71787e-08
-1.35582e-08
-0.000412525
1.93548e-06
2.32202e-07
5.5404e-08
0.00511744
4.17793e-07
-1.10774e-05
-4.0766e-08
-1.6199e-08
-2.76407e-05
0.00015715
4.04222e-07
-0.000970584
-0.00150505
-6.13194e-08
1.48144e-06
-5.91428e-05
1.79016e-05
-3.27743e-05
-0.000684003
4.57489e-06
4.16514e-05
0.00135334
2.42176e-05
-8.33691e-08
-3.33086e-05
1.05711e-06
-5.87695e-06
-8.34214e-07
3.38279e-06
-0.00597913
3.02811e-07
6.67079e-05
0.00381574
-1.76782e-06
1.02614e-07
-5.6803e-08
0.000166468
0.00587123
0.00797754
-1.29189e-05
4.32833e-05
0.00245605
-0.00411794
-2.41056e-07
0.000294322
-0.000287862
6.19549e-06
0.00673762
-6.88482e-07
-0.000132165
0.00612046
-0.0151471
3.95614e-06
0.000921198
-0.00179996
0.0019655
-7.76277e-06
-9.51516e-05
-4.62315e-07
-7.59144e-08
0.00694331
-0.00550033
-1.01539e-07
-4.56005e-07
-0.00121312
7.55597e-08
0.000747799
0.0031749
8.20033e-05
-0.00955254
3.8549e-06
-5.11899e-05
0.00669384
-3.11946e-07
6.31637e-08
-1.49939e-07
-1.74997e-05
0.000223599
-7.67574e-06
-9.3113e-06
0.00115855
8.80506e-07
-0.00466451
2.03476e-05
-0.00194956
3.82242e-07
-1.74765e-06
0.00776136
0.000411561
1.38757e-07
0.000716317
3.50326e-06
-1.10232e-07
7.78176e-08
0.00761332
0.00440346
2.11863e-07
-1.25648e-07
-2.17174e-07
-3.41008e-07
2.5263e-06
0.00647576
4.8571e-07
-0.00454095
0.00011844
-1.93332e-07
3.81554e-05
6.19714e-07
2.03761e-07
-0.000117718
1.29331e-07
-9.49504e-07
-0.000576341
-7.5235e-06
-1.87337e-05
2.34681e-06
8.0985e-08
0.000287391
-3.15227e-06
0.00642663
-6.20638e-05
-0.00348312
0.00421689
1.92187e-07
-0.00258688
-6.28602e-07
0.00708231
1.52874e-07
-0.00267163
-0.000734337
2.89983e-06