/*--------------------------------*- C++ -*----------------------------------*\
| =========                 |                                                 |
| \\      /  F ield         | OpenFOAM: The Open Source CFD Toolbox           |
|  \\    /   O peration     | Version:  v2012                                 |
|   \\  /    A nd           | Website:  www.openfoam.com                      |
|    \\/     M anipulation  |                                                 |
\*---------------------------------------------------------------------------*/
FoamFile
{
    version     2.0;
    format      ascii;
    class       volScalarField;
    location    "200";
    object      ddt0(omega);
}
// * * * * * * * * * * * * * * * * * * * * * * * * * * * * * * * * * * * * * //

dimensions      [0 0 -2 0 0 0 0];


internalField   nonuniform List<scalar> 
13917
(
0.41265
-0.00020148
0.0177803
-3.1715e-06
0.000189519
0.00123971
7.16742e-05
-0.0302439
1.92294e-06
-2.1519
-0.0185963
-6.66973e-06
-2.0933e-06
0.115078
0.000626971
0.474527
-8.48891e-07
-0.0115083
-0.00686433
0.688623
-0.000849067
1.86857e-06
-0.00517502
2.84778e-06
3.07314e-05
-0.00124996
-0.263473
-0.997599
-0.00414103
-0.000148766
-0.730461
-0.00311343
1.06389e-05
-0.0620807
1.82633e-06
-0.0775787
-4.58871e-05
-2.31225e-06
8.43984e-05
0.000553764
6.21783e-07
-0.0003039
0.000213548
0.00967397
0.007657
-0.0108954
-0.000495846
-3.82144
0.292435
-2.72751e-06
-3.2425e-06
-0.00473287
0.0929305
-3.51887e-06
-5.36004e-06
0.00301648
-4.17373
-0.00412593
-9.68431e-05
0.000417835
-0.231542
0.00844912
-1.01471e-06
6.04375e-05
0.0538604
-0.0359337
-0.00704573
0.025413
-0.0159649
0.201482
0.168936
-0.0142229
-2.97739e-06
0.000152997
-0.000755984
3.93471e-05
-0.000107466
0.000131187
1.90406e-05
1.99222e-05
8.80429e-06
-2.73419e-06
6.73479e-07
0.0424272
5.43139e-07
-0.00214029
-0.00403159
5.21096e-07
0.000762683
-1.8943e-06
-1.10623e-06
0.000155784
0.72285
3.89855e-06
1.14201e-05
-0.00431908
-0.115485
2.41204e-06
6.01342e-07
0.273769
-3.34662e-07
-3.74095e-07
1.17313e-05
-2.36862e-06
-0.000151825
-0.177138
0.85616
0.0151828
-0.000113384
-0.222815
-8.15496e-07
-0.0830522
-0.00354095
-0.850563
0.0554154
-9.51229e-05
-0.000880517
6.33346e-07
0.0812865
-9.06942e-06
-2.9435e-06
-1.33515e-05
-0.0106642
0.0170311
0.0898736
0.033035
6.02435e-05
-0.00122657
-1.48746e-08
0.00483965
-0.000331549
-0.0698589
-0.0313233
-9.89593e-05
0.00241685
-0.361656
-0.453653
-0.0566263
-0.00205234
1.36786e-06
-0.275077
-3.09105e-05
-0.198555
-7.69184e-07
-2.10581e-06
-0.00655916
0.181963
0.139095
-6.05901
-3.9589e-06
0.000420123
1.90529e-07
-1.34745e-06
-8.17391e-06
-0.376227
1.94401e-05
1.86082e-08
-0.0207861
-1.4328e-06
5.81799e-07
1.47032e-06
0.116436
-2.02781e-05
-0.726508
0.0592267
0.924084
-0.504114
1.74652
4.2697e-07
-0.00159748
-5.31103e-06
-0.0842227
5.8932e-05
-0.152737
0.00119337
-1.94349e-06
-7.45438e-06
-0.0354581
-0.00030328
7.49579e-05
0.000145572
-2.15533e-06
2.98489e-07
0.00119323
0.00559174
-0.233082
2.06615e-06
0.0463329
-0.000210114
0.04765
0.0049546
0.00129706
-0.00983219
0.499767
3.14774e-06
0.0892519
0.000123061
-0.0142345
8.94892e-06
1.22712e-05
-0.00039784
0.236183
0.0176418
4.14041e-05
-0.0861768
-0.001177
0.000370074
2.18597e-07
-0.0135953
2.84991e-06
-1.3726e-06
-0.0048776
-0.0236321
-2.94515
0.000988671
-0.00234772
-0.0488841
-1.39075e-05
-4.94489e-07
4.90636e-07
3.09139
-0.0174393
-0.0448272
8.33403e-07
-6.39483e-07
-0.270234
0.128402
-1.10355e-07
2.65856e-07
5.27583e-08
1.37916e-06
1.96885e-06
0.0275626
3.40092
-1.46723e-06
1.23269e-06
0.00387135
0.0157408
-3.04233e-06
1.10837e-06
-0.0821635
-0.300971
0.0353649
-0.0659838
-0.000677631
-7.44856e-07
0.826426
0.00243274
-0.00362222
0.00158968
4.46725e-05
2.15241
2.49562e-06
0.000159242
-3.26127e-05
-6.70799e-06
5.66375e-07
7.19552e-05
-0.00292845
4.49e-06
-0.00963061
-0.0959971
-2.32599e-05
-5.45219e-07
2.11831e-05
-9.35539e-07
-2.63569e-06
-1.57766e-06
-0.000472685
6.35364e-05
-0.0767689
0.456142
3.77872e-06
-0.000858024
-0.0536271
-2.08814e-06
0.0123942
-0.0452705
-2.4982e-06
0.122237
2.30576e-06
0.159935
-2.44198e-06
0.000281638
-9.06509e-06
-2.96069e-06
0.00897944
5.59858e-06
0.317085
-7.31248e-05
-0.108604
-0.00982753
-0.172302
-0.0695902
-3.44705e-06
-0.000845026
-0.00167618
-0.000102925
0.00116356
-9.38362e-06
-1.35579e-06
-4.95904e-07
0.0102952
0.00450611
-0.000104869
-3.15671e-05
1.1629e-06
-0.0172636
0.255392
-2.44752e-06
0.00911722
-0.000156668
-0.362856
-0.0129836
0.143869
-0.0733145
-0.0208801
-0.0300048
-0.000848344
0.0997497
-0.396319
0.0131073
-1.99128e-06
0.000480384
-0.164965
1.30053e-06
-0.00446081
-0.00442318
4.26838e-07
-0.0850968
9.21361e-07
0.00447328
-0.00014393
-2.40896
8.69598e-08
0.000610006
-0.00189367
-0.0183825
-9.2426e-07
-0.000224958
-0.168044
-1.08878e-06
4.18694e-06
-0.123469
-0.284826
0.533982
0.121378
-1.15308e-06
-2.56353e-08
-0.288643
-0.00291405
2.50816e-07
-0.00109016
-2.15696e-06
0.00257076
0.000542403
-0.0152156
-0.00590619
0.00579713
-0.00417764
0.0665871
-6.20523e-08
-2.73051e-06
-0.0111314
0.0293566
-2.67518e-07
0.521333
-0.00361231
-0.027916
-3.18297e-06
-0.0119541
-0.000160448
0.495227
-8.7359e-06
-0.0746237
-0.0131622
-0.00334047
3.9518e-06
1.10069
0.000153635
0.0183602
-0.0233914
0.00018861
0.797691
-2.25065e-05
0.0958016
-1.22373e-06
1.04404
0.127581
-8.14989e-06
-0.113757
0.0169042
4.56322e-05
0.109566
-0.044397
1.41382e-05
0.00260092
1.1107e-06
0.0243722
0.0234311
7.36551e-07
-9.90218e-05
-6.2168e-05
-1.87617e-06
-4.53816e-07
1.15628e-07
-0.586035
0.781242
-5.91603e-06
-3.24653e-07
-3.92047e-07
0.00269884
-1.21203
3.54338e-06
3.15866e-07
0.00217672
-0.0209795
-3.19557e-06
-3.43866e-07
0.300547
-0.166462
-0.0162704
-0.0225937
0.11793
6.47279e-05
-5.2555e-06
-0.000673689
-1.85361e-07
6.06797e-06
-2.57662e-06
-8.70271e-06
3.45953e-05
2.47665
-1.58669e-07
5.24633e-05
-0.0741288
-0.00372136
-8.28286e-07
-1.49344e-07
0.136074
-0.000493188
0.1584
8.67029e-05
1.75216e-06
0.000232934
8.29848e-07
-1.33145e-05
-2.38137e-05
0.360397
0.00942616
-0.239287
1.67524e-06
0.00131247
-0.0127051
-4.72485e-07
0.00144853
0.501532
-4.06709e-06
-0.841154
4.64867e-07
3.58037e-06
-4.38738e-07
-2.66431e-05
-1.94547e-06
4.08637e-06
-0.0335131
-0.178078
-1.97575e-06
-0.323213
0.025624
1.28706e-06
-0.00509466
-0.00419353
0.059576
-3.44456e-05
-0.13802
0.0353642
0.0125822
-3.52742e-05
-0.0354047
-0.0169268
3.70615e-05
1.23461
-2.75445e-06
-3.98075e-06
1.0894e-05
1.78117e-05
-0.000507357
-0.0159183
0.00220114
-0.00318704
0.00136338
-0.0113923
0.00423219
-7.52181e-06
0.489721
0.0014449
-0.000215158
-0.0296149
9.44163e-07
0.00550121
-0.0528731
3.81295e-07
-0.043074
7.06911e-06
1.06323e-06
-0.000928415
6.43284e-05
1.57471e-06
0.0143034
0.0424713
-0.166301
1.32204e-06
6.66417e-06
0.000560369
0.666942
-0.168078
-6.36361e-06
-5.25327e-06
1.09825e-06
-0.00474033
0.0643541
-1.86243e-06
-1.84309e-06
9.62977e-06
-1.52455e-06
-0.000645106
-0.000290959
3.23393e-07
-0.00329099
6.30963e-07
-2.04708e-06
-5.91431e-05
0.0263253
-4.29732e-06
0.000115067
3.30844e-06
0.00141041
-0.00302503
-0.000194789
-0.00114699
0.707198
1.8822e-05
-0.012128
-0.014329
2.80747
-0.0687478
-2.77846e-06
-1.25839e-06
-0.00715984
1.58528e-06
0.0331123
-2.02512e-06
-0.0350853
5.0346e-05
-0.0276097
0.0683088
0.000184881
-1.92969
-2.17663e-06
-0.00657845
6.07371e-07
0.000386781
-0.0400263
-1.80356e-05
-0.0185978
-5.92553e-07
3.14257e-08
-5.99272e-07
0.00486039
-0.000144726
-1.01512e-06
0.00159594
-0.00742192
-0.050874
0.236528
0.0158797
0.0657367
-2.1366e-06
0.123529
5.38796e-07
-0.332556
0.512242
-0.00109521
-0.00824237
-4.22906e-07
0.000322762
0.000199389
-2.118e-05
3.65813e-06
-1.32502e-06
0.263413
8.95761e-07
-0.00226163
-2.03512e-06
-8.019e-07
-9.03965e-07
-0.00928963
0.477295
-2.39856
0.000215612
-0.000336319
0.644959
-0.0145132
-1.26833e-06
1.02212
-1.21234e-06
0.00625336
-8.40416e-08
0.807054
-1.38408e-06
-0.00074974
-2.75181e-06
-0.0680596
-0.00270008
0.0343478
7.87437e-07
-8.66583e-05
-2.11026e-06
-7.50282e-07
0.0294173
1.82585
-1.77195e-05
-0.0113811
1.25539e-06
0.000116441
5.07427e-07
-0.0410006
1.06576e-06
-0.00298594
-4.1273e-06
4.19e-06
0.0408724
-3.72862e-07
0.00548507
4.20723e-06
4.98124e-07
-0.316395
-0.00230013
-5.89605e-06
0.304361
0.0651879
-0.960253
-0.0328381
-1.99405e-06
0.0006467
0.10766
0.0353965
-0.00047658
-6.63437e-05
-0.000701407
5.26641e-06
5.03464e-06
-0.0128769
-0.0095451
-2.79364e-05
-0.0327165
-0.0019219
-0.838908
-0.268737
0.031973
0.00140306
0.0100683
0.0805717
2.39471e-06
-0.0232349
0.0176018
5.34714e-07
-3.90389e-06
-1.52205e-06
0.00197636
-7.75656e-06
0.122282
-0.000650644
4.32527e-06
-0.00901901
1.53323e-06
0.0611593
1.70695e-07
-5.42277e-07
0.0168177
0.00427163
0.0351048
-1.46975e-06
-0.000171971
-2.34681e-06
2.45791e-05
8.05625e-05
-3.3129e-06
0.0207315
0.000317138
0.0395001
0.0381824
-0.0195737
0.0268853
5.0434e-05
-5.19549e-06
-1.33392e-06
-0.061899
-0.138157
0.00022259
0.106507
0.652899
1.93491e-07
-1.85887e-06
1.90801e-05
-0.159419
-0.0224615
-0.00209348
1.95233e-05
9.27841e-05
-0.00758678
0.000207617
-0.00121796
-0.000705624
8.22487e-06
1.86725e-05
-4.69426e-06
-7.93792e-05
0.00128138
-0.0536881
-6.11544e-05
-0.00761883
0.0286201
-0.00105406
0.538236
-5.08644e-05
-0.000200507
-6.16099e-05
-0.00123409
-1.68684e-06
-0.00766337
0.533631
-0.0180237
3.43597e-06
-0.000118604
-3.90763e-05
1.10691e-06
-5.24652e-06
-5.92044e-05
0.00797346
0.000942104
0.0111055
-1.51669e-06
-0.00865198
-3.8586e-05
0.000158261
0.00891858
-3.51903e-06
-0.00588432
-0.0162636
-1.0746e-06
0.00631802
0.00148579
-1.14855e-06
1.83127e-06
-1.22821e-06
4.86951e-06
0.239247
7.81971e-06
-8.7366e-06
0.00184869
-3.10096e-06
-5.22002e-07
-0.0130215
0.140717
0.00410982
-0.682538
0.000465471
-0.294609
-7.11155e-06
-0.000214953
0.224904
-0.00143029
0.0752166
-2.41687e-06
-2.9412e-06
-8.74959e-08
-4.36099e-05
0.000996869
1.89098e-06
-0.0691314
6.47452e-06
0.611497
-3.87914e-05
8.99163e-05
-0.000111123
0.00353017
0.000362779
0.212232
0.00841519
-2.21398e-06
0.116791
3.87476e-05
0.0205608
3.05471e-05
0.00186243
5.02346e-05
-4.37749e-07
3.4114e-06
-0.112895
-0.000289805
-1.05538
0.0584942
-8.8216e-08
0.000538018
1.49647e-06
-0.0073814
-0.136006
-1.58227e-06
1.17286
0.000101056
0.0883881
0.0170035
-0.0514436
1.20303e-07
6.1768e-06
-0.00864335
-1.90582e-06
-3.09496e-06
-9.93111e-06
-3.90297e-06
-0.000908579
-4.45002e-07
0.00623936
4.52213e-06
0.385687
0.0135432
-0.678717
-0.166221
-0.727464
0.330184
-0.182345
-9.3001e-07
-0.000398566
4.59096e-06
2.76723e-05
1.22069e-06
-0.000216247
1.82879e-06
-0.716343
-3.9151e-06
0.496521
5.42852e-06
1.30203e-05
0.00378736
-2.14671e-06
0.000790052
-2.88399e-05
-0.000261883
-7.06452e-05
-0.000123864
0.0687627
-0.0177948
-0.0134727
-2.83533e-06
-1.42436e-06
-3.71915e-06
9.3227e-06
0.000256255
-1.04998e-06
1.43271
-1.92445e-06
0.0078589
0.0001254
1.94443e-07
-0.0071017
0.000802299
-8.89207e-07
0.0350939
1.09065
1.2921e-05
0.00228068
1.90835e-07
1.49571
0.000788105
8.89494e-06
0.157466
6.8235e-06
5.79435e-06
-0.0114943
0.207312
0.000687826
0.125573
0.747196
-0.000231808
-2.65095e-05
-1.58466e-06
0.261909
-1.64153e-06
-0.0228636
9.8038e-06
-0.0296285
0.000243437
-3.71511
-2.64989e-07
-1.22024e-05
0.0977878
-5.87174e-05
-0.00124597
-0.00935832
-3.57691e-05
3.66817e-07
-0.187151
-0.000119279
-0.000543564
-0.00515745
2.04114e-05
0.0243456
-7.76911e-05
-0.00270576
-0.00617337
6.92929e-05
-0.0684423
5.56291e-06
0.000952799
1.27399e-06
-0.0557697
0.0108855
-1.36023e-05
0.000674873
2.80553e-05
-5.18106e-06
-0.000263413
-1.70352e-05
2.71905e-06
3.21825e-06
0.000522045
-4.12898e-07
-2.55767e-05
0.000114079
0.414321
0.16054
-0.0076721
-7.59746e-06
0.0773945
1.71855e-06
0.205325
-0.0554627
-0.210199
4.33541e-06
-1.09701e-06
-7.93071e-07
1.14682e-06
3.88395e-06
0.000478746
-1.33634e-06
0.00147835
2.47515e-08
-2.24554
-0.125704
1.324e-06
-0.0950682
1.29781e-06
8.48929e-07
0.0151195
-0.064455
0.00619161
1.44904e-06
0.0244069
1.57323e-07
-1.67818e-07
0.0131058
-0.000268826
-0.111493
1.11602e-06
0.664295
-1.01106e-07
2.26121e-05
-0.00043103
-0.243583
-4.1466e-07
-0.0576958
-0.0260661
-1.19568e-05
-3.32242e-05
-1.49082e-06
-1.52391e-06
-0.000653575
-0.000387819
-3.50677e-05
-0.0872241
-0.725721
-0.23585
0.000764028
-1.55298e-05
-0.074019
-8.98423e-06
-0.0877461
-0.00537057
6.71026e-05
2.18159e-05
-2.32028
-0.27669
-1.67264
0.000197819
0.387457
-0.00025489
8.60937e-07
0.000603791
1.33649e-06
7.38811e-06
-1.67315
0.163918
3.76512e-06
-7.10663e-05
0.0141301
-1.3216e-06
1.32431e-06
-0.129638
-0.019103
2.13741e-05
-3.09105e-07
0.000120399
-1.18806e-06
-1.13667e-06
-0.0010138
0.000134463
5.02779e-06
0.0200962
0.00215559
-0.0590144
-0.120372
-0.0277144
-0.0476928
-1.14305e-06
5.12793e-06
0.0587744
0.252556
0.111865
0.00152092
-0.00086329
-2.63193e-06
2.17937e-05
0.000397688
0.190647
0.00615796
1.03123e-05
0.00785225
-2.02591e-06
-0.0161601
-0.0114076
0.0183078
-0.00378591
-0.109351
-0.00868924
0.54245
-0.153535
7.15297e-06
-0.0896657
2.08617e-06
-0.00255236
0.00124624
-0.172128
-8.15409e-05
0.000227329
-0.000104843
-1.29319
4.27235e-05
0.0641079
0.000903622
0.00422839
0.118882
-4.15148e-06
0.024144
2.1211e-05
2.89443e-07
0.00230209
-0.0519045
4.40495e-05
8.11871e-07
2.36197e-06
-1.06848
9.16145e-07
-1.87807e-05
0.00015957
1.66383e-05
-5.80002e-06
-0.00990403
-0.00442887
5.8641e-06
-2.9197e-06
0.0428983
0.0619778
0.00104353
-0.0545987
-6.01864e-06
8.17107e-08
-0.154616
8.52185e-06
3.08713e-06
-0.153124
-0.0603424
0.000253665
0.00576505
-0.000164846
0.182971
1.84496
-0.00043609
0.308377
-2.34739e-06
0.000668266
0.183628
0.00105877
0.339907
-0.225377
1.62682e-05
-1.14815e-06
-3.63183e-06
-6.57704e-06
-1.18183e-06
-0.0202411
5.2996e-06
-0.00123644
-1.10771e-06
-0.00338408
0.0988047
5.97685e-09
0.782864
-0.811063
-1.51178e-07
-0.00337862
0.000176601
3.74581e-05
9.43565e-07
-0.0701625
-0.00743656
0.102417
7.79465e-06
0.268784
0.0020971
-0.000184706
-0.574771
0.000828522
-0.0115878
-4.52001e-07
-0.00383648
1.58084e-06
-6.23886e-05
-0.000574502
0.000109106
9.12586e-06
0.0102932
-4.16476
1.4489e-06
0.0106502
0.881905
-2.08131e-06
2.16178e-06
-0.000270481
-0.413431
0.129334
1.67198e-06
7.60602e-05
-0.00163787
-0.0907423
0.0147572
8.19101e-06
1.15651e-06
6.33738e-06
-1.10088e-06
0.000199858
4.2363e-05
-0.504464
1.11722e-05
-0.00021697
-0.0255357
0.0153211
-0.00672487
-0.00962899
0.0250305
-6.90889e-06
-5.91196e-07
7.0636e-07
-3.49325e-05
-0.00293495
0.059249
-0.0306845
-0.00123778
-0.000426716
0.0034127
0.000152741
-0.0772841
6.01494e-06
0.00559033
2.77285e-06
0.206336
-0.0604176
2.59542e-06
-8.65573e-07
-0.156685
5.20143e-05
-0.0256743
0.249975
-0.0286255
-2.56619e-06
-0.0621191
-1.38371e-05
-6.43737e-07
0.747123
0.00140262
3.23355e-06
0.00011432
0.0177406
9.61355e-05
1.72642e-06
-1.08333e-06
2.23267e-06
-2.25173e-06
-1.38461e-06
0.000264163
0.00263297
-0.0104935
0.00011449
-0.000104898
-0.000426475
0.00476431
-2.18549e-06
-0.000553894
-0.0260718
0.0414538
0.985362
5.43719e-06
-1.99046e-06
-0.0624686
7.8084e-07
0.0857225
-6.35893e-05
0.000353347
-5.67978e-06
7.15932e-07
-0.0733695
-0.000130943
1.25947e-05
-1.55906e-06
0.0558227
0.0766842
-0.01442
3.49878e-06
-1.84154e-06
0.0512785
5.95256e-07
5.24812e-05
0.0147721
0.17813
-0.000191564
0.000293866
-3.40491e-06
-0.456113
-1.39679e-06
-7.13444e-05
3.70205e-05
-2.15374e-06
0.0443226
-1.17062e-06
-2.57204e-06
-1.5289
0.00504666
-0.205328
-0.0262499
-6.13714e-08
0.000483538
3.06819e-07
-2.31005e-06
-2.3545e-05
-1.89838e-07
-4.65084e-06
0.0548028
7.14384e-06
0.00335298
0.00183595
-0.00421141
-3.02048e-07
-0.00317084
1.96168e-08
-0.0684753
-1.97713e-05
-0.730053
-0.00240238
-8.58259e-07
0.00590153
-6.20075e-05
0.000219054
-6.51417e-06
-0.0111567
2.53801e-06
1.81327e-06
-0.0128368
0.000158659
-0.0013116
2.77708e-06
-1.17127e-06
-5.73351e-05
-0.00567155
-1.08592e-06
-0.0432437
-0.00302967
5.04215e-05
5.64031e-08
-2.99236e-06
0.0012741
-0.130896
-0.138354
0.00520938
-0.0129779
0.000617726
0.00069019
7.43193e-05
0.291748
-8.88016e-07
-1.89556e-05
1.15002e-06
0.0050181
-2.55215e-06
-0.135872
1.25752e-06
-4.56022e-06
0.00171083
-0.00598789
0.137847
-0.0351085
-0.000116072
0.00185126
-0.141242
2.18893e-05
0.252458
1.63271e-06
-2.63259e-06
-3.40873
-1.36824e-06
-0.156381
-0.101832
-1.69608e-06
3.73977e-06
1.91552e-05
0.0142357
8.08698e-07
-1.55119e-06
-0.000379121
-1.34574e-08
-1.17881e-06
0.00162403
-2.2106e-05
-0.00167019
1.26073e-06
0.000177022
-4.55238e-07
-0.143023
-0.358657
-6.4486e-07
-7.4378e-07
2.67606e-05
-2.65128e-07
0.000114855
4.56885e-06
2.67157e-07
2.69088e-06
4.69987e-07
-1.83903e-05
2.65558e-06
-0.00570945
-2.85238e-06
-0.00187046
-2.79201e-07
-0.0103884
2.82812e-06
-4.25868e-06
-3.16066e-06
4.02245e-05
0.000185538
0.000167004
-0.000178384
-0.278103
0.00557066
-0.0531208
-0.0412128
-0.00317155
-0.192049
-3.45216e-06
2.86706e-07
-0.148266
-0.105168
-0.000169612
-0.0153963
-5.78502e-07
-0.0224414
0.0426471
6.33499e-06
-0.00300359
1.17097
0.173762
5.25218e-06
-0.00431859
8.59509e-07
0.1467
-0.000197018
-0.157576
1.67446
4.22388e-06
-0.328752
-0.623623
-2.27437e-06
0.367879
-0.0124626
2.54452e-06
1.69945e-08
0.0031043
-0.0573342
2.09442e-05
-0.000515158
4.98243e-06
-0.047532
-0.00420939
-3.96229e-06
2.4042e-06
-0.952255
-2.17814e-06
-7.67314e-07
5.87174e-07
2.54932e-07
-0.032921
0.000709678
-0.000225019
-0.0798886
-8.84323e-07
0.000274459
-3.50173e-06
0.0018211
-0.0016111
0.113717
3.31491e-06
2.64031e-05
-2.47982e-06
4.6232e-06
6.73147e-05
-6.18781e-06
0.944325
3.5519e-05
-8.46276e-07
1.21758e-06
-0.00451511
-6.22245e-08
-0.0440776
0.470857
0.138371
-8.38572e-07
-2.39995e-08
-9.48716e-07
0.021673
-5.21044e-06
-0.633614
3.24871e-06
0.17859
-1.35608e-05
0.000150439
0.0832464
-1.16895e-06
-1.20932e-08
-0.0457459
0.0244369
-0.133891
-3.44888e-05
-0.0222
0.469235
2.45584e-06
-0.054211
-1.62206e-06
0.000136776
0.105012
4.20572e-05
-0.00243458
0.152375
6.85419e-05
-0.00823579
-4.79152e-07
-0.519514
2.03165e-06
-0.11546
-1.45641e-06
0.143707
1.03834e-06
-1.88414e-08
4.34465e-05
0.38845
-1.08118e-06
0.0256127
0.00509584
0.797826
-2.25208e-06
-0.000327903
-0.0665291
-1.11248
0.433044
-0.00059035
3.26118e-06
0.0109161
0.785692
2.98639e-05
0.595814
-1.97516e-05
-0.0172423
0.390416
-1.75267e-06
0.0139389
3.72118e-07
-0.0209293
-0.0774358
-7.23443e-05
-2.27419e-05
-0.118281
0.25696
-2.01536e-06
-3.9311e-05
8.21954e-07
9.23068e-08
0.0274527
0.00406332
0.209739
2.04356e-06
0.000131262
-0.162552
0.0289452
0.138213
-0.684533
3.03284e-07
1.98232e-06
0.0267182
0.153431
-3.12846
0.810954
-0.0414777
-0.000323783
-0.0241541
-0.0631709
0.0413439
0.200559
-2.93635e-07
-0.017848
0.00316371
0.0035108
-2.63081e-06
-0.000133425
0.00322954
0.480086
0.356951
-0.000481503
-0.0242057
-0.0787815
-0.001415
6.73334e-07
6.52768e-07
-0.705693
6.43091e-07
-0.00442739
-8.12274e-05
-0.0017369
-0.0337889
0.0312749
-5.21372e-07
0.00142677
0.000416507
1.76773e-06
0.0216368
0.0186984
0.0484988
1.10165e-06
-0.0829088
0.110507
0.0104954
-1.24793e-05
-1.70808e-05
-0.000143767
-0.109847
0.012395
-0.00125172
0.0281274
1.72337
3.85802e-06
-5.13634e-05
0.000106136
-0.00946498
0.158375
4.63827e-07
-3.74341e-08
3.11494e-05
-0.0772688
-0.271664
4.03091e-06
0.00220371
0.00259295
-2.63913e-07
0.0406879
4.6002e-05
0.0357231
0.000160052
0.23312
-0.496661
-2.02994e-05
4.67578e-05
0.763401
2.12145e-06
-0.00241746
0.450044
-5.57529e-06
0.0203071
-0.00033357
-0.00612977
0.00786079
-0.0215921
-4.48384e-07
0.447715
2.3745
-2.16781e-06
0.0201837
-0.0064676
-0.0199962
0.867726
-0.787767
0.437791
0.00682957
0.561616
-0.000217636
-0.0066381
5.70661e-07
-3.55821e-06
9.21899e-07
2.07354e-06
-0.0728143
-0.138383
1.42129e-05
-0.00613506
0.0209771
1.86377e-06
0.31087
0.0375191
0.000157058
-4.74487e-06
5.21956e-07
-1.65514e-06
0.00122535
2.2338e-06
0.45508
0.000314095
0.00461639
0.000202163
0.00115984
-0.00692551
0.000821899
0.0813519
-7.38937e-07
1.14591e-05
5.32525e-05
2.52624e-06
-0.0468702
0.0141398
-0.000244268
-0.0546589
1.30227e-06
3.75375e-06
-0.000258883
9.97415e-07
-9.33309e-06
0.00759211
-1.85156e-05
0.0500951
0.0558406
-0.255775
-2.92283e-06
-0.956786
-3.05785e-06
0.0377608
-2.36241e-07
-0.025293
-3.02303
1.17103e-06
0.0126392
0.0107699
-0.000686069
7.42194e-06
3.50571e-07
-0.000215298
0.74165
1.62738e-06
2.14781e-06
1.04778e-05
-6.67154e-06
-0.0182509
-1.02151e-07
-2.08506e-05
3.98089e-07
6.78275e-06
0.840799
0.000258435
-5.91953e-05
-0.015712
-0.656601
-0.146566
-0.572448
6.67225e-05
8.91018e-06
0.292286
-5.9442e-06
-0.0140177
-5.21486e-06
0.0117976
9.49203e-07
6.75591e-06
-0.00505969
0.186159
5.97208e-07
3.10424e-06
-3.30349e-07
-0.0289363
-1.0909
0.0110614
-1.38011e-06
6.58532e-05
5.84023e-07
-0.074258
2.19917e-08
0.541389
-4.78859e-05
1.86207e-06
0.0309803
0.000627019
0.00346526
6.57157e-05
7.96575e-05
-6.3696e-05
-0.00410417
-0.00554974
3.33522e-06
2.46028e-06
-1.44379e-05
-0.109293
1.09873e-05
6.2731e-07
-0.0176667
-2.8609e-05
-0.0108079
-0.000161888
-9.97774e-07
4.49353e-06
-0.184252
9.52823e-05
1.06201
-0.011814
3.0475e-06
1.03406
-7.43353e-06
-0.0116379
0.00136948
5.97009e-08
5.25566e-05
3.55985e-07
1.9151e-06
0.54917
0.000738202
-0.0658489
0.134863
2.62954e-06
0.0319817
7.56667e-06
0.0437297
3.88318e-06
0.00197144
-0.0288076
0.0090484
6.19075e-06
2.92293e-05
1.9973e-06
-0.208123
-0.0584209
-0.00205295
1.15556e-07
-0.000170725
1.23539
2.54058e-06
-6.02025e-05
2.32017e-05
-0.0194369
0.556094
-9.86276e-07
0.114778
0.000764415
7.93212e-07
0.985637
-0.0106275
0.624389
-0.447238
-0.000467648
0.000189491
8.8189e-07
-0.000168963
-3.8794e-06
-0.00295367
0.000957602
-2.5567e-06
4.07607e-05
0.0472264
-0.678079
1.99973e-06
0.00301623
-1.07374
-0.327009
-1.67074e-05
4.89217e-06
-0.000534973
0.0561629
-0.715293
-1.65028e-06
-0.426388
-0.00653297
-6.2705e-07
0.000780884
3.98498e-05
2.3884e-06
-0.00826151
-1.90183e-06
-0.0112404
1.10731e-06
-1.71593e-06
-3.41132e-07
1.6638e-08
0.0709471
-9.82093e-06
-1.1318e-05
0.00140522
-0.000188681
0.000115243
-0.0241175
-3.14224e-07
-2.2134e-06
1.14435e-05
2.89988e-05
-0.00903766
-0.0190543
-0.779318
-0.13069
0.0131128
-0.227118
-0.0307602
-0.0108181
-0.439106
0.110107
-1.56114e-07
6.53328e-05
1.64664e-06
2.81174e-06
2.43824e-06
0.000194253
0.0558323
0.00318457
-0.000911822
1.19325e-06
1.06344e-06
-0.00725427
5.912e-06
-2.78954e-06
-1.83278e-06
-0.0629204
0.00048713
0.309654
-7.02735e-06
-0.0167545
2.62879e-06
5.31764e-06
-1.69549e-05
0.00274364
-1.43077e-06
-0.0063675
-0.0838557
-0.000216024
-0.0515209
0.169669
-1.8335e-07
0.000208482
-0.0379591
-0.00936181
-0.000104808
1.78328e-07
1.33559e-06
0.159086
-2.52267e-06
-0.635181
-0.276202
-0.00552327
-0.145356
0.0787569
-0.00219411
0.0329224
-3.42036e-05
3.45451e-07
0.0373395
-0.538997
-1.86108e-06
-3.30043e-06
-0.404263
-1.26774e-06
0.0404545
-1.16688e-06
-7.92655e-08
-3.35068e-05
2.61906e-06
3.64946e-05
-0.0484624
0.00318457
-0.000145244
1.90983e-06
0.00735919
-2.9325e-05
0.00475778
1.85998e-06
-0.0175627
-0.00197628
-1.79099e-07
2.32752e-06
4.52348e-06
-0.00963772
-0.00158533
-0.038393
0.0913498
0.00024468
0.0492746
-0.000603225
-0.0145083
-0.00674278
-3.44929e-06
0.0837308
5.32607e-06
-0.0582399
0.0824231
0.200352
0.0249344
-1.09722e-06
0.000668931
0.0187547
-1.20411e-06
0.141563
8.81541e-08
3.04038e-06
-0.000178679
-1.53853e-06
-0.000369047
-0.0135823
-1.06617
-0.0891014
-0.000131689
-5.17801e-05
4.42668e-05
3.68292e-06
-2.12197e-06
-0.0256138
-0.00549563
-0.392844
0.000604454
-2.22308e-08
-1.04296e-06
-8.22611e-06
0.0168439
-3.87905e-06
-1.31894e-05
-6.00062e-07
0.0154959
6.38361e-05
-0.00227079
0.00113433
0.00990577
0.000159092
0.00044111
3.21336e-06
-7.25337e-05
-0.117598
-0.230772
-0.00063412
8.2746e-08
1.01463
0.000239126
-9.491e-07
-0.00268259
-0.13548
0.043117
-0.000441546
-1.59333e-06
0.0475093
1.63106e-07
-4.45502e-07
-5.23087e-06
-4.10472
0.933871
-3.8925e-08
0.646124
0.174372
-7.0194e-06
-0.00496048
0.00328341
0.0422649
0.000401736
-0.0588817
-5.31667e-06
-0.188387
-0.00943132
-0.0127712
0.000405212
-7.59115e-08
-0.15869
-6.4756e-07
2.97118e-05
0.0372015
-0.571457
-0.390694
-0.117496
-2.09811e-05
-4.7505e-05
0.525924
-2.95296e-06
-9.62268e-07
-5.35133e-06
0.00340641
3.33804e-06
0.000797151
-7.04827e-06
-0.184333
-0.611624
3.74981e-07
0.0868154
-4.95622e-06
-0.131452
-0.0453423
-5.75641e-07
-2.08581e-06
-0.000237036
1.00055
0.0467743
-0.000281197
-0.120054
0.0580809
2.66204
-9.17025e-05
-0.679712
0.613407
-0.00500626
0.503512
3.44485e-07
-1.76961e-06
-3.35129e-06
4.9687e-06
-4.54442e-07
0.00088946
-0.0143956
0.00150523
-0.00346258
3.75016
-1.41791
-0.231908
-0.136124
0.000507398
-0.0229083
-0.0023708
-0.000292909
2.8517e-07
-1.15773e-06
0.00593055
-0.0101409
1.19645e-05
0.288962
-0.158609
6.99295e-07
1.43295e-06
1.50804e-05
0.00619051
-6.27541e-06
-0.00551363
0.0637008
2.29565e-06
3.69097e-07
2.31394e-07
3.83534e-06
0.00158672
-0.057244
-0.00154277
-0.239619
-0.00624088
1.0216e-06
-0.00285475
-0.0225267
2.55706e-06
-0.536238
-0.0677444
-0.556451
0.0123638
-0.00439271
-1.8301e-06
-0.102478
-0.0876279
-0.0344685
-0.0253377
3.21823e-06
2.75239e-05
-8.15011e-05
-3.07519e-05
-0.00405488
0.00488479
1.10718e-05
0.000144145
-0.019386
-0.0748663
-4.86819e-05
-0.00296256
-0.0122197
-0.13323
-2.04818e-06
-0.000414036
-0.025153
1.03464e-06
4.83172e-07
-2.44201
1.63331e-06
0.0180459
-0.015116
-0.0188871
-1.27142e-06
0.00516461
0.0259235
1.72514e-06
-5.76105e-06
0.536394
-0.955981
5.40316e-06
0.000850388
0.00612999
0.0286659
-0.0651735
0.208062
-8.93696e-05
0.0049126
-0.0137483
0.000783688
6.76579e-07
-0.022389
1.00192e-06
-3.31211e-05
0.0466084
-0.000429409
-0.0148094
0.000152494
-0.000556041
-3.69528e-07
2.28195e-06
3.21195e-06
1.51419e-06
0.975175
0.000110246
-0.0977527
-0.0176771
0.00136137
-0.00940908
0.678888
-0.0201585
0.919086
0.000609762
0.00013437
0.00130341
-6.73845e-05
0.0216583
0.07329
5.73656e-06
0.0755637
-0.0601494
-1.36899e-05
0.000396483
-0.00761466
0.00170001
-0.00412364
-3.94869e-05
-0.00802046
-0.00649682
0.00768129
0.0201275
0.0142789
0.00454176
0.00110735
-5.79316e-07
0.000391417
-0.00577775
-2.38938e-06
-0.136033
-0.00168879
-0.0238748
-0.161065
8.96848e-06
-1.67712e-06
-0.0941366
0.203415
9.01858e-06
2.25462e-05
-0.0027025
-0.216444
-0.463013
-4.44928e-06
-0.000448648
-3.12998e-05
-1.3845
-0.0196982
-0.000125938
0.0750902
-0.0742948
-0.011647
-0.0880615
-0.00150955
-0.120805
-0.0263608
6.03504e-07
0.00948532
-0.089951
5.66116e-06
0.00567564
-0.00611174
0.000129835
5.36925e-07
0.423371
-0.0815991
6.11149e-06
1.51632e-06
-0.348933
-0.393635
0.00743711
-1.88553e-06
0.0702908
-0.0270104
-0.161758
-0.0583257
2.2024e-06
1.2088e-06
5.82286e-06
8.05778e-06
-0.0489622
-0.308999
0.0305268
-0.00306651
0.149374
0.201339
-5.17873e-06
-4.58458e-06
-0.0701592
2.17481e-06
-0.0400372
-1.50883e-06
-0.12473
-2.50363e-05
7.0924e-06
-0.266748
-3.89161e-06
-0.000722407
-0.0229493
-3.88036e-06
3.24388e-05
-5.58202e-05
0.0238027
0.0167782
0.0181681
-0.150496
-1.02059e-05
1.96762e-06
-0.000233697
0.00626152
0.043548
-0.110765
0.00619808
-0.015531
0.0137516
0.403342
-0.00150997
-2.12351e-07
2.36511e-06
1.63877e-07
0.0194277
-0.0088868
0.199353
-0.000467688
0.0169368
-3.3336e-06
-0.0135438
-0.114602
-1.18318
-2.51556e-06
1.44804e-05
-1.48734e-06
-0.123843
0.0318562
0.154599
-0.105069
0.00362964
0.11891
3.85307e-06
-0.00275889
-0.0175263
0.0151529
-0.0289494
-6.0662e-07
0.0255298
8.75842e-07
-1.46721e-05
0.00744682
-0.553384
0.176995
-1.56488e-07
0.00198856
-0.126128
-0.386831
0.130707
-0.027491
-0.0212845
-3.20081e-06
0.00725748
4.46884e-06
0.0302537
2.76122e-06
-0.00661966
-1.24527e-05
-0.00478763
-0.0109659
-0.0693046
9.99123e-06
0.041874
-0.094822
0.0105334
2.82388e-05
-0.214426
-0.00366257
-1.49543e-06
-2.36659e-05
-0.00944297
0.000102671
0.0173803
-0.0473533
0.0846213
0.204454
-2.05633e-06
0.149885
-0.0765962
-0.320632
0.708043
0.000345658
-0.0145734
-0.000374295
0.0226698
-0.493844
3.85478e-06
0.171808
0.0958236
-0.0457691
-0.000352906
0.267808
-0.0606432
-0.296045
-0.000107381
-0.741275
-8.4649e-05
0.0136375
-0.0261192
0.528617
0.1039
-1.20198e-07
-2.66822e-06
-0.0565789
-0.00529791
-0.0129771
-1.29253e-06
-0.000246547
0.00114451
0.124333
-0.00984637
-0.0849505
-5.4486e-05
-0.077588
0.00667186
0.961376
2.01067e-06
-0.0319579
-0.0917401
-1.00889e-05
-0.000665317
1.90328e-06
-0.000123174
1.69738e-06
-0.0113763
2.2733e-06
-7.62947e-06
-0.0409326
-0.101164
5.11164e-07
0.0243948
-1.42453e-05
-1.06547e-06
-1.62852e-06
1.4311e-06
-3.78847e-06
-0.20851
-0.0719272
-2.82755e-06
0.893698
-1.43255e-05
0.00265186
1.01031
0.000523281
-7.93549e-05
0.000114327
-1.46484e-07
-0.018914
-0.000395151
0.0314203
-3.73789e-06
-0.004495
0.347793
0.00315758
-1.76572
-0.0718421
-2.8231e-07
0.0164301
0.00338669
-0.0134878
-0.00198624
-3.42469e-06
-0.216972
0.0309154
2.82625e-06
-0.4273
3.46595e-07
-0.015162
-0.023691
0.195468
-0.0237996
-0.000577356
-0.0435729
-5.07938e-06
2.91867e-06
-0.00456184
-7.00564e-06
-8.71829e-06
-7.59214e-06
-2.04243e-05
-3.27291e-06
-1.15309e-06
4.14517e-06
0.000421258
-7.57452e-06
-0.000157324
-1.83525e-07
0.00794914
0.0190197
-6.05488e-06
-0.020156
6.36876e-06
-2.43759e-06
0.00380091
0.00169963
-3.99866e-05
1.03495e-06
1.50529
7.15546e-05
-0.0502524
5.24751e-05
-0.0143937
-8.03982e-07
-5.43537e-07
0.00133425
0.00105148
2.75566e-05
-0.000820863
9.01215e-08
-0.157487
5.38104e-07
5.76439e-07
-0.00361518
-0.000105906
-0.0088524
-0.0996576
0.0154114
2.50367
0.000492285
0.164373
1.15807e-06
-1.43277e-06
0.00166238
0.00540086
-0.00648845
-0.0179773
0.00822253
-0.000422482
2.59535e-07
-0.000262968
0.0278245
-0.00194735
1.83412e-06
0.00027661
-0.00803632
-0.00333291
-6.1743e-06
-4.95294e-06
0.0493918
0.00569072
-1.31584
-0.197115
5.11738e-05
-0.0122855
-3.39265e-06
0.00420659
0.0477876
-6.61158e-06
-0.0073508
-0.0858959
-0.00395592
0.59921
2.87312e-06
-2.444e-06
-5.71795e-07
-0.0324066
-0.0190671
-2.94301e-05
-0.0280119
-0.00541789
-3.14726e-06
-1.5202e-06
-0.813783
0.00290903
0.0549858
-0.0828277
-0.0287699
-5.40035e-05
-0.225361
-0.0055256
-0.000357445
0.0118209
0.000240861
0.299742
1.09354e-07
0.00928619
0.0108564
-2.05684e-05
1.46949
0.000158681
-0.00507862
4.24686e-05
0.0223789
-3.49091e-06
-0.0616808
-0.000266922
2.0718e-07
-4.13164e-06
-1.0661e-06
9.25402e-06
-2.87187e-06
-3.30019e-07
-0.000251986
-7.20268e-06
-3.81769e-06
-0.022352
-0.00228994
4.2345e-07
0.00300721
-1.19985e-05