/*--------------------------------*- C++ -*----------------------------------*\
| =========                 |                                                 |
| \\      /  F ield         | OpenFOAM: The Open Source CFD Toolbox           |
|  \\    /   O peration     | Version:  v2012                                 |
|   \\  /    A nd           | Website:  www.openfoam.com                      |
|    \\/     M anipulation  |                                                 |
\*---------------------------------------------------------------------------*/
FoamFile
{
    version     2.0;
    format      ascii;
    class       volScalarField;
    location    "200";
    object      k;
}
// * * * * * * * * * * * * * * * * * * * * * * * * * * * * * * * * * * * * * //

dimensions      [0 2 -2 0 0 0 0];


internalField   nonuniform List<scalar> 
13917
(
0.0185597
0.000195331
0.000213558
0.000150569
0.000175921
0.000192889
0.000159577
0.000237686
0.000157245
0.00472266
0.000253683
0.000148462
0.000162565
0.00028349
0.000164807
0.0150968
0.000148069
0.000224647
0.000194548
0.0134372
0.000169637
0.000148197
0.000174701
0.000148152
0.000153901
0.000172981
0.0404779
0.0036201
0.000188891
0.00013596
0.00312463
0.000181288
0.000150832
0.0299413
0.000145567
0.00022959
0.000156628
0.000161509
0.000159747
0.000170273
0.000149285
0.000145943
0.000154752
0.000191032
0.00019072
0.000256857
0.000167988
0.0127048
0.00643614
0.000145593
0.000148214
0.000205423
0.00869569
0.000148018
0.00014854
0.000204417
0.000571025
0.000174842
0.000145637
0.000264096
0.0171753
0.000121272
0.000141948
0.000153474
0.0264118
0.000645979
0.00019682
0.000239684
0.000232258
0.0178582
0.014361
0.0278567
0.000147897
0.00014525
0.000170431
0.000155258
0.000158631
0.000144348
0.000154819
0.000151103
0.000150441
0.000148634
0.000147739
0.0163589
0.000141638
0.000294021
0.000180544
0.000144569
0.000169521
0.000146884
0.000138556
0.000155056
0.00434579
0.000143664
0.000150777
0.00019299
0.0367807
0.0001505
0.000143463
0.00045255
0.000145587
0.000144482
0.00015074
0.000143971
0.000158058
0.014234
0.0263433
5.49996e-05
0.000145457
0.0331212
0.000144231
0.0309705
0.000186179
0.0139518
0.025657
0.000156254
0.000193358
0.000139838
0.000198272
0.000146775
0.000147179
0.000143054
0.000201148
0.000193681
0.0192696
0.0205891
0.00015294
0.00017196
0.000143898
0.000194281
0.000165237
0.000248321
0.0399475
0.00015625
0.000184709
0.0293164
0.015635
0.0201285
0.000176386
0.000159042
0.00065765
0.00014328
0.0127805
0.000143443
0.000147196
0.000161997
0.0140462
0.00187708
0.0149097
0.000148312
0.000167703
0.000142998
0.000146933
0.000146814
0.0371479
0.000150765
0.000143054
0.0406234
0.000145999
0.000141366
0.000142097
0.0246842
0.000161358
0.00112885
0.022343
0.0108872
0.00780847
0.0191899
0.000130386
0.00017835
0.000148855
0.0390722
0.000157165
0.0136481
0.000192244
0.000143974
0.00015054
0.000211145
0.000164705
0.000162537
0.0001545
0.000148406
0.000148252
0.000225883
0.000197501
0.000517411
0.000148014
0.000222273
0.000135723
0.000239399
0.000192924
0.000189645
0.000207831
0.01864
0.00014368
0.0197529
0.000158725
0.0389584
0.000145213
0.000149991
0.000165421
0.0176371
0.0174473
0.000155551
0.0451345
0.000177925
0.000168251
0.000143233
0.000208161
0.000150471
0.00014082
0.000197138
0.00021567
0.0140683
0.000184168
0.000174671
0.0320666
0.000151839
0.000137217
0.000137132
0.0167169
0.000207155
0.00025286
0.000143444
0.000144431
0.0234789
0.0168731
0.000136478
0.000136296
0.000149392
0.0001375
0.000137424
0.0262553
0.0156404
0.000148988
0.000131229
0.00019161
0.0260616
0.000146103
0.000143342
0.0422424
0.0131147
0.000201805
0.0328126
0.000205394
0.000143496
0.0212205
0.000192692
0.000183359
0.000185727
0.000154903
0.01369
0.00014702
0.0001741
0.000188428
0.00014949
0.000149943
0.000153326
0.000171712
0.00014577
0.0250143
0.0139572
0.000143134
0.000136205
0.000151522
0.000136263
0.000147044
0.000161175
0.000170676
0.000143675
0.0237581
0.0279178
0.00014607
0.000161447
0.000291765
0.00013659
0.000227324
0.028002
0.000136643
0.0215454
0.000145225
0.0228357
0.000145447
0.000160061
0.000149811
0.000143241
0.000201745
0.000152956
0.0243495
0.000161951
0.0140246
0.000153397
0.0361549
0.0196462
0.000142333
0.000178697
0.000170913
0.000157044
0.000172766
0.00015461
0.000144155
0.00015023
0.000213772
0.000186333
0.000173123
0.000154238
0.000143163
0.0403135
0.0152846
0.000143243
0.000200312
0.000156963
0.00579959
0.000192121
0.0295737
0.013006
0.000684882
0.000250022
0.000159754
0.0130642
0.00532849
0.000213046
0.000160423
0.000163245
0.0438698
0.000149932
0.000201688
0.000189252
0.000147777
0.038845
0.000141664
0.000170918
0.000138887
0.00530152
0.000139466
0.000171322
0.000178685
0.00054154
0.000145346
0.000185789
0.0110712
0.000150386
0.000149919
0.0330362
0.0114369
0.00829982
0.000136223
0.000136291
0.000148817
0.0137107
0.000239802
0.000136395
0.000174546
0.000148035
0.000184557
0.000172221
0.000199831
0.000207897
0.000231381
0.000170667
0.026337
0.000144266
0.000150396
0.000184186
0.000202105
0.000147511
0.0163406
0.000170321
0.00318325
0.00014883
0.000228693
0.000180466
0.00141626
0.000146071
0.000238896
0.000269202
0.000181601
0.00014634
0.00152989
0.000140463
0.021786
0.000206447
0.000146248
0.00275246
0.000151207
0.00172645
0.000139808
0.0157767
0.00157545
0.000155278
0.0209699
0.000212587
0.000153751
0.0199765
0.000202239
0.000154096
0.000203856
0.000148357
0.000217084
0.000208543
0.000141628
0.000158513
0.000154097
0.000142949
0.000140491
0.000144642
0.0170846
0.00651001
0.000149579
0.000145153
0.000147247
0.000179568
0.00127492
0.000137642
0.000130434
0.000191705
0.000227483
0.000143555
0.000154802
0.00529956
0.0293141
0.00119794
0.000194405
0.00733668
0.000140975
0.000137198
0.000167506
0.000140418
0.000137709
0.0001493
0.000137267
0.000140629
0.0197246
0.000148647
0.000172047
0.0258025
0.000178996
0.00014106
0.0001467
0.0204412
0.000166098
0.0165204
0.000138733
0.000143578
0.00014074
0.000137804
0.000156199
0.000151945
0.00372744
0.000243385
0.0159248
0.000143526
0.000167954
0.000196889
0.000150115
0.000203268
0.00770781
0.000147778
0.0253359
0.000141385
0.000142095
0.000146873
0.000151167
0.000140362
0.000147892
0.0403512
0.0162585
0.000140154
0.0354365
0.000191291
0.00014737
0.00018136
0.000182173
0.0236073
0.000159665
0.0156252
0.00310409
0.00328108
0.00015187
0.00046977
0.000206347
0.000154358
0.000976596
0.000139601
0.000147685
0.000150786
0.00015795
0.000167705
0.000198887
0.00017772
0.000179217
0.000165258
0.000211649
0.000182003
0.000149518
0.000684079
0.000169698
0.000161805
0.0202699
0.000141593
0.000183894
0.000214427
0.000139597
0.0393435
0.000143026
0.000137745
0.000180163
0.000138802
0.000149593
0.000211681
0.0414287
0.0162022
0.00014203
0.000151145
0.000176999
0.000114816
6.9361e-05
0.000149013
0.00014829
0.000141796
0.00018478
0.00302914
0.000144488
0.000146136
0.000149438
0.000142661
0.000166168
0.000162138
0.000141403
0.000178063
0.000139495
0.000147509
0.000153727
0.0300157
0.000135998
0.000154449
0.000145701
0.000167212
0.000185763
0.000191366
0.000190194
0.000983718
0.000153079
0.000208733
0.0378077
0.0197095
0.0289634
0.00014263
0.000146548
0.000149553
0.000144705
0.0274353
0.000136997
0.00673467
0.000158623
0.0328877
0.000230159
0.000154781
0.0176966
0.000140135
0.000179549
0.000148813
0.000150299
0.0351095
0.000138093
0.000201141
0.000144915
0.000152329
0.00014692
0.000199318
0.000168077
0.000135891
0.000190759
0.000180997
0.00993725
0.0091882
0.0401447
0.0233103
0.000135997
0.0178519
0.000137729
0.0153988
0.00282915
0.000150325
0.00014632
0.000144666
0.000169102
0.000154187
0.000138137
0.000148914
0.000161055
0.00545401
0.000142527
0.000178905
0.000147401
0.000135757
0.00014463
0.000230103
0.0109529
0.0149649
0.00018443
0.000161772
5.75492e-06
0.0272935
0.000140166
0.00348218
0.000159837
0.000187971
0.000144705
0.00125183
0.000142434
0.000167291
0.000147437
0.0103073
0.000170376
0.0290303
0.000141796
0.000169418
0.000145598
0.000146513
0.0277174
0.00628113
0.000146473
0.000201468
0.000143267
0.000148278
0.000145015
0.0300511
0.000142552
0.000173691
0.000136938
0.000146031
0.000203986
0.000144122
0.0001985
0.000149468
0.000139572
0.0172217
0.000179551
0.00014867
0.00896808
0.000202251
0.00347964
0.000218682
0.000139941
0.000167088
0.0279184
0.000211948
0.000166077
0.000156467
0.000169606
0.000148116
0.000144521
0.00113611
0.000188101
0.000157422
0.0205076
0.00017077
0.0087791
0.000197951
0.000167826
0.000170266
0.000204955
0.0232647
0.000144148
0.000175962
0.00132784
0.000139624
0.00014324
0.000144633
0.000173974
0.000149456
0.0182751
0.000166775
0.000141237
0.000188333
0.000141016
0.0309261
0.000145284
0.00014395
0.0410478
0.000183683
0.00378934
0.000148401
0.000143298
0.000143793
0.000150033
0.000161663
0.000143304
0.0183523
0.000164218
0.00469375
0.00367538
0.000186322
0.0400092
0.000151206
0.000148271
0.000145946
0.0295393
0.0173411
0.000159258
0.0186153
0.00284572
0.000139588
0.00014361
0.000156399
0.014066
0.00424123
0.000171078
0.000149863
0.000154507
0.000188547
0.000157618
0.000198281
0.000167182
0.000150424
0.000151202
0.000148566
0.00016134
0.000165749
0.000208081
0.00015801
0.000153566
0.0181598
0.000144604
0.00437593
0.000155818
0.000178803
0.000158217
0.00020334
0.000147028
0.000177823
0.00943057
0.00282499
0.000144938
0.000157851
0.000155747
0.000143775
0.00014716
0.000170483
0.000240209
0.000223283
0.000199182
0.000139718
0.000243406
0.000157247
0.00015804
0.000201733
0.000149174
0.000179786
0.037203
0.000135666
0.000183682
0.000198698
0.000166845
0.0001426
0.000140588
0.00014446
0.0155607
0.000150637
0.000146003
0.000170311
0.000143607
0.000141655
0.000203252
0.0283571
0.000194072
0.0301
0.000181866
0.0138037
0.000147165
0.000160076
5.29314e-05
0.00015092
0.00112684
0.000146042
0.000143072
0.000148303
0.000158945
0.000193338
0.000142524
0.00142076
0.000148468
0.00437577
0.000155778
0.000159438
0.000138908
0.000186114
0.000161395
0.0181685
0.000200146
0.000148916
0.0295678
0.000151488
0.0235675
0.00015375
0.000184335
0.000155861
0.000142001
0.000144744
0.0380016
0.000161297
0.00405299
0.0271491
0.000143674
0.000167218
0.000131062
0.000188547
0.00458017
0.000131356
0.0212209
0.000154613
0.000161007
0.000192888
0.00696961
0.000137229
0.00014262
0.00021156
0.00013992
0.000147775
0.000153426
0.000146222
0.000170532
0.00013707
0.000275268
0.000150426
0.0177279
0.0231897
0.00124959
0.0166446
0.0247805
0.0160808
0.00622457
0.000139122
0.000147023
0.000146371
0.000151638
0.000141873
0.000161601
0.000143221
0.000537193
0.000148065
0.00112151
0.000150319
0.000163516
0.000208332
0.000143132
0.000171686
0.000151524
0.000150544
0.000158556
0.000140229
0.0400425
0.000189367
0.0017484
0.000143293
0.000144788
0.000149258
0.000148945
0.0207771
0.000139299
0.00574037
0.000142212
0.0031507
0.000158654
0.000143331
0.000178641
6.90873e-05
0.000139424
0.00329537
0.00287543
0.00015665
0.000186077
0.000139874
8.53498e-05
0.000141085
0.000148927
0.0236617
0.000144913
0.00015086
0.000188091
0.0221139
0.00014771
0.00387261
0.000128727
0.000145907
0.000153696
0.000146586
0.00480215
0.000144531
0.00019201
0.000147678
0.039949
0.000160092
0.00389799
0.000145092
0.000136476
0.00199034
0.000153727
0.000140599
0.035464
0.000153302
0.00014048
0.00618645
0.000146284
0.000146243
0.000187287
0.000153718
0.0284785
0.000170767
0.000182488
0.000220316
0.000154279
0.0394309
0.000151267
0.000185387
0.000143962
0.0261329
0.00336508
0.000148743
0.000141792
0.000148039
0.000149029
0.000138682
0.000141134
0.000143414
0.000144599
0.000162819
0.000135539
0.000152748
0.000183672
0.0230856
0.0209019
0.000187032
0.000149247
0.00238915
0.000142686
8.6683e-05
0.00322632
0.00603795
0.000137426
0.000139242
0.000145229
0.00014733
0.000137193
0.000141153
0.000143141
0.000171235
0.000140542
0.00846258
0.00633799
0.000141087
0.0371785
0.000144081
0.000144669
8.5565e-05
0.0310494
0.000185888
0.000143099
0.0041845
0.000144586
0.000144773
0.000193678
0.000147972
0.0324704
0.000151151
0.000695451
0.00014106
0.000143304
0.000165754
0.00625333
0.00015278
0.0297425
9.08055e-05
0.000154165
0.000154578
0.000144837
0.000140367
0.000186286
0.000166067
0.000157136
0.0320111
0.00940455
0.00576262
0.000187112
0.000143074
0.0307531
0.000142994
0.00876419
0.000186383
0.000158698
0.00015228
0.00840175
0.0127554
0.000173482
0.000141663
0.00646989
0.0001387
0.000143243
0.000166931
0.000150092
0.000147416
0.000435751
0.0217337
0.000143367
0.000159502
0.0257482
0.000143786
0.000136381
0.00759259
0.0313706
0.000151275
0.000138802
0.000159084
0.00014649
0.00014443
0.000170934
0.000160199
0.000146119
0.00623192
0.000148019
0.00193846
0.00363515
0.000119631
0.0266903
0.000148613
0.000150112
0.000339684
0.0219642
0.00118438
0.000183476
0.000168177
0.000149317
0.000151261
0.000146799
0.0179731
0.000206602
0.000150631
0.000177633
0.000143145
0.00287103
0.000186458
0.000190209
0.000177247
0.000241176
0.00422124
0.00157185
0.0374507
0.000161568
0.000219204
0.000136621
0.000184086
0.000192551
0.00485409
0.000156108
0.000149983
0.000157761
0.00439897
0.000153687
0.0209242
0.000168475
0.000200636
0.012081
0.000142143
0.000187295
0.000154573
0.00014764
0.00018221
0.00151085
0.000137565
0.000139272
0.000152427
0.00413241
0.000140527
0.000153452
0.000154123
0.000151247
0.000146596
0.000205938
0.000180754
0.000150599
0.000142973
0.000205294
0.000300163
0.000185317
0.0401551
0.000148784
0.000144391
0.0192108
0.000145979
0.000154006
0.0377209
0.028028
0.000168864
0.000184625
0.000161325
0.0147607
0.00160612
0.000166622
0.0106508
0.00014409
0.000191914
0.0238256
0.000197993
0.00372747
0.00212358
0.000140423
0.000147182
0.000161673
0.00014685
0.00014782
0.000211985
0.000144799
0.000175591
0.000137474
0.000176617
0.0226001
0.000153934
0.000230436
0.0272634
0.000144465
0.000182774
0.000161163
0.000152869
0.000143832
0.0301221
0.000183947
0.0234451
0.000160852
0.0207353
0.00020064
0.00014283
0.00017743
0.000168773
0.000121956
0.000143562
0.000250487
0.00014387
0.000158752
0.000172005
0.000159575
0.000149466
0.000178492
0.00235172
0.000142248
0.000231812
0.00139853
0.000147806
0.000142472
0.000168176
0.000351234
0.000104426
0.000141371
0.000162774
0.000153379
0.00644091
0.0169181
0.000147063
0.000139474
0.000140398
0.00014486
0.000165694
0.000155921
0.000492126
0.000149448
0.000155567
0.00186798
0.0001987
0.000186807
0.0308868
0.0203672
0.000148568
0.000144514
0.000139525
0.000152365
0.000180791
0.0380892
0.00149366
0.000210867
0.000165439
0.000176193
0.000153866
6.66554e-05
0.000158371
0.000190205
0.000143676
0.000235292
8.29882e-05
0.000140389
0.000148142
0.0353461
0.000178063
0.001461
0.0226225
0.000212859
0.000143748
0.00027591
0.000157666
0.000141938
0.0058783
0.00506842
0.00014375
0.000170237
0.000192526
0.000166274
0.000150712
0.000136939
0.000142646
0.00014083
0.000143647
0.000163307
0.000179003
0.0220845
0.000166781
0.000158021
0.0001643
0.000198937
0.000142665
0.000168395
0.000240141
0.000196943
0.0264085
0.000152773
0.000136841
0.0272959
0.000140075
0.00101755
0.000152583
0.000172295
0.000149281
0.000140516
0.00019316
0.000158714
0.000152385
0.000144667
0.0406479
9.37576e-05
0.026889
0.000147969
0.000147017
0.00169367
0.000141806
0.000141258
0.000238951
0.00456302
0.000159925
0.000166872
0.000150443
0.00509721
0.000142703
0.000155165
0.000149441
0.000136663
0.000200361
0.00014273
0.000140599
0.00301431
0.000177781
0.035739
0.000197825
0.000142236
0.000163322
0.000141651
0.00014343
0.000154983
0.000149648
0.000147466
0.000204028
0.000146919
0.000189958
0.000176085
0.00014892
0.000146718
0.000149211
0.000144193
0.0306204
0.000137428
0.00937766
0.000182642
0.000152863
0.00017725
0.000166602
0.000163634
0.000146675
0.000193014
0.000140975
0.000140404
0.00308023
0.000182542
0.000125408
0.000142781
0.000144939
0.000143597
0.000213049
0.000143072
0.0319137
0.000175931
0.00014373
0.000142964
0.000139002
0.000176233
0.000424214
0.0199391
0.00117611
0.00300538
0.00016262
0.000203622
0.000154828
0.0164468
0.000137441
0.000137085
0.000157065
0.00244327
0.000139237
0.0339201
0.000147375
0.000143272
0.000240008
0.000260858
0.0157062
0.00183465
0.00015787
0.000231702
0.000140794
0.000140937
0.0182536
0.000144146
0.000144068
0.00115408
0.000138293
0.0351497
0.000613998
0.000142017
0.000144771
0.000141195
0.0389191
0.000146074
0.000136936
0.000183957
0.000142298
0.000141371
0.000149385
0.000140999
0.000172712
0.0001479
0.000157414
0.000138751
0.0420278
0.00252741
0.00013894
0.000139063
0.00015102
0.000142787
0.000154692
0.000148379
0.000144857
0.000148096
0.000143115
0.000151843
0.000146022
0.000203189
0.000139024
0.000186787
0.000147659
0.000203769
0.000141035
0.000147256
0.000143236
0.000137819
0.000168245
0.000158707
0.000156715
0.0338489
0.000557038
0.0402728
0.031981
0.000186222
0.0171464
0.000147381
0.000145722
0.0409127
0.0061474
0.000143968
0.0265962
0.000139781
0.000189751
0.00147179
0.000154329
0.0001893
0.00379942
0.0168898
0.000142942
0.000173528
0.000141287
0.00221744
0.000155351
0.0374583
0.0140208
0.000148135
0.0017914
0.0174052
0.000148658
0.000137181
0.00280337
0.000153892
0.000140397
0.00183628
0.0287331
0.000140931
0.000164621
0.000149
0.0313754
0.000214075
0.000147059
0.0001414
0.000499422
0.000143089
0.00014449
0.000150055
0.000139465
0.000137583
0.000163639
0.000161612
0.032156
0.00014368
0.000185613
0.000147746
0.00183779
0.000182315
0.00259841
0.000140711
0.000160188
0.000140699
0.000145304
0.000154417
0.000146376
0.000453078
0.000152402
0.000139895
0.000142314
0.00278153
0.000140444
0.00706442
0.000865031
0.00477202
0.000146702
0.000142038
0.000142803
0.00534597
0.000148715
0.00674412
0.000143828
0.0299697
0.00015356
0.000151243
0.000158795
0.000147509
0.000146647
0.0276327
0.000193568
0.0338101
0.000147361
0.0314379
0.0235787
0.000147054
0.0292672
0.000148011
0.000157459
0.0211062
0.000154208
0.000183488
0.0232144
0.000167308
0.00018236
0.000146458
0.00283532
0.000144395
0.00638954
0.000142771
0.021244
0.000144578
0.000144526
0.000154676
0.00600409
0.000142349
0.000384924
0.000188345
0.00718609
0.000143298
0.000164333
0.03766
0.000851662
0.000236762
0.000191695
0.000141054
0.000196896
0.0225788
0.000156124
0.000306072
0.000136803
0.00020748
0.0170918
0.00014277
0.0172194
0.000143077
0.0276102
0.000190126
0.000155122
0.000155879
0.00597124
0.00610197
0.000144468
0.000152359
0.000139654
0.000147232
0.0226401
0.00018783
0.000204266
0.000147218
0.000160337
0.0357645
0.000279572
0.00419241
0.000567508
0.000141786
0.000143865
0.000200782
0.0036855
0.00264597
0.0027653
0.00020427
0.000170052
0.000206498
0.0358099
0.0225515
0.00334348
0.000140274
0.000190335
0.000175606
0.000192273
0.000145526
0.000157918
0.00018532
0.000212022
0.00367779
0.000145712
0.000326312
0.0314112
0.000179746
0.000144174
0.000144259
0.0077074
0.00014248
0.0406607
0.000161045
0.000138114
0.000233172
0.000293141
0.00013888
0.00016922
0.000162756
0.00014579
0.0367442
0.000189594
0.0395366
0.00014289
0.0309588
0.000111562
0.00020041
0.000137771
0.000159455
0.000168308
0.000189007
0.000211504
0.000182534
0.0232174
0.0131002
0.000131853
0.000158196
0.000148945
0.000199409
0.0167627
0.000139698
0.00013856
0.000152394
0.000390572
0.00026839
0.000143234
0.000177648
0.000237257
0.000140465
0.000296583
0.000156049
0.0392787
0.000160084
0.00212346
0.00724251
0.000161294
0.000157303
0.000293679
0.000142431
0.000181883
0.0273577
0.000163783
0.000209902
0.000163853
0.000177505
0.00218874
0.030793
0.000146245
0.000368454
0.00744581
0.000138304
0.00019212
0.000185268
0.000218557
0.00037145
0.0203984
0.00161209
0.000201055
0.0276479
0.000159761
0.000179664
0.000138066
0.00014816
0.000146416
0.000140802
0.000175204
0.000262135
0.000137515
0.000199666
0.000198488
0.000142255
0.00487738
0.028524
0.000136707
0.000148425
0.000139675
0.000151755
0.000172358
0.000144366
0.0206222
0.000162516
0.000188984
0.000160122
0.000190778
0.000208482
0.00017501
0.000336746
0.000145802
0.000152242
0.000137243
0.000142347
0.0364172
0.000186387
0.000163732
0.0201982
0.000147593
0.0001497
0.000170189
0.000140081
0.000143447
0.000195948
0.000157369
0.0262307
0.0415389
0.013494
0.00014654
0.0166485
0.000143301
0.000155626
0.000138695
0.000195369
0.0040567
0.000142967
0.000284312
0.0254
0.000167385
0.000149617
0.000140459
0.000161232
0.00499601
0.000139234
0.000148571
0.000151027
0.000162681
0.000199832
0.000152262
0.000157956
0.00014145
0.000151547
0.000345019
0.000167413
0.000154448
0.000198846
0.00645847
0.037671
0.0031989
0.000155593
0.000151179
0.0271538
0.000145838
0.000182307
0.000147003
0.0225216
0.000149196
0.000148863
0.000188937
0.0207081
0.000143842
0.000140726
0.000137291
0.000194907
0.00942137
0.000208174
0.000144441
0.00015487
0.000140576
0.0316128
0.000144731
0.00344048
0.000177075
0.000147566
0.000231145
0.000176389
0.00238559
0.000149629
0.000141266
0.000163458
0.000181292
0.000236816
0.000148124
0.000149425
0.000148533
0.0327929
0.000145101
0.000150487
0.0300783
0.000153716
0.000192149
0.000155984
0.000143558
0.000144623
0.00198942
0.00015355
0.00626376
0.00279046
0.000134451
0.0160553
0.000149248
0.000199991
0.000178107
0.000150958
0.000138196
0.000134198
0.000144278
0.00082978
0.00017356
0.0302205
0.0296192
0.000141192
0.000250404
0.000169368
0.000653107
0.000144475
0.000599653
0.0322722
0.0176149
0.000142186
0.000152834
0.000149827
0.00658045
0.0362991
0.000136326
0.000144617
0.000163554
0.0198529
0.000147651
0.00015299
0.000152977
0.000188825
9.55663e-05
0.000137551
0.0227122
0.000163865
0.000144058
0.00232979
0.000177208
0.02248
0.00305393
0.000166497
0.000158564
0.000151824
0.000161686
0.000150126
0.000226331
0.00017613
0.000144808
0.000155662
0.000235704
0.0234371
0.000139046
0.000209273
0.0163502
0.0344456
0.000145438
0.000146489
0.00304558
0.00840589
0.00132858
0.000143712
0.0304557
0.000180239
0.000135284
0.0217929
0.000160498
0.000148152
0.000247623
0.000146228
0.000168478
0.000141727
0.000133188
0.000147061
0.000137264
0.0258946
0.000137429
0.000141111
0.000188404
0.000156433
0.000157018
0.000194109
0.000146812
0.000144507
0.000153082
0.000151612
0.00279733
0.00296757
6.70956e-05
0.000283874
0.00016919
0.00413108
0.000233911
0.0305642
0.0291938
0.0253567
0.000140862
0.000167808
0.000144673
0.000147082
0.000142843
0.000149352
0.000202948
0.000178803
0.000172935
0.000142038
0.000143922
0.000176134
0.000148534
0.000149167
0.000146907
0.0332442
0.000164293
0.0141803
0.000146334
0.00303424
0.000149746
0.000148398
0.000150166
0.000171725
0.000141997
0.000193113
0.0311204
0.000172112
0.0264336
0.00167214
0.000157185
0.000160259
0.00397696
0.000206442
0.000138488
0.000142492
0.000134443
0.0301551
0.000133135
0.000202305
9.20873e-05
0.000190755
0.000385909
0.000440601
0.000181746
0.0374007
0.000140868
0.000136433
0.00229516
0.00547099
0.000145242
0.000146439
0.00520827
0.000140152
0.000218193
0.00015331
0.000143141
0.000158582
0.000145849
0.000189017
0.031021
0.0274675
0.000156275
0.000144108
0.000200048
0.000151924
0.000196126
0.000140613
0.000193027
0.000185811
0.000149135
0.000147829
0.000134998
0.00023436
0.00021233
0.000199321
5.91477e-05
0.000162868
0.0144706
0.00018327
0.000188143
0.0259218
0.00014346
0.0296294
0.000151198
0.0329151
0.00011753
0.0286827
0.0252474
0.000149153
0.000181563
0.00230937
0.000146342
0.0229196
0.000146504
0.000145873
0.000157875
0.000150102
0.000163666
0.000241621
8.84168e-05
0.020142
0.000158092
0.000171511
0.000152038
0.000148049
0.000147397
0.000217833
0.000186656
0.00659691
0.000175395
0.000137818
0.000139691
0.000149768
0.000199825
0.000156323
0.000151148
0.000157245
0.000216718
0.000164458
0.000180072
0.000218626
0.0302643
0.000162326
0.00016543
0.000144507
0.000158024
0.000291506
0.001595
0.00017686
0.000140096
0.00218676
0.000166119
0.000143387
0.000177235
0.0337218
0.00170774
0.000167463
0.000140121
0.0203061
0.000149452
0.00014053
0.000138201
0.004893
0.000856179
0.000157159
8.06978e-05
0.0183164
0.000163228
0.000208596
0.000185623
0.0399547
0.000163604
0.0358226
0.000149526
0.0002257
0.000144162
0.0335695
0.00016664
0.000141653
0.036149
0.000144838
0.000151275
0.0245113
0.00631388
0.00334946
0.000322264
0.000155486
0.000151985
0.00486604
0.00014333
0.000142354
0.00014618
0.00017597
0.000144303
0.000170846
0.000164245
0.000541567
0.00157107
0.000150385
0.0231347
0.000162056
0.0339933
0.0270982
0.00014603
0.00014826
0.000157223
0.0137473
0.000202728
0.000187167
0.0329775
0.025151
0.00553542
0.000151175
0.00378222
0.0250677
0.000210271
0.000312752
0.000147537
0.000145538
0.000146126
0.000151417
0.000142478
0.00016585
0.0276467
0.000170948
0.00295428
0.0143138
0.000803809
0.0110424
0.0377532
0.000161697
0.0372799
0.000196784
0.000183462
0.000138363
0.000146684
0.000183072
0.0236956
0.000151487
0.0148003
0.03715
0.000141433
0.000146842
0.000146707
0.000208986
0.000149806
0.000189189
0.0304867
0.000138814
0.000143718
0.000141072
0.000150898
0.000187431
0.0299285
0.000172193
0.0103474
0.000208928
0.00014246
0.00293145
0.000234507
0.000146492
8.72707e-05
0.000902116
0.00451279
0.000367077
0.0259668
0.000145889
0.00650983
0.0311
0.000225863
0.0147916
0.000142759
0.000154139
0.000155305
0.000153627
0.0231464
0.000187371
0.000148066
0.000159889
0.00348045
0.030584
0.000150295
0.000153289
0.0408188
0.0373046
0.000147967
0.000161604
0.000202184
0.000143342
0.000143997
0.00941044
0.00014221
0.000204811
0.00297241
0.0248922
0.000141806
0.000194311
0.000199881
0.000143082
0.000136074
0.0399195
0.00116912
0.000148481
0.000176076
0.000213028
0.00019812
0.0387695
0.000116129
0.000158143
0.0028543
0.00424308
0.000167572
0.000141624
0.000270947
0.000136846
0.000137105
0.0257954
0.000169496
0.000198823
0.000155564
0.000159026
0.000142453
0.000137752
0.000150193
0.00015097
0.00113138
0.00015522
0.000194648
0.0184225
0.000174461
0.000186205
0.00477917
0.0323086
0.000966027
0.000140147
0.000156269
0.000168332
0.000157787
0.000219566
0.00334695
0.000150094
0.000134541
0.0292088
0.000159714
0.000187138
0.000187503
0.000188557
0.000189845
0.000152079
0.000191242
0.000192259
0.000194519
0.000196956
0.000189489
0.000190155
0.000167918
0.000140896
0.00016613
0.000187465
0.000142044
0.000254914
0.0383618
0.000225304
0.0355258
0.000135657
0.000140191
0.000116196
0.0150692
0.000150706
0.000155689
0.000179027
0.019584
0.00499262
0.00014643
0.000169754
0.000157038
0.020028
0.00351237
0.000155028
0.000109474
0.0307563
0.000191002
0.0361211
0.000197548
0.000762771
0.038478
0.000130459
0.0347987
0.0327326
0.000151751
0.000191202
0.000205954
0.000157343
0.000141668
0.0220161
0.0104885
0.000142046
0.000142452
0.00233182
0.00041833
0.000196682
0.000148392
0.000232405
0.000203524
0.0370567
0.026296
0.000146564
0.000143727
0.000150495
0.000154352
0.033525
0.00376321
0.0289929
0.000186022
0.000164802
0.00284612
0.000154225
0.000140164
0.0303817
0.000142389
0.0362037
0.000142806
0.0370137
0.000151578
0.000151007
0.00368178
0.000144453
0.000191243
0.00722808
0.000160714
0.000154236
0.000151876
0.000201205
0.0261916
0.000229905
0.0355886
0.000164241
0.000153115
0.000160402
0.000194941
0.0364773
0.0192158
0.000207462
0.000198284
0.000192872
0.0089103
0.000147411
0.000142133
0.000138999
0.000138503
0.000185352
0.000225112
0.00263805
0.000171298
0.000196197
0.000142964
0.00296924
0.000142269
0.0192485
0.000144344
0.000152471
0.000133361
0.0330305
0.000107127
0.00794596
0.000220139
0.000192467
0.000193841
0.00013471
0.00016942
0.000225317
0.000131657
1.62864e-05
0.000144504
0.000193712
0.000149406
0.000148266
0.000230058
0.00146085
0.000492779
0.000148504
0.000200658
0.000390924
0.0113773
0.0196714
0.0312013
0.0257429
0.000142905
0.000184761
0.000146887
0.000194295
0.000144168
0.000212746
0.000152739
0.000177629
0.00401791
0.00663322
0.000158969
0.000238737
0.0329957
0.000189226
0.000153557
0.0263314
0.000187656
0.000150682
0.000149501
0.0240966
0.000161995
0.00021973
6.65447e-05
0.00104943
0.0216025
0.000157963
0.0205433
0.0310946
0.00155287
0.0207928
0.000164926
0.000190771
0.000190783
0.0289413
0.00163587
0.000150234
0.0006735
0.000162832
0.000238598
0.000161532
0.0213658
0.000404767
0.0019706
0.000158151
0.000764931
0.000155855
0.0276272
0.000219668
0.00278339
0.0158767
0.000140485
0.000133317
0.0294794
0.0342256
0.000183396
0.000149912
0.000171815
0.000168207
0.019162
0.000273757
0.0324588
0.000158822
0.0318846
0.000216072
0.00475412
0.000150046
0.000249908
0.0190267
0.000162779
0.000185026
0.000135276
0.000155527
0.000147074
0.002997
0.000143113
0.00014665
0.0380101
0.00927949
0.000138162
0.0357413
0.000151058
0.000146664
0.000143508
0.000142141
0.000148252
6.42494e-05
0.039416
0.000139242
0.0207539
0.000183132
0.000174131
0.000472245
0.000186249
0.000157983
0.000164489
0.000142912
0.00332363
0.000168514
0.0358374
0.000164687
0.0181669
0.000398662
0.000189851
0.000188196
0.0312569
0.000139411
0.0242753
0.000182217
0.000183496
0.000198351
0.000143593
0.000133119
0.000204151
0.000146549
0.000150793
0.000143696
0.0268326
0.000194422
0.000741654
0.000199602
0.00019857
0.037487
0.000147113
0.000144172
0.000181004
0.000152961
0.000148204
0.000148412
0.0001606
0.000142709
0.000142461
0.00015218
0.000173793
0.000153778
0.000161359
0.000153554
0.000201498
0.000187339
0.000154599
0.0283945
0.000153891
0.000143162
0.000187516
0.000171929
0.000153933
0.000142754
0.0130752
0.000153467
0.0290107
0.000153941
0.00020492
0.000143277
0.000145998
0.000239118
0.0394117
0.000183945
0.000170508
0.000135294
0.0372886
0.000147331
0.000142208
0.000185201
0.000154835
0.000210894
0.0332463
0.000191838
0.000833565
0.000171075
0.0213181
0.0001466
0.000147339
0.000188312
0.00287635
0.000180149
0.000201869
0.0188021
0.000161194
0.000146781
0.000160722
0.000225888
0.00017836
0.000146791
0.000188961
0.000186555
0.000185914
0.000148138
0.000146824
0.000217751
0.00018623
7.31294e-06
0.00393609
0.000154128
0.000185046
0.00014801
0.000172771
8.67847e-05
0.00014815
0.000211661
0.00042352
0.000196254
0.00713664
0.000146069
0.000145686
0.000142701
0.0368002
0.000200217
0.000154668
0.000236852
0.000190193
0.000147806
0.000146132
0.00152118
0.0360501
0.000213986
0.0317202
0.000236339
0.000163256
8.38355e-05
0.000191366
0.000163161
0.000115893
0.000185949
0.000679047
0.000146179
0.000186706
0.000192674
0.000151348