/*--------------------------------*- C++ -*----------------------------------*\
| =========                 |                                                 |
| \\      /  F ield         | OpenFOAM: The Open Source CFD Toolbox           |
|  \\    /   O peration     | Version:  v2012                                 |
|   \\  /    A nd           | Website:  www.openfoam.com                      |
|    \\/     M anipulation  |                                                 |
\*---------------------------------------------------------------------------*/
FoamFile
{
    version     2.0;
    format      ascii;
    class       volScalarField;
    location    "200";
    object      p;
}
// * * * * * * * * * * * * * * * * * * * * * * * * * * * * * * * * * * * * * //

dimensions      [0 2 -2 0 0 0 0];


internalField   nonuniform List<scalar> 
13917
(
-0.0818432
0.0154959
-0.0798637
-0.0165314
0.00709443
0.015007
-0.0260393
0.0155951
-0.0394779
-0.0772581
0.0145467
-0.00913361
-0.00828661
-0.0130429
0.00934929
-0.0819886
0.00105283
0.0133511
-0.0613228
-0.0751514
0.00518985
0.00266575
-0.0358375
0.0027244
-0.0110249
0.00642397
0.0277951
-0.0742103
0.0102983
6.72389e-05
-0.0680453
-0.0562146
-0.0119362
-0.0884915
0.00246481
0.015821
0.000695243
-0.000147161
-0.0274898
0.00449261
0.000582129
0.00134843
-0.0351982
-0.0638065
-0.0627112
0.00117978
0.00480208
-0.249911
-0.000438014
0.00250767
-0.0088849
-0.0158397
-0.0790415
-0.00250414
-0.00322994
-0.0208541
-0.0652773
-0.0339798
0.00136566
0.00762923
-0.0898549
0.00248819
0.000111444
-0.0112548
-0.108103
-0.000160454
0.0118748
0.0177153
0.0134135
-0.0839293
-0.101018
-0.0868831
-0.0169839
0.00136292
0.00516842
-0.00647362
0.00608381
0.00137262
-0.00685567
-0.0118814
0.0018776
0.00115182
-0.0167907
-0.0904971
-0.00436718
-0.000906518
-0.0554412
-0.00419737
0.00406765
0.00103681
0.000995048
-0.0364092
-0.00267788
0.00208367
-0.000660168
0.0107343
-0.0337205
0.00122623
-0.00441184
0.0159082
0.000367386
0.000346022
0.00194677
0.00117978
0.00593953
-0.0729275
-0.135892
0.00187598
0.00134596
0.0218312
-0.00946114
-0.0891811
0.00951795
-0.261772
-0.107536
-0.00455906
-0.0594537
0.000760522
-0.0764232
-0.0166613
0.00116014
0.0013931
0.0118087
-0.0407053
-0.0777868
-0.0908018
-0.0121198
0.00572313
0.00228411
-0.0423456
-0.043412
0.0525491
-0.076632
-0.00398078
-0.058701
0.0103972
-0.0539644
-0.0691531
0.00689195
-2.1138e-05
-0.0198527
0.00136109
-0.0730749
0.000238478
-0.0153592
0.00146124
-0.100223
-0.0196313
-0.22344
-0.00257532
0.00286474
0.000289486
-0.0151731
-0.0170323
-0.03597
0.00426019
0.00118532
-0.0749877
0.000687166
0.000751871
-0.00257388
-0.150145
0.00522736
-0.0208457
-0.17125
0.00666263
-0.0793076
-0.1963
2.80468e-05
0.00751905
0.00320033
-0.0828543
-0.040086
-0.0703309
-0.0012473
0.00050007
-0.0172007
-0.0131947
-0.0430458
0.00568643
-0.0335507
0.00296243
-0.00843402
-0.0493386
-0.0775649
0.0559587
-0.00827008
-0.0450104
8.14921e-05
0.00272088
0.00201943
-0.0610783
-0.0465376
-0.0794104
0.00211708
-0.0788738
-0.0108745
-0.0767416
0.00238466
0.00402371
0.00317067
-0.0846326
-0.0693401
0.00168872
0.0516762
0.0100545
0.00309994
0.00139126
-0.0171835
0.0022199
0.00161566
0.00819696
0.00983158
-0.233553
-0.0581113
0.00669128
-0.130365
-0.00132994
0.00100913
0.000986351
-0.216445
-0.0476523
-0.043551
-0.00909487
9.70614e-05
0.00561482
-0.0795645
0.00102229
0.00101952
0.000610024
0.000983331
0.000963173
-0.0859659
-0.218239
0.00218852
4.77225e-05
-0.0192388
-0.0855122
0.000813684
-0.0088906
0.0446065
-0.0715789
-0.0499986
-0.125616
0.00737681
9.63285e-05
-0.188145
-0.0222311
0.00944485
-0.0487726
0.00114982
-0.216255
-0.0166568
-0.000936231
-0.00431443
0.00268735
0.000569546
-0.0119753
0.00711498
0.0021743
-0.078859
-0.0211651
0.00153876
0.0010295
0.0044898
0.00104932
-0.0169666
-0.00808811
-0.0198934
0.00153593
-0.0666414
-0.142868
-0.00674434
0.00631483
0.0141831
0.000768798
0.0156477
-0.0792
0.00078535
-0.0844532
0.00212559
-0.147593
0.000485602
0.00778815
0.00296174
0.000709194
-0.0647781
0.000495799
0.00133211
-0.00614859
-0.0300824
0.00126938
0.0559506
-0.0663216
0.000812543
-0.0286799
0.00699511
-0.00281132
0.00732603
-0.00759601
0.00207851
0.000584592
-0.00315679
0.00325852
-0.00169404
-0.00789068
-0.00858903
-0.0747346
-0.0842112
0.00218934
0.000532313
-0.00336635
0.0074513
-0.0689198
-0.122747
-0.0711829
0.000140965
0.0458922
0.00603773
-0.0911009
0.00655383
-0.0790281
-0.00849888
0.00892702
0.0372614
0.0038008
0.0171456
-0.0599038
0.000973804
-0.0846531
-0.00427959
-0.0567609
0.000608896
-0.059402
0.000764804
-0.00428879
0.00996282
-0.000123985
0.000983234
-0.0510853
-0.0769053
-0.00142799
0.00385974
-0.0902905
-0.0762659
-0.0977403
-0.00703052
0.000791276
0.0014992
-0.0700845
0.041379
0.00081169
0.00737285
-0.00555667
0.00711082
-0.00352183
-0.0394471
0.0241402
0.0106724
-0.052823
-0.0865649
0.00236709
-0.00189606
0.00779905
-0.0766617
0.00086188
-0.0793089
-0.0532737
-0.00236194
-0.00291089
0.0351931
0.000535841
-0.00751227
0.00133893
-0.0477881
0.00772078
0.0103753
-0.00661852
-0.102025
0.000586855
-0.166266
-0.0497859
0.0013229
-0.00137233
0.00388194
0.000651829
0.00164591
-0.0857513
0.00112735
-0.00166023
0.00856791
0.0111454
0.00063822
-0.144921
-0.0704197
-0.00307361
-0.0648324
0.000610926
0.00736026
-0.0790189
-0.00442267
-0.0322242
-0.00864379
0.000299478
-0.000370761
0.00243946
-0.058793
0.01671
-0.00241573
0.00258905
0.0022503
-0.0200338
0.0198436
0.000666146
3.81644e-05
-0.0683012
0.0357624
0.000766746
-0.00196589
-0.0443417
-0.0751773
-0.000566621
-0.0641471
-0.0895294
0.000933111
0.000688031
0.00498482
-0.000428317
0.000683846
0.00247404
0.000711206
0.000935628
-0.210694
0.000627941
0.00522925
-0.0672866
-0.0252587
0.00166439
-0.0147067
-0.148254
0.00398764
-0.0770407
0.000630534
-0.00856563
0.000584172
0.000957872
0.000546307
0.00430649
-0.0308413
0.00149653
-0.0720685
-0.00825411
-0.038723
0.00196409
0.00208649
0.00355138
-0.0885199
-0.0058054
-0.0530401
0.00168632
-0.000368233
0.00215929
0.00376754
0.00153456
-0.00290935
-0.0755331
-0.088946
0.00150009
0.0600996
-0.0679581
-0.0087378
-0.024341
-0.0658713
-0.16829
-0.0348794
-0.0763652
-0.00276416
-0.00316846
0.00422465
0.000218538
0.0017397
0.00112688
-0.0831909
0.00100199
-0.00285415
-0.00105374
-0.0355362
0.00375027
-0.0744938
-0.0432619
0.00110888
0.00662123
0.0126567
0.0121018
-0.00216455
-0.0163691
-0.0255231
-0.00707143
-0.144514
-0.00445932
0.0139449
-0.013755
0.00027484
-0.0716988
-0.000509895
0.000944377
-0.0210734
0.00064214
-0.00110538
0.00129355
-0.0684766
-0.0081576
-0.00272384
-0.0217145
0.00163627
-0.0611541
0.0379449
-0.00208431
-0.00307867
-0.00274109
-0.00752805
-0.00611822
0.00244072
0.000844328
0.00384782
0.00011114
0.00438137
-0.0150736
0.000976219
-0.0424794
0.000235674
0.00214262
-0.00894453
-0.104359
0.00119152
-0.0263958
0.00220338
-0.038244
-0.0303345
0.00698825
-0.00398934
0.0209985
-0.00754039
0.0125229
-0.0773456
-0.215012
-0.0675714
0.00208455
0.00219675
0.00125429
-0.00817133
-0.104097
0.00076037
-0.0130178
-0.0118741
-0.0848381
0.0191776
-0.0345445
-0.111567
0.00153891
-0.0622188
0.00123342
0.00218472
-0.0840035
0.000646566
-0.0757416
0.000170375
-0.00867066
0.00230378
-0.07331
0.00444598
0.0010695
-0.0650714
-0.0218213
-0.0343495
-0.096843
-0.0735465
-0.169816
0.00119526
-0.0817249
0.000204611
-0.0626323
-0.0191146
0.00222375
0.000892027
0.000350799
-0.024883
-0.0331904
0.000664371
0.00121489
-0.00722149
-0.0948835
-0.00316685
-0.0552316
-0.00275795
0.00105618
0.0007006
-0.000278035
-0.125614
-0.111151
-0.0478124
-0.0160275
-0.0914449
-0.0852618
0.00167319
-0.087108
-0.00757542
-0.0681195
-0.00785172
-0.099488
0.000100581
0.00415469
-0.0158782
-0.0323783
-0.0222236
-0.116014
0.00106934
-0.0203314
0.00262985
0.000340458
-0.0877629
-0.0127302
0.00270915
-0.0417132
-0.00873263
0.0020151
0.000279601
-0.0907135
-0.00340727
0.00741427
0.000744085
0.0026579
-0.0740114
0.000308292
-0.0474704
0.00120102
0.000616187
-0.0777286
-0.0559639
-0.00214659
-0.0667153
-0.074633
0.0216032
-0.00932652
0.00150254
0.00997218
-0.099672
-0.072272
0.0043784
0.000242256
0.00409575
0.00120396
0.00226908
1.63106e-06
-0.029947
-0.00863503
-0.148835
-0.0234365
0.0172676
0.033268
0.00262309
-0.00865589
-0.0486783
-0.0848986
0.00211922
0.00373098
-0.000198287
0.000539369
0.00116188
0.000671638
0.0013895
-0.00178026
-0.0822181
-0.0506645
0.00110228
-0.058822
0.00108159
-0.126583
0.00209869
0.00230986
-0.0691223
-0.0315409
-0.0108919
-0.0164997
0.000582561
0.00230951
-0.0198537
-0.0273835
0.00108608
-0.073543
-0.00466332
-0.00621019
-0.01083
0.00376527
-0.0710795
-0.0212618
0.00122495
0.00269026
-0.0799
0.000436576
-0.0103707
-0.0765924
-0.0166213
0.000775301
0.00226434
0.00112529
-0.076457
-0.0144227
-0.0208263
-0.0192939
-0.0257591
-0.0687783
0.00574547
-0.0412824
-0.0499183
-0.000657019
-0.0114424
0.00115226
-0.0266536
0.00667709
-0.0703614
-0.00164122
0.00198686
-0.0750664
9.31939e-05
-0.0157592
-0.000345533
0.0124492
-0.015359
-0.0723887
0.00114166
-0.0622316
-0.121025
-0.00246175
-0.00883675
-0.00225607
-0.00173023
-0.00747705
-0.0161037
0.00705987
0.00162745
0.00285935
-0.0449388
0.00150201
-0.0706938
-0.0384603
-0.0350105
-0.0456425
0.00181201
-0.0612211
-0.0171877
0.00111638
-0.0331188
0.00891809
-0.0485377
0.00180337
0.00153075
0.0022963
-0.0838996
-0.0113274
0.00211032
-0.0552998
0.00114846
0.00181337
-0.0223513
-0.0136939
0.00692926
-0.0628258
0.00725951
-0.0685387
-0.0165628
0.00622098
-0.0923092
0.00231878
0.00194671
0.000992286
0.00117614
-0.0152032
-0.000516735
0.00601742
0.001805
-9.80319e-05
0.00360444
-0.0222033
-0.000946839
-0.0355357
0.000620655
-0.0482939
0.00835497
-0.140088
0.00702102
0.00100457
-0.114243
-0.0106723
-0.0793207
-0.0333643
0.00331304
0.00544879
0.00197805
-0.00885437
-0.0895735
-0.024701
0.020826
-0.0809229
-0.00745418
-0.0479068
3.51505e-05
0.00219774
-0.0187666
4.47904e-05
-0.194171
-0.0280159
0.00139151
-0.0579788
0.00736064
0.00121883
0.00122937
0.0273223
0.00153509
-0.00205781
-0.00415176
0.00219908
-0.0547005
0.00120125
-0.00128767
-0.000283115
-0.0832983
-0.0781418
0.00888965
-0.0706285
-0.0472431
-0.0820724
0.00773109
0.00101288
0.00192891
-0.0110509
-0.00762248
-0.00260658
-0.0256914
-0.00224409
0.0178539
-0.00210095
-0.0879288
-0.0114528
-0.0486334
0.0274325
0.00217275
0.00592702
-0.0101518
0.00229289
-0.0199197
0.000577651
-0.0687504
-0.0310558
-0.000896619
0.0022064
-0.0121579
0.00350187
0.00376475
-0.152101
0.000962516
0.00184065
-7.02994e-05
-0.00441573
0.00745124
-0.000529795
-0.0628095
0.0023529
0.000972837
-0.00917772
-0.0908499
0.00328633
-0.0504842
0.00160754
0.00800845
0.00056988
0.00371637
-0.0841353
0.00121761
-0.016469
-0.0571849
-0.0837883
0.000583598
-0.00168734
-0.0984467
0.001355
0.00494806
0.00232719
-0.0895289
-0.011616
-0.066337
-0.0103219
-0.0705455
0.00791637
0.0527461
0.00256679
0.000510126
0.00239798
-0.00277323
8.54234e-05
-0.0771876
-0.00142337
0.000127586
0.00528552
0.00132874
0.0018846
-0.0316723
-0.00285801
-0.105562
0.00402628
-0.0645386
-0.00500266
-0.0248749
-0.0749318
0.000187393
-0.0317454
-0.00949188
-0.0722471
-0.00556021
-0.0180494
0.000589173
0.00217906
-0.00240466
0.000565715
0.00118073
0.00164104
-0.00918977
-0.0129962
0.00110528
-0.0018692
-0.0548625
-0.190371
-0.148149
-0.0558874
0.00343446
0.00129143
-0.0023347
-0.0910794
-0.0107784
-0.067246
0.000875325
0.00102413
-0.0063618
-0.000320041
0.000870183
0.000599468
-0.00451861
-0.00800273
1.68732e-05
-0.0945247
0.00660408
0.000784172
-0.0904836
-0.00973608
0.00244463
0.00184696
-0.0930548
0.0150293
0.000636519
-0.0136876
0.00232501
0.00248226
-0.0711286
0.00196988
-0.0656542
-0.0169081
0.00152499
0.0016266
0.00147424
0.00289866
0.00831548
-0.00800519
-0.0858919
0.00426759
-0.000150541
0.00521102
-0.0123397
0.00148997
-0.0636901
-0.0520342
-0.00825286
-0.0801517
-0.105395
0.00811267
-0.0645911
0.00156993
-0.0745292
0.00142139
-0.0368656
-0.00691684
-0.0334088
-0.00749976
0.0487669
-0.0146518
-0.0722283
0.000637063
-0.0294491
0.000575936
-0.00247874
-0.0527907
-0.00033232
-0.00992242
0.0613447
-0.0832958
0.00144403
-0.0444883
-0.0846565
0.000138288
0.00083821
-0.0164088
-0.143348
-0.00797784
0.00018991
-0.0256197
-0.01394
0.00241449
0.00670502
0.00570043
-0.0110101
-0.0200136
0.000653916
0.000998327
-0.0140097
0.00370067
-0.0750159
-0.0170319
-0.0109772
0.000928924
-0.0828986
0.00191872
0.000951335
0.00489341
-0.0221561
-0.0168625
0.000568298
-0.139085
0.00199669
0.00421908
-0.044934
0.000317796
-0.00283275
-0.0448093
-0.0670746
-0.0627232
-0.0419165
-0.0153184
-0.0293234
-0.0872857
9.7872e-05
-0.0465625
0.000842794
-0.00571523
-0.0165887
-0.0210169
-0.0196339
0.0022012
-0.0132547
0.0199129
0.000139689
-0.152232
-0.0166543
0.00768847
-0.08194
0.00116868
-0.0674717
-0.00267456
-0.000318523
0.00374952
9.61754e-05
0.00052967
0.00149055
-0.00795171
-0.072291
0.000342687
-0.000886268
-0.0338139
-0.000220041
-0.00547371
0.0244977
-0.0647946
0.00413465
0.00215051
0.00102944
0.000721329
0.0141683
-0.0752459
-0.0148618
-0.011107
-0.0123397
0.00213015
-0.000430924
-0.0887462
-0.0743133
0.00717549
-0.00187698
0.00421592
-0.0761806
-0.0151137
0.003077
-0.101524
0.00236467
-0.0246174
-0.184584
-0.0772163
-0.0145804
-0.00919815
0.000909632
0.00206132
-0.00662989
-0.0054615
0.00241412
-0.0705575
0.00120588
-0.0198047
0.00136503
-0.0621621
-0.158391
-0.0022217
-0.0552288
-0.0601486
-0.011102
-0.0654058
0.00647963
-0.00313696
-0.00699459
-0.071689
-0.0455109
-0.0845207
-0.00270341
-0.155493
0.0121668
0.000576897
0.0102774
-0.019227
0.000730218
-0.000362863
0.0224025
-0.00728036
-0.00106816
0.00600942
0.00528757
-0.0227849
-0.0456994
0.0588259
-0.00264999
0.0233001
-0.00214962
-0.00167779
-0.00207745
0.00142438
-0.070193
-0.0860088
0.00188193
-0.0480055
0.000553949
0.00496431
-0.0669213
-0.00995429
-5.8625e-05
0.000885425
-0.0124033
-0.00249678
0.00113486
-0.0707724
0.00389133
-0.0248594
-0.00112962
0.000553525
-0.0543667
-0.147246
-0.141459
-0.0174833
0.000606907
-3.12172e-05
-0.00175652
-0.0656371
-0.068725
-0.000395256
0.027641
0.00380473
-0.0449545
-0.0321405
0.000909442
-0.00043445
-0.0638155
0.00216916
-0.000981481
0.000800465
0.0017395
-0.0176693
-0.0913233
-0.0201617
-0.000689949
-0.185156
0.00960026
0.00229927
0.0205035
-0.00142162
-0.0058912
-0.0968714
-0.00447125
0.00214941
0.00719335
-0.0548394
0.0017804
-0.012545
0.00117923
-0.00212137
0.00165582
-0.00761755
-0.013623
0.00913531
-0.0738818
0.00189711
-0.0198991
-0.0400866
0.0131585
0.00209803
0.00418704
-0.0381014
-0.071447
-0.153524
0.00113057
0.00114355
-0.0715397
-0.000181071
0.00138805
-0.0141844
0.00617824
-0.0050128
-0.000311737
-0.0798959
-0.0150233
0.0018415
-0.0118761
0.0416258
-0.0871665
-0.08467
0.00341982
0.00168873
-0.00477344
0.000743993
0.000941924
0.0421568
-0.0120985
-0.00409337
-0.0273764
-0.0126108
-0.0762813
-0.00634991
0.00578538
-0.0231912
0.00113284
-0.070988
-0.00603171
0.00161705
0.0635488
-0.0551259
0.0568752
-0.0756424
-0.00519334
-0.0286189
0.00178119
0.00223363
0.00527032
-0.00635448
-0.00565011
-0.0708575
-0.00957803
-0.0187051
0.00415174
0.001567
-0.0144054
0.000443237
0.00233563
-0.0683837
0.000572501
0.0194071
-0.0539185
-0.00660309
-0.0457864
-0.0286352
-0.0283213
-0.00368407
0.0019719
0.0010523
0.00173612
-0.00642364
0.013444
0.00140038
0.00121014
0.00240819
0.000669106
0.0116442
0.00017807
-0.134235
-0.0215187
0.00150822
-0.00802485
0.00152726
-0.0182032
0.00190369
-0.0191038
0.00220683
-0.000970789
0.00153943
0.00959494
0.00485674
-0.133627
0.00136018
0.000556521
-0.00716472
-0.0023426
0.00156734
-0.090339
-2.69668e-05
0.00118964
0.0438135
0.0181461
-0.0752419
-0.000195565
-0.0147504
0.0471514
0.00231347
0.00113559
-0.138016
-0.00997162
0.000467908
0.0578505
0.00144037
-0.0928567
0.000550096
-6.18889e-05
-0.0091856
0.00115885
-0.0734092
0.000648224
0.00116388
-0.0561269
-0.00523839
0.00175382
0.000588037
0.00103215
-0.0476497
-0.0137512
0.00569737
0.00110188
0.0520152
0.00862386
0.00105933
0.00106936
-0.00765022
-0.00766182
-0.0273316
0.00346624
0.0020105
-0.0146872
-0.00394181
-0.00216875
-0.00718194
0.0115566
0.00151778
-0.0466294
0.00253043
0.0150996
0.00183513
-0.00589792
0.000841332
0.000604485
0.00358566
0.00738703
-0.0353585
0.0529876
0.00010002
-0.0758304
-0.137003
-0.0529108
-0.0693615
0.00195236
-0.00727609
0.00748313
-0.0242445
0.000676447
-0.0836721
0.00165348
-0.068177
-0.0195967
-0.0243462
-0.0420642
-0.0456847
-0.0100797
0.00121947
-0.0481959
0.000811095
-0.00033046
-0.0242436
-0.0897606
-0.0895146
-0.00683794
0.00849457
0.0496044
0.00102505
-0.0440879
-0.00334537
-0.00372447
-0.000907287
-0.000489907
-0.0772756
0.00111359
-0.041205
0.000963747
0.0110876
0.00666985
-0.00304201
0.00188417
-0.0765609
0.00217318
-0.0112717
-0.0163488
0.00151983
-0.0404866
0.00883108
-0.0236525
-0.0753708
-0.00790469
0.00679127
-0.0172457
-0.000535094
-0.0069953
-0.00202697
0.0017872
-0.0279799
0.000504266
0.00120017
-0.0348117
-0.00354619
-0.0705214
-0.00354598
0.00158803
-0.00286427
-0.00320886
-0.00054309
-0.026062
-0.0193682
-0.0159317
0.00277259
0.0019837
-0.00597061
0.00169256
-0.00177795
-0.0714799
0.00123485
-0.0546074
-0.00210015
0.00228018
-0.0804192
-0.00163054
0.00106739
-0.0775856
-0.0574564
-0.0914516
0.00214386
-0.08369
-0.0809752
-3.13756e-05
-0.0840361
0.000285232
0.00678052
-0.16322
0.00412574
0.0114299
-0.0852344
0.00716178
-0.0445412
-0.0145074
-0.0768837
-0.0107225
-0.0262155
-0.00630145
-0.0854077
-0.0112414
-0.00931477
0.00518231
-0.0259484
0.00203967
0.000282938
0.0176993
-0.0604697
-0.00470353
0.00312845
-0.0825903
0.0213068
0.0404692
-0.0142061
0.0018357
-0.0465041
-0.0545774
0.00310796
-0.0951179
0.000518532
-0.0409709
-0.0850951
0.00210651
-0.0682045
-0.00819349
-0.0832645
-0.0300644
-0.00495104
0.00549384
-0.0239166
-0.0199867
-0.011429
-0.0136422
0.00157159
-0.00126035
-0.0920437
-0.00169956
-0.076632
0.00316716
-0.00931726
-0.0924304
0.00281868
0.00149142
-0.0715298
-0.00448393
-0.00964639
-0.0737718
-0.0201527
0.0568863
-0.0256761
-0.0704987
0.00491364
0.00382701
-0.0887575
-0.164473
-0.00882732
-0.000821668
-0.0286332
-0.0167059
0.0061335
-0.00575111
-0.0373711
0.00104249
0.00126784
-0.0139802
0.00134849
0.00695459
-0.0774654
0.00792268
-0.0106713
-0.0108017
0.0205101
0.00204401
-0.0733441
-0.00775451
0.000658923
0.0210071
0.00175349
0.00111028
-0.0177599
-0.0282204
-0.00638249
-0.0729641
0.00145082
-0.0698433
0.00192686
-0.086688
-0.0866595
-0.0744681
0.000588789
-0.00335394
0.00726488
-0.00960143
0.0130463
-0.0524363
-0.0945053
-0.0401007
3.31062e-05
-0.00725432
0.00223862
-0.0503761
-0.0781299
0.000390963
0.00113755
-0.00682782
0.0375552
-0.00857287
0.00201409
0.00886625
0.0283855
-9.91539e-05
0.0018912
0.00172848
-0.0714369
0.00795433
-0.000414831
-0.0700269
-0.0227304
0.00389337
-0.0960498
-0.00184805
0.00871345
-0.125893
-0.00643839
0.00505783
-0.0499729
-0.05317
-0.0107924
-0.085372
-0.0137742
-0.0271155
-0.0314985
0.00144924
-0.0685694
-0.0279374
0.0317998
-0.0737682
0.0532505
-0.013912
-0.0203896
-0.160114
-0.00472416
-0.0640143
4.69976e-05
-0.0163747
-0.00615013
0.00094058
-0.0794843
-0.00647751
0.000543432
0.0155581
-0.0727126
-0.00178526
-0.0134723
-0.11358
6.04471e-05
-0.00176154
3.61924e-05
0.000635227
-0.0484125
-0.0105491
-0.167181
-0.0274608
-0.0171603
0.00612337
0.00657698
0.00649087
0.0121645
0.0085346
-0.0058954
0.000660531
0.000517269
0.00192462
-0.0820036
-0.067041
0.00315742
-0.129691
0.00330177
0.0016964
0.00800963
0.00169649
0.00160945
0.0205162
-0.0150714
-0.086962
0.0520449
-0.0562898
-0.0160782
-0.0112893
-0.00500568
-0.0773512
0.00114621
-0.0682718
0.0414271
-0.000905826
0.0419865
-0.0838422
0.00459432
-0.00316504
0.000724441
-0.00059903
-0.0758618
0.00150902
-0.0148103
0.000410558
-0.000345147
-0.0723804
-0.0073334
-0.0123383
-0.00363248
0.00102753
-0.0966703
-0.0170036
0.00548839
-0.0505729
0.022354
-0.0903455
-0.025466
-0.002499
0.00232944
-0.108118
-0.00526181
-0.0426753
-0.0165201
-0.0889292
0.00331489
0.0036469
0.00798622
-0.14583
-0.00978414
0.00178371
0.00134222
-0.0701173
-0.0872512
-0.00125197
-0.0112396
0.00462123
0.000243024
-0.0723897
6.02897e-05
-0.0948155
-0.0538157
0.0032624
-0.0158799
0.0120746
-0.00115728
-0.0239221
0.000962845
-0.00555272
0.0099434
0.0443189
-0.0142492
-0.000734979
0.00317337
-0.0958314
-0.00081583
-0.00807203
-0.0870335
-0.0015253
0.00271808
-0.0181312
0.00223356
0.00210995
-0.0106763
-0.0317075
-0.0567601
-0.00277289
0.000533788
-0.067015
-0.0054443
-0.0161839
0.00371053
-0.00713241
0.000611181
0.000507404
-0.010252
-0.0145085
-0.0501983
-0.0668556
-0.154286
0.00108175
0.00178094
0.00441785
-0.0864403
-0.00946535
0.0020028
-0.0863868
-0.0884786
0.00103959
-0.0128277
-0.0111295
0.00732352
-0.0859791
0.000642003
-0.00928036
-0.0265666
-0.184275
-0.0136785
-0.0140677
0.00226966
-0.0680677
-0.0945848
0.0013745
-0.156408
0.00893542
-0.0103987
-0.0752546
-0.051897
-0.0739217
-0.0211528
0.00326135
0.00717633
-0.00856116
0.00470493
7.36475e-05
0.0150662
0.00725287
0.00203973
-0.0198438
-0.078618
0.0554889
0.00148286
0.015554
0.000922914
-0.0600774
0.00204286
-0.00948456
-0.00596157
-0.0879016
0.0216288
0.00149768
-0.00749512
-0.0632337
0.000550261
-0.0756963
-0.00267586
0.00112907
0.0128025
0.002305
0.00525135
0.00193338
0.0004692
0.00289005
0.0013406
-0.111821
0.000583479
-0.00242753
-0.0412373
-0.0341563
0.00429281
-0.0668601
-0.00255219
-0.0114678
-0.00393898
-0.00374702
-0.0012061
-0.00105602
-0.0852779
-0.0226804
0.0104115
-0.0200217
0.00956236
-0.142821
0.0406536
-0.122279
0.00146682
0.00766269
-0.0100739
0.000243099
0.00194314
0.00214011
-0.0708995
-0.0584218
0.0060223
-0.00150681
-0.00985472
-0.0609524
-0.0128928
2.20146e-05
-0.00154283
-0.0685187
-0.0038441
-0.0846335
-0.0157141
-0.00528058
-0.00073959
0.00353063
0.00332164
-0.0478869
0.000100377
-0.0258929
-0.0897257
0.00597962
-0.073629
-0.0129794
0.000993518
-0.0101153
-0.00911047
0.00220954
0.000604564
0.00188448
0.000518539
-0.139813
0.000422978
0.0237798
0.00895092
-0.0253826
-0.00365469
0.00595646
-0.051549
-0.0727355
0.00105111
0.0012611
-0.00135673
-0.0752412
-0.00594476
-0.0147344
-0.0166439
-0.000917169
-0.0155214
-0.00534037
7.37478e-05
9.35076e-05
-0.0112968
-0.020939
-0.0966612
-0.0874565
-0.0187853
0.00109372
0.0229114
-0.00880192
0.010603
0.000915957
-0.0692845
-0.063668
-0.000338811
0.0010845
0.000570001
0.0401495
0.00706628
-0.0722981
-0.0561624
-0.00457304
-0.0893193
-0.0562152
-0.0673701
-0.0865994
-0.00518531
-0.158664
-0.00861599
-0.0670663
-0.0804919
-0.166971
-0.0958386
0.00112703
-0.005511
-0.0014428
0.002588
-0.0859946
-0.00246744
-0.00939497
-0.0307891
-0.0132608
-0.0354797
-0.0710255
-0.0755767
-0.138954
-0.0138024
0.00558268
-0.00337398
0.00346866
-0.016231
0.0140552
-0.0577138
-0.0162879
0.00189222
0.000564685
0.00152995
0.00314046
-0.0708248
0.00271045
0.00401316
-0.00639512
0.0133057
-0.0357793
0.00850614
0.010373
-0.154674
-0.00451635
-0.0351211
-0.00975118
-0.0316076
0.02995
0.00334114
0.00702265
0.00169082
-0.0693752
-0.0185944
0.0014376
-0.0214953
-0.0930519
0.00228075
0.0041796
-0.000850302
-0.146355
-0.000347413
-0.000229507
0.000568202
0.0626813
-0.100635
0.0010246
-0.0380089
-0.109006
-0.00533338
0.011043
-0.00316828
-0.0699232
-0.00376461
-0.0877173
0.000385831
0.00354766
0.00126863
-0.0780353
-0.0252007
0.00181223
-0.0896522
-0.00676742
-0.00358514
-0.084024
-0.0730699
0.0174113
0.0264175
-0.0310128
-0.0137029
-0.0975278
0.00121263
-0.00481876
-0.0145399
-0.0149095
-0.00914871
0.0109396
-0.00599172
0.00303521
-0.0824037
-0.0154194
-0.0856029
-0.00619426
-0.0880004
-0.0763911
-0.013307
-0.0129003
-0.0293045
-0.0282081
-0.0711432
-0.0215452
-0.0915173
-0.170956
-0.034806
0.00283677
-0.0740878
-0.109174
0.00792063
-0.0930221
-0.0012841
0.00218842
-0.0152641
0.00131412
-0.00566854
-0.0363009
-0.0865101
0.0110952
-0.00458283
-0.231639
-0.0694912
-0.0415011
-0.0897153
0.00835937
-0.079139
-0.0405132
-0.0570143
0.00117009
0.00261596
-0.0499188
-0.0763292
0.00445884
-0.130669
-0.0913783
0.0016669
-0.012646
0.00211888
0.0283593
4.61814e-05
-0.0239109
-0.146255
0.00147233
-0.00956708
0.00149872
-0.00888807
-0.0636595
-0.0886793
0.00655031
-0.078747
0.00913028
-0.00295126
-0.00225724
0.040018
0.000955817
-0.0834561
-0.0848995
-0.00400471
0.0464723
-0.082803
0.00227941
-0.086464
-0.0873564
0.0137296
-0.0870106
0.00197341
0.000115004
-0.004427
-0.026603
-0.087237
-0.017908
-0.0120043
-0.00912921
-0.0112317
-0.0847516
0.0027283
0.000543951
-0.071942
-0.0914144
-0.0158725
9.54571e-06
-0.0120387
-0.00814842
-0.0102867
0.0539624
-0.00156046
-0.0708807
-0.00287881
-0.0838363
9.83092e-05
0.0180966
-0.066458
0.00147626
0.000513675
0.022512
0.0443189
0.00362659
0.0123991
-0.0352422
-0.0717174
-0.0812572
-0.0275518
-0.00595898
-0.000397529
-0.0138504
-0.00779429
-0.00375555
0.0172251
0.00128569
0.000542108
-0.087237
0.00457017
-0.00964123
-0.020695
0.00480112
0.00204458
0.00128718
-0.0149244
-0.0147343
-0.0589254
-0.0208208
-0.0248667
-0.070438
0.00181176
-0.0414773
-0.070605
-0.0818807
-0.053293
0.000564116
-0.0210654
-0.00849108
-0.00585318
-0.00873181
-0.00566238
-0.0158797
-0.0465583
-0.0784486
-0.00265798
-0.0599444
-0.0422857
-0.0624886
-0.0649014
-0.0148044
-0.0668941
-0.0690182
-0.0706792
-0.0722976
-0.0664685
-0.0407393
0.00688135
-0.00234485
-0.0244227
-0.0588303
-0.000402408
-0.0277935
-0.0761882
0.0115959
-0.0942841
0.000532379
0.00166264
0.00388715
-0.109074
-0.014824
0.00218369
-0.0637055
-0.106635
-0.0211267
-0.00317402
0.00953791
-0.0144818
-0.141436
-0.0110162
-0.0307052
-0.088686
-0.0857997
-0.0582432
-0.0903076
-0.0156556
0.00347033
-0.0783746
3.3573e-05
-0.0743275
-0.0782302
-0.00268904
0.00368041
0.0142523
0.00690995
0.00193005
-0.0314434
-0.0322965
0.00139386
0.00142269
-0.00160836
-0.0826122
0.00687412
-0.00453398
-0.0776469
-0.0392629
-0.0903459
-0.0705075
-0.0125698
-0.0095252
-0.0143103
-0.00094738
-0.0904432
-0.00864148
-0.12983
-0.0575657
-0.0817122
-0.0125694
-0.000332918
-0.000934678
-0.0835872
0.00191129
-0.0829965
0.000116567
-0.0890743
-0.0143433
0.00129298
-0.0195296
-0.00104727
-0.0633122
-0.028108
-0.00913875
0.00385319
-0.0142202
-0.0711807
-0.0861469
0.0207604
-0.0886531
-0.000948564
0.000902097
-0.0254672
0.00812359
-0.0695594
-0.116824
0.0198739
-0.0765382
-0.0658768
-0.103606
5.41883e-05
0.00181835
0.00149824
0.00117759
-0.0860278
0.0167758
-0.00170047
0.00573123
-0.0714952
0.000906204
-0.00523685
-0.013447
-0.124526
-0.0110042
-0.0129805
0.000479776
-0.0872716
0.000723935
-0.0279931
-0.0850517
-0.0647815
-0.0817645
0.000543552
-0.0331497
0.0160607
-0.0867197
-0.0837704
-0.00682097
-0.0680799
0.00161738
0.00321092
0.0314279
-0.0261464
0.0516558
0.00143003
0.0169894
0.0553987
-0.0342044
-0.0809632
-0.0871488
-0.0822478
0.00213384
-0.0160373
0.00307476
-0.0699103
0.00218201
0.0207187
0.00449124
-0.0220611
0.00160669
-0.0239253
0.000163105
0.00767377
-0.0794642
-0.0682779
0.00457221
-0.0821204
-0.067228
0.00123354
0.00354799
-0.0855997
-0.0134349
0.0210278
-0.0881959
0.0011757
-0.08478
0.000891976
-0.115598
-0.0911167
-0.0156399
-0.0214901
-0.0200524
-0.0618871
-0.0568556
-0.0883599
0.0187468
-0.0143708
-0.0911741
0.0117461
-0.0347891
0.00074272
-0.172322
0.0480274
-0.0848572
-0.0367567
0.00688692
-0.00395656
-0.0875662
0.0093557
-0.0969286
-0.0740373
-0.0006861
0.000434195
-0.0850874
-0.0764166
0.00421242
-0.0127476
0.00627624
0.010137
-0.10302
0.0185746
-0.0767859
-0.00390373
-0.0738992
0.0157181
-0.0158516
-0.0138452
-0.0335479
-0.125337
-0.000450129
-0.0628286
0.000565556
-0.0183142
-0.0134704
-0.000376907
-0.000907065
-0.0154794
-0.0800852
-0.0860765
0.00119878
-0.0732006
-0.00970918
0.00252856
-0.00634587
0.00198641
-0.0156145
-0.0821403
-0.0808043
0.00155781
-0.0599832
-0.0519494
-0.0514564
-0.100268
-0.0588274
-0.00519169
-0.0441037
-0.00783153
0.000894476
0.00937001
-0.0711043
-0.00369875
-0.086675
-0.0923148
-0.0148885
-0.0729394
-0.0711818
0.000831786
-0.0821017
-0.014502
-0.0415302
0.00782165
0.00102387
0.00788654
-0.0706783
-0.0129162
0.00971803
-0.00950288
-0.0848701
-0.0703629
-0.00993947
-0.0714543
-0.0723239
-0.0816138
-0.00468458
0.00216997
-0.0521304
-0.00590787
-0.0133495
-0.0138424
-0.00119303
0.000993488
-0.00496723
-0.00604525
0.00657384
-0.00570228
0.0013373
-0.00402619
0.00952256
-0.0672893
-0.00543887
-0.0814467
-0.00743442
-0.00512242
-0.0612693
-0.0504341
-0.00161525
0.00132738
-0.050517
-0.0322774
-0.0829159
-0.0315013
-0.0111404
-0.00740093
0.00254624
0.00357326
-0.0748779
-0.0529487
0.00559214
0.000836611
-0.0885767
-0.0139595
-0.00407382
-0.055067
-0.0230998
-0.0373175
-0.080886
-0.056548
-0.0226003
0.00602715
-0.0856548
0.00124536
-0.00899939
0.00476511
-0.00186674
-0.0513216
-0.0088269
-0.130929
1.98815e-05
-0.00880734
-0.0246386
-0.0785432
-0.0590041
-0.0133673
-0.0637511
-0.0660312
-0.024101
-0.0167471
-0.0160726
-0.038119
-0.0159585
-0.0751836
-0.0152407
0.00484942
-0.0442021
-0.0154989
-0.0503604
-0.0214602
-0.00399978
-0.03946
0.000224028
-0.0074838
-0.0280234
-0.0123844
0.00156691
-0.00665557
-0.081183
-0.0763285
-0.00101311
0.00733526
-0.0658437
-0.0149809
0.00195236
0.0574002
-0.0756686
-0.0352996
-0.0786909
0.0445994
-0.0424076
-0.0857763
-0.0676909
-0.0384751
0.00300555
-0.0628255
-0.00108455
-0.00858507
-0.0666911
-0.0698194
-0.00538546
-0.0588645
0.00311954
0.00348769
-0.00195124
-0.07122
0.000866824
-0.0695811
-0.0327579
0.000551988
0.00179648
0.0014423
-0.00412447
-0.00616424
0.00191577
-0.0314155
-0.0040978
-0.00463953
0.000995287
-0.0561362
-0.0159276
-0.0198766
-0.00770278
0.00058989
0.00124093
-0.0452081
0.00406601
-0.0881019
-0.0128165
-0.0147752
0.00941836
0.0386462
-0.00872777
-0.00851307
0.00696252
-0.0304708
0.0164533
-0.0201125
0.00300429
-0.150102
-0.0301449
-0.00706289
0.020172
-0.0703894
0.000934165
-0.0140227
0.00136686
-0.0327111
0.00248748
0.000671085
-0.00239349
-0.0152217
0.0095235
-0.0240581
-0.0658352
-0.0134916
-0.00830853
0.000615484
-0.0678777
0.00713568
-0.0717276
-0.0599429
-0.0154797
-0.00308609
0.00703027
-0.0761477
-0.0693929
-0.00463856
-0.070441
-0.00710131
0.00826642
-0.0133145
0.0151918
-0.00945154
-0.057382
-0.0918895
-0.00228715
-0.00468347
-0.00382992
-0.0989031
0.0173207
-0.0108331
-0.0276185
-0.0882245
-0.000897986
-0.0223681
-0.0391778
-0.0255752
0.0012206
0.0413871
0.0013911
0.00565364