/*--------------------------------*- C++ -*----------------------------------*\
| =========                 |                                                 |
| \\      /  F ield         | OpenFOAM: The Open Source CFD Toolbox           |
|  \\    /   O peration     | Version:  v2012                                 |
|   \\  /    A nd           | Website:  www.openfoam.com                      |
|    \\/     M anipulation  |                                                 |
\*---------------------------------------------------------------------------*/
FoamFile
{
    version     2.0;
    format      ascii;
    class       volScalarField;
    location    "200";
    object      ReThetat;
}
// * * * * * * * * * * * * * * * * * * * * * * * * * * * * * * * * * * * * * //

dimensions      [0 0 0 0 0 0 0];


internalField   nonuniform List<scalar> 
13917
(
38.8994
481.887
557.653
556.723
483.926
500.639
506.651
323.265
529.431
35.9013
318.914
566.437
558.148
322.904
575.138
38.5321
589.99
345.721
447.721
40.0024
496.784
588.158
462.577
589.041
545.8
479.359
42.207
36.2245
406.274
620.559
36.4384
487.715
559.044
38.5826
602.201
321.943
540.147
560.688
510.737
573.135
587.707
591.03
547.659
501.494
496.379
314.647
506.755
44.9632
80.5769
601.934
570.307
376.832
33.7889
576.827
575.684
380.701
35.6743
455.817
590.041
308.442
57.0569
685.732
602.075
547.306
58.1186
253.081
388.633
324.13
329.889
36.4306
79.9467
38.2266
581.954
595.009
503.225
544.773
545.642
598.345
546.325
558.993
585.242
589.193
582.787
75.585
597.979
313.403
487.801
589.412
572.921
593.569
608.89
543.48
98.1924
604.425
568.957
395.081
53.0195
584.244
594.271
348.116
594.725
598.964
584.664
596.912
550.16
77.5249
43.8337
792.008
585.833
42.6577
605.035
39.0668
414.686
42.164
59.8903
540.13
452.447
608.496
569.927
588.799
592.604
604.54
382.217
409.06
34.4893
67.0194
549.051
492.67
602.742
410.093
504.593
321.795
42.1247
541.717
496.822
44.5945
58.176
32.9959
450.876
559.841
232.466
602.157
86.8635
594.074
583.72
525.339
82.2515
144.36
42.1135
573.566
572.21
601.506
586.25
590.684
50.224
591.258
601.912
40.3584
595.088
604.735
597.236
58.589
530.582
182.518
54.7269
85.5361
33.6005
53.1448
629.449
443.913
587.131
42.7835
532.642
65.7278
401.86
599.427
561.02
367.926
503.196
521.585
550.113
590.127
572.692
376.643
549.664
274.26
574.206
375.425
621.776
348.543
398.779
496.023
391.624
39.3476
604.324
34.7896
528.812
44.1673
602.587
592.22
509.397
36.817
32.8453
552.113
39.9929
444.452
572.18
602.757
373.476
584.541
607.948
448.935
413.768
44.7923
492.197
464.418
49.4251
579.648
616.322
616.622
53.8949
390.981
346.839
597.884
597.343
46.5673
34.6914
617.462
617.71
586.201
615.945
616.206
38.1737
50.8418
586.345
628.327
401.017
37.1175
595.014
598.377
39.902
84.9291
394.116
48.0087
367.615
594.85
53.1101
401.439
424.478
447.701
552.466
49.3775
587.546
529.093
417.019
586.866
584.395
547.739
555.706
597.225
34.9951
61.1535
606.584
617.805
589.349
617.619
588.179
563.053
475.141
605.813
32.8129
44.5742
579.721
569.728
289.009
618.122
516.76
35.2758
617.97
36.6364
599.225
61.6898
595.847
583.107
585.861
597.781
420.048
576.716
65.5158
536.513
60.9393
532.418
48.4491
32.5912
602.8
437.831
551.655
537.763
512.467
547.418
603.488
583.185
358.694
414.177
536.587
547.706
599.026
41.5178
36.615
604.349
508.82
542.254
96.6712
577.025
43.2092
69.4904
246.086
355.729
575.345
86.1905
96.7725
556.576
566.646
578.44
41.484
588.415
463.208
480.415
590.69
43.4446
596.46
503.889
614.91
38.8299
607.143
520.13
438.281
308.699
595.888
454.201
94.8278
564.408
589.291
39.6658
91.9988
94.5107
353.72
618.484
586.59
82.4579
345.873
618.225
534.515
572.573
486.241
517.315
396.666
430.432
518.755
497.616
39.3449
602.053
565.625
472.703
458.258
591.679
39.0183
500.037
116.155
572.931
376.173
543.68
161.801
593.493
358.303
296.971
426.183
578.659
242.627
609.895
54.8862
393.853
597.183
120.967
580.13
167.204
610.859
40.7378
169.717
543.701
47.1195
540.866
558.613
62.1953
563.298
548.645
416.289
584.705
537.322
560.015
595.58
519.436
549.292
598.663
603.361
600.916
53.6048
120.692
570.255
600.109
589.695
452.816
177.33
616.783
629.277
575.46
405.481
596.985
546.293
103.012
53.26
196.553
458.102
111.946
610.581
617.472
489.647
603.958
616.582
585.844
617.196
611.209
53.249
583.289
570.013
33.0545
432.922
607.437
587.46
62.2799
504.796
34.1189
615.053
590.926
609.739
615.712
546.399
577.994
127.022
442.996
75.9141
588.857
490.125
484.52
585.125
371.463
95.1815
573.768
47.5185
606.021
596.271
590.7
581.832
608.298
581.904
40.97
60.3446
608.457
47.3948
575.277
589.14
423.618
518.884
55.8176
518.698
76.0016
126.198
126.286
577.594
326.149
458.349
556.735
240.244
609.104
578.022
566.366
527.733
524.347
525.147
462.854
532.868
564.714
361.012
552.593
568.682
239.765
472.54
535.954
57.0184
597.459
548.431
363.26
605.62
36.9077
597.161
615.51
461.428
614.864
581.413
358.732
39.2342
53.4421
596.854
558.449
551.94
407.357
359.417
572.153
574.992
596.274
425.563
123.295
601.694
595.125
593.753
599.069
510.867
514.276
604.71
459.155
605.63
590.13
550.668
41.807
617.135
539.264
597.88
489.904
419.857
418.607
409.473
240.848
548.46
369.483
45.7267
53.0378
33.3352
605.61
594.31
584.157
584.63
57.5036
617.544
85.1319
528.72
51.5991
491.773
549.394
35.5376
608.881
507.637
589.251
586.122
48.8093
616.096
579.172
596.112
583.893
592.305
525.808
514.325
617.973
512.109
430.122
76.9993
97.3022
42.3986
55.2383
616.747
35.3274
612.921
59.8163
130.79
586.482
601.001
596.424
477.111
549.794
615.913
588.191
559.892
128.071
592.899
492.207
579.514
618.185
598.071
333.084
86.8361
35.8886
448.893
513.853
503.699
37.0555
610.338
136.997
568.138
559.556
584.767
315.387
599.178
503.077
582.59
77.1888
470.412
54.9664
604.118
481.378
601.013
591.916
39.7231
108.505
600.559
395.967
598.901
597.629
596.322
40.089
592.972
548.14
617.69
600.898
444.705
598.789
407.553
587.383
606.245
56.1538
494.273
575.939
31.8537
574.082
121.051
356.699
609.323
572.745
41.3443
555.793
502.46
535.836
488.027
590.033
601.005
200.111
414.49
539.971
55.0976
466.99
81.4002
381.586
436.286
500.172
395.433
36.9223
603.547
519.36
187.749
605.495
600.529
596.929
551.67
577.292
35.5397
508.857
601.017
471.633
605.797
44.029
599.278
602.917
37.9567
427.551
108.586
575.711
607.01
603.655
566.295
512.794
600.201
33.607
547.202
100.87
111.173
482.086
42.529
558.797
584.974
600.697
35.6171
50.5338
535.508
34.1515
125.236
606.816
603.584
543.51
81
111.845
470.69
567.94
538.866
560.579
578.757
400.649
504.252
573.639
555.214
590.092
512.909
566.057
553.352
533.118
592.816
33.8359
607.154
102.334
535.756
512.766
531.106
570.097
593.13
513.075
95.8709
123.953
584.051
531.211
571.357
591.231
582.321
500.907
430.163
339.017
402.499
609.68
502.322
529.551
524.532
397.714
586.505
500.514
53.2156
618.005
429.96
387.345
502.124
603.63
607.887
600.226
36.3714
556.124
597.123
504.725
599.254
606.245
382.522
59.4643
423.854
49.5631
482.419
82.1203
589.568
536.778
549.381
588.851
210.61
595.312
600.574
574.906
530.995
422.668
602.979
182.495
596.437
111.254
537.089
521.652
614.955
441.652
580.005
67.9062
422.223
588.241
42.5482
554.702
35.0302
550.823
417.08
580.507
606.845
585.464
44.1968
511.234
115.627
54.9173
592.194
500.23
628.6
521.602
108.199
628.159
53.1929
540.494
437.676
443.892
90.7101
615.751
600.584
408.455
609.534
580.033
551.727
595.575
502.212
616.022
342.23
575.076
38.2921
34.7183
195.436
74.375
47.6897
38.194
91.2368
608.791
601.583
579.064
555.424
596.688
510.691
592.085
231.633
578.806
266.491
559.83
515.762
469.557
605.005
572.604
553.074
573.569
519.502
610.547
42.9133
410.994
167.322
604.337
601.278
589.162
595.645
57
608.028
169.977
598.956
121.652
584.947
594.699
514.881
792.784
607.883
115.488
160.667
556.941
449.772
609.941
534.5
605.088
595.334
39.1898
596.42
557.492
464.719
38.8895
589.052
109.839
393.342
584.312
570.287
595.135
149.672
601.086
516.729
572.087
37.2592
583.656
142.596
599.613
618.974
155.373
572.876
614.592
48.5831
554.164
602.945
89.5487
585.905
602.954
417.982
549.208
56.0859
570.68
518.055
352.318
540.046
37.874
570.278
421.821
594.693
33.8468
121.286
577.897
603.004
587.99
570.077
612.982
609.976
606.302
587.267
515.47
618.216
555.989
477.249
53.008
63.0036
472.227
587.289
144.456
593.533
563.39
121.619
31.624
616.382
608.531
591.367
584.81
616.759
609.1
590.174
498.107
602.487
38.3487
89.3245
603.838
45.8303
595.35
600.847
733.843
40.6012
547.735
601.658
104.962
603.209
601.47
564.044
598.806
54.9069
551.799
261.892
606.706
605.733
520.786
94.9424
551.93
37.3776
728.982
573.977
564.736
599.5
608.083
534.029
512.844
538.318
36.033
39.9367
101.045
551.345
606.733
34.7361
605.021
81.4318
417.443
520.425
549.04
81.3159
59.5097
397.492
609.246
94.2001
612.71
591.564
509.942
576.696
571.57
290.046
37.8761
604.998
528.966
36.7268
600.185
618.077
81.0781
47.1274
557.912
610.543
516.633
585.428
601.978
489.458
543.228
580.63
90.7468
595.394
157.442
117.551
703.991
34.3651
574.143
560.678
340.835
39.3878
193.958
536.243
492.388
580.665
561.14
593.738
67.431
505.699
589.99
468.623
599.323
125.778
434.486
573.34
515.056
364.967
112.482
177.088
40.2653
561.129
373.512
617.734
429.47
397.229
104.724
532.315
584.993
532.202
112.415
557.901
59.0251
485.525
383.826
73.9917
603.713
563.131
546.446
584.01
492.005
181.418
617.18
610.556
552.432
187.546
603.713
555.106
549.406
568.989
580.119
451.438
514.624
588.358
604.991
393.184
369.436
517.98
38.8228
571.503
597.079
50.5795
596.586
553.433
41.1237
34.3851
489.475
431.734
513.085
33.7073
208.905
532.889
93.9014
602.682
403.786
53.362
571.428
111.607
137.877
611.004
590.703
559.524
577.268
588.49
547.477
597.653
452.142
614.455
511.811
58.5418
549.562
431.122
48.4299
595.052
519.05
556.441
553.21
587.511
34.169
442.602
37.8607
539.919
51.9155
387.563
606.465
312.731
483.154
646.675
594.98
308.723
588.091
535.03
484.653
551.196
579.716
467.831
129.91
596.578
319.087
209.303
580.016
595.774
522.219
406.708
498.255
607.932
518.858
595.531
92.3377
32.4936
571.776
605.198
611.391
600.701
550.772
545.84
285.58
594.22
531.936
161.609
510.101
466.465
48.6764
53.0217
575.766
595.571
605.356
558.259
518.699
45.506
180.275
455.147
507.896
473.553
551.215
790.514
532.226
508.343
604.582
513.3
760.214
609.672
577.968
40.588
451.727
182.736
53.3887
351.61
603.605
286.05
566.953
595.367
107.509
97.3531
604.414
482.912
432.14
565.409
560.324
616.261
595.555
607.961
588.806
511.628
556.208
33.8645
571.631
523.951
508.804
406.207
605.61
516.832
351.447
573.757
45.2995
567.047
616.535
33.8512
601.032
207.511
550.124
571.131
568.296
601.384
633.117
527.936
573.912
602.417
37.5843
747.765
36.6624
596.76
590.03
148.65
603.172
610.297
414.432
102.593
540.566
481.422
560.583
147.084
594.17
578.01
580.278
616.763
570.025
593.38
608.111
258.818
493.358
43.2567
583.513
596.585
497.701
605.725
604.323
564.624
581.924
574.427
563.011
572.592
404.628
529.532
547.077
585.95
601.314
601.415
33.6555
617.298
79.5533
475.501
575.239
472.678
485.979
500.051
581.242
537.34
604.375
609.68
130.566
511.843
664.249
599.575
602.712
608.093
370.275
596.757
48.8462
453.849
605.563
596.892
612.342
450.019
348.222
50.8581
305.092
125.436
522.496
372.565
584.863
73.4033
614.613
617.918
539.71
147.797
611.88
39.7609
585.684
598.811
405.654
304.497
33.5742
162.905
532.325
397.715
585.326
610.458
68.8931
595.107
599.359
180.798
613.49
41.1193
267.759
599.475
585.707
610.039
44.2193
589.544
616.345
481.944
596.458
607.099
595.014
610.758
489.985
575.527
578.056
609.922
43.3378
147.344
609.531
609.35
558.477
597.238
538.99
595.559
601.707
575.232
591.79
560.051
579.963
381.703
612.355
435.19
591.348
418.08
608.493
576.264
599.01
616.529
571.4
584.557
534.524
43.9611
260.25
39.6043
47.0843
460.82
73.3968
589.395
581.124
49.8034
94.7687
607.068
36.3022
610.827
576.257
163.749
538.036
423.759
126.222
41.9237
602.453
487.668
602.934
153.475
535.07
41.6851
40.8669
571.199
201.074
71.99
588.576
445.691
136.055
549.218
601.872
163.669
34.9653
610.688
508.978
583.796
57.0673
351.771
580.092
607.911
633.712
604.984
596.373
559.086
610.366
452.31
581.383
508.494
35.1063
589.874
458.605
582.66
165.737
433.958
145.825
609.102
515.009
606.487
595.894
544.768
581.782
288.531
555.363
609.748
595.286
139.666
600.37
87.4283
274.993
97.1035
597.856
606.792
593.092
95.5556
578.862
114.539
598.06
59.5423
551.585
575.323
666.142
581.291
593.892
34.9529
435.413
40.2785
590.362
53.194
61.1994
586.097
36.6178
585.073
585.238
53.6055
584.755
415.38
38.6911
493.229
445.955
589.451
246.125
592.981
92.2015
593.235
37.032
593.768
600.606
584.355
97.5587
606.256
373.721
541.078
93.9807
590.712
509.774
45.3781
173.036
302.891
398.626
608.507
415.64
68.3651
561.284
428.674
618.415
388.798
37.3315
605.623
32.6849
597.094
57.6906
394.808
542.197
560.306
95.9434
88.7353
601.967
551.882
610.204
583.251
63.7947
418.361
560.941
597.958
534.052
41.3456
398.714
107.255
370.262
598.113
594.821
573.719
117.042
180.005
127.967
559.751
569.09
408.827
47.805
56.0579
117.969
602.211
405.305
453.242
426.716
582.493
533.521
436.078
572.506
108.103
581.958
283.111
35.3565
440.835
597.653
596.641
87.211
606.161
40.7053
536.32
621.005
319.548
356.458
609.891
482.572
502.092
578.212
47.0415
534.736
43.5808
605.693
37.7905
780.054
575.608
616.689
541.824
483.881
413.184
355.365
471.362
63.6505
82.466
627.511
541.24
579.827
407.557
34.418
608.463
610.401
550.081
257.678
366.251
605.103
560.296
313.567
602.285
357.266
546.595
43.926
583.888
152.364
108.894
510.072
552.886
449.627
595.681
430.215
43.1892
554.462
551.998
516.508
488.738
159.475
53.9298
587.159
352.991
145.967
613.409
575.935
419.341
419.84
343.274
66.9571
155.501
384.356
46.0907
537.351
519.766
612.203
578.517
575.801
604.408
650.334
449.966
617.02
443.558
574.567
595.66
99.7488
55.6938
618.904
579.98
608.302
570.197
492.325
592.976
52.6001
503.898
408.395
568.16
440.25
399.423
546.968
278.534
577.932
566.983
617.779
606.546
47.17
553.29
508.76
52.4448
597.4
584.278
472.359
610.246
606.314
531.494
534.044
38.8607
37.5097
65.3188
594.327
55.582
590.898
672.341
610.304
488.981
107.696
596.625
269.947
36.3503
501.338
581.375
607.199
536.019
118.485
610.801
573.073
581.513
558.198
573.036
581.381
531.282
596.846
580.844
423.255
487.693
581.506
408.081
100.338
43.0865
132.081
569.415
583.022
41.9934
584.747
443.576
595.802
64.6271
593.215
594.437
461.474
64.1387
595.859
609.105
614.798
569.007
39.4641
364.525
603.724
584.21
602.776
34.5153
596.57
186.352
491.212
597.35
342.79
534.983
149.653
575.995
610.308
537.054
425.819
411.103
574.79
578.232
595.188
41.2394
591.928
584.671
54.8137
551.302
513.464
534.358
603.466
601.967
145.711
551.935
101.244
138.832
622.038
77.2926
567.788
383.892
535.053
581.738
615.94
622.54
593.269
209.293
490
33.3699
46.4549
604.132
425.76
571.164
378.86
588.668
242.612
52.2457
73.5031
603.152
550.089
563.034
91.0207
47.2561
624.252
602.339
502.559
52.3967
577.037
548.717
574.004
577.594
587.034
614.234
59.2413
580.527
597.335
181.016
486.366
65.4007
125.84
519.312
583.559
582.993
516.207
576.491
348.905
542.336
601.206
535.23
526.046
56.6173
611.01
360.955
56.6111
51.409
600.154
575.786
131.773
107.042
204.34
599.713
41.9927
514.706
620.718
34.105
539.235
585.448
315.11
595.822
562.322
607.361
624.083
597.329
614.938
59.3322
617.203
598.585
427.657
532.497
561.983
487.148
581.795
602.913
552.02
559.111
131.277
123.631
739.706
336.405
572.493
108.974
401.602
50.5437
45.7947
59.6898
606.398
494.304
588.301
586.41
605.747
594.485
564.677
498.834
484.947
596.387
594.779
508.752
569.15
578.958
583.614
34.0789
553
36.8725
594.954
132.503
577.556
595.86
581.986
495.53
599.864
401.221
39.5802
565.671
34.1036
157.119
569.16
533.353
120.32
365.138
615.598
606.407
622.135
45.0061
624.342
342.433
657.604
404.72
276.848
262.7
472.532
46.4289
610.918
615.938
152.055
133.063
582.606
589.006
101.441
602.862
356.79
573.233
601.061
532.021
583.026
405.59
41.148
38.7265
532.12
598.075
521.274
553.678
425.888
604.907
569.503
536.551
578.621
585.734
621.074
413.45
383.809
574.368
509.579
545.237
82.222
481.948
575.291
59.8351
590.401
47.6438
560.046
33.7718
739.406
48.0766
60.6007
588.546
442.437
152.535
598.4
38.2522
583.187
580.768
533.205
562.087
501.487
507.666
690.064
54.8632
531.793
552.369
557.577
596.97
583.759
342.265
479.241
89.1655
546.63
616.164
609.902
583.49
567.603
551.869
576.309
540.944
533.527
497.975
433.53
499.517
48.7535
546.289
495.321
588.502
530.237
275.725
169.35
493.963
610.281
157.265
490.857
600.43
452.81
40.8084
160.246
511.856
602.501
59.339
577.844
602.219
615.736
126.258
356.822
570.95
467.562
70.6749
554.4
510.745
426.608
42.8267
552.899
47.7332
579.182
473.482
560.391
50.7236
485.454
607.854
40.3005
595.836
560.947
54.113
125.751
132.303
278.744
536.138
554.62
128.035
600.143
595.271
589.622
453.535
588.918
551.656
552.895
263.385
329.528
561.834
37.3138
556.997
38.8377
34.6447
586.662
571.585
525.832
147.269
566.737
413.276
40.1723
54.4727
108.715
596.156
200.875
42.0791
387.348
408.074
581.917
598.414
595.154
575.746
595.262
493.279
37.8395
567.996
136.229
52.1564
307.401
71.87
43.6563
582.835
46.364
404.374
484.284
610.829
596.536
462.789
34.3637
589.093
75.198
42.2618
605.894
579.641
596.361
494.611
577.764
407.266
46.0772
611.557
602.784
606.415
560.571
532.995
39.0593
471.406
96.237
358.619
594.421
132.696
405.428
594.216
780.271
372.014
105.159
275.19
35.9401
597.527
134.027
38.2008
332.925
80.5516
605.889
554.224
545.273
545.765
63.7515
413.944
571.347
537.215
123.134
37.0016
597.144
593.35
39.3937
44.228
579.05
531.718
378.734
592.327
598.416
84.5266
595.757
559.216
133.207
61.2136
600.468
542.205
432.901
601.61
619.631
32.7405
266.796
596.438
546.984
379.839
575.416
43.7958
455.784
537.446
129.508
108.655
515.516
596.556
312.016
615.632
617.885
38.3547
561.078
382.652
535.038
586.289
606.167
614.753
563.802
557.692
259.656
536.117
388.577
33.0806
555.371
433.973
112.991
52.2427
230.294
609.805
531.251
507.977
540.595
353.517
119.793
562.856
458.478
35.2917
534.522
495.076
431.012
505.807
518.068
547.615
552.126
575.166
575.88
576.741
570.989
418.403
553.303
599.744
492.496
485.31
598.801
334.866
45.0573
329.756
41.913
620.215
610.333
561.112
77.3534
560.825
554.65
517.369
51.3105
103.424
581.765
496.24
534.543
35.8822
119.191
537.904
518.296
37.3873
459.454
46.9643
386.786
227.01
44.7868
629.416
49.2735
35.7588
559.917
413.227
366.273
585.542
607.394
68.9155
68.1633
607.416
607.008
138.885
731.88
393.057
572.64
524.354
391.878
41.3528
33.5417
581.407
595.911
561.195
572.662
50.6702
114.219
54.3856
483.568
666.38
123.691
572.613
601.596
36.6373
606.496
47.704
602.069
45.6052
549.463
577.582
120.258
592.692
492.769
89.3403
568.868
583.513
550.088
568.322
37.5097
324.487
39.5963
553.926
578.48
512.178
408.403
47.3737
54.3281
388.536
576.015
510.699
101.543
601.369
607.193
611.316
610.705
468.368
342.66
141.362
569.969
539.796
600.495
118.386
460.684
35.5512
602.718
552.008
623.828
38.2978
584.586
90.5087
430.585
497.099
601.148
621.623
480.747
331.2
545.751
831.072
588.312
510.867
585.315
594.115
471.137
203.101
281.494
587.02
417.038
479.557
69.3913
35.0969
53.3294
60.0712
605.016
419.083
598.337
532.147
603.777
354.999
588.305
444.656
109.305
93.3793
562.086
521.752
36.105
576.581
587.957
52.3345
573.948
584.019
584.531
62.3878
516.741
340.776
839.844
196.634
38.4082
569.148
66.9266
40.0859
164.314
79.2084
495.821
479.094
450.479
55.9927
214.043
563.111
357.198
609.038
344.197
526.305
53.7945
256.77
241.972
528.73
238.131
546.71
39.2323
343.282
205.426
33.4777
600.679
624.079
36.9857
49.953
548.921
562.402
571.824
572.518
69.4758
314.646
35.4257
543.455
34.8041
346.114
89.6993
563.057
341.033
57.0504
555.059
523.561
620.658
536.671
579.422
124.404
594.557
584.941
45.3689
101.818
611.175
48.3288
557.797
595.75
591.274
606.763
575.936
851.305
42.5788
611.932
68.7422
469.425
491.414
362.905
485.971
540.375
502.195
596.988
119.353
512.25
48.062
551.779
71.9602
496.535
406.187
546.982
34.222
607.566
35.6478
429.502
440.02
406.551
598.875
569.054
561.132
581.789
391.595
602.586
58.6968
571.323
235.592
572.321
574.534
45.9783
575.85
603.57
476.794
553.672
572.727
572.442
536.901
600.681
594.798
556.086
530.737
548.716
524.835
573.829
527.909
568.065
542.166
56.7299
546.238
591.623
500.181
494.212
575.316
601.439
88.2186
552.097
36.269
550.096
375.02
591.609
599.09
518.721
43.4857
471.34
488.227
619.731
40.7956
579.062
594.431
480.292
538.746
383.505
36.4635
440.149
413.776
572.473
37.4409
590.265
577.243
437.251
129.959
478.076
378.01
59.8355
527.559
578.695
514.787
532.604
497.919
581.282
515.17
566.623
416.21
578.907
589.724
377.97
415.37
582.344
112.223
587.186
438.205
577.719
493.763
482.321
575.33
384.601
360.479
387.394
81.5872
583.866
594.019
594.733
46.9653
582.105
546.41
516.833
539.629
577.65
594.464
305.47
47.8985
374.684
35.6876
388.009
509.606
739.513
571.207
509.194
404.593
528.94
233.684
581.92
566.777
575.589
558.375
90.0299
569.402
383.282
534.663
576.159
600.669
33.2681
538.048
607.862
606.575
609.765
555.047
557.236
607.42
540.74
577.884
559.986
112.586
483.727
560.018
416.284
541.944
640.739
615.505
479.373
552.976
138.234
583.28
591.166
441.063
295.06
578.378
579.462
358.094
549.81
371.566
420.502
598.416
36.2325
544.35
558.242
532.451
46.125
585.111
421.663
607.26
523.643
602.3
526.966
591.518
591.022
389.301
419.372
36.15
439.602
581.976
530.005
34.1703
472.28
570.632
466.186
585.659
444.037
95.5165
527.397
79.8696
541.864
33.8873
118.467
506.719
574.906
434.466
560.308
499.012
41.9048
581.343
98.171
572.562
41.9425
455.066
555.102
423.735
38.7346
175.065
541.147
425.996
501.51
611.762
34.3226
614.097
483.747
596.711
572.297
63.014
474.949
610.647
517.409
410.046
580.921
568.795
520.926
563.76
581.098
541.626
569.193
566.3
598.733
468.706
572.343
575.966
598.748
474.909
38.1847
33.6314
612.1
580.069
540.896
454.074
564.359
601.337
593.624
607.147
571.87
517.945
553.377
465.936
545.748
615.209
550.65
480.457
447.97
574.326
561.73
527.817
35.9374
503.985
537.185
34.395
35.036
570.01
431.193
575.006
599.664
129.946
557.548
49.0994
595.101
595.139
585.568
607.006
143.743
71.0606
564.209
36.3974
498.769
506.756
517.523
436.246
515.251
529.748
295.284
605.637
541.098
35.9868
570.086
591.581
554.325
35.956
560.195
559.411
43.6973
562.683
522.495
500.016
617.455
40.9551
536.833
561.545
436.913
497.832
66.9694
547.843
238.093
488.448
386.303
93.9167
579.891
492.825
546.051
561.021
327.618
561.869
557.278
39.5897
588.997
496.598
383.601
139.668
504.727
540.648
560.888
544.489
551.782
539.537
507.046
318.629
500.001
597.902
33.6133
472.182
615.043
553.579
594.953
609.137
617.524
583.484
581.509
550.883
540.694
498.374
618.781
615.871
586.218
416.845
608.735
575.371
345.389
498.78
525.306
593.628
555.312
542.54
450.99
553.005
586.002
67.3718
585.372
32.8402
533.406
555.429
492.942
584.711
488.174
496.808
36.2896
40.8084
524.267
570.525
547.834
517.369
470.886
593.683
246.808
432.437
597.206
372.991
454.608
358.308
536.737
303.371
345.118
565.413
145.555
570.241
546.588
553.735
589.572
515.325
412.925
596.386
561.065
599.97
577.841
581.881
564.189
581.382
596.709
587.248
586
551.136
581.606
595.059
575.612
556.955
560.726
41.6829
376.509
547.258
33.9419
583.39
594.983
91.9783
493.135
580.646
577.351
576.326
328.153
585.386
527.344
574.984
483.653
33.5498
599.969
368.689
416.427
530.275
557.699
610.294
571.888
554.601
55.9795
550.544
460.348
55.718
409.24
608.223
48.4465
559.057
627.66
411.766
50.851
597.949
610.108
555.462
464.359
460.827
593.308
558.412
536.521
572.436
502.527
525.562
146.188
613.206
85.3918
741.586
417.786
594.962
550.707
605.044
545.768
579.312
494.792
619.256
619.595
555.499
359.14
649.964
576.11
620.19
546.431
608.557
40.6985
588.177
555.507
560.881
431.328
466.39
546.548
585.639
477.222
582.357
595.29
539.381
560.571
633.24
595.205
573.41
571.236
579.114
444.412
390.275
42.5671
582.841
418.16
150.276
56.3704
46.1428
459.697
581.223
541.236
550.14
316.585
578.695
534.344
536.529
509.119
618.361
479.486
446.123
87.7168
561.653
575.628
419.772
153.973
620.413
534.716
493.8
622.312
556.747
472.814
600.251
583.273
572.532
533.693
475.027
526.973
555.34
611.163
580.043
350.186
624.479
607.882
525.869
436.818
524.568
40.9023
540.169
583.327
583.573
551.654
593.803
491.686
430.211
607.289
599.441
562.901
591.116
584.58
483.688
82.4739
577.268
401.612
565.828
590.816
542.974
542.871
51.5008
573.319
586.828
609.837
582.667
556.278
507.215
403.117
259.909
563.327
435.166
580.364
588.29
597.897
546.08
511.505
156.82
58.0009
585.741
35.6059
319.268
458.373
146.772
623.876
591.471
586.827
551.174
74.0318
609.104
522.884
808.416
579.686
390.575
622.636
489.82
115.214
44.181
577.8
136.799
577.94
730.46
534.92
36.4881
555.486
368.573
369.762
615.302
511.172
485.695
542.757
152.874
511.442
607.26
576.695
145.914
574.583
415.28
589.521
624.918
595.12
496.106
581.983
393.902
570.982
593.035
623.646
586.59
92.6354
435.849
419.861
485.23
531.44
564.771
575.264
583.778
554.723
466.328
547.336
535.298
615.962
529.055
75.6026
571.911
507.053
418.807
589.987
571.673
618.074
505.743
443.527
620.79
526.37
588.089
583.692
600.868
578.027
602.683
586.009
135.005
594.665
546.845
599.294
574.698
288.269
583.018
136.033
583.628
537.675
467.565
114.032
546.315
599.509
599.003
581.742
515.425
550.954
576.653
442.673
342.381
564.652
583.679
407.396
436.389
495.657
579.512
568.685
552.275
558.169
607.21
33.3385
587.093
538.166
612.047
543.496
615.763
427.495
585.453
486.847
606.239
537.692
609.67
330.02
621.199
297.543
512.314
567.591
607.255
573.499
623.467
852.74
621.324
529.983
329.197
61.0505
580.775
489.089
66.7618
579.536
480.161
579.995
525.893
609.317
604.773
604.67
309.269
545.617
595.048
494.929
576.258
212.445
582.225
233.424
579.912
587.525
189.376
568.899
624.147
580.049
52.1584
122.063
250.417
446.587
732.015
579.086
506.827
599.002
453.609
554.046
571.136
592.019
482.965
39.2969
594.059
409.969
595.263
576.521
522.483
557.13
439.106
607.954
584.94
533.465
520.259
615.7
608.378
599.653
478.522
49.4786
394.235
494.823
542.403
538.226
587.074
495.533
437.807
559.708
592.087
559.084
565.913
505.693
575.167
50.6591
611.407
558.399
497.501
577.317
491.669
429.112
592.385
623.208
573.465
567.498
393.466
76.4205
558.058
605.202
587.509
594.115
150.217
572.087
533.931
492.208
60.344
494.428
556.538
584.301
192.906
602.591
527.587
423.072
241.926
553.754
465.553
595.213
563.472
566.552
37.3729
579.912
602.762
577.529
37.4265
142.269
580.774
566.894
549.81
582.727
351.638
571.97
471.721
533.698
567.796
586.833
593.719
558.432
605.08
408.327
593.397
572.647
606.719
123.126
558.731
561.39
521.504
594.185
84.3488
538.926
526.14
390.368
530.029
98.3566
422.251
572.142
516.628
590.001
588.025
604.304
70.2786
752.796
37.8821
195.315
54.1833
572.728
599.173
537.246
535.87
591.872
575.754
550.61
573.501
47.9546
565.74
104.602
488.894
554.068
569.728
570.498
540.964
608.502
583.216
548.654
567.176
619.496
380.05
574.522
556.768
606.868
563.527
575.068
552.728
591.75
112.435
507.355
618.484
52.7716
621.859
592.056
556.882
410.432
55.7981
107.822
611.041
421.996
513.355
620.732
598.844
578.415
539.035
621.4
422.819
605.024
573.795
524.975
598.755
624.249
620.149
467.102
36.7101
583.665
355.053
575.616
337.237
523.485
68.5899
504.716
34.3371
555.963
596.626
56.9456
554.228
700.602
593.664
589.007
595.541
579.123
412.863
463.108
42.1094
552.458
112.538
674.743
595.463
67.1707
588.811
537.256
523.299
596.817
588.754
610
541.971
584.089
549.949
594.011
585.112
576.869
438.186
37.4816
546.195
582.908
604.613
578.487
582.648
575.26
531.374
536.144
548.484
143.795
595.835
42.5436
657.966
544.855
580.925
454.521
611.82
540.562
609.971
256.683
530.037
585.522
503.417
572.215
598.383
611.582
570.749
61.8211
552.235
574.91
580.54
535.001
579.062
595.475
591.059
464.925
340.845
594.409
352.338
582.45
541.384
603.117
456.486
606.281
598.855
592.722
396.422
597.505
586.013
583.891
459.35
54.8915
621.541
601.972
541.3
408.226
562.173
588.742
496.802
575.781
518.921
39.1777
582.322
458.74
560.944
594.428
570.065
556.726
37.7777
600.263
600.212
53.5786
489.606
588.669
322.475
611.88
913.82
514.116
592.419
499.331
34.4496
506.202
84.9079
541.713
581.702
490.298
504.152
498.876
600.698
538.375
126.962
201.052
624.329
591.305
424.832
586.397
204.574
574.853
545.766
503.146
608.979
108.11
620.016
535.576
163.19
532.298
546.196
524.87
567.74
539.01
312.692
585.693
376.068
502.842
54.0017
156.936
772.037
79.6864
35.3497
577.209
37.0993
103.27
41.554
564.118
549.463
560.427
556.149
557.654
551.596
546.84
549.201
596.14
555.804
563.164
36.6751
37.051
42.5381
550.335
509.521
550.156
389.214
639.659
542.826
628.652
602.84
116.531
553.766
597.415
597.052
556.171
615.732
381.671
33.0427
582.217
599.099
53.9059
536.435
506.691
53.2651
537.813
600.743
537.541
521.096
513.225
396.371
594.399
622.242
149.885
603.662
511.79
471.134
593.433
52.5501
599.237
594.229
594.23
628.108
595.439
36.3124
572.631
572.269
207.893
592.318
511.074
595.534
555.948
496.723
596.939
618.964
598.613
766.977
598.233
510.332
623.711
596.962
439.653
499.014
597.194
510.701
35.9491
477.656
608.489
527.862
51.831
35.6033
567.602
456.252
404.373
621.913
569.637
609.815
513.541
508.686
609.623
579.253
661.772
484.26
62.3265
534.125
569.343
593.373
504.016
427.789
581.9
51.1117
517.471
550.915
580.97
563.34
59.9736
598.537
609.65
599.321
554.682
564.701
620.546
606.417
603.068
612.999
531.546
522.138
602.223
486.421
597.945
579.538
182.951
597.448
562.097
505.469
599.373
470.693
523.596
465.799
326.28
73.9005
77.2085
562.445
591.968
611.629
149.639
611.041
483.331
559.43
281.107
598.08
176.213
34.6843
318.495
523.046
439.419
519.796
594.27
131.601
35.2922
557.249
607.322
597.081
587.753
536.324
594.475
583.264
600.448
436.484
35.1728
557.997
581.04
544.652
556.06
34.9878
532.702
599.653
594.434
587.762
504.526
508.666
520.743
570.73
574.181
596.099
551.317
447.185
531.087
605.993
513.06
625.027
497.5
596.265
594.471
583.209
433.871
625.967
618.502
484.187
509.027
597.468
608.942
34.7366
549.024
611.297
604.22
611.386
600.122
565.016
591.098
599.524
605.693
538.084