/*--------------------------------*- C++ -*----------------------------------*\
| =========                 |                                                 |
| \\      /  F ield         | OpenFOAM: The Open Source CFD Toolbox           |
|  \\    /   O peration     | Version:  v2012                                 |
|   \\  /    A nd           | Website:  www.openfoam.com                      |
|    \\/     M anipulation  |                                                 |
\*---------------------------------------------------------------------------*/
FoamFile
{
    version     2.0;
    format      ascii;
    class       volScalarField;
    location    "350";
    object      ddt0(ReThetat);
}
// * * * * * * * * * * * * * * * * * * * * * * * * * * * * * * * * * * * * * //

dimensions      [0 0 -1 0 0 0 0];


internalField   nonuniform List<scalar> 
13851
(
-55.9337
0.122406
2.32086
-0.00214387
-0.0919833
0.0843441
1.34004
0.0324341
-0.112535
1.7522
-13.5656
-0.328166
-0.322184
0.0246399
4.8912
-64.0301
0.0492142
0.368207
98.1261
-30.3003
12.4462
3.87905
-36.2782
-0.0113222
53.7632
-19.787
-252.652
68.9091
-0.650157
-0.014358
-0.145523
11.2441
57.8391
-0.857794
-5.95084
-0.482431
-0.00804853
-135.097
0.243295
-2.94563
-0.162713
-0.778252
0.100688
-298.184
-1.16138
-0.458297
0.547029
-35.3008
-1.38542
0.0923527
-0.0234182
-4.00699
-5.03936
-3.77804
0.649406
1.79286
-6.79651
-0.181111
210.477
-0.277224
-0.387742
-23.2028
-0.722012
1.29092
6.54501
18.1909
-0.245008
-1.96365
-0.677071
-0.081893
-0.121949
-15.539
1.73927
-0.25263
9.39086
-0.189929
0.00804709
-0.0605758
-474.44
-0.137422
-0.462849
-336.87
-18.1838
-0.0883194
-0.279088
-0.140575
0.681471
-0.0365794
0.544152
-0.148497
28.8642
11.8113
-0.0258903
-0.124262
0.189234
247.941
-2.14695
-4.54683
-0.148108
-8.77433
-64.7011
-4.5553
16.1394
2.60671
-0.0761726
-14.2412
-1.09261
-0.137908
12.6667
0.849088
-0.538419
-0.568802
201.458
46.211
-6.08005
-14.1126
-0.274974
-0.0106981
-0.0129528
-0.0579208
145.291
-0.167066
6.1367
-0.431829
-53.3149
4.41581
-0.190584
7.3284
-0.526557
-21.3383
4.89261
11.8281
-1039.43
-0.870785
53.8793
0.201403
-1.14712
-0.135895
-4.00836
14.807
-530.87
6.52699
1.93258
30.972
48.0102
2.58722
-0.0384573
-0.127112
1.0282
-2.12548
-105.798
159.043
-16.9948
30.8752
7.72768
-2.20551
-0.156204
0.218172
-1.29384
3.36548
-0.0384051
-0.610379
19.5404
5.84021
0.0324116
-0.545021
-0.780005
-0.00156289
-1.75784
1.97468
-0.117344
-0.0979872
-12.6571
-0.116389
0.223062
80.3075
29.8196
0.0902597
6.41512
48.039
-52.2818
380.27
-5.90834
5.56815
0.190417
0.84508
67.0299
-1.21776
6.42066
-0.0584233
-221.45
10.8216
0.0809063
-3.01177
1.60109
50.1471
45.7024
-0.573626
-1.96937
-3.7866
106.69
0.122666
-0.0763799
-31.5805
1288.92
0.0807945
-24.0495
0.547606
-0.326989
-3.83502
-96.7264
-0.928539
-233.899
0.552785
3.10672
1.07701
-3.97825
-34.7209
-1.0545
-89.1022
0.00651785
158.547
-0.0593605
0.20755
14.1792
-4.64726
0.194773
29.4068
-0.296628
-3.54425
0.101412
13.3767
-0.143013
0.176376
-0.112501
-0.16044
-73.2168
-0.0569005
-6.88105
-0.0338473
-2476.35
-0.277995
-1.38003
-85.8043
-46.713
-22.4743
-28.9662
6.03781
273.603
1.06667
1.19399
76.0813
-0.0147258
-1.85816
36.63
-0.570124
-0.580248
-0.1733
8.15049
0.271925
157.147
-11.7996
13.2909
21.6233
47.2714
-0.174868
0.506333
68.8393
167.033
1.56379
-4.81033
34.2032
-1.19342
-0.0478427
2.87758
-0.186178
-105.752
71.5041
52.2604
-87.4401
-0.964583
-0.210556
3.2025
-30.6518
68.5643
0.0852134
-0.108969
33.9593
11.4811
-0.0587706
0.247222
0.217973
-0.0679822
4.23992
-0.157371
-0.277335
10.9713
-0.0970358
-0.531756
-0.407947
-21.357
72.6593
-0.0833772
-4.46304
-31.8874
60.204
-0.147892
-0.522265
-27.5534
-0.0916134
1.97734
-0.223075
4.46613
-0.0616287
-407.809
3.99711
819.075
-59.1302
-0.161706
-52.3023
-3.10157
0.242269
-0.483889
76.9725
0.256878
-0.0468982
0.129894
-15.7303
-5.39854
5.9506
-90.4231
-1.64681
-0.16561
3.3525
-0.150395
-0.0707576
-4.17991
-0.135725
54.1297
-0.113402
0.183005
-15.1632
9.28759
15.1567
-0.08734
-140.754
45.7146
-0.999202
-7.67027
0.264307
0.583879
29.1213
6.99713
73.3602
-17.9887
1.09643
-2.09107
101.688
-36.2829
90.293
-1261.89
0.27571
-1.54672
-0.0950821
17.6808
0.255886
0.670036
12.58
-0.128752
-2.69234
12.636
0.326589
-754.476
498.236
0.260804
-1.62879
-297.189
0.069641
5.45652
1.23228
4.89659
0.0184707
4.71215
-11.0375
-124.553
-259.904
-2.87082
1.13239
14.057
7.4459
-0.698613
16.4779
-1.42087
12.1725
5.30795
-0.00915656
-0.663802
1374.71
-6.73604
-0.626611
-6.1176
-4.73745
-382.73
-194.281
25.491
-0.578515
-0.244736
-638.675
0.0845399
-293.566
-20.5248
-14.5544
0.305853
0.13001
-0.520954
1032.88
-6.57989
-27.9767
217.308
-0.0423043
0.0827353
-0.00598996
257.055
71.8902
-1.18917
200.594
5.41969
-0.116614
0.730695
98.4847
2.76693
-3.13643
11.431
-0.0610729
-0.522454
-84.2816
-40.1592
-20.515
-5.56711
-13.2238
-341.997
-0.570012
2.51277
-7.81052
-1.47054
-0.553065
8.82958
-0.549773
-0.0584089
0.346982
61.3326
-8.35414
-1.97462
-4.34201
218.996
2.57508
-0.672904
-0.0324574
0.504687
-1.30582
-14.3659
0.0588205
0.144929
-7.48864
-1.0749
-241.645
-3.24415
-28.7219
-97.1679
-1.18661
-1.35137
-0.737634
-61.5628
-108.658
-0.425258
-0.482827
-0.447164
-1064.29
0.410577
10.2361
43.6753
-14.9384
-0.5246
110.94
1052.53
-6.01669
49.0398
-0.345301
-0.604726
2.61331
49.2017
-28.3886
-0.138068
-1.0702
-126.072
-0.065843
-0.0307437
-0.673464
-0.633077
-0.089151
-4.01192
0.0649571
106.089
-131.855
2.86765
399.381
-0.469457
-1.05834
206.197
0.235627
-3.67628
0.161955
-15.9686
-13.8646
-0.643911
-0.75738
-0.00332399
-0.639846
249.355
-0.232336
-18.2616
-67.1203
-136.998
-0.185974
-28.9361
185.195
-0.736316
-0.0332
60.1692
71.5693
2.02374
-15.6377
-0.258397
-2.34661
-81.7872
1.86656
-0.529642
1.93517
0.0453576
104.816
4.13854
-0.551663
-18.8155
-0.566796
0.239549
-0.177811
0.0290407
1.87974
0.00963007
-9.71486
-15.0815
0.166418
0.374395
-0.000321433
-253.924
-0.00321222
-1.40725
0.481349
-1.23595
-4.12887
-244.611
8.92896
-8.4043
-33.3996
-2.15878
-0.202102
1.55816
-0.0128657
-6.96072
15.6465
-0.878508
0.580425
-2.96446
-0.306018
37.4152
0.0288945
-35.9864
-16.8575
-735.705
-30.5415
-5.25838
0.296901
-0.339081
-62.9167
-0.648015
70.0752
-0.0734186
1.16742
-33.0799
1603.43
0.652923
-0.00755856
1.29097
-1.36558
21.3464
-0.00531655
140.576
0.00695371
-30.1891
0.0762925
-0.0986964
1.10763
115.74
-0.0760044
0.201394
-0.122671
-65.592
-0.982517
-51.1864
-3.83551
2.19682
-6.78879
0.0325641
93.2982
0.191213
11.8043
-0.150961
-0.000879433
21.7497
-4.30961
-228.695
-3.59431
-97.0956
-195.345
-2.36975
-0.375815
-0.851593
-101.708
-0.0349053
-1.162
-8.83644
-75.2875
1.88265
97.4382
1.17079
0.554781
-0.357223
-7.02238
-2.09908
-0.212447
31.1144
0.365584
-342.734
-0.603743
-0.168051
0.0236538
2.62438
-1.13985
0.202689
-0.509039
1.7726
-33.2884
-0.357542
-83.8843
-2.02527
-133.091
0.801313
-3.28606
-116.212
-131.251
23.7233
0.196826
83.5106
-2.0848
2.95244
4.86484
-1.3728
6.67298
4.29919
24.2077
-21.4394
29.8771
40.3895
347.587
-37.0084
-5.19955
-14.991
-128.322
-0.15187
6.15702
-8.22088
129.486
-0.288179
-6.21372
-144.978
0.813592
-0.355842
-0.293233
-49.8119
0.169679
10.9626
-0.0753195
-0.190221
-34.9175
-2.35321
-0.0727725
-170.497
1.06154
3.12863
-0.0508865
137.528
2.13751
199.001
0.281947
-783.683
-81.6847
-39.2678
13.5402
-391.361
0.58247
-0.0463284
-6.25154
-3.11516
-0.873506
-0.06726
-65.2481
-0.968517
144.085
0.270146
-0.149033
-49.0429
-102.17
-8.08956
-0.123282
3.01359
0.0286235
-0.0406168
-0.11373
61.6515
69.3717
-2.17646
-13.4855
0.538692
-0.192406
-0.123844
0.0285837
8.05391
-0.157951
-0.114698
-1.01891
-1.98892
-33.0198
1.4431
0.887911
4.74045
0.488715
-0.764491
-8.3832
-1.62554
-196.123
-0.0468248
6.75161
-0.2891
4.40979
0.971758
-0.162493
-2.63412
-209.75
0.210499
-9.61717
-1.89691
-0.612553
0.0324399
-0.501095
-0.0998599
1.10174
303.008
42.6941
-2.7586
-25.1385
82.0852
-0.0154519
-0.219675
28.9608
-2.36069
0.303869
-2.02045
201.482
-0.0524328
-21.0973
954.064
-80.4866
11.8967
-0.21258
-4.0425
0.186509
191.685
-0.14961
-2.16172
-6.27395
0.517336
-0.219833
-0.651198
0.913827
0.90646
-1.34085
-5.30331
-0.134132
2.58861
178.269
1.19512
-96.8918
50.7325
-3.99467
0.00697379
-1935.37
-31.6569
-1.21279
-0.347294
-11.4048
-466.228
-0.0421544
6.19834
-0.0930352
1.01577
-12.6517
23.1986
0.0035282
0.24183
-0.102555
-0.044377
1.33182
1.86683
-38.4769
14.2374
9.58957
7.56494
-6.54796
-0.444816
156.272
-1.36453
-0.564984
-8.38995
-5.85045
-0.866329
-19.9294
0.299398
0.0185453
-6.88555
-0.178374
-2.55478
14.4166
-0.592415
-0.0664556
-201.532
-0.692908
-0.21677
-62.3177
-41.9405
-0.718691
3.03897
-0.292878
1376.62
0.162083
-0.258361
-0.180849
3.71788
-0.134118
5.45831
0.0438688
4.10234
0.577223
-4.81199
-4.18581
-0.121607
88.9188
-0.714506
0.0736465
614.221
-0.0699989
0.278136
-0.811646
62.311
-0.182792
4.89773
-3.23825
0.770553
-0.0847474
285.708
0.02834
24.4749
0.183293
16.3977
-0.906428
-32.2066
-45.1536
0.0524453
-8.15879
-328.581
7.09677
0.758179
3.3449
0.318137
0.813004
-237.107
14.242
-5.66768
-17.9851
19.2724
159.724
-0.258863
-0.107894
0.26368
-0.490723
-0.0853003
2.76701
-3.21382
0.208163
4.87813
-0.592432
-3.85803
-0.100595
-0.916894
0.154123
-5.8272
-24.8258
0.0774651
-0.0693708
-113.027
-2.93741
-2.5751
163.519
0.674982
85.996
-4.02678
-0.254683
2.42889
-0.589839
-7.74403
-0.359695
0.0422415
-0.544003
17.2874
-10.7674
1.30864
-2.68838
-12.4421
-0.327203
-0.508701
-4.5003
85.3615
7.24967
-2.52592
-0.206518
7.89642
1.38768
0.645645
-7.25455
0.804594
3.44017
26.0182
3.9275
0.368146
-1.60869
-0.144858
-0.0373348
-0.959912
-6.18296
-3.91406
-1.92124
-0.952942
-0.48005
0.872618
3.62179
80.8798
-3.96947
-0.00558065
-413.67
-112.119
-122.328
-0.926397
0.224733
33.9037
0.630146
1.96882
-0.0895399
-0.171051
14.6478
-61.1009
211.379
-0.0288004
-6.24661
1.13842
-1.90513
26.6352
21.6719
4.65649
0.0662058
0.421368
15.5382
-7.45111
-0.253647
-698.399
1.32852
72.5577
31.9433
-1.0075
0.972355
-0.031952
156.753
6.59194
-1.73191
18.1534
0.130316
1.17152
-0.41923
-0.354365
-0.155492
9.2135
14.675
-0.562986
-0.169692
11.5842
-0.730987
22.7724
-2.05237
-1.02562
-0.181833
160.022
-0.133348
-0.0532425
3.52038
-2.25418
-0.964942
-0.608264
81.2902
-0.188256
-0.401007
-12.8822
-0.411278
2.24561
-18.0773
0.343674
-0.0118811
-9.54891
275.062
-211.96
0.0609875
-7.64866
-6.07053
-35.6798
0.0741071
6.1972
0.210593
-18.9375
111.466
4.07563
-0.500464
-4.91115
-0.11462
0.486773
-0.462118
2.15741
-70.2003
0.160694
-0.588103
-0.438575
-1.82381
-2825.83
2.381
12.8946
-0.268223
-250.219
0.0151547
-0.779283
-0.166346
-28.9139
29.0534
-0.289102
24.7531
1.57634
-9.59672
154.754
0.773649
190.449
-1.32361
-8.708
-19.6713
-0.0568103
2.62455
-3.00877
183.19
73.8269
-0.177756
5.26544
0.0454514
3.53627
753.357
-0.207342
-4.56964
0.79874
0.432023
32.5915
20.4427
0.414821
0.439801
0.18488
0.241944
-0.521026
-0.63365
0.847204
-2.93539
-1.81048
38.535
36.5973
-0.0677361
29.1148
3.47358
-5.80718
-94.9224
-0.0639545
-2.42581
2.04791
39.1255
54.2894
-60.137
0.304164
0.0313519
-0.367416
57.4663
0.0706049
-7.1348
-0.487519
-0.328233
-1.1171
-0.974673
-2.65634
-42.8195
-17.1145
4.02174
-0.0115204
0.932272
0.00458305
0.0658456
20.1066
-0.0325801
6.97653
-1.35103
-11.4306
11.3596
-0.0702466
-0.723837
-0.543338
-0.117064
20.2432
37.3796
-3.1636
-0.182167
-0.737897
-0.517054
-0.587876
-0.997399
0.420846
-192.314
-43.9984
-39.5849
-0.141891
-17.9435
-1.47711
0.267959
6.78899
-0.0585389
-0.262387
16.8547
2188.95
-0.826351
-1.13949
2.87575
-130.991
0.210104
-11.9065
-1.87061
14.1229
0.464791
-2.68239
0.720701
4.57055
-4.99595
285.6
-0.129803
-78.4896
-1.0172
5.16613
0.0461555
532.185
0.649918
51.7406
-3.37229
-9.78965
4.08585
7.93847
-0.157445
0.887279
0.534714
-0.355052
40.1408
1.17897
-0.0407433
0.929968
0.0486921
-1.91897
-0.118928
0.711657
6.34524
-0.30525
16.2534
-0.427239
70.4371
-0.0973807
-17.1607
0.507126
25.1155
12.4604
-0.0925352
33.5741
-19.8875
-26.1743
820.45
-6.1727
148.943
-10.5748
21.8772
-12.489
0.227023
-29.055
-0.0110642
-1.48058
0.153393
0.116051
-0.131677
48.2967
0.0803947
3.19194
-86.3661
1.18642
-0.0379019
-0.731719
-0.140232
34.8375
-0.151465
-5.98073
-0.446282
8.94887
-19.6892
-0.230855
0.825262
-7.85446
0.395039
-0.0736418
16.9783
-24.2379
25.4803
35.2244
-3.70773
-1.10547
-0.13336
-0.300188
1.74411
-1.02894
2470.7
1.33544
-46.9079
77.6779
-0.243415
0.2073
-1.17997
-0.387275
-0.0169362
2.72026
-1.94139
10.339
-21.6197
-1911.66
81.819
-6.44335
0.612486
-249.457
-2.87832
-0.0693834
-0.769762
5.35767
-38.7866
-0.0724814
5.02289
-0.383617
-0.365181
0.103149
-0.0137258
132.486
6.203
4.8497
-0.174883
0.0658717
-0.52255
15.253
401.739
-1.83993
-11.0736
-272.684
-0.755788
9.99539
28.6888
-0.405891
-83.9888
-0.150911
-4.27897
-17.7121
5.34539
0.0200194
-2.52498
26.9369
5.01963
-1.00743
36.119
-3.15322
-0.34173
1.41424
0.000394846
1168.48
0.636973
-7.1838
-0.40036
-0.0376498
-1.20634
-443.634
-0.678443
9.88159
-49.7586
-0.284401
1.21797
-0.273888
-0.197415
-9.56646
-15.3761
-1763.65
-32.7954
-19.868
81.9788
-18.8698
-87.7396
3.84988
-1.29049
18.1128
0.397521
-14.3298
-0.795627
279.43
-16.9937
-19.2511
2.68306
-0.470731
-11.4649
-19.9884
-0.43054
-77.3147
-4.87072
1.66306
-0.0621229
2.48932
4.21092
-0.0233081
-1.03022
-0.266403
-0.868946
-22.4891
49.0076
-2.9973
-93.2738
144.021
-2.95729
-1.90301
4.02723
-0.133694
382.752
-0.163691
-167.046
-0.0589256
-1.75337
14.8541
49.4887
243.915
4.86239
3.47616
-5.02874
-20.92
-1.87693
0.0153396
10.7564
1.70783
-3.05998
242.932
-2.42956
0.970569
-0.6223
0.00956157
-3.88448
1.69389
1.69169
-15.8918
-0.174289
621.538
-35.2427
-1.16402
-419.34
1206.6
75.451
-96.9526
0.663318
-29.7344
-0.0376431
8.05508
8.56058
0.535937
-128.4
-1045.19
0.37909
-0.122734
0.388692
-29.9084
-0.79209
-97.5363
0.45134
15.6217
-0.00972029
165.091
-0.937692
0.130736
-0.0351973
0.0622685
-4.76142
0.760171
-11.9022
3.391
-3.12898
-0.729225
-1.48521
-913.943
69.7921
-9.07148
-0.472247
-0.115101
0.817148
-0.120713
-71.9468
2.42081
434.387
-1.72715
0.246763
-4.97809
-1.70496
-0.0179205
-0.00386823
-0.217765
52.7209
3.60241
0.0192902
3.31393
-1.82989
-1369.45
-4.68469
-49.311
24.9732
-0.331004
-9.125
-0.0676838
-0.268725
-3.10296
-0.141071
-9.18534
-59.8269
-0.125837
-1.99741
-14.4847
0.587848
2.62771
-0.258295
-0.583551
-0.101396
-28.3714
-0.458372
0.178175
1.98855
-0.0508842
10.7986
13.1501
-0.171411
100.312
0.529512
14.9289
-42.8403
-0.227298
-13.3673
1.27757
-238.371
0.0382625
-38.2923
28.8144
0.0188467
-0.0112468
-4.5411
21.7903
-123.44
5.37071
-1.43888
1.4531
-0.196976
-0.933387
3.88304
53.9474
-4.78161
363.53
33.285
4.41719
-0.577082
-4.01134
0.323527
-5.95185
-2.88692
-14.7113
1.51009
-0.0718069
1.2831
-13.371
-0.836313
-0.8478
-0.472606
0.164425
7.94072
1.34347
0.0119793
-0.123438
59.2212
-0.136915
-20.8938
1.57349
31.258
-12.5264
-1.81709
-4.5734
7.71582
2.52631
6.62527
-0.0946672
0.65638
-1.32088
0.45867
-1.60875
-106.121
-1.35634
-5.38153
2.77369
11.7835
975.584
-0.790925
1.23139
1.37939
-43.7892
111.809
0.0567571
0.00156413
0.000489587
-6.45799
14.293
-0.895146
-6.93639
-1.38077
-1.57007
12.495
-10.0439
-0.163218
-10.8301
-0.0883019
-4.66824
193.601
-1.93557
-0.514599
-0.15366
0.250194
-1.86921
-0.237792
-0.907319
-2.77471
0.321885
2.74444
-1.42029
-7.42656
-0.0239069
-2.67555
-0.253144
-2.20815
-2.23508
0.71085
-15.8943
-0.80188
-0.546748
0.0215955
0.165199
-3.73023
-0.0495516
-2.08068
-0.348385
-0.48775
-6.20325
-0.181845
-0.322689
-1.17093
-0.0869822
8.06115
1.74245
-0.9312
0.270068
0.406935
-0.0970679
36.6413
0.0180002
11.6529
-1.61096
0.200271
-0.119334
15.4306
-0.0331176
455.007
-345.633
-0.00384266
1.38917
0.768927
10.7655
-31.9422
-97.5398
37.5996
1.51295
-14.3264
145.523
110.727
7.00995
-2.6967
-220.977
0.838084
-0.646816
0.0991501
13.1513
-34.2213
-71.7787
-2.46691
-1.38157
0.045745
0.0300413
562.89
-0.68658
58.4473
-223.703
276.924
0.200068
-0.482923
1.2151
-0.34001
-0.0903099
0.074011
-0.186737
18.4125
-3633.96
-0.358404
-38.8187
3.06793
173.249
-3.93039
-1.10221
-982.243
19.0402
0.0913567
-0.31586
-1.37286
-3.93352
48.7775
-111.644
-178.592
-4.04833
-0.0267897
5.92329
-3.58677
-3.91035
0.194814
-17.778
6.82114
11.1047
-6.66087
-24.992
-0.142933
-20.9564
-10.0208
-618.001
-0.272985
75.4788
0.666039
-6.56092
-8.11251
-97.7215
-4.52026
11.5933
-0.0119871
2.8231
1.06901
-0.332583
112.755
0.767813
-0.334691
-0.785024
8.70023
34.3986
-0.669973
-116.91
0.758331
-0.087586
15.335
-6.4845
-196.537
0.00650905
-0.35162
-0.00596081
-3.89237
-0.673849
-0.362346
-3.03115
-1.63175
2.47687
-0.357928
2.06412
4.98132
21.8239
41.6925
0.194656
-0.345055
0.078244
-0.00253426
19.883
-2.01234
-115.08
-28.7899
61.4853
-2.23604
-10.1322
26.3775
-1.29444
-0.0988861
0.0536841
0.101023
-75.2925
-4.61018
-3.50856
-0.715858
-3.40511
-0.20906
-83.6414
9.48253
-37.2737
-0.933386
-152.379
-933.616
-0.372736
-0.26918
-736.849
-133.167
129.638
-39.3495
-15.9708
-0.761961
-548.707
111.011
100.429
-1.22728
-85.8312
-0.0736965
0.499882
-4.52865
2.99841
-9.08162
554.249
-0.786591
23.8426
-0.32721
0.0957013
-1.21684
-5.88605
-9.43331
-0.350064
1.52118
-4.47353
2.36439
-0.0245222
0.0139758
-0.128401
-4.73703
-0.642597
0.0559486
174.417
-1.79485
1.82309
0.152383
-0.0406589
-0.0281049
-10.3262
0.131397
-2.17352
-0.647789
0.627216
-2.09322
3.36305
0.228751
0.259337
-0.135836
0.2174
43.9424
0.0222898
-0.420538
2109.32
-2.56392
0.577412
-0.0213619
1.21899
-0.22909
-0.348708
0.629625
0.133158
-1.01416
-0.331914
-91.63
-55.1274
0.0326243
-17.3216
12.7324
273.572
119.359
2.63609
-0.0791877
-0.0239618
1.19858
-3.51776
-41.4851
-2.37874
0.162506
0.54797
1.16271
55.7233
-3.27588
-0.153782
585.434
-13.8735
0.121843
0.534051
1.68377
3.2969
27.253
0.254495
-0.777543
5.4965
-108.905
23.6079
-0.779083
2.70693
-0.470831
-1.20461
-1.0798
1.28941
-0.180267
-10.938
5.64648
0.355479
7.97647
24.968
-16.262
-0.044308
0.644613
-1.22602
-24.3215
-0.408539
0.00579646
-628.79
-0.49891
6.67649
-15.1386
-0.0843189
0.123752
-4.74886
-11.3912
-0.346528
-6.06683
0.722418
0.01259
-59.9667
-54.3613
1.90297
-1.7317
1.14433
8.19225
-0.0625005
-0.973561
0.29437
767.272
2.24243
-0.126784
-0.46164
41.9512
8.24243
-0.0632059
-316.295
0.116932
-159.401
8.95858
-7.47903
-2.09042
-23.9105
72.3508
-0.123263
-1.73023
332.799
121.996
1.89706
1144.11
-0.875271
31.5623
9.07812
5.20507
-1391.36
0.744315
2.38521
-0.58358
3.93335
-0.628171
-0.101739
-2.04741
-8.9895
-329.995
1.83072
-0.0541346
-12.2675
433.483
199.629
-63.2885
1.03177
1.1795
-466.043
0.0694532
-3.44319
-92.5742
0.344642
-0.49578
0.106517
117.648
0.799371
-13.2374
0.0922314
0.0903607
-0.160875
16.3764
-75.9015
36.7854
0.041674
0.149177
0.0227272
5.52637
-1.7955
-0.0205404
-5.37854
0.50493
5.76506
26.1842
-6.61032
0.385069
-0.0372659
459.95
168.433
1.03248
-0.0781368
0.631104
-0.146526
-0.429118
-0.601602
125.388
-601.992
1.13358
0.207752
2.17444
-0.674605
-34.4049
3.24181
16.3419
59.9382
-7.46859
414.096
-32.265
1.92653
-21.8023
0.153554
-0.045248
3.02304
0.452494
1.36436
-0.0588158
-0.289814
1.09196
-0.155789
-0.872031
2.1076
11.3229
-0.118801
1.28604
-0.0095466
-147.496
-2.01451
56.5913
0.93995
-0.357375
106.062
0.051016
-14.2357
0.0902527
369.486
17.6821
-59.9958
-0.250567
-870.918
-53.5056
-0.0769643
-0.726966
-922.205
244.711
-22.1819
80.7247
-0.305532
-0.343026
14.1486
4.30294
-1.11255
76.4483
12.0396
-4.60085
-129.298
0.477392
1.39822
-8.74199
-0.353522
13.5175
-0.0747145
29.3366
-154.685
-0.287923
5.43932
1.07467
-14.496
-0.0637576
0.35681
0.0126359
5.71237
9.73554
-10.4292
34.567
-0.104158
1.54518
1.0296
-0.823487
0.207177
-44.3591
-54.7174
0.362473
1.32106
10.9779
0.0271459
0.581663
-7.01443
-0.0182328
0.160497
1.32668
-180.733
-14.5433
34.2019
2.37658
5.35607
-6.62474
-8.34003
-79.2479
1.28808
-0.0474729
0.425141
-0.113142
0.583533
0.24325
-4.73307
-0.0903932
-0.0627011
23.9345
6.20904
-0.126395
-4.09599
7.7329
-2.7458
-20.5165
0.0829412
-9.81994
0.120737
-837.415
-1.70439
-0.0912039
-1.05589
-264.052
0.172467
-0.482467
-192.196
-9.14955
0.16056
-0.488683
-17.3069
0.0658826
-0.0891866
-63.1517
-1.83783
47.1107
-9.24276
638.79
-0.469677
-153.949
1.1613
6.31128
-0.726398
-1.34148
-1.4017
-5.01617
72.4042
0.272033
0.0294817
-0.722254
-0.0451027
7.1584
-0.803963
0.720514
0.456341
-20.6792
71.7779
22.1314
89.0289
-4.12018
451.805
-1.29831
2.13818
-1.99106
28.5341
9.25007
-1.70188
-3.70425
0.582053
-62.7396
23.0917
-1.06335
0.288812
-7.17631
472.804
-0.37632
-34.8068
-55.6014
175.508
-0.793235
-8.80254
12.2103
-6.97774
-28.962
12.0692
-26.3963
-40.5619
0.145003
18.1903
-0.140021
-0.339728
1.38615
-2317.86
0.272162
-1.07535
5.71068
165.678
-0.34666
17.047
0.731972
-73.2869
1.00227
39.5959
0.100387
0.751807
-202.391
37.0809
-44.2741
-118.748
-562.521
1.96427
-0.457325
8.10225
-0.195348
0.216476
544.92
-0.345809
1.46828
-0.0673074
-0.576755
0.00196233
-0.692927
16.7551
-2.59727
1.54476
-14.098
-0.334204
-0.0874925
-1.07261
0.168599
-0.160157
-712.823
375.458
0.0219636
0.181103
0.380797
-0.559552
-0.291544
3.75292
141.673
-12.689
0.708321
-44.6691
0.41113
0.653504
155.419
1.34237
64.1359
0.93179
76.1284
-6.49695
-12.1567
0.0408596
619.564
-0.81043
-0.0134147
-190.168
3.78264
-0.114457
-0.366342
-0.503399
11.8448
-14.9678
-0.253506
7.38887
-0.688129
-425.541
-13.702
-15.1373
-0.617967
3.9375
-625.821
19.1166
-0.803431
-1.94005
19.659
-70.78
1.9727
-0.676996
-804.702
93.4853
0.238228
0.62764
-18.7504
-4.60645
50.2038
-34.6385
4.21725
-0.435514
59.8549
-0.147356
168.38
87.8887
-0.302341
-0.241661
10.4212
-0.078773
2.38526
-163.763
6.81329
-19.45
0.97455
-18.3026
8.49974
-178.701
-0.18668
-0.0863412
0.260715
1.40762
-38.1539
-0.336211
-7.74092
-11.3384
65.8301
34.5854
-0.848354
-0.417389
-29.5983
0.175419
-8.93662
-258.994
-38.379
0.264876
9.75696
0.672597
7.81482
-22.3825
-14.657
-16.5735
-0.649955
5.26532
1208.63
-1.83401
0.429407
0.0698924
3.80614
-3.97137
37.1555
-0.339854
13.799
-120.301
0.104154
22.2915
0.339838
-1.52764
-0.88315
-0.0137994
57.7182
-0.198601
-12.5546
-96.6174
-6.48919
-0.0863995
-63.9126
-1.6734
-11.3104
-2.43614
-0.074535
39.1469
2.99934
17.367
-2.84709
-1.04527
8.29594
-17.2144
-0.129747
22.1299
-0.220739
-88.7987
-0.111484
-0.141884
-0.440439
-2.48421
-90.6987
-22.2212
3.26385
-7.59269
-0.703625
-1.10923
-2.94486
3.24823
1.19859
-33.9218
13.4292
0.526217
-2.94039
-1.11822
-8.72439
-14.4025
-621.962
178.665
11.1048
46.3868
20.0105
0.961074
19.4319
0.0237871
2.1468
-1.29584
1.56803
-23.0703
-26.7033
-0.250926
0.122589
-28.9752
2.86656
9.32157
-0.054714
-0.202645
0.15334
672.507
-191.531
4.2798
-1204.43
-10.715
0.539965
-19.6022
0.244743
-11.7002
-1.68865
-1.46431
2.32805
1.46487
2.53028
-0.398235
1.68984
-4.71918
3.476
-0.255806
417.159
-0.564735
-0.748311
-0.172728
-7.84771
-6.36307
-0.667379
16.6354
-0.074591
2.5016
-0.325419
316.785
4.44158
1.13732
-11.3293
2.37438
0.028502
-2.27417
-1120.36
3.86397
-0.0451394
-0.220821
6.34966
3.14323
-179.641
-166.487
-129.861
-1.97989
-0.158303
-0.641795
0.107875
-0.430906
-1028.63
-1.17854
12.5311
-1.11054
-0.179138
-411.379
4.69407
-0.228408
-0.986054
15.7671
-0.20607
1.92292
623.54
-1.1592
-21.6658
-1.35585
-32.8456
-0.26568
1.1036
-8.07088
5.38519
-16.7882
20.4933
1.47161
3.10175
0.72865
-6.05588
0.174508
-5.17674
6.77553
-64.3046
-0.558361
-0.639749
-0.0456429
-7.2384
8.12347
-2.14846
-0.618641
6.18099
4.67609
-0.0374355
-17.9631
11.7346
0.30619
-0.183753
-7.88947
0.0717341
25.8519
1.12522
230.295
7.89955
-8.90527
-1.76101
17.4544
-50.7403
1.75764
-7.93858
-11.7159
-1.84532
3.58183
-0.0329488
-875.812
1.49357
0.0344465
6.40046
88.1402
0.0121272
33.727
-3.94393
2.1559
-0.0254757
-0.118863
-54.0475
8.28009
-2.7556
-11.8517
0.126067
-6.59897
265.819
-0.0233885
-9.97796
-6.11396
5.37455
-6.26868
-0.0718814
-0.312798
-1.56259
-60.9415
40.9586
0.801174
21.2587
-0.196995
-1.27933
-0.0677886
-0.17936
-0.101438
-5.02349
0.0108361
-0.2509
-614.809
9.14379
24.3017
0.795243
0.166454
-87.7581
0.344013
-0.0212584
36.5717
6.22753
1.24046
15.1958
126.771
0.0172576
-10.7002
0.584497
763.194
0.2249
-0.559708
0.0917679
15.7208
-0.775678
0.119053
31.1305
0.254583
-0.504076
-0.0231666
-6.3039
-0.0181901
-0.0488401
6.43272
91.7379
4.32743
-2.61145
189.583
-0.236279
-1.24381
-0.427935
0.456493
0.135396
-32.3328
0.504643
-4.32999
-0.0706255
-1.06582
-630.521
-1.72479
0.480186
423.347
2.29981
-0.0836635
-0.0834299
-0.240095
-1.229
-42.5955
2.45825
1.48818
-4.27971
0.0401988
-0.807109
-0.104593
-0.119482
0.0915592
-1.47871
-69.0428
-2.31656
1.65277
4.18763
-1.18568
-0.319366
0.109263
-0.0683434
-0.158588
-3.29502
-87.5102
0.373044
-0.468764
-219.644
0.016992
0.435394
-276.711
-1.91039
0.929515
0.0979179
0.265944
0.0757032
-6.29531
-18.8711
6.62363
-19.6073
167.228
-2.01026
-0.227747
-0.758526
122.292
-0.0209446
-37.7994
-264.25
-39.3216
-65.1636
0.0809483
-0.838228
0.316954
16.2883
6.75893
-3.18732
-0.441804
0.0301286
0.0284172
-0.0452484
-0.260533
-0.0357963
7.60724
-0.067807
-0.135461
1.10752
-0.136538
-2.56602
0.598305
-3.27547
260.424
0.0485735
5.74858
103.987
0.778606
-0.210864
0.0452037
-0.333665
-2.58596
-0.590169
-1.09159
0.515449
0.188206
0.313275
-1.52415
-290.244
0.00608503
-0.0157683
-0.158983
-0.219743
-0.00215594
0.137734
-0.334145
0.0952268
-25.8683
-0.790083
0.167518
-0.829215
-4.00349
-59.4195
-0.659715
-0.140046
86.2398
-8.17587
-0.537215
2.35176
-0.150755
-1.6891
-75.1007
-0.0207804
-0.0365123
-9.42644
0.135978
-0.533105
2.30946
-1.51393
55.7438
-4.90825
-5.89523
-0.0878626
-0.619731
-510.837
-0.000180071
-11.5582
-0.0999744
-8.15751
-3.0635
-0.257096
0.0677661
1.85384
-1.40632
-3.53382
5.35041
-0.12916
0.458723
-0.262787
-7.44606
0.483209
-1.28133
-4.86332
59.8529
-3.99049
-0.0538405
0.0457263
0.345602
-1.37523
-0.0456779
44.0414
2.40096
0.111606
0.779608
-2.8206
-1.57438
689.017
-0.112121
-3.07651
3.6826
-48.2557
-33.8864
-0.510924
0.567363
-0.108698
0.271906
65.747
0.106296
-6.67204
0.0338431
-2.99584
-0.00494043
13.7689
0.241811
34.1351
-0.356176
-14.7212
-7.02402
-12.668
0.0352156
0.045577
-0.177888
-4.37084
415.035
1233.97
0.13258
0.550816
0.211343
-2.03072
-5.37573
7.83331
-5.79083
-2.59272
0.0117777
-0.544798
57.4271
-18.9256
0.168189
-20.2902
9.0267
7.06675
-0.519523
-0.773361
0.0228317
-22.7718
-0.457782
1.27867
-1.74016
11.1931
-62.2973
0.216657
-17.4789
-0.0271441
-5.14796
34.2098
1.98875
33.9113
-0.170596
0.410623
0.0204655
-0.270614
-0.0852605
-0.317078
96.5633
0.377882
-0.589374
-29.4747
-1.91852
43.7201
-0.639674
13.7862
0.211649
9.21522
3.51137
63.5377
0.852886
0.030968
-0.576414
0.443133
-2.50746
-0.312046
136.067
-2.30015
-0.335676
-3.52988
-14.2967
-4.78429
-0.23166
0.826976
0.0998007
-57.7934
5.37372
-14.6225
0.185814
590.14
3.16184
5.5424
-0.505517
0.0459526
-45.4958
-422.276
-0.129908
0.445036
4.38742
-1.97878
-0.328133
0.095262
-0.520729
8.42995
0.602529
12.7306
-0.431159
-0.190915
-1.37998
-100.057
53.5162
-3.30575
3.37331
-17.6589
1.90339
19.1611
-0.157267
-0.146593
-0.190996
1.65693
-0.0729603
10.6824
-0.074586
0.0385633
-0.239162
30.7888
-0.221261
-1.46279
-7.96777
-48.5225
-1.1353
-12.3208
0.376662
1.57576
-0.0520174
-0.306284
-1.6377
-0.510998
0.0277744
0.0289068
-0.203372
-0.219291
87.1733
-48.3154
-13.084
262.679
-0.903052
-4.84339
-226.37
0.166569
-0.20356
-2.26134
492.611
41.4657
-2618.83
19.2138
0.0329357
4.65311
1.39279
2.01755
-0.0698042
34.2718
-3.88587
-226.583
-1.41292
-0.0769084
3.92317
-6.68101
-34.8372
-2241.75
13.6978
-0.0934375
-2.07996
-3.37497
-0.0138136
-18.584
-11.4079
1.91178
-0.878053
0.0972179
-3.41543
57.4709
87.1366
-0.379705
-0.973632
60.1458
24.1172
0.132859
-9.36289
0.0426098
-0.0604559
-3.01632
-0.0793184
1.49813
-20.7639
0.105452
0.836901
239.222
-10.4097
10.2124
1.27747
-175.706
1.79887
0.218743
-0.124207
14.8936
-0.0598945
0.650604
-355.106
-640.983
7.63806
-6.02176
-0.658249
-3.65285
-0.0270559
15.9699
-624.35
156.294
-0.973606
0.0230472
75.9504
-1.11573
-0.250725
-25.3677
-0.465346
-138.124
0.281171
-239.842
-0.470074
0.000279154
-0.157913
0.464865
0.289535
4.48553
0.398373
-0.815073
16.0527
-0.419227
-3.45423
15.9843
-0.0307527
4.62408
-87.748
-3.03885
1.22578
-0.362501
28.9241
74.2039
160.109
396.385
-5.14988
-0.212642
-945.307
-16.036
-0.183484
-5.2841
0.533262
-0.973603
1.42101
-0.00500172
-0.241922
-0.215705
-0.0794364
0.0966944
2.05658
371.892
-0.147757
-1770.32
0.46789
2.47624
418.032
743.319
-224.404
22.9512
0.305499
77.089
0.708734
0.00539916
-28.7894
0.445302
-7.42174
-6.24019
-7.23302
14.4062
0.000505657
-421.517
0.21554
-431.823
-2.8448
-0.101062
-69.3855
-0.771706
-1.47936
-0.348792
-0.0729336
0.0623246
-0.771125
-0.161325
5.89816
-5.33331
-0.0342846
0.151606
-0.274204
-15.0187
3.84503
-5.28914
-0.740897
-3.23227
-1.0321
16.2809
5.33105
-0.102234
3.50983
57.0772
-4.22295
-1.0259
-0.0007969
-1.53539
0.156273
0.649586
0.0169973
-2.48047
-0.767268
0.0894466
-0.0531396
-0.123908
445.371
71.2856
0.0358944
1.58698
-0.0624979
16.0429
1.4458
-47.179
-2.58538
-2.56555
-30.0126
5.99301
0.358915
2.50837
-1.58382
-66.8026
-0.0797391
-0.894937
-811.135
0.124549
404.471
0.23729
1.40757
17.2007
6.95808
-0.152296
3.49349
-1.53815
-42.0348
0.0596522
0.148003
-2.48778
-0.236907
-0.076978
1.15892
-0.475012
-5.03509
0.0578657
-8.55211
-164.327
-1.16482
1.68143
-22.0104
0.285781
-60.3928
-11.2221
1.9897
-0.299857
-0.569975
0.20735
1.63562
53.519
8.20322
-0.620695
-1.02751
-0.02932
-0.0807149
-2.12256
10.3158
-8.45805
0.134768
19.9223
-0.380598
1208.31
-49.0956
-0.420711
-6.22452
3.87607
-0.145339
1.99153
-0.185664
0.528467
5.63104
-2.74977
-0.386946
-3.98128
-0.994566
0.176276
-0.715354
-0.951479
1.27288
-79.4402
-0.482571
-0.434687
-0.0898495
-0.461977
-0.0403963
64.1613
-0.079007
-0.190203
-0.141723
-18.212
-51.285
0.815909
0.118723
-802.955
-1.88335
11.5759
0.348748
-11.7928
194.468
3.50945
-0.315425
-1.44202
-0.162521
-0.0802629
-1.05544
-0.218395
-1.9054
0.316142
13.3529
-0.0177213
0.44848
-208.573
736.418
0.30106
-0.105793
7.03121
1.24702
0.984057
-0.362843
11.0078
-0.723624
1.96113
-1.97491
51.3686
-0.0877611
-1.78623
11.4592
-163.497
-27.9422
-0.0554558
-0.458995
-3.20122
-0.136272
9.15002
0.254294
0.931718
-0.299003
-0.178232
14.3967
-354.363
-1.00177
-0.381078
-0.988198
0.0331653
-0.146854
-0.0135678
-0.402906
-0.819635
-1.08657
-0.738387
0.134572
0.0964946
-3.18248
0.27655
-3.62385
0.109456
-0.0120487
135.572
0.329978
-0.537619