/*--------------------------------*- C++ -*----------------------------------*\
| =========                 |                                                 |
| \\      /  F ield         | OpenFOAM: The Open Source CFD Toolbox           |
|  \\    /   O peration     | Version:  v2012                                 |
|   \\  /    A nd           | Website:  www.openfoam.com                      |
|    \\/     M anipulation  |                                                 |
\*---------------------------------------------------------------------------*/
FoamFile
{
    version     2.0;
    format      ascii;
    class       volVectorField;
    location    "350";
    object      U_0;
}
// * * * * * * * * * * * * * * * * * * * * * * * * * * * * * * * * * * * * * //

dimensions      [0 1 -1 0 0 0 0];


internalField   nonuniform List<vector> 
13851
(
(1.14279 0.0497017 -8.43161e-21)
(1.0688 -0.021847 0)
(1.06746 -0.0199313 0)
(-0.16001 -0.0147167 0)
(1.0019 -0.000588311 4.70741e-22)
(1.07826 -0.0341733 -1.86256e-20)
(1.05521 0.0144929 -2.14799e-20)
(1.01209 -0.000919753 0)
(0.303318 0.0502577 -3.8563e-20)
(0.991875 -0.00715227 1.29671e-20)
(1.15677 -0.0947793 0)
(1.00122 -0.00812038 2.74281e-21)
(0.981776 -0.0195821 4.75384e-21)
(0.0727368 0.0151751 3.31031e-20)
(1.09879 0.0109509 1.93531e-20)
(1.07666 0.0610457 0)
(-0.2841 0.00168324 0)
(1.0338 -0.0178798 1.27246e-22)
(1.18626 0.0214391 0)
(1.14353 0.0478252 2.31315e-20)
(1.11043 0.00348068 2.04936e-20)
(1.0389 -0.0896649 5.71108e-21)
(0.730094 -0.349752 1.03066e-19)
(1.00005 -0.000189577 0)
(1.25139 -0.00236957 3.53049e-20)
(1.08465 0.0470461 -2.45308e-20)
(1.10725 0.0967989 -2.54024e-20)
(1.17095 0.0428892 4.98932e-20)
(0.492146 0.0596285 2.84918e-21)
(1.01944 -0.0113051 0)
(-0.0529769 -0.0144992 -1.58841e-19)
(1.05544 0.0145912 6.80821e-21)
(1.13675 0.054637 -3.5329e-21)
(0.39977 0.0479908 1.02818e-21)
(1.12472 -0.0752986 -1.0651e-20)
(0.532973 0.0580452 0)
(1.00003 -0.000172618 0)
(1.28388 -0.139508 -1.61843e-20)
(0.0551888 0.0364839 1.62586e-19)
(1.00645 -0.0372831 9.32876e-21)
(0.241487 0.0315605 5.15162e-20)
(0.533233 0.0651406 -2.87242e-21)
(-0.306925 -0.00273449 0)
(1.10359 -0.45591 0)
(0.544911 0.0735105 0)
(1.01418 -0.022151 -1.38947e-21)
(1.0173 9.27931e-05 -1.3813e-21)
(1.08862 0.0670608 8.22703e-24)
(1.04486 -0.0501442 -9.21319e-21)
(0.981588 -0.017288 0)
(-0.168077 0.0071788 -1.35707e-19)
(0.97391 -0.0132362 9.41884e-21)
(1.0781 0.0622676 0)
(1.07299 0.0251616 1.06678e-20)
(0.144098 0.0161348 -3.74276e-20)
(1.00564 -0.0372974 -8.58361e-21)
(1.13857 0.0533201 0)
(0.208104 0.0270556 -6.7594e-20)
(1.0815 0.0907447 0)
(-0.02016 0.0100183 1.9299e-20)
(1.00115 -0.00748199 -7.72258e-21)
(1.10689 0.0944837 4.25284e-20)
(0.995759 -0.00301862 0)
(1.04502 -0.0559433 -6.50576e-21)
(0.874082 -0.45868 1.81914e-22)
(0.884304 -0.428926 -2.2042e-22)
(-0.0404851 0.00690963 1.28817e-20)
(0.705567 -0.128276 9.78224e-20)
(1.01957 -0.0375469 -1.45818e-21)
(-0.123575 -0.0120001 1.39364e-19)
(-0.131759 -0.0055136 -1.79867e-19)
(1.12032 0.00697865 5.00958e-22)
(0.994207 -0.0255904 -5.48967e-21)
(-0.0254753 0.00816645 0)
(1.07996 0.0225425 1.31018e-20)
(1.02121 -0.0711955 0)
(-0.25972 2.7052e-05 -9.32004e-20)
(1.01996 -0.0056766 -1.01765e-21)
(1.24859 8.12133e-05 2.79961e-20)
(1.00482 -0.0168079 1.14936e-20)
(1.02106 -0.0363286 0)
(1.25301 -0.0693871 -1.20715e-19)
(1.12143 -0.0813263 0)
(0.063308 0.0141864 -5.58716e-20)
(-0.00872375 0.0099155 -9.4276e-21)
(-0.0803669 -0.0109433 0)
(1.04362 -0.0871296 -6.40959e-21)
(0.296271 0.014802 -6.33486e-23)
(0.992329 -0.0113681 4.78988e-22)
(-0.0487332 -0.0138036 0)
(0.97302 -0.0118831 4.54727e-21)
(1.05667 0.0135752 2.89118e-20)
(-0.245246 0.000878018 1.67315e-19)
(-0.115631 -0.0100077 1.76813e-19)
(0.0182901 0.0283774 1.13625e-19)
(1.08607 -0.416989 -8.81204e-20)
(1.0095 -0.0232206 7.51963e-21)
(1.08236 0.0656168 0)
(-0.109761 0.00696734 7.15997e-21)
(1.2126 -0.188728 8.64858e-20)
(1.08322 0.0664107 0)
(0.820343 -0.122529 -4.17328e-20)
(0.821585 -0.137677 -2.13064e-20)
(0.990353 -0.0272534 0)
(1.01744 -0.0200712 0)
(1.12472 -0.00804405 1.69766e-20)
(1.01649 -0.0213367 -1.5415e-21)
(-0.111578 -0.00810908 1.90559e-19)
(1.05692 0.0135221 -1.5756e-20)
(1.03286 -0.0171662 1.70864e-21)
(1.02752 -0.124146 7.99407e-22)
(1.01509 -0.0213163 0)
(1.19649 -0.0143703 0)
(1.15244 -0.0426621 0)
(1.12143 0.0610014 1.60881e-20)
(1.07205 0.0239477 -2.63525e-20)
(1.0136 -0.00733761 -5.76079e-22)
(1.01252 -0.000757997 -2.46299e-22)
(-0.17651 -0.0132106 -1.84478e-20)
(-0.0834456 -0.0159023 4.59118e-20)
(1.11532 -0.337899 7.66631e-20)
(1.02715 -0.0143857 -3.33214e-22)
(1.01577 -0.0377227 -1.76529e-21)
(0.0997893 0.0205465 8.37497e-21)
(1.1742 0.0305881 -1.09968e-22)
(0.631855 -0.187785 0)
(1.00995 -0.0230918 -9.63226e-21)
(1.12934 -0.138818 0)
(0.247121 0.0340967 5.53483e-20)
(1.10992 0.0152545 -3.53754e-21)
(1.03523 -0.0864815 -5.06325e-22)
(1.09588 -0.0609238 0)
(1.30982 -0.147572 1.05662e-19)
(0.381425 0.0473312 4.39112e-20)
(1.16077 -0.0839197 0)
(0.00336693 0.032372 4.91429e-20)
(0.717499 -0.100489 7.30006e-20)
(-0.096977 -0.00979186 2.47476e-20)
(0.852528 -0.0799228 2.75431e-20)
(1.10553 0.0212178 2.44297e-20)
(1.25065 -0.0789567 1.09481e-19)
(0.976737 -0.0433386 0)
(0.991557 -0.0114298 0)
(0.768755 -0.290236 -2.48116e-20)
(1.20569 0.0217342 4.87635e-21)
(1.00856 -0.0716369 0)
(1.01977 -0.00525758 2.39025e-22)
(-0.105914 -0.0108712 -8.92566e-20)
(0.313415 0.0430221 -1.02903e-20)
(1.13297 -0.145713 0)
(1.08515 0.0683068 0)
(1.19593 -0.0184425 -8.1643e-21)
(1.15606 -0.0392322 -3.881e-20)
(1.18051 0.0239172 -7.43385e-20)
(0.974234 -0.0213349 0)
(0.984395 -0.00867024 0)
(1.00124 -0.00656874 -7.22679e-21)
(0.0143538 0.0313599 -1.61756e-19)
(1.10386 0.0163575 0)
(1.05897 0.00448125 -1.07109e-20)
(1.00014 -0.000390014 8.67832e-21)
(0.508331 0.0586084 0)
(1.12183 -0.00342975 0)
(1.09084 0.0678968 -3.12897e-20)
(0.076441 0.0136258 -3.1019e-20)
(0.413186 0.0671262 7.10258e-21)
(0.425163 0.0679831 0)
(-0.154172 0.00929467 1.85723e-19)
(1.02804 -0.118434 -4.92921e-21)
(0.778292 0.0476069 0)
(1.00087 -0.00694895 -5.04366e-21)
(1.01353 -0.00721082 -5.24473e-22)
(1.13778 -0.00883278 0)
(1.00095 -0.000422035 0)
(0.0473103 0.0338746 -1.04207e-19)
(1.1406 0.0862922 -5.26825e-20)
(1.09652 0.0717888 -6.94313e-21)
(1.01398 -0.00682634 0)
(1.07824 0.024004 0)
(1.09467 0.0727671 0)
(1.17125 0.0342907 -1.78996e-20)
(1.11255 -0.433783 3.87643e-20)
(1.0347 -0.107245 -2.27996e-21)
(1.10805 0.0189102 0)
(-0.321689 -0.00216074 -5.95313e-20)
(0.323383 0.0436255 4.69544e-22)
(1.13503 0.0554948 -1.78835e-20)
(0.892968 -0.0598719 -1.85865e-20)
(0.978441 -0.0237774 9.5192e-21)
(1.01804 -0.0156101 2.9999e-22)
(1.22929 0.0154789 5.85306e-20)
(1.10423 0.0154275 0)
(0.0521234 0.00934842 -1.7057e-20)
(1.07956 -0.0312743 1.94107e-20)
(1.00972 -0.0658234 4.65331e-21)
(1.08016 0.0638776 0)
(1.1314 0.0565607 0)
(1.0433 -0.00921284 -3.42199e-21)
(1.03931 -0.0250935 -5.18474e-21)
(0.716891 -0.178104 0)
(1.25316 -0.0899512 5.70027e-20)
(0.087438 0.0302034 -3.9405e-20)
(0.196256 0.0309793 0)
(1.09689 0.0135991 -3.43919e-20)
(0.988388 -0.6796 -6.82656e-20)
(0.0552829 0.0279643 0)
(0.938335 -0.0247843 0)
(1.0981 0.0274637 -2.60013e-20)
(0.295854 0.0498453 -1.89978e-20)
(1.07307 -0.0413626 0)
(1.07496 0.0587975 -2.74802e-22)
(1.01493 -0.0378696 -2.23406e-21)
(1.25439 -0.0824557 -1.77116e-20)
(1.00013 -0.00195179 -4.26091e-22)
(1.12886 -0.0701234 -2.6239e-21)
(1.02509 -0.0773541 7.10448e-22)
(0.982657 -0.0168465 -7.18897e-21)
(1.15749 0.0530564 0)
(1.0431 -0.0173901 -6.10524e-21)
(0.134009 -0.594563 -1.29085e-19)
(1.014 -0.00679653 3.15003e-22)
(1.14617 0.0442327 0)
(0.0427659 0.0106587 5.63757e-20)
(0.0223005 0.0320242 6.49369e-20)
(0.906586 -0.0761422 0)
(1.09798 0.0281275 2.08412e-20)
(1.00004 -0.000890078 0)
(0.754723 -0.290734 2.41634e-20)
(1.00152 -0.0122981 0)
(1.12476 -0.0712541 0)
(0.0240169 -0.0414625 -4.52209e-20)
(0.899558 -0.070938 -3.13469e-20)
(1.07314 -0.0407307 0)
(0.996498 -0.00124027 1.03845e-21)
(0.181268 0.0302999 3.07617e-22)
(1.02013 -0.0108529 8.00354e-22)
(1.02732 -0.46454 0)
(0.177538 0.0286164 -6.38755e-20)
(1.20514 -0.172177 0)
(1.00009 -0.000439821 -1.00253e-20)
(1.27526 -0.298038 0)
(-0.000599179 0.0102403 -7.21358e-20)
(0.582316 0.0761779 0)
(1.07625 0.0597545 0)
(1.10137 -0.0110506 0)
(0.730906 -0.324249 -6.21818e-20)
(1.15609 0.0494254 3.24707e-20)
(1.07782 0.0252817 0)
(1.09009 -0.405274 0)
(1.04627 -0.127171 7.80361e-21)
(0.21129 0.0136661 0)
(1.16038 0.0233171 -9.04998e-20)
(1.00929 -0.00110759 4.07156e-24)
(1.07823 -0.0133664 0)
(1.08076 0.064381 -1.32678e-21)
(0.498874 0.0553403 0)
(0.39447 0.0151462 2.11305e-21)
(1.01758 -0.0144239 -2.8556e-22)
(0.597007 -0.208013 0)
(0.993147 -0.0120728 2.52841e-20)
(1.13937 0.0644772 -7.08919e-20)
(1.17624 0.0291617 -3.38674e-21)
(1.08051 -0.0115992 0)
(1.1219 -0.00169661 -7.6235e-20)
(1.16346 0.019062 9.36556e-20)
(0.999612 -0.0233738 -1.85738e-20)
(0.816909 -0.117613 4.98676e-20)
(1.09403 0.0624226 0)
(1.17532 0.050929 -1.94005e-20)
(0.997867 -0.00804322 0)
(0.982721 -0.0163683 -9.01712e-22)
(0.902609 -0.0716805 2.09006e-20)
(0.406142 0.0621501 0)
(-0.228375 -0.0068238 0)
(1.11335 0.00972257 3.10989e-20)
(1.02813 -0.0152373 1.93643e-21)
(1.17159 0.0351542 4.18827e-21)
(1.17845 0.0265487 9.77287e-20)
(1.1232 0.0543716 -4.16098e-20)
(1.11996 -0.000850344 6.23107e-20)
(0.370604 0.0572227 0)
(-0.0861666 0.00569781 -2.67439e-20)
(1.08328 -0.0192125 0)
(1.0934 0.0100688 -5.84937e-20)
(1.24745 -0.183165 0)
(1.01919 -0.0198048 -2.35743e-22)
(1.00139 -0.0060741 -3.74192e-21)
(1.12614 0.0540913 -9.56457e-21)
(1.14162 -0.104764 4.82952e-20)
(1.02145 -0.011 2.49101e-21)
(1.00013 -0.00171303 -6.67258e-21)
(1.00144 -0.013374 0)
(1.00386 -0.000713476 -5.25026e-23)
(1.09772 -0.00266288 -8.71941e-20)
(1.00144 -0.00640101 1.08993e-20)
(0.316769 0.0522978 1.94496e-20)
(1.11178 0.00725876 0)
(1.01118 -0.0312652 -3.95872e-21)
(0.504022 0.0537596 0)
(0.0857561 0.0197404 0)
(0.975546 -0.0186987 0)
(1.1466 0.0440071 -1.9677e-20)
(-0.138166 0.00611821 1.59228e-20)
(0.976238 -0.0440564 0)
(0.974234 -0.0179156 0)
(1.11447 0.00539136 0)
(0.0349992 0.00956629 -4.2007e-21)
(0.333767 -0.00415801 -7.96794e-20)
(1.13862 0.000537788 4.98244e-20)
(1.00211 -0.000494412 -1.90861e-21)
(0.809734 0.0480193 0)
(1.00092 -0.0076163 0)
(1.14428 -0.000887863 4.90182e-20)
(-0.123682 0.00844316 0)
(1.17744 0.0537157 9.64922e-20)
(1.05757 0.00375483 7.54038e-21)
(1.28977 -0.194787 -1.94072e-21)
(1.30113 -0.155456 0)
(-0.0822304 -0.00582472 -1.47908e-19)
(1.19768 -0.0225277 0)
(0.793095 -0.0831736 -4.93563e-20)
(0.0496159 0.0353994 8.53215e-22)
(0.14712 0.0261758 1.63592e-22)
(1.17241 0.0426937 -5.34321e-20)
(1.04059 -0.0264728 5.69949e-21)
(-0.229413 -0.00489448 -1.07665e-19)
(0.226193 0.00631865 3.80639e-22)
(0.477482 -0.476181 -1.45357e-19)
(0.550441 -0.452295 1.27284e-19)
(0.937921 -0.0194376 1.3472e-20)
(1.14106 -0.00403312 -6.32778e-20)
(0.950794 -0.109686 0)
(0.305816 0.0154365 1.34322e-20)
(0.798441 -0.129394 4.77853e-20)
(1.00758 -0.00187529 3.00574e-21)
(1.01747 0.000117342 1.46567e-21)
(1.06897 -0.0754993 -1.9598e-20)
(-0.111138 -0.00872375 2.03464e-19)
(0.270505 -0.557968 1.20677e-19)
(1.0193 -0.0193603 3.73763e-22)
(0.00756296 0.0294336 -1.17365e-19)
(0.942075 -0.107187 -1.90218e-20)
(1.09648 -0.0633118 -1.01277e-20)
(1.05908 0.00492877 1.1829e-20)
(0.0249814 0.00773385 -2.58246e-21)
(1.16972 0.037523 0)
(1.07874 0.0628076 0)
(1.02278 -0.0762947 -8.86361e-23)
(1.07043 -0.0386663 2.2387e-20)
(0.586799 0.0510188 0)
(0.978495 -0.0238106 -3.00835e-20)
(1.18062 0.0243036 -3.89159e-20)
(1.08207 -0.0176852 0)
(1.11548 0.00474336 0)
(0.935229 -0.115983 0)
(0.992461 -0.012063 -1.72705e-20)
(1.01172 -0.0305273 3.87354e-21)
(1.2157 -0.073907 0)
(1.22286 -0.174322 2.82574e-21)
(1.15869 0.0273687 -9.75557e-20)
(1.31207 -0.154961 -1.02778e-22)
(0.597433 0.0532063 1.75075e-21)
(1.00962 -0.0685392 0)
(0.159365 0.0279922 3.44093e-20)
(1.14737 0.0648981 -1.93235e-20)
(1.02601 -0.00737197 -1.74671e-22)
(1.17218 0.0528621 -8.41661e-20)
(1.13579 0.033557 1.61688e-20)
(-0.0958091 0.00855078 -5.13618e-20)
(1.06679 -0.0725698 0)
(1.08074 0.0488084 0)
(1.08224 0.0889449 0)
(1.30069 -0.0773325 8.98948e-20)
(1.21506 -0.0878205 1.34433e-22)
(0.290088 0.0172614 2.09831e-21)
(1.04399 -0.0360434 -5.29529e-21)
(1.14345 0.086434 6.47333e-20)
(-0.30404 -0.00185587 0)
(1.09665 -0.0231104 4.08759e-20)
(0.231376 0.0196387 3.14186e-20)
(1.10284 -0.0239841 -1.96583e-20)
(0.206897 0.0302859 -6.22627e-20)
(1.09276 0.00764919 3.54565e-20)
(1.07585 0.0367816 1.51686e-20)
(1.16491 0.0173539 0)
(1.24218 -0.150961 0)
(0.984554 -0.00967517 0)
(1.08051 -0.0231248 1.16021e-20)
(1.14561 -0.109576 4.58817e-21)
(1.0796 0.0237506 0)
(1.01238 -0.0235689 0)
(1.113 0.0106807 -3.36738e-20)
(0.68073 0.0638888 1.42976e-21)
(0.995195 -0.0252769 -1.32539e-20)
(1.09976 0.025832 0)
(-0.189519 -0.0120174 2.26073e-19)
(1.0638 -0.036642 -1.11066e-20)
(1.21851 -0.444674 -9.44943e-20)
(1.08518 0.0344754 -2.44791e-21)
(0.406635 -0.00636925 0)
(1.075 -0.0426659 1.90409e-20)
(1.08446 0.0456021 0)
(0.943877 -0.650443 7.97465e-20)
(1.17608 0.029581 1.50292e-20)
(1.12544 -0.011737 1.64702e-20)
(0.374881 0.0115307 8.10102e-24)
(-0.0194096 0.00785505 8.90957e-20)
(1.2493 -0.303904 0)
(0.998835 -0.024 -7.57677e-21)
(1.21126 -0.0655695 0)
(1.10423 -0.0304896 -4.22532e-20)
(1.08148 0.0487197 0)
(1.02587 -0.0163406 -3.83995e-21)
(-0.311452 -0.0046176 2.01288e-22)
(0.628417 0.0540378 -2.82127e-20)
(1.27726 -0.0422948 -1.89794e-19)
(1.07028 -0.0373164 -2.14695e-20)
(1.16512 0.0191899 0)
(1.1171 0.0943987 -5.52035e-20)
(-0.216445 -0.00786208 0)
(1.02254 -0.00254387 1.95848e-21)
(-0.263289 -0.00279653 -1.24326e-19)
(1.25296 -0.138154 1.45335e-20)
(0.490637 -0.278502 2.37193e-21)
(1.05161 -0.125168 -1.02454e-20)
(1.1735 0.0326132 -9.85124e-20)
(0.988226 -0.0157829 1.54215e-20)
(1.00116 -0.0004006 -2.22683e-21)
(0.136186 0.0130838 4.47939e-20)
(1.12322 0.0925627 4.98016e-20)
(0.99102 -0.00809407 -7.63219e-21)
(1.06882 -0.0221833 4.69561e-21)
(1.10166 0.0257173 -7.20771e-21)
(1.01196 -0.00805987 -9.35473e-22)
(0.699205 0.0566821 0)
(1.14123 -0.005744 1.39279e-20)
(1.13549 0.0332389 0)
(1.07275 0.0019887 8.16836e-21)
(1.04438 -0.0361523 0)
(0.972317 -0.00699755 0)
(1.30137 -0.08325 0)
(1.01012 -0.0297023 0)
(0.973651 -0.00588298 0)
(0.960935 0.0897323 5.47312e-21)
(0.707512 0.0618067 0)
(1.032 -0.0869692 0)
(1.08632 0.0859867 1.56836e-20)
(0.995939 -0.00259484 -1.16736e-21)
(1.00152 -0.00612882 -3.65266e-21)
(1.06658 -0.0385203 3.37036e-20)
(1.16034 0.0244866 1.05746e-19)
(1.08204 0.0363418 -2.16007e-20)
(1.01256 -0.0248336 0)
(1.05348 -0.0285991 1.1304e-20)
(1.11753 -0.326187 3.94648e-20)
(1.06135 -0.0147933 -1.43842e-20)
(0.456392 -0.0226692 0)
(1.00146 -0.0077681 -3.81248e-21)
(1.07267 0.0134318 1.67093e-20)
(0.553632 0.0749908 7.739e-21)
(0.941205 -0.155447 0)
(1.01699 -0.000525672 -3.07551e-22)
(1.00045 -0.0065583 -5.62181e-21)
(1.07256 0.00149288 -4.21601e-21)
(1.04613 -0.00787003 0)
(1.23754 -0.351372 4.94398e-20)
(0.893812 0.0846374 -5.06968e-21)
(1.10192 -0.00904569 4.93472e-21)
(0.267789 -1.20012 0)
(1.0682 -0.0355911 -1.75854e-20)
(1.00021 -0.0100516 -6.55195e-21)
(0.275025 0.0398444 -2.71626e-20)
(1.08531 0.090329 1.56303e-20)
(0.885807 -0.116981 0)
(0.996227 -0.0285859 0)
(0.13115 0.0248327 3.86445e-20)
(0.865913 -0.0915602 5.16639e-20)
(1.15897 -0.584375 -1.84241e-20)
(0.989791 -0.0266458 -1.25075e-20)
(1.09735 -0.0562127 0)
(1.21683 -0.0772402 0)
(1.08589 0.0205053 0)
(0.184835 0.0299277 2.43966e-20)
(1.11575 0.0915807 5.42652e-20)
(1.28626 -0.043678 1.55517e-19)
(0.977632 -0.0686144 0)
(1.19851 -0.0215677 6.88345e-22)
(1.00072 -0.0246852 6.13758e-21)
(0.480072 0.0570546 0)
(1.08589 0.0350399 8.67903e-21)
(1.12923 0.056358 0)
(1.10288 -0.0285724 3.5641e-20)
(1.02382 -0.07114 -6.74869e-23)
(0.948311 -0.146986 0)
(1.13797 -0.00816855 1.26198e-20)
(1.00163 -0.00052583 0)
(-0.243672 -0.00389129 0)
(0.242525 0.0360893 0)
(0.499591 -0.0279775 6.61552e-20)
(-0.142301 -0.0207095 -1.71303e-20)
(0.907424 0.0877236 4.82793e-21)
(-0.207609 0.0103854 -3.96759e-20)
(1.17841 0.02617 -7.25629e-20)
(0.916304 -0.0743207 0)
(0.999642 -0.00251318 -1.05816e-20)
(1.22267 -0.449024 -5.41099e-20)
(0.991794 -0.00725737 -1.00254e-20)
(1.012 -0.0229235 9.02331e-23)
(0.913072 -0.0916282 1.64216e-20)
(0.0738247 0.0359583 6.32341e-20)
(1.06618 -0.014313 -2.25656e-20)
(0.972296 -0.0390672 -1.34395e-22)
(1.0764 -0.256075 -6.21737e-22)
(1.13131 -0.0304773 0)
(0.989702 -0.00235238 1.11433e-21)
(0.81832 0.0351009 6.82987e-20)
(1.00827 -0.0224034 -5.79537e-21)
(0.292487 0.0390644 -2.68791e-20)
(1.23334 -0.345627 -1.59129e-19)
(1.00523 -0.0173561 0)
(1.06086 -0.00685132 -1.64752e-20)
(1.25317 -0.11255 -6.5844e-20)
(1.17503 0.0497823 -1.13416e-20)
(1.02085 -0.0114729 1.26091e-22)
(1.15263 -0.10174 0)
(1.15581 -0.403514 1.03615e-19)
(1.02944 -0.0014934 0)
(-0.0330703 0.0137122 3.41737e-20)
(1.18413 0.0242346 -4.34794e-21)
(1.14856 0.0401515 0)
(0.976426 -0.0676634 1.757e-20)
(0.969252 0.0922628 -2.16216e-20)
(-0.0476252 0.00824594 3.32224e-20)
(1.03015 -0.00218612 -2.77728e-21)
(1.20778 0.00128134 1.21138e-19)
(1.01773 -0.0386985 -2.00723e-21)
(1.00849 -0.022363 2.89493e-21)
(1.00835 0.0673208 9.52275e-22)
(0.212424 0.0314501 7.60889e-20)
(1.1151 -0.0281109 0)
(1.08097 0.036149 1.80664e-20)
(0.990958 -0.00584259 -1.33075e-20)
(1.09002 0.042303 0)
(0.27948 0.0367265 -3.40764e-22)
(0.0185484 0.0331583 1.1004e-19)
(1.03342 -0.00495574 7.7736e-22)
(-0.263367 0.00429572 0)
(1.0124 -0.0248 0)
(1.019 -0.0377825 1.65012e-21)
(1.12592 -0.00892989 2.23437e-21)
(1.06885 0.0185532 0)
(1.02266 -0.00223502 1.08346e-21)
(1.01797 -0.0702143 -1.60885e-21)
(-0.0157647 0.0150081 0)
(1.2376 -0.143148 -5.06573e-20)
(-0.0495754 0.0134614 0)
(1.0643 -0.0155399 -1.69048e-20)
(0.993297 -0.0124879 -1.39416e-22)
(0.43303 0.0650907 -8.42232e-21)
(0.999407 -0.00395531 0)
(1.20967 -0.0579853 0)
(1.07628 0.0081085 2.52219e-20)
(1.08165 0.0210866 -2.93346e-20)
(1.10213 -0.0142188 8.72756e-21)
(0.679485 0.0839503 0)
(-0.072293 0.00694742 0)
(1.07911 -0.0283335 -2.01016e-20)
(-0.258581 -0.00353255 0)
(1.05646 0.00136422 3.73204e-21)
(1.14721 -0.0193605 0)
(0.543194 0.0679609 9.3836e-21)
(0.169996 0.0230928 1.13173e-21)
(1.01134 -0.0386389 -4.34073e-21)
(1 -0.0251162 7.57979e-21)
(0.824864 -0.158647 0)
(-0.0376881 0.015622 0)
(1.07257 0.0727536 -3.43327e-20)
(1.08886 0.0420035 0)
(1.12434 -0.567933 1.75754e-20)
(1.06883 0.0183961 0)
(1.09068 0.00912696 0)
(0.163727 -0.0597605 -8.78209e-20)
(0.765056 0.0322775 9.70374e-20)
(1.09054 -0.322203 -3.74802e-20)
(0.273515 0.0382514 0)
(1.12044 0.0732884 -9.56521e-21)
(0.602925 0.0604027 -5.49205e-21)
(1.04028 -0.0350812 1.47593e-22)
(1.07932 0.0908598 0)
(1.20073 0.0275812 0)
(0.999893 -0.00909775 6.38111e-21)
(-0.24214 0.0038512 -8.37072e-20)
(0.541004 0.0506476 3.89014e-20)
(1.03288 -0.118621 4.53046e-21)
(1.10754 0.0182348 -2.58037e-20)
(1.00258 -0.0344727 3.69117e-22)
(0.652964 -0.8061 -3.49424e-21)
(1.13893 -0.172456 0)
(0.794099 -0.242608 2.07387e-19)
(1.00958 -0.0317045 -4.71719e-21)
(1.00066 -0.000456611 0)
(0.91536 -0.0431478 0)
(1.13028 -0.0349519 1.12884e-20)
(1.00144 -0.00735881 0)
(0.0428046 0.0332698 -1.08131e-19)
(1.00077 -0.000588431 3.25513e-21)
(1.12032 0.0737316 0)
(0.971912 -0.0647386 5.64984e-22)
(1.08208 0.0485993 -6.07819e-21)
(0.991415 -0.0268482 -1.34446e-20)
(0.989028 -0.00239439 -1.29667e-20)
(1.09411 -0.158102 0)
(-0.261821 0.00165333 2.35343e-19)
(1.12663 -0.0149369 -6.80135e-20)
(-0.00984314 0.0306216 1.36411e-20)
(1.09793 -0.0574612 5.19995e-21)
(1.01212 -0.00943941 -1.16848e-21)
(1.02904 -0.00958087 3.09658e-21)
(1.13989 -0.0127447 -3.20397e-21)
(1.05252 -0.0294602 1.85502e-21)
(1.17469 -0.0235675 9.84355e-20)
(1.07035 -0.0171733 -1.33547e-20)
(0.882073 -0.115864 0)
(1.07684 0.088005 0)
(0.999313 -0.003564 5.72698e-21)
(0.402947 0.0099486 0)
(1.00005 -0.00114496 6.81807e-21)
(1.07931 0.052549 3.13482e-20)
(-0.243597 -0.00447671 0)
(0.495758 0.0744972 0)
(0.885652 -0.0255089 3.30584e-20)
(0.983382 -0.319729 -1.78331e-19)
(1.06056 -0.262973 -4.31823e-20)
(1.21894 -0.236432 -4.75517e-20)
(0.507053 0.0517766 0)
(1.03588 -0.00622537 -1.56913e-21)
(0.721152 0.038064 2.92805e-20)
(0.94508 -0.117444 0)
(1.09896 -0.0230491 -9.0909e-21)
(-0.135523 -0.0223969 1.19964e-19)
(1.22661 0.00997191 -8.49735e-21)
(1.02657 -0.00792281 -2.10484e-21)
(1.17336 -0.0269346 -9.56326e-20)
(1.04261 -0.00842306 -3.41639e-21)
(0.564406 0.0556815 1.0979e-21)
(-0.193814 0.0100338 -4.13721e-20)
(1.02397 -0.0378593 -4.46229e-24)
(0.705665 -0.140062 -9.50983e-20)
(0.692263 0.0528409 5.4781e-20)
(0.999958 -0.00107988 -9.04396e-21)
(0.999955 -0.00108634 -6.83173e-21)
(1.08371 0.0466463 3.25254e-20)
(0.384754 0.00762619 1.15742e-21)
(1.0246 0.0967424 -1.6481e-20)
(0.973573 -0.0165985 4.25978e-21)
(1.16699 0.0156027 5.53042e-21)
(1.05898 -0.0162513 7.10927e-21)
(0.987926 -0.00358052 0)
(1.07191 0.0855911 3.38757e-21)
(1.16692 0.0160253 0)
(1.21684 -0.158797 3.67127e-20)
(1.02116 -0.00213336 0)
(1.09612 0.0614445 2.8038e-20)
(0.912854 -0.204437 0)
(1.08336 0.0437963 5.68251e-21)
(0.959329 -0.0181155 -3.96028e-20)
(1.00843 -0.0638268 5.67913e-22)
(1.13206 -0.171683 0)
(0.918784 -0.0485448 0)
(1.09195 0.0640192 -1.06955e-20)
(1.11781 0.0108253 3.09824e-20)
(1.12039 0.00720208 4.99309e-22)
(1.0845 -0.304012 5.03687e-20)
(1.13695 -0.594646 -6.95393e-20)
(1.18684 0.0218554 -7.99549e-22)
(0.768279 0.0922115 8.28768e-23)
(1.20846 -0.09806 0)
(1.08608 0.0671209 0)
(0.105965 0.0205092 3.04057e-20)
(1.02742 -0.163244 -7.14527e-21)
(0.990839 0.0698471 0)
(1.14876 0.0404721 0)
(1.03022 -0.018346 0)
(1.08965 0.00665428 -1.64107e-20)
(1.18551 0.0179188 -1.20273e-19)
(1.05554 -0.0814507 -1.41585e-20)
(1.0048 -0.0164379 1.5139e-22)
(1.00527 -0.0153994 -5.09646e-21)
(1.08089 0.0539119 1.47859e-20)
(0.28603 0.0136091 6.3033e-21)
(1.07421 0.0137439 -1.75826e-20)
(0.143095 0.0258732 3.50421e-20)
(1.01203 -0.00935551 -1.17143e-21)
(1.01295 0.0981977 3.24039e-21)
(1.00922 -0.33657 0)
(-0.147136 0.00582231 1.53245e-19)
(1.17431 -0.0279575 -4.88606e-20)
(1.07798 -0.042822 -2.04954e-20)
(1.06801 -0.0185681 -1.27031e-20)
(-0.136377 0.00932998 -5.51967e-20)
(1.21649 -0.161494 -1.34862e-19)
(1.02867 -0.162842 6.57683e-21)
(1.12133 0.0918859 -1.1712e-20)
(1.04423 -0.0317567 0)
(1.23267 -0.42611 0)
(1.07983 0.0534579 -8.51547e-21)
(1.12357 0.0733358 -1.93419e-20)
(1.10246 -0.0407475 9.83486e-21)
(1.2688 -0.124257 0)
(0.988924 -0.017441 1.01526e-20)
(1.00008 -0.00149491 4.3334e-22)
(0.942936 -0.0148528 3.54077e-20)
(0.987189 -0.00411685 -2.18965e-21)
(0.520008 0.0673185 0)
(1.00364 -0.000827127 0)
(1.07191 0.0839218 0)
(0.392779 0.0612985 0)
(1.17938 -0.0337875 0)
(0.0383451 0.0353872 0)
(-0.0978651 0.00743642 0)
(1.12673 0.0712432 0)
(1.22877 -0.214304 1.24848e-19)
(0.888437 -0.0377627 -2.71192e-20)
(0.998686 -0.000340226 -1.34888e-20)
(0.983889 -0.0146759 9.76024e-22)
(1.01905 -0.00570831 0)
(1.0283 -0.009869 -3.96254e-21)
(1.00091 -0.000404523 -2.30424e-21)
(1.14545 -0.0126861 0)
(1.18957 -0.00927179 -6.47013e-20)
(0.90942 -0.208727 0)
(1.17561 0.044719 -9.91711e-20)
(1.02378 -0.0591382 -1.45512e-22)
(0.286785 0.0481731 -9.32912e-21)
(0.999996 -9.79468e-05 -4.22846e-21)
(-0.126769 -0.0187103 -2.47016e-19)
(1.11459 -0.0822282 -8.74144e-21)
(0.999952 -0.000285418 -1.21061e-21)
(0.997187 -0.00143322 -7.99744e-21)
(0.473701 0.0733711 2.73201e-20)
(1.07947 -0.0344452 1.40407e-20)
(1.0407 0.112345 1.30421e-20)
(0.554143 0.0487338 4.97214e-21)
(1.10426 0.0184739 0)
(1.12832 0.0202209 -1.58573e-20)
(1.02894 -0.000841477 -2.15257e-21)
(0.36096 0.0435805 -4.54479e-20)
(0.987163 -0.0770501 0)
(1.06735 -0.0155892 2.37283e-20)
(1.07518 0.0866362 0)
(0.998711 -0.000756179 6.49935e-21)
(0.976244 -0.0418237 -5.64843e-21)
(1.03359 -0.0104365 0)
(1.08804 0.0335104 2.15495e-20)
(0.246698 0.015594 1.69673e-20)
(1.08944 -0.0531464 -2.72715e-20)
(1.10311 -0.0358367 -3.85121e-20)
(1.25502 -0.144138 0)
(-0.0160115 0.0304861 -1.12268e-19)
(0.890358 -0.0506313 -3.65713e-20)
(0.990272 -0.0983254 0)
(0.582169 0.0663272 -2.6821e-22)
(1.01866 -0.00532944 0)
(0.570385 0.0635287 -4.67297e-21)
(1.00035 -0.00110573 -2.5858e-21)
(1.06131 -0.0141947 0)
(1.24672 0.00183254 -3.43778e-20)
(1.10532 0.0493994 6.2339e-20)
(1.12326 0.0594444 0)
(1.1804 -0.0891394 -8.93101e-20)
(1.12688 -0.0138262 9.58402e-21)
(0.999503 -0.00070698 -6.16594e-21)
(0.999997 -0.000163872 -8.88901e-21)
(1.15083 -0.015497 0)
(1.04181 -0.0348377 -3.74395e-21)
(0.999609 -0.000518512 -1.10811e-20)
(1.07248 0.0167287 0)
(1.24719 -0.186708 -1.27573e-19)
(1.00457 -0.00513137 -5.65472e-21)
(1.20674 -0.243222 9.22907e-20)
(1.23276 -0.428175 6.65459e-20)
(1.06354 0.110081 1.03021e-20)
(1.17951 -0.0846981 5.68495e-20)
(-0.00184419 -0.0227181 8.88691e-20)
(0.843647 -0.0970215 5.79788e-20)
(0.998537 -0.000653801 0)
(1.21428 -0.0980622 3.5385e-20)
(1.01143 -0.00977846 0)
(1.08068 -0.0225216 -2.60879e-21)
(0.816505 0.0965524 -1.58287e-20)
(0.608753 0.0503128 6.38506e-21)
(0.724591 0.0363382 2.19623e-20)
(0.628455 0.071328 0)
(1.02729 -0.0403868 0)
(1.02377 -0.0379077 4.47398e-24)
(0.984837 -0.267705 4.5083e-21)
(1.00455 -0.0608437 -9.90343e-22)
(1.02125 -0.0179212 0)
(0.777679 -0.382383 1.014e-19)
(1.13858 0.0643076 2.51836e-20)
(0.211062 0.0214151 0)
(1.07844 0.0522902 -3.53355e-20)
(1.10708 0.0492124 -4.31831e-20)
(0.985917 -0.00602755 2.83002e-21)
(1.01934 -0.0115891 0)
(1.27501 -0.304955 5.77729e-20)
(1.1369 0.0306202 6.44564e-20)
(1.06334 -0.0134428 2.01825e-20)
(0.999781 4.82356e-05 -2.42936e-21)
(1.11841 0.0613084 -2.1597e-20)
(1.20746 -0.0298424 -1.03945e-21)
(0.156568 0.0270365 0)
(0.974248 -0.0212536 0)
(1.00084 -0.00326608 5.56398e-21)
(0.227749 0.0124031 -1.36088e-20)
(0.959918 -0.0194711 3.22621e-20)
(1.10264 -0.0193696 4.77762e-21)
(1.01156 -0.00762799 0)
(0.0947583 0.0362588 0)
(1.00872 -0.000615796 -1.71682e-21)
(-0.235299 -0.00430144 0)
(0.995242 -0.00576524 1.36353e-20)
(1.19467 -0.182431 7.63007e-20)
(1.10771 0.000984283 -2.39134e-20)
(0.964036 -0.273428 5.37528e-21)
(1.10373 -0.03767 5.85223e-21)
(0.993548 -0.0243898 0)
(1.06845 -0.0263151 0)
(1.00316 -0.00393527 -6.20978e-23)
(1.06872 0.0809973 -5.70608e-21)
(0.963411 -0.0273181 0)
(0.413193 0.0202286 -1.83538e-21)
(1.04608 -0.0321529 -2.69466e-21)
(1.06082 0.084806 -2.78488e-20)
(0.31681 0.0454347 0)
(1.09761 -0.0437976 -1.94477e-20)
(1.00383 -0.00279592 -2.57375e-21)
(-0.16289 -0.0172682 -5.82211e-20)
(0.887416 0.0907796 -3.05637e-21)
(1.0814 -0.0281283 4.26414e-20)
(1.10312 0.0501984 -4.19472e-20)
(0.983872 -0.0145724 0)
(0.343389 0.0127145 0)
(1.03108 -0.0194525 1.59222e-21)
(1.18664 0.0182414 0)
(0.999278 -0.00988944 7.04991e-21)
(1.00349 -0.00367968 2.72427e-21)
(1.06238 0.113758 1.89482e-20)
(1.10253 -0.0131577 0)
(1.00049 -0.00706674 0)
(1.07443 0.0251467 7.13271e-21)
(0.198706 0.0281773 0)
(0.732974 -0.800498 1.20806e-20)
(0.645427 0.0511079 -5.69104e-20)
(1.01673 -0.0149698 2.78894e-22)
(0.125016 0.023726 -6.61274e-21)
(0.997694 -0.0088989 8.90854e-21)
(1.00441 -0.00493848 4.27317e-21)
(0.97558 -0.024197 -1.10319e-20)
(1.01768 2.52269e-05 0)
(0.999837 -0.00176362 -5.28575e-21)
(0.598448 0.0484402 4.55335e-20)
(0.778255 0.087795 0)
(1.04346 -0.0177957 0)
(1.00084 -0.000858958 -5.63811e-21)
(1.11605 -0.0274279 2.60173e-20)
(1.01561 -0.0221125 -8.92767e-22)
(-0.128861 -0.0200521 -5.07034e-20)
(1.21711 -0.0932623 -1.06023e-20)
(0.0851851 0.0164998 -4.88307e-21)
(0.0618853 0.0364169 -5.17716e-20)
(1.06822 -0.0248229 0)
(1.09363 0.0643734 0)
(0.999894 -0.00929625 6.7735e-21)
(1.11031 0.00393548 -2.20642e-20)
(1.00591 -0.329801 1.8434e-21)
(1.03511 -0.00536599 6.57946e-21)
(1.00029 -0.00110817 7.16386e-22)
(1.27739 -0.290439 0)
(-0.183833 0.00995305 -4.4248e-20)
(1.1261 0.0225689 0)
(-0.320229 -0.00159181 7.35414e-20)
(1.11102 0.0324577 0)
(0.996078 -0.0036538 0)
(1.12108 -0.0390343 -3.30532e-20)
(1.1022 0.0500945 4.01512e-20)
(-0.268915 0.00445411 -1.39927e-20)
(1.09593 -0.00514754 0)
(1.10089 0.105205 -1.26148e-21)
(1.14008 0.0295326 -8.90693e-20)
(1.00026 -0.00221124 8.77745e-21)
(0.517458 -0.139836 0)
(0.431164 -0.111808 0)
(0.280582 0.0224989 7.17363e-21)
(1.23235 0.0140603 8.06327e-21)
(1.01694 0.0628555 -5.96544e-21)
(0.981037 -0.0685399 4.60036e-21)
(0.73789 -0.355385 6.742e-20)
(0.973833 -0.00448538 -1.05945e-20)
(1.16838 0.0727096 -6.22666e-20)
(1.05445 -0.0769235 1.27777e-20)
(1.00744 -0.00135982 -2.27015e-21)
(0.605716 0.0498395 -6.33957e-20)
(1.01952 -0.0588011 4.18153e-21)
(1.00367 -0.00235265 0)
(1.01304 -0.0381033 4.6534e-21)
(1.01807 -0.0573377 -5.23321e-21)
(0.0626185 0.0339416 0)
(1.18239 0.0217288 4.29231e-20)
(1.01134 -0.013929 -1.2499e-21)
(1.12286 -0.0350543 0)
(0.0482629 0.0116736 7.23274e-20)
(1.03667 -0.0536418 0)
(-0.318892 -0.00110248 1.05294e-19)
(0.95995 -0.0425004 0)
(1.11229 0.0431609 2.57035e-20)
(0.177674 0.0317923 0)
(1.00123 -0.00653949 0)
(1.06998 0.0770701 1.54259e-21)
(1.06502 -0.0956938 6.01915e-21)
(1.10087 -0.0459804 0)
(0.77796 -0.780966 0)
(1.02184 -0.0587425 0)
(1.24415 -0.0566858 6.75326e-20)
(1.08329 0.0451825 -1.46149e-20)
(0.245144 0.0317784 0)
(1.04394 -0.00237356 7.19117e-21)
(0.356536 0.0195614 -7.64235e-22)
(1.09529 -0.0253797 -7.88987e-21)
(0.057619 0.0161259 3.51951e-20)
(-0.238461 0.00722108 -1.92158e-19)
(0.33605 0.0137359 7.36022e-21)
(1.10255 0.0202841 0)
(0.990706 -0.0236354 0)
(1.02663 -0.0399704 0)
(0.999942 -0.00111736 0)
(1.07512 0.0351794 1.35581e-20)
(0.997085 -0.00299597 8.58059e-21)
(0.201451 0.0304911 2.94668e-20)
(1.03071 -0.114992 2.27542e-21)
(0.930174 -0.084996 0)
(0.892558 -0.0544135 6.41685e-20)
(0.982692 -0.0661014 0)
(1.01636 -0.0140576 0)
(1.06258 0.0203198 0)
(1.06233 -0.0794196 -7.54882e-21)
(1.06089 -0.0069175 0)
(1.04419 -0.0936361 2.47146e-21)
(0.417154 0.0482466 0)
(1.06593 0.0767963 0)
(1.09265 -0.0170852 -1.52189e-20)
(1.10956 -0.141343 0)
(0.631708 0.0490567 3.28372e-20)
(0.972404 -0.0398604 1.94793e-20)
(-0.0955918 -0.00346947 -4.0479e-20)
(1.0181 -0.00578308 6.76787e-22)
(1.03016 -0.13111 0)
(0.961585 -0.023634 1.82566e-20)
(1.02212 -0.026088 -6.10023e-24)
(1.07807 -0.152045 3.80526e-20)