/*--------------------------------*- C++ -*----------------------------------*\
| =========                 |                                                 |
| \\      /  F ield         | OpenFOAM: The Open Source CFD Toolbox           |
|  \\    /   O peration     | Version:  v2012                                 |
|   \\  /    A nd           | Website:  www.openfoam.com                      |
|    \\/     M anipulation  |                                                 |
\*---------------------------------------------------------------------------*/
FoamFile
{
    version     2.0;
    format      ascii;
    class       volScalarField;
    location    "300";
    object      ddt0(k);
}
// * * * * * * * * * * * * * * * * * * * * * * * * * * * * * * * * * * * * * //

dimensions      [0 2 -3 0 0 0 0];


internalField   nonuniform List<scalar> 
13917
(
2.88087e-05
-4.71063e-07
3.79759e-06
-3.25418e-08
3.26459e-08
-3.45862e-07
-3.47877e-08
5.15764e-06
3.93964e-08
0.000663129
-1.55714e-08
-4.5737e-09
2.13263e-08
0.0103581
1.02484e-07
7.31918e-07
1.17838e-10
-6.34736e-07
2.7499e-08
6.28712e-05
-3.88836e-08
9.23713e-09
-2.64758e-08
1.35229e-08
9.98665e-09
-8.10723e-08
-0.0160153
0.000758971
-3.27304e-07
3.42068e-09
-0.0002316
1.0344e-08
-4.0729e-08
-2.10581e-05
-1.00956e-08
9.47359e-06
-9.84645e-09
1.84565e-09
-4.13137e-08
1.93677e-07
-3.54646e-10
-9.20425e-09
-2.59164e-08
6.83013e-08
6.36521e-08
0.000634809
-6.22109e-08
-0.00468644
-0.0206215
-1.64292e-08
-9.01153e-09
-6.72634e-07
1.7035e-06
-1.71018e-08
-4.95472e-09
-9.26198e-08
-0.00010593
-2.58851e-08
-2.07474e-08
0.000627176
0.025827
-1.50883e-06
1.09444e-10
2.64751e-08
-0.000236483
2.38131e-05
-5.11378e-07
6.11883e-06
-2.00558e-06
9.48889e-06
-0.000135406
-9.21358e-06
-5.38004e-08
1.86593e-08
-6.66526e-09
2.58728e-08
5.25292e-09
1.31849e-08
3.00055e-08
-3.4232e-08
9.46714e-09
1.09037e-10
-1.46281e-08
-2.62345e-05
4.6863e-09
0.000467464
3.3025e-09
-1.77398e-09
1.76443e-07
2.49984e-10
-6.79218e-10
-1.63431e-08
-0.0177951
-5.71755e-09
-6.91797e-09
-4.12778e-07
-0.0115332
-7.29764e-10
3.75209e-09
-2.95001e-05
-2.02041e-10
-2.80688e-10
9.10405e-09
4.91027e-10
-1.83306e-09
0.000184709
1.14918e-05
-1.0057e-06
4.98727e-08
-0.0182247
1.88202e-08
-3.60664e-05
-3.002e-07
0.00325388
-0.000224159
5.24852e-08
3.63412e-08
1.52684e-10
1.32865e-07
-1.90524e-08
-5.20397e-12
-4.17594e-10
-3.96841e-07
-1.90698e-08
1.50914e-05
-4.1762e-05
2.62206e-08
3.70454e-08
1.47871e-08
-7.48188e-09
1.39478e-08
2.88767e-06
7.40595e-05
6.07209e-08
4.21582e-08
-0.0150761
0.0229659
2.43671e-05
-9.11898e-08
1.74413e-09
0.00662108
9.97768e-10
0.000188233
-1.26504e-08
1.23639e-07
5.67811e-07
-0.000122769
0.00200977
-0.00833064
-2.24124e-08
9.3763e-08
-5.35022e-10
-4.74103e-08
2.07726e-09
-0.010731
1.19154e-08
2.60582e-10
7.86162e-05
-8.743e-10
-5.31829e-10
1.46504e-08
7.81935e-05
1.13439e-08
0.00477496
0.00301603
-0.000760667
2.50273e-07
0.0128082
-9.65306e-11
-8.12005e-08
2.81509e-09
3.32415e-05
4.38855e-08
0.0150406
-2.08825e-07
-2.60351e-10
-4.07007e-08
-3.70607e-07
2.73055e-08
-2.11108e-08
-3.90159e-08
1.53454e-08
-1.62815e-08
6.72305e-05
1.42911e-07
3.51795e-06
-2.50949e-08
4.93168e-05
-5.16393e-09
0.000180933
-2.03939e-07
5.54196e-08
1.05984e-06
3.94963e-05
-6.27685e-09
1.45538e-05
-2.9036e-08
8.27412e-05
-2.16083e-09
1.16421e-08
-3.55119e-08
6.1883e-06
1.64028e-05
-1.04416e-08
-0.00906938
-2.4713e-07
1.15011e-07
1.41945e-09
1.49918e-06
-2.75998e-09
5.08648e-09
6.89532e-08
1.76085e-06
-0.0121271
2.83248e-08
-3.92366e-08
-0.000370825
1.76747e-09
-1.85361e-09
-2.25139e-09
0.0120614
6.72994e-07
0.000413934
-1.61843e-08
1.54656e-08
-0.011358
8.22273e-06
-1.34772e-09
-2.60487e-09
8.43663e-10
-2.45048e-10
-4.47247e-10
-2.4829e-06
-0.00433644
4.46355e-09
-1.13722e-11
-1.59258e-07
7.91741e-06
-1.53479e-09
-2.58385e-09
-0.0123965
0.000206795
3.96438e-06
-0.000376873
-2.1592e-07
-1.33432e-08
0.0089656
-1.62576e-07
-2.44592e-07
-7.56506e-08
-1.16734e-09
-0.00636211
-9.66765e-08
6.09191e-08
-1.32671e-07
1.08651e-08
3.84493e-11
3.25847e-08
8.47354e-09
-5.28136e-09
2.19601e-05
-0.0110432
-9.00057e-09
-5.8583e-09
8.97185e-09
-6.19984e-09
-4.88693e-08
1.24208e-08
1.68604e-08
-8.46504e-09
3.07803e-05
-2.0724e-05
3.76551e-09
-1.22158e-08
0.00141427
2.30286e-09
-4.63078e-07
2.43198e-05
1.41274e-09
1.19484e-05
8.70342e-09
0.000247913
-7.21945e-10
2.45324e-08
9.39368e-09
2.15871e-08
1.6562e-07
1.36326e-09
-0.00398044
-3.99637e-08
-0.0146225
8.95483e-07
-0.00278429
2.41729e-05
-1.83293e-13
-6.28383e-08
-2.45075e-08
4.36588e-08
-2.81509e-08
3.8918e-09
-3.32462e-09
1.91564e-09
4.51567e-07
-2.00407e-05
8.46569e-08
1.74035e-09
1.11366e-09
8.13886e-05
6.15874e-06
4.41493e-09
-2.87736e-06
4.41071e-08
-0.00162383
5.30894e-08
-0.000170646
0.00821945
1.37512e-05
-2.81231e-06
-5.45118e-09
-2.96287e-05
-0.00246638
4.71199e-06
1.48897e-08
7.08262e-08
-0.0134412
-1.16515e-08
-7.79881e-07
1.22168e-08
-2.308e-09
2.86673e-05
2.3087e-09
-9.35495e-09
-1.84504e-09
0.00030501
-9.95641e-09
6.91154e-08
-2.97389e-07
6.0723e-06
1.46584e-10
-6.59702e-08
0.000149001
-4.94102e-10
-4.2094e-09
-5.49348e-05
0.00016837
0.00169031
0.00908271
6.07624e-10
-7.39935e-09
0.000220085
-1.10563e-06
-1.30644e-09
-2.85264e-08
2.2115e-08
8.09022e-07
4.97342e-08
1.84473e-07
-8.48712e-07
-2.90286e-07
1.29675e-08
-7.81693e-06
4.25922e-09
7.93747e-09
-3.68415e-07
7.94419e-07
2.84781e-09
1.77701e-05
1.31597e-08
-0.00124901
-3.32286e-09
-2.37485e-06
-1.38144e-06
-0.0129641
6.45983e-08
0.000368254
0.00135435
-4.01738e-07
-9.54205e-09
-5.90763e-05
4.77108e-09
0.00668286
2.35919e-07
3.94957e-09
-0.0194178
8.79415e-09
0.000657621
1.14624e-08
0.000225175
0.000300149
-2.01469e-08
-0.0121555
1.73059e-06
7.26753e-09
0.00169821
3.05002e-06
-1.64048e-08
1.05562e-06
-1.05125e-08
2.40433e-06
3.6079e-06
1.91248e-09
-2.49989e-08
-1.58174e-08
2.18329e-08
1.1525e-08
-1.23969e-08
0.0238314
-0.000117492
4.80393e-09
-1.37995e-08
-1.20053e-08
-7.49532e-08
1.69809e-05
-1.59384e-09
4.56714e-10
7.0821e-08
8.40112e-07
1.4236e-08
-1.13727e-08
0.00229081
0.00272129
0.000191118
1.49594e-07
-1.23888e-05
-5.48681e-09
-8.38036e-10
-1.5097e-07
8.8631e-09
-1.73721e-09
4.73105e-09
4.3868e-10
-2.74601e-09
0.00247386
-8.54441e-09
2.42888e-07
3.38591e-05
-7.30655e-08
3.88348e-10
-5.28656e-08
0.00128613
-1.04753e-07
9.91179e-06
-1.30199e-09
7.45091e-09
5.33726e-09
1.0731e-09
-1.86346e-09
-4.29316e-11
0.00190677
-9.05223e-07
0.000195445
3.89092e-09
-1.41997e-09
-5.2439e-07
-1.42642e-08
-1.08332e-06
0.00185497
4.11475e-08
0.00443616
4.94836e-09
-3.37184e-10
-1.04893e-08
9.25531e-09
1.0297e-08
2.41913e-09
7.20407e-05
0.0241469
5.28491e-09
-0.00340599
9.3307e-08
-1.26552e-09
-9.3198e-08
4.70267e-09
0.00136199
-1.26443e-08
0.000167548
0.000825135
0.00181668
3.8724e-09
1.62755e-05
-8.32672e-07
8.50042e-10
0.00111472
-6.43868e-10
-5.21551e-09
-1.62357e-09
-1.47913e-08
2.74173e-08
1.95677e-07
1.69216e-08
-1.99647e-07
-8.14273e-10
-2.46308e-07
3.37709e-07
-8.30264e-10
0.00758071
2.77177e-08
-4.02206e-08
0.00988166
3.75455e-09
3.36461e-07
-1.0846e-06
6.16485e-09
6.47105e-05
-5.18845e-10
1.23271e-09
-1.00939e-07
-1.47493e-09
1.34386e-09
-9.67524e-08
9.12914e-05
-0.000106789
1.71757e-08
2.09177e-08
2.64474e-07
0.00144632
0.00145606
-7.99436e-09
-1.77419e-08
9.6014e-10
-1.0913e-07
0.00341809
9.1059e-09
1.54218e-10
2.03627e-08
-1.36971e-08
-1.07545e-07
3.98329e-08
-7.59054e-10
8.29246e-09
3.86604e-09
-2.51694e-09
-1.19259e-08
-0.000144469
2.4377e-10
2.03151e-08
-1.36951e-08
1.0893e-08
-8.76224e-08
8.54257e-07
-1.83172e-07
-3.72707e-05
-2.6986e-08
-3.80438e-07
8.2674e-05
-0.0014699
3.91725e-05
-7.87177e-09
2.18053e-08
1.69579e-07
6.79533e-08
-0.000199258
2.84969e-09
-0.00615786
-7.63507e-09
3.48538e-05
-3.14413e-08
-1.81838e-08
0.00218323
-5.94243e-09
1.52777e-08
4.59088e-10
3.20106e-08
2.82167e-05
-1.44569e-09
2.80223e-06
1.05625e-09
1.07279e-08
-2.71473e-09
9.12185e-08
-9.09013e-08
-3.37242e-09
7.90348e-08
-9.00534e-08
0.000668163
-9.73811e-05
9.40424e-05
0.00173114
4.13475e-11
9.2643e-06
3.47814e-10
0.0245119
0.00470645
3.80236e-08
3.09731e-06
-2.74034e-10
2.34122e-08
-3.06094e-08
-1.7895e-09
-1.00993e-10
-8.20127e-09
-8.00778e-05
-9.60385e-09
6.48609e-09
7.02342e-09
-5.02906e-09
9.5294e-10
8.50726e-05
0.000381791
0.00116828
-6.15276e-08
5.31997e-08
0.000192803
6.35194e-06
2.23047e-09
0.00148781
-8.51537e-09
3.97829e-08
2.88424e-08
-5.12855e-05
-1.96038e-08
-7.40468e-08
1.52977e-07
0.00108244
2.38729e-08
-0.000303601
4.87641e-10
1.40091e-08
9.13258e-09
-3.93723e-10
-3.12473e-05
-0.00118238
-4.21589e-10
2.42096e-07
1.26851e-09
-1.3027e-08
-2.37489e-10
-6.7486e-05
-1.12845e-08
-1.06871e-08
4.26999e-09
2.15315e-08
8.95878e-07
-6.99078e-11
1.95247e-07
5.50554e-10
-2.37399e-09
0.0295379
1.86877e-08
-1.07787e-08
4.98073e-06
8.05222e-07
8.55723e-07
-4.76014e-07
-1.22028e-08
1.27113e-07
-7.30156e-05
6.28294e-06
-1.5558e-07
-1.73987e-08
-1.46778e-07
2.34426e-10
9.72612e-09
0.00011421
-9.01265e-08
-1.9259e-08
0.0157433
2.80561e-08
4.61174e-05
0.00142547
-3.71683e-05
1.98705e-08
5.41885e-07
1.11119e-05
-7.80714e-09
7.19137e-07
0.000182242
1.71464e-09
-5.45069e-10
-1.06409e-09
-2.74971e-07
-1.99237e-09
1.21409e-05
-1.75577e-08
-1.0745e-09
1.01126e-08
5.11729e-10
-0.000234823
1.03419e-08
8.37292e-09
8.22127e-05
-9.08376e-08
0.000351698
7.2938e-09
-4.49258e-08
1.81946e-09
2.34912e-08
-3.74486e-08
-2.95855e-08
1.73329e-05
4.15869e-08
-0.00130807
0.000486713
4.54993e-07
0.000100584
1.86482e-08
6.51669e-11
1.15172e-08
2.37832e-05
-0.00578557
-3.93444e-08
1.58111e-05
0.00181238
-7.02315e-09
3.31526e-09
-1.41782e-08
0.000152324
-8.01315e-05
2.56502e-08
2.59026e-08
-7.96359e-09
4.57386e-08
-1.70023e-08
1.38863e-07
-1.96073e-08
-9.59388e-09
-3.81368e-08
-2.37525e-10
-3.47834e-08
2.07614e-08
1.27925e-05
9.13349e-09
-1.73072e-07
1.58771e-05
-1.14516e-06
-0.00178148
-1.18997e-08
-1.41438e-07
3.44326e-08
3.88333e-06
-2.60197e-11
-7.83674e-09
0.000298673
-0.000308153
-2.16852e-08
2.87456e-08
-2.34933e-09
2.91165e-09
-1.55086e-08
4.28949e-07
-1.51928e-06
2.8544e-05
2.28309e-07
-1.49075e-09
5.26709e-05
3.61916e-08
-5.30483e-09
2.78096e-07
-1.17081e-08
1.78342e-08
-0.0134086
2.25557e-10
-7.83307e-08
-4.99476e-07
-2.06756e-08
3.42607e-09
7.21443e-09
5.72966e-10
1.96826e-06
-4.82667e-08
2.03947e-09
4.2325e-09
-5.24746e-09
-6.86482e-10
1.04813e-08
-0.00845037
-4.32176e-06
0.00322147
5.6892e-07
0.000232623
4.0102e-08
-9.3476e-09
5.44488e-05
1.54339e-08
-6.67205e-06
2.59953e-10
-6.08465e-10
2.55263e-08
-2.44893e-08
1.22549e-06
1.38949e-09
-0.000212158
-9.44625e-09
0.00597169
-2.34334e-08
-1.32267e-08
-6.03322e-10
-5.76237e-08
3.6304e-08
0.00089972
-4.468e-06
5.45797e-10
-0.000152581
-2.87267e-08
1.94476e-05
3.61361e-09
1.95874e-05
5.8743e-09
-6.2249e-09
-4.25645e-09
-1.96761e-05
-8.39708e-09
-1.0075e-05
0.00504165
-8.86076e-09
-1.67231e-08
-3.24793e-10
4.13473e-07
0.000225415
3.44577e-10
0.00417172
6.74466e-08
3.23789e-05
3.28104e-08
0.000711299
5.36288e-09
3.36854e-11
-4.33768e-07
-8.37592e-09
-5.70246e-09
-1.67376e-08
2.37652e-08
5.82892e-09
-3.60526e-09
-4.3282e-05
-7.27179e-09
1.50266e-05
2.0907e-05
0.000236375
0.000206712
0.00521055
9.28412e-06
-0.000462295
1.27404e-08
-1.16388e-08
2.27445e-08
-5.31837e-09
1.19896e-09
-3.10496e-08
-3.09075e-08
2.44061e-05
-1.61925e-08
1.83107e-06
-5.48593e-08
-2.35309e-08
-1.13685e-07
-3.84199e-09
2.70776e-07
-2.00741e-08
-9.37222e-10
2.83085e-08
2.39655e-09
0.000117549
-5.77829e-08
0.000161665
6.43715e-09
6.09501e-09
-7.88784e-09
3.83839e-10
0.00524644
8.7922e-09
-0.000332361
-1.28059e-08
0.000399251
5.4596e-08
5.76134e-09
-5.62767e-09
-1.18179e-06
5.48307e-11
0.000244004
0.0012244
-2.54187e-08
-6.55938e-08
6.33566e-09
-5.23229e-06
2.74023e-08
1.22923e-08
1.81911e-05
-1.96402e-10
-4.55418e-08
-2.12549e-08
2.52663e-05
8.27151e-09
-0.0109586
2.40315e-05
8.96006e-08
-1.49947e-08
2.79512e-08
-1.35029e-05
-4.63883e-08
8.47662e-08
4.17598e-08
6.95751e-05
3.91856e-08
4.88066e-05
-2.0296e-08
2.24852e-09
0.000679925
1.39403e-09
-5.66016e-07
9.42e-05
1.76182e-08
3.43716e-10
-0.00398725
5.63612e-08
-3.23026e-08
-7.19116e-08
-1.44329e-09
-0.000218729
1.92283e-07
2.53526e-08
-5.15952e-07
-1.63397e-08
5.81395e-05
8.32744e-09
-7.6306e-08
-1.43028e-09
3.14787e-05
0.00101543
-8.08857e-10
2.3224e-08
8.67946e-09
-5.13647e-09
-3.49179e-10
1.03128e-08
8.31566e-09
1.5498e-08
1.66702e-08
1.43971e-09
2.17354e-08
-2.58153e-08
0.00117334
0.00070647
-2.30071e-08
-5.46233e-09
0.000745476
-7.71987e-09
8.70039e-06
0.00200867
-2.11111e-06
-7.23337e-11
1.29573e-08
4.44069e-09
-1.4607e-08
7.29182e-10
5.79019e-09
3.15169e-09
1.70136e-08
6.54157e-09
-0.000490299
-0.00191822
1.00589e-08
-2.16012e-05
-2.33504e-08
-1.22251e-08
-6.05897e-07
-0.000101161
4.59468e-07
5.30045e-10
0.000530184
-5.53604e-09
4.58391e-09
0.000111897
-2.84764e-08
-0.00381924
-2.86419e-08
0.000257447
3.51338e-09
-6.98721e-09
-2.77571e-08
0.000290501
-2.98654e-08
1.44501e-06
6.36591e-06
1.44645e-09
-3.44748e-09
1.1184e-08
1.40247e-08
1.17606e-07
-8.46322e-09
-1.02296e-08
2.53761e-05
-0.000604415
-0.000602604
9.46843e-08
-1.41966e-09
3.62003e-05
2.57195e-09
0.00371576
-1.38179e-07
-2.9377e-08
-2.95287e-08
-0.00101581
0.00594437
0.000215306
2.30346e-07
0.00399886
-6.49661e-09
-2.3443e-08
-6.74001e-10
-5.85645e-09
3.14229e-08
0.000176603
1.06076e-05
-8.50436e-10
-3.01381e-08
9.39717e-06
6.59435e-10
-3.40416e-09
-0.00753051
-0.000262316
2.10306e-08
3.22442e-10
-1.98659e-08
-7.16497e-09
1.44726e-08
4.27473e-07
-1.03852e-08
-1.62697e-08
-0.00020604
3.25654e-07
-0.000119357
0.00126819
2.75296e-06
2.95866e-05
-1.88156e-10
-3.11622e-08
-1.70452e-06
3.55008e-05
0.000221821
2.16263e-06
-1.40557e-07
-5.63947e-08
-5.68713e-08
-3.89114e-08
0.00108949
5.52037e-07
5.45494e-09
2.66902e-08
8.91154e-09
-9.12772e-05
-4.78932e-08
9.83008e-08
-6.31867e-09
0.00104127
-0.000433613
0.0018034
-1.61745e-05
3.31584e-10
0.000722168
-2.16475e-09
-8.32032e-08
-1.86407e-07
-0.00136057
-1.60929e-08
4.30901e-08
-5.22581e-09
-9.38919e-05
1.68857e-08
0.00241174
-5.88571e-09
-3.27456e-07
0.00432578
-7.14484e-10
4.967e-08
-1.67933e-08
-2.08649e-08
-4.33112e-08
-2.22721e-05
2.93717e-09
-5.5004e-09
-2.40263e-08
0.000213697
-1.09219e-09
1.55791e-08
-4.33354e-09
4.17182e-09
-1.8617e-08
-6.45936e-07
5.14285e-09
-3.012e-09
-6.53286e-09
2.88857e-06
-1.08186e-05
-2.32322e-07
6.41238e-05
3.44523e-09
-2.50323e-09
-0.000180691
6.64134e-09
1.77267e-09
-2.7194e-05
3.22602e-05
-1.5803e-07
-6.58113e-08
1.05027e-08
7.74497e-06
-0.000628077
2.99455e-08
-0.000124342
-5.09166e-10
-1.38691e-07
0.00149557
2.62511e-08
0.00468919
-0.00605818
1.75553e-09
-1.09404e-08
1.15642e-08
-6.39441e-09
2.39356e-09
1.54141e-05
5.39033e-10
-7.66305e-09
2.53296e-09
-1.19735e-08
0.00127246
1.80033e-08
0.00162496
0.00473295
2.73866e-09
2.07538e-08
-2.28432e-08
1.80297e-08
-1.30861e-08
3.87484e-05
-7.10419e-08
1.00175e-05
1.25788e-08
0.0186281
-3.89165e-07
-2.38422e-09
0.000121244
5.08117e-09
-5.74017e-07
5.58791e-09
0.00034995
-6.59588e-09
-1.47558e-08
-2.33911e-08
-1.177e-08
-4.824e-08
2.31572e-08
0.000313755
1.31902e-08
6.00288e-06
0.000556685
-4.03085e-09
2.31541e-09
5.07283e-07
0.000237874
0.000197812
3.64365e-09
-2.61662e-08
1.7199e-05
0.000786161
1.83594e-05
-2.36994e-08
2.8316e-10
5.54939e-09
1.434e-08
2.68047e-09
-2.31808e-08
0.000233668
1.98229e-08
-1.21268e-08
-3.19719e-05
6.30457e-06
-4.1495e-08
-0.000259996
0.0223739
1.89211e-08
-1.62569e-10
-1.9136e-10
2.32721e-08
2.80175e-09
0.00013459
0.00012141
-9.69298e-07
-1.04824e-07
2.54648e-08
-2.55038e-08
-1.07095e-05
-3.95442e-08
6.05706e-08
3.8322e-09
-1.09561e-05
3.87483e-05
1.46945e-10
9.63651e-09
-6.90723e-05
-5.02946e-08
-1.02568e-05
0.00318395
2.89073e-07
-2.8258e-09
0.00125838
9.81273e-10
-6.85677e-09
0.00159301
-0.00219778
2.57372e-09
-2.87786e-07
3.7292e-08
6.32155e-08
-3.46293e-08
3.95646e-09
-1.42881e-09
5.97988e-09
-1.40321e-08
4.53933e-09
2.50523e-07
2.37474e-05
6.85363e-08
1.97252e-08
5.92989e-08
-5.30585e-07
-2.28851e-09
-1.55047e-08
0.000228681
1.95157e-06
7.95125e-05
2.64232e-08
-9.77629e-09
3.41839e-05
-7.7131e-11
0.000252482
-5.66138e-09
2.51381e-07
1.39253e-08
-9.27397e-11
5.25988e-05
4.92666e-08
-2.21499e-08
2.37114e-08
-0.00327274
7.12322e-07
9.66934e-06
-1.29331e-08
1.2793e-08
-0.0117745
-1.19712e-10
-2.00723e-09
-1.78915e-06
0.00106639
7.18966e-09
-1.14827e-08
-2.5564e-08
0.000160483
1.38384e-08
-2.63113e-08
-4.64039e-08
3.643e-09
2.29841e-06
1.25538e-08
2.77263e-09
-0.000111664
2.98386e-09
-0.00185607
1.97632e-06
-1.67699e-08
-3.13323e-08
5.56198e-09
-8.06066e-10
3.33964e-10
1.41491e-09
3.28041e-08
3.5582e-07
-6.1916e-08
-1.44251e-07
-4.30169e-07
4.98579e-07
2.75473e-09
-7.24973e-07
-6.55255e-09
4.21051e-05
2.66494e-09
0.000173818
-3.17058e-08
7.55077e-09
3.66553e-08
-1.65622e-08
-4.26052e-08
2.85167e-08
6.84373e-07
-3.69654e-09
-1.31155e-09
0.000200731
-1.94545e-07
-3.91831e-06
3.01702e-10
-1.34674e-08
-1.53591e-08
1.38863e-06
-3.91081e-09
-0.000355717
-1.62648e-08
-9.07465e-09
7.95576e-09
-4.80552e-09
-8.31615e-09
2.7053e-06
0.00642988
-1.09153e-06
-0.00096254
3.54766e-07
-6.22634e-07
2.08508e-08
0.000310391
7.92921e-09
3.21161e-09
3.07429e-09
0.000570099
-4.4206e-09
-5.44139e-05
-1.73366e-09
4.96061e-10
-2.27499e-06
0.000453264
1.0971e-05
1.17315e-05
1.93711e-08
5.77482e-06
1.97442e-05
-2.25423e-09
0.000232572
-6.25552e-09
8.28511e-10
0.000734979
3.28789e-09
-9.50645e-05
-0.000116757
-1.21232e-08
-2.8671e-08
8.03809e-09
9.6372e-05
8.8633e-10
-5.71911e-10
3.66079e-09
-7.88518e-09
-6.22535e-09
8.86527e-08
1.28884e-09
1.52393e-08
-2.82216e-08
-1.88973e-08
-1.10715e-08
-0.00572688
-1.12643e-05
-1.17048e-09
4.60183e-09
2.84364e-08
5.63711e-09
4.03591e-08
1.41891e-08
-3.86892e-09
-1.74587e-08
-4.52713e-09
2.22519e-08
3.72715e-08
-1.66577e-07
3.37436e-09
-5.20433e-08
1.09674e-08
-8.24684e-07
8.38879e-09
1.76449e-08
7.16823e-10
-2.64561e-09
7.82195e-08
5.40702e-08
4.2194e-09
-0.00203672
-1.77371e-05
6.43653e-05
-0.000331687
-5.97291e-08
0.000217541
-4.18624e-09
1.98235e-08
-0.0122673
0.00244937
-2.22358e-08
1.25878e-05
5.32278e-09
1.34969e-07
0.00509952
-1.3702e-09
-1.88574e-08
0.00694332
-0.0151255
-3.5247e-10
3.18624e-08
7.24712e-09
0.000463289
-1.9261e-08
-4.65076e-05
2.27596e-05
-8.31636e-09
-1.18297e-05
-0.000752936
5.99405e-10
0.00165519
0.0006412
-2.41349e-08
-2.62598e-11
0.000232591
2.88296e-05
-8.30816e-09
4.90036e-08
-3.33615e-09
-0.00614814
3.32807e-07
2.22774e-08
1.2345e-08
0.000152831
-5.00063e-09
1.99806e-09
-4.46893e-08
-3.78514e-09
0.00146753
1.12351e-07
1.01181e-08
3.70694e-05
-1.70253e-08
8.57859e-07
-3.62399e-08
0.000294047
-3.58739e-08
0.000577043
-7.67637e-10
-3.33178e-08
2.87538e-10
-3.50647e-10
-3.079e-08
2.52261e-08
0.00140529
4.5954e-09
8.35147e-09
7.30736e-09
0.00066501
8.85029e-09
-0.000978797
0.00184363
-0.0105208
-2.09021e-08
-1.70118e-08
3.39774e-09
-0.00217063
-1.31596e-08
0.000219903
-7.08643e-10
-0.00649743
3.25177e-08
2.33047e-08
2.98792e-05
5.48135e-09
-2.53678e-10
2.63145e-05
2.50106e-08
-7.72316e-05
2.81983e-09
5.00783e-05
0.00508175
2.46607e-08
1.10915e-05
-1.66657e-08
2.34212e-08
0.015649
5.82288e-09
-3.88246e-07
1.29881e-05
-7.98641e-08
-4.60615e-08
2.68373e-08
0.000152405
8.9059e-09
-0.00201807
1.12747e-08
1.12084e-05
-4.99298e-09
-5.34103e-09
4.6956e-09
0.00433173
5.70552e-09
-1.51924e-05
3.75873e-07
0.00418222
-1.30658e-08
-8.31173e-08
2.99336e-05
-5.56333e-06
0.00145117
-2.19522e-07
2.22911e-09
7.27258e-08
-0.00410022
-1.22652e-08
0.000209677
2.26584e-09
2.89656e-07
9.97148e-06
-1.89189e-09
1.79554e-05
1.00698e-08
6.11559e-05
0.0013781
2.50528e-08
1.01375e-08
-0.00164666
-0.00274265
-4.74537e-09
1.73885e-08
-2.78483e-09
-6.83222e-09
-5.31981e-05
-1.03846e-07
4.79526e-05
7.41893e-09
-4.87489e-08
-9.00038e-05
1.96115e-07
-0.00968881
0.00021923
4.58293e-09
-1.41227e-08
4.28531e-07
0.00170283
0.000732936
0.00810024
6.97254e-07
1.2755e-07
3.80332e-06
-7.96914e-06
0.00218475
0.00414835
2.19971e-09
-1.00942e-07
5.06677e-10
-1.65065e-07
-1.73287e-08
-1.00498e-08
-3.33975e-08
-1.7745e-05
-0.00649505
7.70908e-08
0.00355658
3.17919e-05
-1.91676e-07
9.17671e-09
-4.34998e-09
-4.57534e-06
-1.72908e-08
8.54264e-05
-5.97177e-08
1.64471e-07
1.36043e-05
-1.27051e-05
-8.20296e-09
5.40091e-09
-3.74762e-08
-4.45114e-09
0.000113337
6.62839e-09
0.000114613
-8.17395e-10
-5.63204e-06
2.24415e-06
2.51289e-07
-1.37867e-09
1.05119e-08
-9.22081e-08
0.00171538
-1.58884e-06
-3.5243e-08
-6.75534e-05
-0.00551565
-1.21675e-09
-1.04964e-08
2.59526e-09
1.90933e-07
9.39979e-06
1.73387e-11
-3.03391e-09
-2.90128e-08
0.00105851
0.00216178
-2.75444e-09
2.58815e-07
3.72991e-06
2.86054e-09
-1.27037e-05
-1.47556e-08
0.000110353
8.31825e-08
0.00147532
0.000235346
3.08526e-08
-1.27616e-08
8.87554e-05
4.03191e-09
-1.35562e-07
-5.3876e-05
1.59694e-08
1.77688e-06
-1.94436e-08
4.10989e-09
0.00146496
2.97406e-05
1.05849e-09
0.00716507
-0.00446747
5.32593e-09
7.43161e-08
-8.13028e-08
-3.13101e-06
0.00118205
-0.00141055
0.0040989
-9.42591e-08
0.000120592
7.60275e-09
1.23862e-08
-2.77524e-09
-2.51369e-08
-2.2873e-08
-6.38889e-09
3.96314e-05
-0.000103433
4.26365e-09
-6.80633e-07
4.78697e-08
1.35616e-09
0.00596462
-0.000281627
-3.30657e-09
-1.15613e-08
-8.88449e-09
3.53589e-09
3.58477e-08
1.01511e-08
0.0179728
-4.45206e-08
-1.53746e-07
-8.32266e-09
-1.3795e-07
7.19184e-06
-2.47396e-09
0.00261337
-9.76921e-09
1.14194e-08
2.94634e-09
-1.14029e-08
3.59878e-05
5.05441e-08
-7.75726e-08
0.0222727
6.30132e-09
-6.35187e-09
-1.17176e-07
-1.20534e-10
3.58733e-09
2.17979e-07
1.84767e-09
-4.43595e-06
-0.00321071
0.0145877
6.49572e-08
0.00297265
-1.69711e-08
8.29361e-05
-6.4579e-09
7.20415e-08
-0.00061217
-2.38811e-10
0.00097633
1.2044e-05
-9.0169e-08
9.46336e-10
1.18216e-10
-1.10624e-08
0.00189132
-6.52562e-09
-3.41011e-08
1.07893e-09
4.36987e-10
2.75645e-07
1.37166e-09
-6.37726e-09
-2.69397e-09
-4.96567e-10
0.000118204
9.74442e-09
-1.63719e-08
1.78957e-07
-1.41191e-05
-5.17157e-05
0.00470906
2.23779e-09
-4.77482e-09
-5.80061e-05
-4.36314e-09
-4.57432e-08
-3.29984e-08
-1.13074e-05
7.49953e-09
1.55811e-08
-4.93222e-07
0.000537607
-1.15955e-08
-2.36251e-09
4.99819e-09
1.61831e-08
-0.000223353
3.03865e-07
2.0562e-08
2.18328e-08
4.73367e-09
4.04819e-05
-1.04916e-07
-6.88804e-05
3.66258e-09
4.64836e-10
7.22526e-05
-8.11991e-08
0.000457843
5.29197e-09
1.71627e-09
1.55479e-08
-3.27562e-07
-4.50069e-06
9.99759e-09
-1.35469e-09
5.93886e-09
-0.000137692
-8.61173e-10
-7.97065e-10
8.76097e-06
2.31728e-08
-6.49316e-08
-1.23751e-08
9.89326e-09
4.56616e-10
0.00166644
-1.22565e-08
0.00512225
0.0014845
2.88684e-09
0.00621179
1.47759e-08
-2.19802e-07
1.26229e-07
-1.35855e-09
-1.6652e-09
-8.28068e-10
-2.07635e-09
-0.00370136
3.48777e-08
4.17028e-05
-4.49613e-05
1.51852e-09
-5.11838e-06
1.31858e-07
1.92284e-05
-2.01701e-08
0.000319195
1.39045e-05
2.38939e-07
-3.85448e-10
2.426e-08
-3.76771e-08
0.000448825
1.93673e-05
6.73691e-08
-9.0425e-09
-3.8499e-08
0.0155543
-4.79318e-08
-1.11878e-08
-2.25397e-08
1.16058e-07
-1.87783e-05
-3.5351e-09
0.000843184
1.04974e-07
2.21857e-08
0.00156062
6.92071e-09
0.00387812
0.00231482
-6.02496e-09
4.139e-10
1.11043e-08
1.30447e-08
2.74349e-09
-9.92448e-07
3.4234e-07
2.53058e-09
-2.62777e-08
1.03129e-05
-0.00107338
3.25033e-10
-4.41946e-08
0.00112691
-0.00492132
-8.74058e-09
-2.83684e-08
3.7605e-05
1.10761e-05
-8.03255e-06
-1.01518e-08
-0.000643729
1.70337e-08
2.04851e-09
2.21274e-05
2.28123e-08
8.94252e-09
0.000373688
1.25938e-08
8.31998e-06
-8.69001e-09
-1.92254e-10
-1.28396e-08
1.68475e-09
-0.000256909
1.36147e-09
-4.59483e-11
-6.76482e-09
1.74626e-08
1.04339e-08
8.65848e-08
3.25134e-09
5.56885e-08
-1.15646e-08
-1.42135e-09
0.000497114
-0.00128582
2.51965e-05
0.00574485
4.17441e-07
-0.00355354
-7.36999e-07
-0.000293944
-0.00250613
-0.00029936
1.59142e-09
-1.02368e-07
1.10913e-08
2.18169e-08
-2.94341e-09
-9.50876e-09
3.7911e-07
6.98756e-09
9.22325e-09
-2.45137e-09
-1.29966e-08
-1.13657e-08
-7.61977e-09
1.27806e-08
-3.72819e-08
4.74479e-05
4.84572e-08
-1.44376e-06
-3.17497e-09
0.000496106
-8.21461e-09
7.01044e-09
8.35829e-09
1.17418e-08
-1.41114e-08
-1.26104e-07
-5.51182e-05
1.9717e-07
3.07686e-05
0.00390915
1.7358e-09
-3.28361e-08
0.00216648
-1.41201e-06
-2.84436e-09
3.58804e-09
2.44237e-09
-0.000152788
1.13897e-09
-1.93199e-05
-4.63334e-06
-8.20801e-08
0.0111794
0.00484142
-2.15605e-08
0.000121808
-4.45748e-09
5.23764e-10
0.000235881
0.000182144
9.39324e-09
3.28295e-08
-0.00203419
-3.08456e-11
2.08912e-05
-1.72621e-09
-1.06756e-08
-4.01976e-08
-3.72832e-08
-1.3825e-07
-0.000131023
-1.28363e-05
-8.40332e-09
-1.5768e-09
3.7267e-07
-7.74925e-09
-1.78991e-07
-5.52694e-09
6.37303e-08
1.04406e-07
9.71952e-09
1.00394e-08
-6.85977e-10
-9.83247e-07
8.85727e-06
7.03593e-07
0.00127609
6.22469e-10
-4.00117e-06
3.27996e-09
1.17174e-07
2.00731e-05
-2.53134e-08
-4.11655e-05
1.56168e-08
4.72652e-05
3.8414e-05
0.000140942
-0.000104864
3.53925e-10
-1.66503e-08
0.00025346
-6.55296e-09
1.06527e-05
-7.04721e-09
-9.82765e-09
-6.11098e-09
2.67811e-08
5.429e-08
5.69222e-05
0.000159183
0.0209682
5.33796e-09
1.40283e-07
9.41799e-09
3.53501e-10
8.69592e-08
2.29649e-07
6.60744e-09
0.0018785
1.03502e-07
3.03056e-09
4.00407e-09
2.23375e-09
2.46823e-06
-2.49096e-08
-1.48337e-09
2.6657e-09
1.54746e-07
5.24118e-08
-3.50526e-07
3.47387e-08
-0.000152214
-1.54571e-08
1.09591e-08
-6.81181e-09
-2.00686e-08
0.0011444
-0.000208384
2.46988e-07
1.7009e-09
0.001726
7.41738e-09
1.8706e-08
-4.86292e-08
-0.000104816
0.000358375
-1.77405e-08
-1.28722e-09
0.00305629
4.46566e-09
1.11715e-08
4.17662e-10
0.000225906
4.38557e-05
5.50463e-10
0.00179305
-0.000203128
-3.75287e-09
1.0977e-07
-8.0075e-08
0.000109675
2.66611e-08
-1.64478e-08
1.07666e-08
9.64624e-06
6.37088e-07
9.44961e-05
-3.04154e-09
1.30918e-08
-4.49569e-05
9.81288e-09
6.174e-09
0.0025901
0.000200002
3.54605e-06
0.00125842
5.16132e-08
1.79927e-08
-9.36528e-05
-1.66505e-08
-1.79086e-08
-4.30024e-08
-3.84642e-10
-1.19897e-08
-8.9029e-09
3.76639e-09
-0.00111618
7.48439e-05
1.98265e-08
1.0597e-05
7.89879e-09
-2.30472e-05
2.77618e-05
-1.0524e-09
-3.3365e-09
1.71507e-08
-0.0086817
3.32033e-07
-1.32346e-07
-7.78404e-05
0.000921185
-8.84468e-05
2.33338e-09
0.000192824
2.20477e-05
2.65382e-06
-4.46953e-05
2.52066e-09
-1.03368e-08
-3.99277e-08
-2.4018e-08
-7.7438e-09
2.33717e-08
-2.74103e-06
1.39678e-07
0.000434842
-0.00649793
0.000251263
0.00915006
-3.75234e-05
9.6415e-08
7.21389e-05
6.47605e-08
2.47575e-08
3.64859e-09
-6.02244e-09
-5.8602e-08
2.4161e-05
7.44861e-09
0.000774462
-6.87694e-05
4.70098e-09
-2.6404e-08
-1.4683e-10
-7.07031e-07
8.04522e-09
-1.1251e-07
-0.000177676
2.60346e-09
1.54429e-08
2.15117e-09
2.80727e-08
9.86899e-08
-3.25036e-05
-1.05704e-07
0.000129631
-7.4426e-07
3.13725e-09
0.00149781
-2.0975e-06
2.46287e-09
3.68515e-05
3.74116e-05
0.000998434
0.0011976
1.51044e-05
-1.78101e-08
3.01756e-05
-1.43041e-05
5.52873e-07
2.15785e-05
-1.26393e-10
1.20208e-08
6.71115e-09
-4.00503e-08
1.4018e-05
-1.54288e-07
-1.57795e-08
-5.53338e-08
4.34832e-05
7.24382e-06
3.23857e-09
-5.96143e-07
7.8926e-05
-5.97682e-05
-4.15143e-09
-1.53128e-08
-1.89442e-07
-1.05373e-09
2.46515e-08
-0.000639436
-4.46125e-09
1.05784e-05
0.0016285
5.67109e-05
-1.78987e-09
2.7424e-07
1.35946e-07
1.34141e-08
1.56821e-09
-0.0074945
0.00111177
-6.15296e-09
2.38017e-08
-6.27112e-07
1.83978e-06
3.83589e-05
0.00180131
-4.99118e-09
-0.00064887
0.000251383
5.01266e-08
2.39771e-09
2.23486e-07
-4.77893e-09
3.64318e-09
9.29218e-07
9.13683e-08
-1.61591e-07
-2.28271e-08
5.05594e-08
-1.01982e-08
-2.80322e-09
4.70611e-08
3.45723e-08
0.00178279
-1.76496e-08
0.001602
1.88413e-05
1.36998e-07
-2.40079e-08
0.00192596
6.72836e-05
0.00187181
1.88564e-08
-4.77988e-08
3.25276e-08
6.38773e-09
1.30852e-05
0.000737831
-2.53286e-08
0.00123625
2.6562e-05
6.01816e-09
3.86648e-08
-2.16018e-08
4.99853e-08
8.90236e-08
-1.30559e-08
9.60279e-08
1.22912e-07
2.0823e-07
2.01855e-07
9.08585e-08
-3.50964e-08
-2.75513e-08
1.15718e-09
-3.23288e-09
1.48574e-08
-2.26267e-09
0.00113158
9.18567e-05
1.73995e-05
-0.000120128
1.12505e-09
-2.20508e-09
-1.98171e-05
-0.000184326
1.69901e-08
-1.35112e-08
-3.02308e-09
0.0228804
0.00128957
1.35652e-08
-8.31901e-08
8.16453e-09
-3.88534e-05
0.000101798
4.5022e-08
3.51297e-05
1.62822e-06
4.17748e-08
-5.50974e-05
-1.90826e-07
-0.000197928
7.29536e-05
7.0804e-11
0.000116543
3.16096e-05
1.66474e-08
-1.67492e-07
-8.58988e-07
3.77027e-08
-2.02375e-08
-0.00738386
-0.0123248
1.52933e-10
-2.63848e-09
0.00106531
5.845e-05
-2.30696e-07
1.70187e-08
1.08364e-05
2.80198e-07
-5.31431e-05
3.45442e-05
-3.53144e-08
-1.24448e-08
3.95044e-08
1.14565e-09
-3.59618e-05
-0.00559547
-0.00033299
1.63994e-08
2.78526e-05
0.00387769
1.56438e-09
-5.36618e-10
1.2019e-05
-1.53293e-08
4.31913e-05
8.434e-09
-3.8823e-05
4.21292e-08
-1.56194e-08
0.00174092
9.94875e-10
6.69542e-08
-0.000791885
1.87814e-09
3.02545e-09
2.08929e-08
4.82533e-07
4.53632e-06
6.54966e-07
-3.14079e-05
4.08523e-09
-4.06856e-11
-1.36011e-08
-3.05957e-07
0.000140685
0.0263122
-1.03645e-06
1.80421e-06
6.38542e-08
-0.000129643
-6.10803e-07
4.06537e-09
6.59806e-09
9.59231e-10
4.19718e-05
-9.92975e-07
0.00166375
1.96299e-07
1.27438e-08
-1.71074e-08
-0.000198862
0.0108468
0.000718878
-2.09563e-08
1.68048e-08
-1.53313e-09
-1.26619e-05
-7.66845e-06
0.00425945
6.31848e-05
1.17488e-07
2.0875e-05
3.2386e-09
5.21501e-09
-3.64789e-07
2.41777e-05
4.10858e-05
9.15908e-09
5.58593e-08
-9.58439e-09
5.70038e-09
-6.99052e-07
0.00500387
0.00117067
-4.11352e-09
-4.17263e-07
7.00102e-06
0.00785818
1.3862e-05
-5.61744e-06
7.58049e-05
3.5213e-11
-1.43092e-07
-1.37203e-08
4.36345e-08
2.20196e-09
-2.12011e-06
-3.04287e-09
-4.44035e-08
-0.000195373
-0.00142118
-4.14102e-10
9.89288e-07
2.8024e-05
8.15367e-08
1.66799e-08
0.00402626
8.51479e-08
6.67875e-10
1.03064e-09
3.59367e-05
3.64684e-08
-6.57401e-07
-7.69738e-06
0.000620594
1.60986e-05
3.52267e-10
-0.000243953
-7.61132e-05
-0.000844281
-0.00558848
2.14103e-08
6.46058e-08
-3.14277e-08
-1.21709e-05
-3.47388e-06
6.70144e-08
-3.17879e-05
-1.12922e-05
0.00078174
-5.35947e-08
0.0102542
0.000735757
4.11447e-05
8.37836e-11
0.00361919
3.14566e-08
-2.17727e-05
4.73071e-07
-7.57968e-05
1.18255e-05
7.01932e-09
1.93554e-09
6.88502e-06
0.000106126
8.5319e-06
-1.57725e-08
2.55304e-07
1.35856e-07
-0.000172031
-7.59653e-07
3.46371e-05
3.06991e-09
3.90498e-05
1.51596e-06
-0.00918012
5.49858e-08
0.000372651
0.0196378
-3.03175e-10
1.16945e-07
1.51902e-09
-3.77083e-08