/*--------------------------------*- C++ -*----------------------------------*\
| =========                 |                                                 |
| \\      /  F ield         | OpenFOAM: The Open Source CFD Toolbox           |
|  \\    /   O peration     | Version:  v2012                                 |
|   \\  /    A nd           | Website:  www.openfoam.com                      |
|    \\/     M anipulation  |                                                 |
\*---------------------------------------------------------------------------*/
FoamFile
{
    version     2.0;
    format      ascii;
    class       volScalarField;
    location    "300";
    object      k;
}
// * * * * * * * * * * * * * * * * * * * * * * * * * * * * * * * * * * * * * //

dimensions      [0 2 -2 0 0 0 0];


internalField   nonuniform List<scalar> 
13917
(
0.0146264
8.58154e-05
0.000555845
8.6972e-05
7.471e-05
8.54041e-05
8.98639e-05
0.000106032
9.21071e-05
0.0066359
0.00010898
8.34335e-05
9.57943e-05
0.0142874
7.93722e-05
0.0129089
5.73956e-05
9.91611e-05
0.000153092
0.0126198
8.62088e-05
7.34513e-05
9.6945e-05
7.33489e-05
8.52158e-05
8.654e-05
0.0196933
0.00446694
8.99143e-05
4.48396e-05
0.00415995
0.000109549
8.50584e-05
0.0217507
6.39865e-05
0.00012035
8.17774e-05
7.79966e-05
9.0019e-05
9.00088e-05
5.97328e-05
5.79558e-05
9.15194e-05
0.000145679
0.000145234
0.00199612
8.56545e-05
0.0388111
0.00974842
6.41998e-05
8.34215e-05
0.000156201
0.00905407
7.92343e-05
7.99534e-05
0.000156533
0.00257519
9.6878e-05
5.77194e-05
0.0016997
0.0347215
6.79297e-05
4.67748e-05
8.52433e-05
0.0237393
0.000137702
9.179e-05
0.000117774
0.000108772
0.0144078
0.0190283
0.0204385
8.86562e-05
5.76986e-05
8.67269e-05
8.41547e-05
7.3846e-05
5.74952e-05
8.4128e-05
8.5005e-05
7.74642e-05
5.88751e-05
8.89832e-05
0.019736
7.78352e-05
0.00035846
0.000107873
7.80461e-05
8.9517e-05
5.67154e-05
5.45978e-05
9.16643e-05
0.0148716
6.26006e-05
7.96491e-05
9.19061e-05
0.0219953
6.30946e-05
7.81551e-05
0.000184115
5.07891e-05
5.04038e-05
7.771e-05
6.2638e-05
7.36358e-05
0.021305
0.0186947
6.93977e-05
5.80266e-05
0.0272595
9.04643e-05
0.0223329
9.00178e-05
0.0431938
0.0234802
8.39144e-05
0.000143948
5.2089e-05
0.000283573
9.00785e-05
5.87478e-05
5.77399e-05
9.47678e-05
0.000130549
0.0160061
0.0216431
8.54216e-05
8.7334e-05
6.70865e-05
0.000131166
9.36624e-05
0.000393566
0.0305136
8.37554e-05
0.000117999
0.0325867
0.0260309
0.0170583
8.71437e-05
8.22547e-05
0.00437326
5.75033e-05
0.02061
7.30899e-05
8.80867e-05
5.92527e-05
0.0187221
0.0026187
0.0291025
7.94827e-05
8.83314e-05
4.91818e-05
8.81623e-05
9.04768e-05
0.02912
7.16878e-05
6.24956e-05
0.0309563
5.28479e-05
5.24467e-05
7.58441e-05
0.0236552
8.14309e-05
0.00313425
0.0237024
0.000590685
0.00855994
0.0513275
4.42005e-05
8.7952e-05
7.29196e-05
0.0292392
9.22689e-05
0.023689
0.000109358
5.15488e-05
8.7168e-05
0.000174393
9.34722e-05
8.15954e-05
9.10966e-05
7.27435e-05
8.30167e-05
0.000547568
0.000293245
0.000384319
8.29706e-05
0.000421867
4.49507e-05
0.00021935
0.000109091
0.000135807
0.000197082
0.0146024
6.28174e-05
0.0161266
8.67605e-05
0.0303763
6.38318e-05
7.17068e-05
8.49672e-05
0.0142551
0.0154457
8.06332e-05
0.0116001
8.51078e-05
8.87549e-05
5.77368e-05
0.000173075
7.72319e-05
6.60677e-05
7.69146e-05
7.77923e-05
0.0310409
0.0001161
8.71815e-05
0.0243681
7.39422e-05
5.4432e-05
5.42851e-05
0.0523279
0.000222308
0.00193816
8.63673e-05
4.86894e-05
0.037801
0.0144999
5.43731e-05
5.4332e-05
6.1691e-05
5.42066e-05
5.40912e-05
0.0194169
0.022191
7.54592e-05
4.43997e-05
0.000113923
0.0195736
5.46789e-05
8.60665e-05
0.0159056
0.0213331
0.000227643
0.0243531
0.000132182
7.3412e-05
0.0414647
0.000115534
8.87847e-05
0.000115118
8.05891e-05
0.0233828
8.97422e-05
9.26106e-05
0.000104678
7.52068e-05
6.41545e-05
8.54709e-05
7.29853e-05
6.22496e-05
0.0196093
0.00822843
5.8706e-05
5.46502e-05
7.19429e-05
5.47423e-05
8.99898e-05
9.16812e-05
9.24976e-05
5.87033e-05
0.0197616
0.0196293
8.15486e-05
7.27111e-05
0.00514812
5.19807e-05
0.000136611
0.0215485
5.20955e-05
0.0167557
6.20436e-05
0.0235074
5.18344e-05
7.84675e-05
7.515e-05
7.21339e-05
0.000213218
6.92829e-05
0.00211652
8.69962e-05
0.0123365
6.03208e-05
0.00428793
0.0169502
5.30775e-05
9.93044e-05
7.36408e-05
8.36056e-05
7.43401e-05
8.43622e-05
6.23344e-05
6.82795e-05
0.000170933
6.82975e-05
9.22179e-05
8.43038e-05
8.53267e-05
0.0308787
0.0127127
6.61491e-05
4.69876e-05
8.3805e-05
0.00078487
0.000167829
0.0204666
0.0213281
8.15864e-05
0.000204267
7.24087e-05
0.0180954
0.000730535
0.000543119
9.25499e-05
7.90536e-05
0.0142319
7.26679e-05
8.72431e-05
0.000135346
5.65581e-05
0.0290647
7.78292e-05
9.79037e-05
5.04942e-05
0.00909743
6.70519e-05
9.14675e-05
8.55724e-05
5.96995e-05
5.54538e-05
0.000115377
0.018833
7.99199e-05
7.24565e-05
0.0236537
0.0194636
0.0213267
0.0115383
5.21636e-05
7.62307e-05
0.0221183
0.000217625
5.23561e-05
7.40646e-05
8.13331e-05
9.53515e-05
9.19679e-05
0.00015291
0.000128758
0.000137502
9.72085e-05
0.019164
6.72639e-05
8.01373e-05
7.49275e-05
0.000276197
5.54128e-05
0.0134997
9.72501e-05
0.00309225
7.97519e-05
0.000161385
4.61505e-05
0.0193828
5.71275e-05
0.00204806
0.0049942
8.6454e-05
8.15788e-05
0.0123211
5.03175e-05
0.0264439
0.000217677
5.69442e-05
0.0153291
7.50666e-05
0.000503017
6.10435e-05
0.0133852
0.000434346
8.21102e-05
0.0371956
0.000122165
8.03219e-05
0.0224968
0.00036947
8.23762e-05
0.000219705
7.68069e-05
0.000122312
0.000487848
7.78888e-05
9.06986e-05
8.45534e-05
7.25598e-05
7.07858e-05
6.77889e-05
0.027628
0.000291689
8.00346e-05
6.74876e-05
7.31408e-05
9.827e-05
0.000140348
5.10771e-05
4.43631e-05
0.000166435
0.00016093
7.2304e-05
8.21758e-05
0.0196993
0.0367745
0.000567742
0.000161226
0.0152434
5.42086e-05
5.12721e-05
8.46721e-05
7.06322e-05
5.12117e-05
7.55071e-05
5.14242e-05
5.40827e-05
0.0392271
7.70139e-05
9.14102e-05
0.0210678
9.89324e-05
6.61996e-05
8.79375e-05
0.0227622
8.48012e-05
0.0144495
5.0682e-05
8.37533e-05
5.04728e-05
5.39518e-05
8.15375e-05
7.48182e-05
0.0191894
5.60911e-05
0.0224781
8.36048e-05
9.38081e-05
5.59204e-05
7.69675e-05
0.000130523
0.0212668
8.1382e-05
0.0312593
6.66686e-05
7.03795e-05
7.29564e-05
7.53066e-05
6.56552e-05
7.64686e-05
0.0306392
0.0293147
6.54488e-05
0.00584502
0.000163439
8.70477e-05
0.000101345
0.00011474
0.0221886
9.12004e-05
0.0216457
0.00194517
0.00214297
7.5033e-05
9.12052e-05
5.51809e-05
8.03306e-05
0.0167371
5.48581e-05
7.93124e-05
7.98797e-05
9.12115e-05
8.65489e-05
0.000239609
0.000101211
5.85449e-05
7.2959e-05
9.93575e-05
9.80189e-05
7.9903e-05
0.0147742
9.28096e-05
8.71543e-05
0.0266151
7.78892e-05
9.97339e-05
0.000193252
6.83199e-05
0.0299402
7.06825e-05
5.38695e-05
9.87729e-05
5.083e-05
7.32206e-05
0.000170073
0.0321704
0.0383124
7.59666e-05
8.86859e-05
5.93429e-05
0.0145102
0.0116865
7.94836e-05
7.97437e-05
7.58294e-05
0.000101963
0.00761985
6.65273e-05
5.52141e-05
7.1441e-05
7.27404e-05
6.78887e-05
8.86297e-05
5.47337e-05
0.00010144
6.82218e-05
7.3647e-05
8.45034e-05
0.020781
5.72453e-05
8.93236e-05
6.24764e-05
9.34498e-05
0.000107378
9.68702e-05
0.000106202
0.00019715
8.38896e-05
9.47151e-05
0.0298809
0.030685
0.0232213
6.52299e-05
7.24585e-05
6.06251e-05
8.28758e-05
0.0240527
5.18848e-05
0.0125774
8.68476e-05
0.0270742
0.000151341
9.12542e-05
0.0210531
6.51792e-05
0.000107891
6.26133e-05
6.14309e-05
0.0278663
5.08741e-05
0.000386039
4.91278e-05
8.8975e-05
7.26462e-05
0.000221152
6.7893e-05
5.50273e-05
0.000146898
0.000100843
0.00829008
0.0166295
0.0313215
0.0220281
5.72922e-05
0.0147707
4.65398e-05
0.0279605
0.00386532
6.15166e-05
4.56572e-05
4.97741e-05
9.25294e-05
9.11167e-05
5.10211e-05
6.30719e-05
9.00592e-05
0.0143897
7.69361e-05
0.000105667
7.9072e-05
5.49102e-05
5.24571e-05
0.000459426
0.0209027
0.0180791
0.000111366
8.87031e-05
0.00910637
0.0203934
6.10324e-05
0.0196288
9.11952e-05
0.000136164
8.25172e-05
0.010974
7.24394e-05
6.82542e-05
8.83907e-05
0.00834391
9.28327e-05
0.0244074
5.59556e-05
9.19769e-05
6.52739e-05
5.34479e-05
0.0199018
0.000904867
6.50683e-05
0.000167972
8.55217e-05
6.07649e-05
5.01436e-05
0.0213583
7.6994e-05
7.33548e-05
5.17762e-05
6.5021e-05
0.00027821
4.99487e-05
0.000155788
6.03422e-05
6.7599e-05
0.0336981
0.000106791
7.93692e-05
0.0094197
0.000314322
0.00012327
0.000197444
6.4984e-05
7.96837e-05
0.0194747
0.000434305
8.43014e-05
8.19474e-05
6.82775e-05
6.02338e-05
6.87405e-05
0.000325456
0.000111056
8.56918e-05
0.0357944
9.31547e-05
0.000275328
0.0134038
6.50814e-05
9.11675e-05
0.000191516
0.0177971
6.2554e-05
7.39504e-05
0.00040968
6.78597e-05
5.7493e-05
5.19904e-05
5.93095e-05
7.45937e-05
0.0148972
9.51815e-05
6.40318e-05
0.000128162
5.60971e-05
0.0215
6.1815e-05
6.67852e-05
0.0316556
0.000104983
0.00300889
8.78212e-05
4.9358e-05
6.55931e-05
8.8467e-05
9.03908e-05
7.12798e-05
0.0155356
8.77427e-05
0.00914023
0.00296084
7.39995e-05
0.0314693
8.84608e-05
6.3647e-05
6.51551e-05
0.0224607
0.0390265
8.67554e-05
0.015647
0.0135869
6.72667e-05
6.63206e-05
8.13232e-05
0.0205171
0.00401959
9.28248e-05
8.82659e-05
8.9228e-05
0.000138679
7.22576e-05
0.000152859
9.51582e-05
7.94135e-05
8.49408e-05
6.4039e-05
9.02351e-05
7.26818e-05
0.000541206
8.34684e-05
6.08299e-05
0.0153949
4.59878e-05
0.0138447
8.1928e-05
8.32681e-05
8.75059e-05
0.000381673
5.80003e-05
0.000105874
0.0201096
0.0025108
8.34563e-05
8.36735e-05
7.6571e-05
8.20525e-05
8.87994e-05
7.82757e-05
5.57683e-05
0.000358419
0.000155729
6.45128e-05
0.00123906
9.19693e-05
9.1111e-05
0.000172023
7.62223e-05
0.000107763
0.0134494
5.57051e-05
0.000105178
0.000119358
9.49021e-05
6.80138e-05
6.61478e-05
6.85319e-05
0.0131483
8.48267e-05
6.15932e-05
9.75166e-05
7.14704e-05
6.6385e-05
0.000148886
0.00686831
8.0698e-05
0.03705
9.33469e-05
0.022702
8.91228e-05
7.40207e-05
0.00660529
6.12909e-05
4.42254e-05
5.59929e-05
5.79138e-05
8.70289e-05
8.33756e-05
9.87512e-05
6.79312e-05
0.00112653
7.04179e-05
0.00513745
8.21184e-05
9.13133e-05
5.06535e-05
0.00011562
7.87675e-05
0.0230047
8.15094e-05
5.66091e-05
0.020391
8.46771e-05
0.0186243
9.1353e-05
8.98282e-05
7.24351e-05
6.43203e-05
8.34835e-05
0.0281503
8.99216e-05
0.000127734
0.0346091
8.20254e-05
9.49107e-05
4.42966e-05
6.4371e-05
0.00633601
4.43087e-05
0.0340196
8.96976e-05
8.94934e-05
0.00014176
0.000235195
5.6594e-05
5.9147e-05
0.00013759
6.4702e-05
7.87337e-05
8.25824e-05
7.19476e-05
9.74865e-05
5.64883e-05
0.000214743
7.91712e-05
0.0140962
0.0185206
9.36205e-05
0.0232672
0.0347241
0.0130653
0.00118509
6.57467e-05
6.03625e-05
8.46312e-05
8.35165e-05
7.56876e-05
9.01232e-05
7.64553e-05
0.000159244
7.89568e-05
0.0104656
8.48393e-05
9.39768e-05
0.000125517
6.46847e-05
9.10033e-05
8.45907e-05
6.21203e-05
8.84864e-05
5.01585e-05
0.0322656
0.000114957
0.000707488
6.58571e-05
8.99962e-05
7.26691e-05
7.06404e-05
0.0244189
6.62325e-05
0.000347007
7.24553e-05
0.00249743
7.76811e-05
7.42685e-05
0.000106796
6.91412e-05
6.64365e-05
0.0028595
0.0186793
8.02447e-05
0.000115573
6.39096e-05
0.000191274
4.98398e-05
7.09195e-05
0.0175607
5.97567e-05
8.68896e-05
0.000127298
0.0166937
4.98686e-05
0.00461586
0.0097865
5.75716e-05
7.38302e-05
7.21409e-05
0.0134927
8.9292e-05
0.000157438
8.42587e-05
0.0304682
7.82372e-05
0.0156382
6.77089e-05
4.90316e-05
0.000727904
7.73629e-05
4.57017e-05
0.0291441
8.12421e-05
7.00707e-05
0.00185106
5.73619e-05
6.01736e-05
0.000110677
8.21601e-05
0.024374
9.05742e-05
0.000114406
0.000180873
8.89653e-05
0.0296317
7.93731e-05
0.00010758
8.49156e-05
0.0209211
0.00254581
8.85584e-05
5.00088e-05
6.18038e-05
7.97617e-05
5.00183e-05
5.59931e-05
5.93345e-05
8.39073e-05
8.8515e-05
5.56389e-05
8.12397e-05
0.000112377
0.022756
0.0232366
0.000121086
7.2907e-05
0.000968845
7.60247e-05
0.00535761
0.00636301
0.00820104
5.31846e-05
6.59364e-05
8.19285e-05
7.69183e-05
5.29017e-05
5.0635e-05
7.85546e-05
9.16351e-05
7.03279e-05
0.0128447
0.00171321
6.93765e-05
0.0279438
8.5077e-05
6.80385e-05
6.85477e-05
0.0218956
0.000100833
5.11461e-05
0.00318881
6.40198e-05
6.72569e-05
0.00273483
6.05778e-05
0.0350677
8.70739e-05
0.000194246
6.65506e-05
5.831e-05
8.52275e-05
8.28215e-05
8.39507e-05
0.0219615
6.94177e-05
7.0913e-05
7.38802e-05
8.96016e-05
6.59297e-05
0.000127589
9.51679e-05
8.54859e-05
0.0240609
0.0132284
3.83363e-05
0.000132753
5.8941e-05
0.0237775
5.7938e-05
0.0194986
0.000104116
9.0872e-05
8.36944e-05
0.0174645
0.036586
0.0124352
5.03021e-05
0.00582774
5.0166e-05
7.6668e-05
9.55685e-05
7.89476e-05
8.40492e-05
0.00102372
0.0165575
5.81302e-05
9.29187e-05
0.0194754
4.90518e-05
5.26729e-05
0.0115971
0.0228867
8.34935e-05
4.66409e-05
8.96637e-05
8.73668e-05
6.67768e-05
7.8224e-05
8.04561e-05
8.49324e-05
0.00864463
5.03695e-05
0.000207811
0.00690136
6.84083e-05
0.0210493
8.80148e-05
8.46273e-05
5.06492e-05
0.0165021
0.000291561
4.35118e-05
8.50661e-05
9.02374e-05
8.69951e-05
4.96526e-05
0.0229092
6.1143e-05
7.22111e-05
0.000100522
7.27062e-05
0.00245414
0.000114035
0.000152501
0.000105563
0.00557521
0.0040053
0.0186963
0.0270879
7.75768e-05
0.00491523
5.27631e-05
0.000101187
0.000114157
0.00507708
8.79492e-05
6.16451e-05
8.69269e-05
0.000240539
8.05492e-05
0.0221816
9.13025e-05
0.000122033
0.0209494
5.77854e-05
0.000135151
8.24101e-05
7.71221e-05
6.78195e-05
0.000144101
4.92832e-05
6.36023e-05
8.38247e-05
0.0160239
6.97193e-05
8.10042e-05
9.13288e-05
7.96102e-05
8.07588e-05
0.000125837
0.000111141
7.24298e-05
6.5402e-05
0.000126029
3.62938e-05
8.40004e-05
0.0302338
8.66112e-05
8.76127e-05
0.0387859
6.18097e-05
8.10211e-05
0.0273047
0.0219771
7.62887e-05
0.000101087
8.20195e-05
0.0134117
0.00051855
8.61005e-05
0.017291
6.63094e-05
0.000115747
0.0217572
0.0003042
0.00489183
0.0216568
5.38357e-05
7.34607e-05
8.92151e-05
8.09122e-05
7.35445e-05
0.000591078
5.91599e-05
9.53089e-05
5.94091e-05
0.000104233
0.0227659
8.19332e-05
0.0154269
0.0326207
8.71326e-05
0.000115265
8.04019e-05
8.19483e-05
8.17418e-05
0.0236193
0.000110594
0.0176259
8.54089e-05
0.0508757
0.000120422
4.95272e-05
0.000144148
9.16412e-05
5.06149e-05
7.3963e-05
0.00105682
8.20285e-05
8.35755e-05
8.66306e-05
8.03301e-05
9.04303e-05
0.000101687
0.0141649
7.5966e-05
0.000279381
0.000251599
7.84627e-05
7.54816e-05
5.90193e-05
0.0117313
0.00583942
6.34449e-05
9.3758e-05
3.62851e-05
0.000765822
0.0152498
8.40709e-05
6.90876e-05
5.37477e-05
8.99113e-05
8.38997e-05
8.10907e-05
0.0131242
7.11641e-05
8.89843e-05
9.43409e-05
4.04447e-05
0.000120584
0.0232835
0.047737
8.83137e-05
6.70879e-05
6.91566e-05
8.10197e-05
0.000111222
0.0317736
0.000767509
0.000128074
8.44726e-05
9.92351e-05
9.09099e-05
1.91256e-06
8.31191e-05
0.000143359
6.32987e-05
0.000175229
1.51583e-05
6.21377e-05
8.87562e-05
0.0252685
9.69701e-05
6.90154e-05
0.025187
0.000164832
6.58462e-05
0.0038234
7.55063e-05
8.02072e-05
0.0208686
0.00865159
6.32402e-05
7.61205e-05
0.00014045
8.74092e-05
8.52885e-05
5.62217e-05
7.55954e-05
6.57243e-05
8.25923e-05
8.87663e-05
9.57346e-05
0.0180629
8.78206e-05
8.83669e-05
9.27969e-05
0.000118341
6.49584e-05
8.63367e-05
0.00139636
0.00034021
0.0190456
7.95506e-05
5.58597e-05
0.021747
6.97749e-05
0.000267184
8.60442e-05
9.13639e-05
8.14127e-05
6.98558e-05
0.0032729
8.75653e-05
7.89087e-05
8.99489e-05
0.0187007
0.00567951
0.0202571
7.04138e-05
7.39688e-05
0.0195683
5.21373e-05
5.44773e-05
0.000156612
0.00901737
8.54318e-05
9.18947e-05
8.53092e-05
0.0156483
8.10557e-05
7.58685e-05
9.06975e-05
5.5778e-05
0.00033417
8.05963e-05
6.5578e-05
0.00149799
0.000103989
0.0164452
0.000370194
7.92593e-05
9.0988e-05
6.66269e-05
6.53932e-05
7.35955e-05
8.29879e-05
8.12444e-05
0.000268518
8.38919e-05
0.000109811
6.74469e-05
5.85073e-05
8.75863e-05
5.0171e-05
6.75764e-05
0.0242605
4.97679e-05
0.000189727
0.000109683
8.37913e-05
0.000100263
9.19271e-05
9.10248e-05
7.94616e-05
6.45949e-05
6.85259e-05
6.19069e-05
0.00300608
8.39372e-05
6.38663e-05
6.21544e-05
6.43583e-05
5.18676e-05
0.000101316
7.30641e-05
0.0240559
9.56421e-05
5.85142e-05
8.40516e-05
6.00647e-05
9.53199e-05
2.04221e-05
0.035863
4.50974e-05
0.00259647
5.85159e-05
0.000128505
7.81048e-05
0.0224947
5.92969e-05
4.96294e-05
8.51329e-05
0.00164847
6.04369e-05
0.0242936
7.66326e-05
6.29936e-05
0.000160354
0.00125742
0.0136251
0.00115988
8.72867e-05
0.000189771
4.51078e-05
5.56215e-05
0.0227829
8.55406e-05
5.1263e-05
0.0102228
5.93155e-05
0.0250449
0.000200069
7.22298e-05
8.38465e-05
5.58627e-05
0.0308656
5.15085e-05
5.61243e-05
0.00011341
7.92525e-05
6.61787e-05
4.95965e-05
5.49832e-05
9.76571e-05
8.63279e-05
7.25311e-05
6.47938e-05
0.00694546
7.91057e-05
6.52662e-05
6.54358e-05
8.3332e-05
8.33739e-05
8.95728e-05
7.12099e-05
6.13874e-05
8.68476e-05
7.74277e-05
8.10138e-05
8.19394e-05
9.62475e-05
5.9831e-05
0.000115781
7.31823e-05
8.87269e-05
6.29961e-05
8.1358e-05
7.18029e-05
5.02378e-05
8.82572e-05
7.79311e-05
9.11937e-05
0.0174667
1.40984e-05
0.0303192
0.0233459
0.000116143
0.0239574
7.39914e-05
8.19098e-05
0.00885989
0.0189686
5.19945e-05
0.0202001
6.12879e-05
0.000154257
0.0116953
8.88822e-05
0.000117413
0.0210951
0.0332813
5.94972e-05
9.8443e-05
6.9558e-05
0.000545349
8.88313e-05
0.0270758
0.0131924
8.21633e-05
8.61563e-05
0.00101413
5.73314e-05
0.013473
0.00258684
8.2598e-05
7.15997e-05
0.00104614
0.0222005
5.55064e-05
9.30964e-05
7.70025e-05
0.00377702
0.00017011
7.91446e-05
6.32019e-05
0.0104226
6.494e-05
8.74922e-05
8.70364e-05
6.37849e-05
0.0103558
7.82811e-05
8.98052e-05
0.0246226
8.27423e-05
9.60104e-05
8.92951e-05
0.00106314
9.92956e-05
0.00072322
6.25657e-05
9.01417e-05
4.96697e-05
6.27226e-05
9.15559e-05
7.92355e-05
0.0161705
8.19526e-05
6.41939e-05
7.6427e-05
0.00265387
7.11705e-05
0.00544417
0.0176866
0.0107179
7.08552e-05
6.407e-05
8.05047e-05
0.0019717
7.90233e-05
0.0180229
5.96424e-05
0.0267547
8.17091e-05
6.19015e-05
0.00216982
7.82334e-05
5.7093e-05
0.0214363
0.000142387
0.0241003
6.18021e-05
0.0266598
0.034489
7.64135e-05
0.0218984
7.6804e-05
7.79797e-05
0.041789
7.83084e-05
8.66288e-05
0.0173684
8.27762e-05
0.000107733
8.80298e-05
0.0136812
8.61632e-05
0.00519861
8.09623e-05
0.0164857
8.69409e-05
8.87824e-05
7.21616e-05
0.00628852
6.4505e-05
1.99643e-05
0.000102361
0.0209562
7.90442e-05
8.41893e-05
0.0287091
0.000129603
0.00696762
0.00011327
6.27637e-05
0.000141962
0.0239477
7.99955e-05
0.0101806
4.91683e-05
0.000187879
0.0138869
6.45003e-05
0.0153531
8.43383e-05
0.0251986
0.00822108
8.36538e-05
7.3694e-05
0.00519735
0.0133649
8.9508e-05
8.58499e-05
6.37379e-05
7.77326e-05
0.022371
0.00010453
0.00192121
6.97534e-05
8.69408e-05
0.0255511
6.21469e-05
0.0041301
0.0110197
7.79125e-05
8.56349e-05
0.000267072
0.0189643
0.0121186
0.0108009
0.000273894
8.87907e-05
9.15255e-05
0.0276551
0.0221793
0.00754423
7.13821e-05
0.000115177
9.49663e-05
0.000108065
8.07963e-05
9.15496e-05
0.000101239
0.000204719
0.0129322
5.78279e-05
0.00211769
0.0239469
8.78085e-05
8.75345e-05
8.73468e-05
0.000113701
6.38001e-05
0.0312231
8.69366e-05
5.18563e-05
0.000296398
5.63489e-05
6.49414e-05
9.16384e-05
9.07985e-05
8.13183e-05
0.030287
5.96996e-05
0.0318049
6.16947e-05
0.022671
0.00423876
0.000284424
5.00689e-05
8.48612e-05
8.31113e-05
0.00143352
0.000145068
0.000108789
0.0225576
0.0133762
4.42894e-05
8.56177e-05
6.20444e-05
0.000159332
0.0144508
4.84712e-05
6.43249e-05
8.34892e-05
0.00378157
0.00131397
6.2396e-05
9.51313e-05
0.000282808
7.04469e-05
5.81248e-05
8.08688e-05
0.0314343
7.79009e-05
0.000840781
0.0188169
8.95925e-05
8.02338e-05
0.00950928
7.5054e-05
8.89919e-05
0.0191045
9.34459e-05
0.000120641
9.4218e-05
0.000103551
0.0183743
0.0261826
8.74424e-05
0.0192177
0.0102635
5.95337e-05
0.000166359
0.000106632
0.000142311
0.0149497
0.00154273
0.0137574
0.000138253
0.0199019
8.56058e-05
0.00010923
4.53237e-05
8.78939e-05
8.12649e-05
6.85528e-05
0.00234312
0.000214242
4.94432e-05
8.77703e-05
0.000232231
7.493e-05
0.00682138
0.0242847
4.47737e-05
7.88851e-05
4.59528e-05
7.93384e-05
9.75951e-05
8.60949e-05
0.0506342
9.06385e-05
0.000108127
8.00991e-05
0.000107015
8.9031e-05
8.19798e-05
0.00152249
8.0984e-05
7.95783e-05
4.91471e-05
6.22063e-05
0.028421
0.000129716
8.39264e-05
0.0473332
6.99368e-05
7.69822e-05
8.35193e-05
6.17166e-05
5.91221e-05
0.000110424
8.72515e-05
0.0192461
0.0175874
0.0225739
9.00643e-05
0.0191511
7.92694e-05
0.00392767
6.44562e-05
0.000180534
0.0173397
7.17912e-05
0.0027911
0.0193745
8.52273e-05
7.70195e-05
5.18865e-05
8.47922e-05
0.0204239
6.33398e-05
8.66852e-05
6.93097e-05
7.8989e-05
0.000265333
8.51517e-05
8.6795e-05
7.67001e-05
6.57432e-05
0.010277
9.09072e-05
7.57948e-05
0.000160021
0.000117915
0.0274591
0.0185347
7.70313e-05
7.76404e-05
0.0189638
8.04279e-05
0.000106772
8.91993e-05
0.0224817
6.64159e-05
7.14095e-05
7.52458e-05
0.023334
8.61574e-05
6.2331e-05
5.89929e-05
0.000183116
0.0124404
0.000149218
9.02552e-05
7.83433e-05
6.99457e-05
0.0245324
4.90712e-05
0.0129297
0.000103355
7.02374e-05
0.000731213
8.26228e-05
0.0016817
9.08523e-05
5.45409e-05
8.75291e-05
8.67503e-05
0.00015874
8.65362e-05
7.87543e-05
6.61806e-05
0.0230703
7.15994e-05
8.61161e-05
0.0257416
8.14773e-05
6.21776e-05
8.75883e-05
6.66129e-05
6.22938e-05
0.00204966
9.09365e-05
0.0221048
0.00238465
4.91561e-05
0.0328351
8.16401e-05
0.000137326
9.51264e-05
8.49133e-05
5.03732e-05
4.88624e-05
8.55436e-05
0.0222698
9.88899e-05
0.0241271
0.0213218
6.87298e-05
5.69222e-05
8.88727e-05
0.00931157
8.43407e-05
9.55006e-05
0.0266702
0.020341
6.43518e-05
8.56448e-05
8.46319e-05
0.00089848
0.0281419
5.18168e-05
8.86997e-05
9.07646e-05
0.0528607
8.6459e-05
8.60599e-05
7.89359e-05
0.000151714
0.0078414
5.99083e-05
0.0230855
7.85608e-05
8.72162e-05
0.0186019
0.000102989
0.0347063
0.0219883
8.56002e-05
7.82301e-05
8.70346e-05
8.19027e-05
7.87006e-05
9.76757e-05
9.13653e-05
6.16112e-05
8.78794e-05
0.000768544
0.0165387
6.31544e-05
0.000139742
0.0186828
0.0354977
6.13699e-05
8.37656e-05
0.0030923
0.0158893
0.000107703
7.06579e-05
0.0193304
0.000109289
4.93992e-05
0.0177937
8.52021e-05
7.59959e-05
0.0011927
7.16485e-05
7.24068e-05
6.36396e-05
4.83795e-05
7.10801e-05
5.88891e-05
0.0235929
4.99328e-05
7.45206e-05
0.000113984
9.10188e-05
7.98361e-05
0.000171827
7.86069e-05
8.99394e-05
8.23858e-05
8.17222e-05
0.00196254
0.0026895
0.00630965
0.0200152
8.05802e-05
0.00333584
7.90766e-05
0.0239158
0.0185653
0.0235738
6.691e-05
8.25905e-05
8.49364e-05
7.61275e-05
6.19433e-05
6.09925e-05
0.000260785
0.000104866
8.721e-05
7.43972e-05
8.59675e-05
0.000103681
8.55982e-05
7.80105e-05
7.77852e-05
0.0260339
8.75513e-05
0.0124782
9.02859e-05
0.0029763
7.89769e-05
7.08999e-05
7.48706e-05
9.69214e-05
7.1905e-05
0.000119658
0.0222832
8.9414e-05
0.0209987
0.00258086
7.98528e-05
8.70925e-05
0.00407322
0.000145448
5.0359e-05
6.15194e-05
4.89952e-05
0.0212395
4.79177e-05
0.000105439
8.45307e-05
0.000113353
0.00980498
0.00359954
0.000106903
0.0308512
5.5085e-05
5.86486e-05
0.000402396
0.0163246
8.08275e-05
8.8416e-05
0.0220736
7.14348e-05
0.000281041
8.15158e-05
4.74453e-05
8.2934e-05
8.53292e-05
0.000109394
0.0216966
0.0200709
8.7781e-05
6.41398e-05
0.000113577
8.40973e-05
0.00011299
6.83875e-05
0.000175351
0.000126457
7.82716e-05
7.57748e-05
4.95888e-05
0.000157923
8.04513e-05
0.000275644
0.0114346
8.70533e-05
0.0188002
0.000113074
0.000144196
0.024091
7.9632e-05
0.021923
8.3767e-05
0.0259575
0.00297164
0.0214308
0.0233485
5.88074e-05
9.87679e-05
0.000486292
7.08986e-05
0.0172781
7.83769e-05
8.37105e-05
9.03465e-05
8.55497e-05
9.19561e-05
0.00128596
0.00909037
0.0396953
8.7148e-05
8.87547e-05
8.17368e-05
6.9937e-05
8.87479e-05
0.000166609
0.000121864
0.018661
9.32933e-05
4.9747e-05
6.42435e-05
7.45593e-05
0.000354468
8.0448e-05
7.4103e-05
8.49553e-05
0.000122275
9.2181e-05
8.72285e-05
8.20252e-05
0.0228997
8.68131e-05
9.24421e-05
8.4655e-05
9.05524e-05
0.00324812
2.83347e-05
9.05783e-05
6.14776e-05
0.0191479
9.05452e-05
7.04381e-05
9.69641e-05
0.0239216
0.000425789
8.58523e-05
7.13375e-05
0.0223607
7.84979e-05
7.07268e-05
4.98833e-05
0.0112997
0.0112024
7.38295e-05
0.0144226
0.0210275
8.75926e-05
8.18004e-05
0.00010161
0.031763
8.7283e-05
0.0277259
7.79815e-05
7.4836e-05
6.06571e-05
0.0283096
9.15564e-05
6.13592e-05
0.0259689
8.2475e-05
8.1519e-05
0.0276445
0.0173266
0.000108945
0.00449216
9.03674e-05
8.58255e-05
0.014313
7.09847e-05
7.88268e-05
8.85374e-05
9.49625e-05
8.40157e-05
8.15359e-05
9.30516e-05
0.000119215
0.0110731
8.65124e-05
0.017609
8.85243e-05
0.0245516
0.0212049
8.72269e-05
8.56782e-05
9.0023e-05
0.00739681
0.000260596
0.000106248
0.0234845
0.0224196
0.0148704
6.44814e-05
0.0152303
0.0177967
7.99433e-05
0.00992846
7.79541e-05
7.09703e-05
8.99524e-05
7.86582e-05
8.02247e-05
9.27283e-05
0.0204099
7.98288e-05
0.00300405
0.0297716
0.0138578
0.0205467
0.0277117
7.79064e-05
0.029402
0.000139937
0.000113348
6.38606e-05
7.14021e-05
0.000108657
0.0189444
7.21812e-05
0.0225147
0.0268185
6.697e-05
8.59514e-05
6.15746e-05
0.000121952
7.8467e-05
0.000110308
0.0218383
6.26993e-05
8.81525e-05
6.71362e-05
8.38124e-05
0.000132983
0.0216149
8.598e-05
0.0180788
0.000142555
7.64779e-05
0.00187923
0.000161355
5.60257e-05
0.00524567
0.00990122
0.0182919
0.00814637
0.0198985
7.11613e-05
0.0147641
0.0226407
0.000191528
0.0191247
6.24001e-05
8.08093e-05
8.34718e-05
8.95553e-05
0.0228538
0.000105727
8.5209e-05
8.67569e-05
0.00348183
0.0226699
6.42627e-05
5.05114e-05
0.0311706
0.0273861
8.78077e-05
8.46228e-05
0.000137065
8.3596e-05
8.74254e-05
0.0166628
7.45155e-05
0.000501044
0.00230087
0.0239779
7.16994e-05
0.000109346
0.000188462
6.99353e-05
4.90449e-05
0.0218158
0.0128066
7.01509e-05
8.18973e-05
0.000212623
0.00031825
0.0293361
0.0125016
8.52798e-05
0.00197721
0.00357192
8.99682e-05
7.6852e-05
0.000108238
5.81847e-05
4.94665e-05
0.0191054
8.82182e-05
0.000126616
8.80585e-05
7.03863e-05
6.40559e-05
5.7329e-05
8.63007e-05
8.61786e-05
0.0176738
8.8037e-05
0.0093474
0.0158723
9.2874e-05
0.000110199
0.0204141
0.0272523
0.0181588
4.96928e-05
8.82842e-05
9.03295e-05
8.50342e-05
0.000263948
0.00228198
8.67614e-05
0.00918859
0.0223862
8.4662e-05
0.000127067
0.000113167
0.000134998
0.000144456
8.62222e-05
0.000159218
0.000174986
0.000195728
0.000223221
0.000148835
0.000118225
7.33213e-05
7.4446e-05
9.1227e-05
0.000126251
7.27623e-05
0.00475669
0.0303776
0.000312936
0.0253169
4.92228e-05
6.07876e-05
7.32084e-05
0.0197683
8.6235e-05
8.03832e-05
0.000108149
0.0421338
0.0220971
7.89207e-05
8.22777e-05
8.70245e-05
0.0214133
0.00320129
9.03176e-05
0.00495384
0.0226586
0.000135375
0.0273492
0.000127791
4.7079e-05
0.0299093
4.42195e-05
0.0294344
0.0247297
8.12741e-05
0.000107948
0.000130416
7.77052e-05
6.38853e-05
0.0103129
0.0183653
5.77321e-05
5.79064e-05
0.0182607
0.00717344
0.000113992
8.07781e-05
0.000714077
0.000168226
0.026688
0.0211649
8.60419e-05
8.58364e-05
8.60034e-05
7.38213e-05
0.0266793
0.0213921
0.0242893
0.000121131
0.00272658
0.00458478
7.18807e-05
7.14196e-05
0.0226494
6.1963e-05
0.0284498
4.74435e-05
0.0276671
8.61165e-05
7.84228e-05
0.0136547
7.21355e-05
0.000146835
0.00593336
9.46593e-05
7.85455e-05
8.60978e-05
0.00024975
0.0195611
0.000188421
0.0256129
8.04835e-05
6.71017e-05
8.98806e-05
0.000112454
0.0310853
0.0426406
0.00012943
0.000379337
0.000161623
0.0166844
4.55988e-05
6.10958e-05
6.28936e-05
6.3977e-05
0.00263067
9.74403e-05
0.00122288
8.95031e-05
0.000197718
7.13457e-05
0.00284827
0.00892239
0.0195513
8.98428e-05
8.56135e-05
4.85177e-05
0.0239914
3.55218e-05
0.00779401
0.00225612
0.000158044
0.00189065
4.92881e-05
9.36609e-05
0.000187087
0.00308315
0.00675793
8.24671e-05
0.000174785
7.67334e-05
6.68824e-05
0.000136318
0.0175503
0.00616316
7.59833e-05
0.000119787
0.000318959
0.0199572
0.015846
0.0260947
0.0245807
6.56832e-05
0.00010274
6.92703e-05
0.000181334
6.32471e-05
0.000143428
7.64333e-05
9.72759e-05
0.00423654
0.00602524
8.31565e-05
0.00014036
0.0247611
0.000153258
7.73806e-05
0.0301951
0.000142663
6.27661e-05
6.80697e-05
0.0234245
8.82813e-05
0.000163263
0.00551161
0.000217532
0.0164668
7.46881e-05
0.0220633
0.022106
0.0225277
0.00428442
9.02321e-05
0.000143517
0.000132816
0.0251444
0.000109819
8.60323e-05
0.00988098
9.11574e-05
0.0041329
8.41889e-05
0.0359734
0.00308533
0.0116104
9.14307e-05
0.00274745
8.34624e-05
0.0200173
0.000191744
0.0125745
0.0140203
7.13023e-05
4.80513e-05
0.0219143
0.028876
7.02284e-05
8.53604e-05
9.01465e-05
7.95328e-05
0.0211097
0.000103066
0.0246866
8.4755e-05
0.0245793
0.000161463
0.0206427
8.58297e-05
0.0014492
0.0339152
8.52075e-05
0.000121995
4.95733e-05
8.75282e-05
8.65473e-05
0.00294127
7.46872e-05
8.90033e-05
0.0294662
0.0164757
6.33991e-05
0.0301183
8.42519e-05
7.16472e-05
8.08922e-05
6.36316e-05
8.73621e-05
0.00563238
0.0296142
6.02208e-05
0.0284805
0.000109183
9.93593e-05
0.0103255
0.000122749
8.48852e-05
9.35274e-05
8.36291e-05
0.00357087
8.18806e-05
0.0305193
8.54447e-05
0.0207241
0.00813378
0.000109132
0.0104174
0.0244256
6.68002e-05
0.0188823
0.000100157
0.000107228
8.06665e-05
7.17611e-05
8.13802e-05
0.000267348
8.63235e-05
9.89435e-05
8.83839e-05
0.024649
0.000192625
0.0178645
0.000245113
0.00023174
0.0290113
8.05279e-05
6.30159e-05
0.000106608
8.32352e-05
8.59496e-05
8.61735e-05
8.46356e-05
7.08775e-05
7.90973e-05
8.30664e-05
8.94554e-05
8.34274e-05
8.37405e-05
7.92966e-05
8.08306e-05
0.000136722
8.36568e-05
0.0257741
8.40794e-05
7.9407e-05
0.000129594
9.72955e-05
7.51127e-05
7.00063e-05
0.0249757
9.11423e-05
0.0218399
9.07123e-05
0.000149358
8.23021e-05
7.03921e-05
0.00013866
0.0308228
0.000111565
8.60871e-05
5.24904e-05
0.0269032
8.68339e-05
7.77914e-05
0.000116261
8.85491e-05
0.000192561
0.0247829
0.000134044
0.00210157
9.01823e-05
0.0165307
7.43107e-05
8.34222e-05
0.000103781
0.00191372
0.00010482
0.000134577
0.0244344
8.43721e-05
8.32776e-05
8.97359e-05
0.000679148
0.000104662
8.65889e-05
0.000137889
0.000133908
0.00010598
8.82818e-05
8.9191e-05
0.000356435
0.000104979
0.0110365
0.00403704
7.76202e-05
0.000110843
8.7466e-05
9.80022e-05
0.01342
8.02954e-05
0.000218649
0.000147817
0.000118537
0.0204058
8.62098e-05
7.28049e-05
8.1546e-05
0.0289504
0.000367213
8.17237e-05
0.00013789
0.000148262
8.72786e-05
7.24739e-05
0.000366668
0.0296781
0.000332619
0.024011
0.00019284
9.30037e-05
0.00594632
0.000161587
9.23566e-05
0.000506521
0.000126058
0.00102083
8.29677e-05
0.000134533
0.000178013
8.23953e-05
0.0278206
9.04804e-05
0.00011396
8.48213e-05
0.000200187
7.11474e-05
0.0199511
9.0758e-05
6.73103e-05
6.0614e-05
6.45668e-05
8.21859e-05
8.28435e-05
6.43616e-05