/*--------------------------------*- C++ -*----------------------------------*\
| =========                 |                                                 |
| \\      /  F ield         | OpenFOAM: The Open Source CFD Toolbox           |
|  \\    /   O peration     | Version:  v2012                                 |
|   \\  /    A nd           | Website:  www.openfoam.com                      |
|    \\/     M anipulation  |                                                 |
\*---------------------------------------------------------------------------*/
FoamFile
{
    version     2.0;
    format      ascii;
    class       volScalarField;
    location    "300";
    object      k_0;
}
// * * * * * * * * * * * * * * * * * * * * * * * * * * * * * * * * * * * * * //

dimensions      [0 2 -2 0 0 0 0];


internalField   nonuniform List<scalar> 
13917
(
0.0146259
8.5823e-05
0.000555784
8.69725e-05
7.47094e-05
8.54098e-05
8.98645e-05
0.000105943
9.21065e-05
0.00662522
0.000108981
8.34336e-05
9.57939e-05
0.0141185
7.93705e-05
0.0129089
5.73956e-05
9.91708e-05
0.000153091
0.0126187
8.62094e-05
7.34512e-05
9.69454e-05
7.33487e-05
8.52157e-05
8.65412e-05
0.0199526
0.00445461
8.99195e-05
4.48396e-05
0.00416378
0.000109549
8.5059e-05
0.021751
6.39867e-05
0.000120188
8.17776e-05
7.79966e-05
9.00197e-05
9.00056e-05
5.97328e-05
5.79559e-05
9.15198e-05
0.000145678
0.000145233
0.00198577
8.56554e-05
0.0388907
0.0100829
6.42e-05
8.34216e-05
0.000156212
0.00905404
7.92345e-05
7.99535e-05
0.000156535
0.00257697
9.68784e-05
5.77197e-05
0.00168947
0.0343013
6.79528e-05
4.67748e-05
8.52429e-05
0.0237432
0.000137321
9.17982e-05
0.000117668
0.000108806
0.0144077
0.0190305
0.0204386
8.8657e-05
5.76983e-05
8.6727e-05
8.41543e-05
7.38459e-05
5.7495e-05
8.41275e-05
8.50056e-05
7.7464e-05
5.88751e-05
8.89834e-05
0.0197364
7.78352e-05
0.000350377
0.000107873
7.80461e-05
8.95142e-05
5.67154e-05
5.45978e-05
9.16646e-05
0.0151626
6.26007e-05
7.96492e-05
9.19127e-05
0.0221841
6.30946e-05
7.8155e-05
0.000184606
5.07891e-05
5.04038e-05
7.77099e-05
6.2638e-05
7.36359e-05
0.0213019
0.0186945
6.94151e-05
5.80259e-05
0.0275558
9.0464e-05
0.0223335
9.00226e-05
0.0431428
0.0234838
8.39135e-05
0.000143947
5.2089e-05
0.000283571
9.00788e-05
5.87478e-05
5.77399e-05
9.47742e-05
0.000130549
0.0160058
0.0216437
8.54211e-05
8.73333e-05
6.70862e-05
0.000131166
9.36622e-05
0.000393507
0.0305124
8.37544e-05
0.000117999
0.0328331
0.0256533
0.0170579
8.71452e-05
8.22547e-05
0.00426495
5.75033e-05
0.0206069
7.30901e-05
8.80847e-05
5.92435e-05
0.0187242
0.00258505
0.0292399
7.94831e-05
8.83298e-05
4.91818e-05
8.81631e-05
9.04767e-05
0.0292964
7.16876e-05
6.24956e-05
0.030955
5.28479e-05
5.24467e-05
7.58439e-05
0.023654
8.14307e-05
0.00305547
0.0236541
0.000602813
0.00855993
0.0511217
4.42005e-05
8.79533e-05
7.29195e-05
0.0292387
9.22682e-05
0.0234417
0.000109362
5.15488e-05
8.71687e-05
0.000174398
9.34718e-05
8.15957e-05
9.10972e-05
7.27432e-05
8.3017e-05
0.00054648
0.000293244
0.000384244
8.2971e-05
0.000421069
4.49508e-05
0.000216379
0.000109094
0.000135806
0.000197064
0.0146018
6.28175e-05
0.0161264
8.6761e-05
0.030375
6.38318e-05
7.17066e-05
8.49677e-05
0.014255
0.0154454
8.06334e-05
0.0117457
8.51118e-05
8.8753e-05
5.77367e-05
0.00017305
7.72319e-05
6.60676e-05
7.69133e-05
7.77634e-05
0.0312409
0.0001161
8.71821e-05
0.0243741
7.39421e-05
5.4432e-05
5.42851e-05
0.0521339
0.000222298
0.00193146
8.63676e-05
4.86891e-05
0.0379881
0.0144998
5.43731e-05
5.4332e-05
6.1691e-05
5.42066e-05
5.40912e-05
0.019417
0.0222618
7.54591e-05
4.43997e-05
0.000113926
0.0195735
5.46789e-05
8.60666e-05
0.0161052
0.0213298
0.000227578
0.0243592
0.000132186
7.34122e-05
0.0413219
0.000115537
8.87886e-05
0.000115119
8.05891e-05
0.0234869
8.97438e-05
9.26096e-05
0.00010468
7.52066e-05
6.41545e-05
8.54704e-05
7.29852e-05
6.22497e-05
0.019609
0.00840175
5.87061e-05
5.46503e-05
7.19427e-05
5.47424e-05
8.99905e-05
9.1681e-05
9.24973e-05
5.87034e-05
0.0197611
0.0196296
8.15485e-05
7.27113e-05
0.00512505
5.19806e-05
0.000136619
0.0215481
5.20954e-05
0.0167555
6.20434e-05
0.0235035
5.18345e-05
7.84671e-05
7.51498e-05
7.21336e-05
0.000213216
6.92829e-05
0.00218036
8.69968e-05
0.0125728
6.03062e-05
0.00433238
0.0169498
5.30775e-05
9.93054e-05
7.36412e-05
8.36048e-05
7.43406e-05
8.43622e-05
6.23345e-05
6.82795e-05
0.000170924
6.86313e-05
9.22165e-05
8.43038e-05
8.53267e-05
0.0308773
0.0127126
6.6149e-05
4.70338e-05
8.38043e-05
0.000811922
0.000167828
0.0204693
0.0211924
8.13628e-05
0.000204311
7.24088e-05
0.0180959
0.000771311
0.000543042
9.25497e-05
7.90524e-05
0.0144485
7.26681e-05
8.72557e-05
0.000135345
5.65581e-05
0.0290642
7.78291e-05
9.79039e-05
5.04942e-05
0.00909246
6.7052e-05
9.14664e-05
8.55772e-05
5.96009e-05
5.54538e-05
0.000115378
0.0188306
7.99199e-05
7.24566e-05
0.0236545
0.0194608
0.0212993
0.0113897
5.21636e-05
7.62308e-05
0.0221147
0.00021764
5.23561e-05
7.40651e-05
8.13327e-05
9.53383e-05
9.19672e-05
0.000152907
0.000128772
0.000137507
9.72083e-05
0.0191641
6.72639e-05
8.01372e-05
7.49334e-05
0.000276184
5.54128e-05
0.0134994
9.72499e-05
0.00311223
7.9752e-05
0.000161425
4.61717e-05
0.0195966
5.71264e-05
0.00204211
0.00497213
8.64605e-05
8.1579e-05
0.0123221
5.03174e-05
0.0263363
0.000217674
5.69441e-05
0.0156456
7.50664e-05
0.000492176
6.10433e-05
0.0133815
0.000429253
8.21105e-05
0.0373949
0.000122138
8.03218e-05
0.0224692
0.00036942
8.23765e-05
0.000219688
7.68071e-05
0.000122273
0.000487789
7.78887e-05
9.0699e-05
8.45537e-05
7.25594e-05
7.07856e-05
6.77891e-05
0.0272383
0.000293533
8.00345e-05
6.74879e-05
7.3141e-05
9.82712e-05
0.000140052
5.10771e-05
4.43631e-05
0.000166434
0.000160918
7.23038e-05
8.2176e-05
0.0196617
0.0367315
0.000564643
0.000161223
0.0152436
5.42087e-05
5.12721e-05
8.46745e-05
7.06321e-05
5.12117e-05
7.55071e-05
5.14242e-05
5.40828e-05
0.03919
7.70141e-05
9.14062e-05
0.0210673
9.89336e-05
6.61996e-05
8.79384e-05
0.0227413
8.48029e-05
0.0144494
5.0682e-05
8.37532e-05
5.04727e-05
5.39518e-05
8.15375e-05
7.48182e-05
0.019158
5.61059e-05
0.0224749
8.36048e-05
9.38081e-05
5.59286e-05
7.69678e-05
0.00013054
0.0212367
8.13813e-05
0.0311867
6.66685e-05
7.03795e-05
7.29566e-05
7.53065e-05
6.5655e-05
7.64685e-05
0.030638
0.0289203
6.54487e-05
0.00589942
0.000163438
8.70477e-05
0.000101346
0.00011474
0.0221666
9.12006e-05
0.021643
0.00193135
0.00211327
7.5033e-05
9.09421e-05
5.51943e-05
8.03306e-05
0.0167191
5.48581e-05
7.93125e-05
7.98797e-05
9.12118e-05
8.65484e-05
0.000239606
0.000101211
5.85481e-05
7.2959e-05
9.93608e-05
9.80134e-05
7.9903e-05
0.0146511
9.28092e-05
8.7155e-05
0.0264548
7.78891e-05
9.97285e-05
0.000193269
6.83198e-05
0.0299391
7.06825e-05
5.38695e-05
9.87745e-05
5.083e-05
7.32206e-05
0.000170074
0.0321689
0.0383163
7.59663e-05
8.86856e-05
5.93385e-05
0.0144867
0.0116626
7.94837e-05
7.97439e-05
7.58294e-05
0.000101964
0.00756399
6.65272e-05
5.52141e-05
7.14407e-05
7.27407e-05
6.78904e-05
8.8629e-05
5.47337e-05
0.00010144
6.82217e-05
7.3647e-05
8.45036e-05
0.0207834
5.72453e-05
8.93233e-05
6.24766e-05
9.34496e-05
0.000107379
9.68562e-05
0.000106205
0.000197746
8.389e-05
9.47213e-05
0.0298795
0.0307115
0.0232207
6.52301e-05
7.24582e-05
6.06222e-05
8.28747e-05
0.024056
5.18848e-05
0.0126794
8.68477e-05
0.0270737
0.000151341
9.12545e-05
0.0210176
6.51793e-05
0.000107891
6.26133e-05
6.14304e-05
0.0278659
5.08741e-05
0.000385993
4.91278e-05
8.89749e-05
7.26463e-05
0.000221151
6.78945e-05
5.50274e-05
0.000146896
0.000100844
0.00827975
0.0166311
0.03132
0.0220001
5.72922e-05
0.0147705
4.65398e-05
0.0275597
0.00378872
6.1516e-05
4.56081e-05
4.97742e-05
9.25291e-05
9.11172e-05
5.10211e-05
6.30719e-05
9.00593e-05
0.014391
7.69363e-05
0.000105667
7.90719e-05
5.49102e-05
5.2457e-05
0.000458039
0.0208966
0.0180599
0.000111367
8.87022e-05
0.00910332
0.0203933
6.10323e-05
0.0196047
9.11954e-05
0.000136164
8.25167e-05
0.0109748
7.24397e-05
6.82554e-05
8.83882e-05
0.00832736
9.28323e-05
0.0244124
5.59556e-05
9.19766e-05
6.52738e-05
5.34479e-05
0.0199023
0.000923941
6.50683e-05
0.000167968
8.55216e-05
6.07651e-05
5.01436e-05
0.0213594
7.69942e-05
7.33549e-05
5.17761e-05
6.50206e-05
0.000278196
4.99487e-05
0.000155785
6.03421e-05
6.7599e-05
0.0332183
0.000106791
7.93693e-05
0.00941962
0.000314309
0.000123262
0.000197452
6.49842e-05
7.96817e-05
0.0194758
0.000434203
8.43039e-05
8.19477e-05
6.82798e-05
6.02338e-05
6.87403e-05
0.000323603
0.000111057
8.56921e-05
0.0355399
9.31542e-05
0.000274677
0.0133805
6.5696e-05
9.11672e-05
0.000191507
0.0177969
6.25542e-05
7.39385e-05
0.000406684
6.78597e-05
5.7493e-05
5.19904e-05
5.93139e-05
7.45938e-05
0.014897
9.51818e-05
6.40318e-05
0.000128162
5.60971e-05
0.0215038
6.18148e-05
6.6785e-05
0.0316543
0.000104985
0.00300316
8.78211e-05
4.93587e-05
6.55931e-05
8.84667e-05
9.03914e-05
7.12803e-05
0.0155353
8.7742e-05
0.009162
0.00295299
7.39917e-05
0.0314676
8.84605e-05
6.3647e-05
6.51549e-05
0.0224603
0.0391222
8.67561e-05
0.0156468
0.0135604
6.72668e-05
6.63206e-05
8.13235e-05
0.0205146
0.00402117
9.28244e-05
8.82655e-05
8.92281e-05
0.000138679
7.22579e-05
0.000152857
9.51585e-05
7.94137e-05
8.49414e-05
6.4039e-05
9.02356e-05
7.26815e-05
0.000540998
8.34682e-05
6.08327e-05
0.0153947
4.60065e-05
0.0138744
8.19282e-05
8.32704e-05
8.75053e-05
0.00038161
5.80003e-05
0.000105874
0.0201049
0.00251562
8.34567e-05
8.36731e-05
7.6571e-05
8.20525e-05
8.87997e-05
7.82686e-05
5.57924e-05
0.000357949
0.000155726
6.45128e-05
0.0012382
9.19687e-05
9.11111e-05
0.000172019
7.62225e-05
0.000107762
0.0136679
5.57051e-05
0.000105179
0.000119366
9.49025e-05
6.80137e-05
6.61477e-05
6.85319e-05
0.0131483
8.48275e-05
6.15932e-05
9.75165e-05
7.14705e-05
6.6385e-05
0.000148885
0.00700566
8.07679e-05
0.0369985
9.33376e-05
0.0226982
8.91222e-05
7.40208e-05
0.00660446
6.12907e-05
4.4328e-05
5.59929e-05
5.79138e-05
8.70285e-05
8.3376e-05
9.87312e-05
6.79311e-05
0.00113012
7.04181e-05
0.00504071
8.21187e-05
9.13136e-05
5.06535e-05
0.000115621
7.87669e-05
0.0229902
8.15795e-05
5.66091e-05
0.0203935
8.46776e-05
0.0186239
9.13529e-05
8.94953e-05
7.2435e-05
6.43204e-05
8.34836e-05
0.0281506
8.99217e-05
0.000127909
0.0345277
8.20255e-05
9.4911e-05
4.42966e-05
6.43643e-05
0.00633187
4.43087e-05
0.0339545
8.96965e-05
8.89408e-05
0.00014176
0.000222555
5.65939e-05
5.9147e-05
0.000137597
6.47022e-05
7.87338e-05
8.25826e-05
7.19472e-05
9.74864e-05
5.64883e-05
0.000215498
7.91713e-05
0.014096
0.0185203
8.9847e-05
0.0232638
0.0346396
0.0130651
0.00119253
6.57465e-05
6.03627e-05
8.46308e-05
8.35166e-05
7.56876e-05
9.01237e-05
7.64558e-05
0.000158853
7.8957e-05
0.0104656
8.48402e-05
9.39771e-05
0.000125519
6.46847e-05
9.09989e-05
8.4591e-05
6.21203e-05
8.84859e-05
5.01584e-05
0.0322637
0.000114958
0.000704896
6.5857e-05
8.99961e-05
7.26693e-05
7.06404e-05
0.0243341
6.62324e-05
0.000352288
7.24555e-05
0.00249081
7.76802e-05
7.42684e-05
0.000106797
6.91604e-05
6.64365e-05
0.00285541
0.0186595
8.02451e-05
0.000115574
6.39095e-05
0.000191368
4.98393e-05
7.09193e-05
0.0175603
5.97567e-05
8.68903e-05
0.000127299
0.0166933
4.98684e-05
0.00479271
0.00978617
5.75701e-05
7.38304e-05
7.21404e-05
0.0134929
8.92928e-05
0.000157436
8.42581e-05
0.0304671
7.82366e-05
0.0156372
6.77092e-05
4.90316e-05
0.000716721
7.73629e-05
4.57109e-05
0.0291426
8.12418e-05
7.00707e-05
0.00191637
5.7361e-05
6.01742e-05
0.000110678
8.21602e-05
0.0243776
9.05711e-05
0.000114405
0.000180881
8.89656e-05
0.0296307
7.9373e-05
0.000107581
8.49156e-05
0.0209206
0.00252923
8.85584e-05
5.00085e-05
6.18037e-05
7.97618e-05
5.00183e-05
5.59929e-05
5.93344e-05
8.39071e-05
8.85147e-05
5.56389e-05
8.12393e-05
0.000112377
0.0227374
0.0232252
0.000121087
7.29071e-05
0.000956598
7.60249e-05
0.0053575
0.00632973
0.00820107
5.31846e-05
6.59361e-05
8.19285e-05
7.69185e-05
5.29017e-05
5.06349e-05
7.85545e-05
9.16349e-05
7.03278e-05
0.0128527
0.00174541
6.93763e-05
0.0279441
8.50774e-05
6.80387e-05
6.85579e-05
0.0218972
0.000100826
5.11461e-05
0.0031802
6.40199e-05
6.72568e-05
0.00273301
6.05783e-05
0.0351317
8.70744e-05
0.000189624
6.65506e-05
5.83101e-05
8.52279e-05
7.79881e-05
8.39512e-05
0.0219615
6.93123e-05
7.09129e-05
7.38802e-05
8.96014e-05
6.59295e-05
0.000127587
9.5168e-05
8.5486e-05
0.0240605
0.0132382
4.68944e-05
0.000132752
5.8941e-05
0.0237769
5.7938e-05
0.0194368
0.000104118
9.08724e-05
8.36949e-05
0.0174807
0.0364889
0.0124317
5.02983e-05
0.00576339
5.01661e-05
7.66684e-05
9.55685e-05
7.89477e-05
8.40487e-05
0.00102074
0.0165573
5.81302e-05
9.29192e-05
0.0194752
4.90518e-05
5.26729e-05
0.0117214
0.022891
8.34932e-05
4.66409e-05
8.9664e-05
8.7367e-05
6.67766e-05
7.8217e-05
8.04563e-05
8.49327e-05
0.00865035
5.03642e-05
0.000209798
0.00688005
6.83615e-05
0.0210488
8.80148e-05
8.46278e-05
5.0678e-05
0.0165015
0.000287879
4.34762e-05
8.50684e-05
9.02383e-05
8.6996e-05
4.96532e-05
0.0228916
6.11343e-05
7.2211e-05
0.000100521
7.27061e-05
0.0024553
0.000114036
0.000152499
0.000105563
0.00555834
0.00401243
0.0186668
0.0270881
7.75768e-05
0.00490356
5.27631e-05
0.000101188
0.00011416
0.005099
8.79495e-05
6.16444e-05
8.69269e-05
0.000242099
8.05489e-05
0.0221424
9.13026e-05
0.000122038
0.0208783
5.77854e-05
0.000135151
8.24104e-05
7.71224e-05
6.78205e-05
0.000144477
4.92831e-05
6.36024e-05
8.38251e-05
0.0160204
6.97193e-05
8.1004e-05
9.13289e-05
7.96102e-05
8.07591e-05
0.000125847
0.000111141
7.24299e-05
6.54021e-05
0.000125978
3.64702e-05
8.40042e-05
0.0302328
8.66111e-05
8.76127e-05
0.0387917
6.18095e-05
8.10211e-05
0.0273052
0.0219765
7.62911e-05
0.000101088
8.20194e-05
0.0134115
0.000528581
8.60999e-05
0.0172931
6.63094e-05
0.00011575
0.021733
0.0003042
0.00481511
0.0217576
5.38357e-05
7.34609e-05
8.9215e-05
8.09123e-05
7.35445e-05
0.000590827
5.91599e-05
9.5309e-05
5.9409e-05
0.000104233
0.0227453
8.19329e-05
0.0154006
0.0325436
8.71325e-05
0.000115265
8.04022e-05
8.1948e-05
8.1742e-05
0.0236187
0.000110595
0.0176257
8.54087e-05
0.0505749
0.000120428
4.95272e-05
0.000142157
9.16411e-05
5.06242e-05
7.39629e-05
0.00105109
8.20286e-05
8.35757e-05
8.66309e-05
8.03302e-05
9.04311e-05
0.000101687
0.0141596
7.59658e-05
0.000279276
0.000242283
7.84628e-05
7.54816e-05
5.90111e-05
0.0117274
0.00583628
6.34448e-05
9.37585e-05
3.60097e-05
0.000752422
0.0152495
8.40713e-05
6.90876e-05
5.37476e-05
8.99111e-05
8.38996e-05
8.10911e-05
0.0131204
7.11638e-05
8.89845e-05
9.48709e-05
4.03456e-05
0.000120585
0.0232878
0.0473754
8.83134e-05
6.70879e-05
6.91566e-05
8.10193e-05
0.000111222
0.0317714
0.000765581
0.00012809
8.44743e-05
9.92347e-05
9.09103e-05
2.066e-06
8.31197e-05
0.000143358
6.32986e-05
0.000175367
1.45182e-05
6.21377e-05
8.8756e-05
0.0252696
9.69709e-05
6.91868e-05
0.0251365
0.000164827
6.58463e-05
0.00380289
7.55063e-05
8.02074e-05
0.0208427
0.00868825
6.32402e-05
7.61252e-05
0.000140449
8.74082e-05
8.52891e-05
5.62217e-05
7.55954e-05
6.57242e-05
8.25926e-05
8.87663e-05
9.57306e-05
0.0180625
8.78195e-05
8.83666e-05
9.2796e-05
0.00011835
6.49584e-05
8.63369e-05
0.00139267
0.000340178
0.0190443
7.95502e-05
5.58599e-05
0.0217464
6.97749e-05
0.000263036
8.60444e-05
9.13598e-05
8.14125e-05
6.98558e-05
0.00327204
8.75644e-05
7.89091e-05
8.99485e-05
0.0187531
0.00567951
0.020257
7.0414e-05
7.39686e-05
0.0197626
5.21373e-05
5.44774e-05
0.00015664
0.00900183
8.54317e-05
9.18949e-05
8.53096e-05
0.0156456
8.10555e-05
7.58689e-05
9.06983e-05
5.57779e-05
0.000334132
8.05961e-05
6.55779e-05
0.00149967
0.000103989
0.0164747
0.000370162
7.92596e-05
9.09885e-05
6.66268e-05
6.53932e-05
7.35955e-05
8.29878e-05
8.12438e-05
0.000268512
8.38929e-05
0.000109814
6.74538e-05
5.84992e-05
8.75862e-05
5.01826e-05
6.75765e-05
0.0242598
4.97678e-05
0.000186982
0.000109683
8.37912e-05
0.000100262
9.19274e-05
9.10255e-05
7.94612e-05
6.45837e-05
6.85259e-05
6.19069e-05
0.0030029
8.39404e-05
6.3931e-05
6.21544e-05
6.43585e-05
5.18679e-05
0.000101293
7.30642e-05
0.0240618
9.56423e-05
5.85144e-05
8.40515e-05
6.00648e-05
9.532e-05
2.03697e-05
0.0357599
4.51089e-05
0.00261186
5.851e-05
0.000128515
7.81044e-05
0.0224898
5.92968e-05
4.96294e-05
8.51328e-05
0.00163925
6.04369e-05
0.0242944
7.66326e-05
6.29936e-05
0.000160391
0.00125002
0.0136249
0.00115976
8.72864e-05
0.000189682
4.47663e-05
5.56215e-05
0.0227792
8.55406e-05
5.1263e-05
0.0102106
5.93155e-05
0.0250464
0.00020197
7.223e-05
8.38469e-05
5.58626e-05
0.0308641
5.15085e-05
5.61243e-05
0.00011341
7.92526e-05
6.61788e-05
4.95951e-05
5.49832e-05
9.76569e-05
8.63283e-05
7.25314e-05
6.47939e-05
0.00703731
7.92661e-05
6.52662e-05
6.54358e-05
8.33315e-05
8.33738e-05
8.95721e-05
7.12096e-05
6.13875e-05
8.68478e-05
7.74278e-05
8.10135e-05
8.19388e-05
9.62501e-05
5.9831e-05
0.000115782
7.31821e-05
8.87402e-05
6.2996e-05
8.13577e-05
7.18029e-05
5.02379e-05
8.82559e-05
7.79302e-05
9.11937e-05
0.0174992
1.43858e-05
0.0303181
0.0233513
0.000116144
0.0239538
7.39914e-05
8.19095e-05
0.00905889
0.0189278
5.19949e-05
0.0201998
6.12878e-05
0.000154255
0.0116097
8.88822e-05
0.000117413
0.0209832
0.0335271
5.94972e-05
9.84425e-05
6.95578e-05
0.000537797
8.88316e-05
0.0270765
0.013192
8.21635e-05
8.63481e-05
0.00102616
5.73314e-05
0.0134461
0.00257682
8.25984e-05
7.15997e-05
0.00104238
0.0222
5.55065e-05
9.30956e-05
7.70026e-05
0.00387601
0.000170106
7.91442e-05
6.32017e-05
0.0104201
6.49401e-05
8.74922e-05
8.70371e-05
6.3785e-05
0.010332
7.82793e-05
8.98051e-05
0.024622
8.27426e-05
9.59964e-05
8.92956e-05
0.00105836
9.92962e-05
0.000713806
6.25657e-05
9.01423e-05
4.96696e-05
6.27226e-05
9.15564e-05
7.92351e-05
0.0161477
8.19525e-05
6.41938e-05
7.64269e-05
0.00264329
7.11703e-05
0.00546072
0.0176564
0.0108902
7.08556e-05
6.40703e-05
8.05047e-05
0.00200075
7.90236e-05
0.0180193
5.96424e-05
0.0268629
8.17086e-05
6.19011e-05
0.00216933
7.82333e-05
5.7093e-05
0.0214359
0.000142386
0.0241016
6.1802e-05
0.026659
0.0344072
7.64131e-05
0.0218982
7.68043e-05
7.79793e-05
0.0415373
7.83083e-05
8.66351e-05
0.0173682
8.27775e-05
0.000107734
8.80294e-05
0.0136787
8.6163e-05
0.00523183
8.09621e-05
0.0164855
8.6941e-05
8.87825e-05
7.21616e-05
0.00621914
6.45049e-05
2.02113e-05
0.000102355
0.020889
7.90444e-05
8.41906e-05
0.0287086
0.000129687
0.00694386
0.000113273
6.27637e-05
0.000141961
0.0240171
7.99957e-05
0.0101773
4.91682e-05
0.000187874
0.0138867
6.45003e-05
0.0153528
8.43381e-05
0.0251976
0.00819872
8.36533e-05
7.36939e-05
0.00522395
0.013411
8.9508e-05
8.58496e-05
6.3738e-05
7.77327e-05
0.0223719
0.000104532
0.00192043
6.97533e-05
8.69415e-05
0.0255526
6.21437e-05
0.00428737
0.0110161
7.79124e-05
8.56352e-05
0.000267065
0.0189362
0.0121064
0.01067
0.000273882
8.87886e-05
9.14683e-05
0.0276552
0.0221439
0.00747473
7.13821e-05
0.000115179
9.49663e-05
0.000108068
8.07965e-05
9.15498e-05
0.000101239
0.000205015
0.0130396
5.78266e-05
0.00205893
0.0239463
8.78115e-05
8.75344e-05
8.73469e-05
0.000113714
6.38004e-05
0.0312217
8.69375e-05
5.18536e-05
0.000296172
5.6554e-05
6.49415e-05
9.16383e-05
9.07991e-05
8.13184e-05
0.0302852
5.9699e-05
0.031803
6.16947e-05
0.0226711
0.00423872
0.00028442
5.00689e-05
8.4861e-05
8.31128e-05
0.00140579
0.000145094
0.00010879
0.0225587
0.0134679
4.42894e-05
8.56178e-05
6.20443e-05
0.000159329
0.0144506
4.84712e-05
6.4325e-05
8.34896e-05
0.00376419
0.0012787
6.2396e-05
9.51271e-05
0.00028274
7.04469e-05
5.83307e-05
8.0869e-05
0.0314325
7.78996e-05
0.000816722
0.018813
8.9592e-05
8.0234e-05
0.00950791
7.50539e-05
8.8994e-05
0.0191054
9.34456e-05
0.000120613
9.42183e-05
0.000103551
0.0183502
0.0261821
8.74423e-05
0.0191013
0.0103382
5.95336e-05
0.000166358
0.000106634
0.000142363
0.0149306
0.00156529
0.0136958
0.000138255
0.0199
8.56056e-05
0.00010923
4.53238e-05
8.78943e-05
8.12653e-05
6.85529e-05
0.00234247
0.000215871
4.94431e-05
8.77813e-05
0.000232231
7.49299e-05
0.00672478
0.0242893
4.47738e-05
7.88852e-05
4.5953e-05
7.93383e-05
9.75945e-05
8.60948e-05
0.0503445
9.06392e-05
0.000108129
8.00992e-05
0.000107018
8.89187e-05
8.19799e-05
0.0014794
8.09842e-05
7.95782e-05
4.91471e-05
6.22065e-05
0.0284204
0.000129715
8.39277e-05
0.0469733
6.99367e-05
7.69823e-05
8.35212e-05
6.17166e-05
5.91221e-05
0.00011042
8.72515e-05
0.0192462
0.0176387
0.0223321
9.00633e-05
0.0191
7.92696e-05
0.00392631
6.44563e-05
0.000180533
0.0173492
7.17912e-05
0.00277512
0.0193743
8.52287e-05
7.70195e-05
5.18865e-05
8.47923e-05
0.0203931
6.33399e-05
8.66857e-05
6.93096e-05
7.8989e-05
0.000265329
8.51517e-05
8.67951e-05
7.67002e-05
6.57432e-05
0.0102752
9.0907e-05
7.5795e-05
0.000160019
0.000118146
0.02746
0.0184575
7.70313e-05
7.76405e-05
0.0189647
8.0428e-05
0.000106773
8.91998e-05
0.0224819
6.64158e-05
7.14092e-05
7.52538e-05
0.0233254
8.61576e-05
6.2331e-05
5.89928e-05
0.000183116
0.0124441
0.000149213
9.02549e-05
7.8343e-05
6.99456e-05
0.0245317
4.90729e-05
0.0129308
0.000103355
7.02374e-05
0.000730065
8.26241e-05
0.00167433
9.08522e-05
5.45409e-05
8.75289e-05
8.67556e-05
0.000158811
8.6536e-05
7.87544e-05
6.61805e-05
0.0230726
7.15994e-05
8.61161e-05
0.0257414
8.14769e-05
6.21787e-05
8.75885e-05
6.66127e-05
6.22938e-05
0.00202135
9.09367e-05
0.0220225
0.00236081
4.91561e-05
0.0327359
8.16399e-05
0.000137329
9.51244e-05
8.49134e-05
5.03732e-05
4.88624e-05
8.55436e-05
0.0223324
9.88893e-05
0.0241264
0.0213226
6.87298e-05
5.70033e-05
8.88705e-05
0.00931126
8.4341e-05
9.01402e-05
0.0266699
0.020341
6.43518e-05
8.56444e-05
8.46326e-05
0.000891794
0.0281416
5.18157e-05
8.86998e-05
9.07653e-05
0.0526098
8.64598e-05
8.60601e-05
7.89363e-05
0.000151712
0.00784174
5.99084e-05
0.0230719
7.85591e-05
8.72159e-05
0.0185766
0.000102989
0.0346448
0.0219529
8.56003e-05
7.82301e-05
8.70344e-05
8.19025e-05
7.87005e-05
9.76917e-05
9.13597e-05
6.16112e-05
8.78798e-05
0.000768376
0.0165558
6.31544e-05
0.000139742
0.0186636
0.03558
6.137e-05
8.3766e-05
0.00309172
0.0158892
0.000107826
7.0658e-05
0.0193376
0.000109289
4.93992e-05
0.0177934
8.52017e-05
7.59957e-05
0.0011866
7.16483e-05
7.22749e-05
6.36398e-05
4.83795e-05
7.10803e-05
5.8889e-05
0.0235971
4.99328e-05
7.45206e-05
0.000113984
9.10185e-05
7.9836e-05
0.000171825
7.86069e-05
8.99385e-05
8.2386e-05
8.17222e-05
0.00195423
0.00271012
0.00630924
0.0199221
8.05734e-05
0.00339369
7.90898e-05
0.0239206
0.0186057
0.0235787
6.691e-05
8.25921e-05
8.49362e-05
7.61271e-05
6.19434e-05
6.09927e-05
0.000260779
0.000104866
8.72098e-05
7.43973e-05
8.59677e-05
0.000103681
8.55983e-05
7.80103e-05
7.77858e-05
0.0260331
8.75505e-05
0.0124782
9.0286e-05
0.00296846
7.89771e-05
7.08998e-05
7.48704e-05
9.69212e-05
7.19053e-05
0.00011966
0.0222841
8.94108e-05
0.0209982
0.00251605
7.98528e-05
8.70931e-05
0.00403873
0.00014547
5.03591e-05
6.15193e-05
4.89952e-05
0.021242
4.79176e-05
0.000105746
8.46098e-05
0.000113354
0.00962191
0.00351981
0.000106903
0.0308492
5.50851e-05
5.86486e-05
0.000398564
0.0163216
8.08273e-05
8.84155e-05
0.0221079
7.14348e-05
0.000280698
8.15158e-05
4.74454e-05
8.29346e-05
8.53298e-05
0.000109396
0.0216987
0.0200711
8.77812e-05
6.41399e-05
0.000113571
8.40974e-05
0.000112993
6.83876e-05
0.00017535
0.000126455
7.82715e-05
7.57746e-05
4.95889e-05
0.000157939
8.0299e-05
0.000275633
0.0114139
8.70533e-05
0.0188002
0.000113074
0.000144194
0.0240907
7.96324e-05
0.0219237
8.37668e-05
0.0259567
0.00297101
0.0214286
0.0233502
5.88074e-05
9.87682e-05
0.000482169
7.08987e-05
0.0172779
7.8377e-05
8.37106e-05
9.03466e-05
8.55493e-05
9.19552e-05
0.00128504
0.00908777
0.0393564
8.71479e-05
8.87524e-05
8.17366e-05
6.9937e-05
8.87465e-05
0.000166606
0.000121864
0.0186294
9.32917e-05
4.9747e-05
6.42434e-05
7.45593e-05
0.000354428
8.04484e-05
7.4103e-05
8.49553e-05
0.000122274
9.21801e-05
8.72342e-05
8.20248e-05
0.0229022
8.68134e-05
9.24419e-05
8.46551e-05
9.05527e-05
0.00322949
3.15222e-05
9.05742e-05
6.14776e-05
0.0191199
9.05451e-05
7.04378e-05
9.69648e-05
0.0239233
0.00041933
8.58526e-05
7.13375e-05
0.0223111
7.84979e-05
7.07266e-05
4.98833e-05
0.0112956
0.0112017
7.38295e-05
0.0143934
0.0210308
8.75927e-05
8.17987e-05
0.000101612
0.0317612
8.72826e-05
0.0277259
7.79813e-05
7.46946e-05
6.06469e-05
0.0283081
9.15564e-05
6.13589e-05
0.0259696
8.24748e-05
8.15189e-05
0.0276023
0.0173233
0.000108897
0.00447155
9.03665e-05
8.58252e-05
0.0143146
7.09849e-05
7.88271e-05
8.85381e-05
9.49625e-05
8.40159e-05
8.15361e-05
9.30515e-05
0.000136755
0.0110719
8.65121e-05
0.0176088
8.85242e-05
0.024552
0.0212044
8.72269e-05
8.56782e-05
9.00227e-05
0.00753823
0.00026059
0.00010625
0.0234858
0.0224047
0.0148742
6.44814e-05
0.0152271
0.0177963
7.98986e-05
0.0099292
7.79541e-05
7.09705e-05
8.99531e-05
7.86586e-05
8.02248e-05
9.27279e-05
0.0204099
7.98265e-05
0.0029971
0.029879
0.0138537
0.0203948
0.0277123
7.79048e-05
0.0294008
0.000139936
0.000113347
6.38606e-05
7.14022e-05
0.000108658
0.018944
7.21811e-05
0.0225022
0.0268196
6.69699e-05
8.59519e-05
6.15746e-05
0.000121964
7.84669e-05
0.00011031
0.0218412
6.26993e-05
8.81522e-05
6.71361e-05
8.38119e-05
0.000132981
0.0216154
8.59817e-05
0.0180766
0.000142566
7.64778e-05
0.00185475
0.000161387
5.60256e-05
0.00524507
0.00990061
0.0182746
0.00812666
0.0198982
7.11615e-05
0.0147636
0.0226409
0.000191518
0.0191243
6.24001e-05
8.08091e-05
8.34717e-05
8.95559e-05
0.0228536
0.00010573
8.52093e-05
8.67578e-05
0.00348126
0.0226697
6.42627e-05
5.05209e-05
0.0311693
0.0273871
8.78078e-05
8.4623e-05
0.000137068
8.35961e-05
8.7425e-05
0.016673
7.45155e-05
0.000500872
0.00227458
0.023977
7.16994e-05
0.000109342
0.00018846
6.99351e-05
4.90449e-05
0.0219359
0.0127883
7.0151e-05
8.18969e-05
0.000212634
0.00031822
0.0293354
0.0124723
8.52799e-05
0.0019869
0.00356805
8.99674e-05
7.68519e-05
0.000108235
5.81847e-05
4.94664e-05
0.0191054
8.82167e-05
0.000126618
8.80589e-05
7.03855e-05
6.40561e-05
5.73291e-05
8.62999e-05
8.6178e-05
0.0176448
8.80373e-05
0.00932138
0.015872
9.28718e-05
0.000110199
0.0203827
0.0272512
0.0181284
4.96925e-05
8.8285e-05
9.0329e-05
8.50341e-05
0.000263733
0.0022697
8.67618e-05
0.00916857
0.0223857
8.46619e-05
0.000127066
0.000113167
0.000134997
0.000144454
8.62225e-05
0.000159216
0.000174984
0.000195725
0.000223218
0.000148834
0.000118225
7.33218e-05
7.4446e-05
9.12271e-05
0.000126251
7.27623e-05
0.00473831
0.0303761
0.000312653
0.0253188
4.92228e-05
6.07876e-05
7.35376e-05
0.0197713
8.62347e-05
8.03834e-05
0.000108149
0.0417634
0.0220777
7.89205e-05
8.22791e-05
8.70244e-05
0.0214139
0.00319978
9.03169e-05
0.00495331
0.0226586
0.000135375
0.0273501
0.000127794
5.00238e-05
0.0299081
4.42195e-05
0.0294325
0.0247292
8.12738e-05
0.000107951
0.000130431
7.77046e-05
6.38856e-05
0.0104326
0.0185676
5.77321e-05
5.79064e-05
0.0182427
0.00717248
0.000113996
8.07778e-05
0.000713899
0.000168221
0.0266889
0.0211644
8.60425e-05
8.58366e-05
8.60027e-05
7.38213e-05
0.0266799
0.0214853
0.0242948
0.000121131
0.00272613
0.00452089
7.18807e-05
7.14196e-05
0.0226492
6.19632e-05
0.028449
4.74433e-05
0.0276677
8.61158e-05
7.84231e-05
0.0136276
7.21354e-05
0.000146834
0.00594665
9.46593e-05
7.85455e-05
8.60975e-05
0.000249743
0.0195611
0.00018841
0.0256134
8.04834e-05
6.71017e-05
8.98809e-05
0.000112459
0.031083
0.0422146
0.000129447
0.000379308
0.000161622
0.0166866
4.56088e-05
6.10958e-05
6.28935e-05
6.3977e-05
0.00263002
9.74564e-05
0.00119575
8.94999e-05
0.000197718
7.1346e-05
0.0028512
0.00874633
0.0195396
8.98431e-05
8.56132e-05
4.85177e-05
0.0239915
3.56467e-05
0.0077261
0.00225512
0.000158042
0.00189031
4.9288e-05
9.36608e-05
0.000187093
0.00308279
0.00675726
8.2467e-05
0.000174784
7.67335e-05
6.68823e-05
0.00013633
0.0174685
0.00614397
7.59834e-05
0.000119793
0.00031883
0.0198259
0.0158458
0.0260947
0.0245794
6.56832e-05
0.000102742
6.92706e-05
0.000181333
6.3247e-05
0.000143462
7.64334e-05
9.72767e-05
0.00423987
0.00604826
8.31565e-05
0.000140345
0.0247606
0.000153256
7.73803e-05
0.0301295
0.000142662
6.27661e-05
6.80697e-05
0.0234239
8.82806e-05
0.000163272
0.00551175
0.000207259
0.0164665
7.46881e-05
0.0220673
0.0221072
0.022542
0.00437559
9.02317e-05
0.000143516
0.000132817
0.0251446
0.00010988
8.60312e-05
0.00988151
9.13404e-05
0.00412022
8.41898e-05
0.035809
0.00307322
0.0116098
9.14307e-05
0.00268768
8.34619e-05
0.0200177
0.000191736
0.0125758
0.0140201
7.13022e-05
4.80513e-05
0.0219142
0.0288743
7.00902e-05
8.53606e-05
9.01424e-05
7.95306e-05
0.0211125
0.000103079
0.0246861
8.47549e-05
0.0245787
0.000161438
0.0207945
8.58287e-05
0.00144315
0.033597
8.52075e-05
0.000121993
4.95733e-05
8.75288e-05
8.65489e-05
0.00297294
7.46872e-05
8.90034e-05
0.0294652
0.0164751
6.33991e-05
0.0301162
8.42517e-05
7.16472e-05
8.08919e-05
6.36318e-05
8.73619e-05
0.00563154
0.0296134
6.02209e-05
0.0284825
0.000109184
9.93588e-05
0.010326
0.000122748
8.48851e-05
9.35275e-05
8.3629e-05
0.00359526
8.18818e-05
0.0305171
8.54447e-05
0.0207237
0.00813431
0.000109135
0.0104142
0.0244249
6.68003e-05
0.0188821
0.000100158
0.000107229
8.06836e-05
7.1761e-05
8.13357e-05
0.00026734
8.63237e-05
9.85954e-05
8.8384e-05
0.0246484
0.000192624
0.0178393
0.000245107
0.000231739
0.0290105
8.0528e-05
6.3016e-05
0.000106608
8.32356e-05
8.59496e-05
8.61732e-05
8.46358e-05
7.08774e-05
7.90974e-05
8.30664e-05
8.94525e-05
8.34276e-05
8.3741e-05
7.92967e-05
8.08277e-05
0.000136721
8.36567e-05
0.0257728
8.40794e-05
7.94073e-05
0.000129593
9.72951e-05
7.51127e-05
7.00062e-05
0.0249454
9.11423e-05
0.0218396
9.0713e-05
0.000149355
8.23019e-05
7.03918e-05
0.000138614
0.0308213
0.000111566
8.60882e-05
5.24903e-05
0.0269037
8.68354e-05
7.77914e-05
0.000116262
8.85492e-05
0.000192543
0.0247825
0.000134044
0.00211702
9.01784e-05
0.0165305
7.43101e-05
8.34224e-05
0.000103782
0.00190484
0.00010482
0.000134589
0.0243152
8.43729e-05
8.3278e-05
8.97357e-05
0.000679015
0.000104662
8.65893e-05
0.000137888
0.000133906
0.000105982
8.82823e-05
8.91908e-05
0.000355858
0.000104981
0.0110337
0.00405851
7.76198e-05
0.000110844
8.74646e-05
9.80014e-05
0.0133893
8.02951e-05
0.000218637
0.000148858
0.00011854
0.0205538
8.62091e-05
7.2805e-05
8.15461e-05
0.0289494
0.000367191
8.17234e-05
0.000137886
0.00014826
8.72773e-05
7.24735e-05
0.000366757
0.0296764
0.000332075
0.0240106
0.000192862
9.30033e-05
0.00594614
0.000161586
9.23556e-05
0.000495113
0.000126057
0.000994727
8.29679e-05
0.000134532
0.000178011
8.23957e-05
0.0277371
9.04777e-05
0.000113916
8.48213e-05
0.000200184
7.11474e-05
0.0199506
9.07576e-05
6.73104e-05
6.06141e-05
6.45669e-05
8.21862e-05
8.28434e-05