/*--------------------------------*- C++ -*----------------------------------*\
| =========                 |                                                 |
| \\      /  F ield         | OpenFOAM: The Open Source CFD Toolbox           |
|  \\    /   O peration     | Version:  v2012                                 |
|   \\  /    A nd           | Website:  www.openfoam.com                      |
|    \\/     M anipulation  |                                                 |
\*---------------------------------------------------------------------------*/
FoamFile
{
    version     2.0;
    format      ascii;
    class       volScalarField;
    location    "300";
    object      nut;
}
// * * * * * * * * * * * * * * * * * * * * * * * * * * * * * * * * * * * * * //

dimensions      [0 2 -1 0 0 0 0];


internalField   nonuniform List<scalar> 
13917
(
0.0034132
0.000471382
0.00158902
0.000450691
0.000453538
0.000471331
0.000456022
0.000424973
0.00045557
0.000968195
0.000527033
0.000448719
0.000471987
0.0106673
0.000453903
0.00218608
0.000438912
0.000519366
0.000625483
0.00214538
0.000462052
0.000444631
0.000476082
0.000444564
0.000451362
0.000464299
0.0124948
0.000271571
0.000478445
0.000427218
0.000319716
0.000507898
0.00044998
0.00935017
0.000440318
0.000584657
0.000450696
0.000459554
0.000456248
0.000468655
0.000431923
0.000437011
0.000454087
0.000604178
0.000603005
0.00212653
0.000460081
0.00583506
0.00935819
0.000440051
0.000448644
0.000647528
0.000543521
0.000447027
0.000447306
0.00064316
0.00018019
0.000476319
0.000436683
0.00210447
0.00851365
0.000465273
0.000427171
0.000450938
0.0116449
0.000757652
0.00048526
0.000531457
0.000520661
0.00299114
0.00968888
0.0082798
0.000449341
0.000436517
0.000463251
0.000451455
0.000447944
0.000436197
0.000451089
0.000450059
0.00044699
0.000440137
0.000450841
0.00965545
0.000445658
0.00271619
0.000503583
0.000446341
0.000467596
0.000437824
0.000434129
0.000454297
0.0128773
0.000438568
0.000447786
0.000485652
0.0132262
0.000442006
0.000446595
0.00089025
0.000429657
0.000429398
0.000447149
0.000439605
0.000447834
0.00958659
0.00800882
0.000472288
0.000438163
0.0156453
0.000451254
0.00986087
0.000478312
0.00801818
0.0114747
0.000451654
0.000602324
0.000432622
0.000938861
0.00045109
0.000438746
0.000436131
0.000495746
0.000570419
0.00370099
0.0103773
0.000450853
0.000465179
0.000441024
0.000572109
0.000462559
0.00230958
0.0130137
0.000451345
0.000530845
0.0174766
0.00709149
0.00399227
0.000466921
0.000469112
0.00514963
0.000436235
0.00929567
0.000443671
0.000450456
0.000443435
0.00951991
0.00460603
0.00381325
0.000447052
0.000463888
0.000429267
0.000450605
0.000451184
0.0159776
0.000444679
0.000439335
0.0130841
0.00043507
0.000433175
0.000444848
0.0120765
0.000452624
0.00385729
0.00818662
0.00166512
0.000339435
0.0101747
0.000426026
0.000469796
0.000444564
0.0128755
0.000455543
0.00797387
0.000518825
0.000430511
0.000450752
0.000650341
0.000461789
0.00045333
0.000453871
0.000444234
0.000448458
0.00130231
0.000983099
0.00459168
0.000448444
0.00263954
0.000427315
0.00466694
0.000518374
0.000579431
0.000722797
0.00349706
0.000438704
0.00387034
0.000454234
0.0129276
0.000439742
0.000444529
0.000457526
0.00303357
0.00285233
0.000449867
0.0086277
0.000464417
0.000464992
0.000436269
0.000671972
0.000446826
0.000440144
0.000465765
0.000465835
0.0040424
0.000526093
0.000466687
0.0121162
0.000447657
0.000433337
0.000433228
0.0104259
0.000970925
0.00230286
0.000449237
0.000424456
0.0192248
0.00282716
0.000433187
0.000433233
0.000432178
0.000433242
0.000433157
0.00744762
0.00438536
0.000445725
0.000426137
0.000528463
0.0073006
0.000435183
0.000449292
0.0106185
0.00949613
0.00340202
0.0120688
0.000584829
0.000443866
0.00816792
0.000533205
0.000473966
0.000526606
0.000449596
0.00391158
0.000451131
0.000472107
0.000504906
0.000445723
0.000435282
0.000451091
0.000450028
0.000439265
0.00660837
0.00865566
0.000436534
0.000433348
0.000445003
0.000433404
0.000450896
0.000463117
0.000466689
0.000436708
0.00583216
0.00886365
0.000447444
0.000448098
0.00434057
0.000431804
0.000563064
0.00814707
0.0004319
0.0048434
0.000438898
0.0120801
0.000430071
0.000451751
0.000445899
0.000443236
0.000777728
0.000446227
0.00265525
0.000456747
0.0114981
0.000448424
0.00389141
0.00377172
0.000433684
0.000484878
0.000450796
0.000451609
0.00045213
0.000451102
0.000438501
0.000444475
0.000648492
0.000588828
0.00047101
0.000450953
0.000448973
0.0130618
0.00188676
0.000440438
0.000424397
0.000451863
0.00935143
0.000655007
0.00946914
0.00903199
0.000507739
0.00137717
0.00044778
0.00905728
0.00671287
0.00141843
0.000463382
0.000453121
0.0101622
0.000444753
0.000476359
0.000577819
0.000437393
0.0128385
0.000445804
0.000471662
0.00043116
0.000503935
0.000440396
0.000468261
0.000465237
0.000402528
0.000436575
0.00052662
0.00886719
0.000447804
0.000444851
0.0107884
0.00902782
0.0116012
0.00916609
0.000431888
0.000445961
0.00969578
0.0013913
0.000432035
0.000451955
0.000448006
0.000489996
0.000469823
0.000631753
0.000579082
0.000560837
0.000471157
0.00757078
0.000441108
0.00044792
0.000451921
0.00106371
0.000435804
0.00262599
0.000471076
0.00956154
0.000447406
0.000631445
0.000422916
0.0162254
0.000436461
0.00223686
0.00399561
0.000468597
0.00044755
0.00720797
0.000431411
0.00776221
0.000806356
0.00043619
0.012907
0.000446236
0.00150701
0.000437273
0.0027211
0.00150557
0.000450442
0.0191876
0.000549284
0.000449038
0.0114533
0.00115535
0.000450032
0.000786278
0.000446081
0.000549689
0.00142756
0.000445832
0.000455645
0.000450982
0.000443464
0.000442227
0.000441344
0.00739915
0.00234113
0.00044764
0.000441288
0.000444246
0.000483951
0.000699335
0.000431345
0.000426237
0.000652137
0.000639142
0.000443359
0.00045024
0.0111107
0.020013
0.00262752
0.000647095
0.00800078
0.000433819
0.000431415
0.000458545
0.000442107
0.00043143
0.000445856
0.000431519
0.000433653
0.00724313
0.000446159
0.000472474
0.00681706
0.000484437
0.000440029
0.000450502
0.0117008
0.000457828
0.00267193
0.000431218
0.000448237
0.000431662
0.000433127
0.000450462
0.000446375
0.0110372
0.000439856
0.0099356
0.000448181
0.000465083
0.000454852
0.000446676
0.000572944
0.0116276
0.000447922
0.0203437
0.000440301
0.000442844
0.00044415
0.000446321
0.00043968
0.00044712
0.0130372
0.00778457
0.000439668
0.00498967
0.00064458
0.00045013
0.000491499
0.000517439
0.0108127
0.000456587
0.00976503
0.00646812
0.0067424
0.000446317
0.000544375
0.000483972
0.000449166
0.00950391
0.000434181
0.000446968
0.000447908
0.000455719
0.000461189
0.000830454
0.000487006
0.000433573
0.000449158
0.000518302
0.000491442
0.00044757
0.0114586
0.000465764
0.000456782
0.00808216
0.00044573
0.00049601
0.000743754
0.000440931
0.0125743
0.00044314
0.000433067
0.00048476
0.000431358
0.00044641
0.000665171
0.0132221
0.0202315
0.000444771
0.000451556
0.00044015
0.00864459
0.00785737
0.000447337
0.000447181
0.000444687
0.000496818
0.0131822
0.000440673
0.000435899
0.000444118
0.000443436
0.000445841
0.000457314
0.000434769
0.000487951
0.000440935
0.000444488
0.000450865
0.00949423
0.00043495
0.000453086
0.000439176
0.000463874
0.000508443
0.000497958
0.000509507
0.00109017
0.000450327
0.000494026
0.0127923
0.00589619
0.00837437
0.00043991
0.000443936
0.000443673
0.000448189
0.0116423
0.000431821
0.0156777
0.000453909
0.0120633
0.000572792
0.000454089
0.00214291
0.0004394
0.000500375
0.000442302
0.00043969
0.012376
0.000431272
0.00111979
0.000425801
0.000454782
0.000444085
0.000781115
0.00044651
0.000433416
0.000606649
0.000490052
0.0131679
0.00870697
0.0131071
0.0102752
0.000434992
0.00292016
0.000428188
0.00752838
0.00608418
0.000439958
0.000464081
0.000430349
0.000464936
0.000453679
0.000431395
0.000442376
0.000462887
0.0078103
0.000445345
0.000496591
0.00044691
0.000433409
0.000434078
0.00434272
0.0110811
0.0012733
0.000516317
0.000456988
0.00592683
0.00792723
0.000437419
0.010844
0.000465172
0.000572655
0.000447869
0.00658326
0.000443297
0.000446111
0.000450852
0.0133033
0.000466968
0.0120136
0.000435287
0.000464702
0.000440445
0.000424647
0.00829099
0.00155102
0.000440659
0.000665603
0.000448954
0.000438878
0.000427043
0.0094847
0.000445222
0.000450723
0.000431693
0.000440608
0.0010746
0.000427385
0.000636878
0.000441142
0.000440567
0.00823353
0.000499668
0.000447184
0.000507778
0.00105918
0.000530445
0.000741158
0.000439434
0.000454931
0.00840371
0.00132274
0.000457253
0.000450734
0.000445991
0.000439984
0.00044183
0.00159886
0.000519444
0.000453069
0.00800438
0.000467187
0.00311729
0.00869761
0.000522455
0.000465859
0.000704677
0.00575068
0.000438686
0.000466988
0.00187845
0.000440795
0.000436601
0.000434145
0.000432796
0.00044655
0.0030962
0.000464608
0.000439701
0.000559922
0.000435409
0.0102891
0.000438763
0.000440764
0.0130668
0.000501231
0.00880055
0.00045026
0.000430995
0.000440152
0.000451048
0.000457556
0.000442836
0.00319017
0.000458974
0.0149449
0.00873857
0.000467964
0.0131062
0.000451488
0.000441604
0.000440915
0.00889015
0.019988
0.000454534
0.00335248
0.0174072
0.000440437
0.000440468
0.000450404
0.00944513
0.0114498
0.000466944
0.000450933
0.000452991
0.000580601
0.000446834
0.000630589
0.000464712
0.000447651
0.000450044
0.000442101
0.000457413
0.000449056
0.00132554
0.000451942
0.000443411
0.00325115
0.000433731
0.0172268
0.000450507
0.000462649
0.000454268
0.00119764
0.000438379
0.000494287
0.0106709
0.0100817
0.00044859
0.00045212
0.0004516
0.00044767
0.000450574
0.000460603
0.000448474
0.00431976
0.000637357
0.000439203
0.00173098
0.000455368
0.00045553
0.000675282
0.000446018
0.000500117
0.0104377
0.000433813
0.000501486
0.000546187
0.000464578
0.000441155
0.000440001
0.000441677
0.00219196
0.000449894
0.000438867
0.00047121
0.000442848
0.000440206
0.000621519
0.0059611
0.000458283
0.0203175
0.000483695
0.00982479
0.000450993
0.00044839
0.00478303
0.000439727
0.000370793
0.00043724
0.000436885
0.000450193
0.000452471
0.000503156
0.00044111
0.00436241
0.000443427
0.00790282
0.000450518
0.000456458
0.000431403
0.000528563
0.000452136
0.0120204
0.000443741
0.000438761
0.00929348
0.000450009
0.00591319
0.000453547
0.000588687
0.000446218
0.000439319
0.000448256
0.0127367
0.00045726
0.000555678
0.0200049
0.000447657
0.000464751
0.000426
0.000441911
0.0121657
0.000426195
0.00687466
0.000453291
0.000570709
0.000596559
0.0002681
0.000434583
0.000437389
0.000588659
0.000439221
0.000446791
0.000449946
0.000443535
0.000471152
0.000434526
0.00273698
0.000447533
0.00302978
0.00571476
0.000498822
0.0101192
0.0206785
0.00216409
0.0253033
0.000439686
0.000438583
0.000449007
0.000449661
0.000444629
0.000457489
0.000445173
0.000988132
0.000446891
0.00616724
0.000449703
0.000460819
0.0005638
0.000439619
0.000472153
0.000450016
0.000440651
0.000455083
0.000431352
0.0131609
0.000529915
0.00274196
0.000440197
0.000450823
0.000444587
0.000443663
0.008441
0.000440004
0.00169693
0.000443149
0.00813444
0.000450931
0.000444245
0.000496555
0.000477449
0.000440079
0.00838005
0.0103696
0.000450181
0.000527743
0.000438768
0.0010156
0.000431488
0.000443699
0.00612925
0.00043868
0.000450723
0.000556897
0.00531773
0.000431364
0.00868344
0.00611986
0.000437388
0.000446315
0.000443738
0.0073259
0.000450591
0.000632109
0.000448878
0.0127552
0.000451628
0.0100156
0.000441372
0.000429987
0.00258888
0.000449454
0.000431793
0.012477
0.000449203
0.000441886
0.016484
0.000436906
0.000438532
0.000517461
0.000449838
0.011812
0.000469476
0.000517141
0.000619007
0.00045301
0.0126511
0.000447827
0.000508728
0.000448885
0.0071099
0.00825104
0.000450745
0.000431667
0.000439391
0.00044742
0.000431661
0.000434779
0.000437019
0.000448398
0.000457658
0.000433905
0.000449084
0.000516375
0.00775939
0.0120096
0.000541584
0.000444604
0.00330788
0.000444932
0.00400675
0.011601
0.000305044
0.000432643
0.000439774
0.000448363
0.000446021
0.000432444
0.000431731
0.000446089
0.000467321
0.00044204
0.00120258
0.0298274
0.000441776
0.0126523
0.000448893
0.000441449
0.000470852
0.0099704
0.00050097
0.00043347
0.00921664
0.000439327
0.000441206
0.00245289
0.000438746
0.0182912
0.000450818
0.0002722
0.000440422
0.000436478
0.000458282
0.000345148
0.000450191
0.00916991
0.000440999
0.000446736
0.000446705
0.000450701
0.000440004
0.000555445
0.000463809
0.000452794
0.0100243
0.00182188
1.17728e-05
0.000567429
0.0004367
0.00936116
0.000436237
0.0101056
0.00050313
0.000455869
0.000449997
0.0109459
0.0202707
0.00653475
0.000432666
0.00928558
0.000431595
0.000445181
0.000464984
0.000447406
0.000448746
0.00141238
0.00492327
0.000436438
0.000457452
0.00711107
0.000425633
0.000432219
0.0146345
0.0113637
0.000449483
0.00042815
0.000455541
0.000450497
0.000440885
0.000460569
0.000451484
0.000449205
0.0143385
0.000431585
0.000613714
0.0127887
0.000445821
0.00742054
0.000450385
0.000449688
0.000322058
0.00523121
0.000942502
0.000406522
0.00045964
0.000451788
0.0004509
0.000431109
0.011932
0.000442388
0.000444942
0.000484559
0.000443567
0.00997724
0.000524043
0.00061875
0.000492989
0.00448118
0.0114988
0.0108904
0.0123085
0.000459163
0.00378495
0.000432245
0.000494351
0.000530027
0.00992129
0.000453367
0.000440054
0.000453628
0.00206543
0.000449015
0.0105129
0.000464072
0.000555546
0.0105357
0.000436639
0.000570922
0.000450218
0.000446038
0.000449435
0.000376606
0.000430228
0.000438643
0.000450085
0.00774081
0.000441735
0.000449158
0.000453671
0.000447966
0.000447259
0.000563992
0.000508681
0.000444922
0.000439906
0.000500284
0.000519178
0.000466036
0.012893
0.00045017
0.00044992
0.0203381
0.00043895
0.000449341
0.0124571
0.0080568
0.000452414
0.000494819
0.000452989
0.0020483
0.00119159
0.000459717
0.009009
0.000440571
0.000533208
0.00926673
0.00101152
0.0085703
0.0184929
0.000433519
0.000444314
0.000463636
0.000447454
0.000444594
0.00146995
0.000438221
0.000475119
0.000436089
0.000489546
0.0115006
0.000449801
0.00913336
0.0205736
0.000449738
0.000519976
0.000451965
0.000449458
0.000447512
0.00902308
0.000514182
0.00591674
0.000454934
0.0113166
0.000552247
0.000430887
0.000658929
0.000464285
0.000461945
0.000444076
0.00157658
0.000447603
0.000452532
0.000464214
0.000451475
0.000451802
0.000487707
0.00931345
0.000444773
0.00291905
0.000343707
0.000446581
0.000444678
0.000442981
0.00617249
0.00453918
0.000438923
0.000460182
0.000312963
0.0116673
0.00275488
0.000448633
0.000441647
0.00043342
0.000450856
0.000464656
0.000450179
0.00673147
0.000444076
0.000453294
0.000246123
0.00032771
0.000539717
0.0116549
0.0104687
0.000450543
0.000441931
0.000441652
0.000448807
0.000508682
0.0129385
0.00295711
0.000578054
0.00045696
0.000480518
0.00045351
4.8192e-06
0.000452059
0.000597637
0.000439036
0.000892017
6.01798e-05
0.000438061
0.000450791
0.0117235
0.000479976
0.000195303
0.00737638
0.000653065
0.000440334
0.00320494
0.000451078
0.000446691
0.0113771
0.014283
0.000438965
0.000452918
0.00059406
0.000461381
0.000449989
0.000434347
0.000444742
0.000439748
0.000447864
0.000458176
0.000484034
0.00504773
0.000462347
0.000454481
0.000460892
0.000544084
0.000439686
0.000461418
0.00175913
0.00108835
0.00832141
0.000448418
0.000434121
0.0076866
0.000442191
0.000856257
0.000451037
0.000472362
0.000448077
0.000442234
0.00309208
0.000454407
0.000448108
0.000450824
0.0118547
0.00420586
0.00770703
0.000443296
0.0004445
0.0163346
0.000432948
0.00043397
0.000609839
0.0147616
0.000454362
0.000462678
0.000449801
0.00776064
0.000447183
0.000448306
0.000451854
0.000434095
0.00105578
0.000446968
0.000439829
0.00196856
0.000491504
0.0106706
0.00109986
0.000446199
0.000459109
0.000440448
0.000440055
0.000446691
0.00045133
0.000447679
0.000876612
0.000448622
0.000517301
0.000447834
0.000441325
0.000450658
0.000447497
0.000441308
0.00914995
0.000430516
0.00142474
0.000509303
0.000451743
0.000483377
0.000462441
0.000459406
0.000446834
0.0004403
0.000441275
0.000437799
0.0107835
0.000465184
0.000466791
0.000438965
0.000439773
0.000432919
0.000523623
0.000443738
0.0120028
0.00047548
0.000436709
0.000448396
0.000436806
0.000475216
4.75571e-05
0.0204733
0.000250962
0.00948785
0.000443937
0.000567928
0.000448807
0.0117163
0.000436097
0.000430501
0.000452604
0.00596948
0.000436991
0.0111401
0.000445869
0.000439722
0.000625439
0.0017432
0.00203666
0.00454678
0.000453856
0.00107889
0.00013549
0.000434457
0.0118144
0.000449025
0.000430377
0.0072154
0.00043621
0.0117148
0.00104946
0.000443144
0.000448491
0.000434664
0.0129744
0.000435179
0.000434275
0.000519414
0.000446171
0.000440244
0.000431453
0.000434202
0.000474697
0.00044948
0.000446936
0.000439184
0.00576551
0.00144077
0.000439403
0.000439437
0.000449214
0.000448126
0.000453206
0.000443711
0.000438374
0.000450078
0.000446132
0.000448683
0.000447778
0.000496522
0.000436553
0.000529714
0.000444403
0.000480304
0.00043858
0.000447703
0.000442988
0.000430966
0.000464407
0.000451174
0.000454854
0.0111598
0.000121023
0.0129484
0.0116036
0.000528747
0.0102735
0.000444616
0.000447758
0.00813054
0.010413
0.000433108
0.00756217
0.000437566
0.00062176
0.0161825
0.000452866
0.000534382
0.0149449
0.0182608
0.000437772
0.000476853
0.000441784
0.00121878
0.000453109
0.0124501
0.00280975
0.000448296
0.00142305
0.00170995
0.000438352
0.00825331
0.0101884
0.000450061
0.00044266
0.0044909
0.00845129
0.000434424
0.000461454
0.000446276
0.0038722
0.000653351
0.000446737
0.000438626
0.00590756
0.000439807
0.000449898
0.000450639
0.000438687
0.00686313
0.000453525
0.000457374
0.0100004
0.000447917
0.000493024
0.000450797
0.00452288
0.000489096
0.00162262
0.000438314
0.000456547
0.000430358
0.000440502
0.000453875
0.00044675
0.00936652
0.000449388
0.000439066
0.00044516
0.00931287
0.000442422
0.0106668
0.0104888
0.0137623
0.000443175
0.000439088
0.000446868
0.060558
0.000447079
0.00841357
0.000438056
0.015223
0.000449569
0.000440511
0.00218458
0.000446483
0.000437912
0.00794318
0.000598907
0.0111446
0.0004393
0.0118615
0.0195805
0.000445756
0.00889083
0.000446002
0.00045044
0.00866624
0.000448682
0.000469625
0.00580115
0.000456419
0.000506389
0.00045018
0.00706713
0.000449343
0.010063
0.00044711
0.00473486
0.000449687
0.000450549
0.000445765
0.00987271
0.000439356
0.000306309
0.000505392
0.0170271
0.000446321
0.0004559
0.0126971
0.000590915
0.00527254
0.000527334
0.000438306
0.000602013
0.0140629
0.00045005
0.0064026
0.000430021
0.000691941
0.00271152
0.000439542
0.00284291
0.000448465
0.0113156
0.00568638
0.000450905
0.000447152
0.0101818
0.0166753
0.000450484
0.000450783
0.00043875
0.000446221
0.0106718
0.000505172
0.00235591
0.000442895
0.000455215
0.0119419
0.00043327
0.00625992
0.00595144
0.000445628
0.000448998
0.000884218
0.0109826
0.00820718
0.0151996
0.000886167
0.000466888
0.000574703
0.0124799
0.00993121
0.0127514
0.000442606
0.000530942
0.00047487
0.000516466
0.000447289
0.000455853
0.0004962
0.00122553
0.0160439
0.000437923
0.00241208
0.00970352
0.000469971
0.000449863
0.000449833
0.000439962
0.000439095
0.0131157
0.000455908
0.000429816
0.00494897
0.000524947
0.000439166
0.000464479
0.000458657
0.000447497
0.0127051
0.000422448
0.0130976
0.000438034
0.00975536
0.00338609
0.000944761
0.000430781
0.000453779
0.000457494
0.00195881
0.000622516
0.000506836
0.0107766
0.00963141
0.00042611
0.000453575
0.000439694
0.000645003
0.00273757
0.000429723
0.000438946
0.000450012
0.0035346
0.00211562
0.000438583
0.000482863
0.00580158
0.000442073
0.000530086
0.000450086
0.0130458
0.000451935
0.00202996
0.00861795
0.000457084
0.00045041
0.00601405
0.000444449
0.000473925
0.00830896
0.000474728
0.000546152
0.000461368
0.000490901
0.0108561
0.0117777
0.000449667
0.0195101
0.00785356
0.000436392
0.000652871
0.000506415
0.000618474
0.00876567
0.00223506
0.0179302
0.000595262
0.00907659
0.000454559
0.000503979
0.000426706
0.000450521
0.000447446
0.000441189
0.00226927
0.00147545
0.000430425
0.000477183
0.000799043
0.000444389
0.0116921
0.0119137
0.000427124
0.000447018
0.000426037
0.000447993
0.000474019
0.00044934
0.0106468
0.00045843
0.000512471
0.000451701
0.00051323
0.000534174
0.000460075
0.00207999
0.000447241
0.000448214
0.000430197
0.000438296
0.0125561
0.000558576
0.000455544
0.0108746
0.000443021
0.000446488
0.000458686
0.000437817
0.000436864
0.000530171
0.000453643
0.0074965
0.0113139
0.00787116
0.000451395
0.0080573
0.000446391
0.00308869
0.000438954
0.000688736
0.010801
0.000443693
0.00258386
0.00692856
0.000459092
0.000448025
0.000432618
0.000454801
0.0113686
0.000438473
0.000450158
0.000445839
0.000460615
0.000871075
0.000452537
0.000453756
0.000445138
0.000443698
0.00645197
0.000462977
0.000447861
0.000645986
0.000465306
0.0126188
0.019668
0.000450015
0.000447278
0.00805662
0.00044728
0.00050394
0.000451066
0.0105802
0.000441755
0.000444012
0.000454108
0.0120811
0.000449213
0.00043805
0.000435776
0.000683943
0.00137103
0.000631112
0.000450902
0.000448966
0.000441869
0.00970606
0.000423311
0.00726042
0.000489929
0.000443227
0.00136505
0.000460936
0.00607087
0.000451885
0.00043401
0.000458064
0.000468912
0.00061818
0.00044986
0.000447191
0.000441514
0.010805
0.000444057
0.000451616
0.0116956
0.000449471
0.000443222
0.0004531
0.000440706
0.00043884
0.00372783
0.000453335
0.0163686
0.00842964
0.000429775
0.0180102
0.000448193
0.000593348
0.000480133
0.000452602
0.000430997
0.000429531
0.000449057
0.0191804
0.000477587
0.00892189
0.0102743
0.000441287
0.000448618
0.000466371
0.00563615
0.000448555
0.000304662
0.0120077
0.00980014
0.000439757
0.000450959
0.000449523
0.0370987
0.0125399
0.000431332
0.000450474
0.000459319
0.01116
0.000449586
0.000451141
0.000448295
0.000613206
0.00529121
0.000436422
0.0118467
0.000453759
0.000449708
0.010433
0.000489531
0.0189945
0.0208797
0.000458875
0.000450655
0.000451819
0.000453034
0.00044729
0.000510385
0.000476878
0.000438489
0.000452963
0.00169267
0.0106408
0.000438414
0.000594379
0.00900652
0.0185747
0.000438525
0.000448431
0.0110965
0.00818133
0.000481543
0.000442639
0.00889123
0.000504558
0.000430025
0.00496246
0.000454633
0.000445712
0.00157201
0.000443317
0.000482607
0.000438929
0.00042906
0.000443217
0.000435827
0.0116004
0.000430747
0.000444477
0.000525811
0.000454696
0.000450404
0.000670845
0.000446311
0.000450779
0.000449712
0.000449016
0.00825862
0.00991539
0.00444341
0.0200827
0.000460154
0.00633789
0.000463709
0.0120206
0.011565
0.0117743
0.000440568
0.000456682
0.000448743
0.000445452
0.000438277
0.000439064
0.000859115
0.000492725
0.000465352
0.000444157
0.000449124
0.00048808
0.000449571
0.000446776
0.00044612
0.0102964
0.000458977
0.00185503
0.000451151
0.0105429
0.000447294
0.000443577
0.000445811
0.000471946
0.000442919
0.00054347
0.00997639
0.000469628
0.00726399
0.00411182
0.000468374
0.000455297
0.0111847
0.000613593
0.000431141
0.000438011
0.000429654
0.0101658
0.000428766
0.000492792
0.000532671
0.000526272
0.00793323
0.00377093
0.000501984
0.012809
0.000434273
0.000435719
0.00114331
0.00793884
0.000447153
0.000450731
0.0193777
0.000442653
0.00455293
0.000451435
0.000425183
0.000452093
0.000449
0.000515203
0.00996971
0.00814425
0.000453306
0.000440189
0.000538229
0.000449972
0.000531352
0.000441215
0.000675074
0.000550799
0.00044693
0.000445513
0.000430129
0.000613163
0.00042993
0.00090278
0.00731213
0.00045756
0.00924946
0.000517658
0.000596465
0.0110754
0.000446525
0.0107681
0.000449487
0.0101179
0.00295049
0.0103606
0.0111586
0.000440351
0.00048779
0.00135392
0.000443097
0.00559033
0.000446296
0.000448465
0.000455203
0.000449762
0.000459791
0.00189278
0.00532538
0.00869341
0.000454001
0.000467723
0.000449137
0.000443164
0.000451595
0.000638781
0.000543029
0.0103464
0.000474637
0.000430686
0.000438975
0.000445495
0.00112719
0.000450167
0.000445653
0.000452569
0.000550561
0.000460521
0.000469852
0.000472746
0.0114435
0.000457125
0.000461933
0.00044866
0.000455383
0.00285407
4.84765e-05
0.000475567
0.000437552
0.0107441
0.000461551
0.000442554
0.000479699
0.0111615
0.00112964
0.000460052
0.000442794
0.0101008
0.00044706
0.000442236
0.000430735
0.00784496
0.00684224
0.000456007
0.00877161
0.0105899
0.000464183
0.000466381
0.000496533
0.0131284
0.000458359
0.0124767
0.000446867
0.000282803
0.000450304
0.0122069
0.000462342
0.000437769
0.0119454
0.000448593
0.000448758
0.019684
0.00823026
0.000567272
0.00395776
0.000454011
0.000450759
0.00785057
0.000442755
0.000446092
0.000450408
0.000474992
0.000448433
0.000457615
0.000475222
0.00093902
0.00624001
0.000450509
0.00569266
0.000463438
0.0110686
0.00765182
0.000449689
0.000449556
0.000454557
0.00639949
0.00085813
0.00050656
0.0108123
0.0111732
0.0104487
0.000441456
0.00750739
0.0070366
0.000440425
0.00606501
0.00044624
0.000443024
0.00045088
0.000447675
0.000447032
0.000462238
0.00816121
0.000456905
0.0105056
0.00487697
0.00693852
0.00837182
0.0126594
0.000452877
0.0126964
0.000597589
0.000518574
0.000438679
0.000443312
0.000507702
0.00587383
0.000445103
0.0118274
0.0124296
0.000440626
0.000449875
0.000439063
0.000559735
0.00044716
0.000518006
0.0106571
0.00043811
0.000449907
0.000440598
0.000449561
0.000570232
0.00939703
0.00046325
0.00866419
0.000603121
0.000444997
0.00674737
0.000631691
0.000436848
0.00382692
0.00584033
0.0105456
0.0060793
0.0072291
0.000443124
0.00771507
0.00984839
0.000795659
0.00931939
0.000438316
0.000449358
0.000450976
0.000452841
0.0106476
0.000505753
0.000449532
0.000455034
0.0112126
0.00951982
0.000441243
0.000452985
0.0130975
0.0126173
0.000451178
0.000454783
0.000593916
0.000448177
0.000449822
0.0106024
0.000444157
0.00128453
0.00807639
0.0109134
0.000442947
0.000528281
0.000709167
0.000442147
0.000429886
0.0136658
0.00848249
0.000443387
0.000460522
0.000888934
0.001021
0.0128584
0.0078762
0.000453382
0.00740648
0.0104156
0.000463177
0.000445071
0.000564024
0.000435446
0.000430276
0.00726792
0.000465269
0.000565013
0.00045305
0.000447497
0.000439264
0.000435074
0.000450407
0.000450594
0.0101379
0.000452828
0.00642439
0.00318561
0.000474276
0.000514346
0.0113929
0.0119927
0.0104257
0.000431341
0.000453565
0.000463738
0.000453003
0.0029876
0.0067224
0.00045056
0.0061405
0.00871373
0.000453631
0.000555444
0.000522397
0.000575748
0.000599481
0.000450999
0.000635657
0.000673215
0.000717558
0.00077897
0.000608598
0.000537506
0.000449617
0.000444266
0.000461644
0.000553999
0.000443302
0.00406691
0.0128841
0.00688899
0.0119288
0.000429966
0.00043716
0.00047256
0.0101158
0.00045041
0.000449812
0.000500328
0.0108051
0.0206042
0.000446405
0.000457851
0.000453342
0.00346069
0.0106627
0.000453739
0.00379717
0.00962905
0.000579927
0.0125495
0.000567134
6.84228e-05
0.0128439
0.000425987
0.012433
0.0102965
0.000448808
0.000515258
0.000581239
0.000450123
0.000439134
0.00758489
0.0155907
0.00043595
0.000436057
0.0108516
0.00477936
0.000533137
0.000447624
0.0014782
0.000668383
0.0123154
0.00712752
0.000449301
0.000449163
0.000450215
0.00044819
0.012199
0.0183436
0.0121516
0.000539865
0.00283322
0.00824165
0.000447692
0.000442865
0.00938539
0.000438114
0.0125132
0.000426834
0.0126259
0.000450748
0.000447429
0.0186639
0.00044418
0.000607988
0.0119602
0.000463096
0.000448655
0.000450781
0.000835111
0.0074023
0.000757298
0.0116948
0.000461221
0.000445351
0.000456754
0.000528267
0.012735
0.00966694
0.000579913
0.00114089
0.00064433
0.00884444
0.000432726
0.000437695
0.000438224
0.000438677
0.00274683
0.000509203
0.00294834
0.00046916
0.000724508
0.000442835
0.0093777
0.00741138
0.00291868
0.000450744
0.000450816
0.00042915
0.0106593
0.000512899
0.0120578
0.00249917
0.000636483
0.00205907
0.000429896
0.000466404
0.000769933
0.00303672
0.00462301
0.000448518
0.000674632
0.000446332
0.000441773
0.000606463
0.0188356
0.00484833
0.00044578
0.000551552
0.00356107
0.00842648
0.00376187
0.0118763
0.0110512
0.000440133
0.000497502
0.000442528
0.000691068
0.00043888
0.000618717
0.000447365
0.000480007
0.0125269
0.012095
0.000471938
0.000581861
0.0104326
0.000616409
0.000448098
0.0201647
0.000590558
0.000442107
0.000442829
0.0107873
0.000457
0.000628209
0.00417606
0.000531314
0.00498957
0.000457039
0.0110909
0.00997843
0.0198273
0.0041455
0.000460298
0.000599727
0.000572924
0.0115525
0.000583025
0.000450157
0.00598825
0.000504673
0.00335459
0.0004544
0.00760704
0.00307999
0.00655069
0.000455686
0.00312366
0.000451129
0.00822644
0.000823877
0.00718144
0.00231334
0.000442489
0.000428827
0.00901737
0.0123231
0.00046499
0.000449705
0.000471038
0.000455591
0.0105159
0.000533617
0.0101574
0.000453273
0.00985599
0.000655201
0.0173844
0.000449982
0.00198357
0.00811551
0.000474099
0.000540161
0.000430194
0.00045277
0.000450005
0.00955947
0.000444388
0.00045074
0.0127668
0.00834658
0.000438388
0.0125844
0.000449815
0.00044345
0.000447123
0.000439108
0.000450341
0.00398819
0.0129149
0.00043678
0.0160441
0.000508546
0.000478451
0.00632551
0.000544704
0.000453042
0.000461605
0.000448136
0.010944
0.000456622
0.0126294
0.000464441
0.00986588
0.00526937
0.000516042
0.00575927
0.00950675
0.000440224
0.00637361
0.000490122
0.000505588
0.000487795
0.000443105
0.000498403
0.000872555
0.000449365
0.000592124
0.000450009
0.0111979
0.000711879
0.0106378
0.000825059
0.000793543
0.0126949
0.000447336
0.000438661
0.000500477
0.000450125
0.000449736
0.000449795
0.000454127
0.000442596
0.000446217
0.000449748
0.000470751
0.000450441
0.000454067
0.000449991
0.000465492
0.000576846
0.000450776
0.0114414
0.000450633
0.00044643
0.000562366
0.000472397
0.000448923
0.000442117
0.0144853
0.000453413
0.00873068
0.000453487
0.000624301
0.00044769
0.000442772
0.000571539
0.0130054
0.0005148
0.000462226
0.000431916
0.0123172
0.000449883
0.000445704
0.00052763
0.000452917
0.000720863
0.0105603
0.000577091
0.00249128
0.000470377
0.00488438
0.000444636
0.000448334
0.000504224
0.00713494
0.000495398
0.000584507
0.008639
0.000454446
0.000448585
0.000456875
0.00150946
0.000491759
0.000449446
0.00058353
0.000569076
0.000505325
0.000450859
0.000450843
0.00192373
0.000504025
0.00610086
0.00767456
0.000448382
0.000515521
0.000450657
0.000474763
0.00839056
0.000447271
0.000931472
0.000625291
0.000543136
0.0172638
0.000449297
0.000443926
0.000447352
0.0126175
0.00111407
0.000449977
0.000572023
0.000609398
0.000450639
0.000443888
0.00531342
0.0125816
0.0039936
0.0098699
0.00115606
0.000460213
0.00429663
0.000642099
0.000459705
0.000948995
0.000550385
0.00179628
0.000448382
0.000570022
0.000680578
0.00044909