/*--------------------------------*- C++ -*----------------------------------*\
| =========                 |                                                 |
| \\      /  F ield         | OpenFOAM: The Open Source CFD Toolbox           |
|  \\    /   O peration     | Version:  v2012                                 |
|   \\  /    A nd           | Website:  www.openfoam.com                      |
|    \\/     M anipulation  |                                                 |
\*---------------------------------------------------------------------------*/
FoamFile
{
    version     2.0;
    format      ascii;
    class       volScalarField;
    location    "300";
    object      p;
}
// * * * * * * * * * * * * * * * * * * * * * * * * * * * * * * * * * * * * * //

dimensions      [0 2 -2 0 0 0 0];


internalField   nonuniform List<scalar> 
13917
(
-0.093152
0.00369988
-0.0639976
-0.0168119
0.00271403
0.00426317
-0.0269306
9.07066e-05
-0.0334857
-0.131114
0.000698635
-0.0110469
-0.00829432
-0.0325027
0.00172503
-0.0908006
0.000533779
-0.000215607
-0.0529044
-0.108417
-0.00375583
-0.0010177
-0.0372641
-0.000907217
-0.0145469
-0.00247254
0.0368483
-0.132343
-0.000699363
0.000106157
-0.13316
-0.0502073
-0.0138732
-0.0838655
0.00100335
0.00288023
-0.00589306
-0.00182193
-0.0277017
-0.00711154
0.000932236
0.00105627
-0.0297535
-0.0550635
-0.054396
-0.0390502
-0.00425461
-0.0507208
0.0242437
0.000976745
-0.0108405
-0.0369733
-0.0758665
-0.00606933
-0.00675684
-0.0384218
-0.128328
-0.0364125
0.00105407
-0.036583
-0.0747072
0.00124053
6.49882e-05
-0.0145103
-0.0714619
-0.000339497
-0.000488081
0.00442911
-0.000437044
-0.0788851
-0.0697826
-0.0835332
-0.0154421
0.00102177
-0.00366299
-0.0115288
0.00151438
0.00101392
-0.0116077
-0.0140512
-0.00291644
0.000477477
-0.0152166
-0.071415
-0.00583562
-0.00975875
-0.049603
-0.00566589
-0.00685874
0.000533537
0.000617661
-0.0304675
0.0230013
0.000848815
-0.00539486
-0.000611264
0.03123
9.47387e-05
-0.00578736
0.0183052
0.000309451
0.000278302
-0.00298647
-7.93695e-05
0.00154443
-0.0665263
-0.0821126
0.0010739
0.00109555
0.0364087
-0.00830049
-0.0846497
-0.000801659
-0.0643664
-0.0729091
-0.010187
-0.0522359
0.000584505
-0.0612787
-0.0144107
0.000501389
0.000954063
-0.000545676
-0.0438157
-0.0727283
-0.0716733
-0.0149266
-0.00316481
0.000166873
-0.0448205
-0.0389434
-0.00589793
-0.0708535
-0.00975184
-0.0522582
0.0370903
-0.0777772
-0.0693727
-0.00180936
-0.00184226
-0.0234079
0.000987652
-0.0676753
-0.0025418
-0.0142205
0.00119242
-0.070003
-0.0166513
-0.0631259
-0.00618993
-0.00749127
0.000293176
-0.013995
-0.0145394
0.0350928
0.000712082
-4.9784e-05
-0.0714015
0.000489788
0.000557956
-0.00469234
-0.0586908
-0.00278028
-0.0184189
-0.0438318
0.0250752
-0.0767292
-0.0378779
3.57726e-05
-0.00146992
-0.000606502
-0.0743174
-0.0335761
-0.0702011
-0.0240677
0.000453956
-0.0172559
-0.037287
-0.0385571
-0.00241476
-0.0288302
-0.000737103
-0.0105251
-0.0485621
-0.0613458
-0.00332023
-0.0103102
-0.0476111
0.00013336
-0.0067629
-0.0225549
-0.053525
-0.0467975
-0.0982475
0.000825238
-0.0740975
-0.0164522
-0.0706965
0.000958521
0.000509423
-0.00535465
-0.0808911
-0.069649
-0.00463238
0.0348216
-0.000288606
-0.00767046
0.000984173
-0.0382266
-0.00259705
-0.000241647
0.0036485
0.00382233
-0.0539325
-0.0519505
-0.00212144
-0.072936
-0.00320167
0.000726484
0.000727856
-0.0376157
-0.0473774
-0.0487622
-0.00870023
-6.00857e-05
0.0359195
-0.0753966
0.000717671
0.000708383
0.000470113
0.00074129
0.000742597
-0.0846758
-0.0449082
-0.00198229
5.67546e-05
-0.0338286
-0.0799279
0.000599535
-0.00859802
0.0333647
-0.0681749
-0.0482885
-0.0760305
-0.0250567
-0.00266435
-0.0348775
-0.0349435
-0.000945805
-0.0466502
-0.00493554
-0.0541731
-0.0146796
-0.0157573
-0.0240977
-0.00158055
0.000825827
-0.0149821
0.00278045
0.00108121
-0.0733586
0.000431562
0.000964121
0.000693227
0.000814202
0.000693194
-0.0147861
-0.00852012
-0.0270261
0.000991597
-0.0683586
-0.076843
-0.00871237
0.0021607
-0.0378257
0.000698236
0.0119334
-0.0733684
0.000702637
-0.079159
0.00104679
-0.0548446
0.000394343
0.000914853
-0.00142869
-0.00202344
-0.0532009
-0.00117469
0.0294538
-0.0140034
-0.000217855
0.00126592
0.0259621
-0.0680787
0.000607101
-0.0344018
0.00281177
-0.00908183
0.00286141
-0.0121812
0.000917881
-0.00118542
-0.0340213
0.00153615
-0.015602
-0.0122565
-0.00845454
-0.0700875
-0.0809645
0.000245123
0.000905016
-0.00953249
0.0087552
-0.0598588
-0.0850388
-0.0653369
6.60497e-05
-0.0069307
0.00201097
-0.0715759
0.00980195
-0.0640544
-0.00788027
0.00154237
0.0340094
6.84969e-06
0.00422834
-0.052782
0.000477266
-0.0753828
-0.00570845
-0.0474178
0.000703426
-0.111821
-0.00107686
-0.0167043
-0.000506369
0.000186683
0.000627983
-0.0478002
-0.0693143
-0.00593289
0.000128354
-0.083402
-0.0702595
-0.0562954
-0.0302744
0.000687868
-0.00268271
-0.0680471
-0.0098777
0.000690802
0.00314425
-0.00839931
0.000892382
-0.0166917
-0.0442168
-0.0134848
0.0116796
-0.0456021
-0.0912278
0.000197164
-0.00625378
0.00292566
-0.0574721
0.000549588
-0.0966097
-0.0455401
-0.00671075
-0.00664675
-0.0123718
0.000761902
0.0211001
0.00106908
-0.0498499
-0.0396186
-0.000212539
-0.00872237
-0.0637523
0.000714266
-0.0419565
-0.0478763
0.00107596
0.0221581
-0.000674616
0.0025163
0.000564487
-0.109037
0.00157931
-0.00750247
0.031701
0.00833365
-0.00503808
-0.0497162
-0.0651126
-0.0083356
-0.0532036
-0.00341521
0.00995565
-0.0631159
-0.00582134
-0.0300201
-0.0127678
-0.00233768
-0.00248097
0.000168544
-0.0790993
0.0237288
-0.00642272
0.000363818
-0.00123643
-0.0296224
0.00994098
0.000686785
3.41898e-05
-0.0593574
-0.00955147
-0.00200893
-0.00763112
-0.063045
0.0216085
-0.000693718
-0.0538204
-0.0702
0.000862894
0.000675347
-0.00382759
-0.00249989
0.000693542
-0.00182625
0.000684302
0.000847401
-0.0345755
-0.00349154
-0.00778564
-0.0685077
-0.0332655
-0.000237768
-0.0136135
-0.0509827
-0.00479367
-0.0715794
0.00069472
-0.00886446
0.000723055
0.000762651
-0.00582472
-0.000280891
-0.0611738
0.00137507
-0.0681066
-0.00871212
-0.0370009
0.00148498
-0.00260711
-0.026531
-0.0576086
-0.00851034
0.0219763
-0.000289597
-0.00229456
-0.00125418
-0.000828947
-0.000248537
-0.00465196
-0.0703449
-0.0681234
-0.000254491
0.0206627
-0.0589202
-0.00834577
-0.0339418
-0.055876
-0.0443663
-0.031927
-0.0724314
-0.00130884
-0.00212976
-0.000409777
-2.6598e-05
0.00170889
-0.00476936
-0.0545349
0.000585409
-0.00623794
-0.00573865
-0.0315007
-0.00528344
-0.0596702
-0.0422484
0.00106169
0.00241186
-0.000511662
-0.00586977
-0.00620209
-0.0327135
-0.0303489
-0.0146986
-0.0486767
-0.00590169
-0.00506066
-0.0385249
-0.00165704
-0.070116
-0.00240755
0.000758815
-0.0305948
0.000695182
-0.00300129
-0.0317175
-0.0688427
0.0244802
-0.00477629
-0.0202593
0.00113179
-0.0547269
-0.0320479
-0.00608745
-0.00653644
-0.00471866
-0.0251532
0.00130715
0.000421881
0.000538173
0.000431032
-0.00249541
0.00223757
-0.0208347
0.000607539
-0.0418907
-0.00166937
-0.00144783
-0.0128985
-0.0904563
0.000512059
-0.0247325
0.00107381
-0.0364343
-0.0376507
3.7393e-05
-0.0249522
0.0202069
-0.0116232
-0.000322019
-0.0705365
-0.0339135
-0.0686998
0.000316219
-0.00109611
0.00101783
-0.00929253
-0.0743272
0.000709838
0.00129388
-0.0170349
-0.0728515
0.015979
-0.0294681
-0.127169
-0.000179571
-0.0529398
7.76826e-05
0.00136176
-0.072925
0.000685779
-0.0645122
0.000120892
-0.00836678
-0.00107255
-0.0592062
0.00226661
0.000655228
-0.0559751
-0.0330293
-0.0148823
-0.0700216
-0.0710045
-0.0418367
0.000493893
-0.0747658
0.000180024
-0.0847365
-0.0225805
0.00142162
0.000923333
0.000435517
-0.0298466
-0.0284508
0.000689521
0.000140462
-0.00678247
-0.0700435
-0.00526852
-0.0490781
-0.0060598
0.000649038
0.000549992
-0.0383428
-0.0525073
-0.120001
-0.0457338
-0.0214082
-0.0570665
-0.0789818
0.000603966
-0.0574433
-0.0078358
-0.059084
-0.00909583
-0.0637865
-0.00244766
0.00198871
-0.0145658
-0.018945
-0.0284984
-0.0728731
0.000565756
-0.0269209
0.000857651
0.000366397
-0.0919597
0.0223677
0.00103085
-0.0450611
-0.00855438
0.0012668
0.000227334
-0.0898643
-0.00541629
0.00305435
0.000701624
0.000968914
-0.0566874
0.000201501
-0.0465118
0.000440213
-0.00126843
-0.0808101
-0.0496909
-0.00600248
-0.0681574
-0.06418
0.0118746
-0.0378559
-0.000180819
0.00221356
-0.0940309
-0.0649934
-0.00426933
-0.00628007
0.00198532
0.00048982
-0.000180729
-0.000406773
-0.0376717
-0.014046
-0.0489856
-0.0292951
0.0131215
-0.0365368
0.00121106
-0.0195255
-0.0473601
-0.0799341
0.000911268
0.00199215
-0.000293391
-0.00136187
0.000515296
0.000491599
0.00112196
-0.00364137
-0.0769089
-0.042961
-0.000385588
-0.0519822
0.000561849
-0.0817125
0.00106088
0.000242083
-0.0694143
-0.0377571
-0.0138959
-0.0155159
0.00074575
0.00046867
-0.0184966
-0.0284669
-0.00158527
-0.0697006
-0.013807
2.94481e-05
-0.0128949
0.00185098
-0.0689374
-0.0200531
-7.76388e-05
0.000927344
-0.0737312
0.0278129
-0.0163431
-0.0705953
0.000822402
-0.00109892
0.000277298
-0.00530086
-0.0687309
-0.015059
-0.0278645
-0.01807
-0.0245065
-0.0595822
0.00179422
-0.0448108
-0.042698
-0.0053055
-0.0138221
-0.000183806
-0.0278457
0.00256974
-0.0654458
-0.0082606
0.0015393
-0.0703462
0.000232653
0.0023049
-0.00656869
0.00203609
-0.0193994
-0.0646735
0.000474772
-0.0525971
-0.0528123
-0.00273725
-0.0097538
-0.00874852
-0.00373166
-0.00852442
-0.0144785
0.0023619
0.00169773
-0.0372151
-0.0460639
-0.000112597
-0.0658524
-0.0328803
-0.031403
-0.0464683
-0.00249521
-0.0525362
0.0330001
0.000599706
-0.038337
-0.0213073
-0.0418379
-0.000410289
-0.000326487
-0.000125701
-0.0797217
-0.0133799
0.00112372
-0.0465338
-0.00158762
-0.000126615
-0.0385491
0.0295644
0.00197556
0.0254682
0.000106207
-0.0678546
-0.0147545
0.00164426
-0.0595492
0.00146721
0.00121044
0.000575244
0.0004807
-0.0147171
-0.00743538
0.00059921
-0.000372979
-6.07327e-05
0.000524388
-0.0276188
-0.00696101
-0.0322416
0.000698825
-0.0466212
0.00112068
-0.0521911
0.00156008
0.000723449
-0.0873101
-0.0133877
-0.0738538
-0.0282185
-3.43405e-05
0.0014445
0.00037654
-0.00968937
-0.0772854
-0.0267637
0.0112806
0.0178796
-0.00844788
-0.041789
4.1705e-05
0.00138676
-0.00208971
4.86674e-05
-0.0347572
-0.0257712
0.000353348
-0.0511809
0.0079501
0.000682364
0.000383944
-0.0129481
-0.000110045
-0.00559619
-0.00898581
-0.000954861
-0.0463801
0.000679484
-0.00313539
-0.00494073
-0.0873952
-0.0728135
0.00765551
-0.0678602
0.026681
-0.0884463
0.00801167
-0.000700535
0.00122258
-0.0115635
-0.0111464
-0.00463296
-0.0274767
-0.0046939
0.00814606
-0.00572707
-0.0686301
-0.0133881
-0.0407301
-0.00775614
0.000507475
-0.00632228
-0.0130539
0.00136113
-0.0226425
0.000710986
-0.068976
-0.0383798
-0.000322145
0.000310935
-0.0106116
-0.000189288
0.000603412
-0.0462203
-0.000804948
0.0223511
-0.00256412
-0.00511169
0.00117416
-0.00323933
-0.0531222
0.00165988
-0.000821536
-0.0115485
-0.0553249
-0.00340367
-0.0476366
7.25129e-05
0.0186482
0.000736934
0.000487005
-0.0927609
0.000347028
-0.0170148
-0.0511941
-0.0911185
0.000763304
0.0120537
-0.0603287
0.00108843
0.000542997
-0.000929846
-0.0696466
-0.0102974
-0.0567349
-0.0116011
-0.0692098
0.00122067
-0.0253315
0.000296068
0.000597622
0.00350058
-0.00473882
0.000210978
-0.0702705
-0.00672043
-0.00199715
0.0066855
0.00108434
0.00123799
-0.0383865
-0.00804405
-0.0745128
-0.00845299
-0.0553074
-0.0357555
-0.0238126
-0.0706177
-0.00479329
-0.0383389
-0.00954529
-0.0698007
-0.00644679
-0.0164665
0.000741086
0.00126645
-0.0063206
0.000714126
0.000881354
0.00098116
-0.00979813
-0.0196004
0.000597489
-0.00694134
-0.0495804
-0.036259
-0.0519909
-0.0503348
-0.000328602
0.00211645
-0.00466219
-0.0602766
0.000875355
-0.0680068
0.000742025
-0.00071413
-0.00716998
-0.00396998
0.000738545
0.00073207
-0.00636275
-0.0195233
-0.00210275
-0.116142
0.00741447
-0.00143689
-0.0767808
-0.00972828
0.0001057
0.00133884
-0.0897488
-0.00338516
0.00051408
-0.0139447
0.000824642
0.0003153
-0.0664028
0.00129081
0.0222315
-0.0174664
-0.00289983
-0.000321689
0.000975376
-0.00560521
0.00689502
-0.0118209
-0.0788621
0.00251495
-0.00183155
0.000766611
-0.0108844
-0.000329265
-0.0556333
-0.0434109
-0.0136438
-0.0736162
-0.107949
0.00697995
-0.0563079
0.000961664
-0.0706058
0.00096209
-0.0700078
-0.0254825
-0.0306698
-0.0112515
-0.0277281
0.0178663
-0.0676085
0.000860713
-0.0243867
0.000728537
-0.00488607
-0.0440568
-0.00483979
-0.0113019
0.00388669
-0.082602
0.000976389
-0.0371104
-0.0783182
0.000114786
0.000716131
-0.00168241
-0.070336
-0.0112672
0.000153645
-0.0266637
-0.013107
0.000351614
0.00217537
-0.00214139
-0.0114199
-0.00610919
0.000807101
0.00089081
-0.000109824
0.00210937
-0.0707394
-0.0159153
-0.0129783
0.000745436
-0.0958147
0.00199677
0.00105424
-0.00382723
-0.0191283
-0.0175797
0.000770198
-0.0512788
0.00150547
0.000474951
-0.0429288
-0.00240636
-0.00266865
-0.0447803
-0.0582923
-0.0527737
-0.0504479
-0.0134932
-0.0581459
-0.0768925
-0.00194943
-0.0504102
0.000726422
-0.0236842
-0.0329366
-0.00497059
-0.0214388
0.00134058
-0.0177258
0.0116023
-0.00545171
-0.0487877
-0.0243206
-0.0230603
-0.0646727
0.000477401
-0.0586173
-0.00816925
-0.00405611
0.00256108
0.000330949
0.00063202
7.89054e-06
-0.0115875
-0.0682636
-0.0017889
-0.00628357
-0.0287513
-0.00513288
-0.00793984
-0.0114991
-0.0546721
0.000349529
0.000344827
-0.00126493
0.000947337
0.00329303
-0.0707575
-0.0148047
-0.0103063
0.0304557
0.00112002
-0.006044
-0.0775796
-0.0704516
0.00206792
-0.0213067
-0.00370171
-0.0688255
0.0196309
-0.00580086
-0.0705869
0.000382749
-0.0362868
-0.0376603
-0.0621878
-0.00596739
0.0199152
0.000804881
-0.00142563
-0.00738586
-0.00800526
-0.00129269
-0.0654863
0.000461663
-0.0288151
0.000439044
-0.0521817
-0.0499026
-0.0075922
-0.054092
0.0226067
-0.0104339
-0.0558305
-0.00127738
-0.008043
-0.00821888
-0.0696413
-0.044675
-0.0824495
-0.0102488
-0.0481293
-0.0196448
0.000747235
0.00609015
-0.0259651
0.0010052
-0.00313224
-0.0298231
-0.0084074
-0.00792173
-0.00285843
-0.00227912
-0.0195923
-0.0435337
-0.0195907
-0.00479397
-0.0254696
-0.00207811
-0.00528716
-0.00438873
0.00126499
-0.0674165
-0.0568846
0.000430524
-0.0401485
0.000796709
0.0100103
-0.0685682
-0.0111501
-0.00200819
0.00080017
-0.0108653
-0.00420424
-0.00516948
-0.0675271
0.00056255
-0.024525
0.000253584
0.000716285
-0.049452
-0.0664199
-0.0532617
-0.0160825
-0.00115224
-0.00201095
-0.00673379
-0.0552908
-0.0688228
-0.000228016
-0.00923741
-0.00476131
-0.042652
-0.0276214
0.0006306
-0.00730721
-0.0551723
0.000770915
0.0138131
0.000627207
0.000496048
-0.0158443
-0.0814536
-0.0293838
0.000221945
-0.039558
-0.0283091
0.000408051
-0.036074
-0.0029882
-0.00686017
-0.0557614
-0.00259782
0.000796042
0.00204621
-0.0497825
-0.00787547
-0.0142895
0.000671446
-0.00448108
-0.000159029
-0.00848147
-0.0202757
-0.00810785
-0.0700478
-0.00811548
-0.0223911
-0.0365247
-0.017912
0.000371478
-0.00471224
-0.0479263
-0.0646978
-0.0727201
-0.00440127
0.000696612
-0.0695908
-0.00209515
0.00159808
-0.0162517
-0.00674583
-0.00837517
-0.00220847
-0.0665316
-0.0193996
-0.00362467
-0.0104387
-0.011313
-0.0664015
-0.077876
0.000356038
-0.0018485
0.021148
0.000581228
0.00083905
-0.000370891
-0.000657582
-0.011264
-0.0302468
-0.0142044
-0.0688582
-0.00736379
0.000548008
-0.0197598
0.000687747
-0.0645713
-0.00720709
-0.000165123
0.00151146
-0.0487873
-0.0068164
-0.0637129
-0.00653302
-0.030122
-0.000195169
0.000435566
0.000915187
-0.00718604
-0.00831774
-0.0641313
-0.0108882
-0.0334032
0.00238752
0.00144418
-0.013473
0.000692913
0.00011383
-0.0689883
0.0006493
0.0136368
-0.0489213
-0.00730243
-0.0432633
-0.0308651
-0.030138
-0.00660404
0.00139944
-0.00109058
0.000528595
-0.00715883
0.00263929
0.0011911
-1.80588e-06
0.000863282
0.000796609
-0.00153596
-0.00259012
-0.0706816
-0.0298264
0.000999293
-0.00820076
0.000581997
-0.0280832
0.00145955
0.0281993
0.00107936
-0.00162421
0.00125216
-0.0230728
-0.00128666
-0.0563389
0.000461064
0.000636594
-0.0127869
-0.00140883
0.000564785
-0.0824286
-0.00371143
-0.000107882
-0.00226734
-0.034078
-0.0700145
-0.00014993
-0.0188372
-0.000685477
0.00127489
0.000874808
-0.0555657
-0.00989725
0.000376081
-0.0156906
0.000569714
-0.0826801
0.000657537
-0.0025157
-0.00987138
0.00088454
-0.0695409
0.000638899
0.000682252
-0.0503775
-0.00659297
-0.000146464
0.00075896
0.000851971
-0.0433896
-0.0137008
0.00165174
-0.000502798
0.0316375
0.00679547
-0.000600116
-0.000613734
-0.0109647
-0.00798017
-0.0254335
0.000177745
0.00103576
-0.0143111
-0.00548692
-0.00693877
-0.00900274
-0.00125291
0.000598366
-0.0456693
-0.00105338
0.00318094
0.000454081
-0.00845659
-0.00188431
0.000670433
-0.00656754
0.000958294
-0.0308275
-0.0111689
0.000267921
-0.070763
-0.0726703
-0.0486747
-0.0684671
-0.00166637
-0.00897587
0.0351067
-0.0643281
0.000825523
-0.0765643
0.000533494
-0.0593368
0.00172182
-0.0236515
-0.0435789
-0.0285042
0.00781714
0.000339811
-0.0439223
-0.00145213
-0.00114993
-0.0239914
-0.0778013
-0.108666
-0.00935575
0.00575397
0.0218825
0.000554707
-0.0536176
-0.00348398
-0.00880276
-0.00288349
-0.00154371
-0.0719532
0.000866481
-0.0372992
-0.00329277
0.0311558
-0.0305521
-0.0061987
0.000472616
-0.0679976
0.000454163
-0.0104797
-0.0163515
8.09781e-06
-0.0516673
0.00232316
-0.0262219
-0.0710088
-0.00865448
0.0011576
-0.0154451
-0.00153504
-0.0236576
-0.00100379
0.000477805
-0.0283863
0.00047378
-4.16116e-05
-0.0294478
-0.00643706
-0.0550684
-0.00823014
1.45517e-05
-0.00499669
-0.00265702
-0.00258281
-0.0129676
-0.0554474
0.00741622
-0.000259713
0.000424484
-0.00721251
0.00872319
-0.00566262
-0.0679895
0.000339147
0.0250597
-0.00736628
0.00137681
-0.0660615
-0.00517343
0.000564883
-0.0718692
-0.0508533
-0.0837785
0.00120845
-0.0719524
0.0127022
-0.00363776
-0.0764895
-0.00360588
0.000332993
-0.0416334
-0.00189947
3.08272e-05
-0.0895953
-0.00181564
-0.0440466
-0.0133725
-0.0684371
-0.0103212
-0.0095975
-0.00737014
-0.0813437
-0.0106
-0.00839718
0.00134026
-0.0268664
0.000401854
0.00059544
-0.00280435
-0.0191354
-0.00653681
-0.00517658
-0.0723298
0.00989996
-0.0268253
-0.0314601
0.000494406
-0.0456824
0.021448
-0.00326643
-0.056099
0.00061094
-0.0453876
-0.0826793
0.000477304
-0.0689157
-0.00832621
-0.071292
-0.0502942
-0.0103145
0.00110748
-0.00861259
-0.00035206
-0.010104
-0.0157929
6.63561e-05
-0.00477356
-0.0727046
-0.0223376
-0.0662667
0.000332632
-0.0158034
-0.0815965
0.00190991
0.0120716
-0.0675023
-0.00593633
-0.00952494
-0.0629069
-0.0611717
-0.019707
-0.00560746
-0.064297
-0.00504709
0.000905716
-0.0755379
-0.0477905
0.0006756
-0.00279717
-0.0378507
-0.026963
-0.0198916
-0.00794797
-0.0325321
-0.0200952
0.0169873
0.00623489
0.00108272
-0.0147259
-0.0719811
-0.00127226
-0.00994403
-0.0100972
0.0139311
0.000537528
-0.0705002
-0.0149594
0.000815448
-0.0283962
0.00197859
-0.000517096
-0.025241
-0.0294
-0.00840206
-0.0686014
0.00127389
-0.0686846
0.000826736
-0.0795612
-0.065643
-0.0630942
0.000662721
-0.0102141
-0.00192039
-0.00290623
-0.0237029
-0.0481003
-0.0754669
0.0192725
3.99025e-05
-0.0132327
0.00129142
-0.0476762
-0.0731609
0.000354517
-0.00040896
-0.010948
-0.0261645
-0.00533102
0.000806557
-0.007356
-0.0233731
-0.00219321
0.00176479
-0.00472826
-0.0693807
0.00152549
0.000579642
-0.0678522
-0.0254666
-0.0031632
-0.0581384
-0.00417362
-0.00102902
-0.0843602
-0.00720046
0.0076672
-0.0415449
-0.0477784
-0.0568359
-0.0720195
-0.0128949
0.00415927
0.0145888
0.00055104
-0.059523
-0.0364049
-0.0105824
-0.0537671
0.0195865
0.00305656
-0.0370156
-0.0676577
-0.0117961
-0.0541312
3.47121e-06
-0.0153211
-0.00841304
-0.00118505
-0.0666018
0.0140304
0.000636071
0.00316174
-0.0622448
-0.00408299
-0.00473347
-0.0729131
9.25733e-05
-0.00552792
-2.9897e-05
-0.00455722
-0.0436707
-0.010266
-0.0434179
-0.0287445
-0.0320335
-0.00134191
-0.0183015
0.00153179
0.00252761
-0.0109185
-0.00812708
-0.00466435
0.000618989
0.000719175
-0.0704423
-0.0580781
-0.00507615
-0.0560497
0.000394958
-0.0028479
-0.00150483
0.000514485
0.000985472
0.00206129
-0.0188758
-0.0885065
-0.00260968
-0.0778882
-0.0140649
-0.0612926
-0.00674659
-0.0670878
-0.000424348
-0.0562243
-0.030804
-0.00282041
-0.0225608
-0.0772111
-0.00431829
-0.00484795
0.000549787
-0.00831803
-0.0582327
6.33574e-05
-0.0146548
-0.00121229
-0.00219873
-0.063547
-0.0077048
-0.0171594
-0.00527837
-0.000439423
-0.0568014
-0.0242076
0.000304969
-0.0481777
0.0130366
-0.0771219
0.00812928
-0.0041471
-0.00281183
-0.0923985
-0.00758842
-0.0430265
-0.014686
-0.0720812
0.00128316
0.000241475
0.00328642
-0.0534059
-0.00947531
0.000512602
0.000465141
-0.0622596
-0.119514
-0.0312295
-0.00985253
-0.00157955
-0.00190411
-0.0698823
4.64897e-05
-0.0674344
-0.0480134
0.000288797
-0.0421942
0.00209464
-0.00105422
-0.020206
0.000835146
-0.0141338
-0.000367665
0.00253697
-0.0140893
-0.00496844
0.00121284
-0.0874842
-0.00274828
-0.00842311
-0.07314
-0.00694022
0.00192016
-0.0203926
0.00020584
0.000978728
-0.0108249
-0.0271774
-0.023086
-0.00264796
0.000559036
0.00580119
-0.00870152
-0.0353767
-0.0138625
-0.0076457
0.000689949
0.000536988
-0.0100697
0.0159978
-0.0450078
-0.0683586
-0.0675996
-0.00110327
0.00155887
-0.00585152
-0.0683338
-0.00988516
0.00321755
-0.0728722
-0.0721548
-0.000438823
-0.0153803
-0.0129497
0.00864091
-0.0755512
0.000795179
-0.0084393
-0.0287369
-0.0409582
-0.013548
-0.0162902
-0.00337775
-0.0593099
-0.0627305
0.000387307
-0.0509777
0.00222715
-0.0097586
-0.0563422
-0.0469609
0.0134065
0.0138844
-0.00538161
0.000500279
-0.00802202
-0.00330197
-0.00450899
0.00148329
-0.00161335
0.00102635
-0.0213611
-0.0651027
-0.0157164
6.40761e-05
-0.0215158
-0.0541634
0.0205306
0.00108682
-0.0107627
-0.00635574
-0.0702081
0.0105383
-0.00116541
-0.047507
-0.053709
0.000590987
-0.0711793
-0.0100785
-0.00282149
-0.0356385
-0.000810606
0.00300857
0.000452034
0.000482074
-0.000215887
0.000482372
-0.0741165
0.000653862
-0.00422591
-0.0429569
-0.0301156
-0.0025478
-0.0557724
-0.00575862
-0.0100679
-0.00872333
-0.00813665
-0.000491707
-0.000829724
-0.0672972
0.00759809
0.00408341
-0.00777865
0.00465486
-0.0659183
-0.0229278
-0.0683403
-0.000491268
-0.00139896
-0.0102854
-0.00339679
0.000803097
0.00133369
-0.0637806
-0.050652
-0.00274028
-0.00381417
-0.00959568
-0.0514448
-0.0134724
-0.00423567
-0.00493113
-0.0690105
-0.0129743
-0.0806364
-0.013748
-0.00504541
-0.00506809
0.00030779
-0.00101371
-0.0431021
-0.00235543
-0.0378998
-0.0862563
-0.00360497
-0.070243
-0.0143926
-0.000472761
-0.0164185
-0.00891884
-0.0289603
0.000700568
0.000800674
0.000549361
-0.0746832
0.000450671
0.0104797
0.00552633
-0.036589
-0.0286929
-0.0143735
-0.0474671
-0.0707489
0.000847549
0.000400764
-0.00101476
-0.0688559
-0.00799842
-0.0134816
0.0169565
-0.00287524
-0.040604
-0.00645612
2.22765e-05
-0.00680594
-0.0114823
-0.0341027
-0.0902323
-0.0869064
-0.0209646
-0.000386987
0.00217717
-0.0120669
-0.0181411
-0.00116804
-0.0589457
-0.0556232
-0.00453683
-0.00278552
0.00059091
-0.00518386
0.00121864
-0.0635752
-0.0533037
-0.0130262
-0.0714412
-0.0503226
-0.0587265
-0.072077
-0.00692426
-0.0636634
-0.0116898
-0.0684679
-0.0667057
-0.060443
-0.0736312
0.000470605
-0.0224915
-0.000725452
-0.000411522
-0.087731
-0.00561051
-0.0103783
-0.0289243
-0.014481
-0.0337983
-0.0659071
-0.0677681
-0.0526191
-0.018246
-0.00384379
-0.00797037
0.000549611
-0.0147426
-0.0265932
-0.0513424
-0.0631549
-0.0136156
0.000657803
-4.89639e-05
-0.00107226
-0.0649329
-0.00385911
-0.000255951
-0.0122237
0.00930575
-0.0342192
-0.00106798
0.0045152
-0.0642097
-0.0126866
-0.0343143
-0.010032
-0.0295975
-0.0288832
0.00349389
-0.00145223
0.000545678
-0.0555565
-0.0247699
-0.00116552
-0.0300922
-0.0851625
0.00268307
-0.00475955
-0.00278615
-0.0486674
-0.00463712
-0.00232411
0.000670532
-0.0115595
-0.0597219
-0.000464924
-0.0538975
-0.068688
-0.00640894
0.00446159
-0.0224589
-0.068376
-0.0126326
-0.0745356
-0.00402497
0.00322963
0.00118262
-0.0705585
-0.0291526
0.000727933
-0.0794315
-0.00733999
-0.00790872
0.00983055
-0.0681229
0.0115469
-0.0330774
-0.0279107
-0.0157409
-0.0678354
-0.00143813
-0.00631824
-0.0132163
-0.0261572
-0.00963591
0.00146199
-0.00696525
0.00355925
-0.0686497
-0.0160475
-0.0814361
-0.00710025
-0.0795699
-0.0713193
-0.012564
-0.0133485
-0.0276287
0.0222471
-0.0639026
-0.0336761
-0.0850331
-0.0444265
0.0112609
0.00144075
-0.0685765
-0.092962
0.00220191
-0.0667606
-0.00487981
-0.000721648
-0.0133643
-0.003791
-0.00673579
-0.0351533
-0.081854
0.00304893
-0.00444394
-0.0405648
-0.0672725
-0.0762032
-0.0765798
0.0019838
-0.0712173
-0.043886
-0.0508688
-0.000322189
-0.000508683
-0.046592
-0.0710249
0.000688519
-0.052464
-0.0788962
-0.00035207
-0.0126302
0.0011714
0.00210113
-0.0044149
-0.0355111
-0.0705443
0.000116475
-0.00873015
-0.00050715
-0.0117703
-0.055595
-0.0856934
-0.00251539
-0.0693731
-0.0253101
-0.00507697
-0.00130657
-0.00706197
0.000581703
-0.0672002
-0.0688192
-0.0577417
-0.0235975
-0.075736
-0.000700812
-0.0701422
-0.08072
-0.0296623
-0.0710081
0.000745941
-0.00562388
-0.00988642
-0.0244186
-0.0718488
-0.0315846
-0.0127328
-0.0154533
-0.010371
-0.0771123
0.00136755
0.000800752
-0.0693567
-0.0774598
-0.0149288
-0.00774173
-0.0345843
-0.00860102
-0.00961849
-0.0259104
-0.00389306
-0.0652918
-0.00247322
-0.0712192
-0.00231094
0.00350735
-0.0537317
-0.00104131
0.000591464
-0.00977795
-0.0293011
0.000625414
0.00302652
-0.0455975
-0.0643194
-0.0720898
-0.052032
-0.0122401
0.00051791
-0.0150487
-0.0178937
-0.00539431
0.00351285
0.00051261
0.000627958
-0.0871808
-0.00517983
-0.032147
-0.0218491
0.00213111
0.000493991
0.00067619
-0.0155993
-0.0158621
-0.055662
-0.0217366
-0.049935
-0.0697276
-0.0129385
-0.0428712
-0.0587229
-0.0715814
-0.0568218
0.000730929
-0.0224361
-0.0186707
-0.0119758
-0.038528
-0.00649942
-0.0162001
-0.0520314
-0.0726684
-0.00961656
-0.0530325
-0.0434525
-0.0545002
-0.0560313
-0.0165123
-0.0574812
-0.0589242
-0.0603168
-0.0616796
-0.0576026
-0.0431655
0.00256142
-0.0041629
-0.02834
-0.0520687
-0.00284361
-0.0482904
-0.0712735
-0.0335645
-0.0826131
0.000589712
0.000628722
0.00287053
-0.0683297
-0.015789
-0.00417881
-0.0537573
-0.067173
0.0135312
-0.00616324
-6.70232e-06
-0.0183393
-0.123302
-0.011381
-0.0275228
-0.0581521
-0.0783084
-0.0516565
-0.0753185
-0.0347344
0.0041603
-0.0711617
4.44529e-05
-0.0698532
-0.0724045
-0.00733896
-0.0213505
-0.0214335
0.000593479
0.000401896
0.026958
0.00634703
0.000916432
0.000932792
-0.0556837
-0.0680642
-0.0213651
-0.00775968
-0.0649728
-0.044459
-0.0787286
-0.0695789
-0.0124756
-0.00929161
-0.0153539
-0.00303847
-0.0752991
0.0183686
-0.0687126
-0.0515244
-0.0661305
-0.00371685
-0.00219889
-0.00285383
-0.0760693
0.00074916
-0.072083
3.7736e-05
-0.0744991
-0.0160102
-0.00371903
0.00449838
-0.00292917
-0.0545729
-0.0146091
-0.0083362
-0.00219978
-0.0161009
-0.0634901
-0.0814019
-0.0252235
-0.0790612
-0.00310895
-0.000644422
-0.026949
-0.0198244
-0.0689169
-0.0645142
-0.0176622
-0.0641257
-0.056077
-0.0678398
0.00012281
0.000795877
0.000115128
-0.00033846
-0.0593295
0.00203704
-0.000468673
-0.00429706
-0.0586815
-0.00171791
-0.010834
-0.0141608
-0.122113
-0.00969735
-0.015347
0.000494316
-0.0791817
0.00080679
-0.0253198
-0.0573822
-0.05526
-0.0656154
0.000571659
-0.034345
-0.0271019
-0.0606876
-0.0677175
-0.00732483
-0.0569585
-0.00280683
0.00109414
0.00838045
0.00519489
-0.0194189
-0.00262715
-0.0160585
0.00459294
-0.0703785
-0.0759292
-0.0729568
-0.0710747
0.000278139
-0.0298133
0.000371125
-0.0578826
0.000848716
-0.0197104
-0.000769986
-0.0314979
0.00172186
-0.0101899
-0.00173483
0.0143803
-0.0730668
-0.0597894
-0.00114355
0.0155244
-0.0587032
0.000127682
0.00118552
-0.0716318
-0.0196004
-0.0221458
-0.065902
0.00295564
-0.088346
-0.000649907
-0.0694231
-0.0883294
0.0158598
0.0287555
-0.0252238
-0.0536829
-0.0507098
-0.073505
0.0109663
-0.0152577
-0.0679502
0.00586151
-0.0492835
-0.00701505
-0.0403107
-0.0190706
-0.0690981
-0.0322803
-0.00953056
-0.00966755
-0.0894821
-0.0309689
-0.0669321
-0.069947
-0.00269239
0.00046371
-0.0777201
-0.0702661
0.00252499
-0.0140571
-0.00417048
0.00253717
-0.0697811
0.00439745
-0.0716176
-0.0105384
-0.0704121
-0.0240275
0.0139221
-0.0148135
-0.0472631
-0.0599216
-0.00229422
-0.0549608
0.000596279
-0.0203227
-0.013173
0.000532413
-0.00354633
-0.0138729
-0.0716633
-0.0702498
-0.00023988
-0.0699125
-0.0125137
-0.000644169
-0.00769977
0.000514972
-0.0149205
-0.067732
-0.0722144
0.00058896
0.018815
-0.0477976
-0.0457889
-0.0620619
-0.0523408
-0.0114086
-0.0388798
-0.00810477
0.0017665
4.83009e-05
-0.0691129
-0.0051549
-0.0713678
-0.0658326
-0.0310642
-0.0676378
-0.0696905
-0.000984407
-0.0754021
-0.0282582
-0.0426241
0.00207347
-0.0017429
0.00453727
-0.0640303
-0.0126486
0.00703002
-0.00864121
-0.0717246
-0.0597073
-0.054718
-0.0631646
-0.0624681
-0.0718305
-0.00754513
0.000864062
-0.0476845
-0.0103697
-0.0135945
-0.0139951
-0.00868375
-0.00155679
-0.00644628
-0.0102136
-0.00260752
-0.0104983
-0.00636084
-0.00542442
0.00379627
-0.0586017
-0.010553
-0.0710167
-0.0118023
-0.00678172
-0.0538295
-0.0444166
-0.00336414
-0.00116067
0.0108419
-0.0274366
-0.0756569
-0.0273499
-0.0352439
-0.00820959
-0.000321435
0.0118931
-0.0704802
-0.0484401
-0.00331068
0.0006696
-0.0773761
-0.0135548
-0.00577253
-0.0499584
-0.0229218
-0.0447181
-0.0739436
-0.0504167
0.0138657
-0.0050929
-0.082103
-0.00222983
-0.0106568
-0.0185267
-0.000951443
-0.0470591
-0.0327923
-0.0547042
-0.00757439
-0.0102905
-0.0265086
-0.0645753
-0.0508862
-0.0129982
-0.0552848
-0.057528
-0.0345042
-0.0154947
-0.0142464
-0.0466389
-0.0301772
-0.067883
-0.00475891
-0.00107175
-0.0443488
-0.0147272
-0.0447763
-0.0514169
-0.00725086
-0.0459329
0.000312937
-0.0299008
0.0115817
-0.0121422
-0.00161447
-0.00751525
-0.0719838
-0.0635651
-0.00682369
0.0120641
-0.0567786
-0.0143297
-0.00127549
0.00826983
-0.0706164
-0.0460234
-0.0725944
-0.00601376
-0.037561
-0.0670819
-0.0581928
-0.035288
0.00133127
-0.054958
-0.00178536
-0.00998615
-0.0580684
-0.0595941
-0.00935323
0.00645175
-0.00945706
-0.001339
-0.00924356
-0.0609325
-0.0016966
-0.0694221
-0.0289771
-0.00126945
0.000876537
-0.000176513
-0.00864707
-0.0100361
0.000305346
-0.0278262
-0.00718444
-0.0086946
0.00124588
-0.0508286
-0.0163255
-0.0323898
-0.012984
0.000813896
0.000681792
-0.0424124
0.00194165
-0.0697775
-0.012477
-0.0132679
-0.016745
-0.0217389
-0.0103385
-0.0100102
-0.0276601
-0.0266405
-0.0194927
-0.0319662
0.000188235
-0.106852
-0.0267566
-0.0105566
0.00373894