/*--------------------------------*- C++ -*----------------------------------*\
| =========                 |                                                 |
| \\      /  F ield         | OpenFOAM: The Open Source CFD Toolbox           |
|  \\    /   O peration     | Version:  v2012                                 |
|   \\  /    A nd           | Website:  www.openfoam.com                      |
|    \\/     M anipulation  |                                                 |
\*---------------------------------------------------------------------------*/
FoamFile
{
    version     2.0;
    format      ascii;
    class       volScalarField;
    location    "350";
    object      nut;
}
// * * * * * * * * * * * * * * * * * * * * * * * * * * * * * * * * * * * * * //

dimensions      [0 2 -1 0 0 0 0];


internalField   nonuniform List<scalar> 
14033
(
0.00138575
0.00813755
0.00690441
0.00672412
0.00667695
0.0067371
0.012181
0.00466124
0.00672422
0.00813063
0.00858992
0.00439821
0.00676669
0.00677666
0.00666748
0.00471138
0.00680364
0.0096555
0.00681082
0.00679398
0.00566778
0.00439265
0.00222729
0.00667713
0.0043205
0.00680942
0.00175964
0.00251626
0.00100888
0.00142758
0.0062642
0.00479614
0.00153714
0.00454806
0.00102137
0.0067728
0.0046485
0.00997895
0.00669417
0.00680633
0.00629029
0.00415461
0.00672753
0.0067163
0.00622726
0.0067632
0.00664829
0.00673801
0.00173586
0.00303419
0.00678092
0.00672771
0.00354661
0.00280883
0.00680327
0.00676602
0.00112
0.0125416
0.00443258
0.00558475
0.00902837
0.00323191
0.00221483
0.00675233
0.00670316
0.00675631
0.00107312
0.00280766
0.00640207
0.00527127
0.00671079
0.00673209
0.00665747
0.00679943
0.00383015
0.00671272
0.00673645
0.00640837
0.0190602
0.00157896
0.00665172
0.0180403
0.00362251
0.00679656
0.00670412
0.00676066
0.00659541
0.00296684
0.0065372
0.00633919
0.00673187
0.00675572
0.00640893
0.000313303
0.00633431
0.00297859
0.00678485
0.00698543
0.00600409
0.00672818
0.00676077
0.00673599
0.00643599
0.00661563
0.00668907
0.00218004
0.00609057
0.00679983
0.00289049
0.00679576
0.00652053
0.00703692
0.00674288
0.00404802
0.00696581
0.00673473
0.00142651
0.00670743
0.000680983
0.00168211
0.00670786
0.00345775
0.00345089
0.00664625
0.000374879
0.00588306
0.00671903
0.00189501
0.00395609
0.0067403
0.00667104
0.00671383
0.00669363
0.00466739
0.00657169
0.00652077
0.00239865
0.00672796
0.00674068
0.0049414
0.00478905
0.00126447
0.00277298
0.00389214
0.000930151
0.00544879
0.00670857
0.00224526
0.00436255
0.00210612
0.00278959
0.00581915
0.00671738
0.00359699
0.00673656
0.00569626
0.00644379
0.00673947
0.00654231
0.00666952
0.00623841
0.00174887
0.00397703
0.00672858
0.00459005
0.00674121
0.00521857
0.00420055
0.00513529
0.00679651
0.00389269
0.00236466
0.00356662
0.000102043
0.00671346
0.00679191
0.00194531
0.00280105
0.0039553
0.00613845
0.00132463
0.00164587
0.0056584
0.00670642
0.00678631
0.00649518
0.00603033
0.00673898
0.00588425
0.00651525
0.00100176
0.00618118
0.00435035
0.00673937
0.000384653
0.00486146
0.00267958
0.00435743
0.00672385
0.00680037
0.00679416
0.00622528
0.00672464
0.00090288
0.00510531
0.0067351
0.00376844
0.0011312
0.0048474
0.00778786
0.00238617
0.00113211
0.00103125
0.000503772
0.00668441
0.00628449
0.00671832
0.0179007
0.00680337
0.00373593
0.00462554
0.00677479
0.00679097
0.00664919
0.00672019
0.00691095
0.00162787
0.00513818
0.00672139
0.00661999
0.00668625
0.00231095
0.00672976
0.00671247
0.0186355
0.00585458
0.00206532
0.00688032
0.00671982
0.0067433
0.00482756
0.00648163
0.00673136
0.00669356
0.00476795
0.00700652
0.00677766
0.000201506
0.00669622
0.00672702
0.00672323
0.00179797
0.00680544
0.00101165
0.00672152
0.00432352
0.00674615
0.00681231
0.00682256
0.000970117
0.00697273
0.00787451
0.0114719
0.00369615
0.0057936
0.0156918
0.0067284
0.00163016
0.0143712
0.00487811
0.00679962
0.00538896
0.00670292
0.00336975
0.00078069
0.00671812
0.00668766
0.0024767
0.00669264
0.000397388
0.00199765
0.00672989
0.00126378
0.00442611
0.00564326
0.00251973
0.00670798
0.00682668
0.0151085
0.00102519
0.00637462
0.00439981
0.00287367
0.000543326
0.00678468
0.00675046
0.0067718
0.00671956
0.00672493
0.00668082
0.00676383
0.000229519
0.00622461
0.00679089
0.00390552
0.0102189
0.00675541
0.0067248
0.00655047
0.00680696
0.00257074
0.00674174
0.00147206
0.00283818
0.00126781
0.00908137
0.00669151
0.00527277
0.00539803
0.00148625
0.00800174
0.00243825
0.00580199
0.00925808
0.00298117
0.00426677
0.0067869
0.00635284
0.00641308
0.00244498
0.005104
0.0186393
0.00445507
0.00547334
0.00667091
0.00445019
0.00231299
0.00668052
0.00555262
0.00680297
0.00301676
0.0025507
0.00674322
0.00680308
0.00538371
0.0116978
0.0035511
0.00673172
0.00556349
0.01258
0.00677582
0.0067957
0.00655476
0.00263315
0.00680773
0.00669038
0.00675813
0.00595312
0.00679505
0.0066064
0.00680574
0.00460323
0.0043152
0.00631798
0.00673518
0.00282356
0.00381684
0.00669629
0.00677106
0.006787
0.00704956
0.00678156
0.0070878
0.00674226
0.00262826
0.0177522
0.00677063
0.00518588
0.00178245
0.00667497
0.00620747
0.00314952
0.00681168
0.00469709
0.00454016
0.00671952
0.00628313
0.00671733
0.00367309
0.00326998
0.00676402
0.00336482
0.00673928
0.00628797
0.00973792
0.0191747
0.00133673
0.000995957
0.00209114
0.00673215
0.0125798
0.00681231
0.0067266
0.00634296
0.00259938
0.0067213
0.00514626
0.00669471
0.00681262
0.0005289
0.00607029
0.00145515
0.0068182
0.0116047
0.00703424
0.00681273
0.00128589
0.00675855
0.0067895
0.00291872
0.00427947
0.00433489
0.00344381
0.00673698
0.00672578
0.00673389
0.00501638
0.00666791
0.00311658
0.00660452
0.00344661
0.00680855
0.00494257
0.00677062
0.00157468
0.00680996
0.00666764
0.00672997
0.00205083
0.0152091
0.00106459
0.00674992
0.00679259
0.00709321
0.00621635
0.00671705
0.00424818
0.00286957
0.0148828
0.00677187
0.0066363
0.00686328
0.00682311
0.010051
0.00707358
0.00126527
0.013292
0.006736
0.00666722
0.00291516
0.00680673
0.00661163
0.000563718
0.0012211
0.00667472
0.00671828
0.000900604
0.00674624
0.00677791
0.000734273
0.00664345
0.00367605
0.00679292
0.00672835
0.00332001
0.00163327
0.00664366
0.00127278
0.00631159
0.000653686
0.0067259
0.00638025
0.00672719
0.00580852
0.00659442
0.0067763
0.00307626
0.00671952
0.00299471
0.00672924
0.00678743
0.00342542
0.0041024
0.00445026
0.00679697
0.00677656
0.00234706
0.0158695
0.0054231
0.00286678
0.00675709
0.00485501
0.00119442
0.0141168
0.00128994
0.00672213
0.00674367
0.00213465
0.00673387
0.00183252
0.00671845
0.00672478
0.00645258
0.00666909
0.00664944
0.00656705
0.00370301
0.00671058
0.0143814
0.0192089
0.00677792
0.0051256
0.00676854
0.00681269
0.00666517
0.00677521
0.00641466
0.00672613
0.00678393
0.00681179
0.00424572
0.00662601
0.00573179
0.00679918
0.00688686
0.00679542
0.00679474
0.0067383
0.00675151
0.00187007
0.00347292
0.000796399
0.00667116
0.00662443
0.00407411
0.0060509
0.00277068
0.00677926
0.00100384
0.00582698
0.00637735
0.00468732
0.00669077
0.00677923
0.00297247
0.00154327
0.0067979
0.00460458
0.00390111
0.00503282
0.00500323
0.00662919
0.00479167
0.00679585
0.00493743
0.00671729
0.00180994
0.00652873
0.00674885
0.00676643
0.000756104
0.00275555
0.00078906
0.00673217
0.00451914
0.00675806
0.00499987
0.00564985
0.00511699
0.00510683
0.00631604
0.00668861
0.00678156
0.00672261
0.00672534
0.00133693
0.00676462
0.00143662
0.0067073
0.0065841
0.00606943
0.00630537
0.0069467
0.00284363
0.00679049
0.00675759
0.00670576
0.0012347
0.00701844
0.00625115
0.00671881
0.00675629
0.00572638
0.0196677
0.00484239
0.000439279
0.00560443
0.00647263
0.00313646
0.00244451
0.00365851
0.00408039
0.00677565
0.00679193
0.0222129
0.00671981
0.0062805
0.0068071
0.00426147
0.00180983
0.0024591
0.0067287
0.00667764
0.00462468
0.00723077
0.00412029
0.00176664
0.00275423
0.00343495
0.00325498
0.00668348
0.00643983
0.00669147
0.0015905
0.00671495
0.00352809
0.00667728
0.00670506
0.00172206
0.00672145
0.00177872
0.00676984
0.00768462
0.000618786
0.00221227
0.00606423
0.00309566
0.00672233
0.00673074
0.0065788
0.00462553
0.00372473
0.00679999
0.00658845
0.00450212
0.00248479
0.00684397
0.00671445
0.00395754
0.00677876
0.00668464
0.00683314
0.00280235
0.00550377
0.00679894
0.000681971
0.00296522
0.000557131
0.00677387
0.00676659
0.0121735
0.0108075
0.00140378
0.00672543
0.0068103
0.00672009
0.00675035
0.000546112
0.00306267
0.00675566
0.000617166
0.00127434
0.00667096
0.00894701
0.000449132
0.00624743
0.00675815
0.000858057
0.00227957
0.00677599
0.00673089
0.00288403
0.00406378
0.00334604
0.00401815
0.00389088
0.00211362
0.00142075
0.00671185
0.00670799
0.00500756
0.00418953
0.00304266
0.00680484
0.00532023
0.00681104
0.00672411
0.0248624
0.00598368
0.00515603
0.00103524
0.00672169
0.00670628
0.00670676
0.000501369
0.00426429
0.00631899
0.00671317
0.00671217
0.00466135
0.00704008
0.0013589
0.0034615
0.00670502
0.0050904
0.00690216
0.00119283
0.00384045
0.00715183
0.0067577
0.00672547
0.00153912
0.00850212
0.00470375
0.00679505
0.00525341
0.00728362
0.0067213
0.00489996
0.0038679
0.0060174
0.0062691
0.00666803
0.000902604
0.00291773
0.00680437
0.00701699
0.00668341
0.00325046
0.000386464
0.00364864
0.00676182
0.0067196
0.00680587
0.00267313
0.00150061
0.0067521
0.00379063
0.00668494
0.00532129
0.00674835
0.00242533
0.00296716
0.00621471
0.00675757
0.00672489
0.00650098
0.00673265
0.00680515
0.00241235
0.00676745
0.0065088
0.00579003
0.00554024
0.00687032
0.00429075
0.00105489
0.00147005
0.00204636
0.00678458
0.00532039
0.00680572
0.00160412
0.00721092
0.00675382
0.00671968
0.00531821
0.00675443
0.00516639
0.00685623
0.00596378
0.00171884
0.00608102
0.00164011
0.00591617
0.00665935
0.00206401
0.00735621
0.00175392
0.00133994
0.00241699
0.0017961
0.00476231
0.00140479
0.00190569
0.000363254
0.00671448
0.00528914
0.004266
0.00680785
0.00676313
0.00679632
0.00680303
0.0028805
0.00673407
0.00714584
0.0068123
0.00248378
0.00363498
0.00316346
0.00471918
0.00690538
0.00674381
0.00675833
0.00600248
0.00479549
0.00335862
0.00676573
0.00669271
0.00192487
0.0067209
0.00299055
0.00419947
0.00679669
0.00702932
0.00308663
0.00181361
0.00641628
0.00449432
0.00668196
0.00642131
0.0066933
0.00672331
0.00567468
0.00314036
0.00364364
0.00680553
0.00671436
0.00681188
0.00672537
0.00676438
0.00671091
0.00667433
0.00269708
0.00667593
0.00665332
0.00681135
0.00674421
0.00673357
0.00295726
0.00681194
0.0139077
0.00671799
0.00211017
0.00679985
0.0140948
0.00681234
0.00166797
0.00676427
0.00578009
0.0067944
0.00668848
0.00672392
0.00398085
0.00679712
0.00366387
0.00133982
0.00619603
0.000685483
0.00101214
0.00671454
0.00334488
0.00644539
0.00295245
0.00432229
0.00128433
0.00674042
0.0066921
0.00671009
0.00658357
0.00678981
0.00602437
0.00674014
0.00678727
0.00355189
0.00675987
0.00638068
0.00675551
0.00620392
0.00667389
0.00680394
0.00659635
0.00230521
0.0039446
0.00675339
0.00668198
0.0189613
0.00611898
0.006571
0.00672373
0.00680792
0.00628638
0.0107901
0.00636796
0.00621496
0.00451655
0.00633719
0.00678995
0.0134703
0.00677591
0.00668681
0.00105493
0.000896828
0.0068066
0.012901
0.00149625
0.00330886
0.00685694
0.0127753
0.00400039
0.00671827
0.00680368
0.0192754
0.00680457
0.00169319
0.006798
0.00677209
0.00668881
0.00676326
0.00679821
0.00190596
0.00246148
0.00268666
0.00479102
0.00545392
0.00109769
0.00671207
0.00559474
0.00163533
0.00621908
0.001044
0.00316135
0.00671372
0.00680931
0.00675493
0.00105865
0.00680925
0.00714574
0.0054262
0.00679
0.00178695
0.00668489
0.00715419
0.00717745
0.00662124
0.00591487
0.0043513
0.00680697
0.00674623
0.00303175
0.00671966
0.00663835
0.00673669
0.00668659
0.00676392
0.00869408
0.0194854
0.00054397
0.00781331
0.000325689
0.0067316
0.00535754
0.00674595
0.00671568
0.00680096
0.00675133
0.0020298
0.00672722
0.00654117
0.00169667
0.00627875
0.0067386
0.00675694
0.00675738
0.0076465
0.00680627
0.00340623
0.00175613
0.00679865
0.00674994
0.00669504
0.00718931
0.00677752
0.00668103
0.00497161
0.00162869
0.0006551
0.00672051
0.00692813
0.00979165
0.00156921
0.00153699
0.00261246
0.00678533
0.00679116
0.00679964
0.00668115
0.00657453
0.00577239
0.00669468
0.00556528
0.00163191
0.0016834
0.00603416
0.0193026
0.00678458
0.00703555
0.00363423
0.00678086
0.00135094
0.00149401
0.00675526
0.0019623
0.00676327
0.00673498
0.000890728
0.00145251
0.00672938
0.0039776
0.0067317
0.00139742
0.00678167
0.00646134
0.00661376
0.00540887
0.000730877
0.00408788
0.000689857
0.00408753
0.00675972
0.00668914
0.00676391
0.00345396
0.00183651
0.00464337
0.00130981
0.00164007
0.00122016
0.00367394
0.00121144
0.0121846
0.00671732
0.00673903
0.00545673
0.00680512
0.00673731
0.00667413
0.00680668
0.00271825
0.00678635
0.00605693
0.00501452
0.00671615
0.00793957
0.00445195
0.00560269
0.00549623
0.00675596
0.00552128
0.00283375
0.00362026
0.00526011
0.00345442
0.00606529
0.00362838
0.00663063
0.00678873
0.00681205
0.000542205
0.00664393
0.00643649
0.00671948
0.00374841
0.00170656
0.00677558
0.00464161
0.0067238
0.00671842
0.00637929
0.00507664
0.006804
0.0067294
0.0246282
0.00677582
0.0018684
0.00594849
0.0064439
0.00667488
0.00654648
0.00190891
0.00560184
0.00120272
0.00345198
0.00255875
0.00493762
0.00121262
0.0017399
0.001037
0.00481297
0.00628549
0.00675616
0.000886419
0.000229791
0.006708
0.00676274
0.00667206
0.00666864
0.000348772
0.0071994
0.00184848
0.00229769
0.00668337
0.00614973
0.00673451
0.0065407
0.0056261
0.00479192
0.00671543
0.00672688
0.00598154
0.00670899
0.00659288
0.000415377
0.00668443
0.00192875
0.00722413
0.00469143
0.00355906
0.00635541
0.00675402
0.00327622
0.00668749
0.00674426
0.00289331
0.00674841
0.00672366
0.00955149
0.00675249
0.0138002
0.00671602
0.00672405
0.00672247
0.00677895
0.00672758
0.00228708
0.00667172
0.00668464
0.00672559
0.017949
0.000397888
0.00668809
0.00673266
0.0067023
0.00104379
0.00404514
0.00672878
0.0067135
0.0212717
0.00399072
0.00141655
0.00498597
0.00407648
0.00411268
0.0067228
0.00676635
0.00668489
0.00060971
0.00672286
0.00349352
0.00216272
0.00352962
0.00674029
0.00508631
0.00365514
0.0068076
0.00675712
0.00652646
0.0227354
0.00917771
0.00674115
0.0055639
0.00621024
0.00131239
0.0063364
0.00677677
0.00669362
0.00549565
0.00199965
0.00672251
0.00647172
0.00250277
0.00672433
0.00096887
0.00677629
0.00678502
0.0240385
0.00672501
0.00683565
0.00671555
0.0024916
0.0181251
0.000510067
0.00669942
0.00651008
0.00603715
0.00458464
0.000949956
0.00359261
2.16187e-05
0.0160144
0.00667071
0.00878293
0.00681109
0.00675549
0.00671375
0.00786902
0.00670542
0.00667501
0.00278574
0.0170612
0.00618967
0.006739
0.00684897
0.00670281
0.00362245
0.00671746
0.00667292
0.00670413
0.00674988
0.00384761
0.00674346
0.00577505
0.00672021
0.00640004
0.00636503
0.00675642
0.00379629
0.00677608
0.00456712
0.0179813
0.00668737
0.0173773
0.0163602
0.0067968
0.00557925
0.00936866
0.00679373
0.00577307
0.00274274
0.00122206
0.00130404
0.0031242
0.00421202
0.0230452
0.00679186
0.00679785
0.00384169
0.0067126
0.00423646
0.00104207
0.00576839
0.00672253
0.00671587
0.00668774
0.00679007
0.00299881
0.0173381
0.00674199
0.00677745
0.0115327
0.00674468
0.00269821
0.00155341
0.0053946
0.00283694
0.00668477
0.000533635
0.00681119
0.00136464
0.00591042
0.0051169
0.00204333
0.00678684
0.000627166
0.00671026
0.00098446
0.00114284
0.00280924
0.00427361
0.00674893
0.00616242
0.00652056
0.00672613
0.00105814
0.00065372
0.00220572
0.0013405
0.00662179
0.00674922
0.00669724
0.000451305
0.00678832
0.00363288
0.00236009
0.00691106
0.00171062
0.00209883
0.00177656
0.00448145
0.00675393
0.00697379
0.00673417
0.00672757
0.00455458
0.00251091
0.00672539
0.00674235
0.00905674
0.00671704
0.0190297
0.00642015
0.00678295
0.00434727
0.0060454
0.00453102
0.00673969
0.00667137
0.00672417
0.00769042
0.00677688
0.00702282
0.00287002
0.00149296
0.00378014
0.0058564
0.000326065
0.00173308
0.00233696
0.00329397
0.00536987
0.00290523
0.000100561
0.00671537
0.0056116
0.00645556
0.000876591
0.00589797
0.00122605
0.00297752
0.00326673
0.00682005
0.00410684
0.00673782
0.00138691
0.00686762
0.00673158
0.00397897
0.00646648
0.00642791
0.00679761
0.00671442
0.0064769
0.00309558
0.00522615
0.00540828
0.00595883
0.00409636
0.00551856
0.00672469
0.00669542
0.00102466
0.00672816
0.00546256
0.00671892
0.00678814
0.00675271
0.00681371
0.0068089
0.00679834
0.00668511
0.00317789
0.00339694
0.0141983
0.00404553
0.00365241
0.00128272
0.00117833
0.00355882
0.00391652
0.00667538
0.000457505
0.00359766
0.00125781
0.00673004
0.00659624
0.00700839
0.00673104
0.00680784
0.00685058
0.0216785
0.00626254
0.00737804
0.00217428
0.0016849
0.00400167
0.00135957
0.00679575
0.0012875
0.00244486
0.00858895
0.00679533
0.00471339
0.00680432
0.00140621
0.00678888
0.0016126
0.00671648
0.00104691
0.00672861
0.000939705
0.00546717
0.00678393
0.00657386
0.00435445
0.00674805
0.00596226
0.00266723
0.00672176
0.00680754
0.0057095
0.00668083
0.00536351
0.0187537
0.00720771
0.000544654
0.00299427
0.00680681
0.00760214
0.00675656
0.00823508
0.00673838
0.00693106
0.00667951
0.00438934
0.00679737
0.00674108
0.00348051
0.016764
0.00408456
0.00675323
0.0066987
0.00426002
0.000963941
0.00672279
0.00628784
0.00443076
0.00490117
0.000247324
0.00238374
0.000741836
0.00671097
0.00677311
0.00614088
0.00680835
0.00626117
0.000198604
0.00679423
0.00212647
0.00672925
0.0067936
0.000251006
0.00671891
0.00484312
0.00551905
0.0231147
0.000410376
0.00369736
0.00678474
0.00427614
0.00331179
0.00675434
0.00206997
0.00675267
0.00668982
0.00211939
0.00677891
0.00664322
0.000336479
0.0055907
0.00211473
0.00678309
0.00617277
0.00134674
0.00612915
0.00463603
0.00985989
0.000801347
0.00201801
0.00676318
0.0060099
0.00180799
0.00676489
0.00680158
0.00672485
0.00674795
0.00421513
0.00681165
0.00147308
0.00671528
0.00677762
0.00671566
0.00300837
0.00670298
0.00465261
0.00234554
0.00670754
0.00676864
0.00126567
0.00409815
0.00127752
0.0037954
0.00225053
0.00680253
0.00228112
0.00156114
0.00671302
0.00535312
0.00668808
0.00680539
0.00579647
0.00680013
0.0125319
0.00145689
0.00676936
0.00122553
0.00271935
0.0068071
0.00669645
0.00668208
0.00670917
0.00635202
0.00671077
0.0016814
0.0068106
0.00660253
0.00672325
0.0145038
0.00126636
0.0018937
0.00680287
0.00108288
0.00658031
0.00509821
0.00367931
0.00623538
0.00593194
0.0067451
0.0246413
0.000434045
0.00267587
0.00431546
0.00673414
0.00569048
0.00680971
0.00404561
0.00585545
0.00676095
0.0013091
0.00672639
0.00671314
0.00611186
0.00671019
0.00674826
0.00670654
0.00680354
0.00254197
0.0046814
0.00618889
0.0104353
0.00678944
0.00605571
0.000275983
0.00670797
0.000136584
0.00680265
0.00112648
0.00221785
0.00671393
0.00679685
0.00490532
0.00596508
0.0064502
0.0226219
0.00663343
0.00673179
0.00672643
0.00148068
0.0064122
0.00162652
0.00671555
0.00676042
0.00659466
0.00583049
0.00540564
0.00414854
0.00460006
0.00383863
0.00674778
0.00319142
0.00680096
0.00679975
0.00668835
0.00647833
0.00679029
0.0067938
0.00571814
0.00669061
0.00670455
0.00674048
0.00374443
2.04357e-05
0.000467437
0.00679274
0.00460621
0.00627938
0.00672273
0.0067324
0.00670713
0.0193111
0.00138285
0.00676382
0.00123247
0.0019041
0.00490547
0.0053826
0.000817863
0.00534272
0.00316956
0.00678945
0.00679976
0.00670717
0.00671187
0.00126021
0.000519423
0.00674424
0.00257605
0.00686081
0.0123302
0.00541829
0.00653183
0.0189823
0.000319652
0.00678365
0.0183569
0.00670183
0.0153043
0.00644737
0.00305002
0.000525536
0.00517392
0.00670858
0.000874764
0.0069054
0.00214755
0.00308395
0.00586281
0.00258948
0.00673605
0.0026278
0.0169865
0.00331935
0.0067246
0.00282252
0.00110995
0.0177448
0.0015957
0.00670183
0.00164186
0.00247101
0.00343263
0.0066146
0.00175315
0.00237308
0.00368564
0.00665659
0.00147268
0.00128978
0.0058838
0.00200867
0.00673158
0.00673974
0.00268347
0.00671997
0.00351098
0.00121159
0.00320232
0.00684868
0.00435654
0.017082
0.0029323
0.00674537
0.00680478
0.00262009
0.00235155
0.00515423
0.00679619
0.00632533
0.00461917
0.00657335
0.00631686
0.00672515
0.00352877
0.00553209
0.0041731
0.0146915
0.00392304
0.00637392
0.00521416
0.0067801
0.00701474
0.0062304
0.00677463
0.000505292
0.00681114
0.0057407
0.00673883
0.00671452
0.00610456
0.00679352
0.00468975
0.00181687
0.00403015
0.00670072
0.00400856
0.00654469
0.00694629
0.0043341
0.0066892
0.00679927
0.00635049
0.00675421
0.00655314
0.000135484
0.0156737
0.00167951
0.00671317
0.00671455
0.00383193
0.00671818
0.0067167
0.00680488
0.00681014
0.00679911
0.00671684
0.00675106
0.006784
0.00644819
0.00670714
0.00241883
0.00694692
0.00416569
0.0030674
0.00113918
0.00672087
0.00700518
0.0067254
0.00898504
0.00671027
0.00263036
0.00548874
0.00675837
0.00678506
0.00680582
0.00670515
0.00680742
0.00278853
0.0135231
0.00670643
0.00132626
0.00643318
0.00677833
0.0067534
0.00337727
0.000694968
0.00324245
0.00671429
0.00680793
0.00129759
0.00675558
0.00440051
0.00668813
0.0044643
0.00579038
0.00679405
0.00581589
0.0110762
0.0066944
0.00658662
0.00680815
0.000565533
0.00397242
0.00675176
0.000968738
0.00354272
0.00632759
0.000782554
0.00549392
0.00330176
0.0067343
0.00673026
0.000864773
0.00679407
0.0115802
0.0053295
0.00298352
0.0238275
0.000393779
0.00680028
0.00507961
0.00437982
0.0067475
0.00671552
0.00673263
0.0141455
0.00129812
0.00860195
0.00677753
0.00670032
0.0130379
0.00272506
0.00380221
0.00677696
0.00612127
0.00565562
0.00219605
0.00673745
0.00136333
0.0129572
4.6123e-05
0.00548322
0.00679861
0.00234726
0.00667687
0.00688935
0.0087231
7.20836e-05
0.00177593
0.00679125
0.000419695
0.0037427
0.00675395
0.00679042
0.0067153
0.0067275
0.00240784
0.00575285
0.00675203
0.00426777
0.00544265
0.00671247
0.00658718
0.000736937
0.00691775
0.00679462
0.0067661
0.00887811
0.00650566
0.00669448
0.00680463
0.0013809
0.00679288
0.0068114
0.00681048
0.00672514
0.00233332
0.00659254
0.00671262
0.00120891
0.00661378
0.00671421
0.00674453
0.00626794
0.00353764
0.00671483
0.00388304
0.00316982
0.0126967
0.00257901
0.00665528
0.00680991
0.00680062
0.00680001
0.00668212
0.00323743
0.00322156
0.00393476
0.00392005
0.00207641
0.00668844
0.0044088
0.00680534
0.00480699
0.000757354
0.00593996
0.00127233
0.00671229
0.00679993
0.00574966
0.00679581
0.013411
0.00671786
0.0104224
0.00310051
0.00379061
0.00675166
0.00676135
0.00667838
0.00672646
0.00603661
0.00669839
0.00671256
0.00107187
0.00628029
0.00659034
0.00673693
0.00667407
0.00328532
0.00582719
0.00396837
0.00526643
0.00653437
0.00097888
0.00685967
0.00457693
0.00668476
0.00338522
0.00241049
0.00311063
0.0067996
0.00524427
0.0245393
0.0011363
0.00160628
0.00905233
0.00679704
0.000737967
0.00672435
0.00510162
0.00594206
0.00572691
0.0067797
0.00667941
0.00361078
0.00632773
0.00689925
0.00638894
0.00615086
0.00606263
0.00679598
0.0177173
0.000877125
0.00253157
0.00329267
0.00291093
0.00665513
0.00425419
0.00192358
0.00104541
0.00275778
0.00181529
0.00414595
0.00436885
0.00679718
0.00674845
0.00675764
0.00749556
0.00143837
0.00670072
0.00680769
0.00678345
0.00483472
0.00646369
0.00490198
0.00682448
0.00617797
0.0158107
0.00089781
0.00614029
0.00743412
0.00627024
0.00680369
0.00574036
0.00621728
0.00673959
0.00185262
0.00670505
0.00614622
0.00666851
0.00670234
0.00640242
0.00676753
0.00672434
0.0069098
0.0068112
0.00680937
0.00671845
0.00546566
0.00681199
0.0062738
0.00615307
0.00672669
0.0102371
0.00242479
0.00671093
0.00343345
0.012422
0.00676077
0.00248459
0.00121099
0.00672543
0.00152525
0.00970591
0.0164955
0.0067733
0.0146955
0.00940839
0.00613779
0.0013918
0.00671405
0.00103238
0.00688064
0.0067078
0.00559805
0.00590149
0.00680998
0.00408119
0.00661708
0.00394065
0.00542867
0.00679441
0.00671
0.00679897
0.00193654
0.00677429
0.00434706
0.00269077
0.00243586
0.00666854
0.00679262
0.00195711
0.00671831
0.000469569
0.00139583
0.00121525
0.00582337
0.00246917
0.00674731
0.00649539
0.00118044
0.00199312
0.00667447
0.00471803
0.00982231
0.00311274
0.00674471
0.00670971
0.00639515
0.00679495
0.00610227
0.0192007
0.00680941
0.00479797
0.00315319
0.00691108
0.00600333
0.00674997
0.0012527
0.00415997
0.0014711
0.00672919
0.00656769
0.00674419
0.00670312
0.00529254
0.00675714
0.00591775
0.00671456
0.00203618
0.00762883
0.00678146
0.00685007
0.00122417
0.00461552
0.00637315
0.00679221
0.0169369
0.00224735
0.00525728
0.0067925
0.00245295
0.00418059
0.00679507
0.00671877
0.0067786
0.0067168
0.00596458
0.00408354
0.00680872
0.00674793
0.00109277
0.00660547
0.00670728
0.00500681
0.00660621
0.00127499
0.00500227
0.00673142
0.0044172
0.00202643
0.00669794
0.00680169
0.0067132
0.00395014
0.0106685
0.00455956
0.0067144
0.00223635
0.00237674
0.0025529
0.00675624
0.0067595
0.00672292
0.0029373
0.000327827
0.00935816
0.00674402
0.00670392
0.00278189
0.00673727
0.00669713
0.00680307
0.0064544
0.00531233
0.00677
0.00256641
0.00806303
0.00680854
0.000792455
0.00680065
0.00662727
0.00596794
0.00565864
0.00368219
0.00588916
0.00656621
0.00160763
0.00655545
0.00340779
0.00572295
0.00249771
0.00517097
0.00312255
0.0072692
0.00241049
0.00641391
0.00680493
0.00675374
0.00672053
0.00680765
0.00490288
0.00598842
0.00672244
0.00260442
0.00166137
0.00126746
0.000580617
0.00679286
0.00676548
0.00608271
0.00674994
0.00673631
0.00669466
0.00674435
0.00271312
0.00419496
0.0068035
0.00261508
0.00444963
0.00274259
0.00344131
0.00416364
0.00680589
0.00385454
0.00593503
0.000544928
0.00191299
0.00431948
0.00674523
0.00707382
0.000213271
0.00254015
0.00636868
0.00671861
0.0130853
0.00469085
0.00674605
0.00674212
0.00679068
0.0067311
0.00393475
0.00670311
0.00680794
0.00170689
0.00614101
0.00653479
0.00673575
0.00639073
0.00110798
0.00476223
0.00369694
0.0115875
0.00672511
0.00471081
0.0021973
0.00500171
0.00248974
0.0149458
0.00678845
0.0012896
0.00681189
0.0065161
0.00330048
0.00110542
0.00572203
0.000578359
0.00182941
0.00459388
0.00625348
0.00195272
0.00635966
0.00556488
0.00680897
0.00119081
0.00256795
0.00302394
0.00450144
0.0067143
0.00680526
0.00296068
0.00974153
0.0057391
0.000902736
0.00676406
0.00411851
0.00673877
0.00672361
0.00668499
0.00612902
0.0053878
0.00678021
0.00672802
0.00674244
0.00181612
0.00664336
0.0067994
0.00397347
0.00253877
0.00097295
0.00246255
0.00519832
0.00671279
0.00562561
0.000837929
0.00372601
0.000597912
0.00143006
0.00157789
0.0068043
0.00534185
0.00678662
0.00290235
0.00632783
0.00680223
0.00745962
0.011195
0.00680203
0.000393481
0.00502689
0.00680716
0.00141354
0.00656277
0.00119078
0.00676399
0.00439419
0.0159183
0.00678889
0.0059109
0.00252956
0.00365812
0.00182152
0.00126363
0.00204489
0.00675725
0.00673503
0.00679119
0.00680374
0.00673451
0.00331527
0.00671112
0.0146472
0.0040131
0.00648354
0.0067051
0.00680024
0.00466879
0.00671344
0.00114116
0.00210777
0.00654403
0.00322169
0.000349665
0.00477538
0.0067294
0.00295797
0.00552601
0.00605749
0.00105259
0.00674789
0.0067236
0.00672597
0.00583591
0.00679743
0.00569596
0.00669613
0.0023315
0.00542749
0.00679866
0.00670525
0.00679643
0.00183633
0.00649064
0.00670667
0.00679089
0.00173012
8.22581e-05
0.00229825
0.00671378
0.00620958
0.00229246
0.00692254
0.00672412
0.00190847
0.00159844
0.00281863
0.00671066
0.00232931
0.0020792
0.00153036
0.0059472
0.00676489
0.00200452
0.00680374
0.00664048
0.00124678
0.000429569
0.00662717
0.00671124
0.00137275
0.000599463
0.00153456
0.00238599
0.00679556
0.00672252
0.00672128
0.00670677
0.00558163
0.00680843
0.00551871
0.00669174
0.000825818
0.00673049
0.0066312
0.00673587
0.00489416
0.00563384
0.00336243
0.00443301
0.00288939
0.00679784
0.00342543
0.0146665
0.0241845
0.0121963
0.00171333
0.00679682
0.00344666
0.00360437
0.0017178
0.00579275
0.00158979
0.000219536
0.003909
0.00669084
0.00680719
0.00245989
0.00209509
0.00663088
0.00666882
0.00497347
0.00329321
0.00652152
0.00582415
0.00227034
0.00603869
0.00195441
0.00680204
0.00136904
0.00628134
0.00539373
0.00674988
0.00147185
0.00512019
0.00516223
0.00680399
0.00678161
0.00663638
0.00306805
0.00265281
0.00286497
0.00243703
0.0022438
0.00206859
0.00470086
0.00253442
0.00122127
0.00352667
0.00586953
0.00111104
0.00660866
0.00673128
0.00431831
0.00675572
0.00667315
0.00164386
0.0101009
0.00165071
0.00938032
0.00613633
0.00220246
0.00261426
0.00105201
0.00157922
0.00161542
0.0056027
0.00674663
0.00680365
0.00570199
0.0054004
0.0169862
0.00675532
0.0067858
0.00280911
0.00674734
0.0023601
0.00673574
0.00303653
0.00598676
0.00466671
0.0065665
0.00429658
0.000545723
0.00665984
0.00680648
0.00675889
0.00389362
0.00680769
0.00529124
0.00474546
0.00674941
0.0016571
0.00665317
0.00670812
0.00184382
0.00543668
0.00543769
0.00677818
0.00168096
0.00679833
0.00275424
0.00670969
0.00238565
0.000572734
0.00482354
0.0032636
0.00677909
0.00183476
0.00573323
0.00195086
0.00147118
0.0063757
0.00621706
0.0045325
0.00170196
0.0067524
0.00655316
0.00195639
0.00308526
0.00582934
0.00676472
0.00161233
0.00516665
0.00591483
0.000305286
0.00506416
0.00102404
4.88606e-05
0.0046475
0.00670977
0.00106225
0.00593175
0.0068057
0.00672048
0.00659574
0.00483106
0.00669136
0.000503985
0.00238881
0.00592984
0.00660124
0.00463553
0.000265402
0.00472178
0.00674457
0.00679242
0.00679731
0.00114315
0.00258813
0.00524362
0.00679469
0.00226201
0.00680763
0.00128978
0.00969564
0.00679756
0.0014369
0.00322019
0.00674467
0.00496783
0.0014835
0.00679348
0.00635991
0.00615389
0.00104702
0.000443326
0.0202779
0.00676096
0.00124863
0.00161333
0.00186795
0.00219172
0.00121932
0.00155497
0.00302646
0.00545349
0.00679319
0.00251834
0.00672227
0.00214513
0.015574
0.00406273
0.00471123
0.00397215
0.00539789
0.00669682
0.000619469
0.00145508
0.000531205
0.00499668
0.00138221
0.00272943
0.00679375
0.00671116
0.00409149
0.0010544
0.00680046
0.00679541
0.00176531
0.00538995
0.00670826
0.00266456
0.00328518
0.00673762
0.00295562
0.0041491
0.00668157
0.00671232
0.00620417
0.00671489
0.00476856
0.00492789
0.00673312
0.00309424
0.00566201
0.000557504
0.000835545
0.00397266
0.00669327
0.00675491
0.00680736
0.000955717
0.0051921
0.00194966
0.00671672
0.00679693
0.0178749
0.00680062
0.00142711
0.0037513
0.00443253
0.00195738
0.0067493
0.0057949
0.00474844
0.00142575
0.00670798
0.00245745
0.00554398
0.00680294
0.00679276
0.00680941
0.00618937
0.00602411
0.00680131
0.00668709
0.0032161
0.0045811
0.00519364
0.00677866
0.006695
0.00680119
0.00674133
0.00679766
0.00297611
0.00672186
0.00676616
0.00823552
0.00676175
0.000997162
0.00660677
0.00674944
0.00190292
0.00104482
0.00680207
0.00675001