/*--------------------------------*- C++ -*----------------------------------*\
| =========                 |                                                 |
| \\      /  F ield         | OpenFOAM: The Open Source CFD Toolbox           |
|  \\    /   O peration     | Version:  v2012                                 |
|   \\  /    A nd           | Website:  www.openfoam.com                      |
|    \\/     M anipulation  |                                                 |
\*---------------------------------------------------------------------------*/
FoamFile
{
    version     2.0;
    format      ascii;
    class       volVectorField;
    location    "350";
    object      U;
}
// * * * * * * * * * * * * * * * * * * * * * * * * * * * * * * * * * * * * * //

dimensions      [0 1 -1 0 0 0 0];


internalField   nonuniform List<vector> 
14033
(
(1.04428 -0.0496664 0)
(0.798787 -0.0813048 -1.84161e-21)
(1.01496 -3.72104e-05 0)
(1.01968 -0.00110361 -3.09049e-22)
(1.02 -5.01206e-05 0)
(1.02359 -0.00146533 1.68675e-21)
(0.85543 0.0608787 2.33799e-22)
(1.01735 -0.0176874 -6.82535e-22)
(1.01965 -0.00105154 6.27856e-22)
(0.805418 -0.00175041 6.22369e-21)
(1.02954 -0.00215672 0)
(1.06191 -0.00364527 0)
(1.02838 -0.00891524 5.92244e-22)
(1.02814 -0.00851719 1.01337e-21)
(1.0192 -9.29405e-05 1.46146e-24)
(1.05125 -0.00321403 0)
(1.03414 -0.00256901 -2.04113e-21)
(0.480704 -0.0840234 0)
(1.02236 -0.00468429 0)
(1.03704 0.000683385 4.48611e-21)
(1.04786 -0.00275441 5.00509e-21)
(1.06185 -0.0033527 7.28819e-21)
(1.05731 -0.027571 -1.76687e-20)
(1.02003 -5.11268e-05 1.09422e-24)
(1.02856 -0.00378032 0)
(1.0222 -0.00454163 0)
(1.06803 -0.0185239 -2.77286e-22)
(1.06587 -0.00320963 -1.45808e-20)
(1.06984 -0.0393401 6.84152e-21)
(1.06772 -0.000591198 0)
(1.03977 -0.0103708 -2.63325e-21)
(1.0166 -0.0186283 6.57584e-22)
(1.07176 -0.0170214 0)
(1.0386 -0.022031 3.18467e-21)
(1.02429 -0.0399024 1.43446e-21)
(1.0153 -0.000197403 8.48743e-23)
(0.946522 -0.0341385 -1.63748e-20)
(0.764066 -0.000656893 -7.05479e-21)
(1.02083 -9.19914e-05 -7.57256e-23)
(1.03182 -0.0052548 6.26542e-21)
(0.757479 -0.0690165 4.31281e-22)
(1.04759 -0.00205819 -7.95877e-21)
(1.02254 0.00126956 0)
(1.01798 -8.9827e-05 1.44778e-22)
(1.02446 0.0054182 4.60088e-22)
(1.02285 0.00113139 0)
(0.770991 0.00283476 1.14417e-20)
(1.02355 -0.00155869 -7.287e-22)
(1.06765 -0.024582 2.55016e-20)
(1.01464 -0.0311836 1.3777e-20)
(1.02711 -0.00305744 2.21461e-21)
(1.01564 -0.000214023 0)
(0.693692 -0.035851 -1.94915e-20)
(1.01267 -0.0536955 2.59787e-20)
(1.03438 -0.0022397 2.52019e-21)
(1.02873 -0.00867683 0)
(1.07112 -0.000989151 -2.95016e-20)
(0.600817 -0.0239921 -7.01319e-21)
(1.0385 -0.022035 -2.92721e-21)
(1.03925 -0.010301 -2.51499e-21)
(1.02305 -0.00398937 1.37427e-23)
(1.01001 -0.0324016 -4.05244e-20)
(1.05123 -0.0223546 4.39767e-21)
(1.02239 0.000611583 -5.45786e-23)
(1.01739 -0.0002526 0)
(1.02162 0.000256213 -4.90958e-22)
(1.04281 -0.0507982 0)
(1.06676 -0.00806943 -2.90206e-20)
(1.02297 -0.00119622 -3.02102e-22)
(1.0336 -0.0132072 -1.65241e-21)
(1.01741 -0.000251652 3.3604e-23)
(1.01913 0.000229579 -2.09768e-23)
(0.763126 0.00281791 -7.30693e-21)
(1.03514 0.00215759 0)
(1.05021 0.00111193 -1.04461e-20)
(1.02051 0.000271736 1.70658e-22)
(1.02452 5.03023e-05 -6.32889e-22)
(1.0336 -0.0141089 -3.40864e-21)
(0.394763 0.0120303 0)
(1.06843 -0.00152131 -1.10833e-20)
(1.0233 0.00194934 -3.43992e-22)
(0.446209 0.00397825 2.25343e-21)
(0.69273 -0.0350525 -4.02029e-20)
(1.02081 -0.000591469 -7.67411e-22)
(1.01784 -8.58192e-05 0)
(1.01881 6.83289e-05 1.0876e-22)
(1.02195 -0.00768503 0)
(1.01056 -0.0565623 -1.68356e-20)
(0.793961 0.00198695 1.15505e-20)
(1.03672 0.00125883 -8.67343e-21)
(1.01802 -0.000225131 -1.15831e-22)
(1.02296 0.00218431 0)
(1.01584 0.00706289 0)
(1.08287 -0.00388384 -2.81094e-22)
(1.02217 -0.000426326 6.09121e-22)
(0.99733 -0.0104107 0)
(1.02747 -0.00315967 0)
(1.01365 -5.32876e-05 2.08651e-22)
(0.829325 -0.035416 0)
(1.01756 -0.000317526 2.56027e-22)
(1.02171 0.000233253 6.58904e-22)
(1.0233 -0.00157812 3.84887e-22)
(1.02181 0.000116533 -1.77495e-22)
(1.02598 0.00329282 0)
(0.764197 0.0031384 1.21343e-20)
(1.06968 -0.0103844 -1.50238e-20)
(0.830789 0.00234571 0)
(1.02077 -0.000733643 0)
(1.06632 -0.00794613 1.13225e-22)
(1.0152 -0.000218378 -2.33428e-22)
(0.793723 0.00126359 0)
(1.00927 -3.98101e-05 0)
(1.01706 -0.000126197 -3.69811e-22)
(1.04859 -0.0209183 0)
(1.00615 6.21189e-06 0)
(1.0242 0.000226781 -5.62242e-22)
(1.07031 -0.00246254 2.1517e-20)
(1.02144 6.92389e-05 2.79657e-23)
(1.07998 -0.00500444 -4.38366e-20)
(1.07128 -0.0175922 0)
(1.0194 -0.000613524 0)
(1.05801 -0.00774872 3.82162e-21)
(-0.0166122 0.057215 2.6241e-20)
(1.02249 -0.00768268 -2.84138e-21)
(1.08462 -0.00894418 -1.43334e-20)
(1.01749 0.00827193 0)
(1.02046 6.64042e-05 -3.80204e-22)
(1.04336 -0.0171411 -1.94312e-22)
(0.569265 0.0116364 1.16638e-20)
(1.02425 -0.00118686 0)
(0.761792 0.00367475 6.49167e-21)
(1.01747 -7.20202e-05 1.48201e-22)
(1.02099 3.77535e-05 -4.11135e-25)
(0.948992 -0.0127867 -2.88409e-21)
(0.784991 0.00215486 0)
(1.03401 -0.0125295 -2.11373e-21)
(1.06663 -0.00354736 1.24379e-20)
(1.01671 -0.000195879 0)
(1.02441 -0.00114896 1.87947e-21)
(1.01843 0.0108228 -1.25642e-22)
(1.04118 -0.0160115 0)
(1.07769 -0.00272398 1.85364e-20)
(1.06281 -0.0120518 -6.34535e-21)
(1.05151 -0.00467678 0)
(1.0677 -0.0394687 1.06259e-20)
(1.02573 0.00529088 -7.86485e-22)
(1.01929 -0.000605551 4.39276e-23)
(1.05772 -0.0149132 0)
(0.961166 -0.0322553 5.52896e-20)
(1.0018 -0.00949086 -1.46755e-21)
(0.992224 -0.00567652 5.60711e-21)
(1.04086 -0.0157079 2.53741e-21)
(1.0169 -0.000214755 -2.68598e-22)
(1.01337 -0.0165837 2.19778e-21)
(1.02327 -0.0016287 -7.38928e-22)
(0.729632 -0.00483671 1.83775e-20)
(1.02871 0.0035361 5.80847e-23)
(1.02125 -0.000274668 5.96474e-22)
(1.02784 0.0028764 -1.24818e-21)
(1.01946 -7.72372e-05 0)
(1.02239 -0.0111141 0)
(1.0683 -0.0195802 -1.50776e-20)
(0.981313 -0.0167103 4.96488e-21)
(1.02038 -5.2505e-05 0)
(1.0485 -0.00828893 2.68094e-21)
(1.01849 -0.000265658 0)
(1.04002 -0.0153131 2.6317e-21)
(1.05605 -0.00405113 0)
(0.271866 -0.0199891 3.61922e-20)
(1.02384 -0.00456242 2.18215e-22)
(1.05154 -0.00362445 4.6747e-22)
(1.06695 -0.00378422 -1.62226e-20)
(1.06165 -0.00391184 -8.20026e-21)
(0.497778 0.0226806 -8.76474e-22)
(1.02058 0.000287656 -1.7324e-22)
(1.02374 -0.00432836 -2.4706e-22)
(1.07168 -0.0110687 1.07958e-20)
(0.611112 0.0141449 -1.17957e-20)
(1.06121 -0.00449166 0)
(1.05166 -0.00482486 -6.61962e-21)
(1.04383 -0.0441342 -4.30522e-22)
(0.593251 0.0154688 -6.01313e-21)
(1.03928 -0.00865777 4.34891e-21)
(1.02353 -0.00186417 5.01345e-22)
(1.01514 -0.000201486 -2.01917e-22)
(0.800473 0.00206212 1.11632e-20)
(0.848488 -0.0186038 0)
(1.02437 -0.000759897 0)
(0.261846 -0.0250641 0)
(0.79833 0.00230584 -1.25717e-20)
(1.07991 -0.0209978 -1.31739e-20)
(1.03966 -0.0143438 4.69215e-21)
(1.01247 -0.0172029 -1.48168e-21)
(1.02451 -0.000661619 1.28467e-21)
(1.08538 -0.0107983 0)
(0.853595 -0.0554065 5.49506e-22)
(1.0513 -0.0210504 0)
(0.595944 0.0115439 -1.43602e-20)
(1.01967 -0.00101802 -5.83994e-22)
(1.01503 -0.000111 6.17636e-22)
(1.02101 -0.00462845 -5.31402e-22)
(1.03967 -0.0140268 -5.5126e-23)
(1.01683 -0.000225714 -5.38437e-22)
(1.04549 -0.0429284 0)
(1.04031 -0.0158647 2.52569e-21)
(1.01677 -0.00018312 4.1067e-22)
(1.05746 -0.0079806 3.63633e-21)
(1.07154 -0.00123084 4.22665e-20)
(1.04782 -0.00157781 4.61858e-21)
(1.00235 -0.0185244 0)
(0.543922 0.0131142 -2.05906e-20)
(1.07053 -0.000884452 0)
(1.07718 -0.00508376 0)
(1.08529 -0.0110032 0)
(1.02029 -0.000112958 2.64055e-23)
(1.02252 -0.0106207 3.33616e-23)
(1.01718 -0.000250151 7.69939e-22)
(0.983917 0.0266453 -7.8686e-22)
(1.01403 -0.000179773 6.05264e-22)
(1.03652 -0.0237166 -1.13102e-21)
(1.0475 -0.00114284 8.48617e-21)
(1.02334 -0.000924752 0)
(1.02316 -0.000852358 -4.6644e-22)
(1.0222 -0.0076195 1.83757e-22)
(1.02157 -0.000471692 9.39206e-22)
(1.01969 0.00135451 0)
(1.05691 -0.0254306 -3.40882e-21)
(1.04051 -0.0130943 -4.93193e-21)
(1.01954 -0.000913834 5.93424e-22)
(1.02723 0.000277274 -1.80032e-23)
(1.01815 -0.000106796 -3.58605e-22)
(1.06933 -0.0109744 1.62052e-20)
(1.0234 0.000934473 0)
(1.02163 7.89217e-05 1.27794e-23)
(0.972957 0.0356706 2.1907e-21)
(0.86616 -0.0205038 2.04415e-20)
(1.06802 -0.0251166 1.58495e-20)
(1.02647 0.000930947 2.73565e-23)
(1.01943 -0.000787433 1.89634e-22)
(1.02074 -5.60811e-05 -3.35541e-23)
(-0.0254146 0.0472428 1.1984e-20)
(1.0341 -0.0130577 4.36497e-21)
(1.01816 -0.000385729 -2.22516e-22)
(1.01783 -9.54526e-05 -1.55914e-22)
(1.04028 -0.0136778 0)
(1.02644 0.000903387 -1.27583e-22)
(0.762029 0.00254935 -2.56334e-20)
(0.47754 0.0187601 2.76276e-20)
(1.02182 -0.00697617 -1.51264e-21)
(1.02574 -0.00375568 4.5711e-22)
(1.022 -0.000843836 -6.70912e-22)
(0.550486 0.0141671 1.08501e-21)
(1.02632 -0.000706276 1.28264e-22)
(1.07726 -0.00493795 -1.66999e-20)
(1.01953 -0.000895555 -6.57538e-22)
(0.873987 -0.0995398 -4.37796e-23)
(1.02084 -2.69409e-05 -8.97921e-22)
(1.02376 -0.00556443 0)
(1.02592 -0.000951848 0)
(1.0732 -0.0403413 0)
(1.01575 -9.58874e-05 1.35412e-23)
(0.591757 -0.0788054 0)
(1.04065 -0.0125187 3.81731e-22)
(1.03577 -0.0229089 -9.84611e-22)
(1.04022 -0.00673252 2.04961e-21)
(1.01407 0.0198122 -1.1148e-21)
(1.02315 0.000736078 2.14834e-22)
(1.06792 -0.0015158 0)
(1.02114 0.0050043 8.2953e-22)
(0.608637 0.0113155 2.17742e-20)
(1.03543 0.00143962 -2.6156e-21)
(0.906414 -0.0186807 2.33252e-20)
(1.01815 -9.84362e-05 0)
(1.05001 -0.0170523 -1.11618e-22)
(1.0807 -0.0314012 -2.19642e-20)
(1.01934 -0.000727609 0)
(1.01808 -0.000110522 4.05394e-22)
(1.0661 -0.00340876 3.86428e-20)
(1.02145 -0.00687021 -7.63682e-22)
(1.07545 -0.0441654 0)
(1.07057 -0.0105437 8.25811e-21)
(1.02038 -5.78938e-05 -4.17505e-22)
(1.03119 -0.0424337 5.88927e-22)
(1.05027 -0.0014387 0)
(0.33066 -0.0366935 2.17621e-20)
(0.983255 -0.00948415 0)
(0.752421 0.00315629 -4.07737e-20)
(1.02631 -0.000769731 0)
(0.512619 -0.0194332 0)
(1.08056 -0.019278 2.92571e-20)
(1.01651 0.0113882 -2.73623e-21)
(1.06093 -0.00503613 2.03632e-20)
(1.06209 -0.0115088 -1.8372e-20)
(1.02931 -0.0420253 -1.856e-22)
(1.02384 -0.00408007 0)
(1.02443 0.000834279 3.40059e-22)
(1.02349 -0.00110473 0)
(1.01943 -0.000806006 6.41353e-22)
(1.02407 0.00077392 0)
(1.01905 -0.00544953 0)
(1.02329 -0.000969121 0)
(1.05255 -0.055679 0)
(0.848419 -0.0980844 0)
(1.03735 6.92566e-05 0)
(1.03502 -0.0224085 8.66078e-22)
(1.0401 0.0054374 2.62929e-22)
(1.02713 0.000819271 0)
(1.02331 -0.0015492 0)
(0.788357 0.00194482 1.62731e-20)
(1.03228 -0.00301172 3.30709e-21)
(1.06649 -0.00438861 1.55665e-20)
(1.02075 -2.61912e-05 4.50683e-22)
(1.06502 -0.0276281 1.96376e-20)
(1.06335 -0.01123 -2.24909e-21)
(1.07131 -0.0372948 2.55058e-20)
(1.04195 -0.00165713 0)
(1.01711 -0.000253821 1.38999e-22)
(1.03455 -0.0195778 -4.06898e-21)
(1.02409 -0.0154093 -6.95445e-22)
(0.557733 0.0137974 0)
(0.789445 -0.0831064 7.0238e-21)
(1.06859 -0.0111576 3.02864e-20)
(1.03674 -0.0146219 4.74088e-21)
(1.02501 -0.00510681 4.96598e-22)
(0.999173 -0.0223287 0)
(0.954337 -0.0567999 0)
(1.03784 0.000238427 3.52557e-21)
(1.02158 0.000288611 -4.16814e-22)
(0.81049 0.00204424 -1.2028e-20)
(1.05374 -0.0203913 0)
(1.02474 -0.0160072 2.25868e-22)
(0.462713 0.0352604 5.14563e-22)
(0.736165 -0.0429157 2.49279e-20)
(1.04853 -0.00801962 -8.55281e-22)
(1.01915 -0.000128653 -6.17347e-23)
(0.960067 -0.0151835 -1.61766e-21)
(1.06664 -0.00340943 -1.72181e-20)
(1.01877 -0.00504817 -1.10563e-21)
(0.895806 -0.0132732 0)
(1.03409 -0.000165333 -6.75782e-21)
(0.565174 0.0132627 -1.95294e-20)
(1.06289 -0.016784 9.51829e-21)
(1.0208 -2.55864e-05 0)
(1.03365 -0.000476813 6.2021e-21)
(1.01376 -0.00366509 1.53261e-21)
(1.02743 -0.00535096 1.19663e-22)
(1.05741 -0.00368986 1.6068e-20)
(1.02278 -0.00143928 -3.78038e-22)
(0.807596 -0.0654518 0)
(0.852719 0.0493032 1.40238e-22)
(1.02337 -0.00115434 0)
(1.02682 -0.00414753 0)
(0.792371 0.00191604 -1.13215e-21)
(1.05375 -0.0212057 9.48936e-21)
(1.02099 -0.00411539 7.77525e-22)
(1.02061 -0.000107711 0)
(1.02748 0.00103605 0)
(0.772826 -0.024165 0)
(1.01983 0.000929334 -2.35842e-22)
(1.02704 0.00404195 1.42198e-21)
(1.02108 -0.00426619 0)
(1.04428 -0.000528495 4.63481e-22)
(-0.0200151 0.0529581 1.12758e-20)
(1.02113 -0.00890688 -1.36073e-21)
(1.01829 7.01986e-05 -2.21829e-22)
(1.02966 -0.0296213 3.53722e-22)
(1.04374 -0.00437691 -2.28815e-22)
(1.02332 0.00154051 0)
(1.03493 -0.00634432 0)
(1.02324 0.000891851 0)
(1.02076 0.00361352 1.93639e-22)
(1.02309 0.000702903 -4.04077e-22)
(1.00527 -3.39059e-05 2.51015e-22)
(1.02436 -0.0013307 0)
(1.06647 -0.00465506 -1.55132e-20)
(0.530501 0.025479 -5.32954e-22)
(1.03585 -0.00564058 2.98256e-21)
(1.04299 0.00346206 0)
(1.00256 -0.0520888 2.29815e-21)
(1.01914 -8.96366e-05 -9.03083e-23)
(1.02813 -0.000485733 0)
(1.00375 -0.0222219 -4.4131e-21)
(1.02399 -0.00554504 -3.09491e-23)
(1.01268 -0.0130265 -1.29705e-21)
(0.938093 -0.0600172 -1.60693e-20)
(1.02042 -0.00151753 8.27403e-24)
(0.827003 -0.00015427 0)
(1.02576 0.00119106 1.43378e-22)
(1.05065 -0.00222602 -2.69152e-21)
(1.06488 -0.00640954 -1.11488e-20)
(1.02359 -0.00142089 -4.49124e-22)
(0.579265 0.0137775 0)
(1.04159 0.00184726 4.98167e-21)
(1.02238 -0.0102359 -1.1909e-21)
(1.04203 -0.0207 0)
(0.41862 0.0378142 0)
(1.02899 -0.0324451 -9.46749e-22)
(0.61449 -0.00175684 2.37235e-20)
(1.05718 -0.0319191 -1.49585e-20)
(1.0238 0.000613029 0)
(1.05669 -0.0169762 0)
(1.02377 -0.00576483 0)
(1.02081 0.000152537 -3.81762e-22)
(1.02537 -0.0020373 3.58001e-23)
(1.00645 -0.0240502 4.52841e-21)
(1.02175 -0.000618529 -5.39001e-22)
(1.03299 -0.020478 -2.84579e-22)
(1.02083 -7.73423e-05 6.67626e-23)
(1.0242 -0.00591269 9.3657e-23)
(1.08481 -0.00755874 -2.97907e-22)
(0.753635 -0.00733522 -3.37322e-22)
(1.07057 -0.00262278 -1.09475e-20)
(1.01509 -0.000162766 7.63051e-22)
(0.616088 -0.0308295 3.25898e-21)
(1.02056 0.00317101 0)
(1.02667 -0.00624143 6.05e-22)
(1.03853 -0.000648614 -2.38906e-23)
(1.02768 0.00145351 3.80508e-22)
(1.02391 -0.00430277 0)
(-0.0170854 0.0524739 -4.68049e-20)
(1.04122 -0.017091 -2.83778e-21)
(1.06778 -0.0280811 0)
(1.05612 -0.00706523 5.24518e-21)
(1.01898 0.000246575 0)
(1.01771 -0.00034858 1.89191e-22)
(1.02412 0.000522664 0)
(1.03331 -0.0210872 -4.19383e-22)
(1.0192 -9.16916e-05 -1.25117e-23)
(1.04929 -0.0179958 0)
(1.0222 -0.00766688 0)
(1.00946 -0.0135717 1.41693e-21)
(1.03151 -0.00477049 1.05749e-21)
(1.03901 -0.0125131 4.1019e-21)
(1.02484 -0.00334503 2.70941e-22)
(1.03656 -0.00437505 5.2885e-23)
(1.02107 -0.00370785 0)
(1.03517 -0.00983325 -2.81561e-21)
(1.02255 -0.00148232 0)
(1.03559 -0.0323078 4.86026e-21)
(0.884446 0.0581107 -7.02052e-22)
(1.07431 -0.0391764 -1.65947e-20)
(1.02572 0.00127145 1.80278e-22)
(1.02646 -0.0041457 0)
(1.01257 -4.62638e-05 0)
(1.02137 -0.00917771 -2.61718e-21)
(1.01712 -0.000257977 4.9147e-22)
(1.05725 -0.00284057 -5.74173e-21)
(1.02469 -0.0194293 0)
(0.88473 0.0573872 -7.80965e-22)
(1.0206 -0.00153539 6.13909e-22)
(0.774593 0.0011942 0)
(1.02295 0.00432378 -3.59812e-22)
(1.01457 -0.00018571 -2.71946e-22)
(1.06788 0.0224759 -1.34133e-21)
(1.00579 2.50039e-05 2.44281e-22)
(1.07794 -0.0215582 0)
(1.05342 0.0427637 2.5031e-22)
(1.02137 -0.00225288 -3.48391e-23)
(1.0191 -8.99876e-05 0)
(1.05161 -0.0118434 -1.34942e-20)
(1.03163 -0.00520595 -4.81254e-21)
(0.774064 0.00238721 -3.59952e-21)
(1.06941 -0.0476408 0)
(1.06986 -0.000463756 -9.77173e-21)
(1.01907 -9.54508e-05 2.56372e-22)
(1.02028 -0.00144133 0)
(1.02372 -0.0544061 -2.58353e-21)
(1.01446 -0.000189351 -1.73232e-22)
(1.02674 -0.000447524 -1.14061e-22)
(1.07584 -0.0427955 0)
(1.03531 -0.0102794 0)
(1.04936 -0.0186969 -8.99877e-21)
(1.02314 0.000386917 -1.7001e-21)
(1.0229 0.00221249 -4.03833e-22)
(1.03061 -0.000205382 0)
(0.642015 -0.00340896 0)
(1.02107 -0.00691741 0)
(1.06952 -0.000498745 1.58199e-20)
(1.02249 -0.00976596 -6.35229e-23)
(1.07511 -0.0455915 0)
(1.02345 0.000150303 3.77123e-22)
(0.808342 0.00173306 5.20898e-21)
(1.02264 0.00196744 0)
(0.799416 -0.0597348 -5.81983e-22)
(0.786904 0.00317143 1.27558e-20)
(1.02241 0.000296282 2.59807e-22)
(0.572003 -0.0358194 3.42325e-22)
(1.01714 -0.000288435 -1.21626e-21)
(1.06599 -0.00839294 7.31312e-21)
(1.02041 -5.71809e-05 2.66336e-22)
(1.03034 0.00011808 6.41248e-21)
(0.513539 -0.0370354 4.44707e-20)
(0.585412 -0.0530842 2.39904e-20)
(1.06123 -0.00481364 -2.22291e-20)
(1.02289 0.000403057 -4.0716e-22)
(1.03568 -0.00517097 0)
(1.06637 -0.0031036 -8.27968e-21)
(0.821391 0.0173418 1.77435e-21)
(1.03947 -0.00942656 0)
(0.996287 -0.0208835 4.76957e-21)
(1.02742 0.00119591 0)
(1.00867 -0.0117097 -2.84224e-21)
(1.07859 -0.0204944 0)
(0.95257 0.00443324 -4.70299e-22)
(1.05676 -0.0296994 0)
(1.02055 4.88196e-05 2.47006e-22)
(1.0181 -0.000404538 1.52823e-22)
(0.988191 -0.0589997 1.80348e-21)
(1.02124 -0.00214473 0)
(1.06461 -0.0207252 1.80223e-20)
(1.02168 0.000461327 0)
(1.01766 -0.00029138 8.29827e-22)
(0.799419 0.00158798 0)
(1.02729 0.00040136 2.0916e-22)
(1.02145 -0.00722396 1.60869e-21)
(1.03437 -0.0118496 0)
(1.05825 -0.0159679 0)
(1.02052 0.000300702 -1.65113e-22)
(0.823268 -0.0708205 -2.68498e-21)
(0.856197 0.0269457 8.4536e-21)
(1.02217 0.000395654 4.23981e-22)
(1.03869 -0.0296645 0)
(1.02203 0.000342556 -4.11368e-22)
(1.02353 -0.00567138 1.23748e-22)
(1.02217 0.00427392 0)
(1.03447 -0.00636151 0)
(1.03203 -0.0139801 0)
(1.02251 0.00160358 0)
(1.02991 -3.11335e-05 -4.33227e-21)
(1.02486 -0.0061207 0)
(1.03897 -0.0149324 0)
(1.02188 -0.00750987 3.77656e-22)
(0.755629 -0.0220194 0)
(1.02169 0.000311978 -9.53417e-22)
(1.01322 -0.00011514 -7.24572e-22)
(1.02421 -0.00703778 -1.74577e-23)
(1.02301 0.000269199 1.0721e-21)
(1.01914 -0.000306006 4.23404e-22)
(1.01912 -0.000328275 2.23052e-22)
(1.07208 -0.0104019 -3.54234e-20)
(1.03531 -0.0232293 -1.49772e-21)
(1.08071 -0.032208 1.03436e-20)
(1.01908 -0.000128104 0)
(1.02237 0.00612014 0)
(1.03573 -0.0310454 0)
(1.04045 -0.00639589 0)
(0.99703 0.00165842 0)
(1.02274 0.000599568 -4.92952e-23)
(1.07642 -0.00365213 -1.56601e-20)
(1.02325 -0.0161973 6.65584e-22)
(1.02517 -0.00166502 0)
(0.585625 0.0107159 -1.41032e-20)
(1.02083 1.16948e-05 6.29297e-24)
(1.02285 0.000715064 4.42932e-22)
(1 -0.00404121 0)
(1.06623 -0.0277863 -3.09713e-20)
(1.02172 0.000313676 2.3347e-23)
(1.03947 -0.0130912 0)
(1.05571 -0.00645791 0)
(0.928339 -0.0201792 -4.21907e-20)
(1.03775 -0.0204794 4.28102e-21)
(0.784285 0.00315771 1.09036e-21)
(1.04981 -0.0106485 -6.02051e-21)
(1.0357 0.00402262 -5.41174e-21)
(1.04792 -0.00624188 0)
(1.01944 0.0015537 1.93157e-23)
(1.02789 -0.0318394 -1.49502e-21)
(1.03445 -0.0123319 0)
(1.01858 0.000129058 -1.89701e-22)
(1.02056 -0.00131778 -1.22097e-21)
(1.0789 -0.00360771 0)
(1.00866 0.00267812 0)
(1.08398 -0.0271965 -3.73104e-22)
(1.0191 -0.000307705 -5.22703e-22)
(0.532895 -0.0554151 -2.07124e-20)
(1.02062 -0.00183822 -5.25429e-22)
(0.34967 -0.0307435 -3.49576e-20)
(0.608636 0.00913005 0)
(1.04222 0.00271327 0)
(0.924012 -0.0173431 2.1135e-20)
(1.04796 -0.00633669 0)
(1.03249 -0.0101653 -2.84388e-21)
(1.02351 0.000810677 3.39961e-22)
(1.02068 0.000163206 5.12525e-22)
(1.02098 0.000302739 0)
(1.07019 -0.0310158 -1.4514e-20)
(1.03041 -0.00863175 0)
(1.0679 -0.0234847 6.85977e-21)
(1.02022 0.000215084 1.58387e-22)
(1.02053 -0.00719062 0)
(0.877356 -0.0819633 0)
(1.04143 0.00171926 0)
(1.01403 -7.10303e-06 0)
(1.03531 -0.0219131 5.94906e-22)
(1.0247 -0.00732047 0)
(1.02056 -0.00183533 4.99771e-22)
(1.02144 7.87809e-05 -1.33491e-24)
(1.05252 0.00466184 0)
(1.01292 -2.1817e-05 0)
(1.0315 -0.0138268 1.03144e-21)
(1.02136 -0.00028718 0)
(1.02382 0.000971741 2.23437e-23)
(1.02284 -0.0153946 0)
(0.8042 -0.0416031 2.44479e-21)
(1.04744 -0.00014487 -8.30577e-21)
(0.452724 -0.00367287 -1.08036e-20)
(0.866211 -0.0635257 1.57476e-20)
(0.779001 -0.00131339 -4.30149e-20)
(1.06522 -0.00875821 0)
(1.02769 -0.0263366 -3.40416e-23)
(1.00003 0.00165646 -1.03699e-21)
(1.0014 -0.00812108 0)
(1.03036 -0.00828184 0)
(1.02315 0.000283881 -1.31362e-21)
(0.781985 -0.0237038 2.14904e-21)
(1.02051 8.91314e-05 0)
(1.02529 -0.00187988 0)
(1.02222 -0.00428786 4.95448e-22)
(0.71004 -0.0197503 -1.32546e-20)
(0.565889 0.0143766 -1.87049e-20)
(0.602358 0.014377 5.17939e-21)
(1.01771 -0.000315609 0)
(1.0226 -0.00747939 1.92174e-21)
(1.04778 -0.000553249 4.54892e-21)
(1.02528 0.00417506 -1.15858e-22)
(1.05568 -0.00374395 -2.00788e-20)
(1.02341 -0.0231133 1.62913e-22)
(1.04266 -0.0258777 0)
(1.03499 -0.0229217 1.7215e-22)
(1.05896 -0.0030068 2.98419e-20)
(1.01839 -6.60151e-05 -2.0819e-22)
(1.0232 -0.00150736 0)
(1.01825 -5.74372e-05 0)
(1.06863 -0.00170425 1.32453e-20)
(1.03294 -0.00961045 -1.78843e-21)
(1.01764 -0.029185 0)
(1.01975 -0.000131719 3.74776e-23)
(1.03204 -0.0100048 1.0725e-22)
(1.06674 -0.0232303 -2.74492e-20)
(1.02085 0.000309435 -7.65811e-23)
(1.06421 -0.0197602 -2.41614e-20)
(1.02497 -0.00332164 -9.86506e-22)
(1.02226 -0.00335918 -2.28879e-22)
(1.07229 0.00291349 -8.45535e-21)
(1.06825 -0.00568401 9.14651e-21)
(0.848827 -0.00113296 0)
(1.06555 -0.00826159 -7.19527e-21)
(1.01747 -0.000312913 -2.82018e-22)
(1.02039 -6.44113e-05 2.54479e-22)
(1.02496 0.0065425 -1.72596e-22)
(1.05078 6.1225e-05 -5.5587e-21)
(1.03504 -0.0223033 -7.92553e-22)
(1.03463 0.00156323 0)
(1.02107 -0.00746902 0)
(1.02112 -0.0154809 -7.17767e-22)
(0.998755 0.0055455 3.11782e-21)
(1.01635 -7.34304e-05 -1.936e-22)
(1.02044 -0.000889658 2.38016e-23)
(0.704554 -0.0402177 -4.37854e-20)
(1.02237 0.000472632 -3.92395e-22)
(1.0203 -0.000107667 -6.63501e-23)
(1.02342 -0.000122329 8.09038e-22)
(1.02926 -0.0378557 0)
(-0.0313521 0.0413668 0)
(1.0352 0.00203478 -4.02107e-21)
(1.08571 -0.013008 0)
(1.03238 0.00473072 -9.92973e-24)
(1.02366 -0.0393514 1.79589e-22)
(1.02492 -0.00141244 0)
(1.02334 0.000190697 -3.16122e-24)
(1.03201 0.00189146 -2.79713e-23)
(0.44439 -0.0815551 0)
(1.02547 -0.0293998 1.36983e-21)
(1.03242 -0.00939149 1.34344e-21)
(1.02113 -0.00385297 -7.06754e-22)
(1.02158 -0.00038116 5.23576e-22)
(1.02058 -0.0018696 4.07831e-22)
(1.05 -0.051914 3.30845e-21)
(1.03499 -0.0222151 -6.87404e-22)
(1.02757 0.00282901 3.77835e-22)
(1.08458 -0.00905754 3.14676e-20)
(1.02674 -0.0446686 -7.02079e-22)
(1.01954 -7.99312e-05 0)
(1.00363 -0.00649852 0)
(1.07191 -0.0476956 1.78439e-20)
(1.02819 -0.000414589 0)
(1.02795 0.00290523 -5.0324e-21)
(1.05911 0.00441127 0)
(1.06808 -0.0062223 -8.70706e-21)
(1.02253 0.000560171 0)
(0.763421 0.00119598 0)
(1.01922 -0.0234558 5.14486e-22)
(0.97714 -0.0138689 -5.89818e-21)
(1.04926 -0.0164841 -3.1963e-21)
(1.03432 -0.0128168 0)
(0.985948 -0.0194092 2.19255e-20)
(0.583055 0.0140099 -3.94683e-20)
(1.07058 -0.00212472 0)
(1.01982 -0.000200837 -9.41899e-22)
(1.02027 0.000227285 0)
(0.0220286 0.0150061 3.04444e-21)
(1.03134 -0.0248548 3.9917e-22)
(1.06469 -0.0085379 -1.28218e-20)
(1.03247 -0.00499406 -2.94549e-21)
(1.04379 -0.000973706 -7.02981e-21)
(1.02769 -0.00582656 2.84818e-22)
(1.02221 -0.000695477 -1.18416e-21)
(0.781929 0.0667832 3.18963e-21)
(1.02772 -0.0169082 -2.40707e-22)
(1.02126 -0.0146014 0)
(1.08054 -0.0172119 -2.92987e-20)
(1.02174 -0.00069204 1.02824e-21)
(1.01637 -0.000206229 -5.48027e-22)
(1.01951 -0.000231225 1.45294e-22)
(1.0855 -0.0130757 0)
(1.04194 -0.0169642 -1.03595e-20)
(1.03677 -0.0141007 0)
(1.01776 -0.000219324 -1.36498e-23)
(1.01729 -0.000239815 -1.34598e-21)
(1.04778 -0.00274038 0)
(1.0267 -0.00298563 -5.19869e-22)
(1.04467 -0.0397693 7.01537e-21)
(1.05849 -0.00347131 -1.58323e-20)
(1.01938 -0.000222957 0)
(0.901015 -0.0644768 -1.56006e-20)
(1.01365 -0.000120042 3.56448e-22)
(1.04595 -0.0394672 0)
(1.0566 -0.00374907 5.35355e-21)
(1.02372 0.00474886 -1.25209e-22)
(1.02654 -0.00111821 0)
(1.01761 -0.000321966 1.94549e-24)
(1.0735 -0.00711293 -1.26451e-20)
(1.03029 0.00524683 4.51578e-23)
(1.03369 -0.0217503 2.10561e-22)
(1.03625 0.00377862 2.78307e-21)
(1.0339 -0.0198242 0)
(0.933195 -0.0302671 5.38344e-21)
(1.02067 -0.00158082 -1.11973e-22)
(0.723904 -0.0205282 0)
(1.03521 -0.02223 0)
(0.835616 -0.0303583 9.77531e-21)
(1.04201 -0.00474526 0)
(1.02465 -0.00333358 -1.69944e-22)
(1.05796 0.00472484 0)
(0.636712 0.0129984 -2.7738e-20)
(1.02364 -0.00643303 -2.9228e-22)
(1.02311 0.00637088 3.21935e-24)
(1.01895 5.96186e-05 1.46148e-22)
(0.596522 0.0130505 5.39381e-21)
(1.05371 -0.0587748 -1.61151e-20)
(1.03521 -0.0225151 1.04072e-21)
(1.02292 0.000929752 7.22567e-24)
(1.0205 -0.00149968 1.93708e-23)
(1.0311 -0.0060969 3.59315e-22)
(1.04326 -0.025121 0)
(0.575054 0.014886 1.11974e-20)
(1.01675 -9.30438e-05 1.46442e-22)
(1.03172 -0.0103865 -9.13277e-22)
(0.774019 0.00214768 2.86951e-21)
(0.910212 -0.0215956 4.31943e-20)
(1.02142 0.000201665 1.07138e-22)
(1.03583 -0.0210314 0)
(0.997577 -0.0135999 -4.96513e-21)
(1.03156 -0.0156884 -3.14092e-21)
(1.02306 0.00125274 -1.92022e-22)
(1.02216 0.00169851 0)
(0.776235 -0.000303771 1.49167e-20)
(1.01761 -0.000324441 1.93319e-22)
(1.03228 -0.00499009 -1.38844e-21)
(1.06173 -0.0148885 0)
(1.02055 -0.00125181 -5.33272e-22)
(1.02332 0.00187844 -3.91195e-23)
(1.03915 -0.0143196 0)
(1.00479 -0.0255197 8.40639e-22)
(1.01075 -0.000110242 5.56942e-22)
(1.04831 -0.0113037 1.98382e-20)
(1.07091 -0.0367627 -4.01055e-20)
(1.02593 -0.0302564 4.17338e-21)
(1.03521 -0.000541025 3.31781e-22)
(1.02085 -0.00492993 6.93636e-22)
(1.04406 -0.000593082 -7.61157e-21)
(1.03201 -0.00250213 -1.35226e-21)
(0.623096 0.0153231 2.78599e-20)
(1.00793 -4.94903e-05 3.17071e-23)
(1.02061 -0.0018787 1.05167e-21)
(1.02062 0.000199618 0)
(0.910579 -0.0124856 0)
(1.02159 -0.000395167 2.59782e-22)
(1.0012 -0.00758889 0)
(1.01024 3.03929e-06 7.30756e-23)
(0.79243 -0.0336596 0)
(1.03183 -0.0331137 0)
(1.02856 0.0045599 -1.15236e-22)
(1.03575 -0.0330366 4.58339e-21)
(0.851006 -0.037527 3.0538e-20)
(1.02576 -0.0102616 0)
(1.07084 -0.0114196 -2.82163e-20)
(0.152113 -0.0180502 0)
(1.06935 -0.00364188 -1.21099e-20)
(1.07143 -0.0310776 -1.62261e-20)
(1.06292 -0.0171674 -5.82515e-21)
(0.565677 0.0130753 0)
(1.04678 -0.000211127 8.17339e-21)
(1.06781 -0.000218597 0)
(1.03477 -0.0304358 -3.59769e-21)
(0.35701 5.32827e-05 0)
(1.02036 -0.0010201 2.09711e-22)
(0.719874 -0.00598887 0)
(1.02702 -0.0168421 1.79179e-22)
(1.03075 -0.00603536 0)
(1.03575 -0.00580181 4.86543e-23)
(1.02452 -0.00713866 1.47915e-23)
(1.02242 -0.00422814 -5.44349e-22)
(1.06108 -0.0131737 2.00332e-20)
(1.02986 -0.00974753 2.06454e-21)
(1.02552 0.0039901 0)
(1.02466 -0.00615267 0)
(1.0424 -0.0279772 -9.77105e-21)
(0.924187 -0.0559821 6.23118e-22)
(1.06521 -0.00590444 2.39972e-20)
(1.02251 -0.00802708 7.18307e-22)
(1.01478 -8.80094e-05 0)
(1.02139 -0.000347129 -3.01456e-22)
(1.02646 -0.00116339 -3.12193e-21)
(1.07256 -0.0228803 -1.82551e-21)
(1.03337 -0.0214136 0)
(1.04945 -0.0104348 0)
(1.02188 0.000267056 -1.14034e-22)
(1.03538 -0.00912265 2.45778e-21)
(1.03267 -0.0326802 0)
(1.02102 0.000414921 3.25936e-22)
(1.01959 -0.0236245 5.91376e-22)
(0.512542 -0.0469657 2.74707e-20)
(1.02263 0.000362691 0)
(1.01365 -6.53545e-05 1.13009e-22)
(1.02975 -0.0313621 -1.68794e-22)
(-0.024075 0.0610116 -3.36044e-20)
(1.02509 -0.00155525 0)
(0.956797 -0.0122392 -2.60386e-20)
(1.02011 -0.000118064 0)
(1.02144 -0.00839418 1.98632e-21)
(1.02083 -4.0385e-05 3.39248e-23)
(1.0172 -0.000307105 0)
(0.778023 -0.0443062 -5.02311e-20)
(1.06158 -0.0120256 1.77316e-20)
(1.04901 -0.0115998 -1.1029e-20)
(1.03335 -0.00268529 -6.17953e-21)
(1.01721 -0.000180234 -2.69233e-22)
(1.02234 -0.00473181 4.60459e-22)
(1.02116 0.000415754 -2.58233e-22)
(1.0355 -0.00612227 0)
(1.01727 -0.000243533 2.78733e-22)
(1.02187 -0.00714263 1.14267e-21)
(-0.0152918 0.0575393 -3.01042e-20)
(1.01967 -0.000124224 0)
(1.02536 -0.0101299 0)
(1.02736 -0.0059805 -3.33425e-22)
(1.02978 -0.00940743 -9.76766e-22)
(1.02218 0.000620583 2.30429e-22)
(1.06573 -0.00547115 4.66103e-21)
(1.02442 -0.0057939 0)
(1.05203 -0.00290478 0)
(1.01971 0.00170555 0)
(1.05683 -0.0269393 1.79739e-20)
(1.02407 -0.0068059 -1.49786e-23)
(0.889527 0.00667416 -5.29487e-23)
(1.02635 -0.00601082 -9.0666e-22)
(1.05263 -0.0318238 0)
(1.03524 -0.00647443 -5.86456e-21)
(0.771355 -0.0355293 -1.45598e-20)
(1.03533 -0.00372571 0)
(1.01797 -0.000119901 0)
(1.02206 0.00132312 6.08781e-22)
(-0.0232413 0.0420752 -1.69356e-20)
(1.03577 0.0029646 -5.00195e-21)
(1.04346 -0.0152133 4.48054e-21)
(1.07037 -0.0287227 0)
(0.793391 -0.0183892 -2.56572e-20)
(1.06381 0.00428037 0)
(1.06462 -0.0416996 3.39562e-20)
(1.0203 -0.00103063 -4.12542e-22)
(1.04925 -0.0159419 -7.26875e-21)
(0.770748 -0.00128594 4.4497e-20)
(1.05688 -0.0153288 -3.31309e-21)
(1.05156 -0.00281778 7.47366e-21)
(0.578801 0.0156878 0)
(1.0245 -0.000893485 0)
(1.02077 -6.02607e-05 -6.25825e-23)
(1.02046 0.00029176 0)
(1.03583 0.0026658 2.25354e-21)
(1.02798 -0.003151 3.17449e-21)
(1.04748 -0.00473848 0)
(1.01934 -5.25723e-05 0)
(1.02819 -0.00814682 -1.01066e-21)
(1.04999 -0.0174396 7.52969e-21)
(1.02486 -0.00268594 -2.10648e-21)
(1.02194 -0.00838003 -1.11584e-21)
(1.02609 -0.00136596 1.01266e-21)
(0.819611 -0.0170597 0)
(1.01907 -9.75937e-05 1.81565e-23)
(1.02014 -0.00184922 0)
(0.78503 0.00190472 2.76023e-21)
(0.529063 0.0136266 7.56599e-21)
(1.0318 0.00136919 3.77888e-23)
(1.02681 0.0003331 0)
(1.02029 -3.31177e-05 2.86781e-24)
(0.818204 0.0418555 0)
(0.836618 0.00170318 0)
(1.03479 -0.0116451 2.70653e-21)
(1.02195 0.00150367 -5.38748e-22)
(1.0273 -0.00522573 0)
(1.02757 0.00480098 6.85043e-23)
(0.964893 -0.00179671 2.76854e-22)
(1.03218 -0.0143116 0)
(1.03719 -0.0150644 -8.01082e-21)
(1.03828 -0.0216975 -1.2762e-21)
(1.027 0.00856248 -3.64573e-22)
(1.02324 0.000317287 2.15579e-21)
(0.813716 -0.085614 -1.22238e-21)
(1.02436 -0.00743119 9.78774e-23)
(1.01933 0.000126836 1.50516e-22)
(1.07819 -0.00659953 3.65177e-21)
(1.04439 -0.0105522 0)
(1.03286 -0.00272 9.70111e-23)
(0.980951 -0.0306903 1.99433e-21)
(1.07404 -0.00793674 6.47317e-21)
(1.0352 -0.0224752 7.12558e-22)
(1.02446 -0.00128121 0)
(1.03236 0.00503833 3.40371e-24)
(1.03054 -0.0243333 -3.06285e-22)
(1.01688 -0.000256381 1.71356e-22)
(1.03123 -0.00230341 -2.51241e-21)
(0.655372 -0.0530739 -5.13305e-21)
(1.02014 -0.00171096 0)
(1.0693 -0.00315669 -1.5801e-20)
(1.02274 0.000324153 0)
(1.0247 -0.0013362 0)
(1.0195 0.000163141 -1.45043e-22)
(1.02359 0.00171522 0)
(1.0228 0.000285868 0)
(1.07029 -0.0175867 0)