/*--------------------------------*- C++ -*----------------------------------*\
| =========                 |                                                 |
| \\      /  F ield         | OpenFOAM: The Open Source CFD Toolbox           |
|  \\    /   O peration     | Version:  v2012                                 |
|   \\  /    A nd           | Website:  www.openfoam.com                      |
|    \\/     M anipulation  |                                                 |
\*---------------------------------------------------------------------------*/
FoamFile
{
    version     2.0;
    format      ascii;
    class       volScalarField;
    location    "50";
    object      ddt0(k);
}
// * * * * * * * * * * * * * * * * * * * * * * * * * * * * * * * * * * * * * //

dimensions      [0 2 -3 0 0 0 0];


internalField   nonuniform List<scalar> 
13917
(
1.49523e-06
-1.85158e-06
0.00880226
-8.99419e-07
6.9048e-09
-3.31143e-05
0.00412569
0.00993881
-0.00138735
1.29973e-06
5.48619e-05
4.87424e-06
-1.10764e-06
-0.00122508
7.53037e-07
-1.56911e-06
-1.06788e-06
1.76606e-06
5.82404e-06
-1.90329e-11
-3.7234e-09
0.0035051
-2.11854e-08
0.0106705
-4.70182e-08
3.7488e-05
7.34192e-07
1.27004e-06
-2.98793e-05
-6.14193e-06
-1.62894e-06
2.77171e-06
4.55255e-07
4.02949e-07
-4.66175e-08
0.000435408
-1.34279e-09
0.000128382
1.97006e-09
0.000126521
1.41859e-08
-1.52874e-09
1.66623e-08
-1.4799e-06
8.0901e-08
2.75977e-07
2.02064e-07
-1.64329e-06
1.47642e-05
2.90003e-10
2.03917e-07
2.6335e-07
2.71201e-05
-1.63893e-07
-2.06741e-07
-6.62793e-07
1.09735e-05
1.47514e-07
-1.65179e-07
3.08203e-07
0.00258323
-6.58882e-07
-0.000240369
8.94379e-09
-1.74919e-05
0.022206
-7.61683e-09
9.82401e-09
0.000174835
-1.3079e-06
1.08763e-08
-0.00119334
-0.000650288
-8.46488e-08
-4.28193e-05
6.02371e-07
-0.000942194
-6.37796e-07
-0.00219889
-1.66158e-08
-4.82861e-09
-2.42496e-09
-1.87568e-05
0.000511761
4.87733e-05
-2.81046e-07
-2.36973e-09
0.073428
2.94813e-07
1.58541e-08
-0.000728794
-7.03573e-06
1.52857e-08
-2.63844e-07
0.0510597
-5.02667e-06
1.35573e-05
-3.1029e-06
7.26829e-06
-3.83939e-06
9.5582e-09
-2.68161e-08
-1.97515e-06
-2.38857e-07
-2.74175e-08
-0.00224527
-5.2012e-05
-2.97106e-06
4.00144e-07
8.20285e-07
0.000884562
0.000130578
1.12239e-05
-0.0020429
-1.16208e-07
3.84224e-05
-2.93267e-08
-9.91828e-05
0.000733355
-4.98055e-07
-4.35253e-10
2.72493e-05
0.000419954
-4.05147e-07
7.00184e-09
-2.98259e-07
-2.63537e-07
7.53397e-09
1.55122e-08
-1.13251e-05
0.000826185
-2.15813e-07
-2.85214e-08
-2.4359e-09
-0.000459663
0.0108476
1.21784e-06
-9.91304e-06
-3.48598e-09
3.98476e-07
6.46749e-05
2.50373e-08
-7.71409e-08
-3.08101e-06
-9.3837e-09
-0.00112542
-0.000131586
-2.94423e-07
-1.07102e-08
-5.15412e-07
1.088e-07
7.73978e-05
-4.02991e-06
-1.69097e-06
7.56203e-07
-0.000100972
-7.30323e-08
0.00888014
-0.000881547
-0.00728047
1.45678e-06
-9.68097e-07
-9.16457e-09
1.28148e-05
7.70723e-06
9.49228e-06
1.89121e-07
7.32281e-07
-1.11333e-07
-7.05604e-08
-7.78365e-07
0.000802003
5.63591e-06
-5.72241e-07
0.00146
-2.98012e-06
0.00100693
2.67749e-05
-0.00104559
-5.22305e-07
-9.4533e-07
-8.43404e-07
9.72134e-09
4.07417e-09
4.18528e-07
-3.37151e-05
-0.000154314
-0.000229424
-1.63692e-06
-5.47462e-06
2.08775e-06
-0.000171417
-5.05173e-05
1.52078e-08
-1.06336e-05
-1.58136e-07
-1.46454e-08
1.92581e-07
4.33602e-06
-0.00677638
-1.87013e-07
3.87354e-09
-5.41949e-07
-5.9989e-07
-0.000605242
0.00425071
-2.02481e-08
1.27099e-07
-4.28431e-06
0.00454338
-7.79742e-08
0.00466409
-0.000516584
-8.62542e-06
-3.56358e-08
4.88034e-06
-2.19716e-06
0.000535354
1.07823e-08
0.000546926
1.46427e-07
3.29881e-06
6.19657e-09
-1.37722e-05
-0.00254308
-1.12518e-06
-0.000369962
1.50629e-06
-3.36884e-08
-7.96e-05
-3.95869e-07
2.2027e-07
0.0107036
-0.000513833
1.50585e-09
2.15559e-06
-0.000730594
0.00010624
-1.04845e-08
-1.63857e-08
-0.000384665
1.64285e-06
-4.57467e-11
-0.000180606
-3.36226e-06
2.00451e-07
2.12514e-06
-9.94128e-09
-2.33027e-07
-0.000706369
2.07846e-07
6.16136e-06
1.91887e-06
-2.48168e-07
1.6478e-07
-5.83239e-06
-0.000500754
-7.83133e-06
1.60177e-07
-3.39283e-07
-1.10536e-10
0.000498812
-0.00493674
3.86662e-05
-2.32977e-08
-0.000308592
-0.00103672
0.00314198
-0.00205393
1.50386e-06
-4.9602e-09
-2.22944e-09
-2.80832e-06
-0.00063158
2.69787e-06
1.80531e-07
-0.0265225
-2.48076e-06
-2.00556e-08
-0.00239681
2.41649e-09
0.00210794
-1.45606e-07
-5.46048e-11
-3.8164e-07
-8.97917e-07
-8.98114e-07
-0.000394841
3.69755e-07
4.95619e-07
-0.00027164
0.0109151
-0.00395081
-3.32008e-08
0.00326141
5.42093e-09
3.9091e-07
-4.10116e-08
5.5589e-05
9.3818e-10
-6.62531e-07
1.25697e-06
-2.94452e-08
-2.08337e-06
2.88147e-07
1.23476e-06
-2.5369e-06
-2.12678e-06
5.22034e-08
2.47445e-08
0.00092081
0.000185401
6.00893e-09
1.30432e-09
0.00466521
2.60278e-07
-0.000709137
2.94369e-08
0.000189535
2.38187e-07
0.000228653
8.60881e-07
0.000330057
-1.62092e-07
0.0313091
-2.68886e-05
-1.03129e-06
6.73939e-06
-0.000119195
1.18771e-07
0.000564751
-5.44242e-07
-0.000985495
-9.84605e-07
0.000772041
-2.11213e-06
0.000884571
-1.16493e-05
1.69338e-06
-2.53331e-07
0.00748133
8.11733e-09
1.42022e-06
0.000980554
1.06943e-07
-1.8394e-06
-0.000745199
7.09362e-06
-7.13394e-07
-5.64238e-06
9.84356e-05
2.37328e-09
0.000633687
0.000213179
7.6731e-09
1.11816e-08
2.45304e-09
3.46131e-09
0.000497922
-0.000204048
-0.000136268
0.0010165
-7.97634e-08
1.23856e-05
-4.34134e-06
2.7426e-07
0.00398985
-0.000425292
-0.00231919
-5.19967e-09
9.39303e-05
3.51817e-08
0.00292302
3.3594e-07
8.86257e-05
-1.03599e-05
1.29171e-07
-3.54754e-09
-3.37143e-06
1.39454e-05
-1.74693e-06
0.00338465
0.000818422
0.000554141
-5.15654e-08
5.7138e-06
-2.47155e-08
1.89552e-05
0.00196495
8.66912e-08
-0.000518496
-4.00217e-08
0.00023122
3.44707e-07
4.28453e-11
-1.14344e-06
-0.00354048
-9.63197e-07
-0.000710569
-0.00061182
1.70054e-05
2.27283e-05
-1.22939e-08
1.48307e-05
1.80069e-05
2.90187e-09
1.46087e-05
1.65093e-07
-7.18907e-08
-6.03364e-06
-1.94223e-10
1.88471e-08
3.40135e-08
-0.000929425
-5.33026e-09
0.000855699
-0.00581495
-5.59126e-05
0.000103724
-0.000147654
0.000283018
4.79258e-08
-6.07359e-08
6.48018e-06
-3.53697e-07
1.43709e-06
2.77836e-08
-0.000509723
0.00333976
-0.00713477
4.95602e-07
1.12244e-05
-4.91659e-07
3.95851e-07
-4.03411e-06
-3.91275e-07
-0.000147571
-4.79938e-08
9.74707e-10
-0.000795478
0.000951712
0.0010564
2.28202e-06
-5.53167e-05
0.000893097
9.52265e-05
-0.00102424
2.59348e-09
1.18098e-06
4.5386e-07
1.25847e-07
0.00213182
-1.91567e-06
-1.18009e-08
-2.72391e-07
-1.49137e-06
-0.0010266
-2.11046e-08
3.50191e-05
-0.000844268
0.000589328
0.000853331
-4.22856e-09
1.44456e-07
-1.79413e-08
-1.81994e-08
2.21506e-10
-0.00164867
-7.35073e-05
5.60929e-07
-0.000148147
-6.80274e-07
1.01762e-05
0.000130656
-6.93016e-05
4.50171e-06
0.000207085
1.05585e-05
1.87534e-06
-6.27051e-05
1.87515e-06
2.75093e-05
-2.0601e-05
7.57039e-07
3.22863e-06
-1.56395e-08
-0.000638809
6.70995e-08
5.92417e-08
-3.64119e-07
1.42223e-07
-0.00101165
-0.00190788
-4.70881e-08
5.09858e-09
0.00355384
0.000311171
-9.21363e-11
0.000900264
-4.76057e-07
8.98063e-05
-4.51611e-08
-0.000437219
-0.0223945
3.60539e-06
7.09627e-07
-0.000398364
9.5935e-05
1.10648e-05
-1.61441e-10
-0.000601352
3.18523e-06
-0.00289826
2.79431e-08
0.000145212
-0.00106986
6.15564e-07
2.82942e-08
-4.88608e-07
1.27868e-06
-0.00159461
-1.08631e-08
-1.06564e-08
-1.07292e-09
-2.80569e-09
-0.000251635
-0.00290467
8.38455e-07
-0.000114373
2.01341e-09
1.17911e-08
1.2547e-05
-0.00174927
-1.18525e-07
3.6254e-08
-6.13532e-08
6.64732e-09
-0.00542507
-0.000350689
-4.66783e-11
-2.05962e-09
-8.7953e-05
1.56206e-06
3.57576e-07
1.11887e-07
-4.80191e-07
3.43751e-07
8.72606e-06
-3.14376e-05
-0.00027523
2.25188e-05
3.72758e-07
0.0034279
-2.37992e-06
-6.16553e-08
-0.000701133
2.96414e-09
2.41022e-07
5.6022e-07
0.00373636
5.04262e-07
1.04499e-08
0.00016695
1.56429e-05
-0.000201839
-1.2601e-05
-1.22523e-06
-7.68581e-07
5.95934e-10
-0.002941
0.00030367
0.00404742
-1.94653e-06
5.47717e-07
-2.57145e-05
-0.000371783
-0.000255492
-1.83611e-06
-8.49592e-06
-3.89624e-07
1.31027e-07
1.89027e-07
8.97779e-07
-2.75331e-06
-4.37511e-07
5.90324e-08
-6.64485e-06
0.00455962
2.52796e-05
6.85182e-07
-3.66481e-06
-0.0126603
1.07315e-08
-5.49026e-08
-0.000262356
-0.00394875
0.000855659
5.61682e-05
7.60346e-09
0.000628826
3.31028e-07
6.69818e-09
-5.0955e-07
-4.70045e-06
3.59474e-07
-5.84795e-07
-0.00178646
-7.8749e-06
4.01097e-06
-0.00295241
-1.01061e-06
-0.00107325
-1.35902e-08
-2.97563e-09
0.00423942
-0.00382406
6.4197e-05
-1.11525e-06
3.69601e-08
-8.29413e-09
-1.23856e-06
-6.79252e-05
5.48229e-06
1.30689e-07
7.4714e-07
-2.16927e-06
1.55259e-07
0.000262668
5.37254e-07
1.18584e-05
1.20409e-07
0.000168654
-7.25784e-07
-0.000882019
2.29284e-06
1.19616e-08
2.71486e-06
-3.90207e-10
4.2465e-08
2.4615e-07
-7.11606e-06
3.26343e-07
-0.000601129
0.000595589
9.13713e-07
4.66153e-09
2.34192e-06
4.96886e-05
-0.000112121
8.65384e-08
1.19006e-06
3.48089e-09
-1.61146e-06
8.95625e-08
-0.000986658
-2.41255e-09
-0.00475544
1.72282e-06
9.02617e-05
-6.10349e-06
-0.000567388
1.05304e-06
1.41013e-07
-0.000739727
0.000127398
-1.99775e-07
1.42786e-07
0.015223
-0.000101724
7.79903e-06
-2.4306e-10
6.52821e-07
-1.67602e-05
3.0214e-07
2.44918e-06
-3.19791e-06
5.71018e-08
-9.38176e-07
0.00934586
5.77336e-08
-8.75725e-08
-1.22405e-09
0.000118832
6.29511e-10
1.06998e-06
0.000818326
4.5291e-07
-0.00395076
-1.81939e-07
-1.14929e-07
-2.42267e-09
1.62848e-06
-6.04059e-08
3.21369e-06
-2.35695e-09
2.37053e-06
-3.06243e-07
-0.00250211
0.000112358
-0.00168423
1.0318e-09
-4.56804e-10
1.86493e-06
-4.12661e-06
-0.000369547
-0.00224399
3.65251e-06
-7.59382e-08
-9.338e-05
2.88011e-05
-2.16357e-05
0.000561598
7.81561e-07
-0.00329681
2.39874e-07
-3.29238e-06
4.46828e-05
-5.2949e-07
2.88745e-06
-0.000238811
-3.34946e-06
5.0182e-08
-3.63312e-06
-6.01528e-07
1.0527e-08
-4.12131e-07
1.18958e-07
-4.49632e-06
-5.37703e-08
-6.31858e-10
2.37e-06
1.34991e-06
5.95562e-06
-8.59067e-08
-6.13493e-09
-4.01615e-09
6.39551e-07
-4.78068e-09
2.31708e-06
-5.91658e-10
-0.000376539
2.16515e-06
-1.37266e-05
2.20853e-11
1.68909e-09
1.48015e-06
-4.74193e-07
-5.30836e-08
-0.00607989
-3.10609e-06
-0.000892583
8.46295e-07
1.43572e-05
9.90993e-07
-4.818e-09
-2.55259e-09
-8.33306e-07
0.000356913
4.07891e-09
0.0184991
-2.4699e-06
-9.53669e-06
4.34071e-07
-1.27075e-06
3.27138e-05
5.642e-10
-1.12494e-11
4.48031e-06
-2.71963e-09
1.92439e-07
-0.00236432
-2.29919e-07
3.79271e-09
-1.65755e-06
-1.14202e-08
1.03281e-08
2.65557e-06
-1.68047e-06
-0.000311297
-1.41831e-07
-2.75007e-08
6.977e-09
-0.000160793
-4.92069e-06
-6.48395e-08
-1.98886e-06
0.00141706
0.000131269
0.000710192
-1.49972e-06
-6.50129e-07
5.30035e-09
8.55545e-09
-5.31445e-08
7.90764e-07
0.00012359
-1.35699e-06
0.000311631
-1.15077e-06
1.75343e-07
0.000731877
-3.50308e-08
-2.12077e-07
2.77914e-08
1.77733e-09
8.55232e-07
-7.14803e-07
3.21395e-07
-0.00376276
9.26134e-05
-6.05064e-06
-4.34484e-08
3.76311e-08
2.73495e-06
-0.0129718
-3.06418e-10
-0.00516156
4.58388e-08
-1.75332e-06
-9.68429e-08
8.93051e-08
-0.000548253
5.37937e-07
-0.00376928
-5.78471e-07
-2.66327e-09
1.61027e-08
-1.24962e-08
-9.27778e-08
2.49244e-07
0.000493394
-2.15994e-08
4.84788e-09
0.000651532
-0.000939675
3.22564e-06
-2.62328e-06
-1.07537e-06
-8.93412e-07
5.87605e-09
3.91002e-07
-0.000628922
3.37898e-06
2.63891e-08
5.3033e-07
-0.00228289
-3.67669e-06
0.00120566
-2.15742e-09
-9.27419e-08
0.000207207
-1.20577e-06
-2.75355e-08
7.10274e-05
2.07166e-05
-1.18349e-07
-1.00127e-05
-2.88621e-09
2.88934e-07
7.01675e-09
-0.000409884
-4.65974e-09
-1.10441e-07
4.54967e-08
-0.00606917
-1.44321e-07
-1.97211e-06
-9.68498e-07
1.50153e-08
-3.52585e-07
1.57217e-09
0.00107107
-1.17392e-08
1.04122e-07
2.33686e-10
7.40191e-07
8.55202e-10
9.83418e-05
-0.000103064
0.0104118
5.16314e-07
-1.82139e-05
0.000805111
1.02586e-07
0.000655124
0.00168094
0.000837727
3.93045e-05
0.000644649
-0.00154641
-7.20041e-05
-2.81426e-07
-0.00167397
-1.87651e-06
0.00196779
-2.91898e-08
3.32827e-08
-2.67066e-07
-1.47211e-09
-7.8478e-08
-7.25279e-07
1.12769e-05
4.71127e-09
-4.95165e-09
6.6048e-06
2.71352e-06
1.77344e-08
2.05355e-06
-2.84582e-06
2.5884e-07
0.000271957
6.35987e-07
-4.75737e-07
7.12116e-08
0.000241697
0.000791174
-8.78139e-05
-9.33084e-08
8.34025e-05
1.58087e-05
0.000296227
-0.00248882
-6.22423e-06
3.56224e-07
8.8833e-07
-2.36473e-08
-1.81048e-08
-5.40975e-07
8.05978e-09
-4.68428e-06
-4.63533e-07
-0.000222566
1.91145e-06
6.15768e-10
1.91678e-05
-4.46555e-05
1.68364e-06
-4.42793e-08
-0.00101856
-2.531e-08
9.85543e-08
-7.46143e-07
-0.000326211
1.84468e-09
8.50088e-08
0.00481971
-0.000279174
0.00776656
1.23847e-05
6.47932e-05
1.3124e-07
-9.68592e-06
1.00451e-07
1.8034e-08
-2.20599e-07
-0.00106697
0.000736518
-6.5755e-08
1.53955e-08
1.86163e-07
-0.0173661
1.10013e-06
-4.57731e-06
1.07866e-08
3.16371e-07
2.9336e-05
2.37459e-08
4.56628e-06
1.96996e-05
0.00105993
-3.24501e-07
5.75086e-07
9.92962e-08
-0.000482662
-0.000107145
-8.04628e-08
0.000866938
-2.90364e-06
-0.000310593
3.93852e-09
-0.00314078
-1.76952e-09
-2.19234e-07
6.49346e-08
5.50808e-06
0.00362903
4.66727e-05
-7.13212e-06
-0.00389234
1.03443e-09
0.000111309
5.09079e-08
-1.20664e-06
0.00506747
1.43379e-07
-9.4536e-11
-6.06382e-07
1.24657e-07
-0.000103835
-1.47985e-09
-7.10003e-09
-1.04979e-06
2.03129e-06
-3.09047e-07
1.87331e-05
-4.299e-06
0.000206279
3.52659e-07
-3.87699e-06
-3.39558e-06
-0.000848623
3.80747e-06
-0.0107935
-0.000148722
6.41964e-08
3.52864e-08
-0.00103343
8.29409e-05
-9.07516e-08
-2.16078e-05
-2.4141e-06
-4.18244e-07
-2.01072e-08
2.4383e-07
2.25527e-07
-7.36825e-11
1.46821e-06
-1.93011e-06
1.74674e-08
-7.28904e-06
-4.93367e-08
-6.82037e-07
-4.92828e-09
-8.29817e-07
7.2005e-07
1.03488e-06
5.37663e-07
-5.13271e-08
0.000148455
4.39454e-06
-0.00359599
6.86251e-08
-4.95788e-07
2.06508e-06
1.3743e-07
-5.27108e-06
6.63923e-06
-1.90785e-07
5.10448e-06
-3.1916e-08
0.00730031
-2.26895e-07
2.22052e-06
-0.000738144
-0.000152371
1.23244e-07
2.75134e-06
2.24532e-05
-1.11554e-08
-5.68976e-09
0.000321791
-0.000513591
3.44584e-07
-7.45508e-06
2.21832e-09
7.02126e-07
-0.000494572
-3.74001e-07
-5.02231e-09
0.000223724
-2.10755e-08
0.000584036
1.53342e-09
-1.12676e-08
-1.33226e-07
-7.80792e-06
0.000736774
2.45818e-07
1.285e-07
7.79375e-08
-1.90122e-07
1.78617e-09
-7.40384e-06
7.88717e-07
-2.66312e-10
0.000388921
-1.22846e-06
-0.000107265
0.00120893
-0.000392566
-7.53807e-09
-1.33483e-07
2.12747e-08
-0.000114825
2.70293e-07
0.000780288
0.000855376
-9.07521e-09
0.00505772
-0.000243301
-1.5756e-06
-1.25255e-05
1.68967e-06
-5.66742e-06
0.00470912
-5.41116e-07
-0.00264511
0.000896743
-3.15238e-06
-2.17521e-07
-0.000796254
1.90847e-06
-4.6008e-08
-1.07599e-06
-0.0013887
-2.20217e-06
-1.10208e-07
1.43209e-06
-5.68377e-07
1.06481e-06
-0.000744367
-1.85461e-06
-0.00428707
2.92638e-06
-8.11262e-05
-4.63355e-05
-0.000125127
-3.3782e-06
1.91821e-08
-2.95233e-07
0.00952242
1.38305e-08
-3.38901e-07
-1.44208e-08
-1.22392e-06
-6.77453e-08
-1.78934e-07
1.04935e-05
8.64127e-06
3.84229e-07
1.86132e-06
-0.00741633
-2.85977e-05
1.04914e-07
0.00618515
-0.00388796
5.33827e-09
-8.29552e-09
1.01688e-06
0.000363021
-1.95308e-09
-8.7778e-06
0.000189503
-1.3812e-06
9.38793e-08
-1.59669e-07
7.72255e-08
-1.56165e-05
-1.04469e-06
-9.71773e-10
0.00205082
-0.00289846
-2.52681e-07
0.00289417
-5.07347e-07
-0.00627308
1.6683e-06
-9.40695e-07
0.000515505
-0.00308597
-5.78863e-06
-0.000114234
6.91299e-07
-5.916e-09
1.86454e-07
7.22412e-08
-6.90838e-08
3.6087e-07
1.29502e-06
1.95088e-07
3.015e-05
-1.88271e-08
-2.28571e-06
1.16065e-10
3.23783e-06
1.42996e-05
0.000415212
3.60331e-08
9.6361e-05
-5.66304e-08
0.00618249
-3.95706e-08
-3.99232e-07
2.87698e-08
0.000112524
-0.000490638
9.2554e-06
7.39277e-08
4.64317e-05
-8.66049e-08
-2.83373e-06
-0.000647793
-2.02764e-07
-9.7733e-09
1.25017e-06
-1.36339e-06
0.00404547
1.65634e-07
-8.66714e-07
3.55678e-07
-2.17547e-08
-5.08383e-07
1.38186e-07
-3.62053e-09
-7.23554e-07
-0.000780557
4.49496e-07
-0.000217335
0.000521199
-5.79614e-07
0.000670744
-2.0149e-07
-2.54193e-09
-7.3081e-07
2.40033e-05
1.90511e-07
-1.78977e-07
-6.61838e-07
-0.0747643
-9.70848e-08
7.03586e-05
-4.73671e-06
1.15161e-06
4.83992e-09
7.02304e-09
-6.19917e-06
1.4281e-07
-1.94741e-09
3.52893e-07
2.83112e-08
1.88738e-06
-1.43942e-06
-9.81292e-06
1.67049e-05
0.00256119
-2.96831e-07
1.74351e-06
0.0225815
-0.000100433
1.20886e-06
-2.27932e-05
0.000217595
-6.23422e-07
0.0050058
3.50261e-07
0.00155628
-3.83399e-05
3.91467e-08
-4.66595e-10
1.30583e-09
-3.32974e-07
1.20013e-06
3.47231e-08
-5.53173e-07
-4.36395e-06
-6.13015e-07
-1.03703e-07
-0.000762226
-3.97396e-08
-1.21603e-08
-0.00150829
1.34669e-07
0.00089575
-5.1996e-07
9.75395e-07
-3.28843e-08
-0.000262398
0.000853821
5.29734e-07
-2.20846e-07
-0.00440862
2.40947e-07
4.50638e-05
2.60241e-10
2.60276e-08
0.00467268
-1.76421e-07
1.18719e-06
3.87486e-05
-1.97586e-08
5.16747e-06
-2.81215e-06
1.06704e-08
-4.65153e-09
-0.00272314
0.00075002
-1.24511e-06
-1.06825e-06
2.22183e-07
1.67342e-06
1.46888e-07
-0.00101006
1.79329e-07
-0.000143937
0.00256739
5.15088e-05
-2.20501e-06
-8.54997e-07
1.09323e-06
-5.40867e-06
5.1138e-07
-1.83905e-08
-1.52978e-06
-0.000612687
-8.16601e-07
9.64653e-07
0.0100793
0.000293877
-1.43239e-06
-1.05065e-07
1.10479e-07
-2.03593e-09
-1.90194e-09
0.000814122
2.06562e-06
-8.1465e-07
-5.55365e-07
6.16301e-08
-7.33212e-09
1.59276e-07
-1.00161e-07
3.3795e-06
2.9219e-06
0.00105178
3.93866e-07
-0.000313089
-0.000770123
-8.46614e-07
1.56512e-07
7.35261e-09
3.05928e-07
-0.000226573
-1.42554e-06
-1.56194e-06
7.14876e-07
1.00202e-05
2.20336e-06
-0.00604071
-0.000119283
2.00701e-08
-0.000139174
2.02346e-08
3.38651e-07
2.83696e-07
-3.15807e-09
2.02025e-07
-0.000239971
-0.0052772
-4.049e-08
-0.00347134
-1.31825e-06
-9.65149e-09
-2.55998e-07
0.000124499
3.72752e-06
-6.80294e-07
-0.00112573
1.46603e-07
-0.000222949
-0.0006794
-2.29027e-10
5.71882e-07
-1.06841e-09
-0.000249172
-6.96977e-06
-8.2698e-10
-0.00320738
1.05271e-06
-7.29652e-07
-3.65238e-09
0.000821153
-1.38524e-06
3.79052e-05
3.40067e-07
-1.13345e-06
1.96808e-05
-2.0623e-08
0.000124825
9.61311e-08
-4.28029e-06
1.39761e-06
-1.44247e-10
0.000145684
-3.73812e-07
-2.98819e-06
5.17942e-06
8.95506e-07
-1.06056e-06
9.80978e-07
-1.69159e-07
0.0101554
-7.1443e-07
0.000860393
7.66881e-07
-4.6836e-06
3.62091e-07
1.06936e-07
4.10374e-08
-3.13067e-07
0.0075971
-1.43233e-07
2.68036e-08
-7.55497e-05
5.22244e-07
-0.00363785
3.10237e-07
-0.00118601
5.11746e-05
-3.05526e-07
3.65532e-08
-8.74485e-08
6.0415e-09
3.86753e-09
1.02469e-05
9.02654e-08
5.82726e-07
-1.53258e-06
3.36703e-09
-0.00532178
-5.88182e-07
-3.88784e-08
0.000275231
8.7444e-08
-0.000865608
-1.80472e-06
3.85481e-07
-4.59501e-05
-0.000743134
-0.00101071
0.00464881
-0.0251229
-2.59054e-08
1.22378e-05
0.000323168
1.8038e-05
3.80748e-09
1.82319e-07
3.83781e-06
-0.00295876
0.000853357
-0.000554749
-3.44712e-07
3.8569e-07
-2.07526e-06
-0.00018318
-5.08345e-05
3.32704e-07
-3.90755e-05
-1.51351e-06
5.53644e-06
-4.31794e-06
7.08734e-10
7.5639e-07
0.000588681
1.27528e-08
0.00141412
-1.43461e-09
4.47408e-08
-0.000831395
-0.000514521
8.46926e-09
-2.97824e-07
-2.61405e-07
-4.7142e-08
2.71959e-06
-7.73938e-05
3.10714e-07
-2.73896e-08
1.04591e-08
1.12979e-06
-1.12783e-06
2.53464e-06
-0.00116367
-9.57993e-08
-0.000792249
5.46726e-06
0.00144928
-4.50306e-06
3.79834e-06
-0.00339914
4.17426e-07
-0.00218346
0.00339953
-0.0410422
7.77086e-07
0.000845112
4.03189e-05
-1.16538e-09
-3.12145e-08
-1.32536e-05
0.00115974
0.00939832
5.23448e-08
-6.17697e-07
0.000971354
0.0190932
-0.0216316
-2.53449e-07
1.54879e-06
-7.68599e-05
8.06701e-08
0.00134162
-9.09577e-05
-0.0013612
0.00842534
9.11123e-08
-4.50879e-08
-1.33548e-09
-6.57761e-07
5.1466e-05
4.04001e-07
-6.92449e-08
-5.34647e-08
2.66396e-06
0.000718695
-2.04626e-07
-0.0039958
1.55434e-05
0.000603823
0.000201931
-2.42842e-08
7.85773e-09
-0.000286937
2.84551e-09
-1.2161e-08
9.06031e-07
-2.75915e-05
-3.60266e-06
-7.3315e-06
-1.5588e-05
-3.62981e-08
-0.00211819
4.18539e-07
-1.09169e-07
4.91248e-05
5.95326e-06
8.2398e-08
-5.14072e-07
-7.051e-05
0.000941862
5.40644e-09
-0.00637729
0.00608238
-0.000358858
-0.00369746
5.35733e-06
2.00917e-07
4.67481e-07
0.0013764
-2.45692e-07
0.0056507
-9.69377e-07
-0.00629642
-0.000288181
3.25206e-07
4.14835e-07
-7.9624e-07
-4.71544e-07
0.000656388
0.000959659
1.64516e-08
7.33319e-05
4.9566e-07
-3.07773e-07
1.09048e-06
-8.24882e-08
7.86868e-05
-6.37345e-08
5.27841e-05
2.68161e-07
5.0544e-07
-2.7612e-09
3.93389e-06
-0.00102964
1.23364e-06
-4.04318e-07
-6.22609e-07
5.05143e-08
-2.80471e-07
-9.53376e-07
0.000724005
0.000827259
0.00127366
-1.65849e-08
3.36112e-09
2.22673e-07
-3.88589e-06
7.18929e-08
2.32908e-07
-5.45305e-07
4.14767e-07
-0.000111376
1.73548e-08
0.000399501
0.000804464
-1.71762e-11
0.00049869
-1.52047e-05
-7.45777e-07
-0.000295857
-8.4245e-07
-7.64058e-05
2.67243e-08
2.5317e-08
-1.50907e-06
-4.52653e-09
0.000179415
3.61603e-09
2.49041e-07
-7.92068e-07
-0.000411926
0.000734845
6.67962e-10
6.26328e-09
-2.77812e-07
-1.0616e-07
-6.71165e-05
9.22827e-08
-4.50063e-06
2.63803e-07
-0.000641001
-3.17679e-07
0.00411877
-8.09308e-09
-0.00154576
-2.1838e-07
6.10305e-10
-0.000603745
-1.04536e-05
-4.42387e-06
-0.000532459
2.63419e-07
2.95825e-06
2.55351e-08
0.000523289
-6.4142e-10
5.76601e-08
-4.50712e-06
-4.2629e-07
0.000100619
0.000407495
-1.81198e-05
-0.00577023
-2.12659e-06
-3.66854e-05
-1.52956e-08
6.6198e-07
-5.32505e-07
-0.000895851
9.71572e-08
-0.000289007
0.000544967
6.0989e-07
1.14015e-08
2.4978e-07
-0.00381326
0.000725811
-1.10675e-06
1.86108e-08
9.7585e-08
8.78214e-07
-3.81914e-06
-0.000395594
-4.22423e-05
3.37156e-09
-2.95355e-05
-1.92531e-06
-0.000349222
5.99868e-06
1.08918e-06
3.99564e-07
-0.00201828
-2.57624e-09
-3.40003e-06
0.00647013
2.65784e-08
-8.01403e-07
-0.00022688
-6.41261e-06
3.08682e-07
2.54706e-05
-4.2e-07
-3.62728e-05
7.56496e-07
-2.774e-07
5.87669e-07
0.00102928
1.54968e-08
1.99012e-06
-1.04578e-05
0.000818421
2.69056e-06
7.07194e-06
-7.59378e-08
9.30757e-07
-1.33514e-09
0.000634604
-7.08329e-07
-2.3722e-07
-2.59672e-06
7.722e-09
-4.04817e-10
1.21618e-05
-2.40236e-08
-4.52056e-10
9.58487e-08
4.6909e-05
-9.19953e-10
-8.27269e-07
7.00103e-06
0.00016405
-2.22547e-05
-1.05857e-09
2.18189e-07
5.34923e-06
-0.000200407
-2.89126e-06
3.50602e-07
0.000171584
0.0108316
-0.000340093
-1.47459e-10
-0.0125243
-0.00366112
-1.19712e-10
-2.19938e-07
-3.32537e-09
-4.3157e-05
-1.27303e-05
-6.33779e-07
8.66422e-05
-0.000632689
-1.00476e-08
1.6843e-07
-0.00502428
0.000602096
5.47122e-07
4.17767e-09
-0.000431711
-0.00127445
-0.000186528
-5.68835e-08
-0.00095511
-1.6381e-07
-1.89822e-06
0.000926331
-2.50247e-07
-8.51068e-09
-6.54063e-07
8.1228e-05
3.21975e-06
-0.00421218
0.000252051
-3.88592e-08
-0.00452076
7.08e-05
0.000361186
-6.66357e-09
1.76042e-06
-1.63273e-07
6.97329e-07
0.00113814
-0.00850888
3.59067e-05
-0.0004925
-7.05343e-07
-2.6428e-06
5.31972e-08
0.00143574
0.000940343
-1.34311e-08
-8.49819e-09
-1.02276e-06
3.86979e-08
-2.43923e-06
0.00507376
-0.0052875
-4.83089e-06
-1.27554e-07
6.2384e-07
0.000271298
6.43178e-07
9.68775e-07
-2.04658e-08
-7.04745e-07
-4.39449e-05
0.0015036
-0.00165992
-0.000567147
-4.39236e-10
-0.000376582
1.80829e-08
6.34223e-07
0.00575057
8.90198e-05
-4.93709e-09
-6.18173e-10
2.14195e-06
-7.71688e-07
2.08329e-07
0.00200116
-0.000805804
-2.16314e-09
-1.87481e-08
2.98226e-09
-2.36867e-08
0.00012719
8.35545e-08
-0.00544079
-2.27134e-05
-9.88221e-07
-2.44675e-08
-9.3019e-07
0.000513059
-2.53493e-06
9.02264e-05
-0.000313568
2.31476e-08
-0.000362125
1.25405e-06
-1.16668e-07
-1.29759e-05
0.000399192
0.000384192
4.74992e-06
-1.21568e-07
1.87924e-05
2.00094e-08
-2.24871e-07
-7.49824e-08
-0.00627262
-1.37904e-06
-0.00310324
-0.000536483
-1.69013e-06
1.10607e-08
-0.000194934
3.31346e-07
-3.9226e-10
3.70565e-05
1.77165e-08
-3.71061e-06
-2.7078e-06
1.17363e-07
0.00635581
-7.79174e-07
-2.38702e-07
-6.55688e-08
-5.18593e-08
-0.000210625
0.00105388
-1.03182e-06
-4.15014e-07
2.08712e-06
8.84228e-06
-1.15174e-06
-2.88943e-07
-4.59182e-07
1.19721e-07
-1.5576e-05
-2.46019e-07
-0.00670935
-4.43541e-07
-7.40461e-06
7.69858e-06
-7.39693e-07
0.00245149
2.25646e-08
0.00531418
8.25526e-07
0.00106392
-0.0402391
0.0209247
0.0163055
0.000853638
1.40116e-06
-3.38177e-07
0.00395682
8.31346e-07
-1.16656e-07
0.000771323
0.00126886
-4.23604e-07
-1.10046e-06
7.78567e-07
1.46912e-06
2.60018e-06
-0.000564104
-1.62475e-11
-8.98489e-07
-2.7451e-06
5.8249e-08
5.61292e-09
7.48309e-06
2.33701e-08
-0.00542236
3.40239e-08
2.62861e-05
-2.18227e-06
7.28404e-07
7.48938e-06
-0.000193248
-2.68202e-06
6.37253e-08
-4.06554e-06
0.00421732
-0.0122904
-1.45092e-07
-0.00357534
-3.2969e-06
-0.000318136
-1.58203e-09
5.56123e-08
0.00110638
2.44171e-06
0.000193593
0.000631417
7.3946e-07
-0.00165741
-2.63487e-07
2.23708e-08
0.000383509
6.09836e-06
1.0712e-06
0.000153049
2.12804e-06
9.02663e-07
3.39578e-07
2.43053e-06
-1.24351e-06
-0.00146004
0.00775478
4.00349e-06
-0.000156459
-2.99226e-07
4.04281e-06
0.000268969
1.88769e-07
8.14873e-08
6.46447e-06
4.39427e-09
1.53379e-05
-0.000547649
0.000889675
-0.000134925
4.94642e-07
-1.5524e-07
-0.000910668
1.93338e-08
8.37898e-06
-1.08732e-08
0.00496062
1.25771e-08
9.40111e-07
0.000639229
-8.61645e-06
-1.21961e-09
-1.87348e-07
-0.00042785
5.79336e-08
-5.86769e-05
-4.32401e-09
0.00303827
2.10848e-05
-1.57588e-05
2.24181e-06
-6.99875e-09
-1.41286e-05
5.45828e-06
6.43553e-07
-4.12874e-08
-1.36629e-07
1.66642e-11
9.63584e-07
1.2671e-08
6.52075e-06
1.08934e-07
1.8929e-08
0.00107442
9.8697e-08
1.51397e-06
3.26955e-08
-1.11432e-09
0.000925225
-5.86436e-08
-1.87793e-07
4.43715e-05
2.48379e-06
-0.00760594
-3.60067e-08
0.00120465
2.44233e-06
-6.19057e-05
2.87065e-08
1.61013e-05
-3.82052e-07
7.13275e-07
-2.28863e-05
5.6495e-06
0.000134123
-0.000832788
-6.87845e-05
-0.00524366
2.37508e-07
1.26413e-06
-1.22361e-06
-0.000293101
6.21102e-07
-5.13e-07
6.62725e-08
-3.41261e-07
-2.08598e-06
-0.00779605
-3.25826e-06
0.00845078
-0.007372
5.09851e-06
2.13415e-07
-0.00367331
8.07405e-06
-3.15663e-09
1.43559e-07
1.59292e-08
0.0101266
-6.51031e-08
0.000936169
2.60878e-08
-1.35775e-06
0.000570024
-1.58496e-07
-3.09897e-08
-2.72182e-08
-0.000595436
-1.30319e-07
-5.28199e-07
5.2254e-07
1.74767e-07
-6.6029e-07
5.3652e-07
1.14889e-05
-3.8058e-06
4.2158e-07
-0.000155352
0.00041337
0.000811945
-0.000201117
-1.34336e-08
4.83545e-08
3.66045e-06
-6.90998e-07
1.11752e-06
-0.00527796
0.00034104
3.14385e-09
-1.35552e-08
-0.000899282
-0.00103489
-7.79943e-09
4.02551e-08
1.45469e-07
0.000436856
-0.0023978
-7.76879e-07
-9.51941e-07
-8.12803e-09
0.000676674
-1.71475e-05
-2.40729e-06
-5.78522e-07
-9.30899e-07
-1.86962e-07
8.70676e-07
-0.000218026
3.42405e-07
-1.11011e-09
-1.64365e-07
0.00611054
-8.89833e-07
0.000503021
2.00077e-08
0.000749564
-8.33598e-09
7.63352e-08
1.19893e-09
-4.95414e-08
0.00140219
-0.0116854
-2.11731e-06
-0.000409487
-0.000609217
8.16053e-09
-0.000541737
-5.60154e-06
-1.32684e-08
0.00520964
-0.000317719
-3.35824e-05
-2.65806e-09
0.000583998
0.000322942
4.39456e-07
-1.01238e-06
0.000799431
1.41966e-06
1.02411e-07
6.7782e-09
-2.95269e-07
2.73963e-08
2.48149e-06
-0.000384863
-6.8121e-06
-2.83765e-06
-8.08717e-10
1.20951e-07
0.0091333
-5.51565e-08
-2.43823e-06
-1.5086e-06
-4.39609e-07
9.91207e-07
-4.56368e-08
4.64173e-08
0.000376304
-3.72687e-08
0.000597385
-4.16155e-08
-0.00311193
0.00125086
-5.56638e-06
3.38567e-08
-1.00618e-10
-0.000999061
-2.2471e-09
-2.39993e-07
1.05289e-07
4.85259e-05
0.000366875
-2.62611e-06
0.00123928
1.70001e-06
-9.0543e-05
-6.9664e-08
-5.47456e-06
1.10196e-07
2.82678e-08
8.41119e-05
0.000674052
0.000158855
-3.5212e-08
5.36488e-06
-1.66988e-06
1.60034e-05
-0.000517013
-3.41563e-05
-9.9638e-07
1.96114e-08
-0.000675726
-1.20673e-07
3.478e-07
0.000165493
-2.1904e-06
-9.63778e-07
-1.61515e-05
1.19833e-07
-6.57022e-08
-1.35792e-06
-0.00185257
-4.24926e-07
-2.14258e-08
0.000131707
-9.46549e-07
1.76955e-09
7.66673e-05
-1.1518e-09
5.89419e-09
0.000181726
5.26408e-06
-0.0010506
-3.35177e-08
6.7118e-07
-8.74296e-08
-0.000167785
-2.01124e-07
-4.47255e-05
0.0064332
0.00101981
-0.000440056
-0.000987318
-4.38439e-07
-0.000298633
-0.000130102
7.45069e-09
-6.47573e-07
8.38193e-07
-4.98802e-07
0.000127644
-0.000672221
0.000856913
8.21463e-05
-1.39681e-05
7.68735e-08
-1.23331e-05
1.91998e-09
5.49703e-05
-5.29799e-07
4.2997e-07
1.17523e-07
1.17715e-07
1.47724e-07
-9.65293e-06
0.00101947
-1.08286e-08
6.31338e-07
-1.38218e-09
-0.000701773
6.48946e-07
0.000163514
-0.00677055
0.000414949
4.13781e-09
1.9325e-07
-0.000726286
2.301e-05
1.50671e-08
1.50997e-06
-6.63015e-09
5.98867e-06
5.03183e-06
3.92268e-06
4.54468e-08
0.00290353
-3.7082e-08
3.07878e-09
-0.00021492
-0.000689271
1.22675e-07
5.91569e-07
-2.4957e-07
-0.000106189
-1.10985e-07
-7.73302e-11
-4.41909e-07
3.51976e-08
-0.000141334
-0.000518755
-0.001948
-1.06804e-06
-0.00093956
7.76866e-05
-3.80205e-09
1.11725e-06
-1.28888e-08
0.000440966
-2.66718e-07
-2.74321e-07
9.26226e-08
-2.6838e-08
-6.6076e-08
-0.00189402
-2.05674e-08
5.4569e-05
-2.84925e-09
4.20734e-07
1.16628e-08
2.20156e-05
-4.28533e-09
1.12568e-07
-3.65356e-06
1.69197e-06
0.000918613
-2.42357e-08
0.000475165
1.467e-06
-8.02137e-07
-1.15138e-08
-9.61604e-09
0.000466876
0.000360406
7.2281e-08
7.05487e-08
0.000195218
7.42186e-05
-3.12992e-07
0.00144661
-9.47445e-09
0.000668987
4.08279e-06
-7.741e-09
0.00245775
-7.27056e-07
-0.00124411
-1.43405e-08
4.09723e-07
4.28919e-09
-0.000707868
0.000968987
-5.33889e-09
1.86634e-05
-0.000288188
2.8003e-09
7.67116e-08
1.37433e-08
6.86737e-06
-0.000164289
3.32414e-06
2.95678e-07
1.36704e-06
-4.60822e-08
-8.35669e-08
3.51492e-07
-9.31184e-09
8.24185e-06
4.45421e-08
-4.13075e-08
-0.000364652
-5.19154e-07
2.61193e-10
-0.00727002
2.25865e-06
-2.02575e-08
2.42881e-06
1.14479e-06
-0.000871362
-2.28195e-07
0.00100088
3.28182e-06
5.06531e-08
3.58143e-06
1.27459e-06
-3.41221e-07
2.3463e-05
-2.31878e-06
1.77273e-06
-0.00217794
1.85098e-07
1.00505e-05
-3.09107e-06
6.99303e-06
2.46533e-08
2.08358e-08
1.23636e-09
3.85598e-07
-1.33562e-07
1.57796e-06
-0.00507264
0.000244769
-0.00656571
-3.81373e-09
-0.000155668
0.000947743
0.000228116
-5.23393e-08
4.4453e-08
1.83866e-06
0.000737752
-5.28008e-07
-1.91543e-06
-0.005155
-0.00092895
-0.0128184
4.17622e-06
4.45602e-05
-0.000626573
0.00161341
2.81838e-08
0.00244932