/*--------------------------------*- C++ -*----------------------------------*\
| =========                 |                                                 |
| \\      /  F ield         | OpenFOAM: The Open Source CFD Toolbox           |
|  \\    /   O peration     | Version:  v2012                                 |
|   \\  /    A nd           | Website:  www.openfoam.com                      |
|    \\/     M anipulation  |                                                 |
\*---------------------------------------------------------------------------*/
FoamFile
{
    version     2.0;
    format      ascii;
    class       surfaceScalarField;
    location    "50";
    object      ddtCorrDdt0(phi);
}
// * * * * * * * * * * * * * * * * * * * * * * * * * * * * * * * * * * * * * //

dimensions      [0 3 -2 0 0 0 0];
oriented        oriented;


internalField   nonuniform List<scalar> 
20673
(
-0.000436145
-0.000279795
0.000715933
-0.00111953
0.000123665
0.000995876
-0.00216321
0.00340939
-0.00124617
-0.000337436
-0.000113089
0.000450512
-7.52718e-05
8.67053e-05
-1.14772e-05
-0.000195334
3.41873e-05
0.000161087
-0.00186994
0.00204183
-0.000171884
0.000715944
-0.00230511
0.00158917
0.000166177
0.000246666
-0.000412852
0.00103073
-0.000223711
-0.000806957
-0.00102949
0.000611784
0.000417724
-0.000139086
7.25505e-06
0.00013184
-0.000363854
-0.00125982
0.000317622
0.000942193
0.000241339
-0.000478883
0.000237542
-0.000479848
0.000306879
0.000173037
0.00176661
-0.000948769
-0.000817836
0.000342825
0.000394884
-0.000737678
-0.00019014
5.10657e-05
-1.13504e-05
-6.27141e-05
7.40639e-05
8.98525e-05
-3.17506e-05
-5.8092e-05
-0.00207546
0.000205521
5.21241e-05
-1.86478e-05
-3.34731e-05
-0.00206616
0.00278211
-0.000162029
0.000249084
-8.7053e-05
-0.0013358
-0.000406728
0.00174253
0.00170773
0.00286167
-0.00456937
0.000778048
-0.000769452
-8.52897e-06
-0.0039496
0.0198289
-0.0158793
0.000238819
0.00104802
-0.00128677
-0.000575496
0.000213898
0.000361574
9.99358e-05
0.000204304
-0.000304244
0.00113445
0.000588506
-0.00172294
-0.000193501
0.00191875
-0.00172527
0.000153301
4.47237e-05
-0.000198049
0.00139527
-0.00213818
0.000742916
2.27255e-05
2.94035e-05
0.00115924
-3.33988e-05
-0.00112584
0.000137169
-0.000381583
0.000175036
0.000101363
-0.000276391
6.56409e-05
-6.87222e-05
3.07074e-06
-1.36747e-06
1.36305e-05
-1.22647e-05
-6.53235e-05
-8.27716e-07
6.61103e-05
0.000543736
-0.00143381
0.000890108
0.000247713
-3.20745e-05
-0.000215637
-0.000453308
0.000711974
-0.00025877
1.79258e-05
0.000324893
-0.000943884
0.000711298
0.000232563
0.000441552
-0.000517601
7.60094e-05
4.44303e-05
-2.88302e-05
-1.56121e-05
0.000195518
-1.49873e-05
-0.000180523
-0.000210946
0.00036493
-0.000154011
0.00044556
-4.0597e-06
0.000600579
-0.000794097
0.000731294
0.00103532
-7.20877e-05
0.000286169
-0.000214042
-0.000770025
-0.000259466
-2.10431e-05
0.000166901
-0.000145856
-0.000332066
0.000148889
0.000183175
6.57059e-07
0.000247055
0.00119026
0.000182787
-0.00137304
-0.000882983
-0.000236549
-0.00125982
5.66266e-05
-6.79747e-05
-0.000205656
1.03384e-05
-0.00221363
0.00222087
-7.19471e-06
-2.93137e-06
-3.99481e-05
-0.000161317
-4.68319e-06
0.00106013
-7.058e-05
-0.000989558
-0.00217416
0.00344829
-0.00127411
2.38926e-05
-9.91966e-05
0.000637642
-0.000471453
0.000288653
0.00095451
-0.00124315
-0.000215368
5.33433e-05
0.0011234
-0.00161859
0.000495253
-0.000166088
-0.000480741
0.000646851
-0.00105266
-0.000167744
0.00122037
-0.000104838
-0.000175677
0.000280517
0.000690709
0.00103268
-0.00172338
-9.26451e-06
0.000292638
-0.000283372
0.000238645
-0.00010241
-0.000136222
-6.97268e-05
0.000620928
-0.000815171
0.000194234
-2.2687e-05
0.00118193
0.000308675
-0.000236502
-7.21226e-05
0.00030437
-0.000409193
0.000172772
-0.000203163
3.03894e-05
-0.00753606
0.00532246
-0.000125761
0.000321286
2.03397e-06
-6.73738e-05
-0.000235223
-0.000979377
0.0012146
-0.000417554
0.000220832
0.00019667
-3.10605e-05
-0.000126129
0.000157217
0.000291617
-5.57298e-05
-0.000235862
-0.0022889
-0.00524711
0.000124834
-0.000244879
0.000120004
0.000637393
-0.000156487
-0.000480919
-2.64545e-05
-0.00057266
0.00059906
-0.000295563
0.00100769
-0.000712106
8.42739e-05
-0.00103895
0.000954633
8.24396e-05
-4.80666e-05
-3.43731e-05
0.000284138
-0.000519637
0.000235538
0.000281387
0.000262385
0.000269699
3.04454e-05
-0.000300138
6.70662e-05
5.17531e-06
-7.22341e-05
-0.00027623
8.37472e-05
0.000192474
-0.00727632
-0.00963925
0.0169156
-0.00096696
2.30876e-05
-0.000396963
-0.000551813
-0.000205608
-7.24443e-06
0.000212792
-0.000149241
0.000935949
-0.00078672
-0.000294363
0.000469402
-0.00010125
-0.000270524
0.000371801
-0.000181122
-9.51117e-05
8.78784e-05
7.19158e-05
-0.000159826
0.000194718
-0.000241596
4.68893e-05
-1.49158e-05
-0.000131983
0.000146902
8.21689e-05
0.000230573
-0.000312706
0.00262945
-0.00292326
0.00029381
-0.000305243
-0.000756883
0.0010621
-8.29032e-05
8.15428e-05
0.000753093
0.000307057
-0.000515082
-0.00208266
0.00259774
0.00193332
-0.00115519
4.68735e-05
8.08185e-06
-5.49626e-05
0.000337505
-4.58987e-05
-0.000281542
-4.31989e-05
0.000324737
4.27547e-05
4.12655e-06
-4.54232e-06
-3.03443e-05
3.48928e-05
0.000159012
-0.00191355
0.00271691
-0.000803363
0.000533039
-0.000445171
-0.000130323
9.82484e-05
0.00012659
-3.67409e-05
0.00178664
-0.00197423
0.000187567
0.00068889
-0.00275505
-0.000941282
0.000505101
-0.00189226
0.00197656
-4.22299e-05
2.29032e-06
-0.000816317
0.000511049
-0.00254094
0.00255729
-1.63467e-05
-9.61889e-05
4.25499e-05
5.36465e-05
-0.000233468
-8.62644e-05
0.0003197
-0.00284664
0.00559236
-0.00274564
-0.00015345
-7.86894e-06
-6.70654e-05
-0.000855386
0.000922462
0.0265867
-0.0181748
-0.00841186
-0.000306762
9.5829e-05
-8.54997e-05
1.33183e-05
7.22008e-05
-0.000967765
0.000914687
5.3056e-05
0.000189667
-0.000369984
0.000180341
-9.13601e-05
0.000286081
0.000790063
-0.000491345
-0.00029874
0.000252959
-0.00114048
0.000887628
-0.000256807
3.73002e-05
0.000219459
9.26697e-05
1.06112e-05
-0.000103263
-0.000455307
-0.00171882
-0.00233065
0.000373634
0.00195702
0.000105873
-0.00115851
3.5703e-05
0.00175095
-0.000949977
-0.000312321
0.00126228
0.000564058
0.00189452
-0.00245861
0.000214461
-0.000264971
5.05081e-05
9.79383e-05
0.000539476
-3.26243e-05
-6.86305e-05
-0.000724912
0.000429342
-5.25888e-05
0.000322309
0.00066013
-0.000412688
-0.000247461
4.48659e-05
-0.000205011
0.000160142
0.00103894
-0.000754824
-0.00298575
0.00100905
0.00197671
0.00143536
-0.000535468
-0.00089993
-0.000879287
0.000485902
0.000393399
0.000387653
-0.000374482
-1.31873e-05
-0.00227558
0.000259959
0.00201564
-0.00190976
0.00355804
-0.00164822
-0.00273443
0.000820887
0.000273939
-0.000191798
-0.00131371
0.00124667
0.000188001
-0.000430516
0.000242517
-0.00175826
0.00134076
-0.000202193
-0.000373341
-9.82818e-05
2.09987e-06
0.000209065
-3.62941e-05
0.0011051
-0.000555269
-0.000549801
-0.0016544
0.000318603
-0.000665298
0.000944717
-0.000279446
-0.000395246
0.000487955
1.16281e-05
0.000472375
-0.000484009
-0.000545029
0.000148495
0.000396548
0.00201094
0.00045039
-0.00246133
8.98006e-05
0.000218933
0.00156284
0.00103766
-0.00260052
-5.80193e-05
-4.01783e-05
9.81991e-05
5.68757e-05
0.000274011
-0.000330884
0.00463541
-0.00292773
-5.00853e-05
5.00855e-05
-2.04163e-05
-1.06325e-05
-0.00169285
0.00414331
-0.00245033
-0.0036498
0.00267314
0.000976774
0.000206421
-0.000294976
8.85883e-05
1.87579e-05
2.56752e-05
-0.000405485
6.41682e-05
0.000341305
-0.000135441
0.000325127
0.001239
-0.00095034
0.00105492
-0.00196816
0.000913252
-8.42675e-06
0.000161722
0.000182941
-0.000203985
0.000719114
-0.000745599
0.0001326
-0.00199119
0.00185859
0.000364158
-0.000597639
-0.00247483
0.0020306
0.000444237
-0.00095692
-0.000220246
0.00117718
-0.000359098
-0.000185929
9.34806e-05
-2.64123e-05
0.00666627
-0.00813484
0.00146876
0.000318064
-0.00083767
0.000519609
0.00037995
-0.000154615
-0.000225335
0.000118145
-0.000199083
8.09402e-05
-0.00100146
0.00219178
-0.00019652
0.000384521
0.000666957
-0.000536172
-0.000130796
1.32999e-05
5.2346e-05
0.000816026
-0.000635023
-0.000181005
-6.51083e-05
1.16054e-05
5.35061e-05
0.000293373
-0.000773173
-0.00576233
0.00701655
-0.00125416
3.10736e-05
-0.000287881
3.58994e-05
5.75848e-05
-0.00057033
0.0019656
-0.000362104
-0.00051718
0.000384795
-0.000373154
0.00332403
-0.002
-0.00132402
-0.00114862
0.000191699
4.71098e-05
-5.92408e-05
1.21377e-05
0.000272712
-0.00017278
-0.00140138
0.00116613
0.0001228
-4.83247e-06
-0.000117928
0.000218694
-4.23836e-06
2.0454e-05
-0.000104696
8.42341e-05
-0.000211959
-0.000206139
8.74182e-05
0.000752257
-0.000839663
-7.43325e-06
2.94365e-07
7.13821e-06
-6.80442e-05
0.00167801
-0.00160996
0.00105397
-0.00143415
0.000380152
-0.00305017
0.00361421
-0.000228382
0.000478216
-0.000249841
-2.87874e-05
-0.000236178
-0.00250882
0.00296062
-0.000451723
-0.00130938
0.00137956
-7.01837e-05
0.000100277
7.44865e-05
-0.000174765
-0.00158581
-0.00175729
0.00334312
0.00357756
-0.00453008
0.000952513
-8.52679e-05
-0.000196264
-0.000122009
0.000288902
0.000129456
-0.000337825
0.000208393
-0.000475904
0.000193798
0.000282116
0.000440019
0.000350038
-6.56056e-05
0.00117074
1.47421e-05
0.000226546
1.27381e-05
-1.41304e-05
1.39114e-06
0.00188629
-0.00240138
0.00113994
0.00090108
-0.002041
-0.00183794
5.27056e-05
0.00178525
7.73731e-05
-4.1458e-05
0.000506633
0.000456593
-0.000963228
0.000742175
-0.000627019
-0.000115156
-0.00155401
-0.000776634
-0.000684418
0.00137513
0.000531143
-0.000697254
0.000209855
-5.62763e-05
8.55987e-05
-2.93152e-05
-5.88155e-05
0.000816896
-0.000758092
0.000553632
0.000139417
-0.000693051
-0.000250876
0.000907902
-0.000657021
-4.26876e-05
-0.000289363
0.00178755
-0.000732637
-0.00014974
0.000588257
2.87051e-05
2.32362e-07
-2.89443e-05
-0.00287493
0.00102816
0.00184671
-2.62345e-05
-2.79725e-05
5.42062e-05
-0.00082084
-0.00145474
0.000125017
8.14325e-05
-4.58138e-06
-2.85243e-06
-0.000712372
0.000372966
0.000339444
0.00480712
-0.00455413
0.00541924
-0.00352468
0.00147372
-0.00154176
-0.000600856
0.000657876
-5.70419e-05
8.35412e-06
-0.000145443
0.000137078
-0.0011227
0.000215207
0.000907474
0.00222153
0.0011025
0.0017194
-0.000579435
0.000192219
-7.4076e-05
-0.00264344
0.00295267
-0.000309229
0.000259107
-0.000262499
3.44647e-06
0.000142263
-0.000133915
8.22194e-05
-9.71335e-05
0.00443958
0.0221471
1.15641e-05
-4.52278e-05
3.36666e-05
0.000269019
0.000397958
-0.000732372
0.000503999
0.000120674
-7.5798e-05
-0.00057198
0.000166494
0.000578252
-0.000507374
-7.08621e-05
-6.97923e-06
0.000176253
-0.000169338
-0.00676564
0.00485593
-0.000393815
0.000614786
0.000145877
-5.31695e-05
-9.26984e-05
-0.000221185
9.91754e-05
-0.000311533
-0.000687904
0.000999425
-0.00285298
0.00211435
0.000738623
-1.80292e-06
-0.00013018
3.61451e-05
-6.74e-05
3.12483e-05
-0.000514251
-0.00236066
6.77984e-05
-9.11867e-05
2.33907e-05
-0.000377022
0.00133155
5.74407e-05
8.84306e-05
6.51632e-05
0.000750863
-8.65625e-05
7.51679e-05
1.13679e-05
0.000377909
0.00171259
-0.00209046
-3.80266e-05
0.000164607
-0.000126587
-0.000746555
-0.0014096
0.00215619
-0.0011518
0.000201775
-0.00141059
0.00144629
-0.00359711
0.009179
-0.00558177
-0.000628645
-8.37653e-05
0.00102499
-0.000937571
-0.000741239
-0.00419456
0.00493586
-0.000129222
0.000100445
2.87703e-05
0.00111266
0.00131532
-0.00242797
-0.00102547
0.00108234
0.000282328
0.000459848
0.000571075
0.000677217
-0.00124828
0.0018223
0.000119973
-0.00194227
0.000621325
0.000408273
-0.00102954
-0.000724965
0.00111713
-0.000392135
-0.00328916
-0.000307945
0.00687569
-0.00554558
-0.00133019
8.71938e-05
0.00678844
-0.00263244
0.000469232
-1.33148e-05
0.000153756
-0.000140447
0.000668082
-0.00365388
-0.00111691
0.000967665
0.000315007
-0.000231648
-8.33609e-05
0.00149354
-0.00258536
0.00109179
0.00122322
-0.00090559
0.00362084
-0.00531367
0.00034185
-3.67471e-05
-0.000305096
-0.000296168
0.00230712
-0.0129007
0.00895116
8.95377e-05
-6.48835e-05
-2.4669e-05
0.00303685
-0.000407394
-0.00278477
0.000714049
0.00207072
2.77562e-05
-5.39874e-05
-0.000124284
4.36339e-05
8.06495e-05
0.000252534
6.5605e-06
-7.63246e-05
-9.17558e-06
-0.000702877
-0.000419794
1.0772e-05
-0.00151311
0.00150235
0.00534095
-0.00598103
0.000640075
0.000970104
-0.00128163
-3.9896e-05
0.000140928
-0.000101054
-0.0024563
0.000870498
0.000140878
-0.000102389
-3.84609e-05
0.00047972
-0.000196399
-0.000283269
-0.000433002
-0.000372711
0.000926338
1.86336e-05
4.60078e-05
-1.57855e-05
-3.0237e-05
-0.000196069
-0.00164186
-5.9661e-05
0.000107961
-4.83089e-05
0.000984538
-0.00198601
-0.000271908
0.000272571
-0.000287247
-0.000459307
4.3649e-06
0.00104962
-0.000478558
0.000420814
5.77379e-05
0.000117847
6.27922e-05
-0.000180627
5.27112e-05
0.000666404
-0.00334048
0.00158223
-0.000421087
0.000604118
-0.00018301
0.00103015
-0.0016186
0.000588462
-0.00135262
0.000627675
0.000333157
4.68025e-05
-0.00117926
-0.00132955
0.000692723
0.000338025
-6.8515e-05
8.89692e-05
0.000136116
-1.33261e-05
0.00190655
-0.000277753
-0.0016288
3.42078e-05
-6.93519e-05
3.51376e-05
-0.0012346
-0.000175982
8.64074e-05
-8.01167e-05
-6.29082e-06
-0.000838406
-0.000536431
0.00137486
-4.89069e-05
-3.76497e-05
-0.000265208
0.000251909
0.000287364
-0.000294479
7.12542e-06
0.000516504
-0.00108387
0.000567365
-9.48837e-06
0.00029684
-6.53673e-05
-0.000410527
0.000291166
-0.000455058
0.000163937
-0.000386733
1.06936e-05
0.00037608
-0.00445512
0.00288008
0.00157525
0.000124021
-0.000253255
0.0131434
-0.00647713
0.00472389
-0.000140396
2.75382e-05
0.000112858
-0.00365543
0.00012762
0.000187395
-0.000121014
4.03702e-05
8.06374e-05
0.000812189
-0.000573359
1.895e-05
-6.21116e-06
-0.000210666
-0.000169113
0.000379761
-8.43028e-05
2.46367e-05
-0.0010585
0.000355607
0.000100589
-0.000109841
0.00202924
-0.00020694
-0.00156498
0.00153259
3.23989e-05
-0.000297949
-9.30099e-05
0.000391009
0.00119621
0.000366585
-0.000582017
0.00149285
-0.000910828
5.46414e-06
-0.000279571
0.000274109
-7.3353e-05
0.000553085
8.79193e-05
-0.000127797
0.000680961
-0.00162258
0.000941597
-0.00021844
0.000355605
-0.000641456
-0.000257696
0.000899208
-2.81245e-05
-2.98808e-05
-0.00130294
-0.00158785
0.00172045
-0.00225884
0.000693868
0.000487614
-0.000209247
-0.000278366
-0.000857869
-3.44435e-05
0.000892296
0.000379253
0.000191766
-0.000280713
-0.000100911
0.000220052
-0.00064112
-0.000391058
-3.37897e-05
0.000424858
-0.00151298
-0.000126506
0.0016395
-0.000348213
-4.87543e-05
4.18571e-05
-3.029e-05
0.000874335
-0.00125136
-0.00240731
-0.00032712
-0.00275932
0.00035201
-0.00342887
0.00628428
-0.00285544
-0.000391338
9.34119e-05
-0.00149332
0.00260598
-0.000654375
0.000316568
0.000337799
-0.000860005
0.000262547
0.000597454
1.90841e-05
-4.97983e-05
3.07103e-05
0.00088516
-0.000283641
-0.000601471
-0.000270699
-0.000120344
-5.47942e-05
1.19797e-05
4.28112e-05
0.00227165
-0.000588129
-0.00168351
-4.08822e-05
1.86945e-05
-2.68248e-05
8.15086e-06
0.000563762
1.08532e-05
-0.00057461
-0.000664325
0.00078148
-0.000117093
-0.000535244
0.0005448
-9.56918e-06
-7.09945e-05
-6.94018e-05
-0.00024687
-0.000121616
0.000368515
-0.00144509
0.000582772
0.000862361
0.00122362
0.00138821
-0.00261184
0.000181435
0.00196496
-0.00214639
6.8845e-05
0.000110294
-7.6088e-05
-4.32082e-05
-6.88618e-06
-0.000976961
0.000521602
-2.12363e-05
6.72258e-05
0.00144618
-0.00184788
0.000401701
-0.001358
0.00669891
0.000462692
-0.00106356
-0.00011637
8.82712e-05
2.81258e-05
0.000286449
-0.000358534
0.00130687
-0.00120894
-0.000227731
-0.000426648
-0.0113293
-0.00684552
-0.000965246
0.000578496
-0.000367699
-0.00217324
-0.000439747
0.000192892
0.000598883
0.00066433
-0.0012632
0.000996325
-0.0023489
0.00135258
9.21402e-05
-8.0834e-05
-1.13449e-05
-0.0005525
-0.000277111
0.00082964
0.000415245
-0.000223388
0.000421826
-0.000198416
0.000663253
-0.000640557
-2.26896e-05
3.70407e-05
-3.91383e-05
2.10347e-06
-0.00214573
0.00156156
0.000584179
-0.00053677
0.000568405
-3.16524e-05
-6.72468e-05
-5.0006e-05
0.000117252
-0.00104484
6.79859e-05
0.000282532
-0.000211461
-7.10539e-05
0.000205291
-0.000740537
9.68937e-05
-0.000278012
-0.000231014
0.000298811
2.30966e-05
5.60572e-06
0.00211323
-0.00127507
-0.00083815
-0.000155805
0.00016127
-1.93248e-06
-1.21985e-05
0.00216348
-0.00198204
0.000172768
4.74938e-05
-0.00022028
0.00039326
-0.00186149
0.00146822
0.00052273
-0.000315661
-0.000207071
-0.00113799
0.000622271
0.000515719
0.00132063
0.000691877
-0.00201254
-0.000730685
-0.000237127
-0.000261575
0.000556323
-0.000294757
-0.0015659
0.000983892
-0.00104914
0.000383828
8.44754e-05
-9.06843e-05
6.23254e-06
1.77171e-05
1.23237e-06
-0.000157933
0.00125566
-0.00109771
0.000266937
0.00190778
-0.00182118
-8.65859e-05
7.2869e-05
-0.000140115
-0.000179492
-5.70054e-05
0.00157743
-0.001439
-0.000138385
0.000439184
-0.000445211
6.04161e-06
-2.6465e-05
-9.78287e-05
0.000234923
-0.000611857
0.000376943
0.000768523
0.00084328
-0.00168166
-1.04329e-05
2.91198e-05
0.00011787
-7.42407e-05
-5.40218e-05
4.92689e-05
4.74997e-06
-5.09694e-05
-3.04533e-06
-0.000298717
0.000805341
0.000773631
0.00149804
0.000365829
-0.0023557
0.0003818
0.00197388
-6.97969e-05
1.35116e-05
3.16606e-05
5.07804e-05
-0.000261946
-0.000595916
-0.000638733
-0.000146143
0.000784881
-0.000588353
0.000191044
0.000397305
-7.88056e-05
-0.000126191
-3.84183e-05
-8.25886e-05
2.32993e-05
-2.71519e-05
3.85761e-06
0.00139348
0.00044094
-0.000351068
8.32397e-05
-0.000150083
6.68424e-05
-2.80651e-05
3.29083e-05
-4.83354e-06
-0.00170904
0.000150727
-5.85932e-05
-2.04635e-05
-1.75645e-05
4.24148e-05
6.78768e-05
-2.71578e-05
-0.000179925
0.000207028
0.000450956
-0.000309256
-0.000141582
0.00120304
-0.000539799
-9.04618e-05
-0.000650741
-0.00141099
-0.000602748
0.00128371
0.000259396
-0.000423011
0.000163628
-0.000905348
-0.00106284
0.000879953
-0.00127382
-0.000153862
-4.41975e-06
0.000158282
-0.00119222
-0.000117138
-3.35003e-06
0.000295342
0.00119822
-0.000265137
-0.00012399
0.000389138
-0.00140317
-0.000742555
0.00397324
-0.00135738
-0.00261584
-2.56667e-05
-1.37475e-05
3.94143e-05
0.00147248
-0.000248743
-0.0011549
-0.000163197
0.00131815
0.00115425
-0.000453306
-0.000700866
0.00111479
-0.000855387
-0.00106708
0.00106374
3.33282e-06
-0.000658608
-5.69368e-06
-0.000144315
0.00026217
0.00191754
-0.000198106
0.00185039
0.0024922
-0.00124752
-0.00124468
-0.000925436
0.00057722
0.000419232
-0.000206463
-0.000212791
0.00121807
-0.000836299
0.000559846
-0.00093256
-0.000987256
0.000987256
-0.00122288
0.000650208
0.000169979
-0.00359883
-0.000152919
0.000459819
-0.000187071
0.000340283
-0.000153253
9.29943e-05
-5.05793e-05
0.0012514
-0.00169329
0.000441872
-0.00256528
-0.000101852
-0.000535077
0.000853131
0.00168533
0.000859878
0.00163232
4.38679e-06
8.00824e-05
-0.000370566
0.000399188
-2.86325e-05
0.000925108
0.000381764
-0.00106454
0.00238516
0.000107129
-0.000306044
0.000198882
-0.000262927
-0.000128116
0.000391043
0.00298661
-0.00533432
0.00234779
0.000551443
-0.000529499
-2.19381e-05
0.0016359
-0.000382843
-0.00125305
-0.000821867
-0.000790883
0.00161274
3.40501e-05
-3.85866e-05
0.00260776
0.000429087
0.000287794
5.03135e-05
-7.59794e-05
-0.000458584
0.000209121
0.000249522
-0.00136203
0.000193715
0.00116831
0.000688428
0.000446084
0.00129832
-0.000250345
2.82725e-05
-0.00147004
0.00144177
-0.000881247
0.00187754
0.000276926
-0.00030097
2.40521e-05
0.000365539
0.00155201
-0.00046523
-0.000125602
0.00059082
-0.000793939
-6.60516e-05
0.000205846
1.28444e-05
0.000152313
-6.90774e-05
-0.000121794
-0.00252164
0.000404928
0.000146517
-0.00169381
-0.000261111
0.00195496
0.000138856
-0.000604094
0.000140767
0.000246879
4.91395e-06
-3.29821e-05
-0.000400856
0.000251095
0.00060581
-0.00077113
4.6231e-05
-7.4245e-05
-0.000112836
-1.85103e-05
-0.000946684
-0.000784968
0.000850078
-0.000327346
-0.0125654
0.00680306
-0.000503473
-0.000267671
-0.000153928
-0.00157754
0.00173148
0.000186218
-0.000105575
-8.06392e-05
-0.000253415
0.000563337
-0.000309974
0.00010686
-0.000256562
0.000547793
0.0052622
-0.00548589
-0.00150216
0.00547542
-1.97822e-06
0.000421248
4.39308e-05
-7.35865e-05
2.96523e-05
-0.000120392
0.000145551
-2.51608e-05
3.9416e-05
-8.26158e-05
0.00790958
-0.00757406
-0.000335608
-0.000174196
-0.000279077
-0.000771691
-0.000452835
0.00122453
0.00487237
-0.00384226
-1.49663e-05
0.000675074
4.01675e-05
4.93675e-05
0.000719796
0.000407489
-0.00112721
-0.000914046
-0.000779708
-0.00258362
0.00237651
0.000207117
0.00014523
-4.49481e-05
7.01801e-05
-0.000113768
4.36032e-05
7.60078e-05
4.1868e-05
0.000587195
-0.000794337
0.000207183
9.04412e-05
5.84722e-05
0.000956717
0.000620708
0.000285996
6.63839e-06
0.00336673
-6.04403e-05
0.000259726
-0.000199264
0.000529608
8.21836e-05
-0.000969444
-0.00103258
0.00200207
-0.000771882
-0.000450098
0.00122198
-0.000389067
0.0023378
-0.0019487
0.000702192
-0.000467272
-0.000910586
0.000627509
0.000283071
-0.000704371
-0.000282906
-0.000540185
0.000285406
0.000254777
-0.000306271
4.11216e-05
-0.0021433
0.000383757
0.00175951
0.00182555
-0.00264741
-0.00114818
0.000897272
2.42714e-05
-1.47036e-05
-9.56934e-06
-0.000217401
-4.41823e-05
0.000936749
0.000775858
-8.0894e-05
-0.000397659
0.000337925
0.000266222
3.90368e-05
9.04184e-05
9.80166e-06
-0.000130178
-0.000416256
-5.53529e-05
0.000471613
0.00140939
2.05584e-05
-0.000111591
9.10422e-05
-7.51205e-05
-1.53557e-06
7.66583e-05
-5.54098e-05
4.68005e-05
8.61465e-06
-0.00179677
-0.0010562
0.000131532
-4.93797e-06
-0.000137536
0.000625223
0.000354929
0.00108042
0.0017538
-0.000426817
-0.001327
0.000215257
0.000189679
-0.000272659
0.000309929
0.00191391
-0.00132539
-6.13171e-06
-0.000431504
0.00230286
-0.0018713
0.000113702
-3.14793e-05
-0.000251029
0.000893052
-0.000642005
-3.53557e-05
6.37231e-05
-2.83592e-05
0.00333121
-0.000640911
-0.00269029
-6.93097e-05
0.000242086
-0.00112396
-0.000321102
-0.00242286
0.00778062
-0.00535767
8.29235e-05
-0.000721651
4.80051e-05
2.0489e-06
0.000216567
-0.000319796
0.00119981
0.000880638
-0.000230824
-0.000649863
-0.000555634
0.00147971
-0.000924073
0.000154437
-0.000268309
0.000113888
0.000249608
0.000145309
-7.55952e-05
0.000165464
-8.98887e-05
-0.000965896
-9.25659e-05
-0.000550918
0.000289861
0.00134979
-0.00150372
-0.000700183
-7.15029e-05
-0.000599371
6.47444e-05
0.00053463
0.00128912
-0.00156013
0.000271013
-0.000580429
6.07691e-05
0.000519674
0.000413774
0.000174498
-0.000963532
-5.64428e-05
0.00101998
0.00103174
0.00311168
0.00028635
-3.67172e-05
0.00455142
-0.00388
-0.000671424
-0.000821212
0.000136599
0.000684591
-0.000293409
0.000482246
-0.000188847
-0.000674193
-0.000687846
-0.00050687
-0.000121778
-3.93431e-05
-0.000122205
0.00016152
0.000136238
0.00045099
-0.000218482
1.28431e-05
0.00063424
0.000280496
2.95965e-05
6.64383e-05
-9.60188e-05
-3.36474e-05
-0.000334585
0.000615323
-0.000280769
-0.000431526
5.61657e-05
0.000375363
0.000511901
-0.000173939
-6.98243e-05
-5.774e-06
-1.39311e-05
-1.83726e-05
3.22911e-05
0.000111372
2.01539e-05
-8.43621e-05
0.000309549
-0.00022521
9.49898e-05
-4.53273e-05
-4.96712e-05
0.000164938
5.34704e-05
-0.000218313
-5.5815e-05
1.99155e-05
3.59055e-05
-0.00108529
-5.26997e-05
0.000259996
-0.000371641
0.000111627
-0.00445428
-0.00428543
-3.10319e-05
5.17099e-05
-2.07027e-05
-8.11836e-05
3.19324e-05
4.92513e-05
0.00154441
-0.000548302
-0.000996079
-0.000398031
0.000996907
-0.000200561
0.000395398
-0.000194828
-0.00018722
0.00179602
-0.00160881
-0.000501757
0.000262478
0.000239314
0.00125223
-0.000267683
7.5798e-05
-0.000695931
0.00157944
-0.000883517
-0.0005237
4.60244e-05
0.000477666
-3.58758e-05
6.84139e-05
-3.25461e-05
-3.69996e-05
-1.39762e-05
0.00023534
0.000342911
0.000898474
-0.000832679
-6.58439e-05
-3.31007e-05
-4.80831e-05
0.00120455
-0.000765758
-0.000438833
-0.000103723
0.000268672
9.24205e-05
4.84589e-05
0.0031413
-0.00298196
-0.000159302
-0.00339198
0.00289026
0.000229132
0.00030049
2.83349e-05
4.96409e-05
-7.79797e-05
2.96035e-06
-2.96068e-06
6.98569e-05
4.7906e-05
5.32417e-05
-0.000101129
0.000157842
-9.99553e-05
-5.78915e-05
0.000339128
-0.00251534
0.00217621
-0.000308573
-6.59062e-05
-0.000277715
0.000231377
4.63551e-05
-0.000207
-2.03079e-05
0.000227308
8.43908e-05
2.86177e-06
-8.72626e-05
-2.93659e-05
2.96707e-05
-3.07178e-07
-0.000526417
7.50677e-05
0.000930448
-0.00148608
-0.00090621
0.000900101
6.11386e-06
0.00011302
-9.24549e-05
-4.07361e-05
-2.79934e-05
0.000954356
-0.000394514
0.00799673
-0.000282223
-5.20276e-05
0.000334237
0.000154539
-0.00107998
0.00198971
-0.00217695
0.00041979
-0.00249978
0.00207995
-0.000768168
2.76129e-06
0.000765407
-0.000993658
-7.339e-05
-0.000466306
0.000172888
1.11571e-05
3.59581e-05
-2.80456e-05
-1.32771e-06
-0.000416501
0.000193111
-0.00163858
-0.00199922
-0.000307084
0.00230631
0.000646903
3.038e-05
0.00261774
-0.00130242
4.33275e-05
0.000176148
-0.000219457
0.000147165
-9.69687e-06
-0.00013744
0.000602804
-0.000799073
0.000196275
5.1027e-05
3.53682e-05
-0.000325598
-0.000211187
-0.000179748
0.000218145
-3.8405e-05
-2.56531e-05
-2.71e-05
5.27588e-05
9.39627e-06
-1.67005e-05
0.0010307
0.00438857
-0.000388459
2.81329e-06
0.000385644
0.000245418
-3.01517e-05
0.000259428
-0.000704041
0.000444618
-0.000772772
3.83581e-05
3.48825e-05
-9.10728e-05
5.61863e-05
0.000364075
-0.000577621
0.000213549
0.000299203
2.18331e-05
-4.11578e-06
0.00116184
-0.00195294
0.000791079
5.9e-06
2.89862e-05
-4.59e-06
1.98176e-05
5.15319e-05
-7.13725e-05
3.28766e-05
-0.000128054
9.52113e-05
0.00161693
0.000370604
-0.000316261
-5.43512e-05
0.00121841
0.000914123
-0.000300782
-0.000525293
0.000826111
-0.000109856
1.00371e-05
9.98118e-05
-7.40364e-05
7.41817e-06
6.66286e-05
0.000247302
-0.000149085
-9.82305e-05
-6.64294e-05
0.000158503
-9.20706e-05
-9.10882e-05
1.59323e-05
-5.50755e-05
0.0004853
-0.000430122
-9.6512e-05
0.000165264
-6.87451e-05
-0.000117537
-4.1502e-06
0.00012171
-0.000825358
0.00108638
-0.00026102
0.000131251
-0.00098662
0.000266588
1.03359e-05
0.000678422
0.000315896
5.56364e-05
-0.000371533
0.000107998
0.000157782
-0.000265777
-0.000107076
2.58945e-05
8.11595e-05
0.000842787
-0.000130818
0.00108108
-0.0018977
0.00522897
-0.000118355
4.40271e-05
7.43156e-05
0.00025941
0.000296915
-8.70816e-05
0.000241511
0.000271827
4.66509e-07
-0.000272348
0.000141464
0.00103174
-0.0011732
1.52379e-06
0.000332476
-0.000328454
0.00244281
0.000416984
0.000158937
-0.000575907
-4.55364e-05
0.000349905
0.000284678
-0.00020713
-7.7558e-05
5.81297e-05
0.00291923
-0.00297727
-0.000114516
4.80813e-05
-0.000531867
-0.000431662
-4.84763e-05
1.14645e-05
8.05596e-05
0.000290041
-4.54045e-06
-2.64968e-05
-0.000498728
0.000955331
5.51163e-05
3.98616e-05
-4.42847e-05
-6.45252e-05
0.000187835
-0.000176843
1.20179e-06
0.000175641
0.000269071
0.000124193
-0.00183818
0.00386254
-0.000115647
0.000171098
-5.5489e-05
0.00131694
0.000493459
-0.00181042
9.0372e-05
-0.000119366
2.89929e-05
0.00111157
-0.000113706
2.50982e-05
8.86257e-05
4.87259e-05
0.00028017
-0.000257198
-2.29512e-05
0.000512577
2.45373e-06
-0.00113466
0.000215462
1.56406e-05
-0.000231096
-0.00136953
0.00279275
-0.00142321
-0.000828798
0.000898986
-0.000966552
-0.00181823
-0.00117868
0.0013457
-0.000167028
-4.52855e-05
-0.000175911
-5.03969e-05
0.00265816
0.000890686
-0.000707896
-0.00137759
0.000198908
-0.000978994
-0.000662608
0.00164161
-0.000968927
0.000143571
0.000604037
0.000550138
0.00103161
-0.000311826
-0.000349291
-0.000262568
0.00106095
7.67731e-05
0.000340207
0.000113953
0.0017926
-9.51027e-05
0.000167986
-7.13203e-05
-5.48146e-05
6.92548e-05
-0.000351479
-5.97115e-05
-0.000593641
0.000249157
0.000344483
-0.00017542
0.000205261
-2.98471e-05
0.00155611
-0.00203162
0.000475514
-0.000142821
7.15161e-05
-4.04543e-05
1.1192e-05
2.92639e-05
3.09187e-05
-6.59094e-05
3.50104e-05
-0.00069585
-0.000946642
0.00164254
0.000104056
0.00014324
-4.67715e-05
0.000172444
0.000454658
-0.000627094
-0.000510904
0.000421676
8.92451e-05
0.00104695
-0.00346989
-0.00102794
0.000981121
0.00023051
-0.000107535
-0.000122995
-0.000179144
2.30119e-06
-0.000346955
0.000606385
0.000819776
-0.000216966
0.000487829
-0.000257337
-4.90689e-05
6.88956e-05
0.00315053
-0.00419968
-0.000622621
-0.000532289
5.24469e-05
-0.00036401
0.000311535
-7.54715e-05
0.000719672
-0.00041287
-0.000306811
-0.000406847
-0.00046806
-5.56366e-05
6.65218e-05
-2.31773e-05
-2.72883e-05
-1.66385e-05
-0.000111536
-1.43374e-05
3.34133e-05
-0.000979442
0.00143041
-0.000901079
0.000320687
6.32312e-05
-1.50422e-05
-4.81188e-05
0.000834687
0.000289641
-0.00112429
-3.27731e-05
-1.1502e-05
-0.000730368
0.000524351
0.000166646
-0.000691009
-0.000270405
0.000268637
-0.000573191
0.000304556
0.000608338
0.000266934
-0.000875269
0.000142813
-2.21426e-05
0.000358995
-0.000201167
0.00291809
-3.01679e-05
-0.00288801
-0.000219738
0.000103416
9.79134e-06
-2.14148e-06
0.000188363
0.0017723
-0.0025787
0.000806404
-0.00211818
0.00115162
0.00180493
-0.00125899
-0.000545951
0.000387105
3.38458e-05
-0.0004209
-0.000740174
-0.00139801
0.000131381
-6.15021e-05
-6.98809e-05
-0.000806746
-0.00010217
0.000908944
-0.000116248
0.000384889
-3.73064e-05
-9.52953e-05
0.000132603
-0.0004434
0.00018047
5.59663e-05
0.00139021
-9.45522e-05
-0.00067364
-4.37196e-05
0.00022456
-0.000180829
-1.85684e-06
-7.21997e-05
-0.00018174
1.98694e-06
-0.00172351
3.88519e-05
0.00073259
-0.000326872
-0.000405702
0.000210929
-0.000163022
-0.000589413
0.000931258
-0.00140949
6.01736e-05
-0.000175836
0.00041329
0.00054062
-0.000803395
0.000262945
0.00245509
0.000233963
-0.00268905
0.000226525
-0.000311796
0.00117889
0.00578851
-0.0069674
-4.16004e-05
-0.000328954
0.00120184
-0.000579576
0.000128656
0.000395687
0.000977905
-4.19804e-05
0.000511186
-0.000195279
-0.00128761
0.00134574
-3.11283e-05
0.000903113
-0.000386612
-0.000148928
-6.47003e-06
0.000409427
-0.000123245
0.000392041
-0.000438327
4.62697e-05
-3.59088e-05
0.00129113
0.000822101
-0.00290397
0.00200303
0.000900934
-0.00149718
0.00067199
0.00082519
-0.000197776
0.000797396
-0.000599647
4.45489e-05
3.99091e-05
-8.44618e-05
0.000711398
-0.00124319
0.000531817
0.000149675
-0.000116814
0.000171068
-0.000677926
-0.00248937
0.00151918
0.000970191
-0.00014537
9.05743e-05
-0.000159555
1.06386e-05
0.000100807
0.000515248
-0.00061604
-0.000204698
0.000110044
9.46723e-05
5.16456e-05
1.16003e-05
-2.9204e-05