/*--------------------------------*- C++ -*----------------------------------*\
| =========                 |                                                 |
| \\      /  F ield         | OpenFOAM: The Open Source CFD Toolbox           |
|  \\    /   O peration     | Version:  v2012                                 |
|   \\  /    A nd           | Website:  www.openfoam.com                      |
|    \\/     M anipulation  |                                                 |
\*---------------------------------------------------------------------------*/
FoamFile
{
    version     2.0;
    format      ascii;
    class       volScalarField;
    location    "300";
    object      k;
}
// * * * * * * * * * * * * * * * * * * * * * * * * * * * * * * * * * * * * * //

dimensions      [0 2 -2 0 0 0 0];


internalField   nonuniform List<scalar> 
13917
(
0.019087
0.000194539
0.000221239
0.000150488
0.000178547
0.000190476
0.000159395
0.000695536
0.000157301
0.00479958
0.000257723
0.00014846
0.000162573
0.00738431
0.000161827
0.0158107
0.000148058
0.000232904
0.000197576
0.0152978
0.000171825
0.000148151
0.000174813
0.000148095
0.000154053
0.000175797
0.0285378
0.00350426
0.000193768
0.000137002
0.00352663
0.000182161
0.000150804
0.0295071
0.000145573
0.00167789
0.00015644
0.000161419
0.00015952
0.000172388
0.00014914
0.00014643
0.000154636
0.000193844
0.000193187
0.000281504
0.000169956
0.017806
0.00341069
0.00014558
0.00014819
0.000207204
0.00920934
0.000148011
0.000148532
0.000206159
0.000273321
0.000174948
0.000145666
0.000316005
0.0315385
0.000111379
0.000141822
0.000153588
0.0176405
0.000895943
0.000203703
0.00251024
0.000174716
0.0184195
0.00702387
0.0276462
0.000147915
0.000144558
0.000172896
0.000155502
0.000159389
0.000143963
0.000155009
0.000151073
0.000150489
0.000148649
0.000147749
0.0122435
0.00014163
0.000302555
0.000181636
0.000144562
0.000171997
0.000146877
0.000138552
0.000154945
0.00512309
0.000143687
0.000150653
0.000199022
0.00406942
0.000150522
0.000143456
0.000246788
0.000145434
0.000144339
0.000150752
0.000143991
0.000158388
0.0191571
0.0240851
0.000134245
0.000147044
0.0304845
0.000144234
0.030258
0.000191669
0.0147232
0.0171208
0.000156483
0.000195872
0.000139849
0.000200409
0.000146792
0.000147198
0.000143054
0.000211617
0.000195706
0.020021
0.0159098
0.000153002
0.00017477
0.00014392
0.000196166
0.000165314
0.000227743
0.0423136
0.000156468
0.000186236
0.027698
0.0414969
0.0210535
0.000179553
0.000158976
0.00812573
0.000143622
0.0178532
0.000143495
0.00014721
0.000164956
0.00729345
0.00554419
0.0156801
0.000148304
0.000170079
0.000142864
0.000146937
0.000146889
0.00853048
0.000150307
0.000143077
0.043355
0.000145923
0.000141363
0.000142078
0.0145491
0.000160779
0.0081828
0.0187476
9.16272e-05
0.00813019
0.0218487
0.000130382
0.000182266
0.000148769
0.0398225
0.000157186
0.0263696
0.000188639
0.000143902
0.000150468
0.000212505
0.000164791
0.000161892
0.000154496
0.000148318
0.000148219
0.000218008
0.00020016
0.0011855
0.000147978
0.000214274
0.000136692
0.000273678
0.000189212
0.000191558
0.000210329
0.0191828
0.000143699
0.0204581
0.000158856
0.0415084
0.000145231
0.000149645
0.000166807
0.0181911
0.0182365
0.00015521
0.03692
0.000178985
0.000170557
0.000143494
0.00020983
0.000150581
0.000140867
0.000215523
0.000234569
0.0172807
0.000185501
0.000177853
0.0239941
0.00015184
0.000137208
0.000137115
0.0222613
0.000214658
0.000246242
0.00014343
0.000144259
0.0270714
0.01754
0.000136475
0.000136289
0.000149272
0.000137472
0.000137388
0.0261598
0.0207522
0.000149122
0.000131223
0.000191154
0.0262638
0.000146111
0.000143328
0.0359496
0.0191431
0.00021258
0.025341
0.000203038
0.000143541
0.0209802
0.000192295
0.000187779
0.000187809
0.000154572
0.0201714
0.000147035
0.000171551
0.00018527
0.000149651
0.000149838
0.000153407
0.00016946
0.000145856
0.0257733
0.00619144
0.000143206
0.000136207
0.000150974
0.000136271
0.000147036
0.000161182
0.00016983
0.000143625
0.0248065
0.024288
0.00014611
0.000161452
0.000187994
0.000136653
0.000209979
0.0288131
0.000136702
0.0219864
0.000145305
0.0126031
0.000145348
0.000158521
0.000150002
0.000143296
0.00020636
0.000153008
0.000521574
0.000162423
0.00536737
0.000167784
0.0281742
0.0205574
0.000142352
0.000178332
0.000177768
0.000157232
0.000177735
0.000154747
0.000144201
0.000150265
0.000214683
0.000260206
0.000170913
0.000154355
0.000143154
0.0429971
0.0158188
0.000143284
0.000157992
0.000157221
0.00657113
0.000193811
0.0260046
0.0219682
0.000705646
0.00027816
0.000158801
0.008978
0.00568918
0.000218391
0.000160425
0.000160734
0.0301539
0.000149696
0.000207951
0.000190978
0.000147737
0.0393338
0.000141657
0.000170766
0.000139101
0.0074324
0.000139479
0.000169741
0.000179915
0.000508709
0.000145326
0.000186981
0.0141468
0.000150272
0.000149637
0.0319707
0.0154097
0.00417942
0.0109591
0.000136338
0.000148925
0.020507
0.000255511
0.000136432
0.000181736
0.000148074
0.000188634
0.000170356
0.000202029
0.00020184
0.000211435
0.000170828
0.0258854
0.000144284
0.000150291
0.000179282
0.000205828
0.000147487
0.0170688
0.000170436
0.00402337
0.000148822
0.000222256
0.000188805
0.0102706
0.000145321
0.00024045
0.000193189
0.000183628
0.000146388
0.000445038
0.000139994
0.0190495
0.000213281
0.000145125
0.00804334
0.000151554
0.000681316
0.000139843
0.0174334
0.000682891
0.000155274
0.0293307
0.000202926
0.000153444
0.0133466
0.000197441
0.00015409
0.000208817
0.000148385
0.000206207
0.000216837
0.000141621
0.000158611
0.000154185
0.000143009
0.000140496
0.000144665
0.0432388
0.000233704
0.000149545
0.000145173
0.000147214
0.000178651
0.0162613
0.000137643
0.000130433
0.000193552
0.000217068
0.000143614
0.000154789
0.0119954
0.00583326
0.00129302
0.000197463
0.00420611
0.000140876
0.000137261
0.000168748
0.000140423
0.000137706
0.000149465
0.000137344
0.000140601
0.0213028
0.000148681
0.000173028
0.0269458
0.000178369
0.000141104
0.000146705
0.0129462
0.000167527
0.0172563
0.00013842
0.000143571
0.000140075
0.000137774
0.00015597
0.000152369
0.0111037
0.000176496
0.0216814
0.000143524
0.00016787
0.00024692
0.000150253
0.000201323
0.00439665
0.000147834
0.0140268
0.000141414
0.000142095
0.000146845
0.000151564
0.000140404
0.000147899
0.0428072
0.0273613
0.000140192
0.0331826
0.000193357
0.000147357
0.000180839
0.000182389
0.0171321
0.000159755
0.0199876
0.00255303
0.00235548
0.00015235
0.000659993
0.000256821
0.000154031
8.39482e-05
0.000139594
0.000147687
0.000150645
0.000157715
0.000169955
0.000202562
0.000178205
0.000170148
0.000162206
0.000234214
0.000178261
0.00014948
0.0103339
0.000169232
0.00016227
0.0183826
0.000141585
0.000179362
0.000218937
0.000139594
0.0417812
0.000143025
0.000137712
0.000179393
0.00013855
0.000149596
0.00021278
0.0449318
0.0270547
0.000142012
0.000151069
0.00016833
5.53858e-05
0.0131672
0.000148986
0.000148287
0.000141783
0.000182098
0.00559811
0.000144501
0.000146141
0.000149159
0.000142716
0.00017068
0.000161993
0.000141392
0.000178667
0.00013949
0.000147502
0.000153795
0.0273588
0.000136
0.000154403
0.000145794
0.000167068
0.000185575
0.000196914
0.00018685
0.000269309
0.00015319
0.000218902
0.0401761
0.021075
0.0303086
0.00014267
0.000146517
0.000162195
0.000144715
0.0195934
0.000137061
0.00102523
0.000158713
0.0324814
0.000217151
0.000154744
0.0131455
0.00014017
0.000179923
0.000148835
0.00014949
0.0347548
0.000138183
0.00020408
0.000144758
0.000152318
0.000146878
0.000202391
0.000172139
0.000135907
0.000194003
0.000180442
0.00434221
0.00354093
0.0434234
0.0175146
0.000135998
0.0184889
0.000137696
0.0374098
0.00451101
0.000153855
0.000210818
0.000144515
0.000168538
0.000154092
0.000138217
0.000148943
0.000161075
0.00155365
0.000142508
0.000179829
0.000147408
0.000135768
0.000144581
0.000239123
0.00320088
0.00938924
0.000186398
0.000161695
0.000107263
0.0274876
0.000140202
0.000878087
0.000159857
0.000187653
0.000144721
0.000249729
0.000142489
0.000173372
0.000147458
0.00227912
0.000169629
0.0199045
0.000141806
0.000168686
0.000145546
0.000146329
0.0268953
0.000120105
0.000146381
0.000203981
0.000143256
0.0001474
0.000144848
0.0287366
0.000142534
0.00017398
0.000137005
0.000145939
0.000206346
0.00014397
0.000201947
0.000149436
0.000139575
0.03649
0.000180453
0.000148642
0.00953381
0.000197039
0.0156112
0.000220473
0.000139969
0.000163235
0.0260717
0.000230958
0.000167201
0.000156361
0.000176418
0.000148087
0.000144512
0.00100837
0.00018814
0.000157679
0.0200305
0.000170131
0.0181927
0.0139331
0.000225713
0.000169035
0.000208192
0.0235951
0.000144201
0.000200239
0.00107254
0.000139623
0.000143268
0.000144571
0.000177979
0.000149455
0.0189184
0.000166663
0.00014123
0.000189867
0.000141031
0.026337
0.000145346
0.000143973
0.0442057
0.000183824
0.00298287
0.000148434
0.000145692
0.000143815
0.000150069
0.000161651
0.00014333
0.0191553
0.00016448
0.00266377
0.00303059
0.000200644
0.0435249
0.000151197
0.000148276
0.000145853
0.0303367
0.0279124
0.000159388
0.0193906
0.00410838
0.0001396
0.000143643
0.000156144
0.0175438
0.0039172
0.000170218
0.000149922
0.000154475
0.00018803
0.000156496
0.000201219
0.00016711
0.000150327
0.000151193
0.000148556
0.000161377
0.000163587
0.000220727
0.000158181
0.000190092
0.0189603
0.000157686
0.00254263
0.000155737
0.000176151
0.000158372
0.000212178
0.000147057
0.000178286
0.00226048
0.00327645
0.000144931
0.000158033
0.000155791
0.000143789
0.000147181
0.000178232
0.000178278
0.000233881
0.000202439
0.000139729
0.000225899
0.000157245
0.000157838
0.000205109
0.000149318
0.00018014
0.00471941
0.000135682
0.000184053
0.000194757
0.000166838
0.000142582
0.000140629
0.000144455
0.0161286
0.000150607
0.000146091
0.000170209
0.000143641
0.000141702
0.000204848
0.000106018
0.000205462
0.0090687
0.000185545
0.0212816
0.00014721
0.000160939
0.000162742
0.000156642
0.000200616
0.000146016
0.000143086
0.000148286
0.000159313
0.000199631
0.000142509
0.00193006
0.00014842
0.00330277
0.000155759
0.000159499
0.000139052
0.000188377
0.000159317
0.00934126
0.000209892
0.000148882
0.0264083
0.000151564
0.0242776
0.000153643
0.000224756
0.000154901
0.000142004
0.000144737
0.0368936
0.000161281
0.017611
0.00456993
0.00014369
0.000167268
0.000131052
0.000178425
0.00768278
0.000131356
0.0206496
0.000154547
0.00024935
0.000195503
0.00814893
0.000137249
0.000142605
0.000206926
0.00013994
0.000147764
0.000153379
0.000146203
0.000170475
0.000137101
0.000228743
0.00015035
0.0182594
0.023961
0.00779668
0.023152
0.0156867
0.0166462
0.00562049
0.000139136
0.00014707
0.000146308
0.000151666
0.000141859
0.000161646
0.000143179
0.0130179
0.000148052
0.000283824
0.000150286
0.00016332
0.000199038
0.000143151
0.000173714
0.000151627
0.000150535
0.000158545
0.000140143
0.0444629
0.000190126
0.00174438
0.000143333
0.000144816
0.000149098
0.000148833
0.0176485
0.000139316
0.0001215
0.000142263
0.00331933
0.000158639
0.000143352
0.000179112
9.0989e-05
0.000139444
0.00349994
0.000382838
0.00015603
0.000187765
0.000139855
0.000288695
0.000139776
0.000148758
0.023603
0.000144889
0.000150769
0.000189446
0.0222808
0.000145115
0.00364032
8.0636e-05
0.000146706
0.000153829
0.000146554
0.00244733
0.000144548
0.00019557
0.000147686
0.0425832
0.000158938
0.0456596
0.000145123
0.000136538
0.001189
0.00015375
0.000152012
0.0380445
0.000153134
0.00014047
0.00194396
0.00014622
0.000147828
0.000187581
0.000153723
0.0204435
0.000172015
0.00018261
0.000223589
0.00015428
0.0415632
0.000151129
0.000185536
0.000143937
0.0272131
0.00299077
0.000148737
0.000140385
0.000148555
0.00014901
0.000140045
0.000141191
0.00014346
0.000144577
0.000162606
0.000135553
0.000152642
0.000185494
0.0197658
0.0117845
0.000188367
0.000149127
0.00140445
0.000142652
0.00017112
0.00658562
0.00623992
0.000137398
0.000139257
0.000145241
0.000147336
0.000137174
0.000140075
0.000143148
0.000169857
0.000140536
0.0110268
0.00257065
0.000141062
0.0357376
0.000144054
0.000144695
0.000161818
0.0292572
0.000181355
0.00014304
0.00303405
0.000144592
0.00014479
0.000129091
0.000147904
0.00433639
0.000151044
0.000242423
0.000141098
0.000143304
0.000167251
0.00969762
0.000152825
0.0298353
0.000215106
0.00015413
0.000154867
0.000144868
0.000140408
0.00018753
0.000165945
0.000157341
0.032882
0.0143395
0.0092498
0.000188395
0.00014315
0.0319986
0.000143006
0.0249619
0.000183498
0.000158755
0.000152309
0.0493232
0.0262287
0.00334248
0.000135751
0.00258595
0.000140072
0.000143206
0.000166811
0.000150043
0.000147418
0.00715794
0.0219846
0.000143394
0.000159479
0.0260505
0.000143648
0.000136396
0.00166332
0.0245141
0.000151285
0.000138753
0.000158893
0.000146495
0.000144447
0.000181507
0.000159296
0.000146057
0.00256255
0.000135265
0.00232963
0.00714341
6.08815e-05
0.0276997
0.000148633
0.000150062
0.000287218
0.0220847
0.000353515
0.00019225
0.00016973
0.000149337
0.000151179
0.000146534
0.00975603
0.000158071
0.000150232
0.000178115
0.000143205
0.00318821
0.000188069
0.000192209
0.000177577
0.000275932
0.0042413
0.00582715
0.0370517
0.000161509
0.000261607
0.000136627
0.000181193
0.000191854
0.00796495
0.000156217
0.000149393
0.000157877
0.0187639
0.000153381
0.0154355
0.000167882
0.000197175
0.0147631
0.000142162
0.000187405
0.000154587
0.000147662
0.000185553
0.00173683
0.000137495
0.000139248
0.000152433
0.00894225
0.000140513
0.000153188
0.000153983
0.000151109
0.000146682
0.000198767
0.000181011
0.000150244
0.000143012
0.000239073
0.000233241
0.000182797
0.0424565
0.000148786
0.000144385
0.0252925
0.000146032
0.000153717
0.0369662
0.0291251
0.0001703
0.000181522
0.000161113
0.0154727
0.000168507
0.000168486
0.00443147
0.000144111
0.000191599
0.0192006
0.000200198
0.00399502
0.0169266
0.000140438
0.000147173
0.000161695
0.00014693
0.000147799
0.000226612
0.000144782
0.000174691
0.000137481
0.000176981
0.0150941
0.000153924
9.43453e-05
0.0107185
0.00014445
0.000182952
0.000159959
0.00015284
0.000143861
0.0314585
0.000185829
0.0236135
0.000161475
0.0233731
0.000195788
0.000145256
0.00655184
0.000168171
0.00017865
0.000143586
0.000301423
0.000143892
0.000159096
0.000174621
0.000158659
0.000149526
0.000179023
0.0456301
0.000142227
0.000236477
0.000241502
0.000147791
0.000142444
0.000148496
0.00291204
0.000245919
0.000141333
0.00016256
4.65845e-05
0.00672326
0.0177606
0.000147036
0.000139473
0.000140423
0.000144889
0.000165743
0.000155643
0.00423962
0.000149205
0.000155523
0.00170668
9.4377e-05
0.000188194
0.0231228
0.0231569
0.000148577
0.000144531
0.000139524
0.000152207
0.000181014
0.0430476
0.00170718
0.000202061
0.000166654
0.000176663
0.000153816
0.000336978
0.000158688
0.000193039
0.000143681
0.000272909
0.000214597
0.000140381
0.000148147
0.0339075
0.000177212
0.00118436
0.0198602
0.000213876
0.000143773
0.000365508
0.000157707
0.000141941
0.00196997
0.00289496
0.000143761
0.000171054
0.000195013
0.000168332
0.000150702
0.000136963
0.000142613
0.00014088
0.000143659
0.000163049
0.000175792
0.0229779
0.00016888
0.000158076
0.000164248
0.000193482
0.000142697
0.000170621
0.000233958
0.000191768
0.0234902
0.000152485
0.000136886
0.0284599
0.000140076
0.000414713
0.000152685
0.000173686
0.000149263
0.000140517
0.000156014
0.000158854
0.000152135
0.000144693
0.0377294
8.41221e-05
0.0272011
0.000147942
0.00014704
0.0140614
0.000141795
0.000141049
0.000224086
0.00309129
0.000160464
0.000166491
0.000150482
0.00816391
0.000142725
0.000156609
0.000149494
0.000136706
0.000197427
0.000142747
0.000140647
0.0120142
0.000178551
0.0466017
0.00020078
0.000142241
0.00016334
0.000141688
0.000143458
0.000155187
0.00014966
0.000147527
0.000197801
0.000146894
0.000189377
0.000173465
0.00019274
0.000146729
0.000169692
0.000144212
0.0320877
0.000137457
0.0193871
0.000184114
0.000152879
0.00017775
0.000166367
0.000163746
0.00014671
0.000187433
0.000140951
0.000140406
0.00311368
0.000180112
6.63416e-05
0.000142809
0.000144938
0.000144009
0.000229465
0.000143127
0.0239381
0.000175075
0.000143716
0.000142969
0.000139042
0.000175251
0.00127842
0.0232706
0.000475001
0.00333728
0.000154581
0.000200536
0.00015442
0.00672145
0.000137443
0.000137106
0.000157296
0.00207693
0.000139284
0.0328474
0.000147382
0.000143284
0.000231224
0.00032248
0.0163692
0.00206409
0.00015801
0.000265701
0.000965187
0.000140844
0.0080322
0.000144113
0.000143986
0.0339684
0.0001383
0.0332426
0.00124831
0.000142066
0.000144753
0.000141182
0.0422259
0.000145981
0.000136973
0.000185907
0.000142304
0.000141422
0.000141429
0.000141039
0.000173012
0.000147866
0.000156473
0.000138758
0.0299882
0.00666153
0.000138951
0.000139075
0.000151061
0.000142794
0.000154644
0.000148221
0.000144875
0.000148073
0.000143106
0.000151751
0.000146033
0.000216101
0.000139058
0.000188833
0.000147604
0.000214071
0.000140996
0.000147324
0.000143282
0.000137709
0.00017075
0.00015818
0.000156597
0.0449017
0.000373945
0.0425413
0.0249663
0.000187293
0.0243113
0.000147403
0.000145736
0.00879737
0.0251044
0.000144709
0.0270146
0.000139809
0.000191979
0.00724149
0.000154343
0.000190196
0.000559563
0.0233592
0.000142924
0.000173881
0.000141263
0.000818292
0.000155265
0.0362136
0.0171268
0.000148172
0.00469914
0.0088381
0.000148633
9.5196e-05
0.00263113
0.000153868
0.000140403
0.0015257
0.0297127
0.00014085
0.00016464
0.000149045
0.00186008
0.000215123
0.000147072
0.000141362
0.00136826
0.000143114
0.000144481
0.000150008
0.000139446
0.000190312
0.000163571
0.000161473
0.0334485
0.000143693
0.000190137
0.000147756
0.00154381
0.000179631
0.00103994
0.000140685
0.000160003
0.000140679
0.000145335
0.000154249
0.000146405
1.72864e-05
0.000152301
0.000139888
0.000142293
0.00252549
0.000140451
0.00666796
0.00426797
0.00129973
0.000146685
0.00014203
0.000142826
0.00330001
0.000148678
0.0123659
0.00014381
0.000659453
0.000153535
0.000150375
0.00016502
0.000147498
0.000146652
0.0285219
0.000196108
0.0323301
0.000147428
0.031467
0.00247558
0.000147052
0.0296501
0.000148041
0.000156826
0.020869
0.0001538
0.000185869
0.0232721
0.000167024
0.000183917
0.000146457
0.00526071
0.000144363
0.00757827
0.00014279
0.0216515
0.000144556
0.000144517
0.000153747
0.00256417
0.000142364
0.00023788
0.000182599
4.48325e-05
0.000143313
0.000165248
0.0378215
0.0138044
0.00282916
0.000190543
0.000141021
0.000200085
0.000281779
0.00015548
0.000119444
0.000136866
0.000208843
0.0176472
0.000142782
0.0180628
0.000143081
0.0276925
0.00022658
0.00015531
0.000156275
0.00781328
0.00155764
0.000144483
0.000152399
0.000139628
0.000147224
0.0177536
0.000184734
0.00018213
0.000147268
0.000160631
0.0338475
0.000121606
0.00503036
0.00228698
0.000141778
0.000143832
0.000198084
0.0172067
0.0353525
0.00449585
0.000199427
0.000172962
0.000225075
0.0343292
0.0174981
0.00482854
0.000140281
0.000190527
0.000174492
0.000188143
0.000145604
0.000157784
0.000181942
0.000286945
0.00229691
0.000147138
0.00430707
0.032504
0.000183876
0.000144163
0.000144249
0.0187034
0.000142462
0.0436189
0.000161507
0.000147836
0.000244485
0.000161885
0.00013889
0.000168547
0.000162738
0.000145846
0.0404366
0.000173057
0.0437147
0.000142909
0.0309049
0.000117817
0.000198663
0.000137743
0.000159898
0.00016821
0.000276873
0.000208776
0.000183633
0.0179319
0.000104673
0.000131832
0.000158593
0.000149285
0.000202672
0.0174887
0.00013964
0.000138561
0.000152495
0.00185548
0.000272838
0.000143252
0.000175419
0.000255299
0.000140464
0.000105422
0.00015572
0.0431121
0.00016001
0.00120762
0.0136257
0.000161082
0.000156654
9.69136e-05
0.000142409
0.000186888
0.0247571
0.000163806
0.000204804
0.00016368
0.000178441
0.0167996
0.0298807
0.000146248
0.00935544
0.00017464
0.00013832
0.000194173
0.000184635
0.000211935
2.77497e-05
0.013823
0.00544716
0.000202204
0.0234013
0.000160309
0.000179993
0.000137984
0.000148195
0.000146487
0.00014078
0.00017995
0.000271379
0.000137513
0.000206098
0.0001996
0.000142242
0.00293217
0.0195625
0.000136655
0.000148395
0.000139562
0.000151563
0.000172652
0.000144329
0.0220897
0.00016257
0.000188305
0.000158894
0.000186179
0.000226565
0.000172026
0.0096396
0.000145877
0.000152021
0.000137136
0.000142352
0.0366164
0.000186474
0.000164465
0.0257582
0.000147633
0.000149805
0.00017009
0.000140092
0.000143546
0.0001883
0.000157494
0.0259558
0.0416147
0.0322565
0.000146533
0.0438826
0.000143324
5.29008e-05
0.000138698
0.000199138
0.0482475
0.00014297
0.000410153
0.0257952
0.000169082
0.000149628
0.000140449
0.000162062
0.00278555
0.000139206
0.000148564
0.000151076
0.00016258
0.000195102
0.000152277
0.000158073
0.000141441
0.000151491
7.5889e-05
0.00016699
0.000155638
0.000201926
0.0157205
0.0360698
0.0173059
0.00015561
0.0001512
0.0252543
0.000145932
0.000183511
0.000147068
0.0192066
0.000149172
0.000148648
0.000186781
0.0110457
0.000143811
0.00014071
0.000137286
0.000192511
0.0132069
0.000207828
0.000144464
0.000154318
0.000140564
0.0330293
0.000144543
0.000829052
0.000177839
0.00014757
0.000231355
0.000173363
0.00212922
0.000149658
0.000140966
0.000163831
0.000183528
0.000232908
0.000148096
0.000149397
0.000148441
0.0304522
0.0001451
0.000150491
0.0282492
0.000153607
0.000211078
0.000156052
0.00014359
0.000144702
0.00484481
0.000153501
0.000310035
0.00237524
0.00013445
0.000389462
0.000149251
0.000201117
0.000174279
0.000150973
0.000138041
0.000134219
0.000144243
0.00967201
0.00017402
0.0316726
0.0239742
0.000141164
9.34301e-05
0.000172152
0.000322046
0.000144446
0.00180177
0.0309283
0.0144771
0.000142174
0.000152868
0.000149806
0.00655694
0.0358328
0.00014487
0.000144608
0.000163584
0.0225686
0.000147615
0.000153088
0.000152652
0.000191165
0.000104303
0.000137567
0.0142893
0.000162797
0.000144045
0.000523194
0.000178075
0.00109609
0.0180466
0.000168268
0.000157421
0.000151818
0.00016136
0.000150085
0.00025114
0.0001798
0.00014486
0.000155733
0.00023606
0.0494146
0.000139019
0.000205775
0.0445923
0.00690129
0.000145541
0.000146461
0.00313219
0.00595642
0.00794636
0.000143714
0.033521
0.00018052
0.000135274
0.0226626
0.000161095
0.000148206
0.000295999
0.000146213
6.70575e-05
0.000141697
0.000133219
0.000147029
0.000137255
0.0167031
0.000137394
0.000141125
0.000189138
0.000156277
0.000156169
0.000197643
0.000146821
0.000144528
0.000153006
0.000151498
0.00273941
0.00346584
7.71278e-05
0.0119085
0.000173812
0.00757779
0.000108291
0.0218279
0.0421831
0.0151436
0.000140886
0.000167551
0.000144642
0.000147083
0.000142862
0.000148592
0.000198016
0.000179274
0.000175661
0.000142044
0.000143887
0.000176548
0.000148426
0.00014918
0.0001469
0.0349515
0.000164714
0.0147824
0.00014635
0.00287999
0.000149698
0.000148275
0.000150361
0.000171909
0.000142045
0.000193377
0.0300645
0.000175381
0.0274899
0.00477339
0.00015713
0.000160453
0.00315014
0.000205673
0.000138626
0.000142512
0.000134454
0.0252
0.000133159
0.00533375
0.0011224
0.000190233
0.00601593
0.0151722
0.000182856
0.0415583
0.000141029
0.00013643
0.00137848
0.00939993
0.000145302
0.000146444
0.021314
0.00014016
0.000218118
0.000153306
0.00014298
0.000158875
0.000145796
0.000188337
0.0287564
0.0271096
0.000156365
0.000144092
0.000190447
0.000151918
0.000190888
0.000140595
0.000196437
0.000187543
0.000149138
0.000147872
0.00013497
0.00021976
0.000223756
0.000195813
0.000166273
0.000163356
0.0111997
0.000184998
0.000190247
0.0241023
0.000143492
0.0231745
0.000151182
0.0346145
0.000144505
0.0226443
0.0192317
0.000149172
0.000178871
0.0015836
0.000146332
0.0230553
0.000146511
0.00014585
0.000157945
0.00015021
0.000163369
0.000247745
0.000944261
0.0213441
0.000158214
0.000174488
0.000151971
0.000148099
0.000147416
0.000217041
0.000188501
0.0331892
0.000172435
0.000137915
0.00013969
0.000149889
0.000196704
0.000155836
0.000151252
0.000157557
0.000204403
0.000164161
0.000183203
0.000171472
0.0227783
0.000162863
0.000165302
0.000144473
0.000158104
8.40584e-05
0.00373039
0.00018037
0.000140116
0.000789958
0.000165842
0.000143381
0.000176481
0.031797
0.00289304
0.000169396
0.000140125
0.0158925
0.000149441
0.000140532
0.0001383
0.0419585
4.65802e-05
0.000157093
0.000128308
0.00935205
0.000163238
0.000175556
0.000182411
0.0438514
0.000164132
0.0345319
0.000149517
0.00173228
0.000170985
0.0359019
0.000166041
0.000141675
0.0351632
0.000144852
0.000151195
0.00498166
0.0111465
0.0031768
0.00088495
0.000155299
0.00015205
0.00115326
0.000143345
0.000142356
0.00014619
0.000174589
0.000144283
0.000168375
0.000164265
0.00273011
0.00163158
0.000150353
0.0234137
0.000162074
0.0335769
0.0280518
0.000146026
0.00014816
0.000157321
8.92688e-05
0.000199302
0.000186434
0.0315224
0.0178511
0.000214617
0.000150848
0.00773196
0.0239787
0.000244096
6.93237e-05
0.000147531
0.000145539
0.000146126
0.000151264
0.000142477
0.000165712
0.0275826
0.000166215
0.002816
0.0210112
0.00469711
0.0324401
0.0362269
0.000162542
0.0390869
0.000199687
0.000184945
0.00013836
0.000146656
0.000183769
0.0245794
0.000150971
0.00599307
0.0353611
0.000141453
0.000146796
0.000146586
0.000197732
0.000149783
0.000188644
0.0246239
0.000138796
0.000143712
0.000141089
0.0001509
0.000188159
0.0292415
0.000174607
0.0125339
0.000206254
0.000142439
0.00231048
0.000231178
0.000146463
0.000230648
0.000944938
0.0340394
0.011721
0.0264934
0.000145886
0.00497401
0.0308432
0.000224131
0.0124292
0.000142764
0.000153821
0.000155422
0.000153536
0.0208366
0.000186614
0.000147974
0.000160225
0.00350371
0.0308709
0.000149788
0.000175791
0.0437117
0.0351327
0.000148001
0.000162433
0.000202479
0.00014334
0.000143987
0.0502032
0.000142206
0.000210593
0.00236539
0.0245252
0.000141848
0.000189782
0.000204334
0.000143055
0.000136091
0.0263878
0.0253876
0.000148495
0.000172689
0.000217216
0.000193963
0.0396988
0.000135055
0.000158536
0.0030124
0.0033826
0.00016704
0.000141613
0.000263144
0.000136833
0.000137181
0.0256982
0.000172237
0.000198014
0.000155588
0.000160856
0.000142444
0.000137738
0.0001502
0.000151095
0.000276321
0.000155174
0.000203181
0.0192691
0.000171993
0.000187046
0.00376415
0.0331825
0.000663817
0.000139376
0.000156334
0.000167572
0.000158158
0.000220833
0.00315699
0.000150034
0.000213942
0.0301019
0.000160191
0.00018972
0.000188297
0.000191159
0.000192547
0.000152248
0.000194458
0.000195648
0.000197545
0.000198998
0.00019133
0.000191179
0.000164393
0.000140912
0.000165515
0.000189242
0.000142085
0.000284068
0.0412392
0.000239309
0.0330798
0.000135648
0.000140233
0.000925577
0.00665907
0.00015078
0.000155265
0.000179393
0.0345166
0.0204122
0.000146448
0.000168824
0.000157148
0.0147742
0.00327942
0.00015491
0.00019105
0.0308811
0.000192773
0.0335537
0.000198046
0.00271832
0.0405279
0.000130455
0.0383821
0.0338363
0.000151717
0.000187697
0.000202023
0.000157111
0.000141647
1.53211e-05
0.000283055
0.000142031
0.000142431
0.0251194
0.000123504
0.000192287
0.000148391
0.000225089
0.000205376
0.0357434
0.0274663
0.00014652
0.000143698
0.000150604
0.000154341
0.030713
0.0203042
0.0192467
0.000188186
0.00016188
0.00512532
0.000154164
0.000140165
0.0308172
0.000142399
0.0367076
0.000142672
0.0350446
0.0001517
0.000150896
0.0113738
0.000144452
0.000193645
0.0068756
0.000160706
0.000153751
0.000152
0.00019879
0.0262876
0.000226937
0.0349514
0.000164298
0.00015308
0.000160372
0.000190263
0.0415153
0.0260684
0.000201682
0.000202008
0.000196372
0.0031373
0.000158166
0.000142158
0.000138975
0.000138501
0.000240674
0.000282199
0.000827333
0.000174521
0.00020052
0.000142995
0.00373126
0.000335586
0.0144743
0.00014436
0.000152483
0.000133392
0.0328438
0.000109689
0.0012126
0.00024887
0.000195262
0.000189742
0.000134699
0.000169216
0.000220132
0.000242876
0.000181602
0.000144519
0.000197036
0.000149522
0.000148236
0.000212099
0.0142811
0.00913956
0.0001486
0.000194922
0.000722681
0.0388565
0.0203701
0.0289654
0.0263338
0.00014295
0.000183736
0.000146975
0.000198666
0.000144194
0.000209072
0.000153244
0.000176873
0.00404265
0.0077047
0.000158937
0.000209157
0.0339741
0.000191268
0.000153651
0.00636815
0.000189534
0.000150694
0.00014989
0.0227749
0.000161822
0.000217445
0.000117613
0.00179261
0.021839
0.000157945
0.0106815
0.0296923
0.0156856
0.000118451
0.000164605
0.000192792
0.000192825
0.0261793
0.00373427
0.000150305
0.000127158
0.000193375
0.000266843
0.0001622
0.0202272
0.00419156
0.00136875
0.000157974
0.0166706
0.000156003
0.0270523
0.000218769
0.000185655
0.0166112
0.000140492
0.000133346
0.0297212
0.0372147
8.27355e-05
0.000150009
0.000175286
0.000164555
0.0110911
0.000226318
0.0336655
0.000159254
0.0332488
0.000214968
0.00474383
0.000150148
0.000243201
0.0208232
0.000162701
0.00018653
0.00013525
0.000155589
0.000147049
0.00368966
0.000143116
0.000146703
0.039508
0.00747383
0.000138157
0.039834
0.000151098
0.000146633
0.000143549
0.000142113
0.000148256
0.000193591
0.0406758
0.000139288
0.000210706
0.000184009
0.000174641
0.000101369
0.000188789
0.000158363
0.00016458
0.000142919
0.00405632
0.000167073
0.0404856
0.000164717
0.0160654
9.00159e-05
0.00018888
0.00181221
0.0327059
0.000139428
0.0248461
0.000180975
0.000184524
0.000201909
0.000143639
0.000611776
0.000196949
0.000146513
0.00475901
0.000143691
0.0259595
0.000198365
0.0094401
0.000198836
0.000198644
0.0383594
0.000147168
0.000144205
0.000182244
0.000153098
0.000148132
0.00014837
0.000161332
0.000142722
0.000142467
0.000152315
0.000177255
0.000153938
0.000161906
0.000153556
0.000172887
0.000187964
0.000154798
0.0293733
0.00015403
0.000143186
0.000190097
0.000172264
0.000153939
0.000142731
0.000152216
0.000153392
0.0295155
0.000153916
0.000205177
0.000143294
0.000146
0.000209828
0.0423852
0.000185259
0.000172782
0.000135316
0.0364534
0.000147322
0.000142195
0.000186871
0.000154765
0.000212033
0.0340815
0.000193843
0.000302896
0.000174224
0.0216699
0.000146619
0.000147331
0.000184099
0.00264683
0.000181176
0.000201023
0.0171773
0.00016191
0.000146761
0.000160668
0.000226459
0.000178707
0.000146768
0.000191315
0.000188158
0.000185065
0.000148167
0.000146879
0.000216678
0.000185256
0.00199968
0.00763652
0.000154075
0.000186608
0.000148029
0.000173195
0.000205965
0.000148154
0.00021441
0.000922761
0.000194115
0.00237859
0.000146027
0.000145714
0.000142717
0.0379957
0.000203822
0.000154558
0.000209993
0.000192837
0.000147813
0.000146128
0.00211541
0.0392116
0.000215861
0.0327081
0.000287903
0.000163387
4.11372e-05
0.000194539
0.000163087
0.00319255
0.000186703
0.00281456
0.000146158
0.000187534
0.000196273
0.000151352
0.000100836