/*--------------------------------*- C++ -*----------------------------------*\
| =========                 |                                                 |
| \\      /  F ield         | OpenFOAM: The Open Source CFD Toolbox           |
|  \\    /   O peration     | Version:  v2012                                 |
|   \\  /    A nd           | Website:  www.openfoam.com                      |
|    \\/     M anipulation  |                                                 |
\*---------------------------------------------------------------------------*/
FoamFile
{
    version     2.0;
    format      ascii;
    class       surfaceScalarField;
    location    "300";
    object      phi_0;
}
// * * * * * * * * * * * * * * * * * * * * * * * * * * * * * * * * * * * * * //

dimensions      [0 3 -1 0 0 0 0];
oriented        oriented;


internalField   nonuniform List<scalar> 
20642
(
-0.0221982
0.0280579
-0.00585968
0.30069
-0.0784788
-0.222211
-0.114633
0.0958683
0.0187643
-0.351279
0.140124
0.211155
0.376664
0.0308912
-0.407556
-0.0268855
0.327575
-0.224139
0.023136
0.201003
0.00682834
0.195245
-0.202074
-0.245474
0.22272
0.0227546
0.00778859
0.00615509
-0.221544
0.228373
0.229023
0.133758
-0.362781
0.59849
-0.59849
0.176692
0.0456263
-0.222319
0.302963
0.0348253
-0.337788
-0.0272782
0.00507999
0.585488
-0.590604
0.00511558
0.0474012
-0.253707
0.206306
-0.0360829
-0.0781236
0.114206
-0.00386
0.0320245
-0.0281645
-0.0849502
-0.188112
0.273062
0.634359
-0.374789
-0.25957
0.200485
-0.145426
-0.055059
0.345027
0.289332
-0.0521074
-0.185923
0.23803
0.0697778
-0.261703
0.191925
0.00479624
-0.195081
0.190285
0.00778859
0.0968163
-0.27766
0.180844
-0.683905
0.397302
0.286603
0.00292974
0.00485885
0.0217434
-0.107079
0.0853357
0.0440672
0.25383
-0.297897
5.85473e-05
0.0311109
-0.0311694
-0.663261
0.482605
0.180656
0.329491
-0.134246
0.266004
-0.36168
0.0956758
0.618971
-0.100446
-0.518524
-0.0235206
-0.200618
0.231781
-0.00362112
-0.22816
-0.771325
0.603602
0.167722
0.411516
0.135186
-0.546701
-0.136693
0.251352
-0.114659
0.127035
-0.112935
-0.0140995
0.0125467
0.114488
0.158388
-0.0704848
-0.0879031
0.222778
-0.307728
0.0244728
-0.056462
0.0319892
0.264273
-0.287215
0.0229421
-0.409793
-0.253468
0.347654
-0.118631
-0.145839
0.0460856
0.0997533
0.0170297
-0.00058257
-0.0164471
-0.310997
-0.0909949
0.401992
0.0133978
0.361207
-0.374605
-0.0802621
-0.0655768
0.00292974
0.166444
0.0340415
-0.150729
0.562245
0.048006
0.110382
-0.0510544
0.0640251
-0.0129706
0.561413
-0.511554
-0.049859
0.472973
-0.616172
0.1432
-0.262602
0.210495
-0.0813306
0.0713158
0.0100149
0.121346
0.460835
-0.582181
-0.274028
0.083954
0.190074
0.165696
0.163795
-0.174143
-0.00264577
0.0204997
-0.017854
-0.119776
0.073235
0.0465411
0.0217526
-0.021694
-0.256938
-0.143239
0.400177
0.389978
-0.540707
0.0800581
-0.26817
-0.0540155
-0.180915
0.234931
0.422005
-0.106565
-0.31544
-0.159924
0.549901
-0.259688
0.205673
0.234801
-0.190734
-0.377871
0.441314
-0.0634431
-0.606219
0.578561
0.0276582
-0.419978
0.16304
0.0214214
0.0680897
-0.089511
-0.230504
-0.300685
0.53119
-0.0303564
-0.185883
0.21624
-0.0958303
0.117574
-0.63787
0.603859
0.0340108
-0.0284478
0.260229
0.483286
0.102203
-0.581385
0.40664
0.174744
0.115488
0.306615
-0.0423422
-0.617007
0.206063
0.410944
-0.41168
0.285695
0.125985
-0.177211
0.0248657
-0.229743
0.204878
0.589501
-0.5895
-8.30302e-07
-0.137773
-0.500097
-0.170523
-0.106066
0.276589
0.528233
-0.533221
0.0049885
0.544084
-0.0158512
0.00133866
-0.37921
0.519286
-0.592857
0.0735703
-0.00587995
0.427885
-0.0822257
0.080127
0.00209861
0.0409399
-0.0594824
0.0185425
0.420481
0.140932
0.540686
-0.405501
0.168051
-0.163255
0.531891
0.0723308
-0.0056167
0.0367276
-0.109513
-0.168147
-0.0637663
-0.0175643
0.386464
-0.180145
-0.206319
0.0971101
-0.133193
0.420071
0.161751
-0.581822
0.114563
-0.091212
-0.0233506
-0.467109
0.277079
0.190031
-0.094844
-0.511375
0.166484
-0.577643
0.411159
0.255315
-0.171361
-0.127929
0.137676
-0.00974728
-0.0176691
-0.00162746
0.0192966
0.0562824
-0.034861
0.076124
-0.269363
0.19324
0.259166
-0.179108
-0.424449
0.554266
-0.129817
-0.0986049
-0.0293239
-0.0574945
0.158066
-0.100572
0.183006
-0.0402749
-0.142731
-0.00914379
-0.0343936
0.0435374
0.169371
0.217092
-0.0717115
0.125963
-0.0542515
0.00354716
0.164504
0.0385656
-0.0599198
0.0213542
0.0175926
-0.0168497
-0.000742818
0.0552006
-0.247035
0.191834
0.618971
0.280183
-0.00412944
-0.276053
-0.560059
0.400136
-0.0669854
-0.0152402
-0.541554
0.256604
0.28495
-0.151858
-0.232849
0.384707
-0.388368
0.582093
-0.193725
-0.0657428
-0.0540334
-0.16115
0.0485283
-0.0444095
-0.00411876
-0.458532
0.147535
-0.197328
-0.0304737
0.227802
0.570313
-0.698027
0.127715
0.247514
-0.399372
-0.172038
0.196904
-0.135741
-0.334545
0.470285
0.54222
-0.0229337
0.0306126
-0.0392855
0.00867287
-0.614756
0.607447
0.00730879
0.569838
-0.149767
-0.175297
-0.329621
0.504917
0.0870898
-0.0741205
-0.0129693
0.0616775
-0.306838
0.245161
0.314221
0.0722774
-0.0338376
-0.0384399
0.0416775
-0.234421
0.192744
0.0170297
-0.0170468
-0.0398822
0.056929
-0.376681
-0.22591
0.602591
0.241249
-0.186049
0.0617855
0.308692
-0.370477
0.0525706
-0.0466141
-0.00595649
-0.0700861
-0.061692
-0.00553407
0.0672261
0.184855
-0.0957447
-0.0891102
0.601185
-0.106475
-0.49471
-0.144378
-0.206901
-0.143696
0.0197322
0.123964
-0.194248
0.136754
-0.230443
0.292121
-0.165855
-0.0840077
0.249863
0.406813
0.249658
0.0979954
0.139791
-0.0716766
-0.0681141
0.104408
0.0101544
0.183592
-0.000585256
-0.103678
0.353336
0.0507477
0.089043
-0.389345
-0.294561
0.197633
-0.227989
0.138963
0.0458917
0.126556
-0.11401
0.0177991
-0.112777
0.0949779
-0.0263336
0.000996702
0.0253369
-0.265587
-0.35142
0.0208879
-0.00263748
-0.0182504
-0.271793
0.107776
0.164017
0.0390545
-0.0481983
0.507965
-0.0253593
0.357441
-0.493182
0.281965
-0.236097
-0.0458681
0.0183704
-0.0201232
0.00175289
0.0182799
-0.000687366
-0.0839279
-0.233545
0.317473
0.159953
-0.0018787
-0.158074
-0.262166
0.297378
-0.0352123
-0.225776
-0.393576
-0.0976108
0.308495
0.132819
-0.428045
-0.117708
0.545752
-0.0564737
0.339947
-0.283473
0.264309
-0.320783
-0.00793369
0.049222
-0.120933
-0.177257
-0.0642243
0.0671356
-0.00291129
0.633988
-0.251361
-0.382627
0.725912
-0.413326
-0.312586
0.344941
0.380971
-0.0568684
-0.00877505
-0.103516
0.112291
-0.133577
0.0454513
0.0881259
0.369171
0.18052
-0.549691
0.558855
-0.0858828
-0.154167
0.157714
0.0203053
0.125805
0.323261
-0.449066
-0.37464
0.500445
-0.314281
-0.457044
0.73023
-0.385289
0.312787
0.417443
-0.00957475
0.0313273
-0.0377592
0.0565405
-0.0187813
0.0861042
0.299338
-0.385442
0.479658
0.0875685
-0.567226
-0.110604
0.145414
-0.0348095
-0.0257349
0.00260809
0.0231268
0.0128818
-0.514107
0.501225
0.526542
-0.157371
0.192164
-0.0322111
0.0773728
-0.0639099
-0.013463
-0.0804517
-0.0597692
-0.00445512
-0.144501
0.129577
0.014924
-0.342044
-0.19951
-0.0659931
0.0261109
-0.157788
0.0471834
-0.247141
0.137628
0.00436738
0.116935
-0.121302
0.232183
-0.316111
-0.0456929
-0.469113
0.21984
0.249274
0.0593434
0.0945724
-0.153916
-0.0466304
-0.129898
0.176529
-0.0159494
-0.33901
0.35496
0.603602
-0.186478
-0.336905
-0.109783
0.446688
0.377542
-0.560406
0.182864
-0.00332015
0.0220473
-0.0187272
0.0126445
-0.201357
0.188713
0.171654
-0.571376
0.399722
-0.667496
0.292856
-0.4645
0.129955
-0.281144
-0.386352
-0.192034
0.0621829
0.536307
-0.0205346
-0.161262
0.181796
0.586883
-0.415228
0.00180492
0.0162178
0.0546728
-0.0137329
0.0791636
-0.402714
0.32355
0.31553
0.116096
-0.431626
-0.142393
0.117834
0.024559
-0.741529
0.306617
0.434912
0.289299
-0.105304
-0.183996
0.0207537
-0.0240738
-0.345317
-0.396213
0.0187926
-0.0214383
0.574986
-0.197445
-0.00933185
0.0964216
0.603972
-0.00278757
-0.307443
0.38915
-0.0817073
0.281723
-0.297672
-0.33132
0.519408
-0.188088
0.112586
-0.0134951
-0.0990904
0.546818
-0.586783
0.0399651
0.229574
-0.187897
-0.276579
0.0915964
0.184982
-0.544154
0.155786
-0.238157
0.200893
0.0372644
0.0166287
-0.439032
0.451914
0.157059
-0.0175412
-0.139518
-0.345494
0.462525
-0.117031
-0.354584
0.155752
0.198832
0.487152
-0.110488
-0.0746936
-0.184995
-0.59733
0.211155
0.386176
0.0491421
0.497676
0.150179
-0.00776131
-0.142417
-0.517969
0.191562
0.326407
-0.131294
0.190637
-0.247562
0.172869
-0.362103
-0.169292
0.531395
0.0414487
-0.0108361
0.0220605
-0.00369013
-0.425685
0.555642
-0.129957
-0.653419
0.192448
0.460971
-0.185213
-0.32265
0.392364
-0.0697144
0.0978024
0.0164419
-0.114244
0.0168313
-0.053042
0.0362108
-0.0652397
0.00354766
0.509409
-0.597151
0.0877415
-0.202362
0.162087
-0.115865
0.431395
-0.019063
0.0871526
0.0743483
-0.396998
-0.0707671
-0.0438654
-0.205337
-0.393153
-0.0493743
0.352337
-0.00291697
0.515409
-0.162255
-0.353153
-0.25086
0.172382
0.0120465
0.11451
-0.489492
0.570986
-0.0814947
0.0134558
0.0391148
-0.359196
-0.250731
0.609927
0.132517
0.0284949
-0.648974
0.449323
0.199651
0.0205621
-0.0244221
-0.396069
0.558141
-0.162072
-0.00478277
0.155434
-0.150652
-0.0227866
-0.239379
0.660226
-0.150817
0.188367
-0.677859
0.128344
-0.112878
-0.0154658
-0.0648024
-0.0116985
0.0765008
-0.487429
0.19455
0.292879
0.184982
0.330426
-0.0371258
0.0315091
-0.0572535
0.0765964
-0.0193428
0.119124
-0.0732966
-0.0458271
-0.0489863
0.225679
-0.703879
0.358562
0.0999485
0.297552
-0.397501
0.0752612
-0.0634048
-0.0118565
-0.0886994
-0.113662
-0.328001
-0.375878
0.141658
-0.188487
-0.190042
0.378528
-0.0215851
0.224127
-0.202542
-0.136077
0.0263638
-0.128859
0.102495
-0.00720708
0.161962
-0.154755
0.0613917
0.227907
-0.146614
0.156412
-0.00979789
0.0285044
0.0026346
-0.031139
0.103486
-0.527935
-0.276058
-0.211371
0.302249
-0.271358
0.118918
-0.0978689
-0.021049
0.615761
-0.0559372
-0.559823
0.00172426
-0.144517
-0.00209721
-0.335671
-0.0177872
0.292991
-0.279593
0.187555
-0.0477172
-0.139838
-0.461642
-0.191776
-0.275612
0.300695
-0.0250826
0.53998
-0.402416
-0.137564
-0.0828295
-0.0943874
0.260903
-0.283689
0.364339
-0.285176
-0.100187
0.078544
0.0216429
-0.430971
0.629064
-0.198093
0.0330528
0.0392246
-0.0857171
0.127962
0.412018
0.0310027
-0.487757
0.216688
0.27107
0.333625
0.222964
-0.556589
0.134257
-0.555139
0.420882
0.0355416
-0.00351704
-0.132336
0.465961
-0.00250373
0.227624
-0.22512
-0.0406701
-0.113497
0.256755
-0.253405
-0.00334964
0.100653
-0.342516
0.241862
-0.101541
0.0478562
0.0536852
0.0135261
0.0787128
0.236343
0.0535913
-0.289934
0.0187262
0.0938594
-0.304888
-0.0878663
0.392755
0.211108
0.0456471
-0.00947672
0.105345
-0.496969
-0.197648
0.0226842
0.174963
-0.0920907
-0.155472
-0.117706
-0.446586
0.564292
0.122894
0.335265
-0.45816
0.222035
-0.588891
0.366856
-0.0455443
-0.188877
0.45277
-0.12578
-0.32699
-0.572646
0.434501
0.138145
0.363052
-0.480612
0.11756
-0.135413
-0.0283494
0.163763
-0.281821
0.0748726
0.206948
-0.757614
0.326022
0.431592
-0.673102
0.296421
0.109628
-0.0118258
0.0145825
0.172973
-0.492814
0.161494
-0.273166
0.270663
0.0734841
-0.0776802
0.00419614
-0.188628
0.262296
-0.0736677
-0.426281
0.547627
0.0471413
-0.125265
0.0660959
-0.0851588
0.266435
-0.514824
0.248388
0.334084
-0.703277
0.369193
-0.0724175
-0.207014
0.279431
-0.344796
0.467691
-0.42353
-0.252906
-0.359821
-0.343456
0.514484
-0.248048
-0.0615807
0.025197
0.0363837
0.0878116
-0.3927
-0.0323937
0.209642
-0.177248
-0.00305644
0.0192743
-0.0183623
0.175421
-0.549834
0.12179
0.396216
-0.148702
-0.0367247
-0.0648167
0.211777
0.0701886
-0.0193376
0.00166844
-0.707555
0.268308
0.439247
0.528152
-0.207442
-0.320711
-0.598106
0.167135
0.661195
-0.348407
0.325408
-0.0594038
-0.48682
0.196582
0.290238
-0.0166988
0.0901829
-0.440865
0.559917
-0.119052
0.0103874
0.188867
0.339286
0.00361525
-0.136127
0.132511
-0.411366
0.582433
-0.171067
-0.0959012
0.404396
-0.12181
-0.0226911
0.0702491
0.0488745
0.169189
-0.357676
-0.2145
0.154508
0.0599922
0.348059
0.209336
-0.557396
-0.630282
0.199913
0.430369
0.479526
-0.116474
-0.296183
-0.191575
0.427946
-0.5546
0.126655
0.439001
-0.619524
0.180523
0.00705517
-0.0565885
0.572412
-0.144467
-0.154576
-0.0835812
-0.0204649
-0.086229
0.106694
0.36175
0.209074
-0.570824
0.149633
0.026227
-0.17586
0.124543
0.00331887
0.0718213
-0.0151957
-0.0566256
-0.214439
0.190455
0.0239836
0.0228735
-0.28037
-0.203753
0.484123
-0.513716
0.233346
-0.270132
-0.136316
0.146722
-0.558088
0.332836
0.0220673
0.0767177
-0.0987851
-0.41548
-0.165904
0.301543
-0.392538
-0.21713
0.208224
-0.175559
-0.0326652
-0.0852203
0.25514
-0.16992
-0.0844927
-0.0213246
0.105817
0.13189
-0.0200232
-0.111867
0.0920077
0.363538
-0.455546
0.432921
-0.316825
-0.0587925
-0.194914
-0.0129988
-0.171345
0.184344
0.110388
0.342382
-0.137041
0.182667
0.0799075
-0.159737
0.0798298
-0.0941556
-0.182423
0.0385082
-0.0725228
0.0340146
-0.481235
0.142549
-0.155548
0.122423
-0.102691
0.138813
0.329646
-0.468459
-0.0348798
0.0320144
0.0028654
-0.272903
-0.357379
0.396057
0.265137
0.028303
-0.163716
-0.307807
-0.399747
0.505032
0.128957
0.150693
-0.000514132
0.00786869
0.0281115
-0.0775411
-0.079058
0.156599
0.305913
-0.481209
0.279946
-0.081416
-0.19853
0.122052
0.374824
-0.496876
0.112208
-0.0872336
-0.0249741
-0.102326
0.0932629
0.00906271
0.25772
-0.403379
0.145659
-0.0973243
0.153278
0.324761
-0.478039
-0.00462145
0.153163
-0.148541
0.432873
-0.420476
-0.0123973
-0.546135
0.409871
0.136264
0.0788669
0.536894
0.467631
-0.110189
0.37305
-0.490756
0.463013
-0.437143
-0.0258696
-0.199967
0.170441
0.0295263
0.595008
0.0174669
0.114423
-0.345222
0.484035
0.391748
0.03056
-0.422308
0.16287
-0.254961
0.0033713
0.037448
-0.0408193
-0.504879
-0.019335
0.524214
0.266114
-0.194386
-0.0717279
-0.168787
-0.391619
0.154849
-0.151234
0.0483711
-0.178267
0.129896
-0.169878
-0.0874334
0.257311
-0.142375
-0.216067
-0.166198
-0.168735
0.334933
0.196523
-0.00964602
0.0487006
-0.0248558
-0.0367249
0.0187059
-0.0217624
-0.436627
0.566365
-0.129737
-0.362002
0.48106
-0.119058
-0.354047
0.446055
0.415298
-0.134163
-0.281135
0.0815884
-0.0237359
-0.0578525
0.647675
-0.341058
-0.362744
0.350843
0.0119004
-0.0655313
-0.206261
0.00559374
-0.057208
0.0516142
-0.211369
0.0854968
0.00961165
0.0051751
-0.0147868
0.427216
0.145196
0.14887
-0.0854023
-0.0634682
0.523008
0.0664926
0.144467
-0.585272
0.440804
-0.0312528
0.0368465
-0.741192
0.433385
-0.0630998
-0.0248389
0.0879387
0.619544
-0.564571
-0.0549733
0.494471
-0.132721
0.117524
0.0271593
-0.111652
-0.00177226
0.464785
0.426293
-0.512413
0.0861201
0.0128179
0.0978151
-0.110633
0.14414
0.00549248
0.427537
-0.395845
0.00563446
-0.0713773
-0.0488916
0.0335625
0.0153291
-0.000135005
0.0719563
-0.520857
0.0159774
0.024578
-0.0166912
-0.00788681
0.588876
-0.482125
-0.106751
-0.0249279
-0.0349918
-0.444342
0.283192
0.54548
-0.401013
0.610174
-0.186536
-0.423638
0.31465
0.229434
-0.0889728
0.16888
-0.244087
0.160079
-0.41517
-0.210182
-0.379318
-0.75925
0.290069
0.46918
0.0809917
-0.0753572
-0.423187
0.432127
-0.00894049
0.000520162
0.114229
-0.114749
-0.104375
0.405918
0.522385
-0.0960923
-0.491753
-0.123003
0.0353013
-0.105786
-0.0810756
-0.0142426
0.0953181
-0.0182893
0.027901
0.132526
-0.128158
-0.160067
-0.0398994
-0.00922262
0.0933727
-0.0841501
-0.00505046
-0.0206844
0.543679
-0.409422
-0.0906192
-0.00134622
0.0919654
-0.447428
-0.311822
-0.0948087
-0.0182785
0.113087
0.124798
0.2905
-0.0291212
-0.0710657
-0.129485
0.502535
-0.185668
-0.251476
-0.363997
0.131148
0.0259496
-0.166155
0.180621
-0.0144658
-0.080742
0.060228
0.020514
-0.625373
0.0884939
0.536879
0.15523
-0.175764
0.107297
0.339115
-0.446412
0.483981
-0.169331
-0.00411439
0.0326188
-0.260782
0.217346
0.0434365
-0.0586943
-0.360017
0.418711
-0.0959074
0.122271
0.164439
0.567315
-0.428063
-0.139252
-0.0145453
0.584858
0.0316308
-0.0357452
-0.0766121
-0.346575
0.12562
0.378651
0.269024
-0.412922
0.354228
0.0924897
0.0264282
-0.388884
-0.309143
0.129376
-0.0286471
-0.100729
-0.580789
0.550991
0.0297986
-0.597234
0.453008
0.144226
0.0390971
-0.0953101
0.405255
0.0127033
-0.000607509
-0.0120958
0.0157146
-0.0788144
-0.261221
0.292612
-0.031391
0.100947
0.0214761
0.549962
-0.122746
0.300385
-0.26556
-0.0307934
0.0341647
0.0358756
0.0420264
-0.0779021
-0.279727
0.20731
-0.164219
-0.197461
-0.39113
0.205462
-0.210019
-0.370771
0.567284
-0.315665
-0.25162
0.520461
-0.43272
0.0345504
-0.153629
0.119078
0.18858
0.0312278
-0.219808
-0.0240673
0.0625755
0.0219661
-0.188121
-0.264821
0.245326
0.0194955
-0.0971579
-0.00516773
-0.264413
-0.253555
0.00916243
0.1572
-0.166362
-0.02437
-0.0884071
0.0214007
-0.391267
0.533911
-0.326688
-0.207223
-0.0775825
0.598044
-0.222734
-0.3745
-0.439261
0.344417
0.502339
0.105108
0.469421
-0.347369
0.40678
-0.593719
0.186938
0.0108813
0.0136967
0.177358
-0.041031
-0.136327
-0.633191
0.456076
0.177115
0.121762
-0.109716
-0.229053
-0.39632
0.0489178
-0.0320865
0.172378
0.402608
0.142928
0.411338
-0.0247115
0.0325802
-0.173145
0.0640392
0.109106
0.28242
-0.496234
-0.212026
-0.121522
0.333548
-0.609855
0.184153
0.425702
-0.555761
0.417984
0.137777
0.179795
0.0922277
-0.272022
0.174491
-0.00885171
-0.16564
-0.373628
0.5037
-0.130071
-0.00172959
0.0160528
-0.0143232
-0.0841274
0.219169
-0.135042
-0.41147
0.425972
-0.014502
0.497874
-0.215454
0.223498
0.310413
-0.0320293
-0.0168623
0.0852264
0.19472
-0.653391
0.268859
0.384531
-0.305626
-0.00467818
0.0254318
-0.118211
0.233203
-0.125427
-0.013969
-0.00536855
-0.367955
-0.0147048
0.38266
-0.562452
0.166383
0.130698
-0.556383
0.244198
0.0812101
0.011794
-0.549518
0.218127
0.331391
0.0193588
-0.105803
0.285598
0.193922
0.0721915
0.0205721
-0.436893
0.321028
-0.102512
-0.0263476
0.15181
0.0255483
0.395363
-0.109669
0.275104
-0.0403029
-0.366581
-0.286809
0.203888
-0.0293963
0.323138
0.0729047
-0.335542
0.121727
0.213814
0.123645
0.358625
-0.48227
0.0148538
0.00110164
-0.0159555
0.498462
0.0767331
-0.575195
-0.373446
0.00549119
-0.377553
0.213333
0.0514302
0.244324
-0.295754
0.0516898
0.165683
-0.217373
-0.0413721
0.0772477
0.495452
0.0831097
0.00912554
-0.122034
0.112909
-0.0932068
0.0121312
0.23867
0.301299
-0.539969
-0.136028
-0.291864
0.427891
-0.179789
0.515404
-0.108624
0.100317
0.267669
-0.367986
-0.405986
0.200957
0.205029
0.393326
-0.103042
-0.290284
0.141568
-0.072145
0.107446
0.0268642
-0.400927
0.559389
-0.158462
-0.0126445
0.0824698
-0.0698253
0.065638
0.157082
0.20538
0.00284425
-0.120277
0.391165
-0.291216
0.073266
0.0756045
-0.0284623
-0.201281
0.399227
0.131292
-0.530518
-0.122833
-0.050312
-0.132375
0.161962
-0.029587
0.157243
-0.0054329
0.55331
-0.394762
-0.158548
0.413036
-0.530744
0.346013
0.221271
0.000376497
-0.0970586
0.350889
-0.603276
0.38285
0.220427
0.163381
-0.030864
-0.528657
0.155028
-0.5658
0.420605
0.145195
0.0137274
-0.0939895
0.201112
-0.279639
0.389084
-0.109445
0.0842502
-0.272878
0.210034
-0.231619
0.0698425
-0.29293
-0.113056
-0.307193
0.200628
0.022307
-0.100396
0.0780886
0.409595
0.135885
-0.597949
0.1802
0.417749
-0.375845
-0.302014
0.526139
-0.531748
0.00560966
0.241626
-0.343331
0.101705
-0.305136
0.197298
0.107837
0.0704261
-0.240304
0.391118
0.162193
0.621392
-0.183592
-0.4378
-0.356095
-0.12893
0.485025
-0.358242
-0.0861
-0.149929
-0.160793
-0.0536453
-0.380666
0.127982
-0.0110466
-0.356817
-0.0619586
0.0938805
-0.0319219
0.0951734
-0.374813
-0.477577
0.101732
-0.00814439
-0.0448976
0.282255
-0.0950336
-0.187221
0.0194098
0.0955725
0.168864
-0.335273
-0.0286578
0.363931
0.122058
0.317337
-0.439394
0.55037
-0.417174
-0.133195
-0.417917
0.28189
0.0189129
-0.0406798
0.0217669
-0.176778
0.199813
-0.0230347
0.0239911
-0.285212
0.174585
0.0877106
-0.297478
0.397795
0.0206241
0.136619
0.668997
-0.189339
-0.409202
0.501096
-0.0918939
-0.476239
0.113172
0.363066
0.483877
-0.396309
-0.0407961
0.263193
-0.0973919
-0.165802
0.00516093
-0.340434
0.115981
-0.018871
-0.0309548
-0.378727
0.409682
0.293141
-0.516944
0.223803
0.323998
-0.5179
0.193902
0.151785
-0.158992
0.149036
-0.300488
0.410627
-0.110138
0.074229
0.228397
-0.302626
-0.361879
0.499585
-0.137706
0.0188639
0.492626
-0.199486
-0.0746463
-0.175778
0.250425
0.281701
0.113662
0.0248328
-0.00259618
-0.0222366
-0.0203546
-0.378391
0.245966
0.132424
0.0113514
-0.146658
-0.0678421
-0.0024454
0.0236673
0.368697
-0.41465
0.565632
-0.150982
0.547838
-0.447537
-0.1003
-0.1013
0.3788
-0.277499
-0.0718342
-0.243813
0.315647
0.459191
0.0271095
-0.505926
0.360597
0.145329
-0.15542
-0.126401
0.101503
0.0193195
-0.088418
0.0690984
0.226838
-0.323896
-0.0304538
-0.151821
0.182275
-0.171135
-0.0060172
0.177152
-0.553931
0.414617
0.139313
-0.192345
0.188724
0.26061
0.0216449
0.554869
-0.177147
-0.377722
-0.00634192
-0.178071
0.184413
0.180154
0.448909
-0.00758352
0.0438719
0.142979
-0.108428
-0.604996
0.169299
0.435697
0.150631
0.405011
0.233292
0.23107
-0.53154
0.369285
-0.469933
0.113838
-0.03947
-0.400105
0.560394
-0.160289
-0.0680387
0.364422
-0.493907
-0.263041
0.533313
-0.270272
-0.416054
0.13466
0.281393
0.104245
0.333277
-0.437522
-0.0762768
-0.38322
-0.128334
0.156852
-0.556956
0.315086
-0.0685518
0.301807
0.0190728
-0.32088
0.00704133
-0.559197
0.414228
0.144969
0.20855
0.219547
-0.662941
0.443394
-0.352853
-0.11708
-0.022189
0.0248236
0.484744
-0.160746
-0.148955
0.289079
-0.0064655
0.128228
-0.0280487
0.655221
-0.435674
-0.396068
0.381868
0.0141997
0.104859
-0.0825523
0.56036
-0.409554
-0.150805
0.0886952
0.304061
-0.392756
0.119181
0.0854154
-0.162538
-0.305531
0.468069
-0.0892857
0.102104
0.289604
-0.348881
0.0592771
-0.0256945
-0.00918527
0.292246
0.0969038
0.0918161
-0.0120422
-0.0797739
-0.350611
-0.459306
-0.11678
0.576086
-0.589434
0.457098
-0.098234
0.537235
0.654296
-0.155833
0.0442885
-0.0539345
-0.0878649
0.328391
-0.240526
-0.611314
0.236815
0.374498
0.315953
-0.342737
0.0267839
0.157944
0.12516
0.422678
-0.105258
0.305629
-0.0692861
0.0178221
-0.209158
0.176764
-0.117603
-0.00524075
0.122844
0.0931859
0.231992
-0.0380696
-0.00620702
0.028906
-0.022699
-0.380479
0.116534
0.263945
-0.114228
-0.248285
0.413412
-0.165127
-0.0203098
0.00347519
0.0168346
-0.466794
0.202164
0.115103
-0.317267
-0.220541
-0.4424
-0.201879
-0.354539
0.556418
-0.629948
0.409407
0.603044
-0.178191
-0.424853
0.56718
-0.44113
-0.126049
0.126616
0.296307
-0.422922
-0.172765
-0.0306569
0.203422
0.541346
-0.142119
0.245426
-0.333291
-0.0154965
-0.112679
0.128176
-0.0553735
0.0746337
-0.0192602
-0.0828486
0.0208899
0.124262
-0.130727
-0.222848
-0.424282
-0.165152
0.476961
-0.338166
-0.138795
-0.0229742
-0.0774214
0.398798
0.0340748
0.0127033
0.142688
-0.418379
0.275691
0.145744
-0.00793963
0.511218
-0.503279
-0.303706
0.415663
-0.111956
-0.284406
0.427094
-0.420697
-0.177409
-0.372171
-0.133991
0.506162
-0.149882
0.159045
-0.242889
-0.368425
0.0309892
-0.0313662
0.000376997
0.390301
-0.374084
0.526467
-0.152383
-0.0288882
0.0478011
-0.421052
0.172767
-0.279927
-0.308964
-0.103828
0.524309
-0.00502798
0.0366587
-0.0592084
0.201758
-0.203901
0.581073
-0.377172
-0.198535
-0.468365
-0.151976
0.62034
0.537987
-0.0182945
0.0800989
-0.0618044
0.119778
-0.0495913
-0.219606
0.269197
0.185418
-0.334373
-0.355799
0.36096
-0.201775
0.590402
-0.447327
-0.143075
-0.0644229
-0.171674
0.381449
-0.412404
0.0648021
-0.231
0.0244123
-0.0294627
0.306066
-0.441544
0.135479
-0.433041
0.332594
0.374964
-0.286269
-0.510864
0.354413
0.156451
-0.141564
0.00766334
-0.109444
0.101781
0.0268694
0.138149
0.225133
-0.0365525
-0.0276456
0.0229674
0.0397861
-0.00879686
-0.0724768
0.453926
-0.100773
0.108436
-0.420073
-0.151303
0.003529
0.021406
-0.024935
-0.45369
-0.123953
0.047823
0.0310381
-0.078861
-0.13452
0.00968753
-0.207335
-0.285832
0.306421
-0.0205886
-0.0826088
0.0724393
0.0101695
0.0132022
-0.0825478
0.0693456
-0.643267
0.227532
0.415735
0.0952886
-0.411188
-0.449794
-0.309057
-0.196869
0.167598
0.382891
-0.101189
-0.0760509
0.365655
-0.167217
0.00806075
0.159156
-0.0200157
-0.000421573
0.0204373
0.136713
0.193596
-0.0249143
0.00422987
0.523344
0.0961997
-0.17681
0.464794
-0.287983
-0.318797
0.0459971
-0.0624158
0.0164187
0.218632
-0.290466
0.0198734
0.569003
-0.137119
0.160255
-0.259459
-0.139368
0.398827
-0.403207
0.268795
0.124531
0.0569661
0.18146
-0.238426
0.301226
-0.402527
0.0369606
-0.425991
-0.217276
0.431392
0.146766
-0.578159
-0.0774402
-0.122888
0.428953
-0.0212985
0.00201521
0.0192833
-0.328951
0.116925
-0.103634
0.330472
-0.432275
0.553395
-0.12112
0.0258203
-0.403756
0.626719
0.148531
-0.292967
0.0859529
-0.19366
-0.117886
0.311546
0.217461
-0.0320433
0.443214
0.212007
0.0571558
0.473354
-0.349708
-0.486689
0.137374
0.349315
0.0164611
-0.129084
0.112623
-0.438492
-0.00809356
0.549008
-0.310338
-0.0964142
-0.0325565
0.128971
0.0827145
-0.103179
-0.0178652
-0.104169
-0.118395
0.0281081
0.0902867
-0.229267
-0.320251
0.0783289
-0.0950277
0.0356683
0.00736162
-0.0430299
0.528647
0.090324
-0.0729435
0.248177
-0.424987
-0.00732516
0.160488
0.130692
0.0147216
0.448483
-0.335311
-0.0633511
0.227436
-0.164084
-0.402814
-0.182458
0.239985
-0.176697
-0.0632882
-0.189949
-0.250185
-0.0923308
-0.0335165
0.0813726
-0.155741
-0.0207719
0.176513
0.0243195
-0.156695
-0.0784775
0.0461688
0.0323087
0.0868776
-0.0100477
0.109099
-0.0990511
-0.219575
-0.410126
0.106419
0.362419
0.0914638
-0.453883
0.581866
-0.150473
-0.593149
0.449286
0.143863
-0.4025
0.544221
-0.141721
-0.22103
-0.0679198
0.081122
-0.594853
0.432303
0.16255
0.0798163
0.248575
-0.148514
-0.254494
-0.118027
-0.22836
0.346387
0.166329
-0.00436731
-0.136707
0.0387416
0.0979653
-0.301707
0.111082
-0.547709
-0.225072
0.150426
0.0499954
-0.48227
-0.293062
0.266177
0.0255311
-0.0317382
-0.1037
-0.220895
0.324595
0.148729
0.313799
-0.462528
0.152177
0.00442216
-0.430898
0.326309
-0.246492
0.0429894
-0.00732116
-0.0177695
0.388555
-0.102168
-0.286387
0.176567
-0.165334
-0.0112335
0.308727
-0.0867136
-0.222013
-0.0175738
0.00360477
-0.0311804
0.248526
-0.238293
0.153073
-0.0191594
0.0923944
0.540569
-0.0599609
-0.0978268
-0.0555085
-0.100689
-0.403837
0.414922
-0.291932
0.28498
0.0069516
0.520786
-0.00630189
-0.0888643
-0.0117489
0.519773
-0.508024
0.238986
-0.357013
-0.344229
0.0602602
0.274725
-0.144855
0.160796
-0.0159414
0.588013
-0.179574
-0.408439
0.115042
-0.0800124
0.252574
0.053055
0.0837477
0.02846
0.238758
-0.444713
0.126468
0.318244
0.0069398
0.237912
0.122011
-0.359924
-0.0796078
0.317631
-0.238024
-0.497663
0.322564
0.175099
0.0036446
0.0197331
-0.0233777
-0.0162108
0.148736
-0.0295904
0.196133
-0.265131
0.0689984
0.0164543
-0.055586
0.150984
0.0109785
-0.166641
-0.245548
-0.132843
0.176667
-0.0214376
0.388384
-0.574919
0.402984
-0.298739
-0.127479
0.000865236
0.126613
-0.229994
-0.183408
-0.180667
-0.0810354
-0.194862
0.251828
-0.311285
0.117625
-0.118452
0.134913
0.0149638
0.0768524
-0.471125
0.141504
-0.131063
0.136155
-0.00509207
-0.0806631
-0.275136
0.299542
0.111085
-0.353088
0.488854
-0.135766
0.180606
0.401487
0.0831541
-0.0684908
-0.0146634
0.0910489
-0.100272
0.580684
-0.434926
-0.145758
0.154763
-0.617797
0.184169
0.433628
0.0246841
-0.403411
0.0160212
0.356255
-0.432306
-0.160402
-0.338068
0.49847
0.0247964
0.495989
-0.277572
0.0346152
-0.498386
0.463771
0.320462
-0.0762637
0.0686548
0.0144993
0.114778
0.168212
-0.226251
0.0580387
0.429026
0.15284
-0.425349
-0.00390405
0.128166
-0.0209193
0.0669164
0.0555726
-0.0391183
-0.126787
-0.498593
0.547735
0.339499
-0.499902
-0.0912897
0.336716
0.0397199
-0.446485
-0.158511
-0.00480532
-0.0679506
0.0108256
0.126429
-0.137254
-0.0929559
0.253035
-0.599358
0.17686
0.422497
0.29736
-0.100062
-0.0151201
0.454625
-0.392927
-0.0616982
-0.20718
0.24454
-0.0373606
-0.415189
0.55855
-0.423948
-0.134602
-0.364447
0.221208
0.00615591
0.0334316
-0.0395875
-0.177086
0.148736
-0.146429
0.575455
-0.124711
0.139137
-0.0144262
-0.405131
0.000322734
0.117512
-0.463361
0.212
0.400129
0.165411
-0.565539
-0.0746428
-0.374509
0.0783377
0.376288
0.267598
0.120956
-0.0962961
-0.0195183
0.115814
-0.185498
0.245225
-0.0597263
-0.0917768
-0.206121
0.487059
0.00556767
0.123873
0.43126
0.114493
-0.542385
0.244907
-0.207064
0.0342989
0.176588
-0.000701595
-0.175886
0.0146679
-0.0163975
-0.215972
0.191659
-0.198001
-0.145215
0.160685
-0.0154701
-0.00846635
0.15945
0.161595
0.40477
0.164216
0.0909239
0.117983
-0.0298576
-0.0903229
0.0722628
0.0180601
0.0374375
0.0172353
-0.115233
0.360789
-0.245555
0.282339
-0.497825
0.215486
-0.0166652
-0.627019
0.288951
-0.502096
0.0983407
0.194511
0.0797155
-0.274226
0.0172972
-0.35074
0.129228
0.221512
-0.427105
0.0766702
0.0235593
-0.10023
0.206417
-0.154727
0.0941551
-0.353758
0.259602
-0.183283
0.414353
0.0303745
0.0472797
-0.0776542
0.0734942
-0.0901426
0.0166484
-0.020864
-0.00405028
0.360587
-0.489517
0.102707
-0.427786
0.325079
0.00876264
0.456662
0.113176
-0.494701
-0.0201226
-0.168706
0.175172
-0.00646604
0.0104134
0.415559
-0.268457
0.0852955
0.183161
-0.197319
0.15517
0.0421481
-0.314926
0.223149
0.0665677
-0.0782662
0.130412
0.362604
-0.493017
-0.122109
0.382969
-0.26086
-0.1311
-0.180185
-0.224688
0.507027
-0.0152602
-0.0750627
0.112524
-0.473857
0.361333
0.557914
-0.157648
-0.00956873
0.1084
-0.124638
0.0162385
-0.0902739
0.0643114
0.0259624
-0.0167698
0.0924878
-0.075718
-0.157287
-0.274062
0.431348
0.105171
0.0820989
-0.18727
-0.356463
0.529066
0.0602927
0.314671
-0.528937
0.520998
-0.190607
0.359796
0.0808555
-0.0961156
0.0350358
0.321219
0.132517
-0.167327
0.44565
-0.0832313
-0.570627
0.412311
0.158315
0.136757
-0.446312
-0.139277
0.585589
-0.161079
-0.00398731
0.0226932
0.444332
-0.59309
0.148759
0.269317
0.109332
-0.124829
-0.540686
-0.118259
-0.0878352
-0.109483
-0.0707217
0.175893
0.289431
0.114657
-0.404088
-0.51303
-0.153732
-0.370373
0.524104
0.415338
0.143212
-0.564596
0.39458
0.170016
-0.241632
-0.135063
0.492685
-0.357622
0.325401
0.216819
0.042479
-0.510844
-0.411036
-0.111395
0.522431
-0.0900864
0.267565
-0.177479
-0.181888
0.0147601
0.0523755
0.0130488
-0.157904
0.139556
-0.357606
0.527793
-0.170187
0.552618
-0.447984
-0.104634
0.145892
0.0149047
-0.564446
0.15009
0.414356
0.147158
-0.316946
-0.281003
-0.286469
-0.265557
-0.390021
0.153897
-0.367747
0.257204
0.110543
-0.0898712
0.0756287
0.442374
0.145639
0.588078
-0.143747
0.248324
-0.0597779
-0.188546
-0.625838
0.184019
0.44182
0.62501
-0.189817
-0.435194
-0.0309699
0.313715
0.101947
-0.323997
-0.00559535
-0.16311
-0.127156
-0.00271997
0.174907
-0.0586769
0.22436
0.169542