/*--------------------------------*- C++ -*----------------------------------*\
| =========                 |                                                 |
| \\      /  F ield         | OpenFOAM: The Open Source CFD Toolbox           |
|  \\    /   O peration     | Version:  v2012                                 |
|   \\  /    A nd           | Website:  www.openfoam.com                      |
|    \\/     M anipulation  |                                                 |
\*---------------------------------------------------------------------------*/
FoamFile
{
    version     2.0;
    format      ascii;
    class       volScalarField;
    location    "250";
    object      ddt0(epsilon);
}
// * * * * * * * * * * * * * * * * * * * * * * * * * * * * * * * * * * * * * //

dimensions      [0 2 -4 0 0 0 0];


internalField   nonuniform List<scalar> 
14315
(
3.67644e-09
1.68437e-05
4.34254e-11
6.92374e-11
-6.47077e-11
-1.80214e-11
7.69167e-11
-4.55637e-11
0.000123119
5.02492e-11
-6.82038e-12
-2.31419e-09
-3.92344e-05
5.70482e-11
2.42012e-11
-1.09796e-10
-5.55107e-11
3.4524e-05
4.46195e-12
4.26892e-11
9.06026e-11
-3.89654e-11
2.58958e-11
-3.61242e-11
0.000226611
-4.94923e-10
6.25975e-07
9.70219e-13
1.33263e-07
8.24386e-12
2.26887e-10
1.17679e-11
1.39725e-05
-4.10273e-09
6.59449e-11
1.21782e-11
-1.1388e-11
1.9726e-10
-9.35749e-13
3.47186e-10
0.000106679
-1.5333e-10
3.17342e-11
3.26968e-09
-1.16106e-09
-1.51072e-10
5.24472e-11
-1.84834e-12
1.39688e-10
4.95083e-11
7.04364e-13
-1.19202e-09
1.42751e-11
4.61831e-12
1.29282e-11
-2.84853e-10
-4.30093e-07
-3.93937e-11
-2.31188e-10
0.000175765
1.91086e-11
-8.00752e-11
-8.1639e-10
4.503e-12
4.10008e-11
-4.12274e-11
5.42687e-11
-5.75999e-11
2.83168e-11
9.20969e-12
-2.32231e-11
3.79656e-12
9.91822e-12
1.19281e-10
4.92355e-11
1.31383e-11
1.35358e-11
7.01437e-11
1.16216e-12
-7.7022e-09
-3.87833e-11
4.11811e-05
1.00988e-10
7.48791e-12
7.18716e-12
-1.47705e-05
-9.35664e-10
-4.07281e-11
-1.00492e-11
-6.84418e-11
2.81471e-11
-0.000494138
-4.21837e-05
2.25854e-11
2.48007e-11
-3.62252e-11
7.62957e-12
-3.94181e-11
5.46842e-11
-1.71255e-10
-2.18309e-10
-3.29936e-09
3.56659e-11
-7.49274e-11
-1.47021e-11
-1.63586e-10
-9.00716e-11
-2.09891e-10
4.54329e-11
4.33083e-10
1.60113e-10
1.86149e-09
2.76358e-12
3.88068e-08
-1.08336e-10
-8.20454e-10
-8.87282e-11
9.55448e-12
4.90249e-05
2.01634e-05
-1.74846e-11
-8.48528e-11
3.69071e-12
-1.68901e-10
-2.32151e-08
-9.81659e-11
-7.54378e-07
7.52205e-09
3.01332e-12
-1.00579e-10
5.07782e-10
-3.57382e-05
-4.26218e-05
-1.10894e-06
8.76761e-12
2.2419e-12
0.000900793
3.9815e-08
-3.44784e-05
5.58224e-05
-3.818e-10
-1.96488e-07
8.71679e-12
-1.98463e-05
7.91439e-07
1.99795e-10
-1.00773e-11
-5.1831e-11
2.22343e-10
-6.30905e-10
-2.50679e-11
-2.70037e-12
6.81629e-12
-1.77541e-09
2.44456e-12
3.9938e-11
-1.49626e-10
5.65595e-12
-1.27318e-06
-5.86021e-09
-1.46034e-10
7.52616e-11
6.76619e-07
4.36653e-10
2.61779e-11
-0.000114809
-3.99279e-13
-7.76995e-10
8.99004e-11
-1.60144e-10
3.73244e-05
-0.000610981
3.76132e-11
-5.00193e-11
-0.000150443
-7.32455e-06
-9.03101e-10
-8.97162e-11
-6.9528e-10
-1.54037e-08
-5.75037e-07
-1.51754e-10
8.50393e-13
-2.57577e-10
1.09358e-10
5.4476e-05
1.20993e-10
1.3762e-10
-9.01914e-12
2.40637e-10
7.83338e-11
1.24552e-05
1.41512e-06
-1.32786e-12
-2.89988e-11
-1.31365e-10
-1.18831e-08
-1.49603e-10
-1.30024e-10
6.41361e-10
4.49114e-06
4.40004e-11
-1.84476e-08
1.38305e-10
-3.86453e-11
6.21047e-11
1.10465e-10
8.80296e-12
6.45642e-11
6.90852e-12
-1.77924e-11
1.76288e-10
-9.2524e-09
-6.17094e-10
2.05267e-05
-3.6228e-11
-3.44475e-08
-2.22755e-10
1.21936e-10
1.26471e-10
-8.16612e-07
-3.09671e-10
3.81455e-06
-4.93433e-05
5.00926e-11
-1.68864e-10
-9.63842e-11
5.31943e-10
-5.10368e-12
2.1639e-10
-1.67926e-10
-0.000133366
-3.64797e-12
5.46352e-08
-1.76711e-11
-7.06941e-12
-1.00793e-09
-7.52663e-12
-1.69022e-10
0.000726514
0.000251034
-1.38688e-10
1.50794e-11
-3.38183e-05
-1.05354e-06
1.52453e-10
4.93554e-05
2.54206e-11
-1.98152e-12
-6.70668e-12
-1.60511e-10
-1.62244e-12
0.00117812
-7.57598e-12
2.54725e-11
-0.000214949
0.000417651
-1.78039e-08
8.27301e-07
1.68589e-10
-8.10248e-11
4.44347e-11
-7.99675e-13
0.00098416
2.19736e-10
4.93154e-08
-2.63068e-10
-2.73793e-06
1.5788e-10
1.90603e-10
1.90903e-08
-1.47379e-11
-2.0426e-12
1.09119e-10
1.39353e-10
3.37619e-11
-3.76344e-07
-6.98688e-13
-3.18028e-10
1.2031e-10
4.51536e-11
4.06958e-10
-2.10821e-10
9.47593e-11
-1.95702e-10
0.000106058
-8.85914e-05
-1.57768e-10
2.99636e-12
1.78493e-11
-1.06204e-08
-7.34872e-11
9.27752e-11
2.8545e-07
7.25387e-12
8.35903e-11
1.48603e-11
1.86259e-06
-1.55493e-11
6.23428e-06
-8.96516e-11
1.12898e-10
-1.02576e-10
-3.13498e-11
-8.27741e-11
2.4401e-11
1.63041e-11
-1.43411e-10
3.49143e-10
-1.10397e-09
4.251e-12
5.64882e-12
-4.58135e-11
-2.07901e-10
-1.71598e-10
-0.000190154
1.07041e-05
3.11977e-11
1.40186e-10
0.000296978
1.90812e-10
-3.30993e-10
-9.09391e-07
2.24598e-11
-2.93549e-11
-2.70728e-10
-4.14376e-08
2.88149e-11
-3.63992e-07
1.81365e-11
3.0122e-05
-1.6449e-06
-0.000540947
3.45928e-06
-3.91228e-05
2.68997e-11
-2.15428e-07
2.84722e-10
-0.00021272
2.76327e-12
2.15444e-10
2.96563e-05
-0.000590585
1.6912e-11
2.72902e-11
0.000291139
8.55812e-07
0.000106157
-3.05542e-12
3.01866e-12
9.28474e-05
2.50262e-06
4.25835e-11
5.52714e-11
2.05671e-09
-6.12546e-10
-4.43835e-10
0.000171369
-0.000141386
2.5124e-11
4.85553e-10
8.73432e-07
5.44504e-12
-6.60157e-12
6.55675e-12
-1.21311e-10
-3.00024e-10
-1.59158e-10
5.58402e-11
2.35622e-11
8.94008e-07
-6.77237e-05
1.84065e-10
-0.000154171
8.65149e-11
-5.15521e-11
6.18851e-07
-2.77e-05
-1.55697e-10
8.1175e-12
1.00649e-10
-1.17456e-10
-5.27465e-07
-3.05452e-10
3.41779e-11
-9.96449e-10
-2.70555e-07
4.99262e-11
-7.67047e-05
-1.06892e-09
-8.50369e-05
-6.18499e-11
7.3915e-13
7.43436e-11
-9.79223e-12
8.97906e-12
8.17057e-14
-8.23437e-11
-2.34917e-11
6.32286e-10
-5.0217e-11
-1.84114e-10
2.69472e-07
4.21241e-11
-1.4384e-05
3.41143e-06
-0.000308124
1.52036e-09
-6.97354e-10
7.1122e-10
2.19034e-13
-6.11294e-11
-4.07914e-11
2.07491e-06
5.25279e-10
1.04946e-10
2.65303e-11
-1.24866e-09
-5.61096e-12
5.18539e-06
-2.03512e-07
0.000116127
-1.25036e-08
-1.44044e-12
-6.33011e-12
-3.94659e-11
-9.38044e-11
6.4963e-11
-2.07501e-07
7.04187e-06
-1.8377e-06
3.50666e-11
-4.00454e-11
5.46055e-10
-3.63874e-10
-1.2057e-12
0.000138655
5.01498e-08
-6.67628e-11
-1.1849e-10
-4.07632e-08
5.98582e-12
-4.68079e-11
-8.54896e-07
0.000158093
-1.89318e-08
6.44787e-12
6.15466e-12
1.74795e-11
-5.68896e-11
5.26316e-10
6.28701e-11
2.08664e-05
1.20029e-06
1.16136e-11
1.79636e-05
-1.05498e-12
-2.11199e-09
9.01252e-11
-1.44672e-10
1.44325e-05
4.50769e-12
-1.59341e-08
2.19603e-05
2.24039e-08
1.32123e-12
0.000103026
0.000156752
3.58939e-09
-5.37159e-11
-2.06898e-09
3.60848e-11
-7.16228e-11
-3.52725e-11
-1.06024e-10
-6.03385e-10
-5.81194e-09
5.10567e-06
-3.66856e-10
-1.22621e-11
2.89853e-09
1.21629e-12
6.25578e-06
-1.96006e-10
1.33175e-12
3.32789e-06
-3.65214e-08
-1.82281e-10
1.29309e-05
-1.64783e-11
0.000173247
1.18992e-10
-4.62101e-11
-1.28002e-10
0.000153722
-8.72373e-10
3.67173e-08
-9.77952e-11
-1.22554e-10
-3.34875e-12
-6.81306e-06
2.94598e-11
-3.55991e-05
-4.57391e-12
1.25831e-07
-1.68658e-11
2.54825e-12
4.97427e-11
-2.21907e-10
-4.66592e-12
-1.09345e-08
-1.2994e-10
-1.9568e-12
9.81563e-07
1.64065e-11
-1.16622e-10
1.47274e-10
2.82899e-07
-4.46993e-13
1.53748e-07
-2.05345e-12
1.24456e-06
5.74977e-08
-3.89969e-05
1.57749e-06
9.01108e-10
-4.93258e-11
3.86493e-09
1.38051e-05
-8.10168e-11
1.86456e-11
3.02601e-07
-1.15829e-10
-1.34733e-11
-1.97545e-11
-2.30017e-10
-1.70195e-09
4.17937e-12
0.000966749
3.4145e-12
-1.5568e-12
-1.19968e-05
1.45077e-06
3.47836e-12
-3.34782e-12
1.56436e-11
2.6851e-11
-8.28199e-11
9.30753e-05
-1.06707e-11
-3.71265e-12
-6.22083e-11
-2.26049e-11
2.22744e-11
-2.26734e-10
-3.38987e-11
-4.72935e-11
2.72555e-10
-1.58691e-10
2.35602e-12
-1.05648e-10
-1.70612e-07
-7.94349e-11
0.000212819
-5.80743e-07
-1.10627e-10
-8.82261e-11
-6.72643e-09
5.7312e-07
-5.42702e-10
-1.57373e-11
3.34735e-11
-1.80785e-09
4.75769e-11
-6.87058e-07
-3.19488e-08
1.42633e-08
-3.70888e-11
1.71005e-08
2.94938e-05
7.45172e-11
9.25093e-05
-1.51748e-08
-5.76277e-10
2.37079e-11
-0.000104557
1.29493e-11
-4.69869e-07
-1.46022e-11
8.10143e-07
3.43866e-11
2.54852e-12
-7.03381e-08
5.78474e-05
0.000423218
1.26961e-06
4.17115e-11
7.63326e-11
0.000128604
8.52114e-12
-0.000189698
-3.40844e-10
-1.20353e-10
-2.23575e-12
2.4494e-11
-7.5378e-11
-8.87483e-11
-3.07756e-10
-1.50726e-11
1.60983e-11
1.97997e-09
1.73614e-11
-1.46627e-10
7.161e-12
8.37209e-12
-4.4123e-12
2.12967e-11
-1.94958e-05
-3.42033e-10
-7.00026e-11
4.47642e-06
1.16319e-11
-4.2506e-07
5.68108e-05
1.61636e-12
-1.87256e-11
-2.92287e-10
-1.26619e-06
-6.69559e-10
2.07526e-11
1.55603e-06
-1.65083e-07
-2.46289e-10
-0.000165677
-3.8518e-11
9.54943e-11
-8.51898e-12
-4.18213e-07
-2.76581e-10
9.31888e-12
9.46914e-10
2.10493e-10
3.64145e-11
-9.87022e-11
-1.44724e-09
-1.23641e-08
-9.77715e-11
1.53421e-10
-8.20192e-10
-9.64822e-10
2.2825e-08
-1.06103e-10
-0.000161591
1.35727e-12
5.54273e-09
-1.2585e-12
-8.43308e-05
-1.2002e-10
1.00914e-09
6.55236e-11
-4.99586e-06
-2.82753e-11
4.2134e-10
-9.91477e-05
1.04716e-10
2.17422e-11
-6.48878e-05
5.81844e-08
-3.03835e-11
6.76643e-11
-2.7993e-09
1.73536e-06
-1.09679e-05
-2.23639e-11
9.61159e-06
1.19876e-11
9.13656e-11
6.78466e-11
-6.52947e-06
1.06776e-11
-3.28263e-11
-1.12754e-12
1.95706e-11
-3.2592e-11
9.43707e-05
5.57318e-06
-7.74779e-12
-2.74665e-11
3.0821e-11
-2.25339e-11
7.52048e-13
-0.000358422
-4.58471e-11
-1.87675e-10
-1.35868e-10
3.00853e-11
-3.16257e-11
-0.000142716
-3.73159e-09
0.000173218
-2.38177e-12
-9.82852e-11
-5.06306e-11
-8.79837e-12
-3.38621e-10
1.72995e-08
-6.157e-12
1.73615e-11
1.22305e-06
-7.58672e-05
6.83802e-08
-9.67522e-11
2.16894e-11
0.000462896
1.17047e-05
-1.93967e-11
2.80313e-06
5.37159e-11
-2.42954e-09
2.1058e-09
-4.05557e-10
-1.37403e-10
-0.00051982
2.68482e-06
-5.92181e-10
-1.25778e-10
-8.18191e-12
-5.54011e-11
4.39593e-09
0.00099798
-4.13828e-12
1.77e-09
-2.20533e-06
-1.26058e-08
-1.02427e-08
0.000902467
0.000469441
-3.41817e-13
-1.27776e-10
6.93827e-10
-2.19231e-10
-1.03145e-10
1.43871e-12
5.61063e-10
-0.000152676
-5.27121e-11
-4.6314e-12
1.48367e-10
4.1246e-06
5.52323e-11
3.49891e-11
-4.76782e-08
-7.04858e-11
5.61517e-11
-1.92352e-09
0.000137347
-3.27278e-06
6.33511e-05
-5.12694e-11
-1.76117e-11
0.000109231
1.43117e-05
7.96913e-06
7.87176e-12
-2.20595e-10
0.000203993
1.66147e-11
-3.87585e-11
5.36806e-09
-9.95052e-06
-2.16614e-11
9.91132e-12
8.03924e-06
1.48677e-11
-6.16357e-11
2.96047e-11
2.63922e-05
5.41571e-12
1.15953e-10
-0.000470753
-3.81023e-10
3.02684e-07
-2.40366e-11
1.44872e-10
9.27694e-11
2.79008e-12
2.98697e-05
0.000120304
1.20531e-10
7.86204e-11
4.72538e-11
5.71038e-05
2.49538e-11
-1.61379e-10
-9.17334e-11
-3.71127e-08
0.000100454
1.3871e-11
-1.89881e-08
2.44078e-11
-9.76233e-12
-1.45902e-09
-5.54735e-08
5.87773e-06
-7.28252e-08
-3.09063e-11
1.23963e-10
-3.40163e-12
-7.86485e-08
8.26712e-11
2.45224e-10
1.6594e-10
2.02802e-05
0.000118556
2.54088e-11
-2.68936e-10
3.39277e-06
-8.56776e-11
-1.56616e-11
-5.1798e-11
2.28578e-09
0.000691406
1.62864e-12
-3.23071e-10
-3.22626e-10
5.94701e-05
1.26285e-10
1.7519e-11
5.15491e-11
3.55371e-10
6.98749e-11
-1.51834e-10
-2.04665e-12
-1.08883e-06
1.16187e-06
2.93552e-06
-2.16221e-10
1.53743e-11
1.41258e-05
-1.10108e-09
5.37469e-11
-0.000152515
5.36501e-08
-9.94919e-13
7.512e-12
-1.39077e-10
6.75027e-11
-0.000109034
2.55546e-10
-3.12707e-11
-1.36687e-10
8.19171e-11
2.48229e-09
-6.15476e-10
2.0706e-10
4.74326e-10
3.57977e-06
-2.95504e-12
0.000204284
2.14295e-11
1.97288e-09
-1.29866e-11
-3.70533e-11
2.54618e-09
-2.98247e-11
-7.56701e-11
1.63135e-10
-1.95319e-09
2.04061e-05
-2.81308e-08
-9.30562e-09
3.87368e-11
-3.34561e-10
-0.000321765
-5.6814e-11
1.2753e-10
7.71122e-11
1.09393e-11
1.45385e-05
1.02651e-05
-1.3293e-10
5.64697e-08
-3.59794e-11
-7.164e-06
-2.51217e-06
-0.000130243
5.93433e-11
1.63948e-11
-0.000144756
-6.12576e-07
7.04158e-11
2.90826e-11
-1.99352e-10
8.63963e-10
1.48225e-05
6.13047e-10
-6.71851e-12
1.90327e-11
-1.14113e-10
-2.17011e-10
-1.18579e-07
5.73705e-08
5.28963e-11
0.000104946
-9.319e-10
-0.000179228
-3.41942e-11
5.77596e-08
6.79518e-13
1.2999e-11
-1.29909e-09
-7.12068e-11
1.53914e-06
8.09916e-12
-5.28133e-12
1.69793e-10
-2.28638e-11
1.43342e-11
1.84727e-05
4.63915e-11
1.27593e-11
-5.4349e-12
-1.58144e-10
-1.62498e-11
1.12556e-10
1.99412e-10
-2.88304e-07
1.34614e-11
1.31104e-10
2.10848e-11
5.60885e-10
-1.08492e-10
3.38062e-11
6.8696e-07
-8.29886e-05
1.41595e-11
-1.26176e-05
1.44688e-11
9.92181e-05
-1.78129e-10
-6.31593e-11
-5.7509e-11
-1.16719e-10
1.66814e-06
2.83713e-09
2.62391e-06
2.82382e-05
-7.78125e-06
-1.98861e-10
-4.63431e-08
-2.63341e-10
7.37668e-06
-2.69658e-06
1.17946e-11
-2.71386e-10
-0.000213765
8.97091e-10
-2.21362e-12
0.000414029
1.34546e-10
-2.61998e-05
-7.95502e-11
1.59715e-05
-8.24528e-07
1.93192e-09
1.73854e-11
5.47275e-08
-1.07299e-11
-2.8751e-12
-8.59514e-12
0.000103375
-3.93799e-11
-1.51784e-12
3.30419e-11
0.00066778
1.96753e-11
-1.03493e-11
-9.6999e-11
-4.40513e-11
-6.80347e-11
1.31271e-11
-1.95362e-10
-2.09585e-06
-9.02038e-07
4.45054e-08
8.89926e-12
-2.13771e-10
1.76054e-09
3.79005e-05
5.86097e-09
-5.83486e-11
-9.59944e-09
-2.63655e-11
-2.58459e-10
1.09742e-05
-5.53606e-11
6.09624e-11
-4.64632e-11
-4.84647e-12
8.00594e-05
2.41297e-11
-6.5536e-11
9.51433e-11
1.32837e-05
5.70471e-11
-7.96676e-08
-0.000157585
5.55484e-12
-7.45964e-09
-3.51745e-10
-5.56163e-08
-9.69756e-10
3.47732e-11
4.61799e-09
-8.83824e-11
-1.54051e-10
1.53446e-11
-1.88832e-10
1.7443e-10
-2.86705e-06
-3.93124e-09
0.00062941
-3.43269e-10
-2.31478e-11
0.000208461
-3.68989e-11
-1.61745e-10
4.41872e-12
2.47876e-10
-3.16956e-12
7.97304e-11
2.3597e-11
3.88383e-14
4.57714e-05
-1.69507e-07
-9.83392e-11
1.86129e-05
-3.12513e-10
4.17802e-12
-7.6154e-11
-5.05739e-10
1.4144e-11
-5.88476e-10
-3.54307e-11
1.24708e-10
2.19085e-09
-0.000128276
4.5906e-10
-1.22463e-05
-2.13376e-10
-9.55191e-11
1.11119e-05
-3.89302e-12
3.875e-11
1.47624e-10
-7.99671e-11
-6.45727e-09
-4.29104e-11
3.12902e-11
-3.67976e-09
-4.15223e-09
1.39246e-05
-9.82751e-11
-0.000463616
-2.02043e-08
7.12107e-05
7.61587e-10
2.15411e-08
4.06639e-10
-1.47801e-10
2.94243e-07
0.000336947
7.18941e-05
7.47235e-11
5.44643e-11
-1.67124e-08
3.17484e-10
-9.00495e-10
4.76511e-12
-1.2034e-11
-5.82467e-11
2.83655e-10
-1.89534e-10
-1.02837e-11
8.82809e-07
0.000134449
3.73322e-09
4.72382e-09
-8.76191e-11
7.50297e-10
1.0835e-11
3.50355e-11
1.56543e-10
-6.31921e-08
2.75836e-05
4.50638e-11
-6.35565e-05
2.62219e-10
-7.05092e-12
1.4376e-05
-2.57904e-08
9.96506e-11
-1.79905e-11
-2.28257e-09
9.35603e-12
2.23012e-11
-6.04559e-10
-1.81869e-10
6.35515e-12
-3.13015e-05
5.61372e-09
-3.22197e-07
-5.68096e-12
5.54026e-08
-9.07178e-08
6.97231e-11
-3.57179e-12
2.47693e-05
7.60785e-09
-2.01141e-11
3.99949e-11
1.55205e-11
1.01662e-05
-9.28651e-11
2.10117e-11
0.000193325
-0.000101332
4.88872e-11
-2.22313e-10
4.8568e-11
1.41927e-10
-1.54994e-10
-5.78187e-05
1.3215e-11
-2.54768e-11
1.87148e-11
-1.25582e-06
-3.06824e-10
-0.000401695
-2.93756e-05
8.5681e-12
6.94731e-12
1.45427e-07
1.30956e-10
5.38532e-12
-1.09644e-05
-1.92964e-11
-6.57584e-11
7.26186e-09
0.000625605
1.52211e-11
6.44695e-06
4.59502e-11
2.24873e-11
4.76205e-11
-0.000153259
-2.65332e-08
5.28798e-11
1.0698e-10
-0.000265947
-1.41084e-09
-1.6996e-11
2.48435e-10
5.28534e-08
-1.962e-10
3.78529e-06
5.93266e-11
-1.39483e-10
1.27383e-12
-0.000221471
5.47859e-13
1.9668e-11
-2.58831e-11
-2.5447e-10
1.44418e-11
2.59474e-11
7.77576e-09
-6.30696e-11
-6.10519e-11
-3.28489e-10
-1.5304e-11
1.45777e-06
4.31725e-11
-3.89354e-10
4.81236e-11
8.02029e-11
-9.11552e-11
-1.66706e-10
-1.63963e-10
-2.37403e-13
-3.21727e-06
1.50864e-11
-1.20458e-09
2.08892e-05
-7.09755e-11
-9.63707e-05
7.96893e-12
5.98178e-05
1.99722e-10
-3.2362e-11
1.16001e-10
-2.89187e-06
9.16879e-11
6.2396e-10
-5.46267e-11
-2.43477e-10
8.90844e-11
-6.38262e-10
6.79846e-05
2.682e-07
-1.42446e-09
-6.49329e-10
1.59267e-11
3.47697e-11
-7.77804e-10
3.74109e-10
1.15494e-05
-6.90471e-11
1.27733e-06
-2.32315e-09
-0.000259166
-4.69139e-11
-9.73189e-12
-6.49739e-11
-1.18287e-10
-3.6778e-11
1.78628e-11
-2.69477e-10
1.37673e-11
-3.99867e-11
2.75354e-06
6.67556e-05
-6.00292e-11
1.75212e-11
6.47696e-12
1.04005e-05
-8.0492e-09
-2.56892e-12
5.04758e-10
-8.65571e-05
-1.81157e-11
-2.2283e-10
3.97746e-11
3.20424e-11
6.09292e-11
8.34424e-08
-3.44479e-11
1.09548e-10
7.71211e-10
-1.03596e-11
9.35485e-08
-1.23031e-11
0.000404873
0.000187711
-2.52487e-10
-2.58781e-11
-2.23794e-11
3.18006e-11
1.66226e-11
2.43561e-10
-9.77518e-12
9.10347e-12
4.43643e-10
7.69954e-07
-3.82105e-10
-0.000805292
4.72287e-11
2.78366e-11
0.000418467
4.49579e-07
-1.40154e-11
-1.84261e-12
0.000480228
-1.10803e-09
6.37033e-11
0.000369596
1.44273e-08
2.61667e-11
-4.14397e-05
8.00409e-11
3.10328e-11
6.8712e-11
0.000108067
-5.4395e-12
-3.98634e-12
-1.10379e-09
-5.80337e-05
3.24468e-08
3.985e-10
4.5767e-11
6.91227e-12
1.85357e-09
-1.98666e-12
1.54337e-11
-7.91397e-10
-5.88916e-10
1.40738e-10
-5.66758e-12
-1.75907e-10
1.43051e-08
2.42772e-07
2.29184e-10
9.6496e-07
5.84413e-10
9.28647e-06
1.5051e-06
4.68607e-05
2.7344e-11
3.12667e-11
-8.47565e-11
-3.65312e-11
-8.06434e-11
-5.16167e-11
0.000275878
2.7769e-08
1.67935e-08
-3.38716e-12
-1.20731e-10
2.6427e-08
-1.72738e-06
-2.94313e-10
-1.88783e-12
-6.87406e-12
5.11133e-11
0.000463586
3.42138e-09
-2.19149e-09
-0.000173455
-4.93735e-05
-6.09996e-11
-2.9502e-11
-6.38763e-11
-2.23966e-11
2.01609e-11
-0.00020943
4.88431e-10
-2.76834e-05
-4.7571e-12
1.31807e-11
5.71269e-11
5.73755e-12
2.03201e-12
-1.38009e-11
9.17207e-10
2.34238e-06
7.00795e-11
9.26832e-08
-2.05458e-11
0.000184161
-3.35291e-05
-5.6198e-10
0.000215319
-1.07619e-07
-6.02172e-12
2.7711e-11
3.48892e-05
1.20885e-12
5.67269e-10
-1.21678e-12
-8.91958e-11
4.19191e-10
2.88583e-11
5.83041e-11
-7.68012e-12
-2.80037e-12
7.32169e-11
-8.07101e-06
-1.90765e-10
1.18511e-11
-4.37523e-05
7.40557e-11
6.13144e-11
0.000101765
-3.09444e-10
2.023e-11
-2.28026e-05
4.24985e-07
7.14763e-11
0.000139067
-0.000145413
-1.33031e-07
1.63621e-07
-4.53045e-11
-2.35411e-10
-3.11861e-10
-1.4898e-06
2.31563e-08
3.43979e-11
-4.20532e-07
1.95784e-09
1.37583e-11
5.34258e-10
1.16611e-09
4.26989e-10
2.1685e-10
1.55169e-11
-5.96641e-12
-1.17582e-10
-3.00908e-11
9.40678e-10
-1.69264e-10
1.73367e-12
7.1902e-11
-5.33907e-11
1.18398e-10
-5.27247e-09
1.9069e-06
-2.94462e-08
-3.64869e-09
1.37438e-11
-1.04249e-10
2.04522e-10
-7.21216e-11
-6.9533e-11
3.00592e-11
2.47873e-06
-3.91669e-11
4.71479e-10
-3.96575e-10
0.000100117
3.4472e-08
-0.000187837
9.58043e-12
-5.81388e-07
1.38858e-11
-1.70557e-10
-2.32314e-06
-1.83198e-11
-3.83855e-06
6.20168e-12
2.07641e-10
-1.90971e-10
-7.24015e-12
-1.06633e-10
-1.05379e-09
-1.58077e-11
-2.04279e-05
4.34477e-10
6.699e-09
-8.88205e-12
4.35261e-11
0.000114584
-2.8794e-06
3.45859e-06
-1.6121e-10
4.5772e-08
-2.42963e-05
4.01273e-11
3.46477e-10
-2.43112e-10
3.9677e-11
2.51888e-11
-7.53427e-05
3.79266e-07
1.6357e-05
-8.17651e-11
3.83065e-12
-6.60943e-10
-1.76643e-10
-1.52571e-10
4.60238e-11
-5.79695e-10
-6.7125e-09
-1.09177e-11
4.73902e-11
9.61164e-11
2.54897e-10
-2.1869e-10
-2.33994e-11
1.40408e-05
1.17256e-06
0.000204665
2.24082e-12
-1.52258e-10
3.73846e-09
-6.845e-11
4.56512e-11
1.42311e-06
5.24887e-11
1.23528e-07
-3.36244e-10
-1.55195e-07
-2.9543e-11
-2.28323e-11
-2.75539e-12
-9.89264e-11
-1.39594e-10
-4.21423e-12
1.58303e-05
3.5931e-11
2.54335e-10
5.21373e-12
3.46648e-11
0.000249901
3.64997e-08
5.44556e-09
-5.39956e-09
-1.19463e-05
-6.62281e-07
9.63396e-08
8.85657e-05
-9.72729e-08
4.05047e-09
1.22445e-10
2.01567e-10
-1.30829e-10
-9.30323e-11
-1.2547e-08
4.19826e-11
2.82444e-06
-3.30666e-11
3.15815e-09
-5.03999e-11
5.40918e-10
7.928e-11
2.74417e-12
-4.22239e-12
3.57082e-05
-1.15487e-09
-4.98672e-11
-2.16619e-10
6.50317e-11
6.26203e-10
-3.6216e-08
6.46341e-07
-1.97437e-10
-3.86023e-11
-2.92123e-12
-3.09472e-10
2.39559e-05
-1.85988e-12
-2.06923e-07
-1.79656e-10
2.02545e-10
2.32315e-06
-4.28071e-13
1.16845e-05
-5.189e-08
-1.50389e-10
-7.27283e-06
-4.63332e-12
-2.001e-07
-7.32009e-07
0.000212636
-2.38144e-10
1.30096e-11
-6.27704e-12
-0.000194749
-6.27039e-13
-5.30591e-05
-5.31133e-10
2.87782e-10
1.0761e-10
7.19423e-10
0.000309556
-2.83593e-11
1.34772e-10
-4.94704e-10
2.30828e-10
-2.34198e-12
1.76401e-11
1.26624e-06
1.26333e-08
-4.88002e-07
-1.94407e-10
-3.89795e-11
3.80783e-10
6.90643e-05
-7.31459e-05
3.30127e-11
2.79284e-10
6.12409e-05
0.000107104
-6.45965e-12
2.03559e-11
3.04128e-11
6.31748e-11
7.41361e-12
3.08275e-11
4.60671e-10
4.5104e-06
-1.4088e-10
-1.35074e-10
1.84511e-08
5.41748e-06
-3.7354e-13
-5.58335e-11
9.1002e-05
5.53301e-05
-4.12445e-11
-1.29701e-11
8.912e-09
2.91194e-11
-4.66793e-10
-2.12369e-10
-1.62686e-09
-2.93711e-10
-0.000183332
-2.13679e-10
8.41613e-11
5.69224e-08
-5.50359e-05
-2.42876e-06
2.07582e-11
-3.03539e-12
1.87049e-11
-5.57873e-07
1.32755e-11
-6.04406e-10
-8.68092e-12
7.07453e-10
4.84098e-10
-0.000168825
0.000265534
6.00994e-11
-4.70146e-11
5.90847e-11
-8.51109e-08
3.61114e-12
-4.1882e-07
-1.35439e-09
-1.533e-11
-5.97853e-11
9.89678e-11
-1.50755e-09
-2.59241e-10
-3.1626e-11
3.83864e-08
6.16678e-06
-6.93267e-09
-3.6727e-11
6.08291e-09
-2.59709e-12
-1.35043e-11
-4.449e-10
-1.17001e-10
-1.77002e-11
8.68008e-11
-1.66018e-10
1.05362e-11
1.27862e-06
2.63801e-11
0.000482823
-4.92957e-11
4.54476e-06
-2.1934e-10
-1.5457e-10
1.82543e-06
-1.63836e-10
2.5084e-09
-2.94017e-09
9.60636e-11
3.31959e-05
0.000480098
1.68504e-05
-2.9415e-11
0.00048529
4.79926e-11
-6.17858e-11
9.75687e-07
1.26585e-05
-9.04716e-06
2.46795e-12
1.76752e-10
1.80867e-10
-9.90761e-12
1.30775e-14
1.51229e-10
-1.62089e-10
-1.3415e-10
1.77073e-05
-3.70003e-10
-1.11298e-07
-3.21963e-07
-1.11077e-08
7.70556e-12
2.81055e-10
1.76745e-10
-8.67142e-05
-9.61134e-11
-3.889e-11
5.77866e-12
3.0275e-12
8.35408e-11
5.61154e-12
3.30311e-12
-2.33264e-12
3.79007e-06
-2.98121e-09
5.2626e-12
3.02387e-11
-1.10191e-11
-1.8057e-10
1.12315e-07
-3.38466e-11
5.53156e-11
4.55919e-05
-4.17127e-09
-1.8038e-10
-2.1335e-11
8.99222e-09
5.99415e-06
-8.32112e-12
-3.7325e-06
-1.79536e-09
9.27439e-07
-4.87846e-11
-3.60699e-11
1.367e-12
-1.063e-10
-3.20539e-05
-2.76749e-10
2.44295e-10
-8.61648e-10
-8.7567e-11
9.82916e-06
-2.95129e-10
8.06094e-05
-1.74772e-10
-9.82922e-11
2.35345e-08
0.000673928
5.10709e-10
-4.11824e-11
-7.70893e-10
-7.96339e-11
2.33883e-11
-3.34546e-11
3.29509e-09
2.68131e-11
-1.33647e-11
-6.07774e-11
-9.09166e-11
-1.18351e-11
1.78394e-05
9.72089e-11
-6.09437e-11
-1.73878e-11
-2.80439e-09
-1.0487e-10
-0.000221901
-1.8638e-11
-2.81744e-10
-0.000134393
-3.59962e-10
-1.48708e-10
1.49202e-05
-2.67908e-11
2.54536e-10
3.04858e-13
-9.18829e-10
-9.41698e-11
4.93185e-05
-1.50103e-10
-2.33731e-11
-1.28711e-10
-2.56092e-10
-1.59522e-10
7.00675e-10
-5.46605e-11
-1.82817e-06
-5.11916e-10
1.09762e-10
-1.22963e-05
-1.35636e-09
4.1963e-10
3.84322e-12
-3.03684e-11
7.83209e-10
-0.000154294
-1.86259e-11
4.3032e-11
2.06876e-10
1.83628e-11
-3.72598e-08
6.48237e-11
-0.000120346
-5.75537e-07
7.4067e-07
4.49715e-07
9.48437e-11
1.02589e-09
-6.5546e-05
-7.55703e-11
3.81855e-10
2.62784e-10
1.41135e-09
1.37921e-05
-1.6906e-10
2.1324e-07
-1.88527e-08
6.34371e-11
2.29965e-11
2.04942e-12
-7.05842e-12
1.09728e-06
-4.13875e-11
-5.26139e-10
2.06526e-11
3.00402e-06
-3.02137e-10
-6.77747e-05
-3.50058e-12
0.00075812
3.39391e-11
-1.29693e-11
-1.99188e-12
1.88666e-11
-8.09307e-05
-0.000433299
6.82327e-11
-3.60531e-05
-1.24585e-10
-2.88199e-09
-0.000199165
-6.66074e-11
4.78064e-11
1.6002e-11
-1.29443e-10
0.000336926
-0.000142233
-5.713e-12
-5.76745e-06
5.0624e-08
-0.000179946
-3.3333e-11
2.981e-11
-0.000120176
2.62981e-10
4.84178e-11
-3.55527e-11
4.37994e-11
1.67637e-11
-9.64711e-10
4.38331e-11
3.46086e-11
3.36413e-11
-1.2189e-09
1.7148e-10
3.88306e-06
-4.92344e-11
1.03877e-10
2.48753e-11
1.87266e-07
-4.58893e-11
0.000713458
-1.49567e-10
-1.15261e-11
2.79045e-06
1.40393e-10
2.4722e-11
1.24297e-10
6.16241e-11
1.11588e-11
5.09102e-10
-2.95071e-10
8.40663e-07
1.38495e-10
4.07869e-09
1.67716e-05
0.000150257
-3.68454e-10
1.07025e-11
-2.55741e-10
-4.90569e-05
-2.87665e-11
-1.45654e-10
-8.05256e-07
1.24557e-11
2.77837e-10
1.93394e-11
-0.000203969
-3.06165e-10
0.000575177
-7.51439e-11
1.42197e-11
1.37179e-11
2.18356e-11
0.000138873
-2.04022e-10
-4.65663e-06
1.34887e-05
0.000304219
5.60352e-06
1.38908e-10
2.78539e-11
8.65365e-10
0.000165115
6.59191e-11
-0.000209138
1.05219e-10
0.000220787
-9.2958e-11
7.41325e-11
7.07759e-07
-1.18878e-08
6.2424e-05
-2.10347e-10
1.20113e-10
0.000209528
-4.45927e-12
4.22597e-12
3.28401e-09
-2.67473e-08
-7.2719e-10
1.09847e-11
6.452e-11
1.71945e-08
4.57316e-06
1.51568e-10
1.21668e-06
-9.41068e-07
-2.63146e-10
6.89788e-11
-1.06313e-05
-0.000252605
-1.8639e-10
-1.26853e-10
-2.01764e-10
4.13124e-08
9.91965e-06
-1.05488e-11
7.76258e-11
1.15799e-10
6.39331e-09
-1.99777e-10
-1.11318e-10
-4.87246e-11
5.7828e-11
0.000456668
-6.98214e-11
0.000257767
-1.92716e-11
-9.32794e-05
-3.30352e-10
0.000157915
6.71085e-11
-3.8734e-10
1.27253e-10
-8.07994e-06
-1.43753e-07
1.62294e-05
3.3076e-07
-6.09728e-05
-6.55179e-11
8.92117e-09
-1.76469e-11
-7.70444e-11
0.000495043
0.000188863
-3.56331e-12
-2.02673e-10
-8.289e-12
1.61506e-06
-2.48563e-09
-5.76255e-11
2.05067e-10
2.43135e-09
8.04204e-11
1.1246e-10
-5.66795e-12
-7.64075e-10
-3.68278e-10
-1.53087e-10
2.45125e-10
-3.85509e-09
4.73936e-11
3.96358e-11
-5.51619e-11
-2.50102e-11
0.000104392
0.000914465
2.63065e-11
-4.54321e-11
-2.13859e-10
-1.64316e-11
1.96958e-11
9.57759e-05
-5.39884e-12
-1.07232e-05
-0.000292688
-8.39899e-12
-4.23281e-12
-3.96289e-11
2.64463e-11
0.000115942
-1.49426e-05
8.7424e-11
-1.65784e-12
-2.37008e-10
-2.14235e-10
2.94075e-10
-3.6801e-11
2.10425e-05
-1.74535e-11
2.75548e-11
-0.000443318
-2.17415e-09
-2.11893e-11
-9.95705e-13
-6.40204e-10
-3.3207e-12
9.09628e-06
-2.80196e-07
5.31535e-12
-4.18876e-11
0.000300054
-5.24545e-05
5.80684e-07
-2.85262e-11
-4.93113e-12
-1.91377e-11
4.22555e-08
-1.25279e-10
-3.68816e-05
-4.90348e-12
-3.0703e-10
2.30392e-11
-2.36091e-10
-1.07852e-06
-5.49295e-11
2.66137e-05
3.39999e-10
-5.59445e-05
-1.42102e-10
-6.05391e-11
-0.000128963
7.52518e-10
-1.37365e-09
7.02441e-09
4.68407e-11
3.7549e-10
1.04505e-09
3.82061e-05
2.10644e-11
3.4994e-10
-6.89746e-08
1.57581e-10
-3.31914e-11
1.93471e-11
-1.15414e-10
-2.37389e-05
-2.73092e-05
-3.41996e-07
1.26521e-11
-8.1551e-13
0.000145436
4.93652e-11
7.97231e-10
-4.7796e-11
-1.08835e-06
-2.05897e-09
-0.000180883
8.39697e-09
-9.45564e-06
5.15936e-10
1.7717e-10
2.29621e-10
-5.93126e-11
1.13513e-10
-5.08557e-05
0.000160623
1.47888e-10
-1.21078e-07
1.56727e-11
-2.62914e-12
0.000164492
-1.55844e-11
-0.000388708
-6.18305e-05
2.02571e-09
1.36893e-05
-8.74215e-11
-7.82112e-06
-1.83145e-11
1.52202e-11
-1.75329e-05
2.05446e-11
-2.72289e-11
-9.71652e-06
0.000236117
-1.37493e-10
-4.41079e-11
2.40603e-10
0.000193347
-8.75654e-11
-1.06427e-05
8.01915e-10
-1.72771e-11
-1.55679e-07
-3.43991e-12
1.30818e-11
3.40629e-09
-1.51674e-10
5.46425e-11
-4.55407e-06
4.50017e-09
-1.07015e-10
2.203e-10
-0.000125421
-1.26181e-10
1.04087e-10
2.6386e-11
-2.17176e-09
-0.00021751
8.01998e-06
7.33687e-11
1.18956e-06
0.000208079
-6.93133e-12
-2.92803e-08
-8.27059e-11
4.68646e-08
-6.91235e-11
-1.00207e-07
0.000181526
8.55163e-06
0.000406786
-1.23139e-06
-1.55445e-10
-7.65487e-11
3.67625e-10
-2.5998e-11
0.000133592
1.06382e-11
-7.78102e-06
0.000141222
9.94556e-12
8.13233e-11
2.50971e-10
1.75123e-11
0.000272354
-6.76753e-12
1.45877e-11
-1.9435e-10
2.10306e-06
-4.01577e-11
-1.31003e-09
4.44989e-10
-2.70228e-11
-2.88079e-10
4.37224e-10
-1.13435e-08
-2.49355e-13
3.11667e-10
-5.23403e-11
0.000170694
2.13754e-11
3.50966e-11
5.95034e-11
8.85081e-10
-4.44864e-05
6.76232e-13
2.77138e-12
-5.66678e-11
5.3751e-10
-5.21078e-05
1.86761e-10
-6.96666e-11
-2.41598e-05
-9.91857e-12
-4.17832e-12
7.47246e-11
-2.22173e-07
-3.73084e-06
-1.2718e-11
-0.000120421
2.82651e-05
1.10526e-05
4.69707e-08
2.75826e-06
-2.77912e-06
-0.000151709
-1.63234e-10
-1.43761e-10
-1.76832e-08
5.32956e-11
-2.0653e-10
-0.000157183
-8.98423e-06
-2.08182e-11
-4.91966e-10
-1.8036e-11
6.18407e-12
-5.84387e-11
1.08564e-10
2.71652e-10
-1.51299e-08
1.26223e-08
2.75648e-08
0.000597844
-2.4611e-09
1.07585e-10
-8.90881e-13
6.93897e-06
9.83116e-11
3.31274e-05
-8.05803e-08
1.94599e-11
1.0654e-10
-1.62271e-08
-1.62722e-05
-2.5893e-11
4.03051e-10
-4.94276e-11
1.1189e-08
-1.82649e-08
-1.10873e-10
0.000939108
7.78506e-08
3.84635e-11
4.34628e-06
0.000179916
-2.14747e-10
6.14306e-12
1.40219e-10
-3.95252e-10
3.49438e-08
1.30716e-10
9.08281e-07
1.47862e-05
1.2356e-09
-1.5636e-10
1.72444e-06
-1.29028e-09
-6.22266e-08
1.9744e-11
-1.08343e-09
4.415e-06
-3.15056e-10
-0.000549914
0.000175985
0.000164854
5.86489e-09
-0.000250215
-5.60705e-10
-3.57182e-10
-9.58494e-08
2.42955e-06
-2.30468e-10
-2.59356e-11
-3.47941e-10
-4.41736e-12
1.08993e-05
-5.60517e-11
-1.22449e-11
-4.29683e-05
1.72414e-10
2.34018e-05
-1.61963e-08
-1.74657e-11
-1.52117e-05
6.55881e-06
0.000346569
1.79903e-10
7.35871e-11
-1.82156e-10
0.000194245
3.17657e-05
-9.56613e-08
4.93164e-11
-6.93267e-10
6.72253e-10
0.000153752
2.37238e-10
0.000222988
-6.2187e-11
3.49792e-05
2.31791e-09
9.23641e-06
4.03418e-10
1.10611e-10
-1.17762e-10
-1.84648e-10
6.00352e-12
-7.32085e-11
-1.94876e-10
-4.32477e-12
-9.86109e-08
-3.15497e-05
-1.73789e-10
-2.33471e-10
1.7703e-10
-5.43845e-07
-1.30218e-05
-6.40727e-11
1.15028e-10
0.000189653
2.77223e-08
1.05257e-05
-3.54885e-11
-2.59539e-08
-2.62235e-09
0.000401873
-1.39787e-10
3.75877e-05
0.000189185
1.48874e-08
-5.48594e-11
1.48032e-11
-3.46133e-10
7.41599e-09
1.87314e-11
-7.16623e-09
-5.64206e-08
1.72007e-11
-6.24338e-05
-5.08186e-11
-0.000435568
1.35455e-10
-1.45878e-05
0.000204883
-1.5345e-10
-3.98589e-10
-2.48843e-05
9.02593e-11
8.46606e-12
-2.48194e-10
9.47849e-11
-1.1105e-08
6.58175e-11
-1.94927e-08
-2.388e-11
-1.9737e-06
0.000435279
1.0124e-10
1.5659e-10
3.14023e-10
8.56477e-09
-2.45331e-05
-9.04868e-12
-1.80534e-10
5.85575e-12
-3.10479e-08
-2.39065e-10
0.00014064
0.000261816
6.8904e-08
-1.1338e-10
7.07089e-09
9.23384e-10
-1.90993e-10
3.6599e-05
1.93114e-08
9.80989e-13
-0.000226146
-1.14709e-05
9.63667e-11
-9.30889e-11
9.70269e-09
-9.91941e-11
1.11536e-09
-3.13495e-05