/*--------------------------------*- C++ -*----------------------------------*\
| =========                 |                                                 |
| \\      /  F ield         | OpenFOAM: The Open Source CFD Toolbox           |
|  \\    /   O peration     | Version:  v2012                                 |
|   \\  /    A nd           | Website:  www.openfoam.com                      |
|    \\/     M anipulation  |                                                 |
\*---------------------------------------------------------------------------*/
FoamFile
{
    version     2.0;
    format      ascii;
    class       volScalarField;
    location    "250";
    object      epsilon_0;
}
// * * * * * * * * * * * * * * * * * * * * * * * * * * * * * * * * * * * * * //

dimensions      [0 2 -3 0 0 0 0];


internalField   nonuniform List<scalar> 
14315
(
7.85741e-07
8.7985e-06
1.03306e-06
1.52684e-06
1.45175e-06
1.45436e-06
5.84451e-07
1.24209e-06
0.00176209
8.16468e-07
7.80794e-07
1.09451e-06
7.40798e-05
1.54641e-06
5.80273e-07
1.24879e-06
1.24918e-06
0.00502133
8.26538e-07
1.24492e-06
1.58306e-06
1.15222e-06
6.1029e-07
7.84635e-07
0.000555171
1.53606e-06
3.14265e-06
8.10526e-07
3.10684e-06
6.21784e-07
1.67496e-06
6.44495e-07
0.00421986
7.12157e-07
1.33412e-06
6.41948e-07
7.6919e-07
1.33791e-06
6.25304e-07
1.48568e-06
0.00161956
1.40631e-06
1.40417e-06
1.88454e-06
1.74278e-06
1.50066e-06
1.03304e-06
8.05622e-07
1.2457e-06
1.40166e-06
7.64102e-07
1.78581e-06
6.15052e-07
8.08159e-07
6.1871e-07
1.37082e-06
9.30581e-07
7.90651e-07
1.52955e-06
0.00072309
8.04144e-07
1.49701e-06
1.62268e-06
6.83461e-07
1.13221e-06
1.01758e-06
1.03832e-06
1.67272e-06
1.32665e-06
6.41563e-07
7.41679e-07
6.77988e-07
7.14502e-07
1.3144e-06
1.20788e-06
1.24651e-06
6.8252e-07
1.48258e-06
6.39027e-07
1.97789e-06
1.11513e-06
0.00266248
1.24032e-06
6.76407e-07
6.13216e-07
0.0162427
1.73588e-06
7.08939e-07
7.13572e-07
7.40588e-07
1.62776e-06
0.00536324
7.11287e-05
1.63872e-06
8.73052e-07
1.10479e-06
6.10333e-07
5.38393e-07
8.16355e-07
1.41226e-06
1.51409e-06
6.9166e-07
6.54637e-07
1.41301e-06
7.08161e-07
1.17413e-06
1.49053e-06
1.55814e-06
1.37399e-06
1.70643e-06
1.45612e-06
1.76402e-06
1.20669e-06
2.1989e-06
1.15143e-06
1.76101e-06
1.40167e-06
1.33435e-06
0.0013589
0.00256415
7.99873e-07
1.25854e-06
8.22245e-07
1.57253e-06
2.59788e-06
1.11925e-06
0.00650004
7.98663e-07
1.08709e-06
1.52596e-06
1.73854e-06
0.000501987
0.00378594
0.000936892
1.24013e-06
1.08431e-06
0.006313
2.16535e-06
8.29938e-05
0.00587551
1.78754e-06
2.708e-06
6.2367e-07
0.000461014
0.00184983
1.31001e-06
1.20049e-06
7.86322e-07
1.66975e-06
1.69625e-06
1.50641e-06
4.26626e-07
6.56453e-07
7.58415e-07
5.90212e-07
1.37619e-06
1.46911e-06
5.49965e-07
1.04194e-06
1.93576e-06
1.53073e-06
1.53237e-06
0.0019401
1.67749e-06
6.06646e-07
0.0169462
6.49761e-07
1.61527e-06
7.51308e-07
1.46323e-06
0.00135742
0.00510401
1.46298e-06
1.46643e-06
0.000201196
0.00326652
1.08717e-06
1.11598e-06
1.66341e-06
1.95139e-06
0.00442877
1.56809e-06
1.49567e-06
1.38757e-06
1.57846e-06
0.00268033
1.46288e-06
1.46811e-06
1.05472e-06
1.66861e-06
1.26533e-06
0.00418033
3.34789e-06
4.21865e-07
5.35861e-07
1.36701e-06
0.000881101
1.55282e-06
1.53513e-06
1.73019e-06
0.0036893
1.57673e-06
6.90962e-07
1.30932e-06
1.52334e-06
1.12215e-06
1.27243e-06
1.89711e-06
5.77506e-07
4.27004e-07
1.05178e-06
1.31354e-06
1.95617e-06
1.61153e-06
0.0044301
1.53238e-06
2.54207e-06
1.53397e-06
1.48716e-06
8.05746e-07
3.97739e-06
1.36605e-06
4.91942e-06
0.00366655
1.47786e-06
1.53913e-06
1.39868e-06
1.66823e-06
8.25969e-07
1.5852e-06
1.36134e-06
0.00143442
1.0291e-06
3.28663e-07
1.45567e-06
1.48848e-06
1.84501e-06
1.41004e-06
1.29851e-06
0.00537563
0.0206391
1.6415e-06
1.02455e-06
0.00298163
3.95288e-06
5.62173e-07
0.0170196
5.94879e-07
8.19394e-07
9.17792e-07
1.47462e-06
7.46393e-07
0.0197587
7.67745e-07
1.24586e-06
0.00173942
0.00222353
1.96607e-06
0.00191221
1.30499e-06
1.2713e-06
1.46004e-06
1.53523e-06
0.010743
1.6085e-06
2.14102e-06
1.40795e-06
0.00391739
1.57988e-06
1.66448e-06
1.26996e-06
1.60996e-06
8.98113e-07
5.59398e-07
7.98046e-07
5.87424e-07
2.36253e-06
4.27864e-07
1.62948e-06
1.57623e-06
1.19227e-06
1.67733e-06
1.21801e-06
1.68168e-06
1.45378e-06
0.00197807
0.000291564
1.54031e-06
5.68344e-07
7.5612e-07
2.04306e-06
1.58495e-06
7.9018e-07
2.49119e-06
6.17672e-07
1.53851e-06
6.03092e-07
0.00285213
1.47795e-06
0.000851315
1.5798e-06
1.53013e-06
1.54335e-06
1.40186e-06
1.53457e-06
6.6121e-07
1.41687e-06
1.58162e-06
1.60273e-06
1.62696e-06
5.72029e-07
5.74857e-07
1.54891e-06
1.67993e-06
1.37947e-06
0.00194539
0.00246592
1.26726e-06
7.99714e-07
0.00335747
1.60772e-06
1.42383e-06
1.15225e-06
1.47297e-06
7.36243e-07
1.54907e-06
2.71011e-06
1.12505e-06
0.000916397
5.99515e-07
0.00263738
4.31426e-06
0.00775086
4.84902e-06
0.00103323
6.59483e-07
3.60506e-07
1.58145e-06
0.000273993
1.37406e-06
1.6639e-06
0.000912
0.00478991
1.08243e-06
6.54515e-07
0.0037091
0.00189155
0.00175911
7.64997e-07
1.36719e-06
0.000729578
4.80736e-06
1.29404e-06
5.70651e-07
1.67484e-06
1.79199e-06
1.63739e-06
0.000233464
0.00142396
5.98332e-07
1.61849e-06
0.00189966
6.06642e-07
7.03414e-07
6.05501e-07
1.53738e-06
1.67086e-06
1.29148e-06
1.41345e-06
1.12691e-06
3.08113e-06
0.00593293
1.57497e-06
0.00212115
7.75124e-07
1.25823e-06
9.95111e-07
0.00375897
1.68637e-06
7.54251e-07
1.4109e-06
1.22522e-06
2.39353e-06
1.05816e-06
5.75021e-07
1.67448e-06
3.76669e-07
1.42205e-06
0.000899864
1.89764e-06
2.69183e-05
1.45401e-06
6.96146e-07
7.70051e-07
1.23923e-06
7.59422e-07
8.76279e-07
1.48396e-06
1.23305e-06
1.22069e-06
7.19565e-07
1.16845e-06
1.5978e-06
1.58964e-06
0.0010255
4.78851e-06
0.00348742
1.75615e-06
1.64171e-06
1.68267e-06
6.09167e-07
1.25829e-06
9.0202e-07
0.0026806
1.66898e-06
1.47564e-06
1.46494e-06
1.68952e-06
1.41876e-06
0.000981306
4.37792e-07
0.00149887
2.00747e-06
1.5237e-06
4.25559e-07
1.54096e-06
1.62839e-06
1.31967e-06
2.5879e-07
3.32902e-06
4.62451e-06
1.08135e-06
1.13001e-06
1.92389e-06
1.08144e-06
6.12363e-07
0.00164767
2.14412e-06
1.6273e-06
1.47392e-06
2.19776e-06
6.1292e-07
1.57118e-06
4.36636e-06
0.000180681
2.00189e-06
6.14621e-07
6.05656e-07
6.78422e-07
1.16872e-06
1.09145e-06
1.12493e-06
0.00243482
0.000894726
6.10071e-07
0.00826309
4.24099e-07
7.14172e-07
1.50312e-06
1.38431e-06
0.000905878
7.59433e-07
1.96944e-06
0.00147922
2.18759e-06
4.28842e-07
0.00668198
0.00105725
1.21541e-06
7.58087e-07
1.95946e-06
1.46036e-06
1.34752e-06
1.45457e-06
9.88397e-07
1.56066e-06
1.91137e-06
0.000872125
1.4718e-06
7.60742e-07
4.21524e-07
1.34035e-06
0.00237666
1.37884e-06
1.63441e-06
0.00100801
2.0133e-06
1.20916e-06
1.50326e-05
1.46346e-06
0.00108065
9.85102e-07
1.13173e-06
1.37314e-06
0.000160848
1.65502e-06
2.37739e-06
1.24379e-06
1.47828e-06
1.67406e-06
0.00864712
7.26967e-07
0.0120645
9.2571e-07
2.09957e-06
7.52912e-07
4.24372e-07
6.50906e-07
1.54468e-06
6.87806e-07
1.92182e-06
1.36956e-06
1.45985e-06
0.00221438
9.90753e-07
1.639e-06
1.48875e-06
1.60489e-06
5.21593e-07
5.35674e-07
5.26593e-07
0.000125945
4.61389e-07
0.0070835
0.00241897
1.09659e-06
1.61874e-06
1.84851e-06
0.00264842
1.58827e-06
1.40601e-06
2.94326e-07
1.42036e-06
7.72737e-07
1.06678e-06
1.21565e-06
1.64177e-06
5.67534e-07
0.0156886
5.69999e-07
1.08788e-06
0.00243813
0.00189817
6.73284e-07
1.07252e-06
6.67931e-07
6.62777e-07
1.48006e-06
0.00195411
1.06995e-06
1.00348e-06
1.16346e-06
9.62496e-07
1.1213e-06
1.84237e-06
1.32541e-06
1.26823e-06
1.61343e-06
1.20667e-06
1.06913e-06
1.57544e-06
1.10552e-06
1.60524e-06
0.000454753
8.94066e-06
1.34942e-06
1.3956e-06
7.13004e-07
0.0035818
1.2659e-06
1.07107e-06
1.85297e-06
1.2787e-06
5.9383e-07
6.58889e-07
9.60782e-07
7.53829e-07
1.56216e-06
2.16544e-06
0.00315901
1.34185e-06
0.000158821
1.71507e-06
4.35733e-07
6.4648e-07
0.00623571
5.47819e-07
2.87414e-07
1.1179e-06
0.000850251
5.77298e-07
1.09446e-06
1.88661e-06
0.00185693
0.0021716
0.00197522
7.62222e-07
5.87197e-07
0.00144332
1.52611e-06
0.00182037
1.5412e-06
1.2842e-06
7.7889e-07
5.44591e-07
1.31867e-06
1.26262e-06
1.19959e-06
1.52805e-06
5.60239e-07
1.84216e-06
5.64662e-07
1.64487e-06
6.65958e-07
6.55372e-07
1.59078e-06
8.42392e-07
0.0118838
1.37815e-06
1.50332e-06
0.0014513
9.95394e-07
3.58924e-06
0.0298589
1.09724e-06
7.57567e-07
1.50922e-06
3.43196e-06
1.68454e-06
8.64373e-07
0.00194158
2.50303e-06
1.57255e-06
0.0177342
1.06372e-06
1.49535e-06
9.52684e-07
2.31417e-06
1.30544e-06
5.76351e-07
1.83136e-06
1.45678e-06
1.53295e-06
1.35938e-06
1.95117e-06
2.13273e-06
8.04556e-07
1.46392e-06
1.06605e-06
8.05296e-07
3.44733e-07
1.3306e-06
0.00638316
1.11577e-06
1.84703e-06
4.2518e-07
0.000813399
1.27802e-06
1.85892e-06
1.28004e-06
0.00449274
1.03456e-06
1.57935e-06
0.0138334
1.49774e-06
8.76634e-07
0.010036
2.17985e-06
1.02912e-06
1.54087e-06
1.92045e-06
0.000127764
0.000723648
1.35362e-06
0.000139311
1.0541e-06
1.58427e-06
1.5398e-06
0.00413446
5.7974e-07
1.02003e-06
8.08341e-07
1.0407e-06
1.53358e-06
0.000357621
0.00229066
1.45762e-06
1.3507e-06
1.04698e-06
1.58905e-06
4.24694e-07
0.00370409
1.402e-06
1.26783e-06
1.2376e-06
8.70172e-07
1.23846e-06
0.00305404
1.95692e-06
0.000208079
8.27298e-07
1.45232e-06
7.30339e-07
1.39567e-06
1.36638e-06
2.13005e-06
4.23142e-07
1.52142e-06
0.00189375
2.16155e-05
2.02003e-07
1.54886e-06
9.01198e-07
0.00340639
1.2279e-05
9.93101e-07
0.00224833
1.0895e-06
4.48861e-07
1.84049e-06
1.41835e-06
1.56027e-06
0.00477823
5.83038e-06
1.07358e-06
1.35801e-06
1.10419e-06
1.06284e-06
1.82126e-06
0.0127045
7.6029e-07
1.84436e-06
4.64762e-06
1.93915e-06
1.95148e-06
0.0123595
0.00303113
1.22708e-06
1.47399e-06
1.78722e-06
1.26965e-06
1.32666e-06
4.24307e-07
1.75029e-06
0.0159523
1.00783e-06
1.51986e-06
1.49253e-06
0.00350825
5.69155e-07
1.40545e-06
5.39343e-07
1.60538e-06
7.30656e-07
5.54619e-07
0.00573267
3.52447e-06
6.0697e-05
1.34828e-06
5.41533e-07
0.00965081
0.000107683
0.00375821
1.52972e-06
1.63921e-06
0.00181414
5.92756e-07
1.26923e-06
2.03848e-06
0.000132472
1.40177e-06
5.92756e-07
1.72354e-05
5.52224e-07
1.10461e-06
9.58894e-07
0.00209226
6.21324e-07
1.58336e-06
0.00408305
1.53527e-06
3.58627e-06
7.71547e-07
1.33595e-06
1.45484e-06
6.26073e-07
0.000574468
0.00152337
1.60415e-06
1.49197e-06
1.56112e-06
2.43724e-05
1.26334e-06
1.10185e-06
1.62251e-06
3.69636e-07
0.00153978
5.55348e-07
6.96355e-07
1.21864e-06
5.31915e-07
1.78048e-06
2.54967e-07
2.85447e-05
1.63852e-06
8.35345e-07
5.65809e-07
8.3485e-07
2.78132e-07
1.31979e-06
1.48979e-06
1.61693e-06
5.73147e-06
0.00128588
1.17452e-06
1.57194e-06
0.000135352
1.36591e-06
5.28837e-07
1.55618e-06
1.81791e-06
0.0126697
1.14459e-06
1.28382e-06
1.53345e-06
0.000673167
1.45019e-06
1.1245e-06
1.63748e-06
1.05656e-06
1.49355e-06
1.55216e-06
1.44992e-06
3.6519e-07
3.97574e-06
3.87943e-06
1.43616e-06
1.16859e-06
0.00529413
1.68203e-06
7.25117e-07
0.00198835
2.16129e-06
1.19296e-06
5.6507e-07
1.56134e-06
7.51518e-07
1.49956e-06
1.5569e-06
8.43317e-07
1.32887e-06
1.11974e-06
1.80399e-06
1.20037e-06
1.64214e-06
7.11797e-07
0.000135896
1.30873e-06
0.00186704
6.54357e-07
1.67176e-06
8.28029e-07
1.20008e-06
1.8022e-06
1.45234e-06
1.82402e-06
1.60092e-06
1.7952e-06
0.00510838
5.32187e-07
1.6599e-06
7.35578e-07
1.36093e-06
0.0373083
1.30138e-06
7.85032e-07
5.55753e-07
1.4583e-06
3.32961e-07
0.000941909
1.62871e-06
2.47154e-06
5.24827e-07
0.00285501
0.00345773
0.000155516
1.76968e-06
1.21426e-06
0.012888
7.7581e-07
1.21824e-06
7.92255e-07
1.53161e-06
7.03128e-07
0.0026345
1.5335e-06
1.19961e-06
6.45746e-07
1.36497e-06
1.6168e-06
2.56687e-07
2.41352e-06
8.03588e-07
0.00212336
7.18259e-07
0.0172407
5.21926e-07
2.25722e-06
1.06159e-06
8.24714e-07
1.4035e-06
1.5387e-06
3.89e-06
4.81637e-07
1.52383e-06
1.49764e-06
8.51155e-07
5.42289e-07
0.000374692
7.53709e-07
6.60271e-07
5.45474e-07
1.34875e-06
7.56816e-07
1.58361e-06
1.49741e-06
3.5589e-06
8.32275e-07
5.52283e-07
5.64192e-07
1.77065e-06
1.65621e-06
1.11335e-06
1.2175e-06
2.75382e-05
1.34806e-06
0.00490048
1.08954e-06
0.000252266
1.53376e-06
5.56666e-07
1.43802e-06
1.48641e-06
3.67417e-06
2.77779e-07
0.00252377
0.00597336
0.013375
1.56901e-06
1.15152e-06
1.52044e-06
0.00408595
0.00106443
6.91592e-07
1.61289e-06
0.0215217
1.61029e-06
4.37108e-07
0.0123006
1.57147e-06
7.27467e-06
1.14894e-06
0.000167979
1.09792e-06
1.76942e-06
1.08472e-06
9.41422e-08
5.32417e-07
1.10355e-06
1.39448e-06
6.80179e-05
1.57665e-06
5.62732e-07
9.36443e-07
0.0049508
1.33603e-06
4.2277e-07
8.00593e-07
1.22622e-06
1.41213e-06
5.50744e-07
1.4491e-06
0.00100625
2.80966e-05
2.61904e-06
7.50785e-07
7.94901e-07
5.24438e-07
0.000440603
5.19957e-07
1.38746e-06
8.39638e-07
1.58256e-06
1.64599e-06
0.000899521
1.40252e-06
1.28373e-06
1.23238e-06
4.26124e-07
7.51959e-05
1.54135e-06
1.6542e-06
1.34201e-06
9.70739e-06
1.0908e-06
1.14982e-06
0.000151533
9.35656e-07
8.3953e-07
1.71496e-06
2.13678e-06
1.7303e-06
9.79871e-07
1.22974e-06
1.18702e-06
1.35455e-06
8.62414e-07
1.33294e-06
1.58351e-06
2.94076e-05
1.57417e-06
0.00546264
1.60485e-06
8.42814e-07
0.00180989
1.12054e-06
1.42473e-06
5.188e-07
1.69833e-06
5.23795e-07
5.22021e-07
1.51287e-06
7.25308e-07
0.000648447
5.84074e-07
1.56845e-06
0.000173317
1.65374e-06
5.47966e-07
9.83026e-07
1.84487e-06
1.59681e-06
1.56769e-06
5.25268e-07
1.4268e-06
1.67337e-06
0.023702
1.70435e-06
5.29426e-06
1.36808e-06
1.60486e-06
0.000140889
1.12401e-06
1.50075e-06
1.48485e-06
1.15395e-06
5.27693e-07
1.01162e-06
1.40902e-06
1.65949e-06
5.19932e-07
1.93529e-06
1.48114e-06
0.0040049
2.40816e-06
0.00739986
1.52955e-06
2.0326e-06
1.57605e-06
1.33169e-06
1.87654e-06
0.00197443
0.00328121
1.04025e-06
1.2775e-06
2.06385e-06
1.6776e-06
1.74999e-06
7.4747e-07
9.87216e-07
1.58308e-06
1.6151e-06
1.35554e-06
1.35693e-06
0.000760096
0.00296729
1.83487e-06
7.81448e-07
1.34396e-06
1.52759e-06
1.08717e-06
5.65698e-07
1.49001e-06
3.07743e-07
0.00442417
1.43887e-06
0.00672052
1.67477e-06
1.0752e-06
0.00373719
2.19433e-06
1.66541e-06
1.50967e-06
1.7994e-06
7.57013e-07
1.409e-06
1.69727e-06
1.49295e-06
7.52443e-07
0.00367723
1.78937e-06
4.91615e-07
5.22503e-07
2.31837e-07
2.57793e-07
8.20181e-07
1.05978e-06
4.70789e-05
5.43103e-07
5.28299e-07
6.44388e-07
6.02387e-07
0.00200644
1.27139e-06
4.57206e-07
0.00174244
0.0115785
1.3868e-06
1.33789e-06
1.61721e-06
1.48006e-06
1.65841e-06
0.00185398
1.58773e-06
1.37905e-06
1.11789e-06
3.25187e-06
1.29896e-06
0.00548433
8.56527e-06
7.61836e-07
6.57691e-07
2.59675e-06
4.8421e-07
7.35944e-07
0.00524087
4.23953e-07
1.18051e-06
7.41069e-07
0.00701549
7.97779e-07
0.000141223
9.56487e-07
1.11691e-06
7.22707e-07
0.0135526
2.0456e-06
1.56899e-06
5.1668e-07
0.0025864
1.76354e-06
9.74413e-07
1.51477e-06
1.23118e-07
1.57011e-06
6.26945e-06
1.40632e-06
1.23936e-06
7.3394e-07
0.00269765
1.25864e-06
7.46283e-07
1.09257e-06
7.09055e-07
7.39327e-07
8.30072e-07
8.23662e-07
1.01609e-06
1.24659e-06
1.56227e-06
1.31332e-06
3.33881e-06
1.59665e-06
1.63975e-06
1.52387e-06
1.58984e-06
1.19428e-06
1.37433e-06
1.30374e-06
1.22053e-06
0.00412671
6.52898e-07
1.42685e-06
0.00443644
1.86615e-06
0.000191115
4.50222e-07
0.00202411
1.36803e-06
1.19358e-06
1.6666e-06
5.40708e-06
7.09147e-07
1.76672e-06
7.95276e-07
1.39461e-06
1.37424e-06
1.66848e-06
0.000980692
0.000905123
1.69105e-06
1.66251e-06
7.42765e-07
1.21315e-06
7.83749e-07
1.55678e-06
1.63473e-05
1.44367e-06
0.00572144
5.23655e-07
0.00284203
1.12637e-06
8.13864e-07
1.57273e-06
1.36501e-06
9.2754e-07
1.1161e-06
1.29714e-06
5.59617e-07
7.26287e-07
3.82275e-06
5.14124e-05
1.41618e-06
5.72367e-07
1.34714e-06
0.00366218
5.34394e-07
1.64626e-06
5.21169e-07
0.00170329
1.13801e-06
1.37473e-06
1.44848e-06
1.20861e-06
1.2683e-06
3.108e-06
9.75843e-07
1.23793e-06
5.2521e-07
1.0509e-06
3.50799e-06
7.87811e-07
0.00265614
0.00180879
1.47182e-06
7.98172e-07
7.35183e-07
1.09022e-06
1.39905e-06
1.28557e-06
4.48844e-07
6.91462e-07
1.06413e-06
0.00191457
1.47486e-06
0.00634367
1.17419e-06
6.65597e-07
0.0159857
6.06275e-08
1.2135e-06
4.31031e-07
0.00278479
1.38022e-06
1.60133e-06
0.00212334
4.47951e-07
9.82064e-07
0.00215063
1.55066e-06
9.45126e-07
1.46754e-06
0.00158201
1.05278e-06
9.69846e-07
1.68124e-06
0.000850565
2.05241e-06
1.60975e-06
1.31721e-06
4.53151e-07
6.55776e-07
4.81794e-07
1.04816e-06
1.72499e-06
1.3843e-06
1.1933e-06
1.63761e-06
1.64119e-06
4.33116e-07
1.19517e-07
1.46164e-06
0.000104491
1.59615e-06
0.0060331
2.12852e-06
0.00167428
1.17842e-06
1.08654e-06
1.36574e-06
1.4625e-06
1.00992e-06
1.51599e-06
0.00283963
2.05402e-06
1.9796e-06
1.06737e-06
1.3541e-06
2.2099e-06
0.00223574
1.63761e-06
1.41139e-06
1.47191e-06
1.40371e-06
0.00303664
1.33422e-06
5.5835e-07
0.00211062
0.00244647
1.22048e-06
1.07697e-06
1.63227e-06
7.83033e-07
4.55163e-07
0.000208097
1.67893e-06
0.00685242
7.32375e-07
1.12142e-06
1.04683e-06
1.21414e-06
7.32135e-07
1.11059e-06
1.73018e-06
3.03272e-06
1.58278e-06
4.3366e-07
9.92503e-07
0.0010727
8.95731e-05
1.85615e-06
0.000392567
3.92921e-07
1.21127e-06
1.18585e-06
1.35234e-05
4.22877e-07
1.67801e-06
9.19127e-07
1.27592e-06
1.6e-06
6.19375e-07
1.12917e-06
9.54753e-07
1.20766e-06
1.2643e-06
5.08912e-06
1.38904e-06
6.87418e-07
0.00235785
1.56021e-06
1.05519e-06
0.000379908
1.6412e-06
6.26959e-07
5.65089e-06
4.40488e-07
9.6588e-07
0.00117116
0.000703702
2.45143e-07
1.21684e-06
1.46551e-06
1.79407e-06
1.7914e-06
7.2251e-06
2.00782e-06
1.4003e-06
3.86524e-06
1.6759e-06
9.73047e-07
1.59754e-06
1.74161e-06
1.22499e-06
1.1871e-06
6.25837e-07
7.00469e-07
1.26611e-06
1.22607e-06
1.75921e-06
1.54762e-06
6.97157e-07
1.66526e-06
1.30415e-06
7.917e-07
1.93098e-06
4.98613e-06
6.66235e-07
1.22723e-06
1.30558e-06
1.23206e-06
9.88831e-07
1.27161e-06
1.46389e-06
7.96804e-07
6.08289e-06
1.02223e-06
1.06279e-06
1.6011e-06
0.00129048
2.07493e-06
0.0205529
6.88816e-07
1.91725e-06
1.38195e-06
1.55481e-06
4.67256e-06
9.9022e-07
7.39744e-07
9.55299e-07
1.74791e-06
1.6221e-06
9.67817e-07
1.47414e-06
1.15682e-06
1.46145e-06
0.00377968
1.59159e-06
1.83585e-06
4.51186e-07
1.37314e-06
0.00206267
2.90645e-05
0.000885403
1.54183e-06
1.94111e-06
5.50383e-06
1.48324e-06
1.05359e-06
1.44174e-06
1.50448e-06
1.11777e-06
0.0104709
3.69638e-06
0.00389286
1.58763e-06
1.31019e-06
1.40913e-06
1.85058e-06
1.5537e-06
4.567e-07
1.07157e-06
9.52933e-07
1.17339e-06
1.18346e-06
7.96872e-07
1.51034e-06
1.39544e-06
1.17365e-06
0.00864604
2.22588e-06
0.00165715
1.35052e-06
1.26993e-06
1.50697e-06
1.58118e-06
1.22025e-06
3.00967e-06
1.29616e-06
2.6155e-06
1.4756e-06
4.3538e-06
1.2378e-06
1.22244e-06
7.28926e-07
1.54889e-06
1.37357e-06
8.50393e-07
7.45653e-05
9.45036e-07
1.3732e-06
6.6974e-07
1.46683e-06
0.000903988
2.18928e-06
1.44918e-06
1.42946e-06
0.000928041
5.6477e-07
3.6628e-07
0.00889114
2.45339e-06
2.02243e-06
1.47406e-06
1.55207e-06
1.49462e-06
1.29692e-06
1.90482e-06
1.04556e-06
0.000258835
1.26474e-06
5.58835e-07
1.5776e-06
1.55637e-06
1.38625e-06
6.67107e-07
7.00209e-07
0.000649823
1.77685e-06
1.79892e-06
1.39291e-06
1.55176e-06
5.57473e-07
2.09924e-06
2.62094e-06
1.58579e-06
1.08154e-06
4.31677e-07
1.06685e-06
9.96049e-06
8.09334e-07
2.37569e-06
1.54232e-06
1.49244e-06
0.00213347
1.39198e-06
6.27378e-06
2.08628e-06
1.40683e-06
4.69895e-05
7.31796e-07
4.05002e-07
3.36399e-06
0.00178239
1.48775e-06
9.64465e-07
1.06631e-06
0.00209637
4.30185e-07
0.000717169
1.64026e-06
8.75322e-07
1.48451e-06
1.68371e-06
0.00226499
1.45089e-06
1.57643e-06
1.61321e-06
1.75981e-06
8.79888e-07
1.35661e-06
0.000782803
1.99652e-06
4.79008e-07
1.63871e-06
1.23678e-06
8.78238e-07
4.16077e-05
0.000949816
1.45451e-06
1.4343e-06
6.69402e-05
0.00139877
5.73304e-07
6.10293e-07
6.01872e-07
1.43688e-06
1.29158e-06
1.19306e-06
1.64528e-06
4.56982e-06
1.62486e-06
1.6178e-06
2.03397e-06
0.0100356
9.80258e-07
1.53946e-06
0.0200801
0.00755321
1.02011e-06
7.20087e-07
4.1078e-07
9.37601e-07
1.37556e-06
1.32187e-06
1.76332e-06
1.38577e-06
0.000124293
1.37612e-06
7.328e-07
2.26314e-06
0.00555487
6.63418e-05
1.22825e-06
8.08438e-07
4.52417e-07
2.82148e-06
7.60348e-07
7.91852e-07
9.65416e-07
1.71176e-06
1.7197e-06
0.00460244
0.00184043
1.57758e-06
1.54729e-06
5.91394e-07
1.61442e-07
8.40279e-07
1.08497e-06
1.7404e-06
4.44955e-07
1.2431e-06
1.37728e-06
1.64507e-06
1.61663e-06
1.00298e-06
2.31246e-06
5.75232e-07
1.88045e-06
1.18662e-06
7.23855e-07
8.84285e-07
1.61339e-06
1.62036e-06
1.47384e-06
6.99282e-07
1.21581e-06
1.37212e-06
4.4833e-07
3.7078e-07
1.01265e-06
0.00238584
1.51482e-06
4.70841e-06
1.3178e-06
1.50236e-06
0.00213605
1.34923e-06
6.27642e-07
1.86119e-06
1.45678e-06
0.000150674
0.00235171
0.000196882
1.27461e-06
0.00567585
1.22642e-06
1.2724e-06
0.00184948
1.09412e-06
0.00654386
1.2861e-06
1.46723e-06
1.5112e-06
1.08411e-06
7.95307e-07
1.27306e-06
1.40069e-06
1.03895e-06
0.00993029
1.67072e-06
6.49153e-07
2.03575e-06
1.93649e-06
5.76011e-07
1.58465e-06
1.62175e-06
0.00017141
1.43135e-06
4.56487e-07
8.35478e-07
6.84785e-07
1.60556e-06
4.87558e-07
7.67219e-07
4.96341e-07
3.61162e-06
4.84004e-07
1.46351e-06
1.19586e-06
4.55028e-07
1.36262e-06
2.19256e-06
1.36787e-06
1.54617e-06
0.00192186
1.91161e-06
1.43103e-06
1.43659e-06
1.12791e-06
1.07217e-05
6.76164e-07
7.08793e-07
1.64679e-06
1.49958e-06
1.00051e-06
1.60629e-06
1.09076e-06
1.47687e-06
0.00714225
1.51062e-06
1.57866e-06
1.71962e-06
1.252e-06
0.000122941
9.89809e-07
0.0020443
1.90412e-06
1.43695e-06
2.10359e-06
0.025158
1.74968e-06
1.50022e-06
6.2325e-07
1.24169e-06
1.32083e-06
9.76414e-07
1.7766e-06
6.93817e-07
4.87599e-07
9.96222e-07
4.45915e-07
9.77267e-07
0.000416166
1.65294e-06
1.56949e-06
1.3036e-06
1.4143e-06
1.64339e-06
0.00176859
4.28442e-07
1.60598e-06
0.0104509
1.32076e-06
1.60975e-06
0.00523365
1.00722e-06
1.46356e-06
1.36055e-06
6.48037e-07
1.61535e-06
0.00179658
1.60573e-06
1.40883e-06
1.39499e-06
1.04743e-06
1.55379e-06
6.64505e-07
1.37521e-06
0.000215243
1.64025e-06
1.56524e-06
0.00399465
6.42599e-07
1.58165e-06
6.53825e-07
1.15983e-06
1.60438e-06
8.57724e-05
7.03951e-07
1.09008e-06
1.56984e-06
6.51893e-07
8.3123e-07
1.36019e-06
0.00191399
0.00013845
0.00213973
2.14863e-06
1.45001e-06
1.95101e-06
0.00236205
1.46777e-06
1.73938e-06
1.52845e-06
1.51173e-06
0.00450428
1.33006e-06
2.33121e-06
8.39583e-07
1.53458e-06
7.39557e-07
9.69502e-07
1.47235e-06
2.5373e-06
1.29809e-06
1.70455e-06
1.39493e-06
3.36429e-05
1.5486e-06
0.00118616
4.23134e-07
0.00456259
1.39022e-06
4.94389e-07
8.37799e-07
1.54507e-06
0.0187151
0.00383846
1.49312e-06
0.0279246
1.58732e-06
1.82726e-06
0.0193803
1.46629e-06
1.46153e-06
5.01866e-07
1.27205e-06
0.0209232
0.0271617
9.15848e-07
0.00329211
7.18451e-07
0.0281353
1.64842e-06
1.43842e-06
0.028352
1.44919e-06
1.31298e-06
1.3361e-06
1.31681e-06
1.58718e-06
1.67415e-06
1.17928e-06
6.11595e-07
8.13587e-07
1.72788e-06
1.48788e-06
4.17784e-06
1.43781e-06
1.12345e-06
4.94226e-07
1.87126e-06
1.18222e-06
0.005707
1.2829e-06
7.66115e-07
3.56818e-06
1.40464e-06
1.27415e-06
1.57268e-06
1.51588e-06
1.46493e-06
9.45155e-07
1.3275e-06
0.00265021
1.34207e-06
1.76383e-06
0.000120749
0.00153389
1.5153e-06
6.75016e-07
1.33654e-06
0.00774892
1.29043e-06
1.40724e-06
0.00329555
6.88282e-07
1.55185e-06
1.13706e-06
0.0243029
1.40942e-06
0.00282688
1.38916e-06
1.58774e-06
1.26255e-06
6.85993e-07
0.0135084
1.68792e-06
0.00265064
3.6001e-05
0.00191154
0.00204485
1.47539e-06
1.16023e-06
1.0693e-06
0.001185
1.40877e-06
0.0203426
1.526e-06
0.00176073
1.42234e-06
1.16928e-06
0.00195743
1.45372e-06
0.00466927
1.26936e-06
1.59111e-06
0.00177712
8.7327e-07
1.14411e-06
6.30253e-07
9.55394e-07
1.65142e-06
8.09757e-07
1.24728e-06
1.98e-06
0.0023657
1.38662e-06
6.73351e-06
0.00248533
1.67734e-06
1.24943e-06
3.3711e-06
0.0258327
1.60027e-06
1.92782e-06
1.55901e-06
2.41037e-06
1.88772e-05
8.68851e-07
1.45752e-06
1.33577e-06
4.73426e-07
1.48418e-06
1.22405e-06
1.00396e-06
1.37634e-06
0.0192588
1.38032e-06
0.001842
1.01564e-06
0.000181936
1.57064e-06
0.00288303
1.04761e-06
1.35084e-06
1.55627e-06
4.43345e-05
1.78453e-06
0.0040459
2.13488e-06
2.40499e-05
1.37396e-06
1.93736e-06
7.78273e-07
1.30383e-06
0.0046597
0.00173179
1.01102e-06
1.30623e-06
4.26338e-07
0.00289814
1.39782e-06
4.56241e-07
1.21683e-06
1.4219e-06
1.05442e-06
1.5224e-06
6.80136e-07
4.82174e-07
1.6312e-06
1.38601e-06
1.73063e-06
1.86922e-06
1.44478e-06
1.60786e-06
1.56573e-06
1.03533e-06
0.000911566
0.0163232
1.13429e-06
5.01498e-07
1.27786e-06
4.60144e-07
1.13733e-06
0.0179981
1.11367e-06
2.8129e-06
0.0188538
9.66181e-07
4.58067e-07
1.48827e-06
5.92338e-07
0.00185388
4.94932e-05
4.81457e-07
4.62209e-07
1.42963e-06
1.44544e-06
1.75982e-06
9.27083e-07
0.00105243
9.51605e-07
1.21196e-06
0.00326628
5.60344e-07
1.15408e-06
4.70591e-07
1.64314e-06
4.55876e-07
2.2267e-05
1.93412e-06
1.10376e-06
1.1737e-06
0.0151927
0.000493405
0.00273636
1.13867e-06
1.05392e-06
1.5565e-06
2.12373e-06
4.93945e-07
8.83766e-06
4.55319e-07
1.62673e-06
1.18628e-06
1.2647e-06
1.56892e-06
1.62439e-06
0.00709387
1.76769e-06
0.000240068
1.6726e-06
1.22825e-06
0.0144356
1.63434e-06
1.78378e-06
5.55264e-07
1.29887e-06
1.32671e-06
1.73037e-06
0.0028386
9.05893e-07
1.59193e-06
2.19584e-06
1.57666e-06
1.24392e-06
8.57986e-07
1.44083e-06
0.00373694
0.00175476
2.78619e-06
6.49872e-07
1.29168e-06
0.00223167
1.11639e-06
1.38612e-06
1.0407e-06
3.06449e-06
1.63957e-06
0.0231515
2.34677e-06
0.000222605
1.57128e-06
1.46149e-06
1.45172e-06
1.00924e-06
1.3382e-06
0.00784218
0.00102108
1.54451e-06
2.47077e-06
9.1045e-07
7.92804e-07
0.000413692
6.40568e-07
0.0249124
1.02242e-05
1.79454e-06
0.0166489
1.39101e-06
2.70007e-05
1.33968e-06
6.77479e-07
0.00356661
1.09852e-06
1.09335e-06
2.71025e-06
0.000602306
1.52379e-06
1.28175e-06
1.5837e-06
0.000451796
1.53728e-06
0.000243667
1.70411e-06
1.03926e-06
2.48925e-06
1.46644e-06
1.52239e-06
1.66797e-06
1.56993e-06
1.56973e-06
1.73304e-06
2.08601e-06
1.44304e-06
1.45583e-06
0.00766232
1.45262e-06
1.45735e-06
1.08066e-06
3.81642e-07
0.00217146
0.00318592
1.53487e-06
0.00100994
0.00199667
1.41893e-06
6.02267e-07
1.50666e-06
2.31294e-06
1.22548e-06
5.04897e-07
0.00187153
0.00341869
0.0186014
0.0202491
1.50155e-06
4.53576e-07
1.52593e-06
1.04857e-06
0.00217828
5.17762e-07
0.000872772
0.000757862
1.24374e-06
1.33695e-06
1.44365e-06
1.50034e-06
0.00215737
9.27562e-07
1.20406e-06
1.31658e-06
0.00612553
4.53656e-07
6.17726e-07
1.59268e-06
4.47772e-07
1.32655e-06
1.79566e-06
1.87732e-06
8.41635e-07
1.58631e-06
1.2839e-06
0.0038404
6.9216e-07
1.07633e-06
1.04173e-06
1.80305e-06
0.00717602
8.22073e-07
5.05831e-07
1.22608e-06
1.75157e-06
1.48394e-05
1.32117e-06
1.25844e-06
3.50523e-05
1.04593e-06
6.77529e-07
1.09739e-06
2.93126e-06
0.00276045
4.53312e-07
0.0228711
0.000734598
5.4841e-06
7.37904e-07
0.0016478
3.03097e-06
0.0018748
1.38993e-06
1.19718e-06
1.61526e-06
1.10543e-06
1.2914e-06
0.00175162
0.00320445
1.07744e-06
1.68852e-06
1.16684e-06
4.47831e-07
1.58072e-06
1.50686e-06
1.50656e-06
1.90167e-06
1.4741e-06
4.96449e-07
0.00383471
1.39378e-06
1.3535e-06
1.10409e-06
0.000276299
1.51997e-06
0.000657341
2.2371e-06
8.62319e-07
1.48158e-06
1.92383e-06
5.21711e-06
1.04463e-06
1.38028e-06
1.36587e-06
2.23459e-06
7.77172e-07
1.32624e-06
0.0258418
2.30505e-06
1.34257e-06
3.16846e-06
0.00194339
1.58374e-06
5.50152e-07
1.3784e-06
1.31679e-06
3.14919e-07
1.04904e-06
0.00208794
0.000205892
1.73403e-06
1.37987e-06
3.46225e-06
1.93156e-06
7.64065e-08
8.92473e-07
2.03685e-06
0.00295206
1.5569e-06
0.008128
0.00179971
0.000181737
2.02062e-06
2.12302e-05
1.73995e-06
1.3142e-06
2.19675e-06
6.82264e-06
1.39462e-06
6.8248e-07
1.57865e-06
4.49548e-07
9.55947e-05
1.44853e-06
9.77301e-07
0.00920833
1.45321e-06
0.000690116
1.86637e-06
9.96639e-07
3.55479e-05
0.00141713
0.00314556
1.30239e-06
1.28045e-06
1.28451e-06
0.00166953
0.000581173
1.80415e-07
1.04136e-06
1.72045e-06
1.82292e-06
0.00063916
1.51818e-06
0.00205676
7.72687e-07
0.000622513
1.77407e-06
0.00883729
1.6432e-06
1.53061e-06
1.2971e-06
1.53021e-06
5.25193e-07
1.50223e-06
1.33504e-06
9.70409e-07
2.27683e-06
7.29983e-06
1.28833e-06
1.6578e-06
1.48125e-06
2.5437e-06
3.39143e-06
1.38038e-06
1.49166e-06
0.00172058
4.94299e-07
0.000121814
1.46944e-06
2.4766e-06
1.86529e-06
0.00237427
1.31973e-06
0.000546913
0.0016614
1.96405e-06
1.26126e-06
6.9041e-07
1.50063e-06
6.20115e-07
7.70273e-07
1.86941e-06
2.37455e-06
4.84478e-07
0.00126914
1.06225e-06
0.00295146
1.60585e-06
5.67019e-06
0.00193009
1.62134e-06
1.54698e-06
0.000224474
1.59584e-06
5.91367e-07
1.62497e-06
6.87368e-07
2.02373e-06
1.46271e-06
2.09609e-06
1.20176e-06
3.08231e-06
0.00256368
1.48574e-06
1.38668e-06
1.21904e-06
2.02443e-06
0.000392942
1.17915e-06
1.40674e-06
1.08006e-06
2.21251e-06
1.44109e-06
0.0029489
0.00236957
2.23267e-06
1.19252e-06
1.91794e-06
1.71431e-06
1.30408e-06
0.00151731
1.99612e-06
6.83565e-07
0.023573
6.03724e-08
1.57772e-06
1.43313e-06
1.99286e-06
1.40071e-06
1.72623e-06
0.00428826
4.342e-06
1.62458e-06
1.33107e-06
0.00223851
0.00206767
3.20323e-05
1.86045e-06
1.39704e-06
0.00186914
0.00907025
1.27958e-06
0.00343255
1.68222e-06
1.01899e-06
1.56479e-06
0.000478131
0.00264825
1.47384e-06
0.0122329
1.21076e-06
1.85089e-06
0.0222851
1.5592e-06
1.59876e-06
1.52836e-06
1.40256e-06
1.24428e-06
0.00575154
0.000945875
1.50314e-06
1.93261e-06
1.60288e-06
1.51504e-06
1.49792e-06
2.0105e-06
1.5317e-06
0.00330075
2.86752e-06
1.20859e-06
1.56495e-06
1.29058e-06
1.31069e-06
4.98087e-07
1.84418e-06
1.57272e-06
0.00170033
2.26094e-06
1.31376e-06
1.38168e-06
5.13804e-07
2.11319e-06
2.9168e-06
4.5454e-07
1.43338e-06
1.8727e-06
1.40166e-06
4.90921e-07
4.12903e-07
6.83018e-07
1.03811e-06
1.63126e-06
9.72259e-07
1.34684e-06
2.38208e-06
5.72286e-07
1.98327e-06
1.7505e-06
0.000268943
0.00179628
2.1669e-06
1.64694e-06
0.0019207
0.00252078
0.00126893
2.98462e-06
1.38576e-06
0.00122233
2.60125e-05
1.42914e-06
1.21836e-06
1.27915e-06
8.91743e-07
1.73911e-06
1.50008e-06
3.50752e-07
1.40079e-06
1.78902e-06
1.1843e-06
0.0037992
1.81588e-06
1.76849e-06
0.00256438
1.88298e-06
1.49682e-06
2.30301e-06
0.00726645
8.60377e-07
2.19415e-06
1.27744e-06
2.84642e-06
1.009e-06
1.19428e-06
7.5673e-07
1.53132e-06
4.50207e-06
2.20809e-06
2.12281e-06
1.82459e-06
1.34534e-06
1.67545e-06
1.53571e-06
1.0329e-06
2.16026e-06
1.74814e-06
0.000332355
0.00273743
1.4399e-06
2.1008e-06
1.44751e-06
1.64146e-06
3.8177e-07
1.41611e-06
1.84362e-06
0.0027961
2.24351e-06
1.80881e-06
1.00968e-06
1.96527e-06
6.96765e-07
1.67653e-06
1.83712e-06
0.00200236
0.00670086