/*--------------------------------*- C++ -*----------------------------------*\
| =========                 |                                                 |
| \\      /  F ield         | OpenFOAM: The Open Source CFD Toolbox           |
|  \\    /   O peration     | Version:  v2012                                 |
|   \\  /    A nd           | Website:  www.openfoam.com                      |
|    \\/     M anipulation  |                                                 |
\*---------------------------------------------------------------------------*/
FoamFile
{
    version     2.0;
    format      ascii;
    class       surfaceScalarField;
    location    "250";
    object      phi_0;
}
// * * * * * * * * * * * * * * * * * * * * * * * * * * * * * * * * * * * * * //

dimensions      [0 3 -1 0 0 0 0];
oriented        oriented;


internalField   nonuniform List<scalar> 
21240
(
-0.362556
0.573393
-0.210838
-0.0421452
0.152153
-0.110007
-0.158516
-0.348336
0.506853
0.248933
-0.181446
-0.0674862
-0.0876582
0.246912
-0.159253
-0.256436
-0.215267
0.471703
0.620438
-0.484904
-0.135535
-0.256586
-0.114791
0.371378
0.0428319
-0.0628292
0.0199973
0.572122
-0.480023
-0.0920984
-0.644619
0.37517
0.269449
0.390008
0.020494
-0.410502
0.185206
-0.0196362
-0.165569
0.1394
0.236401
-0.375801
0.502815
0.117623
0.0134612
-0.345779
0.332318
-0.387051
0.536273
-0.149222
0.0401801
-0.034826
-0.00535411
0.41477
-0.573346
0.158576
0.279242
-0.26578
0.00938363
0.1416
-0.150983
0.0741072
-0.40726
0.333152
-0.680209
0.48397
0.196239
-0.31046
-0.33416
0.0413732
0.0457309
-0.087104
0.321331
-0.0592996
-0.262031
0.167212
-0.0587771
-0.108435
0.426125
0.145996
0.152494
0.0147174
-0.579242
0.621939
-0.0426971
-0.050831
0.150025
-0.0991937
0.633814
-0.166967
-0.466846
-0.00257026
0.00486602
-0.00229575
0.627371
-0.45365
-0.173721
-0.0310744
0.238852
-0.207778
0.105172
0.528642
0.414009
0.146774
-0.560782
-0.298364
0.267289
-0.752193
0.398599
0.353594
-0.184877
0.279614
-0.0947369
0.0670021
-0.0241702
-0.18182
-0.135685
0.317505
0.0170214
0.168873
-0.185895
-0.108025
-0.0171975
0.125222
0.234892
-0.137303
-0.0975887
0.291021
-0.158911
-0.13211
0.355989
-0.514506
0.581955
-0.15583
0.456605
-0.211328
-0.245277
0.235525
-0.218503
-0.160652
0.57466
0.00295537
-0.118353
0.115398
-0.702868
0.378372
0.324496
0.395419
-0.568876
0.173457
-0.443274
-0.259595
0.218668
0.0731938
-0.291862
0.370935
-0.279218
-0.0917174
0.670313
-0.496024
-0.174289
-0.0369955
0.358326
0.103168
-0.0617944
0.629049
-0.23363
0.154835
0.136186
-0.166607
0.188138
-0.0215309
0.211127
-0.625676
0.414549
0.398703
0.090068
-0.488771
-0.382971
0.55409
-0.171119
-0.493207
0.144871
0.0865436
-0.137375
-0.357268
0.167513
0.189756
0.678496
-0.573324
0.200036
-0.655366
0.455329
-0.616345
0.221011
0.395334
0.175048
-0.570193
0.395146
0.264392
0.0894153
-0.353807
0.627331
-0.439174
-0.188157
0.461246
-0.225058
-0.236188
-0.405218
0.244573
-0.0463132
-0.19826
0.543156
0.13534
-0.040216
-0.0626405
0.102857
0.562436
0.0146933
-0.577129
0.0649231
-0.28386
0.218937
0.271148
0.185457
0.644771
-0.423761
0.787109
-0.408737
0.0970854
-0.0466951
-0.0503903
0.0810231
0.153868
-0.625617
0.160381
0.465236
-0.45057
0.669123
-0.469087
0.176386
-0.0423891
-0.133997
0.0314823
0.00496663
-0.0364489
0.0214662
0.163739
0.0683701
0.488047
0.6051
-0.615835
0.0107353
0.55862
0.00381593
0.423973
0.363137
0.466528
-0.677147
0.210619
-0.253869
0.646835
-0.392966
-0.380598
0.198778
-0.401233
0.543603
-0.14237
-0.439277
0.592137
-0.15286
-0.363529
-0.31668
0.0434593
-0.234698
0.191239
0.586083
-0.425702
0.358105
0.0735803
-0.431685
-0.315682
0.130805
-0.224258
0.194382
0.0298761
-0.0217133
0.214883
-0.193169
0.126372
-0.132982
0.00660986
-0.185548
0.248692
-0.0631436
0.114007
-0.00302211
-0.110985
0.368139
-0.379457
0.0113179
0.130947
-0.000159357
-0.130788
0.355956
-0.281848
-0.117709
0.120664
0.331222
-0.17274
-0.158481
-0.118416
0.0753364
-0.000418089
-0.0749183
0.257671
-0.192748
0.144934
0.437021
-0.583829
0.196777
-0.198636
0.613405
0.252472
-0.132551
-0.119922
-0.047379
-0.0497864
0.0971654
0.560435
-0.265165
-0.29527
0.0351392
0.0986328
-0.133772
-0.537125
0.174569
0.618008
-0.376879
-0.24113
-0.556914
0.15568
-0.0460961
-0.0884192
0.134515
0.141955
-0.0294653
-0.11249
-0.267474
0.185473
0.0820015
-0.081038
0.201811
0.259434
0.359407
0.258601
-0.0452128
-1.79734e-05
0.0452307
0.15142
-0.0204721
-0.0125532
-0.114505
0.127058
0.17061
-0.135471
-0.192297
0.150296
0.0420006
-0.0815881
0.034209
-0.154194
-0.425048
0.140081
0.00187425
0.00235621
-0.00399865
0.00164244
-0.0917399
0.356132
-0.0633982
0.431537
0.359854
0.148915
-0.136301
-0.0126145
-0.0134287
0.139801
0.400167
0.143436
-0.281233
0.713234
-0.432001
-0.607944
0.28136
0.326583
-0.486421
-0.105008
0.591429
-0.678743
0.513655
0.165087
0.242771
-0.264484
-0.257552
0.167741
0.0898118
-0.637073
0.150652
0.305569
0.0653665
0.0795009
-0.119717
-0.174884
-0.0120969
0.186981
-0.218059
0.350858
-0.132799
0.00289484
-0.0223965
0.149108
-0.126712
0.405009
-0.641527
0.236518
0.0198329
0.0772525
-0.323027
-0.429166
0.118715
-0.182506
0.0637917
0.609217
-0.127925
-0.481292
-0.551994
0.295558
0.0768059
-0.0014695
0.0473653
-0.0351047
-0.0122605
-0.303676
0.140822
0.162854
-0.00862718
-0.191214
0.199841
-0.0605876
0.0887967
-0.0282091
-0.282591
0.0824591
0.200132
-0.114685
0.504693
0.176569
0.383866
0.01479
-0.155568
0.140778
0.0209383
-0.138377
0.117439
0.00150125
0.00328216
-0.00478341
0.0960282
0.156444
0.502626
-0.102459
0.202545
-0.291687
0.0891423
-0.149164
0.158548
-0.205786
-0.078074
-0.241303
0.0557553
-0.189438
-0.0518658
0.0682191
0.327739
-0.395958
0.155876
-0.00696041
-0.276286
-0.088963
0.365249
0.237672
-0.0250194
-0.212652
0.107259
-0.00288505
-0.104374
-0.399731
-0.212726
0.612457
0.641163
-0.174635
0.332075
-0.147278
-0.184797
-0.352348
0.254605
0.485183
-0.211842
-0.27334
-0.177712
0.00282766
0.103561
-0.149657
0.00295592
-0.00552619
-0.500037
0.356585
0.143452
-0.646582
0.207305
0.268955
-0.360695
0.145078
0.103855
-0.54365
0.289398
0.254252
-0.30422
0.0279337
-0.124131
0.0161064
-0.119946
0.622761
-0.182648
0.630547
-0.447899
-0.333884
0.402103
-0.243461
0.332876
-0.0683939
-0.0709119
0.139306
-0.0745726
0.193287
0.00340946
0.00145656
-0.14273
-0.0539088
0.196639
0.025577
0.0677071
-0.093284
-0.361915
-0.194999
0.159311
0.343315
0.601804
0.00741244
0.0254481
-0.101575
0.0761264
-0.0789292
0.297597
0.0943969
-0.0689488
-0.189977
-0.0774971
-0.00339626
0.247969
0.0385751
0.185673
-0.224249
0.150089
0.181133
-0.151456
0.12906
0.418381
-0.617017
0.109288
-0.270176
0.160888
0.202567
0.129507
0.0110934
-0.107435
0.0963418
0.48587
-0.129881
-0.368043
-0.181589
0.549632
0.0775481
0.194062
-0.27161
0.228155
-0.206162
-0.0219938
0.107078
-0.124276
-0.258321
0.0772825
0.181038
0.232847
-0.355076
0.122229
-0.00612249
-0.0390903
0.018537
0.0248295
-0.0433665
0.0473637
0.0838417
-0.131205
-0.571901
0.188931
-0.0971188
-0.0638883
-0.0376863
0.458459
-0.670469
0.21201
-0.0116907
0.0302277
-0.75387
0.29945
0.45442
0.542654
-0.124273
0.472778
-0.608582
0.135804
-0.155985
-0.101567
-0.449463
-0.205903
0.0122019
-0.0261578
0.0139559
-0.406909
0.553683
0.122982
-0.379568
0.0537652
-0.103471
0.0497053
0.0556892
-0.0488949
-0.00679433
-0.135913
0.0992695
0.0366437
0.00306006
-0.00070385
-0.0949302
0.363885
0.398431
-0.226245
-0.172186
0.169375
0.0748598
-0.244235
0.0464654
-0.189196
-0.0315623
0.0437643
0.178933
-0.00404088
-0.174892
-0.114543
0.0181696
0.0963736
-0.321704
0.140687
0.181017
0.0055804
-0.00407317
-0.145091
-0.0587117
0.145255
0.370195
-0.288591
-0.0816045
-0.41422
0.48259
0.686981
-0.376704
-0.310278
0.622634
-0.164175
0.666004
-0.595812
-0.0701924
0.129184
-0.614087
-0.0880702
0.112904
-0.0248342
-0.608839
0.327606
-0.153366
-0.0855014
0.238868
-0.157831
0.153758
0.51029
0.117042
0.0128072
-0.482581
0.195619
0.286963
0.130413
0.0149575
-0.14537
-0.237539
0.149881
-0.0569009
0.0050055
0.0518954
-0.133937
0.121384
0.222093
-0.0274861
-0.194607
-0.426131
0.599073
-0.172942
-0.457362
-0.110548
0.56791
-0.0479622
-0.0531553
0.101117
-0.199827
-0.30021
0.545815
-0.140806
-0.031782
-0.0630441
0.0948261
0.179035
0.442904
-0.349188
0.131129
0.758214
-0.354208
-0.404006
0.000365865
0.00160369
0.282311
0.14058
-0.422891
-0.39452
0.12639
0.268131
-0.221378
0.170248
0.0511299
0.33947
0.0619144
-0.401384
0.406872
-0.267471
-0.3196
0.146859
-0.239803
0.0583564
-0.256476
-0.351468
-0.214862
-0.12535
-0.0225894
0.201523
-0.148094
-0.0185126
-0.699381
0.288634
0.410747
-0.272961
-0.42642
0.163596
0.0137413
-0.177337
0.129735
-0.143164
0.292017
-0.208955
-0.0830621
-0.0356874
0.0626039
-0.0269165
0.196418
0.0612531
0.235255
0.163175
0.55251
0.113494
-0.0386943
0.00786756
0.0308268
0.34949
-0.122998
-0.226491
0.114539
0.255876
-0.370415
0.661529
-0.510101
-0.151428
0.426483
-0.144173
0.242562
0.426561
0.212255
-0.0104219
-0.201833
0.0900642
-0.0644872
-0.0659472
0.464651
-0.0819048
0.322442
0.435772
-0.0475562
0.0135543
0.0340019
-0.0940116
0.0301233
0.0368976
-0.00541525
-0.0802759
0.0761143
0.00416168
-0.103619
0.0607444
0.0428741
0.547888
-0.49377
-0.0541185
0.586901
-0.417562
-0.169339
0.221109
-0.111821
-0.089395
0.0288074
0.342584
-0.127701
0.10265
-0.161362
0.0058959
0.0571998
-0.0630957
0.0310457
0.0163195
0.00597418
-0.389283
0.383309
0.496781
0.0511075
-0.0405064
0.0018121
-0.00158814
-0.00102161
0.00260975
-0.00489223
-0.0579369
-0.569038
0.408386
0.195306
-0.086939
0.0928349
-0.0810412
0.000765211
0.455829
-0.652745
0.196916
-0.614231
0.1881
-0.0203302
0.150743
-0.111274
0.124833
-0.0774696
0.089001
-0.000206962
-0.0887941
0.10887
-0.0551043
-0.431428
0.140012
-0.172517
0.0325046
0.00183953
-0.00342767
0.684851
-0.299949
-0.384902
0.424628
0.161455
0.337318
0.347533
0.168184
-0.0194076
0.149143
0.348036
-0.115189
0.245338
-0.168055
0.489517
-0.555465
-0.00626336
0.113522
-0.00235517
0.00162641
0.000728768
0.0196883
-0.166675
0.146987
-0.0528605
0.0171731
0.516431
0.029384
0.0726468
-0.34944
0.276794
-0.49178
0.317958
0.173822
-0.00325391
0.00089874
0.00320544
-0.119221
0.116016
-0.451011
0.494893
-0.043882
-0.192798
-0.128907
-0.232285
-0.250297
-0.10778
0.0197101
-0.32231
-0.13588
0.45819
-0.470642
-0.14359
-0.0345581
0.16134
-0.126782
0.345481
0.241421
0.253418
-0.172896
-0.080522
-0.0717288
0.132432
-0.0607031
-0.102816
-0.0213151
0.0784087
-0.102602
0.0241935
0.116107
-0.278559
0.162452
0.611633
-0.449148
-0.162485
0.491813
0.0246189
0.434629
-0.232818
0.53904
-0.498711
-0.040329
0.455056
0.231925
0.185389
0.0427666
0.201474
0.233155
0.394152
-0.0721732
-0.321979
-0.149912
-0.420282
-0.0889357
0.447041
-0.200579
0.260406
-0.0598268
-0.136479
-0.133697
-0.0464187
0.0719614
0.0224355
0.097497
-0.0864036
-0.00737796
0.121385
-0.0347796
-0.125566
0.160346
-0.136209
0.139414
-0.670543
0.395953
0.274589
-0.273133
0.145044
0.392108
-0.537152
-0.00274193
0.000337526
0.0024044
-0.115821
-0.0356349
-0.241611
0.0521739
-0.187569
-0.125935
0.140725
0.0187197
0.0695706
-0.369206
0.299636
-0.158076
0.503556
-0.0457575
0.0664914
-0.0207339
-0.095858
0.0332175
-0.0495699
0.38904
0.477121
0.150161
-0.627282
-0.024497
0.188093
-0.170953
0.136173
-0.330525
0.0870636
0.158235
-0.575798
0.0851634
-0.127309
0.0793793
-0.00941565
-0.0699637
-0.34197
0.347944
0.600992
-0.331941
-0.269051
0.213181
-0.180146
-0.0330349
0.334843
-0.449528
-0.280672
-0.38987
0.0212446
-0.103428
-0.0111153
0.0437974
0.132588
-0.174706
-0.377289
-0.0337823
0.142458
-0.108676
-0.66866
0.388577
0.280082
0.304053
0.0525325
-0.0279966
-0.066015
0.100612
-0.0116113
-0.116356
-0.489625
-0.115694
0.504271
-0.218453
-0.336266
0.554719
0.120117
0.31153
-0.431647
-0.500659
0.336538
0.164121
0.335828
0.29412
-0.0977018
0.339341
-0.26977
0.31676
-0.432454
-0.00258177
-0.00150818
0.00408995
0.313503
0.255563
0.371809
0.218361
-0.179035
-0.0393263
0.295363
-0.201469
-0.0938945
-0.302632
0.412959
-0.110327
0.501181
0.0378591
-0.0660426
-0.0698706
0.0879175
-0.0193746
-0.0685429
-0.129837
0.00846928
0.121367
-0.61465
0.0415654
-0.00138533
0.0719056
-0.0224693
-0.0494362
0.318831
0.0753212
-0.539581
-0.0164454
0.556027
0.165708
-0.0497689
-0.115939
-0.071579
-0.20698
-0.391532
0.222173
0.169359
0.246923
0.392044
-0.534204
0.14216
-0.164078
-0.0601804
-0.119515
0.0166989
-0.128005
-0.266515
-0.130839
-0.154749
0.285588
-0.149778
-0.389803
0.27689
-0.644934
-0.0947554
0.550584
0.203212
0.0909083
-0.0988041
0.301349
-0.222651
0.069285
-0.271689
-0.0975175
-0.0987827
0.119721
-0.457533
0.167703
0.289831
0.147919
0.00423349
0.210289
-0.218916
0.0583745
0.013531
0.215247
-0.469117
-0.34499
-0.19866
0.212226
0.0797905
-0.0952779
-0.00781824
0.103096
-0.160124
-0.0970054
0.0652234
0.264933
-0.379725
0.220854
-0.0354651
-0.570314
0.0446283
0.525686
-0.000911409
-0.00167037
0.450337
0.133505
-0.583842
0.0478105
-0.0334348
-0.0143757
-0.11864
0.591418
0.212154
-0.0411422
-0.171012
-0.438263
0.588539
-0.150276
-0.102924
0.580045
0.476696
-0.642289
0.165593
0.184769
-0.460882
-0.164794
0.0189926
0.194188
-0.214002
0.287196
-0.162679
0.0313799
-0.190771
-0.35946
-0.131649
0.491109
-0.168547
0.143033
0.025514
0.0543051
0.174125
-0.22843
0.0704327
-0.271012
-0.554426
0.515493
0.0389331
0.554475
-0.177478
-0.376997
-0.614323
0.0598964
-0.55093
0.212825
0.338105
0.372648
0.181827
-0.0387855
0.00395955
-0.00170322
-0.00103871
0.341612
-0.321118
0.0333499
0.154788
0.110644
-0.0181121
-0.0925319
-0.0133718
-0.0341844
0.0180889
-0.497647
0.479558
-0.150726
-0.468049
0.638171
-0.170123
-0.26606
0.160246
0.427849
-0.588095
-0.589243
0.255359
-0.261915
-0.197092
0.0379032
0.159189
-0.728502
0.307474
0.421028
0.050987
-0.0372973
-0.0136897
-0.439868
0.661197
-0.296409
-0.364788
-0.0482904
0.0349186
-0.000748022
0.00258755
0.505204
0.139568
0.342696
0.0375405
-0.380236
0.685013
-0.179809
0.551632
-0.61765
0.0660176
-0.495108
0.320402
-0.0473203
-0.00958057
-0.246547
0.48705
-0.363993
-0.123057
0.406234
-0.286118
0.52655
0.0109906
-0.537541
-0.00624957
0.495767
-0.160652
0.132428
0.0282233
0.209596
-0.323569
0.113974
0.302903
0.0842902
-0.387193
-0.0333379
0.17335
0.415065
-0.247362
0.396948
0.00694481
-0.203077
0.196132
-0.24542
-0.24636
-0.171563
0.0289388
0.142624
0.0891255
-0.0433946
-0.0472349
0.0788132
-0.0315783
-0.208823
0.485329
-0.276506
0.0592204
-0.257555
0.198334
0.10504
-0.55869
0.242247
-0.159788
-0.0591917
0.294447
0.562653
-0.207605
-0.355049
-0.570314
0.213685
-0.272877
-0.379292
-0.255613
0.0965404
0.159073
-0.504558
0.316581
0.187976
0.0867819
0.459738
-0.54652
0.118821
-0.387857
0.269036
0.13291
0.0185098
0.0431838
-0.0296295
-0.311831
0.103231
0.208601
-0.0496259
-0.0748336
0.12446
0.198383
0.059804
-0.258187
-0.333127
0.610017
0.368856
-0.0113881
-0.0273974
-0.646121
0.421401
0.22472
-0.656771
0.188723
0.485563
0.0804541
-0.566017
0.262894
0.0764468
-0.590588
0.414988
0.039482
-0.45447
0.0608493
0.0614089
-0.226489
0.310621
-0.0841317
0.0352407
0.0204486
0.00280763
-0.00358294
0.000775308
0.596463
-0.112494
0.642839
0.00864773
0.0575687
-0.0662164
-0.160876
0.191458
-0.0305817
-0.0427632
0.0616648
-0.0189016
0.123268
0.244071
0.103964
0.44517
-0.0699996
-0.645852
0.395699
0.250154
0.358726
-0.14913
-0.109722
0.412624
0.373859
-0.0550286
0.38534
-0.323426
-0.665039
0.192125
0.472914
0.107093
0.00298925
-0.110082
-0.244859
-0.420179
-0.0704546
-0.126638
0.518748
0.166265
-0.527329
0.308876
0.313499
-0.248797
-0.0647023
0.516443
0.0886569
0.0240483
0.0237622
0.213912
0.0814519
-0.219791
0.347512
-0.127721
0.0307458
0.0571717
0.127589
0.0972085
-0.023453
-0.0737555
-0.0277911
-0.00378601
0.0315771
-0.251329
-0.24933
-0.467457
0.119657
-0.339448
0.142086
-0.143408
0.00132256
-0.121251
-0.420226
-0.195609
-0.00341992
0.0026719
0.0223808
-0.0721671
0.160247
-0.153302
0.0583556
-0.0385227
0.374836
0.187817
-0.223696
0.177222
0.0464732
0.480512
0.0460386
-0.145414
-0.1102
-0.202464
-0.152612
-0.675128
0.402167
0.120644
-0.0135661
-0.424848
0.20958
0.175902
-0.0314755
-0.144427
-0.286164
0.0844722
0.201692
0.113882
-0.0146123
0.152556
-0.0196463
-0.625351
0.290491
0.33486
0.119367
-0.305237
0.18587
-0.451438
0.129128
-0.259108
-0.366243
-0.640473
0.431653
0.20882
0.0919361
-0.300178
0.208242
-0.00453937
0.102036
-0.0827815
0.568344
0.026375
0.084269
0.144414
0.44606
-0.590474
-0.101194
0.356245
-0.112174
-0.034922
0.113403
-0.0784811
-0.216602
-0.329957
0.546559
-0.134381
0.0942561
0.36098
-0.540328
0.179348
-0.138143
-0.0104226
0.00951116
0.0106925
0.207669
0.567486
-0.339462
-0.228024
0.00634952
-0.00518006
-0.00116946
0.172579
0.0395749
0.532469
-0.171489
-0.164983
0.0355253
-0.106437
-0.275583
-0.275347
-0.0470943
0.101299
-0.0542047
-0.472605
0.263781
-0.304845
-0.162687
0.467532
0.584638
-0.256899
0.195489
-0.162008
-0.0334814
-0.0699576
-0.169845
0.0476946
-0.271547
-0.403581
0.359024
0.126847
-0.610922
0.583979
0.0269425
-0.141773
-0.30854
0.450313
-0.185373
0.0710797
-0.116445
0.0453651
0.300107
-0.0968949
0.198101
-0.278547
0.0804458
-0.153149
-0.238383
0.199571
0.385067
0.286357
0.027142
0.480916
-0.58384
0.0395342
-0.0345676
0.0754955
-0.260488
0.184993
0.0158333
0.292085
-0.307918
-0.11159
0.376523
0.392053
0.175433
-0.38204
0.270449
-0.052807
0.198419
-0.145612
0.13887
0.0268381
0.00533445
-0.106799
0.544449
-0.43765
-0.0751094
0.27321
0.448358
-0.61742
0.169062
-0.19917
0.258391
-0.308367
0.229438
0.0698541
-0.123009
-0.0303878
0.511304
-0.0447789
0.430119
-2.27798e-06
0.00280991
-0.0202721
0.0986808
0.324065
-0.505654
-0.198
-0.295026
0.493026
0.522284
-0.37724
0.0460557
-0.0432239
-0.00283179
-0.242228
0.0646715
0.177557
0.361439
-0.493088
0.0801808
0.219926
0.101668
-0.413192
0.311524
-0.612527
0.279401
0.108746
-0.00165369
-0.36459
0.2404
0.12419
-0.25698
0.108424
-0.0333643
-0.0750599
-0.0778979
0.030663
-0.116595
-0.313156
0.110264
0.202892
-0.436135
0.454224
0.129111
0.31239
-0.441501
-0.110386
-0.0130188
0.123405
0.0432476
-0.018367
-0.0248806
-0.558678
0.101316
0.0833913
0.0253549
0.083968
-0.0045887
0.000493133
0.103088
0.0362183
0.0216717
0.0215759
0.0166328
0.0294229
0.419146
-0.567561
0.148415
0.036958
0.183896
-0.0958244
-0.0230905
0.118915
-0.210411
0.303841
-0.44257
0.138728
0.571238
-0.426824
-0.126002
0.0375826
-0.00407305
-0.496912
0.132919
0.185552
-0.0404746
0.278317
-0.0764304
-0.201887
0.0767818
0.165465
0.654178
-0.40882
-0.245359
0.291739
-0.0965714
-0.195168
-0.591499
0.441993
0.149506
-0.145747
-0.0258161
0.128284
-0.650551
0.207333
0.443218
0.016332
0.0252334
-0.0173533
0.159439
-0.077709
0.134089
-0.0563801
0.120645
-0.309423
0.188778
-0.284718
-0.392429
-0.0022881
0.00390043
-0.00161234
-0.594544
0.245966
0.348579
-0.00389137
0.00189246
0.00199891
0.0323969
0.143505
-0.124749
0.0536201
-0.0058118
-0.0478083
0.088901
0.352309
-0.44121
0.118227
0.322107
-0.440334
-0.0923832
-0.014563
0.106946
0.304883
0.150779
-0.455662
-0.182059
0.406153
-0.317252
-0.145688
-0.676245
0.265162
0.411083
0.113097
0.327588
-0.440685
0.161953
-0.543605
0.381652
-0.0137218
-0.0408455
0.0545672
-0.739066
0.516173
0.222893
0.0603725
0.167414
-0.227786
0.0430244
0.0653999
-0.264599
0.205299
-0.0634011
0.0888191
-0.025418
-0.408792
0.103939
-0.304957
0.201018
-0.276775
0.420605
-0.14383
-0.192449
-0.546617
0.0451323
-0.0922266
0.0577782
-0.0491305
0.100693
-0.167264
-0.327844
-0.286643
-0.158549
0.445192
0.0150534
-0.0927624
-0.344423
0.46265
0.441198
-0.328101
-0.139167
-0.450128
-0.136397
0.586525
-0.000237115
0.0580153
-0.322069
-0.354176
-0.373345
0.460127
0.418807
0.0549295
-0.473736
0.67951
-0.186421
-0.493089
-0.0988465
-0.600262
0.45791
0.142353
0.455255
-0.329875
-0.12538
-0.0686768
0.26706
0.110962
-0.502669
0.391707
-0.228806
-0.441663
0.497481
-0.386518
-0.448611
-0.151651
-0.14262
0.446461
0.0622203
0.216097
0.0797536
-0.232288
0.152535
0.478462
-0.297087
-0.181375
0.0783639
-0.0380608
-0.0403031
0.313268
0.099891
-0.413159
0.196648
-0.0521296
-0.144518
-0.552986
0.277403
-0.211101
-0.075063
0.289219
0.390291
-0.0227247
-0.158203
0.180927
-0.0310871
0.114478
0.0231959
-0.161247
0.429596
-0.268349
0.0948743
0.211175
-0.306049
0.0166507
-0.195029
0.178378
-0.21079
0.157983
0.177113
-0.131434
0.420187
-0.288753
-0.184017
0.152414
0.0316031
-0.440553
0.304673
-0.195469
0.18396
0.264949
-0.070887
0.22413
0.437399
0.0323093
-0.0957103
0.0590662
0.0277004
-0.0867665
-0.201502
0.2708
-0.069298
0.420219
-0.106951
-0.000295
0.00357716
-0.157147
0.174361
-0.0172138
-0.67544
0.282834
0.392606
0.0198407
-0.0259295
-0.0774984
-0.330791
-0.0746529
0.405443
0.653695
-0.346221
-0.155275
-0.372127
-0.303313
0.191554
0.286908
-0.409842
0.110924
-0.520623
0.409699
-0.201381
0.293317
-0.276344
0.565742
0.192402
-0.173409
0.0506419
0.323217
-0.142876
-0.0797753
-0.55915
0.200547
0.358603
-0.287926
-0.26506
0.270976
-0.365906
-0.0132974
0.0576591
-0.0443617
-0.368366
0.597177
-0.228811
-0.155615
0.135285
0.390682
0.27978
0.135284
0.0674982
-0.0905887
0.190033
-0.265143
0.612569
-0.612569
-0.188077
0.165487
0.0356362
-0.145293
0.109657
0.020911
-0.0489774
-0.363157
-0.228342
0.0332603
0.0941699
-0.732906
0.39664
-0.316078
0.109444
0.206633
0.00410023
-0.00788625
-0.104226
0.375202
-0.0887659
0.565462
0.221152
0.401482
0.149708
-0.337006
0.444202
-0.107196
0.103282
-0.405914
-0.0279199
0.0291561
0.0653486
0.715357
-0.297497
-0.41786
0.00153277
-0.0028956
0.00136283
-0.0497989
0.134226
0.0733627
-0.0606721
-0.0126906
-0.0268911
0.177187
-0.118764
0.537571
0.00761563
-0.00598922
0.46317
-0.640052
0.176882
0.474076
-0.597033
0.404107
0.192925
0.191322
-0.174672
0.20983
0.382307
-0.206089
-0.0492617
0.25535
0.261647
-0.0122755
-0.249372
-0.394189
0.0578623
-0.10093
0.165112
0.193612
-0.642223
0.158454
-0.0643203
-0.0941341
0.510348
0.136487
0.0454662
0.00505835
-0.0505246
-0.19639
-0.36276
0.0117012
0.0466544
0.283575
0.431782
0.111885
-0.0937157
0.18246
0.478737
-0.587841
0.245698
0.342143
0.212578
0.0791614
-0.156454
0.623593
-0.174324
-0.449269
-0.438769
-0.142355
0.581125
0.230811
-0.272819
0.0420072
-0.16939
0.146085
0.392183
-0.538268
-0.703275
0.418557
0.108896
0.0667324
-0.175628
-0.388088
-0.344818
0.171154
0.347593
-0.415816
-0.287459
-0.314106
0.117515
0.196591
-0.54881
0.166664
0.0288247
-0.490257
0.322994
0.0692119
-0.378375
-0.19497
-0.644206
0.231936
0.41227
0.420855
0.178218
0.112513
0.0115911
-0.124104
-0.0255025
-0.124256
0.149759
-0.570617
0.231112
0.339505
-0.360093
0.120025
0.240068
-0.0609567
-0.0416455
-0.191186
-0.0831742
-0.051207
-0.0658665
0.480854
-0.0414014
0.112481
0.24403
-0.423054
-0.0811575
-0.185711
0.266868
0.150185
0.030366
-0.180551
-0.0294659
0.0885321
-0.141544
0.599454
-0.174709
-0.00035581
-0.00115237
0.00352116
-0.0152119
0.0479205
0.148727
0.502894
-0.366044
-0.136849
0.273019
-0.0422081
-0.139366
0.0895673
0.341333
-0.25689
-0.0844422
0.150751
-0.322782
0.199784
-0.00902633
0.0152734
-0.0062471
-0.141172
0.137131
0.102743
0.499854
-0.602597
0.0361292
-0.0828243
-0.0288089
0.195473
-0.0975017
0.0590768
0.0384249
-0.114107
-0.309007
0.423114
0.0295976
-0.215271
0.185674
-0.0636186
-0.446482
0.0127093
0.11131
-0.12402
0.505777
-0.373906
-0.131872
-0.674448
0.37983
0.294618
0.454742
-0.523391
0.162251
0.361139
0.195004
-0.241054
0.04605
-0.108645
0.0590193
0.528846
0.0837231
0.41045
0.243245
0.13639
-0.51729
0.3809
-0.0482391
0.0298721
-0.196239
-0.519358
0.306632
0.580774
-0.43584
-0.430136
0.15936
0.270777
-0.226874
-0.0318734
0.258748
-0.380959
0.188561
0.0583508
0.260295
-0.204994
-0.00324401
0.208238
0.092135
0.118447
0.426432
0.154341
0.706527
-0.288613
-0.417914
0.192163
-0.0832672
0.273345
0.433182
0.479449
-0.195472
-0.283977
0.589383
-0.415815
-0.173567
-0.142704
-0.0390475
-0.114215
0.153263
0.284954
-0.362675
0.227956
0.13472
0.297842
-0.514444
-0.228662
0.111189
-0.0987635
0.0909452
-0.234083
0.164126
-0.0462485
0.148899
-0.201727
0.118249
-0.287615
0.106842
0.396052
0.0182472
0.0551155
-0.390477
0.526867
0.440241
0.149141
0.119663
0.0107604
-0.130424
0.126846
0.0257103
-0.00232283
-0.118614
0.120937
-0.142067
0.540474
-0.398407
0.249851
0.120344
0.278498
-0.400012
0.121514
-0.18967
-0.119753
0.473006
-0.645791
0.172785
-0.0851733
0.307346
-0.0789367
0.167364
-0.0884271
-0.175396
-0.0721828
0.224358
-0.152175
-0.0316063
0.17066
-0.0265757
-0.144084
-0.391746
0.0518246
0.00179543
-0.316365
-0.166996
-0.197594
-0.705356
0.279937
0.425419
0.189987
-0.1639
-0.0260874
0.535047
-0.0195533
-0.421781
0.184766
0.000786075
-0.420669
0.57728
-0.156611
-0.41031
0.299254
0.111056
0.63559
-0.17242
-0.488918
0.202275
-0.148539
0.108322
-0.15457
-0.235602
-0.410251
0.55206
-0.160016
-0.125016
0.0415374
-0.203545
-0.203458
0.0393797
-0.713853
0.416356
-0.354769
0.187772
0.0215213
0.13433
-0.155852
0.011322
-0.00370634
-0.0133184
0.0923406
-0.112613
-0.102166
-0.149759
0.17441
-0.0246506
0.302245
-0.60709
-0.433097
0.301663
-0.135517
0.482164
-0.346648
-0.239715
0.0677406
0.171974
-0.414888
0.300782
-0.696707
0.262472
0.434235
-0.499311
0.362729
0.136583
0.207953
0.0721702
-0.280123
0.169457
-0.283578
-0.413129
-0.200688
-0.202936
0.403624
-0.0464336
0.196619
0.0436253
-0.0125795
0.158295
-0.00145751
-0.000830587
0.26332
-0.00167331
0.114309
-0.137321
0.0230119
0.140094
0.0810148
-0.12798
-0.195589
-0.203925
0.235256
-0.0313319
0.0418353
-0.00659466
0.0378297
-0.443091
0.301318
-0.225054
-0.0791658
-0.132565
-0.108189
-0.0318313
0.14002
-0.120032
0.382636
0.487982
-0.126543
-0.322568
-0.16635
-0.15262
0.232374
-0.111539
0.0929583
0.253176
-0.346134
0.2233
-0.321332
-0.251508
0.0102581
0.190833
0.38256
-0.134602
0.303961
-0.121447
-0.119398
0.240845
-0.183587
0.473699
-0.290112
0.425372
-0.123702
-0.116013
-0.591672
-0.0495149
-0.163137
-0.265968
0.18481
-0.0736623
0.148896
-0.0752338
0.114146
-0.140696
0.0265499
0.510646
-0.183482
-0.327164
0.00378716
-0.0045799
0.000792735
0.0126217
0.149694
-0.0355481
-0.0057274
0.190493
-0.0316051
-0.113688
0.555784
-0.156471
-0.399313
-0.267493
-0.0951827
0.0282599
0.161727
0.275323
0.301091
-0.576414
0.388411
0.167373
-0.0410176
-0.0109099
0.203312
0.11158
-0.312268
0.461011
0.0740358
-0.677064
0.227308
0.449756
-0.264726
-0.412338
-0.133243
-0.34678
0.348784
-0.492615
0.143831
-0.447482
0.117607
-0.637059
0.247724
0.389334
-0.424633
-0.449402
0.611036
-0.486555
-0.124481
-0.0578086
0.0440869
0.121513
0.234733
0.150044
0.444286
-0.59433
0.0541127
-0.0599245
-0.00168855
-0.00349151
0.263816
-0.0688111
0.201385
-0.286558
0.102286
-0.144675
-0.0674862
0.130591
-0.149998
0.0438897
0.0165943
-0.060484
-0.327877
0.00530883
0.15383
0.325619
-0.511005
0.591459
-0.0658953
0.0934956
-0.0276003
0.0698931
0.235533
-0.305426
-0.0271803
-0.0137468
0.0409271
-0.0368686
-0.0606331
0.16983
-0.587438
0.417608
0.164213
-0.532579
0.0341214
0.143894
-0.582663
0.551594
-0.398997
-0.152597
-0.000618071
0.00194245
-0.00132437
-0.355782
0.60404
-0.248258
0.39626
-0.117762
0.659685
-0.199947
-0.0350276
0.0014119
0.0336157
0.612024
-0.202485
-0.409539
-0.450614
0.541824
-0.379871
0.466752
-0.549534
0.61192
-0.161583
-0.00820404
-0.000822282
0.12819
-0.473146
0.314597
-0.703353
0.41474
-0.00328522
-0.100185
0.147579
-0.0200363
-0.127543
-0.357689
-0.136533
0.494221
-0.197878
-0.350383
-0.155537
-0.420513
-0.173036
0.593549
-0.203503
0.276949
-0.0734459
-0.498695
0.332695
0.166001
0.481025
0.0705694
-0.0348829
0.0410195
-0.00613665
-0.197236
-0.0855419
0.282778
0.565016
-0.176604
-0.453729
0.270142
-0.182407
-0.364921
0.547327
0.17032
-0.583525
0.413205
-0.398568
-0.189273
0.130558
0.357314
-0.487873
-0.137888
-0.105607
-0.276433
0.206473
-0.0577453
0.131999
0.226727
0.444945
0.178648
0.128632
0.262313
-0.390945
0.0478911
-0.187182
0.139291
0.166784
0.0246742
0.0768944
-0.155831
-0.140495
-0.259517
0.0724078
0.239042
-0.311449
0.26844
-0.372666
0.296882
-0.403274
0.106392
0.00166002
-0.00227809
0.471285
-0.300131
0.19143
-0.299283
0.107854
0.00343135
0.53486
-0.53486
0.0814832
-0.0290571
-0.0524262
-0.149914
-0.454008
0.603921
-0.0149707
0.0593689
-0.0443983
-0.210785
0.283193
0.291042
0.110498
0.0453782
-0.0557741
0.0463584
-0.537257
0.35485
0.0160436
0.0964696
0.10315
-0.599175
-0.106627
0.247314
-0.191907
-0.078324
0.270231
-0.150298
-0.0223684
0.172667
0.0181865
-0.0685895
0.050403
-0.0914553
0.34606
-0.134677
-0.02247
-0.1353
-0.0202679
0.166018
0.107322
-0.540863
0.433541
-0.582502
0.323395
0.063189
0.161601
-0.22479
-0.0785223
0.0555281
0.0229942
0.0792388
0.000468906
-0.7002
0.416622
-0.0431322
0.00824934
-0.571614
0.430776
0.111877
-0.536837
0.519474
0.0173634
-0.218287
0.302759
0.135957
0.347846
-0.483803
0.5293
-0.0625479
0.293197
-0.223303
-0.620292
0.450787
0.169505
0.581863
0.128365
-0.149352
0.0209863
0.0973307
0.0367584
-0.208154
-0.349221
-0.27107
-0.379134
0.244532
-0.0014009
-0.00249048
-0.427229
0.128193
-0.153696
-0.423416
0.0613876
-0.0174979
-0.256058
-0.171382
0.427441
-0.432648
0.291834
0.140814
0.276059
-0.0860257
0.147511
-0.586685
-0.26515
0.0708927
0.0816018
0.386
0.16606
0.264557
0.00659059
-0.426855
0.557372
-0.344092
-0.213281
-0.0953613
0.610601
-0.452076
-0.158525
-0.0208748
0.0502977
0.0452315
-0.0585289
-0.122777
-0.227031
0.349807
0.25165
0.377399
-0.374859
0.493225
-0.358442
-0.134783
-0.0689716
-0.172083
0.295318
-0.200443
-0.440002
-0.149575
0.589577
-0.430535
0.521005
-0.0904704
-0.311443
0.00187323
0.154028
-0.284867
-0.0382217
0.00311698
-0.308444
0.408335
-0.334816
0.0549447
-0.0594841
0.183239
0.454932
-0.0825753
-0.207716
-0.401123
-0.0616387
0.0214948
0.0401439
-0.31909
0.104204
0.214886
0.140766
0.029894
0.0455245
-0.00368919
-0.694086
0.42936
-0.531636
0.389569
0.233124
-0.191581
-0.528255
0.117759
0.410496
0.123175
0.251741
-0.374916
0.0439615
-0.0441986
-0.130694
0.479478
-0.152445
0.538445
0.0240624
0.102214
0.0258071
-0.128021
0.100149
-0.083462
-0.0166869
-0.183097
-0.354903
-0.447626
-0.147583
0.595209
-0.417863
0.570187
-0.152324
-0.638981
0.205187
0.433793
-0.449363
0.140823
-0.112004
-0.106512
0.407633
-0.127853
-0.144753
-0.0392637
-0.167672
0.128625
-0.431614
0.143687
0.0348934
-0.17858
0.277174
-0.157807
-0.330188
-0.264356
0.168918
-0.0281527
0.000494919
-0.00216528
0.138426
-0.155779
-0.0515341
0.0822799
0.313099
0.176468
-0.489568
0.0884231
0.404802
-0.195807
0.30607
0.105839
0.174685
-0.280523
0.373966
0.180124
-0.522218
0.386701