/*--------------------------------*- C++ -*----------------------------------*\
| =========                 |                                                 |
| \\      /  F ield         | OpenFOAM: The Open Source CFD Toolbox           |
|  \\    /   O peration     | Version:  v2012                                 |
|   \\  /    A nd           | Website:  www.openfoam.com                      |
|    \\/     M anipulation  |                                                 |
\*---------------------------------------------------------------------------*/
FoamFile
{
    version     2.0;
    format      ascii;
    class       surfaceScalarField;
    location    "250";
    object      phi;
}
// * * * * * * * * * * * * * * * * * * * * * * * * * * * * * * * * * * * * * //

dimensions      [0 3 -1 0 0 0 0];
oriented        oriented;


internalField   nonuniform List<scalar> 
20386
(
-0.510093
0.298727
0.211366
0.16236
-0.19115
0.0287906
0.0385262
-0.00755382
-0.0309724
-0.0396171
0.0393442
0.000272952
-0.561138
0.299637
0.261501
0.0281348
-0.0375711
0.00943636
-0.0155983
-0.067895
0.0834933
0.0868007
-0.120993
0.034192
-0.0634766
-0.0687061
0.132183
-0.0217451
-0.0314576
0.0532027
0.0672507
-0.0760376
0.00878693
0.0193535
-0.0269513
0.00759782
0.0355688
-0.0865922
0.0510234
-0.139683
0.131936
0.00774693
0.00687699
0.086179
-0.093056
0.190475
-0.170247
-0.0202281
-0.124595
0.0749619
0.0496332
0.0126011
0.0205116
-0.0331127
0.0568731
0.0103776
-0.0249493
0.203319
-0.17837
-0.0905002
0.121943
-0.0314428
-0.368312
0.233407
0.134905
-0.129581
-0.234992
0.364573
-0.0021394
-0.0671466
0.069286
-0.0083885
-0.065949
0.0743375
0.0181785
0.023312
-0.0414904
0.123413
-0.214286
0.0908722
0.247957
-0.124544
0.0996048
-0.139622
0.0400174
0.0974113
-0.13896
0.0415485
-0.0375342
0.124335
0.226265
-0.133565
-0.0927004
0.0562177
-0.0201074
-0.0361102
-0.147431
0.0105214
0.136909
0.158519
-0.144261
-0.0142588
-0.0937303
0.0853418
-0.280841
-0.280297
-0.443643
0.29914
0.144503
0.0964566
-0.159933
-0.00158007
-0.0347474
0.0363275
0.148839
-0.0514277
-0.156189
-0.0261999
0.182389
0.0287361
-0.120741
0.0920046
-0.311258
0.573167
-0.261909
-0.163824
0.313164
-0.14934
-0.199276
0.457717
-0.258441
-0.0388009
0.201161
0.0159438
0.0721404
-0.0880842
-0.13603
-0.0475179
0.183548
-0.134852
0.173974
-0.0391215
0.055393
0.0550277
-0.110421
-0.0544274
0.0899963
0.121075
-0.0214701
-0.297886
-0.212207
-0.0246518
-0.112637
0.137289
0.251659
0.154665
-0.406324
-0.255154
-0.188489
-0.151315
-0.216997
-0.175191
-0.185253
0.360443
0.158896
-0.285188
0.126292
0.335793
-0.623601
0.287808
0.508785
-0.329992
-0.178793
0.172994
-0.0126814
-0.160313
0.0849073
-0.0870467
-0.0187788
-0.0625118
0.0812906
0.25024
-0.379821
0.384685
-0.64163
0.256945
0.178891
-0.191785
0.0128937
-0.130592
-0.0168387
0.0483229
-0.184353
0.23724
-0.388243
0.151002
-0.000492368
0.0390186
-0.182648
0.0477954
-0.0861499
-0.00887341
0.0950233
-0.139661
0.139006
0.000655115
0.00573229
0.164094
-0.169826
0.350456
-0.384867
0.0344116
-0.0420084
0.0131132
0.0288952
-0.0651047
0.0719817
-0.0725659
0.108289
-0.0357235
0.00353414
-0.0315601
0.028026
-0.0304083
0.0312768
-0.000868542
-0.172155
0.295354
-0.123198
0.443811
-0.218883
-0.224928
0.138019
-0.123767
-0.0142523
0.0846907
-0.0415816
-0.0431091
0.184623
0.0358613
0.0203563
0.0922281
-0.00279195
-0.0894362
0.19225
-0.165947
-0.026303
0.178049
-0.207283
0.0292338
0.263069
0.0812449
-0.344314
-0.147791
-0.120835
0.268626
0.131355
-0.261616
0.130261
0.678211
-0.373024
-0.305187
0.0187712
0.0628382
-0.0816094
0.291618
-0.028549
-0.132715
-0.0062451
-0.0333359
-0.0517366
0.0850725
0.0239174
0.0422774
-0.0661948
0.166281
0.00671361
-0.0466886
0.0249436
0.0170261
-0.129445
0.308656
-0.179211
0.0271426
-0.183332
-0.00334253
0.152977
-0.149634
0.0278411
0.000293703
0.296127
-0.164772
-0.649703
0.427841
0.221862
0.188067
0.00240814
-0.454608
-0.0138455
0.468454
-0.245262
0.0814379
-0.322552
0.659763
-0.337211
-0.129876
-0.00980723
0.201333
-0.226283
0.0188655
-0.0982678
0.0794023
0.645967
-0.374916
-0.271051
0.0408808
0.00246851
-0.0433493
-0.17888
0.218188
-0.0393084
-0.0681857
0.0525874
-0.115165
0.024665
0.0274177
-0.0953127
-0.0351227
0.0905157
0.00366385
-0.143325
0.257962
-0.538803
0.489691
-0.153898
-0.269108
0.181315
0.0877937
-0.0640696
0.0440985
0.0199712
-0.291176
0.119021
0.041866
-0.0383319
-0.0483939
0.566554
-0.51816
0.0174532
0.0747749
0.418246
-0.182034
-0.236212
0.192238
-0.210739
0.0185011
-0.114602
0.147232
-0.0326303
-0.503002
0.0443842
-0.11098
0.0665953
-0.167951
-0.101158
0.28581
0.206632
-0.492443
-0.185685
0.156463
0.0292223
0.144284
0.179318
-0.323603
0.246383
-0.557641
-0.103988
0.072308
0.03168
0.257868
0.185943
-0.0954231
0.0267516
0.0686714
0.203075
-0.412032
0.208957
0.0640781
0.0441051
-0.108183
0.15281
-0.0298274
-0.122983
0.0870971
-0.105876
-0.182073
0.0331362
0.148936
-0.133463
0.0135509
0.119912
-0.608027
0.285475
0.0735661
0.0420302
-0.115596
-0.0732108
-0.0307773
-0.291802
0.538184
-0.123736
0.146045
-0.0223092
0.0467689
0.0956376
-0.142406
-0.300933
0.153142
-0.0351002
0.108666
0.023393
0.0282841
-0.0516771
0.162912
0.0293379
0.102558
0.123707
0.0828244
-0.0576299
-0.0251944
-0.0161729
0.0343513
-0.166207
0.191285
-0.0250781
-0.310657
0.152151
0.158506
-0.230513
-0.231793
0.462306
-0.230397
0.416933
-0.186537
-0.00975094
0.140659
-0.130908
-0.211469
0.511106
-0.465792
0.168985
0.296808
-0.119181
0.146308
-0.0271266
-0.17855
0.164317
0.0142328
0.120929
-0.14558
0.193781
-0.150505
-0.0432763
-0.0747181
0.218025
-0.143307
0.0207439
-0.022324
-0.0185883
-0.0589592
0.0775475
0.320669
-0.112016
-0.208653
-0.0214192
-0.0426504
-0.138756
0.00604083
-0.117353
-0.0161096
-0.0105483
0.0434471
-0.0328988
-0.00228089
0.0431617
-0.035582
-0.000874979
0.036457
-0.140849
-0.0269732
0.167822
-0.0263637
0.0273114
-0.0009477
-0.233109
0.210677
0.0224314
0.0328955
-0.0340169
0.00112141
-0.24025
-0.10922
0.34947
0.112679
0.0145614
-0.127241
-0.343403
0.214268
0.129135
0.211275
0.178599
-0.389874
0.151807
0.149657
-0.301464
-0.0285854
0.0439991
-0.0154137
-0.063874
0.110643
-0.217979
0.0359062
-0.0169594
0.041694
-0.0247347
-0.401862
0.231789
0.170072
-0.178904
0.175561
0.00393249
0.160161
0.073465
0.493089
0.0864762
0.26398
-0.0616541
-0.130187
0.191841
-0.154875
-0.138816
0.293691
0.156828
-0.218482
-0.0560037
0.0734569
-0.0440992
0.0680166
-0.240551
0.461926
-0.221375
-0.0543176
0.0257322
-0.340698
0.165507
-0.0327562
-0.00686095
0.0209364
-0.187143
-0.138709
-0.178469
0.317178
-0.311613
0.610862
-0.299248
-0.0610723
-0.0343507
0.104919
-0.120786
0.0158668
-0.185215
0.329499
0.0428
-0.085099
0.042299
-0.0341295
-0.0465112
0.0806406
0.356527
0.0403573
-0.396885
-0.219449
-0.246344
-0.139294
0.104194
-0.14454
0.308738
-0.164198
0.0337645
-0.0333773
-0.000387181
-0.233598
0.15888
0.171458
0.156384
-0.327841
0.0366222
0.0462022
0.395021
-0.10921
-0.108696
0.117451
-0.00875543
0.0365101
0.0109668
-0.0474769
0.0301407
-0.054425
0.0242843
-0.0167971
0.0525171
-0.0357201
0.0478262
-0.0176855
-0.155985
0.100396
0.0555896
-0.0272667
-0.0486238
0.0758905
0.57009
-0.586633
0.0165432
-0.154716
0.07659
0.078126
0.0331212
-0.273371
0.029623
-0.0283404
-0.00128258
0.61654
-0.341142
-0.275398
-0.0196923
-0.102962
0.122655
-0.475116
0.0145154
0.460601
-0.090903
0.0183371
-0.0206273
-0.0292066
0.0498338
-0.0971689
0.0079448
0.0892241
0.119689
-0.0147699
-0.278808
0.485978
-0.20717
-0.0799477
-0.0343116
0.114259
0.168624
-0.0518212
-0.0727738
-0.0485179
0.0315585
-0.4299
0.211017
0.0278349
0.365051
-0.12781
0.0240277
-0.0758484
0.0518208
-0.330202
0.495125
-0.164922
0.124273
-0.0115937
-0.028644
-0.006938
0.216062
-0.456613
-0.0230067
-0.0225812
-0.262651
0.464721
-0.20207
0.150571
0.145556
0.179026
-0.36424
0.333265
0.084981
0.0377003
0.00435089
-0.0420511
-0.166406
-0.0556382
0.222044
-0.0193131
0.125245
-0.105932
0.0672504
0.0696294
-0.13688
-0.121039
0.0606364
0.0604028
-0.0341698
0.10142
0.103336
-0.578452
-0.0797959
-0.0412434
0.0538435
-0.0871794
-0.031323
0.0954011
-0.113858
-0.196799
0.0594312
0.214644
-0.149225
-0.0654186
-0.0996254
0.0436217
-0.162858
0.153107
-0.199286
0.450945
-0.148594
0.320052
0.0244038
0.111726
-0.0733431
-0.0383834
0.112874
-0.108277
-0.00459759
0.106853
-0.0433932
-0.0634597
-0.0984281
-0.0562878
0.000437613
-0.147065
0.146628
-0.0384467
0.0812467
0.0470768
-0.0344757
0.0528698
-0.108057
0.0551872
0.000349213
0.131215
-0.131564
0.0491084
-0.0557128
0.00660436
-0.144549
0.159956
-0.00143608
-0.0238204
-0.0167302
0.0405506
0.54366
-0.158975
0.0494608
-0.0746668
0.025206
-0.286736
0.118785
-0.0210925
-0.0147445
0.035837
-0.137393
0.145223
-0.00782963
-0.0364457
0.0250854
0.0113603
-0.141905
0.182431
-0.0405259
-0.0459372
0.0291401
-0.137252
0.103082
0.143501
-0.123663
-0.0198383
0.243799
-0.5356
-0.247169
0.494549
-0.24738
0.133295
-0.126346
-0.00694897
0.142128
-0.387144
0.245016
0.12707
-0.115831
-0.011239
0.152764
-0.110205
-0.0425582
0.0464117
-0.00241259
0.1795
-0.166251
-0.013249
-0.00862465
-0.0217836
0.0471458
-0.0106357
0.248492
-0.201738
-0.0467546
0.0236184
0.245634
0.432577
-0.0290865
0.00799401
0.249099
-0.407352
0.158252
0.00600973
0.127285
0.0329337
-0.0330418
0.000108108
0.12483
-0.124393
-0.498859
0.299583
0.0443157
0.133734
-0.0545384
0.0315317
0.0214665
-0.0192426
-0.0172031
0.219608
-0.439016
0.219408
-0.144374
0.294945
0.114894
-0.277082
0.162187
-0.0334276
0.00960721
0.247519
-0.389398
0.141879
0.00788283
-0.131618
-0.120307
0.0403595
-0.164085
0.0335823
-0.0492642
-0.106721
-0.0360591
0.0371802
-0.00112109
-0.193393
-0.0422455
0.235638
0.183118
-0.0575277
0.077367
-0.0198393
-0.0948541
0.0431175
0.109962
-0.129654
0.0400455
0.0224965
-0.062542
0.232042
-0.494799
0.262757
0.000828701
0.0368716
-0.107067
-0.216535
-0.389667
0.15927
0.28601
-0.127114
-0.0480721
0.0375238
-0.0682173
0.212507
-0.14429
0.27043
-0.413058
0.142629
0.218672
0.101997
0.120188
0.0397676
0.020069
-0.128765
-0.083717
0.0593563
0.0243607
0.00848211
0.0244134
-0.23177
0.401588
-0.169817
-0.0709857
-0.0686365
0.0197348
0.0909264
-0.0327201
-0.0582064
-0.0236074
-0.0573391
0.0809465
-0.58946
0.277847
0.146546
-0.301421
0.0271271
0.0432127
-0.0703397
-0.0775603
-0.0342947
0.111855
0.00550527
-0.126458
0.120953
-0.0480505
-0.0347204
0.0827709
-0.0635779
0.264911
0.12167
-0.0471007
-0.0745695
-0.261459
0.0950523
-0.00305338
-0.13434
0.0990212
-0.292414
-0.0171614
0.048598
-0.0314367
-0.186332
0.334775
-0.148443
0.0844338
-0.0604062
0.0623052
0.059365
0.0331166
-0.0328651
-0.000251422
0.00971689
0.0286684
0.0144644
-0.0431328
-0.129627
0.112429
0.0171983
-0.266817
-0.0958733
0.00972338
-0.0231687
0.144097
0.0328852
-0.058997
0.0261118
0.00687294
0.0395387
0.148282
0.160456
0.427296
0.232467
-0.157261
-0.11599
0.273251
0.426241
0.0655988
0.029285
-0.0948838
0.184999
-0.148335
-0.0366643
0.144233
-0.0240446
0.0315534
-0.142651
0.111097
0.0382147
-0.0523367
0.014122
-0.0383821
0.094672
-0.05629
0.0331244
-0.145401
0.15652
-0.0111194
-0.090754
0.177015
0.243408
-0.420423
0.0493803
0.147166
-0.20676
0.0595939
0.015851
0.198793
0.0447281
0.0461984
-0.046992
0.00151796
0.045474
-0.128467
0.0755981
0.0528686
0.112881
-0.0841445
-0.00426946
0.154113
-0.149843
-0.0309835
0.0379179
-0.00693437
0.0329992
0.215493
-0.0965028
-0.000666149
0.243106
-0.158737
-0.0843687
-0.103742
0.118793
-0.0150507
0.391647
0.219215
-0.0332131
0.0826739
0.393089
-0.181813
-0.224297
0.15608
0.0703626
0.31149
-0.381852
-0.216552
0.437973
-0.221421
-0.00303767
0.126689
-0.123651
0.319143
0.379458
0.237083
0.145241
-0.117589
-0.0276521
0.207742
-0.287643
0.0799013
0.192487
-0.0405675
-0.15192
-0.037737
0.134194
-0.0278336
0.00964938
0.0181842
0.323981
-0.491837
0.167856
-0.0934327
0.132163
-0.0387306
0.224329
0.284455
-0.11447
0.150679
-0.0362088
0.0128118
-0.477492
0.46468
-0.0366201
0.000561025
0.620614
-0.303583
-0.317031
-0.171332
0.33222
-0.160888
0.50295
-0.204223
-0.0251249
0.0332354
-0.0339358
0.000700434
-0.034446
0.242188
0.189422
0.0286032
0.298608
-0.170655
-0.127952
-0.0345431
-0.0318999
0.0664431
-0.213447
0.0345667
-0.132063
-0.154673
0.0692611
-0.0533172
0.00676842
0.0228546
0.149725
-0.0162529
-0.133472
0.0681726
-0.0494014
0.199446
0.0806442
-0.28009
0.0500165
0.0307439
-0.0807604
0.0540644
-0.0726528
0.176537
-0.00295654
0.038384
0.0501126
-0.0884966
-0.287606
0.140962
0.146644
-0.279405
0.190567
0.0888385
-0.133189
-0.0122119
-0.149018
0.149367
0.131403
-0.33713
0.205728
0.418974
-0.406162
0.0538255
0.0257374
-0.0795628
0.110925
-0.148662
0.0929915
-0.0273927
-0.0402242
0.0594084
-0.0191842
0.607981
-0.324816
-0.283165
0.0448065
-0.105143
0.0603364
0.504039
-0.570321
0.066282
0.00910807
0.0240085
-0.0637241
0.334154
0.499532
-0.206144
-0.293388
-0.0337097
0.0875532
-0.0219693
0.037426
-0.0154567
-0.0748648
-0.0118857
-0.0896311
0.101517
0.0884641
-0.05008
-0.117656
-0.127605
0.0188351
0.128225
-0.14706
-0.0142773
-0.106463
-0.418043
0.206337
0.211706
-0.268043
0.443853
-0.17581
-0.165185
-0.0679239
-0.016199
-0.0116347
-0.0111099
-0.194875
0.205985
0.137986
-0.120025
-0.0179602
-0.342744
0.156411
-0.0619631
0.0217389
-0.0558005
0.0867955
-0.030995
-0.0683327
-0.0153842
-0.0168758
0.0401877
-0.53687
0.323061
0.213809
0.0687477
0.00350081
0.0456076
-0.122939
0.113103
0.00983594
-0.171446
-0.0420004
0.182634
-0.222789
0.0401547
0.262447
0.0708182
-0.33525
0.52803
-0.19278
0.205358
-0.216468
-0.0223219
-0.0583367
0.0806586
0.00422107
0.0828761
0.155403
-0.149897
-0.308486
0.176423
-0.209295
-0.0339716
0.0624584
-0.0284869
-0.255702
-0.0835756
0.339278
-0.273065
0.134356
0.124051
-0.0162451
-0.107805
-0.0380933
0.0182827
0.0198105
0.123782
0.171571
-0.151335
-0.0433127
0.194648
0.0283643
-0.489163
0.460798
-0.296563
-0.292897
-0.212686
0.367351
-0.044037
0.191203
0.419237
-0.390873
0.185588
0.231345
0.0293315
-0.00893631
-0.0203952
0.230239
-0.429525
-0.0031471
-0.195932
-0.222111
-0.0568909
0.0397296
0.223327
0.127275
-0.0844211
0.0502916
0.323227
-0.189999
-0.133228
0.102811
-0.0278493
0.037002
-0.0928025
0.165289
-0.179446
0.0141565
-0.0788424
0.0307919
-0.198787
-0.330347
0.181753
-0.0215398
0.00881287
0.0249516
0.0284752
-0.0188259
-0.0142308
-0.45626
-0.0670602
0.52332
0.0307526
-0.562203
0.26564
-0.00632339
0.264191
-0.0662582
-0.00977947
-0.0136374
-0.0239337
-0.122481
0.148811
-0.0263294
0.12766
-0.583919
0.522074
-0.239161
-0.282913
-0.222045
0.419028
-0.196983
0.0467998
0.145438
0.0573269
-0.209648
0.152321
-0.0561935
0.0222219
-0.380699
0.22946
0.151239
0.0587438
-0.0810657
0.0229939
-0.135631
-0.133901
0.067044
0.0668568
0.245589
-0.287835
0.0165364
0.136366
0.0818228
-0.0249041
-0.0131891
0.245612
-0.492781
0.166019
0.166201
0.144017
0.0745325
-0.218549
-0.0270944
0.000730738
0.149533
0.0935729
0.103215
-0.0310749
-0.116694
0.0232617
-0.0306993
-0.0113091
0.00739344
0.306879
-0.202547
-0.104332
0.0678751
-0.0407481
0.000803844
0.0285276
-0.150263
0.0400574
0.0159577
-0.0734854
-0.290396
0.176509
0.113887
-0.146513
0.143475
-0.0659714
-0.0679294
0.0137094
-0.0586314
0.0265828
0.0320485
0.208038
-0.394808
0.186771
-0.0787217
0.435249
-0.300162
-0.307864
-0.158539
0.48252
0.328394
-0.162374
0.0380721
-0.040353
-0.19544
0.0441046
-0.0296795
0.209416
-0.179736
-0.184018
0.379872
-0.195854
0.393811
0.252156
0.0361239
-0.283817
0.247693
-0.0218236
0.0756491
-0.0430034
0.0352477
0.01014
-0.0453877
0.120894
-0.125163
-0.129512
-0.0187669
0.148278
0.0333784
0.0346333
-0.0680117
0.133712
-0.157063
0.0233509
-0.0168433
-0.122451
-0.242778
0.0501607
0.192618
0.119256
-0.238168
0.118912
-0.0247727
-0.0285631
0.0533358
0.28608
-0.531529
0.245449
-0.0126189
0.0512276
-0.0386086
0.168744
-0.235095
-0.00768314
-0.0784686
0.0271989
-0.0435542
0.00880678
-0.055189
-0.0945233
0.149712
0.41717
-0.186931
0.046507
0.0299599
-0.076467
-0.589219
0.327387
0.261832
0.153007
-0.138713
-0.0142937
-0.0239865
0.157699
-0.591979
0.33877
0.253209
0.183616
0.110231
-0.293847
-0.596712
0.346226
0.250486
0.253097
-0.102273
-0.150824
0.601523
-0.346629
-0.254894
0.0344943
-0.0184942
0.104673
0.2387
-0.523201
0.284501
-0.306043
0.167226
0.181047
-0.0280704
0.306471
-0.497168
-0.0154019
0.100744
-0.0111667
0.0493814
0.0285951
-0.00808348
-0.0327749
-0.145775
0.280332
-0.581922
0.301589
0.26362
-0.148725
0.154142
-0.180342
-0.122414
-0.0200041
0.142418
-0.129417
0.146644
-0.0172267
0.00272236
0.34463
0.177445
0.0124865
0.0202684
-0.0327549
-0.0320159
0.0082813
0.237308
0.357164
-0.515703
0.177633
-0.307077
0.00658672
-0.0375702
-0.330259
-0.258959
-0.0618083
0.245424
0.32447
-0.540269
0.215799
0.18107
0.276648
-0.154236
-0.0941426
0.110587
-0.0164448
-0.443627
0.247695
0.0316842
0.0751686
-0.0490557
0.0963722
-0.0473164
0.25573
-0.553616
-0.27124
-0.230339
0.501579
-0.428091
0.0909609
0.0774341
-0.0309271
-0.100795
0.220051
0.0385914
-0.0562571
0.0176657
0.066619
-0.0332406
-0.264113
-0.272757
-0.0452819
-0.034906
0.0801878
-0.0304199
0.00845058
0.0211677
-0.267915
0.214739
0.0531755
-0.185406
-0.195293
0.00675347
0.119488
-0.126242
-0.771236
0.296309
0.474927
0.246066
-0.47658
0.0380002
0.00609828
0.0450211
-0.0319079
0.000387609
0.0875034
-0.0431192
-0.0212999
0.131262
-0.059604
0.046985
-0.212488
0.424203
-0.211715
-0.0436736
0.0267979
0.126916
-0.182105
-0.0326379
-0.0517832
0.26854
-0.274864
0.274582
-0.121199
-0.153383
-0.128515
0.161651
0.196678
0.0892485
-0.0618308
0.231236
-0.0526257
-0.17861
0.01122
0.181267
-0.205617
0.0969931
0.108624
-0.0923585
-0.0186211
-0.0597066
0.093063
-0.0333565
-0.142491
-0.145904
0.288395
-0.0817174
0.114415
-0.0326979
0.00466392
0.0226475
-0.0157261
-0.109735
0.100483
0.0092527
-0.0920018
0.0962229
-0.118154
-0.309937
0.00356783
-0.035128
-0.501976
0.343017
0.158959
-0.0392195
-0.0914463
0.130666
-0.298065
-0.264138
-0.457001
-0.314235
-0.10755
0.100929
0.00662027
-0.268687
0.124231
0.144457
-0.0100093
0.133661
-0.123651
-0.0594354
-0.016413
0.0190534
-0.0869825
0.0679291
-0.489963
0.405568
0.0843948
-0.194632
0.08192
0.112712
-0.0179558
-0.0895938
-0.184703
0.187529
-0.0383427
-0.149187
0.0490389
-0.252046
-0.169966
0.422013
-0.138185
-0.105012
0.243197
0.0489835
-0.0139555
-0.035028
0.413163
-0.182585
-0.230578
-0.261902
0.507514
-0.17657
0.0282347
-0.028281
-0.028268
0.056549
-0.308146
0.635533
0.0307442
0.046938
-0.0776822
-0.3801
-0.269604
0.435356
-0.229019
0.0198531
0.101222
0.243018
-0.370591
0.127573
0.0266546
-0.0849914
-0.0698462
0.0425795
-0.209649
-0.0779576
0.255681
-0.0829153
-0.172766
-0.302611
-0.187352
-0.145853
-0.0307166
-0.372394
0.227509
0.144885
-0.161942
-0.128454
-0.182572
-0.0442255
-0.0346169
-0.121266
-0.135802
0.257068
0.132035
-0.253301
0.112607
-0.133907
-0.0339383
0.0269415
0.00699685
-0.0909408
0.0227551
0.159093
-0.290811
0.131718
-0.117327
-0.120841
-0.0878924
-0.0272727
-0.034169
-0.0880887
0.0525133
-0.0327851
-0.0197282
-0.106755
-0.0113459
0.118101
-0.10152
0.122414
-0.0208946
0.0899902
-0.175217
0.0852272
0.0268673
-0.0203462
-0.0953795
0.0298148
0.0655646
-0.0665948
0.0577214
0.114035
-0.0824819
-0.362728
-0.229251
-0.017388
-0.0306842
-0.187758
-0.0809296
0.472321
0.0977681
-0.309526
0.0707985
0.238727
-0.408714
-0.664926
0.438117
0.226809
0.0379689
0.0110147
-0.117819
0.0162999
0.266756
0.451886
-0.293101
-0.158785
-0.60602
0.383937
0.222083
-0.103894
-0.129704
0.133781
0.140802
-0.0402952
0.0640008
-0.0237057
-0.316706
0.126588
0.190118
-0.0791461
0.169136
0.193021
0.306044
0.234582
-0.540626
0.356627
-0.255764
-0.100862
0.0152543
-0.0596917
0.0444374
0.338542
0.16099
0.0427494
0.041737
-0.0844864
0.0217513
-0.29944
-0.202537
0.225374
-0.487276
0.185042
0.300399
-0.141306
-0.142377
0.0129602
0.0101801
0.0368967
-0.12152
0.14047
-0.0189505
-0.0851342
0.0524962
-0.11591
0.130317
-0.0144068
0.131945
-0.0562788
-0.0756658
0.0337817
0.0935958
-0.127377
-0.198291
-0.191376
-0.0761875
0.0167521
-0.0164417
-0.120811
-0.027781
-0.135115
0.162896
0.261314
0.182539
-0.0307509
-0.148153
-0.0833993
0.0450173
-0.0226049
0.0350915
0.556916
-0.321974
-0.234942
0.226329
-0.288137
0.0318012
-0.00955733
-0.0222439
0.178868
-0.174935
0.102289
0.0114431
-0.113732
0.0999853
-0.134606
0.0346209
0.0356901
-0.0689032
-0.169834
0.516135
-0.583195
0.172984
-0.016521
-0.0800022
0.06367
0.297982
-0.361652
-0.269171
-0.327541
0.11306
-0.0107715
0.10692
-0.142133
0.0352126
0.245253
-0.0525084
0.0767184
-0.02421
-0.155067
0.479536
0.182087
0.438527
0.13169
-0.0247701
-0.0144152
0.0993225
0.161041
-0.224619
0.0326337
-0.000190836
-0.0324428
0.0244905
-0.146915
0.122425
0.286951
0.0696759
-0.10562
0.257771
-0.117274
0.136109
-0.176487
-0.19102
0.367507
-0.26076
-0.144245
0.405004
-0.475559
0.267631
0.207928
-0.324563
0.171805
0.152758
0.017448
-0.0665038
0.3489
-0.548353
0.199454
0.164287
-0.416334
-0.06829
-0.0601767
-0.0446823
0.092386
-0.0477037
0.0959768
-0.118575
0.0536856
-0.0136401
-0.208599
0.416637
-0.0994066
0.113716
-0.0143097
0.485485
-0.203837
-0.281648
-0.100531
-0.286613
-0.0260421
0.408507
-0.382465
-0.191256
-0.395376
0.306688
-0.0404493
0.0860744
-0.0456251
0.311167
-0.379591
0.0684235
-0.125754
0.553595
-0.197682
0.174644
0.0230385
0.0148379
0.0460891
-0.0865383
0.0193114
0.0529967
0.153938
-0.201763
0.0478245
-0.458534
0.29606
0.162475
-0.289969
0.177994
0.111975
0.0351138
0.033637
-0.0687508
-0.0232958
0.123281
-0.204278
-0.225622
-0.197727
0.0262804
-0.0246596
0.0746762
-0.0235285
-0.0351029
0.0531601
0.0585664
-0.0817389
0.0370566
0.141091
-0.134337
-0.282953
0.161753
-0.294951
0.15246
-0.087748
0.0287887
0.0345246
-0.0351406
0.000615971
-0.177093
0.23442
-0.498319
0.472276
0.475647
-0.137105
-0.0975649
0.00342229
0.00854924
-0.14882
0.392228
0.424508
0.0511389
0.0394486
-0.0615259
0.0220773
0.0531515
0.078793
0.134695
-0.0164202
-0.118275
0.200675
-0.194529
-0.0110874
-0.0190807
0.0418017
-0.022721
0.317489
-0.0110179
0.0512204
0.0270287
-0.0782492
0.32819
-0.227042
-0.101147
-0.358776
0.174757
0.0294979
0.178739
-0.29974
0.121001
0.0498789
0.466256
-0.0322729
-0.165409
0.2321
0.0960899
-0.157247
-0.138619
0.295866
-0.0209115
0.0579529
-0.0370414
-0.008309
0.0279772
-0.0196682
-0.315537
0.244191
0.0713467
0.0361482
0.115753
-0.151901
-0.294356
0.137109
0.0920177
0.091222
-0.18324
0.0736995
-0.0380095
0.052796
0.0523562
-0.105152
0.0129924
0.0315799
-0.0445723
0.331141
0.117432
-0.448573
-0.262355
0.157342
0.206742
0.205552
-0.412294
-0.150753
0.507918
-0.541672
0.254863
-0.403683
-0.115696
-0.114876
0.230572
-0.120217
-0.204346
-0.0315382
0.00444375
-0.032179
-0.000414279
0.0325932
0.258851
0.147102
-0.122611
0.155957
0.0547199
0.125681
-0.186493
0.0608113
0.318725
-0.119279
0.173152
-0.0192138
-0.21526
-0.279539
0.00774901
0.0251847
-0.292916
0.512242
-0.219326
0.312226
0.284789
0.197638
-0.227317
0.0619179
0.0841268
-0.125499
-0.281533
0.0302088
-0.0322527
0.0020439
-0.0505517
0.025779
-0.608114
0.390921
0.217192
-0.118046
0.0797382
0.0383082
-0.134404
-0.182302
0.115523
0.151054
-0.266577
-0.00236133
0.301501
-0.00640667
-0.0257723
-0.147859
0.442468
-0.294609
-0.0370381
0.0806088
-0.0435707
-0.268748
-0.246734
0.515482
0.384697
-0.574557
0.18986
-0.145895
0.172526
-0.0266302
0.540201
-0.60308
0.0628782
-0.353544
-0.25457
0.493384
-0.300517
-0.192868
0.147601
-0.408361
0.0483128
-0.00661877
-0.0239793
0.152205
0.169254
0.0838425
0.578981
0.118897
-0.119691
0.000794731
0.241137
-0.423722
0.0212779
-0.0225145
0.452236
-0.117916
0.0986027
0.285337
0.166549
0.028448
-0.0770718
-0.173006
0.369476
-0.19647
-0.0288619
0.0510333
-0.0221714
0.0540887
-0.0258045
0.269516
-0.153993
0.19818
-0.106162
0.14421
-0.215979
0.0717686
-0.026309
-0.145241
0.17155
0.162166
-0.417319
-0.131432
-0.253436
0.0408256
0.124464
0.237818
-0.157174
0.26807
-0.0302521
-0.399662
0.26823
0.122887
-0.293543
0.190222
-0.0231853
-0.167036
0.0682101
0.110657
-0.430644
0.311123
0.267749
-0.578872
0.154676
-0.133011
0.149119
-0.0161082
-0.528558
0.445786
0.0827726
0.28268
-0.112777
-0.169903
-0.0083065
-0.486003
-0.133221
-0.182317
-0.212989
0.520351
-0.307362
0.150939
-0.17872
0.139015
-0.0985508
-0.0404645
0.0230396
0.0346644
-0.057704
0.216958
-0.589982
0.00999833
0.0294538
-0.0394521
-0.225684
0.531728
0.0435088
-0.045949
0.0233678
0.302472
-0.427971
-0.011252
-0.0978085
0.109061
-0.393493
0.209428
0.184065
-0.23677
0.39146
-0.154689
0.00790495
0.0756546
-0.0835595
0.192478
-0.00225656
-0.522254
0.309264
0.0202824
0.617384
-0.354165
-0.263219
0.23461
0.140494
-0.0999972
-0.0404968
-0.159016
-0.115338
0.274354
0.148225
-0.0170104
0.553262
-0.24214
0.0257125
-0.0330885
0.0360299
-0.00294141
-0.0605773
-0.0348022
-0.201165
-0.171228
0.128748
0.295723
0.0671216
-0.362845
-0.433825
0.178122
0.190367
0.077703
0.00986318
-0.0335471
0.0236839
0.0290849
0.000518487
-0.0296034
0.0283534
0.0431288
-0.0714822
-0.236338
-0.222197
-0.0782359
0.0436927
-0.155316
0.194484
-0.0391674
0.0501769
-0.102604
0.0524271
0.0932902
-0.0742367
0.0644738
0.0452489
-0.109723
0.317882
0.178842
0.103837
-0.107386
-0.202139
0.0474623
0.0322216
-0.0796839
-0.188454
0.241147
-0.0526923
0.0263965
0.104768
-0.0291694
0.129141
-0.233035
0.486042
-0.141412
-0.107433
-0.00704982
0.114482
-0.00221095
-0.0308776
0.0272179
0.0264677
-0.016766
-0.0594215
0.54181
0.215714
0.312316
0.0919179
-0.0471898
0.0314537
0.0149026
-0.0463563
0.157465
0.170929
0.052749
-0.0374947
-0.0654025
-0.092847
0.158249
-0.0224048
0.0736252
0.20689
-0.00357115
-0.0571596
-0.0369104
0.09407
0.224085
0.193085
-0.0165275
0.045196
-0.146074
0.0109595
0.109479
0.0343534
-0.0632153
-0.358128
-0.306798
-0.0426926
0.0253076
0.0173851
0.207936
-0.422063
0.214127
-0.154455
0.188735
-0.0342803
-0.084732
0.0405064
0.0221633
-0.151129
0.0123737
-0.424811
-0.103748
0.123989
0.0207133
-0.144702
0.127472
-0.359243
0.103289
-0.0584823
0.028368
0.151104
-0.179472
-0.218116
0.112496
0.054842
-0.228656
0.173814
0.135641
-0.24409
0.108449
-0.20381
0.283109
-0.242752
0.0757144
-0.0449703
0.153442
0.419724
0.0123933
-0.0312191
0.331615
0.269908
0.136299
0.00435927
0.104896
0.205361
0.00714624
-0.0287699
0.182912
-0.0680303
0.108394
-0.0403642
0.119592
-0.183111
0.0635186
0.00855597
0.0246794
0.236497
-0.139504
0.0175175
0.0594639
0.0350947
-0.0945586
0.030923
-0.0778724
0.0767883
0.00108417
-0.190388
0.0516984
0.138689
0.11141
-0.15063
-0.0547511
0.0721991
-0.0473497
0.460317
0.0437224
0.0369931
-0.0209805
0.000308901
0.0206716
-0.0264953
0.0861125
-0.0596173
0.0880408
-0.103023
0.0149825
0.310588
-0.150748
-0.15984
-0.0199634
-0.0172639
0.0372272
-0.0595678
0.0276679
0.0382461
0.273244
-0.148405
0.20186
0.217168
0.277972
-0.0461823
-0.154919
-0.112735
0.267654
0.00672548
0.324415
-0.181428
0.328026
-0.146598
0.147163
-0.0311017
0.0662154
-0.0733988
0.00372917
-0.102597
0.0988682
-0.0201096
-0.102829
0.192583
-0.0370571
-0.155526
0.129856
-0.247183
0.290952
0.326432
0.0399287
-0.104027
0.064098
-0.064895
-0.0183886
0.4286
0.176929
0.00570554
-0.611729
-0.286911
0.170921
0.139249
-0.165558
-0.0138999
0.0441044
-0.0302045
-0.126311
0.0104009
0.028825
-0.0396186
0.0107936
0.0363651
-0.0219007
0.00719562
0.145811
0.414119
0.079265
-0.220179
0.142881
-0.0127813
0.100822
-0.0213208
-0.127697
-0.183225
0.524131
0.0290948
-0.0706764
-0.287271
0.203695
0.132805
-0.192084
0.059279
-0.238351
-0.195473
0.0172858
-0.0697942
0.484766
-0.109774
0.000440597
-0.176847
0.154095
0.0227519
0.0193635
0.13389
-0.153253
-0.521834
0.228918
0.223653
0.164347
-0.388
-0.0435987
-0.0559793
0.099578
0.0233068
0.121851
0.519733
-0.261771
0.0244658
0.163291
-0.187757
0.0509009
-0.0407208
0.179513
0.131074
0.225225
-0.407258
0.704984
-0.440822
-0.264162
-0.0213394
-0.0382645
0.39834
0.087702
-0.0382653
0.0831074
-0.0448421
0.189474
-0.441623
0.25215
-0.161814
-0.0890477
0.0443905
0.0446572
-0.00759944
0.0512091
-0.0436097
-0.00292059
0.0189272
-0.0160066
-0.0311682
0.0119256
-0.579909
0.516521
0.0633883
0.210987
0.190601
-0.598034
0.298311
0.299724
0.26892
0.436063
-0.268725
-0.0105798
0.123009
-0.00799734
0.113405
-0.105407
-0.0254452
-0.120486
0.145931
-1.45599e-05
0.297996
-0.218366
-0.219927
0.438293
0.0391171
-0.0600286
-0.000144502
-0.0184248
0.0185693
-0.0448213
-0.162462
-0.0918992
0.033466
0.0584332
-0.181727
0.278748
-0.0970212
-0.410976
0.172625
0.352818
-0.125845
-0.226973
0.174029
-0.172431
-0.0015983
-0.121543
0.0141099
0.0401368
0.00331033
-0.032263
0.0329938
0.143102
0.0477088
-0.257357
-0.0406418
0.0689952
0.135695
-0.132819
0.115976
0.105834
-0.0102363
-0.0955977
-0.091645
-0.0954678
0.187113
0.429148
-0.205063
-0.520501
0.303853
0.216648
0.354063
0.173673
-0.527736
-0.0886293
-0.173788
-0.184988
-0.104482
0.285061
-0.18058
0.0765592
-0.00838667
-0.100906
-0.00957829
0.110485
-0.0362165
0.00395348
0.0417465
-0.0630859
0.563184
-0.0354584
0.0999323
0.0592637
0.019946
-0.0792097
-0.0843936
-0.00258888
-0.192919
-0.430943
0.19915
0.00509878
-0.0829712
-0.017561
-0.0165101
0.0340711
0.295708
-0.539188
0.397696
0.141492
0.191938
-0.154396
0.295358
0.176332
-0.0474301
0.512357
-0.437028
0.289169
-0.0850807
0.020451
0.0646296
-0.110779
-0.0103349
0.121114
-0.0292275
0.0306456
-0.00141807
-0.121194
-0.148416
0.26961
0.325106
0.271909
-0.0338513
-0.131123
0.0685858
0.0260862
0.0142188
0.0336294
-0.0478482
0.0288112
0.0801775
-0.0750787
0.189629
0.0214548
-0.211084
-0.0553844
0.10818
-0.364758
-0.241263
-0.506972
0.0354929
0.47148
-0.57705
0.289337
0.287713
-0.021155
-0.0215376
-0.137966
-0.0248924
-0.304787
-0.0920749
-0.586708
0.286545
-0.381981
0.203512
-0.0356239
0.0415117
-0.00588779
0.316221
0.0391695
0.101325
0.0111045
-0.0928219
0.0478815
0.116436
-0.0655513
0.113344
-0.0477928
-0.0975259
0.0131094
-0.0864525
-0.180643
0.149892
0.384642
-0.0993051
0.0103904
-0.0315455
0.0115668
0.0309782
-0.042545
0.0161919
-0.572609
0.226329
-0.0906878
-0.0878699
0.103626
-0.015756
-0.0124704
-0.12054
-0.40238
-0.136808
-0.204836
-0.202515
-0.287533
-0.235668
-0.243152
0.10723
0.0738168
-0.0389856
0.393048
0.0423551
0.028834
-0.0711891
0.0061766
-0.176424
-0.143833
-0.139119
-0.0422007
0.0849501
0.226691
-0.221422
0.422604
-0.201183
0.326227
-0.147201
0.260371
0.266723
-0.527093
-0.0994484
0.0809542
-0.29767
-0.27938
0.321836
-0.0255698
0.0172608
0.149656
-0.248362
0.473736
-0.0251423
-0.0317821
0.142707
-0.0377358
0.054654
-0.0169182
-0.0392753
-0.0524993