/*--------------------------------*- C++ -*----------------------------------*\
| =========                 |                                                 |
| \\      /  F ield         | OpenFOAM: The Open Source CFD Toolbox           |
|  \\    /   O peration     | Version:  v2012                                 |
|   \\  /    A nd           | Website:  www.openfoam.com                      |
|    \\/     M anipulation  |                                                 |
\*---------------------------------------------------------------------------*/
FoamFile
{
    version     2.0;
    format      ascii;
    class       volVectorField;
    location    "250";
    object      U_0;
}
// * * * * * * * * * * * * * * * * * * * * * * * * * * * * * * * * * * * * * //

dimensions      [0 1 -1 0 0 0 0];


internalField   nonuniform List<vector> 
13726
(
(0.999236 0.00100186 -1.56225e-22)
(1.04779 0.0396298 4.32527e-21)
(0.758648 0.0686518 9.52862e-21)
(0.713628 0.0604419 6.57564e-21)
(1.00313 0.00483524 2.65857e-20)
(0.580968 0.0325567 -1.03729e-21)
(1.06342 0.12763 0)
(1.0616 0.050447 3.60845e-21)
(0.90099 0.0352862 -1.03681e-19)
(0.864941 0.0638098 -7.88431e-22)
(1.03657 0.0811585 0)
(0.449918 0.0283786 1.96546e-21)
(1.03256 0.0745493 -5.54702e-22)
(1.04632 0.0589033 -6.85785e-22)
(1.03075 0.0782472 -1.83435e-22)
(1.04886 0.0350375 1.28446e-21)
(1.03935 0.0712275 0)
(0.596124 0.016073 1.64898e-20)
(1.03335 0.0807412 0)
(0.963627 0.0201179 -9.82013e-21)
(0.864839 0.118665 1.64653e-20)
(0.982951 0.0146371 -9.60543e-21)
(1.00816 0.0169266 6.26274e-21)
(1.02879 0.100366 4.88727e-23)
(1.03222 0.0799919 -2.32426e-22)
(0.746604 0.0606405 0)
(0.979884 0.0375317 -3.25214e-20)
(0.981502 0.0374717 2.53675e-20)
(1.0556 0.0562467 8.12338e-21)
(0.998258 0.0821333 2.51382e-20)
(1.06166 0.0499018 -3.48683e-21)
(0.931156 0.00695858 0)
(0.845064 0.0490372 -9.73181e-22)
(1.03174 0.0676953 1.17117e-22)
(1.03922 0.0574871 0)
(1.03155 0.0801685 3.18094e-23)
(1.00285 0.00457533 -7.40587e-21)
(0.992545 -0.00522745 -1.31846e-20)
(0.905573 0.0350859 2.9215e-20)
(0.629922 0.0175455 -1.73775e-20)
(0.999421 0.08069 -8.1643e-21)
(1.04018 0.0480891 0)
(1.06282 0.0551205 7.73144e-21)
(1.00165 0.00451602 -7.08205e-21)
(1.00795 0.039025 4.72955e-23)
(1.005 0.00927323 0)
(1.04776 0.0388269 -4.79628e-21)
(1.06342 0.0682053 2.00369e-20)
(0.99563 0.0612406 0)
(1.02387 0.0579949 -5.13819e-21)
(1.06739 0.0572408 3.74339e-22)
(1.03256 0.0744839 0)
(1.05582 0.0553688 -1.10693e-20)
(0.999355 0.000841362 1.90071e-20)
(1.03655 0.0605038 0)
(0.995874 0.00679796 0)
(0.993157 -0.00523221 1.07149e-20)
(0.983204 0.0137185 -8.18231e-21)
(0.996086 0.0106729 0)
(0.980506 0.00540314 -2.22753e-20)
(1.00468 0.000783824 1.36948e-20)
(1.01883 0.0148909 1.42787e-21)
(0.971237 0.0550602 -1.37849e-20)
(1.02712 0.100107 0)
(0.879756 0.129166 3.76633e-20)
(1.00823 0.0163326 -6.38067e-21)
(1.00021 0.000157098 -1.20836e-20)
(1.0013 0.0647459 1.37852e-20)
(1.03117 0.0676874 6.03516e-22)
(0.994416 0.0621008 0)
(0.991103 -0.00764552 0)
(0.73331 0.0650381 -1.27578e-21)
(1.0234 0.0587818 5.64642e-21)
(1.03607 0.0720786 -8.19642e-22)
(1.02698 0.0658432 -6.37498e-22)
(1.00218 0.0621511 0)
(1.007 0.0146856 1.58866e-21)
(0.710682 0.037586 -3.35293e-21)
(1.03127 0.0782144 0)
(1.03001 0.0876405 0)
(0.662547 0.0329538 2.41326e-21)
(0.58355 0.0463895 -3.9502e-22)
(1.01718 0.0349684 1.56249e-20)
(0.994701 0.00219621 7.80466e-21)
(1.06036 0.0513729 -1.97818e-20)
(1.04364 0.0717736 -7.69507e-21)
(1.00246 0.0638417 -9.94635e-21)
(0.836536 0.0487212 0)
(1.07239 0.0688982 -2.03553e-20)
(1.0446 0.0439948 0)
(0.952484 0.0293591 -5.09716e-20)
(0.978442 -0.00404374 4.02892e-20)
(1.02425 0.0270324 0)
(0.987043 0.0221295 2.01856e-20)
(0.999849 0.000143575 0)
(1.05975 0.0730894 0)
(0.977291 -0.00441589 -3.75721e-20)
(0.99626 0.0823584 1.03645e-20)
(1.05992 0.0714458 1.42618e-20)
(1.04768 0.0906418 0)
(0.973111 0.0555485 -1.41737e-20)
(0.839105 0.0621519 1.97416e-21)
(1.06112 0.0512296 1.03006e-20)
(0.990157 0.0150041 0)
(1.03999 0.0489365 0)
(1.02994 0.053159 0)
(0.554548 0.0310936 -1.46109e-21)
(0.988077 0.0222545 8.13162e-21)
(1.01389 0.00136939 0)
(1.04963 0.0347453 0)
(1.00027 0.00308214 1.99487e-20)
(1.0071 0.0398234 8.37339e-21)
(1.00024 0.00234332 -2.72729e-20)
(1.0456 0.0588979 0)
(0.965656 0.0203339 8.03872e-21)
(1.03056 0.0810669 -4.02997e-22)
(1.00036 0.000200576 -9.49446e-21)
(0.797735 0.0659149 0)
(0.976259 0.0479668 0)
(1.06964 0.127845 0)
(0.869596 0.110786 -3.52505e-20)
(1.05916 0.131808 3.62942e-21)
(1.06812 0.0574985 -8.06159e-21)
(1.02626 0.065843 -1.59765e-21)
(1.00283 0.00430507 0)
(1.00493 0.000610217 -1.39257e-20)
(1.02218 0.0361542 -7.33497e-21)
(0.923101 0.0675442 0)
(1.0167 0.035746 -8.72582e-21)
(0.726133 0.0385885 0)
(1.00045 0.00285715 1.39662e-20)
(1.07294 0.0684709 2.65951e-20)
(0.994591 -0.00133364 7.85424e-21)
(1.04632 0.0428171 0)
(1.02779 0.0647999 -1.02913e-21)
(1.0003 0.00293418 -1.52874e-20)
(1.01356 0.126839 -4.05692e-21)
(1.02128 0.036118 -4.03472e-21)
(1.00111 0.0107817 -3.6046e-22)
(1.02428 0.0502773 -5.29386e-21)
(1.01545 0.0273802 -1.06878e-20)
(1.00169 0.00426782 0)
(1.04343 0.0767384 -3.82032e-22)
(0.994394 0.00248376 9.31182e-21)
(1.04823 0.0718635 3.95613e-21)
(1.00962 0.023559 1.361e-20)
(1.04381 0.0684157 -5.09635e-21)
(1.03794 0.0582853 1.24482e-21)
(0.886059 0.126151 -6.06535e-20)
(1.0454 0.0336016 -2.20544e-21)
(1.02178 0.0879549 1.13538e-21)
(1.0003 0.00222662 1.37809e-20)
(0.977297 0.106947 2.71336e-20)
(1.04308 0.0767706 5.62306e-21)
(1.00194 0.00425051 1.45928e-20)
(0.948857 0.0850894 1.33429e-20)
(0.889831 0.0643471 4.01416e-20)
(1.02384 0.0265194 -2.60302e-21)
(0.979579 0.104743 -8.82294e-21)
(0.839082 0.0615007 2.11452e-21)
(1.04538 0.043852 1.28626e-21)
(0.929079 0.00908631 -3.40271e-20)
(1.04264 0.0746376 -3.12134e-22)
(0.730996 0.0608843 -2.8603e-21)
(1.0331 0.0528958 0)
(1.02499 0.0345108 4.8436e-21)
(1.0081 0.00811856 0)
(0.996036 0.0137115 1.05311e-20)
(0.989424 0.0758592 1.82636e-20)
(1.00314 0.0051368 -2.27449e-20)
(0.990893 0.00197906 0)
(1.00837 0.0770332 -6.42298e-21)
(1.03659 0.0525335 -3.23218e-22)
(1.03619 0.05988 4.75625e-22)
(1.04355 0.0450232 -5.23609e-21)
(0.997798 0.0462925 0)
(0.507287 0.00402458 2.4793e-20)
(1.13654 0.261783 -4.73488e-20)
(0.993772 0.0285043 0)
(0.918134 0.0672718 0)
(0.994755 0.0816798 -1.96945e-20)
(1.02074 0.0885382 0)
(0.822636 0.0659105 -9.3789e-21)
(0.809877 0.0664385 0)
(0.701957 0.0575292 -4.60667e-21)
(1.02536 0.0571975 0)
(0.530697 0.031689 -2.1183e-21)
(1.01335 0.0472006 0)
(0.629661 0.0526761 -4.65051e-22)
(0.999884 0.0192456 3.24852e-20)
(1.04604 0.0628832 -6.58892e-21)
(1.01656 0.0283045 0)
(1.00164 0.0140047 2.45455e-20)
(0.982334 -0.000801122 -1.66565e-20)
(0.792097 0.0445014 -2.08981e-21)
(0.883582 0.0654943 -5.26859e-20)
(1.04531 0.0342385 0)
(0.789456 0.0583619 0)
(1.01052 0.0247977 7.27503e-21)
(1.02961 0.052404 0)
(1.0033 0.0615309 -6.77164e-21)
(1.00055 0.00295783 -8.72295e-21)
(1.00751 0.0147871 -7.57828e-21)
(0.968079 0.0434033 -2.1241e-20)
(0.981929 0.00153892 0)
(0.969743 0.0420384 0)
(1.07282 0.0671787 -3.34183e-21)
(1.04541 0.0903278 2.07468e-21)
(0.998479 0.00586558 -2.04832e-20)
(0.831022 0.0495482 1.75427e-21)
(0.995651 0.0105002 1.10325e-20)
(0.733936 0.0613653 -1.45546e-20)
(1.03274 0.053717 0)
(1.02809 0.0222872 -3.2883e-21)
(0.999768 0.0030728 -2.00333e-20)
(1.04913 0.0717329 -8.02325e-21)
(1.03338 0.0699324 -3.16391e-24)
(1.01576 0.026649 0)
(1.03447 0.0770693 0)
(1.06171 0.0712087 1.0046e-21)
(1.01865 0.0165582 0)
(0.991238 0.0016272 -1.01559e-20)
(0.978558 0.101594 -9.08533e-21)
(1.00912 0.0406052 7.95851e-22)
(0.62294 0.0514597 -3.53641e-21)
(0.998195 0.0451976 -5.13705e-21)
(1.02254 0.0260634 0)
(1.042 0.0743198 1.6018e-21)
(1.0009 0.0111183 -1.90329e-21)
(1.00954 0.101259 -2.4955e-21)
(0.854224 0.0665785 -2.65285e-21)
(0.885606 0.063621 1.55235e-21)
(0.857242 0.0563282 1.7397e-22)
(0.861253 0.0619124 -8.149e-22)
(0.86913 0.0405786 4.73268e-20)
(1.10788 0.169995 1.26852e-20)
(1.00006 5.64572e-05 1.25788e-20)
(0.884253 0.0265527 5.15762e-20)
(0.999205 0.0191775 -2.63953e-20)
(0.570588 0.0371887 -9.43447e-22)
(0.999969 0.000290349 1.31578e-20)
(1.05524 0.0526219 4.39307e-21)
(0.999896 -0.00125305 -5.28022e-22)
(1.02903 0.0879087 0)
(0.830338 0.0592679 -1.03077e-22)
(0.870853 0.151322 4.30056e-20)
(1.03358 0.0694208 0)
(0.998737 0.00649252 -5.15284e-21)
(1.06067 0.0606612 0)
(1.00901 0.0393279 1.23339e-20)
(1.03889 0.0713 0)
(0.812328 0.0604293 2.24063e-21)
(0.994559 0.00177506 1.49984e-20)
(1.04438 0.0448514 1.0928e-21)
(0.990774 -0.00719872 -1.38028e-21)
(1.06744 0.0951675 4.62021e-22)
(1.00292 0.00559412 0)
(1.04629 0.0623045 6.34339e-21)
(0.723669 0.0595486 0)
(0.998203 0.0057362 1.32391e-20)
(0.831138 0.0665374 -2.44874e-20)
(0.999031 0.00709969 1.23434e-20)
(0.98835 0.0233497 -3.04603e-20)
(1.01532 0.0260003 3.79518e-22)
(0.994113 -0.00135015 1.04881e-20)
(0.697109 0.0558934 -5.70089e-21)
(1.03235 0.0352037 3.52042e-21)
(1.0524 0.0546953 3.65912e-21)
(1.00121 0.100154 -1.46591e-20)
(1.0293 0.0831656 6.35639e-22)
(1.00163 0.0974552 -7.60896e-21)
(0.999905 -0.000945457 -3.03032e-23)
(1.02921 0.0838255 9.15832e-22)
(1.0588 0.0709904 -3.29877e-23)
(1.04405 0.0678681 4.08389e-21)
(1.02408 0.0346624 2.80642e-21)
(0.87028 0.125719 3.74772e-20)
(1.02213 0.0488387 0)
(1.07207 0.0667499 0)
(0.989838 0.0737199 1.52787e-20)
(0.996228 0.00711822 0)
(1.0229 0.0253741 0)
(1.02748 0.0655058 6.35204e-22)
(1.03207 0.0743318 0)
(1.01706 0.0931362 0)
(1.06683 0.0606771 1.32317e-20)
(0.887337 0.0237572 -4.67622e-23)
(1.0231 0.0654091 -3.50169e-21)
(1.03492 0.0775163 -1.47298e-21)
(0.706446 0.028647 -4.93749e-23)
(1.03509 0.0725346 6.57772e-22)
(1.03157 0.0609966 0)
(0.855216 0.0516683 0)
(1.023 0.0266827 7.2455e-21)
(1.03995 0.0575107 1.17598e-22)
(0.762358 0.0671555 0)
(1.00026 0.000130621 6.93506e-21)
(1.03532 0.0734803 0)
(1.0208 0.0369692 0)
(0.712138 0.0624075 7.96694e-22)
(1.04757 0.0519429 -4.74559e-21)
(0.589893 0.0459248 -1.19223e-22)
(1.03434 0.0519728 0)
(0.822232 0.0539301 -3.58175e-22)
(0.99994 0.0960231 1.7522e-20)
(1.05919 0.0525168 -1.69893e-20)
(1.00192 0.00396507 -1.32462e-20)
(0.998184 0.000812434 0)
(1.01326 0.0856602 0)
(1.02854 0.0149202 0)
(1.01905 0.090882 0)
(1.00576 0.0783687 0)
(0.775937 0.0430743 1.13309e-21)
(1.02164 0.0589269 5.9352e-21)
(0.59856 0.0467663 0)
(0.866375 0.0669167 -8.08248e-21)
(1.03957 0.0350353 7.34331e-22)
(1.04278 0.0716098 0)
(0.999782 0.00019089 8.32621e-21)
(0.682194 0.0613741 0)
(0.984559 -0.00968651 -3.64756e-20)
(1.01475 0.0854319 3.68738e-21)
(0.616046 0.0507337 -1.3332e-21)
(1.02345 0.0661433 -3.56919e-21)
(1.00504 0.00881581 0)
(0.953497 0.0310609 3.72976e-20)
(0.845172 0.0671441 1.02651e-20)
(0.419895 0.0270862 -2.64999e-22)
(0.581947 0.0461765 2.51709e-22)
(1.00176 0.0103294 -1.19729e-20)
(0.989441 0.0234766 1.85208e-20)
(1.02614 0.0334288 -2.66468e-21)
(0.726887 0.0660885 0)
(0.995681 0.0155318 -3.34087e-22)
(0.944913 0.0844448 -1.22816e-20)
(1.06005 0.0603478 -3.86236e-21)
(1.01582 0.0282849 7.20655e-21)
(1.00746 0.078264 0)
(0.870605 0.0346216 4.71214e-20)
(0.757355 0.0630798 0)
(0.965791 -0.00410367 0)
(0.998454 0.00634156 5.73108e-21)
(0.950722 0.233828 2.96431e-20)
(1.06026 0.0721448 7.68184e-21)
(1.05467 0.0521171 4.15375e-21)
(1.00433 0.148757 -5.06611e-20)
(1.00472 0.00808407 -2.32685e-21)
(0.710521 0.0551758 6.60798e-21)
(1.01468 0.0273537 6.32778e-21)
(0.995368 0.0134931 0)
(0.980971 0.00617001 -2.21783e-20)
(0.83882 0.0662992 1.69473e-20)
(1.02661 0.0440767 0)
(0.992031 -0.00186316 0)
(0.994158 0.0292249 0)
(1.04059 0.05714 4.13568e-21)
(1.00915 0.1036 0)
(1.03229 0.0748555 8.76328e-22)
(0.646512 0.0527856 -5.62003e-22)
(1.00408 0.0164763 1.16753e-20)
(1.05487 0.0564528 3.24178e-21)
(1.06001 0.0524718 1.90498e-20)
(1.06204 0.0981433 7.29242e-21)
(1.03096 0.103287 9.08265e-22)
(0.999893 0.0029774 1.3916e-20)
(0.982941 0.0018047 -1.17534e-21)
(1.03086 0.0757327 0)
(1.01077 0.0771886 6.83493e-22)
(0.967519 0.0652045 2.20874e-21)
(1.04215 0.0782913 0)
(0.966602 0.0219023 -2.86135e-22)
(1.04902 0.0647729 6.20012e-21)
(1.03168 0.0350155 -1.22685e-21)
(1.04687 0.0519621 4.93642e-21)
(0.965871 -0.00552206 0)
(0.870785 0.0638583 0)
(1.02838 0.0168218 -2.8776e-21)
(1.07203 0.0983009 0)
(1.04954 0.0645669 0)
(0.640501 0.0528816 6.4507e-22)
(1.02049 0.090453 1.27864e-21)
(0.792355 0.0645684 7.22688e-21)
(1.05781 0.0558641 6.43714e-21)
(1.0047 0.00850401 0)
(1.03567 0.0719527 0)
(1.03661 0.059164 -3.55871e-22)
(0.911396 0.0653457 0)
(0.796834 0.0438699 -4.99636e-22)
(1.01006 0.0408259 -8.04731e-21)
(1.0003 0.00251303 7.96998e-21)
(0.980806 0.00784937 0)
(1.0016 0.010793 0)
(0.833899 0.122919 0)
(1.04246 0.0461321 -4.07084e-21)
(1.04083 0.056545 -4.28315e-21)
(0.958963 0.105497 0)
(0.851753 0.052514 3.29317e-21)
(1.06745 0.112965 0)
(1.02494 0.058028 0)
(1.05374 0.0422781 4.29764e-22)
(1.02908 0.103295 -3.30177e-22)
(1.02784 0.0140782 0)
(1.03406 0.0528303 0)
(1.00538 0.0483662 -5.89652e-21)
(1.02312 0.0489749 0)
(1.06088 0.0969614 0)
(0.824086 0.061908 2.94311e-21)
(1.04656 0.0679691 0)
(1.06336 0.0557346 -1.6372e-20)
(1.01034 0.0600187 9.25231e-21)
(0.695175 0.0446624 0)
(1.0403 0.0348372 1.14025e-21)
(0.871242 0.142071 -8.64648e-20)
(0.99395 0.0485576 1.5768e-20)
(1.01232 0.0984413 -7.31387e-21)
(0.999769 0.00331303 1.35036e-20)
(1.03407 0.0736932 0)
(1.00209 0.0138348 -1.68375e-20)
(1.0261 0.0434223 1.3852e-21)
(0.996923 0.0152844 -5.04163e-21)
(1.00306 0.0143038 -2.7335e-21)
(1.04429 0.0525435 2.40091e-21)
(1.02837 0.0142685 0)
(0.999949 0.000403931 1.73299e-20)
(0.867075 0.0238614 0)
(0.976535 0.0184154 -1.15096e-20)
(0.988236 0.0599364 -1.84901e-20)
(0.907642 0.0396275 7.88522e-22)
(0.466899 0.030306 -3.37377e-21)
(1.01792 0.0093572 9.77202e-21)
(0.953894 0.0957288 9.62116e-22)
(1.01947 0.0149072 4.30908e-21)
(1.04824 0.0508159 8.7203e-21)
(1.00998 0.00107939 -9.73916e-21)
(0.785157 0.0673096 -3.72697e-21)
(0.999873 -0.000442795 0)
(0.984042 0.00956688 1.82004e-20)
(0.999095 0.000950131 0)
(0.81496 0.0600362 -2.17427e-21)
(0.635619 0.0526394 -5.41179e-22)
(0.975413 0.0189036 0)
(0.998627 0.0468906 -7.48737e-21)
(0.983957 0.00801539 0)
(1.00346 0.0722468 -1.20737e-20)
(0.974224 0.0476043 0)
(1.0199 0.0369803 -8.579e-21)
(1.06378 0.0685775 -5.62446e-21)
(0.585868 0.0373931 4.84504e-22)
(1.05208 0.0435373 -7.96397e-21)
(1.05988 0.0730479 0)
(1.0028 0.0333024 -1.70035e-21)
(1.08458 0.117392 -2.81363e-22)
(1.12192 0.257433 0)
(1.0025 0.014421 1.27467e-20)
(1.01875 0.0926575 -3.98964e-22)
(1.03279 0.0744793 -1.00361e-21)
(1.00668 0.036359 1.25204e-20)
(1.01115 0.0422575 6.38844e-21)
(1.05303 0.0424087 4.35001e-21)
(1.03127 0.0603323 -1.11339e-21)
(0.995121 0.00968004 0)
(1.00971 0.00140148 0)
(1.11897 0.159076 -3.40195e-20)
(0.911979 0.0397718 6.29155e-20)
(0.826361 0.131234 0)
(0.891257 0.0534547 0)
(1.00125 0.00308174 0)
(1.03153 0.0846004 0)
(1.00368 0.000973958 0)
(0.655581 0.0532233 1.45752e-21)
(0.991961 -0.00139621 -4.21937e-21)
(1.01972 0.00895071 5.25527e-21)
(1.05868 0.0703305 -6.6603e-21)
(0.705959 0.0628255 -4.7999e-21)
(1.03123 0.0809973 -2.85406e-23)
(1.03376 0.0728486 2.78284e-22)
(1.0329 0.0743801 1.33548e-21)
(1.00613 0.0393521 8.5645e-21)
(1.03771 0.0562211 -9.70322e-22)
(1.06197 0.0553772 0)
(1.02153 0.0159245 -6.31554e-21)
(0.999393 0.00770104 -2.06603e-22)
(1.01232 0.0468099 0)
(0.457543 0.031256 0)
(1.00251 0.0377472 8.71895e-21)
(1.03017 0.0683977 0)
(1.02788 0.0165417 0)
(0.921821 0.0562193 0)
(0.868969 0.2245 -1.35383e-20)
(1.03265 0.0746707 0)
(0.76512 0.0611837 3.93851e-21)
(0.99827 -0.00125139 2.15824e-20)
(1.00989 0.0767582 2.37405e-21)
(0.813164 0.0426654 0)
(1.01805 0.09829 -4.75177e-21)
(0.973834 0.0453088 0)
(1.03134 0.0466222 -2.85388e-21)
(0.993902 -0.00100647 5.40527e-21)
(1.01785 0.00703597 -1.04807e-20)
(1.003 0.036844 -8.25701e-21)
(1.05962 0.104817 3.78227e-22)
(0.894996 0.13072 3.64166e-20)
(0.969365 0.0634872 1.25703e-20)
(1.0195 0.0360579 6.70515e-21)
(0.995638 0.00983648 -9.06662e-21)
(0.97763 0.0720678 0)
(1.00558 0.0199178 0)
(1.02812 0.0228541 4.00435e-21)
(1.05804 0.053476 6.42657e-21)
(0.692524 0.0597388 5.67798e-21)
(1.01809 0.0350455 -1.23896e-20)
(1.04354 0.0359106 1.21956e-21)
(1.01399 0.000418531 7.89099e-21)
(0.999886 0.00270452 2.10351e-21)
(0.995387 0.00689477 -9.31414e-21)
(1.00631 0.047727 -3.05637e-21)
(1.01506 0.000747437 9.25707e-21)
(0.99612 0.0143347 -1.18092e-20)
(0.587344 0.045816 4.49158e-23)
(0.996691 0.00692285 0)
(1.02253 0.0590684 -6.51338e-21)
(1.02091 0.0160308 -6.94939e-21)
(0.8922 0.0651521 0)
(0.998725 0.00695765 -6.57318e-21)
(0.983449 0.00884709 2.00577e-20)
(1.06245 0.0709454 0)
(0.980574 -0.0029168 0)
(1.03955 0.0707554 1.43086e-21)
(0.869347 0.20934 2.30142e-20)
(0.917056 0.00996583 2.84553e-20)
(1.04086 0.077768 0)
(1.00981 0.0245595 0)
(1.02242 0.0247592 0)
(0.883784 0.0629046 3.23913e-23)
(0.639124 0.0516805 2.87091e-21)
(0.514908 0.0299852 4.19558e-21)
(0.439129 0.0284043 0)
(1.00001 0.000347363 1.6765e-20)
(1.04807 0.05149 -1.01133e-20)
(0.999977 0.00260405 1.07502e-21)
(0.993936 0.00254451 0)
(1.03328 0.0805132 0)
(0.568839 0.0314204 0)
(1.04201 0.0557548 1.13571e-21)
(0.999998 0.000264527 -1.52458e-20)
(1.01034 0.00852384 0)
(0.998202 0.00946049 -1.5508e-20)
(1.04648 0.0422446 3.43326e-21)
(0.965022 0.00958204 -2.07242e-20)
(0.961515 0.0718078 -9.79989e-21)
(1.00879 0.0224705 8.62831e-21)
(1.06549 0.105069 4.91235e-21)
(1.03619 0.0611962 5.07186e-22)
(1.04275 0.0645355 -3.07773e-21)
(0.967429 -0.00280197 -2.71604e-20)
(1.05278 0.0434077 3.43916e-21)
(0.977042 0.0496932 2.00299e-20)
(0.691152 0.060827 -3.26982e-22)
(0.998399 0.000929313 1.3601e-21)
(0.983666 0.0104213 -1.85902e-20)
(1.04217 0.0262651 1.63091e-21)
(0.552572 0.0317385 1.288e-22)
(0.994981 0.0493496 -1.85537e-21)
(1.06381 0.0676162 -1.23668e-20)
(0.953272 0.0931875 0)
(0.698287 0.0362586 3.88746e-21)
(1.03078 0.0684406 -5.80615e-22)
(1.02268 0.0337355 -7.69112e-21)
(1.01554 0.0738979 1.7182e-21)
(0.572934 0.0454615 -3.26089e-22)
(1.00518 0.07984 -5.93525e-21)
(0.941219 0.22665 -2.2627e-20)
(0.995712 0.0314774 -1.83919e-20)
(1.04394 0.0519202 6.86356e-22)
(1.04223 0.0646609 0)
(1.01175 0.100564 7.25728e-21)
(0.929049 0.066828 1.09531e-20)
(0.996923 0.00938455 -1.73655e-20)
(1.019 0.0161624 0)
(1.00025 0.00199978 1.53173e-20)
(1.01812 0.00893006 -4.39054e-21)
(0.982558 0.0104419 -2.08733e-20)
(0.82675 0.0663128 0)
(1.04342 0.036767 1.85084e-21)
(1.03452 0.0333286 1.33603e-21)
(0.991415 0.00921362 0)
(1.00045 0.000237465 -1.56613e-20)
(1.01177 0.0401979 2.914e-21)
(1.09913 0.143986 3.60893e-20)
(1.03523 0.0722245 -6.37773e-23)
(0.790378 0.0472882 4.28252e-20)
(1.01052 0.0608363 0)
(1.04945 0.0498088 0)
(1.03603 0.0802917 1.36745e-21)
(1.0088 0.058343 0)
(0.975186 0.100399 0)
(0.978753 0.0302865 0)
(0.98454 0.0371573 0)
(0.866312 0.0637192 1.74738e-21)
(0.999561 0.00105758 2.89722e-22)
(0.932505 0.0696171 0)
(1.00032 0.00013244 1.40679e-20)
(0.977822 0.0295299 0)
(1.04206 0.0256279 -1.82363e-21)
(0.860008 0.0615862 5.38652e-22)
(0.716515 0.0338085 -1.51111e-20)
(0.99415 0.0755562 1.13102e-20)
(0.99702 0.00721331 9.36011e-22)
(1.0579 0.0717395 1.32279e-20)
(0.999915 -0.000540706 3.06801e-20)
(1.01644 0.0709363 1.67528e-22)
(1.00969 0.0576305 -3.3822e-21)
(1.00173 0.0034777 1.82708e-20)
(0.971325 0.00204698 -9.88253e-21)
(0.999859 -5.89e-05 0)
(1.02248 0.038717 6.24764e-21)
(1.00003 0.000547579 -1.49432e-20)
(1.04329 0.0459628 3.92329e-21)
(1.03057 0.0776639 -7.96791e-23)
(1.0082 0.00693442 -3.5426e-21)
(0.981604 0.000607386 -9.56012e-21)
(1.03076 0.0533404 0)
(0.993958 -0.0105883 -2.36924e-20)
(1.03124 0.0795068 -3.0039e-23)
(0.807214 0.0475131 -6.84074e-21)
(0.517172 0.00703421 0)
(1.03575 0.0525766 1.12331e-22)
(1.00212 0.00364236 -3.64926e-21)
(1.02676 0.0340734 -2.74724e-21)
(1.03948 0.0474588 -1.70485e-21)
(1.04316 0.0549031 0)
(1.02062 0.0698854 0)
(0.415394 0.0230821 0)
(1.01078 0.0086969 0)
(0.639785 0.0476771 -3.94512e-23)
(1.05953 0.0724559 -7.67121e-21)
(0.967068 -0.0018945 2.20759e-20)
(1.01774 0.0084302 -1.27815e-20)
(0.990906 0.0147613 0)
(0.716961 0.0450501 -8.43322e-23)
(0.999965 -0.000279236 1.29402e-20)
(0.970029 0.00164774 4.80065e-22)
(0.999759 -0.00204937 0)
(1.00535 0.00959653 -2.21057e-20)
(0.982476 -2.79943e-05 2.61848e-20)
(1.02675 0.0906283 -4.0852e-22)
(1.02047 0.0154888 0)
(1.06758 0.0604543 0)
(1.03714 0.0770156 -1.00762e-21)
(0.999466 0.000883861 -2.68074e-20)
(1.00347 0.00575492 -1.96755e-21)
(0.994867 0.00891074 0)
(1.05989 0.0714981 -1.69266e-20)
(0.983943 0.0386743 0)
(0.868313 0.052719 -6.96351e-21)
(1.02981 0.0799804 2.80853e-22)
(0.998522 -0.00123521 -1.03401e-20)
(1.04401 0.0794884 2.98331e-21)
(0.67544 0.0607394 6.05237e-21)
(1.0492 0.0506083 1.33337e-21)
(1.03214 0.0384919 -1.35973e-21)
(1.00818 0.0222603 -8.19317e-21)
(0.951917 0.0585068 2.35954e-20)
(1.01934 0.000214095 0)
(1.00793 0.00761802 -3.81911e-21)
(0.9125 0.0666185 0)
(0.77042 0.0436923 0)
(1.05884 0.0534746 6.86652e-21)
(1.01232 0.123874 -5.81409e-21)
(1.05501 0.0512663 -8.97149e-21)
(0.951333 0.0705858 4.07564e-21)
(0.996607 0.00286219 1.46182e-20)
(0.783284 0.0612615 6.33615e-22)
(0.993915 0.0734566 0)
(1.06204 0.0710567 8.38417e-21)
(0.993604 0.00230542 0)
(0.964874 -0.0116702 0)
(1.04496 0.0329939 0)
(0.999068 0.00755073 0)
(1.05399 0.130338 -3.6671e-21)
(1.03849 0.0361248 6.53137e-22)
(0.989462 0.061152 1.08803e-20)
(0.987729 0.0414931 1.75286e-20)
(1.01143 0.130191 3.73299e-21)
(1.0649 0.0667917 1.07834e-21)
(0.982935 0.00409318 0)
(0.986322 0.147573 -9.95487e-21)
(0.549921 0.0318095 2.17194e-21)
(0.827198 0.0480723 4.28317e-21)
(1.05052 0.0645455 6.50399e-21)
(0.901663 0.126443 -2.97206e-20)
(0.99511 0.00856421 0)
(0.63168 0.0326946 0)
(1.00636 0.00899536 1.02186e-20)
(1.06263 0.0468896 6.35254e-21)
(0.999973 0.00238753 -1.08581e-21)
(1.01765 0.000419639 0)
(1.02811 0.0759849 1.24296e-21)
(0.97894 0.0179689 2.44886e-20)
(0.949817 0.0629946 4.92721e-22)
(1.06549 0.0954192 -1.67547e-20)
(1.03822 0.182617 0)
(0.997712 0.00133132 7.90027e-21)
(0.923363 0.0101239 4.35882e-20)
(1.02757 0.0762634 0)
(1.01854 0.0360169 1.29021e-20)
(1.01992 0.0597314 -3.90009e-22)
(0.837812 0.0661621 0)
(1.00407 0.0144936 -1.28546e-20)
(0.97977 -0.00114915 0)
(0.837891 0.0612472 0)
(0.996704 0.00225116 2.36817e-20)
(0.9984 0.00119155 2.5956e-21)
(1.04219 0.0469684 3.50463e-21)
(0.887444 0.0648498 1.99092e-21)
(0.999868 -0.000597357 -2.8997e-20)
(1.04642 0.0762403 0)
(1.01328 0.00122846 -4.97536e-21)
(1.02197 0.0164298 1.41619e-20)
(1.05656 0.0552372 3.2576e-21)
(0.986285 -0.00440568 3.59838e-20)
(1.05643 0.107242 0)
(1.07595 0.158294 -1.36063e-20)
(1.00572 0.0359783 0)
(1.03806 0.0286725 3.02527e-22)
(0.99794 0.00126097 -1.77201e-20)
(1.04132 0.0471278 2.11531e-21)
(1.00299 0.0175764 0)
(0.995056 0.0307135 0)
(1.00894 0.023313 0)
(1.04046 0.0779126 -2.62245e-21)
(0.959445 0.000837838 0)
(0.959132 -0.00101534 0)
(1.05442 0.0506393 0)
(0.534761 0.0240058 -2.00107e-20)
(1.07413 0.131773 6.61882e-21)
(0.989458 0.026421 0)
(0.983745 0.0358922 2.86431e-20)
(0.864712 0.101603 -1.66225e-20)
(1.0681 0.0520268 6.68549e-21)
(0.801928 0.0565219 0)
(1.04739 0.0616738 4.94454e-21)
(1.03896 0.0629546 -2.29307e-21)
(1.0337 0.0437677 7.00293e-22)
(0.456446 0.0167805 0)
(1.03699 0.075558 0)
(1.03597 0.0725048 -1.2171e-21)
(0.957811 0.110434 0)
(1.00157 0.00326125 1.85245e-20)
(0.842258 0.0661555 0)
(0.978905 0.0171782 8.07651e-21)
(1.00008 8.76758e-05 0)
(0.984499 0.0179289 4.16193e-20)
(1.01855 0.0153852 -1.81338e-21)
(1.00587 0.000868609 0)
(0.831098 0.0605999 1.02628e-21)
(1.03836 0.0629059 1.87754e-21)
(0.999988 -0.00015589 -1.33406e-20)
(1.02274 0.0157868 -2.93525e-21)
(1.01184 0.00205536 6.31726e-22)
(0.997068 0.0442481 -1.80068e-20)
(0.963107 -0.0113646 0)
(0.990749 0.0728523 1.05195e-21)
(1.03459 0.0202531 0)
(1.03384 0.0432983 1.41962e-21)
(1.02357 0.0337041 -1.38055e-21)
(1.00138 0.0026513 -1.89298e-21)
(0.99202 0.0116193 0)
(0.931022 0.0680561 -7.57494e-22)
(1.02018 0.00898452 -3.00869e-21)
(1.03833 0.0769353 -4.45756e-21)
(1.04171 0.0564609 0)
(1.00606 0.00873262 0)
(0.998614 0.00127457 0)
(0.979792 -0.00253341 0)
(0.990613 0.0264494 1.81794e-20)
(1.02023 0.0707686 1.19287e-21)
(0.726182 0.0316174 2.35114e-20)
(1.02904 0.0639828 -2.66559e-21)
(1.06207 0.0708097 -8.11487e-21)
(1.04439 0.0595547 0)
(1.0531 0.0644986 -6.27118e-21)
(1.01159 0.0623464 7.75462e-21)
(0.995263 0.012784 1.06374e-20)
(1.07579 0.100409 -3.17947e-21)
(0.997164 0.0961514 1.31695e-20)
(1.03575 0.0478704 2.12487e-22)
(0.999451 0.00816788 2.11519e-22)
(1.02866 0.0522872 -3.47446e-21)
(1.07512 0.113278 0)
(0.66849 0.0490361 0)
(0.999904 0.00206706 -1.08885e-21)
(0.969501 -9.1791e-05 3.00986e-20)
(0.578183 0.0337643 -2.24867e-21)
(1.00352 0.059711 -9.03621e-22)
(1.0237 0.0847598 4.51855e-21)
(0.96034 0.0768488 2.58929e-20)
(1.03324 0.0739591 1.32338e-21)
(1.02336 0.0501624 5.49153e-21)
(0.999997 0.000289609 -1.14379e-20)
(1.02487 0.049572 8.46009e-21)
(1.04311 0.0790232 -3.12732e-21)
(0.985578 -0.00596421 2.6173e-20)
(0.999924 -3.9779e-05 3.08508e-20)
(1.02359 0.0835669 -3.83513e-21)
(0.98328 0.0839566 -8.82169e-21)
(1.00141 0.00329142 -1.49538e-20)
(0.779188 0.229062 9.57346e-20)
(0.999664 -0.00223389 0)
(0.999786 -0.000548015 0)
(0.985195 0.0829004 5.99158e-21)
(1.02684 0.0981724 0)
(0.96856 0.0218913 -1.75353e-20)
(0.644832 0.0530802 -3.75368e-22)
(1.03637 0.0570656 0)
(0.99178 0.0120436 0)
(1.02565 0.0350975 -5.47998e-21)
(1.03808 0.0568338 -2.19146e-21)
(0.993756 0.00426255 0)
(0.997314 -0.00293792 0)
(0.995442 -0.000262418 -1.46212e-20)
(0.988182 0.0121388 -9.28262e-21)
(1.0384 0.0771098 0)
(0.999912 -0.000796897 1.41747e-20)
(1.00411 0.0138844 2.018e-20)
(1.046 0.0682222 0)
(1.05406 0.0712413 -4.7505e-21)
(0.864861 0.0295051 5.50778e-20)
(1.02526 0.0335828 0)
(0.89814 0.109206 9.57685e-20)
(0.997372 0.00959934 3.30903e-20)
(1.03438 0.0689041 -2.627e-22)
(0.998757 0.00358976 0)
(1.02817 0.015148 -2.40907e-21)
(1.00316 0.000799224 0)
(1.00003 5.63823e-05 7.05503e-24)
(0.985604 -0.00489947 -2.99638e-20)
(1.05498 0.0627304 0)
(1.01032 0.0167346 8.33283e-21)
(1.01426 0.00102839 4.11651e-21)
(0.945619 0.0434789 1.74902e-20)
(0.520808 0.0310249 1.90254e-21)
(1.05487 0.0630935 0)
(1.04334 0.0763681 -3.59135e-21)
(1.02847 0.0462335 0)
(1.01403 0.0149656 -4.76448e-21)
(0.990822 0.029298 1.14725e-20)
(1.02909 0.0781598 1.57813e-21)
(0.963084 0.0768696 0)
(0.994933 0.00141765 -1.3694e-22)
(0.971912 0.0449522 6.04442e-21)
(1.08567 0.113305 1.71821e-20)
(0.930302 0.0668587 5.17387e-21)
(1.0322 0.0741249 -4.63943e-22)
(1.05382 0.0717553 -6.47514e-23)
(0.954337 0.0574559 -4.09052e-20)
(0.966263 -0.0102331 -2.85474e-20)
(0.982567 0.00326405 2.01473e-20)
(1.13638 0.285104 6.54464e-20)
(0.732722 0.0628682 -6.33851e-21)
(0.963463 0.00881383 3.50521e-20)
(1.00324 0.000576657 0)
(1.02038 0.00850363 9.89945e-21)
(1.02703 0.0920311 5.28279e-22)
(1.03871 0.0583406 -1.02872e-21)
(1.02781 0.0134967 0)
(1.02083 0.00855019 -5.6101e-21)
(0.948907 0.0585499 4.56363e-22)
(1.05359 0.064373 -9.19897e-22)
(1.01076 0.087592 1.19482e-20)
(0.996462 0.00258015 -7.41835e-21)
(0.986648 0.0407232 0)
(0.701178 0.0548674 0)
(0.993436 -0.0107131 4.73746e-20)
(1.04254 0.0860954 -3.10516e-21)
(1.02117 0.0298275 3.76885e-21)
(0.992106 0.00913537 -3.00069e-21)
(1.03931 0.035994 -1.52712e-21)
(0.980715 0.0122502 -3.53166e-20)
(1.00002 0.00037253 2.19051e-20)
(0.946625 0.0408646 -6.19884e-20)
(1.02181 0.02965 0)
(0.994221 0.0202174 0)
(0.915119 0.0660947 2.60879e-21)
(0.598586 0.0476021 1.14347e-22)
(0.991616 0.0183124 -1.42609e-22)
(1.00997 0.0740681 -7.60562e-21)
(0.99338 0.0200579 1.08907e-20)
(0.946784 0.0050025 3.42611e-22)
(1.03282 0.0741033 -1.53318e-21)
(1.0678 0.0542999 -2.15125e-20)
(0.779655 0.0433212 0)
(1.01076 0.015637 5.26665e-21)
(0.980554 -0.000708246 0)
(1.00605 0.0127421 0)
(1.01796 0.00797351 1.50981e-20)
(1.00288 0.00523068 7.70192e-21)
(1.02729 0.0131452 1.02169e-21)
(0.991435 0.0415054 1.36612e-20)
(0.988421 0.0114234 2.82108e-20)
(0.52526 0.0319514 0)
(0.681412 0.055819 6.61059e-21)
(0.99989 0.00228624 1.10667e-21)
(1.03674 0.0577352 6.42843e-22)
(1.01419 0.0468565 0)
(0.913885 8.74743e-05 0)
(1.00381 0.0328811 3.72163e-22)
(1.02911 0.0464762 2.2443e-22)
(1.00439 0.0077799 1.1522e-20)
(0.63352 0.0511294 1.60424e-21)
(1.00025 0.00380982 -4.74965e-21)
(0.999996 -0.000212039 -1.10203e-22)
(1.03405 0.0327148 -3.07267e-21)
(0.950762 0.0875607 0)
(1.02537 0.00857509 1.90262e-21)
(0.608591 0.050529 0)
(0.840248 0.0616163 -3.56681e-21)
(1.00911 0.00104727 0)
(1.05443 0.0648555 -4.21062e-21)
(1.03406 0.0206341 0)
(0.998482 0.0306947 0)
(0.992071 -0.00555851 2.2632e-20)
(0.700401 0.0580421 -5.52703e-21)
(1.02361 0.00804533 -3.67897e-21)
(1.0442 0.0754646 3.59493e-21)
(1.00357 0.00426989 0)
(0.999991 0.000259566 -2.19137e-20)
(1.02827 0.0556628 9.75279e-22)
(1.01607 0.000993389 4.34246e-21)
(1.0086 0.000950009 0)
(0.998789 0.00414331 5.58029e-21)
(0.997471 -0.00312142 -3.50535e-21)
(0.779645 0.0583083 3.23139e-22)
(1.03817 0.0554942 1.48439e-21)
(1.02334 0.038707 -2.0999e-21)
(0.999954 -0.000373023 1.33758e-20)
(1.05372 0.0537625 1.34444e-20)
(0.996565 0.00196807 -1.90849e-20)
(1.02092 0.0598866 -9.37577e-21)
(0.916709 0.0552255 0)
(0.999874 -0.00108009 -1.38208e-20)
(1.05201 0.0540852 0)
(1.02329 0.015764 3.17816e-21)
(1.13035 0.190976 0)
(0.987986 -0.01064 -1.44533e-21)
(0.890927 0.0643318 -4.08038e-21)
(0.863524 0.0632722 -2.11704e-21)
(0.998251 0.0317122 0)
(0.944668 0.00409613 -5.78982e-20)
(0.929753 -0.0159311 3.40713e-20)
(1.01342 0.0588078 0)
(0.993661 -0.0046079 -5.09058e-22)
(1.00656 0.0142068 -1.15671e-20)
(0.916503 0.0124148 -3.39467e-20)
(1.00258 0.0340404 8.9372e-21)
(1.00322 0.03493 0)
(1.00658 0.0137022 2.63358e-21)
(0.983519 0.00724936 2.59023e-21)
(1.04134 0.0385217 -4.28391e-22)
(1.00474 0.0595725 0)
(0.99777 0.00927274 -1.57494e-20)
(1.00003 0.000712689 -1.62252e-20)
(1.01172 0.0615309 -6.27531e-21)
(0.930012 0.0782893 -1.60575e-20)
(1.00243 0.0054948 0)
(1.0327 0.0248592 3.15566e-21)
(0.688126 0.0321397 -2.20208e-20)
(1.01761 0.00744671 2.39413e-21)
(0.991623 0.0177518 -1.57697e-20)
(1.007 0.00677876 7.84371e-21)
(1.03526 0.047217 -2.69363e-22)