/*--------------------------------*- C++ -*----------------------------------*\
| =========                 |                                                 |
| \\      /  F ield         | OpenFOAM: The Open Source CFD Toolbox           |
|  \\    /   O peration     | Version:  v2012                                 |
|   \\  /    A nd           | Website:  www.openfoam.com                      |
|    \\/     M anipulation  |                                                 |
\*---------------------------------------------------------------------------*/
FoamFile
{
    version     2.0;
    format      ascii;
    class       volScalarField;
    location    "250";
    object      epsilon;
}
// * * * * * * * * * * * * * * * * * * * * * * * * * * * * * * * * * * * * * //

dimensions      [0 2 -3 0 0 0 0];


internalField   nonuniform List<scalar> 
14479
(
0.0104361
0.000294639
0.000976916
1.05889e-06
1.25818e-06
1.07301e-06
7.67701e-07
2.83667e-06
3.07698e-06
8.2786e-05
8.89881e-07
1.77072e-06
1.476e-06
0.000987261
0.000201593
8.71026e-07
7.62469e-07
0.000220449
1.44116e-06
9.62427e-07
1.92745e-06
1.26977e-06
1.03517e-06
0.00560169
8.95447e-07
1.49822e-06
0.000575361
2.78675e-06
1.55171e-06
0.000580539
0.000923106
0.00561139
6.50331e-07
6.50728e-07
0.00111883
1.5571e-06
8.85396e-07
8.71277e-07
0.000134855
1.62919e-06
9.25821e-07
9.13938e-07
4.21741e-05
2.15577e-05
8.81773e-07
1.08576e-06
1.3929e-06
0.00391307
9.47338e-07
9.09152e-07
0.00570919
2.80322e-06
1.40482e-06
0.00545123
1.00519e-06
1.75828e-06
1.57256e-06
1.54108e-06
0.000250972
1.54754e-06
1.36332e-06
1.30733e-06
0.00190052
1.4095e-06
7.76734e-07
0.00328056
0.00402569
0.00128085
1.39375e-06
1.55807e-06
0.0187544
1.42012e-06
0.00199011
1.64538e-06
1.26011e-06
1.38232e-06
1.06078e-06
0.00219215
1.12547e-06
0.00283961
1.45081e-06
1.87429e-06
0.000537799
0.000885344
0.000594536
1.13649e-06
1.11379e-06
7.72486e-07
2.837e-06
1.47277e-06
3.04611e-06
0.00387409
0.0088448
1.42214e-06
8.07867e-07
1.42577e-06
1.132e-06
8.29902e-07
9.30699e-07
0.00094961
0.0147151
1.0687e-06
0.00582189
0.00119675
0.000824915
5.1642e-06
6.24098e-06
6.48514e-07
0.000872203
0.000960454
7.14993e-06
0.000109065
3.7649e-07
1.73081e-06
4.25694e-06
2.18486e-06
1.62749e-06
3.88713e-05
2.64907e-06
1.32045e-06
1.64305e-06
5.70051e-06
0.00531791
9.25859e-07
7.36821e-07
3.58508e-07
1.46673e-06
0.0180184
1.56016e-06
8.31284e-07
1.09298e-06
0.00438243
0.000863362
4.9917e-05
0.000309436
1.67089e-06
3.17673e-06
1.8947e-06
0.0107969
0.000800932
0.000992827
0.0210373
7.03469e-07
0.000946634
1.46022e-06
0.000254694
0.0212489
8.74017e-07
1.0566e-06
1.63631e-06
0.000204567
1.25683e-06
0.000242582
1.58404e-06
1.50661e-06
6.99332e-07
0.000292702
0.00743871
0.000730625
1.68062e-06
1.67425e-06
5.93562e-07
1.26652e-06
1.18884e-06
0.000250391
4.62852e-07
1.24935e-06
2.05847e-06
6.20818e-06
0.000742133
0.00184209
1.88334e-06
9.67209e-07
1.46031e-06
8.8272e-07
9.70894e-07
1.66202e-06
1.13568e-06
4.15098e-07
0.00294349
2.13397e-06
4.34938e-07
0.000996415
4.1872e-07
0.000169488
4.3511e-07
0.000701312
0.0053482
1.52094e-06
0.0403874
0.0102942
1.76504e-06
0.00277466
0.000308987
1.11069e-06
1.87992e-06
8.42742e-07
1.65021e-07
1.70607e-06
1.26687e-06
1.63323e-06
1.07933e-06
1.05881e-06
1.25161e-06
1.51621e-06
8.84894e-07
0.00015206
9.41172e-07
7.25315e-07
1.522e-06
1.7506e-06
1.43119e-06
1.51798e-06
1.51363e-06
0.000599584
3.03943e-05
0.00161452
7.63534e-07
5.52197e-05
9.5209e-07
1.31021e-05
0.0205546
1.52708e-06
4.1478e-07
0.033348
1.38387e-06
0.00168716
1.23301e-06
2.72913e-06
5.56559e-07
1.3304e-06
5.62305e-07
9.38647e-05
8.60462e-07
8.77947e-07
0.0278433
1.20869e-06
2.42416e-06
0.00519548
1.43038e-06
1.02378e-06
1.27882e-06
2.57398e-06
1.09883e-06
4.33893e-07
1.99227e-06
0.0117968
8.51238e-06
1.31412e-06
1.48225e-06
8.57724e-07
6.38739e-07
8.98952e-08
0.000102938
5.31113e-05
9.46894e-07
1.51173e-06
7.25355e-07
1.05169e-06
1.5237e-06
1.22998e-06
1.02995e-06
1.51356e-06
1.10767e-06
1.06871e-06
1.56169e-06
1.2071e-06
1.49063e-06
0.0113983
1.79364e-06
2.67696e-06
8.90803e-07
5.72472e-06
1.88315e-06
2.03882e-06
6.8098e-05
2.41491e-06
7.17037e-07
1.72369e-06
1.41931e-06
1.85083e-06
2.00028e-06
1.45958e-06
1.53006e-06
3.065e-06
0.000681018
2.51221e-06
0.000869229
1.81445e-06
0.0122023
5.95836e-05
1.25329e-06
1.04414e-06
8.51928e-07
1.19906e-06
0.000416226
0.012189
1.4905e-06
1.68408e-06
0.000157405
0.0113577
0.00376461
1.06208e-06
1.23846e-06
1.85842e-06
0.0250543
5.83804e-07
0.0160979
7.32796e-07
3.49089e-06
7.40963e-07
0.0152588
1.60125e-06
8.7625e-07
1.86552e-06
0.00921163
1.77247e-06
1.68579e-06
1.86463e-06
7.59218e-07
0.0196408
2.71385e-06
0.00278094
1.15801e-06
1.37919e-06
0.0340993
0.0248368
0.000248246
1.47936e-06
1.41431e-06
1.04048e-06
8.45045e-07
1.03811e-06
2.38454e-06
1.32526e-06
1.45377e-06
0.000733114
1.55754e-06
1.20734e-06
1.31694e-06
1.3979e-06
1.22926e-06
7.31642e-07
2.01696e-06
0.000186627
1.76471e-06
1.96763e-06
1.8631e-06
2.83492e-06
7.68815e-07
1.52155e-06
1.7332e-06
0.0021517
0.00882789
1.42424e-06
0.0246999
0.000560384
0.0788426
1.38232e-06
0.0196505
7.36359e-07
1.63628e-06
0.00726552
0.00786742
1.59511e-06
7.32233e-07
5.66708e-07
2.66118e-06
2.61132e-06
5.70077e-07
1.31834e-06
0.000116866
1.06978e-06
1.87373e-06
0.000503834
3.00214e-05
1.30979e-06
2.84715e-06
1.71451e-06
1.48157e-06
1.85975e-06
2.03213e-06
1.53107e-06
1.07894e-06
0.00487562
6.57727e-07
0.00636939
1.42782e-06
8.32442e-07
1.15863e-06
2.81834e-06
1.41156e-06
1.5954e-06
0.000423073
0.000245437
7.58195e-07
1.09937e-06
0.0003199
1.67527e-06
3.21144e-06
2.03349e-06
2.47806e-06
1.68885e-06
9.42527e-07
1.60121e-06
1.39761e-06
1.45912e-06
1.85525e-06
0.00183379
2.02729e-06
0.000279031
0.000374812
1.56158e-06
1.67684e-06
1.45747e-06
0.00289702
1.52964e-06
1.52986e-06
0.00476739
1.9977e-06
1.60835e-05
0.000906692
0.00680982
0.00286991
0.00998912
1.48518e-06
1.597e-06
1.55981e-06
5.63167e-07
8.78066e-07
1.12954e-06
1.73404e-06
2.1852e-05
0.000205363
0.00731895
2.01902e-06
0.000972185
1.0196e-06
2.56527e-06
1.39638e-06
0.0128999
7.18845e-07
8.60261e-07
5.96909e-06
1.24701e-06
1.10781e-06
1.51684e-06
0.000299878
1.417e-06
1.13053e-06
8.76998e-07
1.30306e-06
1.07362e-06
1.66956e-06
1.07754e-06
2.02436e-06
1.36706e-06
0.000878981
1.73241e-06
0.000898053
3.54799e-06
1.52345e-06
1.1216e-06
1.64644e-06
0.000208877
1.1239e-06
1.71372e-06
0.00746964
0.0143118
1.36538e-06
1.22907e-06
4.27458e-06
9.32226e-07
7.14249e-07
5.84265e-06
0.00277191
2.0585e-06
0.00337108
1.89963e-06
1.18554e-06
0.000375969
1.54549e-06
7.41377e-07
0.000244214
1.73285e-06
6.0431e-07
4.328e-07
1.11359e-06
0.00414972
1.68556e-06
7.39284e-07
7.57998e-07
3.42954e-06
1.44613e-06
7.42382e-07
1.12157e-06
9.46854e-07
3.4392e-06
4.91668e-07
3.31885e-06
1.53102e-06
1.14121e-06
0.00100867
1.61236e-06
0.0230967
2.32008e-05
3.86634e-05
0.0152046
1.43871e-06
7.02638e-07
1.12478e-06
1.37408e-06
1.5337e-06
3.49945e-06
1.52445e-06
2.57854e-06
0.000581588
1.60154e-06
0.00215773
5.67233e-06
5.28601e-06
1.17027e-06
1.23456e-06
1.51664e-06
1.11569e-06
2.45412e-06
2.10655e-06
1.71416e-06
0.000239488
7.01078e-07
0.037496
0.00631975
1.55857e-06
7.37897e-07
1.54677e-06
6.83292e-07
1.46412e-06
1.03282e-06
1.93228e-06
1.65327e-06
1.82712e-06
0.00154098
1.55374e-06
1.47834e-06
0.00036819
1.71381e-06
8.32152e-07
0.00166159
0.00857259
1.2277e-06
1.33217e-06
0.00010184
4.81776e-05
2.04191e-06
1.55265e-06
5.63606e-05
0.0152436
2.1259e-06
1.51876e-06
0.0142932
9.38763e-07
1.48608e-06
1.10947e-06
0.00808064
3.09262e-06
1.13707e-06
9.15807e-07
0.00012163
1.78642e-06
4.28257e-07
0.000153823
1.46752e-06
1.23388e-06
5.55634e-07
1.66588e-06
2.49e-05
0.0803082
1.52884e-06
0.000168738
0.00953065
0.0192418
1.47384e-06
1.55584e-06
0.00612577
1.12879e-06
0.000129866
1.67824e-06
1.48031e-06
1.21321e-06
1.63785e-06
1.75725e-06
7.30187e-07
0.00533009
5.25482e-06
9.5465e-07
0.00032824
1.14856e-06
7.7098e-07
0.000264666
1.22612e-06
1.57714e-06
1.6702e-06
1.1219e-06
1.21681e-06
1.57959e-06
2.645e-06
0.00338695
2.03475e-06
1.65727e-06
1.24093e-06
1.50137e-06
0.00107995
0.00427586
1.32937e-06
0.0141395
0.00912169
1.10715e-06
0.000833853
7.6138e-07
0.000244272
7.90321e-07
0.0134919
1.6377e-06
1.73537e-06
1.43531e-06
2.46621e-06
4.17737e-07
4.25117e-06
1.57766e-06
1.66364e-06
9.95357e-07
8.8756e-07
0.00830535
1.39467e-06
7.40397e-07
0.000397157
1.12147e-06
3.59857e-06
0.000365603
1.37108e-06
1.66664e-06
1.44408e-06
0.00487869
0.0158013
2.84419e-06
0.013725
1.71309e-06
9.48862e-07
3.39743e-06
1.64025e-06
1.41213e-06
1.63204e-06
1.39573e-06
0.00795539
1.70657e-06
9.82899e-07
0.0232187
1.6662e-06
0.000412167
1.32872e-06
3.08557e-05
0.00347186
0.00326746
1.14003e-06
2.02379e-06
0.0204739
3.66852e-06
5.66181e-07
1.74274e-06
1.13096e-06
9.92819e-07
1.45664e-06
5.91328e-07
7.46159e-07
1.04047e-06
7.50566e-07
2.01462e-06
1.87321e-06
6.8375e-07
0.000532439
1.48725e-06
1.38968e-06
1.65327e-06
0.000272492
0.0146484
5.92246e-07
0.000688227
7.44783e-07
0.000178209
6.96197e-07
1.22942e-06
2.51647e-06
1.51345e-06
1.37546e-06
1.70691e-06
0.0350158
5.62153e-07
1.62757e-06
9.27564e-07
1.52156e-06
9.7712e-07
8.98115e-07
1.67415e-06
1.59483e-06
7.52339e-07
2.09161e-06
8.9718e-07
0.0344752
0.00279651
9.11045e-06
0.00347027
5.70576e-07
0.0154445
5.88151e-06
1.52923e-06
4.66794e-07
7.6886e-07
9.10578e-07
1.33133e-06
1.05769e-06
0.00158253
0.00286537
1.20664e-06
1.6327e-06
0.0124212
0.0132022
2.5158e-06
0.0129604
0.00139136
1.47243e-06
7.44441e-07
1.41905e-06
2.67725e-06
0.00377177
1.55191e-05
1.03424e-06
1.65521e-06
1.62823e-06
1.52144e-06
4.92907e-07
2.01141e-06
1.20053e-06
1.58721e-06
2.47192e-06
1.21112e-06
1.45526e-06
4.10408e-05
1.87654e-06
9.72643e-07
0.000758417
5.47715e-05
1.48005e-06
3.10555e-06
1.23212e-05
0.00495504
1.6745e-06
0.00110685
0.00260495
2.87861e-06
1.71705e-06
3.56607e-05
6.40783e-07
0.000218036
0.00480326
4.33292e-07
0.000564305
8.0438e-05
1.51037e-06
0.000907872
1.57409e-06
1.67432e-06
1.20894e-06
1.05547e-06
9.23009e-07
1.10168e-06
0.0120814
0.00024713
0.0279269
1.51674e-06
0.017143
1.33523e-06
1.38698e-06
2.75744e-06
1.22688e-06
0.000244796
2.02772e-06
1.53448e-06
9.23876e-07
1.11782e-06
1.23714e-06
0.000140093
1.65826e-06
1.43501e-06
1.90243e-06
0.000697451
0.034111
0.000301534
3.15331e-06
8.90974e-07
0.000775675
1.50799e-06
1.70725e-06
1.62962e-06
2.00111e-06
3.40244e-06
9.70735e-07
5.59228e-07
2.4557e-06
1.38371e-06
8.6986e-07
1.6325e-06
8.95105e-05
1.59689e-06
5.58816e-07
5.65461e-07
1.62885e-06
1.65883e-06
7.5186e-07
1.66533e-06
1.57208e-06
9.39465e-05
1.45452e-06
0.00982283
0.00472804
8.91073e-07
0.00502554
1.77361e-06
1.4007e-06
0.00138027
2.61924e-06
2.02287e-06
1.6117e-06
9.05525e-07
0.00882754
0.0252924
0.000122537
0.0104156
8.72118e-07
0.0194865
2.29646e-06
1.53232e-06
1.63777e-06
1.87669e-06
2.01053e-06
5.19612e-06
1.94123e-06
9.93338e-07
2.56522e-06
1.52144e-06
1.52615e-06
5.63361e-07
0.00890877
1.57898e-06
0.000435746
0.000897448
0.00151776
0.000220844
1.08778e-06
5.09621e-05
1.49621e-06
0.000160342
2.29541e-06
0.0126035
1.48005e-06
1.94669e-06
1.32352e-06
6.02472e-07
9.8805e-05
0.0199057
0.000856039
7.6729e-07
1.56087e-06
1.87973e-06
1.35045e-06
1.44086e-06
4.31889e-07
5.58823e-07
1.64706e-06
8.26204e-07
1.58708e-06
6.08989e-07
1.62672e-06
0.0366207
1.14232e-06
0.00263803
1.53273e-06
0.000248978
2.05815e-06
1.54604e-06
3.31035e-06
4.74907e-06
0.0273074
1.41434e-06
0.0140989
1.22311e-06
1.88524e-06
1.5347e-06
3.09912e-06
6.09264e-07
7.7157e-07
1.10582e-06
5.62008e-07
1.06624e-06
1.66486e-06
0.032619
0.000353593
2.60932e-05
9.06893e-07
1.92632e-06
1.38518e-06
8.37537e-07
1.27965e-06
8.84305e-07
0.0108307
3.16595e-06
1.03126e-06
1.75795e-06
1.64366e-06
1.32076e-06
2.36053e-06
3.9795e-05
2.71389e-06
9.76489e-07
4.81832e-06
1.06684e-06
0.00924413
9.60211e-07
8.31941e-07
1.37747e-06
4.28042e-06
1.02356e-06
3.56911e-06
0.00019508
8.66796e-07
1.44458e-06
2.47506e-06
0.000977407
1.51127e-06
0.000294945
1.67896e-06
1.12794e-06
0.0158103
0.000517102
3.05439e-06
2.45872e-06
0.00093484
0.00343322
8.36608e-07
0.0175167
1.47587e-06
7.39853e-07
1.14458e-06
1.63353e-06
1.51063e-06
7.53218e-07
1.69931e-06
0.000593756
1.83568e-06
0.00314343
7.5145e-07
1.58175e-06
1.6503e-06
1.49618e-06
1.37671e-06
4.31762e-07
2.31806e-06
1.69023e-06
9.33891e-07
1.51608e-06
1.97277e-06
1.1852e-06
8.77856e-07
0.000841219
1.5258e-06
2.02666e-06
1.36656e-05
1.64394e-06
2.0111e-06
2.90638e-05
0.00507442
1.04366e-06
1.23214e-06
1.35945e-06
7.72507e-07
0.000745474
0.0380659
4.48556e-07
9.90098e-07
4.79715e-06
1.74377e-06
2.37336e-06
0.000738719
0.000379467
1.5116e-06
2.25038e-06
1.38974e-06
1.83242e-06
1.00539e-06
0.00121288
8.98546e-07
1.52661e-06
0.000938708
1.02514e-06
0.0163477
1.36807e-05
0.000382008
4.94765e-06
1.6069e-06
0.00457912
9.54284e-07
4.25816e-05
0.000781169
1.50748e-06
0.000905986
1.4231e-06
2.02012e-06
0.00834682
1.52915e-06
0.0491445
1.64471e-06
1.0177e-06
0.00353571
0.018735
6.63385e-07
1.77806e-06
0.000338592
1.62989e-06
1.03721e-06
1.46561e-06
0.0049417
1.23731e-06
1.22344e-06
8.59319e-07
0.000230266
5.51393e-07
0.000879737
1.77131e-06
2.47294e-06
9.92302e-07
0.00551069
7.60408e-07
1.78772e-06
1.51385e-06
1.61212e-06
1.35236e-06
1.01451e-06
7.79386e-07
2.06557e-06
3.4371e-06
1.76463e-06
1.59545e-06
2.6495e-06
0.000235622
1.24237e-06
1.03907e-06
9.93013e-07
0.000375082
1.61702e-06
5.75902e-07
5.66998e-07
1.01265e-06
1.4682e-06
0.0264859
5.58989e-07
4.45658e-05
1.04761e-06
1.41235e-06
1.38568e-06
0.00462746
0.0157632
0.000179156
1.17111e-05
1.85941e-06
0.000242531
0.00994055
1.80985e-06
1.49713e-06
1.10618e-06
0.00307979
0.000134486
1.00151e-05
0.000277847
1.12135e-06
0.025655
7.5344e-07
1.48588e-06
0.00072211
3.44881e-06
0.00533644
0.000505137
3.15026e-06
0.000224516
7.49304e-07
1.56392e-06
5.70364e-07
0.000244
0.000892835
0.000348821
0.00288662
4.02928e-05
1.03767e-06
9.69207e-07
2.01721e-06
1.62745e-06
1.80775e-06
1.11437e-06
1.57143e-06
3.60321e-06
2.08446e-06
2.42669e-06
0.0337691
9.48559e-07
1.4329e-06
5.52733e-07
8.16145e-07
1.66269e-06
1.34363e-06
0.0254357
0.000873069
2.07976e-06
1.47056e-06
0.000285506
0.000115824
3.21872e-06
0.000325817
8.47485e-07
0.000319391
0.0124084
2.42558e-06
1.09208e-06
0.0249379
0.000943698
0.00969127
0.00548883
2.38819e-06
1.05129e-06
1.89514e-06
1.31611e-06
2.53029e-06
1.23255e-06
3.38787e-06
1.37575e-06
0.000287843
8.18585e-07
0.00491055
1.48433e-06
1.72766e-06
1.40357e-06
1.06624e-06
1.78358e-06
1.2072e-06
8.4586e-07
2.01029e-06
0.00190141
3.84039e-05
1.23661e-06
0.0107482
2.28468e-06
1.51522e-06
2.07513e-06
1.66199e-06
1.2374e-06
1.68128e-06
4.25039e-07
1.90959e-06
1.02594e-06
0.0010069
1.85095e-06
0.000992541
1.80079e-06
1.63972e-06
0.000644444
3.31775e-06
2.13286e-06
0.000436639
1.19846e-06
0.000374777
8.74881e-07
1.31886e-06
0.000307443
0.00993502
1.38113e-06
1.81279e-06
1.67932e-06
1.20152e-06
1.23195e-06
1.53694e-06
8.17491e-05
1.03985e-06
1.45254e-06
2.51855e-06
1.39931e-06
4.40141e-05
8.81368e-07
1.44464e-06
1.41498e-06
1.31243e-06
0.00999296
7.50896e-07
1.7319e-06
0.00795451
0.000938546
5.31832e-06
1.61846e-06
0.0239843
1.87244e-06
1.21491e-06
2.46757e-06
2.05598e-06
0.000782871
1.74171e-06
3.98321e-05
1.76802e-06
7.01379e-07
1.13313e-06
0.00589074
1.48953e-06
2.59057e-06
1.00512e-06
7.71255e-07
1.19209e-06
1.61854e-06
1.05029e-06
3.273e-06
1.60176e-06
1.83884e-06
6.28298e-07
0.000355316
1.6039e-06
6.06838e-06
0.00127224
0.000652588
0.00442961
1.73286e-06
0.0002746
1.63184e-06
1.66601e-06
6.28477e-07
1.51934e-06
1.49316e-06
2.02717e-06
0.0249792
2.75956e-06
9.67542e-07
0.00859269
0.00375932
1.95882e-06
1.70798e-06
5.20313e-05
0.00997585
0.000476457
9.08511e-05
1.97581e-06
0.000171454
3.42197e-06
9.80691e-07
1.4935e-06
6.87869e-07
1.72152e-06
1.26287e-06
6.86385e-07
1.49743e-06
1.69682e-06
1.23236e-06
1.15709e-06
0.000646747
1.65719e-06
2.00238e-06
0.0189864
0.00022345
9.88368e-07
1.54514e-06
0.00774565
0.0251683
1.08307e-06
8.97081e-07
1.57934e-06
1.40699e-06
8.89824e-07
0.00417666
1.57499e-06
1.62249e-06
1.22367e-06
0.000312841
2.26165e-06
0.0354265
7.84772e-07
1.05017e-05
1.64369e-06
1.74785e-06
1.51368e-06
2.30969e-06
0.0243902
0.0119295
1.97227e-06
1.45093e-06
1.94804e-06
1.01182e-06
1.7889e-06
2.03265e-06
1.83416e-06
1.12951e-05
1.39713e-06
0.0108124
1.818e-06
0.00570606
1.67256e-06
1.38806e-06
1.44211e-06
0.000255847
0.013014
1.51477e-06
3.08478e-06
5.60979e-07
9.67181e-07
6.23812e-05
1.06463e-06
9.77838e-07
1.20018e-06
9.54135e-07
6.31626e-07
8.41563e-07
4.44118e-05
8.6368e-07
1.55391e-06
1.72246e-06
0.0229809
9.43563e-07
1.64941e-06
9.99788e-07
1.5004e-06
1.84607e-06
1.25162e-06
8.71309e-07
0.00497413
0.0175923
1.42789e-06
1.80442e-06
1.50216e-06
0.000162692
8.33611e-07
3.11112e-06
0.015024
3.32539e-06
1.03151e-06
0.0186698
1.11634e-06
7.98548e-07
2.53116e-06
1.04798e-06
1.74966e-06
1.0142e-06
1.33019e-06
6.8639e-07
0.000244279
1.5676e-06
1.67641e-06
1.75954e-06
1.39681e-06
1.30955e-06
1.36514e-06
2.52026e-06
9.31735e-07
1.4822e-06
5.85846e-06
1.62804e-06
0.000280338
2.30294e-06
1.03095e-06
1.28204e-06
1.59887e-06
0.00451574
2.59292e-06
2.17648e-05
5.53666e-07
1.41436e-06
1.13318e-06
1.50381e-06
1.08883e-06
1.30941e-06
0.00306649
1.35181e-05
9.93404e-07
8.56383e-05
9.30069e-05
1.48946e-06
0.000121465
6.97575e-07
0.000305575
0.0360186
1.51536e-06
0.0113066
2.05454e-06
4.86592e-05
0.000110632
7.27835e-07
1.35972e-06
2.39429e-06
0.000140049
0.0471507
8.05056e-07
1.07581e-06
5.57448e-06
9.70584e-05
1.41961e-06
1.35028e-06
0.000174496
1.74885e-06
1.00539e-06
0.00844578
1.0995e-06
1.01967e-06
1.2072e-06
1.13921e-06
7.62157e-07
0.000112039
4.86481e-05
0.000268269
2.35711e-06
1.24557e-06
1.30432e-06
1.35463e-06
1.10977e-06
2.04237e-06
0.000291894
1.6448e-06
8.48865e-07
3.38537e-06
0.00918341
2.17122e-06
1.60194e-06
9.49275e-07
3.40843e-06
0.0204999
1.22359e-06
1.9611e-05
1.92296e-06
0.0193318
0.0036318
1.56611e-06
1.10878e-06
0.00519396
6.103e-07
0.00042791
1.57573e-06
1.99547e-06
0.00225567
0.00227982
0.0056193
2.13804e-06
0.00017956
1.4615e-06
3.13108e-05
0.00417645
0.00516906
1.24382e-06
0.00300174
9.92276e-07
1.74196e-06
9.35159e-07
1.53841e-06
3.40919e-06
4.44539e-07
1.85655e-06
0.000325504
2.32306e-06
2.16616e-06
7.0885e-06
0.000646466
0.00137655
0.0177076
0.000238005
7.68512e-07
1.18521e-06
0.0318955
1.08417e-06
7.5889e-07
1.27082e-06
1.56285e-06
9.8219e-07
2.50562e-06
1.35677e-06
1.55387e-06
2.13576e-06
0.000961946
0.00611917
1.77449e-06
2.78291e-06
1.01874e-06
3.00352e-06
2.69315e-06
1.41059e-06
0.000309862
9.00615e-06
1.85309e-06
0.0002879
0.00190027
1.44393e-06
0.0107431
3.01275e-06
2.99732e-06
1.55691e-06
6.29331e-07
0.000303627
1.94218e-06
0.00018087
1.71068e-06
9.76212e-07
0.0362148
1.28936e-06
1.27802e-06
3.34228e-06
0.000267443
0.00441713
1.13997e-06
2.73504e-05
2.79953e-06
0.00250579
1.7363e-06
0.0022655
2.77161e-06
0.000279965
0.000264993
9.39979e-07
0.000477885
0.00621866
5.03795e-05
0.0039042
1.01805e-06
3.21013e-06
1.49209e-05
0.000253517
0.000605978
1.62772e-06
1.38436e-06
1.34437e-06
1.66531e-06
1.46789e-06
8.09102e-07
1.97604e-06
1.26742e-06
0.000929857
1.8061e-06
4.40693e-06
0.000133721
0.00014918
1.34231e-06
0.00372282
0.00894864
1.76054e-06
0.000741036
5.54598e-05
0.000144815
0.000330658
8.22884e-07
1.72979e-06
2.15502e-06
1.10296e-06
0.00518921
1.21828e-06
0.0238027
0.000144714
0.0157976
1.4386e-06
1.30984e-06
1.3846e-06
0.00338074
1.2055e-06
0.000313199
0.000219075
2.01777e-06
1.98342e-06
1.1763e-06
1.09317e-06
1.6696e-06
2.61502e-06
0.000595914
0.000695377
0.00257673
1.30853e-06
0.00014495
8.47872e-07
0.00250075
0.000382889
3.41464e-06
0.00451112
1.38742e-06
8.78228e-07
1.7345e-06
1.09707e-06
1.02571e-06
1.46872e-06
0.00926549
1.80974e-06
1.47452e-06
1.64943e-06
1.57357e-06
1.55934e-06
2.64254e-06
8.39653e-07
2.61952e-06
1.33339e-06
0.0105638
0.000165493
1.8546e-06
0.00128145
0.0037061
1.78705e-06
0.00489444
1.73005e-06
9.53181e-07
9.64083e-07
1.59017e-06
0.000192457
1.43296e-06
1.54654e-06
2.71241e-06
3.35779e-06
3.18404e-06
0.00787659
0.000506084
7.69594e-07
3.89756e-05
1.34302e-06
1.94352e-06
0.0078509
5.66472e-05
1.3149e-06
0.010962
1.03704e-06
1.63502e-06
0.00871151
1.05723e-06
2.63209e-06
0.00178885
1.37575e-05
1.25385e-06
1.05372e-05
1.87528e-06
7.48962e-07
3.52113e-06
2.35039e-06
2.43859e-06
0.0326447
1.39051e-06
0.000377409
1.21575e-06
0.0176318
0.000258235
0.000124203
3.45102e-06
0.000872485
6.63734e-07
1.51917e-06
1.65988e-06
3.22453e-06
0.000150287
9.14663e-07
2.53637e-06
0.000776242
9.54495e-07
1.28554e-06
0.00579442
0.00883241
3.39564e-05
0.00109413
1.2745e-06
1.77109e-06
8.52423e-07
0.00465676
0.00536244
1.97921e-06
2.01072e-06
0.000107746
1.8121e-06
0.00150599
1.49274e-06
1.47597e-06
0.00489163
0.00522104
0.00355431
1.38894e-06
1.51789e-06
1.21353e-06
1.44022e-06
0.000399816
0.00120869
8.5872e-07
7.8441e-07
1.34748e-06
1.64604e-06
7.87681e-07
1.77222e-06
0.00391456
9.04e-06
1.41743e-06
0.00160901
0.00184897
0.0128667
1.49134e-06
0.000196788
0.000275554
0.000984801
0.0173685
0.000235103
1.26364e-06
7.74118e-07
1.73746e-06
2.21778e-06
1.34971e-06
1.3524e-06
9.14643e-06
1.46689e-06
1.66122e-06
0.00013874
1.21076e-06
1.66254e-06
0.00213912
1.49804e-06
0.000112329
1.42497e-06
1.39282e-06
6.52248e-07
1.71068e-06
1.51624e-06
1.80506e-06
3.56225e-06
1.17002e-06
2.49522e-06
1.56698e-06
6.76687e-07
1.16897e-06
1.495e-06
1.55596e-06
1.49584e-06
1.72217e-06
1.49187e-06
8.34529e-07
0.000105756
1.08762e-06
1.1491e-06
0.00171225
5.2446e-06
1.6774e-06
1.49753e-06
6.47744e-07
1.37973e-06
2.15586e-06
1.12872e-06
0.000385772
4.31359e-07
0.00641472
2.16669e-06
8.54992e-07
0.00116505
0.000322835
2.20063e-06
1.84627e-06
0.0233088
1.92689e-06
0.02328
1.43032e-06
2.39274e-06
1.07861e-06
9.47768e-07
1.53978e-06
1.41051e-06
1.57112e-06
9.86825e-07
1.96102e-06
0.000383175
1.25515e-06
3.41726e-06
7.95107e-07
0.0134118
0.000257598
9.51641e-07
3.43153e-06
1.14135e-05
3.39944e-06
1.56061e-06
0.00102936
0.000149927
4.34117e-07
1.7323e-06
1.27602e-06
2.61595e-06
1.75901e-06
2.30963e-06
0.000183552
8.64594e-07
2.13011e-06
1.20737e-06
0.00848583
0.0109855
0.00572102
1.58585e-06
1.81027e-06
1.95755e-06
0.00753896
1.95373e-06
1.59106e-06
1.45396e-06
1.41497e-05
1.80762e-06
3.41788e-06
1.44607e-06
1.46964e-06
2.79702e-05
1.44876e-06
0.000126421
1.68369e-06
0.00462775
1.71697e-06
7.73546e-07
2.05809e-06
2.20099e-06
8.26304e-07
1.50102e-06
2.37511e-06
0.0448204
1.28743e-06
1.45409e-06
1.908e-06
0.000297659
0.00103519
1.40249e-06
1.2338e-06
0.00223775
0.00179507
7.50753e-07
1.72279e-06
1.73453e-06
8.06636e-05
1.85832e-06
1.28174e-06
7.68631e-07
7.72251e-07
1.85209e-06
0.00443787
1.0846e-06
1.72425e-06
1.49848e-06
1.55979e-06
0.0137533
8.69511e-07
3.54258e-06
2.83673e-06
0.000303073
0.0167482
0.00104288
0.0369716
1.49105e-06
1.08483e-06
0.00259997
1.10569e-06
0.00320845
0.00495803
0.0074539
0.0230334
6.46194e-07
1.62832e-06
1.51144e-06
1.67017e-06
1.70887e-06
2.77312e-05
6.7608e-07
3.35947e-06
1.1283e-06
1.70185e-06
1.93445e-06
0.000738315
1.46465e-06
1.79085e-06
7.28919e-07
0.00783585
0.00098887
0.00282301
3.40936e-06
5.43272e-06
1.48625e-06
1.83177e-06
0.0414446
1.41221e-06
0.000307569
1.99967e-06
2.49094e-06
2.34437e-06
1.19354e-06
2.12334e-06
1.56048e-06
4.94836e-07
0.00326752
1.13332e-06
0.00644077
1.58999e-06
1.29188e-06
1.55437e-06
1.09749e-06
0.0123507
1.03251e-06
1.33776e-06
9.06364e-07
0.0122583
6.36655e-07
4.93652e-07
0.00164838
0.00469534
0.0126826
1.74851e-06
1.15296e-06
0.00303802
0.00800268
9.99574e-07
1.67743e-06
1.56555e-06
1.47885e-06
2.09037e-06
1.35751e-06
6.29543e-07
0.00711046
1.43781e-06
1.52101e-06
1.14403e-06
0.0283357
3.48556e-06
0.0224556
1.02526e-06
1.04656e-06
1.08529e-06
1.80153e-06
1.01763e-06
7.91449e-07
1.33568e-06
1.15392e-06
1.66754e-06
9.35522e-07
8.69975e-07
0.00182228
0.00180213
0.00951844
0.037358
4.83606e-05
1.16179e-06
0.000604614
1.93578e-06
1.77868e-06
1.58994e-06
1.53325e-06
9.80275e-07
1.781e-06
1.56656e-06
0.00092584
2.06401e-06
5.32456e-05
8.57579e-07
1.62715e-06
1.50469e-06
1.75211e-06
1.31366e-06
9.54496e-07
1.05287e-06
0.00563584
1.41786e-06
0.00105177
4.61762e-05
1.94486e-06
0.00603238
1.64276e-06
1.42553e-06
1.97234e-06
2.32946e-06
1.57538e-06
0.00353044
3.65849e-06
3.48523e-06
1.04318e-06
1.19095e-06
0.00970029
0.0167312
1.74493e-06
3.51351e-06
1.68012e-06
2.82395e-06
1.40339e-06
1.18281e-06
1.38244e-06
0.0176377
3.41043e-06
5.38323e-06
1.73182e-06
1.71841e-06
0.000226495
9.49756e-05
3.43438e-06
2.09052e-06
0.0443703
0.000951351
6.99891e-07
0.000517776
1.67504e-06
0.00929194
1.45074e-06
2.52376e-06
1.90357e-06
0.00127255
7.79493e-07
1.59292e-06
1.49901e-06
2.41263e-06
2.70078e-06
2.69503e-06
0.0243584
9.25428e-07
1.56574e-06
0.000127472
1.93764e-06
1.27765e-06
7.15184e-07
0.000212917
0.000117403
6.34542e-07
1.63585e-06
1.60701e-06
0.000103892
2.35934e-06
1.90312e-06
1.47401e-05
4.49091e-06
0.0215033
1.94931e-06
1.07044e-06
2.45213e-06
1.60409e-06
1.00695e-06
9.94225e-07
0.000399816
0.0361467
2.06229e-06
2.02994e-06
9.97051e-07
0.000249228
1.47951e-06
2.08371e-06
0.00464203
1.0386e-06
5.41998e-06
1.06298e-06
7.94124e-07
1.34989e-06
0.0540977
0.00532047
1.62587e-06
0.00633822
0.000116814
1.73469e-06
1.75178e-06
0.000174601
1.67851e-06
0.000120773
0.0378524
7.25769e-07
2.03413e-06
0.00607655
9.79187e-07
1.09181e-06
4.66031e-06
1.95264e-06
1.36297e-06
3.95868e-05
0.0418129
1.32825e-06
0.00551571
0.00656038
2.10515e-06
1.5162e-06
0.00782912
7.11764e-07
1.12116e-06
1.17646e-06
1.39189e-06
0.0034861
0.00786893
0.00280239
1.6332e-06
0.00483866
6.97943e-07
0.00551424
0.00177316
7.30773e-07
1.29029e-06
7.76865e-07
2.01069e-06
1.04895e-06
0.00327287
0.0147762
2.52644e-06
9.11071e-07
0.00452059
1.71629e-06
1.70053e-06
0.000942055
7.07778e-07
1.53979e-06
1.80504e-06
2.31223e-06
2.70851e-06
0.0127089
8.05552e-07
1.18312e-06
0.000316219
8.09664e-07
7.20788e-07
0.0006155
1.54637e-06
1.05561e-06
1.45679e-06
0.000222518
1.32629e-06
7.61983e-07
0.034948
3.66274e-06
1.03541e-06
1.62136e-06
1.99699e-06
0.00453789
6.67971e-05
1.61901e-06
0.000182716
0.000153076
0.0457837
1.58477e-06
0.00251659
1.56142e-06
1.19491e-06
4.83586e-05
0.0167675
0.000799063
4.78026e-05
2.23666e-06
1.62686e-05
1.55863e-06
9.2179e-07
1.11387e-06
0.00217148
9.85409e-07
9.01718e-07
3.59162e-06
7.16708e-07
0.00218824
3.80286e-06
0.00798895
3.23179e-06
7.05361e-07
0.000499666
5.83172e-06
1.52471e-06
0.016653
0.000386874
8.10975e-07
0.0288618
1.14803e-06
6.32362e-07
1.44058e-06
2.22e-06
0.000193902
1.5188e-05
6.46236e-05
0.000529834
0.000336455
6.67908e-05
1.61508e-06
1.24797e-06
1.46409e-06
0.00142021
1.2133e-06
1.07404e-06
0.0197007
1.48221e-06
1.5852e-06
1.07381e-06
0.00498258
0.00245788
1.13838e-06
7.93424e-06
1.53507e-06
0.0238655
9.19618e-07
0.0448397
0.000244185
1.24133e-05
1.29908e-06
0.00464521
0.000171365
0.000186307
0.0030621
1.93222e-06
1.3087e-06
9.88941e-07
5.87518e-05
8.25226e-07
8.61295e-06
6.97909e-07
1.19966e-06
0.000283382
1.72771e-06
1.26953e-06
2.93683e-06
1.6942e-06
1.98268e-06
1.30861e-06
0.00671027
1.1746e-06
5.55566e-07
2.3185e-06
0.000686091
1.38885e-06
0.00982613
1.93503e-06
0.000424205
0.00333696
2.01657e-06
7.14575e-07
3.75519e-05
0.00803913
1.7224e-06
2.25232e-06
9.07396e-07
0.000471145
1.44053e-06
2.95705e-06
6.49146e-07
1.62071e-06
0.00527758
3.853e-06
0.0118141
1.65678e-06
1.00529e-06
1.84918e-05
6.48697e-07
1.18493e-06
1.64101e-06
0.000131788
1.44234e-06
0.0305104
0.00993415
0.000595035
1.83135e-06
1.65861e-06
2.10441e-06
0.00980267
0.0137287
1.15012e-06
1.28716e-06
3.29169e-06
4.58872e-06
1.16075e-06
5.15635e-05
1.57377e-06
1.07763e-06
1.50471e-06
1.38655e-06
1.51148e-06
1.85257e-06
2.55808e-06
1.51504e-06
9.82006e-07
9.66678e-07
0.00691644
0.000285967
1.51055e-06
1.71446e-06
1.08737e-06
6.18737e-07
0.00060765
2.77898e-06
2.56751e-06
0.000122403
0.000796891
4.97785e-05
0.00482125
3.44901e-06
2.23584e-06
2.22601e-06
1.58938e-06
1.94e-06
2.49256e-06
8.03404e-07
0.0044607
2.30035e-06
1.31757e-06
1.45909e-06
1.59716e-06
0.0242469
8.20714e-05
0.000789049
3.3e-06
0.0163265
1.66976e-06
0.00202053
1.43981e-06
0.0007477
0.0109886
7.33804e-07
1.80106e-06
1.46989e-06
1.53428e-06
0.00046074
6.87118e-07
0.000907684
8.40448e-07
1.80036e-06
2.5323e-06
1.65236e-06
6.34864e-07
5.38659e-07
8.0467e-07
1.79174e-06
0.000303708
1.35524e-06
7.54668e-07
0.000237461
0.000336215
1.62076e-06
1.9127e-06
6.86987e-07
1.70854e-06
6.31682e-07
1.58038e-06
1.41916e-06
0.0309598
0.000967187
7.7209e-07
0.00311191
0.00416739
1.56563e-06
1.5277e-06
2.16472e-06
1.29225e-06
1.41675e-06
8.09197e-07
8.50238e-05
8.42796e-07
0.00529366
0.00692971
2.63055e-06
0.0144053
1.42027e-06
9.08425e-07
0.00720887
0.000463957
1.62276e-06
3.56322e-06
1.45065e-06
1.37132e-06
1.64051e-06
2.52142e-06
8.30464e-07
1.27789e-06
3.00681e-06
0.00498327
1.81932e-05
3.82042e-06
1.30151e-06
1.21732e-06
4.81609e-07
1.62949e-06
8.08617e-07
2.48771e-06
7.70197e-07
0.00107987
1.97148e-06
9.27914e-07
1.68677e-06
1.62158e-06
3.32087e-06
0.00481196
1.99014e-06
2.3979e-06
0.00245222
1.43902e-06
2.5423e-05
1.67028e-06
1.80606e-06
1.19651e-05
1.71449e-06
6.42668e-07
1.51386e-06
1.63531e-06
1.8289e-06
0.00141165
2.45934e-06
0.00078342
1.54296e-06
1.4114e-06
2.25613e-06
0.00824124
4.73766e-07
3.48959e-06
2.26177e-06
2.20394e-06
2.36439e-05
0.000300489
1.81928e-06
0.000533402
8.60156e-07
3.72832e-07
1.74187e-06
0.0109199
2.69533e-06
9.13697e-07
2.01703e-06
2.01928e-06
1.35016e-06
2.4872e-06
1.76955e-06
0.000222589
0.000937464
9.74028e-07
0.00430438
0.000606057
0.000817453
5.04539e-07
1.06159e-06
0.000468444
9.67435e-07
3.73718e-06
2.0707e-06
1.25196e-06
0.00028977
0.000563068
0.00723901
4.76263e-07
2.23779e-06
2.08421e-06
0.000644368
1.2937e-06
1.32133e-06
0.00526246
1.83213e-06
2.35009e-06
0.00220745
1.2457e-06
2.2486e-06
1.60135e-06
2.03124e-06
8.49441e-07
3.44609e-06
1.64813e-06
1.80356e-06
0.000687054
0.00141221
1.92065e-06
0.0325309
1.23405e-06
1.45904e-06
5.13806e-07
0.00242666
8.85684e-06
5.17556e-06
2.19358e-05
8.95128e-07
1.65807e-06
0.0143887
2.25084e-06
0.00132275
0.000893146
0.00113065
3.82712e-06
4.02664e-06
1.35901e-06
2.17162e-06
5.84641e-06
5.09076e-07
7.09202e-07
0.00136074
2.35567e-06
0.00578784
3.55756e-06
1.6228e-05
2.11699e-06
3.28731e-06
3.38657e-06
1.05104e-06
1.9655e-06
0.00153027
0.00164988
0.00136449
1.95071e-06
2.36351e-06
0.000864293
2.83127e-06
0.00147917
0.000385363
7.28256e-07
2.1296e-06
1.9341e-06