/*--------------------------------*- C++ -*----------------------------------*\
| =========                 |                                                 |
| \\      /  F ield         | OpenFOAM: The Open Source CFD Toolbox           |
|  \\    /   O peration     | Version:  v2012                                 |
|   \\  /    A nd           | Website:  www.openfoam.com                      |
|    \\/     M anipulation  |                                                 |
\*---------------------------------------------------------------------------*/
FoamFile
{
    version     2.0;
    format      ascii;
    class       surfaceScalarField;
    location    "250";
    object      phi;
}
// * * * * * * * * * * * * * * * * * * * * * * * * * * * * * * * * * * * * * //

dimensions      [0 3 -1 0 0 0 0];
oriented        oriented;


internalField   nonuniform List<scalar> 
21485
(
0.0907103
-0.0617777
-0.0289325
0.0300105
0.432563
-0.462574
0.0522226
0.0155267
-0.0677493
0.467152
-0.671032
0.20388
-0.456248
0.279199
0.177049
-0.729652
0.567327
0.162326
0.628137
-0.557594
-0.0705428
0.160313
-0.170914
0.0106008
-0.117855
0.0365936
0.0812617
-0.0682098
-0.0179236
0.0861334
-0.709012
0.380316
0.328696
0.176542
0.274038
-0.44101
0.166972
-0.302793
-0.289566
0.592359
-0.640098
0.389247
0.250852
-0.737413
0.282878
0.454535
0.0867259
0.541411
0.522841
-0.379575
-0.143266
-0.306178
0.49583
-0.189652
0.186328
-0.524847
0.338519
0.000776322
0.126862
-0.127638
-0.255457
-0.200792
0.318386
-0.548116
0.22973
-0.023337
0.0229813
0.000355715
-0.346652
-0.36236
-0.565274
0.312093
0.253181
-0.100353
0.0873856
0.0129673
-0.136303
0.0496637
0.0866396
-0.205661
0.367524
-0.161863
-0.0383589
-0.0619939
0.068483
-0.0162605
-0.00061161
-0.0227254
0.787166
-0.431716
-0.35545
0.366593
0.420573
0.0165865
-0.0634964
0.0469099
0.0728411
0.188985
-0.261826
0.646608
-0.266291
0.486187
-0.638357
0.152171
-0.393276
0.72722
-0.333944
0.0111925
-0.192185
0.180993
-0.33582
-0.401592
0.690001
-0.356023
-0.333979
0.39212
-0.648828
0.256707
0.640196
-0.248075
0.377446
0.269162
-0.424643
-0.305009
0.641749
-0.367979
-0.27377
0.276936
0.0075175
-0.284454
-0.609901
0.23743
0.372471
0.405856
0.284146
0.0634158
-0.0171622
-0.0462536
-0.0726789
-0.0636243
0.60652
-0.410396
-0.196124
0.0438675
0.0195483
0.562765
-0.244379
-0.00905591
-0.155175
0.164231
0.246338
-0.173497
-0.296055
0.0741613
0.221894
-0.241236
0.614803
-0.373566
-0.223691
-0.0723648
-0.23429
-0.176661
0.410951
-0.308164
-0.116281
0.424445
0.0736585
0.241478
-0.315137
-0.125697
0.433392
-0.307696
0.660156
-0.163558
-0.496598
-0.302307
0.210229
0.0920782
0.00163995
0.275296
-0.0706987
-0.190097
0.260796
0.422636
0.183884
-0.345175
0.139514
0.220357
-0.155056
-0.0653016
-0.568764
0.490776
0.0779878
-0.0603909
0.0645793
-0.00418845
-0.188483
0.199676
0.362208
0.0197499
-0.381958
0.449933
0.191816
0.469963
-0.379645
-0.0903183
0.320884
-0.247225
-0.367525
0.530443
-0.162918
-0.230868
0.311351
-0.0804838
-0.52826
0.222082
-0.192006
0.213238
-0.0212327
-0.535776
0.296767
-0.0791357
0.0305024
0.0486333
-0.0429646
-0.0735129
0.116478
-0.219837
0.51763
-0.297793
0.172927
-0.494282
0.321355
0.102561
0.159405
0.000908127
0.206373
-0.318942
0.112569
-0.0681916
-0.309123
0.10316
0.205963
-0.0311309
0.0022801
0.0288508
-0.516084
0.390388
0.185183
-0.559448
0.374266
0.0243319
-0.593096
-0.550726
0.183201
0.459347
0.150222
-0.609569
0.638804
-0.568802
-0.0700015
-0.375458
-0.209986
0.585444
-0.0397455
0.228107
-0.188361
0.63042
-0.593427
-0.0369934
0.0601032
-0.0404304
-0.0196728
-0.0330477
0.0496342
-0.0826332
0.299897
-0.217264
-4.81811e-05
-0.11397
0.114018
-0.374858
0.268372
0.106487
-0.226121
0.592713
-0.066056
0.0676229
-0.0015669
0.190702
-0.56616
-0.0995591
-0.275299
-0.345104
-0.294995
-0.615152
0.526991
0.088161
-0.0569988
0.178741
-0.121742
-0.0136133
0.0921587
-0.0785454
-0.00826757
-0.0827315
0.090999
-0.68371
0.301162
0.382548
-0.0416579
0.200667
-0.159009
-0.606401
0.606401
0.0129557
-0.346532
0.333577
0.331216
-0.232098
-0.0991185
0.0279867
0.0321165
0.61109
0.0277137
0.167564
-0.544269
0.376705
-0.131461
-0.48369
0.329271
-0.122898
0.0224585
0.197899
-0.256251
0.149897
0.106354
-0.391389
-0.168823
0.560212
0.369825
-0.591408
0.221583
-0.00491502
0.00761625
-0.00270123
-0.0662314
0.000175413
0.0145746
-0.205937
0.191362
0.16529
0.309836
-0.475125
-0.142252
0.191507
-0.0492552
0.0205506
0.127323
-0.147874
0.00908282
-0.201088
0.0227107
0.0679996
0.0547152
-0.0682484
0.0135332
0.411922
-0.475254
0.0633321
-0.000906283
0.00590552
-0.00499923
0.469543
0.0894298
-0.558972
-0.0808123
0.492734
-0.288996
-0.239264
-0.40123
0.56652
-0.00881638
0.0079101
-0.181607
-0.326388
0.507995
0.553989
-0.184164
0.38931
-0.173698
-0.215612
0.0240405
-0.493742
0.469702
-0.548402
0.319003
0.229399
0.375357
0.256827
-0.632185
-0.057482
0.250037
-0.192555
-0.270913
-0.294361
-0.105275
0.574818
-0.00493278
-0.471691
0.476624
-0.00242033
0.00542811
-0.00300778
-0.426173
0.616875
-0.188022
0.04577
-0.0138184
0.183952
-0.170134
0.691261
-0.298543
-0.392718
-0.32175
-0.226652
-0.359883
-0.0772823
0.437165
-0.628711
0.387475
0.504574
0.0730069
-0.577581
-0.0631033
-0.331594
0.394697
-0.0965112
0.172615
-0.0761035
0.0751094
0.00952098
-0.0846304
-0.610901
0.184729
-0.234529
0.293734
-0.0592044
0.132219
-0.135498
0.00327886
0.679457
-0.335388
-0.344069
0.370326
-0.0962879
0.425698
-0.649294
0.223597
-0.35387
0.540198
-0.165807
-0.0154496
0.181256
0.165945
0.370399
-0.536344
0.732191
-0.397285
-0.334906
-0.185797
0.00687322
0.178924
-0.101786
0.0935188
0.542149
0.0645169
-0.606666
-0.512779
0.704899
-0.3641
-0.340799
0.736624
-0.3061
-0.430523
0.594306
-0.555615
-0.0386915
0.076455
-0.0217398
-0.00546432
0.00479228
0.000672042
-0.187045
-0.127631
0.314676
0.0442021
-0.00864797
-0.0355542
-0.0083627
0.00228695
0.00607575
0.299189
-0.320199
0.0210102
-0.197883
-0.104424
0.347969
0.174872
0.581768
-0.0955809
0.139068
-0.00684946
-0.239209
-0.301013
0.540222
0.3921
0.340091
0.0334604
-0.181104
0.147643
-0.590681
0.268932
0.183549
0.205761
0.119582
-0.457027
0.337444
0.377575
0.0923879
0.292
-0.355103
0.0435895
-0.229275
0.185686
0.691117
-0.0865173
-0.604599
-0.180087
0.628053
-0.447966
0.588828
-0.607998
0.0191701
0.140218
-0.547788
0.40757
-0.179278
0.222867
0.15402
-0.163075
0.428172
-0.18383
-0.244342
-0.0676516
-0.161624
-0.238979
0.171327
0.0898195
-0.109198
0.0193781
-0.51854
0.530103
-0.0115627
0.0507717
0.267532
-0.318304
-0.410419
-0.159298
0.569717
-0.553946
0.0354059
-0.322433
-0.287468
-0.319309
0.565819
-0.246509
0.0303265
-0.177463
-0.137973
0.315436
0.294369
0.41053
0.0108213
0.0333809
0.0692114
0.39091
-0.460122
-0.203514
0.594901
-0.146481
-0.448421
0.0720855
-0.096021
0.0239356
-0.485168
0.660494
-0.175326
0.0993576
0.277017
-0.376375
-0.698073
0.212904
0.399096
-0.682458
0.283361
-0.203363
-0.318857
0.52222
0.540993
-0.0816463
-0.00829804
-0.00909443
0.0173925
-0.113741
-0.355045
0.468786
-0.18373
0.0815811
0.102148
-0.00333915
-0.00212517
0.336659
0.159171
-0.386797
-0.118962
0.505758
-0.381425
-0.209257
0.0831955
0.0199252
-0.103121
0.131439
-0.466074
0.334635
0.647056
-0.0527496
-0.229463
0.191886
0.0375769
-0.00894637
0.00430046
0.00464592
-0.163197
-0.39164
0.554837
-0.385276
0.077112
-0.499369
0.332416
0.166952
0.530485
-0.345303
-0.443748
-0.163848
0.607596
-0.676092
0.258908
0.417184
0.0156634
-0.0838732
0.659875
-0.260778
0.509311
0.063761
-0.573072
0.073789
-0.249816
0.176027
0.537722
-0.397505
0.293221
-0.49446
0.201239
0.540982
-0.272589
-0.268392
0.110284
0.484617
-0.454174
0.0673773
0.270069
-0.607644
0.616949
-0.00930499
0.399268
0.118842
-0.518109
-0.108087
-0.148164
0.114551
-0.474434
-0.187276
-0.00447785
-0.00446852
0.176751
-0.166051
-0.0107002
-0.028122
0.100207
0.124844
0.566273
0.266972
0.0642439
-0.142758
-0.0211261
0.163884
0.588864
-0.128755
-0.46011
-0.0909514
-0.0927782
-0.0743992
-0.434491
0.50889
0.130409
-0.187408
0.347809
-0.233574
-0.114235
-0.185565
0.210572
-0.0250068
0.527297
-0.458085
0.215138
0.114133
-0.0541494
-0.161681
0.21583
-0.142634
0.0822018
0.0604321
0.0528613
-0.0958259
0.0232224
0.0799479
-0.10317
-0.0169963
-0.0621394
-0.0142232
0.152985
-0.138762
-0.048177
-0.0654286
0.113606
-0.0016266
0.0860057
-0.0843791
-0.128374
0.490582
0.461486
-0.168265
0.539449
-0.371885
-0.295649
-0.119535
0.415184
-0.267142
-0.0177579
0.0034058
0.0143521
0.305869
-0.296347
-0.00952193
-0.228669
0.0244985
0.20417
0.394139
0.194726
0.000484027
-0.00884673
-0.102953
-0.206169
-0.15558
0.554847
-0.450574
0.151682
0.298893
-0.126584
0.145764
-0.0191801
-0.011549
-0.0998113
0.11136
0.50058
0.190681
0.170799
-0.14834
-0.137927
-0.40986
0.0889053
-0.102519
0.492635
-0.68152
0.188885
-0.00294305
0.173742
0.168513
0.0784864
-0.246999
-0.427793
0.246186
-0.143281
0.0166965
0.0668873
-0.056066
-0.0456729
0.344862
0.189349
-0.011484
-0.177865
-0.123215
-0.0200657
0.446598
0.122815
-0.569413
-0.00670889
0.000882777
0.00582611
0.148298
-0.0651028
-0.0480749
-0.246838
0.294913
-0.313254
0.524644
-0.21139
-0.385523
0.389311
-0.00378854
0.027544
-0.0358421
-0.011347
0.0149989
-0.00365195
-0.367135
0.397146
-0.199431
-0.241578
0.145558
0.202251
-0.340222
-0.207894
0.294478
-0.533688
0.177771
0.283715
-0.0216447
0.0957721
-0.532688
0.027565
0.505123
-0.118388
0.333527
0.0736147
-0.282285
0.20867
-0.276094
0.168007
-0.40939
0.276841
-0.263886
0.156136
-0.356722
0.200586
-0.00253383
0.384728
-0.382194
-0.540375
0.402448
0.116513
-0.00173545
-0.114777
0.532457
-0.138318
0.018252
-0.173427
-0.0812567
-0.133723
0.214979
0.00843116
-0.131646
-0.0749383
-0.0233733
0.0983116
0.167346
-0.577765
-0.0602487
0.35595
-0.295701
-0.199164
-0.209689
0.408852
-0.0117527
-0.0486382
-0.0341329
0.00300202
0.193611
0.139398
-0.333009
-0.0772082
0.0656592
0.00747929
0.0823402
-0.00434181
-0.00200948
0.00635129
-0.360544
-0.0249784
-0.00599139
0.00164958
0.616803
-0.474725
-0.142078
0.404008
-0.286111
-0.117897
0.0188307
0.0480566
-0.210358
0.0906351
0.119723
-0.0761174
0.24463
0.448665
0.168138
-0.684691
0.309636
0.375055
0.593378
-0.593378
-0.0798295
-0.00660336
0.0864329
-0.323392
-0.361299
-0.133571
0.600723
0.110716
-0.503992
0.538928
0.0914921
0.027673
-0.19251
0.115955
-0.116003
0.284566
-0.400847
0.145267
0.0141384
0.176286
-0.0179417
-0.158344
-0.261815
0.327248
-0.065433
0.138379
0.00738562
0.0531425
-0.149654
-0.411449
0.3512
0.444218
-0.324635
-0.0487358
0.0429699
0.00576586
-0.52276
0.296639
-0.00100039
0.00552641
-0.00452602
0.294208
0.133965
-0.584281
0.192892
-0.32198
-0.0954442
0.417424
-0.0151201
0.160387
0.221132
-0.420296
0.0667401
-0.224012
0.157271
-0.171223
0.0825323
0.449924
0.415853
-0.575151
-0.331208
0.462647
-0.448764
0.0124553
0.436309
-0.367454
0.172583
0.19487
-0.0573946
-0.0852393
0.145313
-0.127336
-0.0179769
0.133668
-0.113742
-0.187302
-0.0413662
0.177388
0.376602
-0.172996
-0.0570686
0.230064
0.20145
-0.313894
0.112444
0.243118
0.127208
0.146191
-0.00781292
0.0474172
-0.139737
0.109215
0.0305212
0.544948
-0.112385
0.0184235
-0.105411
0.0869871
0.173063
-0.0231664
-0.183904
0.196644
-0.462513
0.265869
-0.506032
0.43717
0.0688611
0.221808
0.128918
-0.350726
0.0610924
-0.274477
0.213384
-0.00612188
0.00120686
-0.145976
-0.083487
0.411719
0.228477
0.41612
0.00655396
-0.422674
0.00373834
-0.00473873
-0.297952
-0.20808
-0.0236147
0.0258948
-0.0412991
0.347168
0.218815
-0.152075
-0.104584
-0.17151
-0.685116
0.43711
0.248006
0.39836
-0.0209139
0.495905
-0.106783
-0.389122
-0.0744911
0.221918
-0.147427
-0.297776
-0.0528078
0.350584
-0.451527
0.475568
-0.00453023
0.0021099
0.102773
0.01374
0.0573151
0.358805
0.180048
0.382717
-0.0852806
0.00545106
-0.204409
0.0834063
-0.0221613
-0.061245
0.463323
-0.495338
0.291975
0.0729242
-0.305022
-0.296831
-0.153744
-0.460409
-0.147235
-0.172453
0.258686
-0.0862334
-0.453697
0.311149
-0.117538
0.53735
-0.198466
-0.338884
0.171045
-0.497433
-0.122052
0.406618
-0.0502448
-0.362386
0.412631
0.0373857
-0.161076
0.12369
0.369824
-0.420069
-0.00239658
0.147709
0.155021
0.0722509
-0.0638418
-0.00840909
-0.361427
0.223148
0.138279
0.00601945
0.00053179
0.117507
-0.118039
0.358611
-0.136803
-0.167138
0.468077
-0.300939
0.0219802
-0.180605
0.158625
0.382933
0.163323
-0.546256
-0.420468
0.586413
-0.234824
0.160333
-0.053185
0.00444925
-0.00140836
0.0848146
-0.457235
0.280573
-0.445078
0.555363
-0.0275926
-0.0608304
0.088423
0.513645
0.075183
0.532454
-0.586554
0.0540998
0.0640461
-0.252366
0.18832
0.0690484
-0.299916
0.0298571
-0.245887
0.253405
0.141874
-0.141097
0.349756
-0.554084
0.204327
-0.0796197
-0.0360333
0.115653
-0.109652
0.298636
0.427605
-0.627212
0.199607
-0.105997
0.48893
0.0364523
0.185465
0.513433
-0.707759
0.194326
-0.14143
0.68358
-0.30655
0.479477
0.284187
-0.282547
-0.576427
0.437943
0.138484
-0.127813
-0.412562
-0.150996
0.597594
0.131114
-0.130582
0.170988
-0.420231
0.249243
0.713388
-0.395071
-0.318317
0.390352
0.146998
-0.048354
0.557665
-0.132284
0.152835
-0.161844
0.666418
-0.00801531
-0.124709
0.132724
-0.251607
0.102805
0.148802
-0.41136
-0.208808
0.311449
-0.102641
0.0530651
-0.226061
-0.0116265
0.00253202
-0.0907241
0.0728004
-0.00405116
0.120006
0.011722
-0.0246737
0.0129517
0.0892594
0.258549
-0.347808
0.553033
-0.0205788
0.523917
-0.0280116
0.122128
-0.345908
0.22378
0.171034
-0.225184
-0.0433029
0.132208
-0.321675
0.13463
0.0858689
-0.167126
0.047184
0.0402015
-0.145525
0.239716
-0.287791
0.0892027
-0.0140933
0.249008
-0.184962
-0.399262
0.11273
-0.557808
-0.16519
0.522216
-0.131864
-0.00479402
0.138462
-0.193833
-0.412568
0.16387
0.381484
-0.556083
0.174599
0.324526
0.388861
0.0405127
-0.0129687
-0.00641272
-0.0467723
0.269229
-0.147789
-0.12144
-0.531126
0.403312
0.153691
0.289801
-0.443492
-0.169955
-0.357373
0.527328
0.209523
-0.318167
0.108644
-0.552186
0.380851
0.171335
0.144962
-0.0181004
0.179282
-0.157302
0.0976415
-0.111865
-0.293113
0.21048
0.176539
-0.00347548
0.293991
0.0384253
0.0470065
-0.422292
0.375285
0.154769
0.0215162
-0.572932
0.404109
-0.0931381
-0.236906
0.330044
-0.101015
-0.109343
0.535494
-0.140709
-0.394784
0.0895626
0.2215
-0.311062
0.11723
-0.121281
-0.150027
0.160622
-0.0105952
0.561766
0.0446355
-0.0189576
0.195496
-0.414976
-0.233852
0.203474
-0.243219
-0.015508
-0.0862784
0.508298
-0.158542
-0.0154054
-0.00235255
-0.0694197
0.562054
-0.303114
-0.375121
-0.295911
0.00691375
-0.0145017
0.00758793
0.123118
-0.0860589
-0.0370595
-0.418303
0.226318
0.453139
-0.618224
0.438137
0.0106186
0.166132
-0.385452
-0.24364
0.629092
0.577343
0.159281
-0.31497
0.17387
0.1411
0.115156
0.272854
-0.38801
-0.647539
0.403332
0.244207
0.192466
-0.167967
-0.0812031
-0.00549866
-0.0082995
0.0137982
0.24939
-0.188298
0.135653
-0.0280078
0.0122935
0.0862823
-0.0985758
-0.212982
-0.101988
0.159348
0.109881
-0.00288555
0.347284
0.170346
-0.280959
-0.401498
-0.011049
0.200398
-0.130391
-0.167158
0.29755
-0.522082
0.208829
-0.186798
-0.055532
0.24233
0.183183
-0.171458
-0.0117248
-0.722648
0.524394
0.198254
0.0379594
0.197331
-0.23529
0.546483
-0.197416
-0.349067
0.421264
-0.408809
-0.175381
0.453763
0.14735
-0.601112
-0.245957
-0.134808
0.380765
0.412726
0.122768
-0.188942
0.350555
-0.161613
0.0257007
-0.528961
0.193573
-0.381875
0.0268299
-0.233717
0.176235
0.101491
-0.0782687
0.208398
-0.144357
0.11888
0.0254773
0.235142
-0.21599
-0.0191516
-0.25799
-0.170073
-0.109839
0.279912
0.0230234
-0.0775085
0.0544851
0.00424051
0.00337574
0.00280012
-0.28235
0.27955
-0.000941577
-0.0104054
0.0769667
0.362303
0.159914
0.0493322
0.0113003
-0.0606325
-0.43977
0.619642
-0.244285
-0.156676
-0.103416
0.0552388
-0.193736
0.0213332
0.172403
-0.153263
-0.208164
-0.413982
0.230152
0.121296
-0.103448
-0.0178478
0.677032
-0.494994
-0.182039
-0.221629
0.259589
0.0163613
0.233676
-0.150292
-0.0218617
0.172153
0.610629
-0.145295
-0.465335
0.611525
-0.185827
0.0507231
-0.00775323
0.0981583
0.232511
-0.330669
-0.550148
0.0754226
0.455096
-0.508833
0.0537369
-0.0586411
0.0864551
-0.0278139
0.557914
-0.107982
-0.180959
0.0306671
-0.242994
-0.00553133
0.00254756
0.00298376
0.0246774
-0.0129554
0.16829
-0.205074
0.0367845
-0.0295911
0.257698
-0.269567
0.185175
0.0843913
0.380949
0.165534
0.0705246
-0.0981172
0.0176825
-0.181929
0.164247
-0.492903
0.0825061
0.173339
0.126252
0.371253
-0.273095
0.00599142
-0.0280912
0.0220998
-0.0891668
-0.1804
0.547633
-0.411295
-0.136338
-0.03111
-0.0234209
0.0545309
0.156899
-0.119513
0.495188
-0.0400924
-0.247175
-0.181087
-0.0248498
-0.404097
-0.0637579
0.467855
0.270461
-0.107289
-0.163172
0.657577
-0.351926
-0.305652
0.13584
-0.0520002
-0.0838397
0.0147607
0.00023823
-0.0843975
0.0257564
-0.37548
0.163127
-0.00910727
0.54464
-0.174241
-0.172128
0.510389
-0.338262
0.296133
-0.0866098
-0.22971
0.584417
-0.354707
-0.119468
-0.411658
0.57896
-0.143889
-0.435071
0.133928
-0.440782
0.306853
0.0530088
0.049764
-0.129987
0.141906
-0.0119183
-0.519829
0.349874
-0.339095
0.353974
-0.219576
-0.134397
0.339997
-0.138547
0.163833
-0.0404608
-0.0736319
0.114093
0.00117987
0.00084668
-0.00202655
-0.516081
0.286371
0.208916
0.0909813
-0.540944
-0.00920431
-0.00140724
0.450306
-0.448899
0.452472
0.117021
-0.569493
-0.508473
0.315144
0.193329
0.156151
-0.13478
-0.021371
0.182266
-0.292046
0.10978
-0.21978
0.341908
-0.0263343
0.038529
-0.048428
0.00989905
-0.711872
0.287955
0.423918
0.311103
-0.137763
0.547507
-0.208498
-0.339009
-0.265191
0.0927386
0.358675
0.188958
0.388366
0.210781
-0.599148
0.1936
-0.177807
-0.0157934
-0.251938
0.175821
-0.337181
0.47111
-0.0993218
0.0838138
0.517081
-0.347169
-0.169913
0.0753367
-0.0630431
0.0525176
0.217943
-0.225292
-0.187848
0.41314
0.0279571
-0.432054
0.557912
-0.384575
-0.173336
0.00344936
-0.0026886
-0.000760751
0.567189
-0.18169
-0.385499
-0.226833
0.0493702
-0.381723
0.187529
-0.577859
0.390329
-0.43178
-0.114521
0.546301
0.244956
-0.242156
0.159182
-0.49134
0.332158
0.0788708
-0.0558474
-0.0931713
0.0743667
0.0188046
0.301384
-0.422798
0.121414
-0.0282675
0.232473
-0.204206
-0.00147028
0.00265015
0.138227
-0.131353
0.0211808
0.13497
0.134841
-0.137784
0.0359071
0.0429637
0.156303
-0.286695
-0.519174
0.399706
-0.490434
0.341858
0.148576
0.187059
-0.0187697
-0.0318581
-0.0613132
-0.482506
0.364214
0.214746
-0.202302
-0.205226
0.176959
-0.156312
-0.131396
0.287708
0.394768
0.163143
0.127581
-0.0292889
-0.0982919
-0.190385
-0.252338
0.442722
0.126317
-0.239886
0.113569
-0.02522
0.105168
-0.427406
0.237022
-0.223587
-0.00171071
-0.296066
0.139127
-0.130341
-0.00878627
0.415018
0.16675
0.163827
-0.152457
-0.0113697
0.0195801
0.232069
0.121905
0.0881257
0.0349927
0.00489193
-0.396532
-0.00106485
-0.00446647
0.0160365
0.167916
-0.0383785
-0.03913
-0.209615
0.260387
0.0216453
-0.0965836
-0.119177
-0.115647
0.259336
0.400539
0.111337
-0.555085
-0.165091
0.135472
0.0296188
0.0183138
-0.0149079
0.486285
-0.627715
0.45261
0.0123838
-0.464994
-0.157821
0.00779431
0.0775365
-0.253965
0.176429
0.0188972
0.0495858
0.176379
-0.26689
0.0905107
0.166443
0.0271574
0.247164
0.168903
-0.416067
-0.3678
0.526982
0.376027
0.17148
-0.12426
0.486563
-0.0284317
0.163273
-0.371884
0.0810532
-0.0439787
-0.0370745
-0.153888
-0.211031
0.364919
0.145136
-0.0912423
-0.0538941
-0.192787
-0.109491
0.342002
-0.118705
-0.0863691
0.535665
-0.382914
-0.152751
-0.462754
-0.000959192
0.463713
-0.067132
-0.0726047
-0.265964
-0.587585
0.439809
0.147776
-0.028127
0.595454
-0.399039
-0.129428
0.0889669
0.20272
-0.0102547
0.0839021
0.203253
-0.287155
-0.017738
-0.20626
0.223998
-0.00356715
0.167394
0.0660198
-0.0274909
0.00996303
-0.0895827
-0.0135029
0.140826
-0.359491
-0.289803
0.471403
-0.507769
0.0363661
0.286072
-0.103806
-0.178842
0.160901
-0.230597
0.215867
0.0147299
0.0965262
-0.0435174
-0.3601
0.622452
-0.0904226
-0.532029
-0.673343
0.243518
0.429825
0.071647
0.049649
-0.211914
-0.196684
0.408598
-0.5578
0.0624615
0.250745
0.220715
-0.395036
0.195868
0.199168
-0.622344
0.250944
0.3714
-0.418001
-0.293872
-0.0333696
-0.158816
0.240285
-0.00514301
0.167993
-0.574835
0.406842
0.0784926
0.150794
0.294801
-0.118422
0.404843
-0.710943
0.530425
-0.308145
-0.22228
0.00448653
0.00474244
0.0010336
-0.00577604
0.391243
0.125838
0.00359664
-0.00599715
0.00240051
0.154518
-0.144139
-0.010379
0.122797
0.359155
-0.091623
0.0111849
-0.0838638
0.108317
0.0275225
0.173752
-0.421995
0.248243
-0.546859
0.19969
0.0092007
-0.00185564
-0.00696074
0.0602172
-0.0618438
-0.0996773
0.0342487
-0.386754
-0.00130909
-0.0053998
0.2031
-0.0557976
-0.147302
-0.299654
-0.175758
-0.0179777
0.00914014
0.10344
0.0241412
0.0735329
0.19344
-0.549889
0.0254955
0.524394
0.143375
0.364102
-0.507476
0.212396
-0.18683
-0.0255661
0.133746
0.181689
0.0324344
0.146542
-0.178976
-0.385894
-0.23645
0.00349505
-0.00239826
-0.00109679
-0.243311
0.367887
-0.124577
-0.0261927
0.0733767
0.0680302
-0.0099728
-0.0580574
-0.0283229
-0.206206
0.599012
-0.217528
0.18974
0.467837
0.0995337
-0.013528
0.0900821
0.173297
-0.263379
0.235785
-0.504919
0.162784
0.0403158
0.00352264
-0.00413692
0.000614278
0.18381
-0.497469
0.313659
-0.421603
-0.108259
0.66067
-0.256305
-0.404365
0.446261
0.0292596
0.00106689
0.503746
-0.0323431
-0.572368
0.1862
0.386168
-0.285817
0.164588
0.121229
0.00872704
-0.608517
0.0758297
-0.114663
0.357781
0.263331
-0.648783
-0.66016
0.262834
0.397326
-0.162923
-0.405586
-0.140573
-0.196648
0.556356
-0.359708
0.287668
-0.0827139
-0.204954
0.011674
0.0636627
-0.419592
0.0958503
-0.156118
-0.095489
0.208265
0.0614582
-0.269723
0.114823
-0.0137722
-0.257758
-0.0714593
0.108053
-0.0808014
0.019971
0.056694
0.0243593
0.406747
-0.112539
0.000993756
-0.000509729
0.108259
-0.0279302
0.169804
0.205589
0.0999514
-0.30554
0.349139
-0.141791
-0.207348
0.334128
-0.530776
-0.11476
0.568523
-0.308535
-0.157539
-0.372205
-0.584647
0.222261
-0.0465687
0.237873
-0.191305
-0.0348734
-0.0354424
0.0703158
-0.0104899
-0.411802
-0.688396
0.352714
0.335682
0.377366
0.0284899
-0.57113
0.0406202
0.530509
-0.435028
-0.022863
0.457891
0.42423
-0.520403
0.0961734
0.523062
-0.134696
0.54383
-0.152587
0.0927422
-0.297634
0.204892
0.364226
-0.228773
-0.135453
0.11482
0.370655
-0.485475
0.153664
0.0295184
0.231799
-0.0485467
-0.183252
-0.113943
0.117974
-0.122768
0.29105
-0.21191
-0.0791405
-0.57113
0.518656
0.103796
0.287003
-0.21347
-0.324542
-0.260104
-0.0947547
0.141772
-0.0470177
-0.418432
0.572092
-0.153659
-0.144393
0.568623
0.133752
-0.416176
0.282424
0.0210184
-0.134989
-0.498363
0.379401
-0.0675672
-0.0204382
0.0880054
-0.0532133
-0.111878
-0.441126
0.503587
0.372548
0.157878
0.230568
-0.0181721
-0.394992
0.401546
0.124338
-0.294411
-0.0405722
0.248837
0.0262493
-0.198255
0.172006
-0.605202
0.378744
0.226457
0.0676953
0.0774411
-0.211074
0.284688
0.192166
0.17206
-0.189882
0.00305274
-0.081023
-0.313969
0.279277
-0.194225
-0.38061
-0.00679757
0.0127031
0.50152
-0.31771
-0.174739
-0.235378
-0.0551
-0.141627
0.196726
0.0885402
-0.259673
0.171133
-0.104274
-0.4149
-0.142632
0.365779
0.448227
0.00438248
0.236491
-0.254229
0.465127
-0.52158
0.417306
-0.345773
0.156831
-0.331784
0.433046
-0.298105
-0.134942
-0.323483
0.616574
-0.130289
0.0804257
-0.164119
0.152635
-0.608721
0.184078
-0.17228
0.557179
0.0361986
-0.304961
0.433175
-0.128215
0.386955
0.156875
-0.0733689
-0.333446
0.179558
-0.0642706
-0.0800868
-0.350307
-0.136168
0.486475
-0.236956
0.0501573
0.140053
-0.0388257
-0.101228
-0.505882
0.155575
0.00461964
-0.001023
0.351904
-0.461361
0.109457
-0.45182
0.171713
0.280107
-0.242072
0.463204
-0.384839
-0.0126494
0.0619816
-0.0320007
0.0436747
-0.384532
0.199335
-0.0297462
0.147253
0.152737
0.0103903
-0.166116
-0.0138883
0.180004
0.0594587
-0.141002
0.0355914
0.103062
-0.28431
0.181248
-0.15172
0.156156
-0.00443561
-0.466768
0.0317396
-0.0612268
0.158868
-0.521383
0.548948
0.0294111
-0.0612691
-0.44039
0.308928
0.203469
-0.268012
0.270474
-0.469968
0.199494
-7.39537e-05
0.00106771
0.278727
-0.259762
-0.0189649
-0.0794154
-0.0615866
-0.0754917
-0.0152652
0.0907569
-0.221284
-0.00318568
0.505011
-0.338931
-0.16608
0.0728675
0.218183
-0.0493512
-0.235426
-0.137606
0.373032
0.0539201
-0.0426198
-0.156243
-0.0213527
0.130568
0.0115013
-0.0426113
-0.110639
0.316228
-0.0289195
0.0072938
-0.174385
0.167091
0.527501
-0.395418
-0.132083
0.409562
-0.47332
-0.00913191
0.147359
0.465966
-0.608685
0.142719
0.148627
0.00589107
0.540156
-0.23032
0.177373
-0.10227
-0.337532
0.147767
0.189765
0.0172238
-0.0137967
-0.00342707
-0.295871
0.447553
-0.45507
0.179542
0.275528
0.0640772
-0.495857
-0.13222
-0.0249061
0.157126
0.263044
0.39745
-0.382559
0.439874
-0.156956
-0.0340897
0.191046
0.401099
0.16609
0.147599
-0.434465
0.286865
0.000484761
0.00425768
-0.398765
-0.187303
0.030347
0.138134
-0.26953
-0.206605
-0.0893086
0.295913
-0.250829
0.373967
-0.123139
0.405154
-0.13468
0.571518
-0.420473
-0.151045
-0.198936
-0.394441
-0.124973
0.116958
-0.160839
-0.661471
0.455431
0.20604
0.0781178
0.56466
-0.278897
-0.285763
-0.194711
-0.25711
-0.291566
-0.26062
0.454685
-0.307086
-0.116062
0.0424297
0.104498
0.16239
0.49828
-0.447129
0.529482
-0.397772
-0.13171
-0.268564
-0.193949
-0.12336
0.0793809
-0.384705
-0.174824
0.121611
0.464299
-0.286528
0.0500254
-0.335146
0.225654
0.0121043
-0.0112492
-0.000855103
0.00433213
0.118087
-0.497662
0.351651
-0.145589
0.117659
0.143718
0.14602
-0.00962028
-0.159916
0.249998
0.349393
-0.529998
0.180605
-0.10156
0.511122
-0.0103368
0.0971001
-0.0867633
0.170485
0.248829
-0.419314
-0.090542
0.285253
-0.194711
-0.473688
-0.0218663
0.0129121
0.0089542
0.524232
-0.359691
-0.164541
0.298299
0.134748
-0.427898
0.0453392
-0.114762
-0.00592811
0.00258896
0.0504237
-0.0864571
0.10369
-0.0214886
-0.32244
0.628584
-0.306144
0.392303
0.131929
-0.127384
-0.158432
0.709474
-0.435974
-0.273501
0.297202
0.00946688
-0.0608479
0.051381
0.410775
0.00137073
0.0440296
-0.0454003
-0.42906
-0.0947367
0.456521
-0.361784
-0.166172
-0.0084555
0.177478
0.25004
0.166011
-0.0130258
0.159541
0.26494
0.0421771
-0.307118
0.0188878
-0.0160362
-0.0832856
0.106029
-0.0887676
-0.0172611
0.0311464
0.363818
0.141193
-0.187343
0.271245
0.313487
0.395988
-0.603863
0.367584
0.236279
0.20742
-0.0409769
0.208359
-0.347823
0.139464
-0.10975
0.0743074
0.330058
-0.519274
0.189216
0.21857
-0.365204
0.146634
-0.163661
0.57327
-0.471024
-0.102246
-0.129779
0.160805
-0.0310263
-0.181098
0.129506
0.0515928
0.0742173
-0.10041
0.234064
-0.535077
-0.279633
0.516709
-0.237076
0.00800185
-0.0246673
0.0166654
0.11208
-0.00605144
0.138433
0.478516
-0.0145153
-0.00735098
0.5225
-0.192442
0.0233483
0.00689474
-0.030243
-0.0432487
-0.00541143
0.0486602
-0.153092
-0.0130239
0.153568
-0.369035
0.215467
-0.17891
-0.0292286
0.208139
-0.382781
-0.1499
-0.254187
0.369343
-0.152713
0.125955
0.0267582
0.103149
-0.353978
0.470277
0.102993
-0.231649
-0.372214
0.0113848
0.00583905
0.328493
-0.239234
-0.0122879
-0.153343
0.165631
-0.202847
-0.102178
0.305024
-0.372499
-0.149501
0.00536219
0.558622
0.0353755
-0.593998
0.547589
-0.313525
0.110404
0.0296493
0.207025
-0.092721
0.0492485
0.0434725
-0.20087
-0.307603
0.00503988
0.000391538
-0.00543142
-0.0458638
0.264434
-0.165425
-0.221699
-0.143504
0.0320858
0.175334
-0.527596
0.144681
-0.139691
-0.0483315
0.248715
0.428318
0.0178046
-0.168369
0.150564
-0.12848
0.509331
0.0882252
-0.0588142
-0.132006
0.141972
-0.00996608
0.058146
-0.0486791
-0.137488
-0.0143986
0.151887
-0.196912
-0.074108
0.0614586
-0.132314
-0.0203989
-0.71205
0.26265
0.4494
0.235637
-0.276209
-0.400529
0.280993
-0.108582
0.699342
-0.30667
-0.392671
0.493647
-0.17303
-0.320618
-0.572935
0.475908
0.0970271
-0.0107846
-0.232706
-0.113202
-0.0498445
0.232102
-0.182258
0.192472
-0.166223
0.415883
-0.168719
0.39375
-0.270571
0.0902147
0.180356
0.178531
0.449484
-0.628015
-0.386303
-0.167658
0.433528
-0.0614019
0.142983
-0.249457
0.369202
-0.119746
0.389481
-0.218995
0.543796
0.000645035
-0.544441
-0.161821
-0.142437
0.304257
-0.364119
0.410689
-0.123186
0.293704
0.405638
0.350332
-0.177748
0.0074744
0.00418847
0.013711
0.165886
-0.199256
0.0428804
0.0116504
0.136571
0.00533461
-0.433075
0.147657
0.285419
0.0791837
-0.101192
0.0220079
-0.0982928
0.0822566
-0.0261876
-0.0421089
0.0682965
0.00444602
0.14755
-0.151996
0.259842
0.16637
-0.0177431
-0.708677
0.402006
-0.445667
0.165397
-0.155784
-0.00961266
0.191725
0.0753855
-0.267111
0.0750339
-0.136436
0.375936
0.153546
-0.361008
0.547207
0.110922
0.200182
0.0874858
-0.232735
0.0773613
0.181403
-0.258764
-0.135303
-0.023783
0.159086
-0.147364
0.494324
-0.34696
0.00707069
-0.385943
-0.319373
0.0670077
0.183413
-0.00448919
-0.0829704
0.0567828
-0.000482333
-0.00407201
0.00455434
0.15424
0.196092
-0.479537
0.00784519
-0.0258074
-0.179419
0.223839
-0.511631
0.364267
-0.1583
-0.187303
-0.310166
-0.153289
-0.0166618
0.169951
-0.108943
0.0282506
0.158809
0.601018
-0.251867
-0.349151
0.030693
-0.0237983
-0.13251
0.23567
-0.147888
0.165692
-0.159976
-0.0188661
-0.102241
0.0919043
0.00202477
0.268835
-0.0794851
0.0918341
-0.012349
-0.169014
-0.452934
0.0879434
-0.0174188
-0.525998
-0.305899
0.19606
0.166896
-0.530123
0.363228
-0.168247
0.155959
-0.534764
0.20317
0.592005
-0.23656
-0.355445
-0.503861
0.316558
0.00532917
0.167858
-0.173187
-0.283357
0.679777
-0.296832
-0.382945
0.405335
0.0686327
-0.473968
-0.35493
0.139865
0.215065
0.146152
-0.12326
-0.0228919
-0.0322742
0.0394084
-0.00713423
-0.0124483
0.167548
0.342842
-0.259675
0.0879923
0.171683
-0.00418054
0.00178228
-0.0820555
-0.0413042
-0.348178
-0.138743
0.486921
0.281858
0.397919
0.502021
0.232088
0.0696565
-0.301744
-0.691961
0.395129
0.323155
-0.00341272
-0.319742
0.22916
-0.0490305
-0.18013
-0.244517
-0.10902
-0.603626
0.181202
0.422424
-0.0276732
-0.124047
0.0250255
-0.0476391
0.0226136
-0.39519
0.0894587
-0.119205
0.0197389
0.166431
-0.18617
0.177489
-0.0238252
-0.25987
0.114559
0.145311
-0.426987
-0.285063
-0.00580034
-0.0426391
0.205886
-0.163247
0.200969
0.196492
0.0996413
-0.00310573
-0.113371
0.116477
0.393861
0.13364
0.265355
-0.135878
-0.129477
0.0101756
-0.533284
0.523108
0.200672
-0.175168
-0.025504
0.0197615
0.0881296
-0.107891
0.334851
-0.102764
0.0154027
-0.014221
0.214893
0.0081799
-0.00712527
-0.00105464
-0.115639
-0.0653199
0.0790681
0.321947
-0.401015
0.0887697
-0.25059
-0.0146871
0.0889044
0.296216
0.123185
0.209661
0.139478
-0.410298
-0.0962663