/*--------------------------------*- C++ -*----------------------------------*\
| =========                 |                                                 |
| \\      /  F ield         | OpenFOAM: The Open Source CFD Toolbox           |
|  \\    /   O peration     | Version:  v2012                                 |
|   \\  /    A nd           | Website:  www.openfoam.com                      |
|    \\/     M anipulation  |                                                 |
\*---------------------------------------------------------------------------*/
FoamFile
{
    version     2.0;
    format      ascii;
    class       volVectorField;
    location    "650";
    object      U_0;
}
// * * * * * * * * * * * * * * * * * * * * * * * * * * * * * * * * * * * * * //

dimensions      [0 1 -1 0 0 0 0];


internalField   nonuniform List<vector> 
13308
(
(1.00733 -0.0189921 0)
(0.0979343 -1.21548 1.43529e-19)
(-0.363472 -0.00941061 -3.69745e-20)
(1.00057 -0.000177745 -2.18449e-21)
(1.19485 0.0845546 -1.05568e-20)
(1.00367 -0.000828446 -3.51141e-22)
(1.21183 0.149582 -5.72137e-20)
(1.11698 0.0377963 0)
(1.21458 0.129027 0)
(0.835589 0.721426 -6.84289e-20)
(0.755604 -0.365923 0)
(0.614298 -0.326155 -6.56234e-20)
(1.00346 -0.000841196 0)
(1.02878 0.00502917 0)
(1.00457 -0.000727129 0)
(-0.365119 0.136563 0)
(1.01086 0.00848865 -6.43338e-23)
(0.159769 -1.23935 5.73593e-20)
(0.989208 0.140111 -2.67558e-20)
(1.24887 0.428745 3.10017e-20)
(1.04218 0.025829 8.19055e-22)
(-0.530105 0.364554 4.99671e-20)
(0.19503 0.099538 4.92286e-20)
(1.161 0.0790053 3.91969e-20)
(-0.360623 0.154896 0)
(-0.0482393 0.0584251 -8.15251e-20)
(1.18478 0.109278 -1.97813e-20)
(0.760988 -0.389862 5.85286e-22)
(1.18987 0.104211 -2.17546e-20)
(1.15464 0.183272 0)
(0.0280308 -1.05056 1.26155e-19)
(1.15447 0.160953 0)
(0.143828 0.146417 0)
(1.2118 0.103699 0)
(0.57778 0.0758381 7.11964e-21)
(1.01258 0.00758821 -5.58698e-21)
(1.21113 0.145662 4.80648e-20)
(0.269053 0.0944156 -1.79119e-20)
(1.09737 0.0744408 -6.33908e-23)
(-0.369894 0.0432 1.89173e-20)
(1.04846 0.00288175 0)
(1.11993 0.0168262 1.42773e-20)
(0.417281 0.0826014 4.59067e-21)
(1.01882 0.013967 3.35611e-22)
(1.08839 0.0788795 0)
(1.23591 0.0992041 0)
(1.00494 -0.000677282 5.43719e-24)
(1.00074 -0.000273612 1.0626e-22)
(1.02151 -0.0201794 1.60938e-21)
(-0.373041 -0.0577025 3.93357e-20)
(1.01775 0.00305219 1.08354e-22)
(1.02612 0.036417 0)
(-0.459753 0.742863 5.1585e-19)
(0.887616 0.50643 1.67346e-20)
(-0.291441 -0.0311571 -1.32453e-19)
(-0.331042 -0.111624 -3.64879e-20)
(1.01843 0.0124858 1.61373e-22)
(1.02406 0.034003 2.01116e-21)
(1.13216 0.0839778 1.4545e-20)
(1.12767 0.0801609 0)
(1.00031 0.385108 1.39176e-20)
(0.377243 0.132018 -9.65437e-20)
(1.02484 0.0344311 -3.05385e-21)
(1.06478 0.0117769 0)
(0.992847 0.000780363 2.42357e-21)
(0.0912347 0.150498 -1.79436e-20)
(1.00568 0.00429982 1.58458e-21)
(1.24053 0.095105 0)
(0.991484 -0.000819971 -5.64176e-21)
(1.13756 0.313825 0)
(0.125341 -0.672987 0)
(1.09264 0.073922 7.00613e-21)
(1.01523 -0.0171129 -8.50862e-22)
(1.15238 0.172787 8.03779e-21)
(1.20632 0.0806997 -5.22068e-20)
(1.02055 0.0234154 5.34932e-21)
(1.00253 -0.0040339 0)
(-0.287825 -0.0933248 2.21045e-20)
(1.02704 0.0276793 -2.20467e-22)
(0.978743 -0.0139497 2.63478e-21)
(1.04487 0.0558798 1.59643e-21)
(1.00432 -0.00497203 0)
(1.01943 0.0234343 -3.35888e-21)
(1.1479 0.0829098 0)
(1.28799 0.133369 0)
(1.11963 0.0337305 0)
(-0.222573 0.00361318 8.93859e-21)
(0.674975 0.0678234 2.32294e-20)
(1.10677 0.0460074 5.17585e-21)
(1.25014 0.425015 -2.57205e-20)
(1.08958 0.0474122 -2.20055e-20)
(1.00579 0.00642205 0)
(1.18268 0.115542 1.60466e-20)
(1.04537 0.0292414 -5.17362e-21)
(1.01999 0.00307489 1.20746e-21)
(1.01389 -0.00660357 -5.2909e-21)
(1.12478 0.0174589 4.4987e-22)
(0.979497 -0.026259 -6.42044e-21)
(0.110649 -0.579401 -7.25265e-21)
(1.13563 0.29256 0)
(1.08645 0.0452198 2.20402e-22)
(1.05121 0.00161442 5.95436e-21)
(0.996461 0.00187059 -2.12417e-21)
(1.04726 0.0329086 0)
(0.706221 -0.184774 5.21836e-21)
(0.00851866 -1.15607 2.3612e-20)
(-0.353202 -0.00648026 3.83813e-20)
(0.99196 -0.000506863 4.89211e-21)
(-0.207836 -0.00757117 0)
(-0.00884702 0.0636804 8.17988e-20)
(1.14428 0.0351492 -1.95609e-20)
(1.26713 0.119683 -2.15215e-20)
(1.03282 -0.0107187 4.18558e-21)
(1.02675 0.026042 2.08336e-22)
(1.03211 -0.0131516 -4.75234e-21)
(1.01118 0.089984 3.56383e-20)
(1.23311 0.0966502 -5.02291e-20)
(0.544834 0.11818 1.96246e-20)
(1.18711 0.111008 5.60626e-20)
(1.02394 0.0279094 0)
(1.17902 0.0933279 -1.73662e-20)
(1.0443 0.0431452 0)
(0.996697 0.00134144 6.72914e-21)
(1.00863 0.0265458 -7.474e-22)
(0.839029 -0.0229942 3.23344e-21)
(1.16502 0.166921 0)
(1.30288 0.148051 6.43363e-20)
(1.29741 0.147842 -5.6738e-20)
(1.01496 -0.0178965 3.85439e-22)
(-0.305048 0.0891026 0)
(0.0849078 -0.5856 0)
(1.05693 0.00174872 -6.15656e-21)
(1.0663 0.0120871 -8.26949e-21)
(1.01449 -0.00935894 2.60039e-21)
(1.2117 0.12149 -6.14175e-21)
(1.00724 0.0218628 -1.19703e-20)
(1.00797 0.00643319 0)
(0.851565 0.00212689 0)
(0.940902 -0.0834293 0)
(1.12633 0.0153569 1.55798e-20)
(-0.399319 -0.131501 1.50648e-20)
(1.14311 0.0306022 0)
(1.05151 0.0175026 0)
(1.03827 -0.00523497 0)
(1.11914 0.0511261 2.72017e-20)
(0.919324 0.0935478 -2.44772e-20)
(1.00189 -0.0237464 0)
(1.22611 0.444147 -4.05073e-20)
(1.04691 0.0546126 -3.66462e-21)
(1.06233 -0.0247904 8.11179e-21)
(-0.236015 0.0171165 -2.02022e-19)
(0.997253 0.00109372 0)
(0.825863 0.485987 1.31233e-19)
(1.02547 0.327408 2.48414e-20)
(0.906207 0.09035 0)
(0.976165 -0.0779424 -1.09166e-20)
(0.988773 -0.000381475 3.53919e-21)
(0.996835 0.00199901 -9.69674e-21)
(1.04918 0.00264917 0)
(0.948527 -0.333069 0)
(0.807105 0.675136 9.18945e-20)
(1.02534 0.0362396 -1.4751e-21)
(1.05022 0.0162972 -2.26373e-21)
(0.436024 0.13866 8.33959e-20)
(0.989188 -0.091862 1.03261e-20)
(1.12935 0.0402674 0)
(-0.520562 0.3757 9.62821e-20)
(0.996472 0.00191207 -5.62587e-24)
(-0.225343 -0.00216672 -5.7714e-20)
(1.19901 0.0668585 3.94025e-20)
(1.1444 0.0285445 5.75318e-20)
(0.550498 0.0714318 -7.0662e-20)
(0.996819 0.000781378 1.92768e-21)
(-0.382394 -0.0819985 -2.19592e-20)
(-0.289146 -0.0393447 -7.10238e-22)
(-0.254 0.223347 -1.17323e-19)
(-0.496447 0.33506 1.3496e-19)
(-0.367183 -0.0422985 1.88841e-20)
(1.0775 -0.0248892 -6.12155e-21)
(0.98806 -0.000250333 6.29416e-21)
(0.649015 -0.166689 -1.35949e-20)
(-0.516744 0.801771 -1.00224e-20)
(1.00345 0.00359971 -1.78107e-21)
(0.880787 0.705743 1.96064e-21)
(0.895826 0.159437 0)
(0.995287 -0.00210049 2.86659e-21)
(-0.351072 -0.120225 3.45879e-20)
(-0.0844501 -0.991369 0)
(1.16495 0.180296 0)
(0.767511 0.200466 0)
(0.781819 0.228999 0)
(1.23303 0.449548 0)
(1.1184 0.053969 -1.2022e-20)
(0.609069 -0.326227 -7.25172e-20)
(1.12288 0.0467712 -2.84741e-20)
(-0.211595 0.204172 9.41918e-20)
(1.14313 0.024926 -4.25434e-20)
(1.00494 -0.0200013 9.78554e-22)
(1.01067 0.0945605 7.50471e-20)
(1.11883 0.0197217 1.74814e-20)
(-0.370311 0.180499 -3.16643e-20)
(-0.481766 0.771461 -6.93163e-19)
(0.612301 -0.37082 1.08798e-20)
(1.20825 0.119336 1.67498e-21)
(-0.308018 0.110132 0)
(1.21988 0.103228 -2.45965e-20)
(-0.361247 0.0708617 2.13059e-20)
(1.16846 0.0745953 4.71209e-20)
(0.733802 0.235728 -4.53944e-21)
(-0.299508 -0.0487129 7.47367e-20)
(0.716702 0.218163 4.69357e-21)
(0.954854 0.261435 -4.3417e-21)
(1.23237 0.0735899 1.10678e-20)
(-0.396262 -0.12817 4.46169e-20)
(0.16458 0.0862975 1.34999e-19)
(1.03124 0.047565 0)
(0.988841 -0.000371414 -4.91219e-21)
(0.72631 0.107443 4.82172e-20)
(0.959445 -0.31981 1.71131e-20)
(1.16287 0.0761662 3.63261e-20)
(0.786191 -0.405945 4.89495e-21)
(0.999631 0.00155159 4.38382e-21)
(1.00556 -0.0703968 0)
(1.00708 -0.00448029 -2.11252e-22)
(1.04521 0.0471445 0)
(-0.329336 0.358125 -1.07963e-19)
(0.95495 0.0735536 0)
(0.738116 -0.1615 -1.01776e-20)
(-0.313791 -0.106497 7.55054e-22)
(1.21981 0.104388 2.5415e-20)
(-0.372282 4.20263e-05 -2.05633e-20)
(1.02 0.0507733 9.21987e-23)
(-0.36979 -0.028805 -8.9125e-21)
(1.2921 0.129648 0)
(1.00402 -0.0256504 0)
(1.23301 0.0666957 -5.45534e-20)
(-0.861546 -0.156148 0)
(0.690356 0.0743357 0)
(0.909041 0.0826946 -2.44132e-20)
(1.01826 0.0561735 -5.57288e-21)
(1.14903 0.0870761 0)
(1.0012 -0.0251815 0)
(1.0462 0.0267613 -1.04235e-20)
(1.00399 -0.00246539 9.25649e-23)
(0.66483 -0.325897 4.41378e-21)
(0.837246 0.120397 -9.38662e-21)
(0.958963 0.277973 3.72595e-21)
(1.26788 0.315102 4.37629e-20)
(1.0074 -0.00482467 0)
(0.943663 0.153873 6.00417e-21)
(0.181378 0.0917645 -1.31902e-19)
(0.174431 0.147498 -4.88151e-20)
(1.04977 0.00131907 -1.84302e-21)
(0.343771 0.127252 2.1847e-21)
(0.925624 0.0671948 7.74628e-20)
(1.03159 0.0497945 -3.5084e-21)
(0.789403 0.421692 -4.84262e-20)
(0.999835 0.00148352 -2.34256e-21)
(0.603352 0.757252 0)
(-0.308542 -0.102765 8.01981e-20)
(1.15169 0.186814 0)
(1.25578 0.297619 0)
(1.23134 0.0639692 0)
(1.00206 0.016714 -9.12872e-21)
(1.01841 -0.0749746 1.01616e-20)
(1.05343 0.00481768 3.37507e-22)
(0.637038 -0.364291 6.70827e-20)
(1.06426 0.0101525 0)
(0.800284 -0.395114 0)
(-0.397406 0.329569 0)
(0.934846 0.298006 -5.19171e-21)
(1.1841 0.0944456 6.03284e-20)
(1.02816 0.00445905 -1.75101e-21)
(0.952527 -0.101015 0)
(1.03127 0.0301549 -1.07362e-22)
(0.992539 0.000720083 -1.21343e-21)
(1.01959 -0.010604 1.57792e-21)
(0.685884 -0.360278 8.76887e-21)
(1.19798 0.079574 -2.5272e-20)
(0.939064 0.0250373 2.09543e-20)
(-0.177414 0.199012 3.90499e-20)
(1.04275 0.00228343 7.7555e-21)
(1.10955 0.0760711 -5.22418e-21)
(1.02681 0.0500399 2.18998e-21)
(0.00769328 -0.908671 0)
(0.843668 0.430382 6.12056e-22)
(1.0022 0.0159547 4.76718e-21)
(1.00435 -0.0209928 0)
(0.907316 0.0332712 3.24012e-22)
(0.767584 0.537695 7.33026e-21)
(1.18101 0.123112 1.59272e-20)
(1.00422 0.0100185 -7.06002e-21)
(1.28388 0.187586 5.12773e-20)
(-0.5562 0.758134 3.54189e-20)
(1.00199 0.00303521 0)
(0.565298 -0.0358319 3.8176e-21)
(-0.318329 -0.105944 9.62015e-20)
(1.13749 0.182915 1.27804e-21)
(0.927513 0.0206784 2.31708e-20)
(-0.343624 0.345069 2.56093e-20)
(0.127004 0.152669 -2.4667e-20)
(0.984125 0.0141764 1.21014e-20)
(-0.0652078 0.0452596 8.9852e-20)
(1.31623 0.183811 -3.73128e-20)
(1.30964 0.17159 2.62887e-20)
(1.01341 -0.0161165 3.94364e-21)
(1.15736 0.136495 2.03821e-20)
(-0.382476 -0.0888547 -4.28701e-20)
(1.28468 0.346599 -2.45221e-20)
(0.995308 -0.00213884 0)
(0.536186 0.0504635 1.29642e-21)
(0.456303 1.05866 -2.82451e-19)
(1.1846 0.117233 -3.53193e-20)
(0.643093 -0.377103 1.66515e-21)
(0.52533 0.097603 0)
(-0.294103 -0.0542172 0)
(0.988723 3.50063e-05 2.84093e-21)
(1.0017 0.00305393 0)
(1.04358 0.00341616 7.14646e-21)
(1.28379 0.188207 2.15653e-20)
(1.04967 0.00147297 1.00521e-20)
(1.00365 -0.00479254 0)
(-0.314093 0.0727574 0)
(1.00096 -0.00341823 0)
(0.0286674 0.372932 -6.62605e-20)
(1.03831 -0.00639068 2.36684e-21)
(1.02488 0.052995 -6.86091e-22)
(1.07957 0.0192993 0)
(1.0915 0.0787482 -7.8812e-21)
(1.13404 0.0346344 2.07462e-21)
(0.077062 0.148576 5.90249e-20)
(1.01543 0.00448365 6.75906e-23)
(1.28656 0.326706 1.80086e-21)
(1.01088 0.0190102 0)
(0.995606 -0.000574795 -5.26547e-21)
(0.829272 -0.14335 -6.14693e-21)
(-0.378803 0.258996 0)
(0.997902 0.00232344 3.65411e-21)
(0.963162 0.0655713 0)
(1.20864 0.392404 0)
(1.18555 0.0711025 1.96658e-20)
(1.07867 0.0165021 0)
(1.02785 0.0169166 2.81655e-21)
(1.20878 0.108286 -1.48722e-20)
(0.772991 -0.0911878 0)
(0.756629 0.552416 1.5144e-20)
(0.909597 0.0649176 -1.62073e-20)
(0.921958 0.0815704 8.62834e-21)
(1.04555 7.05577e-05 0)
(1.04025 0.0205615 6.96289e-21)
(1.23339 0.0781366 -1.2168e-20)
(-0.251893 -0.367082 3.04362e-20)
(0.587749 0.63214 0)
(1.00281 0.00813568 0)
(1.02094 -0.0230666 -3.84774e-21)
(1.02209 0.0251558 2.13464e-21)
(-0.245639 0.49319 0)
(1.01754 -0.0164917 0)
(0.912087 0.0538245 1.57263e-20)
(0.874214 0.0401383 2.12922e-20)
(0.411557 0.126206 1.38165e-21)
(1.21018 0.124128 6.48546e-21)
(1.1985 0.0681735 0)
(0.933478 0.283288 4.3702e-21)
(-0.70874 0.625708 -1.25295e-19)
(0.196757 0.0974584 -1.87835e-20)
(1.02827 0.0160034 -2.68348e-21)
(1.00479 -0.00245334 -1.94548e-22)
(1.02387 0.0320512 4.95103e-21)
(1.19438 0.0370212 1.15067e-20)
(-0.371695 0.187945 0)
(0.140553 1.05614 -1.64182e-19)
(1.25173 0.274082 0)
(1.01734 0.00262428 6.30557e-22)
(1.02383 0.0315716 -4.64704e-21)
(0.955907 0.00284403 0)
(0.470345 0.141635 -1.69239e-19)
(0.20886 0.127965 -1.33853e-20)
(1.04523 0.0583731 -1.61302e-21)
(0.703326 -0.362733 9.10944e-21)
(1.07938 0.0664912 3.71697e-21)
(1.01081 0.0195311 -4.77549e-22)
(0.977104 -0.263435 1.477e-20)
(1.20502 0.0811964 -4.32293e-20)
(1.01844 -0.00709825 -6.2442e-21)
(-0.654315 0.691509 0)
(1.26712 0.109597 1.88016e-20)
(1.12133 0.0986943 0)
(1.00493 0.00450964 -1.55408e-21)
(0.885575 0.748728 5.48579e-20)
(1.03954 0.0228849 -3.8768e-21)
(0.997029 -0.0328824 -6.57198e-21)
(1.15169 0.10795 -2.33499e-22)
(-0.373895 0.239027 4.13373e-20)
(0.551515 0.167848 2.34063e-20)
(1.13299 0.180786 -4.2977e-21)
(0.810027 0.507411 1.96915e-21)
(1.00196 0.00792512 0)
(0.784854 -0.101893 0)
(1.09789 0.0224984 -2.78948e-20)
(0.995062 -0.257789 0)
(0.988038 -0.000216828 -8.51363e-21)
(1.14807 0.27349 0)
(0.176533 0.0955883 1.8703e-20)
(1.01213 -0.00822609 -4.28313e-23)
(0.585607 0.0464466 -7.45709e-21)
(0.989037 -0.000385556 5.52783e-21)
(0.996121 0.000878468 -6.83298e-21)
(0.0702378 -0.565605 -3.50434e-20)
(0.753689 -0.188833 -3.48396e-21)
(1.01154 0.00447223 -5.76946e-21)
(1.2418 0.267938 -4.90392e-20)
(0.851625 0.205248 0)
(1.0017 0.00718474 -2.16764e-21)
(1.00706 0.00851149 -1.59375e-21)
(0.75659 0.12183 -7.80698e-21)
(1.07608 0.0659278 6.04687e-23)
(1.00663 0.0087017 0)
(1.12526 0.0929547 1.35904e-20)
(0.946655 0.00459177 -6.95956e-21)
(0.900784 0.0518765 -9.1774e-21)
(1.02394 0.0302628 0)
(1.18084 0.0680363 -3.42973e-20)
(1.0551 0.0583277 0)
(1.02789 -0.015527 -6.11014e-21)
(-0.347335 0.015509 -7.59282e-20)
(1.18907 0.420466 0)
(1.12104 0.0459447 -1.6752e-20)
(0.878505 0.536188 -1.81001e-20)
(0.97586 -0.278648 -1.21237e-20)
(0.846877 0.447049 0)
(0.994497 -0.00101986 -6.58928e-21)
(1.13046 0.0848276 -2.10581e-21)
(0.417945 -0.144965 4.15627e-22)
(1.00222 0.0131982 6.97709e-21)
(1.00034 -0.0029017 1.97269e-21)
(0.536435 0.14757 8.03408e-20)
(1.00675 0.00654193 -2.4891e-21)
(1.18313 0.124252 -2.69207e-20)
(-0.371531 0.0247521 -4.39346e-20)
(-0.371829 -0.102475 -8.49096e-20)
(-0.506306 0.186928 0)
(-0.358871 -0.0689877 7.74882e-20)
(1.02396 0.0297174 -2.97099e-21)
(-0.865682 0.258533 4.5603e-19)
(1.18949 0.0377445 -2.31382e-20)
(0.543285 0.00434239 -9.16107e-21)
(-0.510113 0.698118 0)
(1.00381 0.00471903 2.64308e-21)
(0.932895 0.145483 0)
(1.00942 -0.0200955 0)
(0.259804 -0.304584 -3.60061e-20)
(0.856393 0.180678 4.01247e-21)
(-0.576866 -0.599626 0)
(1.16116 0.0776951 -2.51524e-20)
(1.16017 0.129406 1.89073e-20)
(1.20517 0.0678355 1.5369e-20)
(0.811749 0.196338 1.37165e-20)
(0.324427 0.104886 0)
(1.13534 0.266998 0)
(1.01385 -0.2366 0)
(-0.839192 -0.223838 2.22185e-20)
(1.00777 0.00331441 2.1015e-21)
(0.816588 0.619366 0)
(1.02392 0.0266894 0)
(-0.153651 -0.0303723 1.1814e-19)
(0.997818 0.00227497 -5.35039e-21)
(1.05437 0.0581449 0)
(1.02211 0.0231005 1.47096e-21)
(-0.404538 0.321536 6.92782e-20)
(1.24881 0.08671 9.38781e-20)
(1.07647 0.0143015 0)
(0.394416 0.104816 2.45733e-20)
(1.06779 0.0529188 -7.96555e-21)
(0.813753 0.208278 -1.92161e-20)
(0.209088 0.117634 1.32529e-20)
(1.05353 -0.040739 -1.01711e-20)
(1.14045 0.0372892 0)
(0.766801 0.027788 -7.24223e-21)
(1.02656 0.0160892 0)
(0.965624 -0.0481518 -3.91938e-22)
(1.0464 0.000689144 0)
(0.954796 -0.0508802 0)
(1.00236 0.0143312 -1.10676e-20)
(1.02217 0.23908 -1.46919e-21)
(1.05786 0.0583688 0)
(1.0181 -0.0193092 0)
(0.704427 0.0965456 -4.49821e-23)
(1.14416 0.0367049 2.03774e-20)
(1.00824 0.00733919 2.28458e-21)
(1.00664 0.0101135 -5.84757e-21)
(1.15661 0.142491 -8.5552e-22)
(0.712586 0.0691895 7.98426e-22)
(1.00198 -0.00382927 3.89011e-23)
(1.013 -0.00859942 1.47958e-22)
(1.06066 0.057151 -8.6177e-22)
(1.00453 -0.000569544 0)
(0.859854 0.501356 2.54549e-20)
(0.162672 -0.624652 7.07081e-20)
(0.336922 -0.263233 3.16348e-20)
(1.16609 0.127405 -1.06044e-20)
(-0.171562 -0.0368723 0)
(0.479283 0.0665502 2.94813e-22)
(0.641566 -0.358793 -4.05273e-21)
(1.11914 0.0925299 0)
(1.00197 0.00518236 4.62415e-21)
(1.00708 0.290654 7.29483e-23)
(-0.35882 -0.0788785 -9.67727e-20)
(0.989114 0.000192428 -5.48031e-21)
(-0.211077 0.0294551 -1.37407e-20)
(1.05797 -0.038372 0)
(1.14863 0.182713 5.61446e-23)
(1.08858 0.0651736 -1.39758e-20)
(1.00359 0.00316934 0)
(1.15652 0.0823674 4.16925e-22)
(1.22558 0.0867642 0)
(1.22096 0.0994907 5.05814e-22)
(1.03915 0.00273554 0)
(1.06724 0.0761372 -9.0591e-21)
(0.184132 0.111667 -1.58478e-20)
(0.644759 0.247004 0)
(0.622029 0.641539 0)
(0.88817 0.150381 0)
(1.00115 -0.0339614 5.56855e-21)
(0.988941 -0.000644767 0)
(1.27034 0.186675 -1.28942e-20)
(1.02614 0.017165 4.26755e-22)
(0.99973 -0.0026132 -1.98818e-21)
(0.766572 0.303837 -3.13072e-21)
(1.18036 0.163524 0)
(1.02677 0.234594 3.05368e-22)
(1.22365 0.0857376 -3.71116e-20)
(0.425252 0.137706 -5.76765e-20)
(-0.539322 0.500893 2.7971e-19)
(0.994598 -0.00206321 -1.1729e-21)
(0.79404 -0.151921 3.24228e-21)
(1.03356 -0.210509 -6.53803e-21)
(-0.215516 0.506438 1.69236e-19)
(1.00279 -0.00419616 2.73302e-21)
(1.19463 0.0785872 -8.2462e-20)
(1.02026 0.0139558 9.40436e-23)
(1.09949 0.125823 1.78441e-21)
(1.05101 0.00181345 2.24079e-21)
(0.681577 -0.164875 -1.12175e-20)
(1.08555 0.0652908 1.87757e-20)
(-0.0438592 0.390349 -1.13106e-19)
(0.191507 -0.614208 -9.04558e-22)
(0.573502 -0.0840498 7.67263e-20)
(1.00704 0.00647842 2.61462e-21)
(1.00112 0.00956895 -1.28002e-20)
(0.41827 0.136083 0)
(0.568798 -0.165668 -3.7615e-20)
(0.101431 -0.643816 0)
(1.09184 0.139998 0)
(0.00804489 0.0774633 -8.56625e-20)
(0.752476 0.00804237 2.12697e-21)
(-0.487504 0.157827 2.99608e-20)
(-0.321764 -0.109666 -7.75612e-20)
(0.273856 -0.0252467 0)
(-0.536539 0.115184 -3.34045e-20)
(1.01548 0.0228666 0)
(1.05126 0.00142716 -4.27407e-21)
(1.00117 0.0105527 0)
(0.67404 -0.0180215 0)
(1.02493 0.0256256 -2.66634e-22)
(1.2624 0.184961 3.5815e-20)
(-0.32216 -0.0980606 8.44331e-20)
(1.07908 0.0141697 0)
(0.912014 0.135941 6.03025e-20)
(1.01913 0.130713 1.84423e-20)
(0.167851 -0.660332 -3.3376e-20)
(1.01602 0.0125817 0)
(1.0238 0.0248713 2.71278e-22)
(1.017 0.0126535 0)
(0.698585 -0.038832 -1.40498e-20)
(1.17895 0.128673 5.16146e-20)
(1.00309 0.00886385 -2.40071e-21)
(1.09518 0.0227657 9.22347e-21)
(0.203319 -0.261409 -2.94507e-20)
(0.996125 0.00180323 0)
(-0.383802 0.301931 4.6491e-21)
(1.03293 -0.0602098 1.00993e-20)
(1.02093 0.0473864 -3.37982e-21)
(1.09302 0.196787 8.91691e-21)
(1.06251 0.009921 0)
(1.02144 0.0139009 0)
(1.05015 0.018579 0)
(1.06736 0.152964 -4.41438e-21)
(1.12981 0.0876322 -1.75901e-20)
(0.989125 -0.000356468 -1.02689e-20)
(0.734595 -0.419087 -1.61019e-20)
(1.00069 0.00627659 -2.47205e-21)
(1.01597 -0.011989 2.4884e-23)
(1.00728 -0.00454501 0)
(1.0057 0.00209171 0)
(-0.205724 -0.0517276 0)
(0.181704 0.121861 9.84867e-22)
(1.00486 0.0102249 2.53642e-21)
(-0.362685 -0.120278 0)
(1.11931 0.0242727 -7.57196e-21)
(1.00561 0.00209305 0)
(1.00609 0.0101103 0)
(1.00231 0.0233081 1.32475e-20)
(0.986952 0.017981 -1.50563e-20)
(1.07167 0.0678309 0)
(1.20187 0.0738437 5.88764e-20)
(1.0033 0.00995307 4.8673e-21)
(0.765209 0.00874557 -9.40103e-20)
(1.01802 0.0231952 -6.69476e-21)
(-0.0503173 -0.153816 4.28954e-19)
(-0.317393 0.922633 4.98962e-19)
(1.20269 0.0644507 -4.77034e-20)
(1.19571 0.0828122 6.30299e-20)
(0.990143 -0.000483355 -5.37537e-21)
(-0.523273 -0.473794 0)
(0.746096 -0.0264568 4.81976e-20)
(1.16138 0.135797 0)
(0.991561 -0.00081103 8.43095e-21)
(0.753634 -0.32016 -4.61397e-21)
(0.857771 -0.185598 -8.47613e-21)
(1.06437 0.213814 4.62293e-21)
(1.05015 0.0194548 0)
(1.01183 -0.0224462 -4.31979e-21)
(0.684772 -0.393658 1.24943e-20)
(1.04715 -0.0540325 9.40406e-21)
(-0.225378 -0.0568465 5.48807e-20)
(1.04607 0.0522154 5.38916e-21)
(1.00906 0.00332027 -2.25249e-21)
(1.11692 0.206762 0)
(-0.233708 -0.0634912 1.07893e-19)
(1.0096 0.0557281 3.35312e-21)
(-0.508519 0.0848654 0)
(0.83602 0.319113 -2.46183e-21)
(-0.375078 -0.0104041 -1.97712e-20)
(0.611525 -0.263455 1.03826e-19)
(0.737149 0.245446 0)
(1.06106 0.148604 3.43514e-21)
(1.08573 0.0756465 -7.17856e-21)
(-0.0502027 1.10885 0)
(-0.226331 0.0144902 1.87476e-21)
(1.00989 0.00242645 -5.99547e-21)
(1.04965 0.0253555 2.8971e-21)
(-0.333924 -0.111358 0)
(0.546938 0.0078815 -3.75789e-21)
(1.23356 0.103385 5.97885e-20)
(1.04378 -0.188028 7.92156e-21)
(1.15896 0.0564043 -5.7668e-20)
(1.09829 0.0186244 -4.61759e-21)
(1.00654 -0.00382249 0)
(0.813076 0.470871 1.76464e-21)
(1.32011 0.212321 0)
(0.996483 0.00174982 0)
(-0.557411 0.501857 -1.36212e-19)
(1.08502 0.0520257 -1.20443e-20)
(0.127128 -0.27926 0)
(1.05983 0.0102057 0)
(1.01471 0.0110813 0)
(1.27764 0.111074 0)
(-0.865896 -0.0997547 0)
(1.20604 0.106883 0)
(0.73454 0.222971 -1.02627e-21)
(0.590702 0.548403 7.7769e-20)
(1.08774 0.193552 -7.04535e-21)
(1.24949 0.0884711 -8.69754e-20)
(1.01226 0.0533304 0)
(1.26408 0.0970874 0)
(-0.29691 0.929327 -2.80458e-19)
(0.996658 -0.000578053 3.56385e-21)
(-0.36866 0.0618997 -2.10257e-20)
(-0.356929 -0.0967975 -8.31462e-20)
(1.07885 0.162986 -1.02018e-20)
(1.01366 -0.0119905 5.35566e-21)
(0.894289 -0.168558 0)
(1.00355 -0.000640454 -3.96781e-22)
(1.00564 0.00563413 0)
(-0.209919 -0.0303204 0)
(1.05874 0.125122 1.79712e-21)
(1.2454 0.0955564 5.23615e-20)
(1.03143 0.225645 2.0891e-21)
(0.991672 0.693145 0)
(1.15135 0.0808664 -1.9225e-20)
(1.16588 0.0801279 -1.44333e-21)
(0.990698 0.0466208 -1.56405e-20)
(1.00641 -0.00367354 0)
(1.00597 0.025503 0)
(0.998076 -0.000546507 2.51265e-21)
(-0.215743 -0.0470723 -1.22952e-19)
(-0.223947 -0.0268141 0)
(1.24473 0.107968 5.4982e-22)
(1.28144 0.372882 2.57114e-20)
(0.994073 -0.000712711 6.8875e-21)
(1.25588 0.408874 -3.44136e-20)
(0.988471 0.0445983 0)
(1.22655 0.101109 -5.29137e-20)
(0.92147 0.371843 3.57011e-21)
(1.02201 0.0440515 -1.02467e-21)
(1.00085 -0.00348116 3.30418e-21)
(1.00225 0.00502716 4.6939e-21)
(1.00057 -0.00361619 0)
(0.428298 -0.125015 1.30374e-20)
(1.00975 0.0188826 -3.15666e-21)
(0.703435 0.569262 0)
(0.947988 -0.122389 8.79996e-21)
(1.12771 0.197517 -3.20585e-21)
(1.19061 0.0675599 4.41078e-20)
(1.0172 -0.0128829 3.05725e-21)
(0.681326 0.500289 0)
(0.835521 0.314237 -2.05615e-21)
(0.594587 -0.486305 -4.91406e-20)
(1.02399 0.0285484 3.34991e-21)
(1.01453 0.00449866 0)
(1.01991 0.0141373 -5.99143e-23)
(-0.311846 -0.0870078 -2.61846e-19)
(1.03716 0.00283739 -6.13361e-22)
(1.27332 0.118666 8.0854e-21)
(1.18521 0.0974782 0)
(1.00954 0.0193778 -2.28628e-21)
(0.994584 -0.00206817 1.43238e-21)
(1.05362 0.0061561 0)
(1.00093 0.00702996 2.44955e-21)
(1.01712 -0.0144645 -1.67984e-21)
(1.13854 0.0430441 0)
(0.997746 -0.0352587 0)
(0.678033 0.257034 3.55889e-21)
(1.25178 0.100729 -5.73769e-20)
(1.03023 0.00507993 0)
(1.13848 0.202199 1.75761e-22)
(-0.0967819 0.879684 0)
(1.23228 0.103354 -9.71039e-20)
(0.247405 0.108412 -7.89302e-20)
(1.01611 0.0102277 -4.16205e-21)
(1.08842 0.0500394 -4.60375e-21)
(1.01556 0.0106228 6.536e-21)
(1.06685 0.0482304 -8.02804e-21)
(-0.374886 -0.0233332 5.81495e-20)
(1.1133 0.095887 7.57757e-23)
(0.916977 0.382694 0)
(0.785206 -0.169599 4.85821e-21)
(0.481414 -0.142315 0)
(1.14294 0.0185952 1.1344e-20)
(1.01735 0.0125423 -3.97924e-22)
(-0.186675 -0.355276 -2.59604e-20)
(1.06369 0.0424733 8.10755e-21)
(0.167159 0.09115 0)
(1.02999 0.0300864 8.55188e-22)
(1.00211 0.0149126 0)
(0.981318 0.682388 0)
(1.01329 -0.0171022 -3.97776e-21)
(1.00521 -0.0060353 0)
(1.13645 0.24371 -1.74627e-20)
(1.21182 0.132557 0)
(-0.321592 -0.0926487 1.40375e-19)
(-0.748123 -0.465644 -2.47187e-19)
(-0.0486634 -0.851884 -7.80316e-20)
(0.582922 0.774216 1.17935e-20)
(0.995587 -0.000518445 -2.28161e-21)
(0.988566 7.95319e-06 0)
(1.17475 0.097542 2.92026e-20)
(0.614557 -0.457025 3.93352e-20)
(1.21914 0.111547 0)
(1.01388 -0.0156897 0)
(1.07315 0.0125948 1.17053e-20)
(0.907061 -0.00272594 0)
(-0.198727 -0.0474305 7.50639e-20)
(1.01509 -0.0105616 -3.24078e-22)
(1.05017 0.000655565 -1.12853e-21)
(-0.854743 -0.113467 0)
(-0.21846 0.0649077 -1.09876e-19)
(1.21345 0.10601 0)
(1.06465 0.0467085 0)
(1.00165 -0.00382309 -2.65703e-21)
(1.03218 0.0301659 2.27819e-22)
(1.03742 0.0414741 -2.02606e-21)
(1.14461 0.0218984 -9.24622e-21)
(1.00056 -0.00323222 0)
(1.08621 0.0424382 2.07755e-20)
(1.02107 0.0251347 -2.13116e-21)
(0.280772 0.112974 1.18182e-19)
(0.99907 -0.00190973 -9.31497e-22)
(0.976261 -0.0218565 6.11826e-21)
(0.83331 0.0339546 0)
(0.988195 0.219891 -4.37434e-20)
(1.07928 0.0741511 -1.79706e-21)
(1.00436 0.00306416 -6.66353e-22)
(1.02245 0.0241607 0)
(1.27556 0.388276 -2.59045e-20)
(0.955229 0.0709941 -8.94559e-20)
(1.01989 0.248118 -3.77572e-21)
(0.849162 -0.151294 7.61779e-23)
(1.10746 0.114834 0)
(0.604352 -0.0389906 3.39316e-21)
(1.01296 0.000881557 5.92691e-22)
(-0.222491 -0.0572867 0)
(1.11016 0.0896812 1.19997e-20)
(-0.125921 0.711525 0)
(1.00359 0.00354448 0)
(-0.366449 0.054293 -2.1429e-20)
(1.03 0.0156341 -1.66026e-21)
(1.04582 0.0195384 -6.16868e-21)
(0.996211 -0.0223947 -1.08345e-21)
(1.10409 0.0762329 -5.8125e-21)
(1.05015 0.000776953 0)
(1.00517 0.0100937 1.57597e-23)
(1.13874 0.0505384 -1.94344e-20)
(0.997138 -0.000424815 0)
(-0.353244 -0.111966 -1.24051e-19)
(-0.163629 0.769236 0)
(0.791979 0.123098 0)
(0.983468 0.0262688 -9.75164e-23)
(1.00333 0.00309504 7.45208e-21)
(-0.287655 0.130538 0)
(1.01706 -0.0159821 0)
(1.00502 -0.005989 5.90807e-23)
(0.724312 -0.350306 1.32307e-20)
(-0.272193 -0.332038 -2.17459e-20)
(0.659277 0.0485756 -2.16879e-21)
(0.648483 -0.230313 5.83797e-20)
(-0.374891 -0.012998 -2.37687e-20)
(1.11698 0.0391541 0)
(1.00707 -0.0237529 -8.1961e-22)
(0.509755 -0.0885579 -3.69828e-20)
(0.992594 -0.000913028 0)
(1.12582 0.0942284 0)
(-0.228108 0.231775 -7.15262e-20)
(1.01812 -0.0155433 1.3488e-22)
(1.00092 0.00804508 4.70637e-21)
(0.700447 -0.0189088 2.64968e-20)
(-0.332429 0.0186276 7.53259e-20)
(1.05675 0.00242018 6.93533e-21)
(-0.908925 -0.0841517 -1.36332e-19)
(0.992677 -0.00101511 0)
(1.17218 0.103532 3.31576e-22)
(1.11507 0.201287 -2.71382e-22)
(0.809711 -0.0173744 0)
(0.898607 0.0029127 -3.7579e-21)
(0.965401 0.0550987 -1.09301e-20)
(0.995659 -0.000504824 4.65507e-21)
(1.12918 0.114607 -8.21639e-21)
(1.1168 0.0508801 0)
(0.675889 -0.358435 -8.7125e-21)
(-0.324184 -0.0708888 -7.69389e-20)
(1.04294 0.00811818 -2.20534e-21)
(0.625778 0.753424 2.67681e-20)
(0.989588 0.429388 -2.5074e-20)
(1.27069 0.10925 0)
(1.00084 -0.00315237 0)
(1.00191 0.0139614 4.46894e-21)
(-0.360877 0.0974092 0)
(0.997707 0.00102232 -3.80566e-21)
(1.00584 0.093078 0)
(0.7168 0.176056 4.14738e-21)
(0.97925 0.164107 0)
(1.00224 0.012643 -1.85465e-21)
(0.832339 0.0262453 -6.55587e-20)
(0.133646 -0.250211 -1.86282e-21)
(-0.719293 0.613701 1.07895e-19)
(0.64035 -0.0980754 -8.65988e-22)
(1.11483 0.106404 0)
(1.01479 -0.00912158 0)
(1.00825 -0.0052248 0)
(1.04363 0.0503545 -2.61715e-21)
(1.04646 0.0209973 0)
(-0.363905 -0.111856 2.36516e-22)
(-0.230359 0.0487314 1.58079e-19)
(0.985361 -0.0166611 5.87059e-21)
(0.920482 0.00939682 -1.5908e-20)
(0.586687 0.0411564 -1.44504e-21)
(-0.000525197 0.100045 -1.08342e-19)
(-0.371481 0.018723 0)
(1.05674 0.00365193 1.35711e-20)
(-0.255684 0.402877 4.60343e-19)
(1.10979 0.045302 -1.21163e-20)
(0.117438 0.136943 4.60053e-20)
(1.14727 0.249029 2.12517e-21)
(1.13033 0.07206 1.54762e-20)
(1.08463 0.117613 0)
(1.09976 0.0215955 0)
(1.22793 0.176377 -3.8844e-20)
(0.566554 0.277234 0)
(1.01319 -0.0246859 7.76887e-21)
(-0.356997 0.15945 6.69249e-20)
(1.08589 0.130062 5.60263e-20)
(1.31767 0.208815 4.8749e-21)
(0.636976 -0.00673711 -4.18221e-21)
(1.18491 0.0965164 3.63548e-20)
(1.00489 0.0883398 -3.91942e-22)
(1.0135 -0.00802517 0)
(-0.401058 0.851871 9.66548e-20)
(1.00576 0.0101842 2.33786e-21)
(0.82971 0.211414 6.48952e-21)
(1.02265 0.0266045 0)
(1.04765 0.00261578 0)
(1.0694 0.0220733 -5.52736e-21)
(1.17757 0.0716559 5.72868e-20)
(-0.178054 -0.0412343 0)
(1.05443 0.00560629 0)
(0.594369 0.363813 -3.04654e-20)
(0.942986 -0.0261572 2.16468e-21)
(0.561511 0.0846595 2.8437e-21)
(1.0643 0.0170551 -2.05439e-22)
(0.993721 -0.00199808 0)
(0.568892 0.147939 0)
(1.02046 0.0261097 -4.44097e-21)
(1.02163 0.0259859 -4.32461e-21)
(-0.177453 0.208801 3.75512e-20)
(1.01307 0.0111056 2.22886e-21)
(1.05144 0.0180037 5.71412e-21)
(0.979281 0.238546 -5.54029e-22)
(1.14135 0.0415646 1.14009e-20)
(0.997867 -0.00155675 0)
(0.717784 0.150527 0)
(0.145241 0.0822885 -1.93358e-20)
(-0.213879 -0.0554164 0)
(0.600866 0.72729 -2.39695e-20)
(1.00596 0.00538233 -7.46243e-22)
(1.00214 0.00166229 0)
(1.20764 0.113188 -9.18402e-22)
(1.22883 0.101282 -4.98158e-20)
(-0.376926 -0.110253 0)
(1.05152 0.0137928 0)
(0.701953 -0.0291066 -3.25551e-21)
(1.02369 0.0467234 3.43618e-22)
(1.14124 0.047949 1.02269e-20)
(0.070589 -0.581447 -1.43742e-19)
(1.04186 0.00819358 6.81478e-21)
(1.01273 -0.00953845 -1.53704e-21)
(1.15458 0.0919986 0)
(0.988451 -3.95536e-05 1.7283e-21)
(1.0135 0.012499 -1.03009e-21)
(1.02463 0.0248073 0)
(0.941021 -0.0226767 1.24086e-22)
(0.758825 0.0344428 -2.60471e-20)
(0.988071 -0.000227864 1.88927e-22)
(0.77814 0.469433 -1.60772e-21)
(1.18153 0.117239 0)
(0.911589 0.178423 0)
(1.07555 0.0986284 0)
(1.01609 -0.0108423 0)
(1.05138 0.0254745 3.35741e-21)
(1.04262 0.0484443 -3.08588e-21)
(0.772167 -0.316586 0)
(1.02436 0.288101 -9.43184e-22)
(-0.420479 0.348903 -7.28167e-20)
(-0.841913 -0.312581 3.12522e-19)
(0.722781 -0.332378 4.55559e-21)
(1.0223 0.0259104 -1.25381e-21)
(1.16344 0.0648339 7.61108e-20)
(1.22402 0.170055 -2.55356e-21)
(1.18734 0.038363 -2.2278e-20)
(1.1269 0.0781429 1.66342e-20)
(1.08345 0.0399637 1.29294e-20)
(0.994954 0.273175 0)
(0.90763 -0.01363 0)
(1.02453 0.024954 0)
(0.144278 -1.17087 0)
(0.758551 0.284631 -6.34909e-21)
(0.989605 -0.000461735 0)
(1.16403 0.0577561 3.1847e-20)
(1.05025 0.015096 -4.83883e-21)
(1.26889 0.0995078 8.43353e-20)
(1.09016 0.000660776 0)
(1.11391 0.125541 -1.8419e-21)
(1.15976 0.0655853 -6.61125e-20)
(0.941008 -0.19662 -4.86608e-21)
(0.980937 0.0343627 0)
(1.1202 0.0246873 0)
(0.681493 0.0419712 8.57579e-22)
(1.01921 0.0272845 8.43143e-21)
(0.608093 0.287273 0)
(1.07882 -0.00563193 0)
(1.07435 0.0695646 6.77768e-21)
(1.12956 0.115709 0)