/*--------------------------------*- C++ -*----------------------------------*\
| =========                 |                                                 |
| \\      /  F ield         | OpenFOAM: The Open Source CFD Toolbox           |
|  \\    /   O peration     | Version:  v2012                                 |
|   \\  /    A nd           | Website:  www.openfoam.com                      |
|    \\/     M anipulation  |                                                 |
\*---------------------------------------------------------------------------*/
FoamFile
{
    version     2.0;
    format      ascii;
    class       volScalarField;
    location    "400";
    object      ddt0(k);
}
// * * * * * * * * * * * * * * * * * * * * * * * * * * * * * * * * * * * * * //

dimensions      [0 2 -3 0 0 0 0];


internalField   nonuniform List<scalar> 
13749
(
0.00136652
5.91282e-08
8.44221e-07
-5.14978e-08
-0.000924564
8.70724e-09
-0.000150317
-2.54637e-07
4.03592e-06
-6.04261e-08
1.99258e-09
-2.3635e-07
4.93078e-07
0.00104085
2.23898e-07
0.000299927
-2.10862e-06
3.65635e-08
0.000152415
-2.0947e-08
0.000125127
-0.000397079
9.63219e-05
-2.53254e-06
2.13404e-06
1.16327e-08
8.82108e-08
-4.66759e-08
-0.000516775
-2.67416e-05
-0.000860376
9.3154e-08
6.75147e-06
2.03891e-07
0.000764405
-6.73768e-05
0.000886492
-8.4211e-08
0.000115601
-0.000137577
-1.26747e-08
-1.36297e-07
6.12347e-08
-0.000452182
9.1767e-06
-6.02577e-08
3.36246e-07
-4.36086e-06
-2.80307e-06
8.33208e-07
-3.78415e-06
2.12523e-06
-7.00566e-05
4.45905e-08
-1.1022e-07
-0.000196169
-0.000529866
1.10564e-06
1.96782e-06
2.29294e-06
-4.57999e-09
-0.000856377
1.59709e-06
7.50771e-05
3.53481e-06
-0.000471034
-1.92491e-06
1.24007e-05
-9.48247e-05
0.00177824
-3.84975e-07
0.000527241
-5.70337e-07
-0.000605013
-8.93708e-08
0.00163455
1.72373e-08
1.07101e-08
-0.000169658
3.60396e-08
0.000112696
-1.77762e-06
1.46089e-06
-3.3566e-07
-7.26066e-06
-4.35693e-09
0.0044498
-1.22544e-06
0.000568463
3.8741e-06
7.24107e-08
-0.000186048
4.13535e-09
1.39687e-06
1.68624e-07
-4.18286e-06
-1.98052e-05
1.35124e-06
-0.000434089
-2.85896e-09
-1.4291e-07
-0.000519874
-4.32173e-08
5.75343e-06
2.85246e-09
1.23132e-08
6.73066e-08
0.00502455
9.50923e-09
-7.20094e-05
1.5154e-07
-0.00338675
-3.48587e-05
6.69777e-08
-1.19209e-06
-4.55828e-05
1.26162e-08
2.44426e-07
3.46327e-07
8.87547e-07
2.02101e-08
1.7783e-05
8.10131e-09
-7.00824e-09
-5.96002e-09
-0.000523849
2.81282e-05
1.46468e-10
-7.36881e-09
0.0015369
8.10711e-07
0.00482636
-5.18611e-06
-0.000270139
2.85603e-06
-0.000409996
-0.000107454
-4.19454e-06
-1.32983e-06
-1.96286e-08
-6.28151e-05
2.07914e-07
-1.30887e-08
-0.000102736
3.27309e-08
1.14404e-07
0.000390233
-4.60868e-05
-0.000650679
-0.000449959
8.51828e-08
-8.29223e-05
8.10085e-09
0.000431611
-0.000604669
1.37204e-08
-9.89386e-05
0.000507269
6.93785e-06
-4.51175e-07
-4.44947e-07
6.76168e-09
-0.000270427
-1.19968e-07
0.00044825
3.12447e-07
-6.74303e-09
1.98721e-08
-0.000282882
0.000296361
8.19791e-08
7.36731e-09
-0.000607134
0.000230421
3.80643e-05
9.65562e-07
1.53479e-05
5.50443e-05
2.44986e-06
-5.98467e-05
1.03548e-06
3.09507e-07
1.51016e-05
-0.000139536
-4.50843e-07
-2.18892e-08
7.0303e-08
-4.595e-08
0.000179543
-5.33403e-06
-0.000631118
4.93133e-05
1.14769e-06
6.51251e-07
-4.40387e-09
-4.73555e-08
-1.80464e-06
-1.69605e-07
2.68215e-06
0.000642006
-2.18694e-05
-1.21413e-06
-0.000626926
0.000257472
-1.80663e-08
-0.00251265
6.23523e-06
0.000429671
-1.37147e-08
-7.28401e-09
-9.80853e-07
0.00344577
3.04598e-07
-5.27576e-08
0.000743884
-0.00126066
1.3805e-06
0.000133735
2.04552e-08
5.00652e-09
-4.79448e-08
2.636e-05
-2.61484e-06
1.37665e-06
0.0011742
0.000756489
-0.000221783
-4.21802e-05
-0.00237573
9.20538e-09
0.000793502
0.000254142
-1.07737e-07
1.54302e-08
-4.81024e-08
1.0168e-08
-0.000446036
-1.71562e-05
-2.83144e-05
-1.38006e-06
0.00220768
-0.000471809
9.47753e-08
-7.27306e-06
3.62198e-08
-6.45096e-09
7.58639e-09
-8.1342e-08
0.000591783
-0.000389198
4.35924e-08
3.19123e-08
-0.00140759
-0.000753224
3.45635e-05
3.56098e-08
0.000174845
-4.11573e-08
-5.20483e-08
6.01284e-08
0.00073475
0.00108959
-1.12601e-07
6.37341e-07
2.04119e-08
8.90492e-09
1.39768e-07
-0.0107593
-0.000352543
9.81797e-09
2.45636e-07
1.22868e-06
0.000269869
-4.69192e-06
-7.19615e-07
-0.000166452
0.000962575
1.95311e-06
-0.000333306
-3.07503e-07
-0.000215716
0.000345925
-0.000267431
8.21319e-07
0.000594668
4.51948e-09
9.60386e-06
-0.000210698
4.04269e-08
0.000237772
0.00145634
-2.8527e-06
3.09323e-07
-1.28081e-06
0.000836753
0.000737944
8.79915e-08
6.90173e-07
0.00227194
-5.64943e-09
0.000113531
1.79874e-05
0.00134369
-1.09716e-06
1.39194e-06
0.000608004
-0.000368725
-2.70796e-10
-0.000122723
-1.61459e-08
-5.4144e-11
-2.72281e-06
-0.00363994
3.39511e-06
1.15674e-07
1.29811e-08
-0.00131958
9.5851e-09
5.8882e-06
-1.89183e-08
-6.3727e-08
3.68849e-08
-6.27674e-07
0.000111801
-3.42825e-07
2.7094e-07
-0.000188478
-1.45699e-08
-5.40909e-09
-0.000486434
-6.32782e-05
-5.31157e-07
4.0998e-09
-0.000199196
-9.70962e-07
-1.09992e-08
-1.76009e-05
-1.28965e-08
-5.21316e-05
-0.00880963
6.77821e-09
0.00208761
-0.000189686
-6.3961e-07
1.12118e-08
3.8065e-07
-1.93154e-06
1.25293e-06
-1.29583e-08
-0.00302763
1.36143e-06
0.000257757
1.3872e-08
-2.15957e-05
-3.84718e-06
-8.29819e-07
-2.12675e-08
1.82347e-05
-7.15371e-07
-6.95989e-05
-2.36943e-07
-2.53608e-06
-3.27497e-06
-0.00181425
1.3456e-08
0.000746677
-8.48141e-09
2.67207e-06
-8.01414e-08
3.2088e-08
-0.000329497
2.26182e-09
6.12332e-08
-0.00260415
-5.43297e-07
-1.69622e-08
-1.56442e-07
-1.30601e-07
0.00140919
-2.08944e-05
-1.89118e-08
-2.13338e-08
-1.38764e-09
-0.000237423
9.48151e-07
0.000300776
0.00137441
1.26107e-05
0.000527244
0.00313987
8.17466e-09
-2.5004e-08
-1.55061e-07
0.00109717
-0.0001702
-1.57145e-09
-8.30276e-08
3.0835e-07
0.000854233
-1.08555e-06
6.80472e-07
-4.39345e-07
1.03919e-06
3.21244e-05
0.000764522
-0.000173422
0.000210782
-1.88582e-07
-0.00269527
0.00553984
2.00614e-08
0.000522487
-5.44176e-09
0.000524509
9.49584e-09
-0.000215781
0.00155331
-8.40527e-07
-5.21347e-05
-0.000131264
-9.66062e-09
7.59218e-07
0.00157837
1.83692e-06
8.35714e-08
1.8835e-06
-1.0051e-07
7.66243e-08
7.47076e-08
1.86462e-07
-1.12097e-06
-1.20987e-07
2.4189e-08
-1.30103e-08
-4.7729e-07
2.03575e-07
2.24111e-07
-7.0013e-05
5.08472e-05
9.05131e-05
-0.00266257
-0.000389531
-1.10568e-06
0.00141794
-2.13318e-05
-0.000228945
-1.14909e-08
5.25459e-08
0.000168356
0.00107059
1.45983e-06
-0.000378884
6.78996e-08
-4.88601e-07
4.47744e-08
1.37004e-06
-1.53913e-08
0.00251315
2.77078e-05
0.000399891
-1.5011e-07
-2.94041e-08
0.000308484
3.38977e-08
-0.000201928
0.00314231
5.42454e-08
1.3901e-06
-3.41768e-06
0.000570978
1.27928e-06
0.000575231
-4.08291e-09
-2.07215e-07
-2.66186e-08
0.0025986
5.62692e-05
5.13006e-05
2.65212e-07
-0.00086776
-5.27706e-08
-1.81481e-06
1.43821e-08
4.53911e-08
1.91842e-09
-1.46162e-07
-4.68183e-07
1.78462e-08
8.85616e-09
2.87043e-05
5.01439e-09
-0.000144838
2.38302e-05
-4.431e-08
-0.000610591
-0.000179892
0.00216403
2.86474e-08
-0.000626371
-4.21935e-07
0.00107964
7.27273e-06
1.30083e-07
-4.3658e-09
-0.000733123
4.01567e-08
-3.49611e-08
0.000105255
0.00204682
-2.60061e-09
-0.00115806
0.00240088
-9.33951e-07
0.00225177
0.0029993
-4.61048e-09
0.00105502
-3.52905e-08
0.000135233
0.000493602
9.74524e-08
1.46435e-07
-8.89886e-05
1.40548e-06
2.30683e-08
-0.00231655
6.53043e-05
0.00122282
-4.02688e-07
-4.8936e-06
-1.11761e-06
4.15757e-07
0.000478429
-0.000116641
1.58908e-06
-0.00317946
-0.00164038
1.10234e-07
-0.000840395
-1.01362e-07
-7.18963e-09
3.07233e-05
-7.70524e-05
7.48909e-07
2.49414e-07
-0.0004894
2.90775e-08
1.91132e-08
0.000715849
0.00348913
0.00141141
2.01484e-07
-0.000522882
5.73272e-07
3.28667e-05
-4.29755e-08
0.000244164
0.000688914
-3.44048e-08
5.04016e-07
2.38358e-07
5.9536e-05
9.39995e-06
9.29422e-09
1.71672e-05
2.83006e-08
0.000474017
0.000877162
4.19061e-07
-2.45044e-06
4.89489e-09
-5.31115e-07
-0.000473791
6.03728e-06
2.53448e-06
0.000220116
-1.30792e-06
0.000477033
-3.18772e-07
-3.58304e-08
0.00584967
-1.05522e-06
-3.34595e-06
-0.000197572
2.32491e-07
-0.000201642
-0.000882347
-1.10054e-07
-0.000662982
6.71711e-07
0.000612582
-6.01061e-06
0.00167714
0.000386501
-7.21157e-05
-0.000111773
-1.86215e-05
-0.000467462
0.000592671
3.51677e-08
-0.000211902
3.58601e-08
0.00135358
-0.000542693
0.000258667
-0.000138688
-7.03907e-08
-1.31958e-07
-2.26702e-07
-0.00207947
1.02146e-07
1.01987e-06
4.40893e-07
5.62406e-05
-3.51958e-06
-0.000140822
6.27335e-08
1.48325e-06
6.60546e-05
-7.81248e-07
-1.6835e-08
-0.00894317
7.95827e-06
-6.16632e-10
-6.93352e-05
1.49483e-07
-0.000343139
3.44996e-08
1.07585e-06
6.75678e-08
7.17011e-08
-0.0017813
-5.65109e-05
-7.9423e-07
8.24808e-07
0.000709199
2.84587e-08
4.79395e-08
1.90591e-07
-0.000390335
-0.00011576
0.000623953
-1.85175e-05
0.000375863
3.18035e-09
-0.000236907
8.18346e-08
0.00114083
1.02934e-07
-1.95111e-06
0.00155053
-0.00169907
-0.000140551
6.70473e-07
-8.16962e-07
-2.53613e-06
2.01189e-08
-5.2809e-05
-0.000175273
-0.000157264
-1.15863e-08
9.20642e-05
0.00192027
-5.61014e-06
-0.000222782
-9.81915e-05
0.00171302
0.000846164
1.96998e-08
2.41371e-06
2.76304e-07
-4.02989e-06
-1.19027e-05
-3.88982e-09
2.18448e-08
1.23872e-06
-8.66847e-05
-2.58283e-06
-0.000239533
-0.000197266
-1.00356e-08
-1.37334e-08
-9.23553e-05
0.000255317
0.000433281
6.50286e-07
3.03927e-05
2.83445e-08
-3.76262e-07
0.000468388
-3.83644e-08
-0.00062578
-5.96927e-08
7.66152e-09
-0.000543939
-7.35715e-08
-9.92996e-05
-3.32296e-08
-0.000479359
1.68277e-08
1.35183e-07
-6.94707e-08
-6.84622e-05
4.79228e-09
-9.18317e-05
3.06743e-07
0.00262969
0.00232266
-4.98227e-08
-3.89802e-09
0.000256283
0.00382115
2.47086e-08
0.000315139
5.9433e-10
-3.34806e-06
5.28599e-07
0.000510761
-7.81653e-05
-0.00237797
6.18224e-08
3.56558e-07
-3.92164e-05
-9.21203e-08
-2.34423e-08
-8.58923e-06
-8.6455e-09
0.00123505
-1.99683e-08
0.00117789
0.000812116
3.42502e-06
-0.000419094
-0.000349499
-3.48666e-07
6.99085e-07
0.00036221
2.27938e-05
0.00165667
3.1836e-07
-0.000471683
-0.00392401
-9.61483e-08
2.27342e-06
1.08387e-08
-0.000249862
1.09354e-05
-5.70491e-08
-7.21806e-09
-5.99109e-07
-0.000757378
2.07211e-07
-2.42211e-06
-1.84893e-06
-0.000148675
-3.17716e-09
-9.92677e-09
7.73199e-08
-0.000321042
-5.66854e-09
-9.0539e-10
-6.52317e-09
0.00169701
1.09985e-06
-0.000296137
0.000122267
-0.000269953
-0.000303051
-3.62581e-05
-0.00128795
1.62019e-08
0.000761729
2.36975e-05
3.16289e-07
2.29767e-08
2.46465e-05
0.00185793
0.000397874
-0.000745229
-0.000444177
8.89989e-06
-0.00328987
8.15363e-05
1.60422e-08
2.26434e-06
6.14721e-08
-2.0717e-07
7.55666e-09
-6.23974e-08
-0.000215874
3.03994e-08
-1.15062e-08
3.35359e-08
-5.2047e-10
5.51316e-09
-0.000205625
-0.000528191
-0.000142843
-0.00389121
-5.01317e-05
-7.68971e-05
6.3551e-06
1.39467e-09
0.000223034
1.01137e-08
-0.0039063
1.05804e-08
-6.79812e-09
-0.000116747
-8.48554e-07
3.79126e-06
3.44308e-08
0.00101487
-0.00551277
9.87921e-09
-0.000522795
4.56561e-07
-0.000109037
0.00204993
7.42995e-08
3.09493e-09
2.70631e-08
-3.97069e-06
-9.3069e-07
0.00016137
1.16538e-08
-1.69414e-09
8.15592e-09
-1.36097e-06
0.00222536
2.37023e-06
-0.00015032
-0.000726019
-1.85419e-06
6.50912e-05
2.51336e-07
5.38774e-05
-1.58336e-07
-6.93706e-08
1.07988e-07
-0.000307108
-1.0554e-06
-0.00412495
3.42741e-06
1.83837e-08
3.59144e-07
-2.53585e-09
-0.000386096
0.000737528
4.06867e-08
2.57413e-09
0.00123497
0.00108888
-1.8912e-05
2.92964e-07
6.31226e-08
-8.97205e-09
-4.37052e-09
-0.000395439
-2.72781e-08
-2.12465e-06
-0.000251994
0.000441948
-0.000161072
-1.09938e-06
0.00208572
-8.27246e-06
0.00309203
-0.000365377
7.60841e-09
1.19392e-07
0.000675959
-2.44968e-09
-1.05334e-07
-5.03395e-06
-4.80884e-08
-0.000595177
2.58554e-06
8.25259e-08
-0.000168756
1.07381e-07
3.39198e-08
-8.79606e-08
-4.59763e-09
-2.68706e-08
-0.000455933
1.91904e-07
-1.52939e-06
-0.00352426
-0.000235983
-4.3849e-08
5.04409e-05
-0.00138691
1.18614e-08
5.84323e-08
-3.01219e-06
4.86879e-08
-0.000475367
-9.26178e-08
2.7662e-06
1.35448e-06
8.39327e-06
-1.27633e-06
-1.5433e-09
-1.10183e-08
2.65784e-06
5.7105e-08
1.15339e-08
-1.44629e-06
5.85352e-09
6.81133e-08
3.30455e-07
-4.74846e-07
3.84746e-07
-8.57191e-08
-2.48739e-06
1.68707e-08
0.0017842
3.23786e-07
-4.72744e-07
-0.00040302
9.19832e-07
-9.82796e-07
-1.30884e-07
1.8216e-07
1.33744e-08
-9.10498e-06
-0.00121721
-6.07893e-08
1.28359e-09
0.000333656
-4.93675e-05
-0.00530638
1.10883e-07
0.000633741
1.8458e-08
-0.000544939
-3.48548e-07
0.00212266
-7.99935e-08
-5.42101e-06
1.22335e-08
9.1218e-07
-5.65659e-05
-0.000135697
9.76841e-09
-0.000179706
-1.71914e-05
1.45166e-06
1.04503e-09
-8.71826e-05
6.53264e-05
-2.53247e-10
-1.00688e-06
-2.81791e-05
2.53007e-06
1.63511e-08
-0.000136654
0.00087737
4.08231e-07
-0.00486556
-1.02323e-07
-0.000106798
-3.65918e-07
5.38314e-08
1.66536e-08
1.7909e-06
-0.00254174
-1.44965e-07
-5.97424e-07
3.22489e-08
1.65483e-06
5.27981e-07
-0.00150439
9.36978e-08
-4.18359e-08
-0.000132497
0.00222376
1.7485e-08
6.76963e-05
-0.00033186
5.92824e-08
1.2147e-08
4.92635e-08
1.4143e-08
-4.71252e-08
-6.92953e-05
1.96805e-05
0.00092581
1.28616e-08
-7.93053e-05
-2.58887e-07
2.24882e-06
1.41202e-06
1.02748e-07
4.71982e-09
-1.66204e-08
-0.00146039
2.64682e-08
0.00204112
3.83185e-08
-3.64903e-09
-3.49959e-07
0.000292855
-1.29533e-07
1.91339e-06
1.30774e-08
0.00370034
-3.4854e-06
-0.000204399
-0.000771235
-2.80878e-07
-0.0001417
0.000766101
-0.00223002
-0.00132798
-1.38257e-07
1.36734e-08
-0.00123032
-0.00108418
0.000354134
-0.000173964
9.81852e-08
-2.67619e-06
0.000259745
4.28454e-09
-1.55309e-07
-1.49923e-07
1.02434e-08
-0.000159586
-0.000198937
1.62154e-07
1.2404e-08
-5.41041e-05
-0.000658354
-0.00248462
-0.000768616
4.16556e-09
-4.09535e-05
-2.66735e-08
8.76896e-08
0.00164129
-1.04487e-07
0.00195694
-1.13957e-06
-0.000628837
-3.73563e-08
-2.08025e-07
0.000566189
-2.95192e-05
-0.000176101
0.00205731
1.64689e-08
-5.54071e-08
-4.62941e-09
-0.000446721
0.000462227
-1.85258e-07
-3.77249e-08
-2.64839e-06
0.000671327
-3.31381e-07
-9.87826e-08
6.16464e-07
-1.81368e-08
8.68614e-08
1.40956e-08
3.0124e-07
-1.67056e-06
8.66022e-09
0.00140124
3.42175e-07
0.000294693
3.29612e-07
7.06975e-07
-0.0012606
-8.37136e-09
0.000162089
-1.65343e-08
0.00166121
6.07989e-07
-6.33243e-09
-3.76931e-08
-0.000124692
2.241e-07
2.13674e-08
0.000237342
1.80805e-06
-1.36444e-05
-0.00189309
-8.02401e-07
1.05504e-07
-0.0045365
1.66672e-09
-3.53846e-08
-6.19388e-09
1.59596e-07
8.69666e-07
-7.41351e-07
-0.00204702
-0.000162173
0.000565969
7.50251e-07
-7.89589e-08
1.05697e-06
-0.00116585
0.00229028
6.63182e-08
-0.000127307
-1.8872e-05
0.00192221
4.50731e-07
1.00299e-08
6.34794e-07
-0.000209944
3.25285e-07
1.34034e-06
-0.000181659
-4.60226e-08
-2.63868e-07
-0.000117379
7.20824e-08
3.07858e-07
1.56541e-07
0.00138266
-0.00280757
-0.00151645
-0.00026717
-5.34412e-06
-5.43725e-09
-2.26951e-08
-1.45862e-08
0.00224935
0.000557609
5.19132e-08
-8.79065e-06
-2.46746e-08
-1.6953e-05
4.14678e-07
-2.39434e-06
4.1485e-08
1.53511e-07
5.60377e-06
-0.000141911
-1.00069e-05
-7.98201e-09
2.17719e-06
-1.46519e-07
-2.65602e-05
1.30871e-07
3.55865e-07
-3.14945e-07
-9.06066e-05
0.000195854
1.09157e-09
-1.17817e-07
-0.000189602
2.31018e-08
-7.31049e-05
-1.32331e-06
3.85389e-08
0.00200641
-0.000171971
-7.79462e-08
-3.54108e-09
1.60318e-08
-0.000176649
3.37263e-07
0.000137886
0.00022479
7.29611e-07
-1.25013e-07
-5.50318e-08
-0.000762376
1.22014e-08
-0.00280791
0.000285691
-1.21181e-06
3.68453e-06
2.52549e-05
-7.79514e-06
0.0008676
1.81236e-06
0.00135665
-0.000675829
-8.081e-08
2.14262e-07
-2.84189e-08
5.20001e-07
7.6653e-05
-1.31439e-07
3.38328e-08
2.49261e-07
9.75944e-09
-0.00114757
3.71701e-08
8.75171e-06
-0.000316543
2.06564e-07
5.42389e-05
0.0024237
1.79851e-09
1.65871e-07
-4.74804e-08
-2.70136e-05
1.11967e-06
2.82056e-07
1.75828e-07
-0.00021506
-2.47985e-08
0.000305613
-0.00169096
0.00229406
7.15948e-05
3.7333e-08
-0.00401794
-0.000145723
6.459e-07
6.13433e-07
-7.20957e-07
2.04294e-08
-0.000645122
-5.47349e-07
-0.000274635
0.00209163
4.549e-08
0.000244709
1.89209e-07
-2.95989e-07
6.09021e-08
-0.000154649
-0.000222318
-5.11915e-05
-0.000477183
-7.93406e-05
2.00105e-08
-0.000626319
3.94103e-07
-6.41994e-08
-3.06179e-06
-3.61541e-08
-0.00206667
0.00165799
0.000322329
-3.4897e-06
-0.000149329
6.22768e-09
-0.000688351
-0.00032169
1.17834e-05
-1.38456e-08
-7.95827e-09
1.24939e-07
-1.0431e-07
-2.04529e-08
4.53332e-05
-0.000175041
-1.50915e-09
9.36151e-08
9.39616e-10
3.16731e-08
8.75224e-07
-9.47432e-10
-0.00402959
3.95387e-05
-0.00254261
1.23563e-07
0.0015597
-8.40874e-05
-1.25712e-08
0.00185504
7.64239e-07
0.000256825
1.13851e-08
-2.30198e-06
-1.23186e-07
2.10089e-07
-1.69258e-07
-2.25877e-06
2.84495e-07
0.00195989
-3.77109e-07
0.000363469
-4.39375e-05
-1.499e-07
4.01125e-06
-0.000537414
3.8694e-07
-1.07269e-07
2.97736e-06
-0.000163817
-1.4083e-06
1.80288e-07
-0.000162617
-1.58394e-07
0.00159238
-0.00018953
2.57667e-09
1.15869e-07
-0.000718667
2.11042e-08
-1.15013e-08
-3.44093e-05
9.03298e-05
1.40248e-06
0.0011245
-1.14946e-09
2.28085e-09
-0.000498908
-2.49646e-07
-0.00266241
-4.2842e-05
4.42031e-07
0.00155226
1.38848e-08
-0.00286839
2.96353e-07
-0.000573058
5.50687e-06
-3.29451e-06
1.70914e-08
0.000160399
-6.52498e-08
-0.000138962
2.99411e-05
5.0617e-07
-1.2771e-06
-2.1617e-06
-1.02871e-07
-0.000841398
-4.63528e-08
1.86806e-05
-0.000168346
2.38814e-07
7.70766e-08
0.00206257
2.68742e-08
0.00227594
2.97334e-05
-0.00125486
-1.43508e-06
1.7882e-08
1.26827e-06
1.61115e-08
-3.39203e-07
-0.000347836
-3.58349e-09
-0.000534078
-1.86015e-06
-5.59337e-07
-1.38623e-07
1.68633e-08
0.00279112
-3.70253e-08
-5.42893e-08
0.00193091
0.00124805
-3.48826e-08
2.38195e-05
2.49723e-06
-0.000209654
3.0033e-07
1.29181e-06
-9.78899e-10
0.00238227
3.27008e-07
0.000220622
8.06076e-07
-0.000186705
-0.000721634
-1.77558e-06
2.49819e-08
5.69078e-05
-0.000283337
-3.31623e-07
-5.7362e-07
0.000259191
7.04998e-07
-4.12919e-08
-1.99671e-09
-1.09853e-06
-0.000151393
-0.000120391
2.58109e-09
-0.00246716
-0.000286306
-0.000272382
4.96179e-07
6.05221e-05
3.39109e-07
-1.47668e-06
1.88372e-05
-7.06893e-05
2.62123e-08
6.98136e-08
6.82575e-07
2.69823e-07
-3.40951e-07
1.43209e-07
-7.27321e-08
-0.000851775
-4.37182e-07
1.07718e-06
0.0024068
-8.97714e-09
1.84535e-10
-0.000266873
-6.10717e-08
-0.000570194
-2.03624e-08
-4.187e-08
3.56352e-07
-0.000610189
-0.000243161
-1.25181e-08
-1.5815e-07
3.59751e-09
2.71027e-05
7.56713e-09
4.1455e-09
-1.02736e-06
1.50501e-07
-1.05671e-05
2.23445e-08
7.22468e-06
1.39058e-07
-0.000184692
-3.47742e-05
-0.00514356
0.000366705
-8.76805e-07
5.25715e-07
-6.87878e-07
-1.43964e-05
-6.21321e-05
-0.000334749
-7.60793e-09
-1.69896e-07
-3.16966e-07
-3.36693e-07
-0.00565971
7.19757e-07
-1.17515e-08
-3.1577e-08
-0.000452139
2.30544e-06
-8.31085e-07
-0.000308189
-2.11286e-07
5.54246e-07
4.21304e-07
-0.000129138
-1.06338e-09
-5.26025e-08
-5.36636e-08
7.6017e-07
-1.25193e-06
3.69351e-07
1.47409e-05
-2.87452e-08
-0.000259065
4.29704e-08
-0.00202689
-0.000816316
4.3865e-08
0.00163984
3.65334e-05
-6.77186e-08
-6.74225e-09
1.15071e-08
-2.8715e-07
-0.00559231
1.15869e-08
2.0788e-09
-7.11228e-05
-0.00025487
0.000411372
-3.03342e-06
-8.39469e-07
-7.62087e-09
-4.51032e-07
0.00399077
1.85015e-08
-0.00130368
-6.27238e-10
-2.8501e-08
-0.00145191
-0.0118967
0.00254327
-4.49169e-07
-9.92044e-09
4.84604e-07
-3.7344e-08
2.3861e-08
-0.000253557
6.16107e-08
-1.50016e-07
3.71883e-05
-2.03164e-06
-1.28653e-05
1.35818e-06
-0.000315907
-3.34064e-08
-1.59193e-06
-0.00255881
1.952e-07
5.77492e-08
1.7598e-06
3.10425e-09
1.88188e-07
0.00109262
8.04688e-08
1.72022e-06
-5.96103e-05
1.54178e-08
-0.000133003
-9.94238e-05
-3.56206e-05
-0.00221909
1.94349e-05
-2.16507e-05
-4.44217e-05
-5.98141e-07
6.36842e-10
-2.80092e-05
3.8417e-07
-0.000639689
-2.62495e-08
4.86161e-09
1.64288e-09
0.000191788
-0.00012282
-0.000470293
-3.45234e-08
0.00213027
-0.000313782
-0.000681499
-1.38909e-06
0.00181806
-4.42877e-05
0.000128472
0.00367383
-6.51376e-07
-8.8872e-06
-1.82508e-07
6.71868e-05
0.000132018
0.000954621
-3.22516e-05
8.39455e-07
-6.44934e-06
-8.38999e-08
0.00216642
1.24746e-06
-1.15455e-07
6.446e-08
-1.76819e-06
-0.00199467
7.6056e-07
1.50586e-09
-3.95803e-08
-4.29621e-08
9.76368e-05
0.000720174
7.32137e-08
-0.00263021
-8.26355e-09
-5.18468e-09
6.90484e-07
-0.000284711
0.00138199
2.44073e-08
1.46766e-07
-1.12951e-09
-0.000762411
-0.000116281
-1.5902e-08
-5.03593e-08
0.00229177
7.44316e-08
1.78004e-08
1.01694e-07
-0.000390907
1.64493e-07
-6.66503e-10
0.000108095
-3.68553e-09
4.03165e-07
-0.000400767
-0.000283591
-1.08042e-06
-1.93733e-08
6.37607e-09
-0.00496465
7.87104e-09
1.16406e-05
0.00260853
-1.37921e-07
-3.5588e-05
-0.000515798
-2.07982e-06
2.13771e-08
8.89632e-05
0.000469295
-8.66179e-06
1.79148e-06
-2.39085e-08
3.82134e-07
-4.47854e-08
2.781e-07
-6.28474e-05
3.02462e-08
0.00182937
8.03926e-05
-0.000677386
3.26597e-07
-1.00013e-06
-0.00055542
-2.7926e-09
-0.000583371
0.000372118
2.91804e-09
-1.76308e-08
-2.20214e-07
-1.56665e-06
-4.61607e-07
0.000199978
-0.000127777
1.03844e-06
-1.90794e-08
1.90309e-05
-3.68913e-09
-0.000124928
-8.35723e-07
-0.00123087
-3.54855e-07
-0.000187461
0.00159167
1.84375e-06
-0.000144124
-0.00506898
-0.00258484
0.000797987
-1.59642e-07
-3.02996e-06
-8.94946e-10
0.000690967
-0.000843716
-2.21145e-09
0.00109748
-0.000181128
0.000610225
-0.000264599
-2.41643e-05
0.00214672
1.33793e-07
-7.37138e-07
2.89996e-07
-3.12939e-06
-0.000102633
-0.000700252
4.13607e-07
1.61024e-08
-0.00245854
-7.85179e-10
-0.000167333
1.24663e-07
-0.00232272
-0.000237638
-1.78903e-07
-5.17114e-07
-0.000193809
-1.55742e-08
3.82752e-08
4.12003e-06
-0.000969976
-5.56954e-07
6.70857e-08
-0.000720923
1.28395e-06
2.48781e-08
4.26116e-07
2.72996e-06
0.00103043
0.000506291
-1.54221e-05
0.000481767
-3.4897e-06
3.02637e-09
9.81051e-06
0.0023861
-1.5565e-06
3.41292e-07
-2.5958e-09
1.09384e-06
1.61379e-08
5.96187e-09
6.68664e-07
0.00220319
0.000791162
-0.00640835
0.00194053
-1.64591e-06
-1.27016e-05
3.06351e-09
0.00214542
-1.81083e-05
0.00121537
0.000571066
0.000483568
-7.90269e-07
2.96692e-07
2.84529e-09
0.000335466
-5.11753e-08
-6.0639e-08
-4.9839e-07
7.73283e-09
3.62553e-05
0.0011102
-0.000175003
6.35428e-08
-0.00440853
-0.000237584
-1.59951e-07
-3.63297e-08
-2.87182e-06
-0.00270077
7.11649e-08
-8.45502e-07
-0.0016996
-1.27875e-08
6.74347e-09
-1.97188e-06
-5.73947e-10
5.96623e-11
2.06938e-07
-8.63003e-09
-0.00014099
2.57741e-08
-1.53226e-08
9.44673e-07
0.00104303
-2.28469e-07
0.00281765
1.74713e-10
-1.52109e-07
1.53611e-07
3.9179e-07
-2.6976e-05
2.39651e-06
-0.000176607
-0.00115225
0.00298828
2.776e-05
2.06753e-08
-0.000497601
5.40014e-06
-5.66272e-06
0.00131775
7.90185e-05
0.000267209
-7.19603e-07
7.971e-08
-0.000849176
0.000937292
-1.43045e-07
2.93102e-07
1.75275e-08
-8.7332e-07
0.00222506
-4.70875e-09
2.80874e-08
0.00172237
-6.38129e-09
0.00176918
-5.87271e-07
-2.96131e-09
3.0685e-07
-1.36959e-07
-0.000133908
0.00306538
-4.68666e-06
-0.00144172
3.32755e-07
1.97283e-09
-6.43869e-10
6.06331e-06
4.45243e-08
-4.62406e-08
-3.03607e-07
-9.21493e-06
0.000124037
2.47835e-09
-8.42228e-05
0.00121507
-0.0056593
-0.000115016
-4.47729e-07
-7.50762e-08
3.80438e-08
-0.000169091
-0.000138823
-8.46558e-07
0.00179578
-0.00010414
-0.000133551
-1.24037e-07
-0.000155625
6.60719e-09
-1.76688e-08
-3.05465e-08
-7.6298e-12
-6.92881e-08
-0.0018602
-0.000235267
-4.70451e-05
8.05272e-05
0.000630548
3.17063e-08
0.000147977
3.00979e-07
3.50059e-08
3.65111e-07
-7.42957e-09
-0.00162718
-0.000158667
2.35965e-07
-0.000140723
0.00202807
0.00053718
-7.48809e-07
-6.04263e-08
-0.000133783
8.88435e-08
-0.000910566
-9.13404e-07
-1.59286e-06
0.000154217
-0.000606374
-0.00602093
-0.000119228
-0.000148987
3.53415e-06
-9.07507e-08
5.1264e-09
-1.81609e-08
-8.47783e-07
-9.01189e-05
-3.79485e-09
3.84828e-06
-2.11058e-07
-3.10822e-08
0.000130988
-0.000308836
4.90561e-07
7.53762e-05
-1.34369e-06
-4.50488e-05
-0.000324888
-2.41452e-06
-0.00158616
0.00105731
5.55955e-08
-2.12216e-06
2.68198e-05
0.000181126
4.41057e-07
-0.000647619
5.84205e-07
0.000647045
-1.38542e-06
-9.58802e-05
-8.70158e-08
-0.000116904
-1.52197e-08
-5.36993e-07
-7.53803e-05
2.54563e-07
-2.60615e-08
-0.000213823
-0.000154018
7.11525e-08
-6.53077e-05
-6.95933e-07
0.000353394
-1.03425e-05
-0.000164782
4.83132e-05
-0.000690743
1.13804e-07
0.000153127
3.41905e-06
-0.000164898
-1.32989e-06
-0.00149611
-4.00772e-08
-1.67716e-06
-1.16354e-06
-1.21497e-07
0.000567447
-3.88575e-05
2.54954e-07
0.000216605
-0.00398343
-2.42798e-06
-3.40203e-05
-0.00457933
7.88966e-08
-0.000628525
-2.57508e-07
0.000445267
-3.82299e-06
-0.00130756
0.000852082
-2.2152e-08
0.00175714
1.8395e-06
-1.10099e-08
-0.00909201
2.45644e-07
3.71884e-08
-5.98904e-08
-2.93901e-07
-0.000100555
0.00177694
-2.67859e-05
4.4691e-08
-0.000742535
-0.000228851
-5.23932e-05
0.000516235
5.90114e-08
-0.000110481
0.000686845
-1.9346e-08
3.4542e-08
-2.14251e-09
0.00154626
5.70893e-07
6.1323e-07
6.36292e-05
-0.000197535
-8.46556e-05
1.52178e-07
-7.35808e-07
-0.00455087
-0.0020491
7.87615e-09
0.000346257
-5.23711e-07
-0.000200984
5.02674e-09
6.28299e-06
1.12784e-08
-5.2126e-05
-3.97217e-07
-5.8083e-05
-8.65975e-09
8.68401e-11
0.00134658
-0.000373407
0.00105334
-1.09585e-06
-8.43731e-07
-2.17892e-08
1.38498e-09
6.17519e-06
-1.52954e-06
-5.55089e-09
-0.000212245
-7.50347e-05
-0.00147875
2.59288e-07
-1.33856e-05
3.09499e-07
8.837e-07
-0.00216549
-1.84316e-07
-3.14442e-05
-1.50035e-08
-8.4892e-07
2.19174e-07
-0.000158108
0.00115046
4.96684e-08
-6.7679e-08
-0.00722398
2.30154e-07
-0.000115866
0.000623396
6.79494e-05
-3.71249e-08
-2.08046e-09
-6.49145e-09
-1.85057e-08
-4.37888e-08
0.0016665
-0.000188127
1.92296e-06
-2.06174e-07
-5.72649e-09
-0.000179566
0.00209719
0.00296371
2.13283e-09
-2.04225e-08
1.49608e-08
-2.06858e-05
-6.24634e-07
-1.66863e-07
-2.88264e-09
1.99488e-08
3.4949e-09
-3.80968e-09
-4.37991e-05
-6.37206e-08
8.19972e-05
-6.09348e-09
1.3639e-06
2.19369e-07
0.00174265
-0.000170916
-1.69552e-06
3.59395e-05
-3.59116e-06
1.17354e-05
9.81497e-07
-6.65305e-07
1.99993e-06
-5.92416e-05
-0.00215642
0.000247094
-0.000653751
1.51409e-08
-0.000688648
8.78085e-07
-0.000203983
-2.95638e-08
-0.000839082
-1.92545e-08
2.2147e-07
3.22659e-07
-3.64081e-07
2.56737e-08
-0.00020458
-0.00682973
9.21493e-07
-1.1771e-06
-0.00062453
-0.00043984
0.000654849
-1.59833e-07
-4.91994e-08
1.49514e-08
0.000177072
-0.00023354
9.18153e-06
-1.5544e-08
-0.000933648
-5.73726e-09
4.05038e-09
-0.00155187
-0.000209124
-1.24047e-06
0.000333438
-0.000155535
-5.86654e-05
-1.54283e-08
-1.24775e-08
-5.22458e-06
-1.3197e-08
-3.38603e-09
-9.26653e-10
1.01533e-06
-8.1359e-05
2.90042e-08
-1.0903e-06
-4.4726e-06
-0.000183949
-0.000200992
0.00108799
-1.85361e-06
-9.40869e-05
6.42042e-08
-8.20956e-08
0.002578
-0.00277961
-4.64391e-07
3.82225e-07
0.00244502
3.23526e-06
-1.3763e-06
6.04087e-08
-7.06198e-07
0.000842914
2.64998e-06
-0.000617586
6.08795e-06
1.91061e-07
2.22347e-08
0.000319472
0.00112513
-8.80688e-05
-9.10413e-07
-0.000751439
7.11274e-08
4.11568e-08
-5.38609e-05
0.00217282
3.6776e-07
2.22511e-07
1.1648e-08
-6.20325e-08
-0.000166544
-0.000400803
-0.000569761
-0.000698621
1.35908e-06
-1.30566e-07
0.000201842
0.0036722
2.1954e-08
-2.57192e-07
-3.0398e-07
-0.00182069
4.91202e-07
5.78347e-08
-0.000741809
-1.055e-06
0.000979644
0.000672914
2.54525e-07
2.62331e-06
-9.19453e-09
3.1255e-09
-0.000250168
-6.29537e-06
1.01215e-08
-0.000123537
-4.9761e-09
7.5595e-07
1.02955e-08
-0.000702283
6.76822e-06
-6.47188e-08
6.11836e-05
-1.00805e-05
-0.000343004
-0.000160771
2.76853e-05
1.78719e-08
-0.000282382
0.0016658
-0.000153583
6.1211e-07
2.13873e-08
-0.000510828
0.00170453
2.24747e-05
0.00566617
-0.000213836
2.39547e-06
5.67379e-07
0.000568267
-0.000198052
4.99354e-06
-1.37273e-07
-0.000224148
-0.00446446
5.12621e-09
2.35644e-07
0.00157866
-9.9647e-06
-0.00014268
-2.49488e-08
1.59044e-09
0.000986214
-0.00171483
0.00264595
-0.000287942
-0.000166394
-0.000154541
-2.7961e-06
0.000812861
-0.000257746
-0.000406838
1.64091e-08
-6.9125e-09
4.13903e-05
-8.81225e-05
8.48283e-09
-0.000289326
7.13513e-05
0.000211585
0.000239349
-3.33098e-08
1.0474e-08
-1.65018e-07
0.000101246
-8.1435e-07
1.85367e-07
6.74176e-08
-0.0002233
-3.7234e-08
5.66354e-06
4.01283e-09
-0.00126184
3.12748e-07
-0.000525856
-1.11712e-07
-4.51106e-06
-2.79422e-08
-2.26824e-09
-0.000219834
0.00195622
4.3058e-07
7.69884e-10
0.00092856
-0.000268421
-8.25466e-06
-0.000276984
-8.28915e-07
-0.00101327
-0.000278197
-4.95868e-09
-8.34131e-05
0.000104478
-1.82424e-05
1.92449e-08
-2.28824e-06
0.00153101
-0.000641133
0.00137531
0.000384737
1.98482e-06
-0.000805229
-0.00152746
3.20056e-07
-3.3835e-08
1.34571e-05
5.54018e-09
-7.55486e-05
-0.000131869
0.000621628
-8.77587e-08
-1.75351e-07
-2.07314e-06
2.46391e-06
-0.000184184
0.00022454
0.000449833
-9.76307e-07
-2.67221e-06
0.00128163
-0.00050232
0.00165283
0.00232099
-0.000230044
0.000846726
-1.02489e-08
-0.00014317
0.00197474
-0.00043958
-0.000307238
0.000301643
6.96962e-10
1.41721e-07
-1.06424e-06
-6.17395e-06
9.64479e-07
-2.61338e-07
-1.27403e-07
-3.18637e-06
-4.41945e-06
-0.00325501
2.99398e-06
0.000287656
0.000547269
-9.69902e-05
-1.02008e-08
2.22348e-05
-9.26881e-08
-0.00021728
-9.12654e-07
1.2849e-05
2.36239e-07
-0.00175979
1.35097e-06
5.5716e-09
-9.218e-09
0.00148333
4.82437e-08
-1.85944e-06
1.37376e-06
-1.68807e-06
-3.17253e-08
3.55949e-05
2.57139e-07
-2.0022e-07
1.87134e-06
-4.57413e-07
-0.000252411
2.52765e-09
8.80192e-05
-0.000725462
-0.0032222
-1.97929e-05
1.11774e-06
2.65972e-08
-0.000544739
0.00169385
-3.79519e-07
-1.21557e-06
4.15782e-08
-3.56436e-08
-2.54428e-08
-5.02587e-06
0.00185979
0.00276388
-7.68203e-07
0.00273539
-0.000682104
2.09892e-06
7.76775e-06
0.000185598
1.85209e-09
3.17979e-08
-0.000135367
0.00234192
-9.33209e-07
1.24534e-06
-7.40754e-09
3.67181e-05
-1.73163e-06
0.00159146
-0.000345376
6.13237e-08
3.35086e-06
-4.13613e-08
-0.000213561
-0.000788667
0.000299125
6.45128e-08
2.96674e-09
-0.00015776
-4.318e-09
-7.34956e-07
-4.26439e-06
-0.00358341
-0.000604133
-0.00024351
-0.00107878
-4.63201e-09
-8.0523e-08
0.00182683
-0.000335308
-3.22999e-08
0.00137693
3.23609e-07
3.87877e-06
-1.68944e-07
-2.43155e-07
1.4247e-10
1.70611e-07
2.71359e-06
-0.000294029
-1.44722e-06
-0.00015238