/*--------------------------------*- C++ -*----------------------------------*\
| =========                 |                                                 |
| \\      /  F ield         | OpenFOAM: The Open Source CFD Toolbox           |
|  \\    /   O peration     | Version:  v2012                                 |
|   \\  /    A nd           | Website:  www.openfoam.com                      |
|    \\/     M anipulation  |                                                 |
\*---------------------------------------------------------------------------*/
FoamFile
{
    version     2.0;
    format      ascii;
    class       volScalarField;
    location    "400";
    object      k;
}
// * * * * * * * * * * * * * * * * * * * * * * * * * * * * * * * * * * * * * //

dimensions      [0 2 -2 0 0 0 0];


internalField   nonuniform List<scalar> 
13749
(
0.0156509
0.00015482
0.000170217
0.000150478
0.0399806
0.000133504
0.0234061
0.000143704
0.0002011
0.000150589
0.000133211
0.000169522
0.000171023
0.0273057
0.00015263
0.0272791
0.000183675
0.00015349
0.00170385
0.000145537
0.0363298
0.0518559
0.000109584
0.0001606
0.000166768
0.000138963
0.000161463
0.000193233
0.0521773
0.0321922
0.000306737
0.000166779
0.000202703
0.000152962
0.00888468
0.029119
0.0562451
0.000158457
0.00884662
0.0205257
0.000144364
0.000204211
0.00015152
0.0524388
0.000162642
0.000152553
0.000151106
0.000171148
0.000179196
0.000159071
0.000160237
0.000156967
0.0205512
0.000151145
0.000156522
0.0280649
0.0538001
0.000164583
0.000157471
0.000195017
0.000165858
0.000301228
0.000174389
0.000123705
0.00018628
0.00667895
0.000167024
0.000124807
0.0239341
0.0128573
0.000171296
0.00146909
0.00015962
0.0518458
0.000156266
0.0389287
0.000143481
0.000133703
0.0235314
0.000155309
0.00018276
0.000171532
0.000187013
0.000146721
0.0612937
0.000138921
0.0138772
0.000167976
0.0406333
0.000185233
0.000160328
0.000494363
0.00013292
0.000204998
0.000157184
0.0454172
0.0173357
0.000188647
0.0211509
0.00014553
0.000164904
0.0249985
0.000162505
0.00020619
0.000132786
0.000143972
0.000159592
0.00217693
0.000135582
0.0342452
0.000158362
0.000222094
0.0204954
0.000158438
0.000190858
0.000137804
0.000142881
0.000168674
0.000194204
0.000158402
0.000145549
0.000171261
0.000140234
0.00014818
0.000147155
0.0537398
0.000159197
0.000144475
0.000147998
0.00904011
0.000150765
0.0169737
0.00019149
0.0204127
0.000204891
0.0510381
0.0327838
0.000192393
0.000146407
0.000146429
0.036861
0.000146993
0.000146492
0.00797436
0.000160559
0.000141504
0.0425067
0.0235248
0.051372
0.0481787
0.000146512
0.0344766
0.000139016
0.000577713
0.0567785
0.000143557
0.0176102
0.00039993
0.000180126
0.000152721
0.000172524
0.000132521
0.000233555
0.000146591
0.000251249
0.000161694
0.000146076
0.000143846
0.0468125
0.00029661
0.000150242
0.000132414
0.0554042
0.0372376
0.000120232
0.000161294
0.000209039
0.000468091
0.000192945
0.0354342
0.000155646
0.000172067
0.000211057
0.00895296
0.000170881
0.000146925
0.000151235
0.000148991
0.00818376
0.000177139
0.0405105
0.000224025
0.000154055
0.000171775
0.000138755
0.000146787
0.000193664
0.00018727
0.000177774
0.00345019
0.0260134
0.000171432
0.0576346
0.0225102
0.000142987
0.0181594
0.000205037
0.0573369
0.000145452
0.000146057
0.000156188
0.00765673
0.000164764
0.000155158
0.0168632
0.00785403
0.000172788
0.0260377
0.000151919
0.000146989
0.00014489
0.0336863
0.00020214
0.000155308
0.00978391
0.0415713
0.00807603
0.000178854
0.0185973
0.000151015
0.00951582
0.00799015
0.000151168
0.000138925
0.000146602
0.000134711
0.046015
0.000167456
0.000201651
0.000146953
0.0215855
0.000329564
0.000150943
0.000170284
0.000145093
0.000142419
0.000155417
0.0001554
0.000671253
0.000205273
0.000144012
0.000144791
0.0488305
0.0372992
0.000149319
0.000141541
0.0387613
0.000201761
0.000149411
0.000142516
0.017313
0.0594039
0.00015893
0.000182342
0.000156934
0.000134925
0.000142124
0.000373641
0.0503715
0.000146029
0.00015431
0.000164679
0.0332094
0.0165762
0.000170766
0.0232854
0.00555679
0.000167344
0.0497051
0.000155422
0.00255965
0.00918513
0.0339317
0.000172143
0.0184662
0.000145793
0.000219386
6.98474e-05
0.000140939
0.0164368
0.0408645
0.00020323
0.000171535
0.000169296
0.059813
0.0582474
0.000150918
0.00015625
0.0197113
0.000143989
0.0603737
0.000216667
0.0461244
0.000164637
0.000193815
0.0355019
0.0512482
0.000154707
0.0405476
0.000141136
0.00014807
0.000178966
0.0189102
0.000179097
0.000188563
0.000159047
0.000593109
0.000148177
0.000204766
0.0001453
0.000147447
0.000146045
0.00016478
0.00685438
0.000159544
0.000173342
0.0381692
0.000147326
0.000152611
0.053304
0.0591107
0.000156586
0.00013935
0.0100748
0.000159492
0.000143327
0.00393908
0.000143507
0.02887
0.0205318
0.000133275
0.0360227
0.010487
0.000169398
0.000140198
0.000187304
0.000180295
0.000169681
0.000142254
0.00496305
0.000164456
0.0271401
0.000165064
0.00021164
0.000177803
0.000179481
0.000148661
0.000171182
0.000164251
0.00145209
0.000148512
0.000167875
0.000191717
0.0379785
0.00014074
0.000376097
0.000139169
0.000196267
0.000144134
0.000149774
0.00172703
0.000140674
0.000150022
0.000432558
0.00015612
0.000146602
0.000145914
0.000162411
0.033342
7.02694e-05
0.00015118
0.000146786
0.000138596
0.019531
0.000194748
0.00631396
0.0339184
0.000221796
0.0283526
0.0368294
0.000143663
0.000143927
0.000161745
0.00768396
0.0295385
0.000143847
0.000152197
0.000151074
0.0482896
0.000149447
0.000186234
0.000155718
0.000103692
0.000217385
0.0018259
0.00630695
0.0612058
0.000148055
0.000359622
0.016469
0.000141273
0.00109518
0.000155357
0.00396795
0.000132231
0.0085738
0.0354935
0.00015774
0.0226222
0.0376376
0.000142358
0.000166795
0.036797
0.000171626
0.000163233
0.000154093
0.000144731
0.000163659
0.000148458
0.000150836
0.000190064
0.000166398
0.000157357
0.000140815
0.000154663
0.000164901
0.000149482
0.0123828
0.000171218
0.000140787
0.0182589
0.0442532
0.000163781
0.0313305
0.0199773
0.0301711
0.000174783
0.000151043
0.0434162
0.00411676
0.000184818
0.000223304
0.000139701
0.000147628
0.000149465
0.00017215
0.000148032
0.0401762
0.0379358
0.0632897
0.000146483
0.000151531
0.0176232
0.000146089
0.0396468
0.00503276
0.000158008
0.000184547
0.000189026
0.0326029
0.000167393
0.0306891
0.000142598
0.000158956
0.000147785
0.0266755
0.000292957
0.000211039
0.000162223
0.0217328
0.000147525
0.000159763
0.000142376
0.000151255
0.000142459
0.000144883
0.000152293
0.000146227
0.000173718
0.0199263
0.000141348
0.000186354
0.000132426
0.000146946
0.0593821
0.0222844
0.0510538
0.000164024
0.000255333
0.000192778
0.0119647
0.000170681
0.000179347
0.000145301
0.0580702
0.000144978
0.000148033
0.0205771
0.0325118
0.000150922
0.00433517
0.0461456
0.000167678
0.0323366
0.0229397
0.000137269
0.0464421
0.000147673
0.041126
0.00600412
0.000152949
0.000145163
0.0200004
0.000160714
0.00014244
0.0394913
0.0606022
0.0105213
0.000167703
0.0214144
0.000154548
0.00015622
0.0314631
0.0203459
0.000174306
0.0399478
0.0392398
0.000157193
0.0525719
0.000161555
0.000142668
0.0332037
0.0380977
0.000178857
0.0001522
0.0534681
0.000164163
0.000146514
0.0313797
0.025123
0.0615672
0.000148969
0.055498
0.000176816
0.0170196
0.000148773
0.000211835
0.0486078
0.000163739
0.000168425
0.000150448
0.0190917
0.0121896
0.000133359
0.000122755
0.000151486
0.0129899
0.00649445
0.000154804
0.000199146
0.000148439
0.000155108
0.0496523
0.000205042
0.000161115
0.0390433
0.000191575
0.0320569
0.000164229
0.000151123
0.0138548
0.000162951
0.000183481
0.0233882
0.000157392
0.00652656
0.00757635
0.000168267
0.0565837
0.000180224
0.0248231
0.000218346
0.0102476
0.000397441
0.000262093
0.00937722
0.000134102
0.0600712
0.0515058
0.000163611
0.00919038
0.000146123
0.0584068
0.0488985
0.0375128
0.0346106
0.000146987
0.000144789
0.000152143
0.00709077
0.000150674
0.000178695
0.00018514
0.00133962
0.00018919
0.000384045
0.000163252
0.000190119
0.0293195
0.000157782
0.000154993
0.0146125
3.01806e-05
0.000146073
0.00541632
0.000167521
0.0507585
0.000146409
0.000165515
0.000139842
0.000158702
0.0274955
0.000185788
0.000203461
0.000183587
0.0315714
0.000141018
0.00015852
0.000148122
0.0217702
0.000181702
0.0228561
0.0265475
0.0335276
0.000145673
0.04602
0.000151325
0.00280391
0.000160839
0.00019159
0.0602264
0.00182055
0.00835536
0.000203087
0.000160107
0.000193114
0.000143023
0.000225551
0.00675519
0.00612094
0.000155603
0.00522028
0.0409079
0.0464003
0.0300575
0.0414524
0.0402767
0.0290657
0.000145795
0.000174698
0.000191048
0.000184037
0.000156402
0.00013847
0.000153012
0.00018563
5.38025e-05
0.000158265
0.0459311
0.00800715
0.000143032
0.000153539
0.0270509
0.0518426
0.0208288
0.000155518
0.0186289
0.00014483
0.000152155
0.0277291
0.000191352
0.059939
0.000144692
0.000133341
0.0595118
0.000163019
0.0529397
0.000147695
0.0557753
0.000179276
0.000167138
0.000144156
0.000204773
0.000139191
0.0542045
0.000164041
0.00424483
0.00339107
0.000146969
0.00014378
0.0102396
0.0260663
0.000146391
0.0375113
0.000139398
0.00017076
0.0001551
0.0173334
0.0285876
0.00304854
0.000149626
0.000151167
0.000202265
0.000148937
0.000151276
0.00618962
0.000142914
0.0292829
0.000142807
0.0487204
0.0123986
0.000199891
0.0598087
0.0507706
0.000188926
0.000156593
0.0172379
0.000217916
0.00888147
0.000159726
0.000570004
0.00273045
0.000150663
0.000205461
0.000144936
0.0339261
0.00017382
0.000143506
0.000158856
0.000165582
0.00719666
0.000150683
0.000168187
0.000165706
0.0333215
0.000145835
0.000142566
0.000171795
0.0483207
0.000145618
0.000145622
0.000137461
0.00023589
0.000179201
0.0472233
0.000109427
0.0470751
0.0387745
0.000120586
0.0511311
0.000135893
0.0367749
0.000137556
0.00016706
0.00015764
0.000223548
0.00609971
0.0312581
0.0425593
0.00233909
0.000159192
0.0025301
0.0181855
0.000135508
0.000174738
0.000157808
0.00015854
0.000147445
0.000150058
0.0332905
0.000146722
0.000149234
0.000146904
0.000140379
0.000159153
0.00952188
0.00025652
0.0200697
0.0325427
0.0326113
0.0336315
0.0238642
0.000139263
0.0267943
0.000145656
0.000132596
0.000147069
0.000138918
0.0595246
0.000175139
0.000199
0.000151224
0.0333163
0.0330907
0.000138242
0.0519212
0.000151626
0.0297432
0.0476506
0.000157586
0.000144598
0.000141798
0.000184749
0.000207979
0.000206935
0.000142313
0.000136969
0.00013779
0.00019373
0.0458917
0.000175279
6.52427e-05
0.0575978
0.000166918
0.0598044
0.000151059
0.00486372
0.000147789
0.000150461
0.000163742
0.0481583
0.000153005
7.46284e-05
0.000200147
0.000141167
0.000168627
0.000143961
0.0523703
0.0355707
0.000154723
0.000139252
0.0619746
0.00569273
0.000163922
0.000151703
0.000151184
0.000157684
0.000136705
0.051054
0.000143328
0.00018808
0.0354092
0.00645714
0.00556584
0.00016122
0.0312809
0.000204376
0.0249391
0.035728
0.000146
0.000153544
0.000889748
0.00014451
0.000151762
0.000219731
0.000155156
0.00044648
0.000176289
0.000155426
0.0229119
0.000158231
0.000165361
0.000154201
0.000141766
0.00015008
0.0495226
0.000163501
0.000166145
0.0286337
0.00743524
0.000143356
0.000126607
0.0451717
0.000135574
0.000148264
0.000182448
0.000153553
0.0539601
0.000162913
0.000200949
0.00015457
0.00020778
0.000151862
0.00014508
0.000146895
0.000162095
0.000183533
0.000145646
0.000169246
0.000144622
0.000161209
0.000153736
0.000161234
0.000157974
0.000151392
0.000178035
0.000131915
0.0434396
0.000152584
0.000151653
0.0528731
0.000195421
0.000149177
0.000158981
0.000171859
0.000139081
0.000221336
0.0530365
0.000147138
0.000146012
0.0252424
0.000140644
0.000968871
0.000155657
0.0259468
0.000134638
0.0551186
0.00015281
0.0434234
0.000161377
0.000177885
0.000148736
0.000163386
0.0347033
0.0203941
0.000138575
0.0103559
0.0321872
0.000158657
0.000144564
0.0269844
0.00538333
0.000142266
0.000162265
0.000170948
0.000180694
0.000140027
0.0268929
0.0375269
0.000157313
0.0076152
0.000153196
0.0344383
0.000175488
0.000146265
0.000139931
0.000154552
0.0283175
0.000147332
0.000153425
0.000165778
0.000222763
0.000167611
0.0451545
0.000145046
0.00014386
0.00019599
0.0460689
0.000136589
0.056606
0.0335649
0.000139222
0.000135772
0.000138917
0.000146207
0.000143878
0.000562624
0.00496309
0.0255052
0.000139405
0.0173096
0.000153667
0.000161621
0.000158932
0.000158596
0.000146123
0.000150387
0.000270597
0.000143168
0.0414491
0.000146357
0.000138301
0.000169692
0.00967224
0.000144997
0.000178503
0.000136617
0.0333012
0.000158598
0.030325
0.0584444
0.000153243
0.059036
0.0116435
0.0277658
0.0502181
0.000145067
0.000136191
0.0290884
0.00598076
0.0327528
0.0232636
0.000149105
0.000161057
0.00873476
0.00014886
0.000196299
0.000180273
0.000144801
0.0429129
0.00998807
0.000155681
0.000142284
0.000193744
0.056624
0.0038261
0.0579769
0.000139683
0.000153907
0.000144876
0.000148917
0.0222915
0.000144374
0.0502729
0.000162834
0.0510272
0.000143986
0.000182983
0.00606948
0.00364994
0.0106579
0.0315222
0.000134072
0.000148087
0.000138304
0.051241
0.0613026
0.000154653
0.000146664
0.000185006
0.0407751
0.000177252
0.000153401
0.000146222
0.000151999
0.000149229
0.000133732
0.000182251
0.00016354
0.000146755
0.00494209
0.000152994
0.00674294
0.000171313
0.000183155
0.000304881
0.000142989
0.0307626
0.000145371
0.00568665
0.000155704
0.00014558
0.000163374
0.029746
0.000148632
0.000143637
0.000213727
0.000196518
0.000174753
0.0277476
0.000166987
0.000156614
0.0100787
0.000140391
0.000147569
0.000138776
0.000162247
0.000152865
0.000152467
0.00306075
0.0106853
0.0644429
0.000170038
0.000145188
0.000177595
0.00142627
0.0464699
0.000147652
0.00707559
0.000142171
0.0468292
0.000159711
0.000137428
0.000159048
0.0281216
0.000158133
0.000168885
0.00835287
0.000151203
0.000165226
0.0375305
0.000145364
0.000153507
0.000163775
0.0380095
0.00214156
0.0352643
0.0356009
0.000207834
0.00013651
0.000151644
0.000143895
0.00748898
0.0550774
0.00015347
0.00108229
0.000147094
0.000174512
0.000169165
0.000210315
0.00016032
0.000163653
0.00022024
0.0200477
0.0001519
0.000137237
0.0001978
0.000147763
0.00975485
0.000150817
0.0001564
0.000154403
0.032591
0.0456845
0.000140276
0.000145416
0.0101997
0.000156342
0.0167934
0.000163297
0.000149114
0.0408004
0.00710412
0.000147885
0.000138416
0.0001513
0.060095
0.00014511
0.000220793
0.000229857
0.000163812
0.000144563
0.000166422
0.0221092
0.000145658
0.0320204
0.00851559
0.000173062
0.000198344
0.00018809
0.000186315
0.022668
0.000175643
0.0471794
0.0570831
0.000163447
0.000157324
0.000143091
0.000177749
0.000140217
0.000148067
0.00014818
0.000154674
0.000136965
0.00577795
0.000143904
0.000202934
0.00015953
0.000153319
0.000220309
0.0430486
0.000136766
0.000147909
0.000147169
0.00022008
0.000157363
0.000169428
0.000166605
0.00714961
0.000169246
0.00566331
0.0407634
0.00249256
0.0417526
0.000150485
0.00375514
0.0301296
0.000154336
0.000146711
0.00021957
0.000147102
0.0563758
0.000186081
0.0191905
0.031868
0.000145168
0.0286806
0.000149108
0.000158066
0.000159492
0.0379946
0.0354945
0.0468425
0.0543914
0.0603406
0.000144198
0.055968
0.000159947
0.000143998
0.000183759
0.000165082
0.02756
0.0038144
0.00100679
0.000201366
0.000194686
0.00013383
0.0506353
0.0403347
0.000208237
0.000139466
0.000138285
0.000187611
0.000156213
0.00015612
0.000207323
0.0282729
0.000136902
0.000151299
0.000136715
0.000152275
0.000147511
0.000139173
0.0365431
0.000222799
0.00583817
0.000165672
0.00321051
0.000219704
0.000144297
0.0394003
0.000178776
0.00719553
0.000149719
0.000193617
0.000159247
0.000159306
0.000148506
0.000171982
0.000170005
0.00472191
0.000199192
0.0199111
0.0263763
0.000158626
0.00020145
0.0515678
0.000142392
0.000163154
0.000188922
0.0351567
0.000183529
0.000148552
0.0234292
0.000145619
0.00513505
0.0338017
0.000139322
0.000149144
0.00562758
0.000144268
0.000164012
0.000216995
0.0156575
0.000204404
0.0336361
0.000160084
0.000136933
0.0361326
0.000158989
0.00842026
0.000164592
0.000158888
0.0569558
0.000145768
0.00145862
0.000180925
0.00581879
0.000193611
0.000176325
0.000135259
0.00574392
0.000173915
0.00580739
0.000220071
0.000189526
0.00015414
0.000179448
0.000149982
0.0281929
0.000152068
0.000226794
0.0380019
0.000159207
0.000160873
0.0437271
0.000147161
0.00338062
0.000221573
0.0482676
0.000168818
0.000136442
0.000188523
0.000143419
0.000178699
0.0612513
0.000149955
0.000627435
0.000180122
0.00015997
0.000148327
0.000134872
0.0337203
0.00014599
0.000144823
0.037019
0.00336628
0.000155996
1.73822e-05
0.000198279
0.038356
0.000148225
0.000180158
0.000141612
0.035039
0.000161937
0.000186122
0.000152566
0.0283555
0.0355035
0.000171642
0.00014738
0.0204945
0.0357436
0.000169322
0.00016612
0.000346944
0.000217622
0.000146476
0.00014062
0.000166003
0.0201961
3.67588e-05
0.000135926
0.00324738
0.0356534
0.0387405
0.000146638
0.000152827
0.000166995
0.00015754
0.000102004
0.0564011
0.000152472
0.00014701
0.00018065
0.000147878
0.000155406
0.000141321
0.000143455
0.0269735
0.00015231
0.00018948
0.0447055
0.000141738
0.000136127
0.0356968
0.000148473
0.0539226
0.000147138
0.000145795
0.000167553
0.033484
0.0388903
0.000149725
0.000155818
0.000145301
0.00216605
0.000141459
0.000140822
0.000155487
0.000147704
0.000161882
0.000137152
0.000109264
0.000158367
0.0455913
0.0104764
0.00411971
0.000243995
0.000160575
0.000151617
0.000157232
0.000210593
0.0263941
0.000117068
0.000144066
0.000172109
0.000188271
0.000151445
0.0378072
0.000172234
0.000144562
0.000150901
0.0539763
0.061928
0.000158943
0.0557815
0.000167907
0.000160435
0.000153305
0.000205623
0.000145469
0.000143316
0.000144416
0.000184593
0.000167964
0.000176677
0.000219257
0.000143285
0.0339743
0.000153405
0.00414156
0.0230854
0.000190832
0.0315919
0.000217223
0.000158631
0.000139324
0.000141934
0.000158249
0.0116556
0.000173039
0.000141838
0.00917484
0.0299164
0.0216314
0.000188113
0.000156349
0.000147361
0.000208028
0.0301839
0.000143672
0.0241261
0.000145292
0.000143528
0.00480739
0.000555368
0.0426895
0.000172689
0.000143006
0.000165683
0.000158644
0.000172793
0.0406766
0.000154853
0.000176264
0.000209552
0.000186662
0.000153174
0.000153582
0.0389379
0.000205536
0.000169347
0.0245469
0.000181163
0.000147121
0.000174032
0.00015216
0.000161945
0.00249553
0.000147463
0.000164685
0.0042441
0.00014249
0.00538884
0.0221874
0.000156552
0.0362692
0.0158706
0.0279255
0.000242434
0.000185343
0.000135823
0.0429734
0.000166065
0.056028
0.000138749
0.00014254
0.000149013
0.046683
0.00794087
0.00490356
0.000152369
0.0329168
0.0391135
0.0357845
0.000200872
0.00552411
0.0273468
0.000223835
0.031471
0.000164889
0.000199121
0.000173108
0.000165158
0.000100733
0.031112
0.00511657
0.000152463
0.000172003
0.000149538
0.0274121
0.0191854
0.000148578
0.000161673
0.000207956
0.0301149
0.000165662
0.000141684
0.000146607
0.000144565
0.000196516
0.0513062
0.000149664
0.00451241
0.000145491
0.000142281
0.000169178
0.0391264
0.00759598
0.000144883
0.000155748
0.000135893
0.0030603
0.0280904
0.000145031
0.000148225
0.0369341
0.000150628
0.000143001
0.000162482
0.0234525
0.000156155
0.000140695
0.000185775
0.000136783
0.000157166
0.00703014
0.0356099
0.000158027
0.000142852
0.000132888
0.00924736
0.000142692
0.000650409
0.0360292
0.000148113
0.0496531
0.0543884
0.000204836
0.000142669
0.000120772
0.0345036
0.000161056
0.000161976
0.000147641
0.000179765
0.000173151
0.00018114
0.000247488
0.000145776
0.00902297
0.000431148
0.0590509
0.000158249
0.000156551
0.055524
0.000139706
0.0577249
0.0348769
0.000157889
0.000148563
0.000146209
0.000165252
0.000158635
0.0259392
0.0329878
0.000166035
0.000147004
0.000162942
0.000141842
0.00578379
0.000152855
0.04424
0.000186542
0.00760516
0.00410061
0.000168155
0.0248708
0.0110276
0.039363
0.0476052
0.000151185
0.000161564
0.00013178
0.00142301
0.0226768
0.000138065
0.00571107
0.0087343
0.00344389
0.0338354
0.000160567
0.0361585
0.000148232
0.000219289
0.000156297
0.000204008
0.0016923
0.0569026
0.000151591
0.000134291
0.0365428
0.000145693
0.00090385
0.000148995
0.00877037
0.0466031
0.000160536
0.000156976
0.00744119
0.000155543
0.000146072
0.0166568
0.00219652
0.000164602
0.000146173
0.0586341
0.000205872
0.000146571
0.000193251
0.000193724
0.0303805
0.0334175
0.00822203
0.000419111
0.00020487
0.000140676
0.000200116
0.0400451
0.000163266
0.000178042
0.000134784
0.0001604
0.000143832
0.000144908
0.000203751
0.0130348
0.0659841
0.0272002
0.0438853
0.00016798
0.000202625
0.000141428
0.0360742
0.00740042
0.00550436
0.00460811
0.0197174
0.000164319
0.000177967
0.000139214
0.0279115
0.000144289
0.00015152
0.000155732
0.00016608
0.00880635
0.00732471
0.0111008
0.000139295
0.00505562
0.0354086
0.00014589
0.000145274
0.000202436
0.0107112
0.000156533
0.000158473
0.0253008
0.000143648
0.000171259
0.000171002
0.000141422
0.000139524
0.000158331
0.000141393
0.00386939
0.000143429
0.000140015
0.00017002
0.00220236
0.000178348
0.0296078
0.000172005
0.000174998
0.000176655
0.000157508
0.00553876
0.000186517
0.00809144
0.0471203
0.0150092
0.00961432
0.000147937
0.0546204
0.00020018
0.000163269
0.0419571
0.0246389
0.0268151
0.000158096
0.000154771
0.0532236
0.0316316
0.000160642
0.000153394
0.000161095
0.000169741
0.0360362
0.000143613
0.000157658
0.0430723
0.000144793
0.0436029
0.000176829
0.000141301
0.000162916
0.000148463
0.0271296
0.0204579
0.000219126
0.0260911
0.000145464
0.00014708
0.000146035
0.000191835
0.000146499
0.000159056
0.000153935
0.000175489
0.0235517
0.000145269
0.0105699
0.0306006
0.00801009
0.0091093
0.000197004
0.000167257
0.000167783
0.00971237
0.00886967
0.000161978
0.0034509
0.0144993
0.01327
0.000148841
0.0121507
0.000148791
0.000144964
0.000158122
0.0001413
0.000179686
0.00689627
0.0337666
0.000217142
0.0156473
0.00610161
0.000146709
0.0194116
0.00015415
0.000154412
0.000153743
0.000142611
0.00261766
0.0116862
0.000162237
0.0127842
0.035443
0.023005
0.000156018
0.000155085
0.00832361
0.00016915
0.0272786
0.000200138
0.000223031
0.00718727
0.0560785
0.0387968
0.0140095
0.0101634
0.000195108
0.00019049
0.000144021
0.000147201
0.000153339
0.0293945
0.000155415
0.000197775
0.000183173
0.000144202
0.0622689
9.44186e-05
0.000160133
0.0381541
0.000195713
0.0295825
0.0389881
0.000192256
0.000289278
0.0330285
0.00014706
0.000180458
0.000220298
0.036386
0.000155929
0.0563228
0.00016132
0.0137622
0.000202027
0.0153454
0.000156221
0.00965185
0.000170495
0.000177754
0.0158113
0.000159924
0.000158712
0.0283054
0.0107021
0.000145879
0.0415216
0.000156496
0.0221356
0.000188004
0.00916236
0.000148756
0.0501678
0.000157153
0.00713186
0.00020508
0.0538319
0.000153588
0.024967
0.000142109
0.000194913
0.000173855
0.000156649
0.0246681
0.000172052
0.000169909
0.00813855
0.00704674
0.000158593
0.0295602
0.0067379
0.000150578
0.0451271
0.000178577
0.0312913
0.000173746
0.0247102
0.0312108
0.000146328
0.0389702
0.000177678
0.00014124
0.0192109
0.000166425
0.000172635
0.000167611
0.00015198
0.0347924
0.0250548
0.000209478
0.000149451
0.0574456
0.0459489
0.00602238
0.0210528
0.000150904
0.000852322
0.00413663
0.000149792
0.000143676
0.000152507
0.00403398
0.000146007
0.000153383
0.000228087
0.00889215
0.0071681
0.000168227
0.000193265
0.0239353
0.033327
0.000144999
0.00100823
0.000158933
0.0334592
0.000144469
0.000232217
0.000142807
0.0171203
0.000177909
0.0184161
0.000143714
0.000140955
0.0299809
0.0507985
0.0561989
0.000156269
0.000174441
0.000149524
0.000145363
0.000206763
0.000185459
0.000140905
0.00816227
0.0167175
0.00921429
0.000218758
0.000213357
0.000161465
0.000198285
0.00660832
0.000175458
0.00022365
0.000144315
0.00016985
0.000145448
0.0299007
0.00821306
0.000147013
0.000143652
0.0275265
0.000153451
0.0100528
0.0242702
0.000218603
0.000148138
0.000149223
0.000141365
0.000147242
0.000146387
0.0466738
0.0300564
0.000191573
0.000167562
0.000138372
0.0350503
0.0436196
0.00360485
0.000142454
0.000144383
0.000154873
0.000219696
0.000145729
0.000158773
0.000141278
0.000146835
0.000140996
0.000143879
0.000215075
0.00014295
0.0208834
0.000171041
0.000175714
0.000155466
0.0544232
0.0395245
0.000156487
0.0222651
0.00021987
0.000203783
0.000156915
0.000195362
0.00020314
0.000243079
0.0371738
0.0415241
0.0382864
0.000150803
0.00448243
0.000146404
0.0354791
0.000144523
0.0067624
0.000151949
0.000150865
0.000156044
0.000146135
0.000157531
0.00637788
0.0246843
0.000153511
0.000178766
0.0460496
0.0490047
0.00454716
0.000159135
0.000146786
0.000133193
0.0214715
0.00448703
0.00610115
0.000145052
0.0516454
0.000144586
0.00014186
0.0274257
0.0282547
0.000186164
0.0459497
0.00807777
0.000208737
0.000145872
0.000146167
0.000219438
0.00014556
0.000140013
0.000144038
0.000188534
0.0328528
0.000150792
0.000173573
0.00024297
0.0395374
0.0277523
0.0481354
0.000183845
0.00791258
0.000146721
0.000159634
0.0409415
0.00799222
0.000152582
0.000156072
0.0326646
0.000218305
0.000163478
0.000148788
0.000176479
0.040531
0.000176295
0.028673
0.000179673
0.000171808
0.000144274
0.0383614
0.0342324
0.000184139
0.000174273
0.0590062
0.000140442
0.000155829
0.0400322
0.0472934
0.000195859
0.000181033
0.000162997
0.000147405
0.0114185
0.0485485
0.0565888
0.0571234
0.000201756
0.000157557
0.000583535
0.0193793
0.000161929
0.000163699
0.00015214
0.0362705
0.00015634
0.000147418
0.0562648
0.000196358
0.0313917
0.00458911
0.00016948
0.000199869
0.000144074
0.00014169
0.0338522
0.000185469
0.000149371
0.0454524
0.000144099
0.000160357
0.000136218
0.0595142
0.000215903
0.000143236
0.000201047
0.000219597
0.0500947
0.039444
0.000224182
0.000157074
0.0596991
0.0596449
0.0392264
0.00016108
0.000145869
0.0531586
0.0457543
0.000224466
0.0220258
0.0301782
0.000196918
0.000159605
0.0477286
0.00938509
0.000191647
0.000158494
0.030048
0.0252895
0.000144359
0.000151243
0.00318461
0.0278494
0.0379513
0.000143994
0.000143479
0.0332303
0.0389798
0.0117289
0.0469471
0.00732343
0.0390903
0.000173122
0.00264478
0.00281492
0.0530775
0.00013355
0.000142817
0.0624957
0.0099467
0.00013876
0.040274
0.0167849
0.00271687
0.00022838
0.000145151
0.00016681
0.000160134
0.00580615
0.00017831
0.000150574
0.000155454
0.0398293
0.000149291
0.000191752
0.000140833
0.0272484
0.000154186
0.0603187
0.000149416
0.00017069
0.000170905
0.000156872
0.0394544
0.0448412
0.000159265
0.000138305
0.0365874
0.0401706
0.000213594
0.0357686
0.0002193
0.00550038
0.0356947
0.000138259
0.0280267
0.0171012
0.00016674
0.000147206
0.000205784
0.0520724
0.0503299
0.0357543
0.00513274
0.000185254
0.0568718
0.00336489
0.000195889
0.000147291
0.000194292
0.00013878
0.0331048
0.0112189
0.0138288
0.000147288
0.000150999
0.000202112
0.000161
0.00886516
0.0188942
0.0639633
0.000153002
0.000198575
0.0298841
0.028392
0.0493136
0.0468078
0.0301876
0.00134152
0.000142514
0.0431869
0.0532935
0.053573
0.0403235
0.00513557
0.000146171
0.00019486
0.000160536
0.0252201
0.000176135
0.000174305
0.000152912
0.000198934
0.000184829
0.0285766
0.000187483
0.00141165
0.0417468
0.0620522
0.000143716
0.0443263
0.000157214
4.86663e-05
0.000162636
0.000214272
0.000160914
0.0291044
0.000191181
0.000138686
0.000149464
0.0353811
0.000150138
0.000175669
0.000163161
0.000193411
0.000144536
0.0214974
0.000148739
0.00015564
0.000176786
0.000152356
0.0386834
0.000138956
0.0103477
0.0495694
0.00192655
0.000215819
0.000167717
0.000150944
0.0551795
0.0444533
0.00017876
0.000163685
0.000147323
0.00014848
0.000143711
0.000221631
0.0398228
0.0348045
0.000159282
0.0318909
0.0555846
0.000159691
0.00021737
0.0630034
0.000143459
0.000172705
0.0133103
0.0425967
0.000173271
0.000222443
0.000144854
0.0171647
0.000153477
0.0493365
0.0405928
0.000150474
0.000186681
0.000145803
0.00869166
0.000469269
0.0632952
0.000143939
0.000144887
0.0278883
0.000134915
0.000157166
0.000217916
0.00326464
0.0093247
0.0462755
0.0454372
0.000141024
0.000162543
0.0561251
0.0404896
0.000144685
0.0394604
0.000162938
0.00018753
0.000155729
0.000146298
0.000131638
0.000200363
0.000173392
0.0588669
0.0001907
0.00743694
0.000224825
0.0171993
0.000215353
0.000177034
0.0400331
0.000148947
0.00017493
0.000185995
0.0407143
0.0109128
0.000203768
0.0362729
0.0180637
0.000188062
0.000174931
0.0406178
0.00014633
0.0347634
0.000142614
0.0557658
0.000159773
0.000175547
0.0178367
0.000188981
0.000217437
0.00015369
0.0347016
0.0614988
0.000143734
0.000179701
0.00424905
0.000145632
0.000147615
0.000204492
0.000153133
0.000148124
0.00017921
0.0101161
0.0459439
0.0430986
0.000139911
0.000176755
0.000169795
0.000146552
0.00019714
0.000180232
0.000196219
0.0407786
0.00019969
0.000157712
0.00015388
0.000215844
0.0383113
0.0336399
0.000176545
0.00443267
0.0362462
0.010991
0.000146398
0.000499575
0.0363801
0.000145252
0.0574991
0.0407479
0.00049337
0.000156931
0.000196237
0.000198561
0.000178546
0.000137912
0.000176965
0.000150145
0.0179504
0.00311287
0.000173749
0.000241571
0.000170327
0.033398
0.000178691
0.000172462
0.000179122
0.000155132
0.000197412
0.000165015
0.000141296
0.0407529
0.0339126
0.000165398
0.0405778
0.0454953
0.0387092
0.000149973
0.000180447
0.06264
0.040505
0.000159363
0.0238816
0.000144326
0.000184769
0.00840673
0.000165579
0.0149136
0.0387051
0.000174049
0.000219113
0.05434
0.000155055
0.000195731
0.000144865
0.00127807
0.038474
0.00895406
0.00775987
0.0330553
0.00266098
0.000201682
0.000154041
0.000197916
0.0139222
0.0188497
0.000184673
0.000200376
0.000150377
0.000177794
0.00353749
0.024689
0.000145764
0.000162295
0.000176479
0.000151413
0.000165455
0.000181522
0.000214343
0.000175517
0.0451731
0.0263241
0.0107763
0.0001851
0.0241523
0.000152619
0.000150851
0.00021816
0.0501543
0.000140328
0.0305734
0.0432195
0.0248089
0.000146527
0.000146199
0.000189599
0.000200691
0.0495043
0.00137591
0.0215041
0.0487324
0.000177325
0.0390409
0.00421167
0.000168173
0.000187312
0.00312339
0.00017653
0.0448992
0.000143566
0.000220049
0.000174991
0.000200093
0.0282204
0.000267286
0.0385679
0.000328927
0.0409841
0.000177175
0.0261517
0.000877081
0.000151979
0.0547702
0.0296898
0.000144899
0.00925985
0.000203063
0.000197262
0.0306014
0.00018224
0.000140472
0.0208866
0.000145416
0.000196716
0.0326746
0.000197665
0.000199427
0.000203857
0.000163452
0.0346072
0.000165314
0.000223517
0.0458569
0.0001855
0.0303343
0.000145742
0.0580957
0.0403994
0.000163954
0.000167309
0.000140794
0.0158092
0.0285467
0.000167643
0.000176913
0.000128967
0.000175855
0.0249488
0.000147187
0.000164345
0.000147776
0.000175969
0.000151342
0.0283436
0.000188448
0.000140813
0.0432563
0.000855547