/*--------------------------------*- C++ -*----------------------------------*\
| =========                 |                                                 |
| \\      /  F ield         | OpenFOAM: The Open Source CFD Toolbox           |
|  \\    /   O peration     | Version:  v2012                                 |
|   \\  /    A nd           | Website:  www.openfoam.com                      |
|    \\/     M anipulation  |                                                 |
\*---------------------------------------------------------------------------*/
FoamFile
{
    version     2.0;
    format      ascii;
    class       volScalarField;
    location    "400";
    object      p;
}
// * * * * * * * * * * * * * * * * * * * * * * * * * * * * * * * * * * * * * //

dimensions      [0 2 -2 0 0 0 0];


internalField   nonuniform List<scalar> 
13749
(
-0.0405729
-0.00260245
-0.0298879
-0.0109138
-0.011384
-0.000426543
-0.123543
-0.0288422
-0.102009
-0.0105145
-0.000430301
-0.0366447
-0.028709
-0.00195442
-0.0163871
0.000506387
-0.00111716
-0.0268865
-0.00104416
-0.00122034
-0.0859601
-0.0979674
0.000933762
-0.0690558
-0.0672949
-0.000318916
-0.00950822
-0.0554002
-0.120114
-0.0937061
0.00181575
-0.00190544
-0.103701
-0.0164106
-0.00169927
-0.104741
-0.113754
-0.015429
-0.000478421
-0.131571
-0.0302328
-0.1169
-0.00743611
-0.103572
-0.000435217
-0.00717366
-0.000562156
-0.00032226
-0.0741282
-0.0266177
-0.07115
-0.000466408
-0.11176
-0.006258
-0.0316216
-0.124208
-0.103518
-0.0782414
-0.000461436
-0.0781362
-0.00218761
-0.132234
0.000191019
0.000357995
-0.109376
0.00139828
-0.0596061
5.51486e-05
-0.112645
-0.0374543
-0.0550604
0.00128205
-0.0184533
-0.0785466
-0.0339742
-0.0534548
-0.0162039
-7.30813e-05
-0.132841
-0.00257552
-0.128426
-0.0569694
-0.00775802
-0.000602735
-0.116297
-0.00410653
0.0036528
-0.0591031
-0.0630435
-0.107754
-0.00272245
-0.127759
-0.000407916
-0.0012688
-0.0319406
-0.0640256
-0.0903329
-0.00634005
-0.090951
-0.000676223
-0.0025339
-0.0900147
-0.00905875
-0.0803147
-0.000408123
-0.0304693
-0.00296926
-0.0609468
-6.74182e-05
-0.0946243
-0.0147189
0.0153441
-0.107301
-0.0291032
-0.0672089
0.00082773
-0.0157578
-0.0382767
-0.0626343
-0.0267566
-0.00881656
0.00227995
-0.000196013
-0.00427916
-0.000534688
-0.119188
0.0025967
-0.0304468
-0.00424371
-0.113257
-0.000579915
0.000559174
-0.0899246
-0.0907552
-0.119627
-0.104701
-0.104747
-0.0912279
-0.00012535
-0.00367591
-0.0917563
-0.000591096
-0.00845848
-0.0911078
-0.0112502
-8.96993e-05
-0.0638947
-0.106988
-0.0751627
-0.122662
-0.000610685
-0.0962759
-0.000215378
0.000357186
-0.116691
-0.0301212
-0.0901003
0.000498283
0.000950025
-0.01469
-0.0247654
-0.000381721
0.000841448
-0.00057017
-0.000370009
-0.0429824
-0.00061947
-0.0235812
-0.100568
0.0010304
-0.0235549
-0.000380184
-0.107215
-0.078046
-0.000547815
-0.0439112
-0.091148
-0.130938
-0.0575747
-0.0119098
-0.0597572
-0.0101514
-0.0934368
-0.0927714
-0.027363
-0.00356739
-0.00589362
-0.00172333
-0.0927856
-0.000132775
-0.0122231
-0.0992059
-0.0444544
-0.0236968
-0.00399898
-0.00167628
-0.0644612
-0.0151046
-0.100385
0.000871161
-0.101877
-0.0263924
-0.115027
-0.0914629
-0.0115195
0.00969765
-0.101415
-0.111228
-0.000650008
-0.000569181
-0.035277
0.00387072
-0.0807605
-0.00316946
-0.0906353
-0.0021127
-0.0222388
-0.0927275
-0.0291247
-0.00838839
-0.000676699
-0.0910194
-0.115488
-0.0585463
-0.00555048
-0.0161803
-0.090501
-0.000386783
0.00938174
-0.00581099
-0.00606242
-0.0929479
-0.00541059
-0.000295921
-0.0282024
-0.000103157
-0.0502354
-0.00143619
-0.116669
-0.000192378
-0.0344693
0.00177695
-0.00619131
-0.0014314
-0.000116533
-0.000623205
-0.0115222
-0.00311896
-0.0991732
-0.13866
-0.0240828
-0.00424443
-0.0888333
-0.0545299
0.00156464
-0.00049884
-0.0755365
-0.0503703
-0.028924
-0.00710123
-0.0898767
-0.117564
-0.015479
-0.0218531
-0.00202233
-8.77635e-05
-7.83009e-05
-0.0414167
-0.0973762
-0.0350473
-0.000490083
-0.0343293
-0.0860455
-0.0902206
-0.000525946
-0.12778
-0.0013212
-0.0690671
-0.092697
-0.0168444
-0.00070709
-0.093603
-0.128352
-0.0214215
0.00177533
-0.0344944
-0.105862
0.012882
-0.00696721
-0.0925509
-0.0155024
-0.0503445
-0.0101238
-0.0668912
-0.118075
-0.11478
-0.00342426
-0.0322964
-0.0331552
-0.0308471
-0.11503
-0.116287
-0.0400496
-0.0313197
-0.077099
-0.0166936
-0.0959164
-0.00203089
-0.013971
-0.00469721
-0.00405078
-0.0380267
0.0135115
-0.10208
-0.013013
-0.0116542
-0.0596852
-0.0040553
-0.103248
-0.001181
-0.00778104
-0.00878517
-0.032328
0.000833073
-0.0178475
-0.0168747
-0.107
-0.00767401
-0.0145593
-0.101645
-0.129962
-0.0251293
-0.00377085
-0.0913289
-0.0308011
-0.011467
-0.0943036
-0.0284602
-0.102824
0.0278096
-6.32513e-05
0.0154117
-0.091146
-0.0338315
-0.00051693
-0.0450575
-0.0367191
-0.0721315
-0.0178722
0.00174249
-0.035622
-0.0897679
-0.0112903
-0.000325007
-0.0749294
-0.071859
-0.0401405
0.000140827
-0.0820917
-0.000162045
-0.0161989
-0.00076015
-0.066133
-0.00672
-0.000516901
-0.000656097
-0.00331312
-0.0767315
-0.0290708
-0.023499
0.00216851
-0.000338405
-0.0272307
-0.0822438
-0.0234426
-0.00566403
-0.000589858
-0.00166308
-0.05778
0.00130215
-0.0224178
-0.000865116
-0.00538443
0.0038816
-0.00840404
0.000729628
0.00845515
0.0040573
-0.0865469
-0.0182319
-0.0306955
-0.0178206
-0.00188335
-0.00331036
-0.116514
-0.0108081
-0.00777574
-0.0246768
-0.0386641
-0.00052012
-0.046604
-0.0234245
-0.000531074
-0.106264
-0.00109344
-0.0898114
-0.136672
-0.0162783
-0.113327
-0.00399141
-0.00011237
-0.116009
-0.0162829
-0.00086659
-0.00010728
-0.0911943
-0.0549224
-0.0311487
-0.107946
-0.096711
-0.013605
-0.0692638
-0.0557879
-0.0522897
-0.00672116
-0.0442852
-0.000578846
-0.00615239
-0.0315801
-0.0241851
-0.0912761
-0.00218966
-0.00196872
-0.00475981
-0.02415
-0.0107632
-0.0241108
-0.115033
-0.0268502
-0.00039226
0.0117993
-0.0491305
-0.0817278
0.00352358
-0.10577
-0.127763
-0.00708843
-0.0312964
-0.0648032
-0.00231688
-0.105313
-0.084176
-7.23684e-05
-0.000583571
-0.0309155
-0.0538352
-0.0390351
-0.0188048
-0.0870431
-0.137213
-0.000609579
-0.00781219
-0.09159
-0.000642283
-0.106484
0.00648571
-0.0258546
-0.0215147
-0.0895708
-0.0769216
-0.0665511
-0.0786386
-0.0107245
-0.0293092
-0.00126324
-0.0313016
0.000119942
-0.104333
-0.0603736
0.0108345
-0.00381163
-0.0673965
-0.0130352
-0.00363711
-0.0133729
-0.000650877
-0.0148968
-0.0295579
-0.00754799
-0.0999628
-0.00422714
-0.000144421
0.00226084
-0.00548007
-0.115933
-0.0868894
-0.118186
-0.00577378
0.00107518
-0.0102297
-0.00336339
-0.00102782
-0.0580736
-0.000684202
-0.107853
-0.025631
-0.00249927
-0.0952741
0.00620288
-0.0264894
0.000383642
-0.119789
-0.0884693
0.00590543
0.00134809
-0.00272062
-0.0423554
-0.00381678
-0.0142435
-0.0019382
-0.00368636
-0.0299706
-0.115876
-0.0660391
-0.0128265
0.00425355
-0.133034
-0.00581944
-0.0901312
0.00815353
-0.0477132
-0.0259665
-0.0801504
-0.122377
-0.0804787
0.00609646
-0.0841072
-0.00208308
-0.099151
-0.0591998
-0.0146481
-0.0289382
-0.0904917
-0.00983411
-0.0208469
-0.122949
-0.0478672
-0.029314
-0.0357325
-0.0312087
-0.132539
-0.0239703
-0.103848
-0.100573
-0.100132
-0.00164171
0.00488787
-0.0408115
-0.00581196
-0.0407912
-0.0242358
-0.0900723
0.00369359
-0.000100291
0.0017271
-0.00966185
-0.0917102
-0.114911
-0.0563946
-0.005468
-0.0394001
-0.0242229
-0.120973
-0.0780242
-0.0674283
-0.0721529
-0.0282911
-0.0260619
-0.0460968
-0.00801542
-0.00204684
-0.0833411
-0.0268602
-0.0850147
-0.0259239
-0.0899004
-0.00185331
-0.0573901
-0.10796
-0.0348888
-0.086315
0.00188272
-0.00701193
-0.000984029
-0.104707
-0.0930588
0.00249351
-0.117801
-0.105369
-0.00704438
-0.0913512
-0.0304083
-0.134382
-0.0997759
-0.0752333
-0.10655
-0.0285205
-0.000611738
-0.0387111
-0.000273735
-0.031601
-0.00911618
-0.0157742
0.00585287
-0.0870798
0.000884915
-0.00716876
-0.0776546
-0.092701
-0.030058
-0.00209051
0.0264246
0.00083675
-0.0342599
-0.0937384
-0.00363963
-0.0941569
-0.0259458
-0.00121192
-5.23659e-05
-0.00308698
0.0148983
-0.11844
-0.085084
-0.104002
-0.0330855
-0.000498452
-0.00299696
-0.0243161
-0.0892534
0.00208018
-0.0876851
-0.101521
-0.079285
-0.000657488
-0.0783807
-0.00953744
-0.0401624
-0.0102113
-0.0265623
-0.124756
0.00740756
-0.0926703
-0.0865004
-0.0298365
-0.0531692
-0.0157763
-0.114116
-0.0911273
-0.0911756
-0.0039405
-0.0914676
-0.0436336
-0.0600554
-0.125681
-0.0870517
-0.0491543
0.00918407
-0.0299723
-0.0807243
-0.0727843
-0.0248982
-0.00131487
-0.00325735
-0.0306496
0.00211068
-0.10378
-0.0691016
-0.0873472
-0.0904293
-0.000562369
-0.0209927
-0.109279
-0.106238
0.00943465
-0.0326471
-0.089505
-0.0325614
-0.0378678
0.0096277
-0.0747349
-0.114713
-0.000669513
-8.50015e-05
-0.119421
-0.00295991
-0.140066
-0.0016119
-0.12348
-0.0606476
-0.00404876
-0.000583202
0.00393047
-0.00368464
-0.139572
-0.0332279
-0.00262908
-0.0972511
-0.000610729
-0.0305692
0.0018016
-0.0183391
-0.0285623
-0.131169
-0.00298965
-0.000381546
-0.0574585
0.00427645
-0.0636659
0.00321013
-0.00353343
-0.0137609
-0.086512
-0.0373982
-0.0230728
-0.115714
-0.010668
0.0182837
-0.0143754
-0.106847
-0.000394731
0.00212791
-0.110069
-0.086324
-0.0760186
-0.0333027
0.00299491
-0.103695
0.00897015
-0.0660753
0.00307579
0.0039235
-0.00561171
-0.0824125
-0.0165402
-0.121709
0.00376424
-0.000704065
-0.0162577
-0.0301268
0.00187194
-0.0459279
-0.000847373
-0.0728317
-0.108884
-0.0338337
-0.000564187
-0.0108295
-0.101669
-0.00591568
-0.0111169
-0.00264946
-0.0805948
-0.000647137
-0.0788012
0.00327092
-0.0885021
-0.119216
0.00231165
-0.090024
-0.00037605
-0.0678505
0.000469002
-0.0387173
-0.0212877
-0.136801
-0.111538
-0.0873374
-0.0545818
-0.000936772
-0.000389776
0.00513739
-0.0904678
-0.000372044
-0.0770168
-0.00187312
-0.0160514
-0.00155368
-0.00565448
-0.11767
-0.00713035
-0.00158422
-0.00720473
-0.00536348
-0.00174359
-0.0915351
-0.101141
-0.128704
0.0195002
-0.095387
-0.0102526
-0.0996513
-0.00459685
-0.0906576
-0.0343799
-0.13741
-0.0314584
-0.00333538
-0.1112
-5.44778e-05
-0.0282082
-0.00202123
0.00926179
0.0202609
-0.000452395
-0.113767
-0.0390667
-0.108554
-0.0294099
-0.00179992
-0.0314971
-0.000516129
-0.1163
-0.113335
-0.0420023
-0.00107451
-0.00222291
-0.00045115
-0.0231254
-0.0256057
-0.0792211
0.00280404
-0.104208
-0.061365
-0.134898
-0.0142343
-0.0938543
-0.0158837
-0.00549489
-0.0113475
-0.0997556
-0.0446973
-0.0839472
-0.119846
-6.55523e-05
-0.0677362
-0.0312235
-0.0875064
-0.017968
-0.0162546
-0.00445401
-0.124217
-0.00425634
-0.000175251
-0.0131127
-0.0301881
-0.0148694
-0.00252415
-0.101982
-0.000575174
-0.0858124
-0.118681
0.0114098
-0.0897585
-0.0644509
0.0188537
-0.0987645
0.000548477
-0.0113424
-0.0352079
-0.0528332
-0.000710257
-0.0309761
-0.00797914
-0.129051
-0.00299193
0.00119743
-0.0440219
-0.00243354
-0.137241
-0.019603
-0.0290179
-0.0455322
-0.00054954
-0.0301058
-0.123765
-0.0109791
-0.0729833
-0.139271
0.00117532
-0.01697
0.00135815
-0.0832822
-9.52126e-05
-0.023254
-0.100451
-0.053206
-0.0984698
-0.00810965
-0.116355
-0.0449162
-0.111598
-0.000490513
-0.00581268
-0.00259899
-0.0706918
-0.000807795
-0.0345128
-0.0650675
-0.0313082
-0.0105083
-0.048873
-0.0659799
-0.0203843
-0.00549796
-0.104233
-9.03161e-05
-0.108578
-0.020752
-0.0415433
-0.0930817
-0.0726981
-0.000550044
-0.00212937
-0.0176161
-0.000475279
-0.128241
-0.0952841
-0.0155778
-0.0344581
0.0130936
0.00316758
0.0160106
-0.00765899
-0.0863404
-0.000274315
-0.0996375
-0.0151026
-0.0290874
-0.000984732
-0.106301
-0.0378602
-0.0544631
-0.0917442
-0.126433
-0.000474313
-0.0910322
-0.0937078
-0.0634867
-0.0313949
-0.109035
-0.0939438
-0.000548019
-0.0812669
-0.000304322
-0.0336719
-4.28549e-05
-0.115498
-0.0650976
-0.0205641
0.0060601
-0.0334542
-0.102771
-0.0985194
-0.00342156
-0.000497412
-0.0451246
0.0141173
-0.0159717
-0.0446043
-0.00471741
-0.129789
-0.0370932
-0.0895298
-0.000531654
-0.000574477
0.00937646
-0.0232797
-0.000108898
-0.109397
0.00713615
-0.000102317
-8.12706e-05
-0.000105711
-0.00361729
-0.0228035
-0.0563308
-0.0942475
0.0124534
-0.000496814
-0.0900066
-0.0482186
-0.0690096
-0.0634052
-0.00161479
-0.03491
-0.000804505
0.00564831
-0.0154856
-0.0305154
-0.0302087
-0.00335475
-0.0585969
-0.0939779
-0.00059729
-0.0642086
-0.000402405
-0.0198489
-0.0674643
-0.121102
-0.105991
-0.0342522
-0.133317
0.00315336
-0.0929687
-0.0919951
-0.000649606
-0.000399397
-0.0648816
-0.000266742
-0.0852183
-0.135154
-0.0403685
-0.000800223
-0.0935941
-0.0383367
-0.0478895
-0.00244747
-0.0325476
-0.0871532
-0.0918337
-0.0336086
-0.0191725
0.000915739
-0.0996761
-0.136904
-0.103688
-0.000413348
0.000222301
-0.000555605
-0.0400985
0.0045495
-0.00066824
-0.114797
-0.0581197
-0.0731581
-0.0232141
-0.0176205
-0.000859719
-0.0942831
-0.0917729
-0.102454
-0.000244196
-0.022705
-0.00452421
-0.107435
-0.115754
-0.0463436
-0.0156213
-0.0500694
-0.100873
-0.0294821
-0.0306366
-0.000485348
-0.0191894
-0.00273713
-0.000240275
-0.00162558
-0.000839657
-0.00689243
-0.00452489
-0.0479379
0.00109561
-0.0168386
-0.00880289
-0.0432742
-0.00251465
-0.0898506
-0.00297129
-0.0953252
-0.0320066
-0.0301696
-0.00745867
-0.110225
-0.0244733
-0.0239335
-0.0720804
-0.074377
-4.7655e-05
-0.0949173
-0.071464
-0.00210608
0.00645724
-0.00305738
-0.00257878
-0.00324794
-0.0115067
-0.0477612
-0.0529338
0.00749371
-0.0907523
-0.138911
-0.0720724
-0.000561638
-0.0444236
-0.103317
-0.0269047
-0.00855091
-0.090828
-0.000260215
-0.030569
-0.00151003
-0.000428033
-0.00144466
-0.128476
-0.00179737
-0.0700964
-0.0907212
-0.0321075
-0.00272864
-0.0919591
-0.000541414
-0.0314679
-0.0563655
-0.102509
0.00385438
-0.0851586
-0.120823
-0.0274562
-0.000597565
-0.019266
-0.00304685
-0.00414135
-0.10962
-0.00318158
0.000915275
-0.00665899
0.00111149
-0.0397306
-0.000341527
-0.0255283
-0.0524326
-0.0787054
-0.136043
-7.71223e-05
-0.00196509
-0.00750689
-0.028491
-0.093583
-0.045792
-0.0512947
-0.000256299
-0.103653
-0.0580477
-0.00024059
-0.000597857
-0.0916889
-0.00375149
-0.0902643
-0.0577535
-0.0148544
-0.0334403
-0.0902447
-0.000942399
-0.00525794
-0.00502444
-0.129139
-0.0310058
-0.040698
-0.078803
-0.053594
-0.0006118
-0.0334525
-0.0908736
-0.00126285
-0.136713
-0.0927455
-0.0465529
-0.117942
0.000715358
0.000847101
0.00744422
-0.0422799
-0.0370496
-0.110589
-0.00297249
-0.00191798
-0.0199105
-0.000963415
-0.00648257
-0.000950616
-0.00607069
-0.0158177
-0.000425825
-0.000216126
-0.022044
-0.000174113
0.000979934
-0.0159677
-0.0947327
-0.120458
-0.00227234
-0.0237202
-0.00358689
-0.113412
-0.0542841
-0.0573309
-0.00187256
-0.0900314
-0.00113268
-0.0399472
-0.0853145
-0.00275273
-0.0714902
-0.0303657
0.00404268
-0.112798
-0.000204422
-0.000503994
-0.0867852
-0.00302089
-0.111242
-0.0123676
0.00716442
0.0036997
-0.00911077
-0.0651684
-0.0178611
-0.0123013
-0.0255986
-0.103128
-0.114456
-0.1014
-0.0903927
-0.130302
-0.028501
-0.103581
-0.00133599
-0.00068846
-0.0495132
-0.00505402
-0.136331
-0.00443315
-0.00016616
-0.00400171
-0.0726489
-0.000444642
-0.071145
-0.118231
0.00108181
-0.000786473
-0.00200969
-0.0770769
-0.0282066
-0.00328901
-0.120952
-0.119751
-0.00246774
-0.0308888
-0.00239733
-0.00847394
-0.000438692
-0.00349954
0.0224418
-0.094407
0.00214745
-0.0377271
-0.00455352
-0.0998753
-0.031593
-0.0471057
-0.0513418
-0.00086099
-0.0121437
-0.0246869
-0.00214969
-0.00132274
-0.0363797
-0.0495224
-0.017399
-0.00546521
-0.105619
-0.0890743
-0.105592
-0.00169499
-0.119117
-0.0783648
-6.45834e-05
-0.00835083
-0.0953019
-0.108499
-0.102131
-0.0178518
-0.125863
-0.000600438
-0.00294428
-0.113449
-0.00357752
-0.0341221
-0.000952383
-0.029806
-0.00261759
-0.101861
-0.0885725
-0.12127
0.0118172
-0.0222043
-0.00234254
-0.0469779
-0.0193597
0.00392473
-0.000526059
-0.0647973
-0.117837
-0.0346835
-0.138142
-0.0232951
-0.000343638
-0.00194802
-0.0737777
-0.000347875
-0.00329816
-0.0176197
-0.0023818
-0.136265
-0.0114513
-0.0478934
0.00213316
-0.0293802
-0.0675471
-0.00832498
-0.121951
-0.10495
-0.00158096
-0.0115815
-0.0224225
-0.000866706
-0.00378053
-0.120388
-0.0847865
-0.0869684
-8.38232e-05
-0.00596205
-0.0238048
-0.0290439
-0.119643
-0.0048346
0.00527583
-0.0260631
-0.0601855
-0.0217372
-0.000343293
-0.109954
-0.00294454
-0.010185
0.0226198
-0.000795234
-0.00321052
0.00313828
-0.0779733
-0.109051
-0.000484363
-0.0517244
-0.0103306
0.0206766
-0.019255
0.000714448
-0.0467854
-0.121763
-0.0524955
-0.000762667
-0.000877201
-0.088098
-0.129613
-0.00138607
-0.032449
-0.108614
-0.126809
-0.00288056
-0.010499
-0.0619947
-0.134024
0.000264404
-0.00198752
4.30714e-05
-0.12757
-0.114924
-0.000421709
0.000979004
-0.00917065
-0.0462635
0.00186703
-0.136879
-0.0158035
-0.0140198
-0.00981804
-0.000470225
-0.0369852
-4.81537e-05
-0.000656069
0.0153946
-0.0519928
-0.0953198
-0.114512
-0.00025393
-0.000517737
-0.134324
-0.00703413
-0.114639
-0.00178117
-0.00288431
-0.00939984
0.00728662
-0.139362
-0.0126425
-0.0375453
-0.0109676
-0.0575933
-0.0011026
-0.0104826
-0.0358899
-0.0182678
-0.00126607
-0.00011042
0.000734365
-0.00190798
-0.0719945
-0.093429
0.00705891
-0.131162
-0.0615264
-0.0391256
-0.0251052
-0.127086
-0.105755
0.00220476
-0.0311613
-0.0463268
-0.0111038
-0.0407242
0.0213695
-0.0510741
-0.00541707
-0.00651996
-0.0952009
-0.128872
-0.0304986
-0.129633
-0.0850932
-0.00161142
-0.0320629
-0.108812
-0.0333909
-0.000690069
-0.0209232
-0.00894
-0.0640463
-0.00605262
-0.121253
-0.0241602
-0.132859
-0.00329891
-0.000200909
-0.0892616
-0.0696203
0.00598166
-0.0673189
-0.0116241
-0.0033931
-0.019505
-0.0126634
0.0103774
-0.0173151
-0.00873155
-0.0936028
-0.131307
-0.0878228
0.000946802
-0.0459863
-0.00253314
-0.131742
-0.0289772
-0.0235137
-0.0902601
-0.0298592
-0.0166534
-0.00020147
-0.0629153
-0.117577
-0.0191757
-0.0239922
-0.0267381
-0.0017842
-0.0169251
-0.138462
-0.0276127
-0.0357167
0.000837033
-0.0866794
-6.25555e-05
-0.0435287
-0.12143
-0.108683
-0.00089752
0.0145102
-0.0503886
-0.0323787
-0.0420104
-0.0141742
-0.0111476
-0.00322287
-0.0139778
-0.0782523
-0.0936143
-0.00478888
-0.0899095
-0.115678
0.000296237
-0.00173826
-0.0898248
-0.100844
-0.106449
-0.011796
-0.00202995
-0.07275
-0.0277108
-0.108532
-0.000661812
-0.00938643
-0.0378568
-0.0558703
-0.0931374
1.9147e-05
-0.0173597
-0.0369421
-0.130164
-0.0199423
-0.0989411
-0.00564844
-0.104064
-0.128861
-0.0298024
-0.0856126
-0.0973701
-0.0198715
0.000744752
-0.00117703
0.005696
0.00144111
-0.0467092
-0.00146734
-0.0290653
-0.100731
-0.0890924
-0.036905
-0.00145484
-0.129646
-0.0923931
-0.0361832
-0.00897656
-0.00271143
-0.0204171
-0.0748672
-0.134787
-0.0146958
0.00750665
-0.00561739
-0.00892262
-0.0556648
-0.134787
-0.00547295
-0.0326933
-0.00205015
-0.000533551
-0.000808764
-0.11113
-0.00314785
-0.00253343
-0.120439
-0.0310075
-0.00184655
-0.043276
-0.085483
-0.00205108
-0.0126992
0.000450576
-0.000579253
-0.0214772
0.000230984
-0.125245
-0.0387737
-0.0112545
-5.01366e-05
0.0156728
-0.0096173
-0.000626652
-0.116991
-0.0358431
-0.10224
-0.100776
-0.0729766
-0.00483777
-0.00393747
-0.074802
-0.0246716
-0.00117087
-0.038569
-0.0647508
-0.100395
-0.0181502
-0.00160793
-0.00121744
-0.00332796
-0.00254532
-0.112614
-0.0396515
-0.0361556
-0.0947865
-0.00464555
-0.117754
-0.0761381
-0.0120457
-0.0383845
-0.000591146
-0.0746922
-0.039669
-0.0795238
-0.107715
-0.0682685
-0.00133583
8.90498e-05
-0.000438936
-0.001379
-0.0457523
-0.0799088
-0.0757523
-0.0913249
-0.00422605
-0.0550373
-0.1191
0.0100932
0.0258677
-0.0426774
-0.018757
-0.000931657
-6.16008e-05
-0.00293032
-0.0927337
-0.00392656
-0.00548758
-0.0922336
-0.00128716
-0.126153
-0.00126128
0.0214995
-0.0183086
-0.0768774
-0.0500448
-0.0710591
-0.000543512
-0.098473
-0.0136051
-0.000269029
-0.00260362
-0.0337821
0.00157543
-0.0319843
0.00273537
-0.0693564
-0.00198312
-0.0467699
-0.0901814
-0.0127303
-0.00274098
-0.0901356
-0.0712006
-0.0748595
-0.014429
-0.110443
-0.126773
-0.0358287
-0.0748044
-0.0606399
0.00833974
0.0107923
-0.0939776
-0.0954207
-0.106469
-0.0121255
-0.10276
-0.109712
-0.0796055
-0.0412865
-0.000497482
-0.0582343
-0.0309929
-0.032813
-0.129092
-0.0308475
-0.138639
0.019918
-0.0212881
-0.0623308
-0.0976143
-0.00898488
0.0142515
-0.0939483
-0.00538954
0.000846756
-0.0900732
-0.0855317
-0.0622212
-0.00281145
0.0163854
-0.0289499
-0.0051116
-0.0540142
-0.0245111
-0.0939186
-0.00433354
-0.0917435
-8.14393e-05
0.00406271
-0.138831
-0.000573443
-0.00294093
-0.0298395
0.0142156
-0.00223975
-0.0512097
-0.0952284
-0.0125859
-0.000707636
-0.047639
-0.00997439
-0.00468459
-0.0112843
-0.0110469
0.0187349
-0.0181637
-0.000782387
-0.054705
-0.00146188
-0.0496092
-0.107972
-0.0984114
-0.0746703
-0.00522732
-0.0529986
-0.0941889
-0.00547412
-0.0920359
-0.0814973
-0.0328421
-0.0939744
-0.00823669
-0.097421
-0.00113914
-0.000701997
-0.103901
-0.0821537
-0.000289979
-0.0511429
-0.00218806
-0.0866325
0.00851804
-0.00203419
-0.0436292
-0.0315311
-0.0018782
0.0189339
-0.00180116
-0.0185686
-0.0432
-0.0325227
-0.020377
-0.0283016
-0.00971989
-0.0190083
-0.0222581
-0.115432
-0.029397
-0.0843509
-0.0871495
-0.00042971
-0.00632288
-0.0131437
-0.00172805
-0.00347507
-0.00632651
-0.00141881
-0.000286671
-0.084347
-0.00594405
-0.0929888
0.00984341
0.0146991
-0.0907164
-0.0434603
-0.00822894
-0.00836474
-0.0924483
-0.0909645
-0.0641237
-0.00386033
-0.0906583
-0.0910798
-0.0153647
-0.0914379
-0.0130432
-0.0314643
-0.00171052
-0.00922724
-0.00327628
0.00248516
-0.119495
-0.0968099
-0.090107
-0.0379111
-0.0195718
-0.0891676
-0.0277225
-0.00217361
-0.0275555
-0.00887773
-6.68493e-05
-0.0917637
-0.0548905
-0.0914216
0.0128693
-0.086615
-0.0303777
-0.00127293
-0.0909693
-0.00300054
0.0162358
-0.0441088
-0.131922
0.000265682
-0.0971778
0.0232906
-0.0910354
-0.0925578
-0.116927
-0.0570649
-0.0224528
-0.0377671
-0.0473337
-0.106554
-0.023564
-0.103977
-0.0127447
-0.0291402
-0.130218
-0.109599
-0.0565981
-0.0847609
-0.0497015
-0.100492
-0.125697
-0.0645854
0.0134111
0.0106496
-0.00865601
-0.00157387
-0.0923021
-0.0846615
-0.0490049
-0.0957232
-0.0689806
-0.0909281
-0.126858
-0.0906137
-0.00129139
-0.0906692
-0.0185404
-0.00148041
-0.0902752
-0.058649
-0.00631987
-0.130967
-0.0922607
-0.00657431
-0.0846915
-0.0306212
-0.0872402
0.000960981
-0.0924513
0.00131736
-0.074297
-0.0518704
-0.000666957
-0.110354
-0.136496
-0.0468727
-0.094377
-0.000695904
-0.114661
-0.0735253
-0.00132304
-0.0862833
-0.0381765
-0.00289042
-0.0423821
0.00462627
-0.00787291
-0.0998277
0.00944202
-0.0448886
-0.0514768
-0.0566446
-0.0846785
-0.0715885
-0.0878218
0.00696371
-0.000887799
-0.0312824
-0.0652626
-0.0113161
0.0243442
-0.0254628
-0.0161756
-0.00728908
-0.0415534
-0.100982
-0.0375577
0.00598806
-0.0339568
-0.101065
-0.0753943
-0.0939191
-0.0892758
-0.00784919
-0.00103469
-0.0029776
-0.0124912
-0.0182409
-0.0181861
-0.0030442
-0.000442788
-0.0489313
-0.000900225
-0.0917115
-0.0934215
-0.0171914
-0.0499799
0.0224174
-0.137758
-0.00965397
-0.00146982
-0.0466978
-0.114776
-0.00136682
-0.110382
-0.0243443
-0.0899467
-0.0253569
-0.089478
-0.024547
-0.0107546
0.00977215
-0.0995828
-0.134595
-0.0372296
-0.0944813
-0.001954
-0.0330199
-0.090649
-0.0852989
-0.00946841
-0.0903672
-0.0901722
0.00315441
-0.0749851
-0.0299539
-0.0540852
-0.0802562
0.00241618
-0.0964564
-0.124122
-0.0303958
-0.0471117
-0.00051653
-0.114246
-0.00507286
-0.0298191
-0.00066511
0.0226877
-0.0329288
-0.0930248
0.00398408
0.00566131
-0.00268905
-0.0130626
-0.0116008
-0.00642111
-0.00817043
-0.0348792
-0.118717
-0.0583217
-0.0404684
-0.000588249
-0.110681
-0.0327629
-0.03545
-0.0104606
-0.00311142
-0.00274006
-0.0821905
-0.000416014
-0.0619753
-0.0107674
-0.029893
-0.0102276
-0.0247946
-0.112606
-0.000665717
-0.0959533
-0.0235958
-0.034033
-0.0211185
-0.127802
-0.102705
-0.0446583
-0.0860672
-0.0803558
-0.037727
-0.0533257
-0.0431965
-0.00270698
-0.132576
-0.0218782
-0.132294
0.0220867
-0.00520732
-0.000499054
-0.000469418
-0.112567
-0.00293414
0.00106598
-0.00163734
-0.0463426
-0.0210371
-0.000421564
-0.00318882
-0.0894225
0.0250904
-0.0498038
-0.00240065
-0.0975449
-0.0731496
0.000312789
-0.0017194
-0.00276185
-0.000168877
-0.0874606
-0.000597719
-0.0941057
-0.00221281
-0.084687
-0.0308251
-0.00826338
0.0150383
-0.133237
-0.0987224
-0.0429317
-0.0908301
-0.124488
-0.0291523
-0.00570253
-0.0731174
-0.00216907
-0.00434119
-0.00322918
-0.0694788
-0.100899
-0.0299487
-0.0403316
-0.0821459
-0.104037
-0.137784
-0.0374001
-0.0476036
-0.0934618
-0.0306163
-0.0116507
-0.112975
0.00305653
-0.0491688
-0.0515945
-0.105956
-0.0905707
-0.0835526
-0.0233505
-0.0612529
-0.12995
-0.0645796
0.0171513
-0.00154005
-0.000738644
-0.00133792
-0.0705696
-0.0280116
-0.0634585
-0.0983518
-0.109058
-5.35014e-05
-0.00217423
-0.0970877
-0.0298702
-0.00590816
-0.0615365
-0.0122817
-0.0353178
-0.0911066
-0.0688987
-0.117913
-0.102133
-0.0782907
-0.00780327
-0.0025285
-0.0196948
-0.00942351
-0.0447165
-0.0503685
-0.0845962
-0.0201671
-0.0322257
-0.0937063
-0.113984
-0.0560764
-0.00559473
-0.0166886
-0.0770591
-0.030849
-0.0085056
-0.135208
9.30756e-05
-0.00456644
-0.0681002
-0.0301539
-0.00115982
-4.25399e-05
-0.111656
-0.118936
-0.000604776
0.000488846
-0.088491
-0.0867871
-0.100697
-0.0961464
-0.016135
-0.126568
-0.126805
-0.0975257
-0.0595117
-0.00755077
-0.105306
-0.126793
-0.118007
-0.00299185
-0.123332
-0.11864
-0.00168016
-0.0451252
-0.0917085
-0.00206281
-0.00674584
-0.134902
0.0155455
-0.0079847
-0.0429614
-0.00395907
-0.0983329
-0.101455
-0.0297585
-0.0117395
-0.069183
-0.0826287
-0.0193422
-0.0734943
0.00190617
-0.0958756
-0.0481737
-0.0934544
0.010042
-0.0902687
-0.000171577
-0.0118413
-0.127751
-0.0903541
-0.00236869
-0.114258
-0.0909887
-0.00163401
-0.111408
-0.00990706
-0.0276558
-0.00157416
-0.000592841
-0.0265435
-0.0144024
-0.00219438
-0.108077
-0.00193264
0.00335249
-0.0124223
0.016136
-0.0158
-0.116818
-0.0283711
-0.000248171
-0.0177312
-0.00940143
-0.0453182
-0.0350114
-0.0445267
-0.0038304
-0.128485
-0.112227
-0.0730914
-0.132047
-0.107658
0.00180759
-0.123077
-0.00402105
-0.107657
-0.0908473
-0.0137758
-0.0196355
-0.00231468
-0.113328
-0.0695961
-0.032661
0.00134745
-0.0421003
-0.0952753
-0.00094948
-0.0847633
-0.00128693
-0.0953634
-0.00224345
-0.100174
-0.092349
-0.0910778
-0.0347719
-0.0455455
-0.123944
-0.0674917
-0.0909074
-0.0897696
-0.135128
-0.0399409
-0.122898
0.00640392
-0.0478935
-0.1117
-0.024736
-0.129982
-3.61276e-05
-0.011872
-0.0858444
-0.125179
-0.0885647
-0.116337
0.000920908
-0.0156435
-0.00572829
-0.0632464
0.00904555
-0.0310135
-0.100307
-0.0493742
-0.112483
0.000428336
0.0185503
-0.00439039
0.00137625
-0.0149713
-0.125043
-0.0129149
-0.0455127
-0.00618572
-0.0448392
-0.0599631
-0.076807
-0.00154433
-0.0843999
-0.0607906
-0.000969444
-0.0259888
-0.125281
-0.00331866
-0.102435
-0.0360458
-0.0846748
-0.0213797
-0.0987343
-0.000585734
-0.0505587
-0.0322835
-0.0481815
-0.113099
-0.00242416
-0.0936417
-0.0708013
0.00384983
-0.114901
-0.0536404
-0.0304601
-0.0909746
-0.0399331
-0.0703879
-0.0312899
-0.00306517
-0.00197112
-0.029536
-0.133353
-0.106664
-0.113316
-0.00807606
-0.115062
-0.0908854
-0.0647166
-0.122877
-0.12984
-0.00327777
-0.016539
-0.0879483
-0.0310241
-0.0273841
-0.135408
-0.00217152
-0.0901295
-0.0582552
-0.128258
-0.124929
-0.00801053
-0.0938278
-0.00825577
-0.0907778
0.00328649
-0.13355
-0.0277771
-0.00791233
-0.117358
-0.000512449
-0.0297944
-0.117241
0.0138973
0.00181287
-0.0858849
-0.0950478
-0.00971781
-0.0499207
-0.126348
-0.120593
-0.00839125
-0.126698
-0.0444405
-0.00238584
-0.0529488
-0.000585757
-4.79109e-05
-0.127387
-0.0434309
-0.127624
-0.0843001
-0.0907353
-0.0981703
-0.0861755
-0.134619
-0.068244
-0.110227
-0.028096
-0.0372428
-0.00458076
-0.129258
-0.0286895
-0.110759
-0.071367
-0.089714
-0.0837935
-0.0388806
-0.127098
-0.000518052
-0.0995011
-0.000685297
-0.0936336
-0.00766668
-0.0454547
-0.100407
-0.073333
-0.130413
-0.045684
-0.0976389
-0.126232
-0.0275956
-0.000598024
-0.0258305
-0.0106642
-0.0347116
-0.0675566
-0.0266098
-0.0281831
-0.0237602
-0.0353369
-0.0253799
-0.0688529
-0.00472701
-0.00437488
-0.00131065
-0.00437394
-0.101642
-0.0278074
-0.121598
-0.13387
-0.0950025
-0.0386514
-0.000298655
-0.0803987
-0.0171596
0.00975735
-0.0391499
-0.00271866
-0.0952775
-0.0914197
-0.0356892
0.0134423
-0.0141449
-0.00764133
-0.0983823
-0.13156
-0.00198819
-0.00607615
-0.111664
-0.0404028
-0.0318472
-0.00335579
-0.0475891
-0.0102652
-0.0902243
-0.00342132
-0.0108899
-0.025931
-0.0520409
-0.111594
-0.0225905
-0.0286924
-0.039896
-0.0354151
-0.0983357
-0.0247628
-0.0102343
-0.136187
-0.123869
-0.0643976
-0.122648
-0.140456
-0.116993
-0.02951
-0.0170093
-0.135049
-0.0114106
-0.00106503
-0.0852204
-0.0022116
-0.0926593
-0.0913901
-0.0668339
-0.0893719
0.0225526
-0.0451029
-0.0693289
-0.111139
-0.00204546
-0.0464287
-0.00861319
-0.0225274
-0.00331994
-0.0264588
-0.0333938
-0.118543
-0.0233319
-0.0809927
-0.000559677
-0.11549
-0.00118502
-0.0281226
-0.108618
-0.122241
-0.00669864
-0.0528237
-0.00466719
-0.0832911
-0.0329689
-0.0568392
-0.0587014
-0.00171233
-0.0301925
-0.0243962
-0.0842618
-0.0656261
-0.0220959
-0.133037
-0.0903022
-0.0459115
-0.126746
-0.0475458
-0.00438857
-0.111221
-0.0746108
-0.0117898
-0.11161
-0.0259323
0.00714554
-0.0190938
-0.034562
-0.0601629
-0.111719
-0.0705307
0.0120123
-0.0982444
-0.0724129
-0.0701312
-0.128014
0.0217972
-0.0509818
-0.100448
-0.00378576
-0.0408928
-0.0299187
-0.00220316
-0.125196
-0.0705303
-0.00291018
-0.113777
-0.00227729
-0.110966
-0.000941201
-0.0174399
-0.0492746
-0.0877749
-0.11152
-0.0165296
-0.102782
-0.0581409
-0.00523553
0.0204485
-0.0627756
-0.120939
-0.0989384
-0.0471362
-0.00141412
-0.0934399
-0.028268
-0.0400953
0.0192458
-0.0571459
-0.00424738
-0.131418
-0.0755183
0.0020242
-0.0688105
0.00376357
-0.0277494
-0.0831755
-0.132238
-0.0347212
-0.101021
-0.00744385
-0.036499
-0.000668731
-0.00557206
0.00209773
-0.104393
-0.0559322
-0.102596
0.00275661
-0.0472461
-0.0846547
-0.000463571
-0.0289926
-0.0358367
-0.0675192
-0.00144061
-0.0806514
0.00467294
-0.0126707
-0.0194296
-0.00272094
-0.0291721
-0.0015639
-0.0284616
-0.06762
0.00640602
-0.00459174
-0.0321862
-0.00258534
-0.0268088
0.00838056
-0.0692475
-0.00988643
-5.28319e-05
-0.132475
-0.000378119
-0.110968
-0.0862829
-0.0244249
-0.00937233
-0.00204635
-0.0526106
0.00116145
-0.0291542
-0.0662321
-0.0983763
-0.00288135
-0.0692928
-0.0881042
0.00545033
-0.0774479
-0.0249162
-0.0843774
0.0165736
-0.124357
-0.113448
-0.0734371
-0.0285621
-0.0461654