/*--------------------------------*- C++ -*----------------------------------*\
| =========                 |                                                 |
| \\      /  F ield         | OpenFOAM: The Open Source CFD Toolbox           |
|  \\    /   O peration     | Version:  v2012                                 |
|   \\  /    A nd           | Website:  www.openfoam.com                      |
|    \\/     M anipulation  |                                                 |
\*---------------------------------------------------------------------------*/
FoamFile
{
    version     2.0;
    format      ascii;
    class       volScalarField;
    location    "150";
    object      ddt0(k);
}
// * * * * * * * * * * * * * * * * * * * * * * * * * * * * * * * * * * * * * //

dimensions      [0 2 -3 0 0 0 0];


internalField   nonuniform List<scalar> 
13308
(
0.000119407
0.0232816
-0.000601521
-4.54779e-06
-2.12065e-06
-1.74529e-06
1.53443e-05
-2.88135e-06
-4.83848e-06
0.000400954
0.00368187
-0.00930931
-1.78384e-06
4.69269e-08
-1.60212e-06
0.000783948
4.13022e-05
0.0386431
0.00832868
-0.0129171
4.50366e-06
-0.00445174
0.0146254
2.30305e-06
0.00123792
0.00188604
1.19441e-05
0.00595657
1.34911e-05
1.94343e-05
0.0471914
1.07565e-05
0.00973686
2.44743e-05
-0.000196203
1.26902e-06
2.10922e-05
0.0154627
-1.77749e-07
-0.000178696
-1.10391e-07
4.14601e-07
0.0188529
1.232e-07
2.79996e-07
-9.74412e-06
6.64141e-07
-3.13071e-06
-0.00208161
-0.000614709
8.72355e-08
-3.31235e-07
0.000506228
-0.0179243
-0.000672425
-0.000523639
1.21954e-07
9.45186e-07
1.31386e-06
7.57493e-07
-0.00586428
0.00635576
7.31891e-07
-5.38992e-08
1.18087e-07
0.00947025
-3.02359e-07
-2.82316e-05
-3.9051e-07
0.000149541
0.0870033
1.74972e-06
0.00186988
1.49049e-05
6.13824e-05
1.87315e-06
1.18869e-06
0.00015997
-1.10493e-08
-0.00425842
-6.99222e-07
-1.86659e-06
1.5939e-06
2.12554e-06
-2.68797e-05
-1.4391e-06
0.00160054
0.0150798
0.00172884
-0.0132459
2.13701e-07
-2.04873e-07
1.87827e-06
-2.0323e-07
5.64289e-08
2.11414e-06
6.52788e-07
-0.00471561
0.132125
0.000102178
-2.83643e-07
-4.34239e-08
-4.85528e-07
4.20714e-06
-3.18787e-05
0.0391245
-0.000564244
2.70519e-07
2.42083e-05
0.00228475
9.29161e-07
-3.92687e-06
8.2259e-06
7.79077e-08
5.65995e-06
0.00921672
-7.07777e-06
0.0174597
6.89071e-06
1.15182e-06
3.81065e-06
1.28104e-05
-5.04034e-07
-0.000165091
-0.00778624
0.000815923
2.06225e-06
-5.51432e-05
0.00197554
0.00257727
0.118417
-2.5558e-05
-2.34544e-08
2.10994e-06
1.65686e-05
-0.000106783
-6.10604e-08
-0.00849849
-0.000143299
1.31604e-06
0.000230427
6.06859e-07
-1.57447e-07
2.7212e-06
1.26401e-06
-2.67051e-05
0.00237823
-0.0114205
1.45134e-08
8.39021e-05
0.00170474
1.73677e-07
-0.000394722
-0.00147697
-0.000726737
-6.47503e-05
-1.69853e-07
-4.46982e-08
-1.10214e-07
0.00956793
0.000441022
2.30737e-07
-2.60336e-07
0.00685367
-7.89611e-05
-0.0045946
-0.00442094
-8.57455e-08
-8.17892e-05
1.10064e-06
5.2e-07
0.015802
8.04373e-08
-0.000825894
-0.000608445
0.00119548
-0.00268208
-0.000632739
0.000196176
-3.16542e-07
-0.00769031
-0.00344234
-2.76859e-08
-0.00150642
0.0187346
6.95567e-07
-0.000557806
0.0354634
1.74755e-05
0.00593316
0.0162757
-0.00929546
-4.88146e-07
-0.00929848
6.75422e-07
0.00195418
1.79956e-08
0.00241844
-0.0618265
-7.2313e-07
0.000400375
-0.000286194
-0.0288141
2.66002e-05
0.00303235
5.59208e-05
0.000526363
5.41998e-05
0.0272643
-0.00106913
0.0294109
-7.57528e-05
-9.92141e-06
0.000252363
0.00111962
2.00833e-05
1.37655e-07
0.0110647
0.00860975
-2.32801e-06
-0.000619232
-2.30358e-07
-0.000134577
2.15644e-06
4.29058e-06
0.00484608
-1.90434e-05
0.000279659
-7.27618e-05
8.11124e-06
-0.000652847
1.18304e-05
-0.000682443
-4.13226e-05
-0.00184378
1.38198e-05
-0.0369744
0.000741607
2.52114e-05
-7.67207e-05
2.37716e-06
-0.00286112
9.83454e-07
2.9118e-07
-0.006314
0.0173496
-0.000194798
-0.00579922
2.60158e-06
0.0213434
0.000743382
0.00860683
-1.08613e-07
0.00552473
-0.0703366
2.65759e-05
-0.000311582
-4.80279e-07
-0.0316382
-0.000255312
1.9078e-05
-0.0123776
3.37195e-06
-3.86729e-06
-1.79737e-05
-1.66835e-05
-0.00704931
-9.57481e-08
-0.00399075
-0.000615364
0.00589528
3.5129e-06
9.08711e-09
-2.30211e-05
3.87534e-07
3.21276e-07
1.48315e-06
-0.00409543
-5.95588e-06
-2.21799e-05
0.00315533
-8.29029e-08
0.000975283
1.14896e-05
0.0507091
0.0100878
-3.45575e-06
-0.00110525
-2.11723e-05
-0.024939
5.00971e-06
-5.81537e-07
0.00646306
-0.00355076
5.70493e-07
3.76906e-05
0.000605239
1.19394e-05
-2.65362e-05
0.00370981
0.00876509
6.07876e-06
0.00145246
-0.00247649
0.000398918
-0.000389677
7.6625e-06
-0.000658904
-0.0215557
6.93748e-07
0.0162829
0.00273785
1.31316e-06
-0.0297771
0.0113473
-0.000908906
5.12912e-09
4.61667e-07
-8.37507e-09
0.00439224
-1.3578e-07
5.28e-07
0.00182689
-3.65405e-07
0.0148071
1.81775e-06
4.95662e-06
2.32747e-07
1.75695e-06
-0.0047144
0.00661445
1.62259e-07
-0.019703
-6.36346e-07
-4.63667e-08
0.000382724
0.000113243
-1.34163e-07
-1.6643e-05
-0.0102013
1.38769e-06
2.69263e-07
1.34412e-07
-1.33007e-07
-0.000148086
-0.0289304
-2.1448e-05
-2.49152e-05
-8.36633e-08
-9.92891e-07
-2.44557e-05
-0.104267
-0.0274979
-5.54906e-07
-0.00277598
2.5853e-06
-0.00606307
-0.000940161
-1.98775e-05
-0.0662456
0.0354232
1.12513e-06
-3.07112e-07
0.000769085
-0.00903801
0.00315643
1.25942e-07
1.8498e-07
-1.2797e-07
-1.32633e-07
-9.53122e-05
0.0149613
-0.00219422
1.13526e-07
-5.47744e-07
-1.68091e-05
0.00810527
0.00661456
-6.97466e-07
-0.00154862
-1.22414e-06
-8.20073e-07
0.00310206
-7.82293e-06
2.48979e-06
-0.00693639
-2.51454e-06
1.49223e-06
-2.81911e-07
-0.0132609
3.32171e-06
-0.004915
-0.00161885
0.000671736
0.0172248
1.00083e-05
-0.00412032
-4.75463e-07
-0.000205803
3.8922e-07
0.00953401
-5.07184e-07
3.68829e-05
0.00343053
5.61202e-06
-0.000315399
-7.73444e-08
-3.98412e-07
0.0921276
-0.00321415
-4.21646e-05
-0.000651351
-0.0001459
-4.31842e-07
-2.76242e-07
0.0202321
-2.31971e-06
-2.37984e-07
2.28715e-07
-1.77391e-05
-1.49825e-05
2.05297e-07
1.37683e-06
-1.73081e-06
8.08732e-06
-0.000504432
-0.00801896
2.46551e-06
-0.0196655
0.00326246
-0.00139028
3.3182e-07
-0.00258915
-0.0159608
-1.78046e-06
8.57711e-07
0.00903842
-1.8331e-07
9.33849e-06
-0.000386689
0.000743246
-0.000532715
-0.000502014
8.98222e-07
-0.0237192
1.54639e-07
0.0110961
-0.00106259
-1.12865e-07
0.0223493
-0.00072399
-0.0700787
-7.21963e-05
-0.0776857
1.79221e-06
8.56911e-06
5.56541e-07
-9.19589e-06
0.0159662
3.2833e-05
0.0078489
-0.0404015
-4.24806e-07
0.000477363
1.53674e-06
0.000740635
-1.46908e-07
-1.59113e-06
3.26487e-07
-0.00127468
6.17821e-05
9.82734e-09
0.0175681
-1.27365e-06
0.000401476
0.00558587
0.000117187
-9.37217e-07
0.000356447
1.44964e-07
0.0015265
-8.77689e-08
0.00133101
-1.93422e-06
1.36497e-05
-1.7219e-06
-0.00160157
-0.00746338
4.81215e-07
-4.23588e-08
-2.55495e-07
7.64845e-06
-0.00843133
1.34453e-06
5.88451e-06
9.78599e-08
-1.05597e-06
-0.0132558
-0.00221694
-0.0583901
0.0112242
0.000878501
0.000387341
-0.00736864
9.0975e-07
5.91936e-07
0.000273922
-0.000406972
-3.05402e-07
0.000108232
0.000198566
-0.00105874
1.32113e-06
8.5979e-07
2.64886e-06
1.57822e-05
-1.22232e-05
-2.49316e-08
2.77424e-05
0.00498257
0.0447196
-0.0330022
0.0214988
-0.00478222
2.72541e-07
0.0125486
9.31669e-08
5.81194e-07
0.00542091
0.00117575
1.03015e-05
2.9606e-05
0.00463726
-0.00509813
5.93665e-07
-0.000355028
0.00283701
-0.00514194
1.76242e-06
9.10857e-06
1.07063e-07
-0.00271041
-1.10585e-07
0.00030624
2.37708e-06
0.0155938
-0.0100975
-0.00023526
-7.63956e-08
-9.80804e-07
0.00513792
-0.00688987
0.107333
-0.0010926
0.00283877
0.000386869
0.000735632
0.000374203
0.0088582
-0.00192208
-2.77052e-06
-4.23379e-08
-1.07158e-06
1.38075e-05
4.53942e-07
-0.00137784
0.00107607
-6.68363e-08
0.0200975
0.0166684
0.0252273
1.16552e-07
5.47215e-07
6.51169e-08
-0.00315404
1.08831e-05
-5.82517e-07
3.20029e-07
-0.144679
-4.53808e-07
0.00016628
-9.30277e-05
-8.68966e-07
1.35489e-05
-1.05218e-07
4.71624e-08
-1.61856e-07
2.00266e-07
3.63975e-07
-2.575e-08
-0.00186282
-3.19482e-07
3.54533e-05
1.51512e-06
-7.63059e-07
-0.000119793
0.00597453
-5.43754e-07
-0.000793297
-7.11577e-07
-7.8072e-07
-2.98658e-07
-6.32024e-06
6.56816e-06
-6.10069e-07
6.92528e-08
-6.15555e-07
0.0251335
-1.52524e-06
-0.0120491
-0.000602304
2.0785e-06
9.92863e-06
8.23489e-07
-0.0827856
0.0011987
9.40542e-06
-5.74231e-07
-0.0044007
-0.00778463
1.46034e-05
-1.94653e-07
-0.00241076
-0.00149832
0.000196321
-2.99516e-05
-3.37231e-07
-1.30073e-07
2.38123e-05
1.16487e-05
-5.74842e-05
-0.00094006
-0.00260695
-0.000702449
-0.0103271
0.00413831
-1.95933e-06
-5.32304e-07
-0.00503874
-7.23567e-05
-2.96879e-05
-2.93209e-07
0.000728607
-0.00039588
1.29119e-05
0.00300036
-2.01245e-06
-5.73131e-08
7.16083e-07
-0.0021521
-0.000129381
-6.64887e-07
-0.00674244
-9.94543e-07
-0.141533
-7.18334e-08
1.30388e-07
-7.10276e-05
-0.0287641
-1.12509e-05
0.00145573
-0.000237233
1.26406e-05
1.85409e-05
-8.13896e-05
-1.7213e-06
0.0013254
-1.16521e-06
6.46829e-05
0.000626782
-0.0618733
-5.66493e-05
-0.00469404
-2.45454e-06
-2.20116e-07
-2.4705e-05
-0.06976
-4.20251e-05
-0.00313245
-0.0373017
2.08279e-06
-0.0012875
-2.83611e-05
1.44373e-06
-5.05919e-06
-3.31859e-06
-5.47898e-05
-8.75857e-05
6.73836e-06
-0.0262716
2.54848e-07
-0.0168662
-2.05662e-05
2.27208e-05
0.0306682
-1.05203e-06
-9.65994e-07
4.05395e-07
-1.31051e-06
-0.00974615
-1.1821e-06
-0.000489757
0.0236982
1.94226e-05
-8.48893e-07
-0.000184807
0.000231616
-0.000706649
-0.0314376
7.831e-07
1.26328e-07
1.67574e-07
-0.00130708
-1.32716e-07
-1.30058e-05
2.47936e-06
-1.38923e-06
5.21895e-07
-1.00968e-07
-3.80739e-07
-0.000504993
-2.09631e-06
-0.00572321
0.042298
-3.81156e-06
5.7924e-08
-0.00228525
-0.00399374
2.31468e-05
0.00303822
-2.79623e-05
-3.95269e-07
-4.55762e-05
-1.61293e-06
-0.000742416
1.06613e-06
0.026786
-0.00157068
0.00873212
6.73623e-07
5.48679e-08
-0.11772
-2.77446e-07
-0.00012836
2.68739e-07
-2.47636e-06
-0.0431255
-0.00048359
-1.33449e-05
3.16754e-05
-2.29227e-06
-0.00135219
-0.0477952
0.0360156
-0.02826
-1.60782e-07
-1.19746e-07
3.09392e-06
-0.030589
-2.56429e-05
-0.000283654
-6.45966e-08
-1.76899e-05
-0.000190402
5.40489e-06
-9.67019e-09
-0.0348197
0.000198682
2.39427e-05
-1.24755e-06
1.59716e-08
3.94372e-07
1.36492e-07
1.1038e-07
2.6243e-07
1.68696e-07
2.13777e-06
0.0032789
1.56065e-06
-2.84108e-05
-0.0227839
0.00111257
-0.000199808
3.48643e-08
3.71104e-07
-0.0234678
-0.0847685
-0.0032148
-0.00132904
-0.000602148
-7.50351e-05
-8.9317e-08
-6.6764e-05
8.06431e-07
0.0128503
-4.7346e-08
0.000145519
7.48218e-08
-2.62096e-06
0.00202438
-0.000762245
-4.40359e-08
-4.51719e-07
5.13699e-07
-5.67592e-07
0.00104968
0.0103938
0.0141317
-4.93663e-06
7.25738e-07
0.00412726
-0.000823494
-1.42587e-05
-0.00173038
-0.0760743
0.0196389
-0.00882167
-0.000764019
-1.46223e-06
0.00254721
0.0104953
4.56484e-07
1.05055e-06
0.00369604
0.000390205
3.15287e-07
0.0697706
-0.000499436
2.56527e-08
-0.0371029
4.71367e-07
1.01175e-06
-0.0049025
-0.00782528
0.000248609
-1.43381e-05
6.31886e-07
4.05839e-06
1.17885e-06
-0.00408896
-0.00174067
1.86695e-07
-0.000129121
-0.0119526
-1.20123e-05
1.02552e-06
-1.86416e-06
0.000860488
1.33769e-08
-7.85961e-06
-0.00247052
-0.00225324
-1.71047e-06
-0.0442498
-0.106465
-0.0111073
-0.00466798
-0.0024327
-3.69695e-05
1.38018e-06
-3.83341e-07
1.67813e-06
0.00030447
-6.32211e-06
-1.62572e-05
-2.3277e-05
0.01768
0.00352588
-0.000401378
-2.1867e-08
-0.00782282
2.12457e-06
0.00651766
3.1844e-05
1.47385e-06
-0.00284317
2.32858e-07
-0.000678118
0.0452336
-0.00262701
-0.000479644
0.0155595
-0.00388141
0.000111608
6.21682e-06
-6.95782e-06
-1.93144e-05
0.000766364
-3.89628e-07
0.00598185
1.36372e-06
-1.26448e-07
-1.58478e-07
7.80865e-07
0.000784784
-1.10394e-07
0.0105233
0.000822357
0.0173835
4.25278e-05
3.33345e-07
0.0107179
1.50887e-06
2.12463e-06
0.00366815
-1.45304e-08
-1.12847e-07
1.8843e-05
-2.27213e-06
-2.12363e-07
-0.00537529
0.00010557
0.000852199
-0.0310549
-1.72113e-07
3.24357e-07
-1.55197e-05
-1.36962e-05
0.000687555
-1.60202e-07
0.0521866
-6.66047e-07
-9.19865e-07
-0.00812571
-5.90715e-08
9.25134e-06
3.20444e-06
1.83236e-07
-4.82284e-09
1.11773e-06
0.000668951
0.0625036
1.24852e-06
-0.00179155
0.00378332
-8.32536e-06
8.0192e-07
-0.000166034
-3.26796e-07
-5.11663e-07
-0.00270028
-4.08397e-05
-0.00182923
-0.0459581
-0.00431508
1.23589e-06
-4.19461e-07
0.0201705
6.55256e-07
1.53221e-06
-3.81149e-07
-0.00297924
0.000378055
9.65786e-07
0.047749
0.00673245
6.05233e-07
-1.8178e-06
-2.31666e-07
-2.7461e-06
-1.29297e-05
-0.00236449
1.30512e-06
-0.0122125
-6.2097e-06
4.96547e-07
0.000827041
8.88692e-07
0.0429908
0.00012346
-1.96086e-06
4.48078e-06
-1.21145e-06
-4.35015e-06
8.9564e-08
5.56527e-07
-0.00753307
-7.3694e-09
-0.000421951
2.65829e-06
8.45122e-06
-0.00715032
0.0979574
8.95472e-07
5.84201e-07
8.65544e-06
-0.00346191
-7.50222e-07
-4.8005e-08
-0.0148265
0.0182855
6.43013e-06
1.37437e-05
0.000891619
-1.12034e-07
1.86538e-07
-6.77647e-06
0.0154034
-0.0151239
5.03188e-08
-1.313e-05
-4.08884e-07
2.80299e-06
-0.000227539
2.57622e-07
-1.05428e-07
-1.21393e-05
-0.0427006
1.00464e-06
-6.28813e-07
1.92621e-06
9.31339e-06
-0.00116035
1.37008e-07
0.000148551
-5.54516e-06
0.00025859
-0.00182567
3.23169e-06
-0.0294732
3.29145e-07
-0.0989793
-0.00223979
-0.00826401
1.54129e-07
0.00130865
-7.33482e-06
-1.35865e-05
2.56223e-06
-3.14662e-06
0.00728202
6.30845e-07
7.78351e-08
-2.13028e-07
-0.00155313
-0.000311766
0.00456296
-0.0230518
-0.00252916
0.00062065
1.71537e-07
-0.00204802
-3.62973e-07
-8.92551e-08
9.42504e-08
-9.95075e-08
-0.00249902
0.0383512
6.67861e-08
-0.0110572
-0.000278867
-0.0193997
0.000582631
0.0162241
6.18196e-08
-3.15004e-08
-9.64636e-07
-5.31329e-07
-1.43257e-07
-1.20125e-07
-0.00252729
-3.97247e-06
-0.00371118
-2.10747e-05
-9.01432e-06
-0.00554136
-7.38654e-08
-8.55928e-05
-7.93977e-08
1.69232e-05
0.000712782
0.002962
8.47011e-07
-0.000654019
-0.00406735
-0.017297
-0.00366884
6.58402e-07
0.000939512
3.20309e-05
-6.80009e-06
-1.17776e-06
1.56203e-07
-1.18161e-06
-0.00162115
0.00215053
-0.00116444
-0.00138683
-0.000220445
-0.00203371
1.2734e-09
0.00939379
-1.49096e-05
-7.51086e-07
-0.00404703
-0.00752771
1.24818e-06
-0.0262252
1.07819e-05
-1.69806e-07
0.00421243
1.34342e-07
-1.20059e-07
0.000245128
2.48241e-06
1.04977e-05
0.00757401
-2.72238e-05
-0.000502285
2.61586e-07
9.16569e-07
-8.69055e-07
0.00192224
4.292e-06
-1.92014e-05
-0.00244326
-4.77082e-07
3.55283e-07
2.86398e-06
-8.7919e-06
-5.4647e-06
-0.0257641
2.11402e-06
2.83415e-05
-0.00824839
2.79368e-06
0.011736
-6.69257e-07
-3.51594e-06
0.000245765
-6.576e-07
0.00246164
0.00279833
-0.00101546
0.0377012
-4.40291e-06
-0.00241453
2.56359e-07
0.0146417
-3.75856e-05
2.56653e-06
-0.00930095
2.94238e-05
-0.00143238
-0.0237155
-4.27412e-05
5.96198e-06
-8.24143e-06
-6.1239e-07
2.38008e-06
-0.00824559
-1.4869e-07
6.32348e-08
2.21705e-06
-4.89898e-07
3.34475e-08
-5.47169e-07
-7.74388e-07
-9.00125e-07
-9.72038e-06
8.55356e-05
-0.000131043
-0.0418769
-4.65306e-05
-0.00305746
0.00125938
-0.00372966
-1.47212e-07
1.02988e-06
7.0613e-06
-0.0294135
0.0023909
0.00292593
0.000148457
0.0209786
0.0186234
-2.43048e-07
-2.64595e-06
-4.21777e-05
2.11107e-06
-8.34625e-06
0.000712955
-7.11002e-08
6.07828e-05
-0.0110986
-0.0462077
3.36706e-07
-0.000133141
-0.00083281
2.52165e-05
-9.44997e-06
-0.000261061
-0.0091213
5.66917e-07
2.8599e-06
0.0084096
1.23232e-06
-1.84572e-06
-5.15352e-08
-1.05439e-07
-1.87263e-05
-0.000145382
-0.00299334
-1.35947e-06
-1.90898e-07
1.91554e-06
-1.05454e-07
2.02701e-07
0.00330754
4.96904e-06
3.8618e-07
-4.15433e-07
0.000788326
-7.57185e-05
-1.36789e-07
2.78742e-08
2.50964e-05
-0.00463839
-1.30782e-06
9.94961e-07
-3.13455e-05
-0.126279
0.00252265
0.00377808
-1.0222e-05
0.000251053
2.99107e-06
0.00155995
-1.08827e-05
-0.0100484
1.96704e-07
-0.0316451
0.0213911
-0.00955001
-3.73927e-07
-0.000234547
6.98363e-06
0.00707495
-5.35641e-05
0.00927856
0.0388886
0.00521141
-1.26829e-05
8.10038e-06
-0.0016867
-0.000173207
0.000281711
-1.70254e-05
-0.00193142
0.0178774
-0.00421692
-0.000764642
-0.00154203
-2.17565e-06
0.00302841
2.99459e-05
0.000749042
-0.000230419
4.28898e-05
0.00367912
1.06556e-05
-0.000917923
8.61049e-06
-6.02279e-05
8.41757e-07
0.000775448
-0.137201
-1.11849e-06
0.00359253
-0.00186477
6.17496e-07
-0.00150348
-1.28265e-08
-0.00226966
3.11009e-05
1.15753e-06
-0.00438334
0.00499323
4.48765e-07
0.0165424
-0.000820678
1.1675e-07
-0.000602676
0.00429032
-0.0156212
0.000794351
-1.02248e-06
1.2026e-07
0.00236744
-1.89885e-05
0.0528548
-0.00352497
-0.0110543
-0.0123283
-8.78754e-05
2.4147e-05
0.000513583
-0.000370773
0.00473592
-0.00167111
8.03573e-06
-1.38098e-05
-0.000684952
0.000174634
-8.74469e-07
-0.0012964
4.71436e-07
-0.0693419
-3.45751e-07
3.82809e-07
-4.59832e-06
1.43191e-05
-4.7584e-06
7.28259e-05
-0.00835303
-0.00330897
5.3702e-07
-6.54482e-06
-0.026462
0.0503425
-7.89035e-06
-2.04584e-06
0.00098818
8.91153e-08
-0.000651361
-0.119828
0.00533919
-1.52615e-06
-5.22735e-07
-0.00314821
-0.000446968
-0.00384425
1.46505e-07
0.000351003
-1.2094e-06
0.00688918
-0.000743263
-5.87766e-07
0.0145646
0.00979015
-1.86086e-06
2.83362e-05
2.29021e-07
1.66209e-07
0.0121531
-6.23768e-06
0.000647844
3.10164e-07
-1.57339e-07
3.29598e-05
7.82047e-05
-6.40427e-07
0.000943865
-1.1667e-06
0.00530953
0.00314483
-2.52473e-08
0.0171563
-0.000390134
-1.28633e-06
-0.0252566
-0.00393874
-0.0350058
-2.3916e-07
-0.0062292
1.47001e-06
5.76119e-07
0.000646777
0.0384336
-0.0196494
6.23813e-07
1.8771e-05
-1.57165e-07
9.3555e-05
-3.81001e-07
-0.00683418
-0.00379102
-0.00144797
-2.89013e-06
-1.2329e-05
5.20782e-06
0.00667624
0.0137031
-0.00451806
-0.000595445
1.90468e-06
2.14573e-07
-5.89857e-08
3.19353e-06
-3.55822e-06
-1.32471e-05
-0.00645286
-8.79292e-08
-0.00135566
0.00783582
2.21966e-07
-0.0315384
3.05508e-07
-1.30911e-06
0.00534474
1.69014e-05
-7.15824e-07
4.1886e-07
-1.36625e-05
3.68348e-06
-0.00655476
-0.0136264
-0.00037175
-1.19702e-07
0.000108652
-0.000583175
-3.52521e-07
-8.49489e-07
-0.000704878
5.87236e-07
-3.76513e-07
3.39791e-06
0.0148304
0.000369577
-1.12724e-06
-0.0244183
2.30496e-06
-1.10594e-05
-0.0263209
-0.000396912
0.0123334
-0.00701912
-2.08321e-05
-0.0127616
-0.000322236
4.26543e-07
-0.00112596
0.000342143
-7.96176e-06
9.5368e-07
-1.1834e-07
-2.78891e-06
-0.00205632
1.04957e-05
-0.0821662
-0.000809326
7.93201e-05
-0.00160275
4.26682e-07
-0.10243
1.86416e-06
0.000535386
0.0239582
-0.0112616
3.88719e-05
-5.4579e-06
-0.113807
-1.16546e-06
0.012844
0.0008699
-2.2557e-05
-0.00565905
-4.13452e-07
0.00108535
2.38667e-07
6.83448e-06
2.28544e-06
5.65038e-05
-6.43105e-08
0.0207229
-1.63728e-07
0.0120489
-5.39321e-05
0.00503114
-0.00269087
0.00026879
7.40248e-06
7.71126e-06
0.00807802
0.00320538
-5.49398e-06
-0.0372325
-8.80379e-06
-7.24322e-07
-0.0027935
8.76486e-08
1.26672e-06
-0.000354232
-0.000344579
-6.34385e-07
1.79814e-07
-0.00707161
0.00927715
-0.00695205
3.432e-06
-5.78529e-06
0.00268138
0.00035718
1.47432e-06
-0.00184615
-3.33682e-06
-0.0061286
1.33666e-07
-5.2109e-07
0.0160657
0.0219971
8.13018e-06
1.28451e-05
-3.31451e-06
4.56522e-06
1.21154e-06
2.84644e-06
0.00216626
0.00533367
-9.68427e-06
-6.52801e-06
0.00395145
1.96205e-06
5.40461e-06
4.21067e-07
0.0100852
0.000830282
0.00738647
-4.06876e-07
5.39173e-07
3.18904e-07
0.00469702
-0.0481884
0.00691928
-1.77899e-05
0.00259856
-0.00161404
-0.00065664
7.36574e-06
-2.48977e-05
-8.99496e-07
6.52195e-07
2.64379e-07
-0.0186448
-5.66825e-07
2.73149e-05
0.00558448
0.000758201
-0.0663116
0.000919449
-1.76057e-07
0.00131771
-2.22154e-06
-7.56674e-05
-1.15422e-07
-0.00818642
2.71052e-08
6.35329e-07
-0.00220193
0.00693352
-3.22822e-07
1.90803e-07
-1.01102e-07
0.00369582
9.81111e-06
0.0080299
3.07388e-07
-0.00270178
-0.0162423
0.0109726
0.00184338
6.31853e-07
-0.0251951
-0.00451683
-4.3224e-06
1.1946e-05
4.33509e-07
-5.99824e-07
-3.68116e-07
-1.2451e-07
-3.21109e-07
-3.3934e-07
1.20404e-06
-2.19026e-08
-0.00367982
0.0034922
-0.000542776
1.60686e-06
-2.1922e-06
0.000700591
-2.00572e-07
8.76076e-05
-3.99958e-08
-0.000100903
-0.0388273
0.00111627
-1.15662e-06
-0.00128359
-0.00202576
-1.72692e-06
-0.000547208
1.21078e-05
-0.000401905
0.0162267
0.00200628
1.47445e-06
0.0396417
-5.57396e-07
2.65741e-07
-1.38578e-05
-8.09694e-08
3.87784e-06
1.00389e-06
-0.000132431
-0.000876173
5.17252e-07
-0.00196743
4.19728e-07
3.02661e-06
0.0837786
2.94344e-07
0.00291151
-0.000209989
2.97993e-07
5.47874e-06
0.00260431
-6.01727e-08
-0.0516605
0.0361687
-8.92822e-08
4.4764e-05
4.65706e-07
0.000178695
-0.00130063
1.04978e-06
3.69181e-08
3.61438e-07
-3.35308e-07
2.52912e-07
-1.41493e-06
1.9377e-06
5.76169e-06
-1.38324e-07
0.0264323
-0.000538436
0.00254278
-5.21608e-07
5.92954e-07
8.46358e-08
2.21631e-05
-4.13014e-05
0.00432458
0.000300044
-7.53998e-10
-0.00286365
0.0169312
-2.22384e-06
-0.00594558
-0.00304878
-7.65024e-07
-2.00373e-07
-0.0423801
-2.13963e-06
-1.49795e-07
-4.4957e-06
0.0172592
0.00615186
-0.00481433
-0.00873504
-4.51443e-06
-0.00157369
-0.00678416
-2.98907e-06
-1.39716e-07
2.19073e-06
1.47032e-07
1.31602e-05
0.026254
-9.40413e-08
0.0011463
-0.00579274
-0.126501
0.0192772
2.32158e-06
0.0899273
1.20036e-06
0.00527355
0.00027175
-7.71673e-08
1.08155e-06
0.000108006
0.000109676
-0.00219647
1.60941e-07
-0.00619633
-0.00816998
0.00361288
-1.10075e-08
0.000295909
-0.00781077
-0.0110981
-9.56159e-06
-0.00728334
0.0108242
0.000632084
-0.0329356
-1.70354e-05
-0.00112322
-0.00521648
-0.000897716
0.00447509
-0.00547996
-0.000331215
-0.0219895
0.00334362
0.00305407
-0.00102497
-2.32147e-07
-0.00408718
-0.0734845
-0.0038826
1.288e-05
-5.39425e-08
0.000965987
-1.70692e-05
0.0370479
0.000117632
0.043998
-0.00122296
-0.00592112
-1.06189e-07
-1.02608e-06
0.0121114
-0.00471809
-0.0010272
-1.63288e-06
-0.0283415
-1.00302e-06
-0.0148822
0.00010435
0.000767978
0.00339433
-1.32407e-07
0.0283645
-1.39107e-07
-0.116952
-3.03449e-05
-0.000120411
0.00188791
-3.01638e-08
-4.64877e-05
-0.0108234
0.0111521
-0.0378497
-4.58283e-07
2.87948e-07
0.00268327
0.00690941
5.45997e-08
0.0238676
5.80201e-05
6.65895e-07
-0.0316901
-9.93137e-07
-3.21656e-07
-8.96362e-09
0.0175473
-6.4953e-05
0.0108272
-1.35472e-06
-7.56467e-06
0.0112838
-1.02488e-06
-2.6122e-06
0.00665988
0.000892244
-0.101932
-0.00588577
1.70144e-07
0.0349509
-3.68208e-07
1.23488e-06
-0.00170038
1.42225e-06
0.00734182
1.75003e-08
0.0157157
9.65285e-06
0.014713
0.101274
-0.0543828
3.46237e-05
-3.97126e-05
0.00749164
-0.0593242
-2.6732e-06
0.00317096
-2.58226e-06
-0.000985712
0.0134324
-0.0269979
-5.06582e-05
-1.0718e-05
-2.54557e-08
0.00137598
2.00654e-05
-9.37196e-07
0.0111724
-0.00215113
-0.0250093
-0.00511192
1.2477e-05
-1.38251e-05
0.00044204
1.66461e-05
-0.00751168
-0.000482699
9.1137e-07
-0.0697821
-3.38305e-07
-7.32156e-07
-3.1184e-07
0.0047349
-0.00725536
-9.58618e-07
1.35983e-05
-2.84998e-06
-0.00484809
-0.00989182
0.000605633
0.00969299
-0.0811116
-9.99592e-05
-3.88834e-05
0.000454749
0.00908159
-1.47969e-05
-4.1789e-06
-2.2984e-07
-1.10077e-05
8.43123e-08
0.107944
0.00473351
-0.000202886
-4.58666e-07
-2.70329e-06
-1.4373e-06
1.79292e-05
1.7074e-05
-0.00669082
-0.000102345
0.000338344
-1.31719e-05
4.42242e-07
-1.12631e-07
-1.5913e-06
0.000357055
-0.0064694
2.2433e-05
1.5316e-05
8.02288e-06
-0.00789728
-0.0136408
0.0118534
0.00436919
-2.37198e-07
0.0415824
1.34957e-07
-0.000264149
0.000473689
-6.83897e-05
-0.00888891
-0.000291722
0.00180292
-2.7682e-05
0.0125959
-0.0057384
1.42974e-06
-0.00168516
-1.4576e-05
1.33224e-05
0.00159251
0.00902841
-0.0173699
-9.15918e-06
-0.0566666
-0.0105109
-0.000459966
0.00545558
9.57119e-07
-0.000878761
-3.7753e-06
-2.83207e-05
-0.00124001
2.60483e-08
0.0118204
1.80447e-05
-0.000425051
-0.0119487
0.00218264
-1.3831e-08
2.04805e-05
-0.00715229
0.00426951
-0.00425325
-0.00375119
-0.000128827
6.09269e-07
-0.00362638
-3.9183e-05
-1.25747e-06
-3.78098e-07
-0.00701682
-1.66279e-05
3.59767e-05
3.30906e-06
2.8631e-05
-0.00141529
-8.53085e-10
-6.51699e-05
-1.49855e-07
0.00205895
3.12137e-06
1.92688e-07
0.00798373
4.6898e-07
0.0020878
-6.18249e-08
-4.02389e-07
0.00112786
-5.22952e-08
-4.37954e-08
-9.7195e-06
-0.0110887
-5.92063e-05
-1.71031e-05
-0.00140384
0.00668014
-0.000403253
5.73241e-07
-1.82468e-07
-0.0108425
-2.48078e-06
0.000236751
-1.41717e-06
-0.00312373
0.0111203
-3.86714e-07
-5.18588e-06
-0.00298892
3.33627e-07
7.79124e-07
-0.00403871
7.00454e-05
7.80454e-06
-0.0330923
3.17709e-06
0.000569144
-0.00802638
-4.35463e-09
5.72078e-07
-1.33607e-07
0.0430773
-0.0106766
0.00358343
-0.000398369
-0.00430596
-0.00263609
-0.000549244
0.0135599
-1.43806e-07
0.0160775
0.0177484
-6.36494e-07
-0.00386586
-1.39111e-05
-9.38295e-08
2.47921e-05
0.00526058
0.00360743
0.00223229
4.55238e-07
1.18637e-05
0.000542057
-0.0960636
-1.21213e-06
0.0310193
0.00498563
-0.000489892
0.00175276
0.00203557
0.00040002
0.0142801
0.00341231
1.64691e-07
0.0185869
-1.91955e-05
1.9371e-06
-0.045912
-5.54198e-08
-4.63761e-07
-0.00657323
3.22039e-07
-4.74366e-06
-0.025152
-1.83537e-05
6.21489e-07
0.000134255
0.000149005
-0.000451136
-9.41887e-06
-0.00319488
1.55393e-06
-8.21431e-07
0.000961435
0.0340571
-0.0230158
-1.5842e-06
-0.00170756
-2.03843e-06
0.00904331
6.80734e-07
-8.10653e-06
2.32358e-07
0.0195591
4.07837e-07
2.05541e-05
0.00571421
-2.61061e-07
0.000238927
-0.000546989
-0.000425058
7.53227e-06
-5.97337e-08
-0.000404037
0.00123676
-0.000822181
4.41233e-08
-0.0163629
-0.0171968
0.00427097
-9.39671e-05
1.0533e-05
-0.00145124
-0.000321529
-0.00163174
-3.16992e-05
0.00586205
-8.945e-08
0.000120429
-4.44872e-08
0.00307959
-2.71071e-06
-0.0393959
0.0109785
-0.00027266
0.00137846
-0.00473919
-1.29596e-05
-0.000502653
6.32287e-06
0.016212
2.21695e-06
0.0138062
-2.0159e-05
-0.00666996
0.0353794
-0.0010137
0.00119353
0.000123511
0.0138702
-1.13506e-05
0.00540144
1.87769e-06
-2.50751e-05
-0.00892773
-9.25567e-06
0.0113962
-0.000324999
0.0042264
0.00137092
-0.0544913
0.00458208
0.00520014
0.0120185
1.45627e-06
-9.56176e-07
-0.00015675
-2.10216e-07
4.47912e-06
-0.0179152
-0.00838295
-0.00531797
-6.03691e-08
-0.000161622
-3.03897e-06
-1.33576e-05
-0.000484508
-0.00194551
1.11806e-09
0.00262488
8.91849e-06
0.000547271
2.78722e-06
0.00152212
-0.0642076
9.68306e-06
-0.000243911
4.79815e-07
0.00578689
0.00166646
0.000759857
0.00144784
-0.000693781
0.00635598
0.000203912
-7.31101e-05
6.01107e-06
0.000449898
1.91321e-06
0.00368193
-4.98413e-08
-0.000891048
0.00182972
-4.38627e-06
-5.88696e-08
-4.41577e-05
1.35207e-05
-0.000101234
0.028635
0.0759187
8.89516e-08
0.00206733
0.00967049
-0.0191536
-0.00234542
0.00300481
0.00771105
6.05506e-05
0.0361678
0.00643883
-2.2285e-05
-0.00182492
0.0196084
-1.87337e-05
-0.000375683
-0.00105396
-6.03573e-06
0.00130108
2.27788e-05
2.45637e-06
-1.00869e-06
0.000605914
-0.0143383
5.04277e-06
-0.000237072
-0.00146792
-0.00271672
0.0121426
-0.00243165
0.00288746
-0.0411646
-0.000594652
9.74471e-05
-1.04759e-08
-0.00044541
-5.28406e-08
0.00333227
-7.10914e-08
-0.00922065
0.00175507
4.84565e-08
-0.0704337
-0.016918
-0.000504438
-0.000572717
7.98757e-06
-0.0370628
-0.00147225
-9.53034e-07
0.0150319
-0.0310111
1.3456e-08
-0.00127005
1.10893e-07
-0.012339
2.17838e-07
3.80885e-07
4.36506e-07
0.0929999
0.00396571
0.00418919
0.0108937
-3.43278e-06
0.000565973
0.0901913
-6.47803e-07
1.69242e-06
-0.00345511
0.000376067
-0.000510022
0.0199368
0.0233731
-0.0086694
0.00191135
0.00936689
0.0161714
5.47712e-06
0.000783719
1.23202e-05
0.0999295
-0.000964757
-2.71314e-06
-0.00369469
-0.08558
-4.87439e-05
-0.00276136
4.18251e-08
7.38445e-08
2.25718e-06
1.89737e-07
0.000925348
0.00669814
-5.91925e-07
0.00374115
0.0156283
6.95342e-05
0.000831309
0.00303292
5.1148e-07
9.90741e-06
1.79052e-06
0.00483552
-3.97372e-07
-1.71165e-05
-5.04015e-07
9.37899e-07
-3.31617e-05
-6.2239e-07
-1.62015e-05
-0.0192252
-0.000115732
-8.84957e-07
5.85943e-06
0.00031192
0.0165225
-0.000546147
1.54009e-06
-0.00506409
0.00272797
2.23215e-06
-0.000627217
0.000699686
0.00710145
-2.39521e-05
3.55127e-05
0.00194325
0.00123067
-1.49776e-05
-1.62418e-05
0.00020753
0.000825266
0.000891092
-0.00344559
-0.00412699
-0.125442
-0.00681349
0.0010388
2.66606e-07
0.00140537
0.00697087
-0.00144613
-0.00119469
-0.0474381
-1.11355e-06
0.0440133
1.53283e-05
-3.0651e-07
-2.59284e-05
5.9879e-06
-4.40431e-06
1.34268e-05
-4.64004e-05
0.000644987
0.138061
0.0771683
0.00762143
4.843e-05
-0.00580725
2.57964e-06
-0.000528254
1.85107e-07
0.00744353
-2.15997e-06
0.0351893
-0.0133362
0.00871799
-2.64047e-05
0.00718926
0.13826
0.0172395
1.54723e-05
-0.000159649
-0.000345581
0.00176199
-1.33362e-05
0.0128275
-0.00265265
-0.000388912
0.00128936
0.000422965
-0.135034
0.0034705
9.48889e-06
0.019629
1.64115e-06
-0.00289172
-9.88157e-08
0.00825591
-4.03648e-05
-0.000818285
9.60641e-06
-5.25813e-08
-0.00414748
-0.0921637
-7.08895e-06
0.000733839
-6.96811e-06
-1.61534e-05
0.00656619
6.32779e-07
-2.16535e-07
0.000136528
5.62706e-06
-1.30547e-06
-0.0200095
-0.00444019
-0.00120653
-5.10172e-06
-0.0832427
-0.00157927
1.24567e-07
0.00012603
1.39241e-06
1.19568e-06
-1.2565e-05
-4.21027e-07
-1.57201e-05
8.45087e-06
0.00318934
0.00333315
-0.000571963
-0.108231
-0.00117353
1.56247e-05
-0.00150451
-1.61149e-06
-0.000466841
7.79502e-07
-0.00277491
2.50462e-06
0.000393518
0.0184771
7.47978e-07
-0.0132235
6.41394e-06
0.0218195
0.0195613
-4.86588e-07
0.000986496
-0.0247253
1.62253e-05
0.0191535
-0.00261778
-2.60884e-05
1.2047e-06
-2.6399e-05
-3.2918e-05
4.53946e-06
-5.7608e-06
-0.109351
-0.00180973
-0.00867668
-0.00040905
-8.26788e-05
0.000778166
-0.00367831
0.0011981
0.0106747
-1.08598e-05
5.12159e-06
-0.000740448
-4.76325e-06
0.00141463
-0.115932
-0.0214612
-2.70402e-05
1.34085e-07
0.00196698
-0.0288812
6.33626e-07
-0.00152324
-0.00657732
0.0446039
-2.05822e-05
-5.42261e-07
-0.00021854
-0.0175858
-1.12686e-05
8.39159e-07
-0.000102009
6.89006e-07
1.34662e-05
-0.00465088
-1.05965e-05
0.00682638
-3.33907e-05
0.000759333
-0.00559274
0.0924296
-0.115685
6.10393e-05
0.0159512
6.94135e-06
0.000132888
0.00044923
2.13592e-06
6.36493e-06
2.2819e-06
2.70346e-06
-3.67184e-06
-1.92776e-07
-1.72711e-05
-0.0177871
0.000799384
1.33833e-06
1.29561e-05
-0.00149844
0.0176551
-0.00539205
-0.0330317
-0.0376942
-0.0198827
2.98367e-06
1.62373e-05
-0.000302674
-7.0606e-08
0.00566312
-7.3859e-05
-2.60563e-06
-7.46596e-07
-0.0095386
0.00278544
4.42204e-08
0.00871718
-3.79213e-07
-1.2593e-07
-0.00422134
-0.00276136