/*--------------------------------*- C++ -*----------------------------------*\
| =========                 |                                                 |
| \\      /  F ield         | OpenFOAM: The Open Source CFD Toolbox           |
|  \\    /   O peration     | Version:  v2012                                 |
|   \\  /    A nd           | Website:  www.openfoam.com                      |
|    \\/     M anipulation  |                                                 |
\*---------------------------------------------------------------------------*/
FoamFile
{
    version     2.0;
    format      ascii;
    class       volVectorField;
    location    "150";
    object      ddtCorrDdt0(U);
}
// * * * * * * * * * * * * * * * * * * * * * * * * * * * * * * * * * * * * * //

dimensions      [0 1 -2 0 0 0 0];


internalField   nonuniform List<vector> 
13308
(
(-0.00502976 0.0239428 0)
(0.0612724 -0.175146 -1.42679e-20)
(-0.0495111 -0.0508521 -9.15372e-21)
(-0.00163349 -0.000104077 2.08774e-21)
(0.0141213 0.0046851 -5.55633e-22)
(0.00238812 -0.00076135 2.71434e-22)
(-0.0163393 0.0452679 2.05319e-20)
(-0.00125703 0.00496573 0)
(0.00599601 0.0401423 0)
(-0.0409825 -0.0369037 7.21704e-20)
(0.20285 0.0691907 0)
(0.077854 0.0296364 -5.03591e-20)
(0.00221208 -0.00075749 0)
(-0.00101443 7.7135e-05 0)
(0.00309334 -0.000639058 0)
(-0.0857352 -0.0729407 0)
(0.00760659 0.00336301 -1.81834e-22)
(0.0545858 -0.178415 -1.6558e-20)
(-0.116791 -0.0120355 -8.0025e-21)
(-0.0919764 0.0810583 -2.81752e-20)
(-0.0143628 0.0023386 -1.47084e-21)
(-0.0116322 -0.138996 1.59757e-20)
(0.0407794 -0.0665567 3.83987e-20)
(-9.06943e-05 0.00846616 4.18114e-21)
(-0.0929668 -0.0739788 0)
(0.0265951 -0.0793943 -1.32323e-20)
(0.000169309 0.0143349 -5.21269e-21)
(0.216053 0.0875653 -7.98557e-21)
(0.0036924 0.0203504 -7.47811e-22)
(-0.035793 0.0201097 0)
(0.146306 -0.115814 9.90125e-21)
(-0.0255391 0.0180808 0)
(0.0415024 -0.0922184 0)
(0.0193863 0.0332521 0)
(0.153552 0.0237803 -2.17427e-20)
(0.00481976 0.00764468 4.5365e-21)
(-0.0166885 0.0527752 -1.3994e-20)
(0.0365504 -0.0606572 -1.71658e-20)
(-0.00415305 0.00175968 -1.88699e-22)
(-0.0690158 -0.0553716 5.35866e-21)
(-0.000467613 0.000168107 0)
(-0.00102634 0.00399654 4.09726e-21)
(0.123607 -0.0619021 -4.451e-21)
(-0.00106982 2.98031e-05 -1.21475e-20)
(-0.00555673 0.00133648 0)
(0.0542852 0.0857425 0)
(0.00325542 -0.000810311 -4.62415e-24)
(-0.00113555 -7.82448e-05 -1.1246e-22)
(-0.0293667 0.0195583 -2.77445e-21)
(-0.0403971 -0.0397916 8.03364e-21)
(-0.000981393 1.43463e-05 1.11966e-21)
(0.00057084 3.88208e-05 0)
(-0.0742279 -0.193915 1.20765e-19)
(-0.0094484 -0.200698 3.92847e-20)
(-0.0347007 -0.000538643 9.70205e-19)
(-0.0331084 -0.00550364 -6.00943e-21)
(-0.00108681 2.06675e-05 -5.52417e-21)
(0.000161147 0.000312956 -9.40945e-21)
(-0.00442089 0.00498825 2.16409e-21)
(-0.00375913 0.0058952 0)
(-0.0618101 0.0149136 2.14216e-20)
(0.0216592 -0.0881569 -1.34863e-20)
(0.000112453 0.00224619 1.48022e-20)
(-0.000566755 0.000751357 0)
(-3.4992e-05 -7.76267e-05 -5.3246e-21)
(0.0460817 -0.0912445 -6.36213e-21)
(-0.000850321 -0.000172448 -5.45954e-21)
(0.0275528 0.102724 0)
(-0.00216997 0.000469602 6.87861e-21)
(-0.104723 -0.00890329 0)
(0.210083 0.234632 0)
(-0.00512694 0.00252414 2.97646e-21)
(0.0308111 -0.0163341 3.35204e-21)
(-0.0292172 0.0168365 5.42401e-21)
(0.0158694 0.110321 2.79894e-21)
(-0.00408768 0.000793666 -1.35391e-20)
(-0.00310893 -0.00397849 0)
(-0.028713 -0.00421916 2.61758e-21)
(-0.000900684 4.92212e-06 -6.53679e-21)
(0.0269142 0.0351417 -1.07497e-20)
(-0.00112764 -0.00192888 4.03698e-21)
(-0.00530924 -0.00735563 0)
(-0.00398693 0.000272783 7.51034e-21)
(-0.00147786 0.00893428 0)
(-0.00734608 0.0910995 0)
(-0.00187669 0.00381305 0)
(-0.0233686 0.00349102 2.74704e-21)
(-0.144414 0.330873 -2.54395e-20)
(-0.0266566 0.0595795 3.04073e-21)
(-0.0990792 0.0595113 2.80334e-20)
(-0.00230691 0.00254227 -8.08534e-21)
(-0.000839201 -0.000328441 0)
(0.00146736 0.027211 -4.6222e-21)
(-0.0160574 0.00607791 6.0689e-21)
(-0.000974025 5.40653e-05 8.85827e-21)
(0.00170782 0.00373674 7.71387e-21)
(2.41094e-05 0.00290843 -2.46329e-24)
(0.0219155 0.0308061 2.9203e-21)
(0.321707 0.225572 -3.57879e-20)
(-0.0960023 -0.0208991 0)
(-0.00219173 0.00224953 -3.85658e-22)
(-0.000332542 0.000164547 5.44689e-21)
(-0.000211764 -0.000201044 5.02442e-21)
(-0.0166302 0.00517606 0)
(0.115181 0.0392985 -1.71648e-20)
(0.114738 -0.14004 -1.80406e-20)
(-0.0443065 -0.0545744 8.50315e-21)
(-0.00217599 0.000539927 -5.95564e-21)
(0.00202254 -0.0662758 0)
(0.0311402 -0.0797324 1.71657e-20)
(-0.000195991 0.00583672 -1.8141e-21)
(0.0230293 -0.00523253 -7.4626e-20)
(-0.00141396 0.00785586 -4.56295e-21)
(-0.000938172 2.62423e-05 6.17817e-21)
(-0.000162235 0.00882036 6.08524e-21)
(-0.127201 0.0271694 1.28251e-20)
(0.0612103 0.0460695 -5.14232e-20)
(0.039153 -0.049986 -2.86762e-20)
(-0.00140313 0.0268241 2.90168e-20)
(-0.000578692 0.00396763 0)
(0.0010601 0.0150097 -7.57053e-22)
(-0.0216875 -0.00184675 0)
(0.00120785 -0.000469414 -1.06857e-20)
(0.0141555 0.00357656 3.76551e-22)
(0.0445372 0.0527525 9.3528e-22)
(-0.0662171 0.0556571 0)
(-0.0127481 0.135058 -2.00921e-20)
(-0.0114368 0.113365 1.75775e-20)
(0.0315552 -0.0136863 -1.6795e-21)
(-0.0944371 -0.0366715 0)
(0.343195 0.167053 0)
(-0.00405226 0.0290768 3.71714e-21)
(-0.000523629 0.00064246 -5.55261e-21)
(0.00172561 0.00401326 -3.7952e-21)
(0.01418 0.0324198 1.30527e-21)
(0.0110855 0.00329629 6.70679e-21)
(-0.000959008 -3.10731e-05 0)
(0.0432366 0.0427359 0)
(0.0580744 0.0166969 0)
(-0.00045184 0.00357481 5.12834e-21)
(-0.0216091 -0.0221013 1.82865e-21)
(5.41343e-05 0.00282663 0)
(-0.0010214 0.000898226 0)
(-0.00375063 0.00195981 0)
(-0.00218113 0.00760656 9.61455e-21)
(0.041842 -0.0286964 5.52651e-20)
(0.0227168 -0.0254847 0)
(-0.108888 0.047027 4.97317e-20)
(-0.00144764 -0.00221942 -7.55602e-21)
(-0.00350518 0.0209584 -1.41258e-20)
(-0.0445642 -0.00243371 -9.79236e-19)
(-0.000452973 -9.25429e-05 0)
(-0.164902 -0.0398683 -4.26753e-21)
(-0.0659113 0.0456779 2.18123e-20)
(0.127117 0.0760938 0)
(0.034759 0.0457559 1.74536e-20)
(-8.08438e-05 0.000229496 -5.25444e-21)
(0.000777942 -0.000292523 1.64027e-20)
(-0.000487449 0.000100132 0)
(-0.0954656 0.279332 0)
(-0.0513879 -0.0546989 -9.74031e-20)
(0.00040988 0.000796756 7.99278e-21)
(-0.0013558 -0.00020556 -2.99392e-21)
(0.015889 -0.0889796 1.24819e-20)
(0.0374393 0.058026 -1.76401e-20)
(-0.0336738 0.0325341 0)
(-0.0214973 -0.14035 6.56782e-20)
(0.000828684 -0.000243448 -4.68509e-23)
(-0.00324505 -0.0661647 -9.39969e-21)
(-0.000447452 0.0093224 9.44924e-22)
(0.000805664 0.00140931 9.11583e-21)
(0.0126699 -0.00968349 2.77553e-20)
(-0.000568894 -9.14492e-05 -5.28785e-21)
(-0.0428413 -0.0307314 -3.91716e-21)
(-0.0218703 0.00132161 1.68035e-21)
(0.00743769 -0.108611 -3.80862e-20)
(0.0028207 -0.131672 4.67333e-20)
(-0.0420624 -0.0442866 3.69091e-21)
(-0.00293321 0.0193225 1.01402e-20)
(0.000383019 9.68167e-05 -1.00093e-20)
(0.0487188 -0.0143579 -8.85749e-21)
(-0.0732479 -0.224474 2.20916e-21)
(-0.000726818 -0.000174018 5.50267e-21)
(-0.0366712 -0.0106074 -2.44415e-21)
(-0.0318551 -0.0964515 0)
(0.00050602 0.00125088 -4.19119e-21)
(-0.0342506 -0.00750952 5.65447e-21)
(0.171222 -0.093551 0)
(-0.0327795 0.0377718 0)
(0.129766 -0.167169 0)
(0.0930534 -0.0897806 0)
(-0.0963559 0.0796436 0)
(-0.0036381 0.00368179 -5.24122e-21)
(0.0742736 0.040421 -6.11256e-20)
(-0.00136985 0.0032501 -2.3377e-21)
(0.0116859 -0.105041 3.29127e-20)
(0.00182978 0.000657139 -6.85496e-21)
(0.0251633 -0.0276028 -2.06561e-21)
(0.0349311 0.132064 7.54825e-22)
(-6.46978e-05 0.00284879 4.95399e-21)
(-0.0804353 -0.0862393 -1.05851e-20)
(-0.0674286 -0.193693 -4.08642e-19)
(0.161523 0.015071 -1.08969e-21)
(0.0144287 0.0307919 1.14598e-22)
(-0.100908 -0.0445698 0)
(0.0597334 0.0554176 -6.02392e-21)
(-0.0840921 -0.0510922 7.12436e-21)
(0.0182787 0.122382 1.70118e-20)
(-0.00773882 -0.0932395 -1.49956e-21)
(-0.0307282 -0.00107077 2.34708e-21)
(0.0234298 -0.0916701 -3.95318e-20)
(-0.0300125 -0.0963902 -9.25715e-21)
(0.0115891 -0.00468909 1.88563e-21)
(-0.0189868 -0.0244806 5.1913e-21)
(0.0363088 -0.0670105 2.21824e-20)
(-0.0164354 -0.012433 0)
(-3.31365e-05 0.000182526 7.28175e-21)
(-0.197923 0.329908 -3.46611e-20)
(-0.0652064 0.296645 4.68146e-21)
(0.000342238 0.175856 -6.64317e-21)
(0.193737 0.177306 7.49353e-21)
(-0.000593959 -0.000129306 -1.19487e-20)
(0.0301082 0.0383592 0)
(0.00404268 -0.00542692 5.9302e-22)
(-0.0237372 -0.00481659 0)
(-0.122639 -0.114641 -4.82902e-20)
(0.0258399 -0.0159114 0)
(0.0995992 0.0480766 3.34288e-20)
(-0.0302045 -0.00507187 -5.34168e-22)
(0.0574478 0.0236413 4.97563e-21)
(-0.067153 -0.0386981 -5.5942e-21)
(-0.0172656 -0.0161564 -4.25447e-23)
(-0.0474968 -0.0455207 -2.28571e-21)
(-0.00999346 0.110634 0)
(-0.000895614 0.0271294 0)
(-0.000312366 -0.0023737 8.12134e-21)
(0.0384044 -0.156559 0)
(-0.0244929 -0.0608031 0)
(0.103261 0.0926832 -2.59275e-20)
(-0.0159564 -0.0341165 6.01702e-21)
(-0.00205209 0.00996767 0)
(0.00099862 0.0262649 0)
(-0.015577 0.00555975 1.39966e-20)
(0.00313669 -0.00206239 -1.57776e-22)
(0.0589274 0.00871928 -3.6353e-22)
(0.0448252 -0.0178061 -6.65691e-20)
(-0.0242376 -0.13172 2.20638e-21)
(-0.106289 0.0748846 -6.47937e-20)
(0.00445469 -0.00425342 0)
(-0.0232264 -0.0908901 1.17255e-21)
(0.0355913 -0.0680671 -2.29046e-20)
(0.0391588 -0.0933514 -1.47854e-20)
(-0.00033776 0.000109205 -1.76182e-21)
(0.025334 -0.0855509 1.13358e-21)
(0.0647859 0.157893 4.06391e-20)
(-0.017975 -0.0108863 5.17254e-22)
(-0.167928 -0.0700356 -1.67642e-22)
(-0.000640677 -0.000125391 6.71506e-21)
(-0.0466511 -0.246239 0)
(-0.0310492 -0.00449734 1.24338e-20)
(-0.0374577 0.0264032 0)
(-0.0856931 0.0628074 0)
(0.00772419 0.00299677 0)
(0.00152565 -0.00605708 1.61021e-20)
(0.0295726 0.0501595 -2.92425e-20)
(-0.00816423 0.0226107 -9.25474e-21)
(0.083286 0.0457907 8.48837e-20)
(-0.000606313 0.000787948 0)
(0.18208 0.233839 0)
(-0.0923979 -0.112994 0)
(-0.0220616 -0.114204 -3.31657e-20)
(0.00357988 0.0135875 2.5387e-21)
(-0.00102807 1.86489e-05 -5.23095e-21)
(0.0510429 0.02411 0)
(-0.000830747 0.000222823 -8.98608e-22)
(6.19919e-05 -8.11435e-05 2.7523e-21)
(0.00137397 0.00475096 -2.18405e-21)
(0.0714667 0.0429827 6.89532e-21)
(0.00472827 0.0138785 -8.74891e-21)
(0.0356865 -2.97249e-05 -3.5921e-20)
(0.0205833 -0.102823 2.06178e-20)
(-0.000756289 0.000146556 9.58315e-21)
(-0.0441533 0.031185 -3.29096e-21)
(-0.0185574 -0.00810853 -4.0956e-22)
(0.196411 -0.0696397 0)
(-0.166093 -0.2026 -1.57349e-20)
(0.0013641 -0.00521587 -8.44739e-21)
(-0.00582559 0.021117 0)
(0.0507128 -0.00719097 -1.00612e-21)
(-0.138192 -0.219895 -4.77281e-20)
(-0.00550994 0.0248536 -1.33595e-21)
(-0.000885226 -0.000815422 1.80267e-20)
(-0.00495242 -0.0442665 -2.39614e-20)
(-0.0647336 -0.194964 1.63841e-20)
(0.000530755 -0.000157081 0)
(0.130576 0.0179446 -1.26368e-20)
(-0.0259412 -0.00633219 1.26052e-20)
(-0.0380349 0.0119027 -9.04247e-22)
(0.0376131 -0.00287159 -3.7881e-20)
(-0.118441 -0.112036 1.37431e-20)
(0.0422625 -0.0935575 -7.1121e-21)
(0.0147972 -0.00584981 -1.84437e-20)
(0.024925 -0.0770942 1.49043e-20)
(-0.0623087 0.15056 4.41488e-20)
(-0.029794 0.0891714 -2.78213e-20)
(-0.0188067 0.0299365 -1.12223e-20)
(-0.0173413 0.016127 -3.14141e-21)
(-0.0389122 -0.0314879 -7.13964e-21)
(-0.0940337 0.0613906 2.70404e-20)
(0.000386708 0.00137335 0)
(0.0366503 0.0137295 2.38293e-20)
(0.0910426 -0.442042 -5.98774e-20)
(-0.00254413 0.0267454 8.11265e-21)
(0.17177 0.0226991 -5.10263e-22)
(0.122139 0.000490908 0)
(-0.0176117 0.000417234 0)
(0.000439119 -3.39405e-05 -5.16891e-21)
(0.000570524 -7.07671e-05 0)
(-0.000765834 2.0181e-05 8.75661e-21)
(-0.0187872 -0.04982 -2.61337e-21)
(-0.000366946 0.000138672 9.7066e-21)
(-0.00491631 -0.00627626 0)
(-0.0903176 -0.033617 0)
(-0.00385041 -0.00433183 0)
(-0.122375 -0.132472 -4.01412e-20)
(-0.0033201 0.00381351 -2.46474e-21)
(-0.0199488 -0.0142135 6.97398e-22)
(-0.00073761 0.00154356 0)
(-0.00581407 0.00259262 -3.33244e-21)
(-0.0318654 0.037406 -4.29553e-21)
(0.0414386 -0.0944312 1.90145e-20)
(-0.00096964 5.83577e-05 -5.70261e-21)
(-0.0920228 0.0673635 1.37487e-21)
(-0.00240602 -0.00196565 0)
(-0.00311605 0.00063264 5.23678e-21)
(0.0642524 0.0653236 1.50789e-20)
(-0.0893961 -0.100609 0)
(0.000904368 -0.000210268 -6.10993e-21)
(0.0222631 -0.013518 0)
(-0.1193 0.0297925 0)
(0.00545458 0.00289709 1.54277e-21)
(-0.000645088 0.00124161 0)
(-0.00103339 -4.0173e-05 1.25624e-20)
(0.0170032 0.0137141 3.23802e-21)
(0.0893542 0.0301429 0)
(-0.134642 -0.22897 -1.02714e-19)
(0.0391817 -0.0248543 3.04732e-20)
(0.0363172 -0.0316106 -1.87784e-20)
(-0.000392683 4.64253e-05 0)
(-0.00861871 0.0167001 -1.15251e-20)
(0.0125893 0.000582976 -1.3078e-21)
(0.214396 0.0664437 5.79159e-20)
(-0.109029 -0.296063 0)
(-0.000637851 -0.00074538 0)
(-0.0320998 0.00623454 -7.08825e-20)
(-0.00546715 -0.000150482 -4.22622e-21)
(-0.0529174 -0.22051 0)
(-0.0238656 0.0146198 0)
(0.0374894 -0.00997214 -2.94833e-20)
(0.0784442 0.171494 5.21766e-21)
(0.0735848 -0.148135 -3.95267e-21)
(0.00893162 0.0440509 6.17149e-22)
(-0.000601851 0.00447393 0)
(0.000403263 -0.1338 2.93292e-20)
(-0.0542847 -0.196598 -4.49798e-20)
(0.0312893 -0.0757664 -3.29272e-21)
(-0.00105202 2.84736e-05 -1.19689e-20)
(0.00340353 -0.00143764 4.65632e-22)
(0.00109106 0.00115582 -1.63918e-20)
(0.0021583 0.00112976 2.09301e-21)
(-0.0725976 -0.0898366 0)
(-0.127299 -0.224963 -4.07158e-20)
(-0.0967914 0.0774939 0)
(-0.000962719 2.444e-05 1.04322e-20)
(0.00137943 0.00322029 1.43589e-20)
(0.0336614 0.00808745 0)
(0.0112476 -0.0914099 -2.71553e-20)
(0.0362365 -0.0906272 -3.01828e-21)
(-0.00106331 -0.00211972 -4.07657e-21)
(0.0700575 0.0608085 6.16768e-21)
(-0.00368589 -0.000774631 1.68224e-21)
(-0.00243799 -0.00246763 9.98528e-22)
(-0.0207976 0.0794118 1.93573e-20)
(0.0116415 -0.00247173 1.07157e-20)
(0.00127002 0.00428052 9.32679e-21)
(-0.0523416 -0.189283 0)
(0.0328765 -0.013771 -1.13303e-19)
(-0.00746871 0.00455939 0)
(-0.000786266 -0.000261583 5.32123e-21)
(-0.0591136 -0.0321593 -6.50083e-20)
(-0.0103496 0.0146883 6.54726e-21)
(0.0034285 0.0347869 7.95772e-21)
(-0.0513001 0.0367123 -4.95554e-22)
(-0.0918626 -0.0951067 1.63159e-20)
(0.0346342 -0.083137 -8.54355e-20)
(-0.0352472 0.0146319 1.52531e-21)
(-0.0202337 -0.260412 1.1119e-20)
(-0.000561946 -0.00080185 0)
(0.0910302 0.0331614 0)
(-0.000646832 0.00184863 -1.0851e-20)
(-0.0984261 0.191256 0)
(0.000369086 3.69462e-05 1.36121e-20)
(-0.0827111 0.0103271 0)
(0.034081 -0.0766581 3.79889e-21)
(0.0093385 -0.0103024 -5.55933e-23)
(0.131833 0.0109361 2.20699e-20)
(-0.000352899 0.000187551 -7.83655e-21)
(0.00124158 -0.000308317 1.08455e-20)
(0.365719 0.149524 -6.02854e-20)
(0.107702 0.0505328 1.85965e-20)
(0.00357393 0.00736694 5.05105e-21)
(-0.0870798 0.0839091 6.48482e-20)
(0.0736969 -0.083622 0)
(-0.000542 -0.000649478 5.28901e-21)
(-0.000960859 -0.00040727 5.51054e-21)
(0.0174671 -0.0310404 -1.50555e-20)
(-0.0039483 0.000913762 6.91607e-22)
(-0.000939418 -0.000528597 0)
(-0.0057617 0.00488432 1.8601e-21)
(0.0364552 0.00220221 1.20349e-20)
(0.0531171 -0.0152157 1.55718e-20)
(0.000216741 0.0024672 0)
(0.00357357 0.00137631 -2.66614e-21)
(-0.00180299 -0.00189509 0)
(0.000504939 0.0086755 1.0949e-20)
(-0.0451978 -0.0600135 -1.69828e-20)
(-0.127325 0.0193426 0)
(-0.00152938 1.55942e-05 -1.72959e-20)
(-0.00155426 -0.182035 -3.02426e-20)
(-0.0136805 0.0836762 -1.54126e-20)
(-0.162369 -0.198151 0)
(0.00107651 0.000526654 1.02688e-20)
(-0.052064 0.0301289 2.87979e-21)
(0.0709073 0.193032 2.98345e-21)
(0.00103973 -0.00310357 -1.29156e-20)
(-0.00304023 -0.00258109 -1.5204e-21)
(0.00396836 -0.0925727 1.0399e-20)
(-0.000950416 -0.000360349 9.3231e-21)
(-0.00625283 0.0267523 3.60722e-21)
(-0.0670779 -0.0497048 -1.26543e-20)
(0.00727299 -0.0294045 -6.18539e-21)
(0.0616907 -0.104269 0)
(-0.030619 -0.0415655 2.54634e-20)
(-0.000640623 0.000284762 9.07522e-21)
(0.000543541 -0.179052 6.32556e-20)
(0.00219879 0.00392831 -3.32052e-21)
(0.0309722 0.0402339 -5.96433e-21)
(-0.0755439 -0.188066 0)
(-0.000701143 -0.000179899 -8.24287e-21)
(-0.00938093 -0.0795331 0)
(-0.0063798 0.0295447 0)
(0.259781 0.179801 -4.08338e-20)
(0.0410475 -0.105309 2.18303e-21)
(0.15455 -0.0449085 0)
(0.000773846 0.00884924 -2.70035e-21)
(-0.0125429 0.0178319 -2.25715e-21)
(0.00560204 0.0188271 3.09264e-21)
(0.0728411 -0.0669121 -5.89755e-20)
(0.0262069 -0.0681099 0)
(-0.0780603 -0.013473 0)
(-0.0989043 0.183063 0)
(0.0420554 -0.153782 2.10527e-21)
(-0.000873335 -9.80694e-05 -1.13797e-20)
(-0.0635327 -0.0604602 0)
(-0.000858973 0.00330813 0)
(-0.0244213 -0.00386144 1.35454e-20)
(0.000928517 -0.000341411 9.10724e-21)
(-0.00182566 -0.000309812 0)
(-0.00116544 0.000410348 -1.58957e-20)
(-0.0804312 -0.112723 2.97873e-20)
(0.0510095 0.0909702 4.33412e-20)
(-0.000353162 0.00115872 0)
(0.0202931 -0.0643617 1.67094e-20)
(-0.00159329 -6.80235e-05 -6.77777e-21)
(0.115592 -0.0724103 9.5886e-20)
(0.035814 -0.0878459 2.22982e-21)
(0.00774575 0.0178172 2.1511e-20)
(-6.53722e-05 0.00581902 0)
(-0.0375834 -0.0693863 -5.25428e-21)
(-0.00106136 -1.04889e-05 0)
(-0.00163466 -0.0200304 1.30786e-21)
(-0.000423888 8.29632e-05 0)
(-0.00683585 -0.0222891 0)
(0.00101403 -0.00352386 2.03804e-20)
(-0.0407058 -0.0495956 4.1487e-20)
(-0.00184797 -0.00134964 0)
(-0.0256686 0.0153112 0)
(0.0119507 -0.0205637 2.35053e-21)
(-0.000643776 0.00661299 1.8951e-21)
(-0.000963699 -0.000113393 -9.34806e-21)
(-0.00109769 -0.000493814 1.77744e-20)
(-0.017378 0.0150687 2.11619e-21)
(0.0216641 -0.000461797 -4.83341e-21)
(-0.00345619 -0.00214941 -1.27987e-23)
(0.00953193 -0.0110266 4.75044e-22)
(-0.00270247 -0.000379146 -7.88678e-22)
(0.00246543 -0.000508225 0)
(-0.0259451 -0.239508 4.4746e-20)
(-0.108626 0.594389 3.1428e-19)
(0.244665 0.200856 3.58106e-20)
(0.0808611 -0.024159 -3.81345e-21)
(-0.0242326 -0.00386295 0)
(0.184554 -0.00370464 1.8862e-20)
(0.0749809 0.0630456 -1.4084e-21)
(-0.00787995 0.00522276 0)
(0.00357602 -0.000539264 -8.11755e-21)
(-0.0601235 -0.0954438 -2.78343e-21)
(-0.0264819 -0.040779 -3.40597e-20)
(0.000396557 -1.38222e-05 1.0343e-20)
(-0.00381732 -0.0740826 -2.31173e-21)
(0.00160281 0.0358807 0)
(-0.0793139 0.03839 2.60045e-20)
(-0.00373439 0.00150982 -6.50825e-21)
(0.00052373 3.5069e-05 0)
(-0.00125424 0.00607536 -3.06265e-22)
(0.0171528 -0.00289887 0)
(0.0253699 -0.0104132 8.49691e-22)
(-0.000873125 -8.63972e-06 0)
(-0.0214562 -0.00475631 1.73215e-20)
(0.0366786 -0.0869282 -2.89398e-21)
(-0.00953257 -0.119973 0)
(-0.0939768 -0.266422 0)
(-0.0296576 -0.0965821 0)
(0.000411134 0.0228363 -6.82034e-21)
(-0.000356936 0.000534083 0)
(0.0152722 -0.0544596 -1.57457e-20)
(-0.00114255 -4.10433e-06 3.05718e-21)
(-0.00301548 -0.00294632 1.53221e-21)
(-0.048097 -0.0881382 3.98261e-22)
(-0.0638822 0.0751082 0)
(-0.0406609 -0.0561537 -7.56624e-21)
(0.0185084 0.0121111 1.22466e-21)
(0.0185374 -0.0830661 -4.94073e-21)
(-0.0688921 -0.15524 8.71689e-20)
(0.000424057 0.00162814 1.70983e-21)
(0.0762054 0.0589117 -7.92984e-21)
(-0.00916301 0.0659335 -1.09148e-20)
(-0.0554631 -0.220438 1.31162e-20)
(-0.00356864 -0.00368496 -1.98158e-21)
(0.0645503 0.0690803 -3.08272e-20)
(-0.00103952 2.06103e-06 5.65435e-21)
(-0.0732649 -0.0218949 4.17791e-21)
(-0.000352664 0.000229347 2.06947e-21)
(0.109986 0.0481839 3.26549e-20)
(-0.00375922 0.00112006 8.73655e-21)
(-0.126956 -0.12878 -5.6745e-20)
(-0.0877829 0.717377 5.01823e-20)
(0.0393858 0.0284467 2.18413e-20)
(-0.000951351 -0.000122993 -9.79341e-21)
(0.00277018 -0.00255797 2.25627e-20)
(0.0190271 -0.0839223 0)
(0.0430494 0.0366826 -3.87084e-20)
(0.30371 0.209047 0)
(-0.071273 0.0300288 0)
(0.0321279 -0.0831196 -2.40588e-20)
(-0.0380155 -0.0624484 1.67402e-21)
(0.0701412 -0.0951606 1.49513e-20)
(-0.0273886 -0.00631706 -1.02785e-20)
(0.0806521 0.0951603 0)
(0.0755599 -0.0922418 -1.71968e-20)
(0.00903757 0.0069345 0)
(-0.000317581 0.000150641 -3.93862e-21)
(0.00269188 -0.00273952 0)
(0.119038 0.00386272 0)
(-0.00101322 0.000234808 7.6989e-21)
(0.0258647 -0.0535978 -3.40144e-19)
(-0.0212999 -0.00775898 9.73188e-21)
(-0.000394458 0.000703699 0)
(0.00920172 -0.0559338 3.3157e-20)
(0.0342566 -0.0408373 1.0916e-19)
(0.15091 0.474354 1.54333e-19)
(-0.00106498 -3.30302e-05 0)
(-0.0010409 0.000256935 -7.83287e-21)
(-0.00102382 -0.000112763 0)
(0.0947282 0.196209 5.20556e-20)
(-0.0064488 0.0279265 -8.8856e-21)
(-0.000695266 -0.00080671 6.16423e-21)
(-0.000821873 0.00223363 3.68231e-21)
(0.342217 0.067276 -2.30891e-20)
(-0.00019953 -0.000236515 0)
(-0.0971546 -0.105513 2.10671e-21)
(0.0200598 0.0550082 -2.86211e-20)
(0.0031692 0.000777094 1.18217e-20)
(-0.0381541 -0.0209955 -6.69895e-21)
(-0.0005748 0.000730289 0)
(-0.00104428 -2.6293e-05 0)
(-0.00131225 0.000877806 0)
(-0.0185995 -0.0133511 2.57763e-21)
(-0.00575618 0.00806767 -2.36775e-21)
(-0.000264972 0.000258378 1.48752e-20)
(0.0721855 0.103573 -5.07671e-20)
(-0.000446521 -0.00055493 5.90793e-21)
(0.015736 -0.013599 -1.05838e-22)
(0.00402095 -0.00263964 0)
(-0.000840281 -6.27633e-05 0)
(0.024191 -0.0504901 0)
(0.0374888 -0.0894496 2.23999e-22)
(-0.000881075 -0.000827135 -6.60933e-21)
(-0.0365619 -0.0090948 0)
(0.000751314 0.00104064 -2.0605e-21)
(-0.000831249 -7.38812e-05 0)
(-0.00106106 -0.000505039 0)
(0.0149934 0.000181511 -2.42866e-20)
(0.0130967 -0.00570712 2.34366e-20)
(-0.00297327 0.000308432 0)
(0.00427066 -9.25327e-06 1.31024e-21)
(-0.000760154 -0.00101207 -1.16443e-20)
(0.054034 0.270791 7.14679e-20)
(0.00694881 0.00802135 1.31257e-20)
(-0.0461598 -0.223581 1.18916e-20)
(-0.0543759 -0.194906 2.77028e-19)
(0.010555 0.00672752 1.45801e-20)
(0.00901076 0.00649518 3.55791e-21)
(-0.000830613 0.000210143 7.44248e-21)
(0.169584 -0.028024 0)
(0.0747817 0.181265 4.08409e-20)
(-0.0151287 0.0188246 0)
(-0.00210602 0.000254846 -1.02468e-20)
(0.0604291 0.0537159 -7.7583e-21)
(0.0768439 0.0704972 3.10891e-20)
(-0.0377701 -0.0309547 -6.40983e-21)
(-0.00117877 0.000199182 0)
(-0.00778028 0.0364677 1.25655e-21)
(0.0675818 0.0489437 4.53858e-21)
(0.0100251 0.0561788 -2.11681e-20)
(-0.0230353 -0.00105172 1.10922e-20)
(-0.000974537 -0.00192058 1.14502e-20)
(-0.000902165 -0.00010422 1.21997e-20)
(-0.0439449 -0.00229068 0)
(-0.0253194 -0.00141616 1.98502e-20)
(-0.00562056 -0.025909 -4.88496e-21)
(0.0830973 -0.0813941 0)
(-0.0581098 -0.067602 1.1921e-22)
(-0.0591184 -0.0433344 -4.88104e-21)
(0.0569372 0.0401897 1.27143e-19)
(-0.0395148 -0.0833267 0)
(-0.017041 -0.0155597 -1.46756e-21)
(-0.00499621 0.00108551 -3.31167e-21)
(-0.0333959 -0.210615 0)
(-0.00571818 -0.0703434 3.47975e-22)
(0.00403519 0.010287 8.90891e-21)
(-0.00101139 0.000408727 3.64656e-21)
(-0.0246533 -0.00773247 0)
(0.135629 0.00568265 1.68785e-20)
(0.0222439 0.0102881 5.0638e-22)
(-0.0165953 0.0542193 1.30469e-20)
(0.00046958 0.00489701 -1.32207e-19)
(-0.000632576 0.00148159 -1.83586e-21)
(0.00395581 -0.00277667 0)
(-0.0325055 -0.243177 -7.426e-21)
(-0.0704373 0.113181 0)
(-0.000249168 -0.000199917 0)
(-0.0571166 -0.14966 -3.1188e-20)
(-0.00277381 0.000932194 -6.03602e-21)
(0.338315 0.0880899 0)
(-0.000589622 0.00069054 0)
(-0.00108184 -7.40094e-06 0)
(-0.0133273 0.113263 0)
(0.0725753 -0.124133 0)
(0.0145717 0.0220404 0)
(-0.0284463 -0.0797677 7.85156e-21)
(0.0232245 -0.134715 3.73655e-20)
(-0.0351052 -0.00824563 5.0369e-21)
(0.0398322 0.0589035 -4.91268e-20)
(-0.00738002 -0.0298754 0)
(-0.0161851 0.17032 0)
(-0.0550596 -0.201136 -2.86682e-20)
(-0.00303786 0.000471024 -3.69311e-21)
(-0.0750444 -0.0564824 -6.24364e-21)
(0.0104418 -0.031332 -5.31763e-21)
(0.0211292 0.142587 6.53041e-21)
(-0.0233575 0.00849323 -7.48535e-21)
(0.0593174 0.0669466 0)
(0.00186569 -0.000453307 3.41865e-22)
(-0.000829427 -0.000283993 0)
(0.00718633 -0.0611135 0)
(0.0344566 0.131424 1.71911e-20)
(0.0290553 0.0740624 2.76464e-20)
(-0.0537613 -0.0107329 3.19559e-22)
(-0.0855963 0.0115602 0)
(-0.00278889 0.00923032 -2.82831e-21)
(-0.0431185 0.0392179 1.3678e-21)
(0.00261855 -0.01844 2.62364e-20)
(0.00371401 -0.00424424 0)
(0.0106763 0.00940895 0)
(-0.00266152 -0.000376359 -2.41129e-21)
(0.0114131 -0.0564316 -1.29605e-20)
(0.00148207 -0.0611974 0)
(0.026176 0.0944826 3.89423e-22)
(-0.077566 0.074152 -2.96302e-20)
(0.00102937 0.000492533 -1.07326e-20)
(-0.080602 0.0730171 3.18423e-20)
(0.00801235 -0.0257454 0)
(0.0441224 0.0526913 -4.33969e-20)
(-0.174213 -0.174055 4.4948e-20)
(0.00412341 -0.00129432 5.0863e-21)
(-0.00147623 0.00458549 -4.05713e-21)
(0.00328616 -0.000969051 -8.1846e-21)
(-0.00155523 0.00517545 0)
(-0.103543 0.316528 5.04513e-20)
(-0.00201563 -0.00239041 6.56857e-21)
(-0.0431357 -0.10553 0)
(-0.129316 0.0797166 -7.19261e-21)
(-0.0424975 0.00307938 1.09403e-21)
(0.00775766 0.00962598 2.38618e-21)
(-0.0236696 -0.00490774 -8.63178e-22)
(-0.0328453 -0.133662 0)
(-0.0556447 -0.0652986 -1.65933e-21)
(0.153067 -0.0122431 1.27055e-20)
(-0.000326328 0.00333276 -1.00921e-20)
(-0.000975686 1.08457e-05 0)
(-0.00109313 7.34944e-05 2.70873e-23)
(-0.0315552 -0.00248971 -6.01378e-20)
(-0.000920866 2.30999e-05 -9.74506e-22)
(0.0147748 -0.0200146 3.21687e-21)
(0.00358099 0.0128597 0)
(-0.00214459 -0.00275855 4.59112e-21)
(0.000284687 0.00172115 -2.06715e-21)
(-0.000498511 0.000591933 0)
(-0.000421445 -0.000678817 -5.9629e-21)
(-0.0265501 0.00963304 2.66309e-21)
(-0.00177036 -0.000522914 0)
(0.0041722 0.0427879 0)
(-0.00574154 -0.304753 7.45771e-20)
(0.0371553 0.0723884 -2.72962e-20)
(-0.00100424 0.000155713 0)
(-0.0960655 0.0445617 -2.91361e-20)
(-0.0490325 -0.210334 0)
(0.0304165 -0.00255823 -2.1673e-20)
(0.0325515 -0.0844045 2.27472e-19)
(0.00494134 0.00626506 4.00158e-21)
(-0.00277782 0.00125985 -2.1005e-21)
(0.00415426 0.00667018 -5.09356e-21)
(-0.00212768 0.000631194 -7.80869e-21)
(-0.0569336 -0.0420092 1.35463e-20)
(-0.0078818 0.00553052 -1.21848e-22)
(-0.179425 -0.174164 0)
(0.0868215 0.064547 -1.59781e-20)
(-0.100154 0.579646 0)
(0.000194347 0.00378292 2.28557e-21)
(-0.00103735 -9.32747e-05 1.1277e-20)
(0.276816 0.0750102 -1.47369e-19)
(-0.0026853 0.00121294 4.03213e-22)
(0.0339413 -0.0646486 0)
(-0.000935744 7.19717e-05 9.42449e-21)
(0.00173872 -0.00427662 0)
(-0.0978675 -0.0157134 0)
(-0.0219689 0.0151861 7.27941e-21)
(-0.00918418 -0.00155675 0)
(-0.0651307 -0.00126181 1.94277e-20)
(0.0011428 0.0427931 0)
(-0.0343181 -0.00362551 3.25234e-20)
(0.0614008 -0.137631 -2.90586e-20)
(0.229584 -0.0430047 3.26869e-20)
(-0.0600998 -0.33354 -3.77535e-20)
(-0.00304711 0.000199718 2.26548e-21)
(0.000424102 -3.46371e-05 0)
(0.000977409 0.013763 1.02524e-21)
(0.170713 -0.0169099 -9.7262e-21)
(0.0432053 0.0342621 0)
(-0.0243198 0.0178647 0)
(-0.00042323 0.00104057 6.87431e-21)
(0.0524726 -0.00247353 0)
(0.0270803 -0.0496873 2.95667e-21)
(0.0139705 -0.0130082 -1.83024e-21)
(-0.000276347 8.54758e-05 -1.04669e-21)
(0.078436 -0.120496 0)
(-0.00737631 -0.0799734 -2.31332e-20)
(0.0183134 0.0191774 0)
(-0.00256632 0.000527699 0)
(-0.0037588 -0.0041277 2.06369e-21)
(-0.000860633 0.000167893 1.20921e-21)
(-0.000665884 -0.00107379 -7.4992e-21)
(0.00115178 0.0019364 -1.69651e-21)
(-0.00334404 -0.00417767 0)
(-0.00194281 0.00189627 1.90311e-20)
(-0.00521352 -8.93668e-05 4.21753e-21)
(0.0318514 -0.0764869 5.53161e-20)
(-0.002057 -0.00184228 8.46362e-22)
(0.0294925 0.0170171 -9.24781e-21)
(0.0637428 0.209449 0)
(-0.0859648 0.0270654 -1.82266e-20)
(-0.0275799 -0.00673563 3.20577e-21)
(-0.000830316 -0.000389947 2.64335e-21)
(-0.00118147 0.000175196 0)
(-0.0812973 0.0705936 2.93067e-20)
(0.0738644 0.129724 -6.94001e-20)
(-0.0558929 -0.0328305 -7.26219e-21)
(0.0648787 0.0731251 -2.27536e-22)
(-0.0462724 0.00464266 0)
(0.11653 0.0157337 -1.17631e-20)
(-0.000994923 -3.86538e-05 9.33325e-21)
(0.0162145 -0.051895 0)
(-0.00663488 0.00420822 1.99766e-21)
(-0.0834896 -0.214196 0)
(-0.000724265 -0.000140992 0)
(-0.0785232 -0.0504769 -6.44507e-21)
(-0.00104211 8.87744e-05 -5.87524e-21)
(-0.00873862 0.0197337 1.00973e-20)
(0.0184857 -0.0323529 1.08481e-22)
(-0.0373701 -0.00411719 8.46816e-21)
(-0.000281109 7.87243e-05 0)
(-0.000979074 -0.000717853 1.36642e-23)
(-0.000378308 0.00425208 3.32457e-20)
(-0.00268462 -0.000147588 0)
(-0.0204163 -0.0095013 -1.36185e-20)
(-0.0725602 -0.217428 0)
(-0.115925 0.337402 0)
(0.0160385 -0.0232739 2.59166e-22)
(0.000507041 -8.84501e-05 -1.30863e-20)
(-0.105894 -0.0464129 0)
(-0.0237019 0.0152899 0)
(-0.00993192 -0.000926684 -4.82336e-23)
(0.06786 0.0623177 1.25268e-20)
(0.251482 0.0369539 -6.01271e-20)
(0.0658775 0.0120628 9.34974e-20)
(0.0553278 -0.00770448 3.53937e-20)
(-0.0630226 -0.0382296 -5.90792e-21)
(0.000843177 -0.00112333 0)
(0.0285531 -0.0210895 1.7101e-21)
(-0.164694 0.562582 1.37056e-19)
(0.000570327 0.000607445 0)
(-0.00755036 0.0101168 0)
(0.025955 -0.107264 -1.84548e-20)
(0.0245914 -0.00810855 9.1687e-22)
(0.00391678 -0.00181819 -8.68672e-21)
(0.0350316 0.343652 -3.00477e-20)
(-0.0390649 -0.0632064 1.6242e-20)
(-0.000253203 0.000365276 5.6038e-21)
(0.0525003 -0.145461 -1.5997e-20)
(0.000588076 0.000698017 0)
(2.52165e-05 0.00962353 1.82417e-22)
(-0.103217 0.020697 8.46023e-21)
(0.0441913 0.0510978 0)
(-0.0306049 -0.0680143 2.52253e-21)
(0.0248358 -0.0108106 1.91754e-20)
(-0.00252994 0.000374186 -4.23358e-21)
(-0.0107886 0.00889073 -3.77485e-22)
(-0.00146357 0.00404507 0)
(0.0693515 0.0340468 -6.8516e-21)
(-0.0402241 -0.00506185 -2.09614e-20)
(-0.00109983 0.000688736 -2.27059e-21)
(0.0592798 -0.0701266 -8.31745e-21)
(-0.05733 -0.0133908 -2.14483e-20)
(0.028722 -0.0211235 0)
(-0.00291111 -0.0027067 0)
(0.00160522 -0.00370702 -8.1525e-21)
(-0.0875645 -0.0586903 0)
(-0.000553321 -0.000164201 1.08229e-20)
(0.00857341 -0.0127143 0)
(-0.0168577 -0.0542998 -1.75208e-21)
(-0.0407581 -0.105943 0)
(0.000772859 -0.00253874 3.52568e-21)
(0.0782978 0.195136 -1.52045e-20)
(0.487378 -0.00502662 6.89909e-22)
(-0.0428213 -0.197384 4.69209e-20)
(0.0441233 -0.00569748 -9.28645e-22)
(-0.0532124 0.0249024 0)
(-0.017829 0.000196683 0)
(0.00491245 -0.0053597 0)
(-0.00122601 -0.00157601 -7.58365e-21)
(-0.0108953 0.0137908 0)
(-0.00424804 -0.032941 -3.34332e-22)
(-0.00972977 -0.0769736 3.31585e-20)
(0.0250715 0.0196086 -1.17106e-20)
(0.043409 0.000968724 2.61763e-20)
(0.0503313 0.0225119 -2.03271e-20)
(0.0318123 -0.0878381 -4.55215e-20)
(-0.0700088 -0.0442393 0)
(-0.000297512 0.000330471 1.11637e-20)
(-0.0517461 -0.221899 3.30829e-20)
(-0.00132872 0.00369424 -3.84122e-21)