/*--------------------------------*- C++ -*----------------------------------*\
| =========                 |                                                 |
| \\      /  F ield         | OpenFOAM: The Open Source CFD Toolbox           |
|  \\    /   O peration     | Version:  v2012                                 |
|   \\  /    A nd           | Website:  www.openfoam.com                      |
|    \\/     M anipulation  |                                                 |
\*---------------------------------------------------------------------------*/
FoamFile
{
    version     2.0;
    format      ascii;
    class       volScalarField;
    location    "150";
    object      k;
}
// * * * * * * * * * * * * * * * * * * * * * * * * * * * * * * * * * * * * * //

dimensions      [0 2 -2 0 0 0 0];


internalField   nonuniform List<scalar> 
13308
(
0.000291591
0.0847075
0.0663776
0.00016232
0.000200674
0.000175466
0.000259647
0.000164686
0.000258244
0.000901208
0.0237064
0.00923665
0.000175591
0.000148795
0.000181067
0.0714624
0.00018872
0.079742
0.00155754
0.090071
0.000208225
0.0571169
0.048346
0.000184034
0.0727192
0.0715256
0.000208814
0.0225971
0.00021155
0.000220165
0.0806977
0.000210752
0.0661616
0.000233443
0.0003432
0.000188806
0.000256732
0.0459115
0.000171236
0.0688003
0.000146659
0.000161674
0.00433761
0.000151566
0.000171066
0.000357762
0.000182952
0.000159772
0.00322409
0.0650059
0.000161899
0.000169733
0.0848185
0.0260382
0.0527774
0.050805
0.000150755
0.000171399
0.000177001
0.000175979
0.00116351
0.0816176
0.000170804
0.000154339
0.000160628
0.0643275
0.000146366
0.000369463
0.000151499
0.00029313
0.0354037
0.000171003
0.00332101
0.000214477
0.000505105
0.000164804
0.00016852
0.0459409
0.000161205
0.0023208
0.000168467
0.000196136
0.000163864
0.000181046
0.000407673
0.000164302
0.052205
0.0107672
0.00234434
0.0795332
0.000163846
0.000147439
0.000210327
0.000219194
0.000154829
0.000171221
0.000162249
0.00328402
0.0471481
0.000299231
0.000163316
0.000147991
0.000151872
0.000236573
1.86194e-05
0.0819791
0.0659727
0.00015737
0.0661419
0.0737256
0.000167601
0.000254503
0.000197784
0.000160504
0.000207187
0.00264252
0.000357448
0.0133868
0.000211653
0.000173331
0.000195209
0.00025587
0.000159475
0.000248957
0.0151113
0.00369658
0.000441768
0.000439703
0.00338252
0.0737654
0.0745087
0.000285743
0.000154841
0.00017286
0.000250502
0.000224525
0.000147243
0.0120657
0.00037983
0.000162281
0.059475
0.000167266
0.000153693
0.000202997
0.000167202
0.000252152
0.00793197
0.0803343
0.000167651
0.000327327
0.0598624
0.000162646
0.000978504
0.00115364
0.000244113
0.000381268
0.000156493
0.00015807
0.000147352
0.0196974
0.000652504
0.000170873
0.000152959
0.0809981
0.000371492
0.00778776
0.0584874
0.000157737
0.0656572
0.000190203
0.00016695
0.00773745
0.000167984
0.0640067
0.0436047
0.0622999
0.0562688
0.0654349
0.000272701
0.000158057
0.00390466
0.0853098
0.000146564
3.15425e-05
0.0502799
0.000152146
0.0536567
0.0860106
0.000225281
0.00152513
0.00391352
0.0931306
0.000167943
0.00790534
0.000167575
0.0634436
0.000166341
0.00797662
0.0249814
0.000161726
0.0705142
0.0860931
0.00913041
0.000245308
0.0750913
0.000335912
0.0712042
0.000550383
0.0135829
0.0479178
0.0113812
0.000241878
0.000203263
0.0599535
0.0864485
0.000240492
0.000160331
0.0072683
0.0144551
0.000539508
0.024618
0.000159096
0.00037971
0.000164796
0.000233587
0.0808755
0.000232513
0.000649872
0.048814
0.00034441
0.0680132
0.000232125
0.0660609
0.00041791
0.0012257
0.000198886
0.0611341
0.00701557
0.000337816
0.000182193
0.000182394
0.00143517
0.000220225
0.000145955
0.0111918
0.013376
0.00021486
0.00139985
0.000170605
0.0413127
0.0876792
0.0704934
0.000150149
0.0832509
0.0792522
0.000234975
0.000832916
0.000159436
0.034263
0.0480158
0.000218274
0.00225798
0.000198351
0.000171618
0.000384645
0.000263077
0.0102944
0.00015389
0.0241139
0.0718189
0.000891208
0.000197361
0.000150715
0.000387102
0.000161598
0.000165212
0.000178012
0.0131498
0.000199306
0.000273186
0.0641184
0.000154286
0.00171527
0.000225297
0.083822
0.0730857
0.000170681
0.000415867
0.000283303
0.0641122
0.000213229
0.000153072
0.00817651
0.0831346
0.000161534
0.000483835
0.0488228
0.000212157
0.000281039
0.0789364
0.0684481
0.000239544
0.0707563
0.000219094
0.000588491
0.000226004
0.000203716
0.0636049
0.0249644
0.000151555
0.00809118
0.0664611
0.000214299
0.014888
0.00137436
0.0405046
0.000159534
0.000161255
0.000149504
0.00565954
0.000148282
0.000188709
0.072573
0.000162146
0.0986218
0.000211652
0.000222564
0.000157474
0.000171314
0.00712294
0.0722081
0.000148357
0.0151793
0.000159934
0.000154494
0.000426951
0.0716482
0.000159376
0.000228694
0.0564051
0.00018855
0.000157114
0.000152849
0.00023059
0.000423531
0.0600916
0.000266365
0.000255276
0.000169698
0.000209521
0.000205814
0.0360498
0.0535617
0.000151417
0.00449325
0.000166824
0.0944277
0.000909456
0.000269627
0.0919652
0.0103543
0.00024779
0.000192177
0.000367455
0.0733689
0.0842968
0.000152252
0.000146222
0.000172231
0.000179577
0.0690789
0.110457
0.000161627
0.00015857
0.000171748
0.000270379
0.0781662
0.0774466
0.000169235
0.0141412
0.000167966
0.000160325
0.00429297
0.000202306
0.00017532
0.0770979
0.000248783
0.000179331
0.000146155
0.00174115
0.000205944
0.00435725
0.0146494
0.0724904
0.017161
0.000210311
0.0354983
0.000151376
0.000440802
0.000160047
0.0112557
0.000161238
0.000298377
0.0828922
0.000282986
0.000376895
0.000157739
0.000158778
0.0925519
0.00017256
0.000178985
0.000400438
0.000267189
0.000150652
0.000149739
0.0216396
0.000168234
0.000150092
0.000178506
0.000277308
0.000280885
0.000173244
0.000186156
0.000167206
0.000202208
0.0661515
0.0577624
0.000167605
0.0235821
0.0050703
0.0753349
0.000154923
0.0137706
0.00181731
0.000165798
0.000155709
0.0761517
0.000147584
0.000216972
0.0683826
0.0591449
0.0482316
0.0643194
0.000172689
0.0635527
0.000178116
0.00359798
0.081817
0.000146191
0.0315772
2.76918e-05
0.11618
0.000280487
0.0590784
0.000182761
0.000201894
0.000191885
0.000290954
0.0480414
0.000279794
0.00784366
0.0644064
0.000151889
0.00073047
0.000171859
0.0242113
0.000159392
0.000168013
0.00016001
0.0696589
0.000445146
0.000156409
0.0437543
0.000164992
0.00037927
0.0800049
0.000354485
0.000168175
0.00906668
0.000152711
0.0088018
0.000168707
0.00888065
0.000166187
0.000226544
0.000166544
0.00148392
0.0104167
0.00016834
0.000147752
0.000152021
0.000205834
0.0110749
0.000165545
0.000293626
0.000166317
0.000184632
0.0306144
0.0235961
0.120109
0.00462052
0.0295586
0.000170383
0.00915878
0.000177977
0.000177005
0.000291725
0.0638562
0.000162033
0.0658182
0.000312649
0.0033064
0.000168402
0.000162672
0.000183346
0.000217925
0.000225643
0.000157562
0.00199538
0.0803831
0.0238146
0.0481858
0.0411355
0.00419299
0.000150358
0.00877441
0.000153312
0.00015378
0.0167029
0.00118342
0.000220023
0.000218354
0.0858884
0.0687056
0.000150011
0.000597057
0.00526249
0.0966053
0.000173354
0.000530284
0.000151245
0.015213
0.000147398
0.000687075
0.000168225
0.097443
0.0258316
0.00269872
0.000147067
0.000170468
0.0846863
0.00326161
0.0456977
0.00159987
0.074088
0.00884003
0.0468811
0.0494563
0.0118438
0.0447044
0.000204402
0.000147961
0.000170845
0.000418279
0.000160819
0.00395432
0.0486755
0.000156745
0.0225701
0.012974
0.0258709
0.00015094
0.000160545
0.000151166
0.00105266
0.000214896
0.000152118
0.000159681
0.045089
0.000151869
0.0728658
0.00038504
0.000180128
0.000205155
0.000153166
0.000151556
0.000154355
0.00018549
0.000178832
0.000161659
0.0127581
0.000149701
0.000418773
0.00016144
0.00015843
0.0665011
0.0781313
0.000153216
0.0557271
0.000162776
0.000156428
0.00015186
0.000215354
0.000233136
0.000169349
0.000196569
0.000153859
0.110997
0.000199399
0.0934619
0.0976427
0.000190952
0.000201363
0.000161065
0.0535222
0.000767824
0.000204538
0.000148827
0.0119385
0.00201338
0.000208677
0.000154856
0.00138691
0.014
0.000364289
0.0307042
0.000167069
0.000149067
0.000217365
0.0351523
0.000201281
0.0430809
0.0202073
0.0671956
0.00653418
0.0107556
0.000185177
0.000170315
0.0962847
0.0656092
0.000176
0.000157787
0.0501055
0.000441091
0.000239583
0.0045949
0.000176427
0.000159591
0.0001524
0.0347918
0.000282193
0.000155072
0.0669256
0.000164832
0.0356904
0.000152369
0.000149992
0.000427999
0.0480282
0.000231208
0.00798209
0.000489199
0.000202099
0.000416661
0.000184442
0.000434231
0.0981937
0.000155188
0.0697239
0.0597761
0.0645978
0.000164332
0.00114776
0.000182476
0.000146829
0.0661386
0.0303724
0.000370313
0.00315219
0.014402
0.0001815
0.0135743
0.000230995
0.000154054
0.00020992
0.000160318
0.0659851
0.0657322
0.000361472
0.0548886
0.000154263
0.0865036
0.000235316
0.000339084
0.0479451
0.000179565
0.000158462
0.000174879
0.000158417
0.0006014
0.000160575
0.000567569
0.0156208
0.000216108
0.000188674
0.000200065
0.000553297
0.0206079
0.0151313
0.000173855
0.00014813
0.000151834
0.0458907
0.000154245
0.000257134
0.000200504
0.000161014
0.000149585
0.000149018
0.000150538
0.000609336
0.000169647
0.00628005
0.0263899
0.000367145
0.000149054
0.00210944
0.100635
0.000242137
0.0866207
0.000162928
0.000164805
0.000185329
0.000163687
0.0666622
0.00017771
0.0590487
0.000697698
0.0237503
0.000165453
0.000150541
0.0350973
0.000162299
0.0881267
0.000161726
0.000168511
0.0236957
9.73631e-05
0.000218459
0.000253211
0.00025751
0.0486991
0.0674044
0.0901774
0.0372873
0.000154992
0.000162491
0.000194783
0.0158928
0.000314798
9.9385e-05
0.000155874
0.000302717
0.0669251
0.000381586
0.000153739
0.0480208
0.0654045
0.000232962
0.000163354
0.000166876
0.000161232
0.000165227
0.000166102
0.00015927
0.000162564
0.000165742
0.087448
0.000152509
0.000289496
0.11683
0.000566557
0.00234858
0.000148492
0.000160703
0.0656983
0.0435451
0.00412855
0.000407988
0.00412607
0.000459767
0.000183482
0.0657469
0.000176295
0.103188
0.000146741
0.0702239
0.000151834
0.000221266
0.00891486
0.00391812
0.000151099
0.000152415
0.000170983
0.000155159
0.0509484
0.103477
0.00970955
0.000241729
0.000162294
0.0765892
0.00088861
0.000217693
0.0139402
0.0267149
0.0107746
0.0063614
0.0673541
0.000165997
0.00665183
0.0216898
0.000149761
0.000179677
0.0610726
0.000789057
0.00017645
0.0699671
0.0657236
0.000149123
0.0560819
0.000149376
0.000196
0.00250231
0.0156971
0.00948121
0.000231845
0.000155541
0.000185095
0.000166783
0.0130949
0.0538713
0.000147943
0.000545572
0.00453229
0.000244252
0.000158229
0.000167715
0.0718598
0.00016604
0.00019329
0.00822581
0.00821587
0.000163694
0.109893
0.013681
0.0711879
0.00200584
0.0147551
0.00016927
0.000176115
0.000167065
0.000226696
0.0610743
0.06535
0.000279196
0.000295043
0.00966118
0.0726947
0.0687025
0.000149219
0.0927191
0.00016532
0.0742699
0.000269395
0.000174285
0.0146299
0.000160059
0.00964646
0.0355041
0.00168801
0.0668622
0.013091
0.00156517
0.000418155
0.000203012
0.000193793
0.000214954
0.0925691
0.000152595
0.00247922
0.000166763
0.000149186
0.000157368
0.000185812
0.030264
0.000149115
0.0281181
0.00934087
0.0122286
0.00027075
0.000146424
0.0721174
0.000165937
0.000166835
0.063496
0.000150817
0.00015431
0.000243246
0.000169514
0.000153404
0.00768929
0.0867438
0.0370863
0.0368288
0.000146249
0.000165254
0.000235783
0.000338618
0.0593653
0.000151706
0.0969308
0.000176995
0.000171052
0.0928622
0.000147733
0.000202651
0.000185933
0.000155259
0.000151637
0.000171511
0.00955003
0.0634788
0.000161497
0.0347685
0.00267349
0.00025164
0.000175569
0.00024624
0.000157788
0.000166402
0.0131421
0.000260435
0.0685623
0.0625066
0.0126095
0.000165657
0.000179265
0.010508
0.000178069
0.000174859
0.000162044
0.0057865
0.00951457
0.000171496
0.0772497
0.0134302
0.000157375
0.000177252
0.000152253
0.000238886
6.19046e-05
0.0140774
0.000179518
0.0104373
0.000249878
0.000163192
0.00694271
0.000166606
0.0367288
0.000213777
0.000169204
0.00018622
0.000175814
0.000199873
0.000150228
0.000159335
0.0225596
0.000150017
0.000616136
0.000184394
0.000232391
0.00481807
0.0319531
0.000162721
0.000152769
0.000206021
0.00650185
0.000162609
0.000166063
0.0165657
0.0203857
0.000201916
0.000201274
0.0277755
0.000161572
0.000153764
0.000542473
0.00792007
0.0121704
0.000160205
0.000264984
0.000162392
0.000186174
0.0511272
0.000165122
0.000148746
0.000257138
0.0722461
0.000163559
0.000153869
0.000169313
0.000231279
0.000449615
0.000160956
0.0519119
0.00020381
0.000376771
0.0283261
0.000185935
0.076211
0.000168612
0.0992495
0.00077144
0.0146355
0.000152699
0.0730142
0.00022482
0.00024592
0.000183433
0.000190797
0.0713251
0.000165016
0.000162225
0.000161002
0.0100739
0.000571853
0.0822955
0.0599266
0.0339328
0.0711418
0.000159678
0.0665885
0.000159954
0.000153076
0.000165913
0.000159565
0.0355033
0.014937
0.000147127
0.065862
0.000304519
0.127561
0.0923219
0.00567508
0.000150034
0.000149015
0.000216619
0.000142719
0.000157537
0.000159329
0.0549408
0.000191634
0.00748299
0.000275034
0.000219399
0.0165489
0.000152853
0.0655951
0.000165714
0.000206963
0.0431081
0.0723696
0.000177848
0.0246606
0.0188497
0.0193776
0.0013301
0.000174246
0.0560705
0.000181185
0.000361834
0.000161339
0.000148385
0.000163314
0.0499784
0.119817
0.0655304
0.000695975
0.0680422
0.0521616
0.000150612
0.0041571
0.000226877
0.000164441
0.0216908
0.0849541
0.000152067
0.00520543
0.000237447
0.00014832
0.0868553
0.00015903
0.000159631
0.0615746
0.000167743
0.00021003
0.0114757
0.000226921
0.0647062
0.000157711
0.00014674
0.000166945
0.0648383
0.000187151
0.000228951
0.0131144
0.000159543
0.000147225
0.000185659
0.000365354
0.000274128
0.00494547
0.000167161
0.000303872
0.0713557
0.000171506
0.0531712
0.000148875
0.000188571
0.0669865
0.000158712
0.00505691
0.056531
0.100664
0.0450917
0.000190474
0.0199872
0.000163656
0.0245068
0.000321075
0.000196781
0.0337172
0.000297309
0.0639697
0.085533
0.000227417
0.000264569
0.000205397
0.000165534
0.000181876
0.00464212
0.000149349
0.000155895
0.000166197
0.000160248
0.000158784
0.000150371
0.000163426
0.000169811
0.000564605
0.000293672
8.39988e-05
0.0381843
0.000200198
0.0088749
0.0194075
0.00164167
0.000155419
0.00030654
0.000221241
0.0790713
0.00486993
0.0660355
0.0540271
0.0096184
0.0138214
0.000162318
0.000165086
9.02085e-05
0.000165841
0.000214313
0.0588822
0.000161363
0.000171375
0.00725559
0.0862348
0.00026543
0.0436872
0.0993454
0.000261543
0.000189627
0.000340402
0.00235685
0.000168721
0.00018688
0.00782302
0.000187344
0.000164264
0.000151827
0.000147067
0.000286367
0.000553509
0.0253679
0.000321755
0.000170721
0.000283008
0.000151766
0.000161507
0.0676102
0.000230987
0.000146842
0.000168883
0.00984236
0.0653791
0.000155375
0.000151872
0.000306172
0.00955351
0.00016397
0.000179307
0.000210305
0.0727862
0.0077288
0.0583397
0.000212471
0.0200905
0.000186606
0.0911391
0.000218271
0.0823412
0.000161416
0.0811149
0.0403077
0.0678502
0.000161925
0.0110557
0.000211628
0.00473751
0.0650276
0.00401214
0.0457927
0.059292
0.000229411
0.000210548
0.0560476
0.000243213
0.00380505
0.000232561
0.0900719
0.033656
0.0527348
0.0114611
0.0591745
0.000164336
0.0617607
0.00024374
0.0229289
0.000528747
0.000343917
0.0880166
0.000283444
0.00145032
0.000203517
0.0195849
0.000182692
0.0453179
0.0664569
0.000173546
0.00268167
0.00213412
0.000165658
0.0143518
0.000161836
0.0174015
0.000354554
0.000175924
0.0737714
0.0622779
0.000172406
0.0387955
0.00242938
0.000150491
0.00141216
0.0692937
0.0108385
0.0587369
0.000165918
0.000150367
0.00342814
0.00018163
0.0883943
0.00547444
0.0626879
0.0672352
0.000201158
0.000214749
0.000927212
0.0684892
0.0780324
0.0589164
0.000199594
0.000177592
0.00268816
0.000202826
0.000195603
0.00312788
0.000161207
0.0606714
0.00015895
0.000162832
0.000271264
0.00026936
0.000184289
0.000245288
0.0151273
0.0660477
0.000148328
0.000198646
0.0846472
0.0327801
0.000261082
0.000178474
0.0910653
0.000152811
0.0663659
0.0819752
0.00060833
0.000161544
0.000164636
0.00651211
0.064637
0.0113987
0.000152469
0.000568397
0.000142699
0.00920087
0.0576196
0.000153071
0.0121523
0.027621
0.00018649
0.000223604
0.000158169
0.000171996
0.093368
0.000188578
0.00384078
0.000160309
0.000156103
0.000400632
0.00047322
0.000228504
0.0579327
0.000162259
0.00369497
0.0159856
0.000149814
0.0133365
0.000407433
0.000160775
0.0829876
0.00285534
0.0805567
0.000166432
0.0272022
0.000169898
0.000147827
0.000370388
0.0268681
0.0466627
0.000151501
0.000455637
0.00015042
0.000170851
0.000161977
0.0202358
0.0054812
0.0609234
0.000186501
0.000224015
0.000185486
0.0776311
0.0475567
0.00215551
0.000780459
0.000170754
0.000153662
0.000150123
0.000230902
0.000182993
0.000235618
0.0390429
0.000151294
0.0157121
0.0722036
0.000291465
0.0594457
0.00017596
0.000166403
0.0828228
0.00732288
0.00016273
0.000163179
0.00033501
0.000312231
0.0795866
0.00610517
0.0760324
0.00017332
0.000471333
0.00150792
0.00017324
0.000183701
0.067029
0.000283032
0.000157342
0.000184156
0.00564908
0.00962855
0.000142584
0.0448189
0.00017633
0.000132187
0.0206363
0.00383982
0.0503453
0.0643974
0.000224829
0.00737056
0.0637325
0.000164265
0.0757918
0.000202435
0.000268725
0.00018767
0.000159643
0.00017033
0.127834
0.00019374
0.108051
0.00367212
0.000347343
0.00775389
0.000160485
0.0828713
0.000182914
0.00423536
0.0640412
0.0101194
0.000224094
0.000164919
0.0845829
0.000163282
0.066343
0.0697158
0.000267836
0.00361979
0.000143592
0.000452917
0.000159143
0.000199317
0.000175265
0.000313873
0.000148925
0.00586546
0.000156322
0.0893196
0.000287837
0.084664
0.0159166
0.00015093
0.000241076
0.000355834
0.0745616
0.0202545
0.000161547
0.0156041
0.000325918
0.000159109
0.0193535
0.000151206
0.0001796
0.000848172
0.0363545
0.000268383
0.000157765
0.0168285
0.0199202
0.0183581
0.000166559
0.000166318
0.0893385
0.046441
0.000193468
0.0198025
0.000181598
0.0732321
0.000170698
0.000159255
0.0034448
0.030919
0.000199946
0.0002066
0.000160434
0.000192547
0.000163791
0.000217919
0.00693163
0.00450475
0.000258688
0.000218482
0.0820223
0.000166035
0.000275185
0.000159138
0.00435422
0.0581423
0.00548611
0.000184166
0.000147993
0.00015123
0.0860612
0.0974236
0.0754823
0.000230775
0.0856804
0.00622042
0.0869931
0.000195869
0.000275464
0.000165114
0.000163828
0.000158589
0.0876918
0.000158928
0.000242292
0.00213952
0.0718739
0.11494
0.00906395
0.000152334
0.0709307
0.000249299
0.000504673
0.000149189
0.0118206
0.000152658
0.000174146
0.0167835
0.00853534
0.000165844
0.000157762
0.000147432
0.0185281
0.000208043
0.0810483
0.000279599
0.00103487
0.0889607
0.0710746
0.0742937
0.000161287
0.0756308
0.00157002
0.000258945
0.000184932
0.000166463
0.000152135
0.000164609
0.000147696
0.000149567
0.000163849
0.000167568
0.000163404
0.00645153
0.0802778
0.0644324
0.000168824
0.000166358
0.00125178
0.000157042
0.0692242
0.000147977
0.000286976
0.0865929
0.000807926
0.000183009
0.000424417
0.00103844
0.000216788
0.000198915
0.000219922
0.0686272
0.0118132
0.00871923
0.000173299
0.0551959
0.000162095
0.000159425
0.000225244
0.00016261
0.000185321
0.000166064
0.000531092
0.00158263
0.000146778
0.0906373
0.000170416
0.000190264
0.0704768
0.000147577
0.00641256
0.00037898
0.000182129
0.000170852
0.019033
0.000147411
0.0119625
0.0831252
0.000157686
0.00104194
0.000176546
0.0648508
0.0582925
0.000163405
0.00014736
0.000169453
0.000159238
0.000159569
0.000161251
0.000176721
0.000198877
0.000149666
0.00482299
0.0675624
0.00653736
0.000169718
0.000182694
0.000159011
0.00956527
0.000406126
0.00095903
0.00936337
0.000147207
0.0682455
0.025613
0.000165576
0.0211711
0.00814914
0.000179871
0.000158993
0.102294
0.000182155
0.000158116
0.000220814
0.0140585
0.0581419
0.0166408
0.00571322
0.000165523
0.0634738
0.0899719
0.000185315
0.000153956
0.00017195
0.0001624
0.000216677
0.00921781
0.000150591
0.00685198
0.0412101
0.0540765
0.025887
0.000165943
0.0967339
0.000169851
0.0845134
0.0700658
0.000148433
0.000163513
0.0533778
0.000235839
0.10213
0.000165782
0.0886288
0.00264327
0.0042948
0.000151041
0.0727492
0.00105844
0.0860592
0.000241184
0.0180096
0.0865852
0.00632032
0.0118386
0.000276346
0.000489799
0.0769264
0.0112464
0.0519649
0.0930292
0.0639363
0.0777177
0.000928768
0.0592371
0.0554564
0.000159452
0.0907961
0.0438206
0.00870284
0.000254665
0.000149939
0.092222
0.000219548
0.0136309
0.0622556
0.0355586
0.057463
0.0228638
0.00015187
0.000161819
0.0178064
0.0194584
0.0662574
0.000173046
0.0184657
0.000163321
0.0814895
0.000500328
0.0570233
0.0170744
0.000158367
0.0529212
0.000159261
0.0664887
0.000166177
0.000329981
0.0895799
0.0001609
0.000342759
0.0872027
0.00324308
0.0439798
0.000163899
0.00015833
0.067537
0.0781159
0.000157587
0.107237
0.000293898
0.000174516
0.0550592
0.000159454
0.000150174
0.00017987
0.0118881
0.000245735
0.00289382
0.000165327
0.000218501
0.0177385
0.0670661
0.000275139
0.00349589
0.000400745
0.0982168
0.0637181
0.00016314
0.0148482
0.000152313
0.000222065
0.0923437
0.000167295
0.00129247
0.000160484
0.0283188
0.000197542
0.0181485
0.0646131
0.0149132
0.0116109
0.000330054
0.00918181
0.0867507
0.000289135
0.0875113
0.000177363
0.068685
0.0192006
0.00548923
0.000192431
0.000257688
0.000156977
0.000898509
0.000364212
0.000163992
0.00781481
0.0861413
0.043221
0.0218859
0.000305578
0.000350682
0.000307007
0.000344326
0.00682379
0.0657181
0.00017645
0.0370738
0.000159173
0.000163193
0.000175422
0.069216
0.0627229
0.000161164
0.000233471
0.000288752
0.0835386
0.0527323
0.0580062
0.0866193
0.0751831
0.00051483
0.000183536
0.0004098
0.0828898
0.000241687
0.000174197
0.000146393
0.000196581
0.000150962
0.0894169
0.0835972
0.000347173
0.000150973
0.000177718
0.000156965
0.000336094
0.000341275
0.0976312
0.0193842
0.000267709
0.000272057
0.000175901
0.000150206
0.000162967
0.000100688
0.0910624
0.000246681
0.000210999
0.000200527
0.0681926
0.0835831
0.0432014
0.000771168
0.000169987
0.0879594
0.000159313
0.0674405
0.0603335
0.000270477
0.0181776
0.000307062
0.0661516
0.000298635
0.0383877
4.9547e-06
0.000176848
0.0659393
0.000188441
0.000274415
0.0585184
0.0723709
0.0635897
0.000216659
0.0378436
0.00728188
0.0660249
0.0843472
0.000159355
0.0881181
0.000214708
0.00025267
0.0669172
0.000150472
0.00767319
0.000213759
0.0622407
0.0783161
0.0078214
0.000148169
0.00023654
0.0652178
0.0858037
0.00396651
0.0209164
0.0683266
0.000160536
0.00647965
0.000346196
0.000161944
0.000159594
0.0024913
0.000320929
0.0624326
0.000187289
0.000230936
0.0571991
0.000157697
0.000406134
0.000154702
0.0902213
0.000170347
0.000152157
0.0818773
0.000177675
0.00119985
0.000148111
0.000160246
0.0594204
0.000161072
0.000165642
0.000193301
0.0766983
0.000560606
0.000214683
0.0544472
0.0814855
0.0696201
0.000198798
0.000157198
0.083888
0.000168046
0.000338673
0.000169558
0.0250188
0.0293291
0.000173314
0.000186406
0.012402
0.000177014
0.000163227
0.0646498
0.0620191
0.00020404
0.0777551
0.000198052
0.0292221
0.0939541
0.000146094
0.000162345
0.000151261
0.0297777
0.0908889
0.0709573
0.104023
0.0541742
0.0653884
0.0654557
0.0160161
0.00014758
0.0235006
0.046041
0.000158227
0.0014953
0.000339632
0.000172926
5.11402e-05
0.0559758
0.0658256
0.0886578
0.000174434
0.000199271
0.0475725
0.0217009
0.000330006
0.0561246
0.0109885
0.0662464
0.105723
0.000874633
0.000319181
0.0934601
0.0553281
0.000163262
0.0359972
0.000202096
0.000172259
0.00440329
0.000155138
0.00015025
0.0603577
0.000158945
0.000185179
0.0533181
0.000200586
0.000161579
0.0726535
0.0692933
0.0649266
0.00023483
0.093794
0.000177971
0.000188999
0.0757371
0.0501308
0.0872054
0.000162098
0.0608741
0.000162486
0.0841908
0.000179813
0.000208394
0.000189039
0.00791707
0.000161918
0.000213247
0.0613899
0.000160128
0.0608456
0.0638205
0.0665394
0.000333163
0.000151593
0.00125247
0.07206
0.00896257
0.000162796
0.0906016
0.068727
0.0850494
0.000506656
0.000197728
0.0476113
0.000493299
0.0201416
0.000294622
0.0544015
0.000156247
0.0698977
0.000147693
0.0141514
0.00016675
0.0942298
0.0684281
0.0675155
0.0661112
0.0104327
0.000243461
0.000271332
0.000253756
0.0140843
0.000173971
0.0618199
0.000222945
0.0967315
0.0522561
0.0472602
0.000625251
0.00023896
0.016674
0.000173326
0.0669008
0.000181093
0.00028279
0.0909642
0.000208596
0.0210452
0.054011
0.0711276
0.000571024
0.0401281
0.0672452
0.0500261
0.0665383
0.000164016
0.00016447
0.000410246
0.000156752
0.000170458
0.0202811
0.099227
0.061608
0.000154894
0.0773066
0.000388825
0.000265671
0.0653663
0.00088873
0.000147738
0.0899434
0.000283126
0.000391731
0.000184927
0.0773223
0.100886
0.00028322
0.0681642
0.000160119
0.0959295
0.0910024
0.0904696
0.0608491
0.0678825
0.0824158
0.000422264
0.0630423
0.000220813
0.0672769
0.000183629
0.0178686
0.000160995
0.0935638
0.0480527
0.000187386
0.000147874
0.00039263
0.000225144
0.000162391
0.0602822
0.0685438
0.000154198
0.0754511
0.0717166
0.0888741
0.0588673
0.0149041
0.0764201
0.000444347
0.114294
0.0799507
0.000164342
0.0929144
0.0288436
0.000227889
0.0643596
0.0770635
0.000287484
0.0353914
0.000221244
0.000166112
0.000158709
0.0706116
0.104996
0.000200844
0.0637481
0.0624408
0.0125559
0.0118219
0.0147704
0.0193299
0.0766445
0.0131056
0.0677066
0.000156265
0.0667516
0.000149222
0.00528055
0.000157745
0.0617583
0.00517951
0.000148716
0.0894781
0.0571976
0.065224
0.0651819
0.000197103
0.0977063
0.0641545
0.000143077
0.00940546
0.0840406
0.000158279
0.0608102
0.000158874
0.0728348
0.0001639
0.000160403
0.000150566
0.0469838
0.0871675
0.00234828
0.0952583
0.0002601
0.00867499
0.074242
0.000158282
0.000168454
0.089347
0.0771821
0.000967524
0.0381565
0.00730436
0.0665112
0.0908423
0.0704845
0.0158484
0.000193513
0.0583652
0.000233398
0.0463071
0.00163851
0.000195988
0.0627305
0.100194
0.000337834
0.00368708
0.000159666
0.000147281
0.000274727
0.000161475
0.0481536
0.0453985
0.000158588
0.0172314
0.0142818
0.000253583
0.013655
0.0890499
0.000150143
0.000325201
0.000164422
0.00182463
0.000179648
0.000272758
0.000151066
0.000164913
0.000339545
0.000147796
0.000291024
0.088702
0.0559902
0.000183879
0.00019443
0.0614207
0.0202123
0.0575933
0.00017101
0.0255049
0.0843478
0.000185116
0.0770809
0.000674859
0.0807051
0.000274801
0.00969904
0.0909946
0.051156
0.000234154
0.000274593
0.0613024
0.0527213
0.0582828
0.025154
0.0263296
0.0635514
0.000446812
0.0913779
0.000164596
0.0282527
0.00686013
0.0768001
0.0571066
0.0569488
0.000160226
0.0288481
0.000248459
0.000149632
0.000332689
0.000196219
0.000201635
0.000223137
0.000420561
0.0924721
0.0573669
0.105035
0.0550794
0.000309226
0.0198911
0.0915927
0.00837995
0.0001594
0.0590984
0.000185508
0.013636
0.0905365
0.0770582
0.000390801
0.0503755
0.0632592
0.00202299
0.000204205
0.0632293
0.0320163
0.0893089
0.000371085
0.0068701
0.0262084
0.0668106
0.000102427
0.05996
0.0284599
0.0854607
0.000322311
0.0304777
0.000181906
0.00432262
0.0001566
0.0179144
0.0676379
0.0938758
0.000298318
0.000164879
0.0174696
0.0673975
0.000292426
0.00118072
0.000189358
0.00020039
0.081197
0.000155105
0.000157094
0.07618
0.000197957
0.00016742
0.0405579
0.000873063
0.0929963
0.00018786
0.00649769
0.0626258
0.000163009
0.000311162
0.000162973
0.000200871
0.000213325
0.000179825
0.000217949
0.000198319
0.00735753
0.0150021
0.0926451
0.0478164
0.0517947
0.000269801
0.0937948
0.000256733
0.0135709
0.000162352
0.00151343
0.000204415
0.0541748
0.00348995
0.000158613
0.0911652
0.000206381
0.0646021
0.0410392
0.000149863
0.0386994
0.0868179
0.00031638
0.0984354
0.0636696
0.00027724
0.000188396
0.000326319
0.000327849
0.000200258
0.00029351
0.0624084
0.0365432
0.0591212
0.071086
0.000291561
0.000242396
0.0181766
0.0613811
0.0867469
0.000352647
0.000195279
0.0759014
0.000186456
0.0292581
0.0514154
0.0232452
0.000418299
0.000156903
0.00749743
0.041304
0.000193631
0.0535011
0.0714638
0.0232939
0.000260081
0.000143535
0.000509739
0.00677699
0.000250257
0.00016947
0.0518461
0.000160973
0.000200068
0.00401571
0.000262877
0.0625596
0.000388495
0.066083
0.00207854
0.0629281
0.0188749
0.000216581
0.00581453
0.000221757
0.0401158
0.0603458
0.000189784
0.000194023
0.000191422
0.000333266
0.00018456
0.000157127
0.000260955
0.0897306
0.0585737
0.000183478
0.000197617
0.0754903
0.0502655
0.00259051
0.125903
0.0732655
0.0703984
0.000365529
0.000205011
0.055969
0.000149003
0.0776553
0.0668714
0.000203241
0.000203634
0.0891781
0.113221
0.000157381
0.00587105
0.000158684
0.000156831
0.099354
0.0265556
0.0131027
0.000196678
0.000363304
0.0113645
0.0289709
0.0397745
0.065255
0.0351996
0.000150983
0.000198733
0.0923935
0.0592099
0.000536211
0.0273847
0.000209436
0.0200642
0.000171401
0.00644875
0.0665999
0.000161009
0.000199247
0.000194108
0.0389619
0.0931895
0.0677133
0.000159539
0.000253936
0.00035432
0.0682393
0.00418755
0.000230729
0.000192657
0.000177882
0.0644223
0.0941713
0.0030673
0.0582792
0.0209875
0.0162599
0.000258191
0.0657282
0.000522087
0.000160312
0.0816102
0.000279768
0.00046775
0.000157102
0.000184177
0.000164173
0.0743825
0.0276293
0.0888405
0.0394424
0.000182513
0.000178082
0.000175914
0.000326121
0.000812485
0.0853273
8.62427e-05
0.00015453
0.000171913
0.000332824
0.000189087
0.000249552
0.00020237
0.000367005
0.0142835
0.000160275
0.0612155
0.000197486
0.000155362
0.0157643
0.000147057
0.000331524
0.0703655
0.000185915
0.000182321
0.000157504
0.0752276
0.0873622
0.0325533
0.000250488
0.000163878
0.0505351
0.0115555
0.0900722
0.0291814
0.106198
0.0524429
0.00018864
0.000156247
0.0821691
0.000435394
0.000272817
0.0190605
0.000192893
0.000189685
0.000176546
0.000191915
0.0643446
0.000159412
0.000154258
0.0730709
0.000159255
0.0665673
0.000161214
0.000512876
0.000345874
0.000161556
0.000156654
0.0649487
0.0145487
0.000209492
0.0872685
0.000180863
0.000152988
0.0237426
0.0498267
0.000159211
0.0132778
0.00375893
0.000183031
0.000180863
0.0181064
0.000919445
0.000278389
0.00014754
0.000357063
0.000156843
0.0685551
0.0102453
0.000150679
0.00016036
0.00020572
0.000560385
0.00108111
0.000181945
0.000348992
0.00979528
0.00015831
0.000305853
0.00014846
0.00567148
0.0414522
0.000160895
0.0290409
0.0731095
0.000305562
7.89544e-05
0.0761402
0.000197123
0.000584216
0.000353014
0.000178424
0.0955594
0.000180944
0.000180976
0.000186723
0.0264535
0.000305797
0.000600951
0.0682034
0.000149857
0.00118839
0.000150369
0.0255768
0.000203343
0.000202964
0.000162435
0.000197314
0.000162912
0.0799739
0.000167589
0.102499
0.0759109
0.0403815
0.0392776
0.0983659
0.000185198
0.0455411
0.000268707
0.00018426