/*--------------------------------*- C++ -*----------------------------------*\
| =========                 |                                                 |
| \\      /  F ield         | OpenFOAM: The Open Source CFD Toolbox           |
|  \\    /   O peration     | Version:  v2012                                 |
|   \\  /    A nd           | Website:  www.openfoam.com                      |
|    \\/     M anipulation  |                                                 |
\*---------------------------------------------------------------------------*/
FoamFile
{
    version     2.0;
    format      ascii;
    class       volScalarField;
    location    "50";
    object      ddt0(gammaInt);
}
// * * * * * * * * * * * * * * * * * * * * * * * * * * * * * * * * * * * * * //

dimensions      [0 0 -1 0 0 0 0];


internalField   nonuniform List<scalar> 
13851
(
-2.17501e-11
-4.60196e-08
4.6184e-10
4.26047e-11
2.47291e-09
-2.14062e-08
9.80864e-15
-2.0083e-13
-1.566e-15
1.51041e-08
-2.3503e-10
1.09195e-11
1.89505e-06
-1.57756e-14
-2.62766e-14
1.06222e-13
-5.26096e-15
9.00235e-10
0.00147136
9.04046e-16
1.2113e-11
9.56067e-10
-1.46254e-14
1.59134e-15
1.63526e-14
-1.0448e-13
-6.24899e-15
-1.58871e-14
1.47003e-11
4.10018e-13
6.4251e-08
1.42591e-14
2.28376e-10
3.36774e-11
1.57916e-14
-9.71809e-05
-0.00924412
0.000402987
-8.08568e-08
7.42377e-11
1.18194e-14
-3.53408e-15
6.8544e-16
1.18041e-09
-6.46222e-10
4.07308e-14
2.02218e-10
1.077e-14
-3.18475e-14
4.24584e-07
-9.87214e-10
2.57337e-05
9.9975e-15
-2.44301e-15
8.83717e-15
9.74696e-15
7.97708e-17
1.85318e-15
-6.3142e-13
-1.06818e-14
9.92672e-05
1.12865e-12
0.000151411
-6.02545e-07
0.000535128
-9.96718e-10
0.0550841
8.89382e-11
3.83137e-15
-6.40721e-09
-8.45534e-15
0.00101615
-5.56245e-09
-2.54039e-15
-7.35234e-15
-1.77659e-12
1.37393e-10
2.16168e-14
1.44418e-12
-6.03888e-15
1.31988e-14
2.05834e-09
-9.58442e-15
2.0375e-14
-0.000150418
1.1132e-12
-1.24434e-06
-9.20384e-16
-3.82756e-14
-8.69229e-10
-0.000199154
-2.26623e-06
-4.44545e-12
-1.72843e-14
1.87363e-14
-2.70919e-14
1.43331e-07
6.50554e-15
-1.04228e-07
-1.91896e-15
-1.44633e-14
6.0809e-12
6.24835e-14
2.45164e-14
3.29537e-16
-6.82757e-07
-8.16159e-12
-5.5768e-16
3.1658e-06
-8.56635e-09
-1.5145e-14
-1.04714e-09
-8.94595e-06
-4.75144e-15
8.78193e-16
-4.47884e-12
-3.52802e-15
-3.47599e-15
-2.20426e-14
-2.46718e-14
-2.88534e-15
2.48102e-14
1.05047e-06
-6.5803e-16
-7.72585e-15
-1.45442e-11
2.16178e-14
-6.28227e-12
-3.21188e-11
2.79791e-05
-2.88248e-14
-1.11487e-14
3.53434e-15
2.30676e-15
6.93029e-12
-3.94251e-14
-1.84351e-14
0.0178395
2.83188e-14
-9.8172e-15
-2.95626e-14
2.95974e-15
-5.91518e-08
-4.37885e-15
2.5111e-14
1.08642e-10
8.17945e-12
1.19649e-05
1.94956e-16
-9.40344e-09
1.13238e-09
2.0265e-14
-9.24944e-15
-1.98766e-14
5.85024e-15
-1.56551e-14
-3.80629e-15
1.40849e-14
3.20795e-05
9.84761e-09
3.36448e-14
2.08133e-14
9.9799e-15
5.85455e-15
-6.41021e-12
1.68288e-15
4.15282e-11
2.65425e-14
-8.44983e-12
-9.80836e-15
9.34636e-15
1.79978e-14
-1.44598e-14
2.43202e-14
2.12042e-14
-1.9203e-17
-1.95238e-12
-9.94072e-09
0.00499318
-1.72361e-14
6.94627e-15
0.000592774
-1.47546e-14
7.2874e-10
1.92103e-15
-8.72607e-15
-6.37292e-11
-5.99306e-16
2.36182e-07
6.91538e-05
1.67187e-10
-1.78012e-14
-1.0027e-08
1.39003e-14
1.95194e-10
-5.21202e-15
-3.6783e-08
1.07999e-13
-4.64485e-09
-1.67614e-12
-5.12925e-11
-1.3742e-14
4.82468e-16
1.34823e-14
-1.98461e-06
1.07042e-14
9.66232e-11
-1.14607e-14
-7.98648e-15
-7.33926e-15
-1.29009e-12
2.78566e-16
7.04917e-14
-1.6165e-15
-1.0889e-14
-6.16494e-08
-5.47518e-06
5.51937e-14
7.71669e-15
1.37363e-14
2.45251e-14
7.92918e-15
-1.48342e-13
-2.77403e-05
-1.63958e-14
9.08499e-15
2.84859e-15
1.77983e-14
1.25689e-16
-3.51217e-14
7.5615e-14
-1.14725e-07
-3.2075e-15
-5.20191e-09
6.97086e-11
1.21982e-09
-1.38329e-10
2.50553e-05
6.36473e-16
1.02106e-16
6.10141e-08
-1.07226e-07
3.32043e-14
-4.20362e-06
9.65339e-16
4.89298e-15
2.97872e-11
4.32972e-12
2.66403e-14
4.06092e-14
-8.5052e-07
-9.09623e-08
2.78032e-14
2.7953e-15
-7.33867e-12
7.66776e-11
-0.000555978
0.00243649
2.09355e-13
-2.55582e-15
1.25231e-14
2.93123e-08
7.81528e-08
8.11068e-14
0.000544112
-6.0608e-16
-3.11569e-15
2.04485e-14
-8.20065e-13
2.06465e-06
-4.18721e-07
-7.67225e-17
-3.65174e-08
-1.1655e-13
4.14192e-14
1.34524e-14
1.44733e-09
-2.12069e-09
-8.11657e-13
-2.3549e-08
-1.87677e-14
-1.34464e-14
-3.66841e-15
-3.94826e-12
-2.34009e-08
1.65126e-16
7.81513e-14
-2.45787e-15
-2.50455e-08
1.99269e-10
-9.55383e-05
1.2551e-13
-7.81393e-15
5.16143e-15
1.24269e-09
0.000893457
2.4265e-14
-3.08139e-13
1.01468e-15
-1.93185e-14
1.65979e-14
-2.69556e-14
3.33561e-12
2.23537e-14
1.18025e-05
8.80646e-15
2.09794e-14
3.95018e-13
1.57501e-15
1.10577e-13
5.35958e-15
-3.38954e-13
5.96226e-15
2.84118e-14
-3.64801e-15
-5.04008e-15
-8.68672e-11
-6.75356e-12
6.22268e-07
-2.92686e-15
-6.74638e-12
-1.98729e-15
2.96299e-13
-1.8711e-06
-1.29514e-14
3.21218e-13
3.14023e-08
-9.99662e-15
1.46271e-14
-1.27682e-14
7.62255e-15
-3.27659e-15
-1.92231e-10
-1.56584e-14
1.16721e-14
3.11987e-06
5.55262e-11
1.35003e-05
-2.93138e-15
1.695e-14
-0.000121651
-9.07808e-06
-3.04403e-10
5.02415e-06
0.00115626
-3.98404e-08
1.66379e-09
-1.32628e-14
1.0681e-14
4.98164e-10
1.79883e-10
1.35505e-06
-4.75592e-15
1.2225e-11
2.87669e-14
2.94452e-16
-1.05241e-11
5.49458e-13
5.7863e-15
3.75687e-15
2.42296e-17
1.32943e-14
1.34133e-14
-3.47019e-12
-3.49087e-15
-1.32736e-13
1.35429e-14
-1.02888e-13
5.70992e-13
-1.8048e-14
-2.64794e-14
-1.25277e-14
-6.97615e-09
-4.89908e-15
2.89462e-14
-5.43942e-16
-2.91158e-15
-2.27102e-08
5.00671e-14
-1.57579e-14
1.33414e-14
-4.67167e-06
2.57106e-06
-2.77565e-14
-1.24982e-10
-2.47319e-11
4.59309e-07
1.76862e-14
-2.69331e-14
1.45187e-06
-1.25924e-12
5.33542e-15
2.53165e-14
-2.60361e-13
2.61316e-15
1.51896e-14
3.16275e-17
2.88269e-14
-1.08292e-14
8.07072e-09
3.77996e-14
-1.20693e-07
2.86772e-14
-1.45545e-14
8.97965e-05
-1.54684e-14
3.15735e-16
-2.36716e-07
-5.07623e-15
3.5335e-14
-1.61039e-14
1.79843e-14
-5.19174e-07
6.18979e-10
-8.89362e-15
-1.40021e-07
-4.397e-12
-5.85845e-08
-5.99317e-08
-2.60943e-14
2.35377e-06
1.45295e-14
-4.52358e-08
-1.17255e-14
7.56046e-15
-1.21313e-14
0.000612639
-2.09845e-14
-1.42537e-05
5.22411e-08
2.44452e-14
1.68908e-10
1.56395e-05
2.31381e-14
2.23513e-10
2.24189e-15
-1.48307e-08
4.64605e-16
-1.74604e-05
-6.66178e-12
-3.41334e-12
2.60309e-14
2.12263e-08
2.05399e-08
1.55146e-12
-5.16313e-15
1.34468e-14
3.99021e-14
1.12147e-12
-5.41418e-07
2.69496e-14
1.04212e-14
-7.67955e-11
1.57823e-05
-1.42943e-07
-6.53574e-11
1.92383e-14
2.90275e-13
-1.76949e-15
-8.47421e-12
-3.76719e-15
-8.12026e-13
3.99844e-16
-4.01344e-11
6.19755e-15
-1.51838e-09
-1.04788e-15
-1.17875e-14
2.15571e-08
1.09665e-12
1.10321e-14
-5.6537e-15
-4.3051e-15
2.81465e-06
3.20313e-08
1.68616e-16
-2.01498e-15
1.40421e-14
-3.66721e-14
1.33925e-14
1.23325e-15
-6.50477e-08
-1.6182e-16
9.16866e-15
-9.38214e-15
-2.9711e-14
-2.5224e-14
1.76088e-06
1.04931e-14
-1.78355e-08
-2.85536e-14
-1.1429e-13
-2.07302e-11
-1.19036e-14
3.77436e-09
-1.49624e-15
-1.84581e-14
1.37815e-14
6.30397e-14
0.000195545
4.18108e-16
-4.23776e-06
-1.35426e-14
1.6687e-14
-1.3352e-13
-3.8299e-15
3.6699e-13
1.07482e-14
-1.50826e-16
-1.35141e-14
2.5542e-14
-1.05817e-14
-1.70408e-09
3.18067e-05
0.00825336
4.50906e-05
1.00478e-14
1.38174e-06
-2.85816e-13
1.33588e-14
-4.27642e-15
1.16182e-07
2.53307e-14
-8.39191e-12
3.06121e-16
-1.87598e-14
-1.15778e-14
-2.26585e-14
1.45452e-12
-9.62549e-06
1.05921e-14
2.31593e-08
6.73454e-12
-1.22764e-12
2.32457e-05
-1.64436e-14
-0.000727478
3.33276e-07
2.22048e-14
5.80468e-09
7.02881e-10
-1.84095e-14
1.28962e-14
-1.02876e-14
-4.85195e-16
-8.97333e-15
2.81779e-07
4.2864e-10
6.43764e-15
-3.10207e-11
-8.40832e-16
-2.21938e-14
2.27289e-14
7.71913e-08
-3.22508e-14
2.52383e-14
-4.91035e-15
3.52816e-14
-2.09466e-11
-9.01129e-08
1.39136e-15
1.1678e-08
4.46246e-05
2.43866e-14
9.22139e-08
-9.38378e-15
1.40834e-06
-6.06574e-06
2.54935e-14
1.06201e-05
2.64241e-14
1.69591e-14
-2.87704e-12
-2.11026e-14
-7.7253e-06
1.1966e-14
0.000155868
2.79722e-15
9.35441e-16
-2.17145e-07
1.15171e-14
-1.566e-14
1.56383e-14
1.87895e-15
4.44026e-06
-3.64361e-08
-2.91995e-08
-3.24046e-15
-1.11804e-14
-1.20873e-12
4.17785e-16
3.08731e-16
1.54346e-12
-2.63185e-14
-1.25922e-14
1.09674e-12
6.31963e-13
2.67433e-14
-8.32025e-14
6.75982e-15
2.39471e-14
-1.05227e-14
-2.624e-09
1.70728e-14
-1.75424e-14
-6.44503e-11
-2.09206e-14
4.86876e-11
1.47471e-09
-2.42618e-08
-2.18377e-16
-7.04606e-15
-9.26994e-14
-1.13852e-08
3.48341e-14
-1.56987e-08
-1.13684e-14
6.35319e-07
1.51595e-14
-8.84068e-15
-5.29343e-06
3.5031e-15
1.31581e-14
7.76255e-12
4.97023e-17
-5.90174e-08
0.000309902
-3.43222e-05
-1.62277e-13
-7.16834e-06
-1.57815e-14
-1.48751e-09
-1.2759e-06
7.73786e-15
1.86474e-15
2.02861e-14
-4.57364e-05
5.71051e-13
-4.52758e-15
1.49942e-15
-1.66726e-14
-1.76987e-13
2.96981e-16
-0.000519491
1.47695e-15
-1.82478e-14
1.06412e-14
3.81408e-14
-1.98773e-12
-2.83944e-07
-5.64302e-10
-1.19811e-14
-7.76638e-05
-0.000175443
-3.82593e-06
-6.83495e-15
9.05033e-15
2.49805e-14
-0.000109968
1.23222e-09
-7.84011e-12
9.47254e-15
1.17048e-15
6.50941e-16
3.24717e-15
-4.43807e-14
0.00114022
4.35333e-14
-1.31066e-14
-3.28825e-15
2.40101e-14
9.52845e-15
9.19481e-07
-4.05104e-15
-4.00693e-13
-2.64495e-14
-9.40958e-14
-2.95774e-14
6.72791e-07
4.35098e-14
1.19373e-14
-1.75254e-11
1.54583e-14
-6.11039e-09
7.5845e-12
-2.7298e-08
6.25966e-14
2.35674e-15
7.22985e-15
2.855e-16
1.5184e-14
-3.63358e-15
-4.46813e-12
3.81568e-14
0.000152324
-1.6137e-14
7.6569e-15
-3.74942e-08
-3.37439e-15
-7.62082e-09
-0.00180237
-1.39902e-10
6.55547e-15
-3.62248e-15
-2.00604e-14
9.09328e-05
3.01983e-10
-2.22842e-14
-9.88189e-14
-1.52047e-14
1.3232e-14
-1.51573e-13
-0.0121456
7.39191e-14
8.49965e-14
-2.35951e-09
-2.8285e-14
-3.44263e-15
6.77439e-15
-4.13805e-12
-1.50477e-15
-1.17043e-15
9.25815e-15
1.28681e-14
-8.27722e-15
-4.7142e-05
-1.29625e-08
-5.91765e-07
9.1942e-15
-4.15321e-08
1.61316e-08
1.30374e-11
1.35709e-14
-1.24294e-14
-2.55368e-07
8.04263e-09
-0.0136274
-1.96758e-14
2.39927e-14
-1.36539e-14
-1.24904e-15
-2.74538e-15
5.62847e-15
-6.07393e-06
4.55737e-09
-7.03918e-09
-9.67247e-16
-7.75219e-09
-3.10984e-15
-3.71638e-07
3.62127e-16
4.22454e-15
1.39941e-14
6.4899e-15
1.13871e-14
1.22233e-14
-9.38258e-13
-2.50208e-14
3.22896e-14
8.80347e-17
1.99186e-08
8.33499e-10
-0.000147594
2.71688e-11
2.19693e-14
1.81446e-08
-2.98716e-14
1.37621e-15
-1.31752e-12
2.25453e-14
2.16236e-15
-1.98312e-05
6.76111e-15
5.82809e-09
1.40332e-15
9.89433e-16
1.34795e-14
4.7907e-12
-1.64164e-11
-1.18808e-07
-5.1327e-13
-1.20888e-05
-2.48975e-16
5.47349e-08
3.70533e-09
5.88089e-14
-1.49338e-08
-1.60521e-08
4.51302e-17
-5.54892e-08
5.17564e-08
-1.46194e-10
-4.63581e-13
2.24399e-12
0.011994
-7.88949e-16
5.3004e-14
-5.61011e-10
-3.39956e-10
4.11563e-15
-3.75883e-14
3.60058e-07
-3.61943e-12
-2.34592e-14
6.88602e-07
7.04855e-15
5.36684e-14
2.28704e-12
1.07923e-16
2.86223e-10
-1.26082e-09
3.31783e-15
-3.12398e-15
-5.80325e-14
-1.21338e-14
3.29575e-14
-1.4465e-14
2.30953e-12
-1.96024e-14
-6.50654e-15
-1.32611e-14
0.00247246
4.98495e-07
7.09725e-10
3.79551e-15
6.29741e-06
8.07575e-09
-4.97767e-11
-1.71641e-13
-4.35164e-15
1.29005e-14
1.75435e-08
-7.17538e-12
7.77357e-15
-1.01506e-07
1.7065e-14
-1.05903e-14
-1.25212e-11
-4.86296e-15
-4.76927e-15
1.50896e-14
-1.04835e-17
1.1199e-12
6.43756e-13
-7.58779e-12
1.26998e-14
-7.93736e-16
1.62615e-14
4.50479e-10
3.37125e-15
-3.81807e-07
8.45519e-15
-2.98441e-16
-3.14364e-15
3.67529e-13
3.43756e-09
6.53225e-15
1.84146e-10
2.39335e-14
6.60388e-07
9.94552e-15
9.04481e-15
-2.19614e-13
1.28206e-14
-8.24756e-10
2.45484e-17
-4.71313e-14
1.25667e-14
2.83494e-15
1.52817e-07
8.014e-08
2.7932e-14
1.36348e-15
6.12084e-15
-4.14142e-12
-1.08095e-14
-1.13943e-14
-1.34795e-14
0.00023429
-4.28688e-13
-5.09015e-13
-7.47279e-15
-1.95822e-14
-4.6098e-16
-1.79654e-14
-2.94999e-06
-2.5656e-14
-5.59748e-10
-8.26898e-10
-3.35661e-15
8.92224e-09
-1.44786e-14
2.15205e-12
2.72058e-14
-9.73996e-15
-1.1647e-10
-1.64635e-14
-6.68283e-05
-3.50257e-09
-5.37339e-15
-5.29581e-09
4.50797e-13
-1.92854e-15
3.2553e-14
-9.89387e-15
1.1766e-14
7.92307e-12
9.84107e-15
6.65038e-15
-1.55502e-13
-2.19072e-14
3.25654e-15
-4.60799e-16
-1.5655e-14
-1.88788e-14
8.57637e-12
1.52701e-15
2.59912e-15
-8.81483e-11
3.54605e-15
-2.17635e-15
-1.28658e-11
-1.47635e-08
0.00120147
-2.0553e-14
1.41587e-14
1.43898e-14
-1.4132e-14
-7.92258e-10
1.00254e-11
-1.61988e-07
1.83306e-14
5.39401e-14
-2.14605e-08
1.12952e-15
2.97011e-13
-1.31031e-12
-2.7157e-12
1.62659e-15
-5.13835e-14
1.71852e-14
-2.07018e-15
-4.12653e-14
-5.24216e-11
-0.000152302
1.28668e-14
-4.12893e-15
5.4677e-08
1.2124e-14
-9.06728e-16
-1.68302e-13
-2.10468e-14
-2.54334e-05
1.37021e-14
0.00342698
-1.08997e-15
2.10083e-07
-1.78025e-14
-1.66092e-15
-1.30959e-15
-7.83047e-11
-1.01621e-14
-6.1833e-16
2.62933e-09
5.14434e-15
-1.59624e-13
-2.27564e-14
3.15752e-14
1.67015e-14
9.91234e-15
-6.62784e-06
-3.93572e-14
0.00481146
2.24444e-14
-2.20001e-11
-2.48501e-15
1.62479e-14
-7.21671e-12
2.88535e-08
6.47106e-12
-3.58075e-15
6.18465e-10
-2.98935e-14
6.05287e-15
-1.98288e-14
-1.22644e-05
2.37876e-14
5.07716e-15
-3.27718e-13
3.48717e-14
-1.44019e-07
1.22513e-08
-5.44488e-15
-1.2291e-12
1.24723e-15
9.34502e-14
1.32236e-15
-3.01361e-07
4.88601e-08
3.63051e-07
0.00859461
2.47437e-14
-2.76682e-14
1.03319e-15
-1.24277e-08
1.55091e-06
1.18346e-14
-1.60133e-07
-1.2918e-13
1.72543e-14
6.04315e-10
1.25651e-14
-2.86211e-13
4.47128e-15
-0.000210067
-8.13577e-10
-0.000631797
1.29982e-14
-3.48664e-14
3.64929e-14
1.28205e-14
-1.40401e-10
-2.78955e-14
-5.94775e-15
-3.11247e-12
-3.04175e-08
-9.06108e-16
-1.73816e-12
7.05685e-15
-1.41986e-14
-0.00606425
-3.62072e-10
-3.20387e-07
-1.15154e-14
5.13393e-12
0.000372043
-1.35535e-15
-4.78489e-15
0.017414
-1.10912e-08
-4.05859e-14
1.05143e-12
-3.05548e-16
8.26244e-16
3.66267e-14
6.52236e-15
-1.38721e-06
9.51552e-15
1.55736e-14
-1.76018e-09
2.58233e-14
-4.6708e-16
-1.0477e-14
-4.61194e-11
3.49405e-09
-3.0072e-15
3.9971e-15
4.87153e-10
-3.22475e-14
-2.97338e-15
-7.76703e-09
-2.70235e-12
-3.82329e-12
-3.01054e-09
2.23889e-11
-1.34867e-08
1.67506e-08
2.40427e-05
-7.55206e-15
-1.74773e-13
9.50183e-15
-2.82424e-14
-1.51581e-07
1.06002e-14
6.49449e-15
-9.26238e-15
-1.36675e-14
-1.46308e-14
1.69636e-14
9.52564e-15
7.6804e-09
-0.000210329
2.41677e-14
-1.60305e-14
1.27582e-14
5.1281e-14
1.35998e-13
-3.2848e-06
-7.66098e-14
5.90134e-15
-1.29367e-05
5.53953e-15
3.10937e-15
-1.52541e-08
-1.7195e-14
5.52157e-13
1.69225e-08
-1.11489e-13
1.28208e-14
-3.74852e-15
-2.31973e-13
5.08624e-05
3.12766e-07
1.97063e-05
-6.45929e-15
0.000293395
-2.15477e-06
-5.75828e-13
2.35124e-14
-1.12501e-13
1.15836e-14
1.96647e-05
-6.13594e-08
3.41502e-14
-8.24102e-07
-1.12309e-15
-2.4139e-15
-2.47396e-10
2.48979e-15
-3.94782e-08
-5.81674e-16
-4.25385e-05
4.02093e-15
-1.95591e-12
0.000946807
-1.36984e-14
-7.77094e-10
1.9593e-14
-5.47124e-09
-2.00196e-05
-3.75181e-15
1.04769e-14
2.46818e-14
0.00019231
3.1488e-14
1.50107e-15
1.09078e-14
1.81349e-14
1.81933e-14
1.53006e-05
1.91025e-15
5.1468e-09
-2.45042e-11
2.13548e-07
-0.000225957
-1.3868e-14
-2.38687e-14
9.15983e-07
5.2644e-16
-5.55049e-15
6.31819e-05
-2.3107e-11
6.04749e-15
1.26576e-14
-6.0113e-15
5.88962e-12
2.67249e-12
5.53203e-15
-1.42076e-15
-3.61237e-15
9.3135e-11
1.00294e-14
7.02429e-14
1.23253e-14
1.01028e-11
3.47893e-06
7.05002e-12
1.12517e-14
-2.70214e-14
-6.82522e-09
-7.0583e-06
0.00165052
4.01019e-12
2.97388e-05
-3.10293e-15
0.0112012
-1.2692e-14
-6.71942e-15
-4.43477e-14
6.28679e-12
-1.75121e-15
-0.000700646
-9.64497e-16
2.95517e-07
-1.62241e-14
-8.15965e-11
-6.94371e-06
-1.15029e-15
-1.46397e-10
1.02466e-14
-2.77491e-14
6.65224e-05
1.84919e-14
-1.09139e-14
-2.80598e-09
8.62611e-12
2.4476e-14
-2.0538e-14
1.80343e-15
-2.24366e-14
-5.31012e-13
-1.86278e-05
-2.0038e-14
-1.1008e-09
-0.00175995
-8.34689e-05
2.83552e-06
-6.04759e-08
-3.24101e-12
1.05853e-06
3.94292e-09
-6.88072e-15
4.16934e-06
1.51025e-14
8.80654e-15
-3.10648e-14
6.90944e-15
-4.67591e-13
2.35265e-14
1.37217e-06
8.11406e-15
3.08316e-08
-2.59283e-06
-1.51447e-14
-4.02292e-07
-1.70908e-06
1.76366e-09
1.54067e-15
-4.61288e-14
-1.40021e-14
4.9886e-08
-8.27675e-12
-5.01088e-11
1.49355e-14
-1.46667e-14
-9.20189e-15
2.7266e-15
-6.68524e-16
2.96173e-09
3.0134e-16
2.78794e-05
1.15996e-15
-1.84657e-15
-1.18122e-12
3.75392e-05
7.94079e-10
-4.73897e-15
-3.42679e-13
-0.000115282
-6.10215e-13
-9.65652e-12
4.87982e-15
1.7856e-14
1.31327e-14
1.04705e-15
6.22007e-15
1.78914e-09
-9.75777e-10
1.19525e-06
-1.70168e-14
-2.13383e-10
1.08642e-14
7.696e-06
-2.89617e-08
2.37942e-15
-1.70767e-13
-4.19962e-14
1.06166e-05
7.12876e-17
1.21103e-15
-4.48324e-11
-1.73818e-14
-3.83744e-07
-8.84934e-15
-1.41341e-15
-9.27539e-13
-9.41257e-17
1.85372e-05
-3.12377e-10
5.35186e-06
-8.98e-09
1.7382e-14
9.40731e-15
3.11574e-14
2.19575e-07
-1.3662e-14
2.44182e-08
1.46116e-14
1.19409e-11
-4.04734e-08
-1.97722e-14
-5.58312e-16
-5.24108e-10
-1.35138e-06
-8.5202e-15
1.18167e-10
3.09278e-14
0.000625468
-5.6719e-15
-9.1014e-16
-2.06603e-06
4.88499e-14
1.85268e-13
-0.000479168
-1.11688e-14
1.89115e-14
6.71107e-11
5.88269e-06
1.83674e-05
-3.0694e-15
1.6893e-14
-2.17715e-14
2.69045e-15
-4.76425e-07
0.0041541
-9.05156e-10
1.58264e-14
-5.35849e-10
4.63299e-15
-3.26917e-14
-7.81903e-07
-8.4991e-14
2.36212e-06
-1.51036e-15
-4.88214e-15
-7.70334e-09
4.36732e-05
6.41354e-16
-7.60727e-05
-8.75124e-09
4.28303e-15
-3.137e-14
-4.72492e-15
2.82798e-12
3.67632e-14
-0.000195569
-2.15659e-06
5.68602e-05
-2.9492e-15
-1.14283e-14
-1.15433e-14
-4.28899e-12
0.0013951
-3.21744e-10
-2.73843e-12
2.11455e-14
-2.49e-06
1.77953e-05
-3.14761e-15
7.92698e-09
-6.91309e-10
1.158e-16
1.47882e-06
7.2082e-14
-1.88801e-12
7.31856e-11
7.65028e-16
1.61737e-14
4.48777e-08
-2.22435e-15
-3.35344e-06
3.04277e-15
-1.80863e-16
4.8687e-09
1.99088e-14
-5.47572e-14
1.30696e-11
-2.67985e-12
4.29226e-07
-1.26033e-06
-1.4927e-06
8.79352e-07
-7.47884e-11
1.17524e-14
-3.1303e-14
-0.00252215
-8.74888e-15
-1.00508e-14
1.85814e-07
-1.4331e-14
8.84731e-15
-1.80674e-12
2.55248e-12
-1.44209e-14
1.9071e-15
-1.83076e-13
-2.69233e-09
3.78639e-09
2.87538e-14
0.00608351
-1.07246e-14
9.44048e-09
5.47032e-15
2.87212e-14
-1.47044e-06
2.46516e-14
-8.39812e-15
-6.07525e-15
1.79842e-09
-2.38775e-14
1.86793e-14
1.42442e-09
-7.02653e-15
-8.2631e-12
-1.33596e-15
-2.47598e-14
-6.25708e-14
-6.72518e-15
1.99602e-12
2.07161e-08
1.37032e-14
-2.63392e-14
-2.48491e-14
-3.65968e-11
-2.34282e-15
9.49222e-11
-6.5924e-12
0.000159221
-1.52685e-06
0.000487613
-2.12693e-15
1.67004e-05
4.18064e-14
-8.76e-15
1.80195e-09
-4.87903e-05
-3.00705e-05
-3.33347e-15
-2.96724e-15
1.13551e-14
7.95237e-13
-6.38029e-15
1.48738e-05
-2.98346e-06
-3.71614e-15
-1.22526e-14
-5.1385e-07
-5.27319e-07
-3.00031e-14
-1.03781e-07
-9.82573e-15
1.6879e-09
-1.4481e-14
4.41373e-13
3.80523e-16
3.66803e-15
7.4404e-12
-2.02426e-14
1.02837e-06
-2.61334e-14
-5.39659e-06
1.56266e-14
-4.40127e-13
5.59746e-15
-2.01094e-14
-4.76855e-16
-2.33726e-14
-1.38574e-14
-5.93194e-06
1.39341e-14
-1.71758e-15
-3.02246e-15
5.51856e-11
2.49122e-15
-2.48295e-14
-7.028e-15
3.27251e-07
2.09378e-11
1.46873e-12
2.07139e-12
1.87227e-10
-9.97902e-15
-1.96225e-10
-1.11068e-13
-1.21052e-14
-4.99637e-13
1.46063e-14
-2.94382e-08
-3.17312e-10
-1.95066e-12
-1.82766e-14
-1.21199e-14
4.58423e-07
5.73092e-16
-3.63847e-12
-9.44634e-12
7.99705e-15
-2.33337e-14
6.35263e-07
-3.48707e-11
3.34062e-05
-9.74712e-15
-4.16707e-15
7.94182e-11
-1.7004e-14
3.15293e-14
-1.75914e-15
4.12243e-06
3.31752e-13
-4.75258e-12
6.3128e-14
-4.29974e-16
2.14691e-14
-2.76804e-15
5.69269e-10
1.40176e-14
2.61688e-14
1.44319e-14
-1.09215e-14
1.11979e-13
-0.000873563
1.6411e-15
4.9798e-14
-5.42167e-05
-5.49052e-11
-1.01389e-14
1.58287e-13
-4.92799e-06
-3.6537e-15
-0.00189952
2.96552e-14
2.59173e-15
2.29029e-09
-8.95663e-12
4.91404e-13
-1.19117e-14
-1.21325e-14
4.25896e-13
-5.53894e-16
8.03342e-08
6.82866e-15
-1.18049e-16
1.8833e-08
-2.09118e-14
-1.25617e-11
1.34396e-14
-4.85027e-12
3.63166e-14
-4.10399e-07
2.45843e-14
2.83355e-15
1.20109e-14
2.16716e-14
1.93794e-14
-4.44366e-08
1.42681e-14
2.68014e-14
-1.04765e-15
2.09944e-14
-6.53639e-14
-1.39598e-14
2.30946e-14
-2.48627e-14
-2.69531e-13
3.6294e-08
-0.360697
-2.78109e-15
-2.78179e-06
2.15111e-14
8.06213e-15
-4.79674e-11
-7.21187e-06
-2.6269e-14
1.53522e-14
3.23847e-08
5.3702e-15
1.16293e-14
-8.81944e-15
-1.81734e-12
-1.10359e-09
-3.35735e-12
-2.56987e-14
7.98566e-10
-2.79664e-14
5.29697e-14
-5.73137e-14
-1.097e-14
-1.09624e-14
-3.23046e-11
4.2281e-11
-3.15235e-05
-4.13983e-14
1.05546e-05
-4.00225e-06
4.31019e-14
-2.72274e-14
-2.04157e-14
-1.64434e-08
-1.12456e-14
-5.78634e-13
-1.6529e-14
-2.09468e-14
-8.70964e-15
2.6073e-15
1.54809e-15
2.90698e-14
-7.12248e-16
-2.72632e-14
-1.36297e-15
1.31727e-14
7.34997e-15
5.28539e-14
-3.01015e-08
3.19925e-06
-5.06687e-15
2.90156e-13
-5.42306e-16
-7.75e-16
-2.51434e-14
1.87598e-15
-1.7777e-14
4.91223e-11
6.97963e-09
6.06465e-16
1.73354e-16
1.61656e-06
-3.72174e-14
-1.44154e-11
1.29142e-12
-0.00111448
4.10604e-15
-1.30508e-14
4.00814e-14
2.13472e-13
-4.11903e-09
2.13709e-09
-8.7329e-10
-4.85693e-10
2.38457e-14
2.88075e-05
-2.86488e-07
-6.57135e-07
5.59915e-11
-1.11328e-14
1.17302e-14
8.17061e-15
2.51252e-14
-6.32437e-11
2.56525e-15
-6.07089e-15
-4.91959e-07
2.15339e-11
-4.28962e-06
1.69618e-14
-2.54426e-07
-1.18332e-13
-3.76861e-12
-6.12683e-12
3.39436e-14
-1.29779e-14
-4.70088e-15
3.84156e-14
2.56053e-14
-6.88559e-08
-2.31383e-14
-0.000174496
1.03275e-10
-9.45514e-15
-2.76903e-15
6.30695e-05
3.01086e-06
4.16756e-09
2.54922e-05
-8.32483e-14
1.08434e-13
-2.93651e-16
5.40277e-08
1.16858e-14
8.39338e-11
3.82322e-11
-1.24658e-06
1.10666e-05
5.98209e-09
1.79703e-13
1.02969e-14
2.08782e-06
7.76835e-09
1.75907e-14
1.82417e-16
-2.53396e-14
-3.43643e-15
2.65625e-14
1.17779e-14
-2.97889e-11
-2.1404e-09
-5.3304e-08
9.05631e-07
1.93414e-15
5.95578e-15
-5.91551e-14
4.25086e-07
1.80345e-14
-4.50926e-16
-0.00251952
1.56563e-14
-6.34324e-09
-7.13575e-13
1.8223e-08
4.7197e-11
-8.43604e-15
-2.17081e-14
-1.19581e-14
1.27622e-05
-2.49582e-15
1.39862e-14
-1.6459e-14
1.18939e-14
0.00454322
2.62009e-14
-1.21929e-14
5.57419e-13
2.01015e-14
-3.3663e-08
-3.54198e-11
2.96855e-14
2.28191e-14
-1.36624e-14
6.66705e-05
2.96117e-15
-1.25987e-12
-5.13602e-14
3.50497e-15
1.7646e-09
-1.0262e-15
-5.38925e-05
2.51555e-15
1.03906e-08
2.63339e-14
1.8741e-11
2.52358e-14
1.07621e-14
-2.87375e-14
-3.10813e-14
4.02775e-14
-7.95459e-15
1.60098e-14
-8.21781e-08
-6.29831e-09
-2.14837e-14
-6.42366e-05
4.09271e-10
5.1274e-12
-2.81674e-10
2.44275e-15
-1.54431e-14
-9.84706e-15
-7.31656e-14
-1.06207e-14
4.02397e-14
3.96214e-15
-1.019e-12
8.3527e-15
-5.08612e-05
1.53518e-11
9.60727e-15
1.52513e-14
-2.75347e-14
-1.85083e-15
-1.38943e-14
4.50885e-14
-3.39377e-14
-5.50455e-15
6.80431e-14
-1.41471e-11
-1.37806e-14
-1.49691e-14
-1.04265e-14
1.44268e-14
-1.36804e-14
-3.68199e-15
-5.39819e-15
-2.31905e-09
-9.09112e-10
-3.02367e-14
-9.46419e-07
-1.11397e-06
1.26632e-09
-1.42233e-14
4.66198e-15
-3.38836e-06
-6.17306e-15
6.01086e-08
-1.51671e-09
1.92925e-14
-2.67603e-10
-1.97787e-15
9.06101e-15
9.35236e-15
4.99023e-13
-1.43069e-09
-1.39987e-14
1.059e-13
8.28077e-13
1.04766e-10
-1.24009e-08
-2.84999e-14
1.46405e-16
-9.4901e-16
1.74257e-14
3.48037e-14
1.67604e-14
2.91738e-14
-3.77137e-14
-9.49601e-15
6.42001e-11
-2.04799e-15
2.13018e-14
1.05798e-06
0.00047859
2.59921e-06
8.19274e-15
6.34079e-08
6.28502e-16
2.52022e-09
-1.84034e-09
6.12923e-10
-1.21659e-09
2.18365e-14
2.09081e-14
3.56555e-15
-1.3719e-14
-1.84849e-14
-1.64993e-14
-3.10109e-13
3.39209e-11
-4.56112e-14
2.03939e-11
-1.62941e-14
-1.67224e-07
1.26254e-14
-2.52819e-10
1.07441e-06
-2.28546e-14
1.11899e-14
5.83185e-08
1.00812e-14
2.35554e-14
1.74911e-05
2.04459e-10
-1.52518e-14
-5.99337e-07
2.69792e-14
-7.36951e-13
1.1226e-08
-1.06249e-14
-2.60709e-14
2.55322e-08
3.05815e-08
9.09207e-15
-2.32973e-14
-1.40459e-10
2.77809e-14
-1.80942e-15
-5.33834e-08
-0.00262557
-2.30855e-14
-9.74095e-16
-3.13367e-09
-8.55929e-15
-1.96389e-14
-3.87227e-06
1.34648e-09
4.02824e-08
-3.8545e-15
-5.15931e-13
1.32767e-14
-1.37479e-14
0.00282917
-7.91435e-15
3.59224e-14
-3.7619e-15
3.29423e-14
2.16972e-12
-6.82927e-06
4.46168e-15
3.78063e-14
-1.05126e-09
2.4441e-14
2.42268e-14
-2.38079e-15
-0.000183941
5.81226e-07
-1.06492e-11
-1.53383e-14
3.52424e-14
2.18358e-15
4.70351e-08
6.5581e-15
2.37976e-08
1.78953e-14
-2.45679e-14
-1.38039e-14
5.55575e-14
1.87823e-10
2.65377e-14
3.33682e-16
3.66512e-13
-6.95523e-15
-1.60363e-15
-7.74134e-16
-1.9017e-10
8.78344e-17
9.98361e-15
-1.47647e-14
2.58794e-15
1.34987e-14
-1.34231e-11
-2.62088e-14
-2.8359e-11
-1.42096e-14
6.40055e-08
1.43489e-14
-4.03092e-11
-3.05611e-10
-4.27159e-15
9.70837e-14
-1.58543e-14
3.85858e-13
7.16594e-11
7.22769e-09
1.46649e-14
-4.12258e-15
3.64846e-11
-2.96034e-11
-8.33952e-10
1.20509e-12
-1.47183e-09
4.64067e-12
5.27093e-13
5.3172e-14
-0.000454704
9.71419e-10
5.71996e-15
-8.8971e-16
1.26067e-16
4.45136e-13
1.06944e-13
-4.56047e-14
-1.30522e-10
-8.44122e-16
-7.05785e-09
-1.86351e-14
-8.23246e-15
-7.20193e-16
-1.35817e-15
3.83017e-14
-2.18725e-07
2.75532e-15
6.9929e-15
-2.97253e-14
6.65489e-15
-5.12123e-12
1.78364e-11
-6.39319e-09
-2.17933e-14
-1.29079e-05
-1.13604e-14
1.47842e-14
-1.48807e-14
-2.69075e-15
-1.01076e-14
-1.08183e-14
-4.77369e-06
-8.82265e-12
6.20732e-11
4.30142e-06
-1.57366e-14
2.76987e-06
2.27551e-15
-2.29696e-16
1.92968e-18
-7.35758e-07
-1.23685e-14
2.39111e-07
0.00789681
0.000675163
-2.0535e-09
-3.05149e-15
-2.61953e-14
-2.50487e-07
-3.09632e-15
2.06997e-14
-6.18207e-13
7.34554e-12
1.95428e-05
6.08943e-06
-8.20878e-06
3.82667e-14
-2.4172e-13
2.15455e-10
-2.28687e-12
1.67711e-14
-1.01102e-14
-4.14129e-15
-8.3548e-07
-4.06699e-05
-3.34223e-10
-5.36527e-07
-3.20829e-08
1.42228e-14
4.3615e-10
1.01067e-13
-1.64904e-15
-8.10975e-15
6.63299e-11
3.58039e-06
-7.00047e-15
-6.07835e-08
1.12249e-14
4.62908e-08
-1.67271e-14
1.10324e-08
1.33149e-11
-0.000132442
1.27699e-14
3.58208e-10
6.41633e-08
1.41802e-14
-7.03906e-15
-5.02144e-09
2.07447e-14
5.87567e-15
-1.70449e-09
-0.0187716
-1.36025e-15
0.017304
2.8328e-15
-1.29583e-09
-2.14535e-12
-1.58221e-14
1.25567e-14
-4.20245e-12
-3.0388e-15
-1.03677e-14
-1.52789e-14
-1.49461e-15
1.58434e-08
2.45502e-14
1.74194e-08
-0.000571787
-0.000104388
1.34196e-14
-2.26397e-15
-5.83955e-09
7.39449e-17
-1.23211e-14
-6.30549e-12
0.000103807
4.58609e-14
-7.65304e-14
-1.4185e-14
-5.46724e-17
-1.0694e-05
-1.55338e-14
2.06687e-14
-9.15661e-15
-3.25402e-12
-0.000119341
-1.67925e-15
2.26655e-14
-4.06325e-15
-3.8641e-16
-0.00211198
-2.75346e-14
-1.70784e-14
-2.42586e-07
7.87864e-15
-0.00102041
3.25375e-14
-5.58832e-10
-0.00133996
1.80916e-15
-3.04152e-12
4.18368e-14
-1.37258e-09
5.0377e-15
0.000463374
1.73946e-14
-1.54799e-12
2.3765e-10
-1.69218e-06
1.47182e-15
2.54804e-14
2.37682e-15
1.463e-15
9.56987e-15
-1.91009e-15
1.51503e-14
-2.04888e-14
-2.31397e-09
-2.98418e-15
-1.61129e-16
5.02819e-15
-2.12184e-13
-5.23758e-07
-1.26049e-13
-1.73625e-14
-2.48823e-09
3.78145e-14
-2.6173e-08
1.42006e-09
-2.37546e-09
-2.08151e-14
1.72528e-08
-3.80829e-11
-2.17437e-12
-2.88603e-13
9.21005e-11
1.20771e-14
1.01723e-10
0.00907697
-4.30729e-14
5.09471e-10
8.41825e-12
2.15249e-05
1.5154e-14
-2.83781e-15
2.33581e-14
-4.63271e-15
7.41861e-11
2.63518e-11
8.86555e-13
2.09322e-14
-2.82802e-14
-3.03942e-15
9.85939e-12
9.49675e-15
-7.47051e-08
-5.07039e-10
1.26361e-14
4.52247e-11
4.8308e-15
4.30887e-14
-0.00478775
-1.18802e-06
-5.06144e-10
0.000196093
3.18119e-15
-8.42207e-06
-2.90215e-14
9.03243e-13
-1.94716e-14
2.78939e-14
9.23784e-05
-5.29588e-14
7.51213e-15
-6.3506e-10
-1.44688e-14
-5.7113e-14
-3.24414e-06
-2.3359e-14
1.08365e-14
2.87838e-14
-2.77279e-06
1.70004e-05
-1.17137e-14
-6.56568e-07
-6.83779e-13
2.96288e-14
1.67056e-10
3.25479e-15
-1.77985e-15
-1.91385e-08
2.18838e-05
-6.43087e-15
-2.35546e-10
3.11592e-14
6.71705e-06
-1.12626e-14
-2.11162e-15
8.85553e-09
-1.25666e-05
-1.47871e-14
-5.50413e-07
-0.000569742
-2.73953e-10
-7.37556e-15
2.92795e-11
9.83901e-10
-5.38884e-10
-1.62955e-13
2.5998e-15
2.5224e-14
2.74464e-14
-6.27879e-15
-1.4876e-14
3.61795e-12
-7.39566e-05
-3.74138e-15
-1.43959e-06
-8.92296e-11
3.36882e-14
-2.62946e-14
-1.05572e-06
3.65592e-10
-1.37199e-15
0.00372195
-2.78906e-14
1.43272e-09
-1.20744e-14
-1.41123e-14
4.74948e-08
3.18797e-13
4.07294e-07
-1.27503e-14
2.18574e-10
2.51318e-14
8.71045e-09
-3.61471e-10
2.59163e-09
-6.68761e-15
-2.97715e-09
1.46712e-14
-2.98969e-14
-0.00172926
5.06534e-14
-9.1475e-15
4.46641e-13
1.32973e-05
7.9879e-15
-2.49318e-16
0.00358805
5.57274e-06
-1.06878e-14
-1.95437e-11
8.15913e-14
-2.97381e-13
2.17125e-10
-5.2608e-15
3.12638e-15
-1.29735e-14
-2.8739e-13
-1.81243e-08
-1.39398e-14
-5.13395e-13
7.11104e-15
4.46446e-14
-2.03897e-11
-9.75482e-09
1.27344e-14
3.57474e-06
-1.67281e-08
1.0977e-06
-3.43151e-14
-1.53689e-06
-3.8468e-11
1.11169e-14
-1.78648e-14
-0.00817031
-0.00790106
1.254e-14
-5.58251e-15
-4.45624e-05
2.94172e-14
3.56553e-15
1.09114e-06
-0.00678595
1.90487e-10
1.49162e-09
-7.75036e-13
4.4123e-05
-2.98343e-14
-3.38469e-14
4.92985e-13
1.2877e-15
-1.04443e-09
-1.05602e-14
9.66307e-08
-1.77765e-14
0.0110736
-5.07816e-15
-1.41254e-14
3.21988e-09
9.74632e-16
-6.91939e-09
7.04882e-14
-1.35525e-14
2.34555e-11
-0.00105933
-1.1621e-07
8.31485e-07
-1.67321e-14
-2.80085e-08
1.20129e-14
-2.57098e-14
3.98783e-15
9.16906e-15
2.11613e-14
6.59451e-10
-5.11798e-15
-1.54224e-14
6.22551e-15
-0.000629808
0.000545847
0.000330158
-6.15671e-15
9.8629e-14
-1.61996e-15
-7.19315e-16
4.08051e-14
2.16651e-14
-0.0350321
1.62523e-14
-3.8948e-11
-2.32812e-14
4.776e-10
1.43617e-14
1.73616e-15
-1.57336e-14
-1.40367e-08
-3.17094e-14
-8.86739e-10
5.65463e-15
1.16717e-14
5.93253e-13
1.64186e-14
1.25726e-13
6.65936e-14
-2.03038e-16
3.07102e-10
4.36535e-16
4.2622e-08
6.56398e-13
-3.80972e-12
2.20567e-10
-2.46937e-13
-1.69016e-10
5.94992e-07
-3.71796e-07
-5.08167e-07
3.25006e-09
-2.01109e-12
2.21833e-14
2.52239e-05
-1.07188e-12
3.09271e-12
-1.25419e-15
1.25849e-11
7.44863e-09
3.63048e-14
-9.62735e-15
-1.54136e-15
-2.55518e-12
3.52597e-15
1.07317e-14
2.02047e-14
-1.17093e-14
6.9944e-13
2.13306e-10
-7.15611e-14
-1.69908e-09
1.3154e-10
-1.43462e-14
6.73009e-13
7.5331e-15