/*--------------------------------*- C++ -*----------------------------------*\
| =========                 |                                                 |
| \\      /  F ield         | OpenFOAM: The Open Source CFD Toolbox           |
|  \\    /   O peration     | Version:  v2012                                 |
|   \\  /    A nd           | Website:  www.openfoam.com                      |
|    \\/     M anipulation  |                                                 |
\*---------------------------------------------------------------------------*/
FoamFile
{
    version     2.0;
    format      ascii;
    class       volScalarField;
    location    "350";
    object      ddt0(k);
}
// * * * * * * * * * * * * * * * * * * * * * * * * * * * * * * * * * * * * * //

dimensions      [0 2 -3 0 0 0 0];


internalField   nonuniform List<scalar> 
14479
(
0.010275
-0.00184836
2.4812e-05
-1.52645e-09
4.77308e-07
-3.75273e-09
-2.18329e-10
6.72454e-07
2.16797e-07
4.34838e-06
-9.82795e-11
-4.45316e-08
5.18358e-07
0.00117972
0.00535484
1.12693e-08
-3.00952e-09
0.00388693
7.05255e-08
5.86767e-08
-1.7188e-07
7.24369e-07
7.27002e-05
-0.000667476
3.19224e-09
-6.94505e-08
-7.54169e-06
2.25627e-07
5.52914e-08
-6.80853e-06
2.39386e-05
-0.000659596
-1.23968e-06
-1.85754e-06
3.53837e-05
-6.85745e-07
-1.38711e-08
2.08002e-09
7.23154e-05
-7.77207e-07
1.30191e-08
1.77371e-08
0.000228252
0.0001066
-3.39629e-09
-1.16643e-08
-2.50859e-08
-0.00219889
-2.46882e-06
1.21004e-08
5.82566e-07
2.20324e-07
-4.46317e-08
-1.3881e-06
5.47489e-05
-5.62229e-08
-8.34635e-07
1.10841e-08
-0.000205047
1.90172e-08
5.76172e-09
3.23312e-08
0.00184239
8.81952e-09
-7.11404e-09
-0.00101448
-0.000108104
-0.0334295
-3.30883e-08
1.65516e-08
0.0415096
-1.30417e-08
1.88854e-05
-8.70819e-07
2.72282e-09
-8.33884e-09
-2.30081e-07
0.0051952
-4.34388e-08
-0.00329701
5.90812e-08
-2.41576e-06
0.00155061
1.80422e-05
-3.90107e-05
-5.86813e-08
-7.32608e-08
-3.27158e-09
6.26241e-07
1.29651e-09
2.51838e-07
-0.00328201
-8.13355e-05
1.82197e-08
6.22569e-05
-8.11396e-09
-2.93575e-08
-5.66234e-09
-1.03968e-09
0.000616335
0.0128253
-7.50741e-09
-6.07647e-07
3.44484e-05
-0.000833565
-1.30045e-05
-6.5551e-05
-3.98162e-06
2.56515e-05
0.00112605
-6.56534e-05
0.00532242
2.57681e-05
-1.37579e-07
-6.59746e-07
5.45647e-08
-2.76491e-09
-0.000475189
-5.16094e-09
2.28048e-08
-4.03646e-09
-2.26989e-05
-1.67689e-06
-9.11002e-09
-2.3124e-06
3.24808e-05
2.27435e-08
0.0433909
-1.6444e-07
-1.26657e-07
-0.000561882
0.000303823
2.65433e-05
0.00104685
-0.00200246
-2.49469e-07
2.15312e-07
-2.14773e-06
0.00759074
2.02271e-05
-0.00105977
-0.000688073
1.45114e-08
-0.00097212
5.15291e-08
-0.0020507
-0.000578432
9.31779e-09
-0.00041997
-1.69867e-06
-0.00209134
-2.05327e-09
0.00341013
-1.5235e-09
-7.84453e-08
1.38598e-08
-0.00110289
0.000305861
0.000267192
-2.73949e-07
-9.82808e-07
-3.5062e-09
-1.91463e-08
7.32697e-08
0.00111007
2.1565e-10
6.32696e-09
-4.74427e-07
9.93173e-07
0.000399754
-0.000184159
-2.44955e-08
1.94968e-08
6.00684e-07
9.23008e-10
6.22166e-08
-2.66974e-07
1.48593e-08
7.76592e-05
0.0137099
3.99857e-08
1.51702e-08
0.00206282
7.63979e-06
0.00056821
-7.22782e-08
1.68083e-05
0.000729168
3.63378e-08
2.54889e-05
-0.000346561
5.47062e-07
-0.000510838
0.00252207
2.03349e-08
-3.235e-08
-1.05054e-08
6.64551e-05
-8.42459e-08
-3.04721e-10
-1.64881e-06
-1.04888e-07
-2.3134e-07
-5.96558e-09
-2.02716e-07
-3.90328e-08
0.00120057
-1.72144e-08
6.16683e-09
-2.20698e-07
-6.44738e-08
5.9486e-08
-1.85064e-07
-1.75941e-07
-2.58628e-05
-0.00649154
-0.0017418
6.54312e-07
-0.00318322
1.07295e-07
0.00155887
-2.323e-06
3.26369e-08
3.03065e-06
6.64257e-05
-2.33207e-09
-0.0305947
-3.28298e-09
1.14616e-07
2.25471e-07
1.33048e-08
3.03317e-07
-0.000323987
-8.0712e-09
-9.16521e-09
0.000344726
4.75395e-08
2.04484e-07
0.000702129
1.92411e-08
-3.75157e-08
-9.95706e-10
2.14774e-07
-1.10438e-07
-2.09183e-08
-2.58442e-06
0.00582858
0.00163444
2.5667e-08
-2.36594e-08
-0.000230264
3.47203e-06
1.19915e-05
3.40445e-06
-0.000650268
-2.62348e-09
-1.49403e-07
2.54596e-09
-2.28913e-07
-2.9911e-08
-1.2651e-09
-5.87772e-08
-3.2734e-08
-8.08017e-09
-2.39974e-09
-1.6127e-07
2.10278e-07
-6.3892e-08
0.0050643
-3.01097e-07
8.20091e-08
-4.32853e-08
-0.000145122
-3.28134e-08
-4.95209e-07
-0.000606689
2.27e-07
4.96809e-09
-1.05028e-07
5.60405e-08
-2.74663e-06
4.14744e-09
1.74717e-08
3.92545e-08
1.58412e-06
-1.91202e-05
7.87897e-08
1.84864e-05
-4.83752e-08
0.0109461
-6.00544e-06
8.00453e-10
-2.01282e-07
-1.82659e-05
-1.92472e-08
0.00981013
-0.000938211
1.51045e-08
-4.35978e-07
-0.000424497
-0.000319184
-0.00262974
-3.26998e-09
3.65491e-09
-8.9815e-08
0.0121469
-2.58574e-09
0.0397223
1.58582e-08
-7.25694e-08
2.78806e-09
0.0448792
-3.57502e-09
1.85904e-08
-8.02378e-08
-8.69484e-05
7.09667e-07
-4.92796e-09
-7.31893e-08
-5.05856e-10
0.000180527
3.05976e-07
-0.00129429
2.14549e-07
-2.89367e-08
0.000303265
0.000397955
-0.00184518
4.72932e-07
4.42286e-08
5.89115e-05
-4.86687e-09
-1.5779e-07
5.68897e-08
9.29282e-09
1.28338e-08
-0.03507
-1.33429e-07
2.7872e-09
2.2508e-08
6.05923e-09
2.52353e-07
1.28666e-08
1.56501e-08
-0.000656
-4.45559e-08
1.62312e-05
-7.30532e-08
1.54246e-07
5.22059e-07
-6.36481e-09
6.97731e-06
1.29667e-05
9.61187e-05
1.54083e-07
0.0107782
-3.81549e-05
0.000392315
-1.23277e-08
0.000200871
1.66009e-08
7.29833e-07
1.77612e-05
-0.00440604
-3.57628e-08
1.97769e-08
9.18229e-09
1.65297e-08
8.49344e-08
8.84264e-09
7.98437e-09
0.000109465
-5.66971e-09
-2.4136e-06
0.00509306
-2.03894e-05
2.40038e-08
7.48964e-07
-6.03732e-08
-1.97902e-08
-8.73769e-08
-4.73743e-07
-7.60427e-09
-1.35625e-07
-6.54548e-06
-8.29385e-06
7.26335e-05
6.89153e-08
-3.47886e-07
-4.85767e-08
6.19989e-07
1.47023e-06
7.99301e-09
0.00446178
-0.000649037
4.12057e-07
-1.42903e-07
-0.000272394
-1.71075e-06
3.87279e-07
-1.03837e-07
1.92424e-07
-4.49125e-07
-0.000296056
-9.7322e-07
4.01972e-08
5.99128e-07
-9.72912e-08
1.70045e-05
-4.82567e-08
-0.00164645
-0.000113923
-1.71191e-07
-1.57323e-06
-8.45177e-09
0.0199278
-1.85771e-08
2.34252e-08
0.000323067
-1.92746e-06
7.64147e-05
-0.000336312
8.6337e-05
0.0242008
-0.000222417
-2.00092e-08
3.5124e-09
-1.26402e-07
1.38138e-08
8.16242e-09
-3.7742e-08
-6.06417e-07
-0.00814328
-0.00219723
0.000290241
1.85697e-08
-0.00111661
-2.72891e-05
6.97776e-08
-1.69378e-08
0.00989795
1.48225e-09
-2.37327e-09
-8.53711e-05
-3.72914e-09
-6.31506e-10
5.07444e-09
-0.000702173
1.5804e-07
-6.10057e-08
1.53805e-08
2.79198e-08
-4.41661e-07
-4.37095e-08
-5.28368e-07
-8.06719e-08
-2.07106e-08
2.81367e-05
8.12888e-07
2.79531e-05
-6.24097e-06
-3.73767e-09
-1.2026e-07
-2.55772e-07
0.00267706
1.04534e-08
-5.85189e-07
3.84101e-05
0.0107449
-3.28031e-09
-9.81037e-10
1.07754e-06
-1.86524e-08
-1.4353e-08
-0.0328201
-0.00293724
-6.50992e-07
-0.00346855
-1.97317e-07
5.075e-09
-4.06386e-05
-5.26048e-07
1.58648e-06
0.00209422
-7.24641e-07
-4.66121e-08
1.03123e-08
-8.92471e-08
0.00166334
-0.000378795
1.26057e-08
-8.33833e-10
4.90857e-07
-2.67914e-08
-3.8271e-07
-5.98919e-08
-2.91639e-09
5.42094e-07
6.35383e-09
1.07525e-06
-3.2612e-07
-0.000606725
-0.0052684
-9.96887e-07
0.000217117
1.80239e-06
-7.10893e-05
0.00118048
1.09166e-06
-1.41578e-08
-4.70323e-08
9.90467e-08
5.22628e-08
9.54255e-08
2.25071e-08
-1.06756e-05
-7.97927e-06
2.03626e-08
-0.00373348
6.31464e-07
-0.0257235
-1.03734e-08
-1.1729e-08
-1.63654e-07
-6.03981e-08
1.80045e-07
-1.43644e-08
-8.93469e-08
-0.00426694
-4.59443e-07
-0.000412396
-8.57369e-05
-3.97161e-10
-3.5658e-11
-4.97141e-08
2.65925e-08
1.80281e-08
-9.20013e-08
-1.92653e-07
-2.48831e-07
-5.99437e-08
-4.62959e-05
-1.78885e-07
2.18325e-09
0.00508193
-8.08345e-08
-5.27819e-08
0.00836599
-0.00774821
9.3673e-08
1.32929e-07
-8.33992e-05
-0.00019921
-1.43907e-08
-1.819e-07
0.000358131
0.00659462
2.54685e-08
-3.63589e-09
-0.000924957
-2.213e-07
-3.84616e-08
-1.07858e-09
-0.00051252
3.50063e-07
-5.0163e-08
1.65845e-08
0.000850781
-2.78732e-07
4.92183e-09
0.000382562
1.66259e-08
1.04099e-07
3.41938e-08
-3.98086e-07
2.10196e-06
0.000342679
3.31193e-08
-0.000134871
0.0137734
-0.00764409
2.03255e-08
6.51696e-09
0.000515755
-6.71713e-08
9.24549e-05
-9.9496e-09
-5.14748e-08
1.58753e-07
2.3077e-09
-2.66881e-07
3.80976e-09
-0.000618042
1.40768e-05
6.66013e-08
0.000202424
4.46423e-05
-7.54388e-10
0.00953188
-2.51161e-08
-4.45078e-08
-2.79582e-07
2.82011e-08
7.79051e-08
-8.55921e-09
8.48747e-08
-0.00265719
-1.17324e-07
-1.99942e-06
2.91351e-07
-1.37124e-07
1.36952e-05
0.000268423
1.98985e-07
0.000359932
0.00865562
-6.42784e-08
1.48688e-05
5.54519e-09
0.00214947
-3.74619e-08
0.0113889
-3.8571e-07
8.42916e-07
6.21296e-08
6.76408e-08
3.44503e-07
-4.31435e-06
-4.60453e-09
-6.598e-08
-3.03865e-08
2.09553e-09
-5.05926e-05
2.0242e-08
1.70447e-08
-0.000887284
-7.43327e-08
1.84716e-07
0.00575356
1.68401e-08
-6.16635e-08
3.33375e-08
0.000604087
0.000842311
-8.08994e-07
0.00934315
-3.47722e-06
3.85079e-08
4.60392e-07
-2.2775e-07
-5.84769e-08
1.37904e-08
2.98669e-08
-0.000637081
-3.48805e-06
9.01363e-09
-3.4335e-06
-4.69448e-08
-0.00115672
2.6247e-08
-7.61206e-05
0.00457643
-0.00806747
8.82431e-09
-9.42632e-10
0.000441476
2.65444e-07
1.33174e-08
-4.3945e-08
1.65237e-08
2.5985e-08
2.31519e-08
-8.81549e-09
-1.08264e-08
7.8425e-09
4.97748e-09
4.51887e-08
-4.82816e-08
1.24041e-08
0.010204
1.98165e-08
8.24047e-08
-2.91344e-07
-5.74959e-05
0.000904022
-6.55445e-09
-0.0161559
8.23778e-09
-0.00224605
1.84238e-05
2.59474e-06
4.04855e-07
1.20878e-08
1.20301e-07
-6.3212e-08
-0.0014955
2.40182e-08
-5.39296e-08
5.45142e-08
9.49058e-09
3.48434e-08
1.82101e-08
-4.89819e-07
-4.26351e-08
1.80228e-09
3.02436e-08
6.33409e-08
-0.00489519
-0.00725222
0.00128972
0.01043
-2.51541e-07
-0.000421875
1.76369e-05
4.01344e-08
2.35224e-05
-6.32525e-09
-1.3557e-05
1.98022e-07
1.10235e-08
3.82475e-06
-8.20534e-05
7.53489e-09
-6.9297e-08
0.000934249
0.0134442
7.86738e-08
0.0407959
2.05821e-05
2.40503e-08
-4.33207e-09
-1.19192e-08
-9.60415e-07
-6.4417e-05
0.000640985
1.59137e-09
-8.90539e-07
-6.56998e-08
-2.84961e-07
7.52774e-07
-3.07903e-08
-1.0417e-08
2.90358e-08
8.55108e-08
-1.72454e-08
-4.46614e-08
-0.0107087
-3.92176e-08
1.65379e-08
-0.00485451
0.000461107
8.11308e-09
3.77221e-07
-0.000332544
0.000625075
-1.13413e-06
1.32804e-05
-0.0018128
1.41255e-07
-5.05997e-07
-0.00218585
-2.76643e-06
-0.00021646
-0.000585945
1.06436e-08
-0.000113589
-0.000294352
-1.12688e-07
2.31927e-05
2.82389e-08
-5.6975e-07
9.36053e-08
3.8277e-09
4.33183e-08
-5.51026e-08
0.0412195
0.00299947
0.00244932
1.51443e-08
-0.0106841
1.74269e-07
4.11497e-08
-7.58575e-07
1.19766e-08
-0.00194244
-4.57017e-08
-4.39639e-07
0.000254825
-1.41583e-08
-0.000636574
-5.30508e-05
-3.93663e-07
9.66037e-08
-6.70301e-06
-0.00222519
-0.00217922
-3.72283e-05
1.98198e-07
-3.98608e-10
-0.000415759
-1.61277e-08
-7.13032e-08
-1.37624e-08
2.95667e-08
0.00307777
8.58019e-08
-2.64979e-07
5.54054e-08
0.000105677
8.79482e-09
7.4922e-07
0.0051606
2.70961e-08
5.08661e-08
2.14338e-08
-7.07465e-07
-2.1683e-06
0.000102058
6.1582e-09
8.4157e-08
0.000317731
-1.59669e-08
0.000341193
0.000233664
5.77043e-08
0.000357247
-1.71078e-07
-6.77906e-09
0.00104355
1.66205e-07
-1.2815e-08
-7.60007e-09
4.76225e-08
-0.000418951
-0.000234167
-9.40843e-06
0.00680112
1.06868e-08
0.000281381
-4.23226e-08
7.47095e-08
-3.46766e-07
-4.15398e-08
-4.00991e-08
-0.000441692
2.54079e-08
1.14126e-08
-6.32873e-06
1.50192e-08
2.26084e-08
1.7495e-07
0.000967516
9.91882e-07
-1.5526e-05
2.99681e-05
0.000705755
-0.00426039
5.96296e-09
-7.47884e-06
3.60515e-09
-0.00255879
-4.05556e-07
0.000839239
-4.54772e-08
1.26827e-06
2.01544e-08
-3.50722e-08
1.85861e-05
-3.07251e-06
0.00269194
-5.06043e-08
-1.6202e-08
-3.22575e-08
9.13201e-09
6.61705e-07
3.28761e-09
3.10809e-08
-2.34724e-07
-5.6098e-07
-1.0102e-08
-2.08752e-08
-3.20775e-08
-0.00326933
0.000266207
0.000840256
-3.32069e-07
-0.0282183
-4.95252e-09
-9.02191e-09
2.51151e-07
1.46619e-06
0.00329478
5.49903e-08
2.31524e-06
5.20712e-09
-1.92852e-07
6.74064e-08
1.05598e-05
-2.19993e-08
-1.67272e-09
-1.2179e-07
2.91003e-08
7.0974e-08
-1.97854e-06
-0.0022885
0.00404271
-0.0041197
3.64065e-08
-2.87753e-07
1.6444e-08
-3.99253e-09
3.19105e-08
4.57111e-08
0.00324572
-8.70717e-06
-3.02588e-08
-3.43469e-07
-1.53615e-06
3.38187e-08
1.04501e-07
-0.0198438
4.19229e-08
1.12263e-07
-0.000540406
-2.04162e-07
0.0376695
-1.13029e-05
-1.00397e-08
9.37586e-09
-4.04838e-06
-2.36368e-08
1.2366e-07
-0.000180687
9.71628e-09
5.05988e-08
-7.95942e-06
-0.00359962
-1.95091e-07
-0.0214624
-3.58747e-08
-1.07255e-06
-0.0110751
-0.0365675
-7.9627e-06
-4.69403e-06
-0.00141347
-0.00148558
7.73932e-05
-0.000828523
-3.09742e-08
6.30247e-06
-7.30588e-07
-6.62491e-08
-6.78398e-08
5.29128e-09
1.11978e-06
0.00333182
-4.55227e-06
0.0109261
6.22193e-09
-3.56885e-08
4.92361e-07
3.99817e-08
-8.87022e-09
1.71446e-08
5.12653e-08
-2.29316e-08
1.83508e-09
-1.18793e-07
-1.07693e-08
-1.27321e-08
1.87682e-08
-0.0323901
1.34762e-08
-8.63495e-08
-0.00137796
-1.47778e-08
-7.99738e-08
-0.00129498
0.000371918
-6.24267e-08
2.65782e-08
-1.00342e-06
-4.26617e-08
1.07183e-05
-0.00109954
-0.00011489
-1.11936e-08
-1.80082e-05
-6.80138e-08
-1.26344e-06
1.68097e-05
-9.45499e-05
-4.04664e-08
1.21642e-07
9.57467e-09
-6.08244e-08
1.11226e-10
-2.86185e-06
5.8202e-05
4.44249e-08
-0.00489719
-9.51892e-08
0.000157713
8.50855e-05
-9.54262e-05
2.82803e-07
2.54588e-08
3.94751e-05
4.1908e-08
-0.014056
2.06336e-05
1.31913e-08
1.55507e-05
-1.08079e-08
-6.80369e-08
-4.20805e-05
1.51633e-08
4.37457e-05
-7.19562e-08
-3.78764e-08
0.00379223
0.0139631
2.56037e-08
-2.57688e-07
-0.00222731
-6.91926e-08
-6.58229e-08
2.1529e-08
-0.000260247
3.18012e-08
1.53208e-08
-7.40488e-05
-0.000267765
2.88347e-07
-0.0012794
-9.5264e-07
8.9235e-06
-2.31369e-09
0.000221638
4.78618e-09
-9.8534e-07
-2.30601e-07
-5.41005e-08
7.84671e-07
-5.11663e-08
4.83864e-07
-1.46758e-07
7.67057e-07
-3.00813e-07
3.59928e-09
1.28013e-07
-0.000798579
4.16398e-08
-1.34921e-07
-4.26438e-09
-5.7167e-05
-9.46846e-08
-4.92535e-08
1.78483e-07
6.37823e-09
-3.85344e-09
0.00108153
3.9972e-08
-0.000134458
-2.03269e-07
4.18313e-08
3.62786e-08
7.80473e-05
-0.000259931
0.00426684
9.61978e-05
-2.0607e-07
-0.00174356
0.00572105
-2.25381e-08
-4.46979e-09
-1.32391e-08
0.00155778
-3.27375e-05
-0.0017496
-0.034996
-7.7501e-08
0.000644343
5.10687e-09
2.23733e-08
0.000274117
2.21669e-07
0.000678985
-3.4477e-05
1.21605e-06
0.000533596
4.54836e-09
-1.24822e-08
-2.77482e-06
0.00109254
3.36895e-05
0.0027695
3.93328e-06
-0.00316201
-9.12072e-08
4.95673e-08
-9.30832e-08
3.17306e-08
-6.37805e-08
-1.17115e-07
-1.15812e-08
1.13771e-07
3.45238e-08
4.85907e-08
-0.00116323
4.40103e-08
1.07572e-07
-8.60873e-06
-1.89815e-08
-5.30557e-07
2.72112e-07
-0.00560222
0.00991623
-2.95709e-06
3.53208e-08
-0.000156242
-0.00019713
-6.92227e-08
-1.83128e-05
-1.23559e-08
0.00805376
-0.000645703
8.5146e-08
-5.31634e-09
0.000603287
0.00608614
0.000411212
0.000173281
-1.20721e-06
-1.37803e-07
-3.68553e-06
-1.0711e-06
2.35752e-07
1.13806e-07
8.07652e-07
8.37754e-07
-0.000183535
-2.09354e-08
-0.000194868
1.20584e-06
-6.82235e-08
1.73687e-07
-5.12922e-10
-2.19716e-07
-6.26366e-09
-2.23477e-08
-8.34168e-08
-0.00375494
5.10098e-06
5.38689e-07
0.000723464
-4.479e-06
-8.24624e-08
-4.88273e-06
-6.11371e-07
1.41823e-08
-2.56648e-07
9.33037e-09
-8.60809e-07
-6.86448e-08
9.9437e-07
-1.13534e-07
3.45961e-05
-8.98116e-08
-7.70536e-08
8.75747e-06
8.60275e-07
3.31424e-08
-0.0201813
-1.34929e-08
-5.19035e-05
-2.17056e-05
5.27269e-09
-0.000484135
0.000200745
8.70629e-08
-5.3995e-06
-7.42744e-09
4.41607e-08
1.54371e-07
-4.1013e-07
0.000756881
-1.14066e-07
-1.04973e-08
3.26255e-07
5.18542e-07
0.00120046
7.08242e-07
8.9935e-08
5.34609e-07
2.36939e-08
0.0414648
-0.000203987
-1.75826e-06
2.51658e-05
2.99794e-05
5.43455e-07
-6.13303e-07
-6.22289e-05
-4.78388e-08
1.26855e-08
6.78767e-08
2.17622e-08
2.25297e-05
-7.49517e-08
0.00449138
-1.99451e-07
3.34096e-05
-4.88897e-08
-0.00528614
-8.00106e-08
3.83864e-07
8.74013e-09
7.46396e-08
1.02815e-08
-4.74702e-08
-1.29735e-07
4.33157e-07
-2.2319e-08
-3.8901e-07
-2.28203e-08
-4.34742e-05
8.74065e-07
-0.0215617
0.00723743
2.14899e-05
0.000285542
-1.26379e-06
-0.00162117
-6.96633e-08
-1.60553e-08
-2.01737e-08
1.40604e-08
4.21543e-08
-7.0492e-07
0.0120019
-1.52394e-06
1.14121e-08
0.000394914
-0.00439354
-7.51276e-07
-6.01398e-08
-1.8724e-05
0.00096489
-0.0129705
-1.63615e-05
-7.18305e-07
-0.00217244
4.5613e-07
4.97766e-08
-9.29069e-08
3.56227e-05
-9.15335e-08
-2.56634e-10
-6.70961e-06
-3.78922e-08
-4.0251e-07
3.15712e-08
-0.000795559
0.0116013
1.31471e-06
-1.90634e-07
0.00606795
-0.00195377
-4.92641e-08
-5.59079e-07
0.00094263
0.00012401
-2.12449e-08
-0.00137641
8.3737e-05
2.7442e-07
-0.000570371
0.00763029
-4.11079e-08
3.24739e-08
7.08943e-08
0.000168932
4.02586e-08
-0.00136972
-3.25439e-06
-4.9583e-05
-1.49738e-07
-3.20336e-07
-3.63554e-08
2.23642e-08
0.000487621
-0.000857148
-2.27303e-06
1.73826e-08
-1.00911e-07
-1.86846e-08
-2.32046e-06
1.95628e-08
-1.77694e-06
-4.62128e-06
2.59892e-07
0.00603889
-1.97001e-06
0.000548972
-5.52471e-08
-3.40517e-08
1.1902e-07
-1.70027e-05
0.00631032
3.29681e-08
3.49788e-06
4.34251e-08
3.54668e-09
-1.387e-05
3.86078e-09
-3.44771e-05
-1.12666e-08
-5.90773e-10
-5.71517e-07
-1.07709e-08
5.60128e-06
-2.46268e-10
4.155e-08
-1.56177e-07
0.000352421
-2.97504e-08
-4.47573e-07
8.42175e-09
-1.47913e-07
-1.36759e-07
-8.47482e-09
5.80569e-09
0.00014856
0.00582418
7.32774e-09
-2.72172e-08
-2.33984e-08
6.00422e-05
-3.45181e-11
-0.00272181
0.000344861
-0.00227402
-8.21097e-08
-0.000184586
-3.3304e-08
6.64972e-07
-8.9373e-06
-0.000641836
-4.84551e-08
-6.66193e-08
7.12911e-05
-7.49595e-06
-0.000561841
-1.46828e-08
-1.79949e-08
-8.33491e-07
5.70423e-07
5.15418e-09
2.05109e-08
1.65876e-06
-0.00299449
-5.33442e-08
-1.35532e-06
-1.19492e-06
-0.000120406
5.10608e-08
-3.9296e-08
6.03356e-08
7.03876e-08
0.000376718
7.58662e-08
7.23555e-05
-5.13264e-09
1.06427e-06
1.85892e-08
-1.31533e-07
-4.12515e-08
1.43746e-06
-2.31859e-06
4.13957e-06
1.70159e-08
2.30074e-05
0.00118243
-4.18678e-08
1.13221e-05
2.33452e-08
-0.000445081
-0.00223981
-5.03441e-08
-0.00445019
0.000111098
-1.45839e-05
-0.00133589
8.83866e-09
1.86261e-08
6.12723e-08
0.000105664
7.55915e-05
5.676e-08
7.09506e-09
-0.0117098
-4.36832e-06
-6.34715e-09
1.14695e-07
0.000429538
-4.00898e-07
8.89026e-10
0.00569702
1.33436e-08
-1.00586e-08
1.85625e-08
-1.43927e-08
6.6512e-05
0.000799299
-8.77282e-06
0.00462491
2.2191e-07
-9.44366e-09
1.69111e-08
-1.24028e-08
-1.48552e-07
-8.84246e-07
-0.000149829
-1.69891e-06
2.7258e-09
5.43189e-07
0.000581317
-3.07036e-08
-2.66844e-08
-0.00282762
3.6644e-07
0.0128654
2.36603e-08
-0.0160513
-3.78487e-06
-0.000718618
-0.00335297
-3.82429e-08
-1.58316e-07
0.000638689
-4.98169e-09
-1.81832e-05
9.58086e-07
-2.33213e-07
-4.66918e-05
0.0263604
0.00124536
-1.08138e-07
-0.000243082
5.46469e-08
-0.000830203
0.0140998
-0.000282417
2.04349e-08
0.00427581
1.51876e-08
-1.56994e-07
7.58401e-10
-4.1298e-07
8.72833e-07
-5.97258e-10
-1.03486e-07
0.00136131
4.54839e-08
-2.02704e-08
-0.0249623
1.30028e-05
1.60132e-05
0.0115281
-0.002097
-2.6692e-09
4.50598e-09
0.00041773
-1.90283e-08
-1.72403e-09
8.32467e-08
-4.62434e-09
-8.14991e-06
8.97826e-08
3.90259e-08
-9.40539e-08
-9.03775e-08
0.00339103
0.000598304
-4.959e-06
4.92489e-07
-8.84406e-08
-1.6052e-06
3.02551e-07
-2.04264e-08
-0.000260598
-0.0013688
-1.23382e-07
-0.00749616
0.00336921
4.69231e-08
0.000849485
-1.67293e-06
5.1389e-07
5.24631e-08
-2.02161e-06
0.000448588
-1.13265e-07
-0.00201244
-7.44387e-07
-7.5878e-06
-0.000120797
5.79164e-08
2.73328e-08
-5.37799e-08
-0.00163383
-0.000151991
-9.31291e-08
-8.93501e-05
-1.71851e-05
0.00574137
-5.48322e-08
7.51927e-06
-4.32154e-08
-0.00408658
-0.000138485
2.99612e-08
-4.61613e-05
0.023276
1.00806e-05
0.00407461
-4.54328e-10
0.000121657
2.91836e-06
0.000708736
1.83474e-05
-1.26838e-06
4.37186e-09
3.22263e-08
-2.126e-06
-4.83956e-09
-2.23433e-08
-4.39241e-10
-3.91381e-09
1.34947e-05
-1.7712e-06
1.51319e-06
-0.00381104
0.000979173
-1.8129e-09
0.00109666
-0.00716248
-7.33453e-07
-5.33482e-06
-0.0124573
-4.45782e-05
-0.000124159
8.00942e-05
-1.49084e-07
4.05988e-05
-5.62183e-08
-0.000368096
2.75165e-07
0.000484359
-0.000261097
-0.00434912
3.38208e-09
-4.24455e-06
8.65546e-07
0.0250667
9.02395e-08
-0.004931
0.000812831
-3.41406e-09
-1.25289e-07
-2.19026e-08
-6.18982e-08
-1.58969e-06
3.61829e-07
-2.90836e-05
0.0137552
4.20424e-06
2.10039e-08
1.43703e-05
-2.35016e-08
0.0278321
-0.00555178
8.94246e-07
-0.000384372
9.37765e-07
-1.21141e-07
-1.6651e-07
-5.18059e-08
-1.36027e-08
2.52228e-08
0.000719694
-6.36868e-08
-2.83623e-08
-1.57488e-07
-1.32079e-09
-3.92209e-09
2.44901e-06
-4.63906e-09
3.48578e-07
2.58953e-07
-0.000876395
0.00288844
-3.99734e-07
3.42076e-05
0.0191941
-2.57747e-07
0.000406302
-6.31869e-08
-2.39256e-10
1.46686e-08
-7.44646e-07
-0.00331202
5.06323e-07
-5.56542e-07
2.52553e-07
8.96669e-07
-1.41961e-05
0.000110029
1.09754e-05
7.09025e-09
-8.55715e-06
1.13303e-07
-1.10222e-07
0.000212238
-0.000124168
3.73761e-08
4.5073e-06
1.12026e-09
-1.27045e-08
-0.000703261
-1.31944e-09
-2.19358e-05
0.000472819
4.19186e-06
-1.7286e-08
-0.0232408
-6.65255e-07
1.1276e-06
3.83484e-07
1.92694e-07
1.01333e-07
-0.00563378
3.59548e-08
-0.000105809
2.72743e-08
0.00126992
-0.00429798
0.00216292
2.64747e-07
2.55891e-05
1.5564e-07
-2.51624e-07
-5.96476e-09
7.53198e-07
0.00153963
3.95663e-08
-5.39761e-06
2.8919e-05
1.28301e-08
1.00895e-09
-0.000565159
0.00378995
-3.01693e-05
3.60225e-05
9.91565e-09
-2.73118e-07
-6.20049e-09
0.000113824
-0.000639094
-1.09029e-07
-1.88787e-07
0.000938722
-2.52603e-08
1.85383e-05
-2.2324e-08
-3.4688e-08
0.000372168
0.000677823
0.015654
2.10397e-08
-6.46303e-08
9.07636e-09
5.842e-08
-0.0332231
-0.0300854
5.1994e-11
-1.14118e-08
1.86528e-08
6.3463e-05
0.000130032
5.90964e-07
0.0190691
-3.84486e-06
1.31818e-07
1.92801e-05
-0.0191475
0.0100715
-3.99511e-08
9.26736e-05
0.00600307
3.54768e-05
0.0173099
-0.00309623
9.29689e-09
-2.1252e-08
-7.02666e-08
3.11928e-08
8.22684e-07
-9.24579e-09
2.48649e-06
1.46132e-08
1.32207e-06
-0.00262428
1.66597e-07
-2.72229e-07
0.0038385
1.95631e-10
-0.00155704
1.56675e-07
3.53396e-08
1.18955e-05
-8.58478e-07
-4.73115e-08
-2.20262e-07
3.95075e-07
-3.52809e-08
-1.2091e-06
-8.44308e-09
-8.01528e-06
-1.73034e-08
-5.35637e-09
-6.82353e-07
-4.21658e-08
-8.90652e-08
-9.24721e-08
-2.50825e-08
-0.0221483
-4.68348e-08
-4.53371e-08
0.00121727
5.86613e-05
-5.13142e-08
-1.25507e-07
1.86334e-05
5.39024e-07
-4.35729e-08
-1.69034e-08
0.00911983
4.31671e-09
-0.000117635
1.00362e-05
2.23778e-08
3.55867e-05
-0.000294789
-1.96201e-08
-5.63059e-08
0.0203646
-1.44744e-05
-0.00791053
-8.12507e-08
1.68328e-07
-1.64156e-09
-2.65671e-08
-1.45086e-09
1.83419e-07
-3.29405e-08
2.26974e-08
-8.96276e-07
-0.00010422
9.15582e-09
3.73349e-07
-1.51961e-09
0.000411599
-5.47512e-05
1.04757e-08
5.61073e-07
-0.00220742
4.48817e-07
4.56309e-08
0.00742144
-0.00376743
6.66322e-09
-1.02415e-06
6.58979e-08
1.66363e-07
-1.6646e-06
6.68608e-08
-9.2968e-06
-1.02789e-09
-1.67907e-07
1.09999e-08
0.000506086
0.000925924
-0.00060604
-8.36758e-07
-4.92931e-08
1.39622e-07
-0.00074756
4.49324e-08
-3.55395e-08
8.69105e-09
2.64279e-06
-4.41175e-06
4.54133e-07
2.2871e-08
8.13032e-09
6.48463e-06
2.31312e-08
0.0012155
-5.1606e-07
0.000508361
-9.48307e-08
5.88448e-09
-5.23521e-09
-4.62818e-07
0.00017988
-1.70226e-08
7.09696e-08
0.000134555
-3.21797e-09
1.8401e-08
-5.82259e-07
-0.00014835
3.54254e-05
4.55989e-07
3.83304e-07
-0.0100837
2.62264e-05
2.04937e-07
-1.40769e-07
-8.03064e-08
-0.000348495
-6.37234e-07
7.24568e-10
5.5457e-09
7.04706e-07
-6.52801e-08
0.000329914
-1.01624e-07
-8.33694e-08
-9.42094e-08
5.95494e-08
-0.000761287
9.46198e-09
2.49108e-07
5.63342e-07
-0.000458115
-0.000804401
0.00994791
-0.00310457
-5.13688e-08
-9.44751e-08
0.00114252
-8.7288e-08
0.00256565
0.000347421
-0.000673005
0.0286908
-8.49068e-09
-4.9902e-08
7.08365e-10
-4.03731e-08
-4.23715e-07
1.41474e-05
-2.62285e-06
1.36378e-07
4.87663e-09
-5.44145e-07
-1.27659e-07
2.00008e-05
5.63498e-08
-7.22079e-08
1.30035e-05
-0.0136452
1.44055e-05
0.00040947
8.50007e-07
-3.85978e-05
2.60064e-08
-2.49784e-07
-0.000195484
1.56613e-07
-7.89555e-05
2.98649e-08
-4.34025e-06
2.25494e-07
-2.56698e-08
-2.72724e-07
-4.26543e-08
-5.41838e-09
0.00479722
-2.83196e-07
0.000847815
-3.93578e-08
9.46514e-09
7.06009e-08
2.35052e-08
0.000194876
-2.44691e-09
-6.03621e-09
-8.15636e-10
0.00161299
1.78539e-05
-1.22661e-07
0.00241155
0.00034375
0.000415379
-6.97105e-08
-2.57421e-08
6.27065e-06
0.000569052
9.66462e-09
-1.73166e-07
-2.89167e-08
-5.18695e-09
-9.93661e-08
3.82738e-08
-9.85785e-08
0.000894882
2.73564e-08
4.65562e-08
6.93672e-09
-0.000131358
7.98916e-07
-0.000913539
-7.10883e-08
-7.12402e-09
1.70949e-08
-4.1295e-08
-5.76758e-09
4.47355e-05
1.19215e-07
-4.66697e-09
-4.6207e-08
2.09731e-09
1.365e-08
-0.00128321
0.0071336
0.000883727
-0.00208425
-2.99563e-06
-6.60732e-09
9.06371e-06
-6.10905e-08
-1.64077e-06
-4.01459e-08
1.93718e-08
2.55837e-08
-6.67374e-07
-4.43135e-07
3.186e-05
2.37116e-05
0.000437303
-3.50347e-09
-1.63292e-07
-2.14585e-08
-7.21969e-08
9.40796e-07
-0.000227042
-3.47842e-09
0.00070415
4.6554e-07
0.0114474
-0.00350645
-1.03902e-07
0.000764194
2.03733e-08
1.44219e-07
-7.21322e-08
8.09731e-08
-4.698e-07
0.0112683
4.15623e-07
1.45798e-07
-6.2743e-10
-3.15256e-08
-0.0104032
0.000189677
-9.21884e-07
3.06706e-07
-6.74871e-07
-7.08402e-06
1.44351e-07
-3.48206e-08
1.05802e-07
0.000206379
2.78789e-07
1.65043e-06
-9.02095e-07
-1.01231e-06
-0.00222052
1.06026e-05
4.69795e-07
-1.02432e-07
-0.00030196
1.79588e-05
1.47522e-08
-0.00754239
-1.03179e-08
0.000959699
2.39636e-08
4.16585e-08
2.59351e-05
1.66347e-05
-1.44054e-09
-6.61576e-08
6.82625e-07
-1.48284e-06
-0.000285032
1.35396e-07
0.000193245
3.97369e-08
-5.22885e-08
-1.78052e-05
-4.04215e-08
8.80596e-08
-1.27269e-09
-0.00441444
-0.00186232
-1.01798e-08
-1.39407e-07
4.53752e-08
0.000242543
4.26701e-08
-6.48893e-07
-1.06344e-06
-8.87758e-06
0.000881803
1.39543e-08
-2.47554e-07
1.01207e-07
-3.65927e-08
-3.44893e-09
-1.0356e-08
-0.0031949
-0.000530315
-9.66074e-08
-1.10599e-07
0.000235519
-0.0370454
-3.30338e-08
-9.52135e-08
-0.000407894
-4.3482e-09
-0.0259525
-1.2242e-07
1.75544e-07
-8.27682e-09
0.000377876
0.000296355
-2.84043e-08
0.000298892
-0.000597179
-7.75879e-08
-7.36882e-08
-0.00904903
-1.14816e-08
-1.67158e-05
-0.00169568
8.44798e-09
-1.05201e-07
0.000359728
2.34339e-08
2.03108e-08
-9.01898e-06
-2.98619e-07
1.81539e-08
-0.00454325
0.000200673
1.25742e-07
0.000301232
0.000299508
1.72603e-07
-4.16003e-08
0.000319391
2.92016e-10
-1.36796e-08
-2.99893e-08
3.52292e-08
0.00930661
0.000916236
0.0188431
-1.73456e-06
0.000312575
1.90115e-08
0.000239461
1.73238e-05
1.04045e-08
5.49073e-09
1.78011e-07
-4.8585e-08
-9.17523e-09
2.09493e-06
0.00640299
3.32227e-07
2.23206e-09
0.000458411
-1.08646e-06
-4.90072e-08
2.08276e-05
1.15541e-08
-5.59671e-09
-4.86044e-07
-6.82371e-06
-0.000459119
-0.000779491
8.59417e-07
-3.45314e-08
2.45554e-05
1.29061e-06
1.40251e-08
2.17244e-05
-4.96429e-07
-4.71862e-09
4.27947e-08
-0.00499963
2.31951e-07
-4.71374e-07
-0.00107174
3.79704e-07
-5.00165e-09
3.37587e-08
0.000697309
0.000416068
-0.00887584
1.91707e-07
-9.19363e-05
-1.62555e-05
-8.88797e-05
-1.91971e-09
0.0131664
6.77561e-08
-3.9625e-09
7.1083e-06
0.0116698
1.1339e-05
-0.00477504
4.10103e-08
-5.70979e-06
-8.41734e-08
4.06419e-08
-2.79282e-08
1.74564e-05
-7.10073e-09
-1.13431e-05
-1.56663e-05
1.49989e-08
0.0119215
7.46681e-07
0.000316205
6.81004e-08
1.48745e-08
-4.84755e-05
2.54566e-05
6.98809e-08
0.0136067
4.25404e-06
-3.92623e-06
-4.80504e-05
-7.75759e-08
-3.14215e-08
7.67383e-08
8.73743e-08
3.98835e-07
-3.26459e-07
7.70785e-07
1.57303e-05
0.00255603
-0.00407135
-1.56932e-09
-5.49893e-09
4.31247e-08
0.000692435
1.26512e-07
-2.8268e-08
-0.00811475
-6.02552e-08
-1.13001e-08
1.02708e-08
-0.000403584
0.00808666
1.27111e-08
1.77043e-06
3.90541e-08
0.0211651
-1.28029e-05
0.000212654
7.59216e-05
-4.39837e-06
2.82286e-08
0.000395954
-0.0045045
-0.00419805
0.00135274
1.46895e-05
7.32391e-09
-1.38596e-08
-0.0230396
3.01379e-09
3.76606e-05
3.09205e-06
-1.85641e-08
-2.1123e-05
-7.23396e-08
2.60408e-08
-8.14829e-06
-4.23268e-08
5.69692e-08
2.64489e-08
0.000903194
-2.09641e-08
2.15267e-05
5.00779e-08
-4.39758e-06
5.84568e-08
0.000363189
1.87403e-07
8.29942e-06
-0.00159214
-1.13487e-07
1.94209e-09
-9.45106e-06
-0.000512081
-7.91641e-07
-2.20979e-09
-2.00368e-09
-1.01319e-05
6.11494e-08
4.00209e-07
-4.26076e-06
1.05583e-08
0.000650019
7.52488e-07
0.00854246
-1.45619e-06
-6.78431e-09
-1.30217e-07
4.42194e-10
-3.11143e-08
-1.9046e-07
-0.000173785
5.3832e-08
-0.00518481
0.0140957
-3.25135e-05
-2.52116e-07
4.90987e-10
1.82362e-09
0.00958798
0.00186557
1.22631e-06
2.05678e-09
1.86095e-07
1.82646e-07
-3.46725e-08
-0.000516733
3.01996e-08
-8.53289e-08
-1.66132e-07
-3.22983e-08
1.17055e-08
-2.89443e-06
1.93283e-07
-2.08185e-07
3.26664e-08
1.57297e-08
0.000790886
0.0019934
-1.79529e-07
-7.97532e-08
4.93689e-05
1.57888e-07
0.00213056
0.000230889
1.37135e-07
-1.47334e-05
1.49318e-05
9.44724e-06
0.000446605
-1.85555e-05
-1.33774e-05
-1.50081e-06
-1.58705e-08
-6.00614e-09
9.23156e-08
1.11805e-07
0.000450505
-3.50651e-06
2.31354e-07
6.31069e-08
-4.0766e-08
0.000863241
8.44184e-08
-8.07378e-06
-7.97232e-05
0.00164116
-1.43965e-06
9.18371e-06
6.88273e-07
0.0132338
0.00774506
-2.35292e-08
-4.28889e-07
2.58557e-09
-3.51158e-07
6.51915e-06
8.01429e-09
2.09523e-05
-1.72884e-08
-2.52276e-07
2.75841e-07
4.80874e-08
-7.71893e-09
-9.89271e-05
-4.84727e-07
-4.89164e-07
-1.41439e-05
8.41039e-07
4.11564e-07
2.1922e-06
0.00134795
-5.79454e-10
4.62489e-07
5.32548e-09
-6.87321e-07
1.49599e-06
-7.25768e-07
6.43878e-07
-0.00023822
-8.16435e-07
3.49712e-10
0.00643532
0.0079267
9.80609e-09
7.04275e-09
-5.22583e-08
1.89669e-08
5.11307e-07
-2.39374e-09
-0.00110374
2.4135e-09
0.000185962
0.000894383
1.02143e-07
0.0110672
4.87267e-08
4.28715e-08
-0.000102828
-2.04731e-05
-1.64194e-06
4.05452e-07
3.47689e-08
2.04815e-08
-1.24124e-06
6.24931e-08
-2.35129e-08
-6.08392e-05
3.95249e-07
0.00055772
-0.00161975
-2.32145e-07
3.53702e-08
-2.66707e-09
-5.04116e-05
2.67619e-08
-1.51259e-08
2.59138e-07
6.49859e-09
0.00302512
-1.01009e-07
2.78101e-06
-3.56805e-07
-1.3916e-07
7.66298e-07
-0.0158796
-1.19466e-07
1.1962e-07
2.7565e-06
-8.00819e-09