/*--------------------------------*- C++ -*----------------------------------*\
| =========                 |                                                 |
| \\      /  F ield         | OpenFOAM: The Open Source CFD Toolbox           |
|  \\    /   O peration     | Version:  v2012                                 |
|   \\  /    A nd           | Website:  www.openfoam.com                      |
|    \\/     M anipulation  |                                                 |
\*---------------------------------------------------------------------------*/
FoamFile
{
    version     2.0;
    format      ascii;
    class       volScalarField;
    location    "350";
    object      p;
}
// * * * * * * * * * * * * * * * * * * * * * * * * * * * * * * * * * * * * * //

dimensions      [0 2 -2 0 0 0 0];


internalField   nonuniform List<scalar> 
14479
(
-0.287248
-0.025179
-0.158486
0.00646411
0.0156893
0.00772959
0.00809453
-0.140803
-0.154893
-0.162422
0.00911977
-0.0499933
-0.00921407
-0.00794639
-0.00691823
0.00645701
0.0080544
-0.000621134
0.00138005
0.0112271
-0.102527
0.0161382
0.0152837
-0.247228
0.00908825
0.00310861
-0.206936
-0.148525
-0.00342367
-0.203776
-0.15958
-0.245009
0.00546722
0.00511279
-0.114638
-0.0516028
0.00924289
0.00729843
0.00639526
-0.0684608
0.00625598
0.00886276
0.00287077
0.00394506
0.00926302
0.00761114
0.00671191
-0.0419259
0.013405
0.00890273
-0.140281
-0.147313
0.00142457
-0.13534
0.014305
-0.059004
-0.0536572
-0.0149536
0.00217733
-0.0142833
-0.00315712
-0.00422607
-0.125513
0.00435756
0.00814862
0.0106164
-0.0497048
0.0227665
0.0011549
-0.00391193
-0.269334
0.00715829
-0.126285
-0.0706992
-0.00133414
0.00637707
0.00889865
-0.121206
0.00515505
0.0111967
0.000954834
-0.0892717
-0.0248848
-0.179069
-0.230359
0.00687826
0.00748425
0.0081297
-0.136954
-0.0180211
-0.15322
-0.0069128
-0.193296
0.00476
0.010168
0.00734776
0.00504336
0.00777282
0.00771943
-0.00406917
-0.149298
0.00748645
-0.141915
-0.115531
0.0269166
-0.172544
-0.0135553
0.00587897
-0.148984
-0.00257356
-0.0174204
-0.00543771
0.0045427
-0.0660298
-0.174342
-0.0960708
0.0128506
-0.109469
0.00546183
-0.00612847
0.0135173
0.0388652
-0.145475
0.00774169
0.00914711
0.00445808
-0.017085
-0.257211
-0.0515931
0.00717816
0.0128655
-0.26592
-0.146466
-0.128835
-0.0231364
-0.0679674
-0.115834
-0.0904571
-0.30666
-0.166073
-0.0275239
-0.189065
0.00760372
-0.0292253
0.00113845
-0.0324322
-0.192028
0.00983352
0.0117126
-0.0543871
-0.0612406
0.0026596
-0.000636361
-0.0320711
0.00348622
0.00756127
-0.0669355
-0.269426
0.000115853
-0.0693558
-0.0744521
0.00503913
0.00252405
0.0134311
0.00171784
0.000120648
0.00208277
-0.10787
-0.149456
0.00112733
0.0181603
-0.0684403
0.00692317
-0.00785359
0.00776542
0.0115007
-0.0677741
0.0055167
0.00313059
-0.142712
-0.0940522
0.000478562
-0.00765519
0.00408029
0.0032975
0.000274352
-0.166608
-0.259572
-0.0127158
-0.265101
-0.252831
-0.00403665
0.0160008
-0.00109159
0.00680002
-0.0685833
0.00902434
0.00304044
-0.0610699
0.00277423
-0.0516393
0.0088366
0.00872149
0.00180938
-0.0459425
0.00047493
0.000221478
0.00610141
0.00767891
-0.0474214
-0.0569499
-0.00530185
-0.0460879
-0.0446209
-0.222057
0.00586049
0.00646499
0.00748675
0.00712969
0.0137351
-0.00773835
-0.105018
-0.0244409
0.00428854
-0.247911
0.00606725
0.0209638
0.00489786
-0.12354
0.00521041
-0.00609766
0.00531522
0.00771002
0.00967157
0.0076885
-0.220567
0.00473711
-0.132466
-0.260962
0.00108865
0.00872425
0.00264396
-0.145371
0.00854114
0.000252972
-0.0938269
-0.148604
-0.00379528
-0.00493166
0.00225285
0.0107728
0.00623327
0.00390603
-0.162612
0.00779867
0.00746219
-0.0432322
0.00769565
0.00868582
0.00461464
0.00495001
0.00871904
0.00424466
0.00589022
0.00616162
-0.0516006
0.0142085
0.00243284
-0.1513
-0.0882357
-0.123181
0.000568617
0.0407563
-0.0654809
-0.103995
0.00473103
-0.133267
0.00766536
-0.063916
-0.0208018
-0.0888258
0.00600743
-0.0170848
-0.0266852
-0.167966
-0.22637
-0.122627
-0.175048
-0.0678639
-0.32817
-0.1748
-0.000680899
0.00887677
0.00967844
0.00437815
-0.0255178
-0.211289
-0.0144431
-0.0736997
0.00482303
-0.250963
0.000725512
0.00626333
0.000318953
-0.0814768
-0.18485
0.00490328
-0.284651
0.00773341
-0.169362
0.0021538
-0.265317
-0.0253194
0.00992178
-0.082097
-0.240098
-0.000636551
-0.0360712
-0.0819008
0.0078201
-0.238043
-0.148667
-0.088715
0.0135595
-0.00424966
-0.221394
-0.264486
-0.0314194
-0.0114277
-0.0201466
0.0147213
0.00896147
0.00884568
-0.0896136
0.00697332
-0.0161565
0.0250791
-0.0498372
0.00413745
-0.00672376
-0.00468191
0.0152267
0.00771116
-0.0820304
0.00308209
-0.059334
-0.111648
-0.0796966
-0.132529
0.00709666
0.00624056
0.00896737
-0.121887
-0.191367
-0.0251928
-0.185654
-0.21802
-0.255698
-0.00399469
-0.276946
0.00788292
-0.000260015
-0.242335
-0.0147254
-0.0248319
0.00783659
0.00517832
0.00780054
-0.100291
0.0052536
0.00601813
0.00592815
0.00747844
-0.0900765
-0.0245497
-0.177111
-0.00394951
-0.136738
-0.0582273
-0.0121443
-0.084495
-0.106597
0.0066642
0.0090288
-0.180587
0.0058945
-0.265526
-0.00542347
0.00654406
0.0120472
-0.133099
0.00936118
-0.0277181
-0.132096
0.000806746
0.00745293
0.0088166
-0.0646204
-0.0530102
-0.169245
-0.110232
-0.141038
-0.0748839
0.0103466
-0.0642749
-0.0187765
-0.00551178
-0.0839705
-0.128065
-0.101764
-0.0267876
-0.189842
-0.0525537
-0.0550252
-0.0025499
-0.0558581
-0.00561979
-0.0185475
-0.265682
-0.0941444
0.0042625
-0.00620167
-0.265626
-0.0623765
-0.19046
-0.0138984
-0.0291479
-0.0496338
0.00509532
0.00935068
0.0060004
-0.0816211
0.0226553
-0.0631741
-0.267836
-0.0843986
-0.00521593
0.0144531
-0.0978954
-0.0041219
-0.268909
0.00764613
0.00962187
0.0377225
-0.000130124
0.00578745
-0.0299189
-0.0688401
-0.0237537
0.00651045
0.0097922
-0.00329257
0.0106482
-0.0525676
0.0103984
-0.109596
-0.00373423
-0.140923
0.00886134
-0.143587
-0.15074
-0.00512602
0.00829559
-0.0625829
0.00339837
0.00555237
-0.0789156
-0.169104
-0.278311
-0.0027062
0.00502284
-0.130549
0.00590675
0.00564064
0.0424246
0.0146263
-0.106521
-0.0508709
-0.099345
0.00536971
-0.210506
-0.0477247
0.00589294
0.00323072
-0.0817384
0.00341942
0.000410881
0.00778968
-0.0397572
0.0101294
0.00776373
0.00777802
-0.147202
-0.00357355
0.00341799
0.00685126
0.00749767
-0.116562
2.08317e-05
-0.161187
-0.0487065
0.0121469
0.0238792
-0.0663879
-0.228493
-0.158395
-0.17756
-0.141085
0.016139
0.00558157
0.0061262
-0.015174
-0.0276395
-0.16698
-0.0117944
-0.108195
-0.206704
-0.0267238
-0.0959561
-0.150139
0.0448448
0.0130059
0.00507554
-0.0447256
0.00681316
-0.13947
0.0065319
-0.0631511
0.000453039
0.00343923
-0.214333
-0.167335
-0.0413532
0.0077441
0.00767966
0.00754632
-0.0317235
0.0090168
-0.104467
-0.0646932
-0.0695552
0.0259062
-0.0515245
0.00173307
-0.0468992
-0.0599686
0.00713549
-0.00833166
-0.032525
0.0105307
-0.00952356
-0.182966
-0.0923736
0.00481289
-0.0521522
0.00288939
-0.134958
-0.0910756
0.00525264
-0.204647
0.00155298
-0.0127298
0.00635789
-0.250163
-0.15646
0.0065654
0.00707806
-6.98196e-05
-0.0866987
0.000209025
0.00402187
-0.0296325
0.0031657
0.00503134
-0.0713026
-0.153577
-0.261965
-0.0197962
-0.184298
-0.259277
-0.189398
-0.0302266
-0.0412948
-0.26564
0.00722722
0.00688054
-0.0363958
-0.035644
0.0134163
-0.0247213
-0.0827273
0.00659469
-0.246943
-0.0394938
0.0117753
-0.0615711
-0.106552
0.00779023
-0.000772695
0.00951876
0.00112999
-0.0689163
0.00768306
0.00447905
-0.030405
-0.125864
0.00669784
-0.109135
-0.0719493
0.0165648
-0.0423566
-0.215266
-0.266812
-0.00860191
-0.271011
-0.293034
0.00711247
-0.185614
0.00657928
0.00126724
0.00647011
-0.320274
-0.0671097
0.0053222
-0.0045366
-0.133084
0.000760283
-0.0368971
-0.0329778
-0.0469185
0.0106027
0.00782886
-0.183356
-0.0167029
0.00782857
-0.00932371
0.00714723
-0.10367
-0.0417532
0.00635142
-0.0455066
-0.00435838
-0.263665
-0.138822
-0.10166
-0.120266
-0.0764021
0.0120283
-0.128077
-0.059542
0.00108225
-0.00241287
-0.0173289
-0.214527
-0.0765793
0.0106148
-0.240056
-0.0511823
-0.00973242
-0.00654845
-0.122446
-0.0284014
-0.0128221
0.00739516
-0.090021
-0.269177
-0.103205
0.00516229
-0.0568357
0.00559408
0.011708
-0.0301258
0.00566337
0.0077916
0.00662123
0.00801355
-0.085204
-0.0740883
0.00752288
0.00266084
-0.016492
-0.0176234
-0.0656459
-0.204703
-0.240436
0.00568425
0.0273305
0.00788566
-0.0655536
0.00495174
0.00630318
-0.126236
-0.0260864
-0.0157379
-0.0594793
-0.124983
0.00507355
-0.00218592
0.0100239
-0.0309078
0.0108465
0.00700185
-0.0733511
-0.0234015
0.00799849
-0.089327
0.0113829
-0.201423
-0.0242998
0.00476072
-0.0400419
0.00763017
-0.232383
0.00555512
-0.023315
0.00398548
0.00777083
0.0076991
-0.00905651
0.00635155
-0.226029
-0.245174
0.0028899
-0.0427189
-0.24234
-0.150861
-0.125674
-0.281971
-0.231834
-0.0347068
0.00777381
0.000123639
-0.100428
-0.248453
-0.00493276
0.00673475
-0.072383
-0.0408019
-0.0435166
0.00793082
-0.0945318
0.00340873
-0.00699817
-0.122506
0.00321907
-0.00337956
0.0266017
-0.0713127
0.00739166
-0.150016
-0.116161
-0.0164278
-0.157368
0.00169721
-0.262084
-0.0748188
-0.211298
0.00398585
-0.132764
-0.0791533
0.00733927
0.00631819
-0.14897
-0.257136
0.000458347
-0.0702752
-0.0935485
-0.0416471
-0.161985
-0.00753594
-0.073841
0.00633773
0.00638884
0.0101383
0.00706193
-0.259064
0.000136161
-0.103718
-2.66711e-05
-0.136448
-0.00979505
-0.0154947
-0.103355
0.00284701
-0.0706223
-0.099868
-0.0465598
0.00409001
0.00738765
0.00988651
-0.198824
-0.0701096
-0.0211355
-0.0918015
-0.13673
-0.115127
-0.205782
-0.11324
0.00778766
-0.0415471
-0.0250161
-0.0561437
-0.0292364
-0.0848647
0.00777562
0.00235651
0.00542819
-0.133242
0.0067562
0.00944363
0.00345933
-0.00844481
0.00316752
0.0051642
0.00513604
-0.0682735
-0.0728868
0.00588243
-0.0190436
-0.00719976
0.00326948
0.00535417
-0.268235
-0.267204
0.0114167
-0.26431
-0.0828182
0.00691609
-0.000405089
-0.143843
-0.0922146
0.00467618
0.0117485
-0.252591
-0.193926
-0.178646
-0.328926
0.00950086
-0.238241
-0.113226
-0.0256492
-0.0664168
-0.0740619
-0.0966464
0.0404907
0.00788655
0.00788115
-0.107328
-0.024379
-0.0298041
0.0051572
-0.248886
0.0089337
-0.203821
-0.135504
0.0138631
0.00200423
0.00749019
-0.174832
-0.0307074
-0.00688127
-0.112478
-0.245084
0.00613989
0.00880159
-0.00532123
0.00295305
0.00727687
-0.101804
-0.0357549
0.00754435
-0.0351482
-0.0714291
0.0067933
-0.00357691
0.000241712
0.00503808
-0.0615878
0.00708477
-0.00664363
0.00601501
-0.00802397
-0.196409
0.00455227
0.0167967
-0.0495196
0.0230288
-0.0796139
0.00724096
-0.159273
-0.12999
-0.113765
-0.00483003
-0.252973
0.00292396
-0.097875
-0.0101018
0.0357564
0.00604385
0.00776961
0.00834847
0.00508515
0.0114983
-0.0738257
-0.102323
-0.0541601
0.00854562
0.00896189
0.00365062
0.00188599
0.00865172
0.00671
0.0111114
-0.0902335
-0.00356773
0.00828159
-0.0839302
-0.0709638
0.0075668
-0.135066
0.0305285
0.00446777
0.0025827
0.0418397
0.0107444
-0.228146
0.00923362
0.00855611
-0.00209126
-0.170361
0.00856597
-0.107458
-0.152202
0.00936659
0.00502324
-0.108101
-0.00999985
-0.0444317
0.0161423
-0.0281229
0.0131162
-0.130105
0.0266371
0.00191882
-0.104244
-0.0098087
0.00997819
0.00692832
-0.188295
0.00567694
0.00618316
0.0123479
-0.0457006
-0.0402834
0.00781686
0.00992623
-0.0649761
-0.0852046
-0.0440993
0.0078007
0.00184667
-0.00316442
-0.00107828
-0.00261714
0.000394271
-0.087705
-0.0375781
0.00802648
-0.0432122
0.00710174
0.00700812
0.0112576
0.0263017
0.000591962
-0.107199
0.00817362
-0.0250952
-0.102503
0.00859883
-0.265288
0.00859634
0.000416042
0.008883
0.00771711
-0.186686
-0.199094
0.0081068
0.0106081
-0.149181
-0.0589371
-0.10101
-0.171114
-0.194734
-0.0387849
-0.124735
0.00220923
-0.071812
0.0073075
-0.238696
0.00302135
-0.0285624
0.0231364
0.00933518
-0.251184
0.0370688
-0.196566
-0.154137
0.0038679
-0.269154
0.00980463
0.0246857
-0.161561
-0.00512105
-0.189433
0.00139633
-0.100912
-0.223739
-0.00962111
-0.252746
-0.0449715
0.00891873
-0.0246886
-0.165922
3.01181e-05
-0.0842267
-0.0226818
-0.0441272
0.00859423
-0.0307695
-0.26076
0.000294035
0.00115685
0.00857319
-0.129454
0.00528263
0.00322867
-0.0851268
0.00578024
0.00719646
-0.266648
0.00783358
-0.0870879
-0.0423966
-0.00305562
0.0140598
0.00938704
0.00734218
0.00885577
-0.156656
-0.0840063
0.0125636
-0.129133
-0.00853929
-0.000155337
0.00890046
0.00719216
-0.209778
-0.0031968
0.00279767
0.00525552
0.00846833
-0.00241642
-0.102828
0.0050663
-0.148905
0.00891801
-0.00510387
-0.0147305
-0.266218
-0.235034
-0.000934948
0.0418213
-0.0950201
-0.0333007
-0.306732
-0.0567728
-0.0319866
0.00567765
-0.0162577
-0.198068
0.00540182
0.0318523
0.00793337
-0.259489
0.00800829
-0.00120029
0.00611021
-0.161969
-0.260002
-0.215971
-0.164242
0.00253594
0.00797191
-0.0348604
0.00631497
0.00276113
-0.120148
-0.0564893
-0.161211
0.00697429
0.00888966
0.0109858
-0.107937
0.00625613
-0.0682151
0.00854837
-0.0289495
-0.106577
-0.0868533
-0.110494
-0.108938
0.00994147
-0.0220592
0.00658937
0.00852107
-0.072085
-0.00768877
-0.0954358
-0.0260957
-0.0449229
-0.0310559
-0.00869805
-0.123367
-0.1064
-0.199074
0.00917175
-0.0261847
-0.188006
-0.111274
0.00593266
-0.258961
-0.0195407
-0.178388
-0.189845
-0.102941
0.00902153
-0.0917785
0.00985242
-0.129859
0.00379467
-0.134274
0.0143017
-0.011659
0.00856403
-0.261083
0.0182673
-0.0548982
-0.0211453
0.00621236
-0.083861
0.00651344
0.00923598
-0.104452
0.0208547
-0.149566
0.00632373
-0.250984
-0.0474277
-0.0417813
-0.0511659
-0.0725098
0.00250338
-0.0696325
0.000597026
-0.0974033
0.00905469
-0.235694
-0.0856459
-0.12117
-0.070147
-0.0430584
-0.182801
-0.135798
0.00920638
0.0137485
0.00398194
-0.211165
0.00722743
0.00414635
-0.019426
-0.180581
-0.0158255
-0.0885309
-0.0295885
0.0063198
0.0150177
-0.0495829
-0.000418419
0.00874544
-0.00202146
-0.134837
-0.00321933
0.00146992
0.00378748
-0.0293747
-0.00455366
-0.00520067
-0.261136
0.0073252
-0.0553112
-0.185926
-0.138776
-0.154225
-0.0663446
-0.246875
-0.0765732
0.00195696
-0.100639
-0.085011
-0.152874
-0.0527976
-0.00603986
-0.0829793
0.00691854
0.00617114
-0.0959464
-0.0398756
-0.138469
0.00858056
0.00750623
0.00713871
-0.00896741
0.00889096
-0.164095
-0.0210233
-0.0940201
0.00652136
-0.207622
0.00786767
0.0486409
-0.150989
-0.150518
-0.267057
-0.052489
-0.0687767
-0.0394924
-0.0202825
0.00652915
-0.0256433
0.00658624
-0.101463
-0.170088
-0.0994815
0.00793005
-0.183444
-0.0105262
-0.0996796
-0.0544224
-0.192021
-0.244665
0.00621939
-0.193933
-0.102019
-0.060783
-0.128443
0.0114055
-0.0410423
0.00440109
-0.052935
0.00216482
0.00824631
0.00705334
-0.0753227
0.000526595
0.00643309
-0.0582903
0.017122
-0.110387
-0.146163
-0.0700126
0.0120832
-0.0505253
-0.251797
-0.0940054
0.00709446
0.00707697
0.00779809
-0.0178067
0.0067355
-0.0575704
-0.0372679
0.00543896
0.00354047
-0.00991189
-0.126949
-0.132982
0.00663512
-0.153222
-0.0563106
-0.0820924
-0.0373456
0.00697865
-0.231078
-0.0746728
-0.0924487
-0.029867
-0.0930478
0.00903867
-0.0473752
0.00598147
-0.0882963
-0.184202
-0.016125
-0.150782
-0.087002
-0.263842
-0.0441166
-0.00527604
-0.0290211
-0.196169
-0.0977933
-0.00563206
0.0383054
0.00536854
-0.000645872
-0.190021
0.00621268
0.00964963
0.00323032
0.00741795
0.00627645
0.00844167
-0.147325
0.0104061
-0.0147767
-0.0684905
-0.265678
0.00544819
-0.0693125
0.0086084
-0.0395501
-0.0869757
0.00527314
0.0108789
-0.198204
-0.143951
0.000449529
-0.0592158
-0.0252814
-0.0044033
0.00850531
0.00609865
-0.264811
0.00612589
0.00890025
-0.228102
0.00535973
0.00719518
-0.11169
0.00698821
-0.0548143
0.010556
0.0164854
0.00818078
-0.136322
-0.0306233
-0.0312337
-0.084863
-0.000923039
0.00405678
-0.0065761
-0.0504482
0.00737647
-0.037942
-0.17725
-0.0685562
-0.0101196
0.00889576
0.00846532
-0.00367175
0.01048
-0.266769
-0.0951028
0.00423049
0.00147428
0.016089
0.0053948
-0.0413646
0.00708436
0.0159828
-0.113347
-0.127684
0.00799493
0.00544651
-0.00158561
0.00354839
-0.110284
0.00763347
-0.0132462
-0.122539
-0.0403933
-0.0818952
0.00300422
-0.189589
-0.0183555
0.00775567
-0.00594141
-0.119439
0.00137592
-0.23818
0.00223296
0.00605225
0.0508868
0.00218212
0.00596008
-0.0124934
-0.00359123
-0.082835
0.00913678
-0.310762
0.00578666
0.0078459
0.00528719
0.004815
0.00955564
-0.00222436
-0.179017
-0.00436648
-0.126178
0.00527675
-0.00300072
0.00481862
0.00942784
-0.103725
-0.00931722
-0.0710117
0.0104711
-0.119082
-0.25667
-0.123367
-0.0224196
0.00688509
-0.132409
-0.251715
0.00129895
0.0351041
-0.092696
-0.179254
-0.0959592
-0.0250942
0.00905366
-0.261141
0.00509679
-0.205791
0.012018
-0.109179
-0.248346
-0.0917902
-0.160912
-0.121091
-0.129189
-0.0323205
0.00423389
-0.0572091
-0.26028
0.00240303
0.00134075
0.00872772
-0.0700913
0.0121448
-0.0502944
-0.144704
0.000195523
-0.0864322
-0.0593506
-0.132928
-0.123096
0.0384384
-0.172189
-0.179421
-0.260179
-0.0698319
0.0078098
0.00411247
-0.264846
0.00689964
0.00776562
-0.00138892
-0.0329314
0.00847627
-0.0910839
-0.0100097
-0.0475657
-0.121598
-0.0134997
-0.263152
-0.0843234
-0.128537
0.0102979
-0.0978507
-0.147164
0.000514659
-0.0133099
0.00436805
-0.0877687
-0.113768
-0.122705
-0.0282823
-0.247195
-0.0993067
-0.151748
-0.00762732
0.00606931
-0.00669056
-0.100878
-0.0582159
-0.0787296
0.0137333
-0.207455
-0.00448094
0.00327179
-0.176361
-0.071936
-0.211722
0.0104579
-0.13594
-0.134162
0.00678464
-0.0588413
-0.181205
0.00747004
-0.10723
0.00693678
0.0118907
-0.233732
-0.165521
-0.128879
-0.0698893
0.00842804
-0.119622
-0.100551
-0.00316863
-0.157399
-0.0686234
0.00612767
-0.00511765
-0.0742203
-0.0347202
0.00580233
-0.0959082
0.00483248
-0.202248
-0.0436912
-0.121145
0.00070874
0.000908588
0.00437045
-0.0648554
-0.0711413
-0.0843917
-0.224771
0.0335363
-0.197454
-0.180578
0.0060407
-0.0676669
0.0379162
0.00680171
-0.258867
0.013708
-0.12369
-0.118171
-0.0700759
0.00707634
0.0160717
0.0192056
-0.062921
0.00809482
-0.00692914
-0.00135193
-0.0920245
-0.106122
0.00780188
0.00733665
-0.0744812
-0.144486
-0.221021
-0.0501822
-0.179436
-0.00230489
-0.109062
0.00573329
-0.087057
-0.00782686
-0.155993
-0.263829
0.0174953
0.00350927
-0.0707336
0.00682801
0.00830988
-0.0321419
-0.252721
-0.0704926
0.00840521
-0.0583258
0.00351581
-0.0298115
-0.117278
0.00849782
-0.145565
-0.00647316
-0.210415
-0.017956
-0.0958323
-0.110995
-0.0398975
-0.0869931
-0.263442
-0.0605254
0.00739563
0.00802621
-0.062268
-0.00907529
-0.0109611
-0.0513501
-0.148902
-0.140583
-0.129227
-0.195289
-0.168616
0.00714228
-0.177624
-0.011221
-0.0992184
-0.192886
-0.153067
-0.00292955
-0.105911
0.00713861
-0.0279759
-0.213541
0.00684964
-0.122479
-0.00749256
-0.128807
-0.000663426
0.0390122
-0.0964089
0.00971935
-0.150347
-0.123541
-0.101328
-0.188133
-0.00147138
-0.187579
0.00219466
-0.129979
-0.00944656
0.00506648
-0.173386
-0.152591
0.00323762
-0.0462291
-0.0329456
-0.129881
0.00371615
0.0110914
-0.103328
-0.134394
0.0080297
0.00302245
-0.237328
-0.318638
-0.172072
-0.112417
0.00535892
-0.0842246
0.0104902
-0.26708
-0.250655
-0.0774754
-0.111354
0.00165707
-0.0589983
-0.15099
0.00419838
-0.0366064
-0.264861
-0.261009
-0.0460285
-0.00201677
-0.0372462
0.00524702
-0.0152928
0.0293425
0.0246388
0.0105256
0.00807822
-0.00465941
0.00457036
0.00532038
0.00357135
-0.0436969
-0.180933
-0.0242945
-0.138983
-0.0252299
-0.302562
-0.00511353
-0.00454852
-0.0289287
-0.111401
-0.308046
-0.00643677
0.00490294
0.00796002
-0.0607957
-0.0869414
0.0157434
0.00453617
-0.140822
-0.000833425
0.0140982
-0.011934
0.0139457
-0.066085
-0.00530468
0.000340367
-0.0118469
-0.0259613
-0.0151001
0.00692045
-0.0789913
-0.0388171
-0.087881
-0.14671
0.00440113
0.0098373
-0.0327355
0.00777479
0.00759647
-0.00421038
-0.0525878
-0.0242246
-0.0510328
-0.0384139
0.00977457
0.0221759
0.00731715
0.0109723
-0.120018
0.00393852
-0.0447188
-0.0413384
0.00665887
0.0001663
-0.119657
0.00509043
-0.0278891
0.000436812
-0.206482
0.036638
0.0105651
-0.110591
-0.0144447
0.00602976
-0.0731452
-0.240725
0.0339559
-0.110256
0.00788721
-0.126833
0.00693462
0.00589508
0.00179991
-0.0227626
-0.0381118
0.00876367
-0.099451
-0.190324
-0.0015593
-0.143148
0.00777366
-0.267099
-0.00755771
0.00811428
-0.136706
0.00735256
-0.131789
-0.0140784
-0.023022
-0.0915548
0.000466803
-0.0814798
-0.00260878
-0.140806
-0.0833386
-0.113571
-0.183169
0.00979824
-0.118827
0.00321067
-0.181326
-0.246296
-0.240048
-0.0479634
-0.0656378
-0.0757082
-0.245432
-0.0818285
-0.0377148
-0.0151256
-0.102297
-0.0542963
-0.119974
-0.0162926
-0.000121114
-0.116348
-0.014242
-5.92624e-05
-0.0750301
-0.263225
-0.0491194
0.00807802
-0.0820278
0.00310762
-0.122486
0.00108282
-0.116495
-0.263149
0.00601918
-0.00134678
-0.0987355
-0.190595
-0.116583
-0.00964744
0.014584
-0.0264882
-0.104678
0.00769734
-0.0669296
-0.0527938
-0.0889947
-0.0944407
0.0048709
0.00802606
0.00715392
-0.075029
-0.267633
0.00852658
-0.0621442
-0.0398878
-0.0080068
-0.188281
0.0107349
-0.110999
-0.141593
-0.018484
-0.188226
-0.0255584
-0.211395
-0.0381099
0.00876492
-0.0133508
0.00803913
-0.0258733
-0.263551
-0.247723
-0.250176
0.00685954
-0.0377962
0.00754213
-0.0411757
-0.0775277
-0.0082495
0.00767959
-0.105363
0.00550418
-0.0770053
-0.100089
-0.158319
0.00171248
-0.0678298
0.00566811
-0.106865
-0.204773
-0.0140816
-0.140041
-0.00104102
0.0043776
-0.0922966
-0.253024
-0.0233131
-0.182257
-0.0870744
0.00519724
-0.12919
0.00323664
-0.116875
-0.0283213
0.00319096
-0.00537695
0.00899774
-0.256682
-0.0215041
0.00778784
-0.0160208
0.00705412
-0.263634
0.00707864
0.00410942
0.00781524
-0.146808
0.00644929
0.00428513
-0.0217347
-0.266866
-0.268918
-0.050601
0.00795327
-0.130739
-0.257979
0.0092161
-0.0642566
-0.0276035
-0.0284535
-0.116663
-0.0105391
0.00341835
-0.255044
0.00513801
-0.00368163
0.00537706
-0.259282
-0.134738
-0.245591
0.00881519
0.00646751
0.00607672
-0.0636524
0.00859722
0.00710074
-0.0103272
0.00613562
-0.0394416
0.00730073
0.00932941
-0.198972
0.00336583
-0.250392
-0.209709
-0.170621
0.00522115
-0.178113
-0.0950052
-0.0848768
-0.0229092
0.00190234
0.00947816
-0.0259527
-0.0567527
-0.130284
0.0363109
0.000542868
0.0104357
-0.0556187
-0.0371834
-0.0611282
0.0162193
0.00996035
0.00639532
-0.260154
-0.0116478
-0.0192421
0.00737174
-0.0972319
-0.25914
-0.0206016
-0.0261725
-0.102346
-0.104935
-0.0586973
-0.172378
-0.101732
-0.169378
0.00707867
0.00518097
-0.034792
-0.264631
-0.082956
-0.117873
-0.074726
-0.0956455
-0.0217093
0.00488498
-0.0170708
-0.25644
-0.129518
-0.128024
-0.0811298
-0.0797505
0.00374068
-0.139614
-0.163242
-0.117324
-0.260469
-0.182219
0.00753653
-0.0222209
-0.0346009
-0.246988
-0.030558
0.00603169
0.0275098
-0.174305
0.00785523
-0.0392632
0.0203933
0.0122537
0.0268453
-0.107152
-0.258259
0.0120287
-0.0261814
-0.190286
-0.0906212
-0.00237129
0.00757354
0.00117233
-0.0164549
0.00659551
-0.0554734
-0.0226791
0.00413768
-0.0989436
-0.0972128
-0.166223
0.0094486
-0.121346
-0.0903269
0.00900979
-0.125212
0.0110102
0.00700798
0.00709502
-0.121263
-0.256415
-0.113572
0.00724286
0.00427925
0.0313122
-0.00634206
-0.118083
-0.262166
0.00702182
0.0522875
0.00890148
0.0070539
0.00616997
-0.261859
-0.267767
-0.0290945
-0.268159
-0.0190075
-0.0548097
-0.063265
-0.0991463
-0.0327953
-0.0171236
-0.184275
0.00771434
-0.112299
0.00505611
0.00930678
0.00598318
-0.171861
-0.106158
0.00618546
0.00638963
-0.263423
-0.00907602
-0.268562
-0.268899
0.00789856
0.0080077
-0.268457
0.00752572
0.00523166
0.0050022
-0.01436
-0.0281335
-0.2516
-0.0275386
-0.0684406
-0.267827
0.00759996
-0.267727
-0.131534
0.00774008
0.00545029
0.00728447
-0.0966256
0.00641438
-0.241818
-0.146956
-0.130217
0.00776443
-0.264956
-0.0322513
-0.0557551
-0.173109
0.0075416
0.00795038
-0.0903397
-0.0331621
0.0301586
-0.198122
0.00779735
0.00529804
-0.0634774
0.00774178
0.00771657
-0.147685
-0.046179
0.00697711
0.00300408
-0.000742701
-0.00658717
0.00861718
-0.249556
-0.0978023
0.00678487
-0.017993
-0.136656
-0.265449
-0.0765188
0.0116796
-0.00325101
-0.188127
-0.259537
-0.029498
-0.0531705
-0.0165368
0.00623573
-0.10832
-0.269133
-0.192205
0.00732199
-0.0863916
-0.18559
-0.0477095
0.011225
0.0054494
-0.11873
0.00811804
0.00710391
-0.137014
0.00767963
-0.0238068
-0.0987388
-0.268791
-0.10907
0.00756158
-0.215485
0.00471555
-0.00275942
-0.297609
-0.174826
0.0100241
-0.116245
0.0115777
0.00129329
-0.0271975
-0.126881
-0.170884
-0.162292
-0.166578
-0.159227
-0.0546922
0.00425855
0.0130562
0.00530613
-0.0341574
-0.0183954
0.00723776
0.00750783
-0.0993767
-0.00549012
0.00418303
0.0060882
-0.259541
0.00171222
0.00543676
-0.141814
0.00260589
-0.230735
0.00688231
-0.262884
-0.00636277
-0.182051
-0.00383297
-0.264975
0.00242188
0.0028726
-0.0187936
0.0242706
-0.00197717
0.00715109
0.0242118
0.00832179
0.00447113
0.00891063
0.00295447
-0.200009
-0.0567753
0.00323918
-0.0969039
-0.0537506
-0.0743065
-0.00579137
-0.25441
0.00427392
0.00357351
-0.132853
-0.21687
-0.017017
-0.267459
0.00358848
-0.169742
-0.00655036
-0.110749
0.00759575
-0.181306
-0.213505
-0.0805584
-0.129075
0.00847311
-0.198533
-0.0143568
-0.151769
0.00473763
-0.0193657
-0.260794
-0.100997
-0.168482
-0.0725478
0.00711696
-0.162337
0.00646065
0.00379889
-0.058518
-0.000284186
-0.0288743
-0.109507
-0.230333
-0.220463
-0.092255
-0.0313037
0.00526924
-0.177782
-0.137266
0.0144909
-0.00228086
-0.108982
-0.158121
0.00816537
-0.0901894
-0.0137722
0.00841258
-0.0434104
-0.00595868
0.00790994
-0.0894338
-0.144633
-0.0457866
0.00861477
0.00902707
-0.255669
-0.158138
-0.0454782
-0.0545908
-0.117056
0.00323444
-0.00938096
0.000838656
-0.105297
-0.186734
-0.180297
-0.129769
-0.264117
-0.142297
-0.126167
-0.100183
0.00495709
-0.0879903
-0.125521
0.00753902
-0.264943
-0.027288
-0.00567069
-0.0204094
-0.0205833
-0.113276
-0.166375
-0.233
-0.0927091
-0.13078
-0.0487089
-0.18918
-0.00110934
-0.0429827
-0.162294
0.00778619
-0.0896983
0.00745827
-0.0431716
-0.174083
0.00738682
-0.168806
0.0100823
-0.0884915
-0.133864
-0.0151194
0.00661344
0.0037414
0.00833687
-0.0885229
-0.194831
0.0181535
0.00745709
-0.170585
-0.000609235
-0.0270101
0.0052922
0.00737371
-0.0304043
0.0059314
-0.0601445
0.000174125
-0.106933
-0.23441
0.00811009
-0.0365187
-0.0439853
-0.00161388
-0.00415636
-0.123633
-0.0031574
-0.00692764
0.00793157
-0.159294
0.0101019
-0.267029
-0.25362
-0.0952078
-0.292382
-0.0178772
0.0112585
-0.206196
-0.20922
-0.0657865
-0.146555
0.0031917
-0.00160937
-0.0704934
-0.10619
0.00874433
0.0174888
-0.154834
-0.262044
0.00741044
-0.174025
-0.00510458
0.0015649
0.00316656
0.0121922
0.00859071
-0.140341
0.00800647
0.010145
-0.103935
0.00383853
-0.0738949
-0.053662
-0.127902
-0.0998557
-0.0767937
-0.113698
-0.164693
-0.00229293
-0.132211
-0.0620725
0.0314454
0.00788075
-0.129641
0.00676492
0.00780797
-0.0565451
-0.0792293
-0.171162
-0.0978375
-0.227899
-0.00398473
-0.0235641
-0.12308
-0.252803
0.00208303
-0.168345
-0.125876
0.00662256
0.000397002
-0.0612018
-0.0654917
-0.152358
0.0092707
0.0057922
-0.0716085
-0.24048
-0.146019
0.0050514
-0.0786151
-0.11244
-0.00914447
-0.141562
-0.0222242
-0.110691
-0.238513
0.00890401
-0.266939
-0.215381
-0.0333759
0.00343981
0.00894254
-0.164044
0.00965495
-0.138833
-0.116092
0.00313334
-0.0233201
-0.162838
-0.25328
0.0021627
-0.122807
-0.11742
-0.218908
-0.00292822
0.00484504
-0.0954845
-0.0675417
-0.0963011
-0.00760307
0.00339093
-0.128577
-0.0551521
-0.112709
0.00741396
-0.116092
-0.0516258
-0.0722801
-0.176605
-0.0348931
-0.0559407
-0.0998799
0.00342337
0.00802222
0.00433148
-0.185215
-0.17249
-0.117008
-0.117629
0.00849801
-0.0155009
-0.199461
-0.129072
-0.107177
-0.113064
-0.108281
-0.138357
-0.0932116
0.0058422
-0.0998513
-0.00650494
0.0035469
0.00754144
-0.160315
-0.134718
-0.26771
-0.125027
-0.123163
-0.0859664
-0.163021
-0.161106
0.0069128
0.00792501
-0.00541705
-0.105913
-0.153659
0.0124362
-0.134694
-0.203611
0.0240399
-0.187632
0.00152327
0.00787728
-0.10115
-0.0969667
-0.266252
-0.127669
-0.093971
-0.0176614
-0.0378591
-0.0875412
-0.137209
-0.136284
-0.0170004
-0.19307
-0.0710349
0.00852023
-0.0197326
0.0123344
0.00653285
0.00731325
0.00594589
-0.143343
-0.110736
-0.0130942
-0.14214
-0.102465
0.00647414
0.00729093
0.0114481
-0.0229652
-0.110849
0.00506487
0.00752457
-0.140424
0.0076373
-0.13614
-0.113414
-0.267242
-0.0275103
0.00296921
-0.138685
-0.127216
0.00862695
0.00427518
-0.110836
-0.146593
-0.0018314
0.00272317
-0.104064
0.00254722
-0.0719603
-0.145575
0.00453024
-0.00376326
-0.0763706
0.00730365
0.0042392
-0.185833
-0.0663469
0.0061994
-0.0638048
-0.0241945
-0.212177
-0.257088
-0.135825
0.00452439
-0.183025
0.00806772
-0.0203655
-0.265871
0.00751843
-0.0385391
-0.262786
-0.115507
-0.0957116
-0.0954723
-0.264556
-0.0159311
-0.178352
0.000241647
0.0337583
-0.0315941
-0.25245
0.00162662
-0.14747
-0.260083
-0.172226
-0.127482
-0.133505
-0.0949464
-0.175569
-0.0282137
0.00406211
-0.0437938
-0.132453
-0.262562
-0.0853663
-0.190668
-0.238911
0.00548316
-0.126429
-0.138792
-0.0306382
-0.023372
-0.00761099
0.00155449
-0.0283333
-0.268321
-0.255637
-0.114872
-0.258253
-0.0508152
0.00278168
0.0100916
-0.0238736
-0.117287
0.00238604
-0.114862
0.00736591
0.00648982
-0.129947
-0.16723
-0.0339153
-0.147815
-0.136141
0.00706624
0.00713973
0.00785759
-0.104325
0.00746011
-0.255508
0.00669814
-0.13027
-0.0763625
0.000717971
-0.124624
-0.0490802
-0.261786
-0.0490668
-0.0527971
0.00903193
0.0121751
-0.0392355
0.00859685
-0.0604013
-0.0410209
-0.145598
0.00767293
-0.109315
0.00610206
-0.0189924
-0.265379
-0.0159385
-0.105699
-0.100441
-0.00217776
-0.0995921
-0.109228
0.0169523
-0.0941457
-0.0770999
0.00940813
-0.188784
-0.0933962
-0.116943
-0.122418
-0.260876
-0.15778
-0.0280371
-0.00582565
0.00420659
-0.0162842
-0.0533398
-0.109131
0.00396249
0.00193487
-0.13463
0.00478236
-0.143133
-0.260864
0.0100361
-0.267873
-0.029259
-0.115114
-0.035761
-0.0852815
-0.204834
-0.00100162
-0.0677767
-0.0666807
0.00476636
-0.0993347
-0.118708
-0.0417399
-0.113947
0.0252534
-0.115821
-0.0934523
0.00400004
-0.0433797
-0.0920404
-0.109466
0.00739639
0.006425
-0.117415
-0.119538
-0.119983
0.00408034
-0.000993989
-0.0763504
-0.0613751
-0.105236
-0.0825448
-0.0899719
0.0121153
0.000386833
0.0059241
-0.165967
-0.0182121
-0.100023
-0.183613
0.00088246
-0.0767131
-0.12183
-0.0149693
-0.0234409
0.00747165
-0.0739553
-0.235993
-0.0592708
-0.0376039
-0.00244308
-0.260812
-0.072956
0.00621968
-0.0580013
-0.060802
-0.123309
0.00986628
-0.241111
-0.157434
-0.00323543
-0.150245
-0.0160486
-0.0231458
0.0119651
-0.0673256
-0.146276
-0.180898