/*--------------------------------*- C++ -*----------------------------------*\
| =========                 |                                                 |
| \\      /  F ield         | OpenFOAM: The Open Source CFD Toolbox           |
|  \\    /   O peration     | Version:  v2012                                 |
|   \\  /    A nd           | Website:  www.openfoam.com                      |
|    \\/     M anipulation  |                                                 |
\*---------------------------------------------------------------------------*/
FoamFile
{
    version     2.0;
    format      ascii;
    class       volScalarField;
    location    "250";
    object      k;
}
// * * * * * * * * * * * * * * * * * * * * * * * * * * * * * * * * * * * * * //

dimensions      [0 2 -2 0 0 0 0];


internalField   nonuniform List<scalar> 
13851
(
0.000154282
0.00357294
0.000196846
0.000153749
0.00019128
0.000602673
0.000146524
0.000177947
0.00013904
0.000209547
0.0043336
0.0173196
0.00481647
0.0305083
0.000143815
0.000167095
0.00015686
0.000165689
0.000172028
0.000138946
0.00015312
0.00019539
0.000145103
0.000149753
0.000146961
0.000178634
0.00015552
0.00734041
0.000153699
0.000156698
0.00281768
0.000157414
0.000194758
0.00383528
0.000148537
0.000197744
7.25436e-05
0.000236192
0.00021467
0.00341913
0.000144746
0.000132227
0.0132945
0.00466847
0.00413425
0.0117192
0.00400288
0.00523348
0.000155823
0.00283541
0.000185946
0.000198294
0.0238083
0.000144912
0.000150308
0.000132318
0.000142282
0.0264565
0.00015611
0.000147189
0.0002411
0.0194471
0.00020584
0.000194853
0.000255626
0.000158792
0.000201395
0.00385199
0.000167342
0.000165394
0.0160191
0.00829366
0.00446128
0.00014645
0.000140165
0.000141665
0.000193553
0.019043
0.000177687
0.0181975
0.000149007
0.00303425
0.000143807
0.0145991
0.000951004
0.0196383
0.0007898
0.0100929
0.000157498
0.000141341
0.000193801
0.000198992
0.00382654
0.000160777
0.000157019
0.000148041
0.000191799
0.027846
0.00309677
0.000149084
0.0303196
0.000178499
0.000150321
0.000154413
0.000143581
0.001993
0.000180891
0.000131346
0.0217386
0.000245577
0.00015052
0.000141825
0.000189478
0.000153373
0.00014953
0.00518841
0.0273383
0.000130869
0.000153448
0.000153631
0.0130876
0.000154238
0.00636235
0.00610632
0.00497548
0.000156795
0.00242482
0.000178364
0.000152604
0.000207455
0.000144458
0.000138911
0.0194229
0.000143787
0.00659698
0.000139499
0.000130752
0.00730011
0.0343492
0.0206918
0.0290661
0.000150223
0.000150254
0.000136007
0.000153803
0.00459099
0.000333252
0.000209343
0.000146346
0.00375736
0.000184124
0.000150757
0.0306075
0.000142572
0.000152501
0.000153654
0.000142082
0.000153869
0.000199292
0.000185816
0.000133485
0.000160692
0.0262176
0.000138803
0.000163723
0.000134102
0.000424608
0.000167642
0.000152129
0.0213929
0.0166145
0.000136462
0.000142229
0.0224537
0.000138709
0.00775411
0.000177638
0.000150431
0.000125154
0.000131646
0.000158712
0.0110828
0.000143671
0.000197253
0.000131554
0.000145744
0.000158827
0.000146151
0.000195786
0.000213023
0.00411132
0.0254062
0.000142296
0.000167975
0.0179332
0.000152183
0.000148995
0.00525742
0.000149674
0.000141902
0.00015356
0.0146812
0.000161925
0.00014321
0.000193444
0.000143817
0.0419579
0.000157095
0.0304618
0.000132118
0.0371557
0.000149878
0.00489007
0.00013123
0.000135245
0.00356131
0.00040268
0.00940359
0.000143279
0.0316829
0.000157413
0.000149244
0.0303618
0.000201848
0.0408071
0.000147198
0.000163223
0.000145881
0.0261338
0.000131303
0.000177418
0.00147109
0.000136272
0.000141918
0.00018344
0.000193909
0.0392974
0.000334
0.0001359
0.000143323
0.00420446
0.00432573
0.000137083
0.000199522
0.000140463
0.0393257
0.000179158
0.00288991
0.000153964
0.000158877
0.000170138
0.00396777
0.000149349
0.000154112
0.000178103
0.0187402
0.000208175
0.00978414
0.00542547
0.000144176
0.000135374
0.000162849
0.00692959
0.000138502
0.000218282
0.000152204
0.000149133
0.00016018
0.0282006
1.28266e-05
0.000173663
0.000152584
0.00490266
0.000176022
0.000166745
0.00013899
0.00317179
0.00131152
0.0423862
0.00420867
0.000137499
0.000131684
0.000143182
0.000177255
0.0064863
0.00984438
0.000140325
0.000143995
0.00592898
0.00339735
0.000206944
0.000155327
0.000147365
0.000169936
0.00303502
0.000297125
0.000162249
0.0215963
0.000139211
0.0395795
0.000160194
0.000156825
0.041815
0.000147669
0.00217761
0.035729
0.000139996
0.000173835
0.000161041
0.000154674
0.0323002
0.000162743
0.000149035
0.029904
0.000132715
0.00015921
0.000158695
0.0412902
0.000191366
0.000143367
0.000179011
0.00014363
0.0137843
9.44666e-05
0.000144613
0.000144805
0.000191044
0.000162423
0.000152219
0.000144006
0.00014748
0.000148825
0.00451861
0.0341603
0.0224659
0.000169834
0.0405848
0.00308617
0.000142948
0.000168483
0.000207199
0.000265326
0.000228197
0.000195745
0.000133417
0.000160788
0.00843225
0.0376084
0.000143627
0.00113704
0.00106557
0.000712709
0.000152246
0.000215362
0.0261435
0.00014259
0.00815423
0.000144751
0.000143656
0.000138393
0.000131401
0.000141285
0.0375564
0.00447181
0.00014461
0.000172893
0.000133408
0.0209697
0.000172782
0.00701328
0.0226983
0.000144811
0.000319756
0.000161415
0.00729641
0.000143706
0.000131085
0.000198988
0.033953
0.00014293
0.0333278
0.000233922
0.000197306
0.0158691
0.0017814
0.00206531
0.000166621
0.000139347
0.000150318
0.000166906
0.000178644
0.0304581
0.000167801
0.0404105
0.0363874
0.000133518
0.000144269
0.0217605
0.0208988
0.0023275
0.0275561
0.000206896
0.00016226
0.000148874
0.00116735
0.000137594
0.000166446
0.000167516
0.000145897
0.000144916
0.000139767
0.000133995
0.00019345
0.000198734
0.0177652
0.000166012
0.000180149
0.000185869
0.0028531
0.000160519
0.00223652
0.000156365
0.00352947
0.000130609
0.000139507
0.000147659
0.00027224
0.00315347
0.000201372
0.000182746
0.0136419
0.0045047
0.000547963
0.000155464
0.000183606
0.000143415
0.00183747
0.000143318
0.0269095
0.00351167
0.000192473
0.0278408
0.000150935
0.00159708
0.00354008
0.0371343
0.000130496
0.000163866
0.000178268
0.000169812
0.000137112
0.000148895
0.000183498
0.000197456
0.000174442
0.0115023
0.00014634
0.000145372
0.0195977
0.000164996
0.0001315
0.0113026
0.000139267
0.00015431
0.000137798
0.000179987
0.000152592
0.000131875
0.000150175
0.0278519
0.00014395
0.000169199
0.000138497
0.000184818
0.0028035
0.000155133
0.000144646
0.00015432
0.000154419
0.0114198
0.000148955
0.000871608
0.000143633
0.000146789
0.0273469
0.0262753
0.000144067
0.000162935
0.000160612
0.00511754
0.0132907
0.000145422
0.0041675
0.000143922
0.000192574
0.000146476
0.0163243
0.000131543
0.0223041
0.000208866
0.000132362
0.000163652
0.0260831
0.000178086
0.00396151
0.00015151
0.00657654
0.00015407
0.000138274
0.00013913
0.000145836
0.0251241
0.000184229
0.00019551
0.000113369
5.43437e-05
0.000133869
0.00918587
0.00308841
0.000158872
0.000161012
0.00479069
0.0060328
0.0351337
0.000151404
0.0155361
0.012697
0.0127136
0.000163882
0.000141057
0.00250308
0.00167961
0.0149074
0.00488536
0.0395161
0.00015433
0.0357983
0.0135635
0.000130737
0.0012648
0.000184698
0.0217707
0.000154419
0.000142721
0.000141764
0.00014376
0.000194319
0.000181702
0.00575067
0.01778
0.000138373
0.0189991
0.0269361
0.00682908
0.00313798
0.000168621
0.000131177
0.000139307
0.00162362
0.0125221
0.000152776
0.000187473
0.000196995
0.000132198
0.000208394
0.00468215
0.000347057
0.000196385
0.0264411
0.0139536
0.000144218
0.000145998
0.0127378
0.0361202
0.000194438
0.000167655
0.00209448
0.000131586
0.000141912
0.0241547
0.000131989
0.000154246
0.000131537
0.000139015
0.0152195
0.000193831
0.000176778
0.000131904
0.0302401
0.00579154
0.000139394
0.000140157
0.000138796
0.000147632
0.0344164
0.00348424
0.00393655
0.0135447
0.00735054
0.000166187
0.0180776
0.0278168
0.000162292
0.000168051
0.000131154
0.000161109
0.000167795
0.0230121
0.00709627
0.000187091
0.000162539
0.000138535
0.00016768
0.000149139
0.00407115
0.000186968
0.000143512
0.000172173
0.000137115
0.000159939
0.000202336
0.000146889
0.000143223
0.000172711
0.000146888
0.000192375
0.000262962
0.000200932
0.000168687
0.000194725
0.000138364
0.00183682
0.000158439
0.0119393
0.000149648
0.000148627
0.0186919
0.000154819
0.0137309
0.0380177
0.00563842
0.00925029
0.000137547
0.0114406
0.000138814
0.000139346
0.000131753
0.000139412
0.000151165
0.000166942
0.000177714
0.000131743
0.0041831
0.000212913
0.00609751
0.00014116
0.000133025
0.000140787
0.000208602
0.0163682
0.00017767
0.000160195
0.000138829
0.000147402
0.000143728
0.000142788
6.49101e-05
0.0150924
0.000146599
0.000131667
0.000145936
0.000142669
0.0130718
0.0257531
0.000167769
0.0266459
0.00646373
0.000142962
0.000195044
0.0358148
0.000169093
0.0170738
0.000148901
0.000163533
0.000177221
0.000163586
0.00553368
0.000143932
0.00327675
0.000143848
0.000163711
0.0306195
0.000142583
0.000152769
0.00107664
0.000138398
0.000157971
0.00675847
0.0246021
0.000186724
0.00043286
0.00156073
0.000131349
0.000140876
0.0262401
0.000192989
0.000198653
0.0380633
0.000138438
0.000160964
0.000130803
0.00709766
0.00171038
0.000159663
0.000148847
0.00280677
0.000155773
0.000140293
0.0187376
0.0208862
0.0309031
0.000132573
0.000146481
0.0187277
0.0185414
0.0001939
0.000148435
0.0263101
0.000143889
0.00317577
0.000225511
0.000195045
0.000157606
0.00803021
0.000167102
0.000160543
0.000122627
0.000148078
0.000159438
0.000153149
0.000138218
0.0188904
0.000166025
0.000196557
0.000173612
0.00181865
0.000138711
0.00699585
0.000151038
0.00016889
0.00013343
0.000142571
0.000142994
0.0355022
0.000141558
0.000131857
0.00164026
0.000146254
0.0223807
0.000145187
0.000149157
0.000183632
0.02648
0.00463215
0.000139626
0.0029133
0.0256738
0.000149157
0.0337275
0.000163305
0.000137942
0.000358134
0.0156123
0.00220526
0.000159471
0.000139394
0.000131447
0.00298635
0.000201513
0.000192946
0.000161579
0.000464093
0.000148794
0.000148649
0.000186637
0.00527862
0.000195264
0.00712959
0.000146196
0.000193151
0.000188586
0.0403905
0.000159525
0.0306145
0.000121716
0.000146369
0.0132398
0.00152047
0.0180441
0.0248156
0.0319503
0.0032463
0.000171664
0.000138066
0.000165544
0.0278566
0.0158803
0.000144319
0.000147661
0.000184275
0.00245832
0.000132463
0.0229978
0.000138142
0.000144572
0.0187816
0.018822
0.00195128
0.000139322
0.000143743
0.0209964
0.000123579
0.000193092
0.000153849
0.0236755
0.000309704
0.0144486
0.000180263
0.00017218
0.000149022
0.00014629
0.00894839
0.000176477
0.0198132
0.000180141
0.000167151
0.0187065
0.0198672
0.024368
0.000144616
0.000164462
0.000139296
0.000168746
0.000152513
0.012068
0.000162529
0.0355727
0.000132404
0.0001836
0.000142315
0.000247268
0.000166865
0.000163961
0.0273508
0.000173627
0.000182733
0.000150579
0.000184098
0.00766364
0.0027091
0.000154564
0.0164887
0.000138103
0.0242327
0.00432071
0.000147443
0.0384124
0.0320819
0.0239985
0.00244972
0.000149478
0.000144009
0.029803
0.000161844
0.00451957
0.0308369
0.000141128
0.000151867
0.00025034
0.00606678
0.0235477
0.000146307
0.000139484
0.00350859
0.0304536
0.000197973
0.000158677
0.000151768
0.00392297
0.0120752
0.000189755
0.000131972
0.000172768
0.000138507
0.000156441
0.00140115
0.000149605
0.00970465
0.00132964
0.000144714
0.000151051
0.000144339
0.000153299
0.0174929
0.0251324
0.000163335
0.0344876
0.000142243
0.00016346
0.000143664
0.000138603
0.000147041
0.00014457
0.0235416
0.000144124
0.000177317
0.00014471
0.000159617
0.00181361
0.0161882
0.000152241
0.0147916
0.000195516
0.000386324
0.00016653
0.000167085
0.0176466
0.000160047
0.000186605
0.0125585
0.00496612
0.0237048
0.000173254
0.00404459
0.000149185
0.000172744
0.000179004
0.0264093
0.00014247
0.0245389
0.000140729
0.000141308
0.0305048
0.000147033
0.00024693
0.000158068
0.000139248
0.000194253
0.000139325
0.000143822
0.000140036
0.000148602
0.000183019
0.000141275
0.000153514
0.015223
0.000186311
0.0271129
0.000146042
0.000152509
0.000169215
0.000143923
0.0001391
0.000186232
0.00014889
0.000140898
0.000149039
0.000146845
0.0226449
0.0140862
0.00196916
0.029023
3.37467e-05
0.000141881
0.00512274
0.000162383
0.000141126
0.00327108
0.00564793
0.00369102
0.000140621
0.00425109
0.00607882
0.0242281
0.000136208
0.00429902
0.000165052
0.000155173
0.000140223
0.000138451
0.0454374
0.00171475
0.0110782
0.00014208
0.000143438
0.0013544
0.000147538
0.0130421
0.00396085
0.000325666
0.000100567
0.00418199
0.000146474
0.000144406
0.000183735
0.000179407
0.000154738
0.00021989
0.000174567
0.000149052
0.000151568
0.0126007
0.000141115
0.0227378
0.00229228
0.00611808
0.000227051
0.000151794
0.000136699
0.000148188
0.00376513
0.00319384
0.000136302
0.000155232
0.000141895
0.000187008
0.000133183
0.000141451
0.000149424
0.000166801
0.000695105
0.000186823
0.000171827
0.000143088
0.000177302
0.00134707
0.000150147
0.0111813
0.000402952
0.000185978
0.000134463
0.000174551
0.000142697
0.000144743
0.000147756
0.0190639
0.000192251
0.00360365
0.000154698
0.00320239
0.00014307
0.000144599
0.000147717
0.0048779
0.000273511
0.000133163
0.000166299
0.000220633
0.0268104
0.000155113
0.000151463
0.00015412
0.0397754
0.00019835
0.0304257
0.000186945
0.000186447
0.000299246
0.0282206
0.00366056
0.0179096
0.000142406
0.00340612
0.000133043
0.00015469
0.000158579
0.000147145
0.0282349
0.000163516
0.000160841
0.00336075
0.000205376
0.0100614
0.000143489
0.000154402
0.000160523
0.000137371
0.000167697
0.00320332
0.00777007
0.0142379
0.000140205
0.000160227
0.000155079
0.00463656
0.0259914
0.000457525
0.000136584
0.00014857
0.0112696
0.000176965
0.0472711
0.0104045
0.00157052
0.000134324
0.00794167
0.000166701
0.000175276
0.000162024
0.0357359
0.00361544
0.000203488
0.000517864
0.00015055
0.000180257
0.000144523
0.0217067
0.000193483
0.0269313
0.00219991
0.000158415
0.000196163
0.000152164
0.0352821
0.000138836
0.000141
0.00419733
0.0318128
0.00776315
0.0203129
0.000146096
0.000144714
0.0181448
0.00106916
0.0143047
0.000152147
0.00014598
0.000144727
0.0229218
0.000194908
0.000148491
0.00735817
0.000203216
0.0408779
0.00657595
0.00955078
0.00014416
0.0231103
0.000156268
0.000144514
0.000197335
0.0180506
0.000146628
0.000140745
0.0140174
0.033126
0.000151776
0.000140207
0.0233509
0.000139964
0.0017385
0.000140055
0.00542553
0.000144738
0.000177906
0.0154276
0.02576
0.000151435
0.0146781
0.00162203
0.00709994
0.000391876
0.041293
0.000548204
0.000142323
0.000288498
0.000155225
0.000143588
0.000137242
0.00319624
0.000142809
6.16485e-05
0.000140888
0.000160096
0.0185847
0.000190482
0.00970078
0.000152788
0.00019875
0.000139007
0.000166124
0.00812398
0.0283555
0.000138775
0.000185038
0.00448234
0.000147396
0.000138618
0.0305358
0.000168468
0.00016903
0.00019625
0.017892
0.000456647
0.00561881
0.0173352
0.000745772
0.00390585
0.00308731
0.000233241
0.000185662
0.000134983
0.00019403
0.000142246
0.000140947
0.0166959
0.0306807
0.000153543
0.0313229
0.00789877
0.0219096
0.00791177
0.0035818
0.000143444
0.00613928
0.00162604
0.000142117
0.000151714
0.0352593
0.0314052
0.000344146
0.0329121
0.000174563
0.038011
0.0368753
0.000165627
0.000146998
0.000142201
0.003005
0.000141246
0.000103872
0.000149953
0.000149883
0.000154204
0.00267337
0.0390576
0.0227445
0.000148971
0.00952184
0.000158732
0.000166413
0.000139725
0.000140998
0.025697
0.000161225
0.0281142
0.00869039
0.00679898
0.000192622
0.000144137
0.000174085
0.000147381
0.000196522
0.00014962
0.000152408
0.000148488
0.000150144
0.00019676
0.000150173
0.000168146
0.00014387
0.0001684
0.000262457
0.018247
0.000142529
0.000177793
0.00014688
0.00351927
0.000103655
0.00744878
0.00857979
0.000165464
0.00015459
0.000152124
0.00500888
0.000143952
0.00231065
0.000143897
0.000142487
0.000148595
0.0316912
0.000160293
0.000157457
0.000182313
0.000146093
0.000181976
0.0293144
0.000146201
0.000169579
0.000144516
0.000878216
0.000135654
0.000143087
0.000223286
0.0357412
0.000144257
0.0001678
0.000242697
0.011276
0.000148798
0.000149736
0.0339688
0.000151848
0.00191242
2.76814e-05
0.0377216
0.000144926
7.25424e-05
0.00014311
0.0405656
0.000195005
0.000174381
0.000192813
0.0211521
0.000150901
0.0353235
0.0464945
0.000147491
0.00257789
0.000186435
0.000150269
0.026702
0.000146066
0.000144516
0.000137758
0.000200538
0.00396853
0.000197624
0.000152713
0.000150428
0.000163179
0.00473804
9.12147e-05
0.038306
0.00479496
0.000149514
0.00019505
0.000210715
0.0231312
0.000195687
0.00255586
0.000141359
0.000183342
0.000138618
0.0131561
0.000174987
0.000143033
0.0176251
0.00580326
0.000166517
0.000121702
0.00013227
0.00014549
0.000179726
0.000167717
0.003109
0.000186392
0.00019087
0.000184896
0.000204704
0.0351046
0.002861
0.0384023
0.000142735
0.000140827
0.000204186
0.0205765
0.0222808
0.00287756
0.000151022
0.017557
0.00456925
0.000142778
0.000159068
0.000138751
0.000172775
0.00018503
0.000562206
0.0249622
0.000190664
0.000151772
0.0163788
0.016376
0.000144073
0.000224642
0.0340361
0.0207934
0.000154908
0.000184325
0.000131244
0.000154733
0.00014138
0.000158528
0.0400753
0.025569
0.0125931
0.0177816
0.000151657
0.000169886
0.000181986
0.000142383
0.000145959
0.000138471
0.0222618
0.000140964
0.0343862
0.000172967
0.000209175
0.000213678
0.000199133
0.0204418
0.0131412
0.000172301
0.000133747
0.000147812
0.00952869
0.0019363
0.000156644
0.000138802
0.000137715
0.000188989
0.000164423
0.000195705
0.0461635
0.000151431
0.000138009
0.000192967
0.000654182
0.0172309
0.00827165
0.000140442
0.000187439
0.000147051
0.0423561
0.00013526
0.0388565
0.000144396
0.000151165
0.000169231
0.000147523
0.00214881
0.000163691
0.000177151
0.0279834
0.031368
0.000157503
0.000163708
0.00014329
0.0114789
0.0222801
0.000146321
0.000135491
0.00417269
0.00013052
0.0260296
0.000145638
0.000177988
0.000192534
0.0209482
0.000177524
0.000152049
0.000146075
0.000183334
0.0350666
0.000142367
0.00773547
0.0327271
0.0122933
0.0211125
0.000169808
0.0233535
0.000157295
0.000138352
0.000143039
0.00481747
0.00480591
0.0170699
0.00904033
0.0362018
0.000150325
0.0016474
0.000140748
0.0138044
0.00335364
0.0347707
0.0276543
0.000161138
0.0422962
0.00865385
0.000171088
0.000152449
0.000146799
0.028235
0.000158844
0.000183143
0.000157681
0.000147786
0.000138617
0.000146736
0.025323
0.000178762
0.000165041
0.0109473
0.00115609
0.000147913
0.00014349
0.000138612
0.000170725
0.037906
0.000152801
0.000159167
0.000165656
0.000373168
0.000197684
0.000175802
0.0201012
0.000164131
0.0386783
0.000163346
0.000167655
0.000143198
0.000156958
0.000187215
0.00579861
0.00466337
0.0309554
0.000192441
0.0225947
0.000164979
0.00015627
0.000146773
0.0166818
0.0210693
0.00684173
0.00580104
0.000154172
0.000144648
0.000140305
0.000143878
0.000138638
0.0191427
0.000163236
0.0239216
0.000167518
0.0138511
0.0404691
0.0392198
0.000182427
0.000158517
0.0161775
0.000174394
0.000472441
0.0302233
0.000138196
0.00393388
0.000160792
0.0370567
0.0175177
0.000169938
0.00811923
0.00299325
0.000154932
0.000205297
0.00015979
0.00947272
0.00446686
0.000155412
0.000146132
0.00483716
0.0279986
0.000202039
0.00148736
0.000194013
0.000171668
0.000141625
0.0334526
0.034477
0.000199436
0.00016447
0.0257699
0.0312006
0.0001409
0.000144239
0.000155935
0.0341916
0.0300709
0.000143497
0.0219182
0.000149641
0.000142526
0.000147488
0.0150594
0.00209742
0.0015404
0.0216766
0.000153018
0.000152397
0.000141131
0.018094
0.000149148
0.0229674
0.000155427
0.000489563
0.000148525
0.000142294
0.000202435
0.0190506
0.003748
0.000169104
0.00179849
0.000136181
0.000145831
0.000144378
0.000176417
0.000186009
0.000185467
0.000179475
0.0278819
0.000155827
0.000208634
0.000193876
0.0355287
0.000145942
0.0267162
0.0322043
0.00015663
0.00630894
0.000182274
0.0274015
0.000146968
0.000190134
0.00014361
0.000529993
0.0156845
0.000242937
0.0374778
0.00015461
0.000176142
0.000151515
0.0231395
0.000134467
0.000138757
0.00288874
0.000208825
0.0231509
0.00764296
0.00018194
0.000162344
0.000137609
0.0145685
0.000166747
0.000142257
0.000195688
0.000140004
0.000174673
0.000144696
0.013014
0.000150448
0.0045246
0.00439883
0.000168261
0.0122629
0.00018081
0.0424404
0.000145098
0.0152168
0.017316
0.000138111
0.000144008
0.000153095
0.000148707
0.00017276
0.000142053
0.00552466
0.00018496
0.00279228
0.0045657
0.000146798
0.000149111
0.000137957
0.0158107
0.000146108
0.00014435
0.000151683
0.00015505
0.00272413
0.036287
0.00018678
0.000156219
0.000166916
0.000152298
0.00014964
0.000486634
0.000136117
0.000155127
0.0186345
0.0403394
0.000200838
0.000152179
0.0174192
0.00201612
0.000148741
0.00234731
0.025747
0.000143583
0.000154065
0.000143069
0.0182665
0.00917136
0.00406267
0.000135969
0.000155481
0.000152822
0.000146248
0.000201445
0.000147174
0.00249624
0.010275
0.0368516
0.000138076
0.000154947
0.000153791
0.0125707
0.000132267
0.00849164
0.0207568
0.00481592
0.00498006
0.0221179
0.0454714
0.000150788
0.00498474
0.00557466
0.000150998
0.000137383
0.000140138
0.036657
0.0202043
0.0130007
0.000144523
0.0395207
0.000146863
0.000212893
0.000138888
0.000154042
0.00015075
0.000137993
0.0133302
0.000151013
0.0215111
0.0306628
0.00684966
0.000177673
0.000177469
0.00633903
0.0341347
0.00014675
0.0137149
0.000137939
0.0001314
0.000143295
0.000365086
0.000140708
0.0269445
0.00016596
0.00299146
0.000179526
0.0210924
0.0188
0.000228334
0.000137755
0.000182344
0.00019549
0.00911256
0.000146007
0.000132946
0.000153678
0.0123647
0.000147187
0.00392322
0.0269349
0.000173735
0.00018747
0.000146187
0.00404976
0.000148534
0.0388569
0.00013471
0.0185933
0.000164739
0.000145795
0.0266363
0.00830417
0.000135193
0.000182407
0.000156976
0.0159815
0.00129012
0.000274759
0.00297846
0.000148652
0.000184281
0.0249015
0.000142806
0.000308109
0.000152765
0.000184821
0.000166336
0.0249456
0.026555
0.000146072
0.0267574
0.000151123
0.000175868
0.0235947
0.0267948
0.00017505
0.0281969
5.53751e-06
0.000146206
0.00392093
0.00019278
0.000164525
0.000150963
0.0135145
0.000135452
0.0332661
0.00219713
0.000216059
0.000143288
0.000169807
0.0268441
0.000176496
0.0140963
0.000149963
0.000154956
0.000207848
0.0132729
0.000158741
0.0359883
0.00984118
0.0262318
0.000147639
0.0100615
2.92833e-05
0.0186834
0.000143873
0.000147459
0.000145315
0.0376354
8.0533e-05
0.00403396
0.00391569
0.000148853
0.000137601
0.000143669
0.0149603
0.00769144
0.0297654
0.0154142
0.000140917
0.0244447
0.0305011
0.000195218
0.0196642
0.0282318
0.000177223
0.0290197
0.000153664
0.000158117
0.0156996
0.00449048
0.000136122
0.0323175
0.000148377
0.0001443
0.0434576
0.0263328
0.0338595
0.0148437
0.000165533
0.000148885
0.000155493
0.030634
0.010024
0.000142386
0.000175073
0.00590845
0.000144488
0.000146361
0.0203553
0.0277747
0.000153574
0.000144157
0.000150753
0.000152045
0.000478336
0.000148693
0.000143897
0.000159276
6.87191e-05
0.0251363
0.00940443
0.0182613
0.000146242
0.000157969
0.0312142
0.0324541
0.000164719
0.00148263
0.000143174
0.000170067
0.000152132
0.000124093
0.000190185
0.000143544
0.00422136
0.000169705
0.00014121
0.000157185
0.000149563
0.0228002
0.0240026
0.000144649
0.000163974
0.0342359
0.00684446
0.000155538
0.000145484
0.000144502
0.00383359
0.000146555
0.000146469
0.000161558
0.00014389
0.0315096
0.00589844
0.000148547
0.000156099
0.000135345
0.000147112
0.00569787
0.00691666
0.000186269
0.0191856
0.000998554
0.000149154
0.000142962
0.000145797
0.00014495
0.000148366
0.000159786
0.000198404
0.0238276
0.000150792
0.000198591
0.0242245
0.00230867
0.000143803
0.000138976
0.000153919
0.0348758
0.000144468
0.0023116
0.000121972
0.000101721
0.000148789
0.0165428
0.000136035
0.00366329
0.000135892
0.00013624
0.000147394
0.000141448
0.000173297
0.00567772
0.0147126
0.000171934
0.0412488
0.0079736
0.00556596
0.000166019
0.0263375
0.0212374
0.000200423
0.015608
0.0224029
0.000191935
0.00389369
0.00014881
0.000140795
0.0238861
0.000141788
0.000156321
0.0411645
0.000762083
0.0233962
0.0082192
0.000140019
0.000109858
0.000146021
0.00184696
0.000138683
0.000656646
0.0250362
0.0204571
0.00643063
0.000146152
0.000135915
0.000185259
0.0299172
0.0317301
0.000215841
0.000710665
0.000140176
0.00220108
0.0280893
0.000242852
0.00015592
0.000146533
0.000135773
0.000153829
0.000146341
0.000145376
0.000155831
0.0304532
0.000187402
0.0276201
0.00174833
0.000176189
0.000200197
0.000142942
0.000140718
0.000147708
0.000137302
0.000148567
0.00692738
0.00323644
0.00218729
0.0397168
0.000153719
0.0162996
0.000214036
0.0360243
0.0312184
0.000146723
0.000141266
0.00197255
0.000146345
0.000135325
0.00527648
0.0316165
0.00537805
0.000144657
0.00014618
0.000160284
0.000170546
0.000767589
0.000138102
0.000155003
0.000136595
0.000138189
0.0051074
0.000169799
0.036708
0.00014869
0.000102917
0.0291178
0.000171237
0.0293227
0.000194586
0.0282636
0.000135671
0.000158452
0.000140473
0.000163904
0.0178108
0.000145862
0.0236309
0.000146863
0.000144891
0.000144165
0.0397068
0.000175274
0.000197679
0.00537708
0.000137516
0.000178455
0.029215
0.000181111
0.000141059
0.000151599
0.000146517
0.000211897
0.000145189
0.000141923
0.0416384
0.0367691
0.0382024
0.0224382
0.000123859
0.0229033
0.000183471
0.0406479
0.000210549
0.000135036
0.000142283
0.00013067
0.000147805
0.0318935
0.031691
0.000138268
0.0202158
0.0409896
0.000162697
0.000150638
0.000164125
0.011471
0.0181303
0.030618
0.0150241
0.0317859
0.000130599
0.000232747
0.000198634
0.00380306
0.0171183
0.000143553
0.000193606
0.0289026
0.000168593
0.0295657
0.000148808
0.000850973
0.0269014
0.0358066
0.000184235
0.000165267
0.018885
0.000193927
0.0358918
0.0390335
0.0313942
0.000192022
0.00408353
0.000146427
0.000158942
0.000176879
0.023097
0.00464215
0.0279684
0.000148104
0.000212237
0.000195803
0.000149971
0.0242609
0.000143598
0.000194851
0.0224198
0.000143574
0.0323092
0.0251876
0.038706
0.00778179
0.000164388
0.00629408
0.000143376
0.0329722
0.000146422
0.000141877
0.00017377
0.000155279
0.0322659
0.000155389
0.000165486
0.000155883
0.000141353
0.000473344
0.000153274
0.000192539
0.00376588
0.000138104
0.0273722
0.0001974
0.00015151
0.0259607
0.000159561
0.000143172
0.010088
0.00015022
0.0407339
0.00131583
0.000138611
0.000191696
0.000153395
0.0350115
0.0318219
0.000186479
0.00341517
0.000159996
0.000144586
0.041876
0.000155346
0.00014534
0.00511128
0.000171617
0.00014011
0.000141018
0.000212452
0.000152983
0.0225985
0.000194513
0.000544844
0.0273065
0.000177771
0.000188499
0.000143796
0.0359022
0.0177838
0.0233842
0.000143964
0.000137417
0.000188808
0.000165327
0.00585839
0.000145525
0.00501643
0.000144721
0.000139164
0.000146328
0.000453462
0.000248989
0.000192423
0.0278636
0.0144845
0.0246476
0.030661
0.000131562
0.000561102
0.00136756
0.0214567
0.000141006
0.000239087
0.0177603
0.00649176
0.000192091
0.000127944
0.00263095
0.0375263
0.000174444
0.000164958
0.000137899
0.000177371
0.000172679
0.000143301
0.000183308
0.0238654
0.00451654
0.00534692
0.000874746
0.000142251
0.000140333
0.000183991
0.000143406
0.00841218
0.000138421
0.000140314
0.0399489
0.000190176
0.000175915
0.000196698
0.000151493
0.000206395
0.024037
0.0322288
0.0242858
0.000157837
0.032114
0.000152401
0.000136873
0.000153359
0.0269476
0.000171578
0.000238721
0.000197171
0.000150995
0.000141039
0.000143428
0.000148881
0.00015979
0.0280482
0.00181358
0.000162818
0.0258241
0.0223971
0.00431332
0.0128886
0.000144589
0.000163966
0.0031746
0.000144199
0.000108398
0.00016054
0.000155373
0.0197034
0.0322778
0.000138429
0.000171061
0.000163705
0.00019214
0.0202981
0.0274944
0.0376596
0.000147268
0.000185483
0.0389939
0.000185549
0.000190692
0.000525692
0.0110767
0.0354732
0.0413939
0.000137971
0.00390565
0.000138065
0.000153199
0.000143945
0.000187423
0.0361906
0.0162697
0.00395731
0.0120399
0.000185199
0.000134878
0.000138992
0.000146297
0.000155488
0.000175271
0.0391041
0.0417118
0.000184622
0.00182623
0.000147866
0.000185001
0.000138497
0.0379059
0.000227575
0.000146829
0.000245337
0.000196277
0.0315768
0.0263433
0.000214209
0.0157504
0.000157532
0.0239309
0.000191677
0.0165705
0.00368293
0.000152123
0.000184359
0.000145704
0.0196794
0.0247133
0.000173559
0.0281076
0.000175219
0.0358974
0.000190699
0.00479657
0.000190307
0.000139593
0.000191917
0.000184113
0.000155903
0.000183859
0.000165022
0.000166494
0.0309099
0.000196743
0.000154139
0.000164722
0.000170539
0.000168419
0.000151679
0.0219534
0.000202169
0.00372068
0.0174465
0.000144514
0.0309011
0.000144333
0.000155271
0.000154927
0.0309811
0.000172656
0.0363574
0.0141932
0.000186922
0.000203204
0.000193359
0.0110906
0.000193851
0.00184973
0.00016537
0.000174495
0.000142209
0.0326382
0.00357511
0.000164485
0.000145723
0.000172637
0.000159018
0.000156872
0.000176217
0.000170964
0.000147171
0.000171506
0.0203021
0.0318116
0.000255169
0.000173906
0.000132925
0.0161948
0.000166819
0.000181887
7.53985e-05
0.000173283
0.0251237
0.000135625
0.000162825
0.000155537
0.000171434
0.00014312
0.0309206
0.00353091
0.000113932
0.000175269
0.027447
0.000197082
0.000158448
0.012625
0.000182452
0.000214885
0.0168838
0.00020288
0.000155622
0.000171504
0.000191464
0.000156781
0.000212632
0.0263135
0.00313727
0.000140093
0.000189589
0.0062325
0.0195035
0.000142979
0.000175921
0.000143715
0.000164832
0.00050038
0.000163459
0.000162977
0.000140228
0.000139016
0.0409018
0.0269394
0.000145794
0.03903
0.000195931
0.000134988
0.00016493
0.0324603
0.000207065
0.000195482
0.000144038
0.000160763
0.000198713
0.000146427
0.000142531
0.0378953
0.000163331
0.0311096
0.000186162
0.000159167
0.0347335
0.000214938
0.000211016
0.000140532
0.0056913
0.000163757
0.000160195
0.0241604
0.000173259
0.000147346
0.000202717
0.000156413
0.000161046
0.000135722
0.000605973
0.000144279
0.000210042
0.000123259
0.000199584
0.000141542
0.000235213
0.000164932
0.0147996
0.000859546
0.0266706
0.000213997
0.034698
0.000138721
0.000187841
0.000157868
0.000141938
0.00599073
0.0459184
0.000157026
0.000363013
0.00016596
0.000188011
0.0267353
0.000159101
0.00274808
0.000765058
0.0237534
0.0109948
3.74986e-05
0.000107913
0.000139854
0.000216094
0.000172962
0.00423782
0.0265632
0.0378002
0.0275382
0.0395616
0.000138677
0.000344387
0.000143874
0.000151247
0.000146793
0.00376284
0.000276674
0.000220265
0.00014205
0.0116951
0.00016106
0.0239423
0.000142052
0.000185869
0.000164211
0.000183127
0.000174899
0.000194322
0.000152517
0.000231878
0.00118323
0.000140777
0.0295877
0.000178577
0.000344947
0.000153972
0.000163951
0.000144417