/*--------------------------------*- C++ -*----------------------------------*\
| =========                 |                                                 |
| \\      /  F ield         | OpenFOAM: The Open Source CFD Toolbox           |
|  \\    /   O peration     | Version:  v2012                                 |
|   \\  /    A nd           | Website:  www.openfoam.com                      |
|    \\/     M anipulation  |                                                 |
\*---------------------------------------------------------------------------*/
FoamFile
{
    version     2.0;
    format      ascii;
    class       volScalarField;
    location    "250";
    object      ReThetat_0;
}
// * * * * * * * * * * * * * * * * * * * * * * * * * * * * * * * * * * * * * //

dimensions      [0 0 0 0 0 0 0];


internalField   nonuniform List<scalar> 
13851
(
566.588
121.156
424.034
568.804
407.151
235.492
592.66
483.249
612.152
507.739
109.754
49.3083
137.533
31.7579
600.816
543.838
537.897
565.586
439.448
612.186
568.198
410.537
597.944
585.753
592.672
477.426
533.658
33.1181
569.218
540.785
135.6
536.259
450.173
110.789
590.236
578.192
772.626
337.672
493.717
115.686
593.364
626.309
35.8217
103.299
107.241
43.4669
106.724
106.257
533.104
141.323
458.371
442.166
31.6913
592.267
581.93
626.245
603.25
32.3546
548.144
583.621
327.914
55.5413
433.076
406.053
309.418
537.47
329.164
108.408
492.271
568.01
32.1382
114.409
114.829
594.037
600.943
607.85
417.125
38.8117
451.409
31.6115
568.826
118.556
591.122
39.2884
355.382
46.7564
333.807
90.439
520.561
603.931
581.984
433.275
109.031
519.963
527.473
591.083
409.24
50.3551
135.575
588.288
33.1389
457.148
585.422
547.724
600.072
158.628
455.013
627.869
65.2718
345.351
583.874
601.016
458.45
576.65
587.934
100.205
52.3714
628.498
576.509
578.348
35.6931
544.177
109.32
93.6975
109.293
580.1
152.69
448.574
573.721
386.906
591.827
609.659
32.4957
588.519
89.6957
606.416
628.707
121.253
33.7891
42.7755
33.904
577.01
573.55
620.406
539.955
103.38
363.4
382.848
589.31
111.195
521.076
582.239
31.633
602.326
548.319
542.545
604.533
549.519
429.549
449.107
625.173
522.499
32.196
610.628
496.382
623.317
309.515
488.775
574.49
49.9366
38.4152
616.394
603.881
39.1036
610.305
89.7632
450.331
596.967
464.122
627.541
533.24
90.9285
592.215
392.958
626.639
596.762
543.115
588.439
397.583
514.794
105.798
31.7978
596.178
485.327
58.2678
549.526
580.156
98.3666
597.306
607.415
582.182
53.6153
560.448
592.131
561.249
591.213
33.2405
533.776
36.0548
627.123
45.9564
582.439
99.0643
628.236
621.535
122.597
369.843
42.2872
598.593
36.5025
533.076
567.707
52.088
433.563
40.465
590.685
503.574
594.794
33.5412
628.192
504.683
173.393
616.68
600.634
466.312
421.704
35.7806
284.889
620.61
589.958
110.055
118.125
619.707
554.882
606.594
38.4523
451.296
120.926
546.384
535.623
560.01
119.679
565.551
545.029
477.993
72.6526
474.441
95.3354
40.745
597.823
621.326
574.99
84.3422
614.131
308.786
548.857
566.137
530.896
55.2745
912.021
561.925
546.105
100.991
459.413
539.813
610.057
116.438
189.655
40.6833
111.581
618.484
627.801
601.362
473.198
85.8648
79.3567
610.086
604.776
90.1434
114.954
383.991
547.651
581.767
481.813
119.928
339.876
517.199
46.3008
609.537
39.3032
531.179
541.216
41.277
582.26
162.332
44.3354
610.484
482.96
511.569
551.549
35.6813
513.836
564.579
51.507
625.486
539.725
562.706
42.8934
569.334
599.264
461.23
601.601
41.6401
701.269
598.525
598.655
563.696
505.272
548.323
605.354
582.781
565.268
106.605
30.7149
51.6205
568.449
43.5165
136.269
599.324
482.054
381.167
391.551
365.282
453.725
455.48
518.547
79.1499
41.9692
599.169
202.184
202.79
300.8
548.301
358.364
33.7115
603.313
81.4839
600.385
601.949
611.618
627.816
605.142
43.5577
105.23
585.929
482.562
624.346
47.819
522.777
86.8198
50.3858
585.055
454.734
517.839
86.7808
595.327
628.091
444.577
32.1194
595.513
35.7471
403.766
464.603
51.012
164.032
155.265
573.727
607.754
586.932
573.244
468.963
31.5692
486.653
42.3086
43.6714
623.766
598.793
51.1774
32.246
133.884
52.9796
431.698
515.124
588.767
200.376
614.605
550.25
570.911
589.914
596.362
610.963
623.518
411.108
386.287
42.6528
569.618
460.057
437.329
136.992
525.882
220.247
540.599
124.114
628.903
611.314
590.968
306.146
117.785
409.589
440.437
42.2281
103.65
270.952
570.358
469.411
595.497
158.751
600.812
52.8574
115.296
506.51
36.623
588.569
174.768
113.506
31.8513
628.662
508.94
449.282
598.52
615.205
567.801
515.843
454.867
553.156
72.2329
594.735
597.288
36.4331
492.252
628.067
83.0377
608.146
566.279
613.979
434.361
558.215
627.485
580.322
54.3276
587.147
486.322
609.345
541.832
139.147
572.882
595.881
577.703
577.36
78.4704
566.98
211.813
593.205
594.161
34.3023
36.2502
591.611
587.036
525.415
111.179
39.6801
598.238
108.333
594.048
402.462
586.461
39.1543
626.522
31.7509
425.176
626.083
588.772
47.8559
528.977
107.135
581.653
87.9256
571.196
611.379
610.202
593.129
32.5397
455.21
493.243
486.804
631.006
624.604
93.865
118.97
531.318
512.441
115.075
93.0903
48.7781
580.25
39.9298
42.2873
53.066
507.092
642.649
131.301
171.459
81.5582
100.076
40.8458
550.93
42.3364
82.9908
628.469
191.025
454.605
36.1816
544.355
594.393
604.797
591.698
401.853
433.74
117.224
56.7447
611.255
35.975
38.8227
93.4318
117.95
486.036
628.437
611.75
172.704
79.8637
552.748
535.83
574.011
626.473
394.545
102.603
271.067
420.475
32.7452
81.8234
594.275
591.577
70.3501
43.2126
557.811
495.373
233.203
627.549
595.365
55.8709
626.761
544.922
627.736
607.873
76.3586
405.033
463.581
626.963
38.2586
94.8291
608.949
607.402
612.422
593.634
32.2853
113.13
108.245
52.6087
84.2854
498.347
36.0281
35.6621
510.98
491.75
628.56
565.506
567.558
61.3501
83.3806
528.385
511.272
612.88
529.363
573.574
105.707
442.059
593.74
562.126
615.107
522.894
403.647
585.645
596.531
546.553
576.927
405.08
297.004
433.866
517.044
558.333
613.06
145.498
581.108
51.8402
581.132
587.636
71.3702
574.924
49.8112
40.311
41.6387
88.8229
614.608
89.4008
615.993
607.648
626.136
606.908
577
569.071
442.305
627.169
107.789
437.406
90.8803
606.726
623.43
606.018
375.986
60.0086
488.989
526.047
616.909
592.334
600.302
604.39
815.179
54.0982
578.522
627.336
593.822
603.726
79.6039
31.9251
535.435
50.4189
89.4102
596.894
483.102
31.701
486.529
48.583
568.213
572.038
484.219
573.605
95.2031
591.372
117.87
599.509
510.09
37.007
606.792
583.121
226.496
611.602
537.332
86.1401
34.0725
440.638
348.07
169.474
628.005
607.032
35.7611
579.318
406.88
41.2631
613.746
568.155
628.365
86.1353
245.918
519.035
585.814
138.127
529.015
607.866
36.4647
68.3387
41.5567
625.78
580.45
36.9972
32.522
579.1
583.261
59.3683
589.219
129.837
333.837
497.64
536.009
40.9198
570.536
577.043
789.601
591.36
560.05
554.989
613.417
37.0269
546.297
433.435
467.327
164.45
612.498
84.9314
583.708
575.758
622.209
598.144
594.567
43.6483
604.889
626.154
161.76
590.866
37.1421
596.047
573.686
476.806
54.5171
105.418
607.667
133.791
52.4883
565.914
49.1769
507.665
613.862
413.705
35.9905
156.875
531.938
607.284
627.679
121.008
481.006
410.083
514.129
299.267
589.461
571.668
545.169
97.6137
396.586
82.7461
582.381
402.82
450.984
44.1472
520.166
31.7866
499.235
590.563
43.425
201.467
62.131
33.809
47.4001
127.245
570.484
613.567
577.729
32.5088
39.1427
601.826
591.158
462.274
137.59
625.704
31.7905
614.141
584.491
37.1457
37.504
155.25
608.027
599.489
32.3562
638.343
557.811
559.83
51.9507
276.611
65.3406
451.881
483.386
565.797
588.792
79.7911
493.619
32.0947
480.099
486.1
37.391
59.0192
38.6122
589.858
504.482
608.959
526.783
585.946
53.5373
559.848
34.5548
625.755
468.582
596.195
321.774
503.271
503.383
49.7179
483.575
422.548
584.759
470.632
88.4185
168.269
543.83
37.569
615.617
34.9464
109.952
574.78
44.1551
32.3894
37.4797
142.44
528.506
601.728
41.5397
562.351
107.302
35.693
606.079
557.328
310.34
92.011
34.9134
578.35
607.979
114.406
36.5006
414.636
534.346
570.815
114.122
40.2495
460.804
626.427
567.002
611.214
572.557
182.467
587.694
97.8594
176.112
585.795
571.045
602.029
553.845
33.7549
48.6496
510.946
31.202
595.635
511.123
601.934
610.623
579.681
587.3
34.6908
590.706
486.249
588.917
527.911
164.49
33.2833
578.126
66.0429
405.8
463.775
533.175
513.659
32.0419
510.547
427.16
53.8409
104.141
32.5426
484.373
110.276
583.295
482.96
457.198
33.2351
600.868
36.2069
607.441
606.187
31.7147
586.36
340.082
539.183
609.678
413.717
609.045
600.826
614.805
571.762
625.706
605.302
583.98
39.07
564.874
32.9417
589.307
578.912
538.452
591.864
609.647
476.636
582.421
608.914
584.786
592.715
38.8561
58.4293
164.322
50.7316
922.503
596.257
105.525
516.965
605.316
114.879
106.3
111.559
601.167
104.882
92.0538
36.247
616.678
139.964
539.888
537.2
614.721
613.644
32.6911
157.451
76.6059
607.629
591.31
194.399
574.766
88.6688
116.203
294.669
487.088
105.688
594.406
588.259
430.897
544.469
542.901
330.265
473.325
581.225
571.772
66.7284
608.556
42.2251
210.673
93.3851
403.363
586.972
618.691
588.124
112.048
122.338
616.513
571.724
608.055
462.966
624.548
608.754
564.474
490.122
401.818
421.101
559.38
595.814
495.377
250.238
577.582
46.015
353.673
489.581
622.519
481.06
594.905
595.388
589.431
39.3953
563.007
112.124
541.917
130.604
593.744
597.693
583.325
109.656
338.496
625.618
491.94
361.371
34.2511
575.642
361.784
579.323
33.7126
516.41
53.6777
551.558
472.983
295.674
38.6931
110.383
52.6103
601.136
165.714
624.787
542.428
526.415
575.772
37.6137
533.703
513.976
123.785
415.66
83.2377
599.215
543.098
518.346
617.292
576.471
122.505
84.533
61.5925
603.447
510.013
549.426
103.031
56.0635
444.645
618.953
583.562
41.9179
545.498
36.1063
82.489
168.591
622.78
106.853
578.862
463.044
513.491
47.1416
112.584
391.319
298.026
582.691
546.317
586.939
33.2205
401.321
37.7121
150.078
532.228
541.119
554.854
47.9997
627.008
605.165
168.07
37.5005
99.8721
68.0631
588.049
587.723
34.9423
217.664
39.8753
577.806
592.595
586.59
38.2336
575.93
573.269
97.7521
454.322
36.1586
120.86
78.3417
597.192
63.8104
530.375
597.2
508.288
56.9869
592.004
607.973
33.2402
50.1762
589.117
602.697
38.9045
607.47
166.949
601.804
95.5074
587.729
482.009
61.0836
56.8655
555.492
36.2661
159.946
84.438
324.49
32.4559
270.281
594.591
344.729
571.279
599.493
617.765
121.075
597.868
835.012
607.508
576.653
41.2665
529.524
89.4207
548.183
484.125
610.259
491.798
104.411
33.6855
609.079
450.432
101.84
584.944
613.409
39.1186
486.545
554.68
477.254
47.3796
257.619
133.699
74.1104
300.301
117.458
121.482
315.39
440.285
618.959
530.035
595.327
597.558
55.0799
38.0152
575.081
31.1696
86.5596
41.2947
91.9381
114.455
593.582
98.784
176.734
608.745
554.139
46.176
44.699
339.06
51.1123
465.461
34.948
44.9177
496.446
588.843
602.562
119.862
601.291
829.185
581.313
563.583
573.281
188.293
45.4006
38.762
584.918
99.5935
526.577
485.338
601.624
605.885
32.5638
529.337
35.2983
80.8514
102.598
542.998
604.607
514.83
579.652
571.491
598.37
550.99
587.704
577.898
552.455
563.503
562.212
605.45
566.643
305.844
33.4758
603.016
453.254
592.328
144.263
705.527
96.5288
102.668
502.085
540.426
585.013
112.763
593.231
150.65
603.773
606.73
578.384
48.8507
517.057
546.588
467.322
594.322
506.202
51.0135
396.274
480.306
585.948
232.038
617.584
605.362
399.158
34.9487
598.868
479.278
338.887
87.0655
571.185
560.56
34.0454
556.285
165.374
947.226
47.2097
587.499
782.633
589.619
39.6912
571.246
495.133
511.629
39.6738
560.238
49.4545
34.5409
589.177
166.434
489.043
584.217
32.7956
582.818
601.253
614.655
417.745
122.83
572.148
544.902
577.474
515.17
102.105
793.154
46.1393
100.394
572.781
572.351
374.011
34.28
524.88
133.786
600.66
463.184
613.341
81.7805
451.789
590.711
53.3769
148.694
518.18
672.488
626.94
596.285
570.371
552.49
139.973
431.315
519.731
565.714
382.509
34.8787
148.17
45.7546
603.109
608.871
612.505
40.8994
34.0069
131.588
581.834
43.3982
101.713
606.362
526.647
606.324
480.179
464.369
280.933
31.7886
692.382
555.514
64.2117
39.6012
598.765
341.69
33.5505
35.1766
538.133
503.861
628.327
569.529
608.612
537.141
43.2632
49.7067
36.6581
52.443
557.419
491.435
558.584
600.234
591.794
613.504
62.8505
602.532
49.9392
469.421
525.115
356.286
594.396
38.1775
81.0493
478.065
623.872
603.019
92.1113
256.341
533.92
607.411
612.087
451.53
532.742
563.551
33.5116
564.282
614.332
572.135
257.874
34.1479
82.617
601.918
436.206
589.983
39.9503
621.517
35.9332
604.033
567.97
575.355
594.401
164.843
498.898
460.341
33.4561
45.8503
521.687
517.974
593.546
89.1081
37.5602
593.617
620.845
104.775
629.155
32.1851
595.349
544.296
521.661
67.473
435.041
588.243
597.193
497.634
46.8472
594.882
105.785
30.6845
72.1132
70.6692
484.074
41.7568
544.528
284.632
594.72
101.535
101.072
38.1616
41.6963
32.6502
573.464
173.482
608.446
33.6727
114.593
45.5086
32.8425
530.809
33.5916
82.5674
478.726
574.223
584.029
34.2539
526.695
498.823
570.38
583.801
610.617
578.633
54.6102
623.593
546.771
42.5285
250.843
589.736
589.959
613.582
572.803
35.2662
667.8
529.621
550.896
285.618
502.655
461.021
31.7401
544.879
44.622
517.315
565.703
592.328
572.348
431.753
93.2975
104.864
34.6038
451.423
45.4688
575.319
538.84
592.614
35.9403
41.2293
87.7655
103.391
544.226
586.71
604.31
603.207
613.223
34.5448
536.764
31.9142
510.654
70.8579
42.1014
39.7511
562.021
523.457
39.0902
473.267
239.885
33.1421
611.599
126.011
524.324
32.14
36.4367
502.339
96.7228
120.346
573.608
426.186
568.943
49.8197
102.605
538.614
593.677
102.497
59.684
419.48
163.207
500.033
570.554
604.132
45.4357
34.4549
522.798
500.48
54.8549
31.9473
607.983
592
537.214
47.3676
51.337
593.986
34.7731
569.472
602.173
579.397
52.3634
321.151
181.688
34.1873
572.337
550.543
602.495
37.1172
578.033
44.9939
561.241
196.337
583.887
595.233
398.569
34.7328
109.238
565.384
178.474
620.911
581.829
591.792
498.614
429.82
435.559
441.381
56.7128
534.666
379.492
262.554
35.6965
600.085
35.3123
35.751
544.342
89.9338
493.523
35.5004
576.816
563.453
604.517
232.808
33.3672
330.11
45.2961
575.801
492.005
572.945
36.0424
622.772
606.872
123.64
517.153
38.7293
105.606
508.834
529.732
614.935
58.9071
578.213
608.119
574.262
614.431
465.418
584.673
71.4922
580.461
102.867
109.316
576.132
70.9797
568.996
39.835
595.122
64.3345
60.2157
609.715
588.262
551.393
582.38
506.399
599.254
111.344
479.948
136.372
121.978
589.907
568.209
614.812
76.131
580.144
590.97
517.18
542.66
142.392
46.9979
535.072
554.876
559.377
550.771
567.279
330.318
619.734
540.341
33.8171
36.927
476.308
552.63
37.9424
187.24
583.228
147.539
58.2053
594.803
542.833
596.658
70.6672
45.7434
111.731
620.033
537.644
565.642
589.454
491.886
585.27
149.392
35.3989
47.2505
612.756
537.368
553.257
48.3628
627.012
44.6445
34.2491
112.557
104.516
51.9427
35.7453
588.682
102.053
109.409
567.033
615.244
605.277
46.1909
35.5085
39.7784
596.885
43.7373
574.669
365.924
613.245
547.838
562.202
612.761
45.4645
566.685
39.5556
31.9463
44.3577
551.997
493.658
45.2075
47.7904
590.915
36.0983
614.729
627.413
592.868
328.969
610.752
34.2166
576.786
135.636
442.721
33.5736
39.0525
336.752
613.39
569.101
533.253
46.9623
600.296
623.019
571.911
70.4719
598.042
118.089
33.2489
468.918
478.741
599.43
116.763
572.629
35.513
620.024
36.0974
507.1
583.639
34.0351
42.7589
619.48
509.629
534.992
38.5731
191.429
296.224
137.018
570.089
515.09
52.7499
595.302
370.232
560.98
498.6
496.826
33.5753
42.8626
581.329
34.942
556.22
457.501
59.5033
33.1004
455.129
39.2835
532.643
596.04
117.718
574.293
501.234
565.643
72.8327
619.103
33.7164
154.729
420.896
599.541
564.608
37.2086
458.878
67.4629
565.146
540.459
278.414
75.0071
522.97
45.404
77.6243
35.1519
583.631
85.6754
436.695
43.5845
598.194
603.919
600.393
44.0622
765.703
114.592
120.844
569.047
617.035
596.112
45.9965
111.223
33.11
40.8815
602.474
51.5716
52.9679
553.422
36.2688
38.1352
459.168
35.0323
547.839
534.882
75.8789
124.185
626.16
30.8927
586.312
589.334
32.9996
41.9205
51.0524
33.5171
531.674
568.145
569.421
53.7418
41.6522
594.183
493.51
92.3074
591.979
579.625
66.2319
37.4842
549.728
600.007
567.66
571.532
266.376
580.197
603.652
533.376
521.774
40.9774
90.9581
60.5392
579.517
528.684
40.9465
50.5026
498.62
180.919
598.147
481.231
585.46
652.752
535.266
604.705
104.408
478.12
608.562
536.003
419.37
49.4535
38.0186
591.21
553.518
49.0511
87.7711
535.286
601.2
603.626
117.397
579.073
594.093
530.771
589.889
39.6982
98.6272
569.844
540.259
621.137
584.391
89.0252
101.617
443.856
36.9323
261.712
569.801
597.466
583.182
599.705
571.824
565.871
537.006
58.594
576.622
410.075
39.212
151.454
593.542
607.007
546.928
40.5806
600.777
157.391
685.787
647.544
589.852
39.021
620.153
128.207
617.265
619.921
597.644
609.224
541.942
113.46
68.821
516.086
46.0137
99.9066
110.823
497.788
41.1795
35.6001
394.406
61.7547
63.1626
504.574
119.576
576.135
607.64
45.1476
602.211
539.397
31.5528
237.737
45.8732
98.8228
610.034
689.21
580.062
169.504
613.656
250.369
37.179
64.8451
88.3887
580.298
618.549
464.816
31.8156
38.5477
375.592
362.096
605.369
205.46
32.4548
300.36
549.244
578.447
621.576
578.136
590.828
595.259
539.986
39.7158
444.233
36.1482
172.711
386.286
573.368
594.364
605.883
599.915
613.501
578.11
101.43
134.972
140.032
42.9993
554.998
40.9773
361.886
45.8081
33.3922
585.122
609.169
156.909
580.061
619.356
96.403
39.1038
133.31
585.12
578.31
583.557
567.456
266.455
614.42
585.806
537.269
610.72
98.6137
567.876
31.1577
572.268
849.716
32.0712
481.641
55.1396
442.026
34.577
620.942
529.486
608.657
545.294
52.8473
595.209
32.5235
601.431
595.78
601.797
41.8093
465.226
445.239
96.8351
613.522
462.24
32.5706
567.989
605.576
590.396
580.966
462.033
601.593
607.473
39.5717
47.6343
42.7672
67.7218
477.858
37.5531
503.283
42.659
371.183
621.847
603.129
628.892
582.186
52.4368
52.3488
615.604
33.1669
37.289
512.466
575.829
557.037
75.2271
70.076
38.5508
78.6802
38.0139
629.034
393.677
394.449
117.98
74.0501
592.589
560.704
33.4835
499.841
31.8573
581.224
225.373
35.1405
35.3256
514.196
548.097
39.9755
573.672
34.224
38.9429
40.3192
485.562
125.651
577.719
586.257
461.223
34.3153
105.913
33.8963
590.428
357.469
486.225
587.617
60.9494
594.381
514.045
37.6563
596.343
32.8287
48.6244
36.3226
90.6262
370.226
105.439
602.843
51.2832
602.732
610.267
464.566
539.169
34.6548
540.566
549.712
538.534
609.219
194.798
552.753
494.021
120.808
612.158
32.192
400.213
570.944
34.0428
528.083
599.785
74.7655
561.536
37.7181
179.428
614.142
572.641
552.158
49.2912
37.0032
444.595
125.92
533.434
604.038
31.3578
537.856
600.803
140.823
504.218
604.633
608.784
364.836
549.599
39.4342
419.69
273.28
35.8056
494.029
486.672
601.693
48.4555
33.1637
39.2751
598.763
617.347
418.911
527.914
97.1781
600.37
99.4246
602.347
457.273
588.964
291.122
348.708
513.677
32.6442
63.5207
59.7718
37.5026
627.167
412.218
247.342
34.0346
605.982
320.532
34.5664
42.1813
559.048
443.9
131.594
46.8968
495.13
476.481
613.168
460.837
494.516
594.38
493.222
38.0595
119.181
43.3764
316.115
594.723
609.078
465.227
593.895
78.6483
613.84
609.612
44.5464
575.147
535.366
405.684
583.328
507.719
33.9031
35.369
34.2959
529.454
36.1429
590.168
614.7
555.374
38.247
633.98
374.845
601.368
558.807
608.587
593.242
577.081
513.701
34.0892
236.043
533.216
58.9107
40.0012
121.802
50.0596
588.626
510.197
142.264
592.871
704.073
525.726
537.64
55.8585
35.0113
613.927
502.436
531.55
528.433
43.5565
35.5877
46.4864
598.028
522.194
43.7561
516.847
574.551
283.957
78.0033
49.505
41.3114
614.47
144.288
616.404
574.691
589.19
434.483
48.6586
37.0644
109.866
40.057
448.641
620.083
607.526
579.178
569.337
456.795
45.0676
38.571
519.307
161.7
583.162
474.192
611.057
35.6886
347.347
598.443
396.814
413.724
45.8624
33.5865
357.839
35.4642
531.502
39.4981
516.058
74.76
111.283
590.443
515.655
581.313
66.6645
32.9538
494.691
38.2665
472.081
32.4049
489.417
139.877
437.591
604.575
573.88
567.625
534.546
541.311
523.257
556.881
32.6842
568.129
553.687
536.739
478.958
492.936
570.926
39.6733
388.532
124.449
37.5199
586.748
34.2554
602.597
585.774
544.546
34.9506
493.592
33.4865
53.5258
509.196
534.195
532.038
65.9998
572.687
161.532
553.113
491.654
608.04
33.1233
115.139
554.528
592.007
479.669
512.451
538.516
483.822
494.701
575.212
468.742
52.1764
31.8321
319.577
464.457
625.226
52.6717
494.316
486.526
427.646
495.66
45.1432
618.896
561.743
576.252
463.805
592.656
32.529
125.913
411.662
451.086
56.9437
585.776
520.615
60.3681
484.172
553.107
38.3293
476.718
537.746
497.702
425.569
587.86
526.085
32.4099
119.511
603.426
588.904
150.613
71.1432
592.698
453.934
603.505
544.418
247.692
540.55
531.586
604.569
606.349
49.237
39.4138
594.544
46.4277
556.194
619.985
524.287
32.8583
374.699
423.903
590.898
519.068
547.587
594.366
602.504
37.5929
514.71
32.782
510.257
530.128
50.2467
433.798
371.657
603.042
97.8113
507.954
523.805
46.1498
467.618
584.835
503.521
523.43
583.442
619.828
213.049
588.135
365.933
430.211
390.407
608.831
352.241
499.692
49.7722
297.496
34.5826
359.498
35.1912
610.146
438.491
526.954
595.587
95.366
38.2329
535.704
282.959
513.682
426.368
33.92
515.422
141.994
225.088
43.154
69.4906
506.804
664.372
610.347
361.889
461.382
108.082
45.4634
36.0739
36.3346
41.1597
606.321
260.174
599.074
566.978
572.989
113.759
365.941
361.393
602.002
39.0558
522.988
36.9913
610.044
565.711
501.828
518.175
547.162
426.094
549.553
332.34
318.487
602.507
33.99
629.234
382.089
573.354
526.598
593.025
603.124
499.387
272.054
38.0135
470.654
449.94
288.126
593.171
267.691
477.329
38.0281
506.701
492.054
97.5649
484.915
208.18
203.08
34.3816
554.278
583.423
58.3715
494.249
539.363
501.607
517.962
611.975
525.786
37.3434
599.105
507.081
48.1441
458.834
414.473
313.828
99.852
39.0497
32.4872
139.573
548.132
161.062
553.97
538.58
580.534
601.805
32.5923
118.67
472.929
610.703
307.643
523.521
607.822
229.665
441.649
592.586
550.267
54.6816
522.912
499.313
518.657
605.116
410.386
457.2
528.257
57.587
532.513
50.2899
506.164
42.5299
555.852
52.0917
345.66
570.994
541.437
61.3129
469.835
523.433
479.744
426.248
549.354
558.199
599.948
593.611
619.271
532.729
33.004
614.907
439.631
583.73
543.449
532.841
433.479
546.482
548.951
579.837
534.689
532.181
610.23
291.739
540.367
610.836
568.971
498.019
609.642
45.4621
529.319
42.9048
269.373
36.2309
425.334
444.83
183.947
481.381
485.205
534.081
45.1205
73.1668
288.332
481.846
493.324
601.542
35.5116
450.79
60.1599
604.636
64.3499
574.732
228.335
88.2474
620.146
599.407
616.265
514.626
68.6421
404.916
65.3066
524.754
513.221
602.785
576.691
459.428
541.75
536.973
599.907
503.739
124.007
73.5291
548.97
631.793
610.771
615.365
447.656
564.637
537.1
445.222
535.552
541.966
597.705
483.898
585.274
539.264
33.3395
601.973
540.053
553.932
537.424
95.5319
578.433
479.715
46.502
538.814
539.313
552.762
568.009
569.004
409.069
580.937
582.518
38.097
608.898
531.117
460.508
374.72
42.8292
620.651
539.457
585.972
501.899
538.622
462.276
48.9485
618.277
580.252
352.854
562.73
204.639
622.455
582.078
45.9539
472.268
538.985
621.196
353.093
446.445
36.7077
585.461
422.315
621.74
613.869
543.653
513.268
47.9452
580.014
605.238
121.835
580.655
544.81
890.078
31.0754
582.513
614.5
584.919
505.812
440.291
58.4503
565.76
464.769
599.46
587.935
35.3797
558.975
583.571
499.055
377.172
559.658
542.092
574.612
243.047
466.724
557.347
400.105
43.4298
581.14
570.187
552.711
598.428
580.409
608.66
617.969
527.396
558.406
448.339
472.698
42.9841
163.318
518.852
620.961
592.02
568.977
548.28
465.897
539.287
260.503
542.255
329.028
548.486
48.8447
32.7415
514.793
576.907
363.759
538.77
574.58
596.444
561.856
597.549
257.696
531.486
448.898
482.549
546.432
581.086
566.856
56.8767
34.9419
99.5215
504.849
336.935
334.685
53.8286
567.958
842.643
424.459
594.711
584.988
32.0147
578.601
561.979
547.779
83.2666
582.172
573.142
529.601
46.459
606.609
537.298
170.549
542.878
586.266
598.811
594.326
579.57
572.162
580.036
582.885
582.633
570.697
569.074
536.126
587.498
115.259
593.067
572.112
569.178
223.35
275.313
35.1954
102.688
55.3897
504.705
608.873
519.875
41.4121
618.374
123.532
564.145
260.019
552.153
491.666
583.444
597.514
473.644
524.979
66.4942
126.067
50.0014
578.811
608.095
40.2774
618.961
583.748
62.0945
599.73
33.8288
594.859
398.319
501.766
538.263
125.517
480.458
420.827
77.2621
91.9475
61.3474
36.1939
231.641
32.2551
577.804
33.1246
580.667
592.32
606.255
565.268
169.221
552.549
51.0942
579.071
600.323
596.707
327.582
604.227
604.349
382.983
525.039
584.604
530.589
536.067
397.737
240.28
70.7644
313.533
398.049
556.949
599.641
602.752
503.069
347.024
66.8316
623.801
54.1583
580.388
164.203
31.2945
561.749
40.0943
115.633
550.388
592.491
551.298
580.552
594.895
32.6041
39.4771
600.297
161.577
599.887
510.796
602.927
355.895
564.809
540.439
602.229
493.044
63.3392
99.9023
612.867
610.625
532.861
589.419
570.682
63.7791
70.0741
489.873
402.575
469.61
581.02
575.715
273.789
566.018
56.3469
461.738
120.95
582.495
533.12
617.2
627.206
595.281
508.349
608.155
32.2058
481.637
83.3985
589.461
596.144
584.684
106.887
498.415
535.532
65.1829
519.741
593.229
528.133
577.301
37.5486
117.781
500.325
491.395
53.0435
39.0029
380.528
521.191
591.72
557.525
547.099
347.643
68.1923
532.12
576.322
121.627
858.511
568.748
550.057
446.616
560.344
604.93
566.665
591.407
574.466
602.842
543.936
564.691
520.658
32.8169
603.578
724.804
393.649
534.973
602.749
604.761
177.671
536.02
601.296
122.101
587.824
389.023
575.82
512.138
69.5621
547.945
551.308
548.591
158.061
67.4346
600.07
488.956
52.5924
602.655
594.225
524.517
43.8241
36.7185
538.439
587.418
376.417
601.337
572.785
582.167
568.509
52.1573
575.851
63.4184
581.346
604.651
396.625
599.961
584.117
580.42
172.506
613.286
431.247
576.047
603.388
594.167
533.932
522.621
534.347
546.54
571.085
572.589
495.957
560.28
39.5264
565.838
545.082
492.172
575.572
522.192
93.2043
581.251
565.828
622.003
335.775
104.534
603.816
547.183
605.202
537.457
605.525
128.457
45.2002
541.977
565.174
583
407.167
589.131
609.023
458.972
602.02
564.998
591.704
580.295
594.211
603.274
510.812
573.56
609.309
551.74
113.238
597.122
362.525
616.566
403.56
33.3736
587.357
565.247
580.097
467.228
580.415
582.645
596.458
586.132
95.7377
415.028
583.793
533.292
595.225
622.741
616.632
249.832
576.008
326.906
79.7676
612.902
586.485
536.781
603.059
595.114
589.938
560.117
125.077
132.131
619.353
365.024
32.5967
538.5
583.399
597.949
47.7842
572.928
600.025
600.457
560.14
528.591
595.261
210.565
51.2479
299.948
597.926
45.2935
574.541
573.726
593.167
490.134
110.187
32.0496
565.365
583.363
439.805
489.404
555.052
93.5937
554.499
366.403
33.8235
63.7761
593.767
580.959
612.862
567.268
615.51
579.272
50.2911
522.482
506.733
42.7148
583.914
595.872
595.599
481.727
74.2522
95.4848
518.416
415.569
568.637
592.633
36.1375
31.7983
577.045
128.882
599.698
598.195
619.31
572.396
532.076
611.016
584.758
507.131
234.266
81.4765
533.585
555.612
584.008
51.0421
582.584
100.699
542.652
609.421
66.1127
598.134
378.633
558.044
63.0643
613.763
611.54
31.4463
597.443
559.315
32.8858
77.7901
204.52
511.929
581.829
580.505
113.21
561.412
571.914
588.646
535.017
54.8995
592.81
596.814
60.5128
36.9456
34.1727
509.882
576.972
561.655
561.887
589.602
568.674
525.702
593.347
469.348
531.996
33.2993
594.15
347.781
589.382
582.256
599.031
554.916
540.977
565.904
595.05
54.252
325.804
505.166
590.956
582.698
540.174
127.182
226.681
594.289
539.237
589.805
595.051
587.97
592.22
529.828
597.316
213.546
594.953
589.745
48.4335
623.593
321.921
86.7456
525.921
592.001
600.083
464.04
595.395
619.717
555.723
302.158
552.916
553.563
325.721
116.005
754.057
584.553
594.826
370.741
434.145
408.804
109.81
612.918
119.804
156.639
586.107
369.768
101.701
575.011
589.458
534.065
596.17
46.9243
488.364
38.6262
503.947
620.133
104.251
603.267
596.284
427.566
596.534
602.926
594.88
618.838
504.257
62.8713
113.084
547.369
69.1427
47.8073
552.011
595.688
576.667
108.116
368.872
72.9663
557.513
591.218
526.242
159.282
614.089
883.965
604.241
588.492
489.806
554.996
562.707
592.726
599.515
617.592
601.325
598.014
609.314
45.3471
66.705
94.0405
588.434
550.679
188.568
261.529
535.215
509.484
575.954
567.406
618.19
131.945
561.846
599.552
537.458
591.507
412.723
588.635
152.215
597.386
559.394
612.123
613.511
488.004
580.005
541.963
73.0825
601.051
85.0801
592.006
423.883
748.218
80.8216
592.356
351.2
40.6924
619.05
599.535
578.839
596.548
602.526
68.3847
42.1234
606.909
584.684
364.801
485.728
548.071
569.786
598.817
137.7
459.126
589.873
587.387
490.117
66.991
41.6937
321.606
33.1287
60.041
595.561
588.744
604.623
115.062
591.406
597.264
553.837
595.122
551.014
551.28
547.05
545.94
548.34
549.789
556.067
562.667
600.694
585.794
597.442
623.288
552.521
548.935
621.958
55.184
601.423
554.505
578.84
33.5558
595.194
554.305
498.086
61.0519
597.761
592.579
520.265
598.98
595.216
543.164
543.433
577.237
67.2396
300.787
547.574
134.344
132.444
595.531
610.435
615.482
608.344
547.793
467.702
575.523
562.462
43.9494
562.468
67.1939
595.9
537.761
589.043
607.723
564.55
444.525
126.118
187.042
48.0189
99.2118
596.169
577.623
612.945
599.665
599.374
573.491
47.9997
321.988
572.487
628.085
178.074
578.095
588.635
534.008
567.768
584.909
590.705
595.747
600.348
52.9389
585.132
598.056
107.907
537.901
525.269
606.937
130.324
67.662
544.443
600.651
33.0136
66.0942
576.056
467.279
590.713
78.4696
417.382
619.79
198.826
562.832
541.384
109.549
49.5814
130.818
618.688
594.116
592.464
417.068
602.015
598.507
113.763
396.152
573.646
601.837
55.8602
126.861
619.831
155.603
410.333
591.472
621.41
91.7262
615.413
504.615
563.67
54.357
610.311
143.857
106.065
97.6959
169.2
591.139
527.711
165.443
346.825
105.006
390.988
583.485
151.804
617.275
109.566
595.066
585.957
525.521
522.698
609.797
595.607
593.291
613.168
606.971
310.412
126.953
42.1245
40.9317
496.585
312.524
514.013
517.49
598.029
611.195
590.805
596.112
45.9107
538.044
196.13
616.245
113.19
590.695
542.543
578.545
66.7896
588.145
522.297
41.6637
107.137
353.738
589.908
586.295
118.559
260.849
66.1639
594.665
608.942
618.54
604.556
62.1952
602.811
40.9342
334.804
610.647
615.219
35.8118
45.1076
585.074
502.183
576.295
527.906
33.1786
530.182
535.765
111.41
546.49
592.912
581.968
560.371
582.966
96.0722
88.0443
597.145
544.498
583.062
583.647
614.267
542.36