/*--------------------------------*- C++ -*----------------------------------*\
| =========                 |                                                 |
| \\      /  F ield         | OpenFOAM: The Open Source CFD Toolbox           |
|  \\    /   O peration     | Version:  v2012                                 |
|   \\  /    A nd           | Website:  www.openfoam.com                      |
|    \\/     M anipulation  |                                                 |
\*---------------------------------------------------------------------------*/
FoamFile
{
    version     2.0;
    format      ascii;
    class       volVectorField;
    location    "550";
    object      ddtCorrDdt0(U);
}
// * * * * * * * * * * * * * * * * * * * * * * * * * * * * * * * * * * * * * //

dimensions      [0 1 -2 0 0 0 0];


internalField   nonuniform List<vector> 
14479
(
(0.00515432 0.0104307 0)
(0.0132863 -0.00743042 -1.23153e-20)
(0.00363259 -0.00125775 -8.31192e-21)
(-0.00111088 -0.00047479 9.31275e-22)
(-0.0266135 0.0513774 0)
(0.00731622 0.0152789 -4.23696e-22)
(8.20394e-05 -0.000955683 2.3983e-21)
(5.33312e-07 0.000126665 -5.85699e-21)
(5.54243e-05 -0.00319212 0)
(0.044074 -0.00101877 0)
(0.0574597 -0.00173971 -3.77652e-20)
(-0.0028117 -0.00155163 5.09468e-21)
(-0.00743142 0.00114764 -1.30399e-20)
(-0.00783541 0.000770194 -4.86268e-20)
(-0.0105897 -0.00225258 0)
(0.00724029 -0.0299836 1.9003e-20)
(0.0023324 0.0324375 1.44962e-20)
(-0.0121603 -0.00208111 1.34676e-21)
(0.0207789 0.0394201 -1.21496e-20)
(0.00360275 -0.00368391 -1.29958e-20)
(0.000553083 0.000141117 0)
(0.00369776 0.00219247 6.33159e-21)
(0.033589 0.00746507 -9.95721e-21)
(0.00350895 0.014598 3.95414e-20)
(-0.000750455 0.00344426 3.96269e-21)
(-0.0011309 -0.00175931 -3.50626e-20)
(0.0184237 0.00492083 7.52676e-20)
(0.0416072 -0.0012331 -4.84592e-21)
(0.0275894 0.0277359 -1.55052e-21)
(-0.0106983 -0.00221222 1.50947e-21)
(-0.0199259 0.00812407 2.82175e-21)
(0.0209936 0.0120993 0)
(0.0183932 0.0406767 1.49812e-20)
(6.12571e-05 0.000420599 7.27786e-21)
(-0.000450898 0.000306896 0)
(-0.000337199 4.72033e-05 4.25276e-22)
(0.000242677 -0.00239763 -3.87702e-22)
(0.0068889 -0.00696369 -2.21395e-22)
(0.00102255 0.000190229 3.87602e-22)
(-0.00974811 -0.192893 0)
(-0.0103586 -0.00287952 1.19354e-20)
(-0.000119952 0.0030041 0)
(-0.00259432 -0.0117539 -5.64808e-21)
(0.000165405 0.00306669 0)
(0.0418749 -0.00293536 -1.60715e-20)
(-0.0110896 0.0113724 0)
(-0.00863557 -0.00154083 0)
(-0.0218956 -0.00404025 -2.97288e-21)
(-0.000176455 0.00220086 4.71465e-21)
(0.00938884 0.0450045 -5.55502e-19)
(0.000648154 0.000331861 0)
(0.0290058 0.0451318 -4.04038e-21)
(0.0419404 -0.0969831 0)
(0.00568375 0.0347013 -7.13832e-20)
(0.00175565 -0.000619855 -5.74079e-21)
(0.00120163 -0.000177473 1.73216e-22)
(-0.0122677 -0.00295659 -2.18101e-21)
(0.0653405 -0.0436954 0)
(-0.000373591 3.12923e-05 0)
(0.00659997 0.0483087 0)
(0.00687944 -0.0001919 -2.3452e-21)
(-0.000170651 0.000776587 0)
(0.00552463 -0.0521293 3.03827e-20)
(0.00437962 -0.0184353 1.24054e-20)
(-0.045092 -0.0523487 -1.30373e-20)
(0.0370347 -0.0261286 0)
(0.00258584 0.00357522 0)
(0.00344842 -0.00697308 3.09387e-21)
(0.0525376 -0.00672308 1.04368e-20)
(0.0540314 0.0319421 0)
(-0.0159644 0.0184426 2.04486e-20)
(-0.00202846 -0.0230032 0)
(-0.0019187 0.0170148 2.6077e-20)
(0.0114265 -0.00961992 -9.89585e-21)
(0.000620487 -5.62561e-05 0)
(-0.000157737 -0.00755576 -5.09496e-21)
(-0.0158085 0.0236056 -1.20982e-18)
(-0.00983796 0.00126142 -4.11559e-21)
(0.031216 0.0348533 -1.58782e-21)
(-0.0182216 0.0199749 -2.76654e-20)
(0.0240412 -0.00891385 0)
(0.000104028 -0.000129861 3.51872e-21)
(-0.000174435 0.00123155 5.23039e-22)
(-0.00977753 -0.00622064 0)
(-0.000778827 0.00207677 4.79658e-22)
(-0.0167394 -0.00279362 0)
(0.0150409 -0.00525876 -4.2779e-20)
(0.000581216 -0.00173611 1.2068e-21)
(-0.018514 0.0228068 2.53843e-20)
(0.00252518 0.000650417 -1.39838e-21)
(0.0639963 -0.0284615 -4.38252e-21)
(0.0394207 -0.0247073 9.68682e-22)
(0.046282 0.0110804 0)
(-0.0107613 0.00542565 7.54349e-21)
(-0.00247256 -0.000902979 -3.60612e-21)
(0.0192838 0.043362 3.15753e-21)
(-0.000305904 0.00101471 9.53481e-22)
(0.0600134 -0.0289903 1.40947e-19)
(-0.00108295 0.00405755 0)
(0.0870767 -0.0347456 1.00482e-21)
(-0.0134187 0.00516324 0)
(0.0682675 -0.0410403 0)
(0.00381709 0.0288034 0)
(0.00028115 -0.000262598 0)
(-0.00159178 0.00439626 1.46713e-21)
(-0.000313263 3.57355e-05 1.84914e-21)
(-0.0538764 -0.0545723 8.16355e-21)
(-0.00188938 0.0169419 -2.03364e-20)
(-0.0063436 -0.00216551 9.75018e-22)
(-0.010438 -0.0026918 -1.90929e-20)
(-0.000492543 0.0017898 1.1692e-21)
(0.000192315 0.00789564 0)
(-0.0354436 0.00889168 2.39777e-21)
(0.00788087 0.0516988 1.41746e-19)
(-0.0126302 0.0212363 0)
(0.00365549 0.00384795 -1.85546e-21)
(0.00265433 0.00173273 0)
(-0.0123766 -0.0589019 5.01252e-20)
(-0.00527375 0.00277269 -7.59739e-24)
(0.0164421 -0.0504645 2.32518e-20)
(0.000227186 -0.000113477 1.66147e-21)
(0.000314787 -0.00061149 0)
(0.0208682 0.0125535 0)
(0.00266631 0.00231248 -4.74661e-21)
(0.018103 0.0216137 2.41066e-21)
(-0.00045604 0.000269226 1.59552e-21)
(0.00112105 0.00317921 -2.70341e-21)
(0.00220158 -0.00285521 8.9481e-22)
(-0.000351828 0.000230952 0)
(0.0637489 -0.041138 0)
(-0.000102319 0.000136657 1.58772e-21)
(0.0620963 0.0206344 -1.13909e-20)
(0.0135117 -0.0119378 0)
(-0.000282685 0.000472768 -2.9483e-21)
(-0.0112712 0.0133711 4.88883e-20)
(0.00609175 0.026616 -1.90549e-21)
(0.0488339 -0.219289 -2.30244e-20)
(0.00020318 -0.00222681 -3.03804e-22)
(0.0289499 0.0430023 2.12061e-21)
(0.00241742 0.00054899 -1.30193e-20)
(-0.000481437 0.00128397 4.9086e-21)
(-0.00290155 -0.0150827 -8.41177e-21)
(-0.000339231 0.0101378 0)
(-0.157993 0.00828033 -1.14417e-19)
(0.00936826 -0.00473078 2.5075e-19)
(-0.00108212 0.00108464 -8.31154e-22)
(0.0342356 0.0316403 0)
(0.000843155 -0.00016234 5.05081e-21)
(-0.000561678 0.0244489 0)
(0.00542235 0.000644283 -8.20952e-22)
(0.0176349 0.0428085 -5.97797e-21)
(0.00359354 0.00616225 1.02819e-20)
(0.000479489 0.000183649 1.09284e-21)
(0.00413648 0.0232057 -8.61548e-20)
(-0.00335198 0.0309715 0)
(0.00072184 -0.000815369 -8.00744e-22)
(0.0187954 -4.08404e-05 -6.00473e-21)
(-4.60369e-05 -0.000665347 1.15595e-21)
(0.013448 -0.0241778 3.78364e-21)
(0.030041 0.0363771 2.81177e-21)
(0.018469 -0.00266122 1.41355e-20)
(0.0511573 0.0182949 -1.3585e-20)
(0.0272805 0.0378413 3.65482e-21)
(-0.0104758 -0.0196627 -1.14842e-18)
(0.0716001 -0.0264132 2.71103e-22)
(-0.0214263 -0.00486446 2.27761e-21)
(-0.000502103 0.000637994 1.0191e-21)
(-0.0328937 0.00366433 0)
(0.000743319 0.000911875 0)
(-0.000435496 0.000716228 8.28413e-22)
(-0.000283455 0.000875497 -4.30493e-20)
(-0.012307 -0.00298509 0)
(0.00115834 -0.000857412 -3.36622e-21)
(-0.00505951 0.0063641 -3.21045e-20)
(0.000788437 -0.0052197 1.3915e-20)
(-0.0107286 0.0925631 -2.41607e-20)
(0.000623456 -1.25614e-05 -1.15759e-21)
(-0.000564306 0.00285892 -6.44821e-22)
(-0.00600031 0.00558859 0)
(0.00182307 0.000380691 -3.29332e-21)
(0.093367 0.0988196 -3.83927e-20)
(0.000615566 -0.000288623 0)
(-5.2742e-05 0.00092149 0)
(0.0455468 0.0113168 -7.19136e-22)
(0.000654949 -0.000661995 0)
(0.00646077 0.0267652 -1.0769e-20)
(0.000206467 -0.0143768 1.67729e-21)
(0.00401339 -0.0118003 3.97747e-21)
(0.0703156 0.0552564 5.12649e-21)
(0.124855 -0.588543 5.11136e-19)
(0.000617682 -0.00114344 8.66559e-22)
(0.0845039 -0.0331306 -1.57738e-21)
(-9.18282e-05 9.53482e-05 0)
(0.000153202 0.000408289 -4.1686e-21)
(-0.00751874 -0.0241929 -2.36601e-20)
(0.0284828 0.0369654 -4.8471e-21)
(0.0716312 0.092333 -5.89536e-21)
(0.0694082 -0.0350511 -4.77419e-21)
(0.0101165 0.00628681 -7.90483e-22)
(0.0016212 -0.00351257 -1.439e-20)
(-0.00131272 -0.000622788 5.10508e-21)
(0.0324082 0.0278385 -8.82681e-21)
(0.0582044 0.0352618 -2.39349e-21)
(0.0423334 0.0394221 2.25769e-20)
(-0.0117359 -0.0202514 1.6075e-20)
(0.00187975 0.00462679 3.52053e-22)
(0.00109231 -0.00183416 0)
(-0.0165415 -0.00468427 -3.11127e-18)
(-0.000142659 0.0014029 0)
(0.0172196 0.044113 1.15549e-19)
(0.0195228 0.0289021 2.65456e-21)
(0.0630692 -0.0290488 0)
(0.00185525 -0.00102789 0)
(0.0043011 -0.00509245 -4.30825e-21)
(0.000637441 0.000546321 -5.32521e-21)
(-0.000726156 0.0343027 3.37808e-19)
(0.0803883 -0.0254123 8.68249e-22)
(-0.00600022 -0.00116982 0)
(0.00019804 -0.00194951 0)
(-0.00615488 0.00854945 3.74173e-20)
(0.0361056 -0.0427797 0)
(0.0500297 0.021005 2.29101e-22)
(0.0774957 -0.030386 0)
(-0.00112226 0.00142595 2.09519e-21)
(0.0418602 0.0150811 5.13219e-20)
(0.0138009 0.014852 0)
(0.00100413 -0.00447201 -6.46287e-22)
(0.00121826 -0.0033651 0)
(-0.0120372 0.0155282 0)
(0.000924414 0.00092517 -9.67852e-22)
(0.00293825 -0.00374275 2.20036e-21)
(4.09635e-05 -0.000285581 7.11011e-22)
(0.00327938 0.00595756 0)
(-0.00966609 -0.000778548 -1.69366e-20)
(-0.000675023 -0.00897079 -6.71869e-22)
(-0.000489425 0.00160951 -1.87326e-22)
(0.0172845 0.000487733 -1.08406e-21)
(-0.0821482 -0.0356786 6.8635e-21)
(0.000113628 -0.00149352 5.93227e-22)
(-0.00308608 0.00897089 -1.20971e-20)
(0.0136443 0.0152355 -3.57241e-21)
(-0.024708 -0.00876784 5.92965e-21)
(-0.00118178 0.000128701 -1.29027e-21)
(-0.000299018 -0.0481934 7.67523e-20)
(0.0699978 -0.0257617 -2.47049e-22)
(0.0188363 0.0299537 -2.68813e-21)
(0.000490172 -0.000463484 0)
(0.0018837 0.000117669 0)
(-0.00928278 0.0071914 6.32162e-21)
(0.00835155 -0.0551708 -5.51764e-20)
(7.30346e-06 0.000119829 5.8118e-21)
(-0.0220947 0.00205832 1.91599e-20)
(0.000342778 -5.13703e-06 -2.23833e-22)
(-0.000286367 0.000234991 -1.15231e-21)
(0.000665031 -0.0604392 -1.19753e-20)
(-0.0033641 0.039717 -2.02756e-21)
(0.000595772 -0.00202108 -4.25293e-22)
(0.029686 0.0223501 3.27464e-20)
(-0.00172001 -0.0212857 0)
(0.000698483 0.0246226 -1.24323e-20)
(0.0274641 -0.00924002 -6.40558e-21)
(0.0645227 0.0168124 3.70603e-21)
(-0.0110672 -0.0196005 2.35342e-20)
(-0.00549694 0.0111743 -7.51243e-20)
(0.000473914 -0.000738745 0)
(0.012988 -0.0134624 1.23857e-20)
(0.00076502 -0.00109184 0)
(0.0787487 -0.0295457 -4.6371e-21)
(-0.00183003 0.0089407 -1.92743e-20)
(0.0477847 -0.00727221 9.96649e-21)
(0.030703 0.0319482 0)
(0.00106664 -0.000994508 -2.49564e-20)
(0.0493036 -0.00336349 0)
(0.000481147 -3.22266e-05 0)
(0.000984454 -0.000806424 -1.43365e-21)
(0.0753123 0.0140147 -1.17714e-21)
(-0.00334973 0.0153815 3.09148e-21)
(0.000364131 3.09879e-05 -1.71967e-21)
(0.0601616 0.010207 1.19722e-20)
(0.0420871 0.0259849 -1.19265e-22)
(0.0423732 -0.00503841 -7.74652e-22)
(0.0572627 0.0037388 0)
(0.0235017 -0.00501289 0)
(0.0215574 -0.0095952 0)
(0.000161996 -0.00229894 7.99669e-22)
(9.66669e-05 -0.0025779 8.75539e-22)
(-0.00664948 -0.0462376 -4.13701e-21)
(-5.51053e-05 0.00106758 2.28509e-21)
(-0.00903826 0.00448798 -1.04074e-20)
(0.0110997 0.0010754 -1.45347e-20)
(0.00863185 0.0244743 -7.22235e-21)
(-0.0104312 -0.000220634 7.16231e-21)
(0.0123555 0.051991 -2.9819e-23)
(-0.0019736 0.0166773 -3.65335e-21)
(0.00125376 -0.0013519 0)
(-0.00235502 0.00880882 -1.37954e-19)
(0.00115224 -0.00039483 0)
(-0.0119136 -0.0116586 5.12738e-21)
(-0.000409894 0.000680415 3.11529e-23)
(0.00484713 0.0128166 -1.99155e-20)
(0.000585313 0.000554348 4.49492e-21)
(0.0413615 0.01789 -1.18316e-21)
(0.000380358 0.000503244 -2.6597e-23)
(-0.000357974 0.00812656 1.59086e-20)
(0.00631222 -0.000669574 -5.34781e-20)
(-0.010444 -0.00203295 -4.6123e-21)
(0.0159505 -0.00958069 5.55982e-21)
(0.0404408 0.0259958 0)
(-0.00101533 0.00360877 -5.67378e-22)
(-0.000719704 0.0028046 -7.99773e-20)
(0.0499916 0.021161 0)
(0.00306206 -0.126136 0)
(-0.0410331 0.0807915 -8.15046e-21)
(0.00083859 -8.66132e-05 -4.6689e-21)
(-0.00287058 0.00142081 -3.97695e-22)
(-0.000134987 0.000457016 -1.35135e-21)
(0.000750474 -0.0011446 8.43255e-21)
(0.00634512 -0.0101709 0)
(0.000894769 -0.00217205 -7.72382e-22)
(0.000257715 -2.63657e-06 -7.00223e-21)
(0.00209449 -0.00321148 0)
(8.62555e-05 -0.00228585 -9.3637e-22)
(0.00343031 -0.00430966 -1.83311e-21)
(-0.111839 -0.120318 0)
(-0.00690999 0.0242656 0)
(-0.0376177 -0.0147235 2.73809e-22)
(0.0229332 0.0375682 0)
(0.0321623 0.0814729 0)
(0.0563951 0.0177256 0)
(-0.000251385 -0.000413167 1.65407e-21)
(0.00067957 0.00150751 0)
(-0.000770495 0.0135 0)
(0.0647668 -0.0341103 9.54194e-22)
(-0.00968195 -0.000896873 6.66429e-21)
(-0.00541244 0.0220596 3.26997e-21)
(0.000175994 0.000231213 0)
(0.00428985 0.00338191 0)
(-0.00111921 0.0412997 -2.10428e-22)
(-0.0434317 0.0200049 1.2127e-19)
(0.000889571 0.000531972 -1.86829e-21)
(0.0236857 0.0334577 0)
(0.00434232 -0.000501738 0)
(0.00759496 0.012809 8.08199e-21)
(3.46542e-05 0.000126856 0)
(-0.00121646 0.0101511 1.13031e-20)
(-0.000590577 0.000679734 -8.22011e-22)
(0.044756 -0.0168877 0)
(0.0841751 -0.0330203 -7.18913e-21)
(-0.00053527 0.000462762 1.5804e-21)
(0.00265689 0.00446115 -9.61255e-20)
(-0.0108298 0.00471263 -8.26508e-21)
(0.0589444 0.00617176 0)
(0.00268197 0.00408733 -1.62008e-21)
(0.00102303 0.00155118 0)
(0.0729736 0.0135453 0)
(0.000526319 -0.00069737 -4.92751e-21)
(9.75539e-05 4.57654e-05 3.40321e-21)
(0.0519186 0.0197196 1.51862e-21)
(0.00140346 0.0011883 0)
(0.00220035 -0.000162409 8.92217e-25)
(0.000995787 -0.00346726 1.12226e-21)
(0.00629098 0.023052 0)
(0.0337036 0.0137602 -3.62558e-21)
(0.00192886 0.00110102 0)
(0.0607088 0.00995709 -1.24388e-21)
(-0.00130946 0.00129078 0)
(0.0210217 0.027244 6.75814e-21)
(-0.010028 -0.00132707 2.94489e-21)
(0.0574782 0.0171819 7.72605e-22)
(0.027541 0.000636029 1.6214e-20)
(-0.0356793 0.00706601 0)
(0.0121619 0.0257151 1.07633e-21)
(-0.00850578 2.69543e-05 -1.4868e-21)
(0.151758 -0.0596202 0)
(0.00116698 -0.0105203 2.10021e-20)
(0.0767427 0.0159834 3.45917e-21)
(0.0103365 0.00496058 1.32623e-20)
(-0.00666275 -0.0211203 2.59732e-21)
(0.0398265 0.00930031 1.06379e-20)
(0.00186099 0.000195017 -5.01435e-21)
(0.00105114 0.000395837 0)
(-0.000329252 8.20924e-05 2.29175e-21)
(0.0195101 0.0201394 5.23407e-21)
(-0.022197 0.00280998 0)
(0.0100223 0.0249861 0)
(0.0245657 0.00666128 3.13125e-19)
(0.000411054 -0.000354296 1.06052e-21)
(0.00812851 0.0262452 -3.29807e-20)
(-0.000185659 -0.00254167 7.35255e-22)
(-0.0280212 0.00721082 1.63928e-21)
(0.00781295 0.0215927 2.38982e-21)
(-0.00223568 0.0014861 -1.30382e-21)
(-0.00606889 0.0881026 2.15798e-21)
(-0.0100282 -0.00200936 -6.35405e-21)
(0.0464463 0.0394421 -3.3171e-21)
(0.066298 -0.031848 4.75488e-21)
(-0.211807 -0.189395 4.01525e-20)
(0.368486 -0.0360253 0)
(0.00101336 0.000193673 -1.64288e-21)
(9.49427e-05 -0.000359009 5.60117e-21)
(0.0590222 0.0172177 1.31798e-20)
(0.0486674 -0.00261292 -3.30873e-22)
(-0.00410106 0.00789366 1.16122e-20)
(0.000559615 -0.00254604 -9.90055e-20)
(-0.00739761 -0.00274549 -2.87424e-20)
(-0.000270047 0.00237291 -1.63589e-20)
(-0.00611583 -0.00141465 -3.66282e-22)
(0.0410576 0.017259 -1.83837e-21)
(-0.0126157 0.091287 0)
(0.000199288 0.00030597 0)
(0.0545685 -0.00394528 0)
(-0.0153064 0.0140978 -7.17449e-21)
(0.000458764 -0.000385894 -7.33834e-22)
(0.000141704 -0.000444654 -3.72341e-21)
(-0.220534 0.0966917 2.12257e-19)
(4.93894e-05 0.000193158 -3.57196e-21)
(-0.00736298 0.0852293 -6.11726e-21)
(0.0050349 -0.0301848 0)
(9.27711e-05 -0.000128701 -3.47064e-21)
(0.0031075 0.00871481 1.89217e-21)
(0.00121574 -0.00230893 -7.69194e-21)
(0.0138309 0.00888901 1.29924e-20)
(0.0133464 0.00826444 -4.49881e-21)
(-0.0194757 -0.00502452 -5.39522e-19)
(0.0193464 0.0384973 0)
(0.00802614 -0.00246749 3.68541e-21)
(0.0509938 0.0203456 -1.67406e-21)
(0.000571572 -0.000115036 1.17978e-21)
(0.00470849 -0.00865553 -8.10639e-21)
(0.0214971 0.242937 6.39909e-20)
(0.0326811 0.020247 0)
(0.0159443 -0.000641104 -3.46561e-19)
(-0.00100884 -0.0015347 -9.55326e-21)
(-0.000434558 -0.000280566 7.55302e-20)
(0.0121284 -0.00245346 -2.72686e-21)
(0.0659218 -0.0178624 0)
(-0.00409759 -0.0213563 4.50558e-20)
(0.0493168 -0.0394145 0)
(-0.0385134 -0.0169218 -3.21501e-22)
(0.0164373 0.0163959 7.7761e-19)
(0.0427611 -0.00682426 -1.54864e-21)
(0.0604121 -0.00809072 0)
(-0.00595312 0.00458289 0)
(0.000519776 5.29824e-05 -1.06512e-21)
(-0.0154771 0.0311239 0)
(0.00046142 0.00477028 0)
(0.00299903 -0.0345244 -4.46934e-19)
(-0.00330943 0.00882568 -9.83512e-21)
(0.000122287 0.000912655 -1.57059e-21)
(-0.00100602 -0.00339985 -3.30429e-21)
(-3.32002e-05 -0.00243492 0)
(0.172395 0.0291902 -4.49057e-20)
(-0.00879151 0.0186977 -1.17986e-20)
(-0.021722 -0.00145514 3.3855e-22)
(0.000173201 0.00107528 5.37409e-21)
(0.00799988 0.0296994 2.92421e-20)
(0.000176075 0.000309104 0)
(-0.0190788 0.00282925 0)
(0.0206544 -0.00364166 2.18171e-20)
(0.0196049 0.0211578 0)
(0.0010991 0.00686823 1.00299e-21)
(0.000891753 -0.000512479 -4.80925e-22)
(0.0120983 -0.00756958 4.0789e-21)
(0.00270511 0.0443192 -9.98883e-20)
(0.0159498 0.011983 1.85634e-21)
(-0.00987698 -0.00214258 7.54553e-21)
(0.000919954 -0.00230503 0)
(-0.00359653 0.0155032 0)
(-0.009045 -0.000405487 -1.61691e-20)
(-0.000296739 0.000345177 7.43149e-23)
(-0.000299787 1.89556e-05 -3.06152e-21)
(0.000351072 -1.40297e-05 -1.97671e-21)
(-0.0099805 -0.00109133 0)
(0.0151827 0.0379506 2.7903e-21)
(0.00347015 -0.000399556 1.09792e-20)
(0.0509819 0.0115675 -1.23342e-19)
(0.0220054 0.0194807 1.36582e-21)
(-0.0101444 -0.00208176 0)
(-0.00751206 -0.0152197 1.19749e-21)
(0.027729 0.0306058 1.16248e-19)
(0.0018974 0.00326423 0)
(-0.00822433 0.00565963 1.27654e-20)
(8.22e-05 -0.0236092 9.85223e-21)
(0.0558483 0.0373194 -4.01001e-20)
(-0.00293688 0.00560858 -4.60542e-21)
(-0.0122662 0.0204154 0)
(3.74343e-05 0.00063884 1.39172e-21)
(0.0462724 -0.00393538 -1.05135e-20)
(0.137743 0.254826 -5.0718e-20)
(0.0687935 -0.0279773 0)
(0.0164343 -0.00293665 1.20117e-20)
(0.00041504 -0.00113005 -1.69322e-20)
(6.27516e-05 0.000216269 0)
(0.086597 -0.0331304 8.69219e-22)
(-0.00736264 -0.00129994 1.37507e-21)
(-0.000249755 0.000946807 1.52776e-21)
(0.00187207 -0.000466042 -3.36891e-21)
(0.00930374 0.006539 4.52415e-21)
(-0.0510758 -0.00250387 2.83926e-19)
(-0.00151966 0.00113775 -5.00632e-21)
(0.00415694 -0.00667397 -2.64571e-23)
(-0.0447206 -0.000863722 -1.91638e-20)
(-0.00116353 0.0130135 1.93548e-22)
(0.00130429 -0.000722986 -2.11275e-21)
(-0.00777264 0.00424211 -1.00655e-20)
(-0.0949365 -0.115843 0)
(0.0200914 0.0436536 -4.74687e-21)
(-0.00140269 0.00318517 0)
(7.04764e-07 0.000729034 3.39898e-21)
(-0.00959364 0.00157578 6.34897e-21)
(0.0052028 -0.00123541 -7.99903e-21)
(-0.012823 0.00153908 0)
(-0.000320879 0.00348015 0)
(0.0627503 0.0146745 -6.38699e-21)
(-6.2508e-05 0.0003918 2.08484e-21)
(0.000529057 -0.000806962 6.6987e-22)
(0.000139031 0.00111199 1.32779e-22)
(0.000958123 -0.00117214 1.22779e-22)
(-0.0225727 -0.00547191 -6.45098e-22)
(0.0393072 0.025614 0)
(0.0221863 -0.00922562 8.30742e-21)
(0.0180865 0.0190745 0)
(0.013971 -0.00670674 -1.0863e-20)
(-0.0062634 -0.00258605 2.9367e-20)
(0.0642173 -0.0269609 0)
(0.0678199 -0.0203657 0)
(-0.00030857 -0.000154634 7.40153e-22)
(-0.000525318 0.00126834 0)
(0.0650657 0.0237069 4.39839e-21)
(-0.00967967 0.00336222 -1.50985e-20)
(-0.000183986 -0.00224913 0)
(0.0292751 0.0154441 0)
(0.0252415 0.0206399 -2.60525e-21)
(0.0169138 -0.00351432 -2.47547e-20)
(-0.000576657 -0.00116226 7.69285e-22)
(-0.00920859 -0.0143637 0)
(0.0480809 0.125346 1.89326e-19)
(0.0549473 0.0122071 -9.73083e-21)
(0.00614967 0.213325 0)
(0.0150536 0.0177781 1.93377e-20)
(-0.000408873 0.0151403 -8.26845e-21)
(0.000380705 0.00977993 -2.5748e-20)
(0.00201339 -0.0054439 -6.2509e-21)
(-0.0209483 -0.00356269 -4.40217e-22)
(0.00112152 0.000202772 3.37732e-23)
(-0.000164498 -0.00272075 7.58124e-22)
(0.0250224 0.0349597 0)
(-8.19405e-05 -0.00211263 1.7774e-21)
(0.00102376 -0.00027422 0)
(0.00137633 -0.00160478 1.45184e-20)
(-0.000335908 0.00491828 -4.40691e-21)
(0.0131352 0.074803 -4.07931e-20)
(-0.000271902 0.00041242 3.71942e-21)
(0.00014505 -0.00227976 -1.56652e-21)
(0.0232428 0.0212786 6.64975e-21)
(0.00220339 0.000589942 -3.61115e-21)
(-0.0632314 0.0160142 2.01597e-20)
(-0.0104388 -0.0020303 1.14129e-20)
(0.0112439 0.00980575 9.98096e-21)
(-0.0103 -0.00219136 -7.05193e-20)
(0.00528137 -0.00566764 -1.47254e-20)
(0.032029 0.0228282 2.057e-21)
(0.000403282 -0.0104407 1.35172e-21)
(0.0447168 -0.0379683 0)
(0.000107873 -2.77714e-05 3.75075e-21)
(0.00336961 0.0165945 7.89806e-20)
(0.00612625 -0.0376958 1.03258e-21)
(4.12721e-05 0.000273155 -3.06565e-21)
(-0.000624367 0.00193007 -1.78404e-21)
(0.000959117 0.00131002 -1.70542e-21)
(-0.00432385 -0.00275239 0)
(-0.000189115 0.000366627 -6.31241e-21)
(0.0305635 -0.0320279 -3.06897e-22)
(0.030745 0.0155139 1.80899e-20)
(0.00593227 -0.000112564 -4.35415e-20)
(0.00673508 -0.000311713 4.63365e-21)
(-0.0453313 -0.0782783 3.68681e-20)
(-0.000460821 0.000659763 0)
(0.00101566 -0.00936556 -5.23046e-20)
(0.00802641 0.0275437 -5.27156e-21)
(-0.00646431 0.00449331 0)
(-0.000640275 0.000366467 -8.87222e-22)
(0.0262133 -0.000807924 0)
(0.00021935 -0.00345539 4.46145e-22)
(0.00107026 0.00740131 -1.36868e-20)
(-9.60744e-05 0.000462163 -2.33398e-21)
(-0.000123995 0.000402372 -3.86056e-21)
(0.0830133 -0.0323056 0)
(0.0580491 0.0171696 0)
(-0.0204469 -0.00289721 -1.97547e-22)
(0.0036164 -0.0204434 6.69459e-22)
(9.57659e-05 -0.000409848 0)
(0.000801572 -0.00145288 0)
(0.0673645 -0.011008 -9.08084e-21)
(-0.000231217 0.00405996 0)
(0.0509872 0.0358206 0)
(0.00024326 0.000242401 -1.99565e-21)
(6.47353e-05 -0.00255452 0)
(0.00622865 0.0178623 -4.30724e-21)
(0.00114073 -0.000118889 1.46146e-21)
(0.034348 0.0294993 0)
(0.000330894 -0.000687252 9.72148e-22)
(0.263173 0.390023 -6.43683e-20)
(0.0309568 -0.00609801 -3.56958e-21)
(0.0306289 0.0209401 -1.39732e-21)
(-0.000321437 0.000273008 1.31886e-21)
(-0.00197513 0.00442021 7.15123e-21)
(0.0307371 0.0232381 -1.53398e-21)
(0.000854567 -0.00171156 -1.58287e-21)
(0.0145237 -0.0263282 4.0018e-21)
(0.0023221 0.00174496 0)
(0.0144588 0.015908 7.1869e-21)
(0.00678212 -0.00443681 0)
(0.000746872 -0.000106257 5.48392e-21)
(0.000851969 -0.00135823 2.41149e-21)
(0.000514294 -0.00143353 8.90449e-22)
(0.0579092 0.0173031 0)
(-0.0296947 -0.056752 -5.32045e-20)
(0.0254086 0.0402844 -8.22363e-22)
(0.00145598 0.000517856 1.35009e-21)
(6.97112e-05 0.00036772 2.32021e-21)
(0.00255452 0.0127634 -2.04935e-21)
(0.00244415 0.00161486 -1.68929e-22)
(0.000554182 0.000762073 5.12563e-21)
(0.0344795 0.0302384 1.68428e-21)
(-0.0231423 -0.00535153 1.15717e-21)
(0.000231679 0.00136948 0)
(0.00059415 -0.000426246 1.98964e-21)
(0.00152258 0.000663771 -4.15772e-21)
(0.0849516 -0.0328067 6.84971e-21)
(-0.00556608 0.00524589 3.85034e-19)
(-0.000670446 0.00125301 0)
(0.000106535 -0.000423136 -6.34763e-21)
(0.0126639 0.000323843 1.97282e-20)
(0.00695621 0.00657022 -3.94789e-23)
(0.000528815 0.000451077 7.91921e-23)
(-0.00018025 0.000175974 0)
(-0.0576412 -0.0549903 1.04637e-18)
(0.0294707 -0.0101913 -1.04757e-21)
(0.000604294 -0.00203526 -3.12322e-22)
(0.0214756 -0.0139207 0)
(0.00552231 0.0241103 0)
(0.000358136 8.86534e-05 3.31688e-21)
(0.0628098 0.0236886 0)
(0.0558795 0.0126425 9.89866e-21)
(-0.000256954 0.000736535 -2.34866e-20)
(0.00594857 -0.0112734 -5.16411e-22)
(0.00205902 0.000317155 0)
(-0.0012895 0.00136609 1.58408e-20)
(-0.00131362 0.00666608 1.90328e-21)
(0.024314 -0.00471974 2.09219e-20)
(0.0388336 -0.0679398 3.3802e-20)
(0.000532331 -0.00105607 1.96672e-21)
(0.0143025 0.0155438 -3.74612e-21)
(-0.0176647 0.0154447 -9.77413e-21)
(0.0280089 -0.00636212 1.23486e-20)
(0.0160938 0.0369157 -8.3572e-22)
(0.0145934 0.00371961 0)
(0.000221114 -0.00157598 -8.50869e-22)
(-0.000829792 0.00256765 0)
(-0.010657 -0.00168589 -6.80664e-21)
(0.000194766 9.70018e-05 3.4596e-21)
(-0.000281778 0.000871225 1.97227e-21)
(0.0714467 -0.0254467 -8.63831e-22)
(-0.0102856 0.00450374 -7.10241e-21)
(-0.00111009 0.00405091 2.93067e-21)
(0.00150628 0.000557834 0)
(-0.217216 -0.370023 -1.54505e-21)
(0.0177927 0.0310145 0)
(0.000571147 -0.000338716 3.14887e-21)
(0.000251868 0.000199433 0)
(0.00243362 0.00519746 0)
(0.0327424 0.0139797 2.55813e-21)
(-0.0106225 -0.00242546 0)
(-0.361461 -0.400846 5.91366e-19)
(-0.0601359 0.247287 -3.58293e-19)
(0.0106808 0.0351302 -9.60632e-22)
(-0.0202074 0.0359247 0)
(0.0444944 0.0108612 5.15688e-22)
(-0.000467846 -0.00409809 8.3675e-22)
(0.00144 0.00124607 1.77111e-21)
(-0.00247588 0.00234284 1.76659e-21)
(-0.00360923 -0.0842456 0)
(0.000955423 0.000380895 -2.85611e-21)
(-0.0129363 -0.0820726 0)
(0.00228018 0.00300126 0)
(0.0414562 0.0266142 6.70188e-22)
(-0.0307375 0.002089 0)
(-0.010741 -0.0503997 -2.38756e-21)
(0.0660354 0.0277041 -8.412e-21)
(0.00114427 0.00118073 0)
(0.00914343 -0.00100241 0)
(0.0446904 0.00429553 5.71079e-21)
(-0.0237207 -0.0509983 0)
(-0.00127788 -0.00128912 1.00427e-20)
(0.032528 0.0206535 0)
(0.010512 0.0353307 -9.97501e-22)
(0.0278503 0.0158718 -2.49935e-21)
(0.00472566 -0.0074175 2.01192e-21)
(0.00537679 -0.0117253 3.05709e-20)
(0.046547 0.0224782 1.03888e-21)
(0.00415515 0.0238548 -1.55189e-20)
(0.0166807 -0.0267722 1.88346e-21)
(0.000636007 0.000204884 5.79826e-21)
(0.0397049 0.0167798 0)
(0.0213236 0.0365963 0)
(0.0129641 0.0389181 -1.3368e-18)
(0.0206187 0.0313349 1.08032e-20)
(-0.000518744 0.0020392 -3.09107e-21)
(0.0479899 -0.00923269 0)
(0.000581834 0.000163043 -4.6072e-21)
(0.0016005 -0.000962712 -1.16697e-22)
(-0.0148385 0.00684207 8.78916e-21)
(0.0154726 -0.0210063 2.52796e-20)
(-0.0128795 0.0316754 -1.3156e-20)
(-0.000109217 0.000325814 0)
(3.1335e-06 -0.00249222 4.59197e-22)
(0.0116327 -0.0317667 3.57015e-20)
(0.0588548 0.0166484 -8.90668e-22)
(-0.0351982 0.00400113 0)
(-0.0619718 -0.21713 0)
(0.00764719 0.00687962 7.45756e-22)
(0.00290038 -0.00234541 3.0482e-21)
(0.0359365 0.0257195 0)
(0.092467 0.0173784 2.30587e-21)
(-0.00172249 -0.0060019 1.03024e-22)
(-0.0144871 -0.0151602 -2.91704e-21)
(0.0691096 -0.0145434 -2.8852e-21)
(0.018176 0.0192739 5.96139e-24)
(0.000268921 0.000628381 2.8266e-21)
(-1.25746e-05 -0.000263456 0)
(-0.00738426 -0.00507407 0)
(-5.4851e-05 9.22528e-05 -5.08806e-22)
(0.00032525 0.00111427 -3.15046e-21)
(-0.000161897 0.0001107 0)
(-0.000396902 -8.38551e-05 -1.46892e-21)
(0.0233624 0.0255513 0)
(-0.0110421 -0.00986661 1.29023e-20)
(-0.000501205 -0.00431389 1.04919e-20)
(0.000516451 -0.00119596 9.61947e-22)
(0.00106748 -0.00117669 0)
(-0.000106874 0.000329476 6.76019e-21)
(-2.43193e-05 -0.00184979 1.07608e-20)
(6.43235e-06 -0.00038982 -3.49993e-21)
(0.0017925 -0.000839313 3.20359e-22)
(-0.00676008 -0.00227052 -1.61634e-21)
(-0.0228525 -0.0342392 4.898e-23)
(-0.0105496 -0.00258934 9.08398e-21)
(0.0206075 0.0199468 -4.52859e-21)
(0.0109011 0.00741641 -2.33201e-21)
(-0.00844676 -0.0208603 -1.39516e-19)
(-0.00250819 0.0187818 1.40072e-21)
(0.0024217 0.0010489 -2.7313e-21)
(0.0049604 0.00202301 0)
(-0.0187516 -0.0487249 -4.18546e-19)
(0.0435472 0.0108821 0)
(-0.000556133 6.46075e-05 4.06883e-20)
(0.0550704 0.0179227 2.19335e-21)
(0.000257122 -0.023531 1.76575e-20)
(-0.00348523 0.00627546 -1.32603e-20)
(0.0313689 -0.00153547 4.83514e-20)
(0.00041385 -0.0014123 -1.99876e-19)
(0.0639091 0.0137256 1.00185e-19)
(0.0467996 0.0219777 0)
(0.000734862 0.000563444 0)
(0.0416812 0.00102461 0)
(0.000537052 -0.000478688 1.88247e-21)
(0.0561966 0.0175566 -1.05712e-21)
(-0.0153702 0.0291988 -2.16449e-19)
(-0.0264119 0.00561673 2.20688e-21)
(0.00491518 -0.0598482 2.98672e-19)
(0.0525837 -0.00462053 0)
(0.0425627 -0.0182193 0)
(0.00851261 -0.000635777 0)
(0.00114657 0.0056764 -2.61791e-22)
(0.073519 0.0145748 -7.53866e-22)
(-0.00811709 -0.0020424 3.46807e-21)
(0.0124756 0.0104349 -6.73365e-21)
(0.00569053 -0.00549545 2.16201e-21)
(0.0162529 0.00407076 -8.78273e-19)
(0.0392307 0.0195617 0)
(0.000840307 -0.000509887 -4.06553e-21)
(-0.0108895 0.0727152 0)
(-0.0276458 -0.0422571 1.47165e-21)
(0.000173161 0.000287123 1.32069e-21)
(0.00412524 0.0108789 -1.1063e-21)
(-0.0100048 0.00153874 3.90148e-21)
(-0.0339772 -0.00484675 -1.14582e-22)
(0.00361989 -0.000854016 -4.31074e-21)
(0.0278228 0.0344916 3.41887e-22)
(0.000464376 -0.000567189 0)
(0.00105931 0.0158057 -1.1954e-20)
(0.0716437 0.0145512 0)
(0.0302359 -0.0291586 0)
(0.0574443 0.0172747 0)
(-0.0925223 -0.44562 2.41101e-19)
(-0.00942105 -0.00340658 -3.14173e-21)
(0.0013042 0.0314928 2.50126e-20)
(0.00801629 -0.0105887 -4.50991e-20)
(-0.00344509 0.00885777 -7.42078e-21)
(0.0186197 0.0430512 3.44056e-21)
(0.00721915 -0.0148128 -3.57443e-20)
(-0.0141978 -0.00601591 0)
(0.00155568 0.0197476 1.65183e-20)
(0.000404124 0.00032084 -2.78581e-21)
(0.0551946 0.00012943 2.18943e-22)
(0.00857763 0.00226233 0)
(0.000204285 0.00029289 -7.4247e-23)
(0.0330895 -0.0258622 0)
(-0.00856306 -0.00608304 0)
(-0.00920738 -0.00350654 -3.42617e-21)
(0.0183667 0.0334607 -1.0012e-20)
(0.00356003 0.0055208 0)
(0.00894089 -0.0117137 5.04211e-21)
(0.00755718 0.00751931 -2.12799e-21)
(0.0771745 -0.0229427 -3.02873e-21)
(0.00770104 -0.0144258 -6.28271e-20)
(-0.00963767 -0.0021823 1.0765e-21)
(-0.00173965 0.00931454 -9.9128e-21)
(-0.0134811 0.0040979 -8.96861e-21)
(0.00379164 -0.00349868 3.03201e-21)
(0.00350743 0.0116612 0)
(0.00234764 0.000941677 -4.40346e-21)
(-0.00600093 -0.0133946 -6.15813e-21)
(-0.00768832 -0.0066633 3.12252e-21)
(-0.291229 -0.0414534 -4.72578e-19)
(-0.0214298 -0.00197535 0)
(0.00197854 -0.000318082 5.56297e-22)
(0.00428117 -0.000744103 -6.97391e-22)
(0.000558427 8.28149e-05 -3.06028e-21)
(-0.0199942 -0.00470358 7.84368e-21)
(0.0266401 0.0249295 0)
(0.04989 -0.0112484 1.43679e-19)
(0.0317279 0.024211 7.09688e-21)
(0.0175818 0.0209146 -2.48415e-21)
(0.00591859 0.0424378 2.87314e-19)
(-0.00736271 -0.00168443 -8.13905e-22)
(0.00477966 -0.00737538 0)
(0.0861803 -0.0329954 0)
(0.114849 0.0748577 4.36064e-19)
(-0.0492798 0.0187513 -6.41329e-21)
(-0.000518741 0.000834942 6.87076e-22)
(-0.000373241 0.000902686 -8.16413e-21)
(-0.0015516 0.0165884 3.37351e-19)
(0.0732408 0.0139069 0)
(-0.000675184 0.00517064 8.37601e-22)
(0.033666 0.0167856 4.29541e-21)
(-0.00668374 0.00164843 0)
(0.000168447 0.000320529 -6.91402e-21)
(0.0144459 0.0132576 -2.37167e-20)
(0.079601 0.0216676 1.5858e-20)
(-0.0261161 0.0045531 -1.37861e-19)
(-0.0174818 0.0388222 -1.89414e-20)
(-0.00970778 -0.00206162 0)
(-0.00961841 0.00300635 4.34606e-20)
(-8.53172e-06 -0.000793262 -2.926e-21)
(0.0559528 -0.0186654 -1.31336e-21)
(0.000760378 0.00338073 -1.55485e-21)
(0.000442644 0.000676388 2.3054e-21)
(0.00654521 0.000334692 -5.24399e-21)
(-0.000741573 0.000908202 3.8733e-20)