/*--------------------------------*- C++ -*----------------------------------*\
| =========                 |                                                 |
| \\      /  F ield         | OpenFOAM: The Open Source CFD Toolbox           |
|  \\    /   O peration     | Version:  v2012                                 |
|   \\  /    A nd           | Website:  www.openfoam.com                      |
|    \\/     M anipulation  |                                                 |
\*---------------------------------------------------------------------------*/
FoamFile
{
    version     2.0;
    format      ascii;
    class       volScalarField;
    location    "550";
    object      omega_0;
}
// * * * * * * * * * * * * * * * * * * * * * * * * * * * * * * * * * * * * * //

dimensions      [0 0 -1 0 0 0 0];


internalField   nonuniform List<scalar> 
14479
(
0.0529921
0.041036
0.0286083
1.616
0.216128
3.24932
0.022269
0.0218952
0.0225813
1.79355
0.108994
1.63907
2.15333
3.65127
1.24787
7.09541
0.930696
17.528
2.34207
0.110596
0.0220581
0.0242058
5.41071
0.226224
0.0227231
0.0668144
0.0613493
1.78531
1.22806
1.22474
18.8645
2.10846
2.18227
0.0219831
0.0235659
0.0223446
0.02213
3.71353
0.0278304
0.221022
1.23056
0.0274817
0.0313535
0.0269088
10.0539
0.0815966
7.29639
8.2599
0.0239158
0.080628
0.022134
3.02335
0.325477
0.12368
0.0238298
0.0224022
0.0964245
1.81917
0.0234365
0.115132
0.0278286
0.0225046
0.379116
0.139817
3.37869
2.10741
0.0366351
0.0297925
6.53713
4.16655
2.8234
0.129795
1.47875
8.43045
0.022061
0.0225536
2.86059
1.30884
1.73604
2.94479
11.6343
0.0221676
0.0351236
0.123038
0.0236908
0.0780124
0.174922
0.022109
3.02616
0.0222534
2.11376
2.02418
5.12523
1.24086
0.0371729
2.08323
0.0235442
2.20491
0.0316737
1.80398
16.5176
1.79596
0.123501
0.0219583
0.0328458
0.0232346
3.34888
1.56373
0.103153
1.24698
0.0306952
0.0243016
6.1022
0.13195
0.058536
0.0265089
0.0224659
0.398994
0.0240957
0.150606
0.0234341
0.022129
1.97138
0.0321673
1.40087
0.0221601
0.0268802
0.0224046
0.0220533
1.81302
0.022436
4.34821
9.513
0.0222173
0.0870533
0.127776
0.386608
0.0228616
3.00837
1.64538
0.0229232
4.56202
0.0269649
0.295319
0.129931
0.023575
1.44313
0.022695
0.048439
0.0240345
2.01657
0.0285348
0.0220645
0.260594
0.602782
0.0436656
1.7972
0.0222735
2.4648
1.78426
1.77823
4.25581
1.8044
0.165226
1.75014
5.76219
0.0221078
8.35361
0.0221452
0.0236755
0.0226268
0.0788984
0.0223373
0.140181
0.0222376
0.265753
0.0221157
0.0241821
0.115064
0.0237005
0.707622
0.022056
0.024052
3.72359
0.0220994
0.0786404
0.0310189
0.0276299
0.417115
0.542286
0.022114
1.84906
0.0327627
0.0222776
4.27263
1.75112
0.394729
2.10165
0.033357
0.0222511
0.0255065
2.98207
4.23978
0.325744
3.70568
0.0255448
0.0226889
0.150314
0.0241409
0.0856361
1.36858
1.78158
0.0241925
0.029382
0.0221431
0.139683
1.77415
2.34795
0.0221399
0.0452708
0.329041
1.44808
1.90319
0.0391079
2.0058
1.63612
0.0240049
0.0240004
0.0671781
0.0221075
0.0235487
0.0222417
0.0372383
3.5962
0.0267243
0.0251792
0.092139
2.28416
0.0221311
0.0233346
1.59051
0.134136
0.0316297
0.0722838
1.77246
1.37425
0.0226266
0.0222928
18.409
3.25419
0.0218254
0.116478
0.0220898
0.0221123
3.46235
0.2638
0.022144
0.504248
0.0693582
0.249945
12.0175
5.25067
3.60048
0.0912093
0.0221501
0.0374615
0.0221429
1.87908
1.34265
6.32266
1.46928
0.0224424
2.77351
0.0231551
0.023913
5.70771
1.62993
0.0233149
1.75312
1.37789
3.19724
1.78083
1.75086
12.6528
0.0221912
0.0221327
3.00267
0.0228112
1.58268
3.74548
1.46307
8.13605
0.107921
4.1743
0.0223326
0.0483051
0.0225376
0.0615862
0.0221619
0.0341109
0.0221483
1.69924
0.0225332
0.0542356
0.0446695
3.1844
2.40246
0.31063
0.0256987
0.0267296
1.4339
0.119574
0.191369
0.0227516
0.0235148
0.0222659
1.68597
0.0545772
0.0221178
0.0220461
0.0240231
0.0221238
0.0235494
7.54271
0.275124
10.214
2.50645
0.148033
1.75642
0.0223391
0.0446425
0.058012
2.13185
2.60521
0.63508
0.0221174
0.0306882
0.138069
0.263371
0.0645993
2.63
0.0356128
3.40867
0.0219837
1.34367
0.022248
1.9462
1.86356
0.0222763
0.0653066
1.21647
1.82042
0.0280608
0.0221535
3.96509
0.022081
0.0223823
1.45695
0.027234
0.0224419
0.022434
1.3517
2.00238
0.0224953
1.81116
0.0365344
0.0683195
2.69783
1.83637
4.52981
0.183085
2.19227
0.0806185
4.26907
4.94407
5.76467
0.114196
0.0512996
4.11127
0.0225154
0.0226857
0.0380102
0.131625
0.0616046
2.07915
0.111742
0.0220872
0.272017
0.02211
0.161042
0.0628028
0.0413952
2.39508
3.54661
3.89509
1.81637
1.067
7.67911
0.0223101
0.0221752
4.72722
3.11968
1.31185
0.0370249
1.82751
0.0266063
2.27231
1.76227
0.0770846
0.0223203
1.82008
2.78552
0.0221051
0.0221659
3.34323
0.0219767
0.751528
0.351732
0.0221799
0.0347295
0.030615
0.0406714
3.09744
0.142088
2.30327
0.0387504
1.44085
0.0220819
0.0294329
0.645268
16.1236
0.11982
1.4909
0.0249013
0.0386861
1.73911
0.0532897
1.82674
9.12754
0.290298
2.80895
1.81008
1.49583
0.0220787
0.132016
0.0332529
0.0689308
1.31326
0.0299923
0.0265551
0.0221347
1.22534
0.142448
0.136283
0.0222919
0.259582
0.0225493
0.120984
4.26631
1.41577
0.0315101
0.0224475
2.52508
0.222237
3.00401
2.79676
0.0298204
1.52114
3.03557
0.0220928
0.0224562
0.0220132
2.04511
1.52835
4.05934
1.57029
1.46528
2.52966
0.0520552
0.314465
0.0242877
1.67892
0.077103
0.214035
0.0267235
0.0753044
0.0223127
5.98349
0.339425
1.78381
4.39321
0.0221701
0.0219783
1.80152
5.55129
0.0229427
0.0514649
1.63386
0.228551
0.0302835
0.0273723
0.257025
0.0312769
0.0223
1.38289
6.18915
1.99377
0.0411064
0.0234334
1.34437
0.0385272
0.0780491
0.0369424
3.47187
0.0222548
0.0221195
0.0221838
0.0221285
11.8668
0.145512
2.32386
1.45627
2.43998
2.01783
1.76733
1.74805
0.0225227
0.0314638
4.52522
1.20787
0.0221447
0.149738
3.36115
3.89868
0.0540245
0.114702
0.261479
6.88019
0.644613
2.75533
4.29957
2.32691
0.0458856
5.83533
0.0227102
0.0221058
2.68193
0.0221286
0.0250125
0.0463952
0.0409325
0.353022
0.0220746
0.0221113
1.25524
0.0224986
8.01999
2.65587
1.62732
2.32475
0.0396905
1.4234
0.0308654
1.79262
0.0225622
0.257453
0.0513423
0.0222316
0.02299
0.0313022
0.0303985
0.022098
1.71832
4.86476
0.0304788
1.8998
2.60304
0.0224936
0.0305887
0.172221
1.4753
0.022544
0.0553591
0.029811
2.43569
0.0225099
0.0220731
1.85992
1.81222
5.13063
0.0636229
0.022183
0.0221872
7.76509
3.69213
4.08199
0.0219798
0.0221392
0.0262524
0.0223963
1.69484
0.0221295
6.14486
2.21343
13.6352
0.0221719
1.81174
1.41386
0.023496
0.0742918
0.0231158
1.58606
0.0490265
0.0221252
0.0221231
0.0221797
1.7469
0.337611
1.82756
0.0222826
0.0220951
0.0582475
0.0456242
0.0297408
1.66412
8.20279
0.0223676
0.0220934
0.0356805
1.85034
0.062701
0.0360577
0.0221863
0.503306
0.0469848
0.0221065
0.0219619
3.13791
11.1829
0.0221411
13.6787
0.31066
0.0221027
4.42498
4.66902
0.0224946
0.0255296
0.0228849
0.0377735
2.25254
4.79904
0.17593
0.0220946
1.62657
2.94756
10.8066
1.48058
0.0498699
0.0221769
0.0267309
9.97036
0.0219135
0.0229454
1.77615
1.38797
0.0261266
0.0228843
0.455048
2.35874
0.0220607
0.0219758
0.0307306
1.9456
1.25264
4.26576
0.220151
1.4831
0.0362764
5.18625
0.0735722
0.0222529
0.03024
3.1561
0.0221139
3.33405
0.0316863
1.37742
6.34811
0.0513741
4.49737
0.0229343
0.0480843
1.81152
2.4559
2.39959
3.37649
1.52241
3.52051
0.0286606
0.437779
1.4081
1.36697
2.43655
0.02216
3.5204
2.4479
0.303102
2.47496
0.026435
12.5204
0.0220735
0.0259397
2.76094
3.24304
2.89658
0.0228667
0.022695
3.38751
1.74591
0.170007
0.514128
5.26737
0.0257498
1.70562
5.13292
0.0234259
6.0135
1.82454
2.86703
0.0220304
0.0232938
2.6825
0.022272
0.0221432
0.0219462
0.022494
0.0603616
0.0690271
0.0258337
0.0221054
0.0222596
0.0221928
0.0222831
0.0222756
0.0235215
1.9126
3.15287
1.23123
1.44537
1.6776
0.247727
0.0370989
0.022447
0.0247884
0.0675157
3.83216
0.0282947
1.76745
0.0383716
0.0305354
0.412424
0.0373665
4.6742
1.41516
0.0222765
5.40883
0.022112
1.82835
3.02889
0.158419
0.0858632
1.84451
2.01534
0.0529261
0.0222891
6.04921
1.67273
1.67905
0.0242243
3.15846
3.7852
0.0222296
23.7624
2.7869
0.0219745
0.0453663
1.24681
0.217818
0.028259
1.51078
0.0220815
12.6519
4.30766
1.70971
4.76105
7.75244
1.24753
0.422476
0.31944
0.17125
1.9386
0.0611384
0.0792347
0.109897
0.0225023
1.58689
3.03344
0.0219722
2.31343
3.31181
1.24151
2.3318
0.0233608
0.0365753
4.22781
1.76536
0.0903951
2.46771
0.0555924
20.864
0.0258936
3.7726
0.0266546
1.85893
0.0379037
12.5693
0.154116
0.0237615
0.0591834
0.022261
0.0867194
2.95543
24.7431
3.23536
1.40926
0.131637
1.75959
0.0264044
1.81909
0.577678
5.87857
0.0226071
0.0343688
0.110269
4.21223
0.0245107
3.86815
0.344763
0.0219721
0.0671673
4.8822
0.143274
0.416016
3.64116
1.23471
0.0227016
1.72624
0.0295306
0.0220271
0.0595743
0.0226205
0.0298876
0.0249661
2.92385
0.0328302
1.80664
0.0229618
0.0219708
0.0221385
0.0222233
2.04249
1.63994
2.56359
1.77837
1.65298
4.1575
0.0595069
1.9264
4.16334
2.11292
4.05878
0.508148
1.56648
0.0395844
0.022334
0.0226062
0.0222702
0.108977
0.100447
0.0224458
0.0708029
0.0556897
0.0842727
1.3535
0.0225475
0.0222478
0.0877601
9.02991
1.36847
0.0353486
1.23627
0.0220228
0.133839
0.0228459
0.0244261
0.022133
0.0251135
0.0505496
4.2752
1.85253
1.74419
2.96452
0.022087
0.112046
1.24386
0.0221826
0.0221528
11.8229
2.12476
6.59481
0.0255606
0.548238
1.83129
0.938346
0.0219492
0.0221211
2.86801
0.267247
1.34311
0.0320762
1.81882
2.90364
0.0897956
0.0220244
0.6153
1.57395
3.27991
3.3356
1.37008
0.400392
0.0249396
19.6862
0.0222615
0.0342332
0.02194
0.0286047
6.91221
1.73789
0.296318
0.0221224
3.57033
0.0310192
1.76539
1.86839
0.0664801
0.024473
0.0697839
1.73871
0.0221082
0.0236371
0.0225837
2.65092
0.0220466
0.0222735
2.29501
6.40131
0.354066
0.0620259
0.0222636
0.0223317
9.48201
5.11485
2.52744
0.0222437
1.05813
1.5619
0.032707
0.0218741
0.0334257
26.3283
0.0818803
1.81524
0.0262508
1.23718
0.142662
0.0410384
0.30599
0.0995351
0.0221708
0.310668
0.0222264
0.0301097
2.24744
2.07235
0.0221488
1.00408
0.0226664
0.0324515
0.02223
0.0251334
1.73885
0.0222948
1.46009
0.0389191
2.89312
0.0220254
0.0753452
2.96157
0.022072
0.0301221
1.88907
1.83582
0.058011
2.19207
0.0512721
18.6153
0.0226391
0.0400434
1.48224
0.0678098
0.0221639
0.0224868
1.73509
0.0220779
5.30323
9.729
0.0982648
0.0499285
4.83119
7.53498
1.76248
0.0222704
0.0497934
0.0782499
0.0378661
0.0221713
0.0903596
4.3898
0.0716282
1.83217
0.0243859
1.38578
9.83357
0.266051
0.264237
1.2514
0.0221696
0.14909
0.0610825
2.62001
1.79656
0.0284657
1.63031
1.60794
0.0568311
0.550545
2.82081
4.97427
0.435094
0.0225331
0.344257
0.0221722
0.0221244
0.0281192
0.02216
2.89087
2.49529
3.99412
1.77695
2.25166
2.36692
1.40823
2.51985
0.0726506
0.04176
14.1874
2.49345
12.4929
0.0221808
0.0222784
1.7403
0.0267134
0.0404203
0.0221226
0.101095
0.0228932
2.06806
0.0355407
0.245668
0.0338125
1.73583
0.282786
1.8844
0.0222541
0.0242211
0.12185
0.566341
0.0228116
0.0365078
0.0384427
0.225481
1.80667
0.0273971
0.0220216
0.0586248
3.26224
0.0221444
0.0522557
3.32457
4.0152
1.21773
0.0374053
8.90506
0.0220118
0.0222402
2.71649
0.155434
0.104519
0.022131
0.11248
1.83766
1.42138
4.58314
0.0225203
0.0222491
3.37987
1.37743
0.132076
1.41188
0.0729051
0.0222355
0.0267051
2.55228
0.0231045
1.79307
0.27587
0.0247591
1.38983
0.384153
1.37871
0.0222581
0.0395396
0.709865
0.0336293
1.80612
1.39765
3.52572
0.0379863
0.0568879
0.0263046
2.85769
0.0221402
0.0391428
0.108917
0.0220868
0.215755
0.0243662
0.0223094
0.729206
1.90341
2.47454
7.54718
0.862962
0.0317555
0.062142
0.0221668
0.0301621
0.0219411
3.19929
0.216239
0.0388937
0.0372146
0.0594877
9.54896
0.136732
0.0220675
1.21127
1.87478
1.59802
0.0221538
0.0222214
0.0238107
8.2985
3.89281
1.48204
0.300663
10.5869
0.130232
0.0227996
0.0365739
0.0312416
2.60126
4.08687
1.3672
0.0243913
0.033684
0.0232432
0.0219865
0.022193
0.0220439
0.0220206
1.50006
3.04026
0.0536503
1.81174
1.3649
0.0267373
0.0367709
8.93351
0.0223606
0.0278216
1.90758
0.022134
0.0220358
0.0358821
1.72596
0.0220618
5.59014
0.209501
0.0221595
0.0220673
2.70241
18.5647
2.01594
0.0318232
0.0221267
0.357383
0.0326135
0.0220309
1.4787
0.0223837
2.33397
0.139493
1.41323
0.0556365
2.14925
0.0370147
0.0218067
2.65681
1.47575
0.0233144
2.88201
0.0875543
0.0354265
1.87856
0.0232882
0.0221194
1.22841
6.02261
1.46059
1.8774
0.0219573
0.0844211
0.459171
1.00537
1.9449
0.0376592
0.028212
0.0833156
0.0376074
0.0380982
0.0301933
0.0222424
3.08268
0.0321168
0.02211
2.29245
0.677682
0.419583
1.23408
0.0292166
0.0222661
4.61345
0.0511757
2.46645
0.132407
1.40734
0.364813
0.0226222
0.0401593
5.13569
8.02829
0.0308964
1.81013
1.80934
2.75147
0.0219769
0.022039
0.115042
1.73937
1.83805
3.45174
13.363
0.0219631
0.0221611
1.78032
0.162132
1.13811
0.331186
0.0244527
2.18823
0.0626011
0.0796219
1.86532
0.0221946
0.238184
0.0384894
0.0614815
0.0598457
0.136475
0.0221461
1.61098
6.26485
1.88052
0.0622797
0.0224167
0.0365288
0.0402026
2.09947
0.0233195
0.0221411
0.0389907
7.7052
0.0221
0.338115
0.050175
2.12064
1.67419
1.32096
0.979092
0.519642
1.23585
0.0227858
0.0220975
0.412038
0.0226259
2.26866
2.97525
0.0220802
0.0411491
0.022306
0.0221361
2.76771
0.0835523
3.39948
0.023231
0.0804483
0.0221646
1.82198
0.0225255
0.0364447
1.82781
0.0233572
1.42471
1.61228
0.154267
4.16137
1.67499
0.0310359
0.0220883
4.47651
0.0516004
13.0619
0.02555
3.28611
0.0221796
1.49905
2.87308
0.111114
1.73932
1.42177
0.829626
0.0239064
1.78543
0.301457
1.43993
0.0221157
0.0235249
0.0647492
0.405276
3.32233
0.134737
0.0242409
0.0934603
0.0263012
0.0361478
1.38431
0.049593
0.0224348
1.28171
1.64015
5.69678
0.065501
1.80769
0.0622133
1.6739
0.0517667
0.0353625
0.0284973
0.848047
0.0620177
19.4093
3.04911
0.10062
0.0221201
12.8459
1.43886
0.0761114
0.0220741
1.69575
0.585779
0.0319648
0.0220672
1.86615
1.38839
0.155681
0.773908
0.0950687
0.0265233
1.66835
0.563728
1.82781
9.95968
1.80578
4.0209
13.1313
0.0302901
2.99338
1.37505
0.0644709
2.17233
0.0222577
3.10248
1.9506
2.90609
0.0221272
0.0258024
0.0571585
0.023873
1.73695
0.0621486
0.50502
0.034319
0.131692
1.26873
0.0247775
0.02246
0.0219753
0.0235346
0.0485429
4.58829
3.09861
0.0350005
0.03643
0.0290579
5.38365
5.7739
3.58579
0.143257
0.0221071
0.0312627
2.55722
0.21116
2.0926
1.43206
0.02247
0.185557
2.15883
1.73027
0.0222691
0.0221156
0.0240253
0.0849662
1.76179
0.0220699
0.107242
0.0245387
0.0221307
0.0227032
1.72817
0.0221361
1.99328
0.0226846
0.025225
3.05149
0.0220505
5.27657
1.41633
0.13668
6.34119
0.0332931
1.90104
1.58297
1.65776
1.58716
1.68159
1.41724
2.27116
1.25459
0.115247
21.4101
0.102312
2.84756
0.210925
0.124973
4.36025
9.77494
2.69306
0.1119
1.81602
4.02275
16.7331
2.44863
11.6766
6.03991
0.0221518
0.481478
0.0225674
3.25323
1.37512
0.0258624
1.83863
0.57856
0.0259062
2.99606
0.0220565
0.0835938
1.28855
0.0227044
27.0519
21.9651
0.11725
2.17465
0.0228098
0.0621055
1.98799
0.0222482
2.80621
0.124351
0.0232493
3.54867
0.191605
2.65295
9.26282
0.158335
3.43083
3.21603
0.192756
8.73302
2.2194
0.0535488
0.0221669
0.0238009
1.5364
3.77362
0.0273445
1.51246
0.022191
2.71676
1.29049
1.76188
1.7772
0.0272328
2.25233
0.0577181
13.3107
1.90759
1.913
0.0379428
1.74886
0.0325345
0.0631365
2.1953
0.105441
1.86102
0.0993924
0.0311541
2.87897
2.11213
12.6379
0.050246
0.0405494
1.60645
0.0222735
0.0222978
0.0309856
0.0224177
12.8582
12.8429
0.0222782
1.34799
2.06273
0.0583994
0.0279099
0.0243178
0.248729
0.0249461
0.0221764
0.022244
3.08854
2.01391
1.70302
0.0320678
1.36317
3.89711
3.88011
0.0220512
0.0218647
0.0221093
0.0780817
0.0555918
2.52815
0.0673526
0.0298243
0.240497
0.0229014
0.0221544
0.0259372
0.108423
0.0729298
1.4606
0.991052
0.0221584
4.67677
0.0435656
0.0940864
0.107417
0.0455417
0.0259692
1.79299
0.022315
0.0222514
3.88488
14.8736
0.0575428
1.39385
0.0511656
1.51355
0.203447
2.07673
1.68819
0.0221241
2.98124
0.0219802
0.0221618
3.74384
2.16423
0.0221517
1.58771
3.15558
0.0968593
0.0222036
1.42413
2.03873
0.0974233
1.22871
1.45044
0.0220347
1.35635
0.0439006
1.60466
14.1007
0.0221938
5.68503
0.0317586
0.0222129
0.0251606
0.0221066
0.250855
1.68138
0.022302
0.164264
0.311931
0.0380244
0.0251077
1.43439
0.0218409
1.43086
13.4002
0.0386344
0.0550017
0.0220361
18.0942
0.0221674
0.0679148
0.0244066
3.56977
0.793255
1.50253
0.0514259
11.9619
15.095
1.24346
0.0218525
5.04527
0.153217
3.23236
0.0235539
3.18825
3.05895
1.35398
0.129056
0.0221079
0.0222329
0.126349
1.209
0.0222568
1.32521
0.0226193
2.19373
0.0278797
1.50095
0.0754848
0.022051
0.0228468
2.77421
3.82387
1.74714
3.83419
1.8392
2.00852
1.16695
0.0532178
0.0221411
0.0275934
0.0255574
11.2703
2.82474
0.0708827
0.0275624
6.05008
1.43543
1.19505
2.86358
1.46517
0.0219515
0.0242111
0.0445671
0.0823233
1.71757
0.0223956
2.55372
0.0221484
1.80587
1.03717
0.0254795
1.46535
3.40835
1.19427
1.58395
0.0346489
0.140057
0.0251182
0.048447
0.0861349
1.76643
0.271991
0.251323
0.0221881
0.0220214
0.0405586
12.7283
5.34227
0.156587
0.0220588
0.0225509
0.022282
6.75537
0.512126
0.0248421
0.0955133
4.18077
4.98258
0.0413139
14.5811
3.66324
0.022199
1.54957
0.102116
0.0221164
0.0224592
0.0288252
0.0222109
2.27199
0.0231327
0.0251359
0.0222628
0.0350022
0.0222053
0.0226326
1.52276
0.0239327
1.70914
1.99824
0.0250896
3.5763
1.40242
6.67247
0.0306679
1.52937
22.7512
1.8809
20.7392
0.0222599
0.146423
1.60319
0.0221639
0.133205
0.0261499
1.1469
0.0822222
0.0363499
0.0549273
8.68429
0.0799065
0.124799
0.0275062
3.21369
0.0387284
1.45212
1.53731
1.80113
19.0821
0.0222738
0.0287399
0.0221767
3.91764
0.0223454
0.0974489
0.0779305
19.2515
4.52629
1.41166
0.0242379
1.74256
21.4411
0.0233218
1.73041
0.215796
2.16587
5.7441
0.025143
0.0235885
4.75437
1.2651
2.13682
1.81054
1.74968
0.0221163
1.75078
2.53702
3.38879
1.89932
0.0266039
0.0301056
0.0438658
0.0231418
0.125691
13.6051
0.133533
0.030652
0.0221564
7.39242
1.9005
0.236275
3.28445
0.0408633
1.15285
3.07564
0.0222602
6.02357
1.46461
2.48028
0.0604074
18.498
0.0221708
0.0517618
1.68091
1.44983
0.277535
0.0976452
1.62174
8.36559
2.02879
0.0225904
19.3486
7.12815
0.384959
18.188
0.0308343
1.07358
0.0224385
0.0286772
0.022607
0.0604514
0.0231851
0.0479905
0.101864
0.168683
0.0236047
1.65986
0.0308378
0.0222238
0.0243746
0.0502434
6.04702
0.0221326
1.19807
3.09344
0.107069
0.0292245
1.18124
1.36516
0.0222721
0.0513994
0.0222614
0.0263616
2.58045
0.808858
2.11736
1.80153
2.02888
0.0221509
8.6628
0.0224691
0.0362979
2.73577
1.22014
0.0232122
1.70536
0.0822239
0.022785
0.230213
0.0224207
3.20342
0.0231314
8.88951
1.8423
0.0283995
2.49926
0.0222388
0.0221492
2.43294
0.0499089
1.34602
1.62658
1.75499
0.0220218
0.0602568
0.0558597
0.0368656
0.0320378
15.1233
0.0468628
0.0222251
0.0360855
0.0720715
1.29469
3.89306
0.022209
0.0520558
1.40626
2.68971
0.0527627
1.44815
0.0236117
0.0296056
0.0592712
0.0221498
0.0322983
0.0222444
1.75095
0.067845
2.45269
4.11529
2.01279
2.22512
0.0220233
0.0262512
0.0469441
0.0221612
0.410372
1.83559
1.57263
0.0256258
1.06731
0.0221405
0.226683
1.21005
1.58666
1.75384
1.71971
3.03631
18.3759
0.0255303
0.0221453
1.20257
0.0279726
0.0222434
0.0221231
3.48623
0.375451
0.117178
2.17527
0.0221613
1.51291
0.0560302
1.94504
3.24709
4.78703
0.0284259
0.0574054
2.81566
0.055604
0.354587
0.146365
0.0335197
0.116621
0.0298975
7.51892
2.98164
1.91184
0.0507374
0.0220942
14.5413
2.88697
1.44622
0.0222394
1.35963
1.7668
1.40483
2.22029
2.13716
0.0296784
1.60743
3.1786
1.8808
0.0225445
4.14389
0.0232739
0.452815
1.92156
8.32171
2.87793
0.0222911
0.0347657
0.0728046
1.65384
0.0368416
1.97578
0.0246632
0.326024
5.80661
0.0224429
0.0222019
0.135819
0.0249536
0.0232955
4.2605
2.0968
0.0495006
0.0227893
1.46313
0.0240854
0.0221428
0.0231149
1.7132
1.47549
1.62701
0.0229368
6.70428
0.0222596
2.23915
2.8674
0.022218
0.0415316
0.0283777
5.90588
0.0483911
0.0794889
10.5578
0.0230052
5.84621
0.0219868
0.0226317
0.0220663
0.0221421
0.0224591
0.0234016
0.72341
1.96948
0.245613
0.0364741
0.138565
10.3875
0.76392
4.26915
8.34458
0.0222062
2.99531
0.120107
4.62782
0.0279066
4.80972
0.0239879
0.0905637
0.0271355
5.39508
0.0221055
1.23063
18.7172
0.0238702
0.0772381
4.38557
0.0481185
0.0325676
0.0222838
5.26654
0.023673
0.503964
0.0222973
0.0230953
1.33926
1.89103
2.61455
0.0222414
0.0261781
3.24443
0.0221481
0.0220535
12.3113
3.50152
1.59206
0.022219
0.0355365
0.0221499
1.72199
0.0485814
0.0231419
2.17661
0.382757
0.0470203
1.72944
0.0973912
0.0221631
0.028075
0.022203
1.61494
0.0220908
0.0245621
0.0221914
0.169316
0.0221743
0.0221322
0.02351
7.00608
0.035642
0.0256162
0.0534554
0.140651
0.043738
1.30295
1.9111
0.0293629
0.0221878
0.0545108
0.217044
0.10238
8.60089
1.34658
0.0232242
1.40319
0.0220707
2.19937
1.70584
1.97874
0.0232411
1.29698
0.022131
0.0288489
0.047235
0.0552765
0.0413451
2.50857
0.0242141
0.0257188
0.139062
2.21368
0.0473986
0.0707985
8.30959
0.0259604
0.70186
0.0333022
1.20401
0.0295972
0.763182
0.378012
0.210418
0.0305864
0.0234769
1.80405
2.26959
2.47437
0.023462
0.0686217
18.8862
0.0468225
0.0219904
0.0538589
0.0239684
0.0234942
0.116552
0.0752521
1.68432
1.93028
14.6945
0.0249852
2.87097
2.60017
2.28056
2.85492
0.0236549
0.0221517
0.0224732
11.1712
0.561342
0.0337492
5.27695
1.87605
0.023616
0.0479443
4.37637
1.69459
0.0225897
15.6505
0.0220558
4.44788
1.17244
16.6723
0.0364904
0.0527862
2.8276
0.274313
3.15222
2.43626
1.46091
0.0237324
0.0259831
0.0537294
0.0223012
0.0376696
3.01563
1.91978
0.0222658
0.0220869
0.162239
1.40119
0.381699
0.0364355
2.68542
0.0243622
2.23614
0.211799
1.3664
0.0225007
0.0246075
2.58618
16.3835
2.50803
2.12133
0.239296
1.67899
3.64633
0.0220444
1.56362
0.0402615
0.02207
0.022023
1.03967
0.37713
0.0220254
0.0221652
4.11251
0.0231086
0.247743
0.0226135
0.0222561
0.279112
2.16134
0.0224717
1.61395
0.708547
0.022037
0.0394078
0.217646
0.147164
0.127743
2.34064
0.023807
0.988412
1.37651
0.262972
0.0239128
1.37662
0.0230145
0.096277
0.0237551
0.563659
4.27867
0.0224497
0.329022
1.96455
0.0291896
0.0221249
0.0336855
14.9479
2.19165
2.15482
0.11132
0.492508
7.85982
5.07629
0.0226247
2.30663
0.690037
0.0954781
1.98607
0.357148
0.998814
1.89216
4.70154
0.0377223
1.6296
15.7243
15.8827
1.91635
2.89205
0.0242995
0.0435206
1.90541
2.19527
0.0221394
0.0223413
5.80405
0.0222615
1.52532
1.78812
2.38217
3.27944
0.0319788
0.553341
2.31756
0.0219769
0.0222587
0.0512633
0.361939
1.62429
1.4833
1.0536
1.81552
0.0354989
1.65936
1.62037
1.84022
0.0591057
0.0498438
1.96867
5.5753
0.0229981
1.3721
0.149269
0.0476318
0.0222016
2.61379
1.73897
0.0221635
0.0221929
0.0229788
0.0222478
0.890376
1.92826
0.0345037
2.138
0.385493
0.0221402
1.47439
0.0270674
0.0251712
15.4948
0.022177
0.0264201
1.20948
0.061054
0.13276
0.0225787
0.022351
1.51406
0.0521079
3.23695
1.3347
2.15998
1.83454
0.0218031
2.67237
0.0236155
2.00019
0.0221282
15.7746
1.41335
0.025235
1.81501
1.92905
0.024744
0.213594
0.0219674
5.66582
0.38134
0.0308406
0.0221184
0.0557258
0.0222746
2.38391
0.0459365
0.0220749
0.0222799
2.92334
0.266356
0.0417071
0.0219997
12.3266
0.0269635
1.50687
0.0240685
0.0267333
0.0259334
0.0517093
0.0222367
0.2821
0.0258896
1.85434
0.0251823
0.0245164
0.741996
2.9129
0.0233063
2.92981
0.0262302
0.0442001
0.0221185
1.66287
0.540852
0.177679
1.68983
0.0220741
0.20604
0.34167
4.12295
1.21368
0.0221323
2.13201
1.42655
0.0588912
2.93253
0.0305964
0.0561329
10.7345
0.0218439
0.0254376
0.979527
2.85046
0.0226078
0.0592546
1.23241
0.0236605
1.6056
1.91506
3.38474
0.620526
0.0247419
1.50062
0.0252619
0.0239202
0.455939
0.113646
0.0574518
0.0231757
0.0392863
0.0529437
0.0222766
0.0224546
0.0292928
0.0356008
0.0221401
0.0254742
0.0222372
0.297957
1.4592
0.0599522
0.0220066
0.0878577
1.53623
0.0387567
0.0228149
0.0222411
0.832574
0.0218017
4.26365
0.0229623
0.0492375
0.0220204
0.088547
0.0750857
0.0353453
0.0797571
0.0287107
1.96182
7.52118
0.0221361
0.0221566
0.0227393
1.36429
1.47092
1.5187
0.15642
0.18123
0.0219817
0.0225759
0.478481
2.76872
2.59398
0.0534653
2.1604
0.0221887
0.305272
0.0220402
0.335427
0.056566
1.94842
0.0236891
0.047242
0.022062
0.215246
4.41056
0.0345121
1.35559
2.24909
1.72526
0.212751
0.0302653
0.0291491
0.0221627
4.06419
0.0283539
0.127869
0.680947
0.037218
0.0222384
0.0255124
0.0224108
3.66971
0.0255
0.0233083
1.89139
0.0221082
0.0406329
0.0897656
0.025701
0.210088
0.0223002
0.0535179
0.0294819
0.0924473
0.0222689
0.0222203
0.216692
0.22097
2.20412
0.626315
0.889812
1.76719
0.0221856
1.6238
0.18427
3.12183
0.448218
0.023927
0.0637533
0.0272281
0.0226735
0.022668
1.89987
0.187179
0.037566
2.06246
0.0256071
2.81604
0.0324729
0.0531256
0.0237126
9.96235
2.12552
3.02621
0.0254305
0.0220456
0.0367788
0.0240241
1.33507
0.179812
0.0319654
0.0222318
0.150255
0.0998297
0.0229391
4.77176
3.32996
0.047389
1.85753
0.0489673
1.41059
0.0281735
0.0595152
2.53542
0.15062
0.0401549
0.588965
0.113782
0.0260488
0.0221101
0.0221148
0.168437
2.16375
0.0359938
4.11596
1.32224
0.111977
0.0555115
0.0247835
0.0222504
0.0240789
0.099049
0.24097
0.0725304
1.56101
1.67741
0.0221759
0.0224624
3.36846
0.0230527
0.0219625
0.0225651
0.121082
1.50466
0.0233994
0.318215
0.0220376
0.0238874
0.0581695
9.14742
1.55478
0.103628
12.1873
0.228411
3.23726
4.69211
1.39932
0.0220349
0.022121
0.0239842
0.0460489
2.06375
2.79653
1.72747
0.0348828
0.0225094
0.0227886
0.049033
7.59226
0.0222225
0.0567143
0.0982926
0.0366162
0.0222337
0.0341339
2.09635
0.023268
0.0226102
0.0223196
0.0222151
0.0221749
1.81568
0.0483517
0.912722
0.0452416
0.254361
1.23679
4.58701
0.0230669
12.8424
1.25269
0.382222
0.127861
0.0922378
0.0227991
0.045011
7.71243
0.0224318
8.71972
0.0538776
10.7786
0.022838
1.84752
0.0267718
0.0790461
0.267416
0.022057
0.0683917
1.83751
0.616801
0.388705
0.0251307
0.0221362
0.654608
0.0231466
2.30037
0.0238573
0.0499136
0.628415
0.266971
0.0221355
1.10041
0.397223
0.0223952
0.0678493
0.0860553
0.223195
0.0224382
2.87941
0.0274067
1.71576
0.0221247
0.0247875
1.43184
0.247376
28.2027
0.0221456
1.29078
1.43414
2.06399
0.0282752
0.0384452
2.54663
3.08882
1.18942
0.0221665
0.101867
0.349179
0.0383107
0.0253578
22.8628
0.0910166
0.0220829
0.0268363
2.12105
0.0221505
0.0220614
0.140851
2.97556
0.0221349
0.0851453
0.0236194
1.92061
0.564099
2.99883
0.0558266
0.0221192
0.0429943
0.0388382
2.71262
0.0961968
6.07797
0.0268601
0.0659098
0.0583118
5.77783
4.90455
0.0221698
0.0608534
1.75668
0.0509523
0.0286906
0.0255891
1.24973
0.0933825
0.0246748
0.0299519
1.81137
0.0234208
0.0403327
0.0221299
0.0282529
0.0221581
0.0242689
0.404022
2.00292
0.0287177
0.193738
2.45379
1.3955
0.0221901
0.0405912
0.022047
2.77603
0.049234
0.0585441
0.0218531
0.0255071
0.023892
2.08243
2.17427
0.0220961
0.980307
0.0234352
1.72628
1.44729
5.5988
2.14811
0.187896
3.09891
0.480244
0.0233325
0.0241419
0.0231992
11.0906
13.3483
0.0221169
5.31564
0.0495209
0.0297718
10.7511
4.07878
0.022133
0.266131
0.0898201
4.5133
16.9573
6.2493
0.0221613
0.181428
1.27774
0.059875
0.0219739
0.0285709
1.37392
12.4119
0.0222003
0.0357472
0.0233106
0.0238046
0.0279883
0.108928
0.418738
0.303622
0.0325097
0.0473642
1.43443
0.0411786
0.0847014
0.024672
0.0232147
0.107321
4.67617
0.0235582
17.8761
0.394292
0.0222792
0.0319309
0.0226907
0.0510912
0.0221572
0.027452
0.0796584
1.39182
1.96499
16.5487
0.0522621
1.84963
1.78346
1.81297
0.0226538
1.39175
1.722
0.140232
4.14699
1.23346
1.76132
0.0221196
0.0883407
0.0498717
0.0232846
2.27194
4.97204
1.59624
11.7412
0.070464
1.94816
3.64016
1.69161
0.022142
2.97593
2.49323
0.0253549
0.0250775
2.12627
5.51012
0.0240134
0.0241555
0.0221348
0.0526025
0.0221677
1.89874
2.45258
0.022275
1.74312
0.0376807
0.0260544
1.8565
0.0913704
0.0276839
0.0328058
2.54221
1.53939
0.0222601
0.0225356
9.38617
0.0246319
0.426998
1.90024
1.74714
1.88572
1.5
1.59001
0.0242106
0.106542
0.0217475
0.0661654
0.0226582
12.8535
10.0281
1.5081
5.39828
0.0312224
0.0890477
1.38441
0.0515987
4.04526
0.025939
1.64379
1.43332
0.0229915
1.58789
0.749513
1.8176
0.0844115
1.7749
0.0260234
0.0229558
3.62825
4.74963
2.44373
0.0237134
12.7157
0.299079
1.58151
0.0644994
0.0228454
0.236204
0.031122
6.65863
2.4888
3.16501
7.35161
6.73227
1.5523
0.02203
0.0288586
0.544752
0.411781
0.0237199
0.0222243
0.0346508
1.86096
0.0295573
0.02388
5.40819
0.0333636
0.0236626
0.942616
6.53864
0.0260439
1.22184
0.027216
2.01877
1.52017
1.92266
0.0221869
13.2483
0.0333315
0.0221449
0.0219703
11.5774
0.0492198
0.0221803
0.68332
0.600836
0.0510249
1.48353
0.0340586
0.0466456
5.06587
0.0258062
1.81223
0.023413
0.0227584
7.06911
0.0236276
9.62628
0.0246802
1.60955
0.0437184
1.78026
3.79874
2.46653
0.0263468
0.13698
3.81299
0.238675
0.0223207
9.67741
0.0255946
0.0478057
0.0355543
0.0691906
12.8961
6.17948
0.893989
0.437171
0.0235621
0.0480199
0.0238344
0.0445986
0.0275423
0.0331395
0.0221038
0.0252199
1.92743
2.94158
1.98548
0.0246077
15.0529
0.0994548
0.0220114
1.09412
0.022759
0.0219466
0.230961
0.0802996
1.58602
0.10295
0.107204
0.0234619
0.0296037
0.0226897
0.0876921
1.36261
1.45004
0.0221612
0.0253453
4.19428
0.0235714
0.0226974
0.0222754
0.197407
0.0512374
8.70064
0.56999
0.777849
0.0221855
0.153743
0.0221507
0.0234929
0.132295
0.9011
1.25324
1.41732
2.77335
0.0322429
0.0360715
6.83615
0.0230107
2.70237
5.7633
0.0221972
12.2888
0.0221942
0.113377
0.0222745
0.036968
1.44189
0.049419
0.025893
1.99259
0.0336318
0.68998
0.0256758
1.19782
0.0278385
1.71816
0.33782
0.0284525
0.0929431
0.0223432
0.0221692
10.7758
0.0304537
0.194302
0.0285534
2.53711
0.106244
0.0356694
0.0224763
0.0267753
0.319387
0.0238371
1.88221
0.742364
1.86465
0.255071
0.0221379
0.21506
0.839226
3.35464
3.34092
0.385554
1.79827
0.0319458
1.36888
6.76357
14.7165
0.0791135
0.103128
1.81736
0.0263691
0.0300274
0.0285567
0.0221602
0.0236587
0.0222911
0.0451397
0.0231081
1.85315
0.715747
1.75035
0.037046
16.3448
0.0222908
0.0444097
9.79386
7.38186
0.0222655
8.01741
0.20156
0.0222913
0.143237
0.0297753
0.121277
0.177048
1.88758
0.0400805
0.0222919
0.723268
0.0352163
0.0222954
0.0221066
5.42978
0.0484739
0.0233022
12.3925
1.76439
0.117274
0.0909519
0.0326861
1.74794
0.483875
4.92512
1.32034
0.0315874
4.85111
0.171509
1.65584
0.067513
2.85201
1.4947
1.19571
1.53385
1.34414
0.125389
3.79147
0.195028
1.477
0.021986
0.0286845
3.09465
0.170666
0.0232833
0.134144
2.36298
2.83443
1.56858
0.0331732
0.210356
0.029196
5.4102
0.0339331
1.32561
0.0296635
4.3535
3.7633
0.0431219
0.0222642
0.0286364
1.79443
2.48149
12.5472
0.0221399
0.0288474
2.31992
0.026685
2.40713
0.240761
0.03206
15.9816
1.20572
1.78815
0.0413269
2.03283
0.0226675
2.1651
1.83805
2.11769
0.0227018
0.022109