/*--------------------------------*- C++ -*----------------------------------*\
| =========                 |                                                 |
| \\      /  F ield         | OpenFOAM: The Open Source CFD Toolbox           |
|  \\    /   O peration     | Version:  v2012                                 |
|   \\  /    A nd           | Website:  www.openfoam.com                      |
|    \\/     M anipulation  |                                                 |
\*---------------------------------------------------------------------------*/
FoamFile
{
    version     2.0;
    format      ascii;
    class       volScalarField;
    location    "50";
    object      ddt0(omega);
}
// * * * * * * * * * * * * * * * * * * * * * * * * * * * * * * * * * * * * * //

dimensions      [0 0 -2 0 0 0 0];


internalField   nonuniform List<scalar> 
13749
(
0.585602
-0.000118714
-0.00103207
1.78837e-05
-0.344399
-2.53722e-05
-0.0690986
3.41796e-05
0.016166
1.15167e-05
-9.19493e-05
0.00119668
0.0012373
0.869334
2.58614e-05
0.491632
0.12724
-9.60661e-06
4.14037e-05
2.90764e-05
-0.338336
0.0776873
0.0170029
-0.00117565
0.00177323
6.83725e-05
0.000195204
-0.00458276
0.0456121
-0.182754
0.0778578
-0.000549963
0.0264403
1.9376e-05
0.0251101
-0.0542077
-0.0398543
-9.03442e-05
0.0519029
-0.112124
1.22497e-07
0.00526164
2.18086e-05
0.0824172
0.000187883
2.17966e-05
-1.88321e-05
0.00242692
-0.0017619
0.000386405
0.000310483
0.000111935
-0.215205
2.4115e-05
-1.62113e-05
-0.0316154
0.0855601
-0.00579115
6.02585e-05
0.00245165
0.000104179
-0.0523669
-0.00598092
0.00706356
-0.001166
-0.0299926
-0.00192816
0.367031
-0.0418504
0.582787
0.000313654
0.453425
-0.000208499
0.0709222
-6.84156e-05
0.485118
3.92072e-06
-4.57553e-05
-0.0578196
-0.000153891
0.0515489
-0.000636425
0.00185452
-0.000307685
-0.0431829
1.04019e-05
0.0379493
-0.00210717
0.31768
-0.000623189
0.000193091
0.0550696
-7.87787e-06
0.163687
-4.0551e-05
0.08266
-0.260552
0.00223435
1.26108
0.00031276
-0.0005336
-0.135274
0.000203737
-0.00900121
-2.6805e-05
3.70142e-06
0.000175849
0.0960586
-4.71655e-05
-0.131212
-0.000140898
-0.496704
-0.108441
-5.35457e-05
-7.40809e-05
0.276711
-1.68955e-06
-8.75337e-05
0.00626487
0.000259058
9.11605e-06
0.00175702
2.39192e-05
3.89887e-05
6.76433e-05
0.0439489
-0.000456257
-9.04649e-07
4.83096e-05
-1.0713
-5.15047e-05
0.104751
0.0107227
0.749793
0.00977767
0.0755357
-0.0306176
0.00696327
-0.000197549
-0.000365835
-0.192907
7.39928e-05
1.21315e-05
-0.209173
3.92094e-05
-1.32239e-05
0.208962
-0.066435
0.072145
0.0304016
0.000163699
-0.0922796
4.11922e-05
0.0684035
0.0546297
-5.07557e-06
-0.181637
0.0781391
-0.0093587
5.37787e-05
-0.000359541
7.02136e-05
0.0161852
-7.08393e-05
0.000128478
0.00101593
8.09079e-05
-7.07426e-07
0.0445411
0.0842127
1.21435e-05
6.32266e-05
0.0845077
-0.135716
0.329983
0.00143932
-0.00689838
-0.307886
-0.00266614
-0.148195
0.000359143
-0.000517766
-0.0199672
-0.149054
0.0018
-0.000329332
1.91074e-05
-0.000112754
1.87155
-0.00551151
-0.390892
-0.028051
-0.000132964
-0.000728734
2.34528e-05
-0.000119989
0.0054566
0.000858277
-0.00190347
0.702719
-0.0805864
0.000809802
0.0539601
-0.820319
4.48588e-06
0.559116
0.0164315
-0.0486169
-0.000203069
8.91419e-05
0.000148027
-0.0596198
-0.00371148
-5.74478e-05
0.729308
-0.00406919
-3.79453e-05
-0.393191
-2.79305e-05
1.11069e-05
-0.000342939
-0.281589
-0.0105118
0.000377949
-0.0488165
0.40255
-0.197644
0.000200614
0.00676759
1.85675e-05
-0.0402083
5.11887
2.74406e-05
7.49271e-05
-9.95732e-06
-2.25806e-05
0.090692
-0.00742452
-0.00856984
-0.000118238
0.761456
0.0492863
2.14896e-05
-0.00815449
5.95979e-06
9.07051e-05
1.6859e-05
-5.94408e-05
-0.0739671
-0.0354659
1.44223e-06
-0.000157281
-0.101628
0.0664098
0.00630557
8.20318e-05
-0.0765922
0.000830215
-2.05037e-05
4.50413e-05
-0.240514
-0.0365746
-4.89183e-05
0.000173981
-6.53025e-05
-1.75191e-05
1.17756e-05
-0.0606625
0.0656063
2.89204e-06
6.4613e-05
0.00172887
-0.537247
-0.199216
0.00323549
-0.0728276
-0.0114605
-0.000956185
0.056525
-4.05527e-05
0.000159005
2.77061
-0.00833186
0.000441888
0.521588
2.46271e-06
0.0344094
-0.334813
5.91169e-05
-0.715199
1.01271
0.00188924
-0.000403051
0.000944335
-0.0435964
-0.0431189
1.18996e-05
-8.81909e-05
0.771007
-1.11989e-06
-0.0494594
-0.0774035
0.157171
-0.000826621
0.00428855
-0.121638
0.0690752
-5.08105e-05
-0.0441788
-0.000356615
0.000119123
0.000452731
0.0224846
-0.00213613
0.00118978
2.56049e-05
-0.00504535
7.85825e-05
0.0178339
5.36273e-05
1.5644e-05
8.24231e-06
-0.000590124
-0.0274385
-0.000162823
0.000524513
0.00144639
1.49882e-05
2.58181e-05
-0.0738396
-0.0140966
7.05368e-05
0.000143458
-0.299047
8.80327e-05
4.77153e-06
-0.459101
1.90156e-05
-0.062
-0.0300729
-8.7016e-05
-0.221403
-0.341533
0.00238548
8.24897e-05
-0.00554533
-0.00029756
0.00227311
-4.55896e-06
0.00150618
0.0016442
-0.701671
-0.000139728
6.96147e-05
0.000506456
-0.00417498
3.7905e-06
0.0186483
0.000511889
-2.68733e-05
1.67117e-05
-0.000318664
0.00325036
-0.712832
0.000103912
0.000139189
9.71918e-05
0.00655452
-4.77465e-05
4.66048e-06
0.570174
3.38499e-05
-2.76046e-06
-0.029208
-6.80841e-05
1.09221e-05
-3.46982e-05
-7.57531e-05
0.367951
-0.224553
5.32401e-06
4.99802e-05
-0.000131437
0.290843
0.00207535
-0.0176109
-0.286736
0.0226496
-0.942992
0.454665
3.75202e-07
-1.0077e-05
-5.11628e-05
0.0316004
-0.0230599
1.47257e-05
6.91803e-06
1.68079e-05
0.076665
2.26784e-05
-0.00531436
-5.39187e-05
-0.0478835
0.01723
0.000132307
0.0387016
-0.0336832
1.69875e-05
-0.0529974
1.11221
-1.93423e-05
-0.0492702
-7.90828e-05
0.027691
-5.96354e-05
-0.228645
0.292076
2.47662e-05
-0.100933
-0.0615164
6.12314e-06
-0.00310478
0.339273
0.000775922
0.000217333
-0.000152592
0.000136005
0.000261888
-6.35332e-06
1.9858e-05
0.00109025
-0.000155611
-0.00018937
-0.000319952
-8.49926e-05
7.46542e-05
2.73906e-06
-0.649665
-0.00289196
-0.00450534
0.0572087
0.10205
0.00244589
0.440569
-0.139862
-0.018512
-0.00056603
3.86738e-06
0.099997
0.0280697
0.00385615
-0.0422861
7.52474e-06
-0.00014459
1.08189e-05
0.000628521
6.66736e-06
0.692401
-0.250551
-0.0489502
-0.000203766
2.88533e-06
-1.31661
0.000284283
0.00872141
0.128325
0.00018141
0.000946115
0.0056691
0.350633
0.00302626
0.347747
3.57347e-06
-7.15347e-05
4.11456e-05
0.833658
-0.00495531
0.110649
0.000266933
0.267186
-8.34873e-05
-0.00080346
5.83748e-06
-5.99076e-05
6.58142e-06
-0.000715546
5.14776e-05
1.8522e-05
-0.000621472
-0.155203
-0.000136137
-0.138789
-0.0149039
9.5379e-06
0.0359571
0.508695
0.0104117
0.000277261
0.0322482
0.00211162
-0.324956
-0.0033789
-0.000441824
0.000116566
0.062284
1.56902e-05
-0.000243003
-0.297295
-0.0950017
-1.67538e-05
0.0030213
0.0344045
-0.00203235
-0.0800265
0.852065
-6.25563e-06
0.148886
-2.99137e-05
0.227759
-0.00386594
-8.87812e-05
8.69836e-06
-0.17979
0.00110207
5.66976e-06
-0.679283
-0.0225378
-0.0324191
0.00203388
0.224668
0.000111196
0.000200183
0.196977
-0.147562
-0.00315772
-0.0714781
-0.161328
-0.000244454
-0.0811702
0.000231314
4.87266e-06
0.499147
-0.171825
0.000661162
-5.04121e-05
0.0360716
-0.00172521
2.41415e-05
0.307767
0.954423
-0.00982249
-2.15473e-07
-0.0680252
-0.00176918
-0.165523
-7.00553e-05
-0.249914
0.068709
0.000308664
-0.00202261
1.30844e-05
-1.93357
-0.0207904
-4.94494e-05
0.0880335
2.29869e-06
0.0438267
1.20418
0.000596068
0.00167973
3.07849e-06
-8.5115e-05
0.0360848
-0.00363812
9.66058e-05
0.0455309
-0.00205418
0.363273
-0.00162645
4.918e-06
0.456046
0.00608681
-0.00172963
0.32313
0.000180846
-0.0106795
-0.00366854
-0.00224986
0.0776266
-0.000387454
0.270461
-0.0062026
-0.0420164
0.374593
0.0302918
-0.142399
-0.125992
0.0185024
-0.0427025
0.000138207
-0.246719
-1.88528e-05
0.00710135
-0.0730969
0.0119289
-0.0176003
-2.25363e-05
-1.50335e-05
3.31094e-05
-0.00140823
4.07434e-05
0.000567633
0.00125653
-0.271005
0.0108657
-0.187445
0.000188842
-0.00204883
-0.310238
-4.41094e-05
3.77698e-05
-0.0569988
0.0148814
4.4104e-06
-0.20306
0.000581763
0.0589856
1.73559e-05
-0.0142009
1.37284e-05
0.000143422
-0.838863
-0.031129
0.00120979
0.00484723
0.2619
7.78554e-05
0.000112111
2.58234e-06
0.937669
-0.237465
0.582413
-0.0801844
0.0233676
-4.75972e-05
0.000228575
1.96823e-05
0.0966844
9.83156e-05
-0.000111292
-0.0206035
-0.253408
-0.13864
0.010339
-0.000184729
-0.00442749
7.43215e-07
-0.0730262
-0.0743184
0.0191407
6.52228e-05
0.0401572
0.373404
0.0850222
-0.0203742
-0.142065
0.476419
-0.329446
-1.19881e-05
-0.00228004
0.00267573
0.00111596
-0.0187341
6.70757e-05
8.16553e-06
-0.00954395
-0.0729729
0.00110499
-0.0210643
-0.181522
0.000290684
-6.87591e-06
-0.0494429
-0.0478804
0.665806
-7.45531e-05
-0.213411
2.0559e-06
3.683e-05
-0.32556
0.0032932
0.0275939
-0.000571953
-0.000108791
0.0292562
1.31231e-05
-0.00903965
-6.04006e-05
0.033173
-0.000463171
0.000521231
0.000184281
0.0131394
0.000140806
-0.00948901
0.000647529
-0.00443258
-0.13667
-0.000133899
-1.67672e-06
0.0515407
0.173535
3.81106e-06
0.201469
2.83824e-05
-0.0023847
0.000580918
-0.211271
0.496064
0.0071669
-2.98408e-05
8.68033e-06
-0.0139337
8.77184e-06
1.04436e-05
0.18
4.02381e-06
1.14686
5.50748e-06
-0.0145453
-0.340905
0.0269292
-0.044577
0.0561614
-0.0023376
-0.000174971
-0.210952
0.0516249
0.075269
-0.00106706
-0.349455
0.000551097
2.36358e-05
-0.00916103
1.47832e-05
-0.00863476
0.0281711
-0.000674624
0.000229329
-0.000131044
-0.0431741
3.05216e-05
0.000996348
0.000697301
-0.0194021
3.63407e-06
0.000321423
-0.000504531
0.0578513
-0.00012992
1.22327e-05
-1.97488e-05
-0.00996284
0.00152174
0.0183584
-0.00361377
0.00286467
0.00647843
0.0124933
-0.0800748
9.70092e-05
0.517232
0.00832669
-0.00154956
2.27552e-05
-0.0270708
0.467096
-0.721909
0.0887772
9.22403e-05
0.000264135
-0.346586
-2.0515
8.3203e-05
0.00685122
-5.85941e-05
0.00016686
1.26852e-05
2.45275e-05
-0.0127791
1.45684e-05
-2.35081e-05
1.47086e-05
-0.000146754
-0.000673467
-0.248263
-0.0228364
-0.1936
-0.235041
-0.129762
-0.175808
-0.105615
-0.000163588
-0.632496
2.83698e-06
-0.306359
-5.15097e-05
8.52336e-05
-0.0510449
-0.0020197
-0.0075811
-8.73279e-05
-0.0360007
-0.101392
0.000292686
0.0609003
5.70956e-06
-0.0376162
0.0351855
-0.000488498
-1.59771e-06
0.000163809
-0.00897945
-0.0206676
0.0111718
0.000152527
-3.06871e-05
0.000339614
-0.00217023
-0.0179896
0.00270154
0.159075
0.0684765
-0.000628689
-0.021827
1.70232e-05
6.47566
1.4591e-05
2.51346e-05
0.000103301
0.0534021
4.1944e-05
-0.0606894
0.00717172
-3.09609e-05
0.00218886
2.30066e-07
0.0692566
-0.104005
-6.19815e-05
-0.000128969
-0.036818
0.0712634
-0.000106145
6.1515e-06
1.18294e-05
2.93809e-05
-6.7743e-05
0.0755257
0.000271029
0.01041
-0.00381167
-0.139323
-0.161802
0.000855387
0.995466
0.0117043
1.27278
-0.149246
2.81222e-06
-0.0002323
0.0297604
-2.01084e-06
1.11092e-05
-0.0417557
-6.08146e-05
0.0895562
-0.000620957
-0.000109735
0.0832659
-4.61249e-05
0.000280965
-6.12179e-05
0.000251204
2.02274e-05
0.0303341
0.000213675
-0.00190116
0.543548
-0.02013
2.73259e-06
0.232557
-0.149253
-5.17506e-06
-4.65484e-06
0.00472553
-0.000354836
0.0853001
0.000178413
-0.0051121
4.57704e-05
-0.0270946
8.91076e-05
3.9632e-06
-0.000233705
-0.000837867
-0.00127279
3.83137e-06
0.000218875
-1.1368e-06
1.99736e-05
-3.46007e-05
0.00157694
4.02579e-05
2.38602e-05
-0.000771576
-5.36241e-05
0.0195323
-6.13502e-05
-1.21568e-05
0.0753025
0.00518901
4.40708e-06
-0.000155768
0.000449542
0.000200454
-0.00182204
-0.0740793
8.46173e-06
4.38939e-06
0.466765
0.0206806
-0.423871
1.28228e-05
-0.848911
-9.9339e-05
0.0864309
4.02598e-05
0.16962
-0.0155825
-9.89253e-05
1.63743e-05
-0.00107983
-0.181724
-0.147031
0.000250564
-0.384789
-0.202854
-0.000261637
-5.71966e-07
-0.0485795
2.58943
0.000281242
0.00497898
-8.39575e-05
-0.000629807
-3.49654e-05
-0.0446678
0.582282
5.48796e-05
-0.470913
6.9527e-05
-0.0310527
-0.0033178
-0.000189013
0.000107818
-0.000146982
-0.985649
1.3031e-05
-2.88071e-05
0.000449581
0.0949534
0.000586531
-0.116293
0.00017069
0.000219388
-0.0544834
-0.0175314
-2.44207e-05
-0.0549315
-0.0894908
-4.11096e-05
8.51802e-06
-7.69597e-05
-0.000339807
-2.73227e-06
0.0768962
0.398192
0.514638
0.00013765
-0.554807
3.07937e-05
0.000809643
0.000388882
6.96292e-05
3.72766e-06
1.82026e-05
-0.372268
1.63952e-06
0.193017
-3.2223e-06
8.25631e-05
-0.00119832
0.781781
8.98238e-05
0.00339057
0.000253216
0.506388
0.000392671
-0.0190588
0.0521593
0.000124886
-0.00440012
-0.00699604
0.0173546
-0.0878595
-0.000662557
0.000258885
0.410182
0.00788735
-0.614435
0.0241642
1.04424e-06
0.00367852
1.1776
1.78196e-05
0.00413599
-0.00113041
1.92964e-06
-0.0768617
-0.262511
-0.000101775
5.08567e-06
-0.000559283
0.075401
1.06442
0.0578656
-2.82663e-05
0.256386
0.00013416
1.14857e-06
-0.0344845
-0.000730178
0.00613956
0.00041479
0.0796487
-3.32709e-06
0.000804593
-0.013801
-0.988042
-0.257939
0.00795634
-3.03825e-05
-6.99871e-06
-0.000134187
0.0747693
-0.0463003
1.25499e-05
6.14199e-06
0.00260081
-0.0472883
-0.00181426
5.67246e-05
0.000194785
3.54606e-05
5.22751e-05
1.19142e-05
-0.000880284
0.00890541
1.45085e-05
0.0549261
6.51002e-06
-0.00181109
9.43231e-05
0.00119223
0.0212833
-3.95444e-05
-0.46785
7.62935e-05
0.0600443
-2.21736e-05
8.12031e-06
0.000136529
-0.0341853
3.55682e-06
1.61539e-06
0.0105864
0.00880422
0.00236029
0.390855
-0.00363323
-0.000161778
-0.446851
5.21901e-05
-0.000250034
6.6452e-05
0.000249039
-3.9663e-05
-3.89026e-05
-0.0960808
-0.480705
-0.0625892
0.00348026
0.000109916
-0.00242355
-0.0530073
-0.0112189
5.73191e-06
-0.0189229
0.235368
0.0622502
-0.0013088
0.00031926
-0.00176303
-0.0298148
-0.000357429
0.00183126
-0.222877
5.58439e-07
-0.000700615
-0.123304
0.000131011
1.53426e-05
-0.00111419
-0.0327528
0.00373848
-0.147876
-0.00335729
-0.00264732
-0.00021221
2.22852e-05
7.78374e-05
-0.145613
-0.0449298
-3.54962e-05
-6.43646e-06
1.66652e-05
0.0512307
-0.00230546
-0.00368766
0.000449565
0.00132392
0.0262262
0.1415
-0.000211479
5.12579e-05
0.00272131
1.45173e-05
-0.082937
4.12801e-05
0.000300541
-0.00048195
-0.0400859
0.112537
6.21313e-05
-4.61315e-05
-0.250314
8.40348e-05
-0.437563
-0.000124477
1.25585e-05
0.131154
-0.059226
-6.08666e-05
-0.000137027
2.55005e-05
-0.00188804
-8.40127e-06
0.0104844
0.018462
-5.13168e-05
6.87967e-05
0.000145591
1.96265
0.00014087
0.325267
7.15949
0.000224423
-9.07587e-05
0.0307776
0.0113532
0.113199
-0.000701196
0.110053
0.0696923
-0.000251097
-0.000107437
1.88248e-05
0.0022147
-0.0302025
-2.73937e-05
-0.000101861
-4.22887e-05
0.000352779
0.0147269
9.34751e-07
0.00721343
0.0956232
3.00684e-05
-0.0244368
0.0906515
-5.31511e-05
-3.21464e-06
-0.000295725
-0.0460361
-0.00038472
-0.00114477
-0.000911937
-0.108654
0.00111817
0.198256
-0.175487
0.00213635
0.028555
6.30232e-06
0.00120721
-0.0299983
-0.00228577
0.000202354
-0.00679367
-7.96178e-05
0.0709183
0.00133735
0.751375
-0.260906
5.67472e-06
0.475652
2.15571e-05
3.05742e-05
0.000307817
-0.00806512
-0.00417391
-0.0635119
0.0701526
-0.0103298
3.81305e-06
0.0832956
-0.00157135
-0.000738295
0.00222765
0.000348938
0.0201618
-0.00519791
1.79363e-05
0.00237191
0.0222497
-5.75314e-05
0.082948
0.0124501
0.00340895
-0.000151338
7.49544e-05
-0.00448968
4.62209e-05
1.53755e-05
-0.00107884
-0.0312494
-7.80863e-05
8.60374e-06
-8.12441e-05
7.34816e-05
0.000126436
0.000135431
0.0358195
-0.0283179
-0.0881685
-0.00059155
-0.00207964
0.00330561
1.79402e-05
0.416935
0.00276763
0.0045888
-4.05182e-06
-0.000521941
-0.000191185
-0.00100621
-3.45139e-06
-0.000203732
-8.96806e-06
0.0201018
-0.00231911
0.212298
-0.0647946
-0.00024895
0.000128309
0.0739086
-2.31202e-05
0.000233139
-0.00999239
-0.0112519
0.00569273
1.89167e-05
-0.0634956
1.60878e-05
-0.00181993
-0.0128803
0.000148724
-1.52398e-05
-0.016287
4.38239e-07
1.06085e-05
0.0342028
-2.28601
0.00786671
-0.146696
2.32464e-05
-7.79033e-05
0.159818
-2.62544e-05
-0.00509833
-0.0509206
-0.000561777
-0.0237827
3.45034e-06
1.0064
0.000926013
-0.0638418
0.00197699
-0.000342972
-2.85729e-05
-0.0231872
0.000425642
-0.0166737
0.00579207
0.00181741
9.07989e-05
0.00330848
5.98102e-06
0.427608
6.45867e-05
0.0853127
-0.00280585
0.000311498
0.000147264
-0.0338988
-0.000276694
-0.00239348
0.0701653
-0.111074
-0.00282114
6.0773e-07
0.00186242
8.65572e-07
-0.00145354
0.00258283
-1.21133e-06
0.0692567
0.000506355
-0.000369192
-1.01541e-05
-4.76209e-05
0.111336
-5.13865e-05
3.7878e-06
0.448
0.00136965
4.42025e-06
-0.261443
0.00117751
0.00426752
-0.000148614
0.00237273
-1.15621e-05
0.667467
2.43603e-05
0.0874714
-1.44479e-05
-0.026718
0.10212
0.00870449
-0.000233519
-0.211921
-0.00460475
0.000869998
-0.00119887
0.0509066
-0.0561977
-0.000100063
-9.0247e-06
0.00176651
-9.08174e-05
0.0872042
6.22193e-06
0.0118596
-0.00414759
0.00794887
4.93163e-05
0.0252687
3.45462e-05
0.000226622
-0.167737
-0.0104163
2.95252e-05
-5.07037e-06
0.000906265
-0.000167597
0.000384355
-1.39051e-05
-0.000336948
-1.09687
-9.32647e-05
-0.00819527
0.0521503
5.50125e-05
3.09782e-05
-0.00641913
3.36632e-05
0.0639662
-0.000139235
-8.53436e-05
-5.31727e-05
0.0908967
0.00134821
-1.83088e-05
0.000326017
7.70136e-06
-0.0572719
0.000130254
2.62701e-06
0.000315697
1.54068e-05
-0.00733679
-5.60484e-05
0.0229068
-0.000454541
0.0306827
-0.112562
-0.409443
0.0266261
-0.000137399
1.89917e-05
5.75757e-05
-0.00379197
-0.0645131
-0.339649
4.95653e-07
0.000390441
0.00180644
-2.22343e-05
0.0739457
0.000575513
3.52988e-05
2.29689e-05
0.0795872
-0.0192263
-2.22996e-05
0.0115205
-0.003377
-0.000371475
-3.68392e-05
0.0134088
3.65916e-06
-0.000618896
3.64769e-06
0.00147214
0.00167623
-0.000653375
0.0565717
1.51952e-06
-0.0100819
-2.48445e-05
0.018249
0.692547
-0.000441165
-0.300142
-0.0046779
3.98661e-05
0.000121666
8.16078e-06
8.43002e-05
-0.550164
4.23736e-05
8.14332e-06
-0.0987658
0.525388
0.326016
-0.0035033
0.000205819
-0.000253108
-0.0424445
1.00086
1.43279e-07
0.580997
7.49946e-06
5.57685e-07
0.0415302
-0.0460374
0.0702955
0.00040368
7.92147e-07
-5.36207e-05
-0.000444619
4.34318e-05
0.000366848
3.01757e-05
0.00164449
0.0833317
0.00775728
-0.000144643
-0.000103924
0.00594597
-0.00675465
0.00228929
0.123328
0.00512667
4.5304e-06
-0.000750209
2.96145e-05
0.000174389
0.0168969
-5.79481e-06
-0.00566335
-0.482367
-0.000229274
0.0817311
-0.100679
0.00388486
-0.708984
-1.35976
-0.0869787
0.0351102
0.00128337
3.0564e-05
0.00766036
0.000240144
0.0773162
-0.000141788
8.09738e-06
1.55138e-05
0.0986068
-0.100924
0.0694613
1.84029e-05
0.460984
0.00128632
0.519844
0.00419151
0.0351965
-0.0697611
0.00160192
0.956321
0.00786023
-0.00145954
0.000495119
0.0179641
0.49296
-0.584286
0.102783
-1.08642e-05
0.0611329
2.08595e-05
0.130695
-0.31187
5.03065e-06
0.000886207
-0.0312741
-0.222958
0.000728228
8.89004e-06
-0.000209553
1.39321e-06
0.0353361
0.0526452
1.38106e-05
0.00661211
1.8522e-06
1.25034e-05
0.000219048
-0.00169206
0.0248462
2.22688e-06
-0.000169147
-8.04197e-05
0.00553895
-0.0459801
9.08877e-05
-0.000213709
0.233077
1.21639e-05
-0.000154541
0.00159369
0.440477
-2.3233e-05
2.22678e-06
0.0673962
-0.000192879
8.27949e-05
-0.0327838
-0.00421136
0.000289883
4.69904e-06
-5.69691e-05
-0.804305
4.56572e-06
-0.106348
0.128051
-3.80013e-06
-0.0639854
0.087459
0.017063
-0.000157712
-0.0330194
0.289522
-0.00277581
0.00412093
6.10247e-06
0.00282938
0.00341462
0.0012459
-0.0509363
0.000153606
-0.0957796
0.00811593
0.0454603
-0.0001266
0.000310939
0.0735551
-0.000215723
0.0452871
0.093769
2.63219e-05
1.33352e-05
1.03394e-05
0.00404148
-0.00021222
0.258214
-0.0251483
-0.00271055
-0.000487748
0.00917474
-3.5812e-05
-0.027648
6.50692e-05
-0.135814
-0.00290842
-0.134124
0.00985236
0.000834488
-0.0499437
-0.487356
0.141482
0.098216
1.49071e-05
0.00468125
-3.95172e-05
-0.00316387
1.7287
3.02556e-07
0.00753635
-0.180347
-0.0478685
-0.00890867
-0.000699794
-0.226308
1.67145e-05
0.0383842
0.000422219
0.0116377
-0.0426603
0.0642398
9.98337e-06
-4.91941e-05
-0.427224
2.76798e-06
0.00981825
3.12797e-05
-0.00531541
0.0478549
-0.00020606
5.47011e-05
-0.123957
2.17705e-05
8.88362e-06
-1.44801
0.00573279
0.00443453
-4.17799e-06
0.0522727
0.00194164
3.53472e-06
0.00665427
0.00481859
0.315347
-0.136357
-0.00968978
-0.0267715
0.00292378
2.24189e-06
0.0128009
0.0390688
0.000720377
0.00094286
-2.87541e-05
-0.000443517
-5.2413e-07
1.83449e-06
-0.00723926
0.306617
-0.0763357
-0.0279163
-0.048182
-8.87272e-06
-0.00393724
7.28902e-06
-0.133627
0.0044439
0.00516524
0.108883
0.545897
0.00786561
0.000798345
-2.43789e-06
-0.695283
1.29643e-06
3.0208e-05
-0.000246121
0.000191188
0.0165867
0.0372886
-0.298284
1.88024e-05
-0.00221796
0.00313852
4.94558e-05
-1.74101e-05
-0.00629842
-0.609137
-0.000127966
0.000312158
0.817665
5.38179e-06
-0.0019215
-0.00151618
3.90494e-06
-0.000193711
9.18873e-05
3.28678e-06
-0.246738
3.95382e-06
-0.000143617
0.00168675
0.00451717
0.00302596
0.24897
-0.00139838
0.00386929
-0.00073519
0.000386592
-0.129743
0.00117397
-0.159025
-0.112251
0.516535
-0.0139578
9.69422e-06
0.0838491
0.00208976
0.00905755
-0.0108915
0.221416
1.1031
0.000348334
-0.000167227
-0.0296535
-0.696098
-0.00015452
-9.49675e-05
2.77491e-05
-7.07327e-05
-0.260263
-0.000177414
2.0183e-05
0.313996
1.64534e-06
-0.0461295
-0.000454366
5.29062e-06
8.54424e-05
-1.04809e-05
-0.0412234
0.559878
-0.0310943
-0.214371
1.7582e-05
1.4823e-05
1.00005e-05
-0.000670403
-0.000291762
-6.98179e-05
0.000904899
0.0510294
0.0239622
9.75567e-06
-0.148069
0.4739
-0.698976
-0.398586
-0.00339115
-0.000194125
-0.000130356
-0.20546
-0.321655
-0.00049872
0.00128097
-0.625977
-0.496758
1.66231e-05
-0.37641
-5.14877e-06
-2.26569e-06
5.55278e-05
6.54116e-06
-0.0011526
-0.0605123
-0.00927655
-0.0816795
-1.97742
0.204884
1.46371e-05
-0.0664979
2.5764e-05
-0.000369844
3.2307e-05
1.39899e-05
0.00798002
-0.298058
-0.00027047
-0.384103
-0.17637
0.566919
-9.81699e-05
0.000612324
-0.241145
0.00082666
-1.20972
-0.00280556
0.0688206
-0.00312948
0.0749824
0.112622
-0.499897
-0.195645
-0.000415241
-0.00290749
-7.88867e-07
6.41896e-06
6.27683e-05
-0.0415115
2.26846e-06
-0.00339761
0.000707218
-8.96534e-07
-0.028474
0.0467712
6.24892e-05
-0.253534
0.00136119
-0.0659533
0.00371462
0.00572339
-0.0423838
0.140539
6.77916e-06
-0.00388693
0.0233205
-0.367013
0.000250338
0.0638764
-0.0017681
1.47848
-0.0019302
-0.631772
0.000718228
-0.482941
4.00203e-05
-0.0030497
-0.779382
-0.000630886
-3.61963e-05
-0.0320276
-0.212148
3.94119e-05
-0.13403
-4.72428e-05
0.167814
-0.00558607
-0.182217
0.0248657
0.0353717
0.000536044
-0.00514515
-0.0137273
-0.00291732
9.9485e-05
1.54927
-0.000318372
0.00275826
0.00249498
0.000839945
0.578739
0.0142207
0.000911776
0.341683
-0.00330544
5.49668e-05
-0.0807979
-0.464058
2.6284e-05
0.0926783
-0.00168905
-0.605525
-0.00150102
0.315066
-0.197785
6.47075e-05
0.0849565
0.0036907
4.42393e-06
-0.0388383
-0.000150627
4.27807e-05
4.19289e-05
-4.63162e-05
-0.035824
0.686762
0.0117563
-6.45044e-06
0.0622855
0.0188567
-0.106898
0.777402
3.58582e-06
-0.112655
0.0135989
1.27251e-05
5.70466e-06
2.50197e-06
-0.0987022
5.21879e-05
-4.6433e-05
0.030985
-0.195984
-0.0695065
-0.000103117
0.00440285
-0.389057
0.181378
2.41332e-06
-0.0528188
-0.000327342
-0.0110447
4.62152e-05
0.018356
-8.51143e-07
-0.929366
0.00115019
-0.516923
1.46715e-06
1.90856e-06
0.618175
0.0723269
0.0231738
0.000595468
-0.00166003
0.000267371
2.90482e-07
0.00200826
0.0073115
4.71136e-06
-0.198138
-0.770424
-0.00531503
0.0331825
-0.00513526
8.24486e-06
-0.00477304
-0.0854794
-0.00256593
0.00313605
-1.08601e-06
-0.00139445
0.000185105
-0.0273395
0.00908869
1.56203e-05
-0.000527589
-0.0215345
-2.69354e-05
-0.161583
0.838975
0.00425634
-0.000143025
-7.27188e-06
4.13956e-06
1.64099e-05
1.43055e-05
0.102332
-0.0210667
-0.00293298
-0.00254734
-0.000138479
-0.011099
0.117544
0.0377085
2.34182e-06
0.000131847
-0.000113392
-0.0320842
-3.24439e-05
0.000628885
3.27999e-06
2.24236e-05
3.83285e-06
2.02878e-06
-0.0167665
-0.00028149
-0.234967
5.15943e-05
0.00173186
3.2984e-05
0.0170196
-0.000521992
0.000394682
-0.138655
-0.00477255
-0.00363222
-0.000265238
-0.0079062
0.00488262
0.0522819
0.551578
0.197586
-0.0168788
2.25219e-05
-0.00747076
0.000160194
-0.00605071
1.40632e-05
-0.0525133
0.000539151
5.74289e-05
5.42374e-05
-3.33703e-05
6.91402e-05
-0.059233
-0.0921053
-9.49194e-05
-0.00248552
-0.0900414
0.0612081
0.104136
-7.16653e-05
-0.000176924
-6.3846e-05
-0.0931701
0.00553197
0.0730728
0.000306372
-0.0578417
-3.92144e-06
5.09448e-06
1.10567
-0.0294143
0.0013086
0.0909133
-0.187855
0.00430598
1.37155e-05
9.5644e-06
0.0129799
0.00032415
-0.000136683
0.000190637
0.0029676
-0.0439854
3.28975e-06
-0.00158929
-0.0390864
0.0047263
0.0258647
0.0737764
-0.0039519
-0.0775316
-4.98495e-06
2.08039e-05
0.0842707
-0.00639487
7.62725e-05
-0.000154611
0.213631
0.0549733
0.00884941
-2.03827e-06
0.000840975
0.0872094
0.00471365
-0.17197
0.0795974
-0.00191562
1.54975e-05
0.163804
0.0736946
-0.0100512
-0.0031803
0.0421616
9.27439e-07
5.12154e-05
-0.0737823
0.0489337
0.00261832
0.00112839
3.87126e-05
5.86726e-07
-0.435429
0.0665586
0.0475662
0.0732003
-0.00551718
4.09411e-05
-0.018646
0.190897
2.3699e-05
0.00057305
-0.000173511
-0.243554
-3.98076e-05
-1.32406e-05
0.0367983
0.00345298
0.442255
-0.00645567
-0.000231226
0.00523295
-2.59268e-06
6.69869e-06
-0.00808956
-0.00675128
2.46765e-05
0.0533308
5.17131e-07
0.00165722
-4.43341e-05
0.0343815
-0.00953513
0.000194124
0.0533719
0.0332414
0.0478721
-0.00731128
-0.0529194
2.76456e-05
0.00764292
-0.0129132
-0.0346813
-0.000547511
1.51697e-05
0.0812784
0.0834532
-0.0518453
1.41547
-0.0209443
0.00035174
-0.000626259
0.093924
-0.222866
0.00116537
-5.01996e-05
-0.0150718
-0.522917
1.40317e-05
4.48756e-05
0.00283284
-0.102481
-0.0147874
3.1586e-07
5.14112e-06
0.297085
-0.219127
0.0133989
0.0372934
-0.0266069
-0.0561417
-0.000230851
0.126813
-0.0122373
0.0720663
-4.57109e-05
4.5253e-06
-0.0235556
-0.56404
-9.09755e-05
0.0144681
-0.0975722
0.00454795
0.0217481
2.6107e-06
2.91156e-05
-0.000257267
0.0230877
0.00103598
1.49535e-05
6.85934e-05
0.0116672
0.000315285
0.0438725
2.37332e-06
0.509355
1.71646e-05
0.0161327
3.19969e-06
-0.00429786
4.21991e-05
1.77852e-05
0.0959818
0.146251
0.000293227
3.72512e-05
0.214393
0.0141974
-0.00198048
-0.00606994
0.00761356
0.113804
-0.00356555
-1.72085e-05
-0.0489054
-2.33721
-0.0121061
1.45189e-05
0.000233599
-0.0163487
0.0870656
0.106516
0.0912596
-0.000265334
0.0340732
0.00532054
-0.00207005
-0.000433408
-0.0050908
-0.000114735
-0.0544592
-0.198338
-0.0591023
-9.97846e-07
-3.42258e-05
0.00813189
-0.00123751
-0.274923
0.00238664
-0.0532671
0.000264957
0.00300532
0.770576
0.093251
-0.0105724
0.00682478
-0.0203716
-2.06407e-05
4.14294e-06
-0.0889183
0.0256939
0.0681493
0.0137213
0.116778
2.53897e-06
0.00246495
0.000638019
0.0577507
-0.0016066
0.000292863
0.000133909
-0.00465113
-0.00472393
-1.41368
0.00150651
0.0102422
-0.00564487
-0.0141826
5.58547e-06
0.100325
0.000101847
-0.0123137
0.00102113
0.0228466
0.00115044
-0.267366
0.00328469
8.30013e-06
3.48188e-05
0.314493
2.36255e-05
0.00192501
0.000992727
0.00231752
1.12615e-06
-0.143535
-0.000115175
5.54598e-06
0.00023039
6.54819e-05
0.00758339
-7.01525e-05
0.0446911
0.0592248
-0.0134657
-0.0641112
0.00222805
-6.98331e-06
0.063442
0.226645
-0.00439077
-0.000354802
-0.000121008
0.0003252
-2.5616e-07
-0.0264309
0.0505388
0.170237
4.8698e-05
0.261943
0.0374638
0.000163203
0.104045
-0.0338611
0.000236761
4.2582e-05
-0.283173
0.16215
0.00159068
-0.0669503
0.000336004
-1.60912
0.000400334
0.0402876
0.00823336
3.65399e-06
-0.00723589
1.5291e-05
-0.240243
0.00757705
-0.0416042
4.3993e-06
1.54592e-05
-0.0314192
-8.55359e-05
-8.94448e-05
-0.061698
-0.67735
-0.00638134
-0.0162807
-0.105884
4.89744e-06
3.26615e-05
0.00679867
0.0114121
1.63707e-05
0.163699
0.00176974
-0.000864558
-0.000383571
-0.000177483
-2.82813e-05
-0.00945584
0.000333032
0.00978047
0.00570775
-0.0962724
-0.0426609
-0.323346
0.0509765
-0.00342538
0.0132643
8.49055e-06
0.000250249
0.000608681
0.00495611
0.169334
-0.0131485
0.313056
-0.795937
0.00704962
-0.00120911
0.0065817
0.000175262
-0.0479047
-0.000399585
0.0637825
6.92439e-05
-0.00011173
-0.161814
0.000436963
-0.0144339
4.22764e-05
-0.0651047
-0.00892606
3.64331e-06
-0.00611085
-0.0214522
7.3949e-06
-8.70128e-06
-0.00555574
7.44798e-05
4.29351e-05
0.000232509
0.354913
0.0824106
0.0419587
-0.000270032
-0.000662599
-0.00687332
-0.000174822
0.000366342
-0.000884524
0.00177826
0.000799406
-0.00578003
0.000397756
-0.000142103
0.0115387
-0.103143
-0.333973
-0.0006663
0.00259834
-0.144365
-0.358239
3.5435e-06
-0.91142
0.848179
1.35436e-05
0.0307032
0.00277248
-0.023231
4.13559e-05
0.00508831
-0.0035142
0.000618035
9.14849e-05
0.00020252
1.66591e-05
-1.26882
0.0588231
1.14529e-06
-0.0109636
0.00141782
-0.0185157
-0.000565411
0.000430607
0.00169242
0.000176371
0.00435287
0.000472697
3.93238e-06
-8.98183e-05
-0.00882063
0.00290824
0.00994226
-0.00102004
0.00711711
2.55223e-05
0.00101512
-0.0373909
-0.0583819
0.0018181
0.256916
0.000300069
-0.00465336
-0.138307
-0.00143424
-1.71288
0.00640455
0.000574897
-0.0015538
0.0741474
-0.000498186
0.00331119
1.41726e-05
-0.0132463
-0.722259
0.0463941
0.202807
0.254512
-0.0294749
-0.00824537
9.20746e-06
-0.000295939
1.0606
0.451282
-0.0062559
0.00964248
2.15934e-05
0.000150272
0.0307043
0.330627
-3.22476e-06
0.000183238
-0.00156703
0.000426176
2.94813e-05
0.00144812
-0.0174453
0.00159288
-0.0149646
0.979549
-0.594309
-0.00566624
0.658168
2.93907e-05
-0.000175458
-0.0125754
0.0711232
1.86758e-06
0.293392
0.446611
0.182671
1.35564e-05
4.30383e-06
-0.001944
-0.0113345
0.0733735
-0.171535
-0.13685
0.0286995
-0.00519474
0.00263503
-0.24112
0.000722369
0.00562767
0.0295436
-0.000276391
0.132287
0.00022853
0.0564208
-0.00443823
0.00623511
-0.0379204
0.0126288
0.00590831
0.13904
-0.0786146
0.00197557
0.0314532
0.098019
2.60048e-05
0.0868508
0.504628
5.60677e-05
-0.0751968
-0.00470679
0.00340677
0.168685
-0.00311887
-6.35695e-05
-0.468779
1.83166e-05
-0.00134646
-0.0794402
0.0114302
0.00324147
-0.0278724
-0.00352128
-0.148342
-0.00225703
0.016754
0.100612
0.00480186
-0.0202055
3.48819e-06
0.02534
-1.24901
0.000687324
-0.00262218
-2.48866e-05
-0.0438432
0.146595
-0.000692108
-0.000625014
-0.100464
0.000207655
0.560938
0.000180134
9.72197e-06
2.42953e-06
-0.00261504
0.000269783
-0.295482
-0.0186345
1.90537e-06
0.0364573
0.025849
-3.23522e-05
0.00105242
3.80267e-05
-0.00781323
0.546419
2.08187e-05
3.46209e-05
-1.92249e-05
0.0344321
-0.455745
0.00219439
1.01886e-05
-3.85042e-05