/*--------------------------------*- C++ -*----------------------------------*\
| =========                 |                                                 |
| \\      /  F ield         | OpenFOAM: The Open Source CFD Toolbox           |
|  \\    /   O peration     | Version:  v2012                                 |
|   \\  /    A nd           | Website:  www.openfoam.com                      |
|    \\/     M anipulation  |                                                 |
\*---------------------------------------------------------------------------*/
FoamFile
{
    version     2.0;
    format      ascii;
    class       volVectorField;
    location    "50";
    object      ddtCorrDdt0(U);
}
// * * * * * * * * * * * * * * * * * * * * * * * * * * * * * * * * * * * * * //

dimensions      [0 1 -2 0 0 0 0];


internalField   nonuniform List<vector> 
13749
(
(0.0161696 -0.109745 -1.13537e-19)
(0.000484096 0.000457797 0)
(0.000752126 0.00286606 5.3224e-20)
(0.000152603 8.20761e-05 0)
(0.156031 0.000690139 -6.61798e-20)
(-0.000164384 0.00014834 5.9309e-23)
(-0.029468 -0.00113392 1.31355e-21)
(0.000149066 -2.29538e-05 3.13577e-20)
(0.000870559 0.00346813 -4.059e-20)
(0.000178644 5.19329e-05 -5.83811e-21)
(-0.000108523 0.000140488 -1.79671e-22)
(0.000950563 0.000690542 -3.38755e-20)
(0.000639825 0.00112921 -4.58231e-20)
(0.0450203 -0.12119 -1.10396e-19)
(0.000382143 -2.31412e-05 -2.74157e-20)
(0.00588865 -0.241683 1.50683e-19)
(0.00142867 -0.00372062 -3.0317e-21)
(0.000170765 -1.18682e-06 -2.40399e-20)
(-0.00119835 -0.00123094 -5.17397e-22)
(0.000150284 5.09861e-05 4.34592e-21)
(-0.0254276 0.0736415 -1.01102e-20)
(-0.0122673 0.0302932 -2.90402e-20)
(0.0147353 -0.00394622 -3.37468e-22)
(0.000691277 -0.000892093 -4.82351e-20)
(0.00189368 -0.000766863 0)
(-0.00020116 4.91692e-05 -1.78077e-21)
(0.000449799 0.00121068 1.6107e-20)
(0.0012774 -0.0140791 -3.45632e-21)
(-0.0243702 0.00270442 -6.38321e-20)
(0.00445438 0.0375277 -2.86429e-20)
(0.0224606 0.00574158 -1.70519e-21)
(0.0013441 0.00407159 0)
(0.00211127 0.00429983 7.14053e-20)
(0.000391288 -4.27007e-05 2.09565e-20)
(0.0457291 0.0899076 -1.27905e-20)
(-0.0187844 0.00609619 3.15808e-20)
(-0.0127857 0.0175239 6.31058e-20)
(0.000732547 0.000167273 -6.10846e-21)
(0.0442755 0.0657858 4.42821e-21)
(-0.0270517 -0.00157764 4.14423e-22)
(0.000189159 0.000117718 -1.11045e-22)
(0.00562879 0.00336839 0)
(-7.56963e-05 -6.02262e-05 -9.74168e-21)
(-0.0152236 0.0219223 3.39357e-20)
(0.00538248 0.000832892 -2.12309e-21)
(-5.24218e-05 -4.65461e-05 9.0666e-21)
(0.00262071 0.00158715 0)
(0.00591497 -0.00175542 2.64344e-22)
(-0.00292748 0.00207625 3.47726e-20)
(0.000361626 -0.000122686 5.12334e-20)
(0.000609278 -0.00123574 -2.38266e-22)
(0.0047023 0.00090549 -6.65276e-22)
(-0.0256153 0.000600931 1.03855e-19)
(-7.74103e-05 0.000116407 1.12847e-20)
(0.000398724 -6.65753e-05 0)
(-0.0295087 -0.00116044 3.94685e-20)
(-0.0161332 0.0184813 0)
(6.58067e-05 0.00111348 0)
(0.00395311 0.00180512 -2.75637e-21)
(-0.00426003 0.000326065 0)
(0.00232253 0.00461954 2.72284e-21)
(0.0169106 0.00442434 1.4277e-19)
(0.00951653 0.00417994 2.58642e-21)
(0.0119407 -0.00329453 3.42928e-22)
(-0.000132027 0.000835406 -3.75581e-20)
(0.000754218 0.00777392 3.89814e-21)
(0.00118025 0.000180394 1.38743e-20)
(0.0313034 -0.024844 0)
(-0.0267164 0.00118298 -8.18296e-20)
(0.0250965 -0.0873394 -4.87955e-20)
(0.0021408 0.000598509 -2.18376e-20)
(0.0465433 -0.0893789 2.74376e-20)
(0.000736843 -0.000940907 2.38878e-20)
(-0.0376963 0.0407957 1.4174e-20)
(0.00044473 0.00023127 0)
(-0.17414 -0.0486262 6.39135e-21)
(6.43763e-05 5.97348e-06 1.79029e-20)
(-0.000344905 1.85051e-05 0)
(-0.0268457 -0.00202798 -2.18647e-20)
(0.000566664 0.000371665 0)
(0.0133579 0.00807547 0)
(0.00264136 0.000916577 0)
(-0.00800215 -0.00658738 -1.02895e-20)
(0.00188477 0.00152666 -1.68748e-21)
(-0.0127477 0.0112918 4.61452e-24)
(-0.000382866 -8.29379e-05 8.83511e-21)
(0.10602 0.0088845 -6.95585e-20)
(0.00145961 -0.00135355 1.93027e-20)
(-0.0989378 0.00839946 9.44057e-22)
(0.000748078 0.00204784 1.34433e-19)
(-0.00220929 0.000165377 1.71446e-21)
(0.0177897 0.0084735 -3.27616e-20)
(-0.000146269 0.000125184 -1.4883e-21)
(0.000401497 -0.00339799 0)
(0.000551787 0.000135788 -9.21537e-21)
(-0.0782129 0.00809358 3.20022e-21)
(0.0482424 0.173534 0)
(-0.0111776 -0.00352255 2.22836e-20)
(-0.0558719 0.130188 1.16377e-20)
(0.00167368 -0.000115178 -6.18432e-21)
(0.00316951 0.0018606 -7.22546e-21)
(-0.0166814 0.0355572 3.50985e-20)
(0.000841426 0.00124669 0)
(-0.0109471 0.00213456 2.92232e-20)
(-0.000102807 0.000122571 1.43398e-21)
(0.000138574 -6.09758e-05 0)
(-0.00151012 -0.00037205 -9.26017e-21)
(-0.0380689 -0.0274257 0)
(-0.000366042 -1.0895e-06 -2.91373e-22)
(0.000903235 0.0349292 3.0105e-20)
(0.000724072 -3.38811e-06 2.45614e-20)
(-0.0660753 0.0409443 0)
(-0.0215359 0.00201386 -3.34397e-22)
(0.000494475 -0.000451126 0)
(-0.00113667 -0.00646267 0)
(0.0344218 -0.0102754 0)
(5.78547e-05 1.00393e-05 -9.05099e-21)
(0.00224701 0.00134309 3.55647e-20)
(-0.00264233 -0.00537852 1.78814e-20)
(0.000419328 0.000105402 7.31444e-21)
(-9.16447e-06 3.30255e-05 0)
(0.00630504 0.0280785 3.69425e-21)
(-0.000304212 5.27006e-05 0)
(-1.41728e-05 6.16246e-05 -9.40686e-23)
(-0.000132722 3.0058e-05 1.85536e-21)
(-0.0235817 0.00201168 4.73981e-20)
(0.0105291 0.0255114 1.80067e-21)
(0.000250091 0.000140619 -6.71864e-23)
(-2.57895e-05 -5.67593e-06 4.31893e-21)
(0.0104608 0.0200857 -1.58307e-21)
(0.00257111 0.00236704 4.6102e-21)
(0.114498 0.00649828 7.42635e-20)
(-0.000858644 0.000316929 8.938e-20)
(-0.0514905 0.199343 -1.33062e-20)
(0.00539614 0.00327645 -3.6722e-20)
(-0.0168313 0.0196601 -1.71801e-20)
(-0.0199859 0.0073758 0)
(-0.00209792 0.000240284 -3.05119e-20)
(-0.00097261 4.98361e-05 0)
(6.38664e-05 0.000878849 -1.10385e-20)
(-0.00752341 0.0568783 0)
(0.00206807 -0.000255075 0)
(-9.28439e-06 3.53774e-05 -1.36712e-20)
(0.000825353 -0.021869 0)
(0.000745962 0.000712044 1.87774e-20)
(-0.000768281 0.000199414 1.5911e-22)
(-0.0881185 0.00243356 -2.89747e-21)
(-0.0214301 0.00301619 -9.03181e-21)
(-0.039029 0.0360298 -2.65064e-20)
(-0.0266537 0.000138372 3.09232e-20)
(0.00203898 0.000143703 0)
(-0.00230555 0.0267203 1.17623e-21)
(-0.000287517 8.73851e-05 6.60949e-24)
(0.038839 -0.0444538 4.45222e-21)
(-0.0197466 0.00674947 0)
(0.000107973 5.99579e-05 -1.53743e-20)
(-0.0161053 0.0314965 0)
(0.00644034 -0.0283334 0)
(0.0128776 0.00024742 -1.09483e-20)
(0.000379636 0.000193533 3.34625e-22)
(-0.000522169 0.00131138 -5.95489e-21)
(-0.000134313 5.76564e-05 -1.50903e-21)
(0.0128435 0.00484045 1.40843e-22)
(0.00114859 0.00245443 4.46394e-21)
(-0.00135817 -0.000790335 -9.92059e-23)
(0.00134233 0.000110381 1.91039e-20)
(-7.77321e-05 5.46582e-05 0)
(0.000161077 6.77388e-05 0)
(-0.0147373 0.0235542 0)
(0.0134836 -0.0283932 6.15672e-22)
(0.000346509 0.000323569 1.85321e-20)
(-0.000122728 9.93358e-05 -7.2069e-23)
(-0.0149435 0.0190251 -7.63929e-22)
(-0.061433 0.0663988 0)
(0.025639 -0.0445322 0)
(0.00158606 0.000641827 -6.14558e-20)
(-0.00574757 0.0140335 5.24495e-20)
(0.0174558 0.0018132 -1.26736e-19)
(0.00183615 -0.00787865 0)
(0.0197583 -0.240798 0)
(0.000785265 -0.0019018 -3.62882e-20)
(0.00162805 -0.00284846 3.07767e-20)
(-0.00306751 0.0103366 -3.60566e-22)
(0.0240569 0.0329152 1.47106e-22)
(0.000393359 0.00119139 6.21954e-20)
(-2.9281e-06 0.000761861 2.65222e-21)
(-6.02823e-05 1.19383e-05 -7.82323e-21)
(-7.69194e-05 3.70428e-05 -6.40426e-22)
(0.0542654 0.0306796 0)
(0.00872194 -0.0031599 -1.23919e-21)
(0.159585 0.065925 4.78424e-20)
(-0.00158481 0.0213164 0)
(0.000293365 -0.00115673 -2.34593e-20)
(-0.000793552 0.00170175 0)
(-0.000391105 -0.000137691 -4.13772e-21)
(-7.52956e-05 -9.17094e-06 -2.8419e-21)
(-0.000781746 -0.00790609 -2.12928e-20)
(-0.00336847 0.0125613 0)
(0.00084219 -0.00137369 0)
(0.0461577 -0.112587 5.93904e-21)
(-0.0134476 0.00634736 8.39566e-20)
(0.00042233 0.00165835 -5.02779e-20)
(-0.0182252 0.00830158 5.64042e-21)
(0.024878 0.0507103 2.32112e-20)
(2.07604e-05 0.000160928 1.96205e-20)
(-0.0372559 0.0271044 0)
(0.00292951 0.0032975 0)
(-0.0114871 0.0183275 -6.52459e-20)
(0.00153329 -0.00031474 0)
(-0.000117705 3.51689e-05 -3.74694e-21)
(0.000752014 -0.000170442 0)
(0.0903585 0.0179087 4.1718e-21)
(-0.000525664 0.000811212 9.32391e-21)
(0.000378134 -0.000340035 -1.14863e-20)
(0.0743917 0.0817762 -7.4365e-21)
(0.0137726 0.000305572 -3.16122e-21)
(-0.00112275 0.00145988 4.56642e-20)
(0.0148132 0.0448771 1.77717e-20)
(0.000144969 -6.86408e-06 2.31443e-20)
(-2.31751e-05 3.62747e-05 7.12661e-21)
(0.00153046 -6.11368e-05 0)
(-0.00294615 0.058811 0)
(0.00431282 0.00644262 1.51377e-20)
(0.000550309 -0.000807387 3.32285e-20)
(0.00692217 -0.0327607 -4.10681e-22)
(0.0916024 0.0693253 -6.04406e-20)
(0.0192757 -0.00145541 -2.50328e-22)
(-0.00135133 -0.00029754 0)
(-0.0192776 0.0157496 0)
(-4.98372e-05 2.40688e-05 1.53014e-20)
(0.0132297 -0.0277175 2.85146e-21)
(0.030002 0.0852831 -2.6422e-20)
(-0.000100927 8.1258e-05 0)
(-0.000206334 4.97825e-05 5.80898e-22)
(0.0003536 -9.65828e-05 -3.46406e-20)
(-0.000391728 8.92087e-05 -4.43323e-22)
(-0.0691127 -0.0405078 3.08239e-20)
(-0.00450132 -0.00260319 0)
(0.0161726 0.00632095 -1.08896e-20)
(-0.00105934 -3.70597e-06 5.39084e-23)
(0.030963 -0.0783663 -1.25326e-20)
(0.0179352 0.00489012 0)
(-0.000103563 0.000143848 -7.93389e-21)
(-0.00327006 -0.00385298 0)
(-0.000316268 -1.65002e-06 -5.67732e-22)
(-3.42228e-05 6.84072e-05 3.24387e-21)
(-2.16701e-05 2.10013e-06 8.42727e-21)
(0.000117242 -0.00040616 1.31477e-20)
(-0.0021968 0.0224857 -3.41687e-20)
(0.0208482 -0.0060025 6.46315e-20)
(0.000161852 9.80943e-05 0)
(-0.000442047 -7.34176e-05 0)
(-0.00116697 0.0374854 9.00992e-21)
(-0.0580223 -0.0372454 1.30557e-20)
(0.013281 0.011864 7.14959e-21)
(-0.000151577 0.000934022 -1.96925e-21)
(-0.0674259 0.0570925 1.54782e-21)
(0.00838618 -0.0240722 1.71428e-20)
(0.000147936 -1.40805e-05 -4.2696e-20)
(-0.000109727 -0.00011187 1.2452e-20)
(0.0626266 0.0822431 0)
(-0.0165091 0.0102335 7.56498e-20)
(0.000785808 6.32278e-05 7.30941e-21)
(-0.000577825 0.00665362 0)
(-0.000311916 0.00110161 -1.30646e-22)
(-0.000384619 8.20622e-05 3.11093e-22)
(-0.000785649 0.000177634 0)
(0.0115119 -0.0442053 -7.25939e-21)
(-0.0122942 0.0318604 0)
(0.000229876 -4.27035e-05 4.27605e-20)
(0.00378229 0.00159231 1.43453e-21)
(0.00122109 0.00148072 -1.88052e-20)
(-0.0211441 0.0770858 0)
(0.0495828 0.161447 0)
(0.0055696 -0.00319471 -3.21454e-22)
(-0.0286826 -0.00157453 -4.41261e-20)
(-0.0148922 0.018896 6.32685e-21)
(0.00178697 -0.00192085 -1.57777e-20)
(-0.0117809 0.0372096 4.96962e-20)
(0.000553032 6.14653e-05 2.02175e-20)
(-0.000638094 -0.00162441 0)
(0.0196078 0.0801305 -1.35357e-20)
(-0.0285713 -0.00220649 0)
(-0.00129039 0.00252451 -5.96335e-20)
(-0.105329 -0.237292 2.78156e-20)
(0.000232016 3.35537e-05 4.23846e-20)
(0.00436948 0.0129922 0)
(-0.0555732 0.0523546 3.25311e-20)
(-0.000142439 -0.000156023 -1.55375e-20)
(0.0388324 0.0319991 0)
(0.110079 0.0887634 4.99429e-20)
(0.00276387 -0.0187046 -3.61358e-20)
(0.0018471 -0.00154852 -3.08134e-20)
(0.00217722 -0.00161914 -2.6631e-20)
(-0.0150807 0.0114495 0)
(-0.0135326 0.0147325 3.47026e-20)
(-0.000297539 -4.43376e-06 -6.65594e-21)
(0.000380092 0.000357071 -1.77165e-20)
(0.0399002 -0.0764355 1.76243e-20)
(0.000208328 0.00013255 -1.61664e-20)
(-0.0122012 0.0135944 0)
(0.0142977 0.00561809 1.1244e-20)
(-0.0908437 -0.0848257 0)
(0.00059933 0.000553272 -3.4704e-20)
(-0.00267044 -0.00166857 -1.94259e-20)
(-0.0127876 -0.235703 -4.80041e-24)
(-0.0118643 0.0354454 -4.98509e-20)
(6.03746e-05 1.64745e-05 -6.55654e-21)
(0.0931452 -0.079948 -2.75627e-20)
(-5.72841e-05 0.000738768 -9.65338e-21)
(1.82191e-05 0.000397489 1.36418e-20)
(0.0043048 0.00135998 0)
(0.00447493 0.133049 0)
(-0.000414588 -0.00256884 0)
(-0.00732798 0.00782453 1.63266e-20)
(-1.99211e-05 2.01112e-06 -1.67989e-20)
(-0.0388453 -0.0183768 0)
(-4.09933e-05 -0.000159654 -1.25772e-20)
(0.00379175 0.00247493 1.56591e-20)
(0.000149688 4.5209e-05 -2.83236e-21)
(-2.971e-05 9.52134e-05 -4.06111e-21)
(-1.28696e-05 -1.55416e-05 2.18443e-21)
(0.00121283 0.00195724 2.61085e-20)
(-0.00300812 0.0251305 -1.35685e-20)
(0.000880247 0.000176637 2.69767e-20)
(-0.00279823 0.000925474 -2.89264e-20)
(-0.0222032 0.00864421 0)
(-2.56597e-05 0.00012668 -3.88825e-21)
(2.75822e-05 5.28106e-05 -1.06557e-20)
(-0.00635568 0.0298538 -3.94778e-20)
(-0.0197781 -0.00643482 -1.58738e-20)
(0.000443758 -5.22081e-05 0)
(-0.000358257 -0.000284656 1.77382e-20)
(0.0425047 0.0137416 2.51685e-21)
(0.000710994 -0.000234894 0)
(3.26534e-05 0.000186135 -1.03946e-20)
(-0.0375623 0.0128889 3.29387e-22)
(0.00016087 -2.511e-05 -3.21407e-20)
(-0.0158312 0.00723624 -5.64903e-20)
(-0.0857962 0.0743078 -1.51789e-20)
(-0.000300802 0.000141624 -1.8845e-22)
(0.0748745 -0.135777 -5.78001e-21)
(0.0460888 0.0178129 0)
(0.00216615 -4.99562e-05 1.69884e-20)
(-6.93278e-05 0.000773939 -2.04965e-21)
(0.00693195 -0.00470977 3.79639e-20)
(0.00747686 7.1011e-05 0)
(0.000489075 -0.00103094 1.8345e-21)
(7.3229e-05 3.29832e-05 0)
(0.0140414 -0.01731 3.34169e-21)
(0.00124575 0.000522621 -1.7707e-20)
(0.00599681 0.0659197 -1.16435e-20)
(0.00146782 0.000901624 -5.23416e-21)
(-0.00135242 -0.000410145 -5.16909e-23)
(0.000914152 -0.00516455 -3.12724e-20)
(-0.00127389 -0.00479021 2.02035e-20)
(0.000248263 -0.000194023 2.86564e-20)
(0.00556747 0.00696575 -1.02269e-20)
(-0.000458975 0.000966018 4.27855e-20)
(-0.00116649 -0.0017683 6.09676e-22)
(0.000249385 0.000269831 1.49204e-20)
(0.00493593 -0.0020251 0)
(-0.00335661 -0.00470978 0)
(0.182229 -0.0358568 -3.15032e-20)
(-0.000118051 0.00102365 1.11866e-21)
(-0.0014063 -0.000786323 9.7015e-23)
(-0.000361709 -0.0005001 -4.10436e-21)
(-0.00551254 0.000674383 0)
(0.000138029 -3.07619e-05 -1.50763e-20)
(0.000336657 0.000309965 -1.68153e-20)
(0.0427497 -0.100608 0)
(-0.000187283 3.33723e-05 1.164e-21)
(0.000167682 -1.16143e-05 0)
(-0.0234514 0.0142926 -9.40686e-20)
(0.000351037 0.000639882 3.13214e-20)
(-1.71371e-05 0.000114448 -1.12976e-22)
(0.000741286 0.00212729 -2.30022e-21)
(0.00140745 -0.00235974 -1.00565e-20)
(-0.113403 -0.0583132 -2.43196e-21)
(-0.0120316 0.0337348 2.25029e-21)
(0.000115434 -6.99164e-05 -2.15315e-20)
(6.96034e-05 5.82404e-06 0)
(-0.000121261 0.000394249 -1.44416e-20)
(-0.134496 -0.193455 6.41486e-21)
(-0.0125902 0.0167957 0)
(-0.00867691 0.00439362 -6.10979e-21)
(0.0863378 -0.140784 -3.24538e-21)
(-0.0460878 0.0154623 -2.4822e-20)
(-0.0108744 0.0872937 6.23693e-20)
(0.170352 0.0691389 -5.29311e-20)
(0.000202195 0.000124244 1.5238e-20)
(8.29292e-05 3.16188e-05 -1.13287e-20)
(0.00118714 -0.00161389 5.47703e-22)
(0.0548845 0.0951461 1.13017e-20)
(-0.0286563 0.000904541 0)
(-2.51448e-05 2.72298e-05 0)
(0.000240294 0.000708069 -5.11299e-21)
(0.000425346 0.00024677 8.82665e-21)
(-0.0833955 -0.0807013 0)
(0.00291169 0.00125375 0)
(0.00536903 -0.00236988 -6.05651e-20)
(0.000416053 0.000662087 0)
(0.00442981 0.0842803 1.14347e-20)
(0.00302705 0.0143962 3.10459e-20)
(-0.00120393 -0.00161164 4.69314e-22)
(0.00786587 -0.0293582 4.37425e-20)
(-0.0178873 -0.00905631 3.19069e-21)
(0.000217033 0.000278723 2.56601e-20)
(0.0132581 0.0116303 1.80277e-20)
(0.101816 0.00092524 -1.06284e-20)
(-0.00034066 8.60851e-06 -1.88325e-22)
(0.0145453 0.00750001 5.19701e-19)
(0.000586424 -7.60022e-05 2.26761e-20)
(-0.00652357 -0.0269722 -1.97698e-21)
(-0.0002853 8.05922e-05 3.60869e-22)
(0.0239994 0.00399401 0)
(-0.167984 -0.0720828 4.54439e-21)
(0.000621507 -0.00021978 -9.17455e-21)
(-0.0229617 0.00212627 8.06346e-20)
(-0.00552562 0.0290872 -3.96536e-20)
(5.71975e-05 9.19305e-05 1.29018e-20)
(0.000451156 -0.000657728 -2.5282e-20)
(-0.188247 -0.0602711 1.55985e-20)
(0.00232959 0.000122629 -2.13069e-20)
(-0.000575477 0.00155193 -7.00624e-21)
(0.000503666 0.00053929 2.53227e-20)
(0.000618521 0.00193451 -1.24988e-21)
(-0.000849882 0.000632 1.43796e-20)
(0.000154651 -1.51541e-05 -2.04116e-21)
(0.000395089 0.000309684 3.28038e-21)
(0.000243393 -0.000879323 0)
(0.00345106 0.00661138 1.5534e-20)
(-0.000286701 0.000844182 -1.13617e-22)
(-3.34252e-05 0.000723739 -1.40901e-20)
(0.000487281 0.000542301 -2.5827e-20)
(0.00175586 -0.0012246 4.64633e-21)
(0.000323819 0.000261919 0)
(-0.0251955 -0.000348748 0)
(0.056575 0.00576648 -1.46647e-20)
(0.0489709 -0.015599 -6.46738e-21)
(-0.0206681 0.144489 0)
(-0.0698047 -0.0494281 -2.60416e-20)
(0.000519119 0.00050919 0)
(-0.310558 0.514056 6.09329e-20)
(-0.0194134 0.00216716 9.4624e-21)
(-0.0288865 -0.0019005 4.34644e-20)
(0.00471269 -0.00348859 4.54492e-20)
(-3.1912e-05 -8.4647e-05 1.9805e-20)
(-0.0812044 0.0107163 4.12784e-22)
(-0.00555443 -0.0269826 2.03925e-21)
(0.00147356 0.00112122 -3.93114e-20)
(-0.0166714 0.014093 7.8647e-20)
(-0.000691509 0.000238109 9.98681e-23)
(0.00225445 0.000842447 1.69684e-21)
(0.000183732 1.21727e-05 0)
(0.0013791 -0.00035607 0)
(0.000209957 -0.000162124 9.05421e-21)
(0.170592 0.0498733 4.6403e-20)
(-0.0231828 0.0700362 1.70625e-21)
(-0.017228 -0.00941411 -3.13976e-21)
(0.00175838 0.00191569 0)
(5.43633e-05 0.000685352 0)
(0.0382503 0.0455199 0)
(0.00177683 -0.000267093 0)
(-0.0213456 0.0101065 0)
(0.0796701 0.0234018 2.04462e-20)
(0.00052991 0.000514958 4.12284e-20)
(-7.05179e-05 0.00888926 -1.6851e-20)
(-0.000208584 -0.000197715 -5.25035e-20)
(-0.106768 0.0795606 -1.13926e-20)
(0.00161539 -0.00183448 0)
(-0.0800475 0.09318 1.2609e-20)
(-1.6479e-05 8.42434e-05 -5.97527e-23)
(0.000585818 -0.000343658 2.65012e-22)
(0.000153886 2.29582e-05 -4.07884e-21)
(0.0425779 -0.0812932 -1.96061e-21)
(0.0587437 -0.018217 6.41233e-21)
(0.000688742 0.0153902 -6.71332e-20)
(0.00111293 0.001557 -4.44932e-20)
(-0.035897 0.114654 1.89443e-20)
(-3.08961e-05 0.000442446 -7.47932e-22)
(0.00024443 -0.00113284 6.43787e-20)
(5.29243e-05 0.000126407 0)
(-0.000312838 -4.96243e-06 4.96379e-21)
(5.89907e-05 0.000102314 0)
(0.00153572 0.000292235 -3.31012e-21)
(0.00036065 0.000129084 0)
(0.000338721 -0.00023985 4.61127e-20)
(0.00511869 -0.00213182 -2.59769e-20)
(-0.0072313 0.00497324 -2.11003e-20)
(-0.00048995 -0.000104219 -8.78331e-21)
(-0.0345171 0.0258212 -6.26052e-20)
(-0.0122935 -0.043724 0)
(-3.66817e-06 7.67114e-05 -7.77477e-21)
(-0.0161287 0.00872901 -4.86291e-21)
(-0.0421272 0.131655 -8.96336e-20)
(-0.0151344 0.0132759 0)
(-0.00119351 0.000658072 -3.21855e-20)
(0.0146986 0.0046671 0)
(-0.00665904 0.00640419 0)
(-0.0168983 -0.0619311 0)
(-0.00266976 0.00268893 -7.45513e-23)
(0.00454674 0.000299684 0)
(0.00148787 -0.000105012 2.0668e-21)
(-0.0123288 0.0182326 0)
(0.000172778 2.3945e-05 0)
(-0.000277638 0.000243334 0)
(0.00980374 0.0136876 -2.69154e-20)
(-0.165133 -0.209914 0)
(0.00017349 3.546e-06 1.5772e-20)
(0.0139091 -0.00064097 -5.36539e-21)
(-0.0138675 0.0139053 0)
(-0.000885572 0.000132233 -2.55655e-20)
(-0.159661 -0.259872 3.03785e-20)
(0.108121 0.00144176 -5.7704e-20)
(-0.00010421 -0.000180589 -9.7101e-21)
(-0.0888552 -0.0702442 0)
(-8.86476e-05 0.000377239 -3.53252e-21)
(0.0917073 -0.031692 5.38139e-20)
(0.00602834 0.0739259 6.52655e-21)
(-0.000288807 1.60658e-07 0)
(0.000157045 5.72413e-05 4.51715e-20)
(-0.027465 -9.85057e-05 0)
(0.000294083 -0.00292618 0)
(5.50414e-05 0.000117504 2.40936e-20)
(0.201815 0.119666 3.75145e-20)
(-0.0187901 -0.00730461 -3.95608e-20)
(0.0129734 -0.0458468 4.43784e-22)
(0.000212944 0.00416079 7.91189e-20)
(-0.0378644 0.0962745 -1.77774e-20)
(0.000547871 -0.000368245 -6.73001e-20)
(0.000577331 -4.8869e-06 -1.62229e-20)
(-0.0591993 0.0858819 1.79684e-20)
(-0.0291944 -0.00116336 -1.30636e-20)
(-0.000162095 -0.000955883 0)
(0.171134 0.160446 -3.5834e-20)
(-0.00739974 0.0341945 -3.54577e-20)
(0.00029005 0.000722415 2.56709e-21)
(-0.00477056 0.0329349 0)
(0.00166015 -0.000510666 -7.07602e-20)
(7.1073e-05 2.25166e-05 -1.21792e-20)
(0.00808078 -0.198543 1.12532e-20)
(-0.0112127 0.0592193 0)
(-0.00345696 -0.00439924 -1.92756e-20)
(0.000375519 2.55558e-05 0)
(-0.0239616 5.36355e-05 2.14915e-20)
(0.00179734 -0.000609171 1.98629e-22)
(1.5232e-05 0.000472982 -3.7869e-20)
(-0.0706094 -0.216335 4.08768e-21)
(0.0559505 -0.0847636 -1.33559e-20)
(-0.0238775 -0.00469198 4.89413e-22)
(0.00029896 0.000284811 8.9791e-21)
(-0.00631357 0.0275147 3.14915e-20)
(0.00344226 -0.00646963 -1.73111e-19)
(-0.0081024 0.0034434 0)
(-6.50272e-05 -1.92843e-05 1.86246e-21)
(-0.0410545 0.0288818 0)
(-0.0816909 -0.0795229 -4.37096e-22)
(-0.00104742 0.000810907 2.47727e-20)
(0.002588 0.000306537 3.71209e-20)
(0.000379203 0.000258262 -2.5952e-21)
(-0.0104869 0.37669 0)
(0.00654286 0.0963267 1.11753e-20)
(-0.000303872 4.50827e-05 0)
(0.0409458 -0.0110985 0)
(0.000271253 0.000121609 1.85438e-20)
(-0.011584 0.0320329 0)
(0.0125547 0.0177113 -2.65772e-20)
(0.000400505 -0.000655491 4.08727e-22)
(-0.0137286 0.0148804 -1.46142e-20)
(0.000259833 -0.000239289 -4.36924e-20)
(0.000485567 0.000329935 -1.44096e-20)
(-0.0260177 0.000933809 6.88195e-21)
(-0.0106132 0.00308732 0)
(0.000135972 -0.00053258 -1.17077e-20)
(-0.0746387 0.0442305 0)
(0.0131912 0.0102949 -1.68807e-20)
(-0.0174056 -0.214336 0)
(0.00265412 -0.00134176 2.16609e-22)
(3.22195e-05 0.000443314 0)
(0.107447 0.00210547 -4.61686e-20)
(0.000423814 0.000258383 6.64534e-20)
(0.00465811 0.00807974 0)
(-0.0467321 0.100709 4.46383e-20)
(0.000450351 0.000255315 -7.35578e-21)
(0.0094191 -0.000972787 3.25143e-23)
(0.0168032 0.00205527 3.60628e-21)
(0.000566574 -0.0113632 -5.4938e-20)
(-0.0145186 0.0175113 -8.60887e-22)
(0.00576353 0.0043092 0)
(0.0234365 0.109293 -4.63605e-21)
(-0.035618 0.0163467 2.7609e-20)
(0.00958451 -0.0411523 8.11301e-24)
(0.00944381 -0.05601 2.882e-20)
(0.00223094 0.0170453 4.50074e-20)
(0.0248446 0.0401473 -6.87195e-22)
(0.00873979 0.0320074 -3.9346e-21)
(-0.0173527 0.00449694 0)
(-0.00916585 0.0249882 -7.5323e-20)
(-0.000249476 0.000772284 0)
(0.030614 0.00656581 0)
(0.000219185 -3.69258e-05 -3.80207e-20)
(-0.022735 -0.00389989 0)
(-0.00533541 0.0335968 -2.48009e-20)
(-0.0728735 0.0577297 -1.46071e-21)
(-0.0216074 0.00733519 0)
(0.000271069 -0.000339514 -3.98078e-20)
(0.000944596 0.00145615 -2.91833e-21)
(0.000604957 -0.00033124 -4.02448e-20)
(0.0140907 -0.00352208 -1.264e-20)
(0.000160155 -1.93814e-06 -7.72092e-21)
(-0.00320454 -0.00501715 0)
(-0.00562683 0.00487943 1.09795e-20)
(-0.0380565 0.0514858 4.44078e-21)
(-0.000645591 -0.000310677 0)
(-0.0265248 0.0355388 0)
(-0.00029864 0.00195809 -6.43633e-21)
(-0.00120508 -0.00349832 0)
(0.00833915 0.047428 2.31663e-21)
(0.000477528 -0.000428858 0)
(7.61564e-05 3.054e-05 6.11205e-21)
(-0.072323 0.0730875 0)
(0.0129713 8.80828e-05 -5.9182e-22)
(0.000309571 3.98464e-06 2.17506e-20)
(-0.00324156 0.0240468 -1.37694e-20)
(-0.0027561 -0.00142804 0)
(-0.0127928 0.0420696 0)
(0.000173949 1.88056e-05 3.65502e-21)
(-0.00523278 0.00513029 0)
(-0.00071514 0.000250544 -1.22792e-22)
(-0.00135354 -0.000132051 7.76179e-21)
(0.0554521 -0.00600179 -1.50574e-20)
(0.0156692 0.00797036 9.00742e-20)
(-0.0086735 0.00380911 1.14129e-20)
(-0.00171466 0.00146381 0)
(-0.0532762 -0.203733 0)
(-0.000115981 0.000852118 1.0321e-21)
(-0.00133707 -0.000611024 1.22783e-20)
(0.000274897 0.00027076 -9.31427e-21)
(-0.0353003 0.115582 0)
(0.00252399 0.0366642 -2.24283e-21)
(0.0404979 0.111471 5.28776e-21)
(-0.0122501 0.00756595 -3.22855e-20)
(-0.0619934 0.0749123 0)
(0.00177673 -0.00015034 0)
(-0.0522584 0.0572701 1.53324e-20)
(0.000221053 5.06687e-05 -2.24196e-24)
(0.0344457 -0.0999476 -1.66299e-20)
(0.000636758 0.000839386 -1.70375e-20)
(0.0115537 0.00848355 3.19423e-20)
(-0.0203008 0.00401189 0)
(-0.0275407 0.0767228 -7.90235e-21)
(0.0166156 0.0320364 2.25396e-21)
(-0.0069981 0.00407002 -2.16483e-20)
(0.000797191 -0.000327518 -1.12624e-20)
(0.00144254 -0.0158169 1.24622e-20)
(8.09287e-05 4.08895e-05 2.62009e-20)
(0.014054 0.00315581 1.29566e-19)
(0.0086766 0.0107609 4.13551e-21)
(0.00525879 0.013031 -3.74724e-21)
(-0.000621187 -0.00025257 -3.64773e-21)
(-0.0100147 0.0289554 1.71229e-21)
(-0.134506 -0.0874709 0)
(-0.0786309 -0.00117084 -3.26034e-21)
(-0.0293416 -0.00145541 -3.99664e-20)
(-0.0254218 0.0660495 1.12959e-20)
(-0.151783 -0.0592215 -6.9652e-21)
(-0.11127 -0.2955 0)
(0.00011785 -0.000281084 0)
(0.00168456 -0.00282528 0)
(-0.00270585 -0.00363774 4.76972e-20)
(0.00309014 0.00829164 0)
(-0.00636239 0.00183918 1.39228e-21)
(-0.000299243 -0.000237324 8.40996e-21)
(0.000161664 1.93082e-05 -3.36029e-21)
(0.0181755 0.0137552 -1.07526e-21)
(0.000748076 0.026366 -3.57311e-20)
(0.000786916 -0.00180729 4.6522e-20)
(-0.0230984 0.0593445 -7.93157e-21)
(0.0143951 -0.0203341 -2.31126e-20)
(0.000334275 0.000708797 0)
(0.000113659 -9.39558e-06 -1.28966e-20)
(-0.0248974 0.0026079 4.21149e-20)
(-0.00891072 0.0266485 0)
(-0.0740608 0.111201 -2.82302e-21)
(0.000325658 0.000446321 3.23536e-20)
(0.0389969 0.194727 -2.52154e-20)
(0.000166699 -8.97776e-05 0)
(0.00106667 -0.00117498 0)
(-0.102872 -0.284174 6.06433e-20)
(-0.00448963 -0.00548452 -5.41446e-20)
(-0.0142521 0.010526 0)
(0.00142658 -9.13326e-05 -3.77561e-21)
(-0.000321128 0.000145206 -2.74472e-22)
(-0.0174691 0.00577517 3.95518e-20)
(0.00168062 0.00255123 6.95665e-22)
(-0.0191912 -0.00861045 3.32779e-20)
(-7.55014e-05 -5.69205e-05 -9.76444e-22)
(-0.0223716 2.832e-05 -2.20618e-20)
(0.00403969 0.000358737 0)
(-0.00265501 -0.000302523 8.03958e-21)
(0.000532073 0.00155662 5.23373e-21)
(0.0216486 0.0283466 0)
(-0.000359398 -0.000339389 -9.03061e-21)
(-0.0193677 -0.00861858 7.49909e-21)
(0.0013372 0.00146312 2.67041e-20)
(0.00735618 0.00294684 0)
(-0.00330232 0.0261557 7.19541e-20)
(0.00136686 0.00286686 -2.41578e-21)
(0.000141246 -0.000100543 0)
(0.0441663 0.0592448 3.52424e-21)
(0.128934 0.0857321 4.23121e-20)
(7.00772e-05 0.000247602 1.85142e-20)
(-0.0126647 0.00195805 4.43883e-20)
(-0.000326067 -0.000140336 -5.79255e-21)
(0.00624369 0.00146941 6.49457e-21)
(0.000853712 -0.000419056 0)
(-0.00508774 -0.123767 -2.54317e-21)
(-0.0423694 -0.0837182 -4.52128e-21)
(0.00786573 -0.0115936 -7.99699e-21)
(-0.000304726 -8.62392e-06 -4.20152e-21)
(0.000229144 0.000441649 0)
(-0.0156397 0.0162362 -1.1768e-20)
(0.000266537 0.000183234 -2.93846e-20)
(0.000137759 -1.65765e-06 0)
(-0.0236566 -0.000370844 3.82201e-21)
(-6.67279e-06 0.000109573 -6.2474e-23)
(-0.0211723 -0.00655983 0)
(7.31723e-05 2.67338e-05 3.76361e-22)
(-0.00965785 0.0251188 6.28284e-20)
(-0.0294596 -0.0586284 0)
(0.0139633 0.0232701 9.62945e-22)
(-0.00887976 0.0178885 3.39818e-20)
(-0.0213726 0.0529977 -1.83733e-20)
(0.00157058 -0.00345909 0)
(0.000302571 0.00055858 1.67779e-20)
(0.00436327 -0.162534 0)
(0.0036234 0.0159688 0)
(0.0770105 0.0455615 0)
(0.000406798 -0.00123836 -6.94341e-20)
(0.0155445 0.0434457 5.61281e-21)
(0.00696379 -0.0159131 0)
(-7.54243e-05 8.662e-05 0)
(-0.0102708 0.0027992 -3.12705e-20)
(7.00454e-05 1.04552e-05 -1.29174e-20)
(-0.0294856 -0.000258022 -4.01944e-20)
(-0.0210481 -0.0431276 1.4374e-21)
(0.00116465 0.000350039 1.85373e-21)
(0.000477109 0.000697163 5.53158e-23)
(0.000259965 -0.000927167 2.4634e-20)
(0.0210307 0.0719098 -9.51475e-21)
(0.000325115 -0.000453457 0)
(0.00534952 -0.00160757 -8.26465e-21)
(1.55955e-05 1.52871e-05 1.44165e-20)
(-0.0242275 0.00503678 -2.78967e-20)
(0.000262084 2.26978e-05 -2.11361e-20)
(0.00026259 0.000408853 2.18466e-21)
(0.00133552 -0.0032345 0)
(-0.0156097 0.022257 5.52035e-22)
(-0.000100847 0.000219132 1.68188e-20)
(-2.33545e-05 2.43248e-05 0)
(-6.71545e-05 -0.000213704 6.07986e-21)
(-0.023613 0.0131244 4.23445e-21)
(-0.0115048 0.00359113 1.03775e-20)
(-0.0474288 0.0558751 -9.29336e-21)
(0.0170421 0.0314847 2.44033e-21)
(-0.0204199 0.0559517 -1.83022e-20)
(-0.0289152 0.00117333 0)
(0.0447219 -0.00454679 -4.66117e-21)
(-0.00130682 0.0390574 -1.17419e-20)
(-0.000230674 0.000303419 4.03378e-22)
(-0.14772 0.0348533 0)
(0.00335803 0.00899124 1.06909e-20)
(0.00218858 5.67791e-05 -3.66709e-21)
(0.000118852 -2.25726e-05 0)
(0.0168831 -0.00793693 -6.14079e-20)
(0.0102043 0.0215416 -4.95701e-20)
(-0.0199105 0.0809308 -1.09809e-20)
(-0.0613693 -0.0338625 0)
(-0.000733424 -0.00163166 0)
(0.00595253 0.000370783 1.48648e-21)
(0.0185665 0.0425636 0)
(-0.0125326 0.410129 3.39004e-20)
(-0.000224296 0.000245399 -3.6914e-22)
(0.000538268 -0.000330329 -3.896e-20)
(-0.000561078 0.00131022 0)
(0.000533304 0.000105576 -7.60985e-21)
(-2.40204e-05 -0.000121449 7.36e-22)
(9.48272e-06 0.000185343 6.71361e-21)
(-0.0288722 0.00126319 6.31067e-20)
(2.81704e-05 0.000151442 1.37432e-20)
(-3.61732e-05 -4.5792e-05 8.06764e-22)
(-1.1373e-05 0.000176357 -1.72837e-20)
(-0.000244063 0.000294443 0)
(1.18716e-05 0.00152849 -4.54929e-21)
(0.034808 0.014041 4.31598e-21)
(-0.00215749 0.0182117 -2.04419e-21)
(-0.0280015 -0.0014447 1.06506e-19)
(0.104196 0.139521 -3.24543e-21)
(0.00116824 0.0283879 0)
(0.0134767 -0.254743 1.20128e-23)
(-0.00959115 0.00674208 6.70921e-20)
(-0.000212004 0.000595224 1.15867e-20)
(0.00867531 0.0611022 -5.87511e-22)
(0.000229472 -6.57781e-05 -4.48192e-20)
(0.0224258 -0.00590187 7.16302e-20)
(0.000161529 2.38134e-05 2.30175e-21)
(-0.000378286 -0.000416738 -4.24332e-21)
(-0.0100591 0.0169443 -2.10363e-21)
(0.00801364 -0.00342409 0)
(0.0465027 0.00373316 -6.58871e-21)
(5.97678e-05 8.00085e-05 0)
(0.0676262 0.0524802 0)
(0.0786912 0.150845 1.63909e-20)
(-4.44342e-05 0.000584905 0)
(-0.023158 0.00714656 2.21886e-20)
(0.000415108 0.000402169 -3.12808e-20)
(-0.0238189 0.00422312 2.19031e-22)
(-0.0621206 -0.146488 4.74375e-21)
(-0.00122734 0.000830373 -8.56316e-24)
(0.000184829 8.70901e-05 2.09461e-20)
(-8.35878e-05 0.00101982 0)
(0.00112467 0.00446426 -1.87076e-19)
(0.00618794 0.00205463 0)
(0.0132542 -0.0501245 -2.32306e-20)
(0.000105661 3.61682e-05 2.13275e-21)
(-1.14586e-05 -0.000279658 1.08684e-20)
(-5.43998e-05 0.000497827 -3.5427e-21)
(0.00918867 0.0115764 0)
(-0.0447502 -0.183747 0)
(0.0036788 -4.99614e-05 4.6729e-20)
(-0.00919351 0.105466 -8.88495e-21)
(-0.0108424 0.0218388 0)
(0.00178617 0.000583831 -1.53217e-20)
(-0.0187724 -0.0081095 2.69138e-20)
(0.000260474 0.000447355 -7.85298e-21)
(-0.0107292 0.0700558 4.5034e-20)
(0.000200074 0.000270553 0)
(-1.57264e-05 0.000188384 0)
(0.00151692 0.00124418 -2.05877e-20)
(-0.0138563 0.0263206 0)
(0.000689391 0.000597148 -1.99448e-20)
(-0.018782 0.0128182 6.42145e-20)
(0.00509111 -0.0069329 8.96984e-21)
(-0.000348219 -1.20429e-05 0)
(0.000374481 -0.00138374 -1.3171e-20)
(0.000151778 -4.58471e-05 0)
(-0.0187327 0.0506036 1.87893e-20)