/*--------------------------------*- C++ -*----------------------------------*\
| =========                 |                                                 |
| \\      /  F ield         | OpenFOAM: The Open Source CFD Toolbox           |
|  \\    /   O peration     | Version:  v2012                                 |
|   \\  /    A nd           | Website:  www.openfoam.com                      |
|    \\/     M anipulation  |                                                 |
\*---------------------------------------------------------------------------*/
FoamFile
{
    version     2.0;
    format      ascii;
    class       volScalarField;
    location    "400";
    object      p;
}
// * * * * * * * * * * * * * * * * * * * * * * * * * * * * * * * * * * * * * //

dimensions      [0 2 -2 0 0 0 0];


internalField   nonuniform List<scalar> 
13308
(
-0.0664834
-0.0463298
-0.0160559
0.0599468
0.101549
-0.00731233
0.110918
0.0368179
0.0829638
0.0807005
0.0226738
0.0561921
-0.0739051
0.108531
0.0898962
0.100605
0.0376546
0.0563043
-0.0614909
-0.0279405
0.0962753
0.0548846
0.0545742
-0.103209
-0.0152039
0.0446921
0.0275825
0.0556677
0.0248208
0.0572464
0.0691364
-0.00188354
-0.0785881
-0.0574406
-0.0643579
0.0604787
0.0536571
0.071509
0.0629578
0.0625139
0.0868853
0.0401326
0.0362725
0.0757795
-0.00797921
0.0774783
0.05435
0.0880865
0.029781
0.0823707
0.0689349
-0.0511615
0.0575329
0.0256307
-0.00451732
0.041196
0.0136567
0.0891984
0.0812903
0.152628
0.037359
0.089423
0.018008
0.0642278
0.0448836
0.0250593
-0.0432509
-0.00711907
0.028318
0.0570357
0.0800769
0.0175164
0.0483203
0.00772766
0.0415095
0.0858899
-0.0306818
-0.00944214
-0.073661
0.0148231
0.0527752
0.11876
0.0419799
0.0941071
-0.00701252
0.134543
0.0754514
0.145993
0.146815
0.0951897
0.081852
-0.163816
-0.0012771
0.138983
0.135625
-0.000338431
0.0527378
-0.0301428
0.0776863
-0.0455084
-0.0619614
0.088534
0.0514156
0.0738175
0.0485669
0.0807228
-0.137786
0.15509
-0.0254873
-0.0623066
0.0757283
-0.00375616
0.0817481
-0.0777761
-0.0593507
-0.0819129
0.184353
0.11007
0.0369303
0.077211
0.134054
0.0877074
0.081423
0.131325
0.102059
0.132934
-0.0129971
0.0952122
0.0825219
0.124946
-0.0135896
-0.0134333
0.0616375
-0.0112172
0.0841202
0.0341488
0.0831204
0.0525736
-0.0653774
0.075569
-0.162689
-0.0529892
-0.0442582
0.114587
0.05695
0.20439
0.0267542
0.0675962
0.0926418
-0.0958439
-0.147813
0.0860374
-0.0279393
0.0726666
0.0584965
0.0348872
0.0806191
0.08619
0.104655
-0.0598962
0.0936171
-0.0139522
0.112447
0.0869797
0.0571605
0.227735
0.0651014
-0.158491
-0.0165678
-0.13393
0.0531943
-0.047752
0.0225129
-0.070513
0.0345153
0.0809857
0.00581297
0.00414168
0.0626054
0.0745862
0.0997654
0.036397
0.0453028
0.0215542
0.126247
0.0816651
0.0829812
0.0236913
0.0537128
0.11694
-0.0130472
-0.0156258
0.226959
-0.149643
-0.13458
-0.0158909
-0.00859454
0.0893432
0.0384527
0.0527179
-0.116653
0.0542067
0.0512172
0.0457147
0.173287
-0.012855
0.12391
0.0466361
0.0918384
0.00590809
-0.0495253
-0.101644
0.080152
0.127146
0.0512601
0.118479
0.0482081
0.208082
0.0532415
0.0531801
0.089238
0.0832938
0.09336
0.0443781
0.0686502
-0.0687842
0.0667974
0.0747652
0.0815612
0.107746
0.0152513
0.0854958
0.0673408
0.0272763
0.13891
0.0855406
0.0486843
0.0536948
-0.015548
0.0872981
0.0718215
0.177332
0.087589
0.00374052
0.225102
0.148335
-0.120821
0.0529928
0.0825309
0.0349167
-0.00337685
0.0682212
0.201361
0.0799217
0.0810632
0.101034
0.0582256
0.0866625
0.0964994
0.108006
0.0201641
0.0480912
0.0456737
0.0257236
-0.0426675
0.0639876
-0.060796
0.100706
-0.0804416
0.0461693
0.0572307
0.0384107
0.1331
0.0724554
0.106142
0.117209
0.0540696
0.182975
-0.029127
0.011265
0.135957
0.0963179
-0.0286893
-0.131386
-0.085018
0.0831816
0.078805
0.16564
0.0426621
-0.0196639
-0.00996679
-0.168023
-0.0748103
-0.0268197
0.110428
0.0533257
0.0517
0.100479
0.0164796
0.103978
-0.016543
-0.00104456
0.00272197
0.0694929
0.0507554
0.0937688
-0.0959221
0.158533
0.130296
0.0670035
-0.028953
-0.0684099
0.0641357
0.114609
0.102964
-0.0538829
0.0149227
-0.0238959
0.104207
0.00793025
0.135485
0.0732902
-0.0014756
0.043759
-0.065331
0.0937599
0.0468262
0.0932226
-0.0521511
0.116639
-0.0681164
0.117189
0.158313
0.145624
0.0563357
0.0650774
0.10052
0.111328
0.045949
-0.0281809
-0.11056
0.0848225
0.139155
0.148936
-0.0498857
0.0857268
0.0713754
0.0813661
0.0947204
0.118943
0.0238245
0.087546
0.14294
0.0461857
0.168606
0.0887647
0.057726
0.036691
0.0186021
0.0882538
0.161419
-0.0262227
0.0503857
0.134708
-0.0692008
0.0409778
0.226655
0.00228081
0.0747961
0.00665187
-0.0501904
-0.0935304
-0.0774695
0.218096
0.0892957
0.128509
0.147607
0.0797312
0.190481
0.0484057
0.0871125
0.0740978
0.096644
0.268557
0.14039
0.10008
0.0155111
0.00566083
0.0472617
-0.153763
-0.12462
0.0157886
0.0740677
0.0746988
0.0134729
0.204876
0.0926042
0.148093
0.127545
-0.0285789
-0.0927883
0.103534
0.099353
0.0516737
0.01663
0.0566474
0.115779
0.0807784
0.0602906
-0.0296515
0.192982
-0.00872397
0.0162414
0.0903412
-0.155957
0.0083574
-0.122549
0.093402
0.0751649
0.038904
-0.00962674
0.0868814
-0.0985534
0.0125641
0.0824514
-0.100075
0.151869
-0.11235
-0.010393
-0.0764984
0.114527
-0.127711
-0.00360436
0.106327
0.0757423
-0.0163742
0.0444711
0.0434951
0.00647582
0.11775
0.0766974
0.0899442
0.106902
0.149209
0.0506613
-0.067564
0.0503493
0.0816883
0.16047
0.117847
-0.0985332
0.0897001
0.117297
0.00351765
0.103027
0.0629811
0.0621115
0.0495632
0.0121336
-0.0759939
0.0442003
-0.0290283
-0.00835292
0.0799455
0.0339813
-0.0267677
0.0643097
0.0854178
0.00149558
0.0690342
0.187048
0.0665339
-0.0948184
0.0964337
0.0769731
0.0795445
0.0920729
0.0799067
0.017683
0.0810457
0.0918498
0.0815101
0.0924062
0.199319
0.0613971
0.00874595
0.0878198
-0.015976
0.0569466
0.102259
-0.0470943
0.0197619
0.0549539
-0.0927707
0.0223825
-0.0278995
-0.129373
0.0946996
0.118464
0.0812223
0.113482
0.0512385
0.00240672
0.00785595
-0.00818973
-0.00516425
0.0944443
-0.0675433
-0.0513447
-0.0148817
0.0859158
0.00253236
-0.082938
-0.0829936
0.0567978
0.120275
0.0364393
0.0794417
-0.00592554
0.068103
-0.0898081
-0.0664961
0.0486546
0.125113
0.142522
0.0856967
-0.105274
0.0999629
0.0620806
-0.069852
0.083772
0.0846137
-0.13418
-0.0589009
0.0594832
0.0469904
0.0586989
0.0895308
0.116122
0.084246
-0.010637
-0.0908257
0.0813132
0.0444838
0.0841194
-0.00140541
0.0830769
0.0755201
-0.0672331
-0.100031
0.0796415
0.0861574
0.1483
0.0882171
-0.0661316
0.0537815
-0.128304
0.053231
-0.065005
0.0521774
0.0871534
0.0786426
-0.0237483
0.1258
0.0868185
0.190189
-0.00128722
-0.0634934
0.08082
0.0822901
-0.0367982
0.0752209
0.107407
0.00695521
0.0795261
0.0638361
0.0319114
0.0834364
0.250934
0.0552043
0.060973
0.0931141
0.036967
0.0487731
-0.0262749
0.0885153
-0.0435539
0.0837922
0.0620681
0.0975581
0.0520712
0.0568067
0.116579
-0.0814454
0.0405109
0.101351
0.0370108
-0.0337588
0.00768888
-0.0315148
-0.126529
0.0805662
0.0791923
0.063405
0.10729
0.047037
0.0062671
0.206893
-0.126806
0.0345953
0.0788473
0.0521023
0.203926
-0.0855418
0.107381
-0.11411
0.056407
0.0665104
0.100112
0.12576
0.119845
-0.0646039
-0.0309299
-0.0700067
0.0606974
0.0822774
-0.00256738
-0.00992067
-0.0487416
0.166175
-0.0325546
0.0514725
0.0755648
0.0672412
0.0831617
0.101118
0.106987
0.0831442
0.0776539
0.0531872
0.0867035
0.0630073
0.149113
0.0780079
0.108003
0.103531
0.137675
0.084233
0.0782618
0.0140815
0.0512314
0.0506535
-0.0362813
0.0542989
0.00486708
0.102435
0.0287117
0.0379559
0.0703653
-0.0124621
0.150392
0.0423463
0.0585149
0.00282247
-0.0331616
0.0811362
0.0154921
0.0859585
0.0844033
0.0735551
-0.110263
0.0786971
0.0130264
0.150692
0.0940632
-0.0614427
0.154847
0.0722757
-0.00911486
0.0483725
-0.0254186
0.0068767
0.0487422
0.0796697
0.00717668
-0.138203
0.0833251
0.0829151
-0.00402586
0.0825283
0.0270733
0.0498068
-0.135505
0.0833672
0.083388
0.0180059
-0.0184432
0.0543231
0.0881314
0.125971
0.0705034
0.0219621
-0.117557
-0.0686758
0.0674195
0.0682362
0.0250628
-0.0153641
0.0698819
-0.0603408
0.0207558
-0.0862029
0.150637
0.0753404
0.0680866
0.0810459
0.0810652
0.193693
0.0543521
0.02294
0.0840173
0.0399074
-0.084947
0.07755
0.0661128
0.00753789
-0.0432687
0.259352
0.0668359
0.0722156
0.0854274
0.0824338
0.0810183
0.0817389
0.111783
-0.0147388
0.0802674
-0.117634
0.0762678
-0.102687
0.0352969
0.0706107
0.0988571
0.0123294
0.0839791
0.0719988
0.0587495
0.0202762
0.140759
0.0604372
0.0216599
0.0930779
-0.138645
0.100581
-0.0670261
0.0524445
0.0827555
-0.0620634
0.0212859
0.0832522
0.0476572
0.139298
0.0829467
0.0762408
0.0979051
0.0852655
0.118591
0.0929932
0.0991834
-0.0276417
0.0269379
0.0839904
0.0100466
0.201527
-0.160334
0.0394583
-0.163156
0.0450532
0.0806895
0.03181
0.0433999
0.0609935
0.0949805
0.0090203
0.0757504
0.0401001
-0.0643999
0.0668831
-0.0534367
-0.0223931
0.084598
0.116843
0.0980326
0.160318
0.148679
0.0697089
0.124734
-0.0610851
0.0358949
0.0803462
0.0832941
0.081255
0.0685045
0.0943077
0.0846034
0.238897
0.0761856
0.0702179
0.0774196
0.00605113
0.0488899
-0.0674124
0.0311137
0.144172
0.105877
0.117366
0.0838335
0.0384508
0.0777911
0.0252612
0.102834
0.077596
0.0658819
-0.105998
-0.00397529
0.0977383
0.0994061
0.154524
0.0593698
-0.122897
0.085297
0.110447
0.105624
-6.99739e-05
0.0932186
0.0838032
0.0713483
0.0496585
0.0940794
0.168682
0.156726
0.157078
0.0872985
-0.0581791
0.0726075
0.0230246
0.0966216
0.103723
0.0530513
0.0899528
0.109616
0.0349911
-0.131144
0.141166
0.0997832
0.0979439
0.0833144
0.0591803
-0.049921
0.0354623
0.0884217
0.116978
0.083378
-0.00848222
0.150438
0.0107823
0.0805315
-0.13129
0.0744992
0.139401
0.0832824
0.190785
-0.0627165
0.0815948
0.0817123
0.105224
0.228816
0.0320018
-0.0551763
0.10208
-0.123171
0.209111
0.0750237
0.070611
0.0486311
0.0893024
-0.0726798
0.0317956
-0.0885337
-0.129332
-0.0067052
0.0024749
0.0761894
0.0204998
0.00542445
-0.0904761
0.0817791
0.077204
0.018907
0.0495222
0.0703952
0.0196345
0.0354718
0.0196176
0.0806071
0.108237
0.0629834
-0.0490103
-0.115587
0.0803189
0.0883599
0.0828611
0.0584062
-0.0134053
0.045307
0.100407
0.128412
0.0906692
0.0496524
0.0788184
-0.120962
0.0917341
0.0229942
0.0865997
0.111614
0.0142014
0.0131483
0.143293
0.115567
0.0698758
0.105881
0.0247281
0.0793397
0.127935
0.0776648
0.180764
0.0848139
0.0811931
-0.079488
0.0272738
0.0502092
0.0815421
-0.167487
0.168598
0.0329863
0.0781518
-0.107563
0.0617245
0.0717435
0.0599865
0.0167813
0.244368
0.0940032
0.0832941
0.0891473
-0.0825861
0.00900822
0.00891455
-0.0791394
0.0888646
0.0743745
-0.0115552
0.0893236
0.060731
0.12152
0.0664203
0.0828766
0.0806726
0.0821596
0.0836252
0.0836572
-0.114205
0.0846042
0.0561714
0.0846831
-0.127826
0.0710171
0.00114561
0.0771713
0.0150438
-0.0167897
-0.114912
0.039425
0.168604
0.014743
0.0340388
-0.0328929
0.0213711
-0.00491427
-0.0553614
0.083491
0.0774882
0.0854888
0.0178216
0.0809695
0.0778669
0.0937729
0.189855
0.0846816
0.0681265
0.0993117
0.0722403
0.160627
0.0835171
0.0992134
0.0242281
0.0591931
0.0868691
0.103086
-0.156902
0.0647424
0.0689984
-0.129064
0.233027
0.0805457
0.0805224
0.0809291
0.105517
0.00893873
0.0824637
0.0519248
0.00651021
0.0751171
-0.0690344
0.115259
0.0825562
-0.018297
0.043755
-0.0113999
-0.0337856
0.107119
0.117924
0.0112467
0.0764892
-0.110059
0.0854268
-0.120925
0.0676121
-0.0175634
0.142304
5.13612e-05
0.0816778
0.0463632
0.189606
0.00448131
0.0243013
0.0890548
0.10928
0.0516387
0.0811427
0.0809424
0.108575
-0.00989411
-0.0776461
0.0848536
0.0182394
0.0820364
0.142855
0.0852165
0.114947
-0.150995
0.0730581
0.0982365
0.12086
0.0703296
0.250181
0.089276
0.119453
0.075564
-0.0150079
0.0796952
0.0594666
0.0946037
0.0846209
0.0731482
0.187271
0.0859393
0.0856153
-0.0246118
0.0839637
0.023093
0.166085
0.104673
0.130568
0.0706771
-0.0236064
0.0761447
0.131767
0.162217
-0.0142973
0.019159
-0.00464358
0.106488
0.0877528
-0.061491
0.0867085
0.0739689
0.238724
0.0476986
0.0887183
-0.0821351
0.15277
0.103218
0.0590409
0.0844828
0.104461
-0.0281841
0.109459
0.0313039
0.130108
0.0785287
0.0385687
-0.017219
0.0868827
0.00546595
0.0526816
0.0823533
-0.0299595
0.0742545
0.0778487
-0.000400524
0.0798283
0.0457994
0.144764
0.0414434
0.137212
0.0358351
0.10744
0.0711867
0.0681544
0.12516
0.0787549
-0.0796277
0.247414
0.139357
0.0524692
0.0553167
0.0569749
0.0834748
0.031553
0.0378549
0.111233
0.0178476
0.071345
0.0501201
0.0429841
0.055975
0.0793905
0.0999647
0.185683
0.0758772
0.0914851
0.0718242
0.0267787
0.0911551
0.0652802
0.083676
0.0755428
-0.0423504
0.117299
0.0188124
0.108134
0.0132884
-0.0173895
0.0807456
0.126257
0.0711424
0.0759361
0.0589169
0.0610723
-0.0727207
0.0850037
0.116725
0.0532032
0.0641535
-0.00589658
-0.0710635
0.0567746
-0.126491
0.0751494
0.0991476
0.0799922
0.0198848
0.0763643
0.0507772
0.112132
0.125313
0.0554214
0.0832822
-0.147618
0.0691272
0.131166
0.0853372
0.0801306
0.0871694
0.0905329
0.254407
0.0527036
-0.097111
-0.0209809
0.0129103
-0.0866965
0.0514422
0.155991
0.0750727
0.106612
0.0726767
0.109396
0.0970813
-0.0762903
-0.0742147
0.0101667
0.0818855
0.11553
0.0522177
0.0183687
0.153956
0.171245
-0.125987
0.162637
0.0233242
0.0922521
-0.0621507
0.0773881
0.0598348
-0.0687031
0.108111
-0.0812468
0.119659
0.104841
-0.077528
0.0187759
0.0752931
0.124933
0.0679317
0.0706147
0.0704804
0.10542
0.25485
0.0101932
-0.0221096
0.147885
0.0987133
-0.0205756
0.045625
0.0794868
-0.0106736
0.126754
0.0775088
0.0405274
0.102086
0.0853605
0.0960512
0.0548859
0.0798931
0.131752
0.133194
0.0703983
0.0831946
0.0833534
0.123587
0.162666
0.066468
-0.160859
0.082163
0.102134
0.0891982
0.0169572
0.159605
0.0794704
0.0173599
-0.0558096
0.0988769
0.142597
0.112207
0.0834643
0.0653381
0.0443363
0.0829602
-0.0322855
0.080483
0.0839391
-0.103938
0.0849293
-0.0553413
0.0206684
-0.086029
0.0543679
0.000467004
0.0728894
0.0849596
-0.0826066
0.164143
0.054762
0.0744278
-0.0853274
0.0600744
0.0766155
-0.0810081
-0.0420077
0.0779947
0.0284528
0.135289
0.0814722
0.116711
0.108906
0.0796951
0.0852113
0.144887
0.060236
0.0602958
-0.0415858
0.135536
0.0674379
-0.030057
0.015142
0.00427343
0.0492699
0.112341
0.075999
-0.0370679
0.140939
0.0332223
0.075459
0.0881397
-0.0651557
0.0746158
0.121835
0.0260561
0.0802734
0.0566596
-0.0680222
0.0638
0.0591695
-0.118609
0.0845257
0.0181133
0.104434
0.116288
0.0818572
-0.012532
0.100903
0.0551164
0.0606155
-0.0205908
0.0758394
0.0110725
0.0534018
0.125858
0.0838417
-0.040966
-0.0189768
0.0125913
0.0745796
-0.0624611
0.0546811
0.0304091
0.0807621
-0.0401244
0.106349
0.128253
0.0821662
-0.015817
0.0758258
0.138377
0.0449779
0.0864078
-0.0891519
0.205957
0.0106112
0.0770474
0.17805
0.0728092
0.0690883
0.0596576
-0.018495
0.204761
0.0795344
0.0842866
0.0781488
0.12923
0.0292744
0.102367
0.100552
0.0209022
0.124138
0.165385
0.119371
-0.0277956
0.0973656
0.066762
0.0707067
0.0999588
0.0780948
-0.077985
0.0491043
0.0738324
-0.115524
0.0748453
0.0847671
0.116905
0.0572505
0.110928
0.117615
0.0323733
0.032656
-0.0434713
0.060623
0.0874431
0.1147
0.0616655
0.0527001
0.0148542
0.104566
0.0563015
-0.047513
0.178487
-0.0328864
0.125376
0.00790975
-0.011637
0.0945011
0.175958
0.00968141
0.0937265
0.0025316
0.110719
0.0876651
-0.0478391
0.076889
-0.051296
0.174395
0.0231306
0.0189155
0.029922
0.108283
0.0611835
0.0714076
0.00893225
0.0884316
0.110453
0.059997
0.0812845
0.245287
0.0653335
0.0756517
0.0937148
0.0489609
-0.160798
0.0952598
0.0938965
0.0435788
0.107703
0.105734
0.0783394
0.0830512
-0.150639
0.0523601
0.0673992
0.0954815
0.0407353
-0.017721
0.146307
-0.0707449
0.0750509
0.0786649
0.0855809
0.0880019
-0.0219621
0.00886958
0.136848
0.12257
0.0841715
0.09899
-0.000391784
0.0886816
0.124672
0.02573
0.0775532
-0.038681
0.0649346
-0.0255099
0.0468614
0.165938
0.0757474
0.112515
0.0212213
-0.037647
0.0912337
0.0742998
0.102832
0.100645
0.0612703
-0.0757598
0.0979683
0.16958
0.131264
0.0241039
0.0644696
0.0814633
0.0311234
-0.0590605
0.0471345
0.0721504
0.0751972
0.0241179
0.14734
-0.137286
-0.0853032
0.109628
0.0766174
0.184777
0.144318
0.0246803
0.0875323
0.0507201
0.0635008
0.0391076
0.153402
0.134283
-0.0558147
-0.0635229
-0.0269735
-0.106013
0.119929
0.0956143
0.0689214
0.0762681
0.0804787
0.0798128
0.003684
0.161525
0.26384
0.0711686
0.141818
0.126447
0.0642069
0.0533819
0.0746728
0.0774758
0.107072
0.0704676
0.055514
0.00509059
-0.0259111
0.0633348
0.0482566
0.0409099
0.105577
0.000799756
0.083697
-0.0847356
0.0845155
0.108007
-0.118228
0.0577806
0.0800792
0.115895
0.0259287
-0.00196693
-0.0779567
0.0988434
0.0113858
0.0852474
0.143637
0.0516713
0.109353
-0.0323054
0.0481783
0.0711085
0.0453696
-0.0514448
0.122557
0.095441
0.080742
0.119084
0.0814006
-0.149895
0.0427172
0.0593503
0.0539146
0.0019678
0.0895276
0.0642406
0.0526628
0.111316
0.081553
0.0836394
0.078782
0.0512734
0.0609052
0.0853588
0.0995685
0.240074
0.158871
0.128287
0.0793424
-0.0573322
0.00687841
0.0438725
0.0685736
0.0789917
0.106377
0.052225
0.0204439
-0.0783476
0.118211
0.0304661
0.0485124
0.065609
-0.0323137
-0.024496
0.0553321
-0.0719224
0.0881234
0.128003
0.16738
0.0454394
0.0544423
0.125844
0.0200212
0.095114
-0.109278
0.0785689
0.184546
0.0638888
0.168733
0.0791396
0.0782402
0.0813016
0.0118174
0.126534
0.0104602
0.0755832
0.0788227
0.0692452
0.0608894
0.0832209
0.102972
0.0915782
0.178653
0.0676322
0.13056
0.0465188
0.0544994
0.0454703
0.00410193
0.103938
0.0786933
0.0387444
0.0958127
0.0712407
0.166396
0.0505213
0.0807081
0.045377
0.0729998
-0.0130384
0.092146
0.143166
0.050068
0.0839857
0.0277966
0.0699522
0.150675
0.0588638
0.0835455
0.080227
0.252622
-0.104333
0.0551582
0.119344
0.127418
-0.144386
-0.0239983
0.00452553
0.0943039
0.0880647
-0.00334656
-0.050173
0.118087
-0.112102
0.0859221
0.0742959
-0.0429599
0.118582
0.18118
0.0531964
0.114632
0.0604974
0.0370042
0.0841495
0.0899919
0.25286
0.0246177
0.116943
0.147947
0.0570426
-0.0326679
0.090196
0.0876261
0.142186
0.0264163
0.107252
0.0730445
0.0850441
0.0849764
-0.0546934
-0.114116
0.0843284
0.118754
-0.0260325
0.0876549
0.04655
0.194867
-0.0202263
0.177736
0.154039
0.110601
0.12864
0.0351311
0.0896826
-0.0313277
0.0187717
0.113202
0.0849115
-0.00530648
0.0411551
0.0745309
-0.0177349
0.0813214
0.125472
0.0816658
0.0540745
0.0857899
0.0676684
0.0558891
0.0751727
0.0800723
0.108731
-0.0526444
0.00991558
0.10914
-0.0775617
0.0723059
-0.106442
0.0731559
0.23477
0.11316
0.117907
0.186794
0.0756798
0.0161849
0.112925
0.25461
0.069208
0.00138341
0.0671271
0.0874465
0.108626
0.0897208
0.0989657
-0.0893624
0.0545823
0.0904046
0.169564
-0.0246009
-0.108819
0.056264
0.072891
0.0600131
0.0368752
0.0685214
0.142341
0.0791387
-0.0336756
0.0880306
-0.068564
-0.0756129
0.0951474
0.00253403
0.0585836
0.116034
-0.0220549
0.100136
0.178799
0.0441661
0.129869
0.070789
0.0811774
0.0470792
-0.0531212
-0.00751862
-0.0901536
0.0669554
0.122891
0.121429
0.0759606
0.0836498
0.108332
0.0945629
0.0527858
0.101462
0.0847446
-0.0701527
-0.0504447
0.0175812
-0.00436931
0.0570868
-0.101743
0.0177534
0.117647
0.0992988
-0.0121776
-0.128267
0.0259283
-0.0106485
0.093381
0.073621
0.0924553
0.0687305
-0.108162
0.00159215
-0.16078
-0.133489
0.000225294
-0.0123119
0.0866128
0.12007
0.122851
-0.0158442
0.101089
0.0198971
0.148533
0.0376263
0.0982949
0.138706
0.0873649
0.125379
0.0532242
0.219799
0.116898
0.108081
-0.0343709
-0.0275984
0.0909491
0.0601563
0.0806886
0.0919733
0.149015
0.0732193
0.190126
0.0921648
0.0623516
-0.021486
0.0756968
0.101458
0.0874385
0.072448
0.047176
0.0683032
0.04256
0.0917126
0.0911752
0.0257893
0.0969411
0.132504
0.0269992
0.105845
0.176539
0.0567232
0.0805072
-0.07582
0.0537564
0.0522501
-0.0783759
0.231489
0.0662819
0.0573699
-0.0870041
0.0722371
-0.0521009
0.0901057
0.0923274
0.0859931
0.0560014
0.0852208
0.140704
0.0418444
0.111277
0.0732128
0.0298887
0.0762208
0.0801263
0.0847761
0.0842103
0.0195509
0.0756693
-0.0369413
0.0790912
0.116396
-0.0225397
0.099369
0.0797096
0.0124678
0.0515494
0.0836106
0.102274
0.0733971
-0.0403202
0.0210921
0.0930797
0.0767816
0.0872588
0.081026
0.0821827
0.0578752
0.0417013
0.0810768
0.0283324
0.0059019
0.0708849
0.0741889
0.0514561
-0.0215103
0.0629413
0.0496359
0.217479
0.0686022
0.133568
-0.0313462
0.0320854
0.0666601
-0.053511
-0.081924
0.0291209
0.110426
0.0417857
-0.0723068
0.00929738
0.052656
0.108967
0.0420845
0.090933
0.0443023
0.218215
0.13849
-0.0781278
0.0432137
0.0816764
0.0807175
-0.0986853
0.160345
-0.0309564
0.0746527
0.182257
0.0592948
0.085963
0.161144
0.04498
0.08643
-0.121452
0.090874
0.105282
0.064695
0.0313948
0.0750491
0.0115972
0.0912294
0.0301252
0.0830057
0.066676
0.0803905
0.0729982
0.0183621
0.00248281
0.0804749
0.113219
-0.0660118
0.0933971
0.0863643
0.113539
-0.115988
0.0297332
0.0803945
0.162612
0.0136426
0.00589993
-0.00850141
0.0554305
0.130234
-0.0386617
0.14855
0.0639783
0.0589475
0.158165
-0.0839767
0.104765
-0.0443567
0.0808474
0.00154481
-0.0302508
0.104615
0.0858621
0.0738285
0.105021
0.162908
0.0931762
0.0489964
-0.0153749
0.137038
0.0770037
0.097726
0.0572153
0.104972
0.0928753
0.0551628
-0.0879855
0.0463469
0.0214505
0.106558
0.116373
0.0722031
0.0626154
-0.0253997
0.0690946
0.0214522
0.0968093
-0.0139022
0.0319457
0.10661
0.0346099
0.043169
0.0926237
0.0587043
0.0858993
0.0889788
0.0326361
0.0830014
0.0773018
0.258582
0.178588
-0.0724275
-0.00443538
-0.0250923
0.0597224
0.0805259
0.140386
0.0371349
0.0430102
-0.0464495
0.0656947
0.0656611
-0.0116815
-0.143149
0.104453
0.088301
0.110068
0.0833004
-0.0745723
0.213575
0.0613998
0.0512789
0.20223
0.230483
0.0934946
0.107717
0.2112
0.131729
0.0228887
0.0554268
0.145116
0.0837962
0.0500886
0.0266743
0.148384
0.101708
0.00363821
0.0934677
0.0907566
0.0491788
0.12009
-0.039534
0.104414
0.0593104
0.0809036
0.0571146
0.0942613
0.127971
-0.0824118
0.0761145
0.0477985
0.0271905
0.0225753
0.0833854
0.0717284
-0.0553028
0.120663
0.031532
-0.00918392
0.0835138
0.174592
0.0705672
0.144196
-0.0209074
0.0541559
0.00433746
0.230678
0.139464
-0.011049
0.116591
0.0539326
0.132023
0.0596723
-0.0184283
0.064694
0.0757815
0.119148
0.0477247
0.0516472
-0.00494776
0.0776496
0.0762978
0.0113061
0.0791256
-0.0964511
0.0940117
0.0663988
0.0920546
-0.151892
0.188245
0.0501148
0.0160295
0.092993
-0.0268629
0.0102996
0.222994
0.214054
0.0578466
0.102483
-0.00166924
0.0586358
-0.129155
0.0644396
0.0792554
0.0551868
-0.0368427
0.13384
0.0146267
0.102062
0.107859
0.182032
-0.109935
0.0602783
0.0832272
-0.0380224
-0.0542907
0.0341899
0.0179673
0.0360317
0.0102311
-0.0907757
0.0158282
0.0878936
0.0791429
0.0670122
0.0854628
0.0848255
0.0948598
-0.0188285
0.0798549
-0.0358845
0.0912862
0.1114
0.0809315
-0.0510369
0.0966094
0.0521777
0.0425904
0.126853
0.139483
0.0927507
0.083189
0.184663
0.0490729
0.0857162
0.0888544
0.068583
0.109815
0.0831077
0.0859872
0.0845333
0.0854504
-0.047826
0.11703
0.0482809
0.0437109
-0.034293
-0.141926
-0.043962
0.159165
0.0911398
0.0514229
0.155664
0.0485966
0.00497042
0.0547377
0.0882676
0.0816247
0.0788282
0.0380971
0.0819795
0.103056
0.128758
0.0808538
0.0961743
0.118747
0.162951
0.0808865
0.107188
0.0720037
-0.0558459
0.0763619
-0.00176968
-0.044509
0.0532338
0.1002
-0.147194
-0.021002
0.0361373
0.118188
-0.0577217
0.0210067
0.0353325
0.103907
0.0815207
0.173915
0.0821565
-0.0617969
0.190765
0.0642762
0.102679
-0.0400072
0.185775
0.0736477
-0.0309488
0.169146
0.123187
0.114202
0.00663724
0.0345248
0.118894
0.0797198
0.0495204
0.0470641
0.0386164
0.0794794
0.0967403
0.21486
-0.0266156
0.0730475
0.0881949
0.108394
0.0926733
0.0666624
-0.0456676
0.0584914
-0.021713
-0.00149477
0.0945347
0.178825
0.268958
0.045205
0.111574
0.0515035
0.0456716
-0.0450881
0.00173497
0.0798392
0.073846
0.0082185
0.110179
0.0635922
0.0170165
0.0439998
0.0834703
0.0782929
0.0658174
0.180596
0.00520592
0.0827268
0.130804
-0.0553915
0.120777
0.265896
0.0671782
0.0875549
-0.104632
0.0675136
-0.153964
-0.0381574
0.141747
0.0687298
-0.148538
0.078975
0.0951216
0.157368
0.0806218
-0.0299811
0.100224
0.240877
0.108637
0.033199
0.0300987
0.0487437
0.0232627
0.0927927
0.0788514
-0.0474853
0.0450176
0.152473
0.0812253
0.060698
-0.0351927
-0.150294
0.107229
0.0793288
0.0702343
0.237096
0.071934
0.0568639
0.0501794
0.00536512
0.0338336
-0.0391224
0.131387
0.104955
0.139076
-0.0191589
0.0655607
0.0939517
0.0128022
0.223282
-0.0515231
0.143284
0.105839
0.016703
0.178178
0.0894479
0.0830143
0.122217
0.175888
0.0987008
0.13187
0.0851186
0.028899
0.0435349
0.078393
0.121565
0.0580371
0.165134
-0.10311
0.0870866
-0.00498607
0.00141578
0.184047
0.012379
0.0838576
-0.163482
0.0935605
-0.00865092
-0.0207448
0.0860763
0.169098
0.0914988
0.0731164
0.0803191
-0.0373757
0.0782346
0.140669
0.0615338
0.0108802
-0.0890642
0.0939692
0.041267
-0.0569268
0.105
0.0628226
-0.110866
0.0632969
0.0652613
-0.141161
0.176684
0.0514964
0.0955304
0.0546925
0.0188761
0.129001
0.0630483
0.0681589
0.124657
-0.0471082
0.262817
0.0863674
-0.133065
0.0952211
0.0522862
0.0510541
0.0823182
0.101646
0.191074
0.0881574
0.130462
0.118254
0.0849759
0.0797506
0.0465876
-0.0197309
0.0492749
-0.0780949
0.145861
0.190879
0.103913
0.00728756
-0.123039
0.123368
-0.0711882
-0.12461
0.0429587
0.0248865
-0.0863425
-0.130347
0.167236
-0.0982778
0.12228
0.0901214
-0.0674068
-0.0226863
0.0607391
-0.105236
-0.0854953
0.0746601
0.123014
-0.030395
0.0374193
0.0951578
0.0825495
0.0894587
0.12971
0.157054
0.0283703
0.0657864
0.0921732
-0.0067019
0.0972493
0.158886
0.114619
0.0571893
0.0551247
0.111475
0.0426444
-0.0522614
0.143262
0.0705307
0.164001
0.120545
0.00871461
0.0460611
0.0168184
0.123162
0.102169
0.0873955
0.0795238
0.00617324
0.0488288
0.0622045
0.194074
0.0523456
0.0824912
0.200748
-0.0741055
-0.0416452
0.0818121
0.00329991
0.0859334
0.145699
0.180475
0.0626622
0.104052
0.0571536
0.0477822
0.181421
-0.107482
0.0578806
0.116919
0.126761
0.130625
-0.0463999
0.181414
0.105279
0.0559564
0.0321294
0.0295899
-0.00418543
0.0430545
0.0554986
0.0796529
0.0838865
0.077297
0.0828966
0.0587868
-0.0529415
0.0273117
0.101167
0.127853
-0.000897822
0.0819983
0.172742
0.0801268
0.0709573
0.105616
0.0517393
0.133159
0.0959816
0.0409043
0.129188
0.26038
0.094284
0.0487617
0.241077
0.0570705
0.01563
0.0931977
0.0491513
0.0618849
0.0185452
0.0013872
0.235472
-0.0670155
0.115794
0.172611
0.142523
0.227659
0.117503
0.0897876
-0.00813304
-0.0827668
0.0970659
0.0783026
0.0252487
0.113504
0.142978
0.0530375
0.0648134
0.0164487
0.037048
0.0885664
0.082845
0.226923
0.0848129
0.172249
0.0417161
0.0828899
0.0290925
0.171719
0.0858992
0.175704
0.0784457
0.0592809
0.13582
0.0790021
0.00834853
0.175879
0.171825
0.180606
0.0922505
0.0766124
0.0620286
0.109416
0.171865
0.172103
0.0351368
0.0535929
0.174337
0.0899247
0.105522
0.189792
0.106856
0.0763189
0.0366624
0.102685
0.0214329
0.0899455
-0.082154
0.0104264
0.0861649
0.0181045
0.0776123
0.0392472
0.081111
0.127048
0.0351659
0.0836105
0.153859
0.0364777
0.104849
0.0847923
0.106166
0.0870109
0.106138
0.229199
0.0876096
0.062031
0.0887944
0.0591618
0.15771
0.0621758
0.0862706
-0.124545
0.16451
0.148247
0.105214
0.10675
0.0952791
0.130469
-0.132863
0.221789
0.0538629
0.0710575
0.120192
0.104722
0.159515
0.115324
0.124386
0.155166
0.0964047
-0.0748774
-0.0545684
0.126302
0.120306
0.0136674
0.123901
0.0774981
0.0771514
0.0667493
0.0750497
0.0765935
0.133195
0.0588182
-0.117941
0.149
0.175199
-0.0522432
0.151827
0.0765056
0.184105
0.0962195
0.108175
0.131717
-0.0788409
-0.00709282
-0.0971673
0.086861
0.0923445
0.0845972
0.0740662
0.148302
0.0804268
0.0615318
0.0517534
0.163503
0.0276692
0.124822
0.0545075
0.0400132
0.0624394
0.101586
0.0312788
0.0676741
0.17722
0.107392
0.128676
0.00939299
0.170586
0.0873987
0.0596811
0.0952668
0.0890222
0.0915029
0.118891
0.0522879
0.120862
0.0909698
0.0358115
0.0926757
0.0548211
0.0849538
0.0241887
0.0917166
0.125531
0.071574
0.0875348
0.0848152
0.0580403
0.0898146
0.120122
0.140988
0.13476
0.173175
0.0918342
0.101179
0.123224
0.0543881
0.0226156
0.139417
0.039305
0.0542968
0.089316
0.0834132
0.0902182
0.092733
-0.0187716
0.144079
-0.111635
0.0833571
0.0742022
0.0121806
0.0418056
0.0984897
0.128182
0.0726565
0.0690516
0.151451
0.229017
0.0812084
0.0411981
-0.0206443
-0.00748428
0.0343309
0.0122694
0.0858512
0.0834869
0.0926089
0.093423
0.0595781
0.112614
-0.0768266
0.0278486
0.0404578
0.123519
-0.163677
-0.095159
0.0504028
0.0845287
0.116365
0.0306257
0.0776068
0.0921052
0.145416
0.0405237
0.0508474
0.0299625
0.0208293
0.0280826
0.0829862
0.175372
0.160273
0.115022
0.151638
0.231376
0.0909246
0.156913
0.0577176
0.0834276
0.107446
0.0159858
0.0865247
0.0736895
0.0795808
0.112022
-0.0152387
0.103702
0.02909
0.00970059
0.0746859
0.0817233
0.0809357
0.00913716
0.0899249
0.235088
0.078508
0.0784428
0.0206015
0.0801798
0.0761807
0.0845207
0.0178955
0.0624724
0.0171651
-0.145938
0.0780437
-0.0126014
0.0718096
0.140369
0.132991
0.0399287
0.088992
-0.00393805
0.118097
-0.153501
0.0579321
0.00843823
0.0771289
0.0819405
-0.0136667
0.00225491
0.0891026
-0.117206
0.0577353
0.112691
0.114714
0.060797
0.124521
0.0673378
-0.0364066
0.0678245
-0.0576637
0.025703
-0.0579608
-0.0551531
-0.143932
-0.00445511
0.10375
-0.131034
0.0786217
0.0880744
-0.0278226
0.0751749
0.0782274
0.0945653
0.133954
0.0339474
0.0954678
0.0191963
-0.0583654
-0.116491
0.127156
-0.0181362
-0.0507863
-0.0413389
0.133398
-0.0844456
0.0875497
0.0902915
0.0926149
0.132298
0.100268
-0.0492162
0.0653428
0.242291
0.0863512
0.0750626
0.195621
-0.048228
-0.0229904
0.0496197
0.139672
-0.134036
-0.0222764
0.120408
0.079463
-0.0705971
-0.0592359
0.14142
0.0229628
0.0879898
0.12453
0.0397066
0.0595742
0.0896586
0.0323881
0.0219731
0.0116909
0.0543739
0.0410012
0.0566437
0.0927176
0.0872513
0.0539511
0.0609115
0.0494547
0.0870273
0.0888449
0.144146
0.134158
0.119407
0.0597353
0.0972275
0.0612998
0.113374
0.0713173
0.054132
0.0557587
0.111209
-0.0638802
0.168553
0.119101
0.0651722
-0.0256476
0.0783025
0.103883
0.186603
0.0771019
0.134297
0.0818833
0.0109691
0.0513064
0.0994875
-0.0359812
0.0573403
0.216877
0.0870778
0.0431139
-0.0659058
0.141552
0.0757852
0.0786321
0.0605421
0.0389192
0.073338
0.0810942
0.0243406
-0.0206337
0.0746201
0.044512
-0.0310482
0.239912
0.124712
0.114057
0.0563143
0.143059
0.0167736
0.0723456
0.1045
0.0969181
-0.0362827
0.141204
0.050601
0.0965281
0.157453
0.105547
0.0477147
0.051422
0.0562457
0.0238161
0.0853545
0.0947484
0.0809519