/*--------------------------------*- C++ -*----------------------------------*\
| =========                 |                                                 |
| \\      /  F ield         | OpenFOAM: The Open Source CFD Toolbox           |
|  \\    /   O peration     | Version:  v2012                                 |
|   \\  /    A nd           | Website:  www.openfoam.com                      |
|    \\/     M anipulation  |                                                 |
\*---------------------------------------------------------------------------*/
FoamFile
{
    version     2.0;
    format      ascii;
    class       surfaceScalarField;
    location    "200";
    object      ddtCorrDdt0(phi);
}
// * * * * * * * * * * * * * * * * * * * * * * * * * * * * * * * * * * * * * //

dimensions      [0 3 -2 0 0 0 0];
oriented        oriented;


internalField   nonuniform List<scalar> 
20392
(
0.000552175
0.00153912
-0.00209131
-7.28391e-05
0.000192473
-0.000119632
-0.000137161
0.000168051
-3.09153e-05
3.99667e-06
1.32378e-05
-1.72722e-05
0.00156221
0.00219672
-0.00375893
2.89063e-05
1.01778e-05
-3.90758e-05
-8.17571e-05
0.00120041
-0.00111865
2.31312e-05
-4.72347e-06
-1.8399e-05
-0.000235966
-0.00107397
0.00130995
-1.13954e-05
1.53881e-05
-7.62246e-06
3.65312e-05
-1.87044e-05
9.00296e-06
9.73259e-06
-1.99829e-05
-0.00011716
-0.0137745
0.00969546
0.00407901
-5.90552e-05
1.09252e-05
4.81048e-05
-0.00846687
-0.0053076
-0.00451316
-0.00118813
0.00570128
-1.43308e-05
1.13671e-05
2.94323e-06
0.00484537
0.00435527
-0.00920064
-1.20161e-05
6.53747e-06
5.4797e-06
-0.000105144
0.000693724
-0.000588532
-0.00048993
0.00136797
-0.00087804
-0.00494125
-0.00254436
0.00748562
2.54209e-05
-0.000284602
0.00025912
6.5814e-05
0.000144743
-0.000210505
-1.93859e-06
1.22173e-05
-1.02684e-05
3.21151e-05
0.000110703
-0.000142802
-0.000460983
9.03064e-05
0.000370694
-0.00174033
0.00219081
-0.000450466
0.000263992
-2.91804e-05
-0.000234785
-0.00852486
-0.00228798
0.0108128
-0.00139048
-0.00097565
0.00236614
-0.00149155
0.00125559
-4.90102e-05
-1.00506e-05
-0.00651258
0.0310543
-0.0245417
0.000183843
-0.000718433
0.000534594
0.00174639
-0.00407736
0.00233097
1.54826e-05
-7.4548e-06
-8.07674e-06
-0.0363407
0.0298281
-0.00112514
9.59781e-05
0.00102915
-2.80455e-05
1.98179e-05
8.21823e-06
0.00270236
-0.000892627
-0.00180974
2.81028e-05
-2.12199e-05
-6.91423e-06
-0.00160414
0.000237156
0.00136695
-0.00128876
0.000995629
0.00029314
1.75269e-05
1.05639e-05
-0.00061662
-8.98944e-06
0.000625598
-0.00366386
0.00195303
0.00171081
0.000865554
-0.000171627
-0.000693915
-4.02832e-05
1.10374e-05
2.92265e-05
-3.32075e-05
5.86056e-05
-0.00084983
-0.000438933
-0.000963084
-0.000244581
0.00120767
4.96521e-07
2.99122e-05
-3.04328e-05
-0.000291737
5.12841e-05
0.000240466
-0.00120404
0.00112228
0.00184701
-0.00150886
-0.00033818
0.000253673
0.000117149
-0.000370836
-0.00099595
0.000146124
0.00101974
-0.000643611
-0.00037616
-0.000291752
-0.00109873
-0.00142843
-0.00391493
0.00534335
0.00491943
-0.00554101
0.000621553
-0.0061578
0.00121655
-0.000265566
-0.000327393
0.000592947
-0.000501768
0.0145895
-0.0140877
-0.000233955
-6.18801e-05
0.000295859
0.0108039
-0.0111614
0.000357518
0.000162618
-0.00112569
-0.00138361
0.00193579
-0.000225112
0.000283401
-5.82981e-05
0.00110117
-0.00683446
0.00573332
6.30094e-05
-6.87651e-05
5.75061e-06
-0.00240758
0.00106264
0.00134499
0.000253423
3.57412e-05
-0.000289183
-0.000271024
-0.000976256
0.0012473
1.55427e-05
-1.44702e-05
-1.07883e-06
2.70428e-05
-3.57171e-05
8.66189e-06
-0.000854588
-0.000270538
-0.00025204
0.000179203
-0.00115205
0.0047027
-0.00355065
-0.000263763
3.86543e-05
-0.000692383
0.000809854
-0.000117457
0.000308341
-0.000296071
-1.22767e-05
0.00373171
-0.00255973
-0.00117199
1.43535e-05
-1.88872e-05
4.53815e-06
-0.0152516
-0.00363358
0.0188852
-8.40557e-05
-0.000149864
-0.000611894
-0.000345313
0.000957221
-0.000303078
3.75637e-05
0.000805866
-0.000734768
-7.107e-05
-0.00473409
0.00358206
3.18494e-05
-3.94717e-05
-0.00105832
-0.00345484
-8.45467e-05
-0.000207192
0.00063438
-0.00107322
0.000438827
-8.25943e-05
-0.000469806
0.000552457
0.000149976
-0.000842345
-0.000168635
-0.00101702
0.00118567
0.000143479
7.3521e-05
-0.000217001
0.00138409
-0.000290675
-0.00109345
0.00518072
-0.00447589
-0.000704832
-0.000166225
0.000198361
0.0015267
-0.000581742
-0.000944964
-9.41497e-08
3.19443e-05
9.75592e-06
8.53457e-06
-1.83022e-05
0.000219898
0.00058596
-0.0023346
-0.000325169
0.00265978
3.96627e-05
-1.26273e-05
-0.000160622
0.000424593
2.47037e-05
-9.23248e-06
0.00443477
-0.00470393
0.000269193
0.00107273
-0.00108641
1.36968e-05
0.000214682
-3.05194e-05
-0.000184124
0.000265403
-0.000326932
6.15596e-05
0.00808887
0.00271501
8.75261e-06
6.79945e-06
4.01686e-05
-5.89227e-05
-9.55866e-05
0.00058707
-0.000491479
1.70497e-05
-5.72928e-05
-2.01831e-05
3.79828e-07
1.98047e-05
0.00631067
-1.16786e-06
-0.00630948
-1.94511e-05
8.24648e-06
1.12182e-05
4.98462e-05
2.04117e-06
-5.18994e-05
1.60506e-05
3.73954e-07
-1.64208e-05
-0.00171728
-2.30425e-05
-0.00824146
0.0145521
-5.96084e-06
-2.20937e-05
5.44029e-05
-4.55999e-06
0.00128376
0.00191999
-0.00320374
-0.000367003
-0.000249618
-0.000246373
-0.0150052
-0.00100767
0.000874184
0.00013353
0.000792541
-0.00096118
0.0017568
0.000945548
-0.00084999
-0.000754174
-0.000789313
0.000973152
-8.70713e-05
-0.000920638
-0.00203889
0.00119404
0.000844857
1.7205e-05
3.35255e-05
-5.07193e-05
-0.000277381
-0.000125249
0.000402642
-0.000306136
-0.00029303
0.000599166
-3.3849e-05
8.18731e-06
2.56643e-05
1.04713e-05
-4.07148e-05
0.000157758
-0.000117
-0.00066855
0.000447887
0.000220673
0.000315707
-0.000927621
0.000850585
0.000222169
-0.00134727
-0.00106034
0.00158531
-0.00161408
2.87766e-05
-0.000346493
4.03559e-05
0.00039723
-7.77086e-05
-0.000319521
-4.79877e-06
-1.46485e-05
0.00542928
-0.00432809
0.00220635
-0.00160405
-0.00060228
2.63065e-05
-1.65477e-05
0.00432215
0.000858624
0.0134894
-0.00832102
-0.00516832
0.00898922
-0.00406979
-8.41136e-05
7.21652e-05
1.19198e-05
6.68561e-05
3.08362e-05
-9.76545e-05
3.01707e-05
-3.02747e-05
0.00673053
-0.00556578
-0.00116475
-0.000148675
0.000309708
-0.000161036
-0.00528268
-0.000791552
0.00607423
-9.91234e-06
-0.00025882
0.000268686
-4.05375e-07
-1.48439e-05
1.52556e-05
-8.13076e-07
4.18993e-05
-4.10867e-05
-0.000128512
0.000857563
-0.000729079
0.00507779
0.00841157
-1.70006e-05
-1.32298e-06
1.83186e-05
2.7007e-05
3.16178e-06
-0.000227233
0.00207422
-0.000985699
0.000481536
0.000504193
-0.00724139
-0.00392004
0.00020913
-0.000219083
-0.000919507
0.00170268
-0.000783159
0.00327427
-0.000236208
-0.000224798
-0.00532416
0.00259773
0.00272641
-0.000127966
0.000146078
-1.81124e-05
0.000263158
-6.69063e-05
-0.000196225
-0.00260076
0.00168124
-8.01702e-05
-3.91366e-05
0.00011936
6.91067e-05
-8.90749e-05
-3.04125e-05
4.76035e-05
-1.96729e-05
1.86826e-05
9.84436e-07
1.55989e-06
-1.04176e-06
-5.03498e-07
4.49373e-05
-0.000126451
8.155e-05
-0.00190708
-0.00363394
-0.00282553
0.00438776
-0.00769795
0.00485287
0.00284508
-1.61547e-05
-1.20439e-06
1.73077e-05
-1.9449e-05
8.62906e-05
-2.90053e-06
1.72486e-05
-5.38997e-07
2.10782e-06
0.000150067
-0.000245637
-0.000512038
5.20584e-05
0.000459943
0.000386451
-0.000298632
-8.78134e-05
-0.00400296
-0.0028315
-0.000354373
0.000732063
-0.000377682
9.99462e-05
0.000817233
0.00138911
0.000124933
-6.75378e-05
-5.74374e-05
-2.99668e-06
1.34916e-05
-1.04946e-05
0.0097615
0.00124924
-0.0110107
0.00221593
2.30476e-05
-0.00223897
-0.0021519
0.00389829
-0.00023057
5.11561e-05
0.000179415
1.55649e-05
4.88728e-07
-7.40794e-05
0.000327446
0.0105588
-0.0141923
0.000124693
0.000128996
-0.000329607
0.000272903
5.66984e-05
0.000230448
6.0663e-05
-0.000291103
-0.00238449
0.0201632
-0.0177787
-9.15417e-05
7.21002e-05
0.000154821
-2.99033e-05
9.40159e-06
-9.97884e-06
5.64125e-07
-1.05484e-05
-2.33111e-05
-7.78307e-05
-0.000152741
-0.000367203
8.98233e-05
0.00121736
-0.00210998
-0.000142866
1.48885e-05
5.25439e-05
0.00596194
-0.00601448
0.000173259
-0.00299878
-3.65015e-05
-3.57466e-05
7.22841e-05
-9.68911e-05
0.00377239
-0.00367551
0.0143409
-4.19383e-05
2.22675e-05
0.00461896
-0.00456642
-3.11547e-05
-3.46423e-05
6.58213e-05
7.08106e-05
-2.84192e-05
-4.2389e-05
-9.76205e-06
7.83522e-06
2.98207e-05
-3.46855e-06
-2.63066e-05
-4.68113e-05
-3.75453e-05
8.43589e-05
-0.000558679
0.000457187
0.000101537
-0.00432413
0.00238859
0.00193553
0.000825644
0.00417987
-0.00500551
-0.00051292
-0.00152597
0.000595442
-0.00197905
0.000413572
-0.00893842
1.91864e-05
0.00149729
-0.00582142
-6.76693e-06
2.43705e-05
-1.75941e-05
-1.71621e-05
1.67545e-05
-1.31379e-05
1.95086e-05
-6.38801e-06
-0.0001595
-0.00017011
-0.00322192
-0.00447599
0.000372344
-0.00552362
-2.41293e-05
2.32974e-05
4.30976e-06
-1.39793e-05
9.6426e-06
-0.00146984
0.00367329
-0.00220341
0.00116399
-0.000860032
-0.000303923
0.00176736
0.00722185
-8.39419e-05
0.00013442
-5.04799e-05
-0.000441361
-0.000544324
-8.17296e-06
-0.000124298
0.000132497
-3.48641e-06
1.28569e-05
1.68819e-05
6.30888e-06
-2.32065e-05
0.000143536
8.69345e-05
0.00276503
0.000141781
-0.00290684
-2.56889e-05
1.8219e-05
0.000199494
8.1527e-06
-0.000207648
0.000310063
-9.20498e-05
-0.00021802
-0.000101677
5.48701e-05
-0.000319282
-0.000349268
-0.00133295
0.00164159
-0.000308621
0.000382962
-0.000872883
1.45448e-05
-3.45786e-06
-1.10646e-05
-0.000239639
-0.000756315
4.46195e-05
4.08024e-05
-8.53878e-05
-0.00039578
0.000290607
-0.000371105
0.0002885
-0.00136224
-0.00230164
-0.000982815
0.00115189
-0.000169081
-0.0173169
-0.00577404
-0.000141671
0.000207479
0.00103796
-0.00020914
-0.000828743
1.01896e-05
2.76288e-05
-3.7829e-05
-0.00128142
-0.00186148
6.83764e-05
-9.9537e-05
0.000152063
-0.00126494
0.00111289
-0.000101626
1.00793e-05
3.60285e-05
-0.00692047
0.00688444
-7.66546e-07
1.52858e-05
-0.00365156
-0.000737582
0.00438919
0.000973564
0.00346122
2.48427e-05
-7.95509e-06
2.49567e-05
1.99499e-05
-0.00375827
0.00393155
0.00012476
-0.000132937
0.000464686
-0.000201534
0.000149198
0.000106261
-0.000255431
-0.000328229
0.00309327
-0.00167962
-0.00239775
-7.72934e-06
8.73834e-06
-1.03138e-06
-3.62911e-06
5.48972e-05
-0.00107949
0.00167493
-3.75926e-06
-1.47822e-06
5.21679e-06
0.00205208
-0.00332197
0.00414765
0.00118615
0.000421871
-0.00160799
0.000157221
0.000147221
-0.000304411
0.000476011
0.00054371
-0.0006572
0.00438084
-0.00372369
0.00142094
-4.43273e-06
6.03174e-07
3.81207e-06
0.00330711
-0.00335381
4.67548e-05
-1.14389e-05
-1.65178e-05
2.79725e-05
-3.4858e-05
-9.43651e-06
4.43106e-05
0.000263094
-0.000164881
-9.81422e-05
-0.0118792
0.0165613
-0.004682
0.00018895
0.000197485
-0.000766921
0.000254916
-1.79067e-05
4.75682e-06
-0.000191431
-0.00214316
1.95398e-05
0.000724373
-5.18465e-06
-6.82882e-06
3.73675e-05
-3.02838e-05
-7.10519e-06
-1.19896e-05
-1.06404e-05
0.000167869
0.0284268
-0.0289285
4.23845e-07
6.26101e-05
5.87289e-05
-7.46948e-05
1.59359e-05
0.00114531
-0.000390843
-0.000754446
2.42345e-05
1.31238e-05
-1.2938e-05
1.80012e-05
-5.0537e-06
-0.00351381
0.00345002
6.38137e-05
-0.00203689
0.00154316
0.000493735
-2.72571e-06
-0.000154837
0.000157564
9.66535e-06
-1.6736e-05
7.0582e-06
0.000141594
-0.000142267
6.30662e-07
2.86705e-05
-0.000121546
9.29196e-05
-1.45128e-05
1.14935e-05
-2.7289e-05
5.85736e-05
-3.12416e-05
4.0305e-05
-1.72086e-05
0.000427363
-0.000781746
0.0105106
-0.00799895
-0.00251163
-4.01217e-05
7.76685e-05
-3.75324e-05
-0.00240086
-0.00136589
0.000125592
1.59953e-05
0.000248711
-0.000239671
5.75734e-05
-0.000108669
5.11042e-05
7.91676e-05
-0.000196375
0.000117197
0.000126838
0.000136289
4.47436e-08
-0.000185934
0.00018588
-3.86414e-06
2.93115e-06
9.29971e-07
-0.00878729
0.00671171
0.00207558
-6.79861e-05
0.000112608
0.000155747
6.73484e-05
-0.000223111
-0.000110531
-0.000136365
0.000246877
-0.00380381
0.00370691
0.000550961
0.000314563
-0.000506576
0.00033497
4.00261e-05
-1.17156e-05
-2.8312e-05
0.00511345
0.000110071
-0.00522354
0.000400334
-0.000275628
0.00822122
-0.00337585
-3.17572e-06
5.60889e-06
-2.42542e-06
0.00288932
-0.00321668
0.000327366
0.000264674
7.50405e-07
0.00489584
-0.0026991
-5.13647e-05
0.000108942
-0.00669114
0.00140846
-8.97317e-06
-7.2491e-06
1.6223e-05
0.000292132
-0.000935724
-8.21239e-06
-1.16701e-05
-5.34279e-06
0.000493106
-0.00449605
6.79642e-06
5.42386e-06
-5.28248e-06
-8.99741e-06
0.00393538
-0.0018309
-0.00210446
0.000101809
-0.000143194
4.13924e-05
3.95001e-06
2.25359e-05
-2.64851e-05
6.97661e-05
-0.000218444
0.000193432
0.00103905
-0.00123247
9.40617e-05
-0.00151226
0.00141825
-0.00951341
0.011415
-0.00190157
-1.38687e-05
5.37358e-06
8.49941e-06
-7.28901e-06
1.85451e-05
-1.12563e-05
1.94016e-06
1.86737e-05
-2.06198e-05
-0.00728396
0.00731997
0.00100144
-0.000114315
-0.000887125
-0.00272743
-0.00084501
-0.0015559
0.00247829
-0.00140867
-0.00106961
-0.000228994
-0.000183454
0.00041243
-0.000189192
-0.00398003
0.00416926
1.51076e-05
-6.56987e-06
1.01358e-05
-1.40038e-05
0.000654913
-0.00046148
0.00436237
0.00027016
0.000963872
-0.00123404
-1.86286e-05
1.71889e-05
1.44144e-06
-7.23239e-06
1.02223e-05
-2.99385e-06
5.17765e-06
-1.00489e-05
4.86504e-06
0.00149286
-0.000370955
-0.00112194
0.000679429
-0.000467181
-0.000212248
9.92743e-05
-2.01174e-05
4.01723e-05
6.16392e-05
0.00168949
-0.00331716
0.00162773
-0.00659372
0.00294216
0.0162354
-0.0118801
-1.4526e-05
3.4644e-05
-2.01484e-05
-0.00175199
0.00209373
-0.000341745
7.91754e-06
-1.10897e-05
0.00463449
-0.00331863
-0.00131585
0.0119869
-0.00385573
-0.00813114
1.41583e-05
-2.09271e-05
0.0038538
0.000780684
4.36718e-05
-3.34668e-05
0.0151901
0.0105545
-0.0257445
3.32935e-05
-2.58668e-06
-3.07213e-05
6.10648e-05
-9.75353e-05
0.00156387
-0.00146978
9.40838e-05
-0.000178587
-0.000295421
-0.000790991
0.000132222
0.000264982
-5.9868e-07
1.70413e-05
-1.64733e-05
0.000135651
-0.000277312
0.00129285
5.48503e-06
-8.71613e-05
8.16447e-05
-0.000407128
0.00024375
0.000163393
2.43521e-05
-4.05573e-05
-8.58187e-05
0.000152734
-6.692e-05
-0.000174965
-0.000232182
-3.48427e-06
8.99237e-06
-5.49396e-06
-1.69992e-06
6.87995e-06
0.000474373
0.000399813
0.00109234
-4.60485e-05
0.000356111
9.64984e-06
-2.10916e-05
-0.000115882
8.54606e-05
3.04061e-05
-0.000275352
0.000164804
6.54342e-06
-1.82278e-05
6.93566e-05
-0.00102045
0.000951075
-0.00208022
0.00120933
0.000870874
0.00504149
0.000387789
-0.00437562
-0.00750361
-0.000148182
-0.00041049
0.000509202
-0.000108893
-0.0116654
0.000963379
-0.000112775
-0.000998541
0.0011506
-0.000360272
0.000892791
-0.000532523
-2.46934e-05
5.32878e-05
-2.85693e-05
0.000950091
0.0307885
-0.0155985
-0.00017429
-0.000128809
-0.00240585
-0.00209309
0.00449895
-0.000110105
0.000281356
-0.000171257
-8.70607e-05
0.000395399
5.79401e-06
8.37532e-07
-6.63957e-06
0.000288872
1.57602e-05
-1.70506e-06
-0.00394745
0.000253135
0.000440565
-0.00222825
0.000476262
-0.00012662
-0.000169451
-7.77751e-06
2.57382e-06
5.17835e-06
-4.25988e-05
-0.000203014
0.000593057
0.000552235
0.0165844
-0.00602561
4.79092e-05
-3.08911e-05
-9.30095e-05
0.000292508
-0.000212824
0.000687229
0.0010773
-0.000574586
-0.000502753
-0.000181219
0.000325977
0.000667457
0.000409842
-9.76485e-06
2.22968e-05
-1.2525e-05
9.05033e-05
0.000124199
-2.02696e-06
8.56924e-06
0.000732016
-0.00181153
-0.00662269
0.000106488
0.0065162
-0.00721397
0.000620252
-0.000719111
0.00028847
0.000430671
-0.0182254
0.0138498
-3.93908e-05
-8.93871e-06
4.83381e-05
-0.000239189
-4.54102e-05
-9.9943e-06
9.02195e-06
9.62343e-07
-5.34473e-06
8.97915e-06
-3.64286e-06
-1.05832e-05
0.000152136
-0.000214308
6.21749e-05
-2.91073e-05
-5.50311e-05
3.52189e-05
-1.68053e-05
-1.84312e-05
5.54979e-05
-0.000415719
-0.000450647
0.000123634
0.000327065
-1.13683e-05
1.56986e-05
0.0136594
-0.0114453
-0.00221402
-0.00352123
0.00277825
0.000742992
-2.81491e-05
3.21038e-05
0.00278674
-0.0019695
-0.00113022
0.00137029
-0.000240061
0.00140544
0.000660667
-0.00206611
0.000261489
-0.000436477
0.00714411
0.000464882
0.000536571
-0.0305393
0.0110141
0.0195252
-0.000823325
-0.00138193
0.00220525
5.98868e-05
0.000203874
-0.000263767
0.000252849
-0.000179329
-0.0018748
0.00264837
-0.000773568
-4.74994e-06
-2.30078e-05
2.77613e-05
-9.10282e-05
2.2826e-06
8.87434e-05
-0.000276053
0.000241239
3.48496e-05
-0.0111859
0.0127218
-0.00153591
5.11877e-06
6.23099e-06
0.00791193
-0.0166992
-0.00113433
0.00253981
2.74844e-05
-3.42713e-05
6.81039e-06
-0.0140519
0.00286603
-0.0152992
0.0150528
5.44277e-06
-1.60622e-06
-3.8345e-06
0.00119767
-1.15131e-05
-4.72246e-05
7.83619e-06
-0.000451808
0.00648914
-0.0249441
0.0184549
-8.02059e-06
2.66188e-06
1.30712e-05
1.32384e-05
0.00119569
-0.00112633
-3.73424e-05
-8.08648e-05
0.000118202
1.37295e-05
-4.69531e-06
0.0075517
-0.00167506
-0.00587666
-0.000890413
-0.00114648
-0.00502124
0.0109832
0.000190168
-0.000162691
-0.0134461
-0.00477932
-0.000145331
-5.35815e-05
0.000198859
0.000115533
-0.000118265
-0.000727769
4.61369e-05
0.000681633
-2.38957e-05
0.00122431
-0.000674297
0.000712725
-3.84397e-05
0.000484868
0.00706683
-0.00133456
0.00410244
-0.00276789
-0.000211555
0.000417424
-0.00020587
0.00448891
-0.00330379
-0.0011851
-0.000428085
-0.000291031
1.12334e-05
1.14474e-06
-1.24041e-05
0.00443514
-0.00300491
-0.00143018
0.000369043
-0.000494297
0.000476108
-0.000619622
0.000143478
-4.29125e-05
2.33979e-05
1.95018e-05
-0.00024667
0.00179953
-0.00155287
2.7475e-05
-3.54272e-05
7.90569e-06
2.80148e-05
7.22311e-06
-0.00163239
0.00316856
-0.00153612
-0.000675172
0.00140716
-0.00282339
-0.000138544
0.00296192
1.68485e-05
-1.03391e-05
-0.0027956
-0.000718206
-0.000212494
-8.61452e-05
-0.000495692
4.50558e-05
-1.11686e-07
-4.15119e-07
3.14268e-05
-0.00678022
0.0067488
0.000918874
0.00057396
0.000391258
-0.000129788
8.92156e-05
9.04354e-05
-0.000179774
-3.01876e-06
-0.00122
0.0270563
-0.00324965
-0.0238067
-2.42384e-06
0.0144904
-0.0112408
-0.00324965
2.68454e-05
-6.07064e-06
-2.07609e-05
0.0058351
-0.00151297
-0.00203489
0.000254197
-0.000158736
-9.54986e-05
0.000921792
-0.00131086
0.000389114
1.60824e-05
2.39395e-05
-7.57023e-05
-8.22534e-05
0.00166757
0.00109378
0.000432915
-0.000231809
0.000194442
0.00110969
-0.000613978
-0.000495776
-0.000146196
0.000386913
-0.000240713
0.00369363
0.000741512
0.000256025
-0.000228566
-5.0079e-06
-2.76646e-06
-0.00301833
-4.12774e-05
-5.5996e-05
-6.72482e-05
-0.000188987
0.000256227
7.63233e-05
-0.00120654
0.000112789
-6.48947e-05
8.13707e-05
-5.62875e-06
-7.5688e-05
0.0262556
-0.000136517
5.24642e-05
-0.00210204
0.000287092
-0.000160198
0.000520374
-0.000279552
-0.000240791
0.000685574
0.00179274
0.00922752
-0.0142488
0.00993159
0.00493816
-0.0148698
-0.00161961
-0.00559433
-0.000147275
6.71067e-05
0.00960826
-0.00960943
0.00235265
-0.00093486
-0.00141777
0.00235439
0.000779
-0.00313339
-0.000131248
0.000408448
-0.000277191
-2.65628e-05
8.76136e-05
2.38473e-05
-2.85522e-05
4.69349e-06
-0.00290598
8.25895e-05
0.00165853
0.0028304
0.000668323
-0.00118014
6.72229e-05
-3.73662e-05
0.000121763
-0.000152113
3.0345e-05
-3.88434e-05
4.67138e-05
-7.86388e-06
0.00478848
0.0153748
1.83241e-06
-5.3298e-06
0.000451164
2.49389e-05
0.000229154
-0.000177048
0.00096862
0.00850082
-0.00946941
0.000302183
-0.000515036
0.00414596
0.000112499
0.00109206
-0.000930059
-0.000161996
0.000209137
-5.42945e-05
6.35585e-05
-4.42771e-06
0.00375577
0.00675486
-0.00113452
-0.00443124
-4.56845e-09
-4.78778e-06
4.78883e-06
-2.49873e-05
-5.79846e-05
8.29909e-05
0.000610079
0.000665517
-0.00127561
0.00135791
-0.000579768
-0.000778151
-1.06372e-05
5.86218e-06
-0.00195941
0.00201681
-5.73982e-05
-0.000335464
0.000225351
-0.000205686
0.000425586
-0.0120766
0.0112802
0.000796331
0.00387321
0.000306675
-2.844e-05
0.000642964
-0.000614529
-0.000187251
1.29797e-05
0.00206124
-0.000135305
0.00036451
-0.000570201
-2.77943e-05
-2.52618e-05
5.30394e-05
0.000353265
0.00408824
0.00732675
0.000226141
0.000294245
0.000248326
0.000483749
-0.00103943
0.000311651
0.000304004
0.00104032
-0.00131109
0.00027082
1.63956e-05
1.04565e-05
-0.00219182
0.000858889
0.000105153
5.57582e-06
0.000328178
-0.000474369
0.000513426
-0.0022442
0.00173076
0.0102109
-0.00924228
-9.07561e-05
5.16301e-05
0.00111632
-0.00114479
7.53823e-05
-4.67366e-05
0.000145989
-5.56784e-05
-8.7399e-07
1.54115e-05
-1.4561e-05
0.00145093
-0.00477292
-8.54155e-05
2.88812e-05
5.65822e-05
-3.82133e-06
-8.16031e-05
-0.000222997
1.66197e-05
0.000206377
0.00365032
0.00218479
0.000605854
0.00140709
-0.00201288
-0.000516263
-0.000556959
-0.000112636
-0.0010914
0.000886784
-0.000633633
-0.0016468
0.000670542
-0.00976305
0.0160058
-0.00624271
-8.54065e-06
3.23635e-05
-0.000584773
-8.95181e-05
-0.000367898
0.000248283
0.000119633
-0.000277338
0.000210099
-0.0023886
0.00042918
-1.45046e-05
9.54198e-06
4.96938e-06
8.56038e-06
-2.76773e-06
-0.000547798
-0.00421332
0.00476112
-0.00826843
0.00576316
0.0025053
0.000275092
0.000156713
-0.000431827
0.00100237
-0.000496855
-0.00050552
6.61847e-05
-3.45294e-05
-3.16672e-05
-5.57335e-05
8.8064e-05
-3.23326e-05
-8.58157e-06
1.51103e-05
-6.52714e-06
0.00111781
-0.000758623
-0.000359202
0.00457087
-0.00221647
0.0116052
-0.00642585
-0.0051793
-6.4567e-06
-2.94633e-07
6.69963e-06
0.000117737
-0.000587527
6.26467e-06
3.99164e-06
7.91688e-05
-0.000117976
-0.0170926
0.00732953
-0.00036162
-6.28971e-06
0.00157366
0.00121308
0.000135448
-0.000213275
3.05125e-05
-7.06372e-05
-0.000257945
0.00261061
0.000185183
0.000364302
-0.000549497
9.37177e-05
0.000989317
-0.00108302
-1.21163e-06
1.10254e-06
0.00158395
-0.00183063
-0.000180461
0.000240334
0.000705676
-9.56193e-05
-0.000115423
2.96002e-05
-0.0075575
0.0133884
-0.00583095
1.68681e-05
-7.19665e-06
-0.00128729
0.00138102
3.01752e-05
-0.0342076
0.00630479
0.0279028
-0.00411946
0.0068909
-0.00277143
0.000183088
1.13428e-05
-0.0263032
-0.0100375
0.000221079
-0.00434665
0.00412562
2.4524e-05
-0.00263567
1.0658e-07
0.00263554
-7.46448e-06
6.3784e-06
1.08994e-06
0.000982242
0.000111333
0.0216952
0.0119916
0.00189063
-0.000931794
-0.000958846
0.0137674
-0.00705565
1.24096e-06
2.39944e-05
-5.59277e-05
3.19168e-05
0.00116602
-0.00357191
-1.87561e-05
3.3664e-05
-1.49021e-05
-9.91932e-06
-3.95019e-06
-0.00102045
-2.40382e-05
1.42576e-05
0.00360125
0.000119582
-0.00372084
1.56148e-05
-4.37305e-06
0.00423938
-0.00346039
-0.0131194
-0.0174199
-0.00878925
-0.00158911
-0.00197873
0.00356786
0.00116984
-0.0013444
0.000174545
0.000845511
0.000246579
3.20933e-05
-0.0141492
0.0358445
-0.00301399
0.00227641
0.0108455
0.00573886
-0.000216253
-2.29177e-05
-0.00140188
-0.0100041
0.011406
-0.0143135
0.0241672
-0.0098537
4.27572e-05
2.807e-05
0.000714351
-0.00129608
1.64617e-06
-1.61278e-05
-3.76516e-06
0.00129115
-0.00128738
0.000468727
-0.00398995
0.00018308
-9.88439e-05
-8.42332e-05
-1.16587e-05
6.54182e-05
-5.37466e-05
7.69238e-05
7.02873e-05
-0.00104818
-0.0186447
0.0196928
1.38759e-05
5.26392e-05
-0.00126366
-0.000630592
0.000403296
0.000227306
-6.54008e-05
0.00112859
-0.00106316
-1.08263e-05
1.08221e-05
-9.02111e-05
3.44779e-05
9.52874e-05
-0.000162184
0.00101003
-0.00113856
-1.81792e-05
-4.92395e-06
2.3095e-05
-2.54361e-06
-1.60755e-05
2.33219e-06
3.11594e-06
0.00258349
0.00135193
0.0025959
-0.000707919
-0.00188798
0.00114922
-0.000108883
0.00699464
0.000339087
0.000663247
-0.000115361
0.00147408
-0.00135872
0.00328705
0.0112034
0.00111336
-0.00258319
5.44868e-05
3.08497e-05
-8.5326e-05
-0.00112119
0.000308128
0.000813072
-0.00209211
0.00720556
0.000111928
-3.31424e-05
-7.88475e-05
-1.24021e-05
3.8098e-06
-0.00366729
-0.00040689
0.00368732
-0.00176732
-0.000624753
0.000309999
0.000854018
-0.00449344
0.00321201
-3.06056e-05
0.00102622
0.0115834
0.00473104
-0.0163144
-0.00116806
-5.19348e-05
-2.55598e-05
8.00467e-05
0.000345202
-0.000495409
0.000150196
-0.000408561
0.0003165
-3.73516e-05
5.54429e-07
1.57922e-06
-2.12145e-06
-6.81088e-05
2.23598e-05
4.57689e-05
-0.00121195
0.00148212
-2.36283e-05
1.61528e-05
7.47491e-06
-6.58162e-07
-4.64766e-06
-1.8989e-05
1.8938e-05
-1.69927e-05
-0.000217699
-0.000387669
0.000605349
6.28294e-05
-8.94202e-05
0.00502168
-0.000168827
8.17437e-05
-0.00106455
-0.00178047
0.0067262
-0.00494574
-0.000238333
-0.00113496
-0.00418925
0.000371961
2.46944e-05
-9.697e-06
-1.5003e-05
0.000228419
-7.26971e-05
-1.12144e-05
1.04564e-05
0.00478238
-0.00441003
2.09811e-06
6.89537e-06
5.35298e-06
-1.43165e-05
-0.00374103
-0.00192313
-0.000751669
-0.00132852
2.27294e-06
-1.66813e-06
0.00183773
0.00557813
-0.00741585
0.0045829
-0.00636336
1.3772e-05
8.21878e-05
-9.59502e-05
0.000668334
0.00093056
-0.00159889
1.19132e-05
-4.25424e-05
3.06072e-05
-0.000822389
0.000756994
0.00216475
0.000835287
-0.00300009
0.000363832
-0.000490644
0.000126807
9.93836e-06
-3.55663e-05
2.56338e-05
3.53202e-05
9.9102e-05
-3.01775e-05
-0.00281046
0.00169064
0.0011198
0.00109516
0.000546413
1.49301e-05
-2.02043e-06
-1.2905e-05
-1.92653e-06
-8.7283e-07
2.80254e-06
-6.4711e-05
7.84932e-05
2.00042e-05
-0.000633977
0.000613935
0.00284842
-0.00388796
0.00103956
-0.000239571
0.00285386
-0.00116435
-0.000670762
0.00237815
-0.00170741
-4.71221e-05
-1.48002e-05
0.00120332
6.29466e-05
-3.89471e-05
4.02755e-05
-4.35349e-05
3.29292e-06
2.21995e-06
5.6856e-06
-2.53539e-05
-0.000141717
-0.000133653
0.00102751
-0.000169963
0.000129376
5.64948e-05
-0.00018586
-0.00392401
-0.00122309
-0.000152512
0.00137561
2.40826e-05
4.78434e-06
-2.88752e-05
-3.20259e-05
1.15667e-05
1.4833e-05
-2.64232e-05
0.000617679
0.000552145
-0.00344334
0.00278613
3.59327e-06
4.00931e-05
1.65367e-05
8.16697e-06
-0.00208869
0.00260212
-0.0140673
0.005954
0.00811333
-0.00218863
0.00273244
-0.000543815
5.0594e-06
1.6802e-05
-2.18377e-05
4.24387e-06
-2.97884e-05
2.55383e-05
1.44238e-06
-1.43937e-05
5.67634e-06
-2.73781e-06
-2.93886e-06
0.00124719
5.38403e-05
3.42239e-05
0.000544635
-0.000242461
-0.00132731
0.0198071
-0.00896165
-6.51307e-06
-7.97292e-06
-0.000318773
0.000132804
0.000186005
0.000724271
0.00287696
0.00186075
-0.00183771
-0.00525516
-0.010044
-0.00122731
0.00382505
5.3676e-06
-8.8143e-06
-2.46685e-05
-2.25925e-05
4.72402e-05
-0.00158119
-4.80419e-05
-4.05257e-06
5.20983e-05
-4.65979e-06
0.00297033
-0.00391187
0.000941566
0.000165054
0.00010785
-0.00842163
0.00613366
0.000262701
1.51718e-05
-0.000277864
0.000213839
-2.13603e-05
0.000831221
-0.000245332
-6.16008e-05
9.60724e-05
-3.44355e-05
-0.000113483
0.000190427
0.000151478
-0.000152701
6.80509e-05
-0.000106463
3.8419e-05
6.18191e-05
-8.08756e-05
1.9099e-05
-0.00141716
-0.000196937
-0.000248172
0.000106472
-8.20333e-05
-0.000548557
0.00600155
-0.00528333
-0.000718223
0.024512
-0.0255602
1.33182e-05
5.74686e-06
-1.90902e-05
-0.0031519
0.00112057
-0.002699
0.00157839
-5.1502e-05
-5.01627e-05
5.62826e-06
-4.07162e-05
3.50525e-05
1.54255e-05
6.86163e-05
-8.40646e-05
-6.08571e-05
3.6164e-05
0.000467302
0.000900658
-0.00028561
0.0003291
-4.34944e-05
0.00219627
-0.000978908
-1.38426e-05
1.76443e-05
-3.85432e-06
-0.000309027
-0.00250144
0.000439789
2.41579e-05
-3.30321e-05
8.8795e-06
7.91224e-05
-5.32824e-05
-2.58428e-05
3.79002e-05
-0.000136075
9.81039e-05
-0.00241007
0.00334252
-0.000932448
-1.19884e-06
-4.7477e-06
5.93336e-06
-0.000108317
0.000214594
-3.81018e-05
6.44653e-05
0.000155101
2.18757e-05
-0.000176996
-0.000399649
-0.000107199
4.55994e-05
-7.03594e-05
0.000439845
-0.00042268
-1.71649e-05
3.7025e-05
-3.96222e-05
0.000606823
0.00363256
-3.679e-05
-6.14587e-06
8.11744e-07
5.5285e-05
-5.60532e-05
0.00104863
0.000309296
-0.000555589
0.000455779
9.98109e-05
-0.000476172
-0.00058394
0.000373355
0.000210579
9.41837e-05
-3.54202e-05
-7.62127e-06
0.000100157
-9.25231e-05
0.00192728
0.0023651
-0.00429236
0.00280878
-0.000299897
-0.00250887
-8.88993e-06
1.08583e-05
-1.96173e-06
-8.11473e-06
1.71587e-06
6.41349e-06
0.0217355
-0.00964693
-0.0120886
0.00291939
-0.00245885
-0.000460562
-0.00427579
-0.00042812
2.21201e-06
-2.34427e-05
-0.000470609
0.000287142
6.24137e-05
-6.89113e-05
6.49593e-06
0.00181755
-0.00135026
-5.30086e-05
0.000125171
0.00162421
-0.00214256
0.000518351
0.00119349
0.00024338
-1.07498e-06
-1.87687e-05
1.98698e-05
-0.000106201
-0.000144227
0.000250446
-0.000179956
0.000443986
-0.000263966
0.0010558
9.60905e-05
7.4572e-05
0.000179897
-5.4319e-05
6.78223e-05
0.000148548
-0.000216326
-2.29394e-05
-1.26368e-05
5.4285e-05
-1.39838e-05
-2.21605e-05
0.000131001
-0.00286108
0.000672438
0.00017295
0.000114195
-1.10044e-05
3.50867e-05
-0.000287845
0.00125173
-0.000596654
-0.000524504
-8.60435e-05
-2.11632e-05
0.0129538
-0.0213381
0.00838428
8.42843e-06
0.000156033
-0.000164467
-0.000959121
0.000396239
0.000562858
6.73894e-05
-0.000279871
-2.98779e-05
-2.62264e-05
5.61127e-05
-3.99963e-05
-6.86651e-05
1.04901e-05
-6.66754e-06
2.26061e-05
0.000106742
0.000576982
0.000128679
0.00489761
0.000152098
0.00233873
-2.89932e-06
5.71186e-05
-5.42366e-05
-6.15858e-05
-0.00254886
0.00352245
-0.000645757
-0.00282356
0.00346934
0.000119469
-0.000175589
5.61295e-05
-0.000912035
-0.00277602
0.00368806
0.00315036
-0.0108994
0.00774901
0.00026873
-2.01527e-05
-0.00024859
-0.000117491
6.59966e-05
8.07949e-05
0.000187932
4.88447e-05
-1.53187e-05
3.325e-05
-3.10709e-05
-2.15757e-06
0.00209722
-0.00148745
-0.000609766
2.70013e-05
0.0105886
0.011147
6.01672e-05
-0.000309606
-0.000349718
0.000659326
0.000141327
1.37275e-05
-0.000193933
3.0937e-05
3.68782e-05
-0.000879863
-0.000375267
0.00125513
-2.73463e-06
3.58115e-06
-1.08684e-05
0.00853225
1.19704e-05
-1.28305e-05
0.00181302
-0.000188797
-4.53858e-05
-6.11701e-06
-8.35344e-06
0.000162796
-0.000178984
1.62054e-05
2.5693e-05
-0.000133029
0.000107303
4.17689e-05
0.00011096
0.000227972
0.000198552
-0.000426519
5.12006e-05
4.6053e-05
-9.72371e-05
-0.00375894
0.000229678
0.00113387
-0.00113764
0.00197761
-6.99667e-06
1.54012e-05
0.000519839
0.00102332
0.00075312
0.0003139
0.000656491
-0.000970388
0.00392212
0.000287584
8.20494e-05
0.00182527
-0.000551952
-0.00127335
0.00983373
0.00340882
-0.0132425
-0.000116392
-0.000508433
-0.000723567
0.000899028
-0.000175467
9.19151e-06
1.31871e-05
-2.23839e-05
-0.00200947
-0.000213458
0.00222292
9.40617e-05
-1.94025e-05
1.83448e-05
-0.00037568
0.000217797
0.000157885
0.00205875
-0.00134451
-0.000714215
-1.23351e-05
1.20464e-05
2.61034e-07
0.000389931
-7.94559e-05
-0.000295642
-2.4654e-05
8.02902e-06
1.6632e-05
-0.0043015
0.00440798
0.00155043