/*--------------------------------*- C++ -*----------------------------------*\
| =========                 |                                                 |
| \\      /  F ield         | OpenFOAM: The Open Source CFD Toolbox           |
|  \\    /   O peration     | Version:  v2012                                 |
|   \\  /    A nd           | Website:  www.openfoam.com                      |
|    \\/     M anipulation  |                                                 |
\*---------------------------------------------------------------------------*/
FoamFile
{
    version     2.0;
    format      ascii;
    class       volVectorField;
    location    "200";
    object      ddtCorrDdt0(U);
}
// * * * * * * * * * * * * * * * * * * * * * * * * * * * * * * * * * * * * * //

dimensions      [0 1 -2 0 0 0 0];


internalField   nonuniform List<vector> 
13749
(
(0.000581369 -0.012532 2.36184e-20)
(0.000233305 0.000370105 0)
(0.00041122 -0.000759029 -6.36323e-20)
(4.19517e-05 3.04156e-06 0)
(0.0186434 0.0113803 1.86583e-20)
(-5.9658e-05 -4.15227e-05 -3.35664e-23)
(0.0235675 0.00146519 -1.56571e-21)
(5.03412e-05 -1.96099e-05 -3.09105e-20)
(-0.00827609 -0.00776534 4.75827e-20)
(4.71765e-05 -4.11624e-05 5.89155e-21)
(-5.7463e-05 -4.09432e-05 8.59234e-23)
(0.000747305 -0.000741588 -2.15013e-20)
(3.90221e-05 -0.000259403 4.95647e-20)
(0.0273732 -0.0228538 1.24848e-20)
(3.72863e-05 -0.000123 2.67836e-20)
(0.0220741 -0.0309169 -1.47127e-20)
(0.0109395 -0.000273485 5.46483e-21)
(2.0137e-05 1.76141e-06 2.35853e-20)
(-0.00655774 -0.0201868 -1.26425e-22)
(-1.62535e-05 2.91536e-06 -2.65139e-21)
(-0.00788347 -0.00109559 1.59302e-20)
(0.00473903 -0.0163114 3.05283e-20)
(0.00557829 0.00837068 -4.38104e-21)
(-0.000159823 0.00168609 5.26931e-20)
(-0.00019434 0.000674379 0)
(-9.85774e-06 -1.59353e-05 1.01613e-21)
(-0.000465943 -1.04797e-05 -1.59859e-20)
(0.000574074 0.000987625 5.12591e-21)
(0.0298298 -0.00323839 7.25866e-20)
(0.000548086 -0.00425799 3.19693e-20)
(0.00928322 0.0160933 1.78016e-21)
(-0.00169039 0.0039441 0)
(-0.0104413 -0.00979107 -5.887e-20)
(3.52707e-05 -0.000137308 -2.04639e-20)
(0.00101639 0.0655036 -3.14388e-20)
(0.0150639 -0.00322062 -3.66368e-20)
(0.035596 -0.0243015 -7.11011e-20)
(2.99151e-05 -8.89263e-06 5.80406e-21)
(-0.000609059 0.075147 -8.28562e-23)
(0.0188495 0.0024639 -4.79652e-22)
(7.88619e-05 -0.000111918 2.38193e-22)
(-0.016299 0.000154794 0)
(3.77356e-05 6.98459e-07 8.65893e-21)
(0.0126831 -0.016771 -3.65826e-20)
(-0.000867847 0.00222035 1.50128e-21)
(4.08147e-05 -1.54759e-07 -8.08364e-21)
(-0.000775375 0.000529174 0)
(0.00602324 -0.0020341 -2.61419e-22)
(0.00129727 -0.00934863 -5.50892e-20)
(0.0001459 7.95834e-05 -5.05716e-20)
(-1.92368e-05 -0.00166121 1.66248e-21)
(-0.000778467 0.00148456 2.45785e-22)
(0.0221062 -0.000164695 -1.22285e-19)
(-1.11565e-05 -8.77724e-05 -1.1407e-20)
(0.000319979 -0.000499515 0)
(0.0239637 0.00170389 -4.70504e-20)
(0.0171643 -0.0171819 0)
(-0.000167731 0.00104139 0)
(-0.000960861 0.00157146 1.44702e-21)
(0.00155948 -0.00294083 0)
(0.000271194 0.00237695 -2.68016e-21)
(-0.037037 0.0321742 -1.40972e-18)
(0.00430225 0.0101407 -8.51232e-22)
(0.0029016 0.0119831 4.60622e-21)
(-0.00365623 0.000557615 4.46675e-20)
(0.0106087 0.0320194 -1.65511e-20)
(1.3957e-05 -0.00217301 -1.22623e-20)
(0.0304618 0.0106601 0)
(0.0225368 -0.00070677 9.74466e-20)
(0.00238981 -0.0108777 2.21658e-20)
(0.00112798 0.000539356 2.41164e-20)
(0.0191806 -0.0037459 -8.42628e-21)
(0.000126341 0.000112879 -2.24064e-20)
(-0.0188667 0.00495021 -2.43295e-20)
(-0.000489726 0.00101773 0)
(-0.0109318 -0.00342259 -2.14183e-20)
(2.68992e-05 4.48622e-06 -1.7389e-20)
(4.63518e-05 -3.54486e-05 0)
(0.0186111 0.00314808 2.55337e-20)
(0.000331194 0.000393008 0)
(-0.0499152 0.0223651 0)
(0.000612412 -0.000257729 0)
(0.000322622 -0.00185175 8.19917e-21)
(-0.000363733 0.000230797 1.36845e-21)
(0.0386294 -0.0155117 -5.08946e-24)
(2.91881e-05 1.29657e-05 -7.3537e-21)
(0.0500345 0.017338 1.24759e-20)
(-0.000312266 -0.000338607 -1.40506e-20)
(-0.00746713 0.00225215 -1.50157e-20)
(-0.00243995 0.000712884 -1.61775e-19)
(-0.000878637 -0.00148492 -1.59467e-21)
(-0.0505741 0.0274183 -4.01032e-20)
(-4.88142e-05 -4.38121e-05 8.61552e-22)
(0.00826875 -0.0072174 0)
(0.00053758 -0.000868535 8.7106e-21)
(-0.00709542 0.0041017 -1.43508e-20)
(-0.00136513 0.00613176 0)
(0.000308039 -0.00341071 -1.77396e-20)
(-0.000183369 0.0142523 -2.55878e-21)
(0.000248547 0.000350711 3.341e-21)
(4.51547e-05 0.00295417 1.27303e-20)
(-0.00691422 -0.0450893 -2.48817e-20)
(-0.000460397 1.25596e-05 0)
(0.00764158 -0.00507878 -3.86001e-20)
(-3.84389e-05 -4.10734e-05 -8.32818e-22)
(3.15477e-05 -1.14524e-06 0)
(-0.000610174 -0.00109885 8.84848e-21)
(-0.00610182 0.0183436 0)
(5.02243e-05 -2.67117e-05 1.59639e-22)
(0.0010103 -0.00523215 -3.35947e-20)
(3.0551e-05 -3.86814e-05 -2.35718e-20)
(-0.0139597 -0.0102083 0)
(0.018859 -0.00109954 9.11712e-22)
(-0.000347688 0.000445386 0)
(0.00146977 0.00135266 0)
(0.0242488 -0.00073298 0)
(2.46586e-05 -4.99332e-07 8.91174e-21)
(0.000283457 7.4115e-05 1.54634e-20)
(0.00183712 -0.00331031 -2.4657e-20)
(-3.54791e-05 0.00021245 -7.28828e-21)
(3.02717e-05 -3.05203e-05 0)
(-0.00757263 0.0186143 -1.39544e-20)
(2.00109e-05 -2.02688e-05 0)
(9.85413e-05 1.58268e-05 8.76911e-23)
(-2.7429e-05 -4.34612e-06 -1.04424e-21)
(0.0304905 -0.00246714 -5.40539e-20)
(-0.00326138 0.0257999 -4.78421e-21)
(-3.3936e-05 -2.4957e-06 2.20422e-22)
(9.39092e-05 4.19735e-05 -4.62716e-21)
(0.00234604 -0.0334885 1.86292e-21)
(-0.000929014 0.000533945 -2.71091e-21)
(0.0423095 0.0152667 -1.3973e-20)
(-0.00143743 -0.00722394 -5.52211e-19)
(0.000606694 0.0135729 2.16906e-21)
(-0.0170178 0.00781902 5.21768e-20)
(0.0138736 -0.0152776 1.84752e-20)
(0.0150612 -0.00435526 0)
(-0.00126011 -0.00481516 3.66148e-20)
(0.00212645 -0.00168832 0)
(7.22416e-05 4.40458e-05 9.87959e-21)
(-0.00404838 -0.0047464 0)
(0.000435744 0.000778035 0)
(3.15378e-05 -4.8335e-05 1.32322e-20)
(0.00122148 -0.000287724 0)
(-0.000286925 0.000206104 -1.85822e-20)
(0.000328303 -0.000849247 5.09656e-23)
(-0.00677868 0.00206431 2.73197e-20)
(0.0180655 -0.00180882 1.10055e-20)
(-0.0186279 0.0065956 4.66976e-20)
(0.0287139 0.000322793 -3.58107e-20)
(0.000287488 0.000638733 0)
(0.00310368 -0.0056372 -1.34543e-21)
(1.67209e-05 -2.11351e-05 -3.75218e-24)
(0.0187494 0.00128577 8.63459e-21)
(0.0301039 -0.00949727 0)
(2.52214e-06 -3.38973e-05 1.48899e-20)
(-0.0137314 -0.0468928 0)
(0.0156929 -0.0133056 0)
(0.00904716 0.0104619 7.03291e-21)
(-5.91692e-05 0.000188512 -2.74387e-22)
(8.17101e-06 -0.000331226 6.7395e-21)
(-3.14259e-05 -4.06436e-05 8.44487e-22)
(0.0034154 0.00842014 2.35125e-21)
(-0.00044792 0.000164433 -2.94307e-21)
(0.00887651 0.000904348 -1.73791e-21)
(0.00106796 -0.00123564 -1.78736e-20)
(-3.14914e-05 -2.32097e-06 0)
(4.26374e-05 0.000124268 0)
(0.00786326 -0.0123519 0)
(0.0182548 -0.00568215 2.16404e-22)
(1.28643e-05 3.52245e-05 -1.82053e-20)
(-3.47831e-05 -4.19885e-05 5.0091e-23)
(0.0182593 -0.0184678 1.1289e-21)
(-0.00831352 0.00350187 0)
(0.0241598 -0.00259546 0)
(0.00100455 -0.00120386 5.70903e-20)
(0.000443534 -0.00765486 -6.69e-20)
(-0.0361763 0.0294226 1.70997e-18)
(0.00205938 0.00157489 0)
(0.00995813 -0.0239423 0)
(0.000179158 0.000799631 4.17023e-20)
(0.000382892 -0.00101999 -2.83957e-20)
(-0.00392174 -0.0219827 4.59282e-22)
(-2.8273e-05 0.00196752 -1.21389e-21)
(-0.000224895 0.000367203 -7.0467e-20)
(7.90549e-05 4.51294e-05 -2.37216e-21)
(-4.12135e-05 -1.8845e-05 7.70949e-21)
(2.80799e-06 1.79731e-06 4.13541e-22)
(0.00145798 -0.000187488 0)
(0.00703005 0.00342195 1.52981e-21)
(0.0183702 0.0145603 -1.2716e-20)
(-0.00471873 -0.0452836 0)
(-5.4973e-05 -0.000483799 2.16976e-20)
(0.00014203 -0.00032474 0)
(2.82573e-05 1.24331e-05 3.46883e-21)
(4.84552e-07 3.18026e-06 1.82182e-21)
(0.00129926 -0.000703425 2.79795e-20)
(-0.00145206 9.91578e-05 0)
(0.000533274 0.00219937 0)
(0.0191673 -0.00794221 -7.12857e-22)
(0.0116771 -0.00321728 -9.40321e-20)
(-0.000260529 0.000320651 5.84535e-20)
(0.0299494 -0.0112855 -6.32577e-21)
(-0.000702784 -0.00172423 2.07183e-20)
(2.73847e-05 -1.99324e-06 -1.86521e-20)
(0.0252402 -0.011163 0)
(-0.0130935 -0.013045 0)
(0.0360384 -0.0267513 7.3186e-20)
(3.63556e-05 0.000453502 0)
(-2.96724e-05 -2.76058e-06 2.11774e-21)
(-0.000418546 0.00175557 0)
(0.0385789 0.0265907 4.1406e-22)
(-0.000769249 0.00083641 -1.04897e-20)
(0.000548975 -9.00104e-05 1.15559e-20)
(-0.00306753 0.000490166 1.16729e-20)
(-0.0136456 -0.0444489 -4.58807e-21)
(-0.000133181 -0.000333219 -4.95982e-20)
(-0.000160351 -0.00255406 -2.14268e-20)
(2.29799e-05 1.31142e-05 -2.27164e-20)
(1.90543e-05 -3.6442e-05 -6.86386e-21)
(1.85052e-05 0.000351515 0)
(-0.00346986 -0.00393913 0)
(-0.0160343 0.00100753 -1.50742e-20)
(0.000450214 0.000652754 -3.74258e-20)
(-0.0154215 -0.0100873 -2.67455e-21)
(0.0191276 0.0108204 1.51741e-20)
(0.000556995 0.00130034 -2.01651e-21)
(0.00494542 -0.00604087 0)
(0.0284427 -0.016481 0)
(-4.44763e-05 -5.20394e-05 -1.50685e-20)
(-0.00707981 0.0011193 2.05411e-20)
(-0.000712878 0.000971634 3.09194e-20)
(1.41723e-05 -0.000148946 0)
(-1.88987e-06 -1.83814e-05 -3.32552e-22)
(-4.49494e-05 -1.75748e-05 3.33384e-20)
(4.58373e-05 -0.000163492 2.14193e-22)
(-0.00379739 0.0017199 -3.25979e-20)
(-0.004595 -0.00424889 0)
(-0.0436314 -0.00427443 1.202e-20)
(0.00215621 -0.00225519 -2.73122e-22)
(0.0011103 -0.0111749 1.29343e-20)
(0.00753376 0.0143281 0)
(-2.06662e-05 -4.06431e-05 7.99858e-21)
(-0.000230626 -0.0130305 0)
(4.23993e-05 -8.41e-06 3.28173e-22)
(-3.62786e-05 -3.11686e-06 -1.65682e-21)
(3.41801e-05 1.86753e-06 -7.59344e-21)
(0.000549847 -0.000245232 -1.30975e-20)
(-0.00458847 -0.0567709 3.91918e-20)
(-0.0239085 0.080654 3.24856e-19)
(6.77289e-05 4.63209e-05 0)
(2.58667e-05 5.16023e-06 0)
(-0.0125286 -0.0290677 -8.35908e-21)
(-0.00396754 0.00705417 -2.89e-20)
(0.00689107 0.0142565 -3.10035e-21)
(-0.000212514 0.000117847 1.18113e-21)
(-0.00839585 0.00386921 -2.19388e-20)
(0.000893469 -0.00040767 -1.09126e-20)
(2.28955e-05 -1.69721e-05 4.19416e-20)
(4.11102e-05 -9.59671e-07 -1.11031e-20)
(-0.00331744 -2.03206e-05 0)
(0.0385052 -0.0110787 -8.61668e-20)
(5.46551e-05 7.56327e-05 -6.95124e-21)
(-0.000661555 0.000254724 0)
(-0.000393884 0.000541553 -1.28011e-23)
(6.5451e-05 -0.000168613 -1.51996e-22)
(0.000355352 -0.00107835 0)
(4.48236e-05 -0.00832683 7.37414e-21)
(0.00316362 -0.014711 0)
(2.14979e-05 -2.20409e-05 -4.27706e-20)
(-0.000839518 0.00111722 -7.97434e-22)
(-0.000120015 -0.000485356 1.49054e-20)
(-0.00722918 -0.000785676 0)
(-0.00129703 0.0054017 0)
(0.0053447 0.000136882 3.15845e-22)
(0.0216942 0.00237002 5.06175e-20)
(0.00594972 0.0513866 -9.51724e-21)
(0.000150226 0.000674823 1.74873e-20)
(-0.000557213 -0.0132156 -4.95785e-20)
(1.70119e-06 7.95472e-05 -1.98689e-20)
(-0.00328831 0.00750614 0)
(-0.000933937 0.0011325 1.42078e-20)
(0.0233894 0.0036181 0)
(-0.00039813 -2.61492e-05 6.43501e-20)
(-0.000279511 -0.0274618 -9.43064e-21)
(2.92143e-05 -1.53837e-05 -4.15847e-20)
(-0.0238729 -0.0315824 0)
(-0.0117614 -0.00763206 -2.16941e-20)
(4.22342e-05 -1.27789e-06 9.75582e-21)
(0.000818521 -0.000707415 0)
(0.0186631 0.0127856 -1.2703e-20)
(0.000609245 0.000562806 3.5699e-20)
(0.000768325 -6.29912e-05 2.87372e-20)
(-0.000102986 -0.000825268 2.90182e-20)
(0.0398002 -0.0141189 0)
(0.0379708 -0.020291 -3.92879e-20)
(1.49802e-05 2.96992e-07 5.11278e-21)
(2.59987e-05 -0.000222354 1.69176e-20)
(0.0010994 -0.00879908 -1.22182e-20)
(1.12087e-05 3.35038e-05 1.59186e-20)
(0.038428 -0.0187675 0)
(-0.0382593 -0.0146645 -5.62431e-20)
(-0.00390232 -0.010077 0)
(-8.92283e-05 0.0011045 3.13594e-20)
(0.00102967 -0.00531159 2.99594e-20)
(0.0056896 -0.0274757 1.57511e-21)
(0.000930913 -0.0148291 4.97403e-20)
(7.49112e-06 3.2704e-07 4.35026e-21)
(0.0181755 0.0011165 6.4095e-21)
(4.07085e-05 2.67126e-05 8.35998e-21)
(8.19133e-05 3.18566e-05 -1.03881e-20)
(0.000630212 0.000280029 0)
(-0.0137245 0.0317749 0)
(-0.000555685 0.00180414 0)
(-0.00147122 -0.00277871 -1.02172e-20)
(3.52324e-05 6.01666e-07 1.53713e-20)
(-0.0055105 0.0183649 0)
(8.10228e-05 4.83173e-05 9.6697e-21)
(-0.010688 -0.00793292 -1.52858e-20)
(-1.6369e-05 4.14572e-06 1.70944e-21)
(3.49302e-05 -6.48534e-05 3.93965e-21)
(2.73411e-05 -2.09557e-05 -2.10938e-21)
(-0.000103832 0.000583565 -2.24413e-20)
(0.00901097 0.0592978 1.5417e-20)
(0.000151246 -1.71033e-05 -2.48416e-20)
(0.000181045 -0.000275846 2.98307e-20)
(0.0169457 -0.00636161 0)
(3.85457e-05 -3.84715e-05 3.78594e-21)
(3.605e-05 -3.53867e-06 3.86254e-20)
(0.0202479 -0.0399216 4.15939e-20)
(0.0240517 0.0144356 1.78622e-20)
(0.000236316 -0.000399195 0)
(2.20628e-05 1.94534e-05 -1.44201e-20)
(0.00129247 0.00175092 -4.12455e-22)
(-0.000288991 0.000244847 0)
(2.66913e-05 7.25665e-06 9.89418e-21)
(-0.000378828 0.000977021 -3.42599e-22)
(3.68815e-05 3.55743e-05 3.12831e-20)
(0.0127708 -0.00277927 6.29542e-20)
(-0.0314826 -0.011155 1.69359e-20)
(5.60087e-05 -0.000116686 1.09184e-22)
(-0.0103745 0.0168653 7.52777e-21)
(0.0015291 0.00192804 0)
(-0.000219987 0.00148038 2.41418e-20)
(-0.000174981 4.64283e-05 1.36013e-21)
(0.00168886 -0.00663988 -7.90861e-20)
(0.000604431 0.000933013 0)
(-0.000661018 0.00115787 -2.60547e-21)
(1.67413e-05 1.43806e-05 0)
(0.014208 -0.0170479 -6.10899e-21)
(-8.62382e-05 -0.000348286 1.30622e-20)
(-0.00318152 -0.00231739 1.67855e-20)
(-0.000181935 0.000617049 5.40981e-21)
(0.0056987 -0.00502183 3.63203e-22)
(-0.000237118 9.67387e-05 4.91255e-20)
(0.000667193 0.000831938 -3.47399e-20)
(1.88116e-05 -9.77397e-05 -2.88585e-20)
(-6.23113e-05 0.0137452 4.55753e-21)
(0.000285164 -0.00249269 -4.92613e-20)
(-0.00580714 -0.00784024 1.83458e-22)
(1.278e-05 8.44133e-07 -1.46687e-20)
(0.00459021 -0.000231888 0)
(0.00188063 -1.75648e-05 0)
(0.0174205 0.0119097 1.31499e-20)
(-0.00018277 7.34458e-05 -6.57682e-22)
(0.0108395 -0.00550865 1.69752e-21)
(1.81641e-05 2.00636e-05 3.29889e-21)
(0.00368347 -0.00585604 0)
(2.29672e-05 -2.32023e-06 1.48907e-20)
(6.09277e-06 4.60008e-05 1.65195e-20)
(0.0147691 -0.0108331 0)
(-1.13058e-05 -1.44853e-05 -6.453e-22)
(2.49707e-05 -8.56176e-06 0)
(0.025204 -0.0145308 2.76317e-20)
(0.000249622 -0.000239585 -2.98509e-20)
(6.80498e-05 -2.13083e-05 1.13526e-22)
(-0.000362839 0.000125421 1.48203e-21)
(0.00231531 -0.000680464 1.18244e-20)
(-0.0146446 -0.0049745 5.50766e-21)
(-0.0231235 -0.00282969 1.04487e-20)
(2.46397e-05 5.79831e-06 2.14864e-20)
(-3.13066e-05 1.51299e-06 0)
(3.82771e-05 8.25984e-06 1.20772e-20)
(-0.00806046 -0.0311104 1.03125e-20)
(-0.00267023 -0.00255451 0)
(0.00837783 0.0185298 9.70647e-21)
(-0.000985988 0.01191 -8.86677e-23)
(-0.0072056 -0.00595072 2.20645e-20)
(-0.00637479 0.000235103 -1.99507e-20)
(0.0203442 0.0124524 1.28454e-20)
(2.01731e-05 5.34798e-05 -1.48889e-20)
(2.10546e-05 1.36893e-06 1.10562e-20)
(0.00204908 -0.000588904 1.8103e-23)
(-0.00260908 0.0540812 2.26066e-21)
(0.0240568 -0.000392837 0)
(3.45374e-05 -2.43521e-06 0)
(-1.99026e-05 2.00941e-05 5.09379e-21)
(2.14195e-05 7.26709e-06 -8.64922e-21)
(-0.00300323 -0.00937981 0)
(-0.000417618 0.000690321 0)
(0.000695976 0.00317728 1.21199e-19)
(0.000197501 -0.000113013 0)
(-0.00947626 0.00826148 3.26867e-20)
(-0.0401318 -0.0267382 2.43213e-19)
(-0.00518088 -0.0235739 -1.62363e-21)
(0.000768191 -6.85344e-05 6.80336e-21)
(0.018774 0.0210633 -3.5946e-21)
(1.40411e-05 6.0555e-06 -2.52534e-20)
(-0.0334804 -0.0259818 -2.81853e-20)
(0.0276577 0.0122084 2.62006e-21)
(4.02494e-05 -1.59456e-05 1.05622e-22)
(-0.0354087 -0.0207677 6.37452e-20)
(2.38127e-05 -7.62944e-05 -2.2132e-20)
(-0.00514331 -0.0582674 -3.09438e-20)
(3.7862e-05 -4.56889e-05 -1.83631e-22)
(0.000573973 0.00146167 0)
(-0.0138114 -0.00555311 9.92569e-21)
(0.000408454 -0.000559152 8.61983e-21)
(0.0193361 -0.00131036 -9.66529e-20)
(0.00274935 -0.00685031 4.48894e-20)
(3.33393e-05 -3.0984e-05 -1.22069e-20)
(0.000385531 0.00128522 2.81629e-20)
(-0.0129674 -0.0035131 -2.19991e-20)
(-0.000209594 0.000237244 2.47259e-20)
(-0.000556052 -0.000589419 6.54738e-21)
(-0.000129028 0.000829747 -2.327e-20)
(-0.000216925 8.15376e-05 7.48914e-22)
(-0.000459943 -0.000574916 -1.59661e-20)
(1.55804e-05 -3.15778e-06 1.9557e-21)
(4.30003e-06 2.62762e-05 -3.21002e-21)
(-0.00257108 -0.000671812 0)
(0.00066124 0.00287879 -2.20711e-20)
(-0.000409346 0.000440983 -2.17906e-22)
(4.23789e-05 1.95547e-05 1.20623e-20)
(0.000130417 -0.000172844 2.48174e-20)
(-0.000170428 0.000649294 -5.13548e-21)
(2.21305e-05 -2.45801e-05 0)
(0.0225829 0.000310452 0)
(0.00509024 0.0122684 1.05011e-20)
(0.0162867 -2.31396e-05 -1.27495e-20)
(-0.0254492 0.0206566 0)
(-0.00290515 0.000116558 2.7515e-20)
(0.000480746 -0.000751578 0)
(-0.0173736 0.0444634 -1.58116e-21)
(0.0173687 -0.00114589 -1.1032e-20)
(0.0229068 0.00300718 -5.16938e-20)
(0.00153639 0.00154974 -4.11773e-20)
(7.4309e-05 6.43426e-05 -1.97157e-20)
(-0.00689102 0.00364881 1.52785e-22)
(-0.00500488 -0.0635684 3.19781e-20)
(-0.0015259 -0.000798643 4.66719e-20)
(0.0276795 -0.0229358 -2.05941e-20)
(0.000168147 -0.000535461 -2.28021e-23)
(-0.000457797 0.000409189 -1.36508e-21)
(1.6272e-05 1.1402e-06 0)
(0.000635148 0.00060311 0)
(-5.47408e-07 -4.64613e-05 -9.08441e-21)
(0.0194875 0.0104021 -1.13624e-20)
(-0.00780205 -0.00212154 -2.33341e-21)
(0.0205204 0.0234149 3.51825e-21)
(-0.000385186 0.000194722 0)
(-4.23204e-06 1.61685e-05 0)
(-0.000431696 -0.00105437 0)
(0.000393889 0.000351217 0)
(0.0160023 -0.00730074 0)
(0.0326868 0.0289157 -4.78426e-21)
(0.000179462 -0.000189892 -3.89626e-20)
(-0.000839741 0.00051258 1.75179e-20)
(-0.000749142 -0.00417413 5.39836e-20)
(-0.00772844 0.00432144 1.60268e-20)
(0.000651158 -0.00099788 0)
(-0.00778928 0.00434028 -1.75941e-20)
(3.82757e-05 1.40127e-06 7.76142e-23)
(-0.000242237 0.00038204 -2.04508e-22)
(-1.5043e-05 3.34045e-06 2.48249e-21)
(0.00253113 -0.00930502 3.12952e-21)
(0.0189662 -0.00103869 -6.48265e-21)
(-0.0313202 -0.0262135 2.0046e-19)
(-0.00072339 0.00273825 4.66341e-20)
(-0.0309293 0.0193043 -1.02943e-20)
(9.31173e-05 2.59886e-05 6.81148e-22)
(0.000101784 0.00051414 -7.31572e-20)
(2.17792e-05 6.29196e-06 0)
(1.67545e-05 1.99078e-06 -3.8795e-21)
(2.31993e-05 -1.09451e-05 0)
(-0.000134976 0.000363393 1.82229e-21)
(-3.43813e-05 0.000166762 0)
(6.48103e-06 9.18313e-05 -4.5304e-20)
(0.000682741 0.00178813 2.3497e-20)
(0.0103826 -0.00185236 2.49336e-20)
(2.53412e-05 6.28581e-06 7.00184e-21)
(-0.0258382 0.0015296 -1.42999e-20)
(0.00735022 -0.00583621 0)
(7.76891e-05 -2.12705e-05 7.4323e-21)
(0.0307025 -0.0120617 5.39089e-21)
(-0.00421147 0.0121096 1.76835e-20)
(0.0262572 -0.0102818 0)
(-0.000217765 -0.000640466 3.41886e-20)
(0.00517081 0.0138891 0)
(-0.00227212 -0.000798843 0)
(0.00449688 -0.0649149 0)
(-0.00364165 0.00234946 -4.23543e-23)
(-0.000254039 -0.00117495 0)
(0.000234732 0.000411742 -1.11652e-21)
(0.0225067 -0.0210324 0)
(4.51603e-05 -3.4999e-05 0)
(4.08624e-05 0.000179994 0)
(0.00455989 -0.0017867 3.21185e-20)
(-0.0182867 -0.0421506 0)
(1.7155e-05 1.2097e-05 -1.54631e-20)
(0.00935068 -0.0174687 -5.18205e-21)
(0.0214949 -0.0104343 0)
(0.000290043 0.00133865 2.83961e-20)
(-0.0160352 -0.0434406 -9.24223e-21)
(0.0459954 0.00552662 8.31023e-21)
(6.82717e-06 6.27111e-06 7.02852e-21)
(-0.00421022 -0.00852354 0)
(9.20426e-05 1.73513e-05 3.21399e-21)
(0.0189365 0.00523193 -2.13099e-20)
(0.00159673 0.0519679 8.23059e-20)
(1.64789e-05 1.34494e-06 0)
(3.2636e-05 -3.28151e-05 -4.45018e-20)
(0.0232609 3.42832e-05 0)
(0.00111625 0.00298581 0)
(2.24827e-05 9.22062e-06 -2.2756e-20)
(0.00714984 0.0349826 -1.13342e-20)
(0.0227356 0.0168182 4.44236e-20)
(-0.0208782 0.00559536 6.73774e-22)
(0.000817589 0.00233789 -8.82844e-20)
(-0.0416598 0.00535039 1.02312e-20)
(-0.00045684 0.000756147 6.77549e-20)
(-3.25228e-05 0.000234617 1.54821e-20)
(-0.00712449 0.00372787 2.32631e-20)
(0.023479 0.00125814 1.55197e-20)
(0.000120087 -0.00333993 0)
(0.00400423 0.0388707 1.09839e-20)
(-0.0156663 -0.0303136 3.32594e-20)
(-0.000148197 0.00061674 -2.15223e-21)
(0.01346 -0.0407136 0)
(-0.00162906 0.00232291 9.9635e-20)
(2.6181e-05 9.99588e-06 1.16312e-20)
(-0.00302942 -0.0319221 -8.96582e-21)
(-0.00508281 -0.00471866 0)
(0.00136479 -0.00160418 1.78511e-20)
(5.10722e-05 -6.30697e-05 0)
(0.0303597 0.000509552 -2.45755e-20)
(1.92629e-05 6.58985e-05 -6.80926e-22)
(4.90239e-05 2.38174e-05 3.72274e-20)
(-0.0089347 -0.0253007 6.62552e-21)
(0.0029222 -0.00686813 1.96828e-20)
(0.0202215 0.0307468 -4.11617e-22)
(-7.13896e-06 1.29078e-05 -8.83131e-21)
(0.024022 -0.0367413 -3.29554e-20)
(0.00134142 0.00104736 1.52758e-19)
(0.0108435 -0.00132378 0)
(-1.0966e-06 2.4252e-06 -1.19456e-21)
(-0.0242042 -0.0107257 0)
(-0.00268459 -0.00821475 -1.43768e-20)
(-0.000146179 -0.00106925 -2.56858e-20)
(0.00064358 -0.000699752 -2.50923e-20)
(9.59773e-06 7.52723e-06 2.53956e-21)
(0.00652748 0.0117465 0)
(0.0166322 0.0375215 3.21629e-21)
(4.47033e-05 -3.73649e-05 0)
(0.026172 0.0183653 0)
(5.76705e-05 -4.59791e-05 -1.85112e-20)
(-0.0119762 -0.0494705 0)
(0.000951339 -0.0312501 3.58582e-20)
(7.67044e-05 9.68051e-05 -1.69556e-22)
(-0.00398955 -0.00181292 1.36877e-20)
(2.11145e-05 -5.72121e-05 4.39803e-20)
(0.000193592 -0.000316106 1.38006e-20)
(0.0292167 -0.00071411 -7.94651e-21)
(0.00735603 -0.00579958 0)
(0.000191897 -8.32695e-05 1.98289e-20)
(-0.00782901 0.00400035 0)
(1.09616e-05 0.00110132 1.89934e-20)
(-0.00379622 -0.0308013 0)
(0.000399289 -0.000947099 -5.8791e-22)
(-1.68521e-05 2.28769e-05 0)
(0.0395883 0.0146281 1.01731e-20)
(-0.000176056 -0.00127003 -9.06402e-20)
(-0.000299913 0.00222949 0)
(-0.0061827 0.0109422 -8.76059e-21)
(0.000150771 -6.26687e-06 6.95301e-21)
(0.000183173 0.00135213 -6.71242e-22)
(-0.0185101 -0.0682037 5.31371e-21)
(-4.92138e-06 -0.000787408 1.60121e-20)
(0.021155 -0.0190477 1.1443e-21)
(0.000396067 0.000745414 0)
(-0.00582971 0.00232084 1.49279e-20)
(-0.00690026 -0.00445304 -2.51295e-20)
(-0.0287427 -0.010709 -3.69204e-23)
(0.0260526 -0.0233475 -1.86579e-20)
(-0.0263697 -0.0726447 1.27195e-19)
(-0.000139086 0.00208556 8.99441e-21)
(-0.0146084 0.0127231 1.44025e-20)
(0.0324147 -0.00690049 0)
(0.025704 -0.0371382 8.20028e-20)
(-0.000727163 -0.000865785 0)
(0.000821289 0.00150544 0)
(4.02033e-06 -8.22652e-05 3.83579e-20)
(0.0182682 0.0321 0)
(0.0116222 -0.0444896 2.54685e-20)
(-0.00786355 0.0039302 1.87466e-20)
(0.0165008 -0.00503365 0)
(2.74117e-05 7.06682e-05 3.89118e-20)
(-0.000232576 0.000114589 1.64144e-21)
(-8.67279e-05 -0.000108454 4.04409e-20)
(0.00221656 -0.0233818 -9.37828e-21)
(1.0234e-05 -4.84835e-06 7.51222e-21)
(0.00154403 -0.00123949 0)
(-0.000855393 -0.00123751 -1.12763e-20)
(-0.0310209 -0.00850716 -6.73162e-21)
(-0.00198141 -0.0031943 0)
(-0.0265405 -0.00148173 0)
(-0.000637561 0.000302689 7.377e-21)
(0.00135713 -0.00471982 0)
(-0.000745273 -0.0033669 -2.85548e-21)
(2.13126e-05 4.07748e-05 0)
(8.71476e-06 -1.28754e-07 -4.0552e-21)
(-0.0289567 -0.00918207 0)
(0.00338608 0.0100949 -2.41273e-21)
(1.15774e-05 2.73226e-05 -2.14862e-20)
(-0.000339134 0.00149258 1.75155e-20)
(0.000380316 -0.00237121 0)
(-0.00403447 -0.013055 0)
(3.40664e-05 -4.33936e-06 -3.59047e-21)
(-0.00366901 0.000405512 0)
(0.00025041 -0.000508702 2.04205e-23)
(-0.000323661 -0.00101148 -7.29196e-21)
(0.0145015 -0.0395554 1.07759e-20)
(-0.0460794 -0.00684738 -8.90872e-20)
(0.00593063 -0.0056288 -1.46436e-20)
(-0.000766885 0.00133425 0)
(-0.00745716 -0.027193 0)
(-0.000201836 7.45545e-05 -6.02394e-22)
(-0.000252131 -0.00106294 -1.16674e-20)
(-5.64838e-05 -6.99633e-05 9.16569e-21)
(-0.00232003 0.0134156 0)
(-0.017617 0.0107825 -1.01898e-20)
(-0.00536812 0.0021093 -1.66399e-20)
(0.0108687 -0.00326744 3.7426e-20)
(-0.00742132 0.0036892 0)
(9.37275e-05 0.000458798 0)
(-0.0124342 0.00332667 -2.63943e-20)
(3.91066e-05 5.13371e-06 2.29625e-23)
(0.0024408 -0.00988003 1.00535e-20)
(-0.000268182 0.000103153 1.70541e-20)
(-0.000354811 0.00120923 -3.40358e-20)
(0.0331739 0.00575197 0)
(-0.0302788 -0.00987233 1.30885e-20)
(-7.1463e-05 0.00185426 -1.29499e-20)
(0.00702515 -0.0104029 3.20178e-20)
(-0.000230823 0.000300271 1.04596e-20)
(0.000811451 3.89693e-05 -1.96884e-20)
(2.77753e-05 -1.5856e-05 -2.52696e-20)
(-0.0382105 -0.0199313 -5.08254e-19)
(7.74514e-05 0.0015782 -1.55865e-20)
(1.4726e-05 0.00155611 1.51275e-20)
(-0.000122184 -0.000527823 3.62363e-21)
(-0.0105617 -0.048774 -1.52827e-21)
(-0.00968291 -0.0103957 0)
(-0.00639527 0.00351921 1.50389e-20)
(0.0238661 0.00230252 4.77285e-20)
(-0.00892614 -0.00266457 -1.5349e-20)
(-0.00999494 -0.00549694 9.34325e-21)
(-0.00233369 -0.0594735 0)
(6.19268e-05 -2.18474e-05 0)
(-0.00136539 -0.00303811 0)
(0.00154853 -0.000506526 -6.90674e-20)
(-0.000874714 0.00128708 0)
(-0.00494081 -0.00217092 -8.88141e-22)
(1.48327e-05 1.93653e-05 -6.47095e-21)
(1.25934e-05 6.45766e-06 3.297e-21)
(0.00300546 0.00911014 2.72251e-21)
(-0.0171249 -0.0729314 2.19655e-20)
(0.000413303 -5.92364e-05 -5.17765e-20)
(-0.00987883 -0.00471228 9.75455e-21)
(0.000980302 0.000567065 -8.15953e-21)
(-0.000136086 3.72918e-05 0)
(2.54213e-05 2.09953e-06 1.28897e-20)
(0.0203337 -0.00186008 -5.10909e-20)
(0.0250505 -0.0394535 0)
(-0.0144512 0.025945 3.17888e-21)
(6.22408e-05 7.40405e-06 -3.09684e-20)
(-0.00227613 0.00645289 -8.64633e-21)
(1.35057e-05 -1.81262e-05 0)
(-5.85093e-05 0.000615529 0)
(0.00209948 -0.0599724 -9.68753e-21)
(0.00201898 -0.00162518 7.31479e-20)
(0.031046 -0.0145451 0)
(-3.0576e-05 0.00040204 1.98035e-21)
(4.81837e-05 -0.000113785 1.9631e-22)
(0.0315549 -0.00820324 -4.43873e-20)
(-0.000202786 0.00133631 -9.75308e-23)
(0.0142832 0.017684 -3.76188e-20)
(-8.93733e-07 4.82576e-06 6.22851e-22)
(0.0310277 0.000704942 2.51138e-20)
(-0.00035293 -0.000184421 0)
(-0.000198102 -0.00208662 -7.46744e-21)
(-0.000183093 0.000112638 -2.35235e-21)
(4.48281e-05 0.0206512 0)
(2.10386e-05 2.06875e-05 7.32925e-21)
(0.0159106 0.0179008 -8.47444e-21)
(-9.16322e-05 -0.000286708 -2.0813e-20)
(-0.00384977 -0.0607943 0)
(-0.00209439 -0.057554 -9.61524e-20)
(-0.000403957 0.000199902 1.52309e-21)
(4.84841e-06 -9.22302e-06 0)
(0.00340817 0.0580574 9.92121e-21)
(0.0182526 0.0137569 -1.36421e-20)
(5.2673e-05 0.000105791 -1.74945e-20)
(0.0209579 0.0294412 -5.13064e-20)
(1.07534e-05 4.70582e-06 4.28901e-21)
(0.00423832 0.00506691 -6.7661e-21)
(-0.000370892 0.00132989 0)
(0.00755478 -0.0860546 1.38475e-21)
(-0.0128776 -0.00680927 7.98726e-21)
(0.0207058 0.00437105 1.34523e-21)
(1.63293e-05 2.15179e-06 3.32319e-21)
(6.47657e-05 -9.72954e-05 0)
(0.0207606 -0.0244687 -2.03679e-20)
(4.31171e-05 -3.17746e-05 2.93207e-20)
(2.38219e-05 4.47956e-06 0)
(0.0215412 -0.000152931 -4.44446e-21)
(4.25802e-05 -1.76269e-05 8.01621e-23)
(-0.0068724 -0.0103049 0)
(2.97941e-05 -1.2869e-06 -3.60751e-22)
(0.0241857 -0.0375108 -6.91707e-20)
(0.0153127 -0.0557463 0)
(-0.000973274 0.0190716 -2.55476e-21)
(0.0329831 -0.0256413 -3.66901e-20)
(-0.0115277 -0.00668237 2.07797e-20)
(0.00018933 -0.00464792 0)
(-5.92712e-05 -5.2465e-05 -1.60132e-20)
(0.00438388 -0.0964406 0)
(-0.0166785 -0.0278072 0)
(0.0390319 0.0323806 0)
(-0.000125241 0.00187339 7.90392e-20)
(-0.0131516 0.0208717 9.83462e-21)
(0.0307053 0.0261866 0)
(2.56736e-05 -0.000122767 0)
(0.00615085 -0.00760786 2.63121e-20)
(2.91592e-05 5.39388e-07 1.25538e-20)
(0.0252481 0.000892056 4.78778e-20)
(0.00608147 -0.0100974 1.04164e-20)
(-8.91362e-05 0.000248064 -1.04045e-21)
(0.000149609 0.000249907 -5.62959e-23)
(6.3501e-05 0.00037937 -2.29786e-20)
(0.0126864 0.0294384 1.90539e-20)
(9.53151e-05 -0.000133759 0)
(0.00543193 -0.00146967 9.49502e-21)
(-0.000611508 -0.00397757 -1.92655e-20)
(0.0195012 -0.00378697 3.19309e-20)
(2.82879e-05 1.88723e-06 2.06323e-20)
(-0.000138722 6.99297e-05 -1.39047e-21)
(0.000497473 -0.00089465 0)
(0.00962767 -0.0134488 -5.9778e-22)
(3.90476e-05 5.6449e-06 -1.44959e-20)
(3.31765e-05 -1.43116e-06 0)
(6.27334e-06 7.0931e-06 -4.38724e-21)
(0.027847 -0.0124296 -7.78803e-22)
(-0.00451504 -0.00575093 -1.01484e-20)
(-0.0133077 0.00258489 1.46469e-20)
(-0.00483023 0.0316027 -4.37105e-21)
(-0.00938326 -0.00632135 2.11538e-20)
(0.0259426 -0.00083896 0)
(0.0234409 0.0164489 -2.79915e-21)
(-0.00887492 -0.0298258 1.09607e-20)
(-0.000106429 -9.56537e-05 -2.27022e-22)
(-0.00858992 0.00272899 0)
(-0.00239858 0.0134009 -4.61552e-21)
(0.000315351 -8.03607e-05 2.21796e-21)
(2.42132e-05 -8.1066e-07 0)
(-0.018193 0.0370626 -1.57994e-19)
(0.00299515 -0.0370258 6.53553e-20)
(-0.00702852 8.77915e-05 1.89893e-20)
(-0.00468676 0.00636211 0)
(-0.00473871 0.000766545 0)
(-0.00063654 0.00203804 -1.03594e-21)
(0.0186097 0.0283525 0)
(0.00629383 0.0120856 -3.99113e-21)
(-9.82245e-05 -9.58136e-05 2.08007e-22)
(6.93412e-05 0.00410389 1.5609e-19)
(-0.000666602 -6.99238e-06 0)
(0.000120357 6.50607e-05 7.18948e-21)
(-4.1521e-06 4.2221e-06 -4.63202e-22)
(5.76267e-05 -9.12314e-05 -6.45297e-21)
(0.0245366 -0.000767555 -7.60496e-20)
(4.9325e-05 -1.1182e-05 -1.37799e-20)
(-4.23512e-06 3.21208e-06 -5.06454e-22)
(4.82409e-05 -8.7448e-06 1.74395e-20)
(3.69434e-05 6.07766e-06 0)
(-0.000506541 0.00083864 3.78729e-21)
(0.00081972 0.00168105 3.55923e-21)
(-0.0106156 -0.0423087 1.96278e-21)
(0.0211708 0.00201936 -1.24188e-19)
(-0.00230216 0.0293523 -1.0151e-20)
(0.00242114 -0.004863 0)
(0.00825055 -0.027181 1.00145e-22)
(0.0105162 -0.00247852 -7.81691e-20)
(3.51468e-05 1.56143e-05 -9.63082e-21)
(-0.00226105 -0.00240647 5.5003e-22)
(1.32302e-05 -2.61957e-05 4.39875e-20)
(-0.0295988 0.0358216 3.15906e-19)
(1.60196e-05 -2.06634e-06 -2.16905e-21)
(1.65803e-05 2.04204e-05 3.46516e-21)
(0.0352969 -0.0252639 2.32706e-21)
(0.00782412 -0.000838195 0)
(0.00601847 0.000672019 5.8506e-21)
(5.09433e-06 -1.84845e-08 0)
(-0.0110238 0.0357115 0)
(-0.0067972 0.0271341 -1.88354e-20)
(-0.000177918 -2.9865e-05 0)
(0.0269287 -0.00909133 -2.50645e-20)
(5.23532e-06 -6.40758e-05 3.09828e-20)
(0.0190727 -0.00291449 -7.59183e-22)
(0.00199875 -0.0157591 -3.06162e-20)
(-0.000761102 -0.000557624 -2.32199e-23)
(-3.2939e-05 4.00652e-05 -2.01777e-20)
(-0.000183876 0.000112044 0)
(-0.0026503 -0.00287344 1.74621e-19)
(-0.0192335 -0.0036254 0)
(0.00191968 -0.00618409 -6.50412e-21)
(-2.40399e-05 3.76808e-06 -1.25983e-21)
(4.4118e-06 1.06395e-06 -7.47466e-21)
(-0.000164856 -5.02798e-05 2.11755e-21)
(0.000222569 0.00326127 0)
(0.00318568 -0.0208633 0)
(-0.00122359 -0.00337093 -7.63221e-20)
(-0.00876009 0.00703351 1.69427e-20)
(0.0183137 -0.0226039 0)
(9.61454e-05 -0.0010942 1.48895e-20)