/*--------------------------------*- C++ -*----------------------------------*\
| =========                 |                                                 |
| \\      /  F ield         | OpenFOAM: The Open Source CFD Toolbox           |
|  \\    /   O peration     | Version:  v2012                                 |
|   \\  /    A nd           | Website:  www.openfoam.com                      |
|    \\/     M anipulation  |                                                 |
\*---------------------------------------------------------------------------*/
FoamFile
{
    version     2.0;
    format      ascii;
    class       volScalarField;
    location    "200";
    object      k;
}
// * * * * * * * * * * * * * * * * * * * * * * * * * * * * * * * * * * * * * //

dimensions      [0 2 -2 0 0 0 0];


internalField   nonuniform List<scalar> 
13749
(
0.0124678
0.000155013
0.00016982
0.000150655
0.04515
0.00013346
0.022823
0.000143713
0.000197856
0.00015077
0.000133165
0.000169734
0.000170906
0.0253929
0.000152922
0.0265019
0.000233116
0.000153484
0.00274175
0.000145392
0.0362927
0.0511039
0.000215673
0.00016021
0.000166468
0.000138843
0.0001618
0.000194976
0.051079
0.0322863
3.52854e-05
0.000169519
0.000198795
0.000153218
0.00869452
0.0288758
0.0601806
0.000158575
0.00798607
0.0200674
0.000144363
0.000203825
0.000151288
0.051446
0.000169251
0.000152239
0.000151423
0.000172061
0.000179343
0.000159221
0.000160415
0.000158354
0.0202327
0.000151162
0.000157035
0.0273733
0.052648
0.000164279
0.000159552
0.000194441
0.00016784
0.000244636
0.000179172
0.000187965
0.000185932
0.00458026
0.000167169
0.000191265
0.0235479
0.0096027
0.000171274
9.30796e-05
0.000159909
0.0513654
0.000155934
0.0372039
0.000143507
0.000133831
0.0229372
0.000155484
0.000204559
0.000171246
0.000183844
0.000146348
0.0628695
0.000138934
0.00916955
0.000167788
0.0392495
0.000184808
0.000160389
0.000248846
0.000132877
0.000340149
0.000157715
0.0447126
0.0170686
0.000184962
0.0214654
0.000145686
0.000166464
0.0290055
0.00016289
0.000204306
0.000132743
0.000143967
0.00015953
0.00112619
0.000135654
0.0343449
0.000158528
0.00231331
0.0202902
0.000157991
0.000191323
0.000201628
0.000142905
0.000169025
0.000194728
0.000158404
0.000145625
0.000137301
0.000140016
0.000148325
0.000146588
0.0527133
0.000216139
0.000144477
0.00014813
0.015175
0.000151203
0.010836
0.000190794
0.0205811
0.000205915
0.0501032
0.0324653
0.000191575
0.000156517
0.000146526
0.0369522
0.000147362
0.000146592
0.007998
0.000160784
0.000143205
0.0412691
0.0232908
0.0507842
0.0471228
0.00014676
0.0345236
0.000138911
0.000211815
0.055756
0.00014355
0.0229072
0.00180854
0.000194711
0.000152747
0.000171804
0.000132483
0.000126794
0.000146415
0.00160271
0.000162248
0.000145672
0.00014388
0.0462893
0.00135334
0.000150403
0.000132376
0.0541821
0.036847
0.000172237
0.000161677
0.00020375
0.000308102
0.000194415
0.0383903
0.000156054
0.000172381
0.000203765
0.0087712
0.000170686
0.000147025
0.000151237
0.000148952
0.00757992
0.000175337
0.0462209
0.00109656
0.000153717
0.000171079
0.000138766
0.000146661
0.000194114
0.00018529
0.000177156
0.000347587
0.0258984
0.000170984
0.0566518
0.02215
0.000143045
0.015872
0.000199922
0.0603725
0.000145529
0.000145602
0.000155941
0.00453157
0.000164642
0.000155127
0.015557
0.00459354
0.000172201
0.0259583
0.000151909
0.000147092
0.000144928
0.0337148
0.000200341
0.000155545
0.00951001
0.046991
0.00804007
0.000510181
0.0167046
0.000151015
0.00873209
0.00694049
0.000151159
0.000138818
0.000146664
0.000134924
0.0444774
0.000147292
0.000204994
0.000159286
0.0176477
0.000155605
0.000150958
0.000167026
0.000144338
0.000142194
0.000155175
0.000155442
0.00332511
0.000232808
0.000144046
0.000144669
0.0476838
0.0350651
0.000194727
0.000141354
0.0383588
0.00020351
0.000149414
0.000142634
0.0160203
0.0631926
0.000159078
0.000181233
0.000157243
0.000135166
0.000144184
0.00030271
0.0497939
0.00014604
0.000155042
0.000164706
0.0330184
0.0163047
0.000172793
0.0226631
0.00487445
0.000167048
0.0493098
0.000155491
0.00312255
0.00810756
0.03311
0.00017173
0.00932438
0.000145804
0.00021568
0.000378446
0.000141041
0.0159533
0.0462532
0.000205686
0.000171943
0.000169102
0.0631118
0.0616516
0.00015096
0.000156549
0.0155143
0.000143981
0.0623659
0.000225819
0.0438264
0.00016453
0.000193708
0.0377506
0.0506789
0.000155006
0.0452301
0.00014118
0.000148199
0.000178836
0.0231002
0.00017844
0.000186257
0.000158665
0.000342346
0.000148298
0.000199983
0.000145152
0.000147549
0.000146124
0.000164844
0.00532048
0.000159823
0.000172723
0.0376472
0.000147419
0.000152578
0.0551726
0.0592568
0.000156928
0.000139369
0.00996344
0.000159366
0.000143391
0.00378501
0.000143475
0.0286925
0.0269755
0.000133408
0.0346376
0.0103475
0.000169551
0.00014007
0.000187909
0.000179896
0.000169856
0.000142277
0.00250433
0.000164413
0.0268621
0.000165523
0.000622666
0.000177901
0.000179587
0.000148724
0.000186543
0.000164284
0.00271161
0.000148633
0.000168106
0.000192166
0.0423555
0.000140591
0.00214887
0.000139179
0.000195927
0.00014415
0.000149944
0.000261872
0.000140447
0.000150027
0.000866674
0.00015644
0.000146726
0.000145698
0.00016251
0.032804
0.000209773
0.000151208
0.000146516
0.000138686
0.0113992
0.000189927
0.00469514
0.0331387
0.000181337
0.0278431
0.0400679
0.000143655
0.000143958
0.000161638
0.00780689
0.0289383
0.00014395
0.000152303
0.000151141
0.0460051
0.000149194
0.000186548
0.000156053
0.000133636
0.00022588
0.00274247
0.00643465
0.0619432
0.00014817
0.00248883
0.00762328
0.000140953
0.00186314
0.00015543
0.00470271
0.000132325
0.00850317
0.0346095
0.000158092
0.0223739
0.0376522
0.000142392
0.000166557
0.0354486
0.000172064
0.000163264
0.000154214
0.000144455
0.0001637
0.000148455
0.000150979
0.000189204
0.000168324
0.000157713
0.000140852
0.000155025
0.000165324
0.0001496
0.0119811
0.000183745
0.000192285
0.0227176
0.0424255
0.000163844
0.0293832
0.0198117
0.0294138
0.000176661
0.000151085
0.0425083
0.00512823
0.000184427
0.000147233
0.000140607
0.000147227
0.000149463
0.000172457
0.000148084
0.0438585
0.0379812
0.0645197
0.000146176
0.000151615
0.0169987
0.00014631
0.0391112
0.00296645
0.000158288
0.00018318
0.000188497
0.0314735
0.00016722
0.0296265
0.000142641
0.000158519
0.000147662
0.0221613
0.000185316
0.000210154
0.00016178
0.0243559
0.000147661
0.000159581
0.000142407
0.000151147
0.000142488
0.000144788
0.000152342
0.000146288
0.000175447
0.0198867
0.000141338
0.00106792
0.000169152
0.000147052
0.0586838
0.0222829
0.0570637
0.000164051
2.30491e-05
0.000189015
0.0119301
0.000178456
0.000179269
0.000145418
0.0569501
0.000145011
0.000148095
0.0205368
0.0249186
0.000150924
0.00376807
0.0526037
0.000167403
0.0248219
0.018854
0.000137261
0.044255
0.000147817
0.0462
0.00508093
0.0001529
0.000145158
0.0195861
0.000160713
0.000142475
0.046864
0.0610708
0.0103901
0.000167727
0.024341
0.000154242
0.000156322
0.0306012
0.0198542
0.000174095
0.0449203
0.0392202
0.000157528
0.0536802
0.000161022
0.000142717
0.0316879
0.0381992
0.000177947
0.000152201
0.0525229
0.000164283
0.000146577
0.0314205
0.0204644
0.0643112
0.000149086
0.05692
0.000176089
0.0169911
0.000148698
0.000134757
0.0463968
0.000163774
0.000168372
0.000150557
0.0193534
0.0105526
0.000133475
0.000203388
0.0001516
0.0197991
0.011027
0.000155036
0.000192864
0.000148477
0.000155461
0.0485774
0.000203908
0.000160627
0.0383685
0.000191584
0.0312598
0.000164353
0.000151198
0.00578179
0.000163024
0.000183383
0.0233716
0.000157615
0.00648535
0.00502879
0.000167791
0.0553683
0.000179661
0.0240216
0.00020472
0.0105946
0.00029348
0.000396586
0.00917081
0.000352464
0.0597082
0.0556064
0.000163651
0.00910182
0.000146161
0.0606637
0.0512189
0.0368835
0.0342053
0.000147061
0.000144601
0.000152495
0.00370383
0.000150673
0.000178075
0.000183352
0.00242995
0.000188665
0.00165094
0.000163241
0.00018965
0.0293262
0.000157686
0.000155288
0.0234978
0.000116396
0.000146099
0.00526987
0.000167344
0.0503906
0.000146419
0.000165853
0.000140857
0.000158576
0.0291483
0.000215892
0.000200697
0.000183317
0.0315559
0.000140855
0.000158349
0.000148191
0.021975
0.000715626
0.0220024
0.0264491
0.0327772
0.000145787
0.0461676
0.000151429
0.000816633
0.000161136
0.000191263
0.0643599
0.004303
0.00818571
0.000200259
0.000159643
0.000194481
0.000143055
0.000224749
0.0066527
0.00600366
0.000155508
0.0119181
0.0392447
0.0456067
0.0293084
0.0415844
0.038458
0.0285405
0.00014583
0.000174702
0.000191463
0.000183641
0.00013814
0.000138471
0.000153007
0.000225729
0.00247785
0.000159106
0.0460668
0.00806517
0.00014282
0.000153554
0.0266974
0.0553391
0.0186997
0.00015551
0.0183343
0.000144822
0.00015245
0.0277777
0.00019167
0.0593721
0.000144706
0.000133467
0.0589301
0.000164192
0.0528453
0.000147574
0.0549748
0.000179074
0.000166907
0.000143917
0.000251981
0.00013921
0.0541434
0.000164189
0.00629776
0.010832
0.000146804
0.000143772
0.00935721
0.0266772
0.000146455
0.0356276
0.000139349
0.000170739
0.000155429
0.0153817
0.0284072
0.00193406
0.000149457
0.000151367
0.000217593
0.000149064
0.000151299
0.00612242
0.000142961
0.0288482
0.000142857
0.0540425
0.0121613
0.000207418
0.0606643
0.0506761
0.000188904
0.000156537
0.0153206
0.000213359
0.00839122
0.000159123
0.00157619
0.000466151
0.000150671
0.000203046
0.000144969
0.0331342
0.00017113
0.000143477
0.000159124
0.000165322
0.00534267
0.000150659
0.000168827
0.000165998
0.0328506
0.000145858
0.000142379
0.000172103
0.0476546
0.000145526
0.000145682
0.000137452
0.000593228
0.000179941
0.0473999
1.18834e-05
0.0471582
0.0378897
0.000235063
0.0500108
0.000135897
0.0352207
0.000153024
0.000167084
0.000157641
0.000236373
0.0122338
0.0309255
0.0407987
0.00312552
0.000164432
0.000700275
0.0182142
0.000135512
0.000175304
0.000158014
0.000158712
0.000147335
0.000150097
0.0325857
0.000146797
0.000149152
0.000146988
0.000140433
0.000159554
0.00941421
0.000830243
0.0195065
0.0443175
0.0326875
0.036083
0.0237987
0.000139283
0.0265566
0.000145666
0.000223415
0.000147065
0.000138926
0.0611609
0.000176667
0.000205818
0.000151272
0.0323627
0.0445464
0.000138187
0.0507493
0.000151539
0.0293627
0.044344
0.000158017
0.000144592
0.000141603
0.000185269
0.000203791
0.000185178
0.00014217
0.000136954
0.000137742
0.000192878
0.0445761
0.000175653
0.000826085
0.0564
0.000167451
0.0602115
0.000151105
0.0042777
0.000147852
0.00015049
0.00016413
0.0476151
0.000152974
0.000518634
0.000201007
0.000140855
0.00016839
0.000143957
0.0520845
0.0374322
0.000154844
0.000139274
0.0655537
0.0074484
0.000213717
0.000152051
0.000151093
0.000157583
0.000136696
0.050203
0.000143119
0.000187594
0.0346251
0.00752589
0.0057124
0.000161723
0.0297104
0.000199673
0.0199353
0.0390613
0.000146009
0.00015343
0.000241016
0.000144515
0.000151868
0.000232045
0.000155186
0.00028827
0.00017633
0.000155675
0.022324
0.000158324
0.000165032
0.000153746
0.000141597
0.000150144
0.0485035
0.000163853
0.000166278
0.0170664
0.00607272
0.000143401
0.000223086
0.0429364
0.000135849
0.000148402
0.000182179
0.000153431
0.0530175
0.000163087
0.000199999
0.000155252
0.000202372
0.000151796
0.000145173
0.000146928
0.000161388
0.000192044
0.000145654
0.000169299
0.000144623
0.000161475
0.000154028
0.000161709
0.000157958
0.00015137
0.000177583
0.000132001
0.0500315
0.000152556
0.000151625
0.0522743
0.000195937
0.000148844
0.000158906
0.000171411
0.000138999
0.000242917
0.0521989
0.000147181
0.000146023
0.0254884
0.000111324
0.001756
0.000155258
0.0252647
0.000134692
0.0540317
0.00015301
0.03963
0.000162469
0.000177919
0.000148832
0.000163448
0.0347986
0.0198694
0.000138504
0.0102241
0.0322783
0.000158022
0.000144559
0.0266474
0.00491095
0.000142074
0.000162475
0.000256099
0.000180117
0.000139802
0.0263797
0.0359124
0.000157169
0.00253473
0.000153021
0.0341882
0.000174606
0.000146348
0.000139814
0.000154719
0.0305267
0.000147393
0.000153148
0.000165656
0.000233657
0.000167773
0.0447037
0.000144709
0.000143614
0.000290766
0.0450669
0.000136936
0.0590784
0.0312595
0.000139915
0.000136077
0.000139529
0.000146292
0.000143879
0.000264587
0.00468896
0.0240323
0.000139305
0.0170709
0.000154001
0.00016134
0.000158514
0.000159188
0.000146134
0.000150122
9.88412e-05
0.000143205
0.0376107
0.000146416
0.000138303
0.000169373
0.00894057
0.000144748
0.000178632
0.000136605
0.0345015
0.000159141
0.0296263
0.0573602
0.000153203
0.0590382
0.0108239
0.0289461
0.0496819
0.000145008
0.00013618
0.0286262
0.00301727
0.0324705
0.0226545
0.000149151
0.000161014
0.0079924
0.000148935
0.00019758
0.000184741
0.000144799
0.0430598
0.00986678
0.000155419
0.000142297
0.000195898
0.0554176
0.00107067
0.0567991
0.000139512
0.000205245
0.000144513
0.000148955
0.0233871
0.000144296
0.0563494
0.000162875
0.0506941
0.000143998
0.000181648
0.00516256
0.00353918
0.0104936
0.0392384
0.000134127
0.000148242
0.000138339
0.0501988
0.0634791
0.000154161
0.000146703
0.000185362
0.0460414
0.000176933
0.000153563
0.000145621
0.000152173
0.000149124
0.000133774
0.000187833
0.000165802
0.000146832
0.00727804
0.000153291
0.0055535
0.000170966
0.000181283
0.000202506
0.00014285
0.0306411
0.00014518
0.0136721
0.000156029
0.000145596
0.000163471
0.0293044
0.000148685
0.00014367
0.000128428
0.000196706
0.000193659
0.0292029
0.00016698
0.000156979
0.00388885
0.000140318
0.000147625
0.000138779
0.000162568
0.000152961
0.00015264
0.000787242
0.0105172
0.0660257
0.000170213
0.000144807
0.000177413
0.00529751
0.04492
0.000147736
0.00717367
0.000246695
0.0433381
0.000160629
0.000137396
0.000159709
0.0274029
0.000158628
0.000168744
0.00839752
0.000151309
0.000166824
0.0376443
0.000144969
0.000153462
0.000163932
0.0445039
0.00056302
0.0361851
0.0347792
0.000210585
0.000136452
0.000151784
0.000143732
0.0134232
0.0586626
0.000153583
0.0025881
0.000147164
0.000201184
0.000169381
0.000199653
0.000160649
0.000163345
0.000221579
0.019543
0.000166685
0.000137192
0.000191994
0.000147767
0.00948298
0.000150844
0.00015607
0.000162088
0.0323493
0.0446135
0.000140078
0.000145206
0.0100555
0.000156243
0.0165532
0.000163515
0.000149157
0.039897
0.00720853
0.000147979
0.000138463
0.000151343
0.060147
0.000145103
0.000254876
0.000191551
0.000163623
0.000144377
0.000166234
0.0227686
0.000145695
0.0213851
0.0071832
0.000172697
0.00019841
0.00023081
0.000202317
0.0239694
0.000175895
0.0447135
0.0559229
0.000164783
0.000157547
0.00014312
0.000178134
0.000137661
0.000148141
0.000148014
0.000154856
0.000136935
0.00302829
0.000143948
0.000193257
0.000588971
0.00015361
0.000188234
0.0492635
0.000136752
0.000148005
0.000147283
0.000217803
0.00015729
0.000168996
0.000169347
0.00712931
0.000174176
0.00351892
0.0398736
0.00456824
0.0412793
0.000150537
0.00115503
0.0296192
0.000162588
0.000146268
0.000215779
0.000147259
0.0551993
0.000183793
0.0167196
0.0278672
0.000145218
0.0284927
0.000149258
0.000158095
0.000159803
0.0376455
0.0347989
0.0504027
0.0536387
0.0605795
0.000144194
0.0547529
0.000161188
0.000143976
0.000184309
0.000165039
0.0186383
0.00574729
0.00268512
0.000193751
0.000246479
0.000133784
0.0501606
0.0394185
0.000195274
0.000139452
0.000138219
0.000187214
0.000156203
0.000156027
0.000213007
0.0276408
0.000136891
0.000151243
0.000136702
0.000152433
0.000147264
0.000139191
0.0357283
0.000210403
0.00310467
0.000165547
0.00569716
0.000211525
0.00014429
0.0378647
0.000179265
0.00620592
0.000149805
0.00019306
0.000159117
0.000160458
0.000148569
0.000171949
0.000169757
0.00735072
0.000196081
0.0193875
0.0261694
0.00015908
0.000201832
0.051406
0.000145032
0.000163468
0.000187602
0.0346608
0.000183186
0.000148722
0.0228111
0.000145369
0.00650086
0.0331894
0.000139343
0.000149078
0.00357979
0.000144258
0.000165544
0.000214471
0.0154427
0.000206091
0.0327074
0.00016008
0.000136919
0.0337616
0.000159224
0.00458533
0.000146373
0.000158443
0.061704
0.000145779
0.000176678
0.000179933
0.00549976
0.000191311
0.000176319
0.000135277
0.00442057
0.000173255
0.00416811
0.000232938
0.000186651
0.000154098
0.000184975
0.000150003
0.0279193
0.000152232
0.000236533
0.0375682
0.000159721
0.000161155
0.0433031
0.000147317
0.00486381
0.000235294
0.0463014
0.000168336
0.000136787
0.000185134
0.000143444
0.000178395
0.0612806
0.000150047
0.000148748
0.000179603
0.00016011
0.000148452
0.000134884
0.0419733
0.000146113
0.000144874
0.0341174
0.00500051
0.000155924
0.000220311
0.000197104
0.0377521
0.000149047
0.000180451
0.000141686
0.0322244
0.000162172
0.000513832
0.000152712
0.0276942
0.0332225
0.000176081
0.00014753
0.0201878
0.0349068
0.000174403
0.000165972
0.00105274
0.000228367
0.000146608
0.000140691
0.000166466
0.0196542
0.000327889
0.000135921
0.00223276
0.0347986
0.0379361
0.000146232
0.00024428
0.000167676
0.000157631
0.000102904
0.0564366
0.000152791
0.000147132
0.000179269
0.000148599
0.000155767
0.000143034
0.000143366
0.0277356
0.00015244
0.000188107
0.051665
0.000141447
0.000136072
0.0349219
0.000148319
0.0527434
0.000147063
0.000145888
0.000168214
0.031569
0.03824
0.000149813
0.00015625
0.000145419
0.00123628
0.000141318
0.000140854
0.000155558
0.00014783
0.000146865
0.000137538
0.00019225
0.000158715
0.0454823
0.0102085
0.000433763
0.000267407
0.000160823
0.000151672
0.000157618
0.000235302
0.0261583
0.00115709
0.000144062
0.000171821
0.000185556
0.000151357
0.0444221
0.000172596
0.000144655
0.000150935
0.0531788
0.0624918
0.000158731
0.055314
0.000167566
0.000161113
0.000153053
0.000224137
0.000145476
0.000143272
0.00014445
0.000182237
0.000168327
0.000178644
0.000227547
0.000143296
0.0331941
0.000153507
0.00235667
0.0234689
0.000191339
0.0293274
0.000231133
0.000158666
0.000139339
0.00014194
0.000158413
0.00745087
0.00017255
0.00014188
0.00894315
0.025813
0.0210414
0.000200997
0.000156846
0.000147391
0.000211728
0.0257964
0.000143703
0.0247316
0.000145309
0.000143565
0.00260855
0.000412186
0.0496646
0.000172227
0.000143018
0.000165538
0.000159008
0.000172307
0.0400221
0.000154833
0.000175797
0.000282918
0.000186415
0.000174425
0.000153382
0.0380274
0.000200325
0.000173039
0.0267119
0.000181791
0.000147059
0.000174328
0.000152209
0.00016223
0.00530465
0.000147587
0.000164365
0.00410074
0.00014255
0.00553737
0.0217518
0.000188787
0.0392051
0.0155895
0.0278499
0.000951937
0.000182983
0.000135821
0.042725
0.000165825
0.0548142
0.000138692
0.000142583
0.000149141
0.0455332
0.00776526
0.00315448
0.000152429
0.0287919
0.0382466
0.0340953
0.000197888
0.0076332
0.027165
0.000279762
0.0269814
0.000165155
0.00019659
0.000172681
0.000210632
0.000136033
0.0299468
0.00364183
0.000152385
0.000188754
0.000149561
0.0354072
0.018905
0.000148683
0.00016263
0.000211107
0.0316459
0.000165545
0.000141725
0.000146668
0.000144596
0.000231333
0.0509092
0.000149697
0.000646854
0.000145584
0.000142326
0.000168899
0.0383554
0.00804245
0.000144878
0.000156032
0.000135839
0.00303867
0.0276614
0.000144868
0.000148331
0.0427721
0.000150723
0.000142866
0.000162843
0.0235787
0.000156423
0.000140719
0.000368209
0.000136723
0.000157033
0.00630711
0.0347547
0.000158571
0.000142903
0.000133009
0.0134073
0.000142735
0.00259148
0.0430756
0.000148161
0.0529031
0.0533272
0.000205943
0.000142731
0.000166878
0.0334875
0.000177633
0.000164909
0.000147679
0.000179887
0.000173663
0.000179887
0.00105598
0.000145819
0.0143896
0.00144352
0.0582026
0.000159003
0.000156428
0.0544812
0.000139735
0.0568465
0.0340661
0.00015755
0.000148634
0.000145787
0.00016564
0.000159312
0.0256891
0.0325911
0.000165612
0.000147086
0.000182885
0.000141578
0.00608149
0.000153036
0.0415594
0.000186496
0.00749189
0.00465192
0.000167793
0.0243047
0.00506057
0.0382984
0.0455142
0.000151263
0.000162121
0.000131871
0.00369609
0.0235784
0.000138071
0.00542486
0.00859861
0.00844948
0.033012
0.000138602
0.0335726
0.000148344
0.000220209
0.000156108
0.000205424
0.00550594
0.0556689
0.000151806
0.000134338
0.0393109
0.000145706
0.00172538
0.000149136
0.00612274
0.0464415
0.000160357
0.000157514
0.00752468
0.00015543
0.000145906
0.0164231
0.00113736
0.000164862
0.000146266
0.0576468
0.000209255
0.000146577
0.000193491
0.000194384
0.0291733
0.0308042
0.0079564
0.00262614
0.000200082
0.000140698
0.000196881
0.047604
0.000163253
0.000178163
0.000134733
0.000159942
0.000143826
0.000144912
0.000206447
0.010092
0.0680312
0.0263778
0.0442374
0.000168396
0.000198742
0.000141467
0.0346675
0.00715356
0.0053489
0.00379321
0.019033
0.000164499
0.00017795
0.000139213
0.0280428
0.000144304
0.000151525
0.000155863
0.000165866
0.00848088
0.00819065
0.010921
0.000140105
0.00172613
0.0347213
0.000145413
0.000145364
0.000204106
0.013316
0.000156817
0.000158771
0.0264129
0.000143755
0.000178078
0.00017066
0.000141461
0.000139551
0.000158437
0.000141424
0.00896648
0.000143463
0.000140003
0.000170064
0.00395275
0.000178703
0.0383138
0.000172026
0.00017523
0.000178982
0.000157326
0.00535045
0.000184554
0.00795827
0.0447823
0.0119336
0.00928685
0.000148042
0.0536537
0.000194617
0.000163921
0.0480598
0.0244535
0.0253557
0.000158255
0.000155007
0.0515743
0.0302592
0.000160498
0.000153063
0.000161094
0.00017144
0.0333164
0.000143457
0.000157654
0.0410524
0.000144793
0.044573
0.000176642
0.000141341
0.000163083
0.000148612
0.026624
0.0167905
0.000215204
0.0278545
0.000144631
0.000147185
0.000146129
0.000192379
0.000146581
0.000159388
0.00015414
0.00018487
0.023256
0.000145375
0.0103353
0.0291537
0.0125878
0.00903966
0.000198613
0.000168092
0.000168657
0.00954705
0.00884855
0.000162187
0.00448588
0.0142443
0.0130295
0.00014886
0.0119338
0.00014891
0.000144959
0.000158356
0.000141339
0.000183084
0.00400134
0.0330134
0.000179674
0.0153497
0.00468456
0.000146725
0.0190502
0.000154093
0.000154631
0.000153682
0.000142658
0.00269927
0.0114829
0.00016251
0.0125567
0.0336942
0.0222873
0.000156336
0.000156137
0.00834806
0.000169108
0.0283077
0.000201953
0.000241044
0.00603713
0.0549311
0.0440801
0.0137675
0.00997204
0.000195409
0.000191751
0.000144044
0.000147222
0.000153555
0.0290797
0.000155415
0.0001948
0.000181161
0.00014422
0.0630678
0.000179037
0.000159696
0.0381664
0.000196643
0.0294567
0.0380728
0.000192539
0.00170044
0.0303304
0.000147144
0.000184711
0.000217128
0.0362896
0.000155688
0.0551285
0.000160455
0.0122492
0.00020463
0.0150995
0.00015663
0.00952669
0.000170353
0.000179797
0.0155569
0.000159726
0.000159104
0.0275758
0.0105026
0.000145863
0.0416454
0.000156841
0.0216008
0.000199958
0.0090015
0.000194166
0.0489182
0.000156917
0.00638219
0.000199982
0.0536051
0.000153643
0.0261846
0.000142061
0.000194343
0.00017387
0.000157258
0.0238643
0.000150879
0.000169734
0.00591228
0.00284531
0.000157974
0.0294935
0.00428057
0.000150623
0.0435888
0.000178652
0.0308776
0.000173307
0.0251578
0.0295014
0.000146096
0.0387306
0.000177791
0.00014127
0.0237984
0.000166239
0.00017191
0.000168345
0.000151804
0.0346127
0.0210643
0.00017003
0.000149421
0.0562209
0.0460043
0.00584579
0.0203
0.000150989
0.00186365
0.00387499
0.000149794
0.000143714
0.000152546
0.00949239
0.000145492
0.00015361
0.000992788
0.0087767
0.00698041
0.000168154
0.000194017
0.0387449
0.0242939
0.000145026
0.00366842
0.000158547
0.0328078
0.000144492
0.000229466
0.000142802
0.0168897
0.000177443
0.0181757
0.000143739
0.000140985
0.0288846
0.0500718
0.0571198
0.000156505
0.000174014
0.000149627
0.000145372
0.00020213
0.000185163
0.000140945
0.00820089
0.016481
0.00589273
0.000226608
0.000214665
0.000161842
0.000196261
0.00418609
0.000174796
0.00023572
0.000144319
0.000169539
0.000145083
0.0293478
0.00773654
0.000147099
0.000143574
0.0288668
0.000153169
0.0098414
0.0227741
0.000186373
0.00014832
0.000149344
0.000141395
0.000147327
0.000146489
0.044195
0.0294054
0.000192687
0.00016745
0.000138301
0.0344929
0.0419257
0.00254342
0.000142496
0.000144488
0.000155007
0.000221096
0.00014735
0.000158675
0.000141309
0.000146912
0.000141032
0.000143901
0.000220059
0.000142874
0.0208604
0.000170986
0.000175197
0.000155309
0.0581903
0.0391691
0.000156532
0.0220043
0.000219261
0.000204926
0.000156692
0.000196591
0.000193957
0.000280511
0.0366172
0.0393992
0.0355377
0.000150859
0.00311372
0.00014579
0.0348419
0.000144588
0.00554108
0.000152143
0.000150869
0.000155871
0.000147299
0.000157372
0.006404
0.0390493
0.000153602
0.000181928
0.0485366
0.049013
0.00393547
0.000159182
0.000146881
0.000133257
0.0210861
0.00352759
0.00585003
0.000145097
0.0498041
0.000144593
0.000141904
0.0293597
0.0275627
0.00018525
0.0436384
0.00813232
0.000218489
0.000145928
0.000146281
0.000222285
0.000145604
0.000140042
0.000144145
0.00018863
0.032676
0.000150777
0.000173728
0.000160718
0.0390924
0.0270874
0.0456267
0.000183939
0.0077145
0.000146769
0.000159781
0.0484639
0.00480019
0.000152521
0.000155826
0.0408402
0.000212787
0.000163663
0.000148942
0.000176412
0.0406909
0.00017668
0.0279477
0.000592276
0.000179466
0.0001443
0.0374362
0.0348889
0.00022041
0.000173516
0.0580771
0.000141636
0.000156103
0.0441541
0.0439572
0.000189816
0.000180683
0.000162388
0.000147471
0.01122
0.0484282
0.0556355
0.0558987
0.000200232
0.000157931
0.00254606
0.0185362
0.000160536
0.000163829
0.000152238
0.0352939
0.000156262
0.000147379
0.0549443
0.00019503
0.0312053
0.00447144
0.000169352
0.000198969
0.000144067
0.000141731
0.0331016
0.00019361
0.000149497
0.0451015
0.000144102
0.000162027
0.000136254
0.0587731
0.000220783
0.000143072
0.000325479
0.000218383
0.0501055
0.0391883
0.000212455
0.000156963
0.0595453
0.0638147
0.0391703
0.000160654
0.000145948
0.0520271
0.0492358
0.000230873
0.0123756
0.0294534
0.000197595
0.000160286
0.0458662
0.00926342
0.000190991
0.000158745
0.0293258
0.0274862
0.000144424
0.000151212
0.00611908
0.0278186
0.0376949
0.000144
0.00014355
0.0318765
0.0371494
0.011211
0.046966
0.00572808
0.039123
0.000172713
0.00920087
0.00368472
0.0525941
0.00013363
0.000142878
0.063206
0.00976104
0.000138757
0.0394402
0.0164754
0.00355824
0.000248844
0.000145185
0.000166788
0.000161107
0.00479442
0.000177961
0.00015062
0.000155702
0.039209
0.000149377
0.000173493
0.000140856
0.028891
0.000154466
0.0599419
0.000149461
0.000169703
0.000170794
0.000156369
0.0370685
0.042728
0.000158681
0.000138312
0.037171
0.0393982
0.000216607
0.0349565
0.000213126
0.00358082
0.0348482
0.000138266
0.0277137
0.0169674
0.00017723
0.000147232
0.000198462
0.0574402
0.0500337
0.0360604
0.00428706
0.000185833
0.0555605
0.00266594
0.000193589
0.000147379
0.000736206
0.000138782
0.0329949
0.0110049
0.0122996
0.000147329
0.000151056
0.000204511
0.000160108
0.00887134
0.0184994
0.0653764
0.00015347
0.000200466
0.0282491
0.0256516
0.0551629
0.0451198
0.0294327
0.00288652
0.00014257
0.0433499
0.058055
0.0530497
0.0394419
0.00410072
0.000146204
0.000188957
0.000161013
0.0254752
0.000175692
0.000174168
0.000152754
0.000196658
0.000190818
0.0308595
0.00018552
0.00272852
0.0457684
0.0625168
0.000143805
0.0421412
0.000157612
0.000130447
0.000162474
0.000214729
0.000161655
0.0294481
0.000191442
0.000138659
0.000149475
0.0382058
0.000150103
0.000175856
0.000162964
0.000191593
0.000144573
0.0214701
0.000148708
0.000155322
0.000176224
0.000152279
0.0379378
0.000138953
0.00995188
0.0485086
0.000495351
0.000215093
0.000167753
0.000150937
0.0541877
0.0422941
0.000178663
0.000163622
0.000147467
0.000148536
0.000143723
0.000233212
0.0467958
0.0426785
0.000158674
0.0395065
0.0543086
0.00015917
0.00022427
0.0639814
0.000143557
0.000171977
0.0181667
0.0386787
0.000173222
0.000243222
0.000144901
0.0169742
0.000153996
0.0523873
0.0396452
0.000150547
0.000185615
0.000145896
0.00869966
0.000712435
0.0644442
0.000143916
0.000144959
0.0273121
0.000134862
0.000157095
0.000220638
0.00651237
0.00708676
0.0464477
0.0467525
0.000141064
0.000162139
0.0604362
0.0395467
0.000144762
0.0417807
0.000163146
0.000190352
0.000155805
0.000146252
0.000131731
0.000202304
0.000173541
0.0586146
0.000189428
0.00752817
0.000212402
0.0206296
0.00026535
0.000176918
0.0393317
0.000148989
0.000174556
0.000185049
0.0398189
0.00864839
0.000199239
0.0351776
0.0178588
0.000187289
0.000174785
0.0396892
0.000145931
0.0346632
0.000142563
0.0546597
0.00015919
0.000175316
0.0177816
0.000189175
0.000227053
0.000153446
0.0346788
0.0617981
0.00014371
0.000182847
0.00330786
0.000145754
0.000147604
0.000206553
0.000153004
0.000148175
0.000178413
0.00774834
0.0439853
0.0425692
0.00013994
0.000179227
0.000166644
0.000146365
0.000194435
0.000179917
0.00019718
0.0399865
0.00019686
0.000158161
0.000155677
0.000213318
0.0404619
0.0329201
0.000176508
0.00373858
0.0405546
0.010819
0.000146406
0.00420292
0.0413588
0.000145321
0.0562605
0.0398983
0.00187761
0.000157281
0.000194511
0.000199741
0.000178012
0.000137911
0.000176723
0.00015027
0.0178142
0.0057457
0.000174003
0.00018668
0.000170708
0.0328588
0.000177819
0.000172439
0.000179322
0.000155083
0.000195401
0.000165003
0.000141332
0.0400276
0.0331016
0.000165353
0.0396253
0.045021
0.0378626
0.000149966
0.000179237
0.0636259
0.0470484
0.000159932
0.0232449
0.000144371
0.000184074
0.00831845
0.000165088
0.0145791
0.0356685
0.000173923
0.000219377
0.053132
0.000155244
0.000197311
0.000144942
0.00113741
0.0426029
0.00699342
0.00588826
0.039474
0.00200885
0.000199728
0.000155317
0.000197006
0.00519959
0.0153173
0.000184279
0.000202303
0.000150425
0.000178257
0.00390498
0.0248784
0.00014579
0.000162311
0.000176267
0.000151651
0.000165444
0.000180671
0.000211733
0.000175835
0.0452956
0.0199812
0.0105532
0.000185025
0.0234541
0.000152428
0.000150482
0.000214251
0.0501289
0.000140342
0.0389722
0.0409483
0.0255585
0.000146578
0.00014622
0.000190186
0.000197381
0.0494201
0.00250771
0.0214814
0.047204
0.00017717
0.0381409
0.012601
0.000168555
0.000186392
0.00375993
0.000176783
0.0411978
0.000143606
0.000229507
0.000174488
0.000191864
0.0277327
0.00103308
0.0378905
0.00110482
0.0431729
0.000177203
0.0267701
0.00395012
0.000152042
0.053624
0.0295011
0.00014501
0.0134059
0.000232501
0.000198707
0.037486
0.00018232
0.000140326
0.0207334
0.000145438
0.000197783
0.0297075
0.000180274
0.000191619
0.000206197
0.000162993
0.0355086
0.000165189
0.000191083
0.0427199
0.000185049
0.0295979
0.000145739
0.0569795
0.0469816
0.00016381
0.00016737
0.000140842
0.0143335
0.0370654
0.000167099
0.000176402
0.000143766
0.000175431
0.0241694
0.000146362
0.000164329
0.00014785
0.000175985
0.000151496
0.0271769
0.000151175
0.000140843
0.0462261
0.00257854
0.000154099