/*--------------------------------*- C++ -*----------------------------------*\
| =========                 |                                                 |
| \\      /  F ield         | OpenFOAM: The Open Source CFD Toolbox           |
|  \\    /   O peration     | Version:  v2012                                 |
|   \\  /    A nd           | Website:  www.openfoam.com                      |
|    \\/     M anipulation  |                                                 |
\*---------------------------------------------------------------------------*/
FoamFile
{
    version     2.0;
    format      ascii;
    class       volVectorField;
    location    "150";
    object      ddtCorrDdt0(U);
}
// * * * * * * * * * * * * * * * * * * * * * * * * * * * * * * * * * * * * * //

dimensions      [0 1 -2 0 0 0 0];


internalField   nonuniform List<vector> 
14033
(
(1.07786e-06 2.53085e-07 1.29193e-22)
(0.00225852 -0.00696512 1.01593e-22)
(1.30244e-06 2.46519e-08 7.41092e-24)
(7.45761e-05 -2.36724e-06 -9.53118e-23)
(-0.000288784 -0.000559336 1.71217e-22)
(-1.61446e-05 -2.7968e-05 -3.40152e-22)
(-2.60415e-05 1.98758e-05 0)
(-0.00102102 0.00127536 -1.20514e-21)
(5.96491e-06 -6.72123e-06 0)
(7.31648e-07 2.07919e-07 -2.1689e-23)
(0.00243532 -0.000760612 -6.85004e-23)
(-0.00195767 0.000176147 -7.37747e-23)
(0.00388245 0.0113924 -2.72315e-22)
(1.69694e-06 1.66256e-08 -1.62241e-23)
(3.21456e-05 9.6141e-06 -2.48315e-24)
(8.40487e-07 3.9221e-07 2.62598e-24)
(1.13974e-06 3.271e-07 -1.09386e-22)
(0.000882266 -0.0024421 -1.20792e-22)
(0.00585575 -0.00240155 -1.07835e-21)
(2.61625e-08 -1.53736e-06 0)
(2.23601e-06 -2.43919e-06 0)
(-0.00481426 0.00461034 2.31798e-21)
(-0.00142792 0.00243851 4.91099e-22)
(7.26137e-05 3.02186e-05 0)
(0.00490057 -0.00461647 0)
(-1.47497e-05 1.85608e-05 1.02707e-22)
(0.000199241 -0.000351453 7.89326e-22)
(2.55626e-06 6.74717e-07 9.94016e-24)
(0.000758984 6.63326e-05 6.20378e-22)
(-0.0042831 0.00390132 2.00636e-21)
(8.82388e-07 2.48483e-07 1.3774e-22)
(1.7955e-06 2.91534e-08 0)
(1.37749e-05 1.90993e-05 -3.35818e-24)
(0.00354142 -0.00320673 -8.85049e-22)
(-3.16739e-07 -1.9255e-07 0)
(8.16909e-06 -4.59706e-06 -1.31703e-23)
(-1.5517e-05 2.03714e-05 0)
(-1.06296e-08 -2.66705e-06 -2.92744e-24)
(-7.4123e-06 6.88663e-06 -6.47229e-23)
(3.49179e-06 1.76629e-05 0)
(-3.54471e-05 0.000156274 0)
(-6.62284e-06 -1.87469e-05 -3.77507e-22)
(0.00111314 -0.000886968 0)
(-0.00484693 0.00997349 0)
(2.94565e-06 -5.42949e-06 1.13648e-22)
(0.00407248 -0.00401096 0)
(1.81726e-06 -1.73327e-06 2.48825e-22)
(-6.37639e-06 -1.89887e-05 3.61672e-22)
(0.000591095 1.26895e-05 0)
(-0.00532182 -0.000137284 1.20561e-22)
(-0.000307935 3.63638e-05 -1.23339e-22)
(-0.00072403 0.000520787 1.82187e-22)
(-0.00101743 -0.00136881 -3.77061e-23)
(-0.00575501 0.00386147 -1.15314e-21)
(-5.07564e-05 0.000181815 1.19098e-22)
(2.19101e-06 1.88384e-05 -1.34483e-23)
(-2.17733e-05 0.00168541 -9.72826e-22)
(2.53644e-06 9.59713e-07 4.24042e-24)
(-4.57656e-05 6.9702e-07 2.2753e-22)
(-3.73541e-06 -7.68144e-06 9.312e-23)
(0.000713239 -3.21195e-05 5.36381e-22)
(-4.25707e-06 -8.92775e-06 -3.87999e-22)
(-0.00254102 0.0108932 9.07246e-21)
(1.23008e-05 3.44272e-07 0)
(-5.60776e-06 -1.12637e-05 8.1909e-24)
(-0.00504485 -0.00736226 2.02455e-21)
(-0.00107056 0.0038141 1.45063e-21)
(0.00120795 -0.00184043 3.47147e-22)
(1.71972e-06 -5.9694e-08 7.86046e-23)
(-4.90111e-07 1.50982e-08 0)
(-3.01168e-05 2.14683e-05 4.18111e-22)
(4.70062e-06 1.05378e-06 -1.16873e-23)
(-0.00157726 0.00266608 0)
(-0.00187627 -0.00257187 1.36698e-21)
(0.00123709 0.00315101 -7.61494e-22)
(7.28511e-06 -5.06406e-06 9.74191e-23)
(-0.000136603 -4.32509e-05 0)
(6.62197e-06 -4.46986e-06 0)
(3.19727e-06 -2.6965e-06 0)
(0.000253776 -0.000459774 -1.25663e-21)
(6.70942e-05 -0.000242362 -3.22968e-22)
(-0.00636278 0.000460299 -5.46959e-22)
(0.000955962 -0.000622883 -3.39201e-22)
(-0.00234345 -0.0065814 0)
(8.14574e-06 -3.04273e-06 -1.51644e-22)
(-3.83726e-06 -9.01068e-06 1.37721e-22)
(3.35354e-05 7.74204e-06 4.38331e-23)
(1.13577e-06 2.41051e-07 0)
(0.00020671 0.000486658 -2.08995e-22)
(0.00487555 0.000461534 5.53851e-23)
(-2.62304e-06 7.74119e-06 0)
(-1.3074e-06 1.59691e-06 2.42709e-22)
(-2.18684e-05 -1.68789e-05 -4.04334e-22)
(0.00053826 1.50966e-05 0)
(0.00915579 0.00013223 8.46474e-22)
(9.51064e-05 -0.000170513 0)
(-7.03838e-06 -1.12466e-05 2.72533e-22)
(-0.00595097 -0.0112061 -2.58471e-21)
(0.000643582 8.29259e-05 -1.5188e-22)
(-6.12479e-07 -5.964e-06 -1.46182e-22)
(-3.87074e-05 -0.000197866 0)
(-0.00394772 0.0093994 -3.27851e-22)
(-1.05556e-06 -1.13499e-05 0)
(1.28641e-06 2.06717e-08 -9.01743e-24)
(0.00511344 -0.000194599 1.9378e-22)
(-0.00214139 0.00735413 0)
(-6.44267e-05 5.2565e-05 2.81804e-22)
(0.00295539 0.00591694 -1.39151e-21)
(0.000270488 0.000558436 0)
(-0.00213708 -0.00148171 3.38528e-22)
(4.8931e-07 7.04787e-08 -2.50795e-22)
(1.92913e-06 -4.88897e-08 1.11469e-23)
(8.66088e-07 -3.94397e-06 0)
(-0.00100747 -0.00164159 0)
(1.09637e-06 -3.77747e-06 1.74561e-22)
(-0.00204101 -0.00540648 1.62192e-21)
(-0.000259377 0.000174156 -7.80178e-22)
(-1.39025e-06 -1.05542e-05 3.8201e-22)
(0.000243068 0.000422374 1.6423e-22)
(0.000471972 0.000153735 5.77655e-23)
(-2.17764e-06 4.35375e-06 -1.60982e-22)
(0.0068615 0.0154619 -1.04737e-20)
(6.17292e-06 1.69288e-05 0)
(1.87421e-06 -9.64444e-08 -5.501e-23)
(-0.000890544 -0.00345104 -1.15221e-21)
(-2.76576e-05 1.99302e-05 0)
(0.00233622 0.00402887 0)
(-0.0033633 -4.1204e-05 6.94127e-22)
(1.70687e-06 1.37381e-07 1.83797e-23)
(-5.85105e-05 -0.000205436 -5.22132e-22)
(-0.0015966 0.0032609 -1.618e-21)
(0.000478234 9.63112e-05 -2.35019e-22)
(0.000790343 -0.000162353 0)
(0.00200593 -0.00106431 6.11487e-23)
(-0.00381444 -0.00748371 -1.8144e-21)
(1.47268e-06 -9.27683e-08 1.72279e-23)
(0.00331611 0.000577866 3.82178e-22)
(-0.00566366 0.0033757 1.30242e-21)
(0.00013232 6.93928e-05 0)
(-0.00308059 -0.00101444 2.29613e-22)
(0.00314393 -0.00173581 0)
(0.00543411 0.000396831 9.38134e-23)
(4.45265e-05 -4.54485e-05 3.8372e-22)
(0.00232769 -0.000735235 -3.28359e-21)
(2.84625e-06 -2.12124e-06 0)
(1.08037e-06 1.45352e-07 4.54307e-24)
(0.0038712 0.00291615 0)
(0.000669634 0.000436095 1.00698e-22)
(9.65972e-07 2.67305e-07 4.55157e-23)
(-1.60987e-05 -3.37343e-05 -5.84738e-22)
(-5.64318e-09 -3.87409e-06 -4.89412e-22)
(0.000303641 0.000399685 2.12187e-23)
(-8.42483e-06 6.90831e-06 -1.4623e-22)
(0.00293368 0.0148498 9.11555e-21)
(-0.000689175 0.00279491 4.02086e-22)
(4.67065e-06 1.21786e-06 1.13514e-23)
(0.00319411 -0.00070746 -1.91195e-22)
(1.99635e-06 -4.99505e-08 -1.3797e-22)
(1.17873e-05 1.59294e-05 4.91424e-23)
(0.000865143 0.00221923 0)
(-0.0013647 0.00155439 -1.77681e-22)
(-0.00161101 0.00403861 -1.72274e-22)
(2.29313e-05 4.15631e-06 -6.40979e-23)
(7.43819e-05 2.25444e-05 -1.38338e-23)
(0.00579159 -0.00103944 0)
(-6.0287e-06 2.87669e-07 2.33297e-22)
(-0.00159407 -0.00117227 -6.45185e-22)
(1.35964e-05 -6.75732e-05 -6.8439e-22)
(-0.000210947 0.000127673 -3.73723e-22)
(2.7752e-06 -6.24333e-06 -6.26597e-23)
(-0.00277077 -0.00552009 4.73307e-21)
(-7.09074e-06 -1.04534e-05 8.00059e-23)
(-1.31775e-05 -3.2386e-05 9.94807e-22)
(0.000102505 -0.000196049 -1.07371e-22)
(-5.3382e-05 4.70478e-05 -1.22109e-22)
(0.000121585 -0.000125828 2.29934e-22)
(2.48902e-07 -3.21782e-06 1.08386e-22)
(9.42394e-07 3.01954e-07 0)
(1.5455e-06 1.94029e-07 -2.04728e-23)
(0.000761257 8.19208e-05 -1.06466e-21)
(0.000141397 0.000571989 -1.64945e-21)
(-0.00315575 -0.00143002 1.32847e-22)
(3.8201e-06 -3.92479e-06 -1.70344e-22)
(0.00043705 0.000168225 4.59431e-22)
(9.4158e-07 2.03033e-07 -4.73956e-23)
(-3.50134e-06 7.79879e-06 -1.11815e-22)
(8.67024e-06 -3.25343e-06 -2.71504e-23)
(1.13521e-06 -3.93324e-06 0)
(0.00397639 0.00309863 1.85911e-22)
(5.18039e-05 -0.000147827 1.01564e-23)
(-4.86495e-06 -2.83309e-05 9.90247e-22)
(-1.87046e-06 5.09587e-06 3.07032e-22)
(-0.00120117 0.00769646 0)
(-1.05591e-06 1.24752e-06 -2.35424e-22)
(1.27207e-05 1.59205e-05 -6.09597e-23)
(-1.4246e-06 -1.16586e-06 4.28289e-22)
(1.81391e-06 4.07111e-06 4.02359e-23)
(0.000541442 0.0117449 -3.14021e-23)
(-0.00939915 -0.00563245 -3.00873e-23)
(2.02959e-06 -5.1076e-06 0)
(0.0029456 0.00358235 0)
(4.17359e-09 2.2719e-07 4.14133e-22)
(-0.00165846 0.000576771 0)
(9.52142e-06 -4.72284e-06 0)
(0.00548653 -0.00283545 -7.53207e-22)
(-0.00424927 0.0034869 -2.06e-21)
(7.0981e-06 -3.9595e-06 0)
(-1.57431e-07 8.27218e-07 0)
(0.00494443 0.00092284 0)
(-0.00206687 0.00346527 7.62406e-22)
(4.08305e-05 -4.10858e-05 -1.0019e-21)
(2.15461e-06 -4.32435e-06 -2.31495e-22)
(-0.0060724 -0.0063159 -1.07922e-21)
(3.12299e-06 -5.43866e-06 5.15191e-23)
(1.13538e-05 1.48207e-05 0)
(2.13021e-06 4.22012e-06 -1.14278e-22)
(-2.40687e-05 -3.70948e-05 -8.63229e-22)
(-6.36778e-05 0.00550601 0)
(-0.000450046 0.000581805 -2.6451e-22)
(-9.75735e-06 -7.25883e-06 -2.86297e-22)
(-0.00512155 -0.000178487 2.66857e-22)
(0.00465938 -0.00528191 0)
(-4.1539e-07 -6.27421e-06 -1.82834e-22)
(-1.03775e-06 -3.02867e-05 2.53119e-22)
(1.73862e-07 -3.26932e-06 1.76313e-22)
(-0.0130689 0.00164415 0)
(0.0106018 0.0101176 -7.75992e-22)
(-8.85715e-06 -7.91203e-06 4.71848e-22)
(0.00199951 -0.000730715 -1.04385e-22)
(-2.63762e-06 -8.61863e-06 -1.13616e-22)
(4.49015e-06 1.26029e-06 -5.67764e-23)
(1.25347e-05 1.54931e-06 5.16954e-23)
(0.0093775 -0.000803148 0)
(0.00257233 -0.00643726 0)
(-6.0531e-06 4.73963e-07 -2.97739e-22)
(9.0065e-07 -8.13154e-08 -2.77161e-23)
(-6.11246e-05 0.000236705 0)
(4.5702e-06 1.0311e-06 0)
(8.91729e-06 -8.70543e-07 8.32485e-23)
(-3.14895e-05 1.53944e-05 0)
(5.16409e-07 8.27898e-07 2.39364e-22)
(0.000425946 0.000172562 -2.51076e-22)
(0.000109007 -2.72656e-05 -5.28368e-22)
(0.00336585 0.000901783 -1.14603e-22)
(-6.76862e-06 -9.69104e-06 1.00289e-22)
(-0.00715118 0.00157126 7.21057e-22)
(3.79553e-06 -2.81959e-06 -1.59132e-22)
(-0.0017107 0.000463694 0)
(-0.00373771 -0.000595077 -7.54437e-22)
(1.60696e-05 1.64676e-05 5.90774e-23)
(-0.0030352 -0.0010719 0)
(-0.00147533 0.0030294 -6.34797e-22)
(1.43852e-06 1.3498e-06 -9.7643e-24)
(-1.02377e-05 -1.30559e-05 8.02363e-22)
(-1.26817e-05 -5.03712e-07 0)
(-0.00174274 0.00183099 3.3104e-22)
(1.38051e-06 -2.37385e-08 4.69651e-25)
(-0.00457595 -0.00142582 0)
(1.06187e-06 -4.55246e-08 0)
(-0.00044427 -0.0070268 -5.02594e-22)
(9.12756e-07 -3.58138e-06 1.72112e-23)
(-0.00191551 0.000280799 -1.00387e-21)
(2.99939e-07 -1.18927e-06 3.50598e-23)
(-1.78298e-07 -6.49745e-06 -5.66719e-22)
(1.76903e-06 -8.84927e-08 -8.45103e-23)
(3.84488e-06 9.30548e-07 0)
(4.43037e-05 -0.00014226 0)
(-0.001431 -0.000538362 -7.00523e-23)
(-8.45639e-06 -9.76047e-06 4.23044e-22)
(-4.25169e-05 0.000174746 -1.70438e-22)
(-2.57612e-07 5.37e-06 1.23928e-22)
(1.86396e-06 -5.15326e-06 1.8981e-23)
(-0.00212753 0.00461065 1.72977e-22)
(0.00126066 -0.0002081 -1.18256e-22)
(-0.00411606 -0.00709551 2.87288e-22)
(1.36726e-06 1.09889e-06 0)
(1.19581e-06 7.09878e-08 0)
(1.67031e-06 2.52555e-07 1.5071e-24)
(-0.00223463 -0.00116525 1.1313e-21)
(-1.32011e-05 -2.17648e-05 -1.64146e-21)
(8.25714e-08 -2.92728e-06 2.05073e-22)
(8.84191e-07 -6.48476e-06 1.19619e-22)
(-7.07485e-05 0.000212377 0)
(0.00534012 0.00147921 2.372e-23)
(1.06535e-06 6.46444e-07 0)
(0.000665094 0.000143066 0)
(-3.40734e-05 1.69316e-05 -2.60289e-22)
(7.06391e-05 2.59702e-06 -9.3533e-23)
(-1.05277e-06 -1.09136e-06 1.80146e-22)
(8.97846e-06 -3.24005e-05 -2.13873e-23)
(5.42165e-08 -1.59605e-06 -2.98031e-22)
(-0.000749663 0.000376689 -5.22349e-22)
(1.32112e-06 1.10425e-06 0)
(-0.00335842 -0.00136718 -3.52938e-22)
(4.48671e-05 3.07903e-05 -2.58894e-23)
(-4.69077e-05 -5.84248e-05 0)
(0.00120184 -5.07488e-05 1.44024e-22)
(0.000123505 5.51393e-05 1.28375e-23)
(-0.00143087 -0.00196088 0)
(0.00151327 0.000817235 0)
(-9.69517e-05 -0.000129318 -5.06492e-22)
(0.00420619 -0.00239027 -1.80914e-22)
(1.22406e-05 -7.4487e-05 7.73738e-22)
(2.37961e-05 2.36473e-07 1.77553e-23)
(0.000715863 8.79651e-05 3.62679e-22)
(1.46845e-06 1.10073e-07 -3.23382e-23)
(3.94291e-08 -3.02168e-05 -4.92882e-22)
(-1.42017e-06 -0.000204344 0)
(-0.000145989 0.000160786 0)
(3.7992e-07 1.79468e-07 4.60507e-22)
(0.000242208 0.00118549 0)
(-0.000983558 0.00354079 4.90778e-23)
(1.67539e-06 3.04444e-07 0)
(0.000793623 0.00493738 -9.05117e-21)
(-0.00637572 9.15936e-05 6.4694e-22)
(0.00586464 0.0113077 2.95641e-24)
(-0.000127713 0.000139419 0)
(8.95329e-08 -2.30447e-06 -1.0845e-22)
(0.00923828 0.000382072 2.59906e-23)
(-1.48843e-05 -1.83853e-05 0)
(-2.34961e-06 -9.50516e-06 2.67788e-22)
(-0.000104524 -0.000106312 -4.68624e-22)
(-8.48159e-06 -8.95838e-06 -3.02953e-22)
(2.81473e-06 -2.66687e-07 1.29695e-23)
(8.67899e-06 1.48869e-05 -4.6832e-23)
(-5.22398e-06 -9.94819e-06 4.56602e-22)
(-0.000106003 2.43124e-05 3.67035e-22)
(8.94302e-07 -2.26737e-07 1.48269e-22)
(2.22844e-06 1.76947e-07 3.23247e-24)
(0.00490851 -0.00283223 2.74447e-22)
(-0.00450901 0.00527492 -1.2007e-21)
(5.97383e-09 2.75227e-07 0)
(1.33978e-06 -3.53776e-08 0)
(0.000264727 0.000159975 -5.48044e-22)
(-2.85875e-06 3.60378e-06 -1.00305e-22)
(8.86436e-07 -6.93452e-10 3.30459e-23)
(1.35289e-06 -1.57648e-08 0)
(1.59511e-05 -1.25116e-05 1.30046e-22)
(0.00225657 -0.00109507 2.67063e-23)
(8.20891e-07 7.21712e-07 -1.20615e-22)
(0.000130264 0.000192346 -1.32446e-21)
(0.00465461 0.000702917 0)
(5.30531e-06 1.74913e-05 8.83396e-23)
(-0.00601353 -0.000874311 0)
(-4.23768e-06 -9.66978e-06 -2.33887e-22)
(-1.16904e-05 -2.87498e-05 0)
(-1.11341e-05 0.000150444 -1.79847e-23)
(-1.59801e-05 1.72255e-05 -1.00272e-22)
(0.000237091 0.016453 1.55315e-22)
(1.34044e-06 1.1687e-06 4.39584e-24)
(0.00206454 -0.00409965 0)
(2.99942e-05 -0.000208747 8.91983e-22)
(3.00692e-06 -1.88226e-06 -8.62176e-23)
(0.000152296 -0.000165549 -1.65925e-22)
(-1.67228e-06 1.5472e-06 -2.6346e-22)
(-9.98916e-06 7.65075e-08 2.06132e-22)
(1.49287e-06 -5.11073e-06 0)
(0.00128647 -0.00216783 1.74361e-22)
(0.000348158 0.000135895 0)
(0.000606482 0.00504127 4.79395e-22)
(2.21778e-06 -3.22972e-06 -3.02402e-22)
(-0.00221043 -0.00690118 -1.09295e-21)
(-5.61942e-06 -4.10451e-07 2.33602e-22)
(0.0058512 -0.00183291 1.5973e-21)
(4.34608e-07 -1.1196e-06 -3.37002e-23)
(-5.72963e-07 -4.98625e-06 0)
(0.000145778 -0.00012521 2.59601e-22)
(2.29948e-07 -3.14481e-06 -8.97904e-24)
(-0.00208334 -0.00110391 -1.78189e-21)
(-0.00152298 -0.00308021 0)
(0.000503998 0.00191912 -2.89123e-23)
(2.89378e-07 -6.3184e-06 -1.24311e-22)
(-6.84282e-06 5.97791e-06 -1.3959e-22)
(7.50961e-06 -3.31664e-05 2.70683e-23)
(2.7745e-06 -1.43018e-07 -1.40524e-23)
(-0.00695432 0.00188757 -1.0877e-21)
(0.000280985 -0.000895091 0)
(-1.06095e-06 -9.15903e-06 -3.92706e-22)
(-0.00582807 -0.00113257 0)
(-0.000117987 2.65116e-05 0)
(-1.25612e-07 -5.46255e-06 0)
(2.0214e-06 -9.03999e-08 4.91131e-23)
(1.78154e-05 1.50649e-05 -5.54015e-23)
(5.40238e-06 1.03259e-05 3.63086e-23)
(0.00427228 -0.00211381 1.27888e-22)
(-0.0066409 -0.00966316 -1.04968e-22)
(-0.000779259 -0.000313364 4.28576e-22)
(-0.000183289 -0.00125347 -4.93864e-22)
(3.00826e-06 -9.3439e-07 0)
(-0.00381347 -0.00306296 1.7171e-20)
(0.00467872 0.00259328 0)
(-1.82482e-06 -6.49258e-06 -4.80129e-22)
(-0.0067167 0.000927664 -6.01171e-22)
(1.68787e-06 3.22623e-07 3.12837e-24)
(2.50344e-05 -5.97929e-05 0)
(0.00693443 0.00481932 4.09004e-22)
(0.00562457 0.00184412 -2.35087e-23)
(0.000870873 0.00123464 -1.50671e-22)
(0.00193197 -0.0020172 -2.52684e-22)
(5.4872e-06 -6.69751e-06 1.42689e-23)
(9.4508e-07 -2.20844e-07 0)
(0.0033232 -0.000478956 1.68493e-22)
(4.64529e-07 -3.99217e-07 0)
(-0.00403494 0.000107283 1.4086e-21)
(0.00104486 -0.000381439 6.49305e-21)
(-0.00561403 -0.00252274 1.52598e-21)
(-1.85424e-07 1.65754e-07 0)
(-8.62595e-05 3.45244e-05 3.34968e-22)
(0.000874413 0.00128814 6.51926e-22)
(-0.00824671 -0.000339111 1.47544e-21)
(2.05782e-07 -5.80014e-06 1.5049e-22)
(-1.94235e-05 -0.00021703 -1.60667e-22)
(-5.47226e-06 -1.09974e-06 4.41322e-24)
(-0.00373092 -0.00542679 2.5963e-21)
(9.89329e-09 -1.56299e-06 -2.40118e-24)
(0.000702984 6.96682e-05 6.49532e-22)
(0.00482849 -0.00460264 2.63586e-24)
(-6.72322e-07 5.7424e-06 -8.972e-23)
(-5.46761e-06 1.015e-06 0)
(0.0052768 -0.0021132 -1.29314e-21)
(-9.18877e-06 -2.64275e-05 4.47143e-22)
(-2.40217e-06 -7.44696e-06 3.52181e-22)
(-0.00240626 -0.000280963 -2.40614e-21)
(0.0042341 -0.000384607 0)
(-6.57819e-06 -7.28099e-06 1.15962e-24)
(-0.00258049 0.000423353 0)
(-0.00524596 -0.000320639 -2.54527e-22)
(0.00323092 0.00068621 -1.5867e-21)
(-2.0342e-06 8.16376e-06 0)
(1.14133e-06 3.37766e-07 6.98493e-23)
(1.86155e-06 -4.93535e-06 0)
(5.00375e-07 2.76989e-07 -1.54035e-22)
(0.0103959 -0.00279919 0)
(5.40236e-08 1.94097e-05 0)
(1.30266e-06 2.46175e-08 3.06704e-24)
(-0.0014737 0.00904776 -1.36174e-20)
(0.00262825 -0.00129197 0)
(0.000132353 -0.000145164 -2.2205e-22)
(-0.00265148 -0.00122657 0)
(2.99437e-06 -1.38125e-05 5.76605e-23)
(-0.00250669 -0.00244593 1.05673e-23)
(-0.00155589 0.00535348 -1.97624e-22)
(1.32357e-06 -1.35804e-07 0)
(0.0029245 -0.00447237 2.0492e-22)
(-1.50928e-05 -6.61679e-05 -4.8618e-22)
(-0.00250676 0.000305813 0)
(-0.000835549 -0.00472741 -3.58214e-22)
(-0.00860065 -0.00803348 -2.10158e-22)
(8.33099e-06 -9.88464e-07 -7.84574e-23)
(0.00136622 0.000467794 0)
(-2.91521e-06 -7.67457e-06 -3.43208e-22)
(0.0047104 -0.0047233 6.89376e-24)
(5.47407e-06 -1.87104e-05 7.72923e-22)
(0.00419086 -0.000540055 1.94558e-24)
(0.00212333 -0.00106671 0)
(1.51921e-07 -2.95471e-06 -1.65665e-22)
(-0.00382235 0.0057613 3.1355e-22)
(-4.01512e-06 -8.10357e-06 0)
(0.00192691 -0.00478781 1.70633e-22)
(-0.00590439 -0.000878191 0)
(-0.00636793 0.0084615 0)
(0.00039636 9.22672e-05 -8.17098e-22)
(-3.32498e-05 -3.92086e-05 -8.02523e-22)
(-5.5659e-05 0.000260806 7.82582e-22)
(-0.00256353 0.000322529 0)
(-0.00207096 0.000466153 1.61831e-22)
(-1.57688e-08 5.41562e-07 -3.507e-22)
(-0.000238785 0.0005911 -1.07491e-21)
(-0.00119262 0.00443847 -2.01436e-21)
(7.96298e-05 -0.000189517 -4.60248e-22)
(1.02899e-06 -1.79325e-08 1.02232e-22)
(-0.000208187 -0.0056773 9.92259e-22)
(-4.03454e-06 1.06711e-05 1.36782e-22)
(2.47274e-06 -1.4726e-05 0)
(0.0102068 0.00967638 6.74707e-22)
(-0.000142187 -0.00083356 5.33764e-22)
(-1.11413e-06 -6.04984e-06 3.42501e-22)
(-1.76887e-05 6.9981e-05 -3.55917e-23)
(-0.002186 0.00194154 8.47508e-22)
(-0.00220616 0.000549606 6.42793e-22)
(0.00186932 0.0049588 -4.1021e-22)
(9.89016e-05 -2.11631e-05 0)
(-0.00356784 -0.000900091 0)
(0.000781575 0.00111369 0)
(1.4861e-05 -1.09153e-05 4.71873e-23)
(0.000150147 0.000161102 0)
(1.12778e-06 1.01435e-06 -1.02235e-22)
(9.69785e-07 -1.97021e-07 -1.79154e-24)
(-0.0043468 -0.00438241 0)
(1.1053e-06 2.15064e-07 -7.05036e-23)
(0.0029826 -0.00164914 -4.41167e-22)
(-0.00310108 -0.00834397 -7.70663e-23)
(1.2739e-07 -2.42149e-06 -1.79315e-22)
(-1.49401e-07 5.44571e-07 -4.71832e-23)
(4.18721e-05 3.31307e-05 3.3318e-23)
(0.00779518 -0.0015002 1.16427e-21)
(1.99508e-06 -4.90921e-06 6.1851e-23)
(-0.000160168 -1.76486e-06 -4.8153e-22)
(1.07276e-06 9.82853e-07 1.01034e-22)
(4.21591e-06 1.1461e-06 0)
(4.00143e-07 3.2497e-07 -1.09137e-22)
(6.72516e-07 1.0756e-07 0)
(-0.000108898 -0.000644456 -7.39958e-23)
(1.74505e-06 -6.02423e-08 -1.80734e-23)
(0.00346897 0.00374972 9.32151e-22)
(2.65042e-05 0.00292561 0)
(-1.543e-05 -3.4009e-05 -1.79236e-22)
(7.55607e-07 2.50724e-07 -1.97083e-22)
(-0.00541448 0.00477322 -2.72926e-21)
(0.00541803 -0.000588599 -7.43352e-22)
(-9.86749e-05 0.000254242 -7.29637e-22)
(8.77226e-07 2.00666e-07 1.72832e-24)
(-0.000192694 -0.000134896 0)
(-0.000150545 -0.000135222 0)
(8.32346e-07 1.11396e-07 4.8644e-23)
(4.45722e-06 9.78809e-07 -3.17042e-24)
(5.62245e-06 -6.69572e-06 0)
(0.00216119 -0.00676221 4.22799e-22)
(-0.00235785 0.000792037 0)
(0.000671881 6.65728e-05 6.99748e-22)
(5.93096e-06 -1.19296e-05 0)
(-4.99606e-05 8.68781e-07 -6.80217e-22)
(0.00392352 0.000809491 1.85534e-22)
(-9.27034e-06 -2.60673e-05 2.60625e-22)
(-1.594e-05 -2.67983e-05 -1.20196e-21)
(-0.00359916 -0.00215432 1.97613e-22)
(1.84107e-06 -6.575e-09 6.6078e-23)
(-0.000308733 -0.000586166 0)
(-0.00234738 -0.00185803 0)
(-8.91273e-06 -1.94596e-05 2.03349e-23)
(-4.89395e-05 -3.55982e-05 5.48046e-22)
(-0.00216014 -0.00167581 1.53241e-22)
(-0.00236219 -0.000375204 2.1764e-21)
(6.60727e-07 5.54034e-07 0)
(-8.76593e-05 -0.000100779 3.99004e-22)
(-0.00272772 -0.0049711 8.37915e-23)
(0.000260896 -0.000688295 0)
(6.8897e-06 -1.71637e-05 -9.40861e-23)
(-0.000135409 0.000677013 -4.49203e-22)
(-0.0036764 -0.00720368 0)
(2.77706e-05 -2.81677e-05 -2.32759e-22)
(2.32756e-07 -2.6324e-06 1.54838e-22)
(-5.987e-05 -0.000119572 0)
(0.00133525 0.00296674 0)
(0.00325369 -0.00610587 4.48065e-23)
(0.0043542 0.00144761 -4.69233e-22)
(1.00558e-06 4.30542e-07 0)
(3.51609e-06 -1.77712e-05 -6.67824e-22)
(0.000827491 -0.000372362 9.07382e-24)
(-9.1853e-06 -1.87605e-05 0)
(5.1985e-07 -5.22731e-07 -1.28864e-24)
(8.39855e-05 0.00046395 -7.76268e-22)
(9.77116e-07 1.87174e-07 0)
(1.49591e-06 -2.00561e-05 -8.9494e-22)
(-0.00349291 0.000814402 -2.35443e-22)
(-0.00269511 -0.00173133 1.5091e-22)
(-0.00281671 -0.000120951 0)
(6.74063e-07 -2.33908e-06 -9.4103e-23)
(-0.00585879 -0.0006009 0)
(2.84017e-05 -1.48642e-05 0)
(-3.69913e-06 1.0296e-05 0)
(8.1497e-07 4.29844e-08 2.56081e-22)
(-3.65798e-07 1.14526e-07 5.61268e-23)
(-0.00280424 0.00101387 6.26807e-23)
(0.00290774 0.00147231 -3.67579e-22)
(0.000132699 0.000568563 0)
(4.8663e-06 1.06716e-05 -4.72433e-23)
(0.00254156 0.00792636 -3.26489e-21)
(-5.53206e-08 -1.74007e-06 0)
(0.00132647 0.000872408 -5.87591e-22)
(-3.11259e-05 2.04261e-05 1.54535e-22)
(0.00522566 -0.00590431 9.58895e-22)
(0.00033111 0.000155042 0)
(-2.14508e-06 -9.69389e-06 0)
(-0.00162758 -0.00459381 1.4229e-21)
(-0.00525111 0.000813702 -8.93934e-22)
(-3.14818e-06 -7.53568e-06 0)
(0.00905764 -0.00113638 4.67894e-21)
(0.000399876 0.00279704 0)
(1.10137e-06 2.45871e-07 0)
(0.00513287 -0.000858041 0)
(4.28423e-05 -8.46223e-06 -5.91856e-23)
(0.00557428 -0.00030285 8.41733e-22)
(-1.33432e-05 -1.32674e-05 -5.95016e-22)
(-8.03706e-07 -9.08886e-07 -7.66428e-23)
(-0.0022861 -0.00256446 -1.89605e-22)
(-8.46503e-05 0.000176123 -1.11363e-22)
(6.34803e-06 8.83646e-07 0)
(0.000356109 0.00133298 -8.44552e-24)
(0.00554464 -0.001756 0)
(0.00172799 -0.00614064 1.4788e-22)
(9.54659e-08 -3.14175e-06 6.7476e-23)
(6.26667e-06 1.18074e-06 -1.39031e-23)
(-0.000638326 -0.000956103 -1.4306e-22)
(-0.000200871 -7.61672e-05 0)
(0.000109832 0.00147218 9.63806e-22)
(-7.0378e-07 -9.89361e-06 -3.43293e-24)
(0.00177257 0.000528356 5.50382e-23)
(-0.00215489 -0.00216516 -1.41164e-22)
(0.000444005 -0.000114059 1.90409e-22)
(0.000246795 -0.00248179 -1.26773e-22)
(-2.96346e-07 -1.07198e-05 2.28807e-22)
(-0.00229855 0.00280227 0)
(-0.00326333 -0.00507069 2.01199e-22)
(3.13562e-05 -5.38241e-05 1.88559e-22)
(0.00285213 0.00197632 -4.09988e-22)
(1.44378e-06 -9.78382e-07 8.95426e-23)
(-0.000334651 -0.000227612 -5.19959e-22)
(-3.83501e-07 -1.89184e-05 6.6049e-22)
(-0.000732239 -0.00076434 1.63865e-23)
(9.65171e-07 8.439e-07 -3.49104e-23)
(-0.00176256 0.000350519 0)
(3.02031e-07 8.12887e-06 7.1282e-23)
(7.6186e-05 3.69062e-05 0)
(2.32706e-07 -3.11491e-06 0)
(4.11917e-06 -3.21615e-06 -8.80284e-23)
(7.69418e-07 -2.77489e-06 2.74494e-22)
(-9.61514e-06 -2.84392e-05 0)
(-0.00133353 0.0028502 0)
(-1.72974e-05 -2.73827e-05 1.29448e-23)
(-6.13669e-06 8.8325e-07 1.15036e-22)
(-0.00205798 0.00831502 0)
(-0.00374605 0.00527619 0)
(0.00141821 0.00101472 5.61703e-22)
(-0.00498859 -0.000290427 7.95939e-24)
(0.00353568 0.00106908 -2.16889e-22)
(2.00671e-05 7.18436e-07 0)
(0.00450398 -0.00342647 0)
(-0.00196229 -0.00398196 -1.50407e-21)
(5.94065e-05 0.000108666 0)
(-3.38859e-05 5.03926e-05 3.37487e-22)
(-0.00353614 0.000596766 0)
(1.78109e-06 5.15469e-08 0)
(2.55913e-05 -1.22843e-05 -5.30695e-22)
(2.04074e-06 2.34554e-06 4.75144e-23)
(0.000257879 0.000154876 -5.80441e-22)
(9.50856e-06 4.77725e-05 0)
(-0.0057914 0.0053932 -8.50174e-22)
(2.35534e-06 2.78914e-07 -4.28856e-24)
(-0.00111803 0.00143174 -1.37293e-21)
(-0.00212404 -0.000453023 0)
(-0.00212955 -0.00822641 0)
(1.422e-08 -4.77717e-06 3.74854e-22)
(-0.00327426 0.00454976 3.09428e-22)
(2.08566e-06 1.9812e-06 -5.76756e-23)
(2.77721e-06 -6.08189e-06 0)
(2.38071e-05 7.32414e-06 2.45015e-23)
(2.55147e-08 -2.94744e-06 -1.16283e-22)
(-1.40269e-06 -2.53655e-06 -3.03552e-22)
(1.4944e-06 -1.17239e-06 -3.78641e-23)
(1.3247e-06 1.33049e-06 -1.33e-22)
(6.01701e-08 -3.83086e-06 2.37947e-22)
(1.39541e-05 -9.67533e-06 4.601e-23)
(-0.00475498 0.00469521 -3.1097e-22)
(0.00517641 -0.0028471 -1.48074e-23)
(-9.59955e-07 -1.1819e-06 0)
(-0.000507487 0.00187703 -1.88718e-22)
(0.0003963 0.000141595 0)
(0.00969524 -0.00305396 0)
(1.05563e-06 6.68263e-07 6.46797e-23)
(0.000302475 -0.000325133 1.10516e-21)
(-1.78607e-05 -2.93712e-05 0)
(-3.20725e-05 3.02125e-05 0)
(0.00578028 -0.00132449 0)
(0.0033183 -0.00872275 0)
(2.45107e-07 -1.07457e-05 -2.31419e-22)
(3.73632e-06 -4.55624e-06 -2.95312e-22)
(1.36348e-06 -1.10684e-06 0)
(-0.00180432 -0.00238449 0)
(1.37036e-06 -2.21234e-08 1.05077e-22)
(0.00299914 0.000653474 -1.75761e-21)
(5.39918e-06 6.33017e-07 4.12612e-23)
(1.33323e-05 -8.80577e-06 1.44224e-22)
(8.43877e-05 5.42812e-05 0)
(7.56282e-05 -0.000223723 -7.7392e-22)
(3.0043e-06 -1.1168e-06 0)
(4.33923e-06 7.79981e-07 8.41141e-24)
(0.000233783 0.000182183 4.6745e-22)
(0.000344642 0.00011687 4.01487e-22)
(0.00108121 0.00429271 -1.88291e-20)
(0.00460073 0.00254843 -2.24165e-22)
(-0.00752757 0.00918442 -1.59258e-21)
(1.77701e-05 7.05633e-06 9.89796e-24)
(6.79128e-06 -1.6222e-05 1.55107e-22)
(3.93216e-06 -9.55597e-07 0)
(-0.00188828 0.000122448 0)
(3.88596e-07 -3.30945e-06 -3.5187e-22)
(7.67331e-07 2.06743e-05 -1.17916e-22)
(5.11269e-07 5.38877e-06 1.18789e-22)
(-0.00169858 0.00344304 2.01878e-22)
(1.13536e-06 1.78336e-07 -3.36308e-23)
(0.000473243 -0.00619998 3.36071e-22)
(-0.00617367 -0.00364344 0)
(3.69349e-06 -9.50077e-07 -2.93837e-24)
(0.00043083 0.000164933 3.77735e-22)
(2.70614e-06 -2.41235e-06 0)
(1.22151e-06 1.23555e-06 3.00188e-23)
(-0.000333164 0.000145661 9.05744e-22)
(-0.00536693 0.00275774 4.57824e-22)
(8.71878e-06 -1.13514e-06 0)
(-1.26806e-05 -3.13419e-05 1.32625e-21)
(-1.27083e-05 -1.27066e-05 9.83168e-23)
(-4.07677e-05 0.000152521 -2.89016e-24)
(2.85977e-06 -1.64632e-06 1.64021e-22)
(-0.00549852 -0.0012902 1.31069e-24)
(3.33784e-06 9.64336e-07 -4.30719e-23)
(0.000298355 0.0019682 4.02869e-22)
(-0.000990429 0.00204203 1.2877e-22)
(-8.90497e-05 0.000110493 2.19293e-22)
(-1.10652e-06 -1.63449e-05 -1.9209e-22)
(-0.00226087 0.00323184 -5.82681e-23)
(8.6292e-07 -2.33259e-07 0)
(0.000608644 7.79118e-05 -6.02897e-22)
(-6.77052e-05 -0.000177249 0)
(-4.25223e-05 6.95756e-05 -1.77733e-22)
(2.86887e-06 -4.25683e-05 -1.53507e-22)
(7.80124e-05 -0.000129035 0)
(0.00372569 -0.00575744 -5.92714e-24)
(-2.73944e-05 2.06456e-05 -2.89162e-22)
(0.000228218 0.000596725 4.17098e-22)
(-0.00024673 -6.77447e-05 2.66675e-24)
(-0.000878665 -0.000695528 4.15447e-22)
(0.00524101 -6.87121e-05 1.80812e-22)
(3.0757e-05 -2.86756e-05 1.31195e-22)
(0.000807283 4.18901e-05 0)
(2.44703e-06 -4.99028e-06 -2.42254e-22)
(-0.00829517 -0.00366772 2.9691e-22)
(1.30819e-06 1.01319e-06 0)
(6.1098e-05 -1.96887e-05 4.78876e-23)
(0.00530022 -0.000391809 -7.86189e-23)
(-0.000452553 0.000658556 0)
(-0.000654942 -0.0040659 -5.06747e-22)
(-0.000383149 -0.000203603 1.19477e-21)
(1.69941e-06 4.14445e-07 1.87896e-24)
(4.53662e-06 9.68868e-07 5.53699e-23)
(1.71916e-07 -6.5197e-08 0)
(-0.00277156 0.00220576 0)
(4.30782e-07 8.77173e-06 -7.69685e-23)
(-0.00176916 -0.00799558 9.32099e-22)
(-0.00313468 0.00491588 0)
(3.84665e-06 7.05261e-07 -1.79151e-24)
(0.00469978 -0.000336323 4.1225e-23)
(-2.01408e-05 -2.69793e-05 1.52301e-22)
(0.00235503 -0.01128 2.28499e-21)
(1.44943e-05 -9.83997e-06 -8.70866e-23)
(1.83182e-06 -4.85873e-05 -1.62384e-22)
(-0.000237549 -0.00545419 -4.42536e-22)
(3.18903e-05 1.32307e-05 -1.26844e-23)
(0.00258298 0.00113456 0)
(5.80307e-06 -1.13732e-05 1.00011e-22)
(9.22098e-07 -2.15586e-07 -1.58441e-22)
(-8.21802e-07 1.52717e-06 2.5189e-22)
(-0.000228311 0.000117795 -1.35048e-22)
(-1.36874e-05 -7.24801e-05 3.91438e-22)
(0.000459767 6.96317e-05 -1.62438e-22)
(1.87764e-05 1.09159e-05 -3.50954e-23)
(9.78463e-07 5.21474e-07 0)
(9.62749e-07 -1.06609e-07 0)
(0.000561131 -0.000224691 6.30089e-22)
(-0.000395119 0.000191841 8.71073e-22)
(7.46063e-05 -0.000196013 0)
(-0.0015234 0.00116397 7.0692e-24)
(6.47799e-07 1.20769e-06 0)
(1.18016e-06 -2.10163e-07 9.73673e-23)
(1.35365e-06 3.05739e-08 1.5953e-23)
(9.81868e-08 -4.13214e-06 -1.4831e-22)
(-0.00615811 -0.0040124 -3.38798e-22)
(-3.2857e-05 2.84143e-05 0)
(-0.000152113 0.00013368 1.28841e-22)
(0.000824758 4.37375e-05 -3.93249e-22)
(3.21622e-07 -2.31746e-06 -9.36338e-23)
(-0.00735409 0.00522662 2.86917e-22)
(-0.00326612 0.00101655 1.41329e-21)
(-4.10291e-05 -3.69407e-05 -4.41246e-22)
(-0.00425683 -0.00248158 -9.33157e-23)
(-1.47593e-05 -2.73562e-05 -3.8981e-22)
(0.00232562 0.0011707 -7.32246e-22)
(0.00253463 -0.009005 1.80047e-21)
(-2.29684e-05 0.00392875 -4.27165e-22)
(-0.00030338 0.00243892 -6.81312e-22)
(1.48874e-06 -1.36765e-06 -4.70835e-23)
(0.00598716 -0.00158236 1.59394e-22)
(-0.000300433 0.00167781 -4.28076e-22)
(-9.75715e-08 1.74613e-07 0)
(-0.00302589 0.00767336 7.99267e-22)
(0.000393744 0.00177063 0)
(-3.81679e-05 6.14758e-05 1.58731e-22)
(3.50376e-05 -2.3857e-05 -1.57819e-22)
(-0.00740303 0.007871 0)
(0.000338375 -0.000113013 -5.09465e-24)
(3.1503e-05 -0.000236871 -2.81309e-22)
(-6.66615e-05 -8.07595e-05 0)
(0.00409644 0.00127853 4.82085e-22)
(-0.0059795 -0.00187649 0)
(0.000807434 0.000172769 -8.82749e-23)
(-7.3952e-06 -1.34324e-05 2.07386e-22)
(-0.000109605 -0.000151926 2.13427e-22)
(9.70278e-05 5.36228e-05 -7.89411e-22)
(2.29001e-06 -3.61587e-06 2.5106e-22)
(-2.4136e-06 7.36953e-07 -3.33541e-24)
(-0.00285737 0.00462091 -7.09533e-22)
(1.28741e-06 1.15842e-06 0)
(6.04207e-08 -1.02842e-06 0)
(-0.000680017 0.00178582 0)
(-0.000963418 -0.00552922 0)
(-2.64244e-06 -2.03081e-06 6.37681e-22)
(2.68792e-07 -5.75081e-06 -3.69777e-22)
(-2.84209e-06 -8.38294e-06 -1.42953e-22)
(0.0024239 0.00354542 6.65836e-22)
(-0.0035589 0.00686803 0)
(-0.000871407 0.00187807 6.63546e-22)
(6.96373e-05 0.000370671 -2.68688e-22)
(9.39389e-05 0.000216178 1.36545e-21)
(0.00400151 -0.00139618 6.76697e-23)
(0.000711534 0.000218629 -2.15018e-22)
(1.06205e-06 -3.19214e-07 -5.63818e-23)