/*--------------------------------*- C++ -*----------------------------------*\
| =========                 |                                                 |
| \\      /  F ield         | OpenFOAM: The Open Source CFD Toolbox           |
|  \\    /   O peration     | Version:  v2012                                 |
|   \\  /    A nd           | Website:  www.openfoam.com                      |
|    \\/     M anipulation  |                                                 |
\*---------------------------------------------------------------------------*/
FoamFile
{
    version     2.0;
    format      ascii;
    class       volScalarField;
    location    "150";
    object      nut;
}
// * * * * * * * * * * * * * * * * * * * * * * * * * * * * * * * * * * * * * //

dimensions      [0 2 -1 0 0 0 0];


internalField   nonuniform List<scalar> 
14033
(
0.000451778
0.0120417
0.00045799
0.00047421
0.000726615
0.000470775
0.00046774
0.00543996
0.000459462
0.000454465
0.000865988
0.006365
0.0131261
0.000457637
0.000462195
0.000454608
0.000455418
0.0010782
0.00781035
0.00046898
0.000457728
0.0147796
0.0227989
0.000474417
0.0185891
0.000463527
0.000636103
0.0004579
0.00436794
0.018983
0.000451333
0.000460245
0.000460355
0.00807642
0.000453849
0.000459464
0.000463931
0.000468401
0.000458258
0.000459621
0.000505108
0.000460653
0.00997269
0.0156669
0.000460886
0.017843
0.000457028
0.00046089
0.000610914
0.00901969
0.000871018
0.000650795
0.0155199
0.0205642
0.000531451
0.00045985
0.0224795
0.000457771
0.00047301
0.000460549
0.000623102
0.000460324
0.014117
0.000458606
0.000459877
0.00290915
0.00854418
0.00103228
0.000460697
0.000454027
0.00047154
0.000457614
0.0228221
0.0210055
0.00705317
0.000459479
0.000790577
0.0004595
0.000461139
0.000642901
0.000540803
0.0168856
0.00685511
0.0108003
0.000459049
0.000460431
0.000462398
0.000455337
0.00057928
0.00617347
0.000457089
0.000455278
0.000515409
0.00044371
0.00424129
0.000536391
0.000459965
0.00385049
0.0068014
0.000465913
0.000519913
0.0159869
0.000460149
0.000457932
0.00794341
0.00603567
0.000498332
0.00257523
0.000593328
0.0211157
0.000453255
0.000460347
0.000465152
0.0174018
0.000465439
0.010168
0.00690526
0.000460036
0.000608366
0.0144315
0.000456224
0.0147602
0.000459199
0.000460479
0.0207917
0.000468923
0.022526
0.000821435
0.000457354
0.000520241
0.0224082
0.000632628
0.000634309
0.00832016
0.00170032
0.000457579
0.00547834
0.0199881
0.000495142
0.000826596
0.00781426
0.0227155
0.000484811
0.00278628
0.00046136
0.000453062
0.0201362
0.000975498
0.000451606
0.000493365
0.000468138
0.00061299
0.000458687
0.0160705
0.00122844
0.000457684
0.00905681
0.000461058
0.000459634
0.00688816
0.00714854
0.000947582
0.000460268
0.000474366
0.0156632
0.000456293
0.0209188
0.000482606
0.00433318
0.00046066
0.0019344
0.000459942
0.000490726
0.000545949
0.000494834
0.000632856
0.000467465
0.000454614
0.000457752
0.0051678
0.0124661
0.000830507
0.000460603
0.0155804
0.000455629
0.000457349
0.000458894
0.000463928
0.020785
0.000515615
0.0005017
0.000456439
0.00760977
0.000455167
0.000459501
0.000507327
0.000456524
0.014261
0.00311211
0.000462557
0.022729
0.000452925
0.00080949
0.000459277
0.0229983
0.0183541
0.000459328
0.000453064
0.0228101
0.0221899
0.000483304
0.000461076
0.00206974
0.000460646
0.000459346
0.00045621
0.000491303
0.00500377
0.000820131
0.000459258
0.0062183
0.019029
0.000465686
0.00046452
0.000467801
0.0072351
0.00866279
0.000459459
0.0056135
0.0004604
0.000458217
0.000458542
0.00645702
0.0229521
0.000456475
0.000452807
0.021213
0.000458175
0.000458865
0.000470181
0.000454698
0.000915257
0.000506216
0.00738296
0.000460031
0.0102704
0.000460669
0.0130637
0.000831662
0.000460081
0.00116274
0.00819721
0.000455916
0.000486317
0.000458799
0.00105754
0.000458496
0.000676834
0.000464084
0.0186995
0.000464097
0.00938009
0.000467604
0.000460916
0.000460607
0.000457563
0.000510809
0.000681887
0.0004601
0.000509868
0.000456258
0.000462743
0.00127481
0.000852979
0.00275393
0.000455919
0.000457598
0.000457558
0.0183213
0.000494602
0.000468824
0.000462696
0.0214404
0.0148896
0.000455179
0.0214132
0.000471859
0.000472858
0.000453797
0.000464686
0.000467599
0.000650363
0.000455914
0.0226376
0.000467949
0.000546793
0.000828676
0.000490741
0.0149036
0.0108891
0.0005921
0.0193136
0.000485013
0.000460175
0.0216296
0.000457049
0.000463829
0.000522702
0.000527233
0.000453352
0.000696891
0.000978387
0.000457872
0.00726422
0.0172764
0.0124863
0.000523034
0.000468464
0.00538204
0.000461324
0.000460341
0.00050206
0.00046009
0.000459728
0.000459176
0.000458964
0.000495608
0.00045399
0.000457521
0.0229928
0.0218202
0.000453088
0.000459012
0.0125334
0.00045619
0.000454909
0.000456925
0.000459929
0.01904
0.000454908
0.0115473
0.00822
0.00045942
0.0186375
0.000459076
0.000471194
0.000500723
0.000463272
0.00205745
0.000456139
0.0177513
0.000659938
0.000461414
0.000527233
0.000455273
0.000458422
0.00046121
0.000967453
0.0116225
0.0201198
0.000461405
0.0176092
0.000456493
0.00139775
0.000467331
0.000464703
0.000518161
0.000469182
0.0172283
0.0138656
0.00498217
0.000462863
0.000457893
0.00046508
0.000459384
0.0110462
0.000741252
0.00046016
0.0186012
0.000497026
0.000465207
0.000461198
0.000460169
0.00045755
0.0184439
0.00484056
0.000999092
0.000740597
0.000460975
0.0027439
0.0210166
0.000457172
0.0083398
0.000458223
0.000478466
0.00313502
0.0160567
0.000799514
0.00622833
0.000459471
0.000453931
0.00685066
0.000466543
0.00709943
0.00412439
0.00758939
0.00045402
0.000492091
0.0225466
0.000590509
0.00046102
0.000523387
0.00045645
0.00521771
0.000469593
0.00525754
0.0230559
0.000456444
0.000456193
0.00149263
0.000463945
0.000460753
0.00568143
0.00648815
0.000460362
0.0183273
0.00826956
0.00881175
0.000457257
0.000455465
0.000462885
0.000453568
0.00343958
0.000460225
0.000458554
0.00904923
0.0185031
0.00061581
0.00105305
0.00046016
0.0230183
0.00463097
0.000457402
0.0181681
0.000502088
0.0156812
0.00155346
0.00447913
0.000458729
0.0101484
0.000460573
0.0230168
0.000465005
0.00849831
0.0183653
0.000468296
0.0217503
0.000460509
0.0102857
0.00710071
0.00875651
0.00522263
0.000525145
0.021155
0.0167774
0.00604388
0.000452936
0.0173099
0.00303375
0.000644333
0.000454164
0.00214373
0.000458216
0.00046019
0.00954551
0.000733066
0.000456954
0.000480723
0.0144609
0.00711085
0.0191968
0.000502334
0.0228297
0.0223606
0.000459774
0.00921403
0.000455477
0.000453799
0.00574362
0.000455513
0.00122592
0.00683478
0.000468478
0.000454049
0.000467944
0.00893754
0.00046285
0.000506358
0.00045533
0.0004581
0.000454468
0.00045283
0.000711834
0.00046028
0.00353454
0.000779283
0.000473968
0.000452818
0.0142416
0.0228985
0.021425
0.000452873
0.000563738
0.000557589
0.000451813
0.000457434
0.000459715
0.0226103
0.00115201
0.00475914
0.000459854
0.000473866
0.00621558
0.00046387
0.000489494
0.00790922
0.000460127
0.00544568
0.0121155
0.000461287
0.000602681
0.000814874
0.00763743
0.000454746
0.000498664
0.00108307
0.000699827
0.000460316
0.0187551
0.0113043
0.000464667
0.000467969
0.000582497
0.01922
0.0229673
0.0132121
0.000454858
0.000464377
0.0218706
0.000461053
0.000466398
0.00061086
0.000452689
0.000464311
0.0082201
0.000835033
0.00107754
0.000465898
0.00696476
0.000474737
0.00045817
0.000452708
0.000454119
0.00879741
0.00273189
0.00061928
0.000457624
0.00275469
0.000468789
0.0224878
0.000471418
0.0193814
0.0152046
0.000460353
0.0221582
0.00831174
0.000460677
0.00357763
0.0200812
0.000455537
0.0141285
0.00046506
0.0227775
0.000460283
0.000453602
0.022912
0.000530543
0.000458008
0.000728084
0.0229589
0.0120764
0.000468653
0.000457769
0.000734307
0.0005538
0.0222309
0.000460106
0.000684457
0.000827854
0.000818066
0.00107572
0.000460385
0.0112542
0.0141955
0.000478647
0.0223464
0.00046416
0.000549494
0.000463936
0.000712196
0.000455186
0.0105879
0.000457185
0.000476564
0.000467409
0.000460645
0.000465801
0.000472374
0.0227251
0.00047025
0.000456399
0.0017946
0.0160516
0.0224089
0.0056712
0.00829908
0.00045959
0.0229336
0.0224259
0.0214656
0.000482668
0.00598245
0.000461235
0.000473145
0.000456425
0.0114063
0.000469079
0.0151844
0.000457363
0.00218004
0.00745777
0.0175588
0.000461227
0.0161117
0.000456612
0.000460628
0.00046037
0.000468444
0.000454609
0.000463868
0.000455681
0.000468344
0.00045947
0.0104719
0.00118771
0.000453713
0.000893265
0.0135248
0.00539898
0.000455012
0.00060649
0.000468658
0.000481587
0.0228531
0.0017419
0.000460202
0.00046049
0.000463994
0.000816232
0.000460939
0.00867295
0.00045858
0.000459515
0.000480696
0.000541268
0.000460689
0.000457496
0.0145697
0.00794817
0.00712523
0.0204567
0.00398233
0.000459229
0.000460158
0.000460268
0.00463692
0.000467043
0.000461426
0.000456299
0.00256975
0.000455824
0.0205211
0.000658858
0.000459654
0.000627707
0.000461189
0.000455641
0.00502711
0.0111001
0.000458749
0.000491257
0.000460231
0.000525816
0.000461329
0.00140046
0.00045825
0.000777481
0.00115136
0.000513206
0.000460255
0.0224799
0.000465083
0.00654463
0.000586
0.000487909
0.000471533
0.000648834
0.0230773
0.00046995
0.000632072
0.000561526
0.000640686
0.00631668
0.000464967
0.00110792
0.000460871
0.00699643
0.000456028
0.000471397
0.0111875
0.0173224
0.000890794
0.000555161
0.000458015
0.000457991
0.000452703
0.00992526
0.000457198
0.0178503
0.017001
0.000457463
0.000890807
0.000466537
0.00205475
0.000459714
0.000478257
0.0207233
0.000462458
0.00693094
0.000459797
0.000453736
0.000455088
0.0005458
0.000502282
0.000869938
0.000459996
0.000454923
0.000464493
0.0220071
0.00687342
0.000531252
0.0140852
0.000451519
0.000463098
0.000459691
0.000461399
0.00645907
0.000479321
0.00475829
0.000705343
0.000467523
0.0148255
0.00519719
0.000550254
0.000608736
0.000467673
0.0015039
0.0197431
0.00781074
0.0226919
0.000463775
0.0165014
0.0223271
0.000454002
0.0219098
0.00225049
0.000485168
0.000464662
0.0152972
0.021987
0.000536011
0.000571969
0.0116501
0.00933762
0.0216589
0.000460148
0.000612663
0.0217659
0.000461495
0.000454698
0.0171237
0.000455851
0.000468663
0.00092944
0.0221551
0.000480135
0.000465725
0.000460426
0.0223575
0.0218323
0.0127074
0.000578737
0.0125438
0.00105971
0.0213589
0.000464256
0.00586414
0.000459035
0.000456794
0.000457701
0.00045728
0.000463164
0.000458923
0.00046053
0.00150899
0.000473872
0.0230036
0.0229826
0.00045831
0.00046417
0.000457265
0.00949567
0.0124671
0.00535708
0.000474566
0.00558256
0.000635845
0.0030182
0.000507494
0.00274758
0.000460023
0.00045983
0.000455165
0.000583
0.000454708
0.000468497
0.000459378
0.0218868
0.000459661
0.000460164
0.000458083
0.000604791
0.0217194
0.000571108
0.0148961
0.022194
0.000639672
0.0116449
0.000458465
0.000455096
0.000457019
0.0224254
0.0230492
0.000612663
0.0228665
0.000462924
0.000597304
0.000457121
0.000466842
0.0101472
0.000460967
0.000681513
0.000457563
0.000465374
0.000460876
0.000488937
0.000568739
0.000459848
0.000454579
0.00554192
0.00198389
0.00048183
0.000593596
0.000452794
0.0186413
0.000461424
0.000541038
0.000456473
0.00595727
0.000633861
0.000467132
0.000471693
0.0101117
0.00045872
0.000463165
0.0157927
0.000453532
0.0191281
0.0217641
0.000459855
0.000552165
0.000463503
0.00707699
0.000473982
0.00252069
0.00900797
0.000465603
0.0218814
0.000462961
0.000459135
0.000454527
0.000452592
0.0217966
0.0136626
0.000464674
0.00644444
0.000460675
0.00643963
0.000509079
0.000461404
0.000462995
0.000456438
0.00796128
0.000516559
0.000661215
0.0187116
0.000468115
0.000494938
0.0167384
0.000460168
0.000527617
0.0004677
0.021498
0.0219426
0.000644784
0.00991235
0.00046541
0.000457704
0.000961593
0.000468692
0.000454095
0.0228554
0.0151074
0.000468269
0.000460941
0.000596438
0.000459408
0.000464906
0.00045924
0.0186109
0.000794031
0.000459292
0.000481276
0.00566917
0.00548121
0.000455839
0.00046046
0.000456494
0.0169634
0.000463993
0.00132411
0.00046128
0.000461735
0.0171327
0.00118681
0.000609634
0.000468511
0.000458719
0.000858255
0.00727299
0.000467735
0.000460525
0.000459023
0.000467999
0.00056082
0.00248691
0.000459775
0.00045878
0.000464202
0.000459519
0.000460854
0.00108197
0.000468118
0.000490636
0.000676321
0.000457371
0.000454022
0.00702303
0.00169556
0.00675345
0.000459969
0.000464842
0.000459819
0.00102368
0.00412167
0.00806854
0.000459539
0.000456997
0.000459881
0.000467756
0.00815291
0.000467815
0.0178564
0.0222906
0.0126497
0.000452634
0.00287949
0.00621008
0.00045714
0.000963068
0.000460444
0.000465759
0.0223323
0.000466135
0.00574528
0.0206242
0.000459144
0.0191958
0.000451153
0.0004608
0.00839797
0.000456397
0.0018664
0.000467606
0.000459338
0.000477172
0.000464992
0.00110233
0.000463746
0.0227758
0.000467531
0.000452648
0.000463216
0.000461309
0.000528555
0.000683116
0.0182961
0.000459957
0.0189916
0.000463441
0.000468689
0.000460392
0.000455411
0.000452356
0.0102785
0.000700192
0.000625706
0.000612869
0.000483756
0.000893779
0.000982848
0.000550978
0.0219998
0.00580671
0.014599
0.0185229
0.000463557
0.0147354
0.0221619
0.000457062
0.000464185
0.000461445
0.0223915
0.0201485
0.00705891
0.0173527
0.0186303
0.000462752
0.000668357
0.00462346
0.000518601
0.022008
0.00500842
0.018646
0.000481111
0.006331
0.000460789
0.000470323
0.00577972
0.000708666
0.0107197
0.00542483
0.0219762
0.0219142
0.000670183
0.000495825
0.0229909
0.0224942
0.00731513
0.000456022
0.00050818
0.000680156
0.00594287
0.000458998
0.000465773
0.000451858
0.000608025
0.0170145
0.00112182
0.000453289
0.0193219
0.00966167
0.00045853
0.000935161
0.00433514
0.000454235
0.00219715
0.0060181
0.000458316
0.0225693
0.000464247
0.000460567
0.000458921
0.0190088
0.00192744
0.0222093
0.000774045
0.0151129
0.00278293
0.0186243
0.00045338
0.00047122
0.000456888
0.000460249
0.000454433
0.000555521
0.000457493
0.000458884
0.0226159
0.0146708
0.000457133
0.00045347
0.00259304
0.000456486
0.0213831
0.000468851
0.0209725
0.000461014
0.0178889
0.000484827
0.0101365
0.0216958
0.000455106
0.000510641
0.0224891
0.0196898
0.015713
0.0178391
0.00785584
0.000456679
0.000452941
0.000478032
0.000452176
0.000455007
0.0217619
0.000459712
0.000455757
0.000460025
0.0163137
0.000464383
0.0205334
0.000576034
0.000466727
0.022657
0.000587359
0.000574548
0.000607778
0.000468102
0.000527896
0.00596168
0.000452325
0.0208447
0.000482526
0.000461326
0.000460577
0.00632541
0.00815001
0.00046053
0.000467646
0.000452771
0.000464228
0.000697309
0.0078068
0.000456717
0.000457036
0.000458132
0.00418655
0.00672272
0.00047638
0.000457563
0.000837758
0.000463449
0.00245171
0.000701569
0.000523422
0.000485866
0.00466512
0.000463771
0.000456239
0.00816912
0.000817155
0.0219289
0.0187405
0.000470924
0.000460501
0.0160441
0.0226464
0.000453115
0.00045592
0.000460257
0.000824711
0.000635857
0.000453258
0.000458796
0.0188345
0.000510292
0.0171535
0.000590814
0.00107266
0.0225642
0.000461945
0.000534545
0.0121795
0.000460354
0.0224787
0.0176934
0.000456922
0.0191172
0.000459819
0.000459612
0.000457527
0.000539976
0.000459368
0.000638206
0.000454278
0.000456854
0.0206346
0.01077
0.000454406
0.0211584
0.000468227
0.0186781
0.00045454
0.00149538
0.000453095
0.000731497
0.00195758
0.000460571
0.000471908
0.0111512
0.0170153
0.00609533
0.000612436
0.00933447
0.000460036
0.000463796
0.000469223
0.000467172
0.0101515
0.000459317
0.000459738
0.000711439
0.000459063
0.011037
0.000458144
0.0155316
0.00860533
0.000675088
0.000707263
0.00548564
0.000459377
0.000455503
0.0122546
0.000475617
0.000463068
0.00734428
0.000459604
0.0156549
0.000460506
0.0190889
0.000458469
0.00570931
0.00316468
0.00460811
0.0088765
0.000464766
0.000452907
0.000467246
0.000462751
0.000459991
0.0223438
0.00195783
0.0187544
0.000458835
0.0177194
0.0201719
0.0198504
0.000452277
0.000506784
0.0196392
0.000461081
0.00046398
0.000462741
0.00798543
0.00050484
0.0196707
0.000453325
0.0155661
0.000468894
0.000455247
0.000461035
0.000515718
0.0042322
0.0195792
0.0224791
0.0141304
0.000461289
0.000529634
0.000473246
0.000532358
0.00579029
0.000990883
0.000457395
0.000461262
0.00197026
0.000456459
0.00182977
0.000460646
0.000601089
0.000469739
0.0162548
0.0185988
0.00634485
0.000455201
0.0155244
0.0158112
0.0230436
0.00046727
0.000478728
0.000457118
0.000460006
0.0194932
0.00267637
0.0219313
0.000459906
0.000468446
0.000460077
0.000591783
0.00485855
0.0118156
0.000760364
0.0220569
0.00121008
0.000621132
0.000464106
0.000459647
0.000453867
0.00440557
0.000461742
0.000461155
0.000456843
0.000503445
0.00389483
0.000457675
0.00541542
0.00310205
0.000462893
0.000465787
0.000466953
0.000460877
0.00598617
0.00853448
0.000459167
0.000561866
0.000469129
0.000454606
0.000458667
0.0201239
0.00623252
0.000493953
0.000460624
0.00050537
0.00045809
0.0172743
0.00584772
0.0120099
0.000509647
0.0142687
0.000494764
0.000521022
0.00961733
0.000560776
0.0228347
0.000459868
0.0218484
0.000554322
0.000601819
0.000459832
0.000459497
0.00816207
0.00157688
0.0221915
0.000532158
0.000458221
0.00115388
0.000457526
0.00668149
0.000461653
0.000461712
0.000459
0.000455749
0.000460589
0.000456179
0.00492338
0.0227962
0.000460073
0.000465948
0.000463931
0.000470903
0.000457694
0.000538192
0.000463483
0.000475748
0.000497071
0.000463587
0.000667095
0.0222517
0.0194367
0.000466317
0.000457344
0.000573323
0.000551936
0.000458773
0.000461089
0.00662249
0.00554263
0.000453658
0.0180325
0.00273096
0.000619977
0.000459579
0.00068674
0.000453609
0.0227267
0.000457226
0.000476639
0.00045968
0.00356714
0.00217711
0.00127822
0.000526111
0.000459883
0.0189292
0.000466942
0.000467775
0.00463958
0.00047121
0.00045591
0.00291258
0.000460247
0.000460827
0.0192027
0.00045749
0.000461354
0.000463519
0.000453539
0.000457715
0.00302636
0.00226385
0.000489006
0.0193453
0.000609797
0.000989887
0.0113539
0.000458086
0.000461226
0.0095117
0.000547119
0.00821409
0.000589512
0.0079834
0.000461033
0.00457933
0.00762023
0.00704847
0.000484774
0.000469087
0.0228941
0.016327
0.000903991
0.000463989
0.0191222
0.007983
0.000460516
0.000459567
0.000487805
0.000456983
0.00607475
0.000465729
0.000458791
0.000473966
0.00925098
0.00105824
0.000564888
0.00516315
0.0016209
0.000458296
0.000453733
0.000456122
0.000538424
0.000466819
0.000490579
0.00045703
0.0165193
0.0117464
0.000602774
0.00720656
0.00543098
0.000458397
0.000482684
0.017832
0.000461205
0.0155059
0.000462985
0.000467501
0.00393407
0.000680291
0.000458396
0.00045767
0.0174693
0.000458059
0.000459534
0.000465378
0.00571604
0.000461002
0.000462994
0.00105287
0.0153258
0.00580061
0.000458842
0.000453924
0.0226431
0.000468371
0.000457408
0.000463086
0.000461475
0.00330735
0.000480435
0.0154646
0.000459977
0.000457127
0.000460746
0.000460694
0.000464568
0.00094501
0.0230297
0.00206726
0.000457679
0.000460727
0.00046234
0.0058998
0.000463727
0.000453989
0.000459599
0.00046131
0.0179715
0.000576343
0.00656564
0.0226381
0.0166525
0.00926873
0.000457877
0.0119037
0.0173043
0.00785704
0.0004532
0.000811724
0.00046645
0.000481324
0.00116887
0.000461888
0.000620656
0.0223057
0.000455737
0.002057
0.0177053
0.00548472
0.00718081
0.0130325
0.00494673
0.000563854
0.00846826
0.0218455
0.000467562
0.000666309
0.000456392
0.000456533
0.000587014
0.000464884
0.000456478
0.000860287
0.00046108
0.00431727
0.00614745
0.00254231
0.00706614
0.0142532
0.000468438
0.00214656
0.000453215
0.000466979
0.000632046
0.000460017
0.000483905
0.000462773
0.0142809
0.000465557
0.00228566
0.0073596
0.000466248
0.000500998
0.000458864
0.000460116
0.00368153
0.000478617
0.000464745
0.000457237
0.000456221
0.000457981
0.000463839
0.000459229
0.0004681
0.000458987
0.0224936
0.000460252
0.00880402
0.0168145
0.000461107
0.000457058
0.00620402
0.000456592
0.000463033
0.000482007
0.000457411
0.000503639
0.0198614
0.0225155
0.000453803
0.0167476
0.0161619
0.000469146
0.00724738
0.0169433
0.000461497
0.000456219
0.000456145
0.000463191
0.000459659
0.0222309
0.000657064
0.00170564
0.0191685
0.000457693
0.000455892
0.00945775
0.000455458
0.000461278
0.000457162
0.000464866
0.00960263
0.0128122
0.000612386
0.000521824
0.0222826
0.0133452
0.0229546
0.0105438
0.000458733
0.000460944
0.000491985
0.00123576
0.000658257
0.0142294
0.0147424
0.000459854
0.00045644
0.000466009
0.000451318
0.00223002
0.000458364
0.0004561
0.00999878
0.0155977
0.00159481
0.000460793
0.0142537
0.000478342
0.0104064
0.000463119
0.000596687
0.000454497
0.000459668
0.000459731
0.00455691
0.0163548
0.000470008
0.00627916
0.000461605
0.000463581
0.000469143
0.000461887
0.016156
0.000459359
0.000461161
0.00757222
0.000454764
0.000485975
0.000465597
0.016717
0.000458395
0.00243581
0.000459931
0.00106123
0.000615374
0.00047227
0.000459473
0.00607984
0.000459004
0.000477519
0.00175414
0.000543591
0.000468635
0.000460503
0.00045593
0.000467745
0.00420589
0.000852502
0.0225361
0.0179098
0.000452323
0.00272121
0.000660286
0.0228353
0.00659715
0.000459043
0.000461594
0.000930344
0.000464152
0.000457648
0.00123942
0.00747467
0.0224233
0.014283
0.000465657
0.0225522
0.0119865
0.0103308
0.00045914
0.0218616
0.000684322
0.000468576
0.00665507
0.0216137
0.0147894
0.0121742
0.000459086
0.0128781
0.000461705
0.00161468
0.000461675
0.00045502
0.000456299
0.00101171
0.00348989
0.000552937
0.00218836
0.0109932
0.0218214
0.000460677
0.000460754
0.0074191
0.0221812
0.000468457
0.000459911
0.000922932
0.0145431
0.00577809
0.000470607
0.000468203
0.0059721
0.0156526
0.00118065
0.000666132
0.000457629
0.0218018
0.00691812
0.0168117
0.000480903
0.000465814
0.000453904
0.000488732
0.000772342
0.000458006
0.0010335
0.0115254
0.0179813
0.000483919
0.000461068
0.0165434
0.000456564
0.0218578
0.0132412
0.000487189
0.000458546
0.00168566
0.000461325
0.0222934
0.00953169
0.000460409
0.000454705
0.00045983
0.00312415
0.000468817
0.000455993
0.000454333
0.000495769
0.00232077
0.00101445
0.0142147
0.00109264
0.0225493
0.000586779
0.0221206
0.00048763
0.00048808
0.000459309
0.0183375
0.000496317
0.000455856
0.000465924
0.000457594
0.000516771
0.000458242
0.00046615
0.000456209
0.000458324
0.0200925
0.000474806
0.0224436
0.000494496
0.000588168
0.000457597
0.000474802
0.0225556
0.000890132
0.000596062
0.000458707
0.0142902
0.000459709
0.000482989
0.000545951
0.000464282
0.000491461
0.000452456
0.0102635
0.000670588
0.000558502
0.00046851
0.000456084
0.022584
0.000458947
0.0112703
0.000905445
0.000459084
0.000460471
0.0175135
0.000838866
0.00687857
0.00961726
0.000580643
0.017339
0.000453672
0.000462139
0.000578766
0.000875053
0.000766751
0.000720139
0.0113665
0.00590514
0.0161205
0.000991411
0.0205184
0.000461039
0.000454328
0.000459707
0.0175974
0.000766927
0.0228649
0.0121043
0.0189926
0.000469403
0.0191207
0.000466138
0.000464782
0.000497344
0.000634048
0.0113718
0.000454849
0.000453888
0.00658274
0.0229046
0.000600034
0.0074395
0.000461699
0.000460917
0.000463156
0.00631852
0.000681868
0.0229924
0.000461235
0.000924006
0.000457902
0.000461871
0.00801353
0.000458172
0.000570441
0.000603698
0.0216847
0.0220784
0.0117477
0.022563
0.0214716
0.000880705
0.0228894
0.00694398
0.000469207
0.0054553
0.00970677
0.000474375
0.00765592
0.00131896
0.0223954
0.000460642
0.00276902
0.000707199
0.000481009
0.000457359
0.0182435
0.00104834
0.000452915
0.00408344
0.0147727
0.00046272
0.000483573
0.0120868
0.0172484
0.000463458
0.0170818
0.000461307
0.000928778
0.000908412
0.00046152
0.0109814
0.0197818
0.000456157
0.00078721
0.00750862
0.00056603
0.00076471
0.00435951
0.0146307
0.000456665
0.000465025
0.0183554
0.014625
0.000465957
0.0102542
0.000482509
0.00428897
0.00065128
0.0200293
0.000465526
0.00059001
0.000506606
0.000574422
0.000457721
0.0151707
0.0207489
0.00558561
0.00079891
0.000463773
0.000469851
0.000459534
0.00376939
0.000457466
0.00396525
0.0142477
0.0225899
0.000460053
0.0220985
0.000567753
0.000500866
0.0207539
0.000490148
0.000460948
0.00120066
0.000455186
0.00065999
0.000461653
0.0221873
0.00239518
0.000464213
0.000459284
0.017518
0.00593883
0.000460702
0.000488312
0.000762869
0.00530597
0.000613307
0.000466347
0.000460942
0.000466016
0.0094665
0.000466025
0.000950613
0.022527
0.000456699
0.0226688
0.000564199
0.000458723
0.000554822
0.0193467
0.000895897
0.0231044
0.00590842
0.0124945
0.000460736
0.0223226
0.00558806
0.000459269
0.000859462
0.000672704
0.0126621
0.000457978
0.00247606
0.000456083
0.0138156
0.000460805
0.0197616
0.0200981
0.000651202
0.000493071
0.000575916
0.000456331
0.00046147
0.00045611
0.000457589
0.000491458
0.000465302
0.0221233
0.00637738
0.000488338
0.016462
0.0205264
0.0173668
0.0137792
0.000470056
0.00999951
0.000463165
0.00455649
0.000554955
0.0101671
0.00369896
0.0172399
0.000460036
0.000462974
0.000461245
0.000464965
0.000463131
0.0171487
0.000454561
0.014641
0.0132339
0.00047163
0.000461493
0.00102258
0.000459382
0.000457299
0.000459328
0.000569226
0.000970348
0.021225
0.0186911
0.000457358
0.00045967
0.0171097
0.000462597
0.0220284
0.000452215
0.000909106
0.0194828
0.0155465
0.0055157
0.000543093
0.0114314
0.000457635
0.000454042
0.0183764
0.021733
0.000456175
0.000541606
0.010134
0.0214111
0.000687556
0.0225957
0.000458748
0.000461906
0.00046362
0.0230864
0.000468882
0.000457697
0.000455816
0.000461667
0.000484735
0.000460183
0.000779957
0.000462076
0.000462405
0.000461106
0.00950614
0.00235572
0.000539892
0.0005608
0.000631611
0.000462085
0.00176217
0.00175167
0.000459931
0.00844984
0.000458228
0.00586859
0.000460373
0.00954886
0.0196907
0.000457729
0.00204094
0.00800312
0.000601989
0.000696446
0.000509333
0.000456084
0.0218225
0.00045988
0.0172941
0.000472687
0.0180882
0.000467694
0.000479424
0.000454047
0.00046989
0.0160197
0.00045963
0.000806076
0.0161811
0.0114687
0.0146544
0.000454271
0.0145454
0.000465757
0.0201215
0.000580128
0.000786004
0.000459361
0.000459101
0.0189285
0.0226357
0.00045943
0.0185857
0.000466363
0.00269234
0.00046105
0.0186975
0.0145965
0.0137501
0.00333183
0.000460803
0.00046188
0.000454053
0.0206306
0.00053172
0.00045992
0.000455776
0.000665981
0.00702767
0.0227411
0.00202529
0.0126501
0.0154089
0.000772052
0.00869807
0.000768409
0.0137444
0.0184092
0.000463466
0.00530439
0.0121858
0.00780478
0.000724332
0.000469078
0.000842662
0.00390412
0.000460939
0.0101526
0.000578156
0.000454294
0.000456795
0.00987768
0.011901
0.000490481
0.000604142
0.000570074
0.0222551
0.0226119
0.000465872
0.0115358
0.0226216
0.000458967
0.00147542
0.0212044
0.0014883
0.000460245
0.000465632
0.000727671
0.00417073
0.0223559
0.000469135
0.000455854
0.000454629
0.000458805
0.000459202
0.000611949
0.00369693
0.00072602
0.00532307
0.000533163
0.0197039
0.000455821
0.000454812
0.00331099
0.000541298
0.000457245
0.000465623
0.000462492
0.000866767
0.000478824
0.00045405
0.0171586
0.000562576
0.00710842
0.00126423
0.000459523
0.0174529
0.00047212
0.000571903
0.000459978
0.000663751
0.000985869
0.000749019
0.000459071
0.00333853
0.000465525
0.000456304
0.0210561
0.0052064
0.010595
0.0111945
0.00048753
0.000466619
0.00570631
0.000462959
0.00120248
0.000456598
0.000465432
0.0108382
0.000774419
0.0100821
0.00883159
0.000528446
0.000718545
0.000460097
0.000480201
0.000457132
0.000474993
0.000464258
0.000467268
0.0229156
0.00047005
0.0230655
0.00362587
0.000426564
0.00673532
0.000517182
0.000505622
0.00518506
0.000574763
0.000456698
0.000465627
0.0111924
0.000461413
0.0220632
0.0113365
0.000490607
0.000559961
0.000465687
0.0106482
0.00258005
0.00045644
0.0018082
0.000460063
0.000456595
0.0215335
0.000469504
0.000461258
0.000631963
0.000460035
0.000461651
0.000454886
0.000461954
0.0185305
0.000456128
0.000460571
0.000461347
0.00181083
0.000490265
0.0179114
0.0191571
0.000467962
0.000588351
0.0189086
0.000466057
0.00303463
0.000457561
0.00049753
0.000459813
0.00045866
0.000484342
0.000466879
0.000460604
0.000530349
0.000454097
0.000453505
0.000461542
0.000454748
0.000462196
0.000462425
0.000452183
0.000622372
0.0101969
0.0182804
0.000465386
0.000482027
0.000524035
0.000462907
0.000460564
0.000458535
0.000463895
0.00167967
0.0103309
0.000462758
0.00580943
0.000454764
0.00314521
0.000472979
0.00779814
0.000477992
0.0223801
0.000464025
0.00121004
0.000463492
0.00970815
0.0134447
0.000461453
0.000499773
0.000458783
0.000459473
0.00046159
0.00045745
0.000536226
0.00513502
0.0198214
0.000468425
0.00228388
0.010792
0.0117387
0.00868879
0.000454367
0.000465825
0.000456142
0.00109489
0.00045754
0.000454101
0.000919879
0.000463238
0.000506524
0.00573056
0.000467767
0.000721346
0.000456224
0.000456146
0.000652664
0.0082789
0.0200175
0.00759308
0.00786739
0.0151635
0.0124513
0.0222169
0.000460489
0.000553887
0.000462804
0.00584141
0.000453825
0.000458551
0.000478534
0.000469195
0.0100246
0.000453663
0.000460827
0.00255947
0.000465423
0.000455932
0.000484674
0.00667478
0.000465505
0.000471679
0.000469968
0.000456106
0.00796199
0.000456347
0.000461864
0.000526494
0.000518275
0.00046926
0.000456173
0.000459846
0.00087274
0.0196613
0.00651371
0.00824264
0.000456208
0.0183495
0.000458839
0.000545968
0.000459266
0.000459327
0.000483739
0.000459007
0.000515364
0.0147134
0.000456479
0.000464432
0.000456327
0.00688253
0.000460837
0.000453668
0.000523833
0.0180125
0.0214067
0.0026179
0.0230016
0.00136299
0.000462635
0.00650423
0.000464149
0.000464277
0.000471419
0.000464022
0.000469157
0.0051675
0.00294613
0.00985832
0.000462074
0.000456593
0.005003
0.000469925
0.000568276
0.00045648
0.000456593
0.000538444
0.0146245
0.000550226
0.000518049
0.000482559
0.000488715
0.0223638
0.000464478
0.00399397
0.000468778
0.0171567
0.000453678
0.000460017
0.00850692
0.00125979
0.00740136
0.00129199
0.000454693
0.000876846
0.00287444
0.00798919
0.0061403
0.000513389
0.000464045
0.00131816
0.0219566
0.000477026
0.012281
0.000456492
0.000457785
0.010669
0.0173763
0.000505019
0.00573187
0.00054369
0.00320218
0.00046174
0.00224499
0.00111945
0.000468547
0.00147836
0.0185475
0.000453983
0.00496885
0.000472385
0.000456328
0.000492975
0.0004611
0.000458367
0.0188931
0.00192172
0.00967884
0.0100835
0.000462932
0.0227098
0.000457605
0.000521842
0.00101113
0.00046006
0.000544978
0.000657805
0.0200277
0.000453143
0.000814729
0.00926943
0.000460123
0.000451832
0.000464818
0.00630773
0.000459538
0.0012877
0.00048636
0.000466652
0.000459737
0.00562674
0.000511862
0.00222102
0.000458783
0.000453183
0.000463369
0.00531641
0.0125082
0.00102256
0.000703299
0.00450394
0.00045977
0.0190941
0.000465498
0.000462529
0.000462333
0.00157133