/*--------------------------------*- C++ -*----------------------------------*\
| =========                 |                                                 |
| \\      /  F ield         | OpenFOAM: The Open Source CFD Toolbox           |
|  \\    /   O peration     | Version:  v2012                                 |
|   \\  /    A nd           | Website:  www.openfoam.com                      |
|    \\/     M anipulation  |                                                 |
\*---------------------------------------------------------------------------*/
FoamFile
{
    version     2.0;
    format      ascii;
    class       volScalarField;
    location    "50";
    object      epsilon;
}
// * * * * * * * * * * * * * * * * * * * * * * * * * * * * * * * * * * * * * //

dimensions      [0 2 -3 0 0 0 0];


internalField   nonuniform List<scalar> 
13851
(
1.13953e-06
0.00257311
2.31294e-06
1.12049e-06
2.42277e-06
1.96394e-05
1.60744e-06
1.73187e-06
7.70894e-07
2.57324e-06
4.49225e-06
0.00533396
0.00265268
0.0142616
1.5119e-06
1.51793e-06
1.50262e-06
1.29727e-06
0.000904932
7.72985e-07
1.12549e-06
2.26817e-06
8.01634e-07
8.27548e-07
8.17818e-07
1.73186e-06
1.59013e-06
0.00627158
1.14743e-06
1.32577e-06
0.000204152
1.50056e-06
2.22414e-06
0.000176529
8.30162e-07
6.97968e-06
0.000827018
3.61162e-05
2.94067e-06
0.000198512
1.1226e-06
7.51255e-07
0.00549436
1.23597e-05
1.2383e-05
0.0114324
1.3217e-05
0.000349987
1.59337e-06
2.17003e-06
2.29945e-06
4.66124e-06
0.00681797
1.47523e-06
1.14099e-06
7.50832e-07
7.72946e-07
0.00615699
1.31932e-06
1.55787e-06
2.10522e-05
0.00371198
1.50461e-06
2.77224e-06
5.53921e-06
1.14196e-06
0.0015396
1.34401e-05
1.69066e-06
1.28991e-06
0.00844533
0.0031165
0.00213602
1.49285e-06
1.08357e-06
7.76538e-07
2.18943e-06
0.00573852
1.80388e-06
0.00805429
1.52287e-06
7.8067e-07
1.38373e-06
0.0101701
1.67893e-06
0.00581076
3.7664e-06
0.000959402
1.55397e-06
7.53613e-07
7.02165e-06
1.06338e-06
1.57528e-05
1.58315e-06
1.55948e-06
8.25312e-07
2.46123e-06
0.00397611
2.42514e-06
8.36385e-07
0.0152947
1.87443e-06
1.19248e-06
1.6642e-06
7.87989e-07
6.1112e-06
1.96495e-06
7.46784e-07
0.00498974
3.92382e-05
8.51938e-07
7.55668e-07
1.01291e-06
1.12347e-06
8.42563e-07
0.00063823
0.00402555
7.50308e-07
9.55206e-07
1.14011e-06
0.00561972
1.65099e-06
0.00286383
0.000255416
0.000282497
7.71049e-07
0.000388989
1.83894e-06
1.11314e-06
4.72309e-06
1.12822e-06
8.58631e-07
0.00729033
1.39617e-06
0.000557896
8.67836e-07
7.50817e-07
0.00289377
0.0136625
0.00610247
0.0136848
1.11806e-06
8.0981e-07
7.55256e-07
1.43517e-06
1.22944e-05
7.57892e-07
4.70227e-06
1.60137e-06
1.21169e-05
2.43659e-06
1.09526e-06
0.0158391
7.6953e-07
1.52035e-06
1.42701e-06
9.41884e-07
1.33418e-06
4.62906e-06
2.28222e-06
7.47166e-07
1.63064e-06
0.005875
8.52154e-07
1.38706e-06
7.51764e-07
7.585e-07
1.70124e-06
1.11171e-06
0.00489005
0.00658053
7.44479e-07
9.50484e-07
0.00707067
8.50517e-07
0.000228559
1.81591e-06
8.39333e-07
0.00108567
7.48564e-07
1.50808e-06
0.00347932
1.41053e-06
2.40897e-06
7.46213e-07
7.91819e-07
1.15286e-06
1.09009e-06
2.68087e-06
2.35428e-06
1.45115e-05
0.00617991
7.6021e-07
1.67111e-06
0.0036965
1.50409e-06
8.03162e-07
0.000128772
8.31143e-07
7.79449e-07
7.69672e-07
0.013246
1.18054e-06
1.25308e-06
2.00559e-06
1.41505e-06
0.0134593
1.5213e-06
0.00500986
7.48524e-07
0.00573614
1.19589e-06
9.1422e-05
7.48026e-07
7.56592e-07
1.46772e-06
1.41208e-06
0.00903157
1.46875e-06
0.0050144
1.51322e-06
1.52768e-06
0.00468436
4.37734e-06
0.00628048
8.11635e-07
1.60508e-06
8.004e-07
0.00609136
7.49275e-07
1.71299e-06
0.000652019
7.44886e-07
7.5812e-07
2.14388e-06
1.47544e-06
0.0123935
8.01369e-06
7.56348e-07
1.26283e-06
0.000138415
4.70002e-05
7.50527e-07
2.12608e-06
7.52209e-07
0.00589982
1.88718e-06
0.000164713
1.41402e-06
1.45485e-06
9.20728e-07
7.7397e-05
1.41205e-06
1.42212e-06
1.93501e-06
1.68144e-05
2.24647e-06
0.00318268
0.0166042
1.55178e-06
7.55882e-07
1.27218e-06
0.000891568
7.76025e-07
0.00184677
1.50166e-06
1.41821e-06
1.58159e-06
0.00459729
8.73935e-07
9.14551e-07
1.51455e-06
0.0010391
1.76896e-06
1.50332e-06
8.60603e-07
7.78962e-07
7.87183e-07
0.00697569
4.39291e-06
7.50472e-07
7.49898e-07
7.77894e-07
1.90081e-06
0.000781999
0.000101822
7.77385e-07
1.60841e-06
0.00107193
7.81615e-07
5.39055e-06
1.323e-06
1.54478e-06
1.70443e-06
7.82629e-07
0.00168817
1.39454e-06
0.00537798
8.67327e-07
0.00592215
1.62819e-06
1.49182e-06
0.00677826
1.22938e-06
8.45138e-06
0.00514372
7.78768e-07
1.80732e-06
1.58211e-06
1.31734e-06
0.01331
1.39512e-06
1.39005e-06
0.00447987
7.50905e-07
1.45827e-06
7.65538e-07
0.00692095
3.94529e-06
1.46729e-06
1.91172e-06
1.5141e-06
0.00826113
8.85026e-07
7.85979e-07
9.42281e-07
3.86828e-06
1.59903e-06
1.53561e-06
1.61818e-06
1.24124e-06
1.37744e-06
8.58238e-06
0.0255457
0.00400223
1.27932e-06
0.00673275
0.0031826
1.49459e-06
1.67206e-06
5.36726e-06
1.07837e-06
1.70896e-06
3.73661e-06
0.000976533
9.52017e-07
0.000385434
0.00546073
1.51946e-06
1.00212e-06
9.68782e-07
0.000988587
1.53801e-06
1.84101e-06
0.00616894
9.53242e-07
0.000438176
9.39976e-07
1.53499e-06
7.51362e-07
7.46724e-07
9.41907e-07
0.00553109
0.000106952
1.28548e-06
1.78796e-06
7.49468e-07
0.00469729
1.5495e-06
0.000264833
0.00430674
1.2789e-06
1.25313e-06
1.56863e-06
0.000286065
1.10528e-06
7.52372e-07
9.8322e-07
0.0189079
1.08325e-06
0.0133425
1.07715e-06
4.09059e-06
0.0106805
1.87682e-06
2.16888e-06
8.77879e-07
9.02054e-07
1.53714e-06
1.26577e-06
1.90909e-06
0.0147987
1.71247e-06
0.00629651
0.0052603
7.49842e-07
1.55789e-06
0.00443114
0.00650667
0.000476365
0.00414356
9.8109e-07
1.57406e-06
8.18117e-07
0.00283078
7.48231e-07
1.51673e-06
8.76298e-07
1.55052e-06
7.86493e-07
7.75659e-07
7.51256e-07
2.71445e-06
1.61791e-06
0.00601965
1.27847e-06
1.9644e-06
1.18193e-06
9.90823e-05
1.4529e-06
0.00153512
1.48796e-06
1.25644e-06
7.49277e-07
7.75021e-07
8.00652e-07
0.000366941
0.000125366
4.1179e-06
1.1833e-06
0.00739641
0.000157877
2.13816e-06
1.11915e-06
2.1771e-06
1.10528e-06
0.000113012
7.74728e-07
0.00388021
9.55345e-05
2.09511e-06
0.00484105
8.27488e-07
7.87255e-07
9.551e-05
0.0254589
7.45558e-07
1.59098e-06
1.82295e-06
9.01542e-07
7.47257e-07
1.36558e-06
2.31573e-06
4.05209e-06
1.31828e-06
0.00457369
8.12977e-07
9.47591e-07
0.00519952
1.38656e-06
7.50809e-07
0.00120393
8.97056e-07
1.13735e-06
7.60219e-07
1.50951e-06
1.31587e-06
7.48926e-07
8.2072e-07
0.00438499
1.38246e-06
1.72721e-06
8.75731e-07
1.05697e-06
8.30458e-07
1.16639e-06
1.06806e-06
1.02041e-06
1.02037e-06
1.73959e-05
1.43254e-06
8.40848e-06
1.41872e-06
8.03947e-07
0.0128791
0.00489968
1.43355e-06
1.06077e-06
1.46103e-06
1.48261e-05
0.00966847
9.53526e-07
9.49092e-05
1.11684e-06
2.40331e-06
1.53594e-06
0.00629127
7.48056e-07
0.00754989
2.22136e-06
7.51528e-07
1.0499e-06
0.00388522
1.71827e-06
2.99822e-05
9.55204e-07
0.000114656
1.15376e-06
8.1643e-07
8.55585e-07
1.5922e-06
0.00585702
2.13358e-06
4.50317e-06
0.000977105
1.37671e-06
7.47476e-07
0.00318237
0.000124773
1.51634e-06
1.62875e-06
5.80845e-06
0.000179315
0.00562231
1.46551e-06
0.00650808
0.0124139
0.0128663
1.39705e-06
1.05631e-06
0.000410149
7.88703e-07
9.6088e-06
0.000113895
0.0068517
1.33089e-06
0.00719777
0.00346938
7.47939e-07
7.85994e-07
2.17113e-06
0.00524255
1.40966e-06
1.29022e-06
9.39174e-07
1.18147e-06
2.64915e-06
1.45548e-06
0.000672299
0.0039756
7.93115e-07
0.00518679
0.00454603
7.47178e-05
0.000105764
1.7163e-06
7.5111e-07
7.7198e-07
7.61298e-07
0.00341114
1.52613e-06
2.79047e-06
6.90005e-06
7.50737e-07
1.24328e-06
0.000218265
0.000289411
3.70711e-06
0.00572306
0.00354364
1.11704e-06
1.56145e-06
0.00199754
0.00517747
4.32519e-06
1.71453e-06
2.16939e-06
7.48193e-07
1.14946e-06
0.00453196
7.50219e-07
1.4013e-06
7.48646e-07
9.27205e-07
0.00366583
2.66517e-06
1.15224e-06
7.50012e-07
0.0117382
9.03226e-05
8.86623e-07
7.68941e-07
7.77952e-07
1.529e-06
0.0177749
0.000138947
0.000106556
0.0115738
0.000104013
1.70048e-06
0.00627957
0.00497599
9.58754e-07
1.69022e-06
7.51263e-07
7.67141e-07
1.55142e-06
0.00412464
0.00052196
2.77485e-06
1.55057e-06
7.69049e-07
1.49647e-06
7.91319e-07
3.28742e-05
2.27881e-06
1.41557e-06
1.29309e-06
7.48306e-07
1.59186e-06
4.37722e-06
1.55304e-06
1.09344e-06
1.55866e-06
1.45841e-06
2.43026e-06
0.000210393
4.02551e-06
1.48974e-06
4.59886e-06
7.68745e-07
0.000108276
9.23378e-07
0.0105401
1.20343e-06
8.04763e-07
0.00455822
1.26619e-06
0.0138159
0.00553532
0.00707741
0.00124722
7.49248e-07
0.00362024
7.49724e-07
9.17422e-07
7.47102e-07
9.29397e-07
7.51766e-07
1.27737e-06
1.48449e-06
7.49042e-07
0.00381916
2.29464e-06
0.00404194
9.10347e-07
7.4596e-07
7.68296e-07
5.32265e-06
0.00391673
1.97311e-06
1.59187e-06
7.49535e-07
8.16656e-07
8.04187e-07
9.31416e-07
0.000244216
0.00450655
1.45729e-06
7.4864e-07
1.6044e-06
9.41169e-07
0.0018739
0.00577309
1.50762e-06
0.00379857
0.000120574
1.09313e-06
4.4041e-06
0.0232355
1.70476e-06
0.0057703
1.51408e-06
1.28132e-06
1.95526e-06
1.27082e-06
9.17886e-05
1.42885e-06
0.000370038
7.67104e-07
1.73069e-06
0.00487661
7.74694e-07
1.23922e-06
1.81966e-06
8.19286e-07
1.50131e-06
0.00114288
0.00972133
2.24111e-06
0.00146595
2.46274e-06
7.47397e-07
9.07307e-07
0.0121825
6.49718e-06
1.51943e-06
0.00554773
7.50304e-07
1.76812e-06
7.49107e-07
0.00015622
0.0016814
1.38176e-06
1.1243e-06
8.51586e-07
1.56613e-06
7.66202e-07
0.00576534
4.36378e-05
0.00443799
7.50907e-07
1.4641e-06
0.00591327
0.00578811
5.77224e-06
7.89963e-07
0.00499792
1.40644e-06
1.00032e-06
4.48663e-06
2.20166e-06
1.45137e-06
0.00778618
8.95958e-07
7.87527e-07
0.000636586
8.20083e-07
1.30743e-06
1.32007e-06
7.65057e-07
0.00581294
1.5424e-06
3.73685e-06
1.15432e-06
7.91796e-07
7.72308e-07
0.00115956
8.71043e-07
8.90767e-07
7.47767e-07
1.08178e-06
1.0138e-06
0.00506582
9.44357e-07
7.5458e-07
9.11999e-05
1.56551e-06
0.00500968
7.89463e-07
7.96431e-07
2.26215e-06
0.00301481
0.000106054
7.79632e-07
0.00063056
0.00376338
1.42622e-06
0.00517847
1.7249e-06
7.6093e-07
1.43674e-06
0.00540767
0.000407142
1.43435e-06
7.98561e-07
7.47426e-07
0.000104664
2.42852e-06
1.76005e-06
1.38872e-06
1.3172e-06
1.4719e-06
7.93548e-07
2.77958e-06
0.000137838
2.62494e-06
0.000518835
1.4619e-06
2.42525e-06
2.60558e-06
0.0069206
1.37157e-06
0.00944429
0.000693442
1.57807e-06
0.0176378
6.43616e-05
0.0034238
0.010932
0.0045281
6.4106e-05
1.60669e-06
7.64534e-07
1.25572e-06
0.00657643
0.0136941
9.08122e-07
8.10032e-07
2.18246e-06
7.79168e-07
7.54036e-07
0.00617382
7.49281e-07
1.32004e-06
0.00542856
0.00581227
3.58747e-06
9.08303e-07
1.55263e-06
0.00565255
0.000184868
3.89315e-06
9.5637e-07
0.00357537
0.000244174
0.00372602
1.95536e-06
1.7755e-06
1.37592e-06
1.5439e-06
0.00172571
1.94e-06
0.00707912
8.66746e-07
1.70144e-06
0.00685922
0.0034237
0.0046595
1.46654e-06
1.692e-06
8.79697e-07
1.50131e-06
1.23178e-06
0.00501695
1.75106e-06
0.00578941
7.54668e-07
2.23013e-06
1.12887e-06
9.23825e-06
1.70545e-06
1.68171e-06
0.00388863
1.82315e-06
1.53409e-06
8.39465e-07
2.21631e-06
0.000263049
4.43211e-06
1.38843e-06
0.00665834
7.69669e-07
0.0132044
9.06431e-05
1.34733e-06
0.00584475
0.0176098
0.00483933
5.94004e-05
8.61394e-07
9.32714e-07
0.00436942
1.64679e-06
0.000666262
0.0050964
9.21758e-07
1.60656e-06
0.000265147
8.54839e-05
0.00647856
1.40519e-06
7.59258e-07
0.00263232
0.00493359
3.6953e-06
1.43005e-06
9.53288e-07
8.39532e-05
0.0059833
2.67097e-06
7.54503e-07
1.61887e-06
8.32394e-07
1.01802e-06
1.17367e-06
8.27774e-07
0.00350103
0.000116417
1.31383e-06
8.16481e-07
9.27344e-07
1.32969e-06
0.00672552
0.00385342
1.59199e-06
0.0107275
1.1333e-06
1.58021e-06
9.26767e-07
8.39587e-07
1.26963e-06
1.30282e-06
0.00535021
1.42505e-06
1.9505e-06
1.45774e-06
1.44516e-06
1.48436e-06
0.00489615
9.43093e-07
0.00180375
1.80738e-06
0.00111637
1.55524e-06
1.58852e-06
0.0087186
1.60111e-06
1.45209e-06
0.00488652
0.00103765
0.00686437
1.67609e-06
1.00583e-05
1.19705e-06
1.79723e-06
1.89625e-06
0.00755463
7.87139e-07
0.00640605
9.00878e-07
9.16711e-07
0.0129975
7.67466e-07
0.00181725
1.45374e-06
8.62174e-07
1.24956e-06
8.74633e-07
1.56346e-06
7.4858e-07
1.50817e-06
0.000148124
9.29052e-07
0.000152028
0.00569756
1.86574e-06
0.00886037
1.54119e-06
8.71982e-07
7.657e-07
1.17561e-06
8.67581e-07
2.50695e-06
1.62277e-06
7.99311e-07
1.13251e-06
7.95114e-07
0.00482542
0.00462198
2.72507e-06
0.00420409
0.000307719
1.13573e-06
0.0003664
1.55212e-06
9.34605e-07
7.47895e-05
9.31485e-06
0.000140181
1.09397e-06
1.40557e-05
9.28247e-05
0.0070269
7.46902e-07
0.0026519
1.53427e-06
1.56356e-06
7.48628e-07
7.4765e-07
0.0119366
3.21585e-05
2.09459e-05
7.71618e-07
1.35717e-06
0.000331789
1.35831e-06
0.0024325
7.83586e-05
0.00145217
0.0011241
0.000102605
8.00679e-07
1.23553e-06
1.45395e-06
1.06655e-06
1.63921e-06
4.43922e-06
1.69685e-06
1.62572e-06
9.45035e-07
0.00441338
7.93335e-07
0.00452802
0.00197588
0.000556778
2.90564e-05
1.60855e-06
7.56664e-07
1.11355e-06
3.96091e-05
0.000127463
7.46227e-07
1.21297e-06
7.68459e-07
2.43874e-06
7.5352e-07
7.65686e-07
1.51632e-06
1.65007e-06
0.0013061
1.47524e-06
1.30449e-06
1.024e-06
1.97901e-06
0.00221344
1.64318e-06
0.0196618
0.00228291
2.54571e-06
7.48241e-07
1.82696e-06
1.27662e-06
7.79494e-07
1.10995e-06
0.00559207
3.94208e-06
0.000142574
1.65123e-06
9.34974e-07
1.33448e-06
8.02809e-07
1.20467e-06
0.000265326
0.000278064
7.47193e-07
1.64182e-06
1.69492e-06
0.00527367
1.02046e-06
0.00312624
7.51952e-07
0.0134869
2.23784e-06
0.00500744
2.83098e-06
2.50195e-06
0.000363459
0.00457527
9.4026e-05
0.00967297
7.74148e-07
6.71203e-05
7.53949e-07
1.39735e-06
1.64233e-06
1.4054e-06
0.00470077
1.52256e-06
1.569e-06
7.54054e-05
6.77242e-06
4.49401e-05
1.49018e-06
1.56297e-06
1.38767e-06
7.62719e-07
1.25701e-06
0.00280695
0.000172095
0.00122292
1.04736e-06
1.60387e-06
9.60556e-07
0.000241887
0.00415027
1.24284e-06
7.55889e-07
1.62717e-06
0.00660353
1.69959e-06
0.00844479
0.0032992
4.72723e-06
7.48968e-07
0.00273684
1.24682e-06
1.75642e-06
1.58716e-06
0.00545222
3.67347e-05
3.95985e-06
3.91157e-05
1.20518e-06
1.06173e-06
1.33781e-06
0.00677538
1.56078e-06
0.00467858
8.34121e-07
1.63233e-06
5.45031e-06
1.47634e-06
0.00546431
0.000257658
7.64709e-07
0.000128277
0.00489045
0.000188538
0.00449612
1.24022e-06
1.23897e-06
0.00635742
0.0023633
0.00600079
1.3069e-06
1.58281e-06
1.29595e-06
0.00479981
5.22149e-06
1.4989e-06
1.0764e-05
2.56706e-06
0.0117847
0.0025576
0.000125184
1.52094e-06
0.00461934
1.5674e-06
1.06044e-06
5.22623e-06
0.00393453
1.59513e-06
8.8991e-07
0.00493619
0.00518145
7.74587e-07
1.03371e-06
0.00579826
7.56798e-07
7.61209e-07
1.05592e-06
0.000163919
1.22281e-06
1.9596e-06
0.00105154
0.0042133
1.50668e-06
0.00702826
0.000117235
0.00433143
0.00172933
0.0136479
2.94593e-06
1.19724e-06
0.00195335
1.0406e-06
1.50936e-06
7.6138e-07
0.000154449
1.08303e-06
0.0005336
8.95989e-07
7.87756e-07
0.0055744
2.01021e-06
0.00281872
1.43685e-06
7.69764e-07
8.549e-07
1.69007e-06
0.00280316
0.0137943
8.64566e-07
2.16362e-06
6.35942e-05
1.18986e-06
7.49216e-07
0.00462844
1.67994e-06
1.52126e-06
4.45669e-06
0.00587959
0.000109121
0.00243124
0.00418448
4.79338e-06
1.97934e-06
0.000129152
0.000697413
2.15351e-06
7.47925e-07
4.2438e-06
1.18073e-06
1.10169e-06
0.00403272
0.00475425
1.26409e-06
0.0213658
0.000103982
0.00473482
4.92697e-05
9.62053e-06
1.14917e-06
0.000192649
1.19492e-06
7.61258e-07
1.51081e-06
0.0051644
0.00434276
0.00339085
0.00531221
1.50795e-06
0.00609864
0.00548079
1.67912e-06
1.26237e-06
9.8921e-07
7.81884e-07
1.04501e-06
0.000247244
1.21897e-06
1.5165e-06
1.26957e-06
0.0024521
0.0065505
0.00943648
1.1108e-06
0.00292951
1.36475e-06
1.39827e-06
1.07221e-06
7.61661e-07
0.0062524
1.45047e-06
0.00505873
0.00168083
6.60627e-06
3.7614e-06
1.62667e-06
1.55658e-06
1.2721e-06
5.11769e-06
8.41542e-07
1.45021e-06
1.10804e-06
1.08335e-06
6.35864e-06
1.53733e-06
1.56152e-06
7.62181e-07
1.56157e-06
1.18716e-05
0.00672058
9.65456e-07
1.83688e-06
8.27029e-07
2.46953e-06
7.82872e-07
0.00314312
8.8207e-05
1.70008e-06
1.58916e-06
1.4953e-06
2.01711e-05
1.13219e-06
8.03719e-07
1.58949e-06
7.75768e-07
7.98195e-07
0.00458095
1.56674e-06
1.1383e-06
9.98035e-07
8.03243e-07
2.18998e-06
0.0043
0.00163081
1.6953e-06
1.3555e-06
9.48032e-07
7.48012e-07
8.17386e-07
1.90921e-05
0.00572822
7.82746e-07
1.40071e-06
2.65237e-06
0.00315868
1.52996e-06
1.51212e-06
0.00569914
1.47666e-06
1.36991e-06
0.000373254
0.00669053
1.21623e-06
7.82902e-07
1.27169e-06
0.0061869
4.46432e-06
1.6712e-06
3.83846e-06
0.00963364
1.57969e-06
0.0061179
0.00998974
1.11584e-06
0.00260129
2.54359e-06
1.38727e-06
0.00697143
1.47008e-06
9.16158e-07
7.4654e-07
6.26896e-06
6.43982e-06
6.53027e-06
1.42732e-06
1.64673e-06
1.71638e-06
0.000119168
0.000605965
0.00637697
5.94249e-05
1.57431e-06
4.5107e-06
4.53842e-06
0.00570013
2.16238e-06
7.82339e-07
1.05294e-06
9.94307e-07
7.48142e-07
9.14002e-06
1.46895e-06
1.26734e-06
0.00388171
8.24994e-05
1.57875e-06
8.11006e-07
7.48109e-07
7.97131e-07
1.73375e-06
1.56147e-06
0.000167019
2.14625e-06
2.02637e-06
1.81063e-06
3.63793e-06
0.011142
2.00408e-06
0.00622877
9.61349e-07
8.24041e-07
7.50087e-05
0.010014
0.00592907
4.95148e-05
8.12507e-07
0.00547319
5.77638e-05
7.76938e-07
1.62415e-06
9.58477e-07
1.77785e-06
2.26752e-06
7.84925e-07
0.00597815
0.000452116
1.52099e-06
0.0034507
0.00649143
1.52568e-06
2.27072e-06
0.0135123
0.00538215
1.56512e-06
2.40786e-06
7.49941e-07
1.32538e-06
7.60048e-07
1.41977e-06
0.00633356
0.00375183
0.00702591
0.00857502
1.60564e-06
1.48323e-06
1.72147e-06
7.65444e-07
1.10832e-06
7.48222e-07
0.00411914
1.01409e-06
0.00560026
1.48728e-06
1.44051e-06
4.42504e-06
0.000108145
0.00542445
0.00338975
1.76608e-06
7.50015e-07
7.62586e-07
0.00296847
0.00180909
1.55478e-06
9.31452e-07
7.5614e-07
1.98887e-06
1.53366e-06
5.37894e-06
0.0116537
1.63441e-06
7.47079e-07
3.98112e-06
8.63391e-07
0.00698949
0.000925706
1.03838e-06
2.26835e-06
1.11241e-06
0.00684086
7.53994e-07
0.00607774
7.77856e-07
1.63831e-06
1.24995e-06
1.55737e-06
2.01652e-06
1.61649e-06
1.82741e-06
0.00694133
0.00434531
1.54885e-06
1.55792e-06
1.15406e-06
0.00318743
0.00726238
8.09917e-07
7.50135e-07
6.67654e-05
7.47241e-07
0.00592121
7.85374e-07
1.3323e-06
2.07735e-06
9.16801e-05
1.46823e-06
1.06158e-06
1.63071e-06
2.28843e-06
0.00522402
1.19054e-06
5.96986e-06
0.0239606
0.000808031
0.000575756
1.46434e-06
0.0045176
1.68278e-06
0.000396599
1.34306e-06
6.18657e-05
5.51878e-05
0.00668576
0.00621302
0.0116374
7.64055e-07
7.26024e-06
8.78237e-07
0.00840898
9.30993e-05
0.00500526
0.00653594
1.44249e-06
0.011648
0.000395042
1.47751e-06
1.26305e-06
1.53911e-06
0.00528596
1.44461e-06
2.28083e-06
1.07261e-06
1.19125e-06
8.4445e-07
1.31827e-06
0.0038514
0.000113637
1.5164e-06
0.00689899
0.00200213
7.70274e-07
1.34723e-06
7.53783e-07
1.03193e-06
0.00600749
0.000163955
1.40876e-06
1.40169e-06
0.000154259
2.2669e-06
1.79112e-06
0.00717532
1.50622e-06
0.00603405
1.71315e-06
1.29128e-06
1.34029e-06
1.06967e-06
2.23304e-06
0.000120174
5.35487e-05
0.00530865
2.11539e-06
0.00677788
8.63768e-07
1.52649e-06
8.46659e-07
0.00774942
0.0101708
0.000132322
1.42609e-05
1.55236e-06
1.34964e-06
9.50836e-07
1.57893e-06
7.49154e-07
0.00608502
1.5129e-06
0.00700914
1.47693e-06
0.00341675
0.00487856
0.00582203
1.05902e-06
1.62014e-06
0.00610081
1.52346e-06
0.000994219
0.00564632
8.0987e-07
2.76022e-06
1.55463e-06
0.0233257
0.00678124
1.49512e-06
6.52007e-06
0.000184907
9.74253e-07
1.60694e-06
1.6557e-06
0.00779509
0.000111398
1.52478e-06
1.60925e-06
4.73813e-05
0.000792866
4.45041e-06
0.000687821
4.25974e-06
1.03989e-06
7.90773e-07
0.00437657
0.00566396
2.23349e-06
1.68131e-06
0.00396053
0.0112386
8.84772e-07
1.46821e-06
1.52733e-06
0.00503576
0.0045452
1.42343e-06
0.00547505
1.56794e-06
9.91366e-07
1.25362e-06
0.0119233
0.000639626
1.43931e-06
0.005941
1.26826e-06
1.44006e-06
1.01733e-06
0.00975461
1.20626e-06
0.00698602
1.13529e-06
0.00325361
1.61574e-06
1.17426e-06
4.02783e-06
0.00603405
6.72301e-05
1.53279e-06
0.00331888
7.50215e-07
1.40913e-06
1.4708e-06
1.70463e-06
2.10413e-06
2.11232e-06
1.41505e-06
0.00479116
1.56463e-06
4.4982e-06
8.29468e-05
0.0108197
8.95344e-07
0.00504639
0.00517857
1.67786e-06
0.000130201
2.1983e-06
0.0116031
1.42234e-06
1.95278e-06
8.06465e-07
0.00149726
0.00777649
2.26114e-06
0.00571571
1.25891e-06
1.92697e-06
1.26247e-06
0.0051663
7.52702e-07
9.45028e-07
0.000306446
2.52676e-06
0.0105669
0.00271125
2.18237e-06
1.53076e-06
7.46716e-07
0.00264406
1.23863e-06
7.61228e-07
5.3944e-06
7.48752e-07
1.78207e-06
1.33173e-06
0.000846292
1.16438e-06
1.53959e-05
4.12752e-05
1.23196e-06
0.000338318
1.75175e-06
0.00691448
1.07187e-06
0.00088927
0.00523715
7.88095e-07
1.37636e-06
1.38367e-06
1.60917e-06
1.64568e-06
9.58308e-07
2.8524e-06
2.41627e-06
8.92173e-07
2.44134e-06
1.11832e-06
1.47758e-06
7.48039e-07
0.00370692
1.41185e-06
1.13645e-06
0.000287802
1.62727e-06
0.00342984
0.00560573
2.77811e-06
1.13848e-06
1.54021e-06
1.42379e-06
1.55828e-06
1.14019e-06
7.52794e-07
1.61608e-06
0.00546151
0.00627242
0.00109368
1.41372e-06
0.00556456
2.68837e-06
1.63025e-06
8.138e-07
0.00443775
1.44586e-06
1.59136e-06
1.43027e-06
0.00412574
0.00784711
0.000406032
7.52386e-07
1.50165e-06
9.42911e-07
1.58944e-06
4.41029e-06
1.19462e-06
1.49288e-06
0.00558812
0.00592019
7.84477e-07
1.59067e-06
1.6548e-06
0.00795835
7.47556e-07
0.00733702
0.00683157
3.31065e-05
0.000939633
0.00391511
0.00904114
9.74715e-07
0.000386407
3.48984e-06
1.61643e-06
7.46028e-07
9.5729e-07
0.00559036
0.0052345
0.00618213
7.90028e-07
0.00619403
1.40119e-06
5.38153e-06
7.49382e-07
1.38425e-06
1.58566e-06
7.83097e-07
0.00853964
1.64813e-06
0.00504527
0.0117597
0.00700866
1.70689e-06
1.9709e-06
0.00741302
0.00508913
9.05485e-07
0.00616352
7.49808e-07
7.51927e-07
1.35179e-06
7.82375e-07
7.56894e-07
0.00685261
1.21892e-06
4.59059e-06
1.43357e-06
0.00590816
0.00703062
2.41343e-06
7.7925e-07
1.7333e-06
2.15934e-06
0.00792282
8.85555e-07
7.47202e-07
1.23855e-06
0.00393236
1.00431e-06
5.73944e-06
0.00629155
1.75844e-06
1.93789e-06
9.01267e-07
2.64851e-05
1.52579e-06
0.00614983
7.48073e-07
0.00529759
1.70926e-06
1.4659e-06
0.00652771
0.00644342
7.55416e-07
2.21488e-06
1.43777e-06
0.00601234
1.20225e-06
4.66299e-06
3.09148e-06
1.48111e-06
1.72434e-06
0.00365248
7.60389e-07
7.78124e-07
9.34731e-07
2.43814e-06
1.67883e-06
0.00750756
0.00420188
1.44993e-06
0.00512676
1.51312e-06
1.7484e-06
0.00403339
0.00615652
1.44588e-06
0.00450547
0.000236578
1.62348e-06
1.70201e-05
4.29831e-06
1.67006e-06
1.62475e-06
0.00337812
7.54587e-07
0.0193
1.29809e-06
3.36109e-06
1.48317e-06
1.28998e-06
0.00474494
1.759e-06
0.00355256
1.54259e-06
1.49881e-06
1.69725e-06
0.0033917
1.66912e-06
0.00529326
0.0002572
0.00716333
1.21702e-06
0.00325145
0.00186077
0.00944246
1.50809e-06
7.60917e-07
1.00203e-06
0.00560581
8.31319e-07
3.71346e-05
1.75987e-05
1.44842e-06
7.60799e-07
1.46853e-06
0.0085806
0.00314385
0.0152497
0.00716958
1.02047e-06
0.00361601
0.00488751
4.52246e-06
0.00518728
0.00463646
1.39684e-06
0.0199265
1.58856e-06
1.66734e-06
0.00384877
0.00284522
7.80488e-07
0.0221475
1.12178e-06
1.42954e-06
0.012959
0.00428238
0.00602623
0.00857709
1.49122e-06
1.47427e-06
1.18809e-06
0.00510552
0.00618898
1.21426e-06
1.89496e-06
0.000160267
1.48425e-06
1.36071e-06
0.00405814
0.0125091
1.38765e-06
1.56122e-06
1.61057e-06
1.26732e-06
0.000437039
1.59721e-06
7.98826e-07
1.41927e-06
4.64292e-06
0.0101787
2.26391e-05
0.0034567
1.44231e-06
1.36733e-06
0.00450842
0.00503432
1.37601e-06
0.000221446
1.45543e-06
1.65588e-06
1.06599e-06
7.80654e-07
1.99143e-06
8.21028e-07
0.000711124
1.45088e-06
7.80107e-07
1.36071e-06
0.00218342
0.0042862
0.00476747
1.48767e-06
1.41809e-06
0.00532365
0.000222222
1.57878e-06
8.82715e-07
1.62434e-06
2.95636e-06
1.35209e-06
7.98718e-07
1.52325e-06
1.36307e-06
0.0046395
4.16488e-05
1.44431e-06
1.46126e-06
7.49758e-07
1.21101e-06
0.00251816
1.18457e-05
2.2561e-06
0.005307
1.57496e-06
1.48758e-06
1.42795e-06
1.44657e-06
1.00951e-06
1.47694e-06
1.18901e-06
2.01393e-06
0.00397174
9.41814e-07
3.48489e-06
0.00464479
1.71344e-06
1.12333e-06
9.54985e-07
1.61506e-06
0.00944997
1.00563e-06
0.00138901
0.000667939
1.39587e-06
7.71268e-07
0.00639749
7.57517e-07
4.1581e-06
7.57473e-07
7.56795e-07
1.01236e-06
7.61739e-07
1.08096e-06
0.00282767
0.000202876
1.63218e-06
0.00335949
3.72526e-06
7.78197e-06
1.66818e-06
0.00434604
0.00538572
3.41154e-06
0.00562163
0.00422731
3.71801e-06
2.6782e-05
1.57989e-06
7.54603e-07
0.00289718
1.00478e-06
1.47774e-06
0.013245
7.07413e-07
0.0042572
6.30815e-05
8.23023e-07
7.69733e-07
1.3559e-06
1.29507e-06
7.48946e-07
1.04541e-06
0.0115092
0.00392824
0.000860412
1.32104e-06
7.52391e-07
2.30562e-06
0.0192848
0.0047667
3.69716e-06
0.00134918
9.52974e-07
0.00192736
0.00579801
5.08298e-05
1.31147e-06
1.32396e-06
7.49815e-07
1.25211e-06
1.11536e-06
1.06604e-06
1.47415e-06
0.00456447
2.40255e-06
0.00490118
1.46398e-06
0.00132105
7.03894e-06
1.34026e-06
7.68015e-07
7.96015e-07
7.57905e-07
1.57609e-06
2.09041e-05
0.00368927
0.000572241
0.00614862
1.64527e-06
0.00757079
5.27694e-06
0.00535591
0.00562356
1.20834e-06
7.62258e-07
1.62027e-05
1.28827e-06
7.5503e-07
9.69467e-05
0.00470232
0.00235762
1.36765e-06
1.39372e-06
8.58888e-07
1.59305e-06
0.00245272
7.51409e-07
1.18614e-06
0.000676101
7.48818e-07
0.000145169
1.58295e-06
0.0118381
1.49123e-06
0.000416403
0.0166017
1.49016e-06
0.00494952
3.63553e-06
0.00520411
7.54459e-07
1.40363e-06
8.75107e-07
1.49515e-06
0.00865111
8.00535e-07
0.00551173
7.97035e-07
8.45516e-07
1.58552e-06
0.00600964
1.79906e-06
3.59478e-06
0.000295935
7.57389e-07
1.57335e-06
0.0075534
1.74241e-06
7.54436e-07
9.77748e-07
1.25565e-06
1.50804e-06
8.87563e-07
7.76493e-07
0.00653367
0.00604831
0.00564089
0.000800211
0.000762217
0.00767992
2.29788e-06
0.0064783
4.52086e-06
7.54703e-07
7.70978e-07
7.48301e-07
1.22949e-06
0.00526342
0.00515828
7.63696e-07
0.0051419
0.00640406
1.69683e-06
9.34128e-07
1.61074e-06
0.00346252
0.00388371
0.00469113
0.000649286
0.00482964
7.4698e-07
0.000264437
3.10092e-06
9.38762e-06
0.00407614
1.39648e-06
4.40798e-06
0.00746285
1.47036e-06
0.0134471
1.21605e-06
1.13059e-06
0.00763508
0.00566296
2.41174e-06
1.52614e-06
0.00562494
4.42583e-06
0.00589179
0.00580814
0.00457474
3.71208e-06
0.00290414
1.3875e-06
1.00735e-06
1.83736e-06
0.0055149
3.54445e-05
0.00538152
8.06977e-07
3.64934e-06
1.97952e-06
8.40473e-07
0.00438904
1.4381e-06
4.49714e-06
0.00493221
1.46666e-06
0.0112547
0.00715203
0.00598969
0.00323603
0.000898237
5.48504e-06
9.25556e-07
0.00541594
7.91473e-07
7.69638e-07
1.73898e-06
1.51375e-06
0.00539316
1.55035e-06
1.49073e-06
1.49099e-06
7.59683e-07
0.00307396
1.40045e-06
3.81602e-06
1.95969e-05
7.96839e-07
0.00590019
3.11405e-06
9.23301e-07
0.00922375
0.000319583
1.47891e-06
0.00144201
1.47307e-06
0.00629876
2.23375e-05
7.67642e-07
3.81823e-06
1.40995e-06
0.00573245
0.0049505
2.29297e-06
0.00133792
1.15729e-06
1.62828e-06
0.0132591
1.62738e-06
9.89944e-07
0.00228758
1.83303e-06
9.69323e-07
7.82087e-07
4.50952e-06
1.3738e-06
0.00477148
0.000298419
6.13087e-07
0.0109509
1.98031e-06
1.97134e-06
9.20814e-07
0.00588768
0.00710135
0.0110457
1.50956e-06
7.60557e-07
2.25496e-06
1.47929e-06
9.37644e-05
9.94754e-07
0.000194967
8.8409e-07
3.37453e-06
7.92343e-07
4.75586e-07
2.23651e-05
3.73995e-06
0.00573693
0.00142371
0.00430693
0.00481578
7.52528e-07
0.00123091
0.00157529
0.00576194
7.73094e-07
1.97452e-05
0.00661068
0.00655493
3.80658e-06
0.000790709
0.00073737
0.00621015
1.8882e-06
0.000255743
7.80116e-07
1.84821e-06
1.84733e-06
1.39831e-06
2.27496e-06
0.0105176
4.1763e-06
0.00662948
0.00170617
1.21076e-06
8.68427e-07
1.1333e-06
1.40072e-06
0.000769813
7.52724e-07
8.26154e-07
0.00674296
8.52042e-05
1.34352e-06
3.15105e-06
8.41238e-07
2.43763e-06
0.00586307
0.00524489
0.00583859
1.6706e-06
0.00510763
1.03897e-06
7.56148e-07
1.64202e-06
0.00461475
0.000150212
0.000222866
9.9295e-05
1.5273e-06
8.18711e-07
1.39296e-06
1.59104e-06
1.61437e-06
0.013509
0.00177787
1.52185e-06
0.00453735
0.00475011
1.55964e-06
0.0165086
1.44645e-06
1.58024e-06
2.07847e-06
1.4782e-06
7.84083e-07
1.54386e-06
1.53903e-06
0.00361267
0.00531815
7.53425e-07
1.81871e-06
1.54017e-06
2.05614e-06
0.00944845
0.00986679
0.00607447
9.92432e-07
2.60971e-06
0.00600988
2.56889e-06
3.80835e-06
2.42045e-05
0.00336937
0.00641048
0.00657118
7.49714e-07
0.00278171
7.58267e-07
1.14344e-06
1.33812e-06
1.95618e-06
0.00630466
0.00675861
0.000207364
0.0068613
1.8892e-06
7.55673e-07
9.41076e-07
1.37866e-06
1.07765e-06
1.78086e-06
0.0063874
0.00654443
2.45385e-06
0.000467364
1.21596e-06
1.87146e-06
8.26779e-07
0.00593596
2.03196e-06
9.90437e-07
5.49825e-06
3.17771e-06
0.0039289
0.00547878
4.47946e-06
0.00560331
1.44129e-06
0.011261
0.000176125
0.003828
9.80219e-05
1.04011e-06
1.85225e-06
1.39806e-06
0.00392303
0.00627871
1.66635e-06
0.0119901
0.000166331
0.0133955
2.04716e-06
6.68522e-05
1.44877e-06
1.00819e-06
3.96115e-06
1.80791e-06
1.53839e-06
1.83439e-06
1.56019e-06
1.54083e-06
0.00875396
6.40144e-06
1.32074e-06
1.48993e-06
1.66751e-06
1.45764e-06
9.31385e-07
0.00831815
3.51872e-06
9.63348e-06
0.0130686
1.37383e-06
0.00538464
1.60517e-06
1.19686e-06
1.37562e-06
0.00523491
1.52244e-06
0.00617751
0.0136456
1.91863e-06
1.383e-06
3.86646e-06
0.0050176
4.69461e-06
0.00164453
1.27343e-06
1.88023e-06
7.63971e-07
0.00579709
0.000207804
1.26468e-06
7.86045e-07
1.50615e-06
1.59944e-06
1.42834e-06
1.92079e-06
1.80928e-06
1.416e-06
1.4579e-06
0.00590905
0.0189417
3.67383e-06
1.74871e-06
7.50163e-07
0.00431753
1.66826e-06
2.16706e-06
0.000271238
1.85725e-06
0.00504604
7.54008e-07
1.59236e-06
1.17435e-06
1.44395e-06
1.18004e-06
0.00586249
1.11837e-05
0.00213004
1.48454e-06
0.00469453
9.85813e-05
1.6105e-06
0.0048297
2.19174e-06
7.6528e-05
0.00806489
1.47303e-06
1.51237e-06
1.82384e-06
2.07752e-06
1.0262e-06
0.000713487
0.00583268
7.26072e-05
1.00901e-06
0.000117076
0.000911757
0.00103037
1.32377e-06
1.7796e-06
7.91949e-07
1.49867e-06
0.00288863
1.50377e-06
1.53097e-06
9.70382e-07
9.58752e-07
0.0020439
0.00448952
1.06964e-06
0.00326258
6.05334e-05
7.55291e-07
7.67462e-07
0.0058712
3.60897e-06
3.20405e-06
1.41309e-06
1.53411e-06
3.08617e-06
8.04072e-07
9.78326e-07
0.0112243
1.55885e-06
0.00578761
2.60524e-06
1.57817e-06
0.00621844
3.75029e-06
5.3046e-06
1.00729e-06
8.11061e-05
1.69184e-06
1.5548e-06
0.00301099
1.74697e-06
1.20509e-06
2.4279e-06
1.54214e-06
1.01692e-06
7.56772e-07
0.00258909