/*--------------------------------*- C++ -*----------------------------------*\
| =========                 |                                                 |
| \\      /  F ield         | OpenFOAM: The Open Source CFD Toolbox           |
|  \\    /   O peration     | Version:  v2012                                 |
|   \\  /    A nd           | Website:  www.openfoam.com                      |
|    \\/     M anipulation  |                                                 |
\*---------------------------------------------------------------------------*/
FoamFile
{
    version     2.0;
    format      ascii;
    class       volScalarField;
    location    "50";
    object      k_0;
}
// * * * * * * * * * * * * * * * * * * * * * * * * * * * * * * * * * * * * * //

dimensions      [0 2 -2 0 0 0 0];


internalField   nonuniform List<scalar> 
13851
(
7.52725e-05
0.0234306
0.000118138
7.46099e-05
0.000121076
0.00018128
8.9744e-05
9.6036e-05
6.13993e-05
0.000128862
0.000194852
0.0315893
0.015986
0.0505096
8.69169e-05
8.83312e-05
8.70111e-05
8.09084e-05
0.00683479
6.13969e-05
7.47516e-05
0.000116401
6.30335e-05
6.45857e-05
6.37219e-05
9.61737e-05
8.95104e-05
0.00695996
7.55258e-05
8.1472e-05
0.00266448
8.70124e-05
0.000114964
0.00406201
6.46262e-05
0.00025753
0.006244
0.000725953
0.000141694
0.00455454
7.44468e-05
6.05853e-05
0.0124906
0.00046892
0.000480723
0.0267859
0.000487826
0.00575193
8.9625e-05
9.3426e-05
0.000116038
0.000191078
0.0203371
8.58146e-05
7.52305e-05
6.05594e-05
6.1789e-05
0.0260236
8.12678e-05
8.8296e-05
0.000630942
0.0213611
9.14631e-05
0.000133405
0.000243574
7.55318e-05
0.00969642
0.000480286
9.34102e-05
8.06926e-05
0.0144304
0.0163555
0.0209798
8.63503e-05
7.30625e-05
6.15095e-05
0.00011351
0.0148187
9.81521e-05
0.0159432
8.72977e-05
6.23962e-05
8.2992e-05
0.0264095
9.52576e-05
0.0323516
0.000100968
0.0089582
8.85877e-05
6.07273e-05
0.000258923
7.42893e-05
0.000551469
8.96861e-05
8.87149e-05
6.43323e-05
0.000122523
0.0221961
9.88679e-05
6.47118e-05
0.0503358
0.000100521
7.69291e-05
9.16241e-05
6.20658e-05
0.000144323
0.000103874
6.03015e-05
0.0237138
0.00040671
6.58113e-05
6.08547e-05
7.13007e-05
7.65092e-05
6.53709e-05
0.00867613
0.0226689
6.05195e-05
6.87555e-05
7.5347e-05
0.0120915
9.12473e-05
0.0171588
0.00442894
0.00472114
6.18521e-05
0.00641099
9.93791e-05
7.42969e-05
0.000191609
7.46471e-05
6.47527e-05
0.0162271
8.33779e-05
0.00754266
6.51294e-05
6.05538e-05
0.0154731
0.050437
0.0238887
0.0472691
7.43956e-05
6.29357e-05
6.08464e-05
8.48048e-05
0.000456489
6.10051e-05
0.000192276
8.95746e-05
0.000485186
0.000119947
7.36903e-05
0.053203
6.16392e-05
8.73318e-05
8.45273e-05
6.79438e-05
8.16256e-05
0.000190189
0.000115399
6.03281e-05
9.1046e-05
0.0251167
6.44805e-05
8.37977e-05
6.06156e-05
6.10452e-05
9.37114e-05
7.42413e-05
0.016939
0.0135029
6.01495e-05
6.8286e-05
0.0268326
6.44172e-05
0.00384149
9.85033e-05
6.40676e-05
0.00816653
6.04179e-05
8.72713e-05
0.017973
8.38212e-05
0.000121531
6.02688e-05
6.27577e-05
7.58848e-05
7.33343e-05
0.000130557
0.000121635
0.000502686
0.0223956
6.1147e-05
9.28593e-05
0.0218095
8.68226e-05
6.26681e-05
0.00290117
6.37025e-05
6.15749e-05
6.1766e-05
0.0225881
7.75024e-05
7.88159e-05
0.000107982
8.39597e-05
0.0527773
8.7569e-05
0.0226615
6.04121e-05
0.0283986
7.70373e-05
0.00212764
6.03915e-05
6.09251e-05
8.70171e-05
9.27358e-05
0.0253562
8.5604e-05
0.0233908
8.73874e-05
8.74496e-05
0.0251622
0.000183301
0.0300566
6.34477e-05
9.05013e-05
6.25507e-05
0.0261571
6.047e-05
9.5417e-05
0.00583453
6.01718e-05
6.10186e-05
0.000110224
8.8491e-05
0.0502151
0.000266745
6.09132e-05
7.91398e-05
0.00187011
0.00116479
6.05412e-05
0.000112529
6.06396e-05
0.0286581
0.000101108
0.00362248
8.41392e-05
8.56448e-05
6.80269e-05
0.00175148
8.39363e-05
8.44149e-05
0.000102378
0.000292517
0.000117825
0.0168508
0.00733499
8.80939e-05
6.08825e-05
8.00236e-05
0.0128843
6.21284e-05
0.0123591
8.67514e-05
8.41266e-05
8.95466e-05
0.0247181
6.43546e-05
6.79368e-05
8.71569e-05
0.013107
9.68633e-05
8.77778e-05
6.48288e-05
6.22837e-05
6.27266e-05
0.0318953
0.000197377
6.05377e-05
6.05072e-05
6.16778e-05
0.000101105
0.0116427
0.001808
6.1528e-05
8.97536e-05
0.0136816
6.24628e-05
0.000228069
8.13268e-05
8.79726e-05
9.40441e-05
6.25347e-05
0.0113794
8.39559e-05
0.0296594
6.50743e-05
0.0288674
9.09044e-05
8.66431e-05
0.0313286
7.80914e-05
0.000176298
0.0266492
6.14999e-05
9.77573e-05
8.96292e-05
8.11389e-05
0.0494252
8.40247e-05
8.32569e-05
0.0244952
6.0565e-05
8.58055e-05
6.15116e-05
0.0315558
0.000170003
8.55555e-05
0.000101809
8.69619e-05
0.0114646
6.78093e-05
6.24439e-05
6.79747e-05
0.000167234
9.02215e-05
8.77787e-05
9.00307e-05
7.84768e-05
8.28531e-05
0.000346434
0.0612251
0.017414
8.06296e-05
0.0310266
0.0198197
8.63884e-05
9.29238e-05
0.000231453
7.42918e-05
9.7248e-05
0.000164534
0.00759956
6.86834e-05
0.00614765
0.027567
8.71378e-05
6.8285e-05
6.73531e-05
0.00812577
8.78414e-05
0.000108664
0.0269694
6.83823e-05
0.00665724
6.78878e-05
8.75992e-05
6.05888e-05
6.03001e-05
6.79463e-05
0.0278663
0.0024765
7.98901e-05
9.69503e-05
6.04741e-05
0.0275478
8.99829e-05
0.00450229
0.0172556
7.96819e-05
9.51792e-05
8.92474e-05
0.00484041
7.38458e-05
6.06483e-05
7.03342e-05
0.0526015
7.31024e-05
0.0501888
7.43251e-05
0.00017458
0.0181268
9.40592e-05
0.00010287
6.59929e-05
6.64139e-05
8.7724e-05
8.00727e-05
0.000101623
0.0508492
9.40268e-05
0.0300725
0.0270105
6.04962e-05
8.8269e-05
0.0170293
0.0172397
0.00428982
0.0232736
7.10745e-05
8.95097e-05
6.39671e-05
0.0179532
6.03779e-05
8.82173e-05
6.58198e-05
8.80727e-05
6.20205e-05
6.14358e-05
6.0583e-05
0.000131156
9.44411e-05
0.0142888
8.03597e-05
0.000103716
7.80701e-05
0.00223985
8.57026e-05
0.0112391
8.65319e-05
7.94586e-05
6.04556e-05
6.14162e-05
6.32103e-05
0.0037481
0.00292618
0.000175819
7.75771e-05
0.0121994
0.00367585
8.88661e-05
7.46049e-05
0.000111415
7.38558e-05
0.00249964
6.16098e-05
0.0239576
0.00227484
0.000110388
0.020857
6.35843e-05
6.27522e-05
0.00226231
0.0532977
6.02318e-05
9.00937e-05
9.88824e-05
6.50787e-05
6.03166e-05
8.24764e-05
0.000115796
0.000173704
8.2021e-05
0.0312173
6.34927e-05
6.81843e-05
0.0197169
8.3868e-05
6.05632e-05
0.0108175
6.62149e-05
7.52022e-05
6.1074e-05
8.90275e-05
8.10192e-05
6.04407e-05
6.3296e-05
0.0241217
8.29448e-05
9.46962e-05
6.54122e-05
7.28482e-05
6.42368e-05
7.79823e-05
7.25478e-05
7.23817e-05
7.24112e-05
0.000275332
8.45647e-05
0.000113307
8.40692e-05
6.32851e-05
0.046074
0.0199163
8.4535e-05
7.31001e-05
8.59765e-05
0.000411655
0.0267856
6.84182e-05
0.00232672
7.4255e-05
0.000120641
8.76477e-05
0.0268224
6.03814e-05
0.0192386
0.000116584
6.0604e-05
7.27811e-05
0.0193661
9.57645e-05
0.000992615
6.86885e-05
0.00214581
7.57499e-05
6.30152e-05
6.46459e-05
8.92988e-05
0.0199877
0.000110086
0.000185979
0.00731034
8.96647e-05
6.03474e-05
0.0191857
0.00278425
8.75469e-05
9.09767e-05
0.000162981
0.0031585
0.0277857
8.56809e-05
0.0274011
0.0272905
0.0239798
8.41326e-05
7.29736e-05
0.00710489
6.27949e-05
0.000215545
0.00261275
0.0350127
8.15573e-05
0.0358838
0.0184342
6.03742e-05
6.26967e-05
0.000111473
0.0170318
8.40419e-05
8.00191e-05
6.78363e-05
7.64577e-05
0.000129162
8.72463e-05
0.00662319
0.0286264
6.20934e-05
0.0177378
0.0200073
0.00107936
0.00244937
9.43152e-05
6.0582e-05
6.13986e-05
6.12212e-05
0.0202819
8.75062e-05
0.000132435
0.000258903
6.05535e-05
8.22799e-05
0.00379699
0.00323521
0.000163817
0.0207761
0.0186495
7.4254e-05
8.84038e-05
0.0179965
0.0266767
0.000181115
9.40853e-05
0.000101124
6.03936e-05
7.53464e-05
0.0259825
6.05188e-05
8.37558e-05
6.04232e-05
6.73851e-05
0.0193372
0.00012958
7.64039e-05
6.05065e-05
0.0466613
0.00203315
6.5801e-05
6.15884e-05
6.22623e-05
8.74704e-05
0.0502033
0.00319948
0.00248667
0.0229549
0.00196516
9.35058e-05
0.014681
0.0209761
6.89725e-05
9.34083e-05
6.05906e-05
6.16112e-05
8.94751e-05
0.0230734
0.00828363
0.000131803
8.88297e-05
6.14013e-05
8.76354e-05
6.24454e-05
0.0010694
0.000115522
8.39809e-05
8.11618e-05
6.03792e-05
8.98343e-05
0.000183106
8.81571e-05
7.34271e-05
9.02775e-05
8.53195e-05
0.000121545
0.00234681
0.000174033
8.75085e-05
0.000188307
6.1418e-05
0.000943245
6.84564e-05
0.0225911
7.72773e-05
6.35757e-05
0.0220879
7.95222e-05
0.0194308
0.0276543
0.0247342
0.0113537
6.04379e-05
0.0184236
6.04917e-05
6.70144e-05
6.03224e-05
6.74521e-05
6.06197e-05
8.03704e-05
8.80802e-05
6.04436e-05
0.0236811
0.000120844
0.0244881
6.67527e-05
6.02577e-05
6.15421e-05
0.000209167
0.0232417
0.000103573
8.98692e-05
6.04789e-05
6.38431e-05
6.25856e-05
6.75599e-05
0.00270047
0.0296751
8.52833e-05
6.04189e-05
8.96621e-05
6.7914e-05
0.0139856
0.0233518
8.80615e-05
0.0210633
0.00221862
7.34269e-05
0.000183525
0.0549004
9.39818e-05
0.0332431
8.70348e-05
8.02922e-05
0.000102966
7.99692e-05
0.00211988
8.43866e-05
0.00638542
6.1328e-05
9.41551e-05
0.0226308
6.18586e-05
7.85648e-05
9.52513e-05
6.31458e-05
8.70307e-05
0.0150534
0.0359813
0.000114158
0.0102466
0.000111856
6.03451e-05
6.66461e-05
0.0430411
0.000239106
9.02381e-05
0.0278097
6.05338e-05
9.53491e-05
6.04477e-05
0.00294929
0.0105092
8.33907e-05
7.45746e-05
6.49671e-05
8.88244e-05
6.14353e-05
0.018487
0.000575368
0.0224622
6.05654e-05
8.54791e-05
0.0148853
0.0162097
0.000221186
6.23494e-05
0.0245468
8.36977e-05
7.01836e-05
0.00019986
0.000114293
8.54763e-05
0.0252635
6.67179e-05
6.25601e-05
0.00493724
6.42381e-05
8.24092e-05
8.11477e-05
6.13462e-05
0.0203007
8.89162e-05
0.000164636
7.63965e-05
6.28741e-05
6.13981e-05
0.0151591
6.54519e-05
6.65165e-05
6.03612e-05
7.3019e-05
7.06139e-05
0.0263032
6.80314e-05
6.07982e-05
0.00134326
8.85124e-05
0.0172792
6.21833e-05
6.25127e-05
0.000114412
0.0192614
0.00236103
6.18776e-05
0.00804835
0.0213564
8.43741e-05
0.0266856
9.39396e-05
6.11173e-05
7.63478e-05
0.0144594
0.00526237
8.50563e-05
6.22749e-05
6.03416e-05
0.00238919
0.000122705
9.91653e-05
8.36934e-05
7.37634e-05
8.58015e-05
6.24624e-05
0.000131809
0.00286563
0.000128478
0.00827864
8.54231e-05
0.000121492
0.000126634
0.0313895
8.3074e-05
0.0441768
0.00573507
8.88955e-05
0.0270617
0.000513428
0.0206875
0.038815
0.0244996
0.00181263
9.18162e-05
6.13187e-05
7.9663e-05
0.027817
0.0274236
6.66957e-05
6.3554e-05
0.000111765
6.23333e-05
6.07591e-05
0.0198102
6.04662e-05
8.10008e-05
0.0207045
0.0147556
0.000145975
6.66752e-05
8.812e-05
0.0180836
0.00216215
0.000168695
6.87721e-05
0.0189592
0.0025592
0.0225713
0.000103472
9.65334e-05
8.28124e-05
8.7877e-05
0.0176637
0.00010212
0.01658
6.85075e-05
9.37155e-05
0.0216401
0.0204894
0.0183557
8.55499e-05
9.30759e-05
6.55343e-05
8.79489e-05
7.82989e-05
0.0319692
9.55977e-05
0.0265811
6.08021e-05
0.000113241
7.46492e-05
0.000401511
9.3716e-05
9.27805e-05
0.0214193
9.81648e-05
9.02069e-05
6.50503e-05
0.000112867
0.00436147
0.000124591
8.33655e-05
0.0137387
6.17315e-05
0.0412838
0.00223037
8.18889e-05
0.0287906
0.0528134
0.0182608
0.00176548
6.78672e-05
6.76215e-05
0.021663
9.19478e-05
0.00927715
0.0229778
6.71595e-05
8.98364e-05
0.00274928
0.00190551
0.03548
8.36832e-05
6.1088e-05
0.0232749
0.0225898
0.000163786
8.48594e-05
6.86202e-05
0.00214532
0.0241347
0.000129076
6.07937e-05
9.21743e-05
6.36725e-05
7.11693e-05
7.33386e-05
6.44186e-05
0.0218369
0.00270552
8.08049e-05
6.3172e-05
6.74068e-05
8.14884e-05
0.0147697
0.0187383
9.01139e-05
0.0471086
7.48004e-05
8.97806e-05
6.7395e-05
6.39543e-05
7.93985e-05
8.0446e-05
0.0183964
8.42759e-05
0.000102826
8.52925e-05
8.53704e-05
8.2282e-05
0.0146381
6.82431e-05
0.0165184
0.000101049
0.00804768
8.93397e-05
9.03504e-05
0.0150005
9.00781e-05
8.72919e-05
0.0314626
0.0134324
0.0204619
9.37117e-05
0.000412418
7.70656e-05
9.7191e-05
0.00010134
0.0386963
6.24745e-05
0.0301058
6.6393e-05
6.69879e-05
0.047497
6.16252e-05
0.0119925
8.5581e-05
6.48811e-05
8.08167e-05
6.5338e-05
8.84437e-05
6.04184e-05
8.68487e-05
0.00194546
6.74436e-05
0.00198236
0.0236908
0.000102663
0.0360927
8.77965e-05
6.55874e-05
6.15267e-05
7.62609e-05
6.50904e-05
0.000123119
9.02316e-05
6.23396e-05
7.48772e-05
6.28716e-05
0.0172009
0.0302467
0.00010702
0.023344
0.00324151
7.48759e-05
0.00672343
8.88571e-05
6.76375e-05
0.00200871
0.000188107
0.00293038
7.34464e-05
0.00050958
0.00199406
0.0301185
6.02946e-05
0.0161053
8.85507e-05
8.87309e-05
6.04213e-05
6.03533e-05
0.0496295
0.000286661
0.000320067
6.1681e-05
8.21564e-05
0.00550575
8.22438e-05
0.0163789
0.00202844
0.0129745
0.00829097
0.00260259
6.31885e-05
7.82559e-05
9.84527e-05
7.32558e-05
9.09104e-05
0.000221238
9.45157e-05
9.03149e-05
6.82792e-05
0.0293812
6.21034e-05
0.0167253
0.0124538
0.00793895
0.000664171
8.98942e-05
6.09203e-05
7.41872e-05
0.00130978
0.00272481
6.02543e-05
7.86885e-05
6.15296e-05
0.000120922
6.07303e-05
6.13926e-05
8.71128e-05
9.21254e-05
0.00859148
8.82914e-05
8.15154e-05
7.10026e-05
0.000103592
0.0143052
9.08613e-05
0.0257185
0.0151462
0.00012434
6.03982e-05
9.84158e-05
7.9575e-05
6.21866e-05
7.40708e-05
0.0147933
0.000170118
0.00321755
9.1257e-05
6.78998e-05
8.14364e-05
6.26269e-05
7.72648e-05
0.00486966
0.00375652
6.03291e-05
9.18598e-05
9.65376e-05
0.0206036
7.22364e-05
0.0244104
6.06303e-05
0.0524297
0.000116072
0.0257826
0.000133503
0.000122999
0.00374687
0.0208538
0.00239163
0.0190649
6.18397e-05
0.00089093
6.07567e-05
8.36694e-05
9.12164e-05
8.37007e-05
0.0209813
8.80981e-05
8.9275e-05
0.00201935
0.000292931
0.000879174
8.62452e-05
8.86891e-05
8.36286e-05
6.13009e-05
7.9864e-05
0.0238098
0.00319906
0.0139232
7.1779e-05
9.01896e-05
6.89688e-05
0.00419233
0.0233457
9.71123e-05
6.08714e-05
9.03519e-05
0.0270207
9.50246e-05
0.0394617
0.020187
0.000132452
6.04461e-05
0.0155792
7.94423e-05
9.64479e-05
8.98901e-05
0.0275474
0.00123275
0.000172302
0.000469772
7.73529e-05
7.28831e-05
8.15607e-05
0.0192474
9.1777e-05
0.0201327
6.42442e-05
9.09437e-05
0.000213338
8.59717e-05
0.027527
0.00269858
6.11859e-05
0.00164992
0.0233568
0.00228268
0.0221906
7.84188e-05
7.83646e-05
0.0149838
0.0151681
0.0252871
8.08881e-05
8.90338e-05
8.02354e-05
0.0174333
0.000204108
8.65671e-05
0.000209899
0.000127764
0.0488225
0.0148484
0.00213206
8.71622e-05
0.0230539
8.88931e-05
7.22842e-05
0.000203896
0.0229586
8.93637e-05
6.5963e-05
0.0127399
0.0266168
6.20627e-05
7.12994e-05
0.0271459
6.08468e-05
6.12153e-05
7.20766e-05
0.00291449
7.7839e-05
0.000103259
0.0121207
0.0235087
8.68834e-05
0.0161408
0.00273407
0.0265555
0.011447
0.0530037
0.000101539
7.69657e-05
0.0135098
7.27688e-05
8.68272e-05
6.12148e-05
0.00317752
7.30631e-05
0.00443853
6.62153e-05
6.25644e-05
0.0142933
0.000107331
0.0193804
8.48156e-05
6.17034e-05
6.46118e-05
9.32282e-05
0.0155343
0.0482665
6.50013e-05
0.000111311
0.00178001
7.67858e-05
6.04655e-05
0.022352
9.31234e-05
8.86262e-05
0.000184741
0.0219286
0.00144209
0.0138703
0.0208465
0.000132719
0.000106365
0.00277468
0.00773677
0.000111053
6.03707e-05
0.000179215
7.64082e-05
7.36973e-05
0.0270455
0.0225474
7.9402e-05
0.0590058
0.00100164
0.0163505
0.000733275
0.000192082
7.53578e-05
0.00178548
7.29131e-05
6.12161e-05
8.70151e-05
0.0267532
0.0230448
0.026353
0.0267818
8.86685e-05
0.0282842
0.0277194
9.28683e-05
7.91701e-05
6.96899e-05
6.2485e-05
7.17039e-05
0.00261717
7.78746e-05
8.71337e-05
7.95732e-05
0.0154491
0.0303485
0.0357937
7.4112e-05
0.0163649
8.28136e-05
8.42745e-05
7.26705e-05
6.10648e-05
0.0250995
8.56829e-05
0.0212505
0.0171582
0.000153796
0.000164398
9.02687e-05
9.03169e-05
7.94839e-05
0.000202323
6.42028e-05
8.52139e-05
7.40262e-05
7.32303e-05
0.00023106
8.77599e-05
8.9814e-05
6.12711e-05
8.98554e-05
0.000550863
0.0152401
6.88281e-05
9.92557e-05
6.35448e-05
0.00010533
6.25894e-05
0.0194199
0.0011245
9.34109e-05
8.94557e-05
8.65906e-05
0.000412627
7.47922e-05
6.3306e-05
8.92059e-05
6.16309e-05
6.25555e-05
0.0248326
8.90858e-05
7.53295e-05
7.09033e-05
6.27929e-05
0.000111278
0.023802
0.0112575
9.37108e-05
8.21176e-05
6.7215e-05
6.03775e-05
6.3099e-05
0.000510616
0.0265744
6.19017e-05
8.44455e-05
0.000135708
0.0172999
8.74945e-05
8.69982e-05
0.0256217
8.59887e-05
7.65738e-05
0.00371113
0.0304006
7.76206e-05
6.25933e-05
7.94203e-05
0.029759
0.00018459
9.37778e-05
0.000167253
0.0357059
8.9035e-05
0.0287169
0.043974
7.42473e-05
0.0162826
0.000124299
8.32633e-05
0.0261613
8.56665e-05
6.7009e-05
6.02851e-05
0.000272404
0.000164987
0.000240229
8.44855e-05
9.0961e-05
9.37217e-05
0.00261253
0.00506025
0.0298439
0.00171609
8.88313e-05
0.000185775
0.000189416
0.0220291
0.000113309
6.2531e-05
7.19821e-05
7.06091e-05
6.03797e-05
0.000212729
8.72976e-05
7.92836e-05
0.0259085
0.0010673
9.00476e-05
6.32017e-05
6.03869e-05
6.25699e-05
9.72293e-05
8.97057e-05
0.00271794
0.000110908
0.000107798
0.00010056
0.000164106
0.0478545
0.000100554
0.0295756
6.86873e-05
6.33346e-05
0.00121228
0.0345439
0.0204152
0.000714331
6.36461e-05
0.0142781
0.00169483
6.18841e-05
9.07318e-05
6.8536e-05
9.66726e-05
0.00011474
6.26867e-05
0.0220884
0.00397074
8.7327e-05
0.0210033
0.0131381
8.73245e-05
0.00012158
0.0496362
0.0203082
8.87512e-05
0.000119289
6.05118e-05
8.14822e-05
6.11373e-05
8.45453e-05
0.0301304
0.0196096
0.0193086
0.0172713
8.98101e-05
8.73876e-05
9.7054e-05
6.1236e-05
7.39974e-05
6.03824e-05
0.0229613
7.05879e-05
0.0275631
8.78748e-05
8.77721e-05
0.000215639
0.0014732
0.0156576
0.0183556
9.62809e-05
6.05066e-05
6.13265e-05
0.0167065
0.0114999
8.85437e-05
6.75183e-05
6.09236e-05
0.000106096
8.84632e-05
0.000209753
0.0487007
9.06416e-05
6.03227e-05
0.000170777
6.55353e-05
0.0146085
0.0108291
7.14605e-05
0.000115262
7.41389e-05
0.0315929
6.07663e-05
0.0286514
6.22595e-05
9.07512e-05
7.97265e-05
8.8309e-05
9.8377e-05
9.08582e-05
9.8795e-05
0.0297789
0.0233806
8.84252e-05
8.91483e-05
7.55186e-05
0.0175727
0.0305166
6.28818e-05
6.05132e-05
0.00185392
6.03284e-05
0.0207536
6.20804e-05
8.25395e-05
0.000109883
0.00109628
8.74772e-05
7.24897e-05
9.04076e-05
0.000115119
0.0269246
7.6744e-05
0.000175615
0.061291
0.00863967
0.00528288
8.67305e-05
0.0171438
9.23124e-05
0.0039583
8.17119e-05
0.0016921
0.00161982
0.0228852
0.0248415
0.0498315
6.14146e-05
0.000176251
6.54882e-05
0.012768
0.00228469
0.0262044
0.0283253
8.54162e-05
0.0488805
0.00566693
8.73097e-05
7.93272e-05
8.77473e-05
0.0215413
8.53488e-05
0.000114843
7.37635e-05
7.68082e-05
6.41684e-05
8.09639e-05
0.0220865
0.00161975
8.80265e-05
0.027715
0.0129286
6.1796e-05
8.18465e-05
6.0748e-05
7.18724e-05
0.0280918
0.00207962
8.4235e-05
8.52173e-05
0.00204335
0.000116792
9.74591e-05
0.0175195
8.76815e-05
0.0292719
9.3656e-05
8.08054e-05
8.16204e-05
7.34157e-05
0.00011399
0.00253824
0.00142127
0.0232958
0.00011099
0.0300562
6.53093e-05
8.76663e-05
6.48507e-05
0.0214357
0.033734
0.0024076
0.000256666
8.83429e-05
8.19424e-05
6.82637e-05
8.88951e-05
6.04384e-05
0.0171965
8.77696e-05
0.0206544
8.69888e-05
0.0209118
0.0275484
0.0285927
7.096e-05
9.05622e-05
0.025989
8.92354e-05
0.00966769
0.0232922
6.27552e-05
0.000101121
8.87544e-05
0.0498558
0.0183456
8.7853e-05
0.000153365
0.00407119
6.94804e-05
9.34934e-05
9.20481e-05
0.0218624
0.00257321
8.75948e-05
8.97932e-05
0.00132647
0.00707247
0.000184914
0.010076
0.000179804
7.22297e-05
6.2118e-05
0.0238679
0.0258229
0.000116118
9.27896e-05
0.0225883
0.0441005
6.57557e-05
8.55907e-05
8.7673e-05
0.0263473
0.0247316
8.42111e-05
0.0173733
8.86467e-05
6.97655e-05
7.88886e-05
0.0186296
0.00592613
7.63166e-05
0.0195526
7.94985e-05
8.48682e-05
7.07031e-05
0.0220512
7.74105e-05
0.0285956
7.51708e-05
0.0266016
9.00081e-05
7.61938e-05
0.000173155
0.0164474
0.00186908
8.90702e-05
0.0207252
6.0523e-05
8.38017e-05
8.56743e-05
9.50575e-05
0.000109355
0.000109541
8.55594e-05
0.0248935
8.87848e-05
0.000177955
0.000900806
0.0467776
6.62316e-05
0.0203355
0.0238838
9.21476e-05
0.00278468
0.000111849
0.0423174
8.42226e-05
0.000106247
6.2689e-05
0.0134599
0.0138119
0.000116059
0.0283737
7.92392e-05
0.000101723
7.927e-05
0.0179062
6.06768e-05
6.80218e-05
0.00560601
0.000126738
0.0377662
0.0152485
0.000111112
8.82213e-05
6.03016e-05
0.0244196
7.9263e-05
6.12134e-05
0.000209473
6.043e-05
9.71149e-05
8.13734e-05
0.00868078
7.60511e-05
0.000540982
0.00110184
7.91364e-05
0.0031889
9.78695e-05
0.0317953
7.26845e-05
0.0103621
0.0343915
6.18897e-05
8.27707e-05
8.31854e-05
8.98333e-05
9.27355e-05
6.85551e-05
9.14259e-05
0.000119842
6.60832e-05
0.000107399
7.43244e-05
8.59309e-05
6.03695e-05
0.0196029
8.38847e-05
7.49315e-05
0.00310994
9.0572e-05
0.0274708
0.0279845
0.000131774
7.53198e-05
8.90109e-05
8.43962e-05
8.83654e-05
7.56744e-05
6.06783e-05
9.02551e-05
0.0200617
0.0296433
0.00775177
8.40512e-05
0.0220931
0.000167908
9.04335e-05
6.35809e-05
0.0240688
8.49032e-05
8.94878e-05
8.44306e-05
0.0209189
0.0277856
0.00769164
6.06537e-05
8.68836e-05
6.82549e-05
8.92265e-05
0.000185192
7.69249e-05
7.87751e-05
0.0152404
0.0286641
6.16906e-05
8.95063e-05
9.13332e-05
0.022432
6.03533e-05
0.0278218
0.0226806
0.000650715
0.0126343
0.0170068
0.0414291
6.93836e-05
0.00728053
7.88333e-05
9.00987e-05
6.02547e-05
6.85085e-05
0.0279807
0.0195524
0.0239
6.25309e-05
0.0297098
8.35668e-05
0.000231368
6.04589e-05
8.32413e-05
8.9191e-05
6.16434e-05
0.0281517
9.10206e-05
0.0291488
0.0452385
0.0270823
9.54403e-05
0.000103402
0.0267632
0.0265088
6.66397e-05
0.0146455
6.04798e-05
6.06198e-05
8.19944e-05
6.20371e-05
6.0926e-05
0.0297388
7.85623e-05
0.000156262
8.62299e-05
0.0219074
0.0293867
0.000131018
6.15644e-05
9.74185e-05
0.000113339
0.0263825
6.5887e-05
6.03071e-05
7.85825e-05
0.0271056
7.03116e-05
0.000203846
0.027726
9.61411e-05
0.000104136
6.64603e-05
0.000685363
8.73767e-05
0.0287616
6.03936e-05
0.0168972
9.3646e-05
8.55449e-05
0.0286892
0.0259794
6.08484e-05
0.000112252
8.50285e-05
0.022916
7.27267e-05
0.000173214
0.000119468
8.60453e-05
9.721e-05
0.0207261
6.11397e-05
6.19324e-05
6.78981e-05
0.000120534
9.29131e-05
0.0249956
0.0190889
8.50524e-05
0.0204395
8.7062e-05
9.6251e-05
0.0228608
0.0269124
8.64442e-05
0.0207796
0.00264969
9.02115e-05
0.000495952
0.000180663
9.24745e-05
9.03474e-05
0.0206751
6.07969e-05
0.0368008
7.53906e-05
0.00015491
8.60358e-05
8.09267e-05
0.0201369
9.65925e-05
0.0216992
8.79087e-05
8.68022e-05
0.000144457
0.0205304
9.19937e-05
0.027183
0.00398421
0.0306656
7.76777e-05
0.0198571
0.0129169
0.0295843
8.67961e-05
6.11971e-05
7.01934e-05
0.0280917
6.36046e-05
0.000960063
0.000478998
8.50466e-05
6.11796e-05
8.55954e-05
0.0265516
0.0164262
0.0506679
0.0291645
7.08238e-05
0.0195155
0.0256346
0.000186375
0.0204216
0.0209244
8.49018e-05
0.0329211
8.94098e-05
9.19121e-05
0.0197119
0.0173827
6.24392e-05
0.060364
7.44875e-05
8.44154e-05
0.0519726
0.0191298
0.0282348
0.0130068
8.73166e-05
8.5841e-05
7.70045e-05
0.0259436
0.0253549
7.75262e-05
0.000100547
0.0033243
8.60876e-05
8.22943e-05
0.0224475
0.0442804
8.3302e-05
8.83667e-05
8.99297e-05
7.94362e-05
0.00722425
8.94795e-05
6.23593e-05
8.45488e-05
0.000234123
0.0381146
0.000374406
0.0208417
8.48226e-05
8.28542e-05
0.0226993
0.026212
8.34767e-05
0.00193022
8.52019e-05
9.26155e-05
7.26177e-05
6.24574e-05
0.000106769
6.329e-05
0.0111926
8.62724e-05
6.15953e-05
8.26198e-05
0.0145387
0.0304856
0.0181637
8.61862e-05
8.54053e-05
0.0270697
0.00414034
8.91744e-05
6.57516e-05
9.02099e-05
0.000145503
8.20327e-05
6.29197e-05
8.78852e-05
8.23419e-05
0.0229653
0.000619311
8.4925e-05
8.57073e-05
6.04906e-05
7.74724e-05
0.022919
0.000262266
0.000114585
0.0219084
9.20763e-05
8.62396e-05
8.43601e-05
8.49525e-05
7.04581e-05
8.59136e-05
7.72897e-05
0.00010875
0.0226878
6.81326e-05
0.000156631
0.0181723
8.51011e-05
7.44705e-05
6.84076e-05
9.01862e-05
0.0430872
7.03241e-05
0.0110849
0.00540135
8.6152e-05
6.18294e-05
0.0133543
6.09845e-05
0.000124052
6.09961e-05
6.09408e-05
7.0616e-05
6.12327e-05
7.41505e-05
0.0170901
0.00195152
9.22581e-05
0.020364
0.000140104
0.000224704
9.25623e-05
0.0192895
0.0219898
0.000154423
0.0314035
0.0230672
0.000163383
0.000711605
8.89743e-05
6.07819e-05
0.021042
7.02689e-05
8.61718e-05
0.0526408
6.11675e-05
0.024942
0.000899315
6.32944e-05
6.17794e-05
8.21368e-05
7.51977e-05
6.04313e-05
6.98156e-05
0.0403984
0.0223343
0.0114258
8.1044e-05
6.06601e-05
0.000116126
0.0554482
0.0231959
0.000166082
0.00880653
6.83405e-05
0.0114179
0.0220568
0.000646419
8.09509e-05
8.11362e-05
6.04979e-05
7.90249e-05
7.42249e-05
7.24901e-05
8.60841e-05
0.0222481
0.000119843
0.0207904
2.60412e-05
0.00983094
0.000259473
8.16239e-05
6.1547e-05
6.31842e-05
6.10255e-05
8.88707e-05
0.000431786
0.0227837
0.00878977
0.0296388
9.10255e-05
0.0302706
0.000202739
0.0273475
0.0238759
7.73781e-05
6.1199e-05
0.000516117
7.99946e-05
6.0824e-05
0.00194462
0.0230782
0.0136036
8.25032e-05
8.33246e-05
6.51092e-05
9.10416e-05
0.0161238
6.05829e-05
7.69325e-05
0.00556214
6.04809e-05
0.0032026
9.06968e-05
0.0500633
8.63484e-05
0.00376745
0.0516236
8.78166e-05
0.0254272
0.000161578
0.0214932
6.07967e-05
8.40318e-05
6.53667e-05
8.7327e-05
0.0172541
6.30529e-05
0.0225087
6.32739e-05
6.42706e-05
8.90892e-05
0.0292793
9.76525e-05
0.00015997
0.00554485
6.09895e-05
9.1373e-05
0.0283876
9.76396e-05
6.0771e-05
6.94952e-05
7.89383e-05
8.97249e-05
6.5926e-05
6.15069e-05
0.0307446
0.0288869
0.0281967
0.00691244
0.00606892
0.0317237
0.000115356
0.0305246
0.000178488
6.08074e-05
6.14579e-05
6.0395e-05
7.80986e-05
0.0264612
0.0262778
6.13924e-05
0.0195415
0.0301464
9.31128e-05
6.7809e-05
9.12226e-05
0.0212471
0.0218032
0.0224557
0.0063497
0.0232818
6.03136e-05
0.0029663
0.000144956
0.00030054
0.0205248
8.33786e-05
0.000183246
0.031042
8.68442e-05
0.0476251
7.76689e-05
7.23498e-05
0.0319637
0.0265087
0.00011932
8.83523e-05
0.0145361
0.000183831
0.0269305
0.0284208
0.0228484
0.000163358
0.0180822
8.31354e-05
7.07472e-05
9.90597e-05
0.0181537
0.000968614
0.0214457
6.36429e-05
0.000163991
0.000107323
6.51218e-05
0.023646
8.46758e-05
0.000185767
0.0172189
8.55504e-05
0.0491251
0.0368941
0.0284428
0.019964
0.0074063
0.000156628
6.73189e-05
0.0269473
6.29947e-05
6.17474e-05
9.56132e-05
8.72349e-05
0.02418
8.83495e-05
8.77977e-05
8.65528e-05
6.1074e-05
0.0195862
8.36887e-05
0.000166683
0.0005861
6.22305e-05
0.0216768
0.000145246
6.73952e-05
0.0264605
0.00331103
8.59057e-05
0.0122546
8.58259e-05
0.0298855
0.000481633
6.16382e-05
0.000165394
8.4013e-05
0.0279313
0.0234248
0.000115924
0.0138222
7.61246e-05
9.03248e-05
0.0528213
9.05846e-05
6.97538e-05
0.0133177
9.81239e-05
6.89586e-05
6.16789e-05
0.000188949
8.28466e-05
0.0171107
0.00321702
5.80901e-05
0.0406647
0.000103777
0.000105567
6.71641e-05
0.0283965
0.0150607
0.0370148
8.68347e-05
6.11613e-05
0.000115021
8.69119e-05
0.0019791
6.99232e-05
0.00407613
6.57766e-05
0.000215173
6.27343e-05
5.13562e-05
0.000556282
0.000163899
0.0218347
0.0140446
0.0236575
0.0225931
6.06578e-05
0.00822832
0.0100743
0.0172108
6.184e-05
0.000615263
0.014825
0.0249638
0.000165594
0.00652642
0.0115859
0.0293552
0.000100247
0.00286978
6.15749e-05
9.94565e-05
9.88061e-05
8.34367e-05
0.000114762
0.0384771
0.000126873
0.0255462
0.0102567
7.7411e-05
6.51102e-05
7.56619e-05
8.35056e-05
0.0104008
6.06822e-05
6.34278e-05
0.0309416
0.00125265
8.28905e-05
0.000146341
6.50584e-05
0.000123503
0.0228016
0.0239822
0.0242378
9.19785e-05
0.0237461
7.17022e-05
6.0896e-05
9.09449e-05
0.0200771
0.00179546
0.00260158
0.00147629
8.74794e-05
6.31042e-05
8.32781e-05
8.93032e-05
9.04688e-05
0.0474203
0.0108937
8.79942e-05
0.0241613
0.0168912
3.07358e-05
0.0260289
8.49352e-05
8.97901e-05
0.000111527
8.58913e-05
6.2659e-05
8.84439e-05
8.80073e-05
0.0207496
0.0240916
6.0714e-05
9.76374e-05
8.86146e-05
0.000109224
0.0281929
0.0458615
0.0291166
6.98863e-05
0.000126034
0.0292417
0.000124891
0.000165225
0.000558376
0.0207451
0.0293766
0.0308333
6.04916e-05
0.0173954
6.10264e-05
7.53741e-05
8.15682e-05
0.0001047
0.0292759
0.0134992
0.00425638
0.0246644
0.000102157
6.08604e-05
6.78791e-05
8.2855e-05
7.32414e-05
9.71754e-05
0.0300278
0.0307434
0.000120872
0.00784714
7.76537e-05
0.000101601
6.34409e-05
0.0279742
0.000109286
6.98126e-05
0.000227385
0.000147079
0.022299
0.0204573
0.000188765
0.0140824
8.51515e-05
0.0365902
0.00203591
0.019941
0.00237207
7.17423e-05
0.00010099
8.34595e-05
0.0222032
0.0221934
9.34541e-05
0.0449155
0.00197565
0.0503258
0.000108436
0.000911901
8.73583e-05
7.0373e-05
0.000170335
0.000100257
8.80122e-05
0.000100432
8.9326e-05
8.89472e-05
0.0299925
0.000232846
8.12072e-05
8.72063e-05
9.30507e-05
8.64232e-05
6.77462e-05
0.0416636
0.00015769
0.000286077
0.0240358
8.26948e-05
0.0233554
8.96634e-05
7.72954e-05
8.29777e-05
0.0232309
8.90545e-05
0.0276159
0.0227731
0.000103539
8.56774e-05
0.000168001
0.0321011
0.000190853
0.0166311
8.07036e-05
0.000100054
6.13922e-05
0.0250099
0.00485212
8.05245e-05
6.25233e-05
8.84484e-05
8.99855e-05
8.47063e-05
0.000101607
9.73854e-05
8.40321e-05
8.66136e-05
0.0165326
0.0558663
0.000159879
9.58778e-05
6.05183e-05
0.0285976
9.26153e-05
0.000110774
0.00365538
9.90882e-05
0.0262244
6.07622e-05
9.08872e-05
7.65569e-05
8.61205e-05
7.64074e-05
0.0240892
0.000363293
0.0141591
8.79306e-05
0.0247143
0.00138262
9.02832e-05
0.0312774
0.000111726
0.00116609
0.0242097
8.80603e-05
8.72354e-05
9.78809e-05
0.000109417
7.13703e-05
0.00574237
0.020836
0.00198868
7.03951e-05
0.00155235
0.00780115
0.00908486
8.10936e-05
9.71555e-05
6.20693e-05
8.75017e-05
0.0184047
8.75365e-05
8.83102e-05
6.89955e-05
6.85546e-05
0.0146059
0.0199433
7.26224e-05
0.0200919
0.00104121
6.0836e-05
6.17074e-05
0.0250237
0.000163222
0.000147814
8.39065e-05
8.81913e-05
0.000147574
6.33187e-05
6.92874e-05
0.047569
8.91429e-05
0.0240732
0.000126202
8.93817e-05
0.0288154
0.000168461
0.00023745
7.03399e-05
0.00179574
9.30583e-05
8.87414e-05
0.0237624
9.57732e-05
7.72926e-05
0.000122983
8.81456e-05
7.10669e-05
6.09231e-05
0.0208239
8.14772e-05
0.000105311
0.0126381
0.000144224
6.12012e-05
0.00514503
9.21691e-05
0.0194378
0.00126387
0.0204511
0.000153674
0.0257461
6.46255e-05
0.000119078
9.05629e-05
7.63831e-05
0.00151725
0.0327364
9.15374e-05
0.000425316
6.16752e-05
0.00011511
0.0206237
9.02625e-05
7.45056e-05
0.00275786
0.0320303
0.0314033
0.000260392
6.26352e-05
6.30166e-05
0.000106953
8.7292e-05
0.00681583
0.0214655
0.0277967
0.046095
0.0290247
6.81631e-05
0.00540017
8.70498e-05
8.99058e-05
8.33041e-05
0.00507598
0.000365183
0.000115755
7.03393e-05
0.019943
8.84743e-05
0.0182888
6.17585e-05
0.000102556
9.21626e-05
0.000115137
9.34761e-05
0.000148714
8.77505e-05
0.000461479
0.000254249
7.07416e-05
0.045723
0.00178287
8.83006e-05
8.37926e-05
8.8931e-05
7.88128e-05
6.82176e-05
0.000110962
6.40424e-05