/*--------------------------------*- C++ -*----------------------------------*\
| =========                 |                                                 |
| \\      /  F ield         | OpenFOAM: The Open Source CFD Toolbox           |
|  \\    /   O peration     | Version:  v2012                                 |
|   \\  /    A nd           | Website:  www.openfoam.com                      |
|    \\/     M anipulation  |                                                 |
\*---------------------------------------------------------------------------*/
FoamFile
{
    version     2.0;
    format      ascii;
    class       volScalarField;
    location    "50";
    object      nut;
}
// * * * * * * * * * * * * * * * * * * * * * * * * * * * * * * * * * * * * * //

dimensions      [0 2 -1 0 0 0 0];


internalField   nonuniform List<scalar> 
13851
(
0.000447499
0.0193856
0.000543183
0.000447127
0.000544568
0.000127362
0.00045094
0.000479303
0.000439943
0.000581073
0.000757879
0.0169225
0.00867756
0.0161951
0.000449705
0.000462591
0.000453462
0.00045416
0.00464976
0.000438727
0.000446834
0.000537714
0.000445969
0.000453481
0.000446758
0.000480671
0.000453477
0.000698106
0.000447413
0.000450602
0.00306807
0.000454096
0.000534877
0.00828223
0.000452605
0.000855093
0.00423793
0.00130418
0.000614875
0.00932041
0.000444334
0.000439576
0.00254888
0.00160075
0.00168068
0.00567855
0.00163559
0.00821411
0.000453714
0.000368826
0.000526992
0.000704972
0.0054652
0.000449271
0.000446426
0.000439438
0.00044438
0.00990597
0.000450539
0.000450382
0.00168568
0.0109949
0.00050049
0.000577773
0.000944698
0.000449633
0.00549138
0.00156439
0.000464487
0.000454319
0.002219
0.00772044
0.0187612
0.000449523
0.000443378
0.000438353
0.00052971
0.00344365
0.000480669
0.00284014
0.000450387
0.000448683
0.000447987
0.00618491
0.000486715
0.0163288
0.000236359
0.00760063
0.000454514
0.000440273
0.000859221
0.000466227
0.00175641
0.000457261
0.000454208
0.000451244
0.000548948
0.0111588
0.000374774
0.000450524
0.0149609
0.00048516
0.000446655
0.000454002
0.000439813
0.000307259
0.000494204
0.00043808
0.0101391
0.000353556
0.000457341
0.000440938
0.000451611
0.000468832
0.000456226
0.0108619
0.0114971
0.00043922
0.000445412
0.000448156
0.00233466
0.00045388
0.00926048
0.00716113
0.00676462
0.000446272
0.00927235
0.00048336
0.000446308
0.000699583
0.000444502
0.000439483
0.00325049
0.000448133
0.00948912
0.000439892
0.000439419
0.00744177
0.0166346
0.00855297
0.0147315
0.000445524
0.000440178
0.000440951
0.000451004
0.00152507
0.000441774
0.000707548
0.000450942
0.00174826
0.000531416
0.000446221
0.0161895
0.000444184
0.000451485
0.000450619
0.000441119
0.00044945
0.000703278
0.000525142
0.00043823
0.00045752
0.00967601
0.000439107
0.000455635
0.000439716
0.000441996
0.000464582
0.000446213
0.00528585
0.00249342
0.000437203
0.000441535
0.00934054
0.000439087
0.00542182
0.000480903
0.000440217
0.00553327
0.000438702
0.000454524
0.00835143
0.000448301
0.000551899
0.000437912
0.00044751
0.000449549
0.000444013
0.000572237
0.000565825
0.00158344
0.0073124
0.00044247
0.000464392
0.0115145
0.000451062
0.000440024
0.00610479
0.000439475
0.000437671
0.000445828
0.00353183
0.000457934
0.000446163
0.000523082
0.000448343
0.0185139
0.000453654
0.00922493
0.000438659
0.0126532
0.00044664
0.00450341
0.000438585
0.000441348
0.000465271
0.000549109
0.00644537
0.000449035
0.00981943
0.000454187
0.000450533
0.0121694
0.000690835
0.0129445
0.00044627
0.000459256
0.000439798
0.0100998
0.000438997
0.000478355
0.00446539
0.000437286
0.000441814
0.000510024
0.000477741
0.0181256
0.000780903
0.000441294
0.000446364
0.00226502
0.00245333
0.000439348
0.00053595
0.000439791
0.0125275
0.000487524
0.00721829
0.000450591
0.00045376
0.000452305
0.00346148
0.000449045
0.000450967
0.000487497
0.000485544
0.000555809
0.00802532
0.000291297
0.000450096
0.000441129
0.000453033
0.0168062
0.000447616
0.00744603
0.00045105
0.000449126
0.000456292
0.0119662
0.00042656
0.000454198
0.0004514
0.0147243
0.000477368
0.000461255
0.000439507
0.000448045
0.000449675
0.0131233
0.000798269
0.000439329
0.000439191
0.00043996
0.000484001
0.0155801
0.00244827
0.00043818
0.000450764
0.0156013
0.000449175
0.000868365
0.000449937
0.000450908
0.00046701
0.000449534
0.00690717
0.000454901
0.01486
0.000439415
0.0126633
0.000456787
0.000452891
0.01303
0.000446442
0.000335987
0.0124273
0.000436991
0.000475891
0.000456982
0.000449783
0.0163222
0.000455459
0.0004488
0.0120608
0.000439475
0.000454397
0.000444555
0.0129468
0.000659293
0.000448974
0.000487963
0.00044952
0.00143126
0.000466987
0.000446299
0.000441328
0.000650692
0.000458148
0.000451583
0.000450815
0.000446551
0.000448527
0.00125484
0.0132759
0.00681988
0.00045735
0.0128661
0.0110544
0.000449396
0.000464775
0.000898179
0.000460499
0.000498193
0.000652044
0.00532554
0.000445972
0.00855737
0.0125248
0.000449745
0.000419798
0.000422353
0.00592641
0.000451523
0.000576895
0.0106024
0.000441496
0.00875094
0.000441279
0.000449923
0.000439544
0.000438078
0.000441143
0.0126355
0.00519458
0.000446854
0.000473135
0.000439
0.0146766
0.000470254
0.00657444
0.00622247
0.000446818
0.000652122
0.000456997
0.00703525
0.000444039
0.000439892
0.00045276
0.0132177
0.000443995
0.0167905
0.000460875
0.000670591
0.00278928
0.000429875
0.000446086
0.000446483
0.000440081
0.000450574
0.000455874
0.000486854
0.0158516
0.000464651
0.0129251
0.0124831
0.000439112
0.000450115
0.00589542
0.00411067
0.00331171
0.0117736
0.000463967
0.0004581
0.000449993
0.0101996
0.000438374
0.000461766
0.000444933
0.000450245
0.000440005
0.000437793
0.00043955
0.000570344
0.000496171
0.00305194
0.000454601
0.000492835
0.000464057
0.00448626
0.000454978
0.0073246
0.0004529
0.000452949
0.000438889
0.000437861
0.000448988
0.00341247
0.00621026
0.000675617
0.000457624
0.00181078
0.007566
0.000328122
0.000447603
0.000513158
0.000444163
0.00493883
0.000440808
0.0132584
0.00488699
0.000523535
0.00808684
0.000439773
0.000450001
0.00484671
0.0100474
0.000437757
0.000459163
0.000482742
0.000423689
0.000438055
0.000448315
0.000521116
0.000670187
0.000459319
0.0193248
0.000446183
0.000441567
0.0067222
0.00045657
0.000439479
0.00879574
0.000439886
0.000447518
0.00044155
0.000472532
0.000448956
0.000438821
0.000439384
0.0119497
0.000447887
0.000467269
0.000439716
0.000451887
0.000447133
0.000468884
0.0004435
0.000462017
0.000462376
0.000426632
0.000449279
0.000124104
0.000448352
0.0004482
0.0148576
0.00728554
0.000448642
0.000453343
0.000455342
0.000904531
0.00669889
0.000441826
0.00517588
0.000444329
0.000545051
0.000450143
0.0102856
0.000438514
0.00441396
0.000550592
0.000439681
0.000454085
0.00868922
0.000480357
0.00297424
0.000444536
0.00361456
0.0004476
0.000437787
0.000439576
0.00045075
0.00613845
0.000511209
0.000691308
0.00492728
0.000526124
0.000438329
0.0104133
0.00567655
0.000454908
0.00045735
0.000413179
0.00521948
0.012358
0.000450839
0.0103781
0.00542293
0.00407688
0.000455998
0.000453756
0.011112
0.000449787
0.000453878
0.00555882
0.0160148
0.000449811
0.0159898
0.00881346
0.000438479
0.000449918
0.000515099
0.00497952
0.00045094
0.000446649
0.000440997
0.000445317
0.000566785
0.000470727
0.0059404
0.0187245
0.000437487
0.00545086
0.00792436
0.00145352
0.0051705
0.000466462
0.000439577
0.000439323
0.000442953
0.0108577
0.000451573
0.000565682
0.000874287
0.000439404
0.000489992
0.00616709
0.00319247
0.000651515
0.00678746
0.00883099
0.000444237
0.000450458
0.0144154
0.0123715
0.000682579
0.000464668
0.000425713
0.000438573
0.0004445
0.013333
0.00043922
0.000450547
0.000438729
0.000440747
0.00917859
0.000567028
0.000455988
0.000439158
0.016447
0.00424353
0.000439526
0.000443779
0.0004483
0.000450357
0.0127998
0.00678497
0.00533659
0.00415336
0.00327927
0.000462753
0.00308882
0.00795756
0.000446561
0.000464589
0.000439619
0.000445062
0.000464409
0.0116253
0.0116586
0.00056344
0.000457996
0.000441026
0.000461865
0.000443322
0.00314662
0.000527064
0.000448409
0.000458484
0.00043836
0.000456265
0.000689366
0.000450373
0.000443781
0.000470547
0.000449223
0.000547111
0.00233195
0.000677154
0.000462607
0.000693958
0.000441439
0.000702798
0.000456651
0.00440712
0.000446606
0.000451932
0.00962883
0.000449493
0.00247764
0.012434
0.00781753
0.00930412
0.000438664
0.00843372
0.000439091
0.000440558
0.000438209
0.000440581
0.000439763
0.00045511
0.000470343
0.000438826
0.0131006
0.000572721
0.0132387
0.000440512
0.000437905
0.000443576
0.000739766
0.0123299
0.000489309
0.000456616
0.000439018
0.000449042
0.000438337
0.000441037
0.00268697
0.0174128
0.000449185
0.000438697
0.000450966
0.000441061
0.0093478
0.00851686
0.000462915
0.0105165
0.00374305
0.000443899
0.000688323
0.0117051
0.000466303
0.0173177
0.000450277
0.000452832
0.000488003
0.000452903
0.00446386
0.00044854
0.0100313
0.000441126
0.000461008
0.00945142
0.000444376
0.000448282
0.000449646
0.000438068
0.000454061
0.0178229
0.0121767
0.000523346
0.00644617
0.000464859
0.00043832
0.000440583
0.0136675
0.000791968
0.000482402
0.0125462
0.000439303
0.000462772
0.000438868
0.00475603
0.00590827
0.000452948
0.000445186
0.000446072
0.000453395
0.000443273
0.0053305
0.00074418
0.0102329
0.000439476
0.000449153
0.00337208
0.00410704
0.000762795
0.000442672
0.0108481
0.000448278
0.000443502
0.000800686
0.000534059
0.00045306
0.00741518
0.000447172
0.000447075
0.00344214
0.000452782
0.00046751
0.000448951
0.000442628
0.0063785
0.000461318
0.000652806
0.000455057
0.000449179
0.000439122
0.0178174
0.000442695
0.000447049
0.000438385
0.000443591
0.000442665
0.0122929
0.000441101
0.000440709
0.00157961
0.000450397
0.00536349
0.000440641
0.000441498
0.000520796
0.0110811
0.00469445
0.000441791
0.00898665
0.0109129
0.000449234
0.0123779
0.000460443
0.000441763
0.000366279
0.00347311
0.00597621
0.000453942
0.000437079
0.000438292
0.00495771
0.000558128
0.000502652
0.000453956
0.000372455
0.000450149
0.000442355
0.000562547
0.00530699
0.000565973
0.0117554
0.000449235
0.000547767
0.00055391
0.0128112
0.000452853
0.0187204
0.00427353
0.00045069
0.00375584
0.0003476
0.0112251
0.0125917
0.0119352
0.00460921
0.000472194
0.000442569
0.000454828
0.0105895
0.00495125
0.000440862
0.000448614
0.000515106
0.000448706
0.000440484
0.00573734
0.000438936
0.000447335
0.00710483
0.00337116
0.000547472
0.000440487
0.000450115
0.00523055
0.0022755
0.000657885
0.000445084
0.00904221
0.00237377
0.0122399
0.00049279
0.000472367
0.000448579
0.000450166
0.0164835
0.000483796
0.00349465
0.000488737
0.000464569
0.0061447
0.0110119
0.00650747
0.000449147
0.000460806
0.000439401
0.000463673
0.000447942
0.0183571
0.00046972
0.0109829
0.000440715
0.000517517
0.000444274
0.00155029
0.00046348
0.000460687
0.0106239
0.000475697
0.000477346
0.000453573
0.000517304
0.00611584
0.000316391
0.000450497
0.00255115
0.00044556
0.0118171
0.00496514
0.000447937
0.0127631
0.0143105
0.00620103
0.00476044
0.000481746
0.000441228
0.00966685
0.00046205
0.0119079
0.00932313
0.000440393
0.000452118
0.00254781
0.00383822
0.0176117
0.000448523
0.000442175
0.0184594
0.00930838
0.000653347
0.000453199
0.000444546
0.00495585
0.00877437
0.000561388
0.000440685
0.000472311
0.000438365
0.000447791
0.000414722
0.000451044
0.0121598
0.00562865
0.00044728
0.000439903
0.000440968
0.000449455
0.00291899
0.00820081
0.000459078
0.0187149
0.000444328
0.000459083
0.000441096
0.000438453
0.000446879
0.000447062
0.00569249
0.000448558
0.000487873
0.000449144
0.000453881
0.000414247
0.00395553
0.000444436
0.0134919
0.000508223
0.00522437
0.000461878
0.000462495
0.00232261
0.000456099
0.000472333
0.0182655
0.0157564
0.0054807
0.000471562
0.00151886
0.000446526
0.000473032
0.00048743
0.0179809
0.000446023
0.0128715
0.000440366
0.000440545
0.0157347
0.00044507
0.00712819
0.00045343
0.00043941
0.000469665
0.000439292
0.000450287
0.000438702
0.000450108
0.00229564
0.000440648
0.0023263
0.0088702
0.000508294
0.0133992
0.000450134
0.000444025
0.000444686
0.000445235
0.000439499
0.000544185
0.000451546
0.00043761
0.000445553
0.000447229
0.00551787
0.0176154
0.000378003
0.0116739
0.0030711
0.000444275
0.0113485
0.000457825
0.00044056
0.00487631
0.000353131
0.00559144
0.00044379
0.00167091
0.00378841
0.011604
0.000437918
0.00881004
0.000459958
0.000453182
0.000438718
0.000438291
0.018523
0.000210705
0.000461418
0.000443624
0.000447601
0.00793057
0.000448179
0.00987742
0.00473154
0.00994486
0.00550905
0.00598571
0.000448639
0.000446089
0.00060026
0.000452853
0.000453772
0.000991171
0.00047382
0.000451556
0.000443987
0.0173544
0.000437554
0.00555887
0.00706877
0.0105501
0.00136795
0.00045214
0.000441322
0.00044482
0.00390868
0.00525909
0.000437717
0.000459524
0.000443305
0.000539611
0.000440324
0.000442965
0.000450419
0.000462912
0.0050831
0.000475624
0.000458456
0.000443093
0.000488024
0.00831866
0.00045218
0.00305457
0.00898135
0.000546585
0.000438581
0.000477137
0.000446413
0.000446309
0.000444869
0.00352164
0.00066073
0.00656158
0.000453913
0.000443976
0.000447268
0.000439549
0.000446003
0.00839649
0.00398231
0.000438232
0.000462561
0.000494686
0.00724405
0.000459899
0.01682
0.00043981
0.0182064
0.000542023
0.0119489
0.000566619
0.000544213
0.00343309
0.00855421
0.00552474
0.00343928
0.000444404
0.00107737
0.000440462
0.000450888
0.000455964
0.000448642
0.00842777
0.000458777
0.00045717
0.00487127
0.00114062
0.00118749
0.000449234
0.000452929
0.000453595
0.000443322
0.000456647
0.0180555
0.00509234
0.0141615
0.000442732
0.000456444
0.000445683
0.00674908
0.0118279
0.000683274
0.000441061
0.000451527
0.00995275
0.000478166
0.0165746
0.0111026
0.000336913
0.000438836
0.00798147
0.000455531
0.000476661
0.000458192
0.0125269
0.00372883
0.000674721
0.000450812
0.00044683
0.000450287
0.000447518
0.00490805
0.000485717
0.00779658
0.000445296
0.000456018
0.000751585
0.000450577
0.0124805
0.00254384
0.00044044
0.00199405
0.0100392
0.00260192
0.00985356
0.000446257
0.000446087
0.00317814
0.00875584
0.00959294
0.000450582
0.000450738
0.000447079
0.0056983
0.000718082
0.000449954
0.000385106
0.000572448
0.0180182
0.007759
0.00290703
0.000449556
0.0103529
0.000453731
0.000443442
0.000715966
0.0119739
0.000450576
0.000440055
0.00297246
0.0123068
0.000447305
0.0004426
0.0115443
0.000440108
0.000442922
0.000442795
0.00481155
0.000445937
0.000489704
0.0125286
0.011814
0.000450917
0.00333117
0.00572752
0.0145049
0.00682542
0.018433
0.000315508
0.000445299
0.00834211
0.000457625
0.000449535
0.000442863
0.00597231
0.000443613
0.00331803
0.000440409
0.000447
0.00329776
0.000515832
0.011905
0.000450593
0.000444832
0.000439477
0.000462841
0.00774506
0.0152423
0.000439825
0.000515397
0.00449512
0.000445971
0.000438939
0.00971475
0.000464583
0.000464661
0.000689244
0.00750003
0.00146004
0.00711859
0.00934319
0.000332183
0.000515684
0.00542461
0.00721063
0.000515413
0.000438393
0.000681158
0.000445014
0.000443697
0.01614
0.0096235
0.000448878
0.0147828
0.000869807
0.00508069
0.00102057
0.000351692
0.000444743
0.00148875
0.000402495
0.000442871
0.000451046
0.0124745
0.0110093
0.0181933
0.0121521
0.000469204
0.0118047
0.0126176
0.00046227
0.000446866
0.000441878
0.000449242
0.000442793
0.00249232
0.000447755
0.000450581
0.00044887
0.00876239
0.0126522
0.0122
0.000445026
0.00822696
0.00045227
0.000457143
0.000443281
0.00044044
0.00907439
0.000455533
0.00803355
0.0159474
0.000333846
0.000646681
0.000450835
0.000471582
0.000446972
0.000719884
0.00044089
0.000450643
0.000445097
0.00044551
0.000755681
0.000450886
0.00046491
0.000443157
0.000465321
0.0022561
0.00311014
0.000441603
0.000482699
0.000439294
0.000406629
0.000450104
0.0107824
0.00132761
0.000461923
0.000453198
0.000451293
0.000800544
0.00044467
0.000448648
0.000450577
0.000440382
0.000441134
0.0121208
0.000455894
0.000448665
0.000453285
0.000441665
0.000508882
0.0118653
0.00699151
0.000466203
0.000447727
0.000430514
0.000438434
0.000438448
0.00122963
0.0110946
0.000440417
0.000458204
0.000622782
0.00852627
0.000450319
0.000450486
0.010366
0.000450658
0.000387637
0.00331945
0.0124295
0.000445843
0.000450141
0.000446398
0.0128815
0.000686921
0.000473605
0.000655905
0.011889
0.000451642
0.0121291
0.0174286
0.00044463
0.0091725
0.000546673
0.000449767
0.00883444
0.000449289
0.000441097
0.000437945
0.00106542
0.000394671
0.0007953
0.000450075
0.000452196
0.000460583
0.00513517
0.00379972
0.012568
0.00444375
0.00045111
0.000688612
0.000711423
0.00764504
0.000534439
0.000449645
0.000442879
0.000451162
0.000438413
0.000457592
0.000466914
0.000446393
0.0154094
0.00127078
0.000462241
0.000442916
0.000438532
0.000441862
0.000490667
0.000463812
0.0035826
0.000515812
0.000516184
0.000502552
0.000666225
0.0185435
0.000456121
0.0126371
0.000441682
0.000438136
0.00176184
0.0106747
0.00630991
0.000933011
0.000448416
0.00335171
0.00447599
0.000443376
0.000456182
0.000441068
0.000473105
0.000522527
0.000450387
0.00735969
0.00313511
0.000451245
0.0114663
0.00239281
0.000449831
0.000584595
0.0163003
0.00688137
0.000452939
0.000531886
0.000439217
0.00045085
0.000442405
0.000453106
0.0128989
0.00922566
0.00477656
0.00314829
0.000452115
0.000463358
0.000492331
0.000440719
0.000444641
0.000438418
0.0115275
0.000442213
0.0122084
0.000467259
0.000481551
0.000945572
0.00180313
0.00406723
0.00894487
0.000472404
0.000439165
0.000443746
0.0084626
0.0065827
0.000453826
0.000440468
0.00044162
0.000509426
0.000459236
0.000736152
0.0182256
0.000452417
0.000438155
0.000659331
0.000449038
0.00274775
0.0116268
0.000442599
0.00052711
0.0004447
0.0131297
0.000440526
0.0121549
0.000448293
0.000452429
0.000457633
0.000450674
0.000433333
0.00045962
0.000480702
0.0114899
0.011327
0.000454344
0.000459115
0.00044475
0.00871903
0.0115266
0.000439357
0.000439182
0.0046617
0.00043822
0.00654614
0.000441502
0.00046026
0.000523192
0.00129433
0.000469076
0.000445502
0.000451102
0.000521187
0.0124906
0.000445233
0.000468421
0.0142057
0.0085848
0.00448956
0.00046231
0.00585455
0.000455762
0.00350594
0.000447424
0.00413255
0.0042736
0.00705522
0.00895633
0.0192255
0.000444006
0.000389875
0.000439514
0.00174473
0.00504071
0.0123491
0.011045
0.000455208
0.018483
0.00678407
0.000464323
0.000448398
0.000450242
0.00790002
0.000453823
0.000520429
0.000456627
0.000445709
0.00043884
0.000447528
0.0114062
0.00207485
0.000459881
0.0100202
0.00752027
0.000445919
0.00044751
0.000440423
0.000450517
0.0118214
0.00236968
0.000453304
0.000466291
0.00217418
0.000541689
0.000477268
0.00386163
0.00045937
0.012779
0.000460807
0.000455108
0.000447348
0.000453582
0.000523693
0.00473659
0.00334597
0.00919982
0.000524185
0.0117748
0.000444403
0.000453119
0.000446929
0.00533169
0.0100025
0.00407187
0.000431493
0.000452475
0.000447754
0.000441079
0.000450438
0.0004387
0.00436017
0.000458269
0.00547737
0.000461099
0.0114895
0.0140114
0.0126372
0.000427364
0.0004556
0.0099602
0.000470376
0.00788759
0.00864693
0.000437699
0.000340393
0.000456032
0.00959548
0.00446215
0.000464576
0.000337544
0.0080761
0.000445947
0.000489241
0.000460566
0.00553184
0.00539599
0.00045289
0.000450926
0.00332481
0.00584381
0.000691485
0.0133989
0.000683086
0.000451527
0.000439033
0.0120351
0.0105949
0.00054352
0.000460886
0.0116032
0.0156269
0.000439836
0.000449067
0.000452941
0.0124088
0.0121176
0.000448383
0.0049612
0.000451059
0.000441877
0.000446794
0.0026469
0.00487857
0.000366665
0.00577537
0.000448486
0.000450145
0.000442241
0.00448399
0.000447097
0.0103268
0.000447959
0.0195489
0.000451264
0.000444955
0.000669939
0.00402217
0.00469995
0.000465796
0.0115574
0.000439259
0.000448536
0.000449152
0.000477081
0.000511513
0.000511244
0.000465641
0.0116422
0.000453427
0.00063358
0.000758014
0.0182646
0.000440909
0.00737461
0.00991306
0.000455464
0.00518636
0.000512176
0.0138968
0.000448847
0.000520217
0.000438672
0.0102165
0.00220769
0.000537004
0.0126762
0.00044888
0.000483284
0.000447964
0.0055852
0.000440041
0.000440655
0.00921169
0.000572398
0.012119
0.0077163
0.000509147
0.000457591
0.000438055
0.0203923
0.000456466
0.000442837
0.000732077
0.000438765
0.000476309
0.000447493
0.00836334
0.000447053
0.00171816
0.00257771
0.000457466
0.0027474
0.000492034
0.0131567
0.000443595
0.0107913
0.020456
0.000437366
0.000447985
0.000450095
0.000451352
0.000470313
0.000441386
0.000279707
0.000534949
0.000440552
0.000428003
0.000444573
0.000449768
0.000438363
0.00932849
0.000448556
0.00044465
0.00302703
0.000453704
0.0197417
0.012573
0.000562537
0.000448479
0.000462951
0.00045024
0.000450982
0.000452195
0.000440047
0.000453652
0.00664531
0.0126072
0.00494718
0.000449748
0.00789652
0.000977011
0.00045149
0.000446975
0.0117545
0.000448706
0.000452895
0.000448564
0.00954307
0.00884218
0.0131216
0.000439916
0.000452428
0.00044468
0.000450803
0.000699872
0.000445809
0.000376768
0.00374726
0.0124893
0.000436553
0.000453281
0.00045369
0.00568186
0.000438364
0.00949353
0.00677574
0.00121195
0.0155384
0.00665352
0.0170261
0.000444505
0.012408
0.000161142
0.000451987
0.000437794
0.000441258
0.0126042
0.00655996
0.00832954
0.000445336
0.012824
0.000448553
0.000894807
0.000438841
0.000450506
0.00045152
0.000436627
0.00831543
0.000452406
0.0151996
0.0157299
0.00942381
0.000480284
0.000488236
0.00869727
0.0124293
0.000441398
0.00312645
0.000438938
0.000439735
0.000447613
0.000442523
0.000441297
0.0116039
0.000455685
0.000491329
0.000466851
0.00731894
0.0110435
0.000638445
0.000437596
0.000492659
0.000535474
0.0078926
0.000441193
0.000437888
0.000448725
0.016569
0.000443023
0.000654832
0.010991
0.000473078
0.000503682
0.000441051
0.00162961
0.000450338
0.012105
0.000438615
0.00484327
0.000461757
0.000449288
0.0113379
0.00943875
0.000440935
0.000512011
0.000452564
0.0078687
0.000396978
0.000598797
0.000426119
0.000449896
0.000493084
0.0105868
0.000442349
0.000443409
0.000443893
0.000536295
0.000462795
0.00748455
0.00780478
0.000449025
0.0073334
0.000450846
0.000476894
0.0116709
0.0105827
0.000465149
0.00862505
0.00262241
0.000451147
0.00126066
0.000683422
0.000460844
0.000452156
0.0113695
0.00044067
0.0062969
0.000398697
0.000642688
0.000449172
0.000456929
0.00769077
0.00047739
0.0118766
0.000450873
0.000452435
0.00105641
0.0111789
0.000456316
0.0125645
0.00516143
0.0118012
0.000446208
0.0109064
0.00801833
0.00826718
0.00044959
0.000442843
0.000442546
0.0126694
0.000437333
0.00227687
0.00121479
0.000449431
0.000442605
0.000449013
0.00735166
0.00771936
0.0152059
0.0106688
0.000442383
0.0094773
0.0121033
0.000691287
0.00722674
0.00849845
0.00046449
0.00486594
0.000452903
0.000455992
0.00908288
0.00956158
0.000449311
0.0149123
0.000445146
0.000448629
0.0186457
0.00769074
0.0119034
0.00177507
0.000460127
0.00044984
0.000449189
0.0118653
0.00935922
0.000445479
0.000480153
0.00606377
0.000449384
0.000447937
0.0111821
0.0139166
0.00045006
0.00045015
0.000451931
0.000448117
0.0105479
0.000451161
0.00043821
0.000453304
0.00108043
0.0126024
0.00059589
0.0112727
0.000448959
0.000451856
0.0102865
0.0122852
0.000455787
0.00148098
0.000448899
0.000466215
0.000445225
0.000449448
0.000515243
0.00043913
0.0157654
0.000461689
0.000437618
0.000451489
0.00866553
0.0196928
0.0062278
0.000449378
0.000462925
0.0123886
0.00670319
0.000453312
0.000440815
0.000450892
0.000649301
0.000447932
0.000445825
0.000456353
0.000447679
0.010231
0.000846684
0.000449423
0.000452427
0.000439062
0.000446053
0.018767
0.000559851
0.000523768
0.00813348
0.000485143
0.000449962
0.000448541
0.00044901
0.000442579
0.000449782
0.000452172
0.000528366
0.0116731
0.000443597
0.000633597
0.00639828
0.000385214
0.000444329
0.000441023
0.000453246
0.0174863
0.000442594
0.00788017
0.00392713
0.000478707
0.000445921
0.00250859
0.000441664
0.000342839
0.000441855
0.000441441
0.000443314
0.000442784
0.000457742
0.00930344
0.00171474
0.000469334
0.0114145
0.000482719
0.000587924
0.000462238
0.00770504
0.00806627
0.0006291
0.0156141
0.0113343
0.000646174
0.00177872
0.000450964
0.000440532
0.0138919
0.000442275
0.000452247
0.0187846
0.000479752
0.0133263
0.00120235
0.000438124
0.000446199
0.000447807
0.000394525
0.000438693
0.000416464
0.0127262
0.0114377
0.0134067
0.000447475
0.000440001
0.000526393
0.0144873
0.0101586
0.000671499
0.00516971
0.000441088
0.00608322
0.00755119
0.000665351
0.000449704
0.000447508
0.000439127
0.000448877
0.000444558
0.000443636
0.000452422
0.00975971
0.000538008
0.00793666
3.65042e-05
0.00652615
0.000860719
0.00044739
0.000443716
0.000451248
0.000442032
0.000451008
0.000856815
0.0125485
0.0124146
0.0128571
0.000453249
0.0108807
0.000700826
0.0125681
0.00912251
0.000445958
0.000442147
0.00149401
0.000447051
0.000440806
0.00353787
0.0101936
0.00706182
0.000447932
0.000448345
0.000444181
0.000468246
0.00946039
0.000439492
0.000449076
0.0041218
0.000439463
0.00626128
0.000467672
0.0191151
0.000449994
0.00306477
0.014587
0.000465738
0.0117575
0.000646305
0.00798848
0.000440689
0.00045277
0.000439442
0.000459034
0.00312733
0.000446806
0.00829186
0.000451993
0.000439713
0.000450532
0.0128376
0.00047705
0.000640691
0.00955483
0.000441847
0.000477509
0.00959749
0.000492327
0.000440469
0.000444558
0.000446629
0.000480531
0.000440704
0.000438327
0.0130188
0.0124151
0.0126848
0.00548885
0.00435355
0.0117781
0.000521196
0.0129427
0.000634194
0.000440732
0.000440748
0.000438573
0.000446483
0.0119726
0.0120488
0.000443843
0.00670504
0.0127706
0.000459852
0.000443011
0.000464969
0.0116929
0.0110243
0.00967392
0.00572345
0.0101005
0.000438154
0.0029969
0.00060986
0.000878102
0.00929802
0.000448041
0.000685607
0.0116111
0.000461622
0.0153171
0.000446466
0.000412306
0.0120289
0.011167
0.000531306
0.000460332
0.00338025
0.000687208
0.0110776
0.0125155
0.0102707
0.000647013
0.0101201
0.000448313
0.000447167
0.000480665
0.00537776
0.00234758
0.00769096
0.00045162
0.000663251
0.000523498
0.000454014
0.0114702
0.000448719
0.000690653
0.00540974
0.000449111
0.0193489
0.0169184
0.0121547
0.0110609
0.00544572
0.000420583
0.000440675
0.0120665
0.000451392
0.000445664
0.00047314
0.000452451
0.00975606
0.000453127
0.000465386
0.000452201
0.000441741
0.0111394
0.000450097
0.000655273
0.00150568
0.000437429
0.00716694
0.000609719
0.000442762
0.00682027
0.00308924
0.000449103
0.00913452
0.000450044
0.0127604
0.00086339
0.000445107
0.000644798
0.000450538
0.0122473
0.00997515
0.000527457
0.012392
0.000450661
0.000450948
0.0188943
0.000453797
0.000442351
0.00697594
0.000472739
0.000441516
0.000437727
0.000712444
0.000449643
0.00552182
0.00312415
0.000499061
0.0135893
0.000489455
0.000508847
0.000440912
0.0123246
0.00287448
0.0110927
0.00044955
0.000442491
0.000528039
0.00045955
0.00361673
0.000442354
0.00755225
0.000440433
0.00124604
0.000446769
0.000499858
0.0012258
0.00064645
0.00747863
0.01264
0.0117024
0.00953903
0.000439926
0.00494776
0.00579556
0.00462637
0.000445059
0.00170357
0.00299197
0.00858226
0.000648336
0.00484601
0.0163079
0.0124866
0.000479007
0.00290139
0.000437282
0.000481679
0.000475629
0.00044808
0.000521019
0.0126516
0.000357805
0.00888071
0.00554414
0.000445441
0.000439348
0.000454639
0.000448048
0.0124375
0.000440077
0.0004383
0.0127762
0.0016551
0.00046031
0.000611675
0.000452537
0.000563368
0.00796445
0.00986846
0.00904021
0.000455763
0.00993521
0.000445349
0.000441191
0.000453337
0.00786087
0.0019278
0.00273456
0.00197294
0.000450948
0.000437792
0.000448089
0.00045112
0.000456285
0.01502
0.00600355
0.000457907
0.011583
0.00540516
5.63286e-05
0.00373303
0.000448863
0.000459172
0.000540224
0.000449168
0.000450434
0.000456007
0.000452933
0.010666
0.00982153
0.000440202
0.000471751
0.00045886
0.000522263
0.00747708
0.0192412
0.0125592
0.000442923
0.000547804
0.012804
0.000546464
0.000645151
0.00102724
0.0114648
0.0121131
0.0130192
0.000439062
0.00978299
0.000441827
0.000447173
0.000447497
0.000504386
0.0122325
0.00242646
0.00778384
0.00799867
0.000497194
0.000440963
0.000440643
0.000448151
0.000448007
0.000477231
0.0127028
0.0129965
0.000535853
0.0117635
0.000446325
0.000496457
0.000438151
0.0118639
0.000529425
0.000442886
0.000843887
0.000612673
0.0116881
0.00687414
0.000715787
0.00317621
0.000452766
0.0106037
0.00211872
0.00934683
0.00517464
0.000445361
0.000495589
0.000448404
0.0113187
0.00704828
0.000471712
0.0149082
0.00211373
0.0169445
0.000517013
0.00115766
0.000474169
0.000442098
0.000659225
0.00050029
0.000453169
0.000494897
0.000460276
0.000462107
0.00924004
0.000762277
0.000449382
0.000459364
0.000467324
0.000461152
0.000443505
0.0188416
0.000636012
0.000790827
0.00397661
0.000447986
0.00911645
0.000450765
0.000449262
0.000450472
0.00927747
0.000468789
0.0111098
0.00347554
0.000502922
0.000477679
0.000656994
0.0183047
0.000698306
0.0148051
0.000460317
0.000479181
0.000443781
0.00970999
0.010117
0.000461456
0.00044744
0.00046744
0.000455637
0.000452107
0.00048374
0.000471764
0.000448822
0.000463106
0.00416882
0.0148984
0.000625447
0.000473111
0.000439228
0.0168721
0.000462746
0.000509608
0.00391826
0.000475791
0.0124946
0.000440515
0.000466883
0.000449167
0.00046228
0.000445262
0.00890779
0.0010113
0.00843771
0.000468723
0.0117125
0.00174252
0.000455506
0.0180615
0.000512574
0.0015972
0.00654647
0.00047392
0.000452868
0.000472774
0.000518707
0.000446721
0.00416229
0.00669835
0.00491988
0.000442018
0.00184916
0.00598186
0.00734603
0.000447098
0.000477377
0.000437881
0.000459782
0.0104822
0.000458599
0.000458449
0.000441506
0.00044118
0.0096516
0.00797291
0.000443752
0.0114499
0.00161081
0.000440838
0.000446491
0.00959802
0.000664359
0.000613715
0.000448399
0.000456286
0.000636059
0.000448585
0.000441642
0.0179409
0.000458786
0.00901103
0.000550209
0.0004556
0.0120147
0.000681112
0.000956032
0.000442081
0.00375741
0.000460674
0.000455848
0.0170527
0.000472546
0.000446166
0.000560836
0.000453439
0.00044697
0.000441312
0.014594
0.000447585
0.000522668
0.00783257
0.000608824
0.000442238
0.00425936
0.000460818
0.00402794
0.00153563
0.00721912
0.000636791
0.0107705
0.000439454
0.000536821
0.000455357
0.000445007
0.0029364
0.0150065
0.000454993
0.000657544
0.000445471
0.000527493
0.00713222
0.000455624
0.000146286
0.00250091
0.0108265
0.0180678
0.00117428
0.00045034
0.000438074
0.000536361
0.000465554
0.00969098
0.0114889
0.0118776
0.0190721
0.0128078
0.000440802
0.00446273
0.000449592
0.000452038
0.000448436
0.010483
0.00116941
0.00055326
0.000442131
0.00175816
0.000456234