/*--------------------------------*- C++ -*----------------------------------*\
| =========                 |                                                 |
| \\      /  F ield         | OpenFOAM: The Open Source CFD Toolbox           |
|  \\    /   O peration     | Version:  v2012                                 |
|   \\  /    A nd           | Website:  www.openfoam.com                      |
|    \\/     M anipulation  |                                                 |
\*---------------------------------------------------------------------------*/
FoamFile
{
    version     2.0;
    format      ascii;
    class       volScalarField;
    location    "200";
    object      ddt0(k);
}
// * * * * * * * * * * * * * * * * * * * * * * * * * * * * * * * * * * * * * //

dimensions      [0 2 -3 0 0 0 0];


internalField   nonuniform List<scalar> 
13917
(
-7.47819e-05
-2.74148e-08
-1.22675e-06
8.56291e-09
-1.4303e-07
1.40148e-07
6.16306e-08
-5.22117e-06
-1.7542e-08
0.000559258
-3.75371e-06
2.48986e-08
5.19503e-09
0.00184559
1.10385e-07
-7.41573e-05
1.29961e-10
-2.6898e-06
1.05796e-07
-0.000154137
-1.63616e-07
1.3504e-08
3.95355e-08
8.50514e-09
-7.08561e-09
-2.65631e-07
-0.00478011
0.000252839
-7.30332e-07
-7.44052e-09
0.000328732
2.96756e-09
2.97164e-08
-9.99024e-05
2.40966e-09
-7.95048e-06
4.00636e-08
-1.99292e-09
7.09374e-08
4.5643e-08
9.30227e-11
3.19156e-08
5.40315e-08
8.87461e-08
6.77844e-08
0.000189651
-1.53993e-07
0.00655898
-0.00209832
-5.88875e-09
5.12471e-09
-6.22814e-07
-3.2489e-05
4.74003e-09
-2.49591e-08
-1.33294e-07
0.000264682
4.82148e-08
3.06582e-08
0.000129723
0.000473
3.19217e-06
1.48121e-09
-1.66531e-08
5.60972e-05
2.63929e-05
-8.76412e-07
-2.04308e-06
-2.63298e-06
-5.35572e-05
8.08669e-05
-9.39298e-05
-1.90621e-07
-1.78027e-08
-1.61501e-07
1.9725e-08
-4.18118e-09
-6.37901e-09
1.43192e-08
2.34509e-08
-1.88771e-08
-9.77725e-11
-1.08765e-08
-2.47981e-05
4.34899e-09
0.000129488
1.92331e-08
4.53114e-09
-1.29789e-09
4.50809e-11
-1.74962e-10
2.75495e-08
-0.000413036
-3.97259e-10
-6.98385e-10
-8.90233e-07
0.00854627
7.78042e-10
3.00444e-09
7.80693e-05
-3.96316e-10
-3.03772e-10
-2.51625e-08
4.21111e-10
3.04252e-09
-8.04453e-06
-9.42974e-05
2.94723e-06
6.27037e-08
-0.00231782
4.52311e-09
-0.000107996
-6.91636e-07
0.00728912
5.71291e-05
-1.31024e-08
9.69914e-08
-2.05306e-10
1.69838e-07
1.05069e-10
6.38306e-10
2.74152e-09
-1.68697e-06
-3.4115e-09
-2.84269e-05
-2.62234e-05
-1.2859e-09
-1.58599e-07
8.74223e-09
4.03779e-08
1.17122e-09
-2.8058e-05
-2.01659e-05
-5.37149e-08
-1.94551e-08
0.000475493
-0.0049326
1.38046e-07
-3.41391e-07
-2.05452e-09
-0.0122706
4.31552e-09
-3.39277e-06
-9.66265e-09
3.37529e-08
8.40774e-07
6.63474e-05
-0.00702743
0.00301367
-3.06901e-09
-2.54064e-08
1.62938e-10
4.84295e-08
3.19518e-09
0.0092557
1.68274e-08
9.90316e-10
-1.04077e-05
-1.19568e-09
5.30738e-10
-4.28973e-10
0.00064389
-7.67066e-09
-0.0143616
0.00235291
0.000228548
-3.56214e-05
0.0170433
7.04629e-10
-4.33077e-07
-7.7556e-09
-4.70501e-05
-6.81027e-09
-0.00200611
1.30526e-07
-2.14318e-10
7.96208e-09
2.48888e-07
2.84666e-08
-2.02537e-08
3.48901e-08
-1.16437e-08
4.83346e-09
5.31771e-05
1.39773e-06
-9.38165e-05
3.29291e-09
2.9761e-05
3.92325e-09
2.23466e-06
1.53e-07
4.65819e-08
1.46914e-06
-8.49252e-05
-4.96013e-09
-3.29217e-05
5.50472e-09
-1.91896e-05
4.90496e-09
1.99803e-08
-9.18913e-08
-5.79288e-05
-5.17476e-06
-4.18921e-08
-0.0111535
-1.71754e-07
-2.1379e-08
7.50329e-10
5.62176e-08
-7.24654e-09
5.72521e-09
-8.70557e-07
-1.34933e-06
0.00444328
-2.35079e-08
-2.99619e-07
4.02746e-05
-4.33121e-10
-1.44349e-09
-1.96178e-09
0.0145835
7.91239e-07
0.000297327
-3.72817e-09
4.49876e-08
0.00280635
-3.34813e-05
8.78137e-10
-1.21797e-10
-5.94239e-10
2.56199e-10
9.81725e-10
-9.07886e-05
0.00271422
4.39838e-09
-5.76735e-10
-5.51582e-08
-7.22565e-05
2.43395e-09
-1.24461e-08
-0.00970797
1.16832e-05
3.95889e-07
-7.76388e-07
-2.09705e-07
1.78621e-10
0.014705
-1.21598e-07
-5.14939e-07
-7.59359e-09
-2.31617e-08
0.00284579
-6.38773e-08
1.52021e-07
1.54035e-07
2.9637e-09
1.41033e-09
-5.04922e-09
5.74942e-08
2.357e-09
-3.62321e-05
-0.00572963
-4.34521e-09
1.80406e-09
1.9713e-08
1.6297e-09
-6.2061e-08
5.65893e-09
3.16582e-08
-9.37043e-09
7.42371e-06
-5.91578e-05
-2.49385e-08
5.73234e-08
6.09634e-05
-3.06498e-12
-3.95967e-07
-3.90665e-05
-2.18273e-11
-6.07623e-05
4.00841e-09
0.000782132
1.12248e-09
7.11163e-08
3.23503e-09
-6.37799e-10
8.0255e-07
-2.87351e-10
-0.00176871
1.10823e-08
-0.00162694
4.23439e-07
-0.00944588
6.50143e-06
3.95994e-11
-6.52617e-09
3.44686e-08
-6.97379e-08
-6.4506e-08
2.44352e-08
7.60916e-09
-2.76673e-10
-3.71609e-07
-3.71038e-06
1.29533e-07
1.43464e-08
-3.80944e-09
-1.21213e-05
-5.60253e-05
-3.03128e-09
1.74347e-06
-4.4293e-08
-0.00782999
5.45784e-08
-0.000172327
-0.00169539
-1.8329e-06
-6.83138e-06
4.81465e-08
-1.4971e-05
-0.00886004
-5.97134e-06
-2.72663e-09
1.00067e-07
-0.00770847
-7.94454e-09
-1.76788e-07
2.36709e-08
1.93453e-09
-4.95769e-05
6.51946e-09
4.08919e-08
1.75334e-09
3.24162e-05
-1.80503e-09
7.88645e-08
-2.39498e-07
-3.57775e-06
-9.20619e-10
4.00198e-09
-2.934e-05
-3.46933e-09
5.07685e-09
-0.000111137
-1.9591e-05
0.00096176
0.00187659
-6.89775e-10
1.03568e-08
2.68328e-05
-7.26369e-06
-1.30753e-10
-2.94069e-09
3.13453e-08
-1.16842e-07
1.08278e-07
6.60098e-08
1.04749e-08
-2.55975e-06
2.3402e-08
-0.000117942
1.26243e-08
-4.84366e-09
-1.28893e-07
2.11455e-06
-2.17206e-09
-8.07419e-05
2.8315e-08
0.000148895
-2.29377e-08
-5.70653e-06
1.45927e-06
0.0010636
-6.14229e-08
0.000300134
0.000381928
-2.88953e-07
-2.01115e-08
0.000298839
-2.56048e-09
0.00342752
1.05277e-06
-5.86198e-08
-7.49897e-05
-1.2599e-10
-0.00162841
-1.85911e-09
-0.00012053
-0.00192912
4.42583e-09
0.00284864
6.06365e-08
-2.08104e-08
0.00089222
-4.73137e-08
-2.74171e-08
1.55862e-06
-5.11368e-09
5.06923e-07
-5.90645e-06
5.35105e-09
-1.89316e-09
2.0604e-08
-2.29192e-08
9.09714e-10
-5.99829e-09
-0.00684483
-0.000600805
-1.66856e-08
9.68627e-09
-1.17597e-08
1.78193e-08
-9.70225e-05
-2.08792e-09
7.5669e-10
4.94295e-08
2.76798e-06
2.60334e-09
3.8567e-09
-0.000517402
0.0120251
0.00011616
2.3593e-07
-1.27702e-05
3.60321e-09
-1.67489e-09
-1.14313e-07
2.34519e-09
-2.10035e-09
2.72781e-09
-7.68982e-10
3.58108e-09
0.0132399
-1.50106e-08
1.29644e-07
5.41244e-06
2.68073e-09
6.25862e-09
9.42174e-10
0.000979369
-1.13477e-07
-2.43093e-05
-9.95816e-10
-9.67815e-09
-7.23338e-09
2.77981e-09
3.63224e-08
-5.84956e-09
-0.000428586
-7.49171e-08
4.88937e-06
-8.72342e-09
3.30929e-08
-8.39203e-06
1.06177e-08
-2.084e-07
0.000844813
1.68044e-08
0.00387781
-1.37763e-08
-1.98242e-09
-2.95028e-09
-1.51094e-09
-2.50195e-09
5.84042e-11
-1.84446e-05
-0.000559565
-6.30298e-09
-0.00957828
3.91043e-08
-6.59896e-09
-3.66416e-08
1.9116e-08
0.00090547
-3.42285e-08
-1.61766e-05
-0.00222355
-0.00244325
-2.94673e-09
7.06206e-06
-1.07578e-05
-2.27203e-08
0.00117628
-2.26262e-10
1.72552e-08
-1.41184e-09
-3.09107e-09
-8.14573e-08
6.37595e-07
-4.27768e-08
1.13572e-07
7.64347e-08
-2.7832e-06
4.36927e-07
-1.34256e-08
0.000350875
2.06464e-08
-6.11261e-09
0.00226469
7.56226e-09
5.59617e-07
-1.53325e-07
-8.75699e-10
-1.94827e-06
-2.02209e-09
3.10219e-09
2.03834e-08
-1.52237e-09
-9.21388e-11
4.15464e-07
1.96557e-05
0.00368756
-5.47798e-09
-6.25021e-08
3.47206e-08
0.00115303
-0.000982616
-1.19136e-08
-2.28469e-08
3.78749e-09
1.3253e-07
-0.00115702
-4.93322e-09
-2.50005e-10
1.23226e-08
-3.04469e-08
-6.55012e-08
-2.61478e-08
-4.24636e-10
-6.55758e-08
-3.61979e-10
4.04837e-09
1.6776e-08
-0.000200199
4.96348e-10
-5.35992e-08
-1.42698e-09
5.6762e-09
-6.51458e-08
-6.40906e-07
1.11293e-07
5.48878e-05
-5.22654e-09
-1.11191e-06
-2.31199e-05
0.0077495
6.28782e-06
-9.37674e-10
1.30777e-08
2.05469e-07
-4.93417e-09
1.85152e-05
3.95466e-10
0.0063221
-9.65084e-09
-4.76642e-05
-3.09296e-06
4.50526e-08
0.000124
-7.16376e-09
2.94127e-10
5.85559e-10
1.9628e-08
-4.88759e-05
-1.64974e-09
-1.76412e-06
1.7865e-10
-6.77522e-09
7.36878e-09
2.30744e-07
-1.1751e-07
-5.71879e-10
8.52753e-08
-1.313e-09
0.00462586
7.14747e-05
-1.56566e-06
0.000972645
3.19971e-10
-4.17749e-05
8.83977e-11
-0.00320846
-0.00699591
-1.65379e-07
4.28208e-06
-2.92901e-10
2.03278e-08
2.4889e-08
-1.73952e-09
9.23255e-10
-3.43887e-09
7.06751e-05
1.38293e-08
3.99975e-08
1.26482e-08
-8.97761e-10
-1.41167e-09
1.40796e-05
0.000940912
-0.00142088
-2.95863e-08
-2.73337e-08
0.000555485
-7.18348e-05
-9.4613e-09
0.00117525
-2.19876e-09
4.73639e-08
-2.91984e-08
0.000243937
-1.41164e-08
-6.79249e-08
7.5493e-08
0.00456358
2.71069e-08
7.38647e-05
2.84783e-10
3.50927e-08
1.02552e-08
-1.49896e-10
-0.000134924
0.000588847
5.30289e-09
2.0352e-07
-3.4947e-09
-4.08996e-08
-6.20258e-10
-0.000145066
1.41832e-08
8.5292e-08
4.02771e-10
3.76322e-09
2.13603e-06
-1.77356e-10
1.6749e-07
4.28483e-10
2.30535e-09
-0.00193857
2.98619e-08
-3.86212e-09
-6.62155e-06
-6.40774e-07
-0.000157797
-7.7382e-07
-2.38328e-09
7.8517e-08
-0.000191474
6.34252e-08
-7.45098e-08
3.07777e-08
-7.04321e-08
-8.97287e-11
2.4312e-09
4.34657e-08
-8.29007e-08
-2.75745e-08
0.00700093
2.66076e-08
-0.000520455
-0.000929055
3.67203e-06
4.17582e-08
2.23513e-07
-6.70455e-05
4.58675e-09
1.38708e-06
7.96735e-05
2.80637e-09
-2.27525e-10
-3.78172e-10
-2.10692e-08
2.75101e-10
-4.30013e-05
-3.50356e-08
1.2222e-10
7.58445e-09
2.68145e-10
-0.00014755
-1.98576e-09
3.276e-09
1.64605e-05
-8.3832e-08
-0.00189945
-2.10651e-08
6.69749e-08
9.5511e-10
1.34155e-09
3.49096e-08
-5.71342e-10
-1.5183e-05
1.39947e-08
0.0024238
-0.0023275
9.77528e-07
2.90184e-06
-4.12909e-08
-4.83534e-10
2.3915e-08
-4.322e-05
0.00515444
-2.30502e-08
-2.35913e-05
8.44885e-05
3.33668e-10
-7.72605e-09
4.84652e-09
-2.60152e-05
0.0016584
2.63728e-08
8.5143e-09
-5.34116e-08
6.00553e-08
6.59586e-09
8.51262e-08
-3.34039e-08
1.23387e-09
5.03213e-08
-4.81163e-10
4.55358e-08
4.69153e-08
1.2547e-06
-5.79468e-08
-5.78934e-07
-1.83365e-05
-2.69804e-07
0.00236177
3.32007e-08
9.80675e-08
2.2701e-08
-1.87664e-07
-2.07741e-10
-5.24415e-09
0.000889604
-0.00105658
3.36255e-08
-4.76729e-08
6.32098e-10
2.06725e-08
-7.67241e-09
1.72225e-07
-3.34899e-06
2.45584e-06
1.65858e-07
-1.22499e-09
4.24095e-06
-1.11408e-08
-3.70814e-09
3.25342e-07
1.02736e-08
1.23117e-09
0.00349779
-1.53281e-09
-7.95725e-08
7.50519e-08
-3.57399e-08
1.84516e-09
4.50472e-09
2.42433e-09
-5.24661e-05
2.59878e-08
-7.4025e-09
3.44517e-08
3.63024e-09
-4.33956e-10
-3.00626e-07
0.00255655
1.12836e-06
0.00826128
-2.26695e-07
4.21072e-05
5.97749e-08
-5.36587e-09
0.000333831
-7.2727e-08
2.14825e-06
-4.66409e-10
-6.43035e-11
3.92951e-09
-1.32938e-08
-5.08153e-07
3.31937e-09
0.000357675
-4.34863e-09
-0.00454618
1.32594e-08
-3.03562e-08
-1.25371e-09
-1.81943e-08
7.97339e-08
0.00102419
9.62777e-07
-5.22268e-10
-0.000187068
4.19503e-08
-3.7351e-05
-6.77648e-09
1.86981e-05
-4.89059e-09
-8.26446e-09
-1.43101e-08
-6.55413e-05
7.04943e-08
4.46802e-05
0.0110052
2.76157e-08
-3.51241e-08
1.18531e-10
-1.06057e-07
-0.000815604
-9.45871e-10
0.00892817
-3.22298e-08
2.43431e-05
8.21455e-08
-0.0029968
3.84096e-10
2.06461e-10
-6.53906e-07
-1.66965e-09
-8.22235e-09
-2.17373e-08
4.33837e-09
3.62982e-08
1.76632e-09
-3.38924e-06
5.65932e-09
-6.92422e-05
-3.17642e-05
0.000126403
1.89497e-05
0.00469395
-7.0615e-05
-0.00809477
-7.25435e-10
-1.81437e-08
2.19931e-08
-1.18106e-09
2.15791e-10
6.51101e-08
1.55591e-09
-7.29295e-05
6.56262e-09
-2.34797e-06
3.56594e-09
2.79255e-08
-6.6555e-07
-9.81122e-09
7.30999e-08
1.92992e-08
8.05376e-08
4.07619e-09
-6.19845e-09
2.33939e-05
-9.37793e-08
0.000262632
-1.34974e-09
5.50733e-09
-1.05871e-08
-8.99247e-09
0.00199868
-2.66899e-09
-0.000107943
-8.61656e-09
-0.00148522
3.26936e-08
1.08401e-08
-6.37008e-09
-6.54812e-07
-2.71554e-09
-0.00148108
0.00121489
-2.05259e-09
-7.04476e-09
-3.23008e-09
8.70506e-05
5.92122e-09
5.86656e-09
-0.000102633
-7.45643e-11
1.08289e-10
-2.93447e-09
-8.79654e-05
-4.43947e-08
-0.00329958
0.000379756
-2.46091e-08
-6.37233e-09
8.33145e-09
-2.51597e-06
-2.69821e-08
1.05607e-07
-4.27588e-09
2.06729e-06
6.41778e-08
-0.00375639
-7.90217e-09
2.66637e-10
-0.00202426
1.12643e-09
-1.02409e-07
-2.2458e-05
3.08141e-08
5.63978e-09
-0.00980213
-6.92002e-08
-6.0469e-09
-7.90637e-08
-6.0273e-09
1.75204e-05
1.0085e-07
1.19089e-08
-5.45295e-07
-2.42509e-08
-1.77681e-05
-1.14961e-08
-6.66449e-08
6.79973e-09
-1.08858e-05
-0.0021567
-3.72313e-08
2.32901e-08
-3.81208e-08
-1.93446e-08
2.98801e-08
-9.98172e-09
-2.60799e-10
4.07649e-09
4.29095e-09
-6.28499e-10
2.2338e-08
-2.73806e-09
0.00290247
0.000934207
-1.02021e-08
-1.11594e-08
-0.00210182
-6.49814e-09
0.000213308
-0.00111548
-1.66065e-05
-1.76899e-09
-1.5742e-09
8.25955e-10
2.01573e-08
-2.29225e-09
-1.7882e-09
-6.09409e-09
4.61892e-08
7.8868e-09
-0.000725722
-0.0096739
-1.12121e-09
-6.33752e-05
9.03023e-09
-1.5879e-08
1.95658e-06
-0.000158591
6.69674e-07
-1.19755e-10
-0.000688951
2.43645e-09
1.98115e-08
8.07752e-06
-2.98783e-08
0.0140411
2.10227e-08
0.000237548
-2.58571e-09
2.94444e-09
-1.01643e-07
-0.000997727
-1.49048e-08
-7.62123e-05
2.04805e-06
-5.74413e-10
7.09539e-09
3.17702e-08
1.01478e-09
4.83194e-08
-2.43599e-08
3.13248e-09
-4.48041e-05
-0.000509533
-0.00028231
3.73083e-08
-2.06488e-09
-1.99271e-05
5.49175e-09
-0.00190407
1.59102e-07
-5.1488e-09
-1.58139e-08
-0.00534281
0.00235276
5.22113e-06
-7.01102e-07
8.73322e-05
1.9994e-08
-7.15034e-09
-2.45243e-08
1.17316e-08
-8.25844e-09
-0.00136122
-7.56046e-05
6.05847e-09
2.05669e-08
-6.59458e-05
-2.41329e-11
1.30816e-09
0.00684436
5.46996e-05
-1.6558e-08
2.56281e-11
2.97289e-08
6.48557e-08
4.03825e-09
2.78242e-07
2.95036e-08
1.52528e-08
0.00274613
-5.4683e-07
6.44665e-05
-0.00104966
1.96619e-06
-2.12954e-05
-3.79366e-08
1.34469e-08
2.70773e-06
-9.7079e-05
-0.000760979
2.4947e-06
-1.50593e-07
2.47948e-08
4.7192e-09
-3.77131e-08
0.00103907
9.07001e-07
2.39686e-08
-3.95267e-08
-4.96236e-09
-0.00107397
-3.33738e-08
9.23407e-08
-6.03496e-09
0.000712781
0.00244091
0.000118399
-7.59092e-05
-1.2294e-09
0.000626829
-1.85094e-10
1.7113e-07
-6.589e-08
0.000308052
-1.45446e-08
6.28479e-08
4.1082e-08
-0.000704321
-2.45426e-08
0.000845389
5.07915e-08
-1.78827e-08
-0.0004684
-1.82741e-10
5.48903e-08
-2.17617e-08
5.06427e-09
-1.72584e-07
3.33282e-05
-1.48807e-09
-2.83524e-09
-2.35644e-08
4.38992e-06
8.67609e-10
2.34008e-08
2.99584e-08
-9.46841e-10
-1.67296e-08
-1.7922e-07
-5.51913e-09
1.42332e-08
1.65576e-09
8.7842e-06
-3.80052e-06
2.21157e-07
-1.67752e-05
3.1422e-08
-1.47499e-08
0.00419604
-3.56859e-09
3.10737e-08
-7.66708e-05
-1.91214e-05
-5.75238e-08
2.09894e-07
-2.84943e-08
-2.0352e-05
2.13335e-05
-7.98103e-08
0.000112647
-7.3832e-09
-1.0424e-07
0.00166056
1.1733e-06
-0.00336298
0.00262643
2.16823e-09
-7.92868e-09
2.50038e-09
-2.97877e-08
2.06438e-08
9.76042e-07
3.27718e-10
1.1687e-08
-1.39758e-09
9.39218e-09
0.000946685
2.09949e-08
0.00111324
0.00619876
-1.59942e-08
1.10004e-08
3.83863e-08
7.43039e-09
-1.02906e-08
-8.60802e-06
-4.23607e-08
-7.93214e-05
-4.77465e-08
0.0188933
1.36662e-07
-1.60295e-08
-0.000228736
4.36651e-08
-1.30818e-06
1.09463e-08
9.70902e-05
3.65796e-09
-2.67283e-08
-2.25873e-07
2.61214e-08
2.44152e-08
-4.55889e-09
-0.00378109
-1.40959e-08
2.17611e-07
0.0002463
-1.69102e-08
-5.92598e-09
6.46694e-07
2.9854e-05
0.000486458
5.01162e-10
3.39087e-08
-6.27848e-07
-0.00491195
3.71251e-06
-2.08737e-08
2.05473e-09
-1.0616e-09
-2.45428e-09
3.31569e-10
-3.92307e-09
2.06763e-05
7.99758e-09
-4.26204e-08
2.16124e-05
2.96818e-06
-1.22058e-08
0.000156226
0.0153889
-3.96298e-08
1.56618e-10
3.68523e-09
2.47422e-08
-2.77139e-09
2.72111e-05
0.000243805
6.84967e-07
-7.17033e-08
-3.5064e-08
8.53311e-09
-1.01222e-05
-1.1356e-08
6.2038e-08
-3.63277e-10
0.000106941
-1.77767e-05
-3.01942e-09
-6.14227e-09
-0.00010413
2.41937e-08
1.3234e-05
0.00351758
4.16525e-07
-2.4406e-09
0.000196706
-2.30199e-10
8.34183e-10
0.00113886
0.0040071
-2.65828e-09
6.74902e-08
7.64725e-08
-3.54701e-08
-4.74927e-09
-2.87062e-09
-9.45084e-09
-4.09103e-10
2.2422e-08
1.71766e-08
3.2971e-07
-1.64377e-05
-2.50855e-08
-5.97333e-10
1.40602e-08
1.92e-07
-5.34293e-09
-1.13557e-07
0.000201875
-8.57392e-08
2.41699e-05
1.15166e-08
7.13355e-10
-8.42936e-06
-5.15901e-10
-0.000157985
-1.76581e-08
1.27941e-07
1.00199e-08
-9.85177e-10
-2.47472e-05
2.086e-08
-1.89998e-08
8.71446e-09
-0.0149594
2.74291e-05
-6.52119e-05
-5.71812e-09
7.3529e-09
0.00104968
4.5509e-10
2.20732e-09
-3.52437e-08
0.000468921
-4.54694e-08
1.3456e-08
-2.27463e-08
-2.7289e-05
-8.72568e-09
-3.15135e-08
3.498e-08
-1.26517e-09
1.76468e-08
7.78653e-09
-3.48409e-09
-0.00233745
6.53535e-08
-0.0121193
-1.43264e-06
5.53715e-09
-2.01874e-08
-3.59499e-09
-1.40173e-09
5.09561e-09
1.14919e-09
-1.35018e-08
1.22247e-08
-3.42294e-09
-1.95021e-08
-1.334e-07
1.20582e-06
5.3495e-08
-2.23355e-07
9.69963e-09
4.37173e-06
2.56227e-09
0.000825913
8.37484e-09
3.41795e-09
-1.35351e-08
1.21163e-08
-8.81729e-10
1.97324e-08
-2.29262e-07
-5.49547e-09
-9.99256e-10
0.00129994
1.55974e-07
1.37995e-06
1.13019e-09
-1.10679e-08
4.78405e-09
-9.61517e-07
-4.0482e-09
0.000100067
8.89649e-09
-3.78525e-09
1.32899e-08
4.51826e-10
-1.02156e-09
3.74529e-05
0.00245203
5.14194e-06
-0.000487407
5.16894e-07
-1.39715e-07
-7.07794e-09
0.000901263
-1.0145e-09
3.3833e-09
4.89987e-08
0.000427899
-6.31432e-09
-0.000105597
3.36066e-08
-1.39653e-10
-3.2294e-06
4.43901e-05
-2.02576e-05
0.000394549
3.39461e-08
-4.33019e-06
0.000160575
-8.59028e-09
0.000821542
6.68132e-09
9.47522e-10
-0.00288196
-1.56935e-09
-0.000114137
6.54276e-05
-2.24026e-09
3.017e-08
-1.3416e-08
-7.37176e-06
-2.12841e-10
-4.42896e-09
-2.80015e-09
1.16199e-08
3.79853e-09
9.48961e-08
4.98794e-10
-3.09296e-08
-7.3078e-08
4.47031e-09
-7.79328e-10
-0.00976681
-6.52468e-05
6.92793e-10
1.00267e-09
3.73425e-09
-9.12718e-09
-5.11073e-08
4.07341e-09
-8.07907e-09
1.22951e-08
1.83911e-09
1.59748e-08
4.0368e-09
-1.37206e-06
9.61384e-10
-1.60845e-08
-7.81012e-10
2.83405e-07
4.67729e-09
-1.66202e-08
6.20041e-09
1.71509e-09
-4.09253e-08
4.80817e-08
3.94684e-08
-0.0117292
-1.09638e-05
-2.02248e-05
2.08457e-05
1.72008e-09
3.37299e-05
1.52983e-08
6.70221e-09
-0.00153202
-0.001732
5.89474e-09
-5.92111e-05
7.78572e-09
6.7556e-08
-0.00129323
-1.74828e-08
-2.12138e-08
0.00516718
0.00422314
2.02083e-10
1.83403e-08
3.80396e-09
0.000185297
-2.9482e-08
-8.19975e-05
-0.000215662
-3.64431e-08
-5.1086e-05
-0.00365998
-1.29533e-10
0.00106588
0.000713839
-3.31003e-08
-1.96509e-09
0.000612898
-3.0569e-05
3.81622e-10
2.45273e-08
-1.04137e-08
-0.00180411
-1.92625e-06
1.30808e-09
8.51847e-10
-2.90079e-05
-4.59351e-09
-1.25017e-08
-1.08859e-08
-4.50462e-09
0.000970789
2.23579e-08
6.96904e-08
-2.32511e-05
1.25227e-08
-2.59039e-07
-4.22144e-08
0.000444277
1.31389e-07
0.000157419
8.50059e-09
6.04941e-08
1.272e-11
1.05065e-09
5.27538e-08
1.98404e-09
0.00118002
4.39939e-09
-2.78868e-09
-1.43502e-08
0.00127019
-1.15971e-09
0.00190421
0.000142134
0.00330036
-2.57228e-08
-3.83846e-09
-7.9939e-10
-0.00587355
4.80973e-09
1.17881e-05
2.03806e-10
0.0131497
2.76939e-08
1.06794e-07
-2.05814e-05
-2.43776e-08
1.83574e-10
-3.29443e-05
8.67357e-08
-0.000117313
8.19073e-09
-4.47963e-05
0.0153605
3.19267e-08
-6.30534e-05
-2.00372e-09
1.13985e-08
0.0121139
-1.48996e-12
-3.38668e-07
-9.11804e-05
-5.13435e-08
-6.91935e-08
-3.86729e-08
-3.14872e-05
-9.96443e-09
0.00194768
-1.04776e-08
-6.45189e-05
-2.95492e-08
4.6705e-09
3.41036e-09
0.000172324
-8.59038e-09
-1.04131e-05
6.67584e-07
0.00417109
-8.14445e-10
-2.61974e-08
-4.92881e-05
4.32558e-05
-0.000737734
2.85529e-09
1.10685e-08
1.37023e-08
0.0125223
2.78255e-08
0.000605683
2.094e-09
1.82026e-07
-5.98747e-05
-1.12446e-08
5.89074e-08
1.5401e-08
-4.423e-05
0.000862272
-2.41007e-08
2.43162e-08
0.000511937
0.0038398
-4.99969e-08
7.4616e-10
-3.54275e-09
-1.52173e-08
-2.66741e-05
2.23361e-07
-2.25362e-05
6.33448e-09
-3.49789e-08
-0.000106277
-1.91944e-06
-0.00238864
1.29688e-05
8.67805e-10
6.13519e-09
-4.33931e-07
-0.00100601
-0.00290796
-0.00224615
-2.34329e-07
-5.33461e-08
-7.15516e-06
-5.74657e-05
0.00138163
-0.00118105
-7.69214e-10
-1.1611e-07
3.4925e-09
2.71237e-07
-2.47695e-09
-1.39791e-08
2.45966e-07
2.19606e-05
0.00312258
5.33092e-09
0.000251621
-3.21373e-05
-4.51297e-07
-3.33423e-08
-3.38568e-08
-0.000102744
5.29967e-09
-3.927e-06
-1.77409e-08
-1.20773e-07
-4.62626e-07
2.67676e-05
7.37554e-10
4.79374e-08
-4.70825e-09
-1.69038e-08
-3.95963e-06
4.04915e-07
1.42575e-05
-4.01191e-09
-8.15917e-05
1.71723e-05
-3.886e-07
2.17757e-09
-4.58903e-08
-5.392e-08
-2.27389e-05
-7.58343e-07
1.34982e-08
-2.43485e-05
0.00860482
1.6654e-09
-2.65346e-08
-5.68533e-08
3.05961e-07
-2.78794e-05
-3.77583e-10
-2.74206e-09
1.43687e-08
-0.00069119
-5.73122e-05
7.16249e-09
3.09191e-07
-4.92108e-06
8.02642e-09
2.8258e-05
-1.5513e-08
6.17781e-06
2.45377e-08
-0.00194525
2.80452e-05
5.90606e-08
1.31328e-08
0.000459486
-4.08319e-10
-5.28395e-07
-0.000129808
5.12637e-09
3.3633e-07
1.75145e-08
7.21311e-08
-0.000821368
-4.80106e-05
-3.69194e-08
-0.000997989
0.00736291
-1.96426e-09
5.17911e-08
-6.79956e-08
-4.37336e-07
0.00116971
-0.00541489
-0.000370692
-1.34229e-07
7.04121e-05
-3.19239e-08
-4.44877e-09
3.48106e-09
-5.76628e-09
-2.6299e-08
1.84544e-09
-2.40849e-05
0.00012848
2.76829e-09
1.11382e-07
-2.92286e-08
4.26362e-09
-0.00166982
6.4448e-05
2.22679e-09
1.24929e-08
-4.1522e-09
-9.45348e-09
-1.47674e-08
-3.40279e-10
0.0178363
8.50063e-09
3.10588e-09
4.30339e-08
2.76509e-07
-5.43421e-06
2.17518e-07
0.000110692
-9.45774e-09
-1.53417e-09
-4.87553e-10
1.28739e-09
-4.75947e-05
7.28104e-08
-1.00003e-09
0.0145082
1.60347e-09
-1.10436e-09
-6.16185e-08
6.31e-09
2.28203e-09
1.07318e-06
4.15163e-08
-0.000104157
-0.0146766
-0.0027579
4.04141e-08
-0.00733564
1.52556e-09
-2.92028e-05
-3.59915e-09
1.81127e-07
-0.0042187
1.06186e-09
-0.000256704
-5.99365e-05
-1.38829e-07
4.40992e-10
4.1269e-10
-7.04677e-08
0.000932877
-8.02761e-10
3.24315e-08
3.05972e-10
-1.82258e-09
-1.28494e-07
-3.78787e-09
1.84145e-08
-3.39352e-09
4.6696e-10
0.000526657
4.61518e-08
-1.19595e-08
3.07907e-07
0.000257947
-7.68831e-05
0.000442472
-1.32036e-09
-2.13781e-08
-0.000182569
1.04432e-08
-6.20374e-08
4.12864e-08
-3.87169e-05
1.4711e-09
1.23832e-08
-4.08934e-08
0.000909214
1.51262e-08
5.41103e-10
-1.25835e-11
3.8601e-08
-0.000244877
-5.98268e-07
-3.38578e-08
1.78792e-09
2.26043e-09
-1.15167e-05
4.86511e-08
8.92941e-05
6.66687e-08
6.23269e-09
7.92795e-05
1.61792e-07
0.000480136
3.14771e-08
-2.40475e-09
6.55858e-09
-3.8598e-07
-3.33758e-06
9.49806e-09
2.36443e-08
-3.34562e-09
-0.000157463
6.08044e-10
4.83562e-09
-4.89208e-05
3.1971e-08
2.75096e-06
-1.92055e-08
-5.88046e-10
9.57245e-09
-0.00756153
-4.19975e-09
0.0054742
0.000641723
1.66557e-09
0.0155026
2.354e-09
-1.83904e-07
2.43878e-07
-5.04423e-09
1.09285e-09
2.57955e-09
-1.24994e-10
0.00305702
5.06384e-08
9.23902e-06
7.38796e-05
-8.99066e-09
4.78884e-06
-3.00102e-08
-1.19344e-05
-1.25707e-08
-0.00325866
-5.03319e-05
-3.64734e-05
5.76165e-10
6.90645e-09
7.27456e-09
-0.00645175
-5.20595e-05
-7.30498e-08
3.4578e-09
2.39878e-08
0.0170564
-1.90224e-08
-3.55261e-09
-1.55573e-08
1.37495e-08
0.000218949
-2.90809e-09
0.000887785
6.22118e-08
-1.91903e-08
0.00117972
6.93935e-08
0.0167111
0.00192833
-9.37951e-08
1.19276e-08
7.85194e-10
-1.11822e-08
1.36691e-08
-4.73733e-06
-1.35051e-07
-1.09608e-08
-2.44561e-08
-6.33865e-06
-0.00856421
1.29093e-09
-1.12886e-07
-0.00729615
0.0118373
-6.33196e-09
-3.16491e-08
0.00149955
-2.78077e-05
-8.30279e-05
-7.18331e-09
-0.0124173
-3.25312e-09
3.25792e-09
-2.0676e-05
-5.92678e-08
1.62584e-08
0.000141394
-7.61558e-09
-3.31171e-06
2.15947e-09
-1.81896e-09
-1.75042e-08
9.83359e-10
8.7669e-05
1.65215e-09
2.51608e-09
-2.90261e-08
4.25756e-08
6.61067e-08
1.36136e-07
-1.68099e-08
-6.28518e-08
-1.94083e-08
-1.15092e-08
-0.00161336
-0.000507189
-9.47618e-06
-0.00037074
1.25133e-07
-0.000110781
-1.67367e-06
0.000217599
-0.0108873
0.00019869
-5.00798e-09
-9.64719e-09
-4.98473e-09
-2.37212e-09
1.059e-09
-6.07753e-08
-7.81647e-08
2.60489e-08
-2.04548e-07
3.52723e-09
1.29955e-08
1.58969e-08
-1.40512e-08
7.87961e-09
-2.84857e-08
5.5638e-06
2.38307e-08
-5.74456e-05
1.18474e-08
0.000849185
1.1035e-08
-2.81631e-10
-2.62403e-09
-2.02447e-08
-6.08009e-09
-1.18239e-07
-0.0001225
-7.92861e-08
-1.57892e-05
-0.00968562
-1.89853e-09
-3.76413e-08
0.00108423
-2.17762e-07
1.6231e-10
-2.73914e-09
2.53832e-09
-5.43097e-05
4.84104e-10
-8.77313e-05
6.05858e-06
-9.31048e-08
0.00160916
0.000242398
2.73059e-08
6.48677e-06
5.65657e-09
-2.93199e-11
7.95949e-05
-1.605e-05
-5.34768e-09
3.11241e-08
0.00343482
7.29082e-10
4.68718e-06
-2.67492e-10
5.54734e-08
1.60822e-08
-3.41468e-08
-5.53738e-08
-0.000178947
-0.000103915
-1.57552e-08
-7.75967e-11
1.62904e-06
-5.09436e-08
2.69656e-07
1.24635e-09
4.79096e-08
4.44407e-08
1.76451e-08
4.30285e-09
-1.799e-10
-5.33884e-06
-5.30397e-06
-3.27629e-07
0.00105187
4.97666e-08
-3.01719e-05
-1.60833e-08
8.47767e-08
-4.67526e-05
4.76472e-09
0.000163819
-3.39876e-08
1.0911e-05
-1.74277e-05
0.000236178
-1.63112e-05
-4.02201e-10
1.7192e-07
0.0001554
2.90367e-09
-8.34962e-05
-1.43744e-08
-1.5613e-08
-8.11943e-09
-3.13431e-08
-6.54952e-08
1.69724e-06
-2.32533e-05
0.00670925
2.20829e-08
-8.5674e-08
-8.8941e-09
-4.57357e-09
1.59624e-07
-2.74341e-06
-1.59573e-08
-0.00246339
2.03244e-07
6.14772e-09
-3.16651e-09
-4.8073e-09
-1.37029e-07
-3.23945e-08
-1.22723e-08
4.40372e-08
1.11091e-07
-5.35937e-08
-4.23087e-07
1.08931e-06
0.000202395
5.68303e-08
-2.22826e-08
1.94093e-09
4.06627e-09
3.65328e-05
-0.000161449
-2.69635e-07
9.51966e-09
0.00106694
2.6964e-08
-1.92899e-09
2.06325e-08
-0.00013066
-0.00341034
-1.17343e-07
1.50653e-09
0.000823545
2.27497e-08
6.60929e-09
7.19819e-09
-0.00435065
0.000464897
-1.0777e-09
0.000986068
0.000141833
-2.29964e-09
4.70788e-07
1.94085e-07
1.08135e-05
4.08021e-08
-5.62879e-05
-8.61359e-09
8.84854e-05
5.02401e-07
-2.65039e-05
1.15904e-08
-1.35411e-08
-9.0651e-05
1.06221e-09
-9.26161e-09
0.00760673
-3.73132e-06
5.73877e-05
-0.000243707
-1.50632e-09
-1.66146e-08
0.000116107
2.53503e-09
-7.28385e-09
-3.74693e-08
1.15612e-08
-1.27635e-08
1.91159e-07
1.82012e-09
-0.00247389
-3.91607e-05
2.26817e-08
-7.13051e-05
2.63685e-09
-8.829e-05
-2.70395e-05
-3.37627e-08
-1.31682e-08
-9.59808e-09
0.00576025
-1.01838e-07
-1.69941e-08
-0.000124442
0.000743923
0.00927497
-9.87401e-10
-9.74054e-06
-0.000160044
-1.50891e-06
8.62254e-05
-2.57842e-08
1.02367e-08
5.80906e-10
2.86926e-09
-6.47005e-10
-2.06434e-08
-8.55082e-05
1.16301e-07
0.00160194
0.00643636
3.92029e-05
-0.00269001
-7.10441e-05
-1.25087e-09
-3.09298e-05
8.82856e-09
-7.65845e-09
-6.15407e-10
-5.45375e-09
-6.82952e-09
-2.41387e-05
2.43869e-08
0.00106707
-8.70927e-05
-1.20419e-08
5.87688e-08
5.4859e-09
1.17281e-06
1.0927e-08
-6.9552e-08
1.80444e-05
5.38693e-09
-9.44665e-09
-4.68351e-09
-2.82331e-08
2.92596e-08
-0.000111656
-2.18805e-07
-3.67892e-05
-3.83694e-07
3.36305e-09
-0.00187481
-4.94047e-06
-5.07805e-10
-2.02994e-05
-2.5224e-05
-0.00212975
-0.00143922
-5.26608e-05
3.61964e-09
-3.21157e-05
-8.91384e-05
-1.0791e-06
-3.82926e-05
3.03516e-09
6.61786e-09
-3.90478e-08
-1.87278e-08
-4.40523e-05
2.87773e-08
3.8344e-08
-1.38082e-08
0.00156284
-6.79048e-05
1.20504e-09
-5.27996e-07
-2.90295e-06
-7.48534e-05
1.31617e-07
-5.92957e-08
-2.15895e-07
6.90951e-09
-3.03754e-09
-0.00522686
5.90655e-09
2.59982e-07
-0.00120932
-4.5217e-05
-2.34515e-09
1.33698e-06
3.49955e-07
2.4886e-09
-1.04383e-09
-0.0171017
-0.00180554
-6.95486e-09
2.10649e-07
-2.19183e-07
-4.63081e-08
-4.48064e-05
0.000921325
-8.88118e-09
-0.00099481
0.000376131
2.89238e-08
-1.11009e-09
-3.6643e-06
-5.68699e-10
4.95785e-09
-9.25817e-05
-5.79163e-08
-1.34858e-07
-1.81438e-08
-6.14196e-08
-6.03133e-10
4.65591e-09
3.54639e-08
-2.28767e-08
0.00107422
-1.37578e-08
0.00083441
-5.02882e-06
2.06115e-07
-5.76688e-08
0.000614746
-3.99891e-05
0.000927752
5.38767e-09
-1.94232e-08
3.37095e-08
3.54139e-09
1.93197e-06
-0.00198105
8.44466e-09
0.000949069
-3.70999e-05
-4.61719e-08
4.95965e-10
-3.11812e-08
1.45131e-08
2.53444e-08
-5.40459e-08
7.69814e-08
-1.85363e-08
-1.76395e-07
-1.92494e-07
2.58481e-08
-2.59282e-08
8.56435e-08
4.68122e-09
1.28097e-08
7.18686e-10
-2.85697e-09
0.000607334
-1.57538e-05
-2.1847e-07
-0.000115282
2.10006e-09
-9.48568e-09
4.21996e-05
0.000185184
8.26037e-09
-3.31375e-08
-6.04323e-09
0.00547883
0.00203788
-1.20024e-08
6.90178e-08
4.33058e-08
0.000122525
0.00031253
1.51367e-08
0.000252473
-7.4456e-05
5.12836e-08
-6.5679e-05
-1.22241e-07
-0.00278801
-2.76708e-05
1.96014e-10
-8.40585e-06
-3.57711e-05
7.1608e-09
1.97154e-07
-2.55672e-07
2.15346e-08
-1.66196e-09
0.00669292
0.00639394
6.81447e-09
5.90165e-09
-0.00140212
-3.07858e-05
1.69293e-07
3.61693e-08
-8.17575e-06
2.32297e-07
-8.72936e-05
-2.37246e-06
-3.26512e-08
9.65601e-09
3.1657e-09
-3.0328e-10
-5.47669e-05
0.00265967
0.000194559
-2.00008e-08
-9.59351e-06
-0.00312949
-2.04226e-10
2.21282e-09
-6.14789e-05
5.25501e-09
-4.53782e-05
2.7233e-09
-6.6718e-05
-6.67679e-08
-8.78815e-10
0.000860189
3.14608e-10
9.09454e-08
0.00230231
5.89185e-09
2.38751e-09
-4.21743e-08
-2.6769e-07
-7.85686e-05
-1.28338e-06
-8.80883e-05
-7.53325e-10
-5.25566e-10
8.48111e-08
1.91206e-07
2.34413e-05
0.00733185
-1.50247e-07
-1.32781e-06
1.36421e-07
0.000168268
-1.05221e-07
-2.14417e-09
5.59818e-09
-2.17709e-09
0.000168814
-3.48003e-06
0.000232229
-4.99402e-08
1.75998e-07
1.81545e-08
-0.000641075
0.00190893
-0.000173551
1.87511e-08
1.83553e-09
-1.33076e-09
-8.40007e-05
-4.70938e-06
0.00279354
0.000182946
1.53789e-07
-1.63953e-05
-3.40746e-10
5.54974e-08
2.94913e-07
0.000146701
-2.20695e-05
9.54757e-10
1.47331e-07
1.06784e-08
2.83891e-09
3.67921e-07
-0.000847669
-0.00135248
1.11066e-08
2.54582e-07
-8.0434e-05
-0.00349133
-3.61153e-05
-5.0522e-05
-4.18849e-05
-9.05037e-10
6.539e-08
-1.25358e-08
1.73415e-07
-4.95799e-09
-7.0144e-07
-7.66316e-09
3.01554e-08
0.000954883
0.00143933
-8.79053e-10
-2.81769e-06
-4.22138e-05
5.18068e-08
-1.09333e-09
0.00821688
5.02903e-08
3.58676e-11
6.00214e-09
-4.59864e-05
-1.57913e-08
-2.72859e-06
5.38201e-05
-0.00386169
-8.1482e-05
-3.38205e-10
0.000198711
-0.000139109
0.00254282
0.00202552
1.11499e-08
6.07745e-08
1.85479e-08
-4.73478e-05
3.23556e-05
3.18703e-08
4.74609e-05
6.60695e-06
0.000559702
-5.9655e-09
0.0105004
-0.00115133
-3.05576e-05
-1.84397e-08
0.000218612
-5.60715e-08
-0.000117899
-7.68941e-07
0.000136884
-1.57919e-05
-2.20929e-09
-1.02246e-09
-6.95296e-05
-1.79434e-05
-1.65576e-06
-2.8069e-08
-3.67885e-08
9.37267e-08