/*--------------------------------*- C++ -*----------------------------------*\
| =========                 |                                                 |
| \\      /  F ield         | OpenFOAM: The Open Source CFD Toolbox           |
|  \\    /   O peration     | Version:  v2012                                 |
|   \\  /    A nd           | Website:  www.openfoam.com                      |
|    \\/     M anipulation  |                                                 |
\*---------------------------------------------------------------------------*/
FoamFile
{
    version     2.0;
    format      ascii;
    class       volScalarField;
    location    "200";
    object      epsilon_0;
}
// * * * * * * * * * * * * * * * * * * * * * * * * * * * * * * * * * * * * * //

dimensions      [0 2 -3 0 0 0 0];


internalField   nonuniform List<scalar> 
13917
(
0.00571404
1.41148e-06
1.72392e-05
1.51067e-06
1.11104e-06
1.39495e-06
1.59335e-06
2.35882e-06
1.67617e-06
0.00358303
1.94705e-06
1.39641e-06
1.74993e-06
0.000669268
1.24653e-06
0.00697245
6.7549e-07
1.78801e-06
3.36977e-06
0.00731666
1.45044e-06
1.09195e-06
1.77678e-06
1.08905e-06
1.44805e-06
1.45656e-06
0.006237
0.00531325
1.53691e-06
4.23519e-07
0.00428318
2.1266e-06
1.44705e-06
0.00457803
8.36883e-07
2.69051e-06
1.33579e-06
1.19144e-06
1.59811e-06
1.55218e-06
7.43413e-07
6.91238e-07
1.65976e-06
3.15772e-06
3.14501e-06
0.000111876
1.4379e-06
0.0182408
0.00271372
8.43001e-07
1.39608e-06
3.43244e-06
0.0136595
1.264e-06
1.28624e-06
3.44173e-06
0.00304722
1.77345e-06
6.86343e-07
7.60182e-05
0.00405337
8.94251e-07
4.60968e-07
1.45046e-06
0.00437647
1.62454e-06
1.58593e-06
2.76151e-06
1.90456e-06
0.00628277
0.00336488
0.00456567
1.57394e-06
6.86254e-07
1.46391e-06
1.41174e-06
1.09599e-06
6.81843e-07
1.41196e-06
1.4451e-06
1.2084e-06
7.08779e-07
1.58096e-06
0.00363133
1.22348e-06
1.06569e-06
2.07971e-06
1.22826e-06
1.53958e-06
6.61217e-07
6.17982e-07
1.66416e-06
0.0026411
8.04214e-07
1.2752e-06
1.58634e-06
0.00385608
8.10578e-07
1.23102e-06
3.23034e-06
5.4032e-07
5.32474e-07
1.21558e-06
8.03268e-07
1.08993e-06
0.00422726
0.00412905
9.18864e-07
6.91405e-07
0.00789372
1.63234e-06
0.00457893
1.53882e-06
0.0137168
0.00434423
1.40305e-06
3.09262e-06
5.64448e-07
7.70195e-06
1.61873e-06
7.07954e-07
6.87897e-07
1.65033e-06
2.69046e-06
0.00624691
0.00406554
1.45674e-06
1.47809e-06
9.18354e-07
2.70675e-06
1.70654e-06
9.89539e-06
0.00642369
1.39876e-06
2.3598e-06
0.00785987
0.00361528
0.00656209
1.47044e-06
1.29806e-06
0.000168398
6.82176e-07
0.00407768
1.08356e-06
1.55107e-06
7.0652e-07
0.00331563
0.000363988
0.0192704
1.27185e-06
1.51269e-06
5.07125e-07
1.55195e-06
1.63299e-06
0.00531451
1.03989e-06
8.00109e-07
0.00657398
5.77749e-07
5.71491e-07
1.16389e-06
0.00405899
1.31855e-06
0.000501681
0.00440594
0.000127157
0.0195071
0.0146745
4.12724e-07
1.48948e-06
1.07638e-06
0.00597083
1.68202e-06
0.00314179
2.07643e-06
5.55492e-07
1.51733e-06
4.07204e-06
1.70224e-06
1.32222e-06
1.64526e-06
1.07196e-06
1.38306e-06
1.42776e-05
7.83911e-06
7.31752e-06
1.38148e-06
3.61319e-06
4.25634e-07
2.67485e-06
2.06771e-06
2.86199e-06
4.82523e-06
0.00558449
8.09547e-07
0.0060645
1.49144e-06
0.00640667
8.33941e-07
1.04089e-06
1.422e-06
0.00606989
0.00753743
1.3006e-06
0.00423756
1.41092e-06
1.5232e-06
6.87633e-07
3.9383e-06
1.20162e-06
8.92552e-07
1.15469e-06
1.15809e-06
0.0198597
2.30543e-06
1.47116e-06
0.00447053
1.09922e-06
6.15372e-07
6.12202e-07
0.0159939
5.00553e-06
9.90344e-05
1.49421e-06
5.03245e-07
0.00771925
0.00671883
6.1423e-07
6.13215e-07
7.92496e-07
6.10408e-07
6.07927e-07
0.00458213
0.013432
1.14968e-06
4.16345e-07
2.21428e-06
0.00473905
6.1836e-07
1.48378e-06
0.00560754
0.00427298
2.3866e-06
0.00449008
2.70345e-06
1.09268e-06
0.0109747
2.25795e-06
1.50866e-06
2.26475e-06
1.29989e-06
0.0153155
1.60675e-06
1.63159e-06
1.95317e-06
1.14202e-06
8.50922e-07
1.45765e-06
1.06384e-06
7.9388e-07
0.00524324
0.00267129
7.10559e-07
6.20267e-07
1.04654e-06
6.22289e-07
1.61622e-06
1.63356e-06
1.64906e-06
7.10298e-07
0.00602109
0.00408075
1.33763e-06
1.06132e-06
0.000428195
5.63154e-07
2.91636e-06
0.0051321
5.65515e-07
0.00523972
7.89297e-07
0.00395908
5.62241e-07
1.22539e-06
1.13983e-06
1.05664e-06
5.20934e-06
9.68148e-07
0.000807929
1.49154e-06
0.00254209
7.21948e-07
0.00148735
0.00685824
5.84648e-07
1.83126e-06
1.08319e-06
1.39322e-06
1.10214e-06
1.41983e-06
7.97466e-07
9.44017e-07
3.97466e-06
8.95797e-07
1.62184e-06
1.41846e-06
1.45952e-06
0.00655194
0.00776438
8.94105e-07
4.70213e-07
1.39901e-06
0.000136034
3.86768e-06
0.00411791
0.00303743
9.66908e-07
2.45302e-06
1.05316e-06
0.00325369
0.00018626
1.85202e-05
1.66372e-06
1.23917e-06
0.00508564
1.0686e-06
1.4476e-06
2.85171e-06
6.57956e-07
0.00591749
1.2229e-06
1.829e-06
5.32256e-07
0.0151584
9.18744e-07
1.60522e-06
1.42417e-06
7.41065e-07
6.33967e-07
2.27468e-06
0.00357527
1.28381e-06
1.06215e-06
0.00469532
0.00374742
0.00314281
0.000501575
5.67015e-07
1.17288e-06
0.00449621
3.24343e-06
5.71006e-07
1.09388e-06
1.32893e-06
1.65856e-06
1.61756e-06
3.32793e-06
2.59076e-06
2.93631e-06
1.8049e-06
0.00441193
9.23022e-07
1.29044e-06
1.11809e-06
6.43885e-06
6.34021e-07
0.0063716
1.80675e-06
0.000137406
1.27949e-06
3.78562e-06
4.70547e-07
0.00245456
6.73314e-07
0.000120742
0.00042199
1.44625e-06
1.33827e-06
0.00185884
5.2805e-07
0.00444467
5.45923e-06
6.69402e-07
0.00261051
1.13653e-06
2.41166e-06
7.66908e-07
0.00644096
2.87313e-05
1.34733e-06
0.00764863
2.36344e-06
1.29296e-06
0.00353846
1.06209e-05
1.3571e-06
5.52663e-06
1.19027e-06
2.35272e-06
1.48824e-05
1.22472e-06
1.62505e-06
1.42675e-06
1.06846e-06
1.01981e-06
9.37044e-07
0.00406173
4.8124e-05
1.28794e-06
9.2885e-07
1.08365e-06
1.79609e-06
2.89928e-06
5.44368e-07
4.15557e-07
3.82008e-06
3.71892e-06
1.06127e-06
1.34993e-06
0.00291885
0.00482119
7.30551e-06
3.60755e-06
0.00261147
6.09638e-07
5.48439e-07
1.4101e-06
1.01565e-06
5.47131e-07
1.15082e-06
5.5156e-07
6.07016e-07
0.0140766
1.19643e-06
1.58587e-06
0.00585387
1.81917e-06
8.96376e-07
1.54451e-06
0.00362695
1.41604e-06
0.00705766
5.36127e-07
1.40844e-06
5.31022e-07
6.04831e-07
1.32854e-06
1.12877e-06
0.00281887
5.80453e-07
0.00453867
1.40364e-06
1.70338e-06
6.45747e-07
1.19378e-06
2.68335e-06
0.0031229
1.3308e-06
0.00385762
9.08511e-07
1.00666e-06
1.07843e-06
1.14359e-06
8.82382e-07
1.17703e-06
0.00646467
0.00340683
8.76869e-07
0.00185505
3.72665e-06
1.51502e-06
1.88219e-06
2.28876e-06
0.00373198
1.63952e-06
0.00428786
0.000102864
6.02712e-05
1.1354e-06
1.07554e-06
6.273e-07
1.293e-06
0.0023558
6.23816e-07
1.26673e-06
1.28223e-06
1.64331e-06
1.46308e-06
6.20615e-06
1.89292e-06
7.1538e-07
1.0659e-06
1.74463e-06
1.74616e-06
1.28393e-06
0.000904998
1.66378e-06
1.49686e-06
0.00383474
1.225e-06
1.78901e-06
4.83044e-06
9.52746e-07
0.00640074
1.01466e-06
6.03069e-07
1.81212e-06
5.39094e-07
1.08088e-06
3.82055e-06
0.00702121
0.00500535
1.16784e-06
1.56792e-06
7.20457e-07
0.00187784
0.00149718
1.27107e-06
1.27983e-06
1.16378e-06
1.88344e-06
0.000312588
9.0391e-07
6.29294e-07
1.03416e-06
1.0739e-06
9.32123e-07
1.54551e-06
6.2015e-07
1.89799e-06
9.4997e-07
1.09816e-06
1.42553e-06
0.0041982
6.78084e-07
1.58497e-06
7.99851e-07
1.69464e-06
2.04308e-06
1.69335e-06
1.99373e-06
2.341e-06
1.40673e-06
1.6607e-06
0.00626546
0.0119511
0.00578653
8.7052e-07
1.06435e-06
7.23819e-07
1.37938e-06
0.00449409
5.61063e-07
0.000721766
1.49539e-06
0.00546245
3.5283e-06
1.65015e-06
0.0117497
8.70223e-07
2.09323e-06
7.97718e-07
7.72833e-07
0.00564201
5.40139e-07
1.19096e-05
5.10112e-07
1.56675e-06
1.06945e-06
5.62717e-06
9.30582e-07
6.28782e-07
3.19768e-06
1.8687e-06
0.000265606
0.00285554
0.00671496
0.00376493
6.79128e-07
0.00675122
4.5525e-07
0.00357624
0.000179484
7.72673e-07
4.99788e-07
5.18109e-07
1.65682e-06
1.64675e-06
5.43113e-07
8.09322e-07
1.57689e-06
0.00238161
1.1961e-06
2.02344e-06
1.25931e-06
6.26101e-07
5.70545e-07
1.64606e-06
0.00336035
0.0193578
2.16207e-06
1.5491e-06
0.00117293
0.00473662
7.66444e-07
0.0028472
1.60896e-06
2.91294e-06
1.36842e-06
0.00161887
1.06539e-06
9.41838e-07
1.56093e-06
0.000203246
1.66007e-06
0.00449374
6.4737e-07
1.63774e-06
8.70602e-07
6.0542e-07
0.00435054
0.000118315
8.64805e-07
3.80776e-06
1.46622e-06
7.57111e-07
5.29887e-07
0.0043808
1.19832e-06
1.07389e-06
5.58884e-07
8.63603e-07
6.47098e-06
5.25364e-07
3.42421e-06
7.42863e-07
9.33494e-07
0.0039943
2.054e-06
1.26785e-06
0.0157873
8.40246e-06
1.92715e-05
5.05392e-06
8.64918e-07
1.25305e-06
0.00417964
1.27028e-05
1.40115e-06
1.34129e-06
9.42456e-07
7.42145e-07
9.62548e-07
4.63349e-06
2.1394e-06
1.45875e-06
0.00586642
1.67093e-06
2.25523e-06
0.00179973
8.66851e-07
1.60374e-06
4.56122e-06
0.00497695
8.02782e-07
1.03695e-06
5.96574e-06
9.40253e-07
6.8137e-07
5.6034e-07
7.36851e-07
1.12143e-06
0.00647623
1.75455e-06
8.3922e-07
2.63883e-06
6.50466e-07
0.00416132
7.8376e-07
9.10692e-07
0.00688105
1.9811e-06
0.000111377
1.54157e-06
5.08991e-07
8.79772e-07
1.56166e-06
1.60696e-06
1.03257e-06
0.00682224
1.50882e-06
0.000296622
0.000128507
1.03513e-06
0.00677727
1.56027e-06
8.25586e-07
8.66533e-07
0.00510946
0.00638785
1.49044e-06
0.0065905
0.000543341
9.24573e-07
8.98691e-07
1.32165e-06
0.00398486
8.11373e-05
1.6598e-06
1.55501e-06
1.582e-06
2.9798e-06
1.05134e-06
3.33187e-06
1.75329e-06
1.26802e-06
1.44293e-06
8.34847e-07
1.60192e-06
1.0583e-06
1.93194e-05
1.38793e-06
7.52215e-07
0.00657489
4.47577e-07
0.000600874
1.34124e-06
1.34903e-06
1.51693e-06
1.08938e-05
6.90634e-07
2.04076e-06
0.00323679
0.000102169
1.39727e-06
1.39416e-06
1.16845e-06
1.35348e-06
1.57492e-06
1.1999e-06
6.02566e-07
1.62368e-06
3.41886e-06
8.52863e-07
7.58308e-05
1.6719e-06
1.64036e-06
3.94019e-06
1.17243e-06
2.08934e-06
0.00302214
6.43766e-07
1.98714e-06
2.35637e-06
1.74446e-06
9.43787e-07
8.94973e-07
9.57056e-07
0.00715114
1.43937e-06
7.78014e-07
1.8162e-06
1.03811e-06
9.01026e-07
3.20136e-06
0.00147169
1.22827e-06
0.00499672
1.61482e-06
0.00467175
1.58548e-06
1.10035e-06
0.00077425
7.67887e-07
4.77093e-07
6.45345e-07
6.90932e-07
1.51415e-06
1.38335e-06
1.7312e-06
9.4158e-07
2.32656e-05
1.00646e-06
6.11516e-05
1.34746e-06
1.64413e-06
5.35291e-07
2.27642e-06
1.23361e-06
0.00368537
1.24097e-06
6.5734e-07
0.00415176
1.43394e-06
0.00528715
1.656e-06
1.44883e-06
1.05806e-06
8.4761e-07
1.39908e-06
0.00560571
1.59109e-06
8.89111e-06
0.00422987
1.35258e-06
1.74422e-06
4.1455e-07
8.40355e-07
0.000333934
4.14586e-07
0.0100096
1.5972e-06
1.45258e-06
3.02848e-06
0.000392501
6.63286e-07
7.19846e-07
2.92083e-06
8.5784e-07
1.24884e-06
1.36418e-06
1.05045e-06
1.81529e-06
6.60885e-07
2.01865e-06
1.26056e-06
0.00596658
0.00540881
3.33892e-06
0.0047727
0.00435023
0.0071779
0.000358207
8.84849e-07
7.47521e-07
1.43584e-06
1.39621e-06
1.15967e-06
1.59755e-06
1.18176e-06
2.91898e-06
1.25561e-06
0.00159398
1.4405e-06
1.72468e-06
2.51843e-06
8.56597e-07
1.57309e-06
1.43087e-06
7.88373e-07
1.54792e-06
5.2489e-07
0.00708947
2.24694e-06
1.05842e-05
8.86754e-07
1.61709e-06
1.06898e-06
1.01224e-06
0.00390427
8.97267e-07
6.21718e-05
1.0662e-06
0.000136864
1.20351e-06
1.11755e-06
2.06681e-06
9.08908e-07
9.02612e-07
0.000152685
0.00270522
1.28699e-06
2.2779e-06
8.37847e-07
7.06634e-07
5.17855e-07
1.02014e-06
0.00457626
7.32602e-07
1.50751e-06
2.61793e-06
0.00476366
5.18972e-07
0.00100421
0.00135772
6.82294e-07
1.09923e-06
1.05558e-06
0.00223342
1.5928e-06
3.52492e-06
1.42366e-06
0.00653338
1.21853e-06
0.00253137
9.34795e-07
5.03181e-07
5.84542e-05
1.19847e-06
4.38835e-07
0.00610758
1.32199e-06
1.00003e-06
0.000842975
6.78329e-07
7.42798e-07
2.13292e-06
1.35052e-06
0.00455188
1.56829e-06
2.27672e-06
5.04327e-06
1.57276e-06
0.00623406
1.26634e-06
2.04949e-06
1.44574e-06
0.00553704
0.000106773
1.5658e-06
5.21197e-07
7.82058e-07
1.2798e-06
5.21445e-07
6.48974e-07
7.2509e-07
1.41303e-06
1.54047e-06
6.4211e-07
1.32223e-06
2.20097e-06
0.00506106
0.00379452
2.43602e-06
1.07593e-06
4.70117e-05
1.16906e-06
0.000621906
0.000302023
0.019888
5.88387e-07
8.89752e-07
1.3474e-06
1.19383e-06
5.82418e-07
5.34323e-07
1.24497e-06
1.61508e-06
1.00709e-06
0.015467
0.000786121
9.80518e-07
0.00556041
1.4512e-06
9.43764e-07
9.01758e-07
0.0043838
1.80786e-06
5.43142e-07
9.0408e-05
8.39657e-07
9.22653e-07
0.000262407
7.52281e-07
0.00490667
1.51347e-06
1.75182e-06
9.0507e-07
7.01095e-07
1.42838e-06
2.99453e-05
1.40918e-06
0.00474722
9.36275e-07
1.01309e-06
1.09971e-06
1.60314e-06
8.89081e-07
2.63543e-06
1.75701e-06
1.45258e-06
0.00519845
0.0107626
2.983e-05
2.79343e-06
7.16018e-07
0.00543105
6.92502e-07
0.00300389
1.93875e-06
1.63044e-06
1.40126e-06
0.00306988
0.00409793
0.00209393
5.21413e-07
8.30585e-05
5.24647e-07
1.1884e-06
1.76735e-06
1.25373e-06
1.41705e-06
0.000119314
0.00504836
6.96775e-07
1.69923e-06
0.00481416
5.08738e-07
5.77695e-07
0.000737031
0.00421077
1.39588e-06
4.57271e-07
1.58793e-06
1.52533e-06
9.10213e-07
1.19566e-06
1.29023e-06
1.44526e-06
0.0001718
5.24933e-07
6.65535e-06
0.000338079
9.30221e-07
0.00537267
1.54783e-06
1.43328e-06
9.395e-07
0.004751
3.03894e-06
4.87249e-07
1.42028e-06
1.62214e-06
1.51024e-06
5.14985e-07
0.00363094
7.89674e-07
1.05466e-06
1.87642e-06
1.07245e-06
9.88276e-05
2.23393e-06
3.37914e-06
2.03396e-06
0.000467213
9.9183e-05
0.00266937
0.00537473
1.17964e-06
0.000454083
5.79645e-07
1.86292e-06
2.21762e-06
0.000295466
1.53587e-06
7.77746e-07
1.49901e-06
2.75571e-06
1.30025e-06
0.00355693
1.61592e-06
2.42035e-06
0.00305603
6.8826e-07
2.87816e-06
1.35781e-06
1.2001e-06
9.20924e-07
3.64298e-06
5.08031e-07
8.30014e-07
1.40531e-06
0.00294743
9.90367e-07
1.31438e-06
1.65458e-06
1.27343e-06
1.31227e-06
2.53235e-06
2.18458e-06
1.06116e-06
8.75141e-07
2.6303e-06
5.43652e-07
1.36271e-06
0.00636695
1.49995e-06
1.53534e-06
0.00514374
7.83302e-07
1.3145e-06
0.00539712
0.00539259
1.16007e-06
1.85644e-06
1.33676e-06
0.0079345
9.11754e-05
1.45259e-06
0.0029823
8.98188e-07
2.2656e-06
0.004019
8.20243e-06
0.000183065
0.00225721
6.01646e-07
1.09299e-06
1.54503e-06
1.31678e-06
1.09482e-06
2.0745e-05
7.18796e-07
1.71998e-06
7.2841e-07
1.99723e-06
0.0037068
1.34313e-06
0.00201559
0.00404334
1.5192e-06
2.29836e-06
1.28701e-06
1.34462e-06
1.34364e-06
0.00555791
2.14145e-06
0.00475308
1.44358e-06
0.011369
2.36954e-06
5.12492e-07
2.27028e-06
1.62735e-06
5.03659e-07
1.10874e-06
4.38582e-05
1.35284e-06
1.38983e-06
1.45874e-06
1.28601e-06
1.62901e-06
1.90784e-06
0.00224796
1.16776e-06
2.49239e-06
1.92711e-06
1.24083e-06
1.15312e-06
7.01544e-07
0.00196519
0.000604451
8.25331e-07
1.71923e-06
2.14245e-07
0.000480676
0.00760552
1.41785e-06
9.72679e-07
5.99822e-07
1.61384e-06
1.36343e-06
1.31466e-06
0.00226177
1.02627e-06
1.57248e-06
1.9772e-06
2.66507e-07
2.42421e-06
0.00422332
0.00854718
1.55813e-06
9.16603e-07
9.74601e-07
1.31584e-06
2.1877e-06
0.00698966
1.24767e-05
2.5662e-06
1.40758e-06
1.84404e-06
1.64004e-06
5.00631e-08
1.37615e-06
3.09216e-06
8.2136e-07
1.96017e-06
4.96844e-07
7.93221e-07
1.57275e-06
0.00492721
1.76284e-06
1.05573e-06
0.00521042
3.66204e-06
8.86204e-07
0.000280156
1.13752e-06
1.29611e-06
0.00307971
0.000296272
8.19992e-07
1.15419e-06
2.98549e-06
1.48999e-06
1.45497e-06
6.54921e-07
1.15638e-06
8.84113e-07
1.3708e-06
1.54732e-06
1.6948e-06
0.00582133
1.50072e-06
1.54591e-06
1.68098e-06
2.32464e-06
8.63723e-07
1.45595e-06
6.54821e-05
9.58835e-06
0.00413458
1.27004e-06
6.46857e-07
0.00553317
9.90921e-07
7.55036e-07
1.47717e-06
1.58453e-06
1.33132e-06
9.9312e-07
0.000307197
1.51835e-06
1.25077e-06
1.61485e-06
0.00456267
0.000684283
0.00480459
1.00668e-06
1.10791e-06
0.00242789
5.65074e-07
6.15521e-07
3.76349e-06
0.000252829
1.4462e-06
1.64252e-06
1.45622e-06
0.00281429
1.32232e-06
1.15615e-06
1.63848e-06
6.45067e-07
9.51116e-06
1.30812e-06
8.8003e-07
0.000217394
1.97988e-06
0.00356949
1.11702e-05
1.26706e-06
1.6229e-06
9.07093e-07
8.74657e-07
1.09123e-06
1.37338e-06
1.32703e-06
7.40156e-06
1.41177e-06
2.10111e-06
9.14996e-07
6.88526e-07
1.53246e-06
5.24296e-07
9.31213e-07
0.00577989
5.17746e-07
2.59365e-06
2.12606e-06
1.39882e-06
1.87112e-06
1.6446e-06
1.62322e-06
1.2718e-06
8.46522e-07
9.57755e-07
7.87822e-07
5.38813e-05
1.36472e-06
7.59331e-07
7.92057e-07
8.47701e-07
5.59619e-07
1.80821e-06
1.0826e-06
0.00438768
1.73094e-06
7.05682e-07
1.41798e-06
7.43356e-07
1.72003e-06
3.45831e-07
0.00433114
4.56816e-07
0.000104553
6.87563e-07
2.62496e-06
1.22315e-06
0.00370537
7.25674e-07
5.14902e-07
1.44117e-06
2.52547e-05
7.52285e-07
0.00479301
1.18537e-06
8.12195e-07
3.83386e-06
5.22418e-05
0.00823327
2.12365e-05
1.51073e-06
2.53287e-06
6.34209e-07
6.40947e-07
0.00379277
1.4668e-06
5.49534e-07
0.00146655
7.25916e-07
0.00485149
5.75635e-06
1.05956e-06
1.41068e-06
6.46175e-07
0.00658594
5.48708e-07
6.52821e-07
2.22802e-06
1.26695e-06
8.95364e-07
5.13738e-07
6.26616e-07
1.80779e-06
1.492e-06
1.05908e-06
8.60315e-07
0.00251479
1.68781e-06
8.72516e-07
8.77003e-07
1.3913e-06
1.39599e-06
1.59321e-06
1.02854e-06
7.73673e-07
1.50849e-06
1.20939e-06
1.31618e-06
1.34956e-06
1.69275e-06
7.38011e-07
2.27782e-06
1.08449e-06
1.49495e-06
8.14394e-07
1.33066e-06
1.04761e-06
5.27054e-07
1.50885e-06
1.2105e-06
1.64544e-06
0.00376169
1.38826e-07
0.00637545
0.00429512
2.29587e-06
0.00498188
1.10822e-06
1.34857e-06
0.00279323
0.00293832
5.62177e-07
0.00486697
7.72538e-07
3.44101e-06
0.000569131
1.57022e-06
2.3228e-06
0.0013829
0.00794236
7.2776e-07
1.82859e-06
9.8559e-07
6.64282e-06
1.5677e-06
0.00531408
0.00633698
1.35505e-06
2.18426e-07
0.000338511
6.74845e-07
0.00166419
3.13123e-05
1.36435e-06
1.04231e-06
1.31098e-05
0.00524834
6.38335e-07
1.68984e-06
1.19585e-06
0.00127977
3.96417e-06
1.26208e-06
8.1959e-07
0.00163371
8.63001e-07
1.5312e-06
1.51314e-06
8.34718e-07
0.00114181
1.21425e-06
1.58647e-06
0.00545149
1.37565e-06
1.6722e-06
1.59187e-06
1.40148e-05
1.8129e-06
8.74692e-06
8.03746e-07
1.60154e-06
5.15929e-07
8.03794e-07
1.66192e-06
1.26487e-06
0.0021895
1.34496e-06
8.44725e-07
1.18086e-06
2.79741e-05
1.03043e-06
0.00020205
0.0024621
0.00104524
1.01959e-06
8.41439e-07
1.30535e-06
0.00091226
1.25713e-06
0.00343356
7.30844e-07
0.00335485
1.33639e-06
7.83483e-07
0.000192006
1.23376e-06
6.69914e-07
0.00520766
3.04358e-06
0.00472265
7.8254e-07
0.00538377
0.00384529
1.17887e-06
0.00486325
1.19029e-06
1.21457e-06
0.00792854
1.2299e-06
1.44937e-06
0.00472335
1.35286e-06
2.06355e-06
1.54951e-06
0.00236088
1.48699e-06
0.000239438
1.31952e-06
0.00519287
1.51268e-06
1.57453e-06
1.05115e-06
8.47663e-05
8.52389e-07
1.88641e-07
1.84793e-06
0.00162677
1.25985e-06
1.4009e-06
0.00583721
9.1075e-07
0.000737897
2.19371e-06
8.08885e-07
3.0125e-06
0.00254706
1.2793e-06
0.00135173
5.05939e-07
4.41451e-06
0.00645335
8.51868e-07
0.00747059
1.42751e-06
0.0050397
0.000843682
1.39683e-06
1.09296e-06
0.000271942
0.000565566
1.60128e-06
1.47142e-06
8.33399e-07
1.21867e-06
0.00422485
1.94526e-06
0.000137481
9.88755e-07
1.49482e-06
0.00494934
7.46587e-07
0.000916787
0.00180039
1.22596e-06
1.46996e-06
7.26494e-06
0.00286408
0.00180775
0.000369826
7.61693e-06
1.51856e-06
1.44212e-06
0.00551746
0.00369783
0.000270399
1.03613e-06
2.25233e-06
1.70828e-06
2.03409e-06
1.31337e-06
1.65507e-06
1.85641e-06
1.64304e-06
0.000878458
6.87337e-07
1.25804e-05
0.00531672
1.48617e-06
1.53283e-06
1.52639e-06
2.62804e-05
8.34318e-07
0.00667017
1.49249e-06
5.60614e-07
1.7305e-06
5.52069e-07
8.64304e-07
1.62635e-06
1.6177e-06
1.32988e-06
0.00647298
7.66374e-07
0.00692278
7.81996e-07
0.00475594
0.000474543
7.71217e-06
5.23713e-07
1.4288e-06
1.36104e-06
1.63306e-06
3.08288e-06
2.10171e-06
0.00425621
0.00114248
4.14323e-07
1.45484e-06
7.87587e-07
3.53416e-06
0.00689044
4.9206e-07
8.48359e-07
1.39434e-06
0.000322635
5.25156e-07
7.98907e-07
1.67732e-06
1.55338e-06
1.01042e-06
5.64787e-07
1.3076e-06
0.00679215
1.2069e-06
1.71146e-05
0.00365146
1.5798e-06
1.28587e-06
0.0012863
1.14069e-06
1.51421e-06
0.00412568
1.65538e-06
2.3035e-06
1.73135e-06
1.96554e-06
0.00273738
0.00523307
1.53046e-06
0.00126643
0.000763311
7.30957e-07
3.81216e-06
2.02272e-06
2.99006e-06
0.00200188
0.000576248
0.000598911
2.89398e-06
0.00407872
1.45136e-06
2.13002e-06
4.33276e-07
1.54309e-06
1.32823e-06
9.5866e-07
0.000215031
6.91834e-07
5.11121e-07
1.46794e-06
6.07192e-06
1.13709e-06
0.000166597
0.00448342
4.22369e-07
1.25296e-06
4.45951e-07
1.26469e-06
1.80804e-06
1.48468e-06
0.0116484
1.61285e-06
2.05606e-06
1.27784e-06
2.0061e-06
1.38656e-06
1.31197e-06
4.66823e-06
1.31969e-06
1.27167e-06
5.05277e-07
7.94622e-07
0.00578336
2.7091e-06
1.39304e-06
0.0080888
9.93691e-07
1.19472e-06
1.3715e-06
7.82967e-07
7.20141e-07
2.05188e-06
1.51027e-06
0.00448393
0.0044298
0.00314106
1.61805e-06
0.00370227
1.26686e-06
0.000441321
8.51811e-07
4.25269e-06
0.00293709
1.04544e-06
0.000198782
0.00488801
1.42664e-06
1.19163e-06
5.60079e-07
1.42338e-06
0.00293499
8.23483e-07
1.50259e-06
9.69732e-07
1.2191e-06
7.2843e-06
1.44201e-06
1.49397e-06
1.18945e-06
8.76722e-07
0.00138968
1.60586e-06
1.15483e-06
3.55943e-06
1.64749e-05
0.00539093
0.00133198
1.18673e-06
1.2131e-06
0.00416285
1.30148e-06
2.03682e-06
1.58751e-06
0.00429944
8.98602e-07
1.03357e-06
1.12356e-06
0.00383981
1.48726e-06
7.98179e-07
7.18799e-07
4.41183e-06
0.010889
3.21228e-06
1.62602e-06
1.23009e-06
9.9653e-07
0.00557367
5.11376e-07
0.00206463
1.96198e-06
1.00178e-06
2.33432e-05
1.33212e-06
2.69612e-05
1.64378e-06
6.16891e-07
1.50495e-06
1.455e-06
3.82131e-06
1.49849e-06
1.24819e-06
8.92709e-07
0.00449032
1.03901e-06
1.47791e-06
0.00509726
1.32902e-06
8.14159e-07
1.52422e-06
9.06108e-07
7.95772e-07
0.000402457
1.6418e-06
0.00165351
1.91843e-05
5.06002e-07
0.00270692
1.33838e-06
2.86781e-06
1.691e-06
1.43378e-06
5.29859e-07
5.0026e-07
1.46671e-06
0.00189161
1.84241e-06
0.00586199
0.00406249
9.63444e-07
5.64981e-07
1.52255e-06
0.00137963
1.42712e-06
5.64752e-05
0.00532886
0.00379809
8.47535e-07
1.46392e-06
1.43419e-06
0.000305673
0.00568099
5.58886e-07
1.57183e-06
1.61425e-06
0.0140981
1.49638e-06
1.47737e-06
1.25095e-06
3.37644e-06
0.0010197
7.40129e-07
0.00377841
1.22172e-06
1.52244e-06
0.00263113
1.94962e-06
0.00362302
0.00160134
1.43892e-06
1.22165e-06
1.50901e-06
1.33269e-06
1.24616e-06
1.73587e-06
1.57203e-06
7.79107e-07
1.53484e-06
3.09578e-05
0.0031048
8.18777e-07
2.96864e-06
0.00361099
0.00563907
7.72953e-07
1.40814e-06
6.41422e-05
0.00277369
6.86206e-07
1.0151e-06
0.00455336
2.12993e-06
5.10703e-07
0.00574816
1.43756e-06
1.16621e-06
5.23785e-05
1.04226e-06
8.75036e-07
8.30391e-07
4.90955e-07
1.02597e-06
7.16198e-07
0.00433917
5.20915e-07
1.12448e-06
2.22488e-06
1.63964e-06
1.27305e-06
3.95617e-06
1.24612e-06
1.61504e-06
1.35838e-06
1.33857e-06
8.2011e-05
0.000110102
0.000801459
0.00134543
1.26583e-06
0.000288297
1.24469e-06
0.0043028
0.0038893
0.0042586
9.14508e-07
1.34586e-06
1.44719e-06
1.1709e-06
7.87872e-07
7.62389e-07
7.12333e-06
2.0085e-06
1.47449e-06
1.12151e-06
1.48102e-06
1.98215e-06
1.46671e-06
1.22584e-06
1.22054e-06
0.00591285
1.50229e-06
0.00762382
1.62619e-06
3.88551e-05
1.25497e-06
1.01991e-06
1.13162e-06
1.79118e-06
1.05057e-06
2.37547e-06
0.00451344
1.53034e-06
0.00546097
0.000244865
1.22531e-06
1.49966e-06
3.92457e-05
3.11702e-06
5.29391e-07
7.77615e-07
5.02843e-07
0.00410527
4.8198e-07
1.04575e-06
7.72955e-07
2.20024e-06
0.000227172
7.67742e-05
2.04901e-06
0.00666012
6.28843e-07
7.10477e-07
5.46051e-06
0.00299069
1.31489e-06
1.56107e-06
0.00207301
1.03754e-06
1.70294e-06
1.32473e-06
4.76914e-07
1.36985e-06
1.4594e-06
2.09363e-06
0.00432052
0.00448276
1.53024e-06
8.41113e-07
2.12708e-06
1.4145e-06
2.16402e-06
9.5397e-07
4.09623e-06
2.61123e-06
1.23364e-06
1.1599e-06
5.14515e-07
3.77974e-06
1.33823e-06
7.58234e-06
0.00134276
1.49039e-06
0.00343742
2.22266e-06
3.13446e-06
0.00471241
1.27811e-06
0.00405843
1.40501e-06
0.00598127
0.000265866
0.00401935
0.00440829
7.06811e-07
1.7978e-06
6.92723e-06
1.02099e-06
0.00484141
1.23876e-06
1.40619e-06
1.6138e-06
1.46451e-06
1.65455e-06
7.46841e-05
0.00137471
0.00557001
1.50545e-06
1.51505e-06
1.33865e-06
9.93336e-07
1.57061e-06
3.84914e-06
2.46055e-06
0.00300137
1.64604e-06
5.17138e-07
8.46205e-07
1.12306e-06
1.00438e-05
1.29367e-06
1.10908e-06
1.43523e-06
2.38313e-06
1.66046e-06
1.46884e-06
1.27083e-06
0.00414646
1.48368e-06
1.66515e-06
1.43763e-06
1.62081e-06
0.000227188
2.70329e-05
1.55284e-06
7.77375e-07
0.00271671
1.59843e-06
1.00901e-06
1.76368e-06
0.00465479
0.000151155
1.44396e-06
1.03437e-06
0.00347693
1.2404e-06
1.01813e-06
5.19919e-07
0.00183685
0.00158191
1.07583e-06
0.00181382
0.0037606
1.48754e-06
1.27586e-06
1.87023e-06
0.00689119
1.49521e-06
0.00554572
1.22469e-06
3.25422e-06
7.25828e-07
0.00589007
1.63166e-06
7.74055e-07
0.00509875
1.36474e-06
1.33273e-06
0.00318007
0.00324734
3.44775e-06
0.000373769
1.61846e-06
1.47084e-06
0.0023397
1.02412e-06
1.25347e-06
1.56604e-06
1.70773e-06
1.41652e-06
1.30573e-06
1.63969e-06
9.13484e-05
0.00175883
1.49526e-06
0.00492573
1.52183e-06
0.00491697
0.00528886
1.5225e-06
1.46958e-06
1.6046e-06
0.00103172
7.12123e-06
2.00825e-06
0.0046263
0.00381314
0.00074906
8.476e-07
0.00274853
0.0042426
1.27907e-06
0.00145289
1.22565e-06
1.02323e-06
1.61467e-06
1.24393e-06
1.29568e-06
1.67434e-06
0.00461375
1.25168e-06
4.21701e-05
0.0164506
0.00244409
0.00307772
0.00547008
1.20469e-06
0.0061143
2.94997e-06
2.22913e-06
8.36704e-07
1.03508e-06
2.09327e-06
0.00550401
1.0533e-06
0.00358835
0.00522715
9.16006e-07
1.47761e-06
7.77226e-07
2.38354e-06
1.23912e-06
2.11693e-06
0.00410846
8.07615e-07
1.55449e-06
9.20613e-07
1.40625e-06
2.78889e-06
0.0045066
1.4411e-06
0.00337462
3.04198e-06
1.18282e-06
4.90333e-05
3.81536e-06
6.47099e-07
0.00064296
0.0015048
0.00292432
0.000992121
0.00493894
1.02851e-06
0.0025373
0.00470184
4.53983e-06
0.00352774
7.99554e-07
1.30753e-06
1.39067e-06
1.59421e-06
0.00441168
1.99168e-06
1.45336e-06
1.48905e-06
6.90565e-05
0.00486781
8.42327e-07
5.2898e-07
0.00665786
0.00536525
1.53813e-06
1.41777e-06
2.85557e-06
1.4034e-06
1.5293e-06
0.00285112
1.12512e-06
1.71848e-05
2.84914e-05
0.00473179
1.04451e-06
2.01279e-06
4.50062e-06
9.9564e-07
5.03569e-07
0.00692396
0.00179797
9.98896e-07
1.30714e-06
5.02007e-06
8.91237e-06
0.00601562
0.00148246
1.44402e-06
0.000111547
7.81328e-05
1.57092e-06
1.19436e-06
1.89785e-06
6.99709e-07
5.11791e-07
0.00454853
1.50495e-06
2.56255e-06
1.54082e-06
9.96993e-07
8.40743e-07
6.79876e-07
1.48819e-06
1.48333e-06
0.00241873
1.54083e-06
0.000969739
0.00712601
1.63188e-06
2.1258e-06
0.00294396
0.0055613
0.00250628
5.15016e-07
1.54691e-06
1.58158e-06
1.43677e-06
2.43058e-06
0.000158948
1.50374e-06
0.00100664
0.00517684
1.42261e-06
2.61464e-06
2.20733e-06
2.8471e-06
3.13025e-06
1.48346e-06
3.58546e-06
4.09062e-06
4.80247e-06
5.75477e-06
3.27355e-06
2.34225e-06
1.07572e-06
1.12277e-06
1.62249e-06
2.58797e-06
1.07488e-06
0.000358643
0.00642588
1.34439e-06
0.00487233
5.07137e-07
7.60781e-07
4.0657e-06
0.0034704
1.48589e-06
1.29266e-06
2.10337e-06
0.00612936
0.00170276
1.25583e-06
1.33131e-06
1.50335e-06
0.00809987
6.93305e-05
1.61753e-06
0.000553324
0.00481032
2.84101e-06
0.00537478
2.59931e-06
0.000111586
0.00625357
4.1312e-07
0.00624669
0.00534335
1.32432e-06
2.03493e-06
2.64842e-06
1.20699e-06
8.36471e-07
0.00142497
0.0019716
6.88026e-07
6.92082e-07
0.0028145
0.00096187
2.19715e-06
1.31207e-06
3.06423e-05
3.81242e-06
0.00522237
0.00565138
1.48256e-06
1.47624e-06
1.47861e-06
1.09432e-06
0.00525746
0.00223863
0.00439002
2.44514e-06
0.000233349
0.000236391
1.0387e-06
1.03659e-06
0.00492662
7.88698e-07
0.0058126
4.74709e-07
0.00546587
1.48086e-06
1.23706e-06
0.00079892
1.05434e-06
3.18766e-06
0.000254198
1.74137e-06
1.23733e-06
1.48012e-06
6.72382e-06
0.00467123
4.54661e-06
0.00506415
1.26397e-06
9.0993e-07
1.59129e-06
2.15671e-06
0.00679641
0.00582907
2.61587e-06
1.13024e-05
3.64429e-06
0.00282109
4.38273e-07
7.67592e-07
8.12416e-07
8.39746e-07
0.000212205
1.74396e-06
4.38961e-06
1.53423e-06
4.85001e-06
1.0345e-06
0.000128488
6.33434e-05
0.00807359
1.61181e-06
1.46337e-06
4.93659e-07
0.00487374
3.19866e-07
0.000102712
0.000167605
3.52598e-06
0.000154829
5.08577e-07
1.69265e-06
4.44815e-06
0.000268519
0.000883339
1.3647e-06
4.07097e-06
1.18742e-06
9.11169e-07
2.75607e-06
0.00129395
0.000686315
1.16569e-06
2.34552e-06
4.70092e-06
0.00315212
0.00602657
0.00516089
0.00490749
8.82234e-07
1.91124e-06
9.7587e-07
4.27742e-06
8.20376e-07
3.0362e-06
1.1753e-06
1.77417e-06
9.98435e-05
0.000296434
1.31872e-06
2.89369e-06
0.00528844
3.42778e-06
1.20275e-06
0.00357597
3.10043e-06
8.01976e-07
9.41693e-07
0.00457169
1.53455e-06
3.75944e-06
0.000646841
6.51298e-05
0.00493311
1.09848e-06
0.00395107
0.00445131
0.00177966
0.00103829
1.59195e-06
3.08764e-06
2.7702e-06
0.00492678
3.75459e-06
1.47981e-06
0.00146101
1.49044e-06
0.000345312
1.40459e-06
0.00794801
0.000280605
0.00184568
1.6514e-06
6.22814e-05
1.3898e-06
0.00442429
4.38497e-06
0.00196888
0.00767136
1.03408e-06
4.846e-07
0.00480436
0.00606767
8.97585e-07
1.45834e-06
1.54896e-06
1.24637e-06
0.00382237
1.84275e-06
0.00539629
1.42675e-06
0.00551093
3.53764e-06
0.00204293
1.47334e-06
5.87374e-05
0.00443745
1.37824e-06
2.47801e-06
5.14119e-07
1.52318e-06
1.4976e-06
0.000128922
1.12973e-06
1.58158e-06
0.00610856
0.00292122
8.25217e-07
0.00646001
1.42012e-06
1.04188e-06
1.31716e-06
8.29834e-07
1.52511e-06
0.000710444
0.00610323
7.47283e-07
0.0025794
2.10996e-06
1.85662e-06
0.00147918
2.48837e-06
1.43169e-06
1.7049e-06
1.40451e-06
0.000127551
1.32176e-06
0.0066067
1.41475e-06
0.00391327
0.00112065
2.08015e-06
0.00166508
0.00564029
9.1221e-07
0.00504428
1.84227e-06
2.04777e-06
1.20356e-06
1.04601e-06
8.54019e-07
7.37099e-06
1.4922e-06
5.42304e-07
1.56227e-06
0.00487615
4.6881e-06
0.00256306
6.55605e-06
6.09201e-06
0.00595769
1.30453e-06
8.14789e-07
2.04369e-06
1.38545e-06
1.47836e-06
1.48602e-06
1.42025e-06
1.02148e-06
1.26181e-06
1.3809e-06
1.52905e-06
1.39091e-06
1.39047e-06
1.2576e-06
1.25323e-06
2.91455e-06
1.39742e-06
0.00521144
1.41196e-06
1.27117e-06
2.68592e-06
1.80324e-06
1.13108e-06
9.97794e-07
0.00181431
1.64899e-06
0.0049242
1.63285e-06
3.21795e-06
1.36171e-06
1.00718e-06
2.82012e-06
0.00655451
2.17604e-06
1.44656e-06
5.74121e-07
0.00530164
1.50799e-06
1.22195e-06
2.30514e-06
1.55845e-06
4.66273e-06
0.00523535
2.7995e-06
6.03078e-05
1.55209e-06
0.00506458
1.11784e-06
1.39701e-06
1.91858e-06
9.48445e-05
1.99592e-06
2.79743e-06
0.00349851
1.41069e-06
1.39128e-06
1.58562e-06
2.71723e-05
2.00452e-06
1.50123e-06
2.92961e-06
2.83414e-06