/*--------------------------------*- C++ -*----------------------------------*\
| =========                 |                                                 |
| \\      /  F ield         | OpenFOAM: The Open Source CFD Toolbox           |
|  \\    /   O peration     | Version:  v2012                                 |
|   \\  /    A nd           | Website:  www.openfoam.com                      |
|    \\/     M anipulation  |                                                 |
\*---------------------------------------------------------------------------*/
FoamFile
{
    version     2.0;
    format      ascii;
    class       volScalarField;
    location    "200";
    object      ddt0(epsilon);
}
// * * * * * * * * * * * * * * * * * * * * * * * * * * * * * * * * * * * * * //

dimensions      [0 2 -4 0 0 0 0];


internalField   nonuniform List<scalar> 
14033
(
-1.20738e-13
-0.000666125
-1.72375e-13
3.56343e-11
-2.44004e-08
-3.88866e-10
1.47189e-10
0.000186536
3.16468e-11
-1.11971e-11
1.45197e-05
-1.79284e-05
-0.000246503
-6.49867e-12
-9.14336e-11
-1.73573e-11
-4.72227e-13
-2.50409e-07
0.00303857
-9.89726e-11
3.24067e-11
-0.000407174
-9.31035e-05
-8.3142e-11
0.00016843
-1.77068e-10
4.58257e-09
-1.34909e-10
2.62735e-05
0.000104555
1.17296e-13
1.15357e-12
-4.88965e-11
0.00302294
-1.4988e-10
1.58115e-11
4.63416e-11
1.38197e-10
-7.69408e-11
8.4283e-11
-9.84017e-10
-2.61841e-12
9.16978e-06
-0.000562645
-4.41241e-11
0.00017479
5.6939e-11
-2.45547e-10
6.53087e-09
-0.000107298
-4.90371e-08
-4.46157e-10
-1.97483e-06
-1.08567e-05
2.70066e-09
4.99266e-11
-7.22687e-05
-4.09474e-10
-1.65776e-11
-3.20022e-10
8.23282e-09
4.12912e-11
-0.00048285
9.12988e-10
4.59622e-11
2.83127e-05
-0.000477484
-2.79798e-07
-1.0738e-11
-1.12038e-10
-1.61207e-10
-1.41637e-10
-9.29193e-05
-9.3958e-05
-0.000465506
4.4568e-11
-2.1988e-08
-3.66881e-11
-1.42344e-10
7.35992e-09
-3.14903e-09
-5.41142e-06
7.11072e-06
-0.000295793
1.15081e-10
1.51871e-10
-7.35935e-11
-2.46731e-13
9.90028e-09
2.54709e-05
-9.44036e-11
2.26082e-10
4.73708e-08
-9.78076e-05
0.000217437
4.99759e-10
4.25759e-11
-1.47093e-05
2.14084e-05
-4.06231e-12
-1.30826e-09
-0.000495046
3.64316e-10
-2.51422e-13
5.95276e-05
-0.00045374
-9.67017e-10
5.73216e-05
1.46607e-08
-0.00010305
4.33049e-11
2.40989e-11
-1.90944e-13
-8.12296e-09
2.31814e-12
-0.00036614
1.70897e-06
5.09295e-10
-5.99539e-09
1.87093e-05
1.12597e-10
-0.000783724
1.9947e-10
1.27843e-11
-0.000107032
4.58696e-11
3.3819e-05
1.99966e-07
-1.03156e-11
-1.07279e-09
-7.1103e-05
-1.97135e-08
8.37041e-09
0.000148125
7.05596e-06
-7.74578e-12
0.000317034
-1.30558e-05
2.50585e-10
1.70206e-07
0.000246274
3.72759e-05
-2.30075e-10
-4.4798e-05
1.39069e-10
-2.09515e-13
-3.72887e-05
-8.08515e-08
-1.83867e-13
-3.84625e-09
8.9885e-10
-5.06383e-09
-7.0325e-11
-0.000803283
-1.87807e-06
-2.86557e-10
1.55039e-05
3.42979e-13
5.62208e-10
-0.000502326
0.000145397
7.56456e-07
-8.77743e-11
-3.70854e-11
0.00015178
1.01419e-10
-0.000129866
-2.79737e-10
5.79635e-07
-1.11378e-11
6.87845e-06
-5.38859e-11
-3.47741e-09
9.30035e-10
-7.11707e-10
-8.20849e-09
3.48472e-11
-1.71077e-11
-8.51229e-12
2.57459e-05
-0.000511377
2.54862e-07
-7.42177e-12
1.82483e-05
-5.0449e-13
1.44506e-10
6.21842e-11
3.61474e-11
-3.16994e-05
-1.36658e-09
4.20165e-09
1.45383e-10
0.00105713
4.17127e-10
3.31493e-10
-3.94748e-09
-2.73505e-10
-0.000344196
0.000275166
-3.53687e-11
3.25528e-05
-1.17155e-10
9.11635e-05
7.97163e-11
6.74633e-05
7.67073e-05
-2.93898e-11
-1.0839e-11
3.93749e-05
-5.01662e-05
-2.24111e-10
5.42758e-11
5.84673e-07
-5.01289e-11
-3.1467e-10
-1.58119e-10
4.67876e-10
-0.000274087
-6.13836e-07
-1.25911e-10
-0.00016111
0.000163141
1.1128e-10
4.95531e-11
1.01784e-12
-0.000224583
0.0018645
-7.14499e-11
0.000217823
4.39804e-11
1.24261e-09
5.04927e-10
0.000416216
8.6093e-05
-4.2644e-11
7.36876e-12
2.54287e-05
7.84273e-10
6.22202e-10
1.84518e-10
4.50797e-11
2.42942e-08
-1.70076e-10
0.000263788
-1.19605e-10
-4.15315e-05
3.1308e-11
-1.78612e-05
2.98781e-07
8.62212e-11
4.44026e-06
-0.000495446
-2.41187e-11
-7.77535e-10
6.52181e-11
-1.22879e-07
-1.91803e-13
7.68963e-05
7.68114e-15
-0.000155286
5.82654e-11
-1.67064e-05
-6.76321e-14
1.38975e-10
2.61591e-12
-1.11841e-09
-1.1191e-09
4.70704e-08
-2.20257e-10
1.57097e-09
2.8001e-10
-6.24193e-11
3.90059e-07
-1.97735e-07
0.000157769
-7.25164e-13
-2.28823e-13
3.55436e-12
-1.43726e-05
-9.92244e-10
-3.63335e-10
-4.06563e-11
2.68683e-05
9.70901e-05
-9.69812e-12
2.9892e-06
1.45275e-10
6.34883e-11
2.27231e-10
-3.02933e-10
7.4601e-10
6.16423e-09
1.73866e-12
6.78524e-05
-3.34632e-12
-2.14579e-08
-1.91428e-07
1.03228e-10
-0.000339482
-0.000411093
-1.98944e-09
2.54108e-05
-2.83498e-10
3.52911e-11
3.27343e-06
-1.97012e-12
2.10608e-11
-1.72477e-09
3.23222e-09
-1.35287e-12
2.19101e-08
5.85136e-07
1.32965e-11
0.000681475
1.15329e-05
-0.000104004
2.77321e-09
2.2538e-09
0.000598962
8.53802e-11
1.55438e-10
7.93827e-11
3.47377e-10
-1.91763e-10
-3.87354e-10
1.06291e-11
6.10581e-10
-5.40597e-13
1.71468e-11
6.75309e-05
-5.70083e-05
-8.65547e-11
-4.69301e-13
1.29178e-05
-1.21947e-10
-1.89621e-13
-4.13351e-13
1.66198e-11
-6.67312e-05
6.98784e-11
8.95464e-06
1.57044e-05
-1.02146e-10
5.91482e-05
-8.6079e-12
-8.69001e-11
1.84897e-10
-3.81737e-10
-0.00282537
-8.64393e-12
0.000162565
1.94999e-09
3.27907e-10
6.21807e-10
2.79436e-10
4.11745e-11
8.12901e-11
6.12521e-09
1.49236e-05
-5.49967e-05
1.1398e-11
-0.000284024
-1.25633e-10
-5.94037e-06
-1.18619e-12
2.63224e-10
3.12268e-10
4.30062e-10
-1.32356e-05
-0.000662481
3.03807e-05
1.04228e-10
-5.70726e-11
-3.03347e-10
6.90298e-11
-5.13873e-05
1.37033e-08
8.56717e-10
6.35167e-05
7.71672e-10
2.43041e-10
5.68621e-11
2.51295e-11
-4.01126e-11
2.26914e-05
0.000581216
1.17377e-06
2.3183e-08
-1.0554e-09
1.07093e-05
-2.39608e-05
-1.41465e-10
-0.000372926
-1.71474e-11
1.81884e-10
8.33947e-06
5.82387e-05
-3.82038e-08
0.00286981
6.43548e-11
-1.7325e-12
1.40601e-05
3.17209e-13
-0.000462666
-1.80903e-05
0.000143455
1.99575e-11
5.33227e-10
-6.89752e-05
0.00184858
1.41951e-11
-1.57777e-09
-1.96728e-10
-6.47069e-05
-2.85761e-10
2.35515e-05
8.07077e-05
2.89319e-11
2.37187e-10
-6.96615e-06
2.42079e-10
1.20672e-10
-2.07388e-05
5.3493e-05
-3.02464e-10
-3.52047e-05
-0.000111448
-0.000174872
-2.25106e-10
-3.19744e-13
-4.08503e-11
-3.07138e-11
-0.00322672
1.76107e-10
-2.48885e-13
0.000890667
-7.05426e-05
-6.10186e-09
4.44677e-07
-3.08803e-10
2.58649e-05
-3.43036e-05
-6.15472e-13
0.00017261
-4.89065e-10
-2.72019e-05
0.00013449
0.000571781
-1.62705e-10
-1.89494e-05
-7.91815e-11
7.93231e-05
2.97566e-11
3.19624e-05
-6.80762e-05
-2.23725e-12
-6.77954e-05
-2.46653e-10
-0.000202304
-0.000238301
-0.000513083
1.35468e-05
1.01389e-08
2.45688e-05
-3.00277e-05
-1.41343e-05
-1.10101e-10
-8.27888e-06
3.9864e-05
-3.52819e-09
-2.77081e-13
0.000150697
3.05076e-11
-2.50463e-10
0.00148326
2.38544e-08
-1.70595e-10
1.41533e-10
-0.00033068
-0.000505246
7.75181e-06
-1.45896e-10
4.44266e-05
-5.45033e-05
1.17655e-11
9.11979e-06
-5.12071e-11
-1.43734e-13
-5.4231e-05
-2.435e-13
-1.23666e-06
0.00253993
-1.17162e-14
4.4479e-11
-2.93966e-11
6.57281e-05
-1.171e-10
1.17241e-09
6.73484e-12
1.10054e-09
-8.01468e-11
-5.23178e-13
-2.36321e-08
6.53341e-12
9.46267e-06
5.81477e-07
8.12818e-11
1.17693e-11
-0.000359795
5.14716e-05
2.66589e-05
-2.95718e-12
-6.04158e-09
-5.89461e-09
-5.064e-14
-7.47997e-10
2.67068e-11
5.34572e-05
1.27896e-06
2.25688e-05
6.69125e-11
4.37101e-11
-1.46854e-05
1.11374e-10
1.9983e-08
0.000211647
7.35006e-12
0.00018427
3.25735e-05
-2.23099e-10
3.53199e-09
2.03483e-07
-1.80396e-05
3.56083e-11
6.05953e-11
-4.94182e-07
-2.66068e-09
-1.11967e-10
-1.2843e-05
-0.000370071
-1.54777e-10
-2.19564e-13
-2.18726e-08
-4.71505e-05
8.45611e-05
-1.13909e-05
2.35156e-11
3.65251e-11
9.29518e-07
-2.07911e-10
2.82983e-13
5.88738e-08
-1.65723e-13
4.53765e-11
-0.0001359
1.56966e-07
7.33702e-06
-1.54593e-12
-0.000206285
-5.90771e-11
1.7783e-10
4.69748e-12
5.21078e-12
-0.000116088
-1.97165e-06
1.14014e-07
2.28186e-10
1.22098e-05
-4.08417e-10
-6.3094e-05
1.87607e-12
0.000144563
1.64726e-05
-1.54664e-10
8.48324e-05
-0.000429522
-5.25039e-11
-0.000294672
-8.91156e-05
-5.1244e-14
0.000158681
1.51163e-11
4.28728e-05
2.3779e-10
1.10822e-10
2.2082e-05
2.65171e-09
3.15537e-10
3.11953e-08
5.99757e-05
-0.000812255
8.67049e-10
-7.27794e-10
-1.94909e-08
-4.13864e-09
-6.08194e-05
1.17549e-09
2.16606e-08
9.24383e-08
-2.19646e-07
-2.33825e-07
-6.65555e-10
-1.61646e-05
-0.000798058
6.40489e-11
3.0845e-05
-1.84715e-11
2.47232e-09
4.44226e-11
-1.2437e-08
2.5688e-11
-1.60218e-05
-2.67582e-10
-1.13187e-10
3.35754e-11
2.47985e-11
-7.38876e-13
2.23249e-11
-9.16791e-05
1.65339e-10
2.40042e-10
-5.68764e-07
0.000113466
-7.57483e-05
-0.000152173
-1.43313e-05
6.39998e-11
6.70825e-05
0.000103107
2.46912e-05
-3.39598e-11
-0.000186825
1.60397e-11
-7.47579e-11
1.63012e-10
1.24466e-05
-1.97873e-10
-0.000518461
2.84052e-11
-1.3109e-06
-1.63498e-05
-0.000261869
-9.08425e-11
0.000137325
8.09816e-11
-3.33027e-12
-1.0122e-10
3.86613e-10
1.1497e-10
1.44522e-11
5.69467e-11
6.74406e-11
2.31986e-11
-0.00084671
6.79644e-08
2.15458e-10
2.10527e-07
1.71973e-05
5.63582e-05
2.09389e-11
-1.49504e-08
-8.17555e-12
-1.37755e-10
5.15412e-05
3.52977e-05
-2.35415e-10
1.43642e-11
-5.58264e-12
1.46989e-07
-1.91859e-13
-0.000130015
-2.45724e-10
1.41658e-11
-1.23914e-10
-2.98014e-09
-2.17372e-10
-1.10818e-09
1.23783e-05
1.37446e-05
0.000701529
-3.04459e-05
0.0101646
-2.4076e-10
-1.28011e-12
6.129e-09
-1.84057e-05
-2.11251e-11
2.18886e-10
-3.34604e-10
-7.09075e-06
-3.55875e-13
-4.59354e-05
6.9121e-05
-4.6257e-10
-2.2321e-08
-7.12463e-11
-1.80568e-11
-3.05325e-07
-0.000204146
2.10812e-12
-1.43766e-08
8.39412e-12
1.28462e-09
1.35504e-10
3.82302e-06
5.83812e-10
5.14718e-07
2.6725e-06
1.52852e-09
7.85729e-10
-6.05964e-05
6.92022e-14
2.04723e-05
-1.70249e-08
-2.0702e-10
-4.3748e-10
-6.22921e-09
9.03763e-05
3.20052e-11
-1.68806e-09
-4.66313e-09
2.07757e-08
8.13083e-05
-1.88236e-10
3.31062e-05
-1.79627e-11
0.00281818
-1.03919e-12
1.90314e-10
3.60053e-05
-1.20822e-05
7.99693e-07
3.65209e-09
1.36653e-11
1.69546e-09
9.43198e-12
2.27529e-05
2.90076e-10
-0.000213691
0.000135636
-8.83179e-11
2.4033e-08
-4.24918e-09
4.47537e-05
3.76565e-12
-1.85128e-10
-4.53991e-05
-3.54626e-11
0.000253818
9.00949e-11
-2.11806e-12
2.4291e-10
-1.50253e-09
-4.33414e-11
-8.16019e-10
1.83092e-10
1.29311e-11
4.56734e-14
1.27136e-05
-4.98956e-07
-2.2069e-09
-0.000384788
5.47375e-12
-1.41532e-13
-1.21605e-13
1.71592e-10
0.00303712
2.97477e-11
1.75688e-06
3.90509e-05
1.58454e-13
-0.000626741
8.33475e-05
-5.86392e-09
8.90112e-05
-1.25207e-13
2.56616e-05
1.24442e-05
-0.000422759
-9.61815e-05
5.0543e-11
0.000154354
-6.9791e-05
-4.65713e-11
-3.52558e-05
-3.46644e-05
-3.95315e-11
-1.52338e-10
-0.000671839
1.98798e-05
-2.75265e-09
-7.91003e-09
-8.76531e-06
-0.000321846
-2.54068e-06
-5.4123e-11
5.39913e-09
2.5416e-05
7.05883e-11
2.03899e-10
0.000156309
6.8034e-12
1.2103e-12
1.45401e-07
6.9639e-05
-5.96755e-12
-1.90981e-10
-8.40955e-11
3.23721e-05
-4.96988e-05
-0.00121532
2.10655e-09
7.97484e-06
6.85967e-08
-9.48676e-07
2.10259e-13
-2.44813e-05
-4.56415e-11
1.17203e-11
-8.66539e-12
-2.14836e-13
9.76956e-14
1.4097e-09
5.63438e-10
0.000116913
-2.96272e-10
3.79744e-05
6.256e-05
-9.41411e-11
-2.72804e-13
-2.99805e-10
-0.000315284
0.000106337
0.000847631
4.26042e-11
0.000275732
4.89337e-09
-0.000123319
1.32091e-09
-1.84251e-05
1.45007e-11
-4.51777e-11
-6.44614e-12
1.69681e-08
2.31225e-10
6.96086e-14
-4.71196e-11
2.34645e-05
1.0204e-10
-9.90141e-11
5.40522e-11
6.20098e-09
-1.11386e-05
-4.05651e-09
-0.000503435
5.68386e-05
6.90546e-09
0.000163067
-8.51506e-10
-8.14261e-13
-3.58225e-10
9.18447e-05
9.15787e-05
-1.61108e-08
4.863e-05
-1.4119e-10
-1.25035e-08
9.33191e-12
8.15598e-11
-0.00011356
3.74838e-11
1.08442e-08
7.35815e-11
-4.3895e-10
-2.27826e-12
4.35787e-10
2.62474e-09
1.69035e-11
-1.81422e-10
-2.34734e-05
4.65308e-06
-1.07451e-10
4.65717e-09
3.70754e-11
6.27991e-05
-1.36061e-10
9.29173e-10
-1.50995e-11
-0.000355116
-1.23235e-07
-1.22998e-12
6.80389e-11
1.69601e-05
1.37009e-09
-3.49665e-11
1.84515e-05
2.00404e-11
-0.000102965
-1.87592e-05
-3.38336e-11
-3.11171e-09
3.54918e-11
-1.86727e-05
-2.9116e-10
-9.01111e-06
1.32477e-05
1.34444e-10
1.39331e-05
-1.5652e-10
2.90728e-10
3.08567e-11
-2.43488e-11
2.1824e-05
-0.000430385
2.86895e-11
0.000748612
-4.50052e-11
0.0038032
-1.6259e-09
6.02412e-13
1.2243e-10
-1.77971e-10
-9.7182e-05
8.56418e-10
3.13257e-09
-5.71226e-05
3.24398e-14
6.51627e-10
0.000113984
3.50014e-11
-2.30107e-09
-2.42501e-11
-1.1594e-05
-2.98944e-05
2.29505e-08
0.000178202
3.13938e-11
-9.7453e-11
6.95336e-07
-2.32508e-10
7.6398e-13
3.03173e-05
-0.00072762
-5.27375e-14
-9.85499e-11
1.92905e-08
-1.22249e-10
1.18356e-11
2.84467e-10
-6.47035e-05
-6.22805e-08
-3.5459e-10
-2.76559e-10
-0.000133727
0.000322904
1.29206e-12
-1.65689e-10
1.40718e-10
-0.000407905
-1.32387e-10
-4.18215e-06
1.58805e-10
-2.4104e-10
1.11046e-05
-9.93929e-07
-2.20734e-07
3.37049e-10
-1.98785e-10
1.42379e-08
0.00224427
-3.28196e-12
-2.00545e-10
-1.33975e-11
-1.9316e-10
-1.01015e-09
-1.03155e-05
5.63034e-11
-3.35959e-10
-2.13669e-10
-9.95877e-14
-2.56519e-11
-3.33095e-06
1.70552e-08
-2.24321e-10
8.16116e-09
2.19618e-10
-6.72096e-11
4.18969e-05
4.22963e-05
-0.000174144
2.02877e-11
5.00371e-14
-8.64736e-11
2.5993e-07
-0.000209019
-0.000467505
1.24881e-12
-6.06125e-10
4.08108e-11
5.1667e-13
5.00942e-05
3.30534e-10
0.00015474
-3.76897e-05
1.41874e-05
6.95252e-12
-1.4929e-05
0.0021322
8.10234e-12
5.29556e-06
-8.93937e-12
3.36199e-10
3.33067e-05
-1.86052e-10
-0.000583948
-0.000103733
-1.45616e-12
-6.59921e-05
2.44838e-13
1.43813e-09
-6.65086e-05
-2.05511e-10
-8.09287e-07
-7.7777e-11
-3.96534e-10
3.71915e-11
-1.38248e-10
3.18449e-06
-2.06713e-11
6.75777e-05
-5.60609e-10
-1.87445e-13
4.55294e-11
-2.90455e-13
-2.04673e-09
-3.81496e-08
4.48254e-06
-2.44116e-09
-4.59858e-05
1.10903e-10
2.82995e-11
-1.44119e-10
-2.92052e-13
-6.0464e-12
-0.000220969
-7.09463e-09
-2.69004e-08
-1.60826e-08
-3.41427e-10
-1.50244e-07
-9.57518e-07
-2.57906e-09
-1.7794e-05
0.00088676
7.26015e-06
0.000116359
-1.41496e-11
1.89783e-05
-3.62617e-05
-3.45033e-10
4.56092e-11
3.48209e-10
-6.15353e-05
0.000184365
-0.000162006
1.80588e-05
-1.1827e-05
4.63767e-11
5.23833e-08
-0.000461267
1.89937e-09
-3.19779e-05
0.00228876
0.000110459
-2.3911e-10
-0.000169066
-2.12835e-10
-9.87693e-12
0.000870885
-3.29876e-08
-1.58735e-05
0.00086183
1.40602e-05
-4.53274e-05
4.01225e-08
-1.30784e-10
5.14054e-05
-7.80726e-05
0.00123233
-1.60838e-11
-8.29809e-11
-4.78952e-07
0.00139172
-8.90586e-11
6.76532e-11
-1.66687e-11
-1.23055e-09
0.000165672
-1.56262e-06
-1.15275e-11
0.000140399
-0.000195651
9.35353e-11
-3.40458e-08
-0.000772413
-1.06037e-10
4.81372e-06
5.30887e-06
1.51956e-10
1.65151e-05
2.70614e-12
-2.43391e-10
-1.06258e-10
-3.87275e-05
0.000130201
-5.5821e-05
-2.25394e-08
1.80659e-05
5.05197e-06
0.000165552
-1.2311e-11
3.33941e-11
3.65925e-10
1.36246e-09
-6.12748e-11
-3.42614e-09
6.67886e-11
7.31273e-11
8.58179e-05
-0.000740876
-3.97583e-10
-3.29944e-13
-3.26774e-05
-3.36184e-11
-4.84349e-06
4.95059e-11
-0.00013176
-1.3059e-11
1.1738e-05
-8.93313e-11
-0.000283822
-1.83081e-06
-5.08243e-11
6.61217e-10
8.15606e-06
9.16783e-06
-0.000405956
1.19459e-05
-6.35168e-05
1.54486e-10
-4.60166e-11
-1.71296e-10
4.95825e-11
4.31762e-11
-2.53755e-05
5.04221e-11
-2.44735e-13
1.16059e-11
1.08985e-05
8.96429e-11
-0.000113667
-1.57404e-09
-8.22367e-11
-8.34276e-05
-4.25082e-09
-1.76814e-07
-2.04737e-08
-5.08499e-13
5.63456e-11
-1.59047e-05
2.46724e-12
-7.47101e-05
8.74676e-11
1.27782e-09
-5.76127e-11
6.42172e-06
-3.00864e-05
8.31073e-10
-1.06695e-13
4.36813e-11
-6.84299e-11
-3.45761e-08
-3.86786e-05
1.68736e-12
-1.59301e-11
-6.32075e-13
0.00126822
0.000722676
-5.45184e-11
-5.42762e-10
-1.62998e-07
3.57636e-10
-3.79973e-05
8.77162e-09
1.1724e-09
3.28671e-10
-0.000733998
6.72021e-12
-7.3697e-11
0.000917536
6.70829e-08
-8.74321e-06
-1.69358e-05
1.6546e-11
-2.405e-10
1.61517e-05
4.64972e-05
-1.06452e-10
-3.72141e-13
1.15071e-10
-1.70703e-07
8.21926e-09
-9.32242e-11
2.22743e-11
-4.34165e-05
-1.99265e-09
-6.41281e-05
2.70655e-09
-1.91527e-08
3.7138e-05
-3.39014e-12
-2.31289e-09
-0.000728047
7.30208e-10
8.5151e-05
-1.72071e-05
1.22476e-10
-6.84161e-05
1.39372e-10
-4.41101e-10
-2.03067e-10
2.0935e-09
-3.44059e-10
-2.28767e-09
3.92453e-12
-4.10683e-11
-8.04561e-05
0.000251547
-2.02599e-12
-0.00011667
9.62588e-12
2.39883e-05
-2.5494e-11
2.22398e-06
-1.6495e-11
-4.5557e-07
-2.84095e-05
-1.39067e-10
1.67962e-10
-0.000114299
9.50243e-05
0.000633839
-2.47782e-08
0.00156485
5.64277e-11
-5.37282e-10
-2.98192e-11
1.88309e-10
6.53828e-05
-5.12999e-11
-5.89058e-10
-2.70227e-08
-1.1911e-09
-0.000350141
4.63445e-11
0.000132541
1.83742e-05
-2.92785e-08
3.15455e-10
0.000686936
5.10667e-13
-6.71814e-13
6.18431e-05
2.137e-12
-3.99868e-11
0.000260942
3.18729e-11
-0.000337624
-1.40742e-10
-6.3082e-05
-1.27637e-12
8.40788e-05
-0.00347469
-0.0015227
0.00191242
-1.80135e-10
2.47e-11
-6.66097e-14
-3.55829e-11
-7.08746e-11
-8.05726e-05
-2.07061e-06
-2.42231e-05
1.22058e-10
-4.086e-07
-4.41737e-05
-4.32846e-05
-4.86835e-11
-6.19921e-10
8.47243e-06
-4.82908e-10
5.94419e-12
-1.4511e-10
-0.000119392
4.58327e-11
2.70963e-05
-7.80179e-12
-0.000829664
8.75002e-14
-2.62502e-10
1.65296e-10
5.81589e-11
0.000182811
-3.98117e-05
2.77068e-06
-0.000786393
-1.11826e-10
1.20911e-09
7.94489e-11
-2.95663e-09
0.000504643
7.13871e-07
-5.82348e-14
1.3413e-10
4.3451e-05
-2.81146e-10
-1.17307e-05
4.12587e-10
4.93126e-09
5.65082e-10
-2.47349e-05
-1.94525e-05
0.000386887
-2.07489e-10
1.14909e-05
1.59685e-05
5.40429e-05
1.36822e-10
-7.98909e-11
3.10223e-10
-6.36147e-10
2.68729e-05
-2.76187e-05
1.89282e-05
-3.48727e-11
7.74285e-09
-7.15268e-11
-3.09583e-09
-0.00437121
0.000177494
-4.09657e-08
4.86456e-06
-1.08376e-06
4.03366e-09
-1.0198e-11
2.06641e-11
-1.97422e-10
-0.00032826
-1.80469e-11
-1.83092e-11
-1.81056e-10
5.92308e-10
0.000321968
-3.32369e-11
-0.00526063
-0.000158939
9.89706e-12
1.69204e-11
-3.49641e-10
-4.15265e-10
-5.16758e-05
-6.13293e-05
2.21614e-11
-1.12445e-09
-1.63655e-10
-1.08325e-10
-8.95343e-11
0.000170889
-2.93965e-05
5.86196e-10
9.99585e-11
-8.84989e-10
-2.82807e-10
0.000247041
0.00161513
-0.000527182
-4.38619e-10
-2.08479e-05
-4.22547e-11
8.69703e-10
-0.000427154
9.87011e-09
3.57784e-05
-1.143e-10
-1.61803e-05
1.25298e-09
1.83067e-08
6.07656e-10
-1.33098e-10
8.81576e-07
-4.60659e-06
-1.32054e-05
-8.79062e-09
-2.30015e-10
-6.65365e-07
8.62502e-11
0.000808106
1.7275e-10
2.28296e-10
-3.44679e-12
-5.6374e-14
-3.988e-10
3.62534e-11
-2.50918e-06
-8.58077e-05
-1.38674e-11
2.40013e-13
1.64589e-12
-8.55216e-11
-2.16682e-13
-2.64669e-09
-6.20235e-11
-4.90673e-11
7.19693e-10
-4.91043e-11
-4.58215e-10
6.04876e-05
-1.38059e-05
4.85727e-11
-6.93984e-11
5.38277e-09
9.27676e-10
7.0517e-10
2.68874e-10
-2.58588e-06
-1.63135e-05
-1.73773e-10
1.81544e-05
-5.97492e-05
7.18192e-09
-2.8519e-11
-4.02247e-09
-2.36748e-13
-9.17749e-05
3.30851e-11
-5.58643e-11
2.08578e-11
-0.00392244
1.03453e-05
-1.42741e-06
3.78386e-11
-3.30826e-10
0.000360652
6.994e-14
-1.57224e-10
2.11301e-05
1.04837e-10
-1.71431e-10
1.14459e-05
1.36131e-10
1.334e-10
0.000106877
6.72643e-11
-3.22948e-10
-4.62005e-11
-3.62229e-11
-4.21511e-12
0.000654087
1.99103e-05
2.57464e-10
0.000127314
-3.41579e-09
-8.30359e-07
-0.000279587
-6.80885e-11
7.98564e-12
0.00161085
6.28685e-09
5.78598e-05
3.36132e-09
0.00232791
-1.49631e-11
0.000638234
-0.000149889
-0.000111081
-2.07589e-11
-1.58654e-10
-7.39136e-05
-7.15673e-06
3.37112e-07
-1.32297e-10
-3.93558e-05
-0.000498599
8.72078e-12
-1.05069e-10
-3.10106e-10
-1.10967e-10
0.000848779
-1.1711e-10
2.277e-10
-2.14516e-10
1.54448e-05
-2.60142e-07
-2.858e-08
0.000154761
-1.13119e-06
-3.02323e-10
3.08718e-11
-1.85964e-10
3.79119e-09
-1.15588e-10
1.60849e-10
-1.03854e-10
0.000104077
1.85228e-07
-1.07236e-08
2.20392e-05
-0.000144826
9.50205e-10
-1.26315e-10
0.000143615
-7.46206e-10
0.000119894
-5.61199e-11
1.59417e-10
0.000603146
-3.21324e-09
2.14922e-10
3.49027e-11
3.70374e-05
2.83938e-10
-4.99213e-11
1.70714e-10
0.000288574
-7.4003e-11
1.118e-10
-2.53899e-07
-0.000870938
-9.23829e-05
7.25167e-11
-1.18515e-10
2.47063e-05
9.02139e-10
1.39445e-11
-1.64214e-10
6.4616e-10
0.000228594
5.11237e-11
5.96383e-06
1.83287e-10
1.31725e-11
-5.67783e-11
-1.51173e-11
1.24059e-11
4.82583e-09
7.43657e-05
2.19518e-05
-6.23898e-13
-4.29615e-11
2.10283e-11
0.000785072
9.83628e-11
-2.56921e-13
-6.02216e-10
-3.88486e-11
0.000164777
-3.15562e-08
1.7083e-05
-9.44583e-05
-0.000415538
0.000290014
-3.20485e-10
0.000191898
0.000134421
-0.000159652
1.08108e-12
5.98512e-05
-5.67509e-10
3.49096e-10
9.3162e-08
-1.37517e-10
-2.43355e-07
4.71079e-05
-1.16898e-10
0.000140985
0.000139858
0.0001467
0.00260168
0.000200877
-0.000143646
5.10605e-09
0.00205531
1.8463e-05
-2.39138e-10
1.82578e-08
-2.36702e-11
6.79412e-11
1.2526e-09
1.59095e-10
-1.79854e-10
-3.26451e-07
-4.04666e-10
0.000395484
-2.10335e-05
-1.4393e-05
-0.000123161
-0.000951141
-2.17372e-10
8.28225e-06
1.5079e-12
-4.26342e-13
6.09666e-09
-6.10881e-14
3.27474e-10
3.04431e-11
-0.000496556
1.2254e-10
0.000145923
0.00138152
-4.19057e-10
7.836e-10
-2.2291e-10
-2.5485e-11
-1.58947e-05
-1.45476e-10
-3.42637e-11
-4.75542e-10
-3.91965e-11
-1.35873e-10
5.57438e-11
1.93264e-10
8.48033e-11
-1.94302e-11
-6.04603e-05
5.71796e-10
-8.47471e-05
-2.98106e-05
-5.87706e-10
1.30827e-13
0.000210296
5.18524e-05
7.78577e-11
-2.31754e-10
-2.3131e-14
-1.36136e-09
-1.60575e-05
7.87812e-05
3.26782e-11
-5.25852e-05
-0.000145185
-1.79563e-10
-0.000150986
-3.57689e-05
8.81275e-11
-5.15407e-10
3.80402e-10
-3.43149e-11
9.85383e-11
-2.39621e-05
2.04477e-08
-1.70855e-06
0.000135318
-3.0172e-12
-2.32791e-10
-1.23661e-05
-1.19157e-10
-4.48781e-11
1.24601e-10
7.83717e-11
-4.37646e-05
-0.000618694
2.22248e-09
-1.75455e-09
-7.62301e-05
3.08125e-05
6.82891e-05
-0.000114951
7.33022e-11
-4.80133e-10
3.00322e-10
5.18552e-07
1.47882e-09
-4.55644e-06
-0.00080165
7.3662e-11
5.55119e-10
-6.08234e-10
3.5629e-12
2.70027e-05
-3.78059e-11
-3.88573e-13
2.50659e-05
2.01212e-05
-9.32386e-07
-5.88714e-11
-0.000865735
-1.49612e-10
7.35549e-05
2.2273e-10
-2.73442e-09
4.47672e-13
-2.16924e-11
-6.53602e-11
7.16719e-05
-8.5683e-06
-1.80332e-11
0.00092375
2.29476e-10
-3.09312e-11
-3.10034e-10
9.17527e-12
0.000162769
1.39835e-11
1.04431e-10
6.0791e-05
-5.45142e-12
6.38846e-11
-7.35661e-10
5.8144e-05
-1.5807e-09
-1.08899e-05
-3.03206e-11
4.48609e-08
-1.67e-08
1.53304e-11
-4.83244e-11
-0.000240498
-9.68804e-11
2.7803e-10
2.75149e-05
3.3466e-05
-1.75543e-12
-1.70961e-10
-1.87371e-12
5.28279e-12
-0.000331438
-2.01186e-08
-8.07858e-05
3.88406e-05
-1.27641e-13
0.000160305
-1.94239e-08
-5.74543e-05
-0.000315575
-1.49071e-11
-2.44142e-10
8.17137e-09
-3.73588e-10
5.0837e-10
-0.000646028
-8.28733e-05
2.82487e-05
-1.8213e-05
-2.93519e-13
4.88352e-05
2.14454e-05
0.00155373
-3.33515e-10
2.96334e-05
1.78231e-08
-1.50723e-09
0.000241557
6.9138e-06
0.000180456
-0.000677333
-8.98547e-12
-2.4116e-05
-6.88705e-10
7.61705e-05
1.4913e-10
2.63063e-11
-9.97996e-12
1.00014e-09
0.00107007
-1.06124e-09
5.49651e-06
-0.00038522
-2.1387e-05
-4.27448e-11
-2.34642e-13
-0.000245766
8.93312e-05
5.51429e-10
-2.18551e-11
-8.96022e-07
-1.62087e-05
-0.000109433
-3.12283e-10
-1.57713e-10
0.00297795
1.40752e-05
-9.02405e-07
1.6435e-08
-2.39729e-11
9.54821e-06
4.53091e-05
-0.00038081
-1.0466e-10
-3.08836e-09
-1.99679e-10
1.25996e-10
1.16655e-07
-1.9706e-10
-5.57012e-07
1.39165e-05
0.000141448
-3.48282e-12
2.83853e-10
9.06516e-05
2.91576e-10
3.20626e-05
-0.000742798
0.00301887
-3.84148e-10
-2.90378e-06
2.35155e-10
-3.38842e-05
-0.000156961
3.57441e-12
-1.99804e-11
-3.3623e-11
0.000187819
3.83962e-12
-1.55219e-10
7.33827e-11
-1.31029e-10
-7.43627e-05
4.22813e-07
0.000126464
-2.81446e-07
-7.17328e-05
-8.82556e-09
1.02475e-06
-3.60573e-10
1.09628e-10
-3.14573e-12
-3.52816e-05
4.86228e-10
-1.8121e-10
-5.82341e-11
-4.63289e-12
1.07521e-08
-8.4426e-10
9.27675e-12
1.7319e-10
1.53035e-10
-7.6693e-06
1.04119e-10
-9.02413e-05
2.14059e-10
-9.81725e-09
1.22528e-10
-2.51424e-10
1.00703e-05
1.45215e-07
-1.23972e-08
-2.8388e-11
-0.000711521
-1.78161e-11
-2.30152e-12
4.48863e-09
-6.07134e-11
2.37938e-10
-1.18829e-11
-0.000403174
-9.53569e-09
2.63575e-09
2.01404e-10
1.90959e-10
-9.55089e-05
2.35909e-11
-0.000193597
-2.03907e-07
-3.21393e-10
-4.89989e-10
0.000171297
6.19805e-08
0.00024339
2.3615e-05
-3.34519e-09
1.84972e-05
-4.65258e-11
1.23914e-09
2.10197e-09
-5.10244e-08
5.23148e-07
7.95449e-08
-0.000250649
8.54767e-05
-0.000368946
1.92749e-06
7.70752e-05
7.31059e-11
4.90835e-11
7.33175e-12
0.000118747
-1.19347e-07
-4.06171e-05
-0.000526659
0.000326266
1.72671e-10
-1.92093e-05
-1.14065e-10
6.74057e-12
2.33276e-10
1.72636e-08
-0.000476766
3.83707e-11
-8.05271e-11
7.22292e-06
5.95447e-05
-4.95283e-09
-0.000154105
-6.98634e-12
1.08984e-10
1.43742e-10
-1.30686e-05
1.28129e-08
7.3916e-05
-4.80326e-10
-5.382e-08
-1.26441e-09
-2.53449e-10
6.00557e-05
-7.31085e-11
1.16914e-08
-1.44461e-08
2.42049e-05
-2.69691e-05
1.35841e-05
7.35899e-05
-5.70513e-05
3.57943e-08
-8.31434e-05
8.71753e-06
-4.87281e-10
-5.17001e-05
-0.000459304
4.52556e-11
0.00325741
1.21384e-09
3.01198e-05
4.20424e-10
-2.55454e-07
-3.33188e-08
-3.62449e-10
-3.90233e-10
-1.54667e-06
-4.31701e-07
-9.4393e-12
3.77119e-05
-0.00068903
-3.7284e-11
2.70929e-10
-0.00107841
-2.42683e-05
-2.69915e-10
-2.82053e-05
5.19603e-11
-2.54645e-08
-6.41742e-09
-2.59127e-11
6.80161e-05
-6.32662e-05
-8.91037e-11
1.36222e-08
0.00226918
4.62417e-09
2.23311e-08
-5.7753e-05
-0.000807397
-1.87134e-10
-1.14598e-14
0.000125862
-4.95545e-05
-2.70223e-10
0.000417626
1.324e-10
1.13689e-06
2.5313e-07
-2.54763e-05
2.65594e-12
-1.06889e-08
4.33578e-10
-7.38109e-09
6.95192e-11
-0.000621899
-3.16795e-05
0.000200497
-1.25333e-08
1.48064e-12
3.72992e-10
-6.30787e-11
-7.02256e-05
-1.69996e-10
7.43337e-05
0.000159006
6.24429e-05
2.01774e-10
-3.07762e-06
-3.83617e-09
-6.68894e-10
3.36713e-05
4.12014e-10
-3.64649e-10
-5.27674e-08
-1.70374e-10
9.97733e-09
-1.51622e-10
-4.81398e-05
4.58211e-06
1.34296e-10
-4.03434e-11
1.73514e-05
0.00118598
1.84619e-10
1.52487e-10
-6.07194e-08
0.000300288
1.17527e-08
5.6436e-13
3.9329e-10
-1.44387e-10
0.000261928
-4.00526e-10
8.13088e-06
-4.5818e-05
-1.58064e-11
5.43248e-05
-8.31182e-09
-2.0324e-11
6.38763e-09
0.000159801
1.03216e-07
8.39885e-05
0.00165773
0.000171366
-9.65555e-11
-4.64346e-05
1.85034e-05
6.47962e-11
1.04064e-06
1.39624e-08
9.65868e-06
-2.15337e-10
0.000132704
-1.74912e-10
-0.000875149
-1.81906e-11
-1.27544e-05
-7.20063e-05
-1.64987e-08
4.58579e-10
4.40508e-09
-2.19487e-11
-6.03012e-11
-5.77329e-11
7.53868e-11
1.37677e-10
1.17335e-12
-8.94069e-05
0.00271558
1.28876e-10
-2.03052e-05
3.01458e-05
1.60839e-05
-0.00013333
1.09921e-11
0.000163487
5.09005e-11
-0.000220152
-1.11826e-09
0.000140436
-0.000205961
1.40571e-05
-4.85335e-11
-1.36313e-10
-5.84023e-12
9.71254e-11
1.09402e-10
9.23039e-06
-3.70581e-11
1.36849e-05
-1.54912e-05
1.07842e-10
1.28101e-11
-5.10511e-07
-1.84551e-11
-1.3629e-10
-4.16125e-10
1.63514e-09
-7.24537e-08
-0.000119359
9.24262e-06
-1.57151e-10
-2.29427e-11
4.8231e-06
3.39844e-11
1.34592e-05
1.92226e-11
-2.03771e-07
-9.90113e-06
9.85041e-06
0.00142526
6.04371e-09
4.11082e-05
6.33014e-10
-2.79288e-11
0.000108376
-4.14145e-05
-9.26834e-12
1.74296e-09
2.20313e-06
3.37597e-05
-4.68712e-08
-7.25906e-06
-2.2248e-09
1.92127e-10
2.27287e-10
4.66394e-05
-8.11887e-12
-2.50373e-11
2.05812e-10
-4.59639e-12
1.17737e-10
-6.59266e-11
5.44206e-08
6.61826e-11
2.53605e-12
-9.60962e-10
-2.3239e-05
-7.03231e-07
-2.32867e-09
6.51302e-09
7.85179e-09
3.52251e-12
-1.19243e-06
7.63819e-07
-3.67649e-11
1.42927e-05
1.80853e-11
0.0030626
5.69855e-11
-0.000159666
0.000102155
-2.60297e-10
-2.97871e-06
-0.000297845
-9.08236e-09
-2.87369e-08
1.76019e-10
-3.64496e-10
-3.78934e-05
-2.42098e-11
1.78737e-05
-9.37005e-11
9.83214e-05
-4.07926e-13
-2.25098e-10
1.83929e-10
-9.21933e-11
-0.000457234
-3.46685e-13
-7.54457e-08
2.02308e-05
-0.000514942
9.14656e-06
-6.24775e-11
-5.52064e-05
-5.20544e-11
6.55399e-05
-5.41356e-10
1.93923e-08
-1.97868e-11
-1.12704e-09
0.00016931
1.81461e-05
4.7115e-10
-3.45281e-05
1.38316e-12
-2.30078e-05
-4.13606e-10
-3.06725e-05
-0.000336428
1.31023e-05
-2.25541e-05
-1.16731e-10
3.66133e-11
2.15211e-10
3.09908e-05
1.14685e-09
-1.8205e-10
-2.45599e-10
-3.43557e-08
-3.73138e-05
-9.59787e-05
-2.3745e-06
0.000123532
0.000163629
1.20467e-07
-0.00010383
1.57972e-07
-2.46065e-05
-3.44755e-05
-8.87272e-11
7.44979e-06
-2.25131e-05
0.000113118
2.14098e-08
-1.31385e-11
-2.40535e-08
0.000380504
5.0261e-12
-6.80443e-05
2.62883e-09
2.59548e-11
-4.36805e-12
9.80307e-05
-0.00028777
2.41927e-11
5.28354e-09
-1.36784e-09
-2.23888e-05
-7.24154e-05
3.06795e-10
-3.01858e-05
-6.4173e-05
-1.29387e-10
-1.13972e-06
-2.71955e-06
5.76391e-06
-1.58048e-10
-5.00923e-11
-2.66502e-08
-0.0102911
2.21162e-05
-5.85134e-12
2.22927e-10
-7.35458e-12
6.54072e-11
3.5232e-11
-2.84847e-09
-0.000121298
-4.359e-08
0.000475385
-1.87495e-09
1.8699e-06
1.16549e-10
-6.13682e-11
-0.000115129
5.10671e-09
-4.44485e-10
6.65667e-11
3.90158e-11
1.38054e-06
1.00347e-10
1.11653e-10
1.27475e-05
-1.4145e-09
3.61866e-05
-9.61844e-08
-9.15813e-11
0.000139212
8.98789e-11
-9.95617e-10
-5.42189e-11
-1.20857e-09
-1.13966e-07
1.20434e-07
-1.0497e-09
-3.1636e-06
3.99226e-10
-2.85605e-12
-4.48436e-06
0.000978343
-0.000202689
1.06054e-05
1.60903e-10
-2.17544e-10
-3.2078e-05
2.07099e-10
9.64964e-05
1.80954e-10
2.96685e-10
-0.000113138
-1.06783e-07
0.000280471
-0.0001151
-7.28161e-10
-7.09748e-08
-5.67448e-11
8.08525e-11
-8.96435e-13
-3.38758e-12
7.64684e-11
-3.06603e-11
-6.06179e-05
-1.3876e-10
3.33935e-05
7.82644e-05
-0.00014057
0.00228733
1.02633e-09
-5.26946e-09
0.00280058
-6.2823e-09
-8.08313e-11
4.20194e-12
-4.01708e-06
3.2002e-10
-3.13095e-06
-0.000493735
-1.86448e-09
6.39084e-10
-1.78272e-11
-0.000194004
-1.22932e-05
2.8697e-11
4.36668e-05
8.93614e-11
2.70112e-11
-9.0304e-07
-2.02781e-12
2.97316e-10
-1.01977e-07
2.10548e-10
-1.57787e-10
-1.05067e-10
2.94991e-10
4.22817e-06
1.41271e-10
5.83019e-10
2.25087e-10
2.6712e-05
8.65256e-12
-2.14898e-05
-4.68021e-05
-6.90126e-10
-4.38346e-09
2.44121e-05
-2.20634e-10
-2.82634e-05
5.0002e-11
1.71642e-10
1.20018e-10
5.36458e-11
-7.19315e-11
2.914e-11
-6.52471e-11
7.5018e-13
9.23426e-11
-5.30767e-13
4.13938e-11