/*--------------------------------*- C++ -*----------------------------------*\
| =========                 |                                                 |
| \\      /  F ield         | OpenFOAM: The Open Source CFD Toolbox           |
|  \\    /   O peration     | Version:  v2012                                 |
|   \\  /    A nd           | Website:  www.openfoam.com                      |
|    \\/     M anipulation  |                                                 |
\*---------------------------------------------------------------------------*/
FoamFile
{
    version     2.0;
    format      ascii;
    class       volScalarField;
    location    "500";
    object      nut;
}
// * * * * * * * * * * * * * * * * * * * * * * * * * * * * * * * * * * * * * //

dimensions      [0 2 -1 0 0 0 0];


internalField   nonuniform List<scalar> 
14479
(
0.00133038
0.0386572
0.000416498
0.00667665
0.000579925
0.00649663
0.00679822
0.000248775
0.00261488
0.00058017
0.00681341
0.00114855
0.000922232
0.00618319
0.0211878
0.00648887
0.00679842
0.0200517
0.00675101
0.00526962
0.000577426
0.00270531
0.0089036
0.0215111
0.00681278
0.0067507
0.000101757
0.00290761
0.00564864
0.000113977
0.000362536
0.0226039
0.00201435
0.000280429
0.000353705
0.000547707
0.00685108
0.00647338
0.0119424
0.000449268
0.00647217
0.00677959
0.00982892
0.00721244
0.00685698
0.00644455
0.00674266
0.0256101
0.001509
0.00678108
0.00100598
0.00292979
0.0067465
0.000800417
0.00785737
0.00111281
0.000685223
0.00305131
0.0301394
0.0028219
0.00677963
0.00681751
0.0304323
0.00673609
0.00680576
0.0210637
0.0260308
0.0428815
0.00674654
0.00515424
0.00173578
0.00674292
0.00140671
0.000401524
0.00562405
0.0067393
0.00276569
0.0299366
0.00678702
0.0224657
0.00675459
0.000307838
0.0169096
0.000287841
0.000653499
0.00359103
0.00459467
0.00680871
0.000278467
0.00252872
0.00268105
0.0254105
0.0243638
0.00673479
0.00254386
0.00676933
0.00679313
0.00666614
0.00671866
0.00580783
0.00165531
0.0062615
0.000747613
0.000566254
0.033767
0.000218429
0.00205821
0.00317481
0.000162132
0.00937883
0.00151305
0.0278753
0.00643309
0.000949683
0.00123753
0.000719989
0.00677074
0.000907345
0.00201391
0.00644231
0.00674515
0.0197039
0.0011323
0.00671817
0.00957174
0.00729527
0.00306716
0.00186068
0.000871052
0.00758088
0.0127623
0.00772513
4.41625e-05
5.69781e-05
0.0384398
0.000715022
0.000252428
0.000316136
0.00141857
0.000114107
0.0353642
0.0175574
0.00676865
0.0355182
0.00675551
0.0393153
0.0182704
0.00707368
0.0119413
0.000588506
0.0413935
0.0067512
0.0258432
0.00152141
0.00675157
0.00675653
0.0384746
0.0114792
0.00569904
0.000688854
0.000365364
0.00667008
0.00674986
0.00269609
0.0247448
0.00663067
0.00676298
0.000299865
0.000540403
0.00716979
0.0138976
0.00111648
0.00644231
0.000957144
0.00673587
0.00532727
0.000660645
0.00674812
0.0118394
0.00076724
0.000819673
0.0068049
0.0113247
0.00400951
0.0119763
0.00720575
0.000143619
0.0176029
0.00359512
0.0001083
0.0260914
0.00126004
0.0193674
0.0202718
0.00627584
0.000965974
0.00690066
0.0104943
0.00102067
0.00674669
0.000588885
0.00268411
0.00244437
0.00676466
0.000629104
0.00697966
0.0211029
0.00648485
0.00673254
0.00085766
0.00126096
0.00679653
0.00083189
0.000761683
0.00014742
0.02871
0.0241555
0.00773466
0.0232365
0.00563212
0.0398218
3.99739e-05
0.00191198
0.00255984
0.000220048
0.00657707
0.0418826
0.00672753
0.000756198
0.00797272
0.00616978
0.00824559
0.00620372
0.00708367
0.00659798
0.019805
0.00199327
0.000381337
0.0203135
0.00675062
0.00575079
0.00674589
0.000796789
0.00382467
0.00713616
0.000308801
0.00975918
0.0390318
0.00636256
0.00675324
0.00150815
0.00332662
0.00288585
0.000506878
0.00505665
0.00673411
0.000764906
0.00673528
0.00249773
0.00674936
0.00672804
0.00546404
0.00674846
0.00675037
0.00674452
0.000792172
0.00197386
0.00675376
0.00987453
0.000765692
0.000912919
0.00698332
0.020216
0.00104421
0.000274611
0.0264163
0.000391372
0.00673729
0.000882731
0.00193957
0.000412308
0.00626127
0.00299898
0.00183352
0.000284304
0.00127455
0.000910189
0.000317457
0.0010841
0.00155397
0.000362009
0.00650841
0.00323573
0.00581014
0.00266465
0.0145367
0.0206869
0.00364451
0.000683342
0.0272457
0.0246514
0.0245345
0.0067418
0.0068367
0.000929954
0.00137483
0.00669728
0.00176375
0.00673748
0.00117563
0.00665802
0.0017635
0.00180842
0.0071201
0.000975195
0.000380478
0.00132659
0.00173309
0.000805334
0.00673451
0.0212245
0.000964606
0.0251489
0.000914873
0.0067846
0.0203703
0.00602809
0.0398682
0.000894824
0.00177233
0.00770364
0.00686837
0.00320641
0.000791623
0.00653426
0.00319368
0.0414638
0.000823749
0.00219899
0.00492551
0.00678989
0.00362031
0.00673343
0.000819589
0.0282311
0.000953066
0.000225178
0.000839225
0.00101352
0.00764409
0.00674527
0.0149342
0.00166054
0.0244914
0.000883928
0.00274601
0.000216363
0.000659671
0.00678391
0.00225014
0.00693024
0.00138952
0.000726523
0.0135449
0.00190036
0.00693276
0.00682158
0.00390854
0.000590231
0.00683094
0.00646093
0.00879259
0.00635699
0.000330409
0.012257
0.000168801
0.0068108
0.000214478
0.00107332
0.00387498
0.000941584
0.000219862
0.00674406
0.00266046
0.00105106
0.00387135
0.0311515
0.00679654
0.00757207
0.00218551
0.000261773
0.00922344
0.0016497
0.000573406
0.0292658
0.00779601
0.00407341
0.0360701
0.000685991
0.000329592
0.00110072
0.000724992
0.000535387
0.0137345
0.000456231
0.00161708
0.000927448
0.00104
0.00108478
0.000925363
0.0388579
0.00101501
0.000566315
0.000851926
0.00678117
0.0127088
0.00519322
0.0026497
0.00699232
0.000318472
0.00617623
0.0223323
0.0303183
0.0161038
0.0227387
0.00388138
0.00174234
0.00103079
0.00683983
0.00689615
0.00691442
0.00049334
0.0213684
0.0413561
0.00985225
0.000818545
0.024326
0.00929914
0.000672438
0.00678559
0.00117295
0.00673132
0.007022
0.0210962
0.00683041
0.00675125
0.0014568
0.0377373
0.00122722
0.00456883
0.00702555
0.00680823
0.00564901
0.0010712
0.0024604
0.000796606
0.00678427
9.33398e-05
0.0018116
0.00020881
0.000157928
0.00597137
0.002943
0.000734766
0.0229126
0.0067384
0.000440819
0.00062834
0.00125101
0.00677515
0.00673022
0.000677304
0.00652038
0.00641281
0.00625164
0.021603
0.000268104
0.0253802
0.000767782
0.00667924
0.000215034
0.000668795
0.00600401
0.0235175
0.000442041
0.00658613
0.00678035
0.00416733
0.0267673
0.0182642
0.00673776
0.00673345
0.000210341
0.0067862
0.00666422
0.00446733
0.00673548
0.000164909
0.00664789
0.000243713
0.000634074
0.0112336
0.0160512
0.000451853
0.0199264
0.000459687
0.000181006
0.00928281
0.00185121
0.00654672
0.00581498
0.00212796
0.00143935
0.00142642
0.00353671
0.000769257
4.56651e-05
0.0017541
0.0243751
0.000620094
0.00332337
0.00206644
0.00673021
0.000766224
0.00559863
0.00102451
0.00612579
0.000895148
0.0499478
0.00664366
0.0204096
0.000971694
0.00122528
0.00673441
0.00674237
0.00694524
0.0013608
0.00346403
0.000591589
0.000651498
0.000975256
0.0330551
0.00076724
0.00675507
0.0243336
0.000834271
0.00781162
0.0262668
0.00905402
0.00153578
0.00160518
0.000113943
0.00763015
0.00611301
0.00074697
0.0119177
0.00196211
0.000838317
0.00645302
0.0189082
0.00674182
0.00395426
0.00658783
0.0275859
0.000820561
0.00363139
0.0064768
0.0195534
0.000553333
0.00672124
0.0105052
0.0014431
0.00199486
0.00721987
0.000534339
0.000513156
0.00102576
0.00254902
0.000971616
0.00117264
0.022107
0.00164092
0.00129856
0.0192167
0.0034156
0.00076931
0.00129775
0.000680719
0.00215809
0.00184349
0.000618859
0.00662475
0.0223195
0.0016485
0.00451293
0.0342112
3.42173e-05
0.00675042
0.0275852
0.00107201
0.00679271
0.000627191
0.0063613
0.00197632
0.00126508
0.000829728
0.0237627
0.00103616
0.000500851
0.00154387
0.00072112
0.00101688
0.00736151
0.00147499
0.00722824
0.00155353
0.00569325
0.000256824
0.00659144
0.0213428
0.00652889
0.00152157
0.000498139
0.00128943
0.00679132
0.00132923
0.00886455
0.00203241
0.00167793
0.000859696
0.00446859
0.00673476
0.000558776
0.00206299
0.00698067
0.0330935
0.00474868
0.000769607
0.023183
0.00674924
0.00101929
0.00679217
0.0163704
0.00884703
0.000265763
0.00289142
0.000600026
0.00456461
0.000609608
0.000826678
0.00674859
0.00370613
0.00206863
0.0203014
0.00050088
0.00492133
0.000445895
0.00098727
0.0345644
0.00541892
0.000607516
0.00655115
0.0269132
0.00646761
0.000805228
0.00746254
0.000789535
0.00684678
0.000878749
0.00675287
0.00575595
0.0012835
0.00687642
0.00673769
0.00674494
0.00680992
0.00112913
0.000956173
0.00685951
0.0263176
0.00323049
0.00197326
0.000700436
0.000132978
0.00514253
0.00686016
0.0371494
0.00696354
0.0421658
0.00232543
0.00295113
0.000229719
0.00189465
0.0019316
0.00107178
0.014016
0.00698583
0.0042822
0.00710402
0.00196214
0.00493211
0.00633616
0.000543443
0.00198153
0.00679743
0.000855264
0.00701555
0.0224205
0.0279206
0.0280954
0.00983863
0.00720799
0.0215059
0.00500371
0.00152042
0.00486037
0.00768992
0.0139898
0.00153407
0.00674627
0.00134571
0.000242086
0.00338758
0.00138297
0.00603569
0.00266798
0.000219886
0.00188099
0.00153911
0.00065237
0.00673427
0.00675435
0.000346202
0.000666648
0.0421146
0.00674337
0.000409053
0.00120399
0.000664199
0.0069351
0.000955773
0.0067627
0.00317536
0.000945352
0.00676487
0.00678677
0.0200609
0.000933115
0.00632339
0.022505
0.00143066
0.00340138
0.000777284
0.0415102
0.0176878
0.000420908
0.000962784
0.0245272
0.000838521
0.000474402
0.0118125
0.00333413
0.00596643
0.0219606
0.0067616
0.0351347
0.0100383
0.000938925
0.000267625
0.00381123
0.00053288
0.00170182
0.00674894
0.00715456
0.00654683
0.00224738
0.0231037
0.0120704
0.00678116
0.0246451
0.00171683
0.00232279
0.000225719
0.00676231
0.0402478
0.00102393
0.000513896
0.0191828
0.00631712
0.0161214
0.000245752
0.00055552
0.0019721
0.000951018
0.0221576
0.013628
9.62451e-05
0.000229278
0.00672737
0.0359907
0.00192269
0.00097205
0.00165856
0.00106339
0.0279177
0.00692755
0.00840184
0.00122389
0.0236904
0.00698905
0.00152951
0.0323157
0.00678451
0.0078272
0.0070175
0.000416557
0.000561702
0.0141537
0.00180124
0.00435177
0.0102439
0.00673688
0.00992717
0.00717716
0.00706427
0.026781
0.000680139
0.00676573
0.0249123
0.00188806
0.00093145
0.00677879
0.0069821
0.0275199
0.0187993
0.000362756
0.00159232
0.00698228
0.0210494
0.000220294
0.00189174
0.000631185
0.00119121
0.00106564
0.0180953
0.00648029
0.00676898
0.000593825
0.00235696
0.0011674
0.00779906
0.0119021
0.00125744
8.84103e-05
0.000109591
0.0104173
0.0502082
0.00657461
0.000644759
0.00154956
0.0438447
0.00023648
0.00322972
0.00673779
0.0205675
0.00614349
0.00660008
0.010905
0.000264461
0.0353129
0.00771054
0.00125426
0.00121837
0.00641804
0.000964526
0.00672414
0.00709846
0.000786562
0.00781773
0.00378077
0.00709866
0.0030271
0.0227666
0.0182416
0.0176323
0.000667425
0.0318621
0.00102278
0.00674397
0.00252632
0.000775446
0.0120372
0.00679172
0.0241703
0.00676363
0.000585917
0.00373571
0.0146032
0.0069787
0.00674244
0.00389019
0.00712124
0.00427268
0.000508891
0.0119719
0.0271519
0.0266467
0.00679382
0.00679253
0.00674233
0.0068071
0.00647057
0.00669242
0.00216594
0.00105777
0.00695883
0.000524871
0.000445561
0.00632849
0.00067682
0.0116658
0.00674865
0.00681359
0.0152995
0.0038618
0.00212274
0.00914522
0.00679921
0.00676928
0.000204758
0.00698815
0.000790596
0.00309734
0.00692832
0.00673653
0.000549724
0.0229935
0.000571659
0.0305082
0.00166599
0.00418501
0.0241045
0.0400542
0.00285809
0.000509189
0.0200516
0.0221148
0.0134346
0.0173157
0.00673916
0.00507354
0.00309783
0.000946553
0.000992114
0.00673659
0.00165647
0.0354617
0.000610882
0.00853752
0.00673316
0.00678918
0.00102655
0.00678023
0.00677407
0.00675099
0.000845747
0.00121588
0.0066566
0.000793716
0.00587917
0.00180117
0.00724183
0.0404499
0.00677752
0.00093326
0.00958525
0.00165595
0.00100484
0.00937089
0.0253783
0.00570965
0.00562595
0.00665544
0.00753929
0.000158734
0.0209344
0.0271355
0.00403262
0.000129258
0.00119899
0.000294971
0.000114655
0.000934173
0.00117034
0.000428422
0.00674192
0.00112611
0.00668901
0.00082057
0.00915997
0.00192901
0.0136636
0.00338168
0.0238513
0.0244747
0.00081805
0.00065267
0.00678445
0.0279708
0.00702756
0.00783581
0.000150605
0.00567296
0.000425263
0.00674792
0.00087035
0.000543205
0.00424902
0.000301017
0.00087089
0.00484475
0.00698664
0.00169867
0.00684587
0.000589747
0.0382879
0.0010797
0.00552563
0.00134052
0.0356712
0.00612237
0.00432253
0.0150427
0.0151496
0.00781283
0.0253693
0.000397724
0.00615336
0.00673054
0.00664407
0.00673579
0.000292751
0.000653662
0.00435917
0.00168716
0.00400569
0.00758614
0.00586164
0.000309047
0.00053287
0.00674899
0.000941734
0.050589
0.00627529
0.00395239
0.00672834
7.17534e-05
0.00439949
0.00659746
0.0082446
0.00695369
0.00678226
0.012741
0.00724006
0.000979427
0.00342562
0.00679139
0.00230982
0.0339352
0.0214043
0.0216473
0.0242364
0.000683344
0.039645
0.00152502
0.00101131
0.00141674
0.00679976
0.00448113
0.000387466
0.0205101
0.036427
0.00346181
0.0172913
0.00687319
0.00677881
0.0231712
0.00174072
0.0217049
0.000110513
0.00029274
0.0160825
0.00686757
0.00160168
0.00819295
0.0190954
5.15599e-05
0.0307612
0.00113761
0.0196817
0.00551146
0.00605044
0.000876707
0.0067736
0.000878009
0.00338514
0.000876273
0.000765077
0.00096969
0.000959783
0.0118403
0.00704105
0.00203375
0.00814393
0.00683447
0.000481984
0.00104203
0.0142987
0.0175692
0.00110663
0.00126131
0.0378102
0.00680187
0.000217417
0.00020147
0.00692698
0.0211369
0.0168023
0.000935132
0.00675366
0.0196193
0.0141897
0.0176352
0.00102752
0.00024046
0.00454533
0.000385878
0.00292624
0.000260268
0.0017245
0.000165246
0.00172443
0.0382895
0.00683607
0.0356219
0.00238302
0.00107018
0.0010773
0.00674722
0.000745321
0.0064516
0.00697058
0.00104234
0.018703
0.000531204
0.00295353
0.00282875
0.00128075
0.000926312
0.00117843
0.000519054
0.00676429
0.000686026
0.00906933
0.000340363
0.00405893
0.00144537
0.000921712
0.000196578
0.000836852
0.00114856
7.86532e-05
0.000188268
0.00601222
0.034428
0.0025209
9.77068e-05
0.0109343
0.00673175
0.0414853
0.0206496
0.00205732
0.000680347
0.00150372
0.00208239
0.00113495
0.000558668
0.0204283
0.00368951
0.00677538
0.00025974
0.00103538
0.0188864
0.00659153
0.000876227
0.000923704
0.00543778
0.00163355
0.00357081
0.000753511
0.00062037
0.000204819
0.000518838
0.00051872
0.000255015
0.00108401
0.00419086
0.000777995
0.00083225
3.48051e-05
0.00111502
0.0327097
0.000703845
0.00929574
0.00463499
0.0129115
0.000807327
0.000249605
0.00696536
0.0075457
0.00169751
0.00298382
0.00391449
0.000285384
0.00195475
0.000483994
0.00704527
8.84824e-05
0.00126017
0.0084865
0.00030239
9.23744e-05
0.0103623
0.00080365
0.0391748
0.00137658
0.00212326
0.00698195
0.00195204
0.00673791
0.000282168
0.00265488
0.000326075
0.0067384
0.019195
0.0262611
0.000324693
0.00105911
0.0004817
0.00953157
0.0327231
0.000530739
0.000263019
0.0422609
0.000614994
0.00420049
0.000827004
0.002246
0.000974793
0.00675717
0.00292032
0.00673651
0.000578286
0.0045811
0.0157713
0.0308734
0.0022065
0.00046434
0.00979466
0.0411043
0.00472362
0.00052529
0.0137053
0.012858
0.0069225
0.0211496
0.0178762
0.000883743
0.0080147
0.0275677
0.00126764
0.00677816
0.00182291
0.0390018
0.000495481
0.0177549
0.0102206
5.89684e-05
0.000821528
0.000548875
0.00115884
0.00598523
0.0207824
0.0052762
0.000279128
0.00117889
0.00089777
0.00428942
0.000791207
0.00631125
0.000297268
0.000412758
0.000839703
0.00935228
0.000310491
0.0238884
0.00138623
0.00679462
0.000849613
0.000506539
0.00224588
0.00538545
0.0133752
0.00808385
0.00694288
0.000531357
0.00673972
0.0103093
0.00340592
0.00672492
0.010944
0.00676992
0.000584517
0.00730942
0.00270697
0.00089025
0.00510932
0.00644649
0.000569787
0.00693983
0.000533196
0.000899208
0.00674325
0.00725267
0.00114367
0.0104472
0.0067541
0.00103717
0.00185257
0.0050447
0.00678535
0.040366
0.00631503
0.0415371
0.00466701
0.020915
0.00678851
0.0078105
0.000587644
0.00458464
0.00093876
0.00410667
0.0100847
0.00241582
0.0166776
0.00171672
0.0014218
0.000352983
0.00098612
0.00673231
0.00680927
0.00107168
0.0347256
0.000917763
0.000999645
0.0004502
0.0380803
0.00151099
0.00696981
0.00193538
0.00673807
0.0164366
0.00104254
0.0048893
0.00665323
0.00166788
0.00689481
0.000992416
0.00692787
0.000271604
0.00093026
0.000612468
0.00678155
0.00951546
0.0361323
0.00674806
0.000534853
0.00683219
0.0391896
0.0170941
0.00109983
0.00464106
0.01249
0.000386955
0.0427339
0.00675063
0.00680417
0.000924154
0.0370154
0.000344965
0.0067056
0.0067386
0.010378
0.0382641
0.00662535
0.0016347
0.037321
0.000577622
0.00531674
0.00175468
0.0067919
0.00638159
0.00673527
0.00679197
0.00156809
0.0371018
0.000513968
0.0179443
0.000322172
0.00673994
0.00680308
0.00672965
0.00347502
0.000272843
0.037837
0.000404308
0.00675143
0.000746847
0.00306146
0.00111243
0.00192753
0.0304971
0.000687307
0.000959257
0.00400567
0.0163796
0.000395644
0.0182457
0.0105173
0.000710293
0.00332317
0.0243398
0.00662883
7.93151e-05
0.00163055
0.00049088
0.000641296
0.0206558
0.001089
0.000882021
0.00902558
0.000720709
0.0407908
0.029058
0.0347451
0.00676132
0.0152404
0.00695352
0.000902725
0.00600289
0.000539947
0.000229022
0.00667072
0.000977473
0.0317848
0.00059447
0.000910859
0.00520996
0.000103055
0.00120692
0.00102627
0.0404451
0.00674291
0.00675466
0.00637719
0.00690701
0.00673637
0.00190529
0.00146697
0.00947702
0.00080945
0.00390793
0.000829623
0.000751915
0.0104331
0.0196084
0.00051493
0.000237528
0.0040795
0.000194135
0.000440527
0.0067521
0.0395377
0.0419224
0.000838814
0.0224553
0.0259723
0.00115905
0.00457687
0.000225035
0.000407228
0.00431964
0.0117568
0.0378571
0.000732856
0.0417571
0.000414137
0.00468957
0.0206779
0.00250856
0.0067405
0.000942019
0.0393721
0.00131966
0.00212619
0.00192716
0.00113477
0.0109542
0.000887996
0.00132775
0.00320225
0.0214323
0.0120057
0.00585704
0.000194274
0.000250772
0.000547996
0.0268378
0.006971
0.00114541
0.000671934
0.0362971
0.000156761
0.000422354
0.00674773
0.00680144
0.000423022
0.000995357
0.00636064
0.00093974
0.00672682
0.000509196
0.000865282
0.000606878
0.0488605
0.0190558
0.00673106
0.0260063
0.0146032
0.000458903
0.000378926
0.0181898
0.000306095
0.00181232
0.0103273
0.000994853
0.0106019
0.00663738
0.0312756
0.00174512
0.00960684
0.00999737
0.0138964
0.00672833
0.00765097
0.00221526
0.0184405
0.00160663
0.0485091
0.0358533
0.000931864
0.000842682
0.00236457
0.0063071
0.000391508
0.000542102
0.00030662
0.029422
0.00107955
0.00679114
0.000766422
0.00641274
0.0200444
0.0439109
0.000333523
0.02624
0.00189888
0.00664624
0.000763879
0.00691841
0.00695033
0.00112011
0.00405127
0.00103287
0.00672847
0.000831912
0.00677132
0.00171864
0.000611892
0.0067803
0.000680089
0.00120867
0.01997
0.023832
0.000478989
0.000820846
0.0309974
0.000589833
0.0276943
0.000921584
0.00675145
0.00673765
0.000524371
0.051257
0.000850482
0.000665354
0.000696476
0.00018121
0.000128334
0.0261654
0.000126459
0.00660667
0.000713091
0.00183898
0.000957929
0.0242486
0.00154491
0.00679419
0.00203997
0.00678744
0.00166189
0.0218019
0.00681214
0.00059478
0.00395228
0.000709453
0.00683305
0.00668356
0.000390598
0.00337257
0.000638467
0.000272426
0.000840278
0.0235666
0.00676388
0.00100353
0.00336071
0.010382
0.0514967
0.0247346
0.000909233
5.28483e-05
0.00657475
0.000553206
0.00150404
0.00017483
0.0248802
0.00715541
0.000472443
7.76482e-05
0.0067344
0.00674139
0.0218936
0.0015826
0.000134648
0.000332671
0.00674155
0.000689931
0.00612939
0.0305423
0.0220996
0.000975608
0.000616905
0.0179389
0.00122222
0.00110962
0.0067462
0.000844396
0.00729772
0.0163592
0.0132382
0.00676806
0.00113555
0.00674441
0.0031496
0.0381521
0.0399737
0.00733693
0.00754742
0.00679612
0.00373204
0.012553
0.00131907
0.0296404
0.000580003
0.00112897
0.0013083
0.0287046
0.00144661
0.00656624
0.0374461
0.0259515
7.70102e-05
0.00149616
0.0509315
0.00672618
0.00765296
0.00130171
0.000895798
0.00169636
0.00673077
0.000726946
0.00677
0.00227712
0.0509907
0.00192366
0.000739759
0.0254029
0.00677043
0.0466491
0.00119994
0.00281988
0.00404616
0.000391101
0.00109637
0.000702846
0.000678102
0.00675546
0.00439591
0.00206513
0.00128144
0.00202857
0.00630512
0.000515574
0.0022009
0.00120601
0.000578934
0.00752225
0.0209224
0.0069314
0.00176843
0.0276811
0.00607519
0.00114657
0.000622213
0.00252104
0.000933589
0.000364837
0.00677865
0.0150952
0.00672646
0.000662436
0.0119331
0.00597628
0.000440365
0.0407415
0.00603676
0.000875467
0.00114947
0.0128741
0.0187824
0.00620653
0.000279795
0.00690062
0.00638843
0.00677252
0.00109919
0.00135937
0.0069262
0.000248079
0.00118121
0.00476035
0.000670302
0.00671954
0.0103376
0.0376013
0.00673448
0.000161714
0.0178803
0.000655459
0.0031378
0.033475
0.0166151
0.00683581
0.000347841
0.00177294
0.00162844
0.000388753
0.000847377
0.000513449
0.00711349
0.000464614
0.00294956
0.0158419
0.00788669
0.0216576
0.000620847
0.000946431
0.000973203
0.0239556
0.000973695
0.00156236
0.00342775
0.000777232
0.000706176
0.000575216
0.00283652
0.00676595
0.000595355
0.00357077
0.0226942
0.000454753
0.0179352
0.00114257
0.00676906
0.000862923
0.00144958
0.000983738
0.00676553
0.000842632
0.00416488
0.0064425
0.0067699
0.000347367
0.00564284
0.000242402
0.00124397
0.00209942
0.0287383
0.00117291
0.00783181
0.000934169
0.00104956
0.00942107
0.000358441
0.00672621
0.00676215
0.00763088
0.000685039
0.0132324
0.00331901
0.000891458
0.000887826
0.00411029
0.0177376
0.00728163
0.000681565
0.00035135
0.0410069
0.0187797
0.0333275
0.0211923
0.00109152
0.00300498
0.00456613
0.00381967
0.00258109
0.0293183
0.0246298
0.00139952
0.00682526
0.0013772
0.00673636
0.00139922
0.000543391
0.0051495
0.00364083
0.000764102
0.00688617
0.000439896
0.000860782
9.84736e-05
0.00675273
0.00097733
0.00439244
0.0209086
0.000641015
0.00110592
0.000228946
0.00388895
0.00674446
0.000885448
0.0108279
0.000961813
0.00419232
0.00121247
0.000308489
0.000374814
0.0044378
0.000442331
0.00195325
0.00672562
0.0162952
0.00339816
0.0196575
0.00214894
0.00627814
0.00295869
0.0064772
0.00379519
0.0067684
0.00673235
0.00673087
0.00973632
0.00130028
0.00726991
0.00583202
0.0165853
0.0125162
0.00123614
0.00282028
0.000967121
0.00415191
0.00631303
0.000813047
0.00166716
0.0015837
0.00128806
0.00365661
0.00661005
0.0165689
0.00673505
0.00632309
0.00673478
0.00104662
0.000142445
0.00541801
0.00493002
0.00673796
0.00678548
0.00105559
0.00698772
0.0153933
0.00184263
0.00666652
0.00111799
0.00640976
0.00689638
0.0113355
0.00146609
0.0104511
0.0220396
0.000567221
0.00673318
9.28969e-05
0.00091183
0.000306815
0.00201537
0.00676866
0.00704686
0.00089632
0.000533865
0.000117309
0.0120246
0.0163477
0.00731286
0.000891934
0.0011563
0.00103064
0.00223729
0.0127033
0.00674061
0.0257194
0.000835124
0.031674
0.0180638
0.00104605
0.0230901
0.00201572
0.00138325
0.000883235
0.000892024
0.000549505
0.000525989
0.000601184
0.00127065
0.00679912
0.00227494
0.00732026
0.00337943
0.000399291
0.000656144
0.00049197
0.000253869
0.00107582
0.00296403
0.00189647
0.00346506
0.000706369
0.000451147
0.000367215
0.000384764
0.028345
0.000598557
0.000522575
0.0010075
0.00325626
0.000513588
0.00674466
0.0443343
0.0011787
0.0108753
0.00136725
0.00153876
0.0190507
0.00120214
0.00763421
0.00121502
0.00285723
0.00095148
0.0187752
0.000683576
0.00277219
0.006811
0.00199003
0.000408975
0.000982037
0.00192395
0.00672316
0.0374043
0.0460495
0.00682635
0.00111359
0.000823511
0.00893318
0.000943085
0.000313553
0.000546776
0.00608104
0.0102863
0.00113878
0.0031893
0.000907703
0.00673704
0.00673469
0.00672548
0.0220529
0.00135013
0.00129256
0.00604396
0.017264
0.0351035
0.00631061
0.000753887
0.0270757
0.00677686
0.00226376
0.00306126
0.00761142
0.00646633
0.00144477
0.0139441
0.00176945
0.0147269
0.0360019
0.000973412
0.000945961
0.021291
0.00141859
0.0313793
0.0209764
0.00674633
0.000976093
0.0216069
0.00704418
0.00679274
0.000293934
0.000431277
0.00674738
0.0408425
0.00415131
0.0023886
0.0157844
0.0167232
0.00597694
0.00673538
0.0153296
0.00671905
0.00677426
0.00335256
0.00264823
0.0272919
0.0096159
0.0313219
0.000389344
0.0145897
0.00680597
0.00760685
0.00150042
0.00674423
0.00673876
0.00740036
0.000934866
0.00673628
0.000922324
0.0100992
0.000271756
0.0067557
0.0169974
0.000741144
0.00109957
0.000398744
0.00672486
0.00668837
0.000460918
0.00142091
0.0172394
0.0192694
0.00345512
0.00304943
0.0344554
0.00140902
0.00676806
0.000131961
0.000470227
0.00682941
0.00674604
0.0451927
0.00131317
0.00764896
0.00635576
0.000749216
0.00621473
0.00202516
0.00101189
0.0178158
0.0181453
0.00673665
0.0374465
0.000524524
0.00318408
0.00168847
0.00793713
0.00274879
0.00653363
0.000668933
0.00117292
0.000217723
0.0348314
0.000839112
0.000504147
0.000815131
0.00615713
0.00679839
0.00146043
0.00641679
0.00411777
4.53174e-05
0.00676519
0.030431
0.000734762
0.0177211
0.000212994
0.00673374
9.75797e-05
0.00546068
0.0066996
0.00143454
0.000260708
0.00304622
0.0101413
0.00199495
0.00669292
0.00120328
0.000697104
0.000453391
0.000593049
0.000547987
0.000190276
0.0284914
0.0454989
0.00674507
0.00656913
0.000820521
0.0153342
0.00172636
0.00663213
0.0164148
0.00680971
0.00677129
0.00674048
0.0294944
0.00705753
0.00673333
0.000514007
0.00676489
0.000848611
0.00548149
0.00326597
0.0375487
0.000864497
0.00677727
0.00833213
0.0435321
0.0493906
0.00437318
0.0198656
0.00678582
0.00672334
0.0170517
0.00676503
0.00531804
0.00764133
0.00390677
0.000239974
0.000989746
0.00674153
0.000771944
0.00112281
0.000998832
0.00460604
0.0163428
0.00675676
0.00716426
0.000759162
0.000208415
0.00198449
0.0162219
0.00271615
0.000236491
0.0189239
0.000688671
0.00672555
0.000652307
0.0216107
0.000390786
0.00112644
0.00674348
5.63733e-05
0.00335486
0.000490257
0.00135964
0.00268508
0.0257138
0.000662464
0.00784747
0.000430083
0.00673357
0.000485091
0.00673084
0.00377075
0.000860916
0.0304676
0.00126654
0.0189644
0.00185235
7.23383e-05
0.00059545
0.00158675
0.00616463
0.00633564
0.0108075
0.0010708
0.00681297
0.00073249
0.00061441
0.00207176
0.00737339
0.00277176
0.00351909
0.000719906
0.00679989
0.00668006
0.000319967
0.00163038
0.000706713
0.00686198
0.00691545
0.00776987
0.000953716
0.000737687
0.00103458
0.000394593
0.0065449
0.0246978
0.0312826
0.00053993
0.00057218
0.000261616
0.000538906
0.00849314
0.000352719
0.00139125
0.000237692
0.00676681
0.000989228
0.000924011
0.00779739
0.0151105
0.00122417
0.00149884
0.0024531
0.00226259
0.0106815
0.000530522
0.00121086
0.000129247
0.0108783
0.000834129
0.00136356
0.000964352
0.0248754
0.00871015
0.0078522
0.000482532
0.00676086
0.000599491
0.00015664
0.00673583
0.00035976
0.00726703
0.000564119
0.000291125
0.00212455
0.0067971
0.00464533
0.00810778
0.000465891
0.000449223
0.00248124
0.00782804
0.000382387
0.0216867
0.00171967
0.00211157
0.00672683
0.000897645
0.00148494
0.000517106
0.000973945
0.0103435
0.00124396
0.00677861
0.00543984
0.0272487
0.0052886
0.00582996
0.000798502
0.0067098
0.00105595
0.00674661
0.0010517
0.00706501
0.00545032
0.0120605
0.000778385
0.00136898
0.00286702
0.00723646
0.0298927
6.86109e-05
0.000529301
0.000617772
0.00674401
0.00676591
0.000435976
0.00115826
0.00685075
0.0109384
0.000617059
0.0216321
0.0112705
0.00132914
0.00599401
0.00451913
0.0112246
0.00673553
0.00684753
0.000459497
0.0067562
0.00337672
0.000797854
0.0066518
0.000601242
0.0010185
0.00017727
0.0208558
0.00102432
0.000906441
0.00121883
0.0067749
0.00377516
0.000805355
0.0132943
0.0262286
0.00100341
0.00681535
0.00627205
0.000866599
0.000730965
0.00127141
0.00079966
0.000546893
0.00561386
0.00110224
0.000290695
0.0139773
0.00726381
0.00105129
0.000366925
0.00601971
0.0162168
0.0386284
0.00108875
0.000185033
0.00694049
0.00575662
0.00092416
0.000345292
0.000458304
0.00644575
0.000898021
0.000707682
0.00112424
0.000674425
0.0010111
0.0183108
0.00100679
0.00690933
0.00976529
0.000176501
0.0217341
0.00671228
0.003587
0.000225926
0.00706927
0.00068439
0.000957575
0.00674584
0.051601
0.00014489
0.00838539
0.00776471
0.000438929
0.000780579
9.19745e-05
0.00681419
0.00672781
0.0189527
0.000978684
0.000768588
0.00428848
0.00674414
0.0011343
0.000779178
0.000981093
0.00309321
0.000594554
0.000845205
0.00104726
0.000133473
0.0299566
0.000765401
0.011146
0.00375901
0.00672709
0.0132616
0.00123588
0.00059813
0.000668248
0.000646108
0.00674697
0.00216157
0.0160455
0.000955944
0.000805643
0.000121832
0.000352781
0.000567984
0.00275972
0.00673964
0.000997271
0.00214291
0.00671121
0.00672252
0.00131148
0.00154363
0.00985118
0.000546338
0.00415851
0.000919309
0.00022749
0.0025368
0.00680022
0.00644435
0.00374132
0.00105305
0.00125315
0.00658887
0.000586892
0.000431684
0.0120908
0.0134812
0.0260307
0.00771119
0.000501627
0.000885192
0.00658785
0.000139383
0.00145091
0.0233098
0.000949294
0.00102298
0.000500316
0.000120362
0.00234278
0.000187923
0.00053819
0.00837522
0.000910671
0.00672463
0.00600274
0.00672353
0.00629622
0.00400852
0.000229836
0.0287589
0.00130265
0.000159067
0.00154195
0.00192841
0.00702186
0.00219038
0.000939055
0.00672634
0.00604188
0.00150518
0.00679541
0.000791113
0.00102168
0.0184541
0.00191947
0.00673805
0.00734528
0.00234935
0.00687375
0.00436575
0.000818693
0.00881539
0.00677024
0.0229319
0.00111765
0.000966314
0.000868052
0.000530352
0.00436881
0.00680364
0.000899708
0.00694167
0.00293583
0.000367358
0.000434726
0.00654029
0.000441799
0.00102531
0.0201553
0.00979164
0.000669984
0.00758693
0.000534206
0.00640495
0.00179925
0.0197917
0.00671772
0.0010313
0.0043828
0.000479957
0.000876741
0.00259313
0.0201637
0.00304064
0.00356389
0.0067664
0.0134721
0.000842998
0.0141307
0.0144325
0.000880264
0.0341583
0.00015906
0.000215702
0.000206793
0.000544166
0.000710166
0.00164352
0.00674578
0.000748397
0.000999084
0.0202107
0.0149828
0.000305218
0.0223138
0.0036406
0.000110178
0.00082135
0.000783051
0.0017473
0.000803389
0.00676462
0.00186091
0.0187588
0.00248923
0.0115194
0.0214768
0.00104158
0.000996293
0.00676977
0.00168767
0.000101238
0.0067488
0.000684977
0.00764854
0.00673387
0.000187298
0.00121269
0.0277453
0.00125636
0.00138932
0.00672954
0.00691522
0.00796548
0.000823733
0.00261609
0.00125341
0.00683703
0.0012611
0.00087477
0.00200352
0.000604791
0.0010924
0.0282613
0.00112637
0.00117902
0.00687913
0.00142925
0.00125322
0.00688572
0.00053163
0.000966633
7.89356e-05
0.00793396
0.000678782
0.0192555
0.00261827
0.00910501
0.00191714
0.000652919
0.0314659
0.00677155
0.0107744
0.000119436
0.0101514