/*--------------------------------*- C++ -*----------------------------------*\
| =========                 |                                                 |
| \\      /  F ield         | OpenFOAM: The Open Source CFD Toolbox           |
|  \\    /   O peration     | Version:  v2012                                 |
|   \\  /    A nd           | Website:  www.openfoam.com                      |
|    \\/     M anipulation  |                                                 |
\*---------------------------------------------------------------------------*/
FoamFile
{
    version     2.0;
    format      ascii;
    class       volScalarField;
    location    "600";
    object      ddt0(omega);
}
// * * * * * * * * * * * * * * * * * * * * * * * * * * * * * * * * * * * * * //

dimensions      [0 0 -2 0 0 0 0];


internalField   nonuniform List<scalar> 
14479
(
0.103572
-0.066155
-2.38771
1.89589e-05
0.00284785
1.76109e-05
1.40834e-05
-0.0108724
0.00603963
0.0267003
4.16822e-05
0.000980298
0.00190397
0.161304
0.0182104
-0.000615587
5.76101e-06
0.00538415
-2.04579e-05
-0.00382681
0.00384163
0.00225724
0.0952763
0.30151
2.42776e-05
-1.26798e-05
0.163469
-0.0312899
-3.20899e-05
0.24529
1.25749
0.198429
-0.0080446
-0.0061018
-0.362334
0.00118428
4.70812e-05
-8.03796e-05
-0.00894786
-0.000575946
-0.00064491
-1.9607e-05
-0.128132
-0.100661
6.94659e-05
-7.24903e-05
-2.95882e-06
-0.00705459
0.135329
-2.41785e-05
1.7941
-0.0283268
-1.48467e-05
0.438371
0.174005
0.00068959
-0.000376758
-5.7739e-05
0.0544749
-1.70687e-05
-3.69523e-05
-3.16802e-05
-0.458749
-7.8782e-06
2.63673e-05
-0.0478038
0.0176169
-0.727256
-1.29522e-05
-3.99866e-05
0.0679175
-3.0332e-06
0.854907
-0.00937541
8.50137e-06
-5.50538e-06
0.00154848
-0.578961
2.62555e-05
0.785443
-2.39781e-05
0.00192173
0.00300596
3.29864
1.10271
0.000122468
-0.000153835
2.17093e-05
-0.010063
-2.07705e-05
-0.00809744
1.67602
-2.44607
-6.1442e-06
-0.0159897
-1.70769e-06
2.85705e-05
0.000101006
-1.22934e-05
0.138598
0.142964
0.000732889
-1.4859
-0.146534
-0.725457
0.0419451
-0.0266125
-0.00649411
7.45104
0.0778694
0.252956
0.0179165
0.00465598
0.000724091
-0.0905905
-0.00248781
-5.74376e-06
-0.0138345
-4.85251e-05
-5.78399e-05
-5.31441e-06
-0.232014
-1.63158
-1.07486e-05
-0.0599987
0.00215728
-3.37318e-05
0.0950337
-0.00039022
-0.0333926
0.205745
-1.58039
1.47613
-0.0392396
-0.0354663
0.000624776
0.0159877
0.00462594
0.0938957
-0.622647
0.547815
-2.26751
-8.74123e-05
0.448214
-2.21191e-05
-0.0341931
-2.2333
0.000189838
0.282122
-0.00150561
0.191336
-1.36819e-06
0.0201172
5.12411e-05
-1.09573e-05
-5.37084e-05
-0.062722
-0.183828
0.103419
-0.00179632
0.000467404
0.000130737
-2.21782e-06
0.000502456
0.0545302
9.02655e-05
3.00077e-06
0.00132753
-0.0665814
0.0487344
-0.151682
-0.000230172
8.71301e-05
0.0016214
-2.50245e-06
0.00449481
0.00218682
5.4107e-06
-0.00290687
0.0181253
0.000652322
0.00015012
0.100099
-0.000950781
-0.174695
0.000154423
-2.63716
0.176831
-5.02619e-05
-0.971655
0.409832
-0.224696
-0.111846
4.29658e-05
9.99635e-05
0.000295438
-2.38535e-06
-0.00592552
0.000107235
-2.17387e-08
-0.00336718
-0.00049944
0.000867983
2.76105e-06
0.000549007
8.54528e-05
-0.132068
-0.000493215
-2.96318e-05
0.00110948
0.000117312
-4.246e-05
-0.000495465
-7.98162e-05
0.131593
-0.0216529
0.931763
-0.0141666
-0.0225891
0.105617
0.0130643
0.239787
0.000125821
-0.00563846
-2.57146
-2.68589e-06
-0.905524
-8.53067e-08
-0.0345248
0.000799893
-4.96582e-05
0.000667625
0.0567895
-0.000173281
8.15309e-05
-1.56384
-0.000616144
-0.028754
0.105164
-1.94413e-05
-0.000928531
-1.424e-06
-0.00802151
0.000442515
0.000570514
0.00105183
0.376462
0.0134048
-4.04728e-05
-1.38068e-05
-0.00879225
-0.012512
0.000837283
0.026797
0.0532491
-2.72927e-05
0.000133706
-2.78933e-05
-0.00414555
-4.91214e-06
1.25522e-06
-0.000645638
-6.98225e-06
4.73672e-06
4.32598e-06
0.000156522
0.000632733
-1.31234e-05
0.065128
-0.00299586
-0.0279145
-0.00052582
-0.117244
-0.00037064
0.0066101
-0.0274433
0.0014778
-3.32943e-05
0.00059542
-6.62701e-05
-0.00313908
-2.66196e-05
-6.08124e-05
6.74497e-05
-0.0429999
0.81304
-0.0237327
1.73308
-0.00180711
0.0666163
0.0308783
1.72752e-05
-0.00252005
-0.024271
-0.000199707
0.030344
-0.942201
-2.78102e-05
0.00535966
-0.034233
0.191282
1.4098
2.83008e-06
4.48209e-06
0.00270886
-0.0731044
0.00011278
0.104588
-2.34765e-05
-0.0194222
0.000388343
0.127026
6.30526e-05
0.000395909
-0.000556226
50.9042
-0.209764
0.000454567
-0.000452066
1.14417e-05
-0.360157
-0.0159108
-0.149855
-0.0630436
-4.26609e-05
-1.62038
0.0812734
-0.0645841
0.000208921
-0.000208809
0.0571454
-1.17214e-05
-0.00504961
0.00100817
-0.000148576
-7.08136e-05
-0.464052
-0.00033069
-0.000396543
-0.000103268
-4.31771e-05
0.00251317
-1.40011e-05
-8.22565e-05
-0.0316674
0.000587577
-0.000770197
-0.00191988
0.00401497
-0.0185593
-4.41024e-06
0.00410696
-0.118173
-2.29815
0.00109405
-0.815326
0.239459
-5.87471
-4.33441e-05
-1.48865
5.17687e-06
-0.00760688
34.7804
1.35895
-2.75453e-05
-1.89967e-05
-3.15081e-05
0.0015405
-0.0153796
-2.83406e-05
-0.000356611
-0.027874
0.000378886
-0.00515545
0.0121271
0.0816435
-2.82444e-05
-0.0136311
-0.000378869
-2.73665e-05
0.00305216
0.00653403
-3.24948e-06
-0.000531289
1.73502
-0.00994857
1.10959
-4.35656e-05
-0.0310102
0.000257448
-0.0146738
0.0021198
0.00016988
-0.0141011
-0.0351289
-0.00844079
-0.000108354
-0.0283355
-0.0041758
-0.0199079
-0.00964888
-0.0137802
0.00703505
0.368796
0.0012123
0.000278436
0.000732056
-0.00114843
0.669508
0.00190309
-0.0682501
-0.332213
-0.00103876
-0.00708109
-1.43829e-05
-0.0632098
-1.98898e-05
2.08096e-05
-1.62005
0.010502
-0.197906
-0.105335
0.703456
-0.056238
-2.48677
-3.05477e-05
0.000197442
0.000574886
-3.3508e-05
0.000102459
-2.45923e-05
-0.00329569
1.4576
0.21955
-0.235749
-0.00447498
-0.105835
0.231754
-0.00605449
-4.20831e-05
0.0386757
-3.01798e-05
-7.50344e-06
-0.263694
-3.9316e-07
3.85839e-06
0.000130202
-0.0394298
0.00108218
4.06302e-05
0.00020506
-1.61644e-05
-0.178916
0.000800266
-0.256177
0.00200593
-3.93304e-05
2.90899
-0.0579446
-6.79219
-0.0720932
-2.39265e-05
-5.79846e-05
0.00191754
-0.0139857
8.2458e-06
-0.000371562
1.00886
0.0137776
-3.70625e-05
1.08434e-06
0.0971541
-0.000820183
0.00064844
-0.177847
0.166333
0.00116933
-0.00394799
0.000505046
9.00631e-07
0.0489634
0.000895926
0.011612
-0.0208703
-0.00364787
-7.92301e-05
0.000103931
4.0575e-05
-0.00283541
0.40172
-5.33584e-06
1.60045e-05
0.00391597
-1.95747e-05
-0.00031068
0.000184781
6.32306e-06
0.0273908
0.000156434
-0.0712928
0.00310958
0.151076
-0.0629563
0.00162292
-1.22529
-0.00532284
-0.0208515
4.5305
-0.00473484
-0.000154943
-8.81788e-06
-0.000140224
0.00011734
-0.0151248
-3.01529e-05
-0.00099201
-0.275414
8.06458e-05
-0.379742
-0.0694596
-0.113184
0.00027814
-3.8346e-07
0.000569497
0.000169047
-0.00499762
-4.56169e-05
0.00104667
0.00493374
-0.000276263
-1.42362
0.761741
0.000593166
-6.25407e-06
-3.96817e-06
-0.000435373
0.000366715
-0.00192918
0.000758392
0.000616792
-0.00242448
-0.901086
0.00110687
-1.64064e-05
0.00808337
0.000595449
0.0348466
0.0227477
0.865772
0.00104208
-0.000634963
-0.0665897
0.00946779
-4.44718e-05
0.00249318
0.00328723
0.142909
0.00278223
-5.11696e-05
-1.67723
0.00112722
-3.27723e-05
5.5392e-05
0.263469
-0.0552653
-6.74808e-05
-0.000193029
-0.180298
0.00119873
-2.29063e-05
-0.134145
-3.01363e-05
-0.000114845
-0.000186641
0.00324504
-0.0746528
-3.82761
-4.38556e-05
-0.132299
0.104224
4.08565
-7.84384e-05
0.000850401
-1.09031
0.000135266
0.0410789
0.000360852
-0.00211376
-0.0438662
2.21533e-05
0.0111128
-0.000352815
0.259945
0.336875
0.00451853
-0.0233736
-0.000771642
2.88924e-05
0.00581613
-0.000863897
-4.38269e-05
0.00295219
0.000263063
-0.000727454
-4.43699e-05
-0.0310829
1.38671
-0.00360599
-0.00210562
0.0020551
0.000780183
1.21022
-0.5976
8.4295e-05
0.166807
0.0681228
6.59906e-05
-3.44097
-0.000331529
0.0212163
0.041668
0.105563
0.000372141
-0.108339
-3.72014e-05
-0.00153079
0.00149896
0.157729
0.000115625
-9.00866e-05
0.00121297
-7.04403e-05
0.275298
9.72689e-06
-7.82087e-06
-0.0321962
-2.43108e-05
0.0616782
0.0267624
-2.60623e-06
0.000137791
-3.01311e-05
0.515678
6.98595
-0.00558568
0.167806
-0.00466063
0.00473893
0.0118752
0.00164511
-1.83473e-05
1.71446e-05
0.00010496
-0.409464
-0.00105305
-0.000383314
-3.58533
0.000856527
-0.0292895
-5.82277e-05
-0.00853269
-0.105603
1.64163
-0.000402506
-0.00416166
-0.118648
0.0335276
2.18034e-05
0.000292259
4.78405e-06
0.0134963
0.000142679
7.07134e-05
-3.34507e-06
-1.28716e-06
-1.4384e-05
-0.0068384
0.00231025
-1.00822e-05
0.00539145
-5.40949e-05
4.52061e-05
-0.000382653
-0.103649
-7.18175
7.65812e-05
-0.616536
-4.64628e-05
0.147886
0.0320466
0.0946882
-0.0022878
-2.05899e-05
-0.000263992
0.00104945
3.01973
0.000367045
2.68182e-05
-7.48227e-05
8.2117e-05
-0.00306738
0.000628907
-0.00450432
-1.95219e-05
-1.53395e-05
0.00207243
0.00164045
1.01816
1.65648
-0.00229897
-0.0758362
-0.171852
-0.456371
-0.247147
5.684e-05
-0.0152033
-3.88017e-05
0.174744
0.000740873
2.32147e-06
-2.99542
-1.71611
-0.000181851
0.000163871
-7.63298
-0.095012
0.0160987
0.109356
-3.6867
-0.00231875
-2.0631e-06
-1.89687e-05
0.00113926
-6.55185
0.0131821
-3.82007e-06
-0.00763222
-8.76198e-05
-0.00107159
-0.139419
0.00118218
1.0924e-05
1.83989e-05
-0.0204354
1.0098e-05
-1.28307e-05
1.11497
-0.00123234
4.86541e-05
-0.187267
-0.0229292
-3.98445e-05
-0.026987
0.0112237
0.40576
0.00533145
0.845142
1.06995
-0.00171961
0.00499127
0.0559107
-0.0105502
-0.0444107
0.41571
-0.000138906
-0.175412
-0.000943407
0.000507806
3.88717
5.82309e-06
-0.00296222
-0.000897732
2.78562e-06
-0.000178514
5.1929e-06
0.0950087
0.0461443
0.0143916
8.02289e-06
4.10549
-0.000515852
-5.48813e-05
-0.00947793
7.04918e-06
-0.040677
0.000284383
0.00126357
-0.0045808
7.42377e-05
0.309257
-0.176744
0.00380545
-6.11496e-05
-0.025078
-0.161055
1.61953
0.044849
0.0142777
2.53391e-05
-0.087854
-4.29247e-05
0.000150305
0.000204004
-0.00721766
0.00120126
-0.00167691
0.0192884
0.00167318
0.000361565
0.000144753
0.021564
0.0207414
2.49565e-05
-0.00491372
3.17253e-05
0.00762134
0.0002524
-0.0032327
0.000154407
8.29444e-06
-0.238852
-5.094e-06
0.00559181
-0.965977
0.00187789
0.00923521
-0.000839819
5.02676e-07
0.327439
-0.00636144
0.000574888
7.34348e-06
0.00126253
0.26718
-2.0841
0.251399
0.0813266
0.000176723
-0.0102334
-0.0182304
0.000101635
0.00120731
-0.00103922
0.00219723
-0.148021
-4.2219e-06
-2.75017e-05
-0.0215092
9.45611e-05
4.73874e-05
-0.00257304
-1.66955
0.0510318
-0.162387
-1.79548
-0.217108
0.00756336
-0.000454561
0.0310555
0.000148108
-0.0215736
-0.0142835
-3.57047
-5.30271e-06
0.00608635
-4.06495e-05
7.33906e-06
0.0139189
-0.191745
-0.298939
-0.00211167
0.000373706
-7.18561e-05
-0.000699546
0.000125006
-2.42699e-05
-0.000621718
0.00186716
0.0360911
8.83367e-07
0.000159628
2.49243e-05
0.939574
0.00537079
-0.122156
0.000968089
0.158645
0.00383087
-3.28166e-06
0.0139137
0.105739
-0.0876966
-4.41183e-05
0.0372078
7.06121e-06
3.47088e-05
-5.83061e-06
-0.16204
8.29181e-05
4.31386e-05
0.000553412
2.73195e-05
-0.0968506
-0.00125514
-0.289401
-0.013003
0.0370133
-1.33853e-05
-0.00223877
-9.24707e-06
2.28268e-05
-0.000617775
0.00109885
0.122723
-0.050076
-0.0001411
0.0127914
0.00281551
0.000585665
0.00309105
0.0565582
-0.0025093
-0.000956418
-0.183293
-0.0755141
0.0783249
-0.0128099
2.76679e-05
-3.44936e-05
-0.00206288
-0.000602659
0.0342588
-0.00268506
7.02773e-05
-5.10329e-06
-0.0143188
-0.106341
0.00231668
0.15535
-3.05183e-05
-0.134593
2.57368
-0.248976
-0.139572
-0.0170573
-0.0872277
0.196211
-0.00118049
-2.24089
-6.894e-06
0.0144
-0.168973
0.000788275
0.000726561
1.61237e-06
0.00574629
-0.134079
-0.0191293
-0.0893986
5.05266e-06
-4.42993e-05
-0.0317437
-2.89828e-05
-3.791e-05
-0.000154956
0.00222934
0.000543035
-3.83927e-05
0.000337211
0.00267817
0.000986246
0.00108208
-0.622088
-1.55918e-06
0.00359513
0.0166384
8.04459e-05
-0.00141846
0.0247012
0.0466313
0.000196072
8.7616e-06
0.00597795
0.000510639
0.312511
-0.885085
0.00606589
-0.00116375
-0.054464
-1.78422e-05
7.70104e-05
-0.0329063
-0.0653265
0.000160467
-0.0106581
-9.06707e-06
-0.00263637
-0.000113763
0.471554
0.00234245
2.33098e-05
-0.111606
-0.00572428
0.109961
-0.281472
0.265937
-0.0634103
4.2234e-05
1.06608
-0.000391604
0.0620693
3.87619
-1.44573e-05
-1.99564
-1.80317e-05
0.000185016
-22.0818
-1.2485e-05
0.707613
0.000472916
-0.00115179
-0.0833763
-0.0831908
0.000415353
0.000508709
-0.00956795
0.000613141
-8.60978e-05
0.000253615
0.892554
3.83288e-06
-2.61788e-06
0.322963
-0.157529
0.00568717
-0.0827675
0.00221576
-0.206027
-1.03516e-05
-0.307367
7.21905e-06
-0.0035357
8.36071e-06
1.0551e-05
0.0123843
-0.00280475
0.00460049
0.000618675
-0.0528239
-0.0044286
3.27637e-06
-0.0137817
-0.0226395
9.14094e-06
-0.000561139
-1.03873e-05
-0.0925255
2.25572e-05
-7.85066e-05
-0.0051343
-0.000214049
-1.66777e-05
0.0366413
-0.00104967
0.0730716
-0.00176163
-4.40679e-05
-9.20355e-05
0.682508
-0.244289
0.00960819
-0.245739
0.002387
-0.0577756
0.0638322
0.00037584
0.000185287
1.96739e-05
-0.107814
0.0354667
0.00817068
-0.111395
-0.000224504
-0.885714
-6.97797e-05
-3.107e-05
-0.0814436
0.015329
-0.0648737
0.0392112
-0.0912158
0.0354906
-6.03085e-05
0.000428925
-0.121105
0.0392456
0.0587698
-0.0123765
-1.03286
0.0520199
2.67941e-05
-0.00167214
-0.0138843
-2.32557e-05
-0.000499227
0.000556724
-0.000484423
0.054442
-0.00043266
-0.000236975
-0.185679
-0.000294214
-7.63703e-05
-0.0944013
6.84407e-05
0.00189518
-0.000816866
-0.0435717
-0.0224296
-0.748181
5.47418e-05
-0.0272048
0.0181753
-0.0158148
0.0288114
-2.86478e-05
0.0304361
-2.68782
-0.00173322
5.54821e-06
-0.967703
0.0198184
-1.23374
-1.55305
0.00210338
0.00100108
-0.00735148
-0.00184353
-0.0294212
-0.000176537
0.0196952
0.00808533
-0.025269
6.57725e-05
0.91188
-0.000507413
0.000932021
0.000295265
4.46671e-06
0.000443926
9.56262e-06
-3.28917e-05
0.0014984
-0.0616605
-0.16094
0.0339798
-6.23627
-0.296431
0.000994041
-0.784778
0.00672621
4.90014e-06
6.96891e-05
0.0130399
-0.00739081
-0.00211453
-1.01454
0.0051972
0.335216
-0.00159992
-0.000175653
-0.25048
0.0162563
-0.0017968
0.149504
-0.000224838
0.0532071
-0.0141977
-6.2054e-06
-0.0357545
-1.61094
-6.0504e-05
0.00101635
6.31042e-05
-0.00027915
0.00185184
0.00025837
-0.114693
7.13342e-05
-1.81013e-05
-0.0119676
0.00137986
-0.00183368
0.000621401
-9.09582e-06
-0.000213208
-4.43433e-05
0.0831217
-0.00995419
-0.00661546
0.661943
1.20637
-0.0679637
0.00682798
13.4761
0.000607504
-6.47626e-05
-0.00606477
-0.00115923
-6.40939
2.22476e-05
0.0122274
0.00345144
-0.0380067
-0.000110217
-0.0220116
0.00135013
0.0120763
-3.18381e-05
-0.00361804
0.00068625
8.31278e-05
0.00109441
-0.0716299
7.46446e-05
0.0039553
0.000160347
-0.130172
0.0410918
-0.0945205
-0.05445
1.39222
-1.21776
-0.024875
-0.0905547
0.000289288
0.000113781
8.74923e-05
-6.64345e-07
-4.76475e-06
-0.00126302
0.256937
3.03549e-05
-3.30369e-05
-1.51144
1.8167
0.00361264
-0.00015602
0.0428773
-4.17329
0.132768
-0.0216325
-0.00941569
0.181879
0.0194534
0.00600866
0.000600059
-0.136134
0.000637111
-7.70599e-07
0.0214698
-3.43019e-06
-0.0055597
-1.06558e-06
0.0195356
-0.0409017
0.293085
-0.00607997
0.418858
0.00874828
0.0149612
-0.00295625
-0.865027
-0.00190521
3.93383e-05
0.0144561
0.418433
0.00137924
0.00972155
0.0738772
0.000725531
-1.77218e-05
-0.000385106
-0.032112
0.00438801
5.9968
-0.0526189
0.0279478
0.00176825
-0.00575568
0.000262364
-0.000216718
-0.888328
0.262197
-0.00360024
4.75883e-05
0.0025658
-0.0005773
0.0774679
-1.68565e-05
6.48723e-05
0.0689578
0.00171789
-0.431384
0.00416875
-0.959245
0.000234623
-4.58332e-05
-0.00108407
-0.0968881
0.138535
-1.57751e-05
-0.14056
0.0163241
0.000461148
-0.0464265
3.20533e-06
-0.0109359
-0.000161015
9.22477e-05
0.000380612
2.05072e-05
-0.0808169
-0.00127907
2.69824e-05
-0.000261518
0.913862
0.00041887
-0.00118962
4.74038e-05
-0.00172819
0.00307546
1.66792e-06
-5.71895e-05
1.23686
-0.00217875
-2.0487e-05
0.00214659
-5.62303e-05
-0.53683
2.44978e-05
0.000484341
0.492003
-0.00444297
-0.000755963
-0.997267
2.35072e-05
0.00407468
-0.00199663
0.00619588
5.5867e-05
-0.0205305
-0.0833861
0.0496547
-0.244205
8.18319e-05
0.000133447
0.00743284
0.00253122
-7.22983e-06
-3.21746e-05
-0.166
0.00666253
0.000115649
-0.0816164
0.00295002
-0.0154908
-7.08342e-06
-0.000239704
-0.000135033
-2.37656e-07
0.0912785
0.00243166
-0.27765
-0.000228356
-0.00957644
-8.86077e-06
0.000278571
7.31913e-05
0.000664654
0.0674622
0.142034
-2.65546e-05
-0.719228
0.141876
-1.32611e-05
-0.244475
6.79113e-05
-0.0314999
3.4653
0.000648401
0.300519
-0.00125079
0.056323
-0.0149144
-3.85001e-05
-3.47354e-05
-0.010101
-0.0228194
-6.68259
9.96728e-05
4.92374e-06
-0.0713472
-0.019905
-8.49491e-07
-8.35079e-05
0.0796369
-0.0122992
3.91443e-05
0.0692756
2.01562e-05
-4.02593e-05
2.79249e-06
2.76626e-05
0.00540722
0.090654
0.0353965
0.016716
0.0121179
1.62307e-06
-2.01968e-05
-6.87361e-06
-0.00078687
0.00974911
-0.0272384
-0.00191865
0.0010558
-0.101545
-4.58853
-0.00772003
0.000102851
0.00963472
0.0445708
-0.848471
-3.33216e-05
0.142392
-0.00437705
-2.20435
-0.0151963
0.000236585
0.000363689
-0.22226
0.000167512
0.10033
0.0984762
-0.00349341
2.93327
-0.061113
-1.27265
-0.0253914
0.105068
-0.000307212
-0.0165791
0.137177
0.742674
3.77634e-06
-0.171917
5.12623e-05
0.000499231
0.00258625
0.0010228
0.0261938
5.58857e-05
0.00286863
-0.0134418
-0.00071446
-0.0144123
-0.0286711
1.42113
0.219345
-0.374016
0.0628107
2.21229e-05
1.07004e-05
-0.0850013
2.72572e-05
2.52236e-05
-0.000161403
0.000294707
-0.00979135
0.004091
-5.21151e-05
0.000364031
0.00128952
0.108832
-0.929796
-0.00226579
0.00133644
-0.0154624
-0.00129717
-0.00785764
-1.84585e-05
-0.0308329
-0.00925011
0.00417132
-0.3515
-0.146223
0.000133746
-4.87829
0.00414868
-0.0202366
2.23736e-06
0.00106206
-0.032131
-0.00356335
0.0769517
0.00319641
0.132871
-1.82582
-0.000111332
-2.84103e-06
-0.0132315
-0.0778899
0.425424
-0.000683465
-0.0214571
0.0169081
-0.240315
0.000129676
1.78793
0.000146605
-0.0808853
-0.847002
0.00383655
2.32337
-0.0952912
0.142945
0.0986228
-0.000384832
-1.78096
0.169669
-0.027996
0.0852089
0.00388253
3.93585e-06
-6.00252e-05
-0.00421879
-0.00100209
0.000518746
0.00489972
-4.40337e-06
0.842438
-0.029214
-0.128544
0.014169
-0.0992721
-5.45866e-06
0.0478138
0.0136096
0.00286157
-0.006081
0.186363
-0.270137
-0.138897
-0.00313193
-1.64621e-07
0.114086
9.0285e-05
0.454206
0.000910239
2.54081
0.0407529
-0.000997834
-2.49517e-06
-0.101304
0.0244478
-0.0847979
0.000230419
-0.0344797
-0.0265565
0.000405009
-0.000432149
0.000668572
-1.38223e-05
0.00286684
-0.00450597
0.457766
-0.0592085
5.05716
-2.81928e-05
-0.473439
0.000336323
-0.0529705
-0.0412806
-0.0287895
0.189811
0.0129148
-0.000340085
0.0012336
7.60239e-05
-0.000333695
0.000411064
-6.90721
0.000229157
-2.60051e-06
0.000585778
7.40762e-06
0.00018474
-0.000935909
2.11322e-05
-0.0153799
-0.000374273
-0.781399
0.0229234
0.00124349
0.797999
0.154657
0.000613879
-0.367757
0.000355679
5.13833e-05
-3.24318e-05
0.00109656
-0.0189746
7.80699e-05
0.000499182
-0.0139275
0.0147543
-0.0294452
-2.31022
-0.0472655
-5.99149e-05
0.0173547
-1.30804e-05
-0.00264251
-1.92132
0.0399171
-3.81632e-05
0.161186
-2.06296e-05
0.000387116
-0.46473
1.29572e-05
-0.0117241
-0.086555
0.102914
-3.50509e-07
-0.0218264
0.00837457
0.00799355
-0.0283814
-0.0271042
-0.00451529
3.17607
-2.85869e-05
-0.330706
-0.000128826
0.0464076
-0.035163
-0.0155273
-0.0128735
-3.63633
0.00012385
0.00254815
0.000441138
0.00160267
-0.0227551
0.000285303
-0.0110245
0.0959437
-3.14577e-05
-3.3177e-06
-0.126508
0.0694432
-0.0513168
-0.539152
-2.27395e-06
0.00220974
0.000147387
0.758501
0.265654
0.00932507
-0.00753331
0.0561112
0.000929206
-0.13193
-1.1009e-05
-0.00071651
-2.86969
0.293106
-0.0706173
-3.31742e-05
0.000466893
3.20495e-06
-7.12106e-05
-0.257084
-0.726154
-0.000250181
0.000231709
-4.04085e-05
0.0082957
-0.00232693
-0.20233
0.0731459
0.0779804
-5.09518e-05
-0.0511689
1.58041
0.124848
-1.06451e-05
0.0259762
0.019959
-0.136198
0.089688
-0.0199308
-3.5853e-06
-7.66035e-05
0.000623873
0.00919738
0.00284517
-6.51044e-06
0.0161193
-2.35672e-05
0.0999231
-0.0191485
0.000956542
0.000701402
0.1052
-6.76117e-06
-0.00273049
-0.000557326
-6.95082e-05
0.0106508
-0.00143187
-2.89424e-06
-0.000679688
-0.022001
1.28528e-05
-0.110972
0.000238839
0.0522115
0.000339315
-2.04303e-05
-0.00291784
-5.17478e-05
0.000393416
-0.000733097
0.000716043
0.109422
1.92042e-05
0.000350066
-0.204637
0.054791
0.00013458
0.00182721
-0.00690475
0.00216667
-0.000403819
2.15758e-05
0.0337546
2.35175e-06
0.329695
0.100508
0.000985738
-0.360823
-0.0343959
-1.7785e-05
-0.00366392
-1.24124
0.265273
0.304015
0.000243641
-0.0203713
1.40672e-05
-0.000746442
-2.88987e-05
0.000713341
0.000505788
1.7085e-05
0.00824273
-0.00042845
1.20974e-05
0.0107854
6.97695e-05
-0.53678
-0.0101437
-3.85004e-05
0.00442518
0.0484158
0.0490198
6.80848e-05
-0.161911
0.0209724
0.000286877
0.000265243
-6.03311e-05
0.0106857
0.00638828
-0.00484117
0.0510968
4.94663e-05
-0.0023451
-0.000328263
0.0790388
-0.834878
-0.160188
-0.000864581
-0.00123926
0.00175742
0.280745
-0.00174102
0.000171358
-5.62529e-05
0.117575
0.0586212
-0.100058
-6.79074e-05
-2.24438e-05
-0.121109
-6.59668e-05
-0.214584
-0.00117239
0.450588
0.00033844
1.53797e-05
0.002238
-0.105389
-1.419
-4.65924e-06
-0.00227742
-0.26797
-4.54585e-07
-2.42572e-05
0.0165731
0.430089
-0.190897
-0.000718948
0.0019926
1.44159
-0.974519
-0.00693479
-6.06947e-05
-7.55987e-05
0.0150771
0.0121034
-5.5124e-06
1.10824e-05
0.000680189
-0.00368454
-0.47428
-7.85944e-05
-2.72536e-05
1.56539e-05
7.53723e-06
-2.53992
-0.00119617
0.0462412
-0.0121824
-0.0372215
-2.40779
-0.377349
-1.0987
0.000413894
-0.000294096
-0.0820016
0.000227407
-0.0488502
-0.344648
0.300739
-0.82914
2.64464e-05
0.000280054
-3.01078e-06
0.000491225
-0.00126204
-0.391988
0.0733981
0.058066
-1.87818e-05
-0.00485975
-0.00409319
3.08243
-1.85974e-05
-0.0009152
-0.115513
-0.388286
-0.449621
0.0604315
0.00811199
-0.347085
-1.20163e-05
-0.00131563
-1.26998
0.000556329
0.288965
-0.00450404
-0.082045
-0.011134
-7.3458e-05
-0.00158207
-8.07294e-06
1.41056e-05
-0.166186
-0.00339097
-0.216008
-2.86666e-05
-0.000377765
-4.46448e-05
-0.00133689
-0.607904
-1.32097e-05
-6.3164e-06
9.45085e-05
4.20456
-0.0154556
-0.0133733
0.0104943
0.169093
-0.605241
0.000678637
0.000300909
-1.34698
-4.15302
0.000254192
-0.000852487
-9.60502e-05
9.52192e-05
-0.0087107
-8.1392e-05
-8.7348e-05
-0.252291
-4.8093e-06
-4.35674e-05
9.01548e-06
1.4025
-0.0226085
-0.562252
-0.0013973
-1.93363e-07
1.68966e-05
-0.00168002
-0.000593553
0.0711611
-0.000173057
4.05418e-06
0.000491448
-4.07506e-05
9.54949e-05
5.68313
-0.250841
-1.26899
-1.44552
0.0485556
8.70819e-06
-0.136401
0.000378948
0.000381156
-6.62697e-05
-2.39602e-05
2.21878e-05
-0.205543
0.00109536
0.0187082
0.37805
-0.119213
-0.00111365
-0.0011318
0.000244202
-0.000979317
0.00161932
0.335342
7.90947e-07
-0.433507
0.00224376
-0.409179
-0.0584624
0.000240875
-0.407903
0.000104242
-0.000296099
-0.00098903
0.00345799
0.00249031
0.168457
0.0349722
-0.0250044
-1.49609e-05
0.000143708
0.658306
0.221559
-0.00176666
-0.0578837
0.000601911
-0.00643931
0.000363137
0.000204575
-0.000121914
-4.00936
-0.0127147
0.0806539
0.000451386
-0.00156691
0.0490744
0.0722612
0.0532951
0.0063051
-0.571881
1.29507
-0.000104933
0.0624969
0.000304043
-1.6017
0.000135589
-2.04716e-05
0.0765482
1.05911
5.10831e-05
-0.00029272
-0.00295808
-0.108797
0.811114
-0.0132007
-1.96951
2.10793e-05
3.42126e-05
-0.0440352
0.000807377
-0.000244068
-2.48254e-05
0.0314995
-0.0144366
1.71762e-05
0.000863678
-0.0133821
-0.119023
-0.0035562
-0.00504518
0.0614779
-0.37388
0.534538
-7.67363e-05
0.00188446
-0.0131305
5.12653e-07
-7.68029e-06
-6.96253e-06
-0.298991
-0.348693
-0.00807904
-0.000596151
0.00107256
0.0612766
-2.5837e-05
-0.00115286
-0.00654585
-1.23805e-05
-0.0660235
0.000232228
0.00366046
-1.58589e-05
-6.22947
0.0363757
-9.72661e-05
-0.385773
0.00156107
0.000287476
-0.00023737
-0.04017
4.98066e-05
0.0134676
0.323419
-3.67527e-05
0.000713422
0.492635
-0.000145625
2.0269e-05
-0.0674599
-1.98437e-05
-4.07948e-06
0.00778961
0.204076
-0.000451773
-0.122271
-0.0375171
0.000360426
-3.11746e-06
-0.322452
-2.21014e-05
1.94897e-05
0.000312813
-7.7938e-05
-0.00186877
-4.37766
0.023981
-0.000168417
-0.0468539
-0.000278831
-0.325273
0.0761366
-3.31653e-05
-2.26345e-06
-0.00377353
0.00385952
9.0115e-07
-16.1561
0.391704
-0.0207261
0.000111968
0.294
0.0541738
0.000286544
-2.96772
-5.42614e-05
5.07186e-06
0.0030026
-0.121048
1.33975
-1.87359
0.00153241
0.000343094
-0.0168854
0.000917381
-7.06419e-05
0.940968
7.28286e-05
1.94797e-05
-1.52042e-05
-0.0115719
-0.00111361
-0.170122
-0.925443
0.0731931
0.0014419
4.24534e-05
-0.0255204
0.196657
0.0532686
9.20725e-07
-0.0119034
0.10143
-0.247897
4.08371e-05
-0.0650934
8.22892e-06
2.21754e-05
-0.0604924
-0.141024
2.87977
0.0175094
0.00408785
0.0490882
-0.000479718
6.11358e-05
2.03758e-05
-0.652301
-0.000116227
-0.00425059
0.0123249
-0.000101915
0.141774
0.25537
-0.455609
0.00865358
-8.07551e-05
0.0653731
-0.220157
-4.44943e-05
0.0392938
-0.0307457
-0.0218143
-0.90038
-0.000659249
2.47031e-05
2.51962e-06
-0.00259385
-0.139172
-0.00536622
0.0409109
0.194885
-0.0112398
0.00605277
2.11919e-06
8.68828e-06
0.000840033
0.579126
-0.00103094
-1.35094e-05
-0.0800117
-1.60874e-05
1.81361e-05
5.15183e-06
0.298644
-0.24553
1.01033e-05
-0.00466699
-2.22129e-05
-2.01728
0.00024714
0.379323
0.0198524
0.0307503
-2.54269e-05
-4.12258
0.0223119
0.01263
4.51882e-05
-0.0149692
-2.03487e-05
-5.8118e-06
0.0594987
2.06228e-05
-0.174037
-0.0955386
-0.000116689
-0.0962572
0.000905837
5.03153e-07
-0.0026809
2.55257e-05
-0.00426567
-0.000112532
-0.808587
1.29128e-05
-0.00904347
0.00495267
0.127669
4.43375e-05
-0.546714
-0.192419
0.0163959
-0.119003
-0.00538208
-2.85939e-05
-0.0823939
-0.585485
0.00917407
0.0129372
-6.24279e-06
0.0938197
-6.9377e-05
0.0164189
-0.00294101
4.2137e-05
-0.31982
0.00161666
-2.40443
0.00375238
-8.60806e-06
0.00170238
-2.42921e-05
2.78563e-05
0.000329284
0.0131137
0.000353337
0.845253
0.0466293
0.577991
-0.000991084
0.000358355
-4.38053e-05
-0.900663
-0.187585
-0.0551213
-1.22949e-05
0.0319905
-0.0658773
0.000393813
0.0159029
3.59313e-05
-0.000113741
0.0010236
-4.93025e-05
3.32107e-06
0.00213355
0.0086375
0.000505012
-2.71156e-05
-0.000187818
-4.9962
-0.150811
0.00131927
-8.45931e-05
-0.0132035
0.000174391
0.0338746
0.136748
-0.0202668
0.0202949
-1.01966
0.176306
-5.49201
0.00710746
-0.00554839
-0.0105945
-3.83744e-06
-0.00119909
-0.0112068
0.0413267
-0.194152
-0.161061
-0.000407347
-5.70014e-06
4.95885e-05
-0.175378
0.0550166
0.381395
-0.000495922
-0.103555
-0.00144535
-7.58722
0.0016096
-0.063278
-2.36033
0.00145469
-0.00440703
3.67836e-06
-0.000408299
0.0221163
-4.62299e-05
-1.98848
0.000863627
0.00381948
0.00729415
-3.52934e-05
3.2969e-05
0.0740611
-0.156042
0.00660391
0.0868066
0.028283
0.0050932
0.0122834
-0.0110081
0.000263355
-0.162938
-5.27245e-05
0.0402533
-0.00495588
-0.00123463
0.00254522
-0.359858
-0.61294
1.70259e-05
-0.0824362
0.0106448
1.39377e-05
-4.25513e-05
0.00407792
-1.40556e-05
-0.00078874
4.2957e-05
0.119381
0.000803929
1.22543
-2.69178
0.00521399
0.0794445
-9.35096e-05
0.00136277
-1.94658
0.117518
0.00435163
-0.0353388
-1.32302e-05
-3.20532e-05
-0.000567446
-0.0138776
6.14377e-05
-0.0622869
0.0174232
0.0958888
0.0487441
-0.0644606
-8.06307e-05
-1.72579e-05
0.0608663
9.692e-07
6.80117e-05
-0.00551055
1.02642e-05
-0.272286
-0.00412243
-0.000382895
-0.00102033
0.000620016
-0.0140175
-0.285989
0.00171194
0.00583614
-0.0791452
-2.02614e-05
0.0979931
0.00081839
0.764284
0.0373959
-0.0191569
2.50879e-05
-4.25969e-05
-0.000630685
-0.00833714
0.205262
-0.00128665
-0.0818492
-4.21637e-05
0.000386831
0.0169179
-0.571767
0.000663842
-0.0497065
-0.0200727
6.47921e-06
0.0563571
-0.059295
0.000637768
-0.795161
-1.28495e-05
-0.190489
0.000152855
-28.616
-0.0181122
0.000533188
0.00288929
0.000269443
-0.00240587
-0.010092
-0.11829
0.12463
0.567221
-0.000138863
-1.87476
0.2903
-0.0736153
-1.69336e-06
0.000789656
0.194733
-0.000317859
0.0323797
-0.00840721
3.33623e-06
-0.134657
0.443696
-4.33551
0.00109443
0.00505236
-0.00858544
0.0973917
-1.16631e-05
-5.97869e-06
-0.223283
0.000951554
-0.00174009
-0.0269276
4.19044e-06
-0.0190174
-0.00193899
-0.00285937
0.000276892
-0.0798349
0.000905903
-0.00243717
0.405065
0.71957
-0.717961
-0.29476
-0.190887
-3.75556e-06
0.0192135
-3.58392
0.0671888
-0.170853
-0.121907
-4.32213e-06
-1.00251e-05
-1.78952
-0.000159758
-0.0767284
0.143864
0.197045
0.0397951
0.0101479
3.68879e-06
-0.00759823
-0.190378
-1.29894e-05
-4.04749e-05
-0.335166
-0.00849341
-0.357554
0.0508604
-0.108273
-0.579456
-0.0582558
-0.0236289
4.05943e-06
-5.05532e-06
-0.0502227
-0.58488
0.0878796
-2.10499e-05
-0.0130565
-1.90806
-0.212981
4.13871
0.139908
0.00168072
-0.0169728
-0.00109022
0.467491
-0.0128435
0.00220119
0.855112
0.000833737
-0.00245023
0.0974456
0.279543
-6.05679e-05
1.11433
0.000841707
-0.134028
-0.0121169
-0.325555
3.14857e-05
-4.15085e-05
-6.92775e-05
-0.117186
-0.00282955
-0.0497525
-0.17464
0.0166936
-1.53113e-05
0.00125787
-0.000376718
0.000105378
-0.00193298
-6.30587e-06
1.4849e-05
-0.00716085
-0.000225981
0.129346
-0.00305153
0.243631
0.000148865
-8.85795e-06
-0.0147809
0.019398
7.13196e-05
0.0246529
-0.00103077
4.22139
-2.22897e-05
0.0537828
-0.005467
0.00156574
-0.000777412
-0.0312726
-0.00731977
-2.80036e-05
0.00197365
1.00553e-05
0.00628461
-0.36124
-0.00195782
3.27693e-06
0.0017282
0.000415823
0.138065
-3.56628
0.0349963
0.00284179
0.0453856
-0.000241072
0.000109865
-0.0131781
-2.24748e-05
5.18503e-05
0.16774
-0.00578776
-0.00174229
0.00566179
0.278186
-3.64128e-05
-0.0149505
-1.47941e-05
0.625074
-0.00124554
-1.36681
0.0155304
-0.061207
0.164128
-0.0318901
0.0144984
0.538879
0.00030644
0.00576697
0.000113791
6.66179e-06
0.000748174
-0.0100456
0.268588
-0.00155223
-0.0769089
0.0381694
-0.198785
0.10865
-0.0160653
0.00210976
5.23403e-05
-0.00267992
-1.07112e-05
-7.12179e-05
-0.279064
-1.2424
-0.0233777
-0.22885
0.000514733
0.00331415
1.04383e-06
8.79228e-05
0.523921
-1.84627e-05
-0.0388881
-0.000551938
5.49114e-07
-0.0240876
-0.357434
-0.0233727
1.14083
-0.151528
-2.58958e-06
6.9851e-06
-0.0119614
-0.0113617
0.000188064
-0.302801
1.72482e-05
0.40738
-0.00239252
8.63068e-05