/*--------------------------------*- C++ -*----------------------------------*\
| =========                 |                                                 |
| \\      /  F ield         | OpenFOAM: The Open Source CFD Toolbox           |
|  \\    /   O peration     | Version:  v2012                                 |
|   \\  /    A nd           | Website:  www.openfoam.com                      |
|    \\/     M anipulation  |                                                 |
\*---------------------------------------------------------------------------*/
FoamFile
{
    version     2.0;
    format      ascii;
    class       volScalarField;
    location    "600";
    object      p;
}
// * * * * * * * * * * * * * * * * * * * * * * * * * * * * * * * * * * * * * //

dimensions      [0 2 -2 0 0 0 0];


internalField   nonuniform List<scalar> 
14479
(
-0.137358
-0.108682
-0.136818
0.0383736
0.0281567
0.0322408
0.0280469
-0.205943
-0.156177
-0.143445
0.0334514
-0.0144056
0.0650562
-0.0169891
-0.180334
0.0219957
0.0278292
-0.189573
0.0449276
0.0390298
-0.088026
0.0290172
0.00964204
-1.40001
0.0339929
0.0458599
-0.185833
-0.145903
0.0414308
-0.18338
-0.138005
-1.4229
0.0174041
0.017611
-0.087678
0.0551592
0.0333325
0.0258542
0.0120482
0.0075621
0.0222402
0.0351601
0.0216423
0.0204585
0.0329446
0.0325687
0.0466468
-0.0712353
0.0220723
0.0347045
-0.106057
-0.141239
0.0448114
-0.109526
0.0124411
-0.0243381
0.0568059
0.0335307
0.0222626
0.0337057
0.043567
0.0445743
-0.0784358
0.046067
0.0284521
-0.281596
-0.0591078
-0.168479
0.0446396
0.0410152
-0.0623883
0.047012
-0.101687
0.00490087
0.0448313
0.0463751
0.0392271
-0.0683348
0.0413978
-0.171079
0.0447601
-0.0158673
-0.11387
-0.163762
-0.331127
0.0413672
0.040485
0.028201
-0.195679
0.0358711
-0.15133
-0.137508
-1.17727
0.0462663
0.0144655
0.0473246
0.0415421
0.0287132
0.035594
-0.00757887
-0.0769928
0.0273732
-0.113111
-0.0890324
-0.152766
-0.278416
0.0464739
0.0174871
-0.129502
-0.00271961
0.0549539
-0.171545
0.0193172
-0.0302038
-0.170979
-0.0686314
0.0520464
-0.030129
0.0417429
0.0449338
0.0524118
-0.131346
-0.1166
0.035314
0.0206054
0.0190351
0.0365955
-0.071621
0.0154784
0.0277384
-0.00168373
-0.335148
-0.123703
-0.00747559
-0.0538371
-0.0234391
-0.17301
-0.0235724
-0.131465
-0.14576
-0.0122206
-1.07361
0.0247733
-0.0137728
0.0448503
-0.0512576
-1.10468
0.032107
0.00747033
0.0709102
-0.0351833
0.0436839
0.0272756
0.0168726
0.0460612
0.0245804
-0.0134142
-0.182027
-0.000682459
-0.027058
-0.00137215
0.016597
0.0437694
0.0324935
0.0239091
0.00130788
0.0436175
-0.106905
-0.129397
0.00495757
-0.432965
-0.0361477
0.0248161
0.065843
0.0333103
0.0380593
-0.0204768
0.0413976
0.0171406
-0.011293
-0.0666325
0.00281119
-0.0130522
0.0193323
0.0205714
0.00222403
-0.147769
-0.367069
0.0359321
-0.318179
-0.997986
0.0720551
-0.324796
-0.195367
0.0255861
-0.0361107
0.0310115
0.017128
-0.023012
0.0438375
0.072846
0.0396263
0.0399993
0.0436734
0.033797
0.003952
0.021089
0.0204259
0.0262615
0.0343716
-0.0209439
0.0422551
0.0314957
0.0318021
-0.249243
-0.0456378
-0.0686504
0.0272956
-0.0373231
0.0235176
-0.138815
-0.0710814
0.0282655
0.0193543
-0.294007
0.04459
-0.151578
0.0435547
-0.101446
0.0154339
0.044384
0.0155238
-0.00100962
0.0312911
0.0285393
-0.966772
0.0438589
-0.166273
-0.381561
0.0447678
0.0393982
0.0439736
-0.161056
0.0399324
0.00150439
-0.0349768
-0.0896315
-0.146797
0.0446222
0.0453519
0.00855315
0.0169469
0.0195911
-0.142445
-0.00226693
0.0360883
0.0300004
0.0262287
0.040624
0.046704
0.0433535
0.0395359
0.0464661
0.040576
0.0399855
0.0135999
0.0333298
0.0455196
-0.0947571
-0.059805
-0.101493
0.00350521
-0.180238
-0.0336856
-0.0962056
-0.0911977
-0.164823
0.0258273
-0.0270758
0.041493
-0.00704264
0.0445655
0.0370021
0.0268063
-0.24431
-0.311548
-0.100884
-0.157757
-0.0352093
-0.131195
-0.160657
0.0445786
0.0401599
0.0189098
0.0440158
-0.100403
-1.31188
0.0363644
-0.0230387
-0.0914993
-1.01369
-0.160845
0.0397881
0.0443336
-0.0535743
-0.0236711
0.0163152
-0.0973944
0.0265684
-0.167877
0.00856476
-0.106808
0.0212303
0.0324049
-0.0553157
-0.253604
0.0689222
0.0052937
-0.0533348
0.0280893
-0.992504
-0.16859
-0.0613187
0.0330147
0.0433105
-0.883335
-0.154908
-0.106026
0.0655311
0.0426114
0.0116172
0.0312014
0.0411385
-0.0606317
0.0366068
0.0377071
-0.219815
0.015066
0.0444962
0.0451315
0.0428622
0.0298257
0.0266014
-0.0519138
-0.0685038
-0.0245746
-0.0156161
-0.0494556
-0.113172
0.0277568
0.0476048
0.0198755
-0.0988269
-1.09286
0.0521708
-0.031698
-0.257782
-0.322344
0.0432895
-0.334415
0.0265401
0.0676323
-0.250291
-0.116773
0.022163
0.0263482
0.0168499
0.0292774
-0.0725972
0.0170553
0.0381048
0.0157048
0.0270988
-0.0121936
-0.117074
-0.298333
0.0443947
-0.204803
-0.0201439
0.0379314
-0.056064
-0.100276
0.0478507
0.0391482
-0.16047
0.0171362
-0.565412
0.0423368
0.0275193
0.0346079
-0.194429
0.022474
0.0193698
-0.0136828
-0.0675939
0.0270852
0.03933
-0.0167682
0.0779349
-0.236295
-0.0964616
-0.153728
-0.0269266
0.00653706
0.0280543
0.0451536
0.0652939
-0.0551736
-0.103932
-0.0799676
-0.0885983
-0.404116
0.0153498
0.0750746
0.0431381
-0.0783578
0.0403716
0.0317249
-0.337309
-0.0396946
0.0204113
-0.245586
-0.541403
-0.0752387
-1.18307
0.0370193
0.0180439
0.0138582
0.016632
0.0327959
0.0418452
-0.0354492
-0.063949
-0.0358254
-0.167501
-0.0555629
-0.219171
0.00902954
-0.069457
0.0431047
-0.103665
0.025918
0.0316239
-0.12167
0.0443518
0.0408186
0.0263762
-0.0177877
0.0516977
0.0414275
0.0326217
0.0443437
0.039195
-0.0115171
0.0389492
-0.0948344
0.0434078
-0.11669
0.0591551
-0.120448
-0.284698
0.0407998
0.040112
-0.0145197
-0.176358
0.0413518
-0.0318047
-0.154987
-0.0918084
0.0436509
0.0433133
-0.108128
0.0201757
0.0187334
-0.32307
-0.220673
-0.104076
-0.0798534
-0.0813379
0.0423067
-0.226183
0.057156
0.0276696
-0.163505
-0.0340506
0.0116814
0.00214024
0.0404922
-0.0482796
0.000100161
0.0269085
0.0278631
-0.261789
0.0427815
0.0125037
0.0411454
0.0358807
-0.187511
0.000953924
-0.241947
0.0420362
0.00219957
-0.343812
0.0245256
-1.00338
-0.139147
-0.320211
-0.405835
0.042442
0.01855
0.041464
0.0458309
0.0257464
-0.168122
0.0365126
-0.0152908
-0.184317
0.0198596
-0.0680302
-0.130388
-0.2681
0.0339318
0.0434771
0.0296995
0.0408507
-0.152587
0.0419353
-0.0256087
0.00897227
0.0121181
-0.851984
-0.150806
0.0144656
0.0269531
0.0484924
0.0233946
0.0372318
0.0404037
-0.0917086
-0.0174583
-0.0379012
-0.143621
0.0175684
0.0450507
-0.0229972
-0.0218989
0.0278866
-0.032712
-0.120756
0.0342825
0.0507289
-0.347107
-0.156342
0.041508
0.0188913
0.0220311
-0.0512199
-0.0627124
0.0421623
-1.25347
0.0081672
0.0374099
0.0387071
-1.07612
-0.177705
0.0415817
0.0245382
0.0195838
-0.0558434
0.00100555
0.0192489
0.0344338
0.0460944
0.0162111
-0.0199103
-0.133518
-0.30447
0.0309289
-0.377043
-0.140695
-0.69309
0.0329159
0.0159525
-0.437527
0.0409633
0.00430624
0.0054555
0.0540108
0.0329133
0.0193536
-0.0488887
0.0215847
-1.421
0.0661576
0.0361355
-0.0205382
-0.0259601
0.0283939
-0.0149051
0.035024
0.044131
-0.0231975
0.0249751
0.0446977
0.0187308
-0.104758
-0.147553
-0.0927339
0.0411742
0.029092
0.0446871
-0.2104
-0.323436
0.0517854
-0.151297
-0.16215
0.0407197
-0.169964
0.0218699
0.0254297
0.0274956
-0.113315
-0.00948619
0.0623564
0.0425175
-0.12144
0.00576264
0.0705929
0.0167318
-0.00452648
0.0400738
0.033127
-0.165295
0.0432936
0.0267309
-0.0427813
0.0408104
-0.077027
-0.0250928
0.0461648
-0.00303097
0.0424787
-0.351688
-0.487767
-0.101253
-0.085323
0.0583165
0.0351493
-0.105069
-0.0115284
0.0447232
0.0403408
0.0437471
-1.4362
0.0538122
0.0394447
-0.262663
-0.0091302
-0.0430996
0.0446079
-0.0121488
-0.0461292
-0.165828
0.0352635
-0.0617898
-0.18448
-0.0765542
0.0168128
-0.0203869
0.0412591
0.0386337
0.038275
0.0182526
0.0272644
0.039294
0.0274214
-0.0578196
-0.0437157
0.0234413
-0.0267921
0.0354727
0.0453107
-0.0176082
-0.268415
-0.320448
0.0182928
-0.177899
0.0269589
-0.0476746
0.0281345
0.040803
-0.169708
0.0288037
0.0463438
-0.0211645
-0.51152
0.0166162
0.0406484
0.0357683
0.0249846
0.0387654
0.0228543
-0.0183038
0.0234279
0.0274155
-0.0605789
0.0312075
-0.749171
-0.140601
0.000810689
-0.0519355
0.0263453
-1.12113
0.0276647
0.0288542
0.0194364
0.027321
0.0161822
0.0524882
0.0397086
-0.222267
-0.161677
0.0443502
0.00327359
-0.319834
-0.0187623
-0.173852
-0.129527
-0.229011
0.0522485
0.0273194
0.0443825
-0.0862769
-0.161222
-0.136061
0.039084
-0.000575417
0.00510401
0.0562337
0.0243915
-0.068311
0.0429264
0.0375372
-0.101211
0.0430255
0.0427852
-0.09376
-0.0399878
0.025353
-0.487717
-0.023332
0.0359155
-0.184636
-0.134833
-0.359667
0.00191644
-0.204056
-0.0837181
-0.113055
-0.0335489
-0.00888116
0.017204
-0.375851
-1.26147
0.00231216
-0.0265708
-0.175794
0.0284824
-0.141446
0.0378666
-0.0179803
0.0437737
0.039694
0.0352465
0.0408531
-0.135918
0.027253
-0.0804247
0.0439204
-0.568126
0.0513941
0.043827
-0.111713
0.0432876
-0.027249
-0.075991
0.0549885
0.0178229
0.0320225
-0.000355251
-0.255574
-0.0157663
0.0391533
0.0658599
-0.428115
-0.44514
-0.215317
-0.156466
0.0336275
-0.00627245
0.029898
-0.0177167
0.0155863
-0.057488
-0.00741281
0.0096047
0.0142164
-0.122885
0.011848
0.0321856
0.0643628
-0.156289
0.045434
0.0161928
0.0167313
0.00470666
0.0446441
0.0190912
0.0234198
0.0382431
0.0211478
0.0467722
-0.171581
-0.272221
0.0306543
-0.407851
-0.0516056
0.0467689
-0.0522547
-0.136033
-0.0653404
0.0463961
0.0310958
-1.02561
-1.05145
-0.163126
-0.147204
0.0325792
-0.945832
-0.131831
0.0274299
-0.0100934
-0.0434728
-0.0712253
-0.199654
0.0482829
0.0382028
0.00681226
0.0288181
0.0245391
0.0164719
-0.34688
0.0567034
-0.183924
-0.110959
-0.488268
0.00666981
0.034931
-0.159418
0.028861
0.00407137
-0.130234
-0.328454
0.0473207
0.014922
0.0443696
0.0105902
0.00814155
-0.0730129
0.00111602
0.0273699
0.0181206
-0.0395873
0.0368439
0.0625175
0.00122191
0.0164342
-0.0141515
0.0277954
0.0379946
0.0188139
0.0356717
-0.779597
0.0172341
-0.390428
0.0393222
-0.404915
-0.0497791
0.0482226
-0.161935
-0.107462
-0.0738542
0.0426706
-0.904159
0.0431965
-0.0784706
0.0372178
-0.0595949
0.018917
0.0281978
0.0402613
0.0165703
0.0406232
0.0328873
-0.338266
-0.0248821
-0.0281338
0.0344773
0.0147353
0.0448832
0.0312942
0.0226045
0.0304208
-0.0105071
0.0534857
0.0394436
-0.0500609
0.0286328
0.0251859
-0.14428
-0.613442
0.0150129
0.00937155
-0.177574
0.0419454
-0.157355
0.019697
0.0310822
0.0437204
-0.260508
0.0397124
-0.080122
-0.376479
0.032175
0.0465237
0.0137033
-0.266199
0.0436206
-0.420137
0.0136529
0.0340612
-0.526984
-0.25143
0.0457172
0.00242361
-0.286951
-0.236818
0.019217
-1.13106
0.0470688
0.0293125
0.037214
-0.000241878
0.0270269
0.0276349
0.0575643
-0.0214519
0.0659825
-0.0701541
0.0276961
0.0446177
0.0689117
0.0435612
0.043603
0.00193116
-0.058185
0.00310988
0.0328004
0.028221
0.0289544
0.042322
0.0294109
-0.188699
0.0443011
-0.0888057
-0.0111412
0.0186768
-0.0824243
-0.0118053
-0.379178
0.0399803
0.0447308
0.0263128
0.0273007
-0.171112
-0.848238
0.00537985
0.0401632
-0.300219
-0.0226871
-0.0881728
-0.153528
-0.406633
0.0261832
-0.141214
0.0450815
-0.0408243
0.0365845
-0.16665
0.0183166
0.0255937
-0.404876
0.0416412
-0.911067
-0.143426
-0.377019
-0.135326
0.0458428
-0.579993
0.0377138
-0.6145
-0.140995
0.0411667
-0.173987
0.0448747
-0.0793366
-0.248338
0.0377479
-0.284351
-0.00115818
0.0397591
-0.0299237
-0.0163536
0.00185868
-0.0538934
-0.0368283
0.00224036
0.0396783
0.0357125
-0.884861
0.0444488
0.0447214
0.0126376
-0.361377
0.0151277
-0.200701
-0.0348736
0.0265643
0.0379243
-0.242695
0.0279988
-0.0410092
0.0548007
0.0403372
0.0412379
0.0410545
0.0278124
0.0294954
-0.226152
-0.0518122
0.0514472
-0.108972
0.0143949
0.0448071
0.0400793
0.0378008
-0.270145
0.0401178
0.0101967
0.0159105
0.0391895
0.0431239
-0.0746236
0.0164774
-0.338425
0.0416284
0.0426651
0.043593
-0.612023
-1.07851
-0.187708
-0.164175
-0.0732549
-0.0679534
-0.146582
-0.0221617
0.0284986
0.0409702
-0.0232412
-0.223368
-0.262161
-0.260519
0.0404166
-0.581798
0.0273032
0.0435561
-0.19543
-0.16124
-0.392148
-0.227285
-0.235781
0.018646
0.0270327
0.0176956
0.0129528
0.0216697
-0.093207
-0.0180938
-0.141461
-0.0177461
0.0398861
0.0388461
-0.0922004
0.0474547
-0.0349486
0.0396419
0.0752661
-0.079368
-0.0577998
-0.086587
-0.405883
0.0373417
0.0391402
0.0127423
0.0300139
-0.0147447
0.0554442
-0.319658
-0.0229221
0.0873278
0.034721
-0.00846024
-0.296842
-0.139362
-0.181838
0.0312131
-0.114568
-1.18593
-0.087441
0.0403676
-0.540406
-0.0122724
-0.91383
-0.176175
-0.106149
0.0396073
0.00624112
0.0276949
-0.178239
0.0461357
-0.223069
0.0417492
-0.000610783
0.0302545
-0.80881
0.0393154
-0.0178231
0.0530229
0.0399295
-0.0535199
0.0392969
0.0310629
-0.0850327
-0.305493
-0.128351
0.0405308
-0.342046
0.0835063
0.0266912
0.0875505
-0.0135654
0.0434068
-0.0275098
0.00469611
-0.0727275
0.0405286
-0.177807
-0.0585939
-0.0945776
-0.0373422
0.00189417
-0.165424
-0.218265
0.037191
-0.357124
0.044106
-0.256273
0.00772058
0.0447888
-0.0452839
-1.01855
0.0451761
0.0552822
0.0120531
0.0433308
0.0310131
0.0473002
0.01901
0.0397292
0.0434471
-0.178782
0.0592732
-0.287889
0.0130807
0.0519099
0.0612783
0.0448452
-0.155443
0.00558648
0.0808726
-0.17162
-0.114521
-0.135329
0.00657906
-0.238628
-0.0475042
0.0447252
-0.0733975
-0.0560196
-0.134107
-0.0157593
-0.164052
-0.0513778
0.0104733
0.0415862
-0.080283
0.040494
-0.19115
0.0390032
0.0270712
0.042787
0.035097
0.0396065
-0.243381
0.0251527
-0.0683553
0.0197802
-0.239433
0.057394
-0.339255
-0.00309763
-0.130891
-0.271231
0.0833542
-0.0169696
0.00609821
0.0218408
0.0199554
0.028216
0.0476205
-0.0860284
-0.0231902
-0.0854714
0.0372242
-0.903628
-0.141197
-0.0796015
-0.0159482
-0.217591
-0.331778
-0.345716
-0.190145
-0.0874805
-0.0497837
-0.10545
0.0391021
0.0436681
0.0272794
-0.015358
0.0436198
0.0173505
0.0478893
-0.0313488
0.0448907
-0.0107769
-0.0327589
0.0437618
-0.105061
-0.0672144
-0.0372072
0.0384134
0.0506881
-0.359033
-0.0889971
0.0404615
-0.0150593
0.00868502
0.0586918
-0.00238836
-0.0349309
0.0142815
0.0468618
0.0454708
-0.0550414
-0.146318
-0.613062
0.0116503
-0.326481
-0.0103644
-0.0449656
0.0254154
0.0374266
-0.950912
-0.0863862
-0.0257175
0.039732
-0.0676962
0.0398298
0.0850024
0.0455007
-0.0243772
-0.198725
0.0581411
-0.0881088
-0.0160898
-0.445317
-0.00217176
0.0429889
0.0511757
-0.181225
-0.0327779
0.0408077
-0.0811878
0.0147592
0.00124301
-0.184493
0.0398344
0.0197044
0.0439791
0.0358439
0.0181302
0.0316252
-0.124554
0.0300473
0.0330335
-0.032047
-0.130562
0.0175856
-0.0120885
0.038864
0.0556004
-0.0605866
0.0434835
0.0294476
-0.186825
-0.0746361
0.0445171
-0.0249163
0.0304521
0.0051252
0.0311768
-0.0308
-0.134953
-0.0367158
0.0397135
-1.08664
0.0412069
0.0274263
0.0180346
0.00102477
-0.0183072
0.0405961
0.00283232
0.0159817
-0.392329
0.0208616
0.0105583
-0.0381599
0.0586985
0.0446199
0.0432751
0.0801383
-0.0264041
0.0417134
-0.178063
0.0243785
0.00666173
0.0486669
0.0396611
0.0475833
0.0503381
-0.295961
-0.0676706
0.0279743
0.00611724
0.0388389
0.0417209
0.0322442
0.0404603
0.0223325
-0.0980053
-0.103846
0.038229
-0.00948419
0.0161746
0.0460151
-0.0813083
0.0244681
-0.0203658
-0.526265
0.0256313
-0.104926
0.017034
-0.207281
-0.0337066
0.0263268
0.0434661
-0.0974939
-0.057051
-0.294047
0.00901704
0.0401165
-0.313549
-0.0605218
0.0454847
0.0489656
0.0151818
-0.0453615
0.0396938
-0.189058
0.0408453
0.0276804
0.0425625
0.0417316
0.0125819
0.0144549
-0.163972
-0.191299
-0.156621
0.0433127
0.0442036
0.0455071
0.0392714
-0.094899
-0.018477
0.0331175
0.027024
-0.0935582
-0.35447
-0.117599
0.0239347
-0.0218505
-0.10989
-0.0484511
0.0449309
-0.159153
-0.000635048
-1.02656
-0.0657823
0.0739162
0.0398529
-0.41105
0.0167705
-0.186267
0.0525316
-0.104822
-0.18141
-0.0955259
-0.1419
-0.115437
-0.324459
0.0536045
-0.0490252
-0.0268036
-0.92875
0.0434963
-0.421631
0.0389425
-0.0352302
0.0337595
0.0436552
-0.231731
0.00131162
-0.0589568
-0.028283
-0.142424
-0.119267
-0.259792
-0.15382
-0.162939
-0.0655592
-0.0269012
0.0282852
0.0425445
-0.202424
0.0405534
0.0279676
0.0483924
0.0188183
0.020474
-0.0610483
0.0440925
0.0151901
-0.118007
-0.0178886
-0.43447
0.0558789
-0.189031
0.0408657
-0.0911501
-0.176958
0.0445048
-0.032366
-0.0485325
-0.0615875
-0.376617
-0.115261
0.040497
-0.331158
-0.0964201
-0.201758
0.0381594
0.0177996
-0.0655527
-0.0810935
-0.0488795
-0.0233891
0.0196184
-0.889206
0.0476008
0.0440079
-0.186287
-0.0220647
-0.201362
0.0374934
-0.290981
-0.267856
-0.485663
-0.0224104
-0.165778
0.0318332
-0.331437
-0.0275227
0.0344824
-0.31863
-0.00119933
-0.104084
-0.0459356
0.0393492
0.0634532
-0.0718286
-0.0586003
-0.136275
0.0283241
0.0457146
0.0437224
0.0371635
0.0424306
0.0191687
-0.0713322
0.0441748
-0.189278
0.0865532
-0.0956852
0.00211253
0.0198407
0.045167
-0.0554348
-0.148669
-0.0389955
-0.187634
-0.160556
-0.242109
-0.405089
0.0227476
-0.031873
-0.0532298
0.0409656
-1.01026
0.0350756
-0.405077
-0.290384
-0.134382
0.0473936
0.0107853
0.0314354
-0.0513922
0.0425674
-0.029468
-0.066249
-0.0657536
-0.0896884
0.0415605
0.0405197
0.015735
-0.17456
-0.23472
-0.0228135
-0.159777
0.044087
-0.080256
0.019412
-0.0763308
-0.019308
-0.215008
-0.944594
0.0363342
0.0128737
-0.0355709
0.0407752
0.0394758
0.0359074
-0.344547
-0.0378006
0.0483436
-0.012663
0.0458699
0.0214693
0.0145055
0.0314961
-0.170072
0.053678
-1.35968
-0.0498743
-0.073457
-0.0826435
-0.00985411
-0.0582511
-0.43038
-0.0240398
0.0360167
0.0369909
0.0283213
-0.0412304
0.0641585
0.0483654
-0.174019
-0.222746
-0.250549
-1.09039
-0.149857
0.0242055
-0.163313
0.0488666
-0.0779959
-0.99522
-0.341551
0.0440479
-0.0052763
0.0393543
0.016627
-1.425
0.0398895
0.0178509
-0.00122215
-0.105686
0.0445029
-0.231578
-0.0713112
0.0101941
-0.131844
-0.157076
-0.0743608
-0.737727
0.0438543
-0.434077
0.0447578
-0.353252
-0.0314331
-0.143093
-0.186707
-0.133232
0.0114859
0.044281
0.00976289
-0.208583
-0.127261
0.0340129
-0.00566799
-0.109398
0.0367621
0.0440892
-1.47933
-0.179229
-0.312368
-0.0845056
0.0441489
-0.0533492
0.0283861
-0.58179
-1.36749
-0.0472459
-0.108868
0.0207721
-0.0245667
-0.129129
0.0463928
0.0414845
-0.351552
-0.360119
-0.0439844
0.0437018
0.0242668
0.0427728
0.0388152
-0.236134
-0.171721
0.0290122
0.0274158
0.0436685
0.0270619
0.0226036
0.0650855
-0.0183124
-0.200076
0.0464963
-0.117094
-0.137921
-0.111459
0.0413812
0.0127014
-0.0962689
-0.0832013
-0.0769215
0.0116342
0.0441069
0.0274726
-0.0247559
-0.0571039
0.0393067
0.0453648
-0.118621
0.0438774
0.0494215
-0.0419196
0.0337384
-0.020158
-0.0413816
0.0443536
-0.0505817
0.0461207
0.0427578
0.0162943
-0.0220783
0.0249807
-0.0603844
-0.127438
0.0422839
0.0458911
0.0191433
0.015888
0.0415074
0.0418461
0.0522218
0.031468
-0.0132965
0.0538368
0.0283021
-0.524737
0.0403419
0.0373781
-0.113526
0.0194337
-0.00327657
0.0410632
0.0157129
0.0573476
-0.131289
0.0414255
-0.116357
0.00204068
-0.194703
-0.0436324
0.0279903
-0.0820311
-0.0579839
0.040167
-0.0418277
-0.0265108
-0.0221607
-0.427508
0.029769
-0.163984
0.0404292
0.0199553
0.0449537
0.0527743
0.0139964
0.0385492
-0.0794703
-0.426988
0.0451914
-0.123726
0.0286117
-0.204937
0.00607344
0.0365219
-0.241348
-0.0156982
-0.108997
0.0332892
0.00845772
-0.187344
0.00282516
-0.023404
0.04802
-0.128119
-0.00878091
-0.0907077
-0.167402
0.0315608
-0.127913
0.0443995
-0.788901
-0.370308
-1.46962
0.06663
-0.0327185
-0.0450805
-1.2728
-0.0524423
0.012084
0.0379255
-0.0731894
0.0854683
-0.094879
0.0381923
0.0442007
-0.0885807
0.0385908
0.0203381
-0.0226266
-0.347333
-0.0107924
0.0284511
-0.0528055
0.0587236
0.0614033
0.0447262
-0.0938794
-0.191865
0.0401409
0.0437601
-0.0777769
-0.508897
-0.0895314
0.0613261
0.0346264
-0.135567
-0.0753762
0.0268487
-0.030137
-0.0156746
-0.145245
-0.0685119
0.0443495
0.0282876
0.0274389
-0.0453643
-0.277015
0.0397452
-0.0250441
0.0320899
0.0377858
-1.18815
0.0301981
-0.0839571
-0.201376
-0.0334615
-1.10359
0.00915212
-0.752766
0.0338591
0.0395292
-0.00486718
0.0403736
-0.0664859
-0.460122
-1.21241
-0.0207712
0.0212374
0.00744628
0.048224
0.00116206
-0.03427
0.0207559
0.0156139
-0.0782028
0.0415503
-0.026358
-0.0798026
-0.137419
0.0450425
-0.0346424
0.0280069
-0.392203
-0.19467
-0.0579914
-0.23102
0.0331093
0.0464755
-0.0685511
-0.475909
0.0505229
-0.481056
-0.0586138
0.0529561
-0.158282
0.0436526
-0.126081
0.0223923
0.0111065
-0.400455
0.0395969
-0.389081
0.0255902
0.0354577
0.0321159
0.0224009
-0.298754
0.0391712
0.0450474
0.0340368
-0.364737
0.0164995
0.0188451
-0.118759
-0.273894
-0.246849
-0.0134251
0.0408445
-0.11008
-0.359151
0.0397478
-0.0218616
0.0223736
0.0324558
-0.106838
0.0443928
0.0119863
-0.375725
0.0464918
0.0417601
0.041747
-0.142719
-0.244713
-0.45801
0.0397216
0.0393765
0.0405023
-0.0300042
0.0397519
0.0150423
0.0493935
0.0398322
0.00294972
0.0262623
0.032531
-0.600539
-0.571052
-0.388358
-0.78761
-0.154826
0.0421168
-0.159547
-0.0712319
-0.0140992
0.0243173
0.0450749
0.0390037
0.0835398
0.0252312
-0.105288
-0.0367465
0.0175535
0.0296631
-0.00672971
0.0279307
-0.0256346
0.0232729
0.0113548
0.0395525
-0.419646
0.0622128
0.013514
-0.12102
-0.074449
-0.408934
0.0231062
0.0481253
-0.082491
-0.0789379
0.0220038
0.00697498
-0.0740784
-0.174962
0.0395464
0.0434212
-0.110306
-0.267636
-0.0309537
-0.092241
-0.0163795
-0.0919103
0.0506857
0.0432876
0.046241
-0.307008
-0.106901
-0.104963
-0.0260774
-0.0174063
0.014153
-0.116024
-0.203598
-0.108789
-0.214128
-0.167508
0.0246917
-0.053113
0.00723275
-0.360797
0.0417733
0.0457485
-0.0127403
-0.157194
0.0274713
0.0102584
0.0310264
0.0433677
-0.0243244
-0.0800504
-0.275921
0.0337391
0.0234068
-0.176844
-0.0642744
0.0485621
0.0256338
0.0113469
-0.0390764
0.0206326
-0.0082895
0.0773665
0.0178419
-0.071916
-0.0739226
-0.149953
0.0224971
-0.348339
-0.0642809
0.0392228
-0.105929
0.050699
0.0383868
0.0378388
-0.385075
-0.152655
-0.102165
0.0320816
0.0218155
-0.316348
0.0409535
-0.112071
-1.01988
0.0393785
-0.283912
0.0396297
0.0274982
0.0419824
-0.321314
-0.221796
0.0160202
-0.21432
-0.0369855
-0.0178942
-0.0281505
-0.31672
0.00893512
-0.046776
-0.830791
0.0260743
-0.0998032
-0.120316
0.0389202
0.0406593
-0.256536
-0.0967386
0.0459077
-0.0475875
-0.147052
0.0490975
-0.234049
-0.242036
0.0315714
0.04851
-0.236048
0.0254507
0.0413158
0.0430037
0.0425766
-0.0344044
-0.336138
-0.0038712
0.041407
-0.247058
0.0246115
-0.219825
-0.109581
0.0264077
0.0443725
0.0272091
-0.071974
0.039423
-0.240369
-0.0788829
-0.175058
0.0342576
-0.331664
0.0817869
-0.0167808
-0.15518
0.0250972
0.0482149
-0.0605458
0.0793337
-0.0390979
-1.25966
0.0269022
0.0430669
-0.0232091
0.026283
0.0258482
-0.125219
0.0601588
0.0398581
0.0456797
-0.0363358
0.052812
0.0256949
-0.442154
-0.0685768
0.0213451
0.0269672
0.0162871
-0.316949
-0.201292
0.0511267
0.00279245
-0.173246
-0.161407
0.0189337
-0.0916206
0.0314058
0.0390932
-0.0797925
-0.0727848
-0.177233
-0.0379486
-0.0564349
-0.193636
0.0136447
0.0345678
0.0411596
-0.0935794
0.0299613
0.024644
-0.266029
0.0256802
0.00304537
-0.0695413
-0.275948
-0.153247
0.0250281
-0.274085
0.0190226
0.0422674
-0.0796218
-0.155575
0.0166572
-0.38972
0.0356376
0.00574388
0.0400001
-0.125825
-0.151663
-0.144877
-0.149104
-0.13816
-0.0302842
-0.0541578
0.0518364
0.0427825
0.0438147
-0.102531
0.0433819
0.0403191
-0.346181
0.0413556
0.046247
0.0400631
-1.04037
-0.523381
0.0415394
-0.120113
0.0454845
-0.0177429
0.0238991
-0.136709
0.0122487
-0.192226
0.04478
-0.355162
0.00501212
0.00287034
-0.0694095
-0.00708295
0.0440151
0.0376288
-0.561066
0.0309054
0.0195163
0.0221832
0.043934
-0.184446
-0.0198299
0.0438553
-0.100002
-0.0142305
-0.0433084
0.0456156
-0.36397
0.04239
0.0178994
-0.138772
-0.186363
0.0448413
-0.280644
0.0627571
-0.150132
-0.343007
-0.0975888
0.0255749
-0.168091
-1.40792
-0.0280124
-0.131316
0.0347114
-0.178201
0.0390177
-0.187658
0.0173722
0.0256151
-0.422032
-0.0723341
-0.0832583
0.0200311
0.0381683
-0.144892
0.0211591
0.0434271
-0.0110321
-0.00231329
0.0424436
-0.486845
-0.120549
-0.269707
-0.0683652
0.0116222
0.0427715
-0.095856
-0.313347
0.030891
0.0443909
-0.0814966
-0.140156
0.04085
-0.12302
0.0329694
0.0400652
0.0388319
0.0428699
0.0476461
-0.00208913
-0.152962
0.040584
0.0381446
0.0378584
-0.34114
0.0132993
0.0385906
-0.016703
-0.00783118
0.0112212
0.0140354
0.0133025
-0.0783025
-0.172696
-0.164498
-0.105432
-0.36105
-0.288133
-0.250451
-0.0811155
0.0467513
-0.061359
-0.105429
0.027146
-0.33078
0.0785627
0.0517809
0.0363722
0.0259759
-0.300826
-0.148138
-0.24256
-0.0880203
-0.311785
0.0766398
-0.177276
0.0627885
-0.0242694
-0.0865987
0.026522
-0.0610498
0.0473327
0.060835
-0.155045
0.0238791
-0.149169
0.0279307
-0.061268
-0.182034
0.0279525
0.0207939
0.00981811
0.0254439
-0.055816
-0.176959
0.0334023
0.0273294
-0.151084
-0.189097
0.0184008
0.0622871
0.0240091
0.0813097
0.0167363
0.0311617
0.0599681
-0.321163
-0.186819
0.0283491
-0.0744753
-0.0354253
0.0424631
0.0413435
-0.123615
0.0446721
0.0628754
0.03005
0.0211305
0.0273253
-0.298759
-0.344854
-0.0671622
-0.0945295
0.0404401
0.0334069
-1.24946
-0.189009
0.0450766
-0.126478
0.0457323
0.043848
0.0207055
-0.0789141
0.0306432
-0.00525396
-0.191067
-0.384272
-0.00877825
-0.181258
0.0453384
0.0443439
0.00989809
0.0514979
0.0296815
-0.163797
0.0283961
-0.608449
-0.0859975
0.0146051
-0.0270363
-0.00450317
-0.209247
-0.344703
-0.0462984
-0.0907328
-0.145277
0.0433839
-0.290669
-0.0196721
-0.00942304
-0.0255966
0.0126903
0.0210808
0.0329452
-0.00846027
0.0702683
-0.153362
-0.0696553
-0.190288
0.0411645
0.0476675
-0.146044
-0.375201
0.00993105
-0.180214
-0.147096
0.0393069
0.0166346
-0.00743238
-0.0328905
-0.132099
0.0316533
0.0281262
-0.0371031
-0.259208
-0.182545
0.0173265
-0.0480848
-0.109124
0.0549776
-0.160254
0.0816822
-0.304865
-0.18782
0.0380481
-0.294274
-0.187185
-0.0270348
0.0118121
0.0395693
-0.144423
0.0381547
-0.117167
-0.107547
0.0436642
-0.0439829
-0.143344
-0.34339
0.0103166
-0.141292
-0.109631
-0.189523
0.0444818
0.0450943
-0.322447
-0.035384
-0.0685327
-0.0202401
0.043596
-0.127721
0.000117495
-0.101321
0.0262091
-0.0897333
-0.00682519
-0.0399648
-0.159421
-0.120598
0.0872614
-0.306743
0.0318634
0.048047
0.0106361
-0.17372
-0.158699
-0.0900423
-0.0902298
0.0341123
0.027561
-1.2248
-0.13583
-0.0784264
-0.0851536
-0.0796331
-0.116482
-0.1157
0.0452335
-0.0753395
0.0443275
0.0121022
0.0252136
-0.140125
-0.136269
-0.193943
-0.101354
-0.27233
0.0783353
-0.256227
-0.167713
0.0397144
0.0476606
-0.011339
-0.0769262
-0.132355
0.0512181
-0.148339
-0.189084
0.00613535
-0.560467
-0.388949
0.026146
0.0124205
-0.0747526
-0.19137
-0.228013
-0.0989312
-0.0953484
0.0358726
-0.0591406
-0.114269
-0.111646
0.0403639
-0.176781
-0.0149991
0.0245941
0.0767963
0.0242692
0.0388239
0.0238613
0.0218275
-0.345233
-0.122168
0.00873408
-0.119005
-0.072607
0.0462487
0.0249909
0.0324349
0.0213638
-0.0872421
0.0452115
0.0403215
-0.133503
0.0248056
-0.112495
-0.0912991
-0.284706
0.0214034
0.045034
-0.355118
-0.271209
0.0295845
0.0112642
-0.0869452
-0.425647
0.0435885
0.0189305
-0.0772702
0.0582797
-0.0397824
-0.125143
0.0186362
0.0419789
-0.0453307
0.0403411
0.0197234
-0.171045
0.0360671
0.0398917
0.0398049
0.0487611
-0.702334
-0.346362
-0.113731
0.0119775
-0.209885
0.0331402
0.0236937
-0.324488
0.0255576
0.0305264
-0.200185
-0.119523
-0.0675299
-0.126312
-0.353643
0.0369265
-0.429296
0.0443207
-0.0156467
0.0519586
-0.353214
0.0200208
0.0116363
-0.796003
-0.326135
-0.190706
-0.108676
-0.0740464
-0.193952
0.0307273
0.0428929
0.0363573
-0.134558
-0.371264
-0.159569
-0.23194
-1.19578
0.0341953
-0.100341
-0.157015
0.0777475
0.0300547
0.0619208
0.0449585
0.0213672
-0.328305
-0.225628
-0.261658
-0.393223
-0.0134111
0.0602399
0.049571
0.019722
-0.0900905
0.0454013
-0.0884569
0.0272653
0.0392344
-0.228074
-0.148378
-0.0291487
-0.12515
-0.113315
0.047484
0.0402542
0.026648
-0.0783891
0.0410469
-0.20178
0.0208128
-0.106193
-0.047719
0.0467128
-0.100589
-0.0101978
-0.44311
-0.0112184
-0.0147029
0.0374483
0.0420606
0.0033769
0.0384332
0.0249067
0.0342598
-0.122143
0.027159
-0.0808428
-0.0945145
0.0397751
-0.348787
0.0322252
-0.077403
-0.0516382
0.0437564
-0.24749
-0.0803454
-0.00265843
-0.0660098
-0.0465041
0.0392612
-0.220393
-0.264387
-0.431822
-0.26975
-0.996476
-0.140863
0.0368451
0.0436531
0.0456993
0.0270794
0.00221944
-0.117722
0.0426565
0.0452095
0.00199639
0.0443937
0.00414788
-0.248003
0.0340986
-0.307513
0.0286443
-0.0880944
0.0387899
-0.0498695
-0.283358
0.0439857
-0.0133252
-0.033722
0.0465334
-0.0724684
-0.0934814
0.0586636
-0.087393
0.0043028
-0.0883866
-0.0659874
0.0428326
0.0031542
-0.0622561
-0.0810239
0.0370482
0.0425914
-0.0908782
-0.0973846
-0.0960503
0.0434344
0.00435918
-0.0458321
-0.0274463
-0.100297
-0.0532698
-0.0438012
-0.475468
0.00173702
0.0197624
-0.173861
0.0391167
-0.140208
-0.165744
0.0444221
-0.0453343
-0.0975143
0.0375378
0.0455789
0.0387658
-0.0403186
-0.130093
-0.111715
0.0615941
0.0420825
-0.358707
0.0245561
0.0459954
-0.0139442
-0.0183408
-0.159358
0.0499458
-1.4413
-0.136607
0.0431078
-0.132847
0.027552
0.0208785
0.0349055
-0.0346206
-0.0863865
-0.503546
-0.0665246
-0.0991098
0.0386264
-0.275999
-0.31769
0.0405962
0.0381337
-0.0683435
0.03034
0.041279
0.0301958
-0.0881741
0.0270045
-0.046774
0.0424087
0.0439958
-0.0579015
-0.0420873
0.0417992
0.0217928
-0.0576318
-0.00912107
0.00622275
-0.192985
-0.0337497
-0.0494192
0.0272632
0.0647009
0.0461982
-0.0776709
0.0405177
-0.114378
0.0437398
0.0269149
-0.110045
0.0228145
-0.00880466
0.0191696
0.0475696
0.0467673
-0.0114031
0.032158
0.00665347
0.0161253
-0.0676866
0.00979323
-0.124958
0.0370036
0.000787129
-0.0264154
0.0462416
-0.0764636
0.0255393
-0.0470247
0.0433144
0.0649279
0.0336563
-0.0157499
0.0452241
-0.0565039
0.0111947
-0.117688
-0.277294
-0.0680473
-0.0098077
0.0439316
-0.0233609
0.0435508
-0.410598
-0.0870149
-0.0518254
0.0282278
-0.0356595
0.0403927
-0.0785602
-0.315019
-0.122332
0.0469664
0.0465386
-0.129584
0.0474419
0.0703737
-0.0424229
-0.14967
0.0304821
0.074293
-0.00033735
-0.0148179
-0.0216993
-0.00799204
0.0471702
0.0393416
-0.602178
0.0197185
0.00595374
0.0437557
0.0447241
-0.0564739
-0.0488846
0.0875764
0.039735
0.0420776
-0.556187
0.0441702
-0.0936902
0.0287556
-0.0909536
-0.451242
-0.0235401
0.00293349
-0.0686794
0.0606549
0.0455827
0.0671905
0.0468003
0.0328708
0.0356931
0.0162832
0.0124575
-0.144771
0.0470826
0.0810751
0.0591982
0.0348084
0.0447559
0.0249416
-0.083321
-0.0114183
-0.0122318