/*--------------------------------*- C++ -*----------------------------------*\
| =========                 |                                                 |
| \\      /  F ield         | OpenFOAM: The Open Source CFD Toolbox           |
|  \\    /   O peration     | Version:  v2012                                 |
|   \\  /    A nd           | Website:  www.openfoam.com                      |
|    \\/     M anipulation  |                                                 |
\*---------------------------------------------------------------------------*/
FoamFile
{
    version     2.0;
    format      ascii;
    class       volScalarField;
    location    "150";
    object      ddt0(gammaInt);
}
// * * * * * * * * * * * * * * * * * * * * * * * * * * * * * * * * * * * * * //

dimensions      [0 0 -1 0 0 0 0];


internalField   nonuniform List<scalar> 
13917
(
1.58893e-14
-6.59394e-08
-0.000131262
1.45728e-14
2.75932e-05
7.66734e-07
6.71755e-15
4.40209e-09
-1.07341e-14
-2.86837e-14
-2.70763e-07
-7.71152e-15
1.04454e-14
1.31618e-07
-8.46815e-11
1.82454e-14
-1.93843e-15
-4.11688e-06
-6.17406e-08
-1.03498e-14
-3.47757e-14
6.13136e-16
3.18789e-14
2.62845e-14
-1.45809e-14
-7.5485e-13
0.0543955
-1.0636e-16
1.13965e-09
1.66429e-07
4.69537e-13
3.6598e-11
3.21189e-14
2.8083e-14
-6.63712e-09
-3.21361e-09
-5.26661e-14
1.13847e-14
1.05142e-14
1.36688e-13
-8.42187e-15
-6.45118e-08
2.7361e-14
-7.02343e-08
2.98131e-08
-0.0366167
-2.78217e-14
1.71955e-14
-2.88371e-11
-5.64389e-09
-9.00278e-15
1.31258e-06
-1.92036e-15
1.83462e-14
1.74867e-14
8.00982e-06
9.00418e-10
3.62334e-15
-8.47734e-08
0.00807229
3.43419e-14
5.54991e-07
2.06066e-14
2.66511e-14
-7.50703e-07
-2.18137e-06
-3.33374e-09
4.4401e-09
-1.88274e-06
3.88337e-15
-0.000531567
3.30534e-14
-1.06985e-14
9.20484e-08
-2.61408e-14
-6.61248e-15
-1.35757e-08
3.09086e-08
1.86134e-14
-3.59505e-15
-3.23322e-14
2.16318e-14
8.62409e-16
-1.23623e-07
-1.24908e-15
1.16957e-06
4.24343e-13
-1.05703e-16
-7.03671e-14
3.73452e-14
2.91671e-14
-2.08676e-14
-3.80613e-12
-8.48501e-10
-1.48398e-14
2.4024e-09
-3.83783e-07
-4.49879e-14
1.94289e-15
8.90182e-09
-1.39527e-15
-8.80781e-14
-1.52343e-14
3.89973e-16
-1.11822e-07
0.000224755
-2.77182e-14
2.59936e-06
1.58589e-07
0.00297076
8.13233e-16
-2.33225e-14
4.94412e-10
3.5657e-14
2.07911e-06
-1.75129e-14
-9.78008e-09
3.95186e-14
1.78987e-07
1.88717e-15
6.90223e-15
1.06257e-08
9.80227e-08
-1.00297e-08
-1.21606e-14
-0.00012978
-1.96026e-14
8.86291e-14
7.48347e-14
-2.41487e-08
2.75085e-14
-0.000853146
4.3283e-13
-6.19594e-16
1.37764e-10
-0.00103955
3.82063e-16
-3.69975e-14
-2.29703e-12
2.59957e-14
3.28395e-11
-5.40554e-08
0.00111373
1.70416e-15
1.13164e-14
-5.40785e-06
-0.00116496
2.9257e-14
2.33445e-14
1.01307e-14
4.61584e-15
-2.6659e-13
-2.71388e-14
-2.69149e-15
6.37297e-06
-8.20528e-10
1.12198e-14
-1.20824e-14
1.73364e-14
3.43431e-14
-2.83406e-14
3.27874e-11
-9.72944e-15
-2.02007e-09
-8.11506e-15
-6.35328e-08
-5.45567e-14
5.29521e-15
3.67867e-10
-3.12007e-12
-1.59924e-13
-1.38344e-12
-2.40841e-14
2.93705e-15
-6.3213e-09
-8.23931e-14
2.05212e-15
6.81983e-05
-9.44852e-15
2.82181e-14
3.6337e-16
-6.77881e-14
-1.88347e-14
0.000363069
4.15146e-06
-0.00313283
-8.14979e-15
0.00029686
-9.49365e-07
0.000241953
-7.0765e-09
9.24408e-09
2.57331e-05
1.64981e-14
-1.03386e-09
-6.18238e-15
4.8044e-15
7.41922e-12
-4.84169e-09
5.09687e-11
-1.33843e-14
3.45142e-15
1.62942e-14
1.71473e-14
5.96281e-05
1.64807e-11
-5.84471e-16
-9.97325e-08
2.80742e-05
1.76334e-14
-1.03581e-14
-3.44189e-07
0.000299196
-1.2648e-14
-3.26196e-10
-2.31613e-12
1.0085e-11
7.76327e-15
-5.62608e-10
-4.64277e-10
-5.29585e-14
-9.67551e-06
-0.00136911
-2.64355e-14
-7.60736e-13
0.000140826
-1.00265e-14
-8.95069e-11
2.52208e-11
-1.32215e-14
3.35204e-09
1.78781e-09
1.25737e-14
1.19855e-14
3.08282e-15
2.95361e-09
9.41062e-09
-2.46482e-15
4.42746e-15
-2.69552e-14
-0.000271367
0.000472112
0.000184548
8.71305e-12
-3.40444e-06
-1.76423e-15
-2.32568e-14
2.83036e-09
-1.01555e-10
-2.56539e-11
1.35916e-14
-1.25365e-14
-2.35205e-14
4.0131e-14
2.31332e-10
1.22282e-14
-1.57868e-15
-1.29047e-14
-1.53036e-05
7.78467e-09
3.85025e-14
-5.62168e-09
-4.1166e-10
1.98382e-11
-2.39156e-10
1.79678e-11
1.97195e-15
-1.5338e-14
-1.92812e-14
9.19778e-08
1.86429e-14
2.18492e-14
2.69411e-14
9.44267e-07
0.00159339
-7.24147e-10
-4.2179e-10
3.57313e-14
-5.36116e-10
9.44337e-16
-1.41823e-09
2.23371e-10
-1.03863e-13
-1.86691e-11
-6.245e-15
-1.53163e-14
9.06812e-07
-1.38442e-15
-7.70785e-06
-4.65031e-14
-1.38031e-08
-1.04718e-05
5.24708e-05
7.48232e-17
-3.00286e-14
4.82302e-13
-4.9868e-06
-1.43805e-14
2.77534e-05
-3.1944e-16
5.06241e-09
1.57018e-14
8.31466e-05
-9.33106e-07
5.47941e-14
-1.02819e-14
-1.15914e-14
-2.28456e-13
-1.80977e-14
2.27572e-13
-0.0002439
-2.244e-14
1.15702e-08
-1.01278e-07
-1.13964e-14
2.05634e-14
-8.14829e-07
-0.000636909
-5.88836e-07
0.0148325
3.51186e-12
-0.00016643
9.47551e-15
1.03347e-10
-2.41905e-05
-4.23664e-12
-2.05386e-06
7.52377e-09
-1.55218e-15
4.35246e-13
-3.31242e-15
-1.65833e-14
-1.1111e-07
-2.09652e-12
7.0269e-17
-4.26514e-16
-9.976e-11
-1.46193e-06
2.93657e-14
1.26277e-10
-0.000551619
3.8266e-14
-5.681e-12
-8.99624e-16
0.000357687
8.17096e-10
-3.83945e-08
4.04153e-10
-9.37326e-15
1.18403e-05
-0.00170842
3.74213e-10
1.54554e-05
1.48345e-15
-1.55387e-11
2.65373e-14
6.23253e-07
-1.9451e-06
-2.91704e-10
4.3134e-14
4.01514e-14
3.17414e-14
2.66408e-15
-5.43437e-05
-1.34526e-05
1.7079e-14
4.49625e-14
3.97075e-15
-5.39322e-16
3.79786e-16
0.000140796
-1.8239e-05
-1.62841e-10
-4.15805e-07
-0.0014419
0.00639778
-6.75707e-10
2.97903e-15
-0.0100698
-1.97725e-07
4.77258e-14
-6.97842e-05
1.55401e-07
2.43445e-11
2.77288e-14
1.12036e-08
-9.79664e-13
2.76028e-16
1.63145e-08
-3.49708e-15
2.53046e-05
1.14741e-10
-2.28141e-14
5.43617e-14
-0.000182021
-1.53165e-14
4.86967e-07
-6.14759e-16
-2.82163e-10
-1.3539e-05
-1.31297e-14
-1.92406e-14
-9.03212e-15
1.15948e-14
-4.24658e-15
2.3997e-13
8.45351e-15
-1.44171e-07
1.42198e-14
-4.25175e-13
-9.90595e-15
1.80041e-14
6.996e-08
-8.79345e-08
-1.86381e-10
-3.47362e-08
-4.92319e-05
-9.01717e-15
3.15575e-15
1.93736e-12
-2.58599e-08
-1.39909e-08
-8.19279e-09
0.0435255
-2.83905e-07
1.48303e-08
2.50917e-14
-3.58211e-15
-3.77262e-08
-7.52346e-15
-2.11898e-09
-1.50419e-07
-1.88062e-14
6.63914e-15
3.48319e-13
-1.8484e-14
1.27429e-13
-1.40595e-14
-3.22701e-15
-2.03379e-13
-1.49813e-14
-3.48586e-14
-9.63504e-08
5.67826e-16
-1.07329e-06
-3.52268e-09
-2.75121e-14
3.47581e-14
-4.67846e-12
-3.12388e-05
6.44222e-05
-6.35914e-16
-2.07998e-14
0.00011234
-9.71905e-17
-1.66057e-06
1.38409e-10
5.3823e-15
-2.67211e-07
-1.39449e-14
2.88525e-17
-1.63182e-14
1.22882e-14
-6.47079e-15
-3.17788e-16
-5.91898e-14
6.86616e-15
9.56522e-15
-2.7967e-05
2.57107e-07
-1.64636e-15
6.56637e-13
4.38817e-10
2.92705e-15
9.4666e-15
4.26665e-05
-1.79653e-13
-5.73582e-13
-9.06545e-15
-8.20718e-06
3.0368e-05
-1.88469e-15
0.000175462
4.43815e-14
-2.52165e-15
-3.33306e-16
2.26106e-15
2.64456e-14
-1.62321e-06
3.08916e-13
-3.53628e-07
1.92319e-06
-8.47385e-07
2.78729e-10
-9.9042e-15
3.50694e-07
2.5654e-14
-9.51024e-15
4.16671e-14
5.29973e-15
5.68344e-10
-3.08844e-06
-2.63963e-14
-9.54171e-15
2.94046e-14
3.09235e-09
5.4721e-14
5.37776e-08
1.24348e-14
8.84088e-05
8.36419e-15
-3.09216e-07
1.59743e-14
-1.16938e-14
5.9927e-06
7.01106e-06
3.37756e-06
4.94571e-15
2.26402e-15
-5.99893e-17
7.63519e-11
-1.31184e-15
2.79309e-13
2.46921e-15
1.78201e-10
1.15705e-14
-1.26893e-05
3.4809e-14
2.93264e-15
2.2336e-13
3.15008e-14
-4.0018e-14
-2.60001e-14
1.30477e-14
-4.47544e-15
-1.41351e-14
1.16712e-08
3.64761e-14
-2.64365e-11
5.78114e-11
-2.24895e-09
2.19696e-08
-1.20432e-14
-3.71925e-07
1.66287e-10
-1.43876e-14
1.26971e-14
1.32521e-12
-1.48893e-14
1.86375e-06
3.34555e-14
-1.27702e-06
1.07329e-09
3.88747e-13
3.65643e-15
7.26528e-09
-1.70135e-09
1.60602e-14
5.61321e-14
2.42141e-14
4.952e-12
-1.91451e-14
-1.29558e-05
2.22766e-09
1.17569e-07
-8.5945e-05
3.68822e-13
-4.29865e-15
2.44136e-15
-3.88206e-07
-1.93345e-06
-3.85831e-13
-3.4845e-08
-2.9509e-13
-1.57982e-14
0.00261213
-2.91687e-13
2.50743e-14
-1.18752e-14
1.23837e-14
-1.38857e-12
1.16691e-14
1.19802e-14
3.96597e-05
0.000244853
-5.05993e-14
3.28138e-16
2.77617e-15
5.0554e-08
-1.46075e-14
-3.67701e-15
0.0226647
-2.8413e-14
-1.7119e-12
1.8871e-15
-8.64917e-13
2.52006e-14
-0.00248757
-2.17451e-06
1.2113e-14
-3.05631e-11
1.70025e-14
0.00478737
1.48669e-14
-1.56232e-12
-2.42638e-07
6.138e-15
2.21253e-08
1.43762e-14
-0.00293737
1.43176e-14
-4.37518e-07
2.10435e-14
-1.2469e-14
-1.57194e-14
-1.17458e-08
-4.57387e-14
-1.50537e-14
2.16482e-10
1.9062e-14
2.24546e-14
-7.55827e-10
4.96464e-09
-1.37334e-06
-6.86891e-15
-2.63256e-06
-7.12593e-13
-7.82825e-15
-1.81499e-14
-1.75313e-05
-5.57159e-10
-1.86923e-09
1.68797e-06
-5.63058e-13
-2.91487e-07
-4.01475e-14
1.27017e-14
9.81147e-15
-5.5855e-13
1.97635e-15
-1.14727e-15
1.74402e-05
8.38835e-06
-9.56152e-05
-5.46729e-15
-4.44099e-10
9.10513e-15
-0.000508784
-4.46932e-14
-2.33799e-15
6.13142e-06
5.50977e-15
-2.13351e-13
2.85236e-07
-9.54029e-11
6.40895e-15
8.19189e-15
1.21599e-14
2.6964e-08
1.01157e-06
0.000372796
9.38204e-15
1.84643e-05
-1.32764e-14
6.23668e-09
1.04775e-06
3.6615e-07
3.52496e-14
2.81219e-14
1.98575e-14
3.61523e-06
-3.59829e-14
1.55524e-14
-1.34212e-14
-2.47197e-16
2.76262e-09
1.17917e-14
3.80593e-14
-2.98574e-09
5.44884e-14
9.77822e-15
3.48192e-13
1.01226e-14
-1.59348e-15
-1.17333e-05
-3.35334e-12
-4.93891e-16
1.18277e-14
1.184e-14
3.01651e-14
-5.18095e-15
-2.52028e-15
4.03581e-15
-1.57038e-07
-1.84472e-14
2.51437e-14
2.59259e-14
-1.02587e-09
-1.61055e-14
-1.45279e-06
-2.08682e-15
1.76957e-14
1.21141e-14
-8.40159e-16
-1.70253e-14
-5.74082e-15
0.000207129
2.96492e-14
-5.41513e-15
1.36124e-14
7.88342e-15
3.20371e-09
-1.07349e-07
6.70827e-07
-3.42931e-14
-2.56825e-16
-1.55459e-15
-9.1738e-15
-3.79789e-14
4.86377e-06
0.000888669
-3.95215e-15
4.06175e-05
-1.65435e-14
7.94277e-06
-1.43028e-13
-3.86239e-14
-5.92167e-10
-1.72816e-14
-0.000170847
-1.09833e-14
-1.74573e-12
2.66765e-06
3.65231e-14
-6.19897e-16
1.49228e-14
8.94405e-15
-3.19794e-14
6.01502e-16
1.90824e-07
8.50727e-05
-0.004938
2.89673e-07
-1.73196e-14
-0.000132187
1.44827e-14
-1.57298e-14
3.32564e-06
-3.26322e-16
2.1624e-14
5.77942e-06
-9.62871e-14
6.66029e-12
4.73593e-07
2.56587e-14
-2.0974e-14
2.58089e-16
-1.9682e-13
-1.73931e-15
-1.3289e-14
-2.70629e-08
5.99168e-15
-1.73026e-14
-1.58099e-14
1.75e-07
-8.56906e-07
-7.4507e-07
-1.04104e-07
-1.03864e-11
-2.04454e-05
3.29665e-15
-7.61387e-08
0.00375671
2.95443e-05
5.05279e-07
4.23556e-14
6.13165e-15
8.91434e-15
-1.56856e-14
8.5628e-11
4.15275e-14
4.39942e-07
1.687e-11
-2.81338e-14
-2.04561e-14
2.85458e-14
-2.39714e-07
-9.00585e-12
3.28828e-12
1.8925e-10
2.26639e-09
1.139e-14
9.92622e-15
1.07781e-14
-1.30327e-14
-2.828e-14
-6.82057e-06
3.26467e-09
8.61498e-12
-3.50331e-14
-1.16433e-11
1.50952e-15
-7.05974e-07
3.37392e-09
2.53311e-14
9.60811e-15
3.79329e-09
-2.25348e-06
4.52223e-14
-1.20829e-08
-1.0985e-14
-6.77001e-15
-1.31361e-05
4.39337e-09
-5.71169e-09
8.14591e-11
-1.38543e-14
5.73232e-06
8.53118e-15
3.96431e-14
3.97866e-14
-2.92164e-14
2.29508e-14
3.73444e-11
-5.32095e-06
2.23953e-14
5.73047e-15
-2.69142e-14
2.22455e-08
-1.47995e-06
1.28094e-07
2.20022e-14
-2.14811e-09
9.51557e-15
6.21091e-06
-3.23368e-14
-2.27877e-15
-2.98714e-14
2.06349e-14
-1.41726e-15
2.00436e-08
-1.16353e-14
0.00442763
1.82102e-14
2.21516e-15
3.14867e-07
-9.84726e-12
1.1198e-12
1.81896e-14
-2.32507e-07
-1.11809e-15
-3.17698e-07
-4.0742e-13
8.55597e-10
2.13851e-07
3.09561e-13
1.49674e-14
2.67373e-13
6.12799e-11
-7.78879e-15
-1.45687e-14
2.31521e-08
3.69895e-15
4.22097e-14
-1.27943e-11
-3.43454e-15
-5.84262e-13
8.81672e-07
2.53739e-14
8.0444e-15
1.7885e-06
2.41445e-14
1.89694e-10
3.34818e-14
1.61649e-09
-7.48431e-07
1.8011e-10
1.43083e-14
-1.43795e-15
7.66348e-15
7.03585e-10
8.8753e-15
5.45201e-06
6.82579e-10
0.01661
-5.67847e-07
1.82743e-11
3.90517e-15
0.0522974
1.33404e-14
-1.34533e-07
1.67437e-15
-1.99705e-14
-1.65942e-11
7.21534e-09
-8.4464e-13
-1.28743e-08
7.6486e-10
-9.63766e-15
2.2345e-05
-2.40507e-10
6.85955e-15
-1.5785e-14
-2.16195e-11
-9.60851e-07
8.47991e-06
1.45394e-10
1.71494e-14
-8.56496e-07
4.91135e-14
-1.31957e-10
7.889e-05
-1.70644e-14
-4.70443e-15
3.61267e-16
2.33284e-11
4.56247e-14
-1.85538e-14
-4.07864e-14
-1.4945e-14
3.66094e-07
3.48293e-07
1.39133e-14
-9.57456e-07
2.76572e-08
-2.48005e-07
4.33039e-16
3.15747e-14
-4.17321e-14
4.63973e-15
7.77915e-11
-2.90387e-14
-3.56903e-10
-5.26998e-10
3.57556e-13
-3.98561e-11
-2.46926e-15
0.00295982
-1.27489e-14
1.47565e-14
1.14495e-08
-1.98829e-15
1.5685e-14
-1.0605e-14
7.76611e-09
-9.07094e-07
-1.44601e-14
-1.00123e-14
1.34403e-14
-1.71136e-14
2.98025e-10
-1.21144e-14
-2.2242e-10
-1.42713e-14
4.20977e-13
-3.82242e-08
1.29048e-14
-1.52656e-09
-2.25704e-14
-4.70702e-15
8.41077e-10
-3.56933e-13
-0.000647849
2.98593e-06
7.92492e-08
5.6926e-16
2.81481e-05
1.97403e-14
2.64313e-08
9.29833e-15
-1.26932e-07
1.081e-14
-9.43052e-15
-8.19059e-05
-4.13079e-16
3.26169e-10
-9.65643e-16
-1.36888e-14
-1.06655e-09
-1.51043e-15
-2.9737e-15
-1.65672e-14
1.20701e-14
2.92515e-07
1.01134e-08
-8.19708e-08
9.11847e-16
2.4448e-08
-1.23196e-14
1.36585e-11
1.6371e-14
-2.67681e-14
1.57035e-11
4.39306e-08
0.359606
-1.63155e-05
1.08408e-14
-9.09717e-07
2.52356e-14
2.44663e-14
-2.75054e-15
1.13984e-14
0.00165449
-2.35293e-14
-1.41814e-08
-1.89561e-14
2.88101e-14
3.44114e-13
-9.446e-10
1.69986e-11
-4.30245e-16
-1.7446e-15
-1.25245e-12
3.27331e-15
2.93429e-14
2.64774e-15
-3.57246e-07
3.72765e-14
-3.40315e-15
-1.89195e-14
4.84917e-06
5.38981e-07
8.02753e-14
-3.25266e-05
-1.54906e-14
1.98675e-15
-4.83198e-15
0.000206287
2.08617e-14
-1.25961e-07
5.15409e-05
-1.42286e-15
1.79832e-15
1.43207e-14
7.53771e-07
-9.84986e-12
-5.83092e-05
3.255e-11
1.9312e-13
2.31791e-16
-1.51824e-14
-1.0632e-10
3.27944e-08
-1.91075e-13
-0.0114886
3.3541e-13
-2.59871e-10
-2.74771e-14
-3.61441e-14
-0.0102173
2.40843e-10
4.79301e-11
7.07746e-09
2.46385e-14
-2.16424e-14
-1.08181e-05
2.40302e-14
3.71941e-08
1.30258e-15
-2.15659e-16
-1.62269e-14
6.61932e-07
1.02677e-14
-4.02795e-15
1.11377e-08
1.64539e-14
-3.50406e-14
4.65034e-06
1.01619e-06
-2.57705e-08
3.56407e-15
8.94904e-16
-0.0472907
-1.11644e-14
1.59459e-14
-5.00303e-16
4.14449e-15
-7.02357e-15
-1.32063e-06
-9.98818e-11
4.85781e-11
8.20142e-13
-3.88348e-07
0.000405835
7.78061e-08
1.11729e-15
2.70361e-15
1.87352e-14
-1.33229e-06
-5.72205e-09
1.56285e-15
-2.29702e-15
-4.02728e-14
3.20442e-07
-1.55871e-10
7.74215e-15
2.13261e-14
3.52681e-11
2.8818e-15
-0.00194004
-2.8599e-13
-4.83237e-09
-5.51086e-15
1.10589e-05
-1.15525e-15
-4.59727e-09
-1.02712e-07
-9.49997e-15
4.85276e-15
4.22746e-15
-1.18628e-14
0.00102123
6.29614e-15
1.53374e-14
-1.38412e-14
-1.14912e-13
7.18794e-13
-1.28026e-16
-1.78717e-06
-5.11793e-08
-3.62104e-15
3.14617e-10
2.83104e-14
-3.59576e-15
-5.16685e-15
1.20119e-14
-1.9948e-11
1.18336e-14
1.5741e-14
-4.63175e-14
5.72159e-08
-6.59824e-06
1.91342e-07
3.09897e-15
0.000264209
-4.76626e-15
0.0554643
1.36578e-14
2.81827e-14
-1.42549e-13
2.64829e-14
-1.07444e-14
3.73902e-13
5.489e-08
-5.9079e-15
-0.00673454
3.55155e-05
1.49593e-15
1.47566e-16
1.66099e-05
-0.0114038
-0.00237206
3.55086e-12
-2.89774e-14
-0.000187669
-2.13628e-08
-1.72251e-14
7.43396e-16
-1.12327e-14
-1.1826e-07
1.78039e-14
-1.37521e-14
1.72787e-15
0.000247692
1.38088e-10
-2.56976e-14
-1.67053e-07
-0.000245976
-3.19304e-10
7.87011e-15
3.07546e-14
3.76181e-14
-6.57441e-15
1.72938e-14
1.18811e-15
3.63256e-11
-1.72936e-12
8.55919e-07
1.09017e-07
-1.2941e-14
7.75311e-16
1.42628e-14
-1.41311e-06
7.62514e-15
3.45144e-08
3.4495e-11
7.43054e-10
-4.16765e-05
-1.19163e-11
1.14102e-15
-1.4642e-14
-2.173e-14
-1.61431e-06
-2.32419e-14
-8.34136e-05
-2.75573e-12
0.00602052
2.35535e-16
1.35983e-14
-3.47838e-09
1.38786e-14
-9.72514e-11
4.24346e-07
1.19523e-08
-2.4086e-14
-2.05767e-14
2.87913e-11
1.77324e-14
1.692e-14
-9.80207e-15
-1.71609e-15
-3.07518e-11
5.66301e-15
9.17887e-15
-5.79777e-15
7.96389e-15
-6.99576e-07
4.8184e-13
-1.71346e-14
0.000672354
-0.000190394
-2.47778e-15
1.48553e-15
1.3779e-11
-3.70209e-16
-4.03245e-15
6.87404e-08
1.40374e-14
-2.68668e-13
2.02248e-15
-1.82663e-14
0.00399454
2.54035e-14
-1.43988e-14
-7.57547e-15
9.82202e-11
-0.000889026
-5.68122e-15
-2.66366e-12
-7.93195e-15
1.10848e-09
5.97335e-14
-1.5308e-07
-6.68627e-05
-1.19097e-14
1.81985e-14
3.58362e-15
1.34159e-14
-0.0125201
1.15456e-14
1.04205e-12
1.8042e-14
7.07595e-12
-0.000316091
-1.27412e-15
2.34637e-14
0.000495025
-1.14239e-12
1.05592e-07
3.35084e-05
7.87164e-15
-4.79674e-17
-1.68572e-16
-3.11837e-12
1.01123e-10
-1.47532e-14
1.51009e-14
0.000149009
-7.29422e-16
3.42504e-11
-6.32639e-05
0.000408343
2.22422e-14
2.80196e-05
1.61519e-13
-1.30457e-14
-1.07632e-07
-1.22283e-07
1.68821e-12
1.13845e-14
1.85818e-13
-2.08909e-14
-1.44536e-14
2.7562e-14
-1.21973e-07
1.64947e-14
-8.9422e-12
-5.25591e-12
-6.10692e-08
-2.36895e-05
-5.03315e-15
1.61315e-09
8.78617e-06
-2.47841e-07
-6.08988e-16
-1.84599e-12
3.39257e-15
-2.37044e-08
3.18272e-14
3.13634e-12
1.37976e-14
1.53211e-06
-6.11332e-07
5.63896e-07
-2.83655e-14
0.000239858
-3.39744e-06
1.29034e-14
-4.61518e-08
1.00826e-14
-4.64512e-08
-2.974e-15
8.77836e-09
1.08266e-12
3.83022e-16
-6.55623e-15
2.23893e-15
-6.77475e-05
0.0902157
2.19806e-14
1.83752e-07
2.05449e-14
0.000517847
-9.29423e-06
1.81002e-08
1.29874e-08
-3.18612e-14
4.30245e-14
-7.73996e-06
-2.2343e-13
1.08108e-14
1.36602e-06
-1.06322e-14
1.27011e-15
2.63796e-08
-1.07233e-11
-1.08033e-14
9.70327e-12
2.24833e-11
-1.72396e-14
-2.90479e-14
2.36408e-06
3.66611e-08
2.11813e-14
1.68218e-15
-1.72311e-07
-5.99566e-15
0.000270564
1.17349e-06
7.334e-16
1.08361e-14
-7.68882e-16
1.74387e-14
-8.0645e-15
-2.90542e-11
9.9306e-09
1.17756e-16
1.33962e-15
-1.07764e-14
2.50298e-14
1.33707e-08
5.21819e-13
-1.34856e-10
4.12714e-14
-1.38807e-06
-9.31331e-12
8.39787e-15
-4.29897e-15
-1.19429e-07
1.41567e-14
-1.96519e-11
5.2465e-15
3.09843e-09
9.61026e-06
2.53056e-14
-3.39168e-13
1.74219e-10
3.67089e-06
-1.30739e-14
2.19057e-15
0.000610534
4.98718e-15
9.39884e-06
9.61875e-15
-1.41958e-12
-5.24152e-08
-8.22839e-14
4.35841e-15
7.69504e-10
2.05514e-11
-6.75526e-12
1.73014e-15
1.98767e-14
-1.19315e-14
-1.09271e-06
-1.54313e-14
-1.05666e-13
-1.39307e-14
-5.16385e-16
3.8583e-06
-9.68007e-05
-1.36005e-14
5.70328e-06
2.56291e-11
-1.16865e-14
-1.38467e-14
-3.54845e-08
-3.69194e-14
-4.33178e-09
-3.59568e-14
-1.80952e-15
3.54927e-06
-6.85427e-05
-2.60138e-14
-7.02631e-13
0.0135908
-9.28201e-12
-7.20676e-15
6.30468e-15
-1.26262e-15
0.000179273
-1.41278e-10
1.49904e-14
-2.52724e-14
3.00453e-14
-9.40456e-11
-1.31027e-14
1.49017e-08
-3.58029e-12
3.25371e-06
-1.52952e-11
1.80974e-14
-4.24697e-13
-3.49609e-17
1.21738e-14
-1.30745e-15
1.07281e-05
-1.08614e-14
4.78512e-15
-3.84818e-15
9.16559e-10
-2.61076e-14
-9.92458e-15
-4.44726e-10
8.90352e-13
-3.67515e-13
8.89163e-12
-1.30281e-14
2.23857e-09
-2.48918e-14
0.00256424
2.11193e-14
-1.74942e-08
-5.90737e-16
-4.67929e-06
3.23578e-05
8.28258e-16
9.93438e-15
1.18407e-14
1.1909e-08
3.01725e-14
3.83546e-08
-7.33507e-08
9.58003e-10
4.09096e-16
-1.15208e-14
-1.58572e-14
2.89921e-12
-1.08916e-14
-1.26995e-14
1.37831e-09
1.51027e-14
2.9579e-15
-2.54752e-12
-1.43001e-15
0.0214125
-2.05777e-14
-1.18374e-14
2.91777e-14
1.4724e-14
-2.07393e-14
2.3094e-14
3.64514e-09
1.11234e-14
2.52901e-12
6.3514e-06
-4.66862e-09
2.39296e-13
1.67561e-14
-2.30277e-15
-4.21209e-11
2.16006e-06
1.57716e-05
-6.63258e-09
-1.17195e-11
5.75839e-08
1.11043e-09
-2.55273e-14
-0.000677783
-3.06536e-08
1.6753e-05
2.52767e-14
-3.66801e-11
5.18308e-15
9.75912e-15
-5.58885e-07
-0.000355977
4.00113e-16
9.05703e-10
-1.13719e-14
-5.57155e-13
-9.16536e-15
-3.79937e-14
-2.20265e-14
4.44507e-16
2.66926e-05
6.50568e-10
6.78902e-06
4.47034e-11
2.06287e-14
-6.39687e-15
-6.27294e-05
-1.01888e-09
0.075451
1.29685e-14
-1.35209e-14
8.00107e-06
1.43259e-12
8.14679e-07
-7.92277e-14
-3.22773e-05
-8.6421e-14
2.58994e-06
2.03825e-10
2.1713e-15
2.4754e-14
2.64542e-14
-8.72761e-11
-8.52424e-15
1.64265e-08
2.28409e-14
-9.96402e-15
-2.61984e-10
4.62412e-10
-4.00389e-14
-1.51737e-07
1.35124e-10
5.67834e-15
-4.48019e-12
-2.11656e-14
-7.39692e-16
1.18416e-06
-4.88609e-11
2.06382e-14
2.72006e-14
1.35187e-05
-0.00817893
-5.37296e-06
3.57598e-15
2.42473e-14
-7.93762e-15
-1.07236e-14
1.12248e-11
-9.43935e-06
-5.80381e-13
-3.00403e-10
-1.56884e-14
0.00121223
4.28461e-06
-1.79109e-07
9.16835e-15
-8.86995e-13
4.34474e-08
1.48412e-05
-1.16609e-11
3.90295e-05
8.4828e-09
1.58762e-08
3.95291e-14
-4.36064e-07
-1.20091e-06
-1.16518e-14
-2.52678e-13
2.29868e-14
-2.84161e-15
-0.000689602
-3.54432e-07
-1.04257e-09
-1.14103e-11
-0.000358055
1.80775e-15
-2.18921e-05
1.57298e-14
-3.42926e-14
4.87645e-11
-1.13762e-09
-7.2029e-05
-1.23453e-14
-5.62104e-15
0.0252463
-5.47324e-16
-9.05315e-11
-6.34129e-15
2.4518e-15
4.50511e-10
-1.62322e-14
1.68838e-13
1.05933e-11
-2.04744e-07
2.30561e-15
-1.88026e-08
7.22891e-09
-6.0475e-13
4.5254e-08
-2.86434e-11
-2.23025e-05
7.05013e-06
-0.00031195
-1.8501e-13
3.74147e-07
-6.13009e-15
-1.46212e-14
-3.75403e-11
2.26439e-12
-8.92676e-15
-1.50255e-14
-2.29088e-15
0.00245042
-2.60177e-10
-5.17623e-08
-2.01065e-06
-1.99787e-06
4.35225e-16
-6.49919e-15
-6.57871e-08
1.27513e-07
-1.75763e-14
4.30662e-12
-4.46193e-15
-2.54793e-14
-1.2511e-14
1.2283e-14
9.62306e-15
-9.55816e-10
5.9329e-14
2.89122e-09
1.28235e-07
-5.85573e-09
5.79312e-10
2.6622e-14
1.03724e-14
-2.40713e-08
8.12978e-11
-2.76159e-10
-8.62618e-09
8.18457e-16
1.08648e-14
3.05825e-11
-1.52505e-14
-3.85937e-12
-5.37761e-12
-1.62821e-07
-1.00168e-08
-2.36545e-14
3.80589e-15
-2.07446e-08
2.48809e-14
-1.29473e-14
-9.61832e-15
1.48261e-15
-0.0102691
1.88175e-14
4.29401e-07
9.07671e-11
-2.62497e-14
-0.00115312
-2.00711e-14
1.73167e-15
9.57429e-15
1.78685e-14
5.85022e-15
-7.39931e-10
2.04517e-14
9.3227e-16
1.37205e-14
1.05147e-14
1.22315e-05
2.87155e-14
-4.31313e-16
1.1603e-14
1.14572e-14
0.0146218
-4.07685e-14
2.30422e-14
-6.81123e-07
4.32256e-07
7.95779e-14
1.77103e-06
3.10707e-16
7.49927e-16
-2.01346e-14
7.1382e-15
-2.05067e-12
3.75391e-14
2.16557e-05
-7.33817e-10
-1.14664e-11
-6.55895e-05
1.20613e-09
1.24123e-15
-1.43407e-11
4.37743e-14
2.38074e-06
-1.44345e-14
3.03616e-06
-6.26635e-15
-2.3519e-14
1.3445e-14
2.04836e-14
-1.08e-12
0.00965838
-1.93334e-13
1.89089e-11
0.00228371
3.2057e-09
2.54545e-08
3.01273e-14
-2.88915e-08
-1.26438e-14
-1.26754e-11
-2.85958e-05
2.50185e-14
2.33029e-14
9.98011e-10
2.35182e-14
3.11846e-14
3.50153e-14
4.4153e-09
-7.37264e-16
-0.000144997
-2.74953e-14
9.56215e-14
-5.82e-09
-2.90423e-14
2.29368e-14
-1.67504e-12
-1.24449e-10
4.35513e-09
1.46234e-11
6.90429e-15
9.66568e-07
-4.59568e-12
1.56203e-14
-1.8938e-07
2.50268e-09
-2.54473e-14
6.58013e-09
7.83968e-14
1.77029e-14
1.29773e-14
-2.57727e-14
-0.000256578
-1.25423e-13
-0.000473466
1.45526e-14
-1.98551e-09
-4.7385e-08
-8.31976e-05
-1.72573e-14
1.33263e-14
1.4932e-14
3.74065e-08
4.68097e-10
1.42812e-05
-1.47247e-14
-2.29445e-14
-1.62788e-14
1.00405e-14
-9.13459e-15
1.82166e-14
-1.22253e-07
-0.00213757
2.53835e-14
-7.78108e-12
-2.25465e-10
1.39654e-14
1.20141e-07
1.26782e-13
-8.02173e-11
-3.79743e-07
-1.15822e-16
9.09441e-13
3.50056e-15
-5.36894e-16
1.30424e-14
7.83944e-06
7.56359e-13
7.75486e-10
-1.28426e-14
0.000318491
-1.0588e-08
-3.63636e-16
-1.94629e-05
4.61781e-15
2.03225e-07
5.38987e-08
-2.02322e-16
-4.39009e-12
0.0133333
0.000551337
6.97951e-17
1.77046e-14
1.78823e-12
-8.94484e-09
-2.96775e-14
1.61162e-14
3.83769e-15
0.0814829
-9.51256e-15
-0.000213395
8.16834e-12
1.04029e-10
-3.48309e-13
8.0864e-15
-3.48866e-07
-9.03245e-08
1.79058e-14
-1.68357e-11
-4.95677e-16
-1.1921e-15
2.86476e-07
2.8397e-14
4.11707e-15
-1.98745e-14
-3.85379e-16
-2.02083e-13
-2.61312e-14
-0.00257804
2.43514e-07
-5.12961e-10
-1.22223e-14
0.0020422
-9.17474e-13
-2.26853e-13
-4.35166e-08
2.11858e-14
8.56545e-13
3.81457e-15
-7.03651e-15
-5.62618e-10
-8.71571e-06
0.000119245
2.63694e-12
2.99045e-13
1.12038e-14
9.0101e-15
7.10155e-13
1.99914e-15
2.8991e-15
-1.51392e-14
-2.61163e-14
-1.16556e-14
-2.88348e-14
4.21476e-15
3.14381e-11
5.14486e-16
-2.006e-11
6.26741e-15
1.52911e-14
2.10008e-14
-4.95389e-09
-2.20161e-14
2.91629e-13
-5.98617e-15
2.24039e-15
3.13786e-15
4.57398e-15
3.33885e-11
-1.26443e-06
-2.22007e-07
-1.97419e-10
4.13657e-09
1.48424e-14
-6.42759e-10
-2.27381e-05
5.18757e-06
-9.52672e-10
-2.39273e-08
5.05127e-09
-8.05886e-13
-2.78664e-12
-1.1149e-07
-2.31786e-15
-1.1841e-06
-0.00662181
1.78581e-14
1.23252e-14
1.93311e-07
-2.80109e-14
1.34e-05
2.21806e-15
1.63112e-13
-1.33191e-14
1.78758e-14
5.61379e-11
1.66122e-15
1.8252e-14
-6.92873e-15
-2.72327e-15
-1.68515e-08
1.30033e-14
2.60283e-08
2.64044e-14
-4.01752e-07
1.12927e-09
1.57367e-14
8.20751e-15
4.94155e-09
-0.000143119
-6.29519e-07
1.47355e-05
6.31154e-05
6.36743e-15
0.00484196
2.08498e-11
4.71401e-08
4.15494e-06
-2.47114e-15
3.22308e-17
-1.39098e-14
6.53891e-15
0.000420111
5.83909e-15
1.02138e-05
1.91195e-15
-4.52113e-12
-3.87506e-07
2.40534e-14
2.25048e-14
-6.69371e-15
-2.1097e-14
1.59096e-14
7.0247e-15
-3.85246e-15
0.00125266
-0.0160475
7.81434e-16
-2.80454e-15
1.82784e-13
3.75239e-16
-1.17132e-10
2.80575e-15
-4.9713e-05
1.82172e-10
3.89187e-14
6.94841e-13
-1.08645e-07
-2.81182e-15
1.14315e-15
-0.000570254
1.29122e-15
-5.98644e-13
-1.76772e-14
9.93389e-13
-9.51573e-15
2.5139e-11
-5.63304e-10
3.92733e-14
-8.15629e-15
6.13552e-15
9.43032e-15
1.48435e-14
-0.00188303
1.7918e-08
8.98998e-13
-3.39526e-12
-5.82005e-08
1.38215e-15
5.28912e-15
1.2761e-14
-2.47737e-14
2.19744e-11
-2.93391e-15
-1.05744e-14
-2.09788e-14
-2.57397e-14
8.06795e-15
-9.01737e-08
5.05663e-06
0.0313056
1.3624e-14
-2.76479e-06
2.1148e-05
-1.96272e-14
2.09502e-10
-7.28097e-12
-7.92335e-15
-2.05429e-14
8.58971e-10
-1.80195e-14
5.05484e-07
-9.87715e-06
-3.55738e-08
-2.74196e-14
1.21543e-11
-1.46032e-14
-1.29066e-14
3.1953e-15
-2.79661e-10
0.00481923
3.49624e-07
-0.0034964
-7.14595e-16
1.54603e-15
-0.00393921
7.36653e-15
2.75539e-14
2.40649e-16
1.08282e-14
2.45675e-14
3.44142e-10
4.07405e-14
1.99376e-08
0.0122503
2.05824e-14
4.37967e-15
3.51503e-15
-1.08774e-14
-1.23123e-14
1.05886e-14
2.17283e-15
-1.08634e-14
1.10258e-09
8.76759e-05
-3.2575e-11
3.16137e-14
3.20453e-14
3.74739e-09
3.74096e-07
0.00783401
-2.81376e-14
-1.66658e-08
-0.00565465
-2.27314e-16
1.56935e-14
-3.3362e-16
-2.92752e-15
1.31853e-14
-3.69384e-15
-2.62927e-14
3.43814e-09
1.00957e-10
-1.33822e-14
-0.00129442
2.07752e-14
-2.74799e-12
-6.92364e-11
-5.25594e-10
1.15034e-07
-7.20823e-11
2.64448e-14
1.47901e-14
-3.68675e-12
-8.11667e-15
-2.47094e-10
6.73962e-09
6.42779e-15
1.89067e-14
-1.22576e-14
-2.42397e-07
-7.20356e-09
-5.30394e-15
-2.06436e-10
5.48243e-15
-9.69286e-16
-5.52359e-14
-1.15514e-14
1.33426e-14
1.94374e-09
4.00658e-15
7.3935e-13
-0.000135335
1.76286e-05
7.15549e-17
-2.60281e-12
7.96084e-06
-1.03779e-15
-0.00222686
-0.0195166
-1.48039e-13
4.50597e-06
3.44681e-14
-7.6503e-15
-0.0125613
1.29147e-14
-0.000488943
-0.00140852
3.01329e-11
1.07282e-14
-5.35673e-15
-1.00917e-16
-7.18519e-06
5.21957e-11
-6.27942e-16
2.23532e-14
-1.22961e-12
-7.52805e-15
1.36759e-07
2.86379e-05
-1.20272e-14
2.9236e-11
-1.64055e-14
2.73384e-15
-3.6572e-07
2.57617e-14
-2.27828e-14
4.47636e-10
2.57194e-16
0.000251334
-4.99968e-11
1.29922e-05
4.97926e-15
-2.41012e-09
-6.48121e-07
-2.71812e-15
2.17015e-08
7.65554e-12
-7.04978e-07
-9.44353e-11
-1.14484e-08
9.78317e-05
2.35318e-05
-1.27815e-11
1.52797e-06
-9.68231e-15
1.48521e-12
-2.62685e-15
1.90251e-14
9.43867e-15
-1.88317e-06
7.97528e-14
-5.45662e-08
1.58113e-14
-5.48791e-14
1.94864e-07
-1.64165e-15
8.70151e-08
-5.54159e-11
1.12888e-10
-3.03875e-14
-5.73802e-14
-8.77884e-08
-1.79459e-14
9.35316e-05
-1.29799e-14
6.22215e-14
3.32083e-11
2.36762e-10
1.69373e-07
2.84886e-08
-1.73118e-06
-1.19438e-14
1.98142e-15
-9.68639e-16
-0.000804246
-3.35587e-15
2.42885e-15
-0.000892341
7.59823e-15
1.4534e-15
-1.83517e-09
8.89216e-11
6.30445e-09
-3.78936e-08
-3.7982e-15
2.63039e-07
-8.06011e-07
1.68411e-06
-1.56159e-06
-3.39202e-08
7.27524e-11
-4.57261e-06
3.26597e-15
3.80787e-15
5.99009e-11
2.60353e-15
-0.00758543
4.28664e-11
0.00408898
-3.96943e-14
-4.66861e-09
-3.9094e-13
7.24648e-07
1.29343e-05
2.03698e-14
-5.82902e-15
-3.51976e-12
-1.08348e-14
-3.41175e-06
-2.70036e-14
-1.22255e-11
-4.52996e-14
1.05635e-14
-2.907e-14
1.71935e-14
-0.00245668
2.67265e-14
3.74607e-09
4.40651e-10
2.47943e-08
-8.06079e-10
3.3874e-11
7.94829e-10
1.6816e-09
-3.45869e-14
4.61166e-15
9.949e-09
-1.80135e-06
2.34749e-12
1.1486e-11
-1.17468e-08
5.77994e-12
2.56154e-08
5.12059e-08
-7.8484e-12
-0.00724034
-1.02418e-07
-1.10059e-15
-5.0923e-06
-5.3841e-06
-1.55344e-14
-9.10478e-15
9.49079e-15
1.34636e-14
-1.78288e-16
8.30761e-16
7.88122e-09
-7.3519e-08
4.78136e-11
7.16596e-10
0.000444176
-9.63879e-15
-6.06112e-15
-6.92495e-15
-2.59972e-15
4.53733e-11
6.35644e-10
-3.65044e-13
-3.28304e-11
-1.61099e-14
4.49366e-15
-2.89204e-13
1.58414e-14
3.97103e-08
2.47648e-14
2.26484e-14
1.89805e-14
2.71323e-14
2.47473e-05
-1.61938e-14
0.00023039
-1.36229e-14
1.23759e-14
-6.31206e-15
3.16843e-15
-3.5026e-08
3.87546e-11
1.24823e-14
2.92791e-06
4.20547e-05
1.80835e-07
-0.000370246
3.37099e-05
-1.60221e-10
-2.14832e-14
-1.67391e-14
-0.000546105
6.1219e-06
4.8833e-09
4.27854e-13
7.00673e-07
-1.14301e-14
7.06095e-15
6.34885e-10
3.47158e-15
-1.53945e-14
-1.48854e-14
2.3402e-11
-7.18658e-15
0.000200201
-1.06125e-14
-0.000777716
8.56499e-08
0.00110498
5.70128e-09
-1.53354e-14
-0.000271251
0.0006628
-0.00146979
-1.34369e-15
-5.34481e-07
4.01337e-15
9.1176e-10
-1.15946e-08
-7.08733e-08
9.57123e-05
-8.26293e-15
-5.75714e-07
-0.00176565
6.43373e-16
-8.77147e-15
-8.86165e-09
1.82353e-07
9.93661e-13
-6.50891e-12
4.26649e-11
-7.30508e-07
-9.82917e-10
-1.18688e-05
1.04672e-14
-6.21181e-14
-7.83237e-15
5.05075e-14
-2.56478e-14
2.34154e-10
3.2286e-14
-2.95428e-07
-1.2131e-14
2.49531e-09
7.18071e-08
-2.61086e-14
-6.61355e-11
-2.92436e-06
3.83272e-15
3.03461e-05
0.00123178
-1.28126e-09
-1.03516e-14
3.12956e-16
4.71211e-06
-1.93348e-17
2.16047e-07
-9.461e-08
2.27799e-14
6.42846e-08
3.5435e-09
-6.87838e-07
1.40611e-06
-1.27757e-14
-0.00356766
-4.97732e-10
-0.00987415
1.50411e-14
-3.22945e-14
0.00139761
-0.0120249
2.52932e-16
-6.89744e-09
-1.47579e-14
1.06025e-14
0.000828809
-0.00580015
4.03681e-14