/*--------------------------------*- C++ -*----------------------------------*\
| =========                 |                                                 |
| \\      /  F ield         | OpenFOAM: The Open Source CFD Toolbox           |
|  \\    /   O peration     | Version:  v2012                                 |
|   \\  /    A nd           | Website:  www.openfoam.com                      |
|    \\/     M anipulation  |                                                 |
\*---------------------------------------------------------------------------*/
FoamFile
{
    version     2.0;
    format      ascii;
    class       volScalarField;
    location    "150";
    object      k;
}
// * * * * * * * * * * * * * * * * * * * * * * * * * * * * * * * * * * * * * //

dimensions      [0 2 -2 0 0 0 0];


internalField   nonuniform List<scalar> 
13917
(
0.0165993
0.000182155
0.000211847
0.000150576
0.00016294
0.000179806
0.00015956
0.00596367
0.000157139
0.0059155
0.00205467
0.000148474
0.000162578
0.00279039
0.000164418
0.0138299
0.000148075
0.000170173
0.000197321
0.015862
0.000172315
0.000147999
0.000173688
0.000147942
0.000154113
0.000176109
0.0004234
0.00480971
0.000196844
0.000136133
0.0032221
0.000182959
0.000150839
0.0249685
0.000145705
0.015206
0.00015578
0.000161498
0.000159704
0.000175693
0.000149355
0.000145441
0.000154628
0.000198003
0.000197703
0.000223757
0.000170142
0.026499
0.0184487
0.000145702
0.00014821
0.00019902
0.00872984
0.000147989
0.000148531
0.000198425
0.00157711
0.000173433
0.000144579
0.000837138
0.0364311
0.000189739
0.000141921
0.000153615
0.00978048
0.000508708
0.000211432
0.0148884
1.30157e-05
0.0166144
0.00137069
0.023672
0.000147825
0.000145203
0.000173817
0.000155385
0.000157322
0.000144497
0.000154878
0.000151113
0.000150808
0.000148729
0.000147655
0.00188088
0.000141616
0.00871869
0.00018228
0.000144559
0.000175123
0.000146867
0.000138536
0.000154942
0.0144475
0.000143687
0.000150609
0.000207276
0.000399694
0.000150569
0.000143449
0.000230601
0.000145575
0.000144465
0.000151089
0.000144026
0.000156205
0.00793084
0.0222807
0.000183357
0.000146736
0.00129954
0.000144211
0.025322
0.00019443
0.0276584
0.00910894
0.000156371
0.000195763
0.000139833
0.000210317
0.000146852
0.000147263
0.000143164
0.000225296
0.000191045
0.0188985
0.00384079
0.00015303
0.000175962
0.000143931
0.000191942
0.00016532
0.000139491
0.0336383
0.000156304
0.00018662
0.000664269
0.0330924
0.0208923
0.000179863
0.000159092
0.00105186
0.0001435
0.00774914
0.000143536
0.000147077
0.000192512
0.00160514
0.00298824
0.0249203
0.000148301
0.000172443
0.000143003
0.000146819
0.000146925
0.000400336
0.000150241
0.000143103
0.0367535
0.000146007
0.000141362
0.000142086
0.0204365
0.000158707
0.00079626
0.033015
0.000263452
0.00782411
0.0427662
0.000130355
0.000182858
0.000148539
0.0295069
0.000157046
0.0448077
0.00018334
0.000144033
0.000150537
0.000204093
0.000164672
0.00015954
0.000154506
0.000148154
0.000148252
0.000224139
0.00021073
0.000124081
0.000148021
0.000225627
0.000136078
0.0054839
0.000184036
0.000195656
0.000208071
0.0167084
0.000143707
0.0191369
0.000159321
0.0314661
0.000145343
0.000149626
0.000166566
0.0162614
0.0181587
0.000154617
0.00201143
0.000174911
0.000173125
0.00014331
0.000204169
0.000150911
0.000140877
0.000154166
9.47241e-05
0.0256678
0.000185817
0.000178886
0.0205379
0.000151785
0.000137112
0.000137027
0.0416086
0.00021052
0.000272242
0.000143431
0.000144416
0.00177563
0.0164528
0.000136399
0.000136221
0.000149456
0.000137386
0.000137318
0.0225312
0.0264957
0.000149101
0.000131163
0.000183305
0.0230339
0.000146182
0.000143331
0.00137785
0.00910042
0.000206552
0.0211399
0.000193076
0.000143589
0.0402907
0.000184427
0.000188993
0.00018644
0.000154119
0.0258293
0.000147066
0.000174372
0.000181277
0.000149589
0.000150011
0.000153432
0.000161857
0.000145771
0.0237817
0.0136916
0.000143187
0.000136139
0.000150742
0.000136204
0.000147105
0.000161189
0.000169404
0.000143698
0.024648
0.0227739
0.000146171
0.00015749
0.00551848
0.000136687
0.000222904
0.0262997
0.00013675
0.0196206
0.000145196
0.0199822
0.000145504
0.00016148
0.000149948
0.000143271
0.00020828
0.000153042
0.000286414
0.000163109
0.0133249
0.00020569
8.47048e-05
0.0206999
0.000142385
0.000176458
0.000161724
0.000156989
0.000163536
0.00015467
0.00014418
0.000150261
0.00020384
0.00011448
0.000173539
0.000154298
0.000143166
0.0352703
0.0141887
0.000143278
1.31291e-05
0.000157027
0.0122027
0.000199042
0.0224072
0.0475148
0.000374698
0.000245723
0.000155971
0.00115306
0.0127942
0.000211761
0.000160426
0.000163799
0.000276577
0.000149374
0.000188242
0.000194828
0.000147801
0.0286285
0.000141647
0.000171677
0.000138861
0.00915893
0.000139489
0.000171851
0.000176695
0.000308167
0.000145338
0.000186503
0.00369053
0.000150234
0.000149382
0.0262882
0.0049275
0.0270177
0.00128371
0.0001364
0.000149004
0.0111892
0.000218635
0.000136506
0.000160202
0.000148078
0.000197515
0.000172464
0.000198554
0.000194903
0.000223062
0.000170791
0.021939
0.000144282
0.000150252
0.000216742
0.000213861
0.000147614
0.0149922
0.000170668
0.00347912
0.000148827
0.000208759
3.73857e-05
0.00551027
0.000148143
0.000254614
0.00398529
0.000180414
0.00014646
5.27649e-05
0.000140185
0.0371461
0.000210817
0.000147841
0.00869089
0.000151385
0.00286004
0.000139905
0.0172804
0.00328894
0.000154849
0.0036455
0.000216519
0.000153193
0.0296339
0.000205278
0.000153728
0.000208746
0.000148456
0.000222779
0.000210355
0.000141609
0.000158526
0.000154214
0.000143011
0.000140469
0.00014465
0.0304356
0.000262667
0.000149542
0.000145123
0.000147136
0.000175681
0.0170161
0.000137629
0.000130405
0.00019967
0.000209885
0.000143604
0.000154389
0.0438267
0.000103403
0.000761259
0.000198656
0.000154009
0.00014103
0.000137147
0.000168087
0.000140397
0.000137691
0.000149455
0.000137268
0.000140675
0.0346264
0.000148765
0.000176704
0.0265231
0.000175939
0.000141126
0.000146575
0.0277867
0.000167088
0.0164812
0.00013849
0.000143599
0.000140554
0.000137706
0.000155355
0.000152024
0.0424597
6.64574e-05
0.0103973
0.000143556
0.000167479
0.000140943
0.000150527
0.000191678
0.0292351
0.000147861
0.000945736
0.000141457
0.00014209
0.000146784
0.000151498
0.000140387
0.000147911
0.035233
0.0420302
0.000140163
0.000423116
0.000200267
0.000147357
0.000177567
0.000184892
0.0286652
0.00015968
0.00803541
0.00463026
0.00450769
0.000152154
0.000384593
0.000102459
0.000153714
0.00873066
0.000139573
0.000147655
0.000150568
0.000157782
0.000170957
0.00020747
0.000178224
0.000158229
0.000161098
0.000152373
0.000184804
0.000149491
0.00416555
0.00016897
0.000162834
0.0421322
0.000141572
0.000186098
0.000207144
0.000139596
0.0381343
0.000143021
0.000137655
0.000176047
0.000138494
0.000149576
0.000202198
0.0408554
0.00432489
0.000142016
0.000151145
0.000152681
0.00912592
0.0230117
0.000149003
0.000148281
0.000141791
0.000179438
0.0071759
0.000144464
0.000146231
0.00014923
0.00014272
0.000181408
0.000162459
0.000141395
0.00017844
0.000139496
0.000147409
0.000153842
0.0225203
0.000136008
0.000154418
0.000145784
0.000166779
0.000181346
0.000207774
0.000182101
0.000232314
0.0001531
0.000236301
0.0288116
0.0309755
0.0295992
0.000142607
0.000146475
0.000147854
0.000144817
0.00998955
0.000137092
0.0120102
0.000159152
0.0175483
0.000228944
0.000154741
0.0105042
0.000140127
0.000180633
0.000148843
0.000149583
0.0205183
0.000138022
0.000211977
0.000144949
0.000152317
0.000146824
0.000208576
0.000179621
0.000135866
0.000196652
0.00017697
0.0064331
0.000301695
0.0358292
0.0294968
0.000136005
0.0170152
0.00013776
0.035676
0.0028928
0.000149409
5.29684e-05
0.000144651
0.000168525
0.000154093
0.000138087
0.000148981
0.000161075
0.000110782
0.000142481
0.00018122
0.000147357
0.000135726
0.000144629
0.000243261
0.0105402
0.00935433
0.000185162
0.000162105
7.74719e-05
0.0240581
0.000140267
0.0191237
0.000159864
0.000191752
0.000144819
9.73595e-05
0.000142481
0.000186056
0.000147339
0.00645846
0.000169421
0.0139009
0.000141771
0.000168437
0.000145538
0.000146512
0.0225427
0.00028331
0.000146376
0.000201441
0.000143266
0.000148463
0.000145032
0.02376
0.000142502
0.000162489
0.000137016
0.000145995
0.000214132
0.00014412
0.000198103
0.000149511
0.000139586
0.0336469
0.000181771
0.000148652
0.00989442
0.000212151
0.00311809
0.000213923
0.000139919
0.000166024
0.0217784
0.000204306
0.000166407
0.000155767
0.000192356
0.000148137
0.000144496
0.000462682
0.000182782
0.000157863
0.045257
0.000169937
0.0195916
0.0265643
0.00010894
0.00017037
0.000206802
0.0208955
0.000144197
0.000199197
0.00046423
0.000139633
0.000143298
0.000144635
0.0001632
0.000149441
0.017378
0.000166791
0.000141228
0.00019302
0.000140999
0.022702
0.000145192
0.000143975
0.0407514
0.00018026
0.00453898
0.00014832
0.000137211
0.000143775
0.000149995
0.000161646
0.000143251
0.0186131
0.000165824
0.00862893
0.00442122
0.000210695
0.0360329
0.000151241
0.000148354
0.000145861
0.0273927
0.00529207
0.000159908
0.0184717
0.0113818
0.000139612
0.00014364
0.000155414
0.00569969
0.00431014
0.000169795
0.000149847
0.000154513
0.000191811
0.000154577
0.00019794
0.000167039
0.000150312
0.000151202
0.000148636
0.000161322
0.000161419
0.000223319
0.000157796
0.000182391
0.018292
0.000151548
0.012685
0.000155223
0.000169913
0.00015866
0.000207922
0.000147104
0.000179519
0.00794577
0.00392521
0.000145013
0.000157755
0.000155777
0.00014384
0.000147129
0.000184588
5.89292e-05
0.000233113
0.000199373
0.000139669
0.000236189
0.000157081
0.000157925
0.000203545
0.00014942
0.000180574
0.000298579
0.000135675
0.000180418
0.000188195
0.000166607
0.00014261
0.000140643
0.000144441
0.0145785
0.000150625
0.000145765
0.000171031
0.000143571
0.000141735
0.000196226
0.000307303
0.000245087
0.000797908
0.000192453
0.0128549
0.000147165
0.000159443
0.000262433
0.000145012
0.000211943
0.000146031
0.000143124
0.000148215
0.000158767
0.000210897
0.000142543
0.00144848
0.000148713
0.00372373
0.000155282
0.000159416
0.000138932
0.000186934
0.000162114
0.0229401
0.000249796
0.000148918
0.0222948
0.000151502
0.0224186
0.000153589
0.000650279
0.000153356
0.000141921
0.000144789
0.0257904
0.000161237
0.00666884
0.00222175
0.000143735
0.000166967
0.000130999
0.000170779
0.00302131
0.000131295
0.0358012
0.000154522
0.000645755
0.000195242
0.0039521
0.000137297
0.000142603
0.00019726
0.00013988
0.00014773
0.000153143
0.000146167
0.000171168
0.000137141
0.000234962
0.000150399
0.0158767
0.022339
0.0120473
0.012767
7.20445e-05
0.014557
0.0114668
0.000139127
0.000148218
0.000146316
0.000151584
0.000141869
0.000161566
0.000143144
0.0194651
0.000148031
0.000129894
0.000150303
0.000163423
0.000195735
0.000143091
0.000177613
0.000151552
0.00015177
0.000158763
0.000139768
0.0385242
0.000184389
0.000906322
0.00014331
0.000144806
0.000148846
0.000149144
0.0377754
0.000139318
0.000245473
0.000142259
0.00445515
0.000162083
0.000143403
0.000180288
0.000193651
0.000139449
0.00395275
0.0138297
0.000155384
0.000186847
0.000139792
0.000243023
0.000143937
0.000148982
0.0202369
0.000144903
0.000150882
0.000191712
0.0192705
0.000139378
0.0108939
0.000109777
0.000148263
0.000152842
0.000146518
0.000104838
0.000144519
0.000198164
0.000147702
0.0388627
0.000162285
0.0289315
0.000145084
0.000136522
0.00379519
0.000153747
0.000150014
0.0253119
0.000152808
0.000140437
0.0115483
0.000149409
0.00014858
0.000182644
0.000153357
0.011238
0.000175537
0.000183951
0.000204466
0.000154347
0.0365433
0.000151187
0.000181442
0.00014394
0.0260512
0.00476808
0.000148704
0.000143961
0.000147596
0.00014902
0.000140844
0.000141125
0.000143537
0.000144593
0.000163231
0.000135543
0.000152365
0.000186027
0.0302657
0.0237508
0.000190105
0.00014884
0.00384617
0.000142638
0.000251003
0.00569986
0.00648655
0.000137454
0.000139253
0.000145222
0.00014733
0.000137236
0.000140825
0.000143087
0.000171146
0.000140499
0.0150916
0.0130877
0.000141029
0.0236426
0.000144054
0.00014468
0.000169663
0.0239186
0.000188682
0.000143138
0.00490755
0.000144632
0.000144756
0.000177069
0.000148724
0.000422818
0.00015118
0.00114623
0.000141134
0.000143367
0.000167312
0.00259995
0.000152805
0.0258012
0.000158047
0.00015421
0.000153687
0.000144849
0.000140407
0.000191905
0.000166141
0.000157479
0.0293456
0.0172829
0.00111797
0.000192968
0.000143165
0.0297865
0.000143101
0.0477651
0.000180046
0.000158718
0.000152252
0.0349253
0.00547061
0.000767277
0.000169341
0.00529926
0.000140031
0.000143158
0.000167114
0.000150118
0.000147455
0.000147954
0.0192869
0.000143478
0.000159401
0.0230291
0.000143809
0.000136475
0.0104461
0.0228586
0.000151206
0.000138832
0.000159078
0.000146365
0.000144419
0.000188342
0.000157758
0.000146051
0.00819981
0.000163519
0.000831752
0.00438404
0.000181205
0.0260475
0.000148542
0.000150079
0.000166113
0.0190421
0.00227889
7.3989e-06
0.000169376
0.000149282
0.000151292
0.000136939
0.0252637
0.000160525
0.000149984
0.000177522
0.00014322
0.00401609
0.00018643
0.000198394
0.000179426
6.48884e-05
0.00362256
0.0363938
0.0294073
0.000161677
0.000147931
0.000136705
0.000178996
0.000183964
0.00243979
0.000156362
0.000149866
0.000158138
0.0217817
0.000153069
0.0311872
0.000167977
0.000189116
0.0451529
0.000142195
0.000192327
0.000154189
0.00014766
0.000201282
0.000495189
0.000137947
0.000139208
0.000152416
0.00222351
0.000140483
0.000152868
0.000153951
0.000151082
0.00014672
0.000193943
0.000182762
0.000149906
0.000142965
0.00034835
9.90642e-05
0.000174327
0.0367163
0.000148786
0.000144328
0.00238596
0.000145881
0.000153356
0.0286625
0.0273717
0.000172751
0.000179799
0.000159478
0.014972
0.000228052
0.000169421
0.000709996
0.000144082
0.000184359
0.0295062
0.000210636
0.00767597
0.00137927
0.000140463
0.000147095
0.000161671
0.000146966
0.000147685
0.000233725
0.000144811
0.000172984
0.000137444
0.000178796
0.0277474
0.000153517
0.0135343
0.000293212
0.000144391
0.000184964
0.000158388
0.000152544
0.000143917
0.0298719
0.0001845
0.0205735
0.000161869
0.0400306
0.000189423
0.000137925
0.0104286
0.000167965
0.000116883
0.000143638
0.000423288
0.000143951
0.000158678
0.000175264
0.000157402
0.00014944
0.000178527
0.0254079
0.000142225
0.000228833
0.00135804
0.000147766
0.000142454
0.000197712
0.00112463
0.000258876
0.000141294
0.000162737
0.000117175
0.00678247
0.0179881
0.000147077
0.00013947
0.000140431
0.000144882
0.000165726
0.000154962
0.000610491
0.000149391
0.000155689
0.000427953
0.000144041
0.000188876
0.0225107
0.0408953
0.000148505
0.000144514
0.00013952
0.000151988
0.000183402
0.0359538
0.000983911
0.000196192
0.000166014
0.000175755
0.000153833
0.000402849
0.000158085
0.000196465
0.000143689
0.000233
0.000442261
0.000140429
0.000148107
0.0271221
0.000174683
0.000317166
0.0327012
0.000203085
0.000143737
0.00305087
0.000157654
0.000141927
0.0230173
0.00815988
0.000143769
0.000173019
0.000196064
0.00017011
0.000150749
0.000137
0.000142612
0.000140871
0.000143699
0.00016359
0.000181423
0.0220457
0.000170897
0.00015827
0.000164234
0.00018853
0.000142626
0.000171364
0.000261962
0.000208519
0.0231338
0.00015254
0.000136887
0.027252
0.000140067
0.00164484
0.00015278
0.000177562
0.000149247
0.000140507
0.00025782
0.000159132
0.000152354
0.00014468
0.0252816
0.000232952
0.024014
0.000148149
0.000146988
0.00245404
0.000141796
0.000141131
0.000210077
0.00863574
0.000160912
0.000166287
0.000150492
0.000809494
0.000142723
0.000157678
0.000149395
0.000136694
0.000205481
0.000142739
0.000140623
8.35846e-05
0.000180125
0.0226344
0.000208644
0.000142217
0.000163122
0.000141731
0.000143409
0.000153759
0.000149637
0.000147563
0.000207195
0.000146952
0.000181973
0.000195645
0.000118965
0.000146589
0.000126296
0.000144216
0.0310781
0.000137421
0.0124319
0.000184359
0.000152862
0.000176855
0.000166031
0.000163432
0.00014667
0.00017531
0.000140953
0.000140466
0.00300052
0.000172259
0.000163044
0.000142824
0.000144989
0.000139472
0.000257066
0.000143157
0.0214115
0.000173324
0.000143825
0.000142987
0.000139016
0.000173535
0.000632592
0.00160419
0.00018996
0.00374758
0.000174206
0.000191622
0.000155506
0.0150982
0.000137402
0.000137073
0.000157382
0.00097765
0.000139294
0.0268416
0.00014739
0.000143319
0.000209291
0.000404737
0.0158349
0.00134098
0.000158274
0.000241326
0.000762589
0.000140947
0.0153226
0.000144113
0.000144107
0.0181187
0.000138235
0.0264269
0.00109903
0.000142051
0.00014478
0.000141168
0.0330041
0.000146124
0.000136996
0.000186292
0.000142283
0.000141449
0.000144448
0.000140959
0.000173355
0.000147842
0.000154305
0.000138734
9.46869e-05
0.000337809
0.000138932
0.000139058
0.000150957
0.000142811
0.000154648
0.000148331
0.000144746
0.000148004
0.000143108
0.000151575
0.000146097
0.000227434
0.000139014
0.000187331
0.000147489
0.000187368
0.000140986
0.000147377
0.000143238
0.000137787
0.000173239
0.000161509
0.000156624
0.0249795
0.000248151
0.0359992
0.0223982
0.000187515
0.0148758
0.000147325
0.000145797
0.000260924
0.0477513
0.000138852
0.024049
0.000139878
0.000195038
0.00744135
0.000154441
0.00018676
0.0125946
0.0183201
0.000142913
0.000174169
0.000141217
0.00117894
0.000155461
0.0277641
0.0178584
0.000148206
0.0001842
0.000169333
0.000148661
0.0109298
0.00275081
0.000153586
0.000140384
0.000462077
0.0273855
0.000140936
0.00016458
0.00014917
0.000326055
0.000205921
0.000147017
0.000141338
0.000228964
0.000143051
0.000144419
0.000150036
0.000139395
0.00422432
0.000168514
0.000161549
0.0308108
0.000143733
0.000198577
0.000147682
0.000547195
0.000178031
0.000503522
0.000140704
0.000160197
0.000140748
0.000145365
0.000154198
0.00014635
0.0112411
0.000152083
0.000139819
0.000142281
0.00134835
0.000140427
0.00383244
0.0340638
0.0133767
0.000146736
0.000141958
0.00014282
0.0124176
0.000148694
0.00405231
0.000143793
0.000443515
0.000153158
0.000151782
0.000245055
0.000147459
0.000146645
0.0262952
0.000196655
0.0262325
0.000147847
0.0163349
0.00386218
0.000147056
0.026096
0.000148077
0.000159463
0.0441831
0.000154578
0.000181869
0.0200719
0.000164192
0.000182983
0.00014635
0.000565711
0.000144341
0.00296117
0.000142789
0.0191784
0.000144501
0.000144495
0.000152659
0.00446943
0.000142283
0.000253074
0.000190216
0.0138999
0.000143251
0.000164502
0.0254421
0.00949676
0.0124342
0.000183299
0.000141026
0.000195783
0.000214812
0.00015502
8.39486e-05
0.000136843
0.000205623
0.0156028
0.000142714
0.0181488
0.000143098
0.0124809
0.00201744
0.000155168
0.000154712
0.00252126
0.0122206
0.000144457
0.000152489
0.000139575
0.000147184
0.00520783
0.000181097
0.000250519
0.000147418
0.0001612
0.0266543
6.69689e-05
0.00788141
0.000183395
0.000141762
0.00014383
0.000209194
0.0450831
0.0220364
0.0102888
0.000206869
0.000175856
0.000375605
0.0208227
0.0311302
0.00787108
0.00014026
0.000184337
0.00017324
0.000184663
0.000145634
0.000157743
0.000180728
0.00025798
0.0132834
0.000148813
0.0180585
0.0296322
0.000183584
0.000144116
0.000144199
0.00132244
0.000142414
0.0369536
0.000162038
0.000164671
0.000255485
0.00113384
0.000138865
0.000168437
0.000162637
0.000145896
0.0298847
0.000171207
0.0366394
0.000142923
0.0264172
0.000245564
0.000208372
0.000137783
0.000160055
0.000165474
0.000238314
0.000198044
0.000183975
0.00545992
0.000317681
0.000131741
0.000158856
0.000148129
0.000199245
0.0165473
0.000139665
0.000138538
0.000152357
0.00492012
0.00229158
0.000143258
0.000180854
0.000243964
0.000140433
0.000783196
0.000155013
0.0350349
0.000164024
0.00409873
0.00585591
0.000161268
0.000155859
9.33996e-05
0.000142431
0.000187888
0.0220781
0.00016378
0.000222136
0.00016384
0.00017958
0.042874
0.0147296
0.000146134
0.00482744
4.36537e-05
0.000138262
0.000201325
0.000180384
0.000201503
0.00636495
0.000112915
0.00993827
0.000193678
0.0235725
0.000160781
0.000181262
0.000138018
0.000148073
0.000146554
0.000140782
0.000250302
0.000281152
0.000137782
0.000185415
0.000208933
0.000142271
0.00846807
0.0129295
0.000136074
0.000148397
0.000139636
0.000151662
0.000173217
0.000144323
0.0431871
0.00016243
0.000181345
0.000157864
0.000184215
0.000217415
0.000168152
0.0158193
0.00014592
0.000152053
0.000137593
0.000142383
0.0232611
0.000190738
0.000163595
0.0370724
0.000147826
0.000150012
0.000167182
0.000140159
0.000143595
0.00019689
0.00015781
0.0221514
0.0214658
0.0419014
0.000146576
0.0313084
0.000143271
0.00019997
0.000138673
0.0002011
0.0367703
0.000142958
0.00269264
0.0229949
0.000168964
0.000149633
0.000140437
0.0001622
0.0278839
0.000139177
0.000148544
0.000151108
0.000162542
0.000205587
0.00015228
0.000158373
0.000141441
0.000151516
0.000102308
0.000167076
0.000156388
0.000198673
0.000329642
0.0264809
0.000604179
0.000155599
0.00015161
0.0216115
0.000145946
0.000182181
0.00014703
0.00585991
0.000148575
0.00014872
0.000209227
0.0215217
0.000143799
0.000140745
0.00013725
0.000199556
0.0150652
0.000197778
0.000144451
0.000155231
0.000140526
0.0310668
0.000144713
0.000139832
0.000179437
0.000147748
0.000254811
0.000168316
0.00118278
0.000149598
0.000141038
0.000164795
0.000181922
0.000209247
0.000148062
0.000149433
0.000148023
0.0245306
0.000145082
0.000150506
0.0133146
0.000153223
9.34709e-05
0.000156278
0.0001436
0.000144658
0.00285387
0.000153483
0.0149941
0.00196116
0.000134532
0.00259196
0.000149233
0.000192548
0.000177778
0.000150973
0.000138141
0.000134298
0.000144245
0.00544821
0.000174756
0.0309653
0.0235591
0.000141156
2.15126e-05
0.000175025
0.000130437
0.000144442
0.00387656
0.0159786
0.00276306
0.000142172
0.000152914
0.000149791
0.0086799
0.0223551
0.000159779
0.000144586
0.000163403
0.0423931
0.000147556
0.00015319
0.000152856
0.000193897
0.0002422
0.000137544
0.0258629
0.000167526
0.000144009
0.0181832
0.000178696
0.00199435
0.000872669
0.00016846
0.000160091
0.000151826
0.000159451
0.000150225
0.00020855
0.00018495
0.000144722
0.000155879
0.000224432
0.0266219
0.000139002
0.000196187
0.032097
0.000606896
0.000145207
0.000146531
0.00249558
0.000109919
0.001244
0.000143615
0.0280506
0.000181133
0.000135336
0.0215755
0.000161338
0.000148242
0.000341521
0.000146183
7.99163e-05
0.000141647
0.000133233
0.000147081
0.000137219
0.00981951
0.00013742
0.00014113
0.000185543
0.000156326
0.000155737
0.000200535
0.000146744
0.000144512
0.000152769
0.000151346
0.00400624
0.00389494
0.000223715
0.00249659
0.000179426
0.00255723
0.000355297
0.0212944
0.0312303
0.0117035
0.000140935
0.000164231
0.000144608
0.000147093
0.000142879
0.00014894
0.000207103
0.000179241
0.000176774
0.00014208
0.000143877
0.00017796
0.000148446
0.000149281
0.000146837
0.0336263
0.000166283
0.0132438
0.000146357
0.00267015
0.000149731
0.00014845
0.000150203
0.000172361
0.000142014
0.000186134
0.0249379
0.000178871
0.0260836
0.00242677
0.000157194
0.000161069
0.00355046
0.000196186
0.000138429
0.000142542
0.00013454
0.0230277
0.000133131
0.000534282
0.000162747
0.000183532
0.00453446
0.00845623
0.00018261
0.0321943
0.000140952
0.000136415
0.000268642
0.00155278
0.000145324
0.000146363
0.000486697
0.000140139
0.00022535
0.000153281
0.000143112
0.000158172
0.000145741
0.0001815
0.0234049
0.0230707
0.000156564
0.000144112
0.000198078
0.00015192
0.000186967
0.000140606
0.000199263
0.000191294
0.00014921
0.00014789
0.000135009
0.000209795
0.000428584
0.000203521
0.00312033
0.000164483
0.0016742
0.000185094
0.000193567
0.00926511
0.000143447
0.0236693
0.000151144
0.0336443
0.000253198
0.0242942
0.00729088
0.00014924
0.0001777
0.00036959
0.000146348
0.0200263
0.000146419
0.000145945
0.000157897
0.000150146
0.00016344
0.000240399
0.000144897
0.0447347
0.000158501
0.000177512
0.000151759
0.000148392
0.000147326
0.000206554
0.000191041
0.046651
0.000176004
0.000137941
0.000139628
0.000149699
0.000204884
0.000155157
0.000150754
0.000157606
0.000217071
0.000164176
0.000182525
0.00018747
0.0231617
0.000163922
0.00016523
0.000144456
0.000158069
0.0029439
0.00295914
0.000184966
0.000140188
0.0224374
0.000165972
0.000143278
0.000174208
0.0256307
0.00396756
0.000169723
0.000140106
0.0342364
0.00014952
0.0001405
0.000138307
0.0186788
7.39453e-05
0.000157164
0.0156026
0.00376169
0.000163207
0.000186033
0.000179932
0.0368571
0.000165574
0.0209646
0.000149673
0.00237832
0.000178722
0.0222168
0.000166206
0.000141735
0.0280828
0.000144844
0.000151045
0.0113212
0.00270469
0.000237171
0.00545755
0.000155331
0.000152123
5.32216e-05
0.000143253
0.000142328
0.000146146
0.000173699
0.000144292
0.0001648
0.000164239
0.00373806
4.45759e-05
0.000150404
0.0205921
0.000162044
0.0278621
0.026127
0.000145923
0.000148186
0.000157263
0.000243413
0.000206107
0.000180185
0.0257267
0.0267376
0.000599181
0.000150728
0.00149008
0.021142
0.000466881
0.0001615
0.000147502
0.0001455
0.000146134
0.00015151
0.000142461
0.000165611
0.0237806
0.000169719
0.00175224
0.0275116
0.00120621
0.0444041
0.0259927
0.000166674
0.0268428
0.000195287
0.000185139
0.000138341
0.000146647
0.000184002
0.0231527
0.0001506
0.0191635
0.0268118
0.000141503
0.000146727
0.000146829
0.000200151
0.000149924
0.000182194
0.0231393
0.000138803
0.000143689
0.000141141
0.000150869
0.000192415
0.024566
0.000174286
0.00249056
0.000196346
0.000142421
0.00376392
0.000209348
0.000146521
0.000226919
7.37078e-05
0.0464521
0.0148646
0.0238087
0.000145858
0.000269783
0.0261502
0.000219342
0.00187917
0.000142779
0.000153452
0.000155267
0.000153536
0.00680016
0.000180233
0.000147979
0.000160726
0.0035674
0.026864
0.000149999
0.000107777
0.0381651
0.0248868
0.000147865
0.000162492
0.000193501
0.000143373
0.000143954
0.0314443
0.000142241
0.000225766
0.00322216
0.0096347
0.000141807
0.000198502
0.000206746
0.000142967
0.000136169
0.0223868
0.0249013
0.000148837
0.000169407
0.000212006
0.000209797
0.0286343
0.0128922
0.000158775
0.00407236
0.00486887
0.000168427
0.000141607
8.72417e-05
0.000136822
0.000137106
0.0221295
0.000174724
0.000189108
0.000155729
0.000163226
0.000142384
0.000137772
0.000150212
0.000151049
0.0204067
0.000155363
0.00546673
0.0191241
0.000175713
0.000184372
0.0313043
0.0183887
0.0244975
0.000143204
0.000156468
0.000169003
0.000158313
0.0002166
0.00438861
0.00015009
0.00121388
0.0274546
0.000160257
0.000191857
0.000185473
0.000193425
0.000195009
0.000152281
0.000197046
0.000198991
0.000202598
0.000207113
0.00019693
0.000187034
0.000163507
0.000140913
0.000165811
0.00019233
0.000142097
5.33496e-05
0.0309342
0.000246028
0.0259061
0.000135769
0.000140283
0.00253931
0.00239276
0.000150748
0.000154729
0.00018134
0.0315952
0.000421571
0.000146377
0.000164307
0.000157436
0.0101567
0.00434718
0.000154881
0.000252293
0.0266295
0.000193417
0.0212386
0.000189309
0.00394618
0.0295126
0.000130425
0.0265959
0.0304986
0.000151523
0.000183547
0.000193091
0.000160038
0.000141582
0.000356597
0.0192531
0.00014203
0.000142424
0.0444239
0.000155353
0.000186516
0.000148389
0.000221263
0.000202173
0.0277362
0.0266006
0.000146429
0.000143689
0.000150546
0.000154232
0.0167136
0.000517386
0.0168663
0.000190153
0.00024765
0.00714641
0.000154188
0.000140146
0.0270594
0.000142433
0.0232958
0.000142794
0.0232964
0.000151714
0.000151149
0.00218475
0.000144436
0.000198203
0.00327941
0.000160673
0.000154373
0.000152055
0.000204468
0.0228927
0.000222268
0.0284
0.000163997
0.000153042
0.000160383
0.000185884
0.0331627
0.0382495
0.000193583
0.000208496
0.000201694
0.000467237
0.000151546
0.000142192
0.000138972
0.00013848
0.000242918
0.000148279
0.00407835
0.000177811
0.000207637
0.000142922
0.00341018
0.012133
0.0104401
0.000144341
0.000152551
0.000133419
0.0276398
0.000176103
0.00434353
0.000239242
0.000200112
0.000237217
0.000134775
0.000168765
0.00021614
0.000245348
0.000223543
0.000144513
0.000203958
0.000149688
0.000147878
0.000211945
0.00136138
0.0106397
0.000148648
0.000190064
0.000181524
0.0409448
0.0188432
0.0141359
0.0113791
0.000142917
0.000178975
0.000147075
0.000205444
0.000144222
0.000198435
0.000153975
0.000174647
0.00303101
0.00259229
0.00015912
0.000232263
0.030285
0.000195123
0.000154713
0.00485052
0.000193163
0.000150715
0.000149698
0.00818122
0.000162386
0.000206077
0.00025569
0.00395252
0.0189849
0.000157974
0.0063885
0.0244496
0.00148281
0.000281632
0.000164923
0.000196246
0.000192379
0.0115466
0.000244107
0.000150266
0.00015432
0.000216783
7.68847e-05
0.000161953
0.041628
0.00377107
6.92209e-05
0.000157973
0.00926925
0.000155819
0.0228421
0.000214166
8.46282e-05
0.0161946
0.00014047
0.00013333
0.0259304
0.0244165
0.000128341
0.00014994
0.000179035
0.00016803
0.0037089
0.000354254
0.0306773
0.00015932
0.0309538
0.000202534
0.0137406
0.00015008
0.000271336
0.0459599
0.00016261
0.000190286
0.000135291
0.000155781
0.000146947
0.00382723
0.000143162
0.000146665
0.027642
0.000268621
0.000138145
0.0293679
0.000151064
0.000146599
0.000143574
0.000142072
0.000148154
0.000194861
0.0308603
0.000139279
0.000694973
0.000184595
0.000175358
0.000103071
0.00019048
0.000158467
0.000164386
0.000142936
0.00348769
0.000163067
0.0308548
0.000164695
0.00344324
0.000194381
0.000181941
0.000206742
0.0310769
0.000139435
0.0225596
0.00017776
0.000182651
0.000181914
0.000143582
0.000189606
0.00020713
0.000146406
0.0102028
0.000143667
0.0108225
0.000201306
0.0374239
0.000203657
0.000207181
0.0257992
0.000147179
0.000144221
0.000181812
0.000152904
0.000148151
0.000148385
0.000161326
0.000142629
0.000142435
0.000152096
0.000180767
0.000153762
0.000161321
0.00015355
0.000182721
0.000192705
0.000154633
0.0142854
0.000153932
0.000143138
0.000191933
0.000171974
0.000153898
0.000142641
0.000103642
0.000153348
0.0262045
0.000153958
0.000196385
0.000143326
0.000146018
0.000238916
0.0333286
0.000186094
0.000173059
0.000135363
0.0285803
0.000147205
0.000142162
0.000188353
0.000154987
0.000207034
0.0300451
0.000193534
0.000307781
0.000178076
0.0190953
0.000146607
0.000147381
0.000182846
0.00421898
0.000180479
0.000191855
0.0429919
0.000161807
0.000146841
0.000160648
0.000217097
0.000178551
0.000146656
0.000193747
0.000191694
0.000179742
0.000148055
0.000146861
0.000218466
0.000179846
0.000112868
0.00321769
0.000155221
0.00018498
0.000147905
0.00017348
0.0173931
0.000148142
0.000209904
0.000725528
0.000186309
0.0180799
0.000145917
0.000145699
0.000142721
0.025082
0.000208885
0.000154151
0.000227712
0.000195745
0.000147683
0.000146095
0.000189206
0.02749
0.000226898
0.0295009
0.000237039
0.000163163
0.000247105
0.000198127
0.000163209
0.00362287
0.000190699
0.00344261
0.000146263