/*--------------------------------*- C++ -*----------------------------------*\
| =========                 |                                                 |
| \\      /  F ield         | OpenFOAM: The Open Source CFD Toolbox           |
|  \\    /   O peration     | Version:  v2012                                 |
|   \\  /    A nd           | Website:  www.openfoam.com                      |
|    \\/     M anipulation  |                                                 |
\*---------------------------------------------------------------------------*/
FoamFile
{
    version     2.0;
    format      ascii;
    class       volScalarField;
    location    "100";
    object      k;
}
// * * * * * * * * * * * * * * * * * * * * * * * * * * * * * * * * * * * * * //

dimensions      [0 2 -2 0 0 0 0];


internalField   nonuniform List<scalar> 
13749
(
0.014355
6.48968e-05
8.83472e-05
7.21773e-05
0.0405282
4.61972e-05
0.0237044
8.39494e-05
0.000160555
7.17797e-05
4.63647e-05
8.92113e-05
8.84708e-05
0.0267513
7.67433e-05
0.0268094
0.000112381
8.31747e-05
0.00280122
5.19533e-05
0.031164
0.042587
4.80339e-05
9.23012e-05
9.30153e-05
4.60898e-05
7.79577e-05
0.000120741
0.0455246
0.0289191
0.000227987
7.35864e-05
0.000165227
7.68986e-05
0.00916089
0.027178
0.0437042
7.90502e-05
0.00944334
0.0225713
8.45208e-05
0.000180339
6.58999e-05
0.0435293
5.13087e-05
6.51468e-05
5.04701e-05
7.09688e-05
0.000100542
8.31301e-05
9.25993e-05
5.14046e-05
0.0207415
6.84428e-05
8.38606e-05
0.0277239
0.0446567
9.42419e-05
5.11801e-05
0.000128621
7.33309e-05
0.00075589
7.2077e-05
4.72748e-05
0.000113913
0.00513199
9.20086e-05
0.0002145
0.0235316
0.0133094
9.30653e-05
0.00080068
8.08417e-05
0.0392661
8.44655e-05
0.0379856
7.28429e-05
4.4317e-05
0.0244729
6.52587e-05
0.000645211
9.35296e-05
9.48702e-05
5.00043e-05
0.0482919
5.93463e-05
0.0197722
9.20873e-05
0.0331893
0.000112479
6.95028e-05
0.00105786
4.61696e-05
0.00015974
8.40246e-05
0.0351695
0.0241127
9.61453e-05
0.0321662
5.106e-05
7.34443e-05
0.0224681
7.83425e-05
0.000173076
4.62252e-05
8.61101e-05
6.92231e-05
0.00387288
4.44364e-05
0.0304083
7.87344e-05
0.00208984
0.0203722
8.35315e-05
0.00011602
0.000160236
7.24065e-05
8.92918e-05
0.00012233
8.30851e-05
6.80633e-05
8.56808e-05
4.5661e-05
6.35904e-05
5.0551e-05
0.0466466
9.06597e-05
8.44651e-05
6.34403e-05
0.0084037
5.037e-05
0.0199418
0.000122148
0.0311081
0.000184781
0.0428514
0.0301821
0.00012509
4.56006e-05
6.14123e-05
0.0319264
5.12679e-05
6.80688e-05
0.0125322
7.8387e-05
4.46932e-05
0.0337865
0.0229326
0.0386706
0.0431817
5.11334e-05
0.0307279
4.56541e-05
0.000358319
0.0477688
8.54502e-05
0.0171092
0.000274442
7.5658e-05
7.58736e-05
8.83449e-05
4.59827e-05
0.000100195
4.94676e-05
0.000678057
8.77475e-05
5.06814e-05
7.86356e-05
0.039764
0.000220218
7.95017e-05
4.58959e-05
0.0454916
0.0310573
0.000120813
8.77611e-05
0.000192337
0.000864456
0.000120685
0.0402933
9.0799e-05
8.46072e-05
0.00019862
0.0130178
8.82149e-05
6.13748e-05
6.80855e-05
5.51338e-05
0.0088216
7.10877e-05
0.0403819
0.000644329
8.72958e-05
8.77568e-05
5.9087e-05
5.47478e-05
0.000122277
9.72883e-05
0.000102869
0.00150775
0.0245789
8.82175e-05
0.0480244
0.0214285
6.96056e-05
0.016446
0.00018035
0.0445818
5.05507e-05
5.06435e-05
8.47587e-05
0.0118546
9.45228e-05
6.63698e-05
0.0196569
0.00699872
8.81086e-05
0.0242213
8.49706e-05
6.81836e-05
5.04759e-05
0.0297177
0.00016989
9.08666e-05
0.00971715
0.0401265
0.0125978
4.50968e-05
0.0157847
6.77718e-05
0.0092903
0.0109612
6.73457e-05
4.58336e-05
8.1879e-05
4.44824e-05
0.0335275
6.54428e-05
0.000413
4.58174e-05
0.0180447
0.00017799
6.81752e-05
6.90473e-05
4.70647e-05
4.81351e-05
7.10665e-05
6.66912e-05
0.00174476
0.000734773
7.90981e-05
5.95803e-05
0.0376857
0.0281908
8.21625e-05
4.74719e-05
0.0318598
0.000150053
8.45378e-05
6.39024e-05
0.0193006
0.0460383
7.91988e-05
9.45532e-05
6.45283e-05
4.4434e-05
4.48691e-05
0.000902498
0.0415964
8.86701e-05
5.10303e-05
8.70032e-05
0.0290481
0.0228038
7.15235e-05
0.0238717
0.00462604
9.33884e-05
0.0409448
7.82656e-05
0.00226699
0.0123591
0.0328843
8.76079e-05
0.0117119
8.84985e-05
0.000276548
0.000522825
6.37221e-05
0.0160657
0.0388953
0.000159469
8.42177e-05
9.40484e-05
0.0464762
0.045252
6.07531e-05
8.39414e-05
0.0178159
8.60382e-05
0.0472801
0.000339737
0.0366881
8.62898e-05
0.000124527
0.0409575
0.0419319
6.53487e-05
0.0410666
6.10632e-05
6.30301e-05
9.50567e-05
0.0115146
0.000103808
9.81665e-05
7.20005e-05
0.0024074
6.31885e-05
0.000177441
5.15877e-05
6.77543e-05
6.81866e-05
8.66427e-05
0.00552874
8.05929e-05
8.71686e-05
0.0343812
6.75691e-05
7.28352e-05
0.041598
0.0514615
8.19569e-05
5.88333e-05
0.015252
8.43869e-05
6.96755e-05
0.00641422
8.34546e-05
0.0269011
0.0193796
4.4232e-05
0.0316564
0.0157879
8.91552e-05
4.74375e-05
0.000105371
9.53805e-05
9.48808e-05
7.39312e-05
0.00482867
8.70346e-05
0.024978
8.07804e-05
4.13354e-05
0.00010003
0.000100554
9.02203e-05
7.15224e-05
9.45192e-05
0.00280728
7.4754e-05
6.9442e-05
0.000118195
0.039244
4.74903e-05
0.000821242
5.78323e-05
0.000132707
8.42248e-05
7.93485e-05
0.000878313
4.62484e-05
8.31537e-05
0.00132413
8.1096e-05
6.47799e-05
4.94245e-05
6.86862e-05
0.04146
9.19601e-05
7.84794e-05
5.06911e-05
6.13015e-05
0.0127249
0.000103893
0.0050277
0.0313587
0.000137985
0.0258681
0.0337289
8.61068e-05
7.42029e-05
6.85196e-05
0.00910447
0.0284242
6.82031e-05
7.06563e-05
8.003e-05
0.0357881
5.072e-05
0.000103968
8.09804e-05
0.000657994
0.000338221
0.00266748
0.0102209
0.05309
7.48873e-05
0.00220208
0.0166237
4.54496e-05
0.00225677
7.80123e-05
0.00350881
4.44521e-05
0.0132104
0.0407717
8.39833e-05
0.0221099
0.0330236
7.10239e-05
9.32589e-05
0.0395505
9.29352e-05
7.72079e-05
8.72553e-05
4.88469e-05
7.72455e-05
8.96081e-05
7.9571e-05
0.000118768
7.38538e-05
6.48299e-05
6.08303e-05
8.09345e-05
8.05415e-05
7.96487e-05
0.0113382
0.000276222
0.000208318
0.0101631
0.0322504
9.45586e-05
0.0283484
0.0198721
0.029763
8.54363e-05
8.29571e-05
0.0341185
0.00386217
0.000111547
0.00036097
4.46051e-05
5.01383e-05
8.80796e-05
9.33582e-05
9.05955e-05
0.0365748
0.0322678
0.0539641
4.97787e-05
7.03178e-05
0.0175852
5.11388e-05
0.0353944
0.0103149
8.25946e-05
9.61005e-05
0.0001166
0.0303604
9.32115e-05
0.0300725
6.87034e-05
8.37554e-05
5.25927e-05
0.0215084
0.000421496
0.000337144
9.089e-05
0.0125768
6.22256e-05
9.20625e-05
7.05667e-05
6.11434e-05
7.08711e-05
4.99751e-05
7.5788e-05
8.27153e-05
8.49515e-05
0.0194343
5.93236e-05
0.000105688
0.000129352
6.44532e-05
0.0488372
0.0335343
0.0394114
7.69922e-05
0.00011919
0.000102088
0.0110919
6.7419e-05
9.86202e-05
5.08096e-05
0.0469982
8.06404e-05
5.96581e-05
0.0202284
0.0242876
8.26253e-05
0.00580233
0.0356729
9.63038e-05
0.0248558
0.0252128
5.59243e-05
0.036026
6.245e-05
0.0409329
0.00520329
6.27833e-05
8.5614e-05
0.0200225
9.17064e-05
7.01629e-05
0.0373907
0.052367
0.0102236
9.66615e-05
0.0121666
8.81733e-05
8.20568e-05
0.028757
0.0211104
9.8003e-05
0.0368204
0.0318774
6.51689e-05
0.0409282
9.05318e-05
7.1959e-05
0.0362903
0.0327042
8.91469e-05
7.86483e-05
0.0467837
8.91262e-05
8.25423e-05
0.0391071
0.0212834
0.0469016
7.9437e-05
0.0431594
0.000102049
0.0172961
5.48336e-05
0.000138428
0.0355539
7.68319e-05
8.95041e-05
7.97978e-05
0.0305643
0.00784592
4.44883e-05
0.000310004
7.1864e-05
0.0136987
0.00653822
9.039e-05
0.000109684
8.99706e-05
8.10529e-05
0.044092
0.000169214
9.2e-05
0.0318781
0.000108076
0.0369933
8.9068e-05
7.01804e-05
0.0167257
9.47827e-05
9.71217e-05
0.0349967
8.25107e-05
0.0103677
0.00742724
9.20221e-05
0.0463404
9.51525e-05
0.0251458
0.000127442
0.0100538
0.000353566
0.000493172
0.0133889
9.58633e-05
0.0497871
0.0402723
7.7719e-05
0.0140539
8.33316e-05
0.0441296
0.0383336
0.0311479
0.031648
8.17382e-05
4.93859e-05
8.58455e-05
0.00600156
8.99371e-05
8.88503e-05
9.54438e-05
0.00043359
0.000115594
0.000129903
7.75246e-05
0.000115776
0.0266716
8.35785e-05
7.05038e-05
0.0175272
3.76629e-05
8.70651e-05
0.00813592
7.78342e-05
0.0412137
8.11811e-05
6.87781e-05
4.45173e-05
6.89264e-05
0.0244626
0.000497466
0.000160802
0.000110061
0.0386545
4.74169e-05
6.86945e-05
7.94954e-05
0.0328992
0.000105649
0.0245057
0.0249724
0.0291936
5.07936e-05
0.0365906
7.16497e-05
0.00370389
7.80172e-05
0.000106811
0.0463297
0.000669839
0.0122577
0.000160196
8.4257e-05
0.000120469
7.29406e-05
0.000320729
0.0104717
0.00954217
6.83902e-05
0.00820392
0.0391529
0.0355132
0.0294694
0.0346067
0.0378718
0.027915
8.32022e-05
9.82754e-05
0.000117711
9.70654e-05
6.88948e-05
5.7501e-05
8.82403e-05
8.77005e-05
0.00151631
9.23762e-05
0.0375399
0.0126672
4.82526e-05
7.85877e-05
0.0259171
0.040474
0.0188291
8.3898e-05
0.0258589
9.0326e-05
8.55983e-05
0.0267691
0.000118134
0.0488009
5.02362e-05
4.43469e-05
0.0493673
7.2658e-05
0.0486784
5.48296e-05
0.0482202
9.89405e-05
7.77995e-05
4.88063e-05
0.000131973
5.85889e-05
0.0493606
8.65999e-05
0.00733597
0.0058531
4.97339e-05
8.58706e-05
0.00964703
0.0259376
8.21949e-05
0.0266619
5.65466e-05
6.9899e-05
9.04456e-05
0.0137271
0.0390901
0.00399115
5.99796e-05
7.44295e-05
0.000405993
8.70494e-05
7.95425e-05
0.00930409
6.88298e-05
0.0268348
7.17506e-05
0.0383985
0.00970519
8.48639e-05
0.0468796
0.0403471
0.000113478
8.43526e-05
0.0145493
0.000267044
0.0146559
9.17433e-05
0.000214021
0.00148022
6.72909e-05
0.000169718
7.30058e-05
0.0322855
0.000146761
4.98572e-05
7.96885e-05
8.6369e-05
0.00545617
9.08052e-05
6.99462e-05
9.34623e-05
0.0309006
8.70433e-05
4.82327e-05
8.47398e-05
0.0408512
6.24953e-05
6.85413e-05
5.58367e-05
0.000888087
8.46102e-05
0.0373762
0.000106007
0.0383445
0.0358754
0.000189243
0.0393679
4.60978e-05
0.0329407
7.40923e-05
8.86216e-05
7.94806e-05
0.000311778
0.00644858
0.027664
0.0315445
0.00247534
5.1485e-05
0.00114465
0.0286635
4.60922e-05
9.81063e-05
6.45545e-05
7.95312e-05
5.40942e-05
6.68451e-05
0.0314069
6.67752e-05
5.47869e-05
6.68825e-05
6.12989e-05
6.54903e-05
0.014413
0.000679553
0.0209752
0.0328865
0.0293083
0.0390731
0.0228926
6.01648e-05
0.0247092
8.8782e-05
0.000801922
8.91433e-05
5.78001e-05
0.0465332
7.21986e-05
0.000177662
5.78634e-05
0.0302361
0.0326501
4.67737e-05
0.0446916
8.62539e-05
0.028012
0.0351321
6.39552e-05
8.56261e-05
4.76804e-05
0.000113215
0.000198081
0.000343401
5.04264e-05
5.45467e-05
4.67617e-05
0.000108422
0.0401936
9.86376e-05
0.00115143
0.0463754
9.22567e-05
0.0521894
7.46208e-05
0.00777397
7.45107e-05
6.69108e-05
8.00886e-05
0.0405019
8.78295e-05
0.00114332
0.000157145
4.51649e-05
9.40188e-05
8.67412e-05
0.0412228
0.0410401
7.76933e-05
6.00688e-05
0.0482001
0.00495398
4.48998e-05
7.44293e-05
8.2462e-05
7.38416e-05
5.52976e-05
0.0425621
4.85267e-05
0.000113374
0.0332237
0.0134086
0.00916597
9.14411e-05
0.0277507
0.000176684
0.0255766
0.0402696
8.81168e-05
9.04459e-05
0.000736763
8.50398e-05
7.06461e-05
0.000281056
6.63019e-05
0.000330859
9.42464e-05
6.48855e-05
0.0240894
8.07068e-05
8.59962e-05
8.76969e-05
4.7961e-05
8.25367e-05
0.0442608
7.98337e-05
9.34876e-05
0.0191939
0.00570727
7.39394e-05
0.000316022
0.0350692
4.44945e-05
7.89454e-05
0.000108037
9.0537e-05
0.0437272
7.79729e-05
0.000162307
8.73306e-05
0.000196295
5.10445e-05
6.43518e-05
5.9196e-05
9.26437e-05
9.34986e-05
8.94747e-05
9.37413e-05
8.56294e-05
7.8356e-05
8.87822e-05
9.1719e-05
8.07912e-05
6.76968e-05
0.00010332
4.43466e-05
0.034673
7.87327e-05
8.72826e-05
0.0423926
0.000130175
5.05355e-05
6.70293e-05
8.65466e-05
4.69962e-05
0.000339571
0.0407887
7.40666e-05
8.7649e-05
0.0175488
0.00030743
0.00173579
6.68949e-05
0.0246925
4.54168e-05
0.0444748
7.62776e-05
0.0313215
6.89345e-05
0.000103947
8.75652e-05
9.01353e-05
0.0306141
0.0213246
4.69808e-05
0.015773
0.0288834
9.1228e-05
8.60066e-05
0.0258764
0.00811452
4.79852e-05
9.4436e-05
4.41354e-05
9.54398e-05
4.4947e-05
0.0261268
0.0333545
8.06626e-05
0.00294914
8.38113e-05
0.0311948
0.000101247
6.07008e-05
4.72329e-05
8.74335e-05
0.0246342
7.44406e-05
8.7704e-05
7.7308e-05
0.000313799
8.86346e-05
0.0354461
4.83344e-05
4.85488e-05
0.000282333
0.0397474
4.44769e-05
0.0440497
0.0294607
4.4668e-05
4.44143e-05
4.45996e-05
6.10854e-05
7.81577e-05
0.00257165
0.00754099
0.0191698
4.71939e-05
0.0248563
8.86353e-05
9.2357e-05
9.12109e-05
6.344e-05
8.80924e-05
5.61979e-05
0.000168241
7.27346e-05
0.0299418
8.31615e-05
5.76201e-05
9.27388e-05
0.0125934
4.91046e-05
9.87446e-05
4.6312e-05
0.0303506
9.20696e-05
0.0293126
0.0469102
8.41368e-05
0.0512175
0.00936079
0.0379032
0.0389825
5.021e-05
4.62983e-05
0.0372439
0.00386036
0.0285615
0.0243734
8.94428e-05
6.2627e-05
0.0115552
8.79654e-05
0.000127629
8.97133e-05
8.96142e-05
0.0356391
0.0150222
8.4216e-05
7.5071e-05
0.0002346
0.045117
0.00361167
0.0462848
4.6693e-05
0.00013789
4.85768e-05
8.96376e-05
0.0147795
4.99071e-05
0.0391859
9.06056e-05
0.0385307
7.85101e-05
9.3851e-05
0.00521649
0.00600315
0.0156231
0.0261098
4.52465e-05
7.86233e-05
5.96859e-05
0.043301
0.0480719
8.79007e-05
7.39822e-05
0.00010301
0.0331652
9.26372e-05
8.28797e-05
4.81546e-05
7.78195e-05
5.85521e-05
4.52438e-05
9.1819e-05
6.42617e-05
6.6416e-05
0.00492368
8.86523e-05
0.00560426
8.60044e-05
9.20133e-05
0.0019713
5.57049e-05
0.0275848
5.73088e-05
0.00829757
8.37839e-05
8.34191e-05
7.80044e-05
0.0280885
7.96561e-05
7.90993e-05
0.000843308
0.000133686
0.000121312
0.0387367
9.35807e-05
6.48238e-05
0.00437122
5.66894e-05
5.95701e-05
5.75362e-05
7.93683e-05
8.87147e-05
9.09121e-05
0.00755822
0.0162643
0.0546079
9.50872e-05
4.88204e-05
9.50864e-05
0.00286141
0.0393238
6.86485e-05
0.011225
0.000137865
0.0338968
6.3553e-05
4.65458e-05
6.32051e-05
0.0281241
6.42816e-05
9.4199e-05
0.0131516
8.33609e-05
7.38124e-05
0.0326346
4.8562e-05
8.32147e-05
9.04961e-05
0.0311643
0.0020133
0.0294605
0.0335514
0.000166743
4.75996e-05
7.76882e-05
5.71919e-05
0.0040205
0.042901
6.54222e-05
0.00267552
6.63065e-05
0.00010223
8.95928e-05
0.000122133
8.33511e-05
8.98527e-05
0.000264357
0.0215102
4.56515e-05
5.35961e-05
0.000107504
8.40093e-05
0.0134077
9.02879e-05
8.87496e-05
5.39445e-05
0.029827
0.0351655
4.59072e-05
4.94449e-05
0.0151329
6.85661e-05
0.0237938
9.05145e-05
7.42297e-05
0.0409227
0.0113626
5.34842e-05
6.09574e-05
6.69256e-05
0.0512328
8.72446e-05
0.000322721
0.000320075
9.01227e-05
4.91312e-05
8.74865e-05
0.0334206
5.39801e-05
0.0215272
0.0119811
9.25747e-05
0.000150608
6.35467e-05
0.000103236
0.0145711
9.36326e-05
0.0366565
0.0469701
7.29801e-05
6.42395e-05
7.58938e-05
8.37284e-05
0.000276421
5.35504e-05
6.2964e-05
7.76109e-05
4.65314e-05
0.00372053
7.76459e-05
0.000114175
0.000126975
7.68295e-05
0.000306283
0.0329812
5.46185e-05
7.91296e-05
6.1716e-05
0.000277312
8.93797e-05
9.25068e-05
7.32153e-05
0.0113075
7.3924e-05
0.00824685
0.0327254
0.00199104
0.0334869
8.2684e-05
0.00313366
0.0284771
5.41305e-05
4.83927e-05
0.000268092
6.03432e-05
0.0468135
9.55872e-05
0.0183087
0.0279462
6.81984e-05
0.0397241
7.60999e-05
7.74295e-05
8.31252e-05
0.0339171
0.0329206
0.037052
0.0424527
0.0517271
8.26717e-05
0.0456278
6.33647e-05
4.99287e-05
0.000101727
7.69091e-05
0.0184497
0.00352457
0.00245218
0.000111291
0.000314624
4.64553e-05
0.0380011
0.0369786
0.000115741
4.92732e-05
5.37332e-05
0.000111126
8.51703e-05
6.76219e-05
0.000429451
0.0274645
5.52232e-05
8.28245e-05
5.49546e-05
7.14841e-05
4.8323e-05
5.82217e-05
0.0266613
0.00027045
0.00358443
8.78219e-05
0.00293232
0.000266024
8.86839e-05
0.0393169
9.73024e-05
0.00573936
7.2845e-05
0.000109885
6.72889e-05
6.2981e-05
8.65527e-05
9.27677e-05
8.55056e-05
0.00533752
0.000148526
0.0258638
0.0250452
6.40294e-05
0.000164712
0.0394102
4.48164e-05
7.83511e-05
0.000117412
0.0322398
0.000109351
7.59582e-05
0.023899
4.91588e-05
0.00744606
0.0314817
5.84655e-05
8.48435e-05
0.00436729
8.40387e-05
7.27088e-05
0.000275328
0.024992
0.000181949
0.0305712
8.39527e-05
5.48762e-05
0.0271635
8.09635e-05
0.00420369
0.00045025
9.15262e-05
0.0440257
8.92369e-05
0.00239914
9.35764e-05
0.00462798
0.000102632
9.87911e-05
4.58995e-05
0.00471681
8.77574e-05
0.00464692
0.000282454
9.87722e-05
8.83029e-05
0.000223053
8.22143e-05
0.0376957
7.11218e-05
0.000311316
0.0340864
6.37909e-05
7.87026e-05
0.0412448
5.28935e-05
0.00269432
0.00034001
0.0369973
9.63605e-05
4.4438e-05
9.59859e-05
7.89589e-05
9.35272e-05
0.0502948
6.56742e-05
0.00246204
9.37546e-05
9.05723e-05
7.81151e-05
4.58558e-05
0.0268932
5.95636e-05
6.90981e-05
0.0300984
0.00629748
6.75193e-05
0.000126713
0.00013883
0.03468
5.16748e-05
9.81324e-05
6.7552e-05
0.0295873
8.22489e-05
8.8917e-05
8.86276e-05
0.0277772
0.0270935
7.26496e-05
5.29801e-05
0.0289681
0.0344587
7.3748e-05
8.71601e-05
0.000879599
0.000265767
5.96131e-05
6.7601e-05
9.21543e-05
0.0213524
5.20939e-05
5.36875e-05
0.00318008
0.0341781
0.0354672
4.81207e-05
5.57821e-05
8.11846e-05
8.75492e-05
8.83409e-05
0.0504292
7.64382e-05
7.29182e-05
8.99998e-05
5.15906e-05
8.51839e-05
4.46256e-05
4.93763e-05
0.0244807
9.0934e-05
0.00011817
0.0350375
4.63667e-05
4.70469e-05
0.0348112
6.45306e-05
0.0459269
5.53024e-05
5.92525e-05
8.16297e-05
0.0298143
0.0379139
7.29239e-05
8.53526e-05
6.99891e-05
0.00414643
5.0461e-05
6.78164e-05
8.48303e-05
7.59501e-05
6.76728e-05
4.46199e-05
4.67504e-05
6.54588e-05
0.0358302
0.0143662
0.0021554
0.000441959
9.08239e-05
8.58402e-05
8.20826e-05
0.000444995
0.0251555
0.000150215
8.65393e-05
9.20002e-05
9.7087e-05
8.70764e-05
0.0335121
9.32275e-05
6.35955e-05
6.85436e-05
0.0431326
0.0520362
8.4143e-05
0.0491255
9.59231e-05
6.49844e-05
8.33449e-05
0.000339538
8.72161e-05
4.96387e-05
7.69684e-05
9.32709e-05
9.30529e-05
8.65609e-05
0.000278749
7.91385e-05
0.0333075
6.54622e-05
0.00376085
0.0342871
0.000116589
0.0286488
0.00025651
7.74441e-05
5.80948e-05
7.54873e-05
7.78337e-05
0.0114292
9.16543e-05
6.65003e-05
0.0128933
0.0205693
0.0275924
9.98403e-05
8.74388e-05
5.92585e-05
0.000202345
0.02468
7.88002e-05
0.0349961
8.33132e-05
7.37197e-05
0.00414668
0.00233985
0.0331825
8.73846e-05
7.91008e-05
8.57016e-05
6.51624e-05
8.67118e-05
0.0392534
8.41134e-05
9.26893e-05
0.000183764
0.000111323
4.58905e-05
8.72029e-05
0.0362046
0.000183672
7.14124e-05
0.0162792
9.92015e-05
8.44376e-05
9.28539e-05
7.2467e-05
7.90559e-05
0.00245557
7.30677e-05
9.41809e-05
0.00654773
6.19728e-05
0.00889565
0.0215675
0.000136068
0.0369243
0.0239351
0.0259969
0.000720356
9.43774e-05
5.37752e-05
0.0342956
8.60779e-05
0.0462176
4.83295e-05
6.7468e-05
8.74197e-05
0.0354687
0.0116221
0.00412629
7.55184e-05
0.0246348
0.0371878
0.0364946
0.000158299
0.0057072
0.0256928
0.00039417
0.024842
9.52977e-05
0.000151592
8.79055e-05
5.49062e-05
0.000184435
0.0283858
0.00423128
8.87327e-05
7.52689e-05
8.20977e-05
0.0232059
0.0270871
8.69553e-05
6.46116e-05
0.000201712
0.0401756
8.77293e-05
6.66528e-05
5.92472e-05
7.62829e-05
0.000343417
0.038066
7.43209e-05
0.0105891
6.42705e-05
6.68958e-05
9.21697e-05
0.0376397
0.00711488
8.9969e-05
6.36198e-05
4.71326e-05
0.00251981
0.0267605
5.75982e-05
5.99422e-05
0.0278504
8.30045e-05
5.37411e-05
8.79059e-05
0.0350084
6.39179e-05
6.97886e-05
7.45901e-05
4.75116e-05
8.07149e-05
0.0054904
0.0339407
8.60139e-05
6.93432e-05
4.40598e-05
0.0145357
6.77545e-05
0.000171602
0.0276199
8.64405e-05
0.0389695
0.0442999
0.000169909
6.2071e-05
0.000685769
0.0301987
0.000204748
6.376e-05
9.06409e-05
9.97053e-05
0.000100263
9.27274e-05
0.000241953
5.39179e-05
0.00441639
0.000281449
0.0482617
8.63772e-05
8.50078e-05
0.0437778
6.05365e-05
0.0484561
0.0298501
7.29803e-05
8.80213e-05
4.91508e-05
9.36678e-05
8.63212e-05
0.0377151
0.0304453
9.29316e-05
5.50084e-05
7.29748e-05
4.71566e-05
0.00499796
8.81579e-05
0.0342729
0.000109232
0.0116235
0.00341601
9.16598e-05
0.0244628
0.0125329
0.0299168
0.0358811
7.72178e-05
6.30632e-05
4.42005e-05
0.00125696
0.0345376
5.87959e-05
0.0048138
0.0130769
0.000931249
0.0325966
6.59355e-05
0.029661
7.60994e-05
0.000261122
8.84142e-05
0.000164281
0.00028113
0.0449799
7.45872e-05
4.53767e-05
0.0364258
8.72615e-05
0.00254538
8.36826e-05
0.00411046
0.0362174
6.77576e-05
8.76706e-05
0.0118621
7.15229e-05
5.67564e-05
0.0250723
0.00562805
9.35834e-05
7.3017e-05
0.0476578
0.000189602
8.85812e-05
0.000123773
0.000121557
0.0279415
0.0289891
0.0114325
0.0015214
0.000179252
6.92938e-05
0.000153371
0.032012
9.41922e-05
9.51595e-05
4.68241e-05
9.02651e-05
8.67525e-05
8.85555e-05
0.000179114
0.013723
0.0548532
0.0201339
0.041125
9.27978e-05
0.000166843
6.65809e-05
0.0312331
0.0104177
0.00464271
0.00368286
0.0252959
9.52321e-05
9.80537e-05
5.67315e-05
0.0262147
8.30957e-05
6.72736e-05
8.95734e-05
8.54175e-05
0.0119683
0.00668313
0.0162676
4.44843e-05
0.00178655
0.0349966
4.8896e-05
5.92047e-05
0.000142851
0.0159354
6.51779e-05
8.8492e-05
0.0363602
6.97938e-05
7.49904e-05
9.16532e-05
6.75417e-05
6.04158e-05
7.70339e-05
6.85246e-05
0.00726631
7.4795e-05
4.93722e-05
9.24611e-05
0.00184318
9.6574e-05
0.0239656
9.96136e-05
9.81313e-05
8.65728e-05
8.90436e-05
0.00814907
9.41554e-05
0.0121882
0.036089
0.0143986
0.0129767
6.84361e-05
0.0438491
0.000106472
6.3694e-05
0.0339019
0.0363189
0.0263784
8.87043e-05
6.33471e-05
0.040419
0.0286824
6.80162e-05
8.72931e-05
9.70387e-05
7.66028e-05
0.0295035
5.34162e-05
7.77267e-05
0.0376951
8.83946e-05
0.041343
9.19824e-05
6.72304e-05
8.25594e-05
7.84184e-05
0.0261527
0.0184697
0.000265653
0.0232484
4.77114e-05
6.58615e-05
7.04522e-05
0.000101168
6.10183e-05
7.3991e-05
5.91014e-05
7.60493e-05
0.0342444
6.46601e-05
0.0147593
0.0275734
0.00950092
0.0142664
0.000128312
8.08687e-05
8.1335e-05
0.014251
0.013883
9.14433e-05
0.00277108
0.0209933
0.0191482
7.43044e-05
0.0176028
7.28654e-05
8.87201e-05
6.3686e-05
6.67399e-05
8.89517e-05
0.00470455
0.0319925
0.000330555
0.0240451
0.00678945
7.64994e-05
0.026323
8.19525e-05
6.30258e-05
8.18112e-05
6.7012e-05
0.00237495
0.0168852
8.9957e-05
0.0183257
0.0304411
0.0275845
8.33223e-05
5.83232e-05
0.013076
7.81476e-05
0.0247955
0.000142885
0.000338236
0.00571989
0.0444511
0.0331051
0.0200748
0.014673
0.000139782
0.000113835
7.7948e-05
9.07873e-05
8.81715e-05
0.0276647
8.01197e-05
0.000143057
9.30362e-05
8.33305e-05
0.0526255
0.000407493
8.99467e-05
0.0322708
0.000125328
0.0273957
0.0366545
0.000117662
0.00156291
0.0285439
6.85299e-05
8.85601e-05
0.00026225
0.0310094
8.82749e-05
0.0443006
9.23135e-05
0.0166061
0.00016887
0.0221333
6.13419e-05
0.0150608
8.76461e-05
8.47192e-05
0.0230986
9.02609e-05
7.3625e-05
0.0283475
0.0154259
6.33223e-05
0.0344546
8.34833e-05
0.0287763
9.71004e-05
0.0134981
7.76997e-05
0.0375713
8.88415e-05
0.00566502
0.000181391
0.0487586
8.81386e-05
0.0365267
4.92922e-05
0.000138055
9.74031e-05
6.16589e-05
0.0260363
0.000194442
7.87751e-05
0.00962398
0.00287463
8.08128e-05
0.0272397
0.00781853
9.02485e-05
0.0330559
9.78382e-05
0.0276902
9.69128e-05
0.0354508
0.0280627
5.13516e-05
0.0414799
9.79463e-05
6.8714e-05
0.0177245
8.57813e-05
8.63951e-05
8.0557e-05
8.7094e-05
0.031372
0.0200036
0.0001491
8.4685e-05
0.0456377
0.036307
0.008819
0.0255181
6.982e-05
0.000688947
0.00259786
7.05704e-05
7.49588e-05
7.61697e-05
0.0020471
4.7934e-05
8.8873e-05
0.000177266
0.0134373
0.0103984
8.46173e-05
0.000118261
0.0281518
0.022553
6.86599e-05
0.00032001
8.7784e-05
0.0314169
5.38892e-05
0.000325347
7.92744e-05
0.0253405
9.19661e-05
0.0264754
7.94551e-05
6.81504e-05
0.0272022
0.0421256
0.0421686
8.5324e-05
0.000100012
5.8972e-05
8.67467e-05
0.000177264
0.000109461
6.68404e-05
0.0128813
0.0243965
0.00509832
0.000262661
0.000160897
8.9636e-05
0.000139032
0.00457598
0.000100796
0.000338902
8.48165e-05
9.10734e-05
4.83112e-05
0.0284327
0.00746293
8.23021e-05
4.95945e-05
0.0211325
8.36808e-05
0.0142853
0.0251087
0.000137966
6.02899e-05
7.29883e-05
6.90302e-05
6.603e-05
6.76958e-05
0.0374734
0.0289479
0.000115766
8.90905e-05
4.7739e-05
0.0322485
0.0397167
0.00502703
6.83924e-05
5.92309e-05
6.52594e-05
0.000266449
4.75014e-05
9.0898e-05
6.82208e-05
8.27446e-05
6.76466e-05
7.96083e-05
0.000339281
4.93132e-05
0.0201971
9.273e-05
9.21024e-05
8.0053e-05
0.0412886
0.0349567
8.7144e-05
0.0325294
0.000260613
0.000161841
8.92231e-05
0.000123436
0.000111653
0.000424403
0.0381053
0.0298363
0.0280962
6.68295e-05
0.00340147
4.8158e-05
0.0327468
5.88568e-05
0.00517903
5.92069e-05
9.06763e-05
8.02355e-05
4.77232e-05
6.83188e-05
0.0103061
0.0281894
8.91672e-05
8.68992e-05
0.0364637
0.0377409
0.00359021
6.48918e-05
5.95617e-05
4.47706e-05
0.0295648
0.00298889
0.00876188
5.71137e-05
0.0391876
8.49739e-05
6.60347e-05
0.0251956
0.0286142
0.000112005
0.0330388
0.012734
0.000438844
8.25552e-05
6.46752e-05
0.000260105
5.71649e-05
5.94986e-05
5.93662e-05
0.000111848
0.0299877
8.23828e-05
9.23288e-05
0.000316787
0.035145
0.028451
0.0360455
0.000100889
0.0113987
8.3315e-05
7.80463e-05
0.0323
0.00308013
8.96682e-05
8.88092e-05
0.0265375
0.000269199
9.47652e-05
7.9125e-05
9.70458e-05
0.029361
9.70972e-05
0.0211743
9.97067e-05
7.52735e-05
5.36302e-05
0.0316681
0.0410779
0.000407193
0.000100549
0.0475675
4.45954e-05
6.42213e-05
0.0327026
0.035041
0.000104558
0.000100307
7.55403e-05
8.65456e-05
0.0169775
0.0371832
0.0480013
0.0457515
0.000152413
7.43522e-05
0.000187366
0.0212082
7.84677e-05
8.85306e-05
9.05198e-05
0.0298638
8.01506e-05
8.41645e-05
0.0435519
0.000143131
0.0410927
0.00310014
8.50486e-05
0.000145092
8.56088e-05
6.61861e-05
0.0333741
9.38069e-05
6.48306e-05
0.0354706
8.47728e-05
6.31764e-05
4.43539e-05
0.0481981
0.000263446
4.8786e-05
7.15816e-05
0.000261404
0.0398449
0.03474
0.000265022
7.53222e-05
0.0506711
0.0456783
0.0342404
9.05279e-05
6.68045e-05
0.0444419
0.0342917
0.000320029
0.0225173
0.0293906
0.000144322
6.46296e-05
0.0356872
0.0141125
0.000100207
7.3973e-05
0.0301332
0.0206019
6.67473e-05
8.82809e-05
0.00342065
0.0258978
0.0337288
8.42482e-05
6.99884e-05
0.0363836
0.0314378
0.0152221
0.0367068
0.00574008
0.0339524
9.30805e-05
0.00556595
0.00673234
0.041928
4.47981e-05
6.98513e-05
0.0520011
0.0155993
5.54325e-05
0.0365522
0.0227317
0.00224359
0.000613174
6.89691e-05
9.38157e-05
6.44036e-05
0.00417092
9.26207e-05
7.44805e-05
6.39132e-05
0.0357069
5.86868e-05
0.000173001
6.96589e-05
0.0249923
7.71051e-05
0.0494131
8.16984e-05
6.91358e-05
8.71536e-05
6.93481e-05
0.0290072
0.0386167
8.73025e-05
5.86619e-05
0.0262953
0.0362979
0.00022368
0.0346714
0.00026427
0.00417069
0.0338153
5.90681e-05
0.0265916
0.0266713
0.000221001
7.66115e-05
0.000118101
0.0405402
0.0378699
0.0415327
0.00403268
0.000102465
0.0442588
0.0029389
0.000130604
5.49252e-05
0.000587127
5.51028e-05
0.03001
0.0159303
0.0161512
8.61556e-05
8.97848e-05
0.0001685
9.20015e-05
0.0138695
0.0252328
0.0539452
8.60141e-05
0.00015166
0.0278199
0.0224438
0.0386247
0.0383192
0.0299044
0.00253564
6.97017e-05
0.0355906
0.0406313
0.0416637
0.0367707
0.00406986
7.29154e-05
0.000102619
9.11222e-05
0.0211012
9.20546e-05
0.000101
8.95743e-05
0.000152665
9.21955e-05
0.0238745
9.58413e-05
0.00410132
0.0412905
0.0513941
7.01814e-05
0.0320426
7.26229e-05
0.000598434
9.0885e-05
0.000225246
6.42092e-05
0.02522
0.000114649
5.02111e-05
8.05109e-05
0.0257757
6.00979e-05
0.000101913
8.66204e-05
0.000122927
7.72628e-05
0.0208802
5.00517e-05
8.8705e-05
9.26823e-05
8.95799e-05
0.0352471
5.56585e-05
0.013683
0.0369893
0.000599273
0.000263062
9.13224e-05
8.77601e-05
0.0429336
0.0376138
9.93891e-05
8.59322e-05
6.0635e-05
5.82991e-05
8.42629e-05
0.000312078
0.0321736
0.0271916
7.73066e-05
0.0245578
0.0428258
9.14189e-05
0.000265056
0.0526348
5.92591e-05
9.09525e-05
0.0141547
0.0309399
8.97324e-05
0.000337184
5.68421e-05
0.0262052
9.17707e-05
0.0370799
0.0378045
6.97088e-05
0.000112553
6.75987e-05
0.0136059
0.00176313
0.0532207
8.21376e-05
6.68554e-05
0.0271347
4.69132e-05
8.34158e-05
0.000277309
0.00591519
0.00607527
0.0375037
0.0359241
6.71554e-05
8.90308e-05
0.0427592
0.0373128
6.73056e-05
0.0289019
8.83304e-05
9.76655e-05
8.92295e-05
5.06039e-05
4.40867e-05
0.000161062
9.24449e-05
0.0504353
0.000117028
0.0118062
0.000272728
0.0169633
0.000442234
9.7954e-05
0.0360209
8.15825e-05
9.22188e-05
9.44822e-05
0.0383462
0.0122926
0.00017342
0.0309511
0.0267456
0.000112647
9.27559e-05
0.0380429
4.83958e-05
0.0312011
4.93658e-05
0.0436185
7.66793e-05
9.36985e-05
0.0179565
0.000112924
0.000266853
8.76951e-05
0.0310356
0.0514425
8.21117e-05
8.61372e-05
0.00673298
6.9856e-05
8.59137e-05
0.00016397
8.13298e-05
8.16454e-05
9.26006e-05
0.010433
0.03661
0.0341125
6.07891e-05
8.59405e-05
6.81146e-05
6.01451e-05
0.000141318
9.43716e-05
0.000141547
0.0388533
0.000150136
8.58162e-05
5.29534e-05
0.000226599
0.0416342
0.0316204
9.36094e-05
0.00297313
0.0301858
0.0163335
8.87127e-05
0.00529128
0.0342503
6.67291e-05
0.0449546
0.038596
0.000468261
7.22279e-05
0.00014113
0.000133603
9.36669e-05
5.75861e-05
9.50881e-05
7.14977e-05
0.0273189
0.0027625
8.60657e-05
0.00138415
9.22863e-05
0.0309933
9.18847e-05
8.95324e-05
9.55727e-05
8.46558e-05
0.00014557
8.49363e-05
6.77224e-05
0.0390713
0.0324773
9.23367e-05
0.0375874
0.0432352
0.0356243
8.58373e-05
9.18393e-05
0.0532443
0.0389729
6.21728e-05
0.0301866
5.67822e-05
0.000109127
0.0128839
9.25936e-05
0.0229535
0.0298462
9.29647e-05
0.00025833
0.0456781
6.30346e-05
0.000123796
6.76115e-05
0.00293113
0.0379603
0.0115964
0.00904757
0.0249512
0.00531794
0.00015286
5.07944e-05
0.000148343
0.00951439
0.0182724
0.000111145
0.000159317
6.8455e-05
9.65665e-05
0.00207392
0.0360194
8.58674e-05
9.02162e-05
9.66633e-05
5.92033e-05
9.6292e-05
9.44154e-05
0.000227866
9.67005e-05
0.0401498
0.0178014
0.0166364
0.000102257
0.0169121
8.91008e-05
6.2053e-05
0.000263338
0.0383958
6.89206e-05
0.0241265
0.0341152
0.0211327
7.61363e-05
8.75254e-05
0.00011182
0.000159346
0.0377378
0.00466852
0.0208979
0.0364723
9.86491e-05
0.0369064
0.00966663
9.10841e-05
0.000113882
0.00190084
9.42094e-05
0.0328734
5.64575e-05
0.000280213
9.72724e-05
0.000108841
0.026944
0.00013368
0.0349912
0.000495204
0.0417267
9.57011e-05
0.0361816
0.00230001
7.48167e-05
0.0448419
0.0399135
6.34254e-05
0.0105358
0.000265561
0.00014651
0.0257721
9.95169e-05
5.16844e-05
0.0201651
8.20315e-05
0.000127349
0.0230898
0.000591386
0.000108215
0.000179076
9.358e-05
0.0335151
9.28751e-05
0.00013012
0.034697
0.000108709
0.0302696
9.0671e-05
0.045635
0.0395108
8.69644e-05
6.83693e-05
6.23095e-05
0.0139346
0.0236113
9.15004e-05
0.000102568
0.000103837
9.4313e-05
0.0282804
4.82988e-05
9.37576e-05
8.66744e-05
9.71674e-05
5.75779e-05
0.0244755
0.000206743
6.98168e-05
0.0406528
0.000542087
8.2412e-05
0.000103778
8.17608e-05
0.000152777
0.0275546
6.44243e-05
8.38121e-05
5.60804e-05
0.0366985