/*--------------------------------*- C++ -*----------------------------------*\
| =========                 |                                                 |
| \\      /  F ield         | OpenFOAM: The Open Source CFD Toolbox           |
|  \\    /   O peration     | Version:  v2012                                 |
|   \\  /    A nd           | Website:  www.openfoam.com                      |
|    \\/     M anipulation  |                                                 |
\*---------------------------------------------------------------------------*/
FoamFile
{
    version     2.0;
    format      ascii;
    class       surfaceScalarField;
    location    "100";
    object      phi;
}
// * * * * * * * * * * * * * * * * * * * * * * * * * * * * * * * * * * * * * //

dimensions      [0 3 -1 0 0 0 0];
oriented        oriented;


internalField   nonuniform List<scalar> 
20392
(
0.190382
-0.109861
-0.0805209
-0.53796
0.446552
0.0914089
0.240887
0.073169
-0.314056
0.301353
0.180927
-0.482281
0.0845107
-0.00415091
-0.0803598
0.0101775
-0.421507
0.41133
-0.000949253
0.0176867
-0.0167375
0.555676
-0.392073
-0.163603
-0.096487
0.178401
-0.0819145
-0.154828
0.456182
0.459564
-0.449386
-0.256768
0.309969
-0.0532002
0.315543
-0.0746553
-0.144605
0.210442
-0.0658368
-0.244534
0.467428
-0.222894
0.0390851
-0.183691
-0.190223
-0.322872
0.513096
-0.584542
0.591956
-0.00741419
0.35494
-0.623941
0.269001
0.651739
-0.488651
-0.163087
0.00730009
-0.0431533
0.0358532
0.0405595
-0.00299581
-0.0375637
0.26818
-0.648337
0.380158
-0.320299
0.0806726
0.239627
-0.268014
0.221731
0.0462836
0.666747
-0.518505
-0.148242
-0.0950342
-0.313551
0.408585
-0.209264
0.211179
-0.00191467
-0.0348456
0.0373281
-0.00248248
-0.0282162
0.0325604
-0.00434415
0.178747
-0.575455
0.396708
-0.391986
0.530485
-0.138499
0.0412005
-0.137688
0.132375
-0.376909
0.452104
-0.16836
-0.283744
-0.00361336
-0.0157144
0.0193278
0.0705829
-0.0667719
-0.00381102
0.477534
-0.291375
-0.186159
0.104385
0.347719
-0.0179458
0.000613477
0.0173323
-0.128156
0.517812
-0.389656
-0.14599
0.036431
0.109559
0.730965
-0.538982
-0.191983
-0.0364178
0.0406442
-0.00422635
0.0745013
-0.514215
0.439713
0.436848
0.294117
0.593676
-0.41149
-0.182186
-0.63216
0.238535
0.393625
-0.154216
0.242006
-0.0877903
0.0370949
0.304083
-0.341177
-0.295699
-0.0246007
0.578665
-0.504164
-0.0176305
-0.00326576
0.0208962
0.585549
-0.470258
-0.11529
-0.0791353
-0.317357
0.396492
-0.0183047
0.0173554
0.00448337
-0.025336
0.0208526
-0.258683
0.248929
0.00975471
0.18614
0.392526
0.0795432
0.105052
-0.184595
-0.511991
0.120005
0.125628
-0.01244
-0.113188
-0.065812
-0.452627
0.518439
-0.285463
0.553643
0.0543464
0.116288
-0.170634
0.495065
-0.150879
-0.344187
0.193814
-0.283238
0.0894241
0.445155
-0.414061
-0.0310937
0.00101067
-0.0186411
0.134723
0.0556594
-0.305896
0.249032
0.0568638
0.0290361
-0.313508
0.284471
0.452694
-0.357732
-0.0949621
0.0789266
-0.0149186
-0.064008
-0.482567
0.326116
0.156451
0.005938
0.0382037
-0.0441417
0.644988
-0.477462
-0.167526
0.104791
-0.57821
0.473419
-0.0160424
-0.00190333
-0.460593
-0.077367
0.0950378
-0.112902
0.0178639
-0.0508825
-0.255014
0.240902
0.0821812
-0.323083
-0.238794
0.661181
-0.422387
0.0559877
-0.0610706
0.00508292
0.623462
-0.528132
-0.0953299
-0.306799
0.0819841
0.224815
0.299984
-0.10617
0.00888933
0.0398251
-0.0487144
0.183097
-0.128751
-0.0441589
0.409275
-0.365117
0.110327
-0.0152888
0.0364517
0.423112
0.262861
-0.453084
0.292167
-0.371303
-0.000984635
0.0647605
-0.0637759
0.00347299
-0.00403382
0.000560823
0.353206
-0.112304
0.00984972
-0.00732876
-0.00252096
-0.219647
0.622838
-0.403191
0.327239
-0.493666
0.166426
0.00477622
0.0795632
-0.0843394
0.295887
-0.390922
0.166491
-0.16716
0.000669552
0.444319
-0.407868
0.555183
-0.212739
-0.342443
0.329014
-0.373173
0.153997
-0.157148
0.0031514
0.570299
-0.465508
-0.0279096
-0.000306604
0.207797
0.269737
-0.175098
0.316207
-0.141109
0.0216501
-0.0230709
0.00142076
-0.143308
-0.269111
0.412418
0.131079
-0.207094
0.0760155
0.393483
0.0516714
0.303658
0.34133
0.0424434
-0.299212
-0.208973
0.191692
0.0172808
0.336435
-0.29934
-0.210188
-0.303946
0.514134
-0.515064
0.396345
0.118719
-0.555306
-0.0261374
0.581443
0.653697
-0.135178
-0.518519
-0.614053
0.0438872
0.570166
-0.0271984
-0.00764724
-0.42326
-0.0918041
-0.503542
0.375386
0.500503
0.153193
-0.114614
0.105439
0.00917491
0.196474
0.397202
-0.0678377
-0.238961
-0.0744509
-0.106649
0.1811
0.00710947
0.00274024
-0.151016
0.00502607
-0.0452329
0.00881515
-0.0273147
0.0237013
-0.177417
0.102966
-0.41394
0.567329
-0.153389
-0.103338
0.579615
-0.476277
-0.00593828
0.0331332
-0.0271949
0.298741
-0.607668
0.308928
-0.286866
-0.273615
0.56048
-0.0028593
0.313472
-0.431641
0.118169
-0.147374
0.607746
-0.460372
-0.0518054
0.0606947
0.0204993
0.00115082
0.0792389
-0.000312355
0.0252339
-0.0277245
0.00249064
-0.356834
0.655575
-0.00148523
0.0275217
-0.0260365
-0.558366
0.00306017
0.328077
-0.299041
0.0316932
-0.0373069
0.00561364
0.201738
0.353445
-0.0997486
0.104525
0.555299
0.0687686
-0.624068
0.439302
-0.505114
0.13294
-0.455707
0.322767
0.351991
-0.329464
-0.0225264
-0.01802
0.462339
-0.156498
-0.403879
0.560377
0.147424
-0.574997
0.427574
-0.374393
-0.231593
0.605986
-0.249697
0.0030078
0.246689
-0.0270787
0.52069
-0.493611
-0.511272
0.431337
0.0799343
-0.0376443
0.0342122
0.00343217
0.0395817
0.515717
0.128622
-0.453538
0.324915
-0.41115
0.39313
-0.0344378
0.0389212
0.0457418
0.000438776
-0.0461805
-0.221444
-0.192617
-0.00328934
-0.246408
-0.146122
0.0144605
0.131662
0.0127261
-0.0617634
-0.147501
-0.0253434
0.0672503
-0.0419068
0.0361578
0.227025
-0.263183
0.337392
-0.373508
0.0361161
0.00890348
-0.155026
-0.000545808
0.003022
-0.00247619
0.22671
0.088833
-0.494401
0.391063
0.541608
-0.401685
-0.139923
0.585607
-0.622536
0.0369286
0.00614598
-0.0142926
0.00814661
0.0502399
-0.502867
-0.0250022
0.109513
0.0274365
-0.127414
0.0999777
0.292397
-0.397942
0.105546
0.301718
0.050273
0.153822
0.46964
0.569373
0.016234
-0.0633598
-0.145613
0.169751
0.130019
-0.29977
-0.0649491
-0.139174
0.204123
-0.30706
-0.00644747
-0.0194349
0.0266911
-0.00725618
-0.102755
-0.0062914
0.0379846
-0.0183383
-0.00956477
0.0279031
-0.149985
0.541773
-0.391788
0.289004
-0.0946047
-0.1944
-0.149762
0.14921
0.000552001
0.00794278
0.0626401
0.171994
-0.62367
0.451676
-0.539654
-0.0743987
-0.268444
-0.214123
0.343607
-0.261622
-0.236316
-0.0223669
-0.509408
0.516109
-0.00670108
-0.0253094
0.00214306
0.0231664
-0.456524
0.128723
0.3278
0.377711
-0.0759935
0.00918278
-0.0275211
0.499801
-0.581936
0.0821346
-0.52111
0.234245
0.595654
-0.42366
0.0255683
-0.0315066
-0.112328
0.148759
0.278122
-0.241965
-0.180932
-0.200751
0.381682
0.069498
-0.0945002
-0.00140376
0.00189909
-0.000495332
0.48652
0.0763273
-0.562847
0.255946
0.374235
0.167373
-0.377545
0.196614
0.00474133
-0.00143816
-0.00330317
0.120627
-0.521408
0.400781
0.393911
0.272836
-0.096412
-0.376985
0.473397
0.546832
-0.579567
0.0327347
0.0985992
-0.110145
0.0115458
0.343937
-0.490395
0.146458
0.000250663
-0.108704
0.108453
0.202431
-0.616371
0.200712
-0.0659892
0.560393
-0.381646
0.183864
0.489475
-0.145538
0.00876056
0.466384
-0.475145
0.428976
-0.456055
-0.35435
0.568902
-0.214552
-0.0411812
-0.468227
0.10864
-0.0812031
0.114721
-0.00445821
-0.491867
-0.0194048
0.0212231
-0.475396
0.454173
-0.0566029
-0.0185017
0.0751046
-0.0372005
0.14316
-0.105959
0.560066
-0.120765
0.121881
-0.555434
0.433553
0.0465316
-0.000789875
-0.0118851
-0.152017
0.163902
-0.16332
0.663121
0.416433
0.152673
-0.569106
-0.0142654
-0.011044
0.0716399
-0.0240059
-0.047634
-0.291639
0.000263806
-0.0641693
-0.213419
0.277588
-0.56725
0.406973
0.160277
-0.114422
0.661254
0.43858
-0.585954
0.155097
0.0172633
-0.172361
0.0411298
-0.000570285
0.125377
0.329446
-0.454823
-0.375107
0.561247
-0.334211
0.311318
0.0228924
0.0288507
-0.0215507
-2.79087e-05
0.0035009
-0.329868
-0.302292
-0.0162537
0.0174598
-0.0012061
-0.355067
0.476519
-0.23256
-0.0354542
-0.0411669
0.0441675
-0.00300063
0.485593
-0.188336
-0.297257
-0.225294
0.536619
-0.00131053
0.00605186
0.000709806
-0.0197326
0.0190228
0.293932
0.0837795
-0.342526
0.214843
0.127683
-0.355559
0.480936
-0.00345486
0.122719
-0.119264
0.111681
-0.286779
0.590751
-0.174318
0.0226005
-0.0164545
-0.0583566
0.127855
0.14
-0.151885
0.327767
0.00962576
-0.242103
0.263395
-0.0212929
0.0195497
0.0520902
0.00373564
-0.0705075
-0.551654
0.589266
-0.0376113
-0.376571
0.0592134
0.131329
0.0693828
0.286742
-0.53515
0.248408
0.0597233
0.117264
-0.117013
-0.0733711
0.0617949
0.0115762
-0.363996
0.276862
0.0871334
0.190786
-0.111242
-0.058361
0.0193938
0.0389673
-3.70556e-05
-0.563069
0.101544
0.461525
0.0902931
-0.0951326
0.00483948
0.0500157
-0.527104
0.477088
-0.580846
0.0949828
0.485863
0.197936
-0.240834
0.0428981
0.378118
-0.10219
-0.275927
-0.199297
0.134348
0.286902
-0.117152
-0.505527
0.151177
0.144129
0.00986765
-0.0803425
-0.108562
0.333614
0.318125
0.522696
-0.0558453
-0.46685
-0.483803
-0.298811
-0.0651845
0.348801
0.146264
0.0898594
0.362835
0.069827
-0.32114
0.251313
0.0247839
0.00145178
-0.0262356
0.0574544
0.465241
-0.462783
0.639135
-0.176353
-0.0545672
-0.0130024
0.0675695
-0.0319515
0.0348567
-0.00290524
-0.291696
-0.0757212
0.367418
0.61888
-0.427702
-0.191177
-0.00506891
0.00218468
0.00288423
0.271855
0.0628437
-0.334699
-0.505667
0.355681
0.00096459
-0.00374539
0.0027808
0.388841
0.166835
0.00170343
-0.0211384
-0.25751
0.248453
0.00905685
-0.719453
0.370937
0.348516
-0.0250626
0.0719637
-9.19406e-05
-0.00497697
0.161529
0.14844
-0.116289
0.539808
-0.423519
-0.162976
-0.0720201
0.234996
0.256011
-0.0580751
0.148913
0.0940704
-0.242984
0.0323561
0.386774
-0.41913
-0.484138
0.165601
0.318537
-0.152622
-0.181589
-0.0295797
0.011211
0.0183687
0.486257
-0.276816
-0.209441
-0.128399
0.614919
0.0650579
-0.219274
0.15318
0.0888259
0.241275
-0.435061
0.193786
0.396147
-0.522305
0.126158
-0.131007
-0.105309
-0.090974
0.445914
0.0394077
0.327714
-0.367122
0.443741
-0.591939
0.148197
0.174045
-0.0429661
0.0696938
-0.0738447
0.424786
-0.541075
-0.643415
0.269022
0.181015
-0.579646
0.398631
0.204379
-0.0993268
-0.555393
-0.331206
0.459829
-0.153331
-0.153729
0.0692689
-0.587774
-0.522881
-0.0616606
0.123649
-0.140503
0.0168535
0.173932
-0.373849
0.199917
0.134547
0.301055
-0.435602
-0.437222
0.584645
-0.140161
0.425437
-0.285276
-0.000285286
0.0186126
-0.0183273
0.375342
-0.514788
0.139446
-0.622819
0.249844
0.372975
0.231237
-0.602601
0.371364
0.171821
0.371948
-0.543769
-0.132529
-0.209996
-0.275209
-0.0773039
0.352512
-0.505946
-0.0549029
0.0298403
-0.222735
0.295564
-0.0728287
0.00997046
0.0213617
-0.0313322
-0.075479
-0.0688362
0.144315
0.321453
-0.534192
0.480076
-0.44772
0.299431
-0.439592
-0.382155
0.0022075
0.0168534
-0.0190609
-0.574414
0.4632
0.111214
0.10661
-0.438631
0.332021
0.35907
-0.314574
-0.0444959
-0.0371639
-0.0608122
0.0979761
-0.208944
0.630335
-0.421391
0.072152
-0.235128
-0.216801
0.390733
0.0702129
0.163053
-0.233266
0.132278
-0.135732
-0.379795
-0.244147
0.00282178
-0.00162099
-0.00120079
-0.00333697
0.0353071
-0.0319701
0.434232
-0.394825
-0.127158
0.0319961
0.0951621
0.338742
-0.124556
-0.214186
0.470001
-0.46124
-0.0609514
-0.0662068
0.206421
0.279172
-0.530653
0.389222
0.141431
0.150903
0.429673
-0.580576
-0.00262916
0.0012254
-0.0317351
0.0314498
0.367858
-0.0756907
-0.00811822
-0.0149526
-0.0285255
0.0270403
0.32549
0.170088
-0.495578
-0.288996
0.0564354
-0.0257971
-0.297354
0.240055
0.0572993
0.209954
-0.396962
0.187008
-0.0951202
0.387517
0.126324
-0.57165
0.445326
0.371513
-0.161559
-0.43243
0.630223
-0.197793
0.0151397
0.34393
0.0694142
-0.176063
-0.184752
-0.422132
-0.145118
0.375152
-0.325136
-0.154709
0.407099
-0.252389
0.199252
0.287006
0.182154
-0.513361
0.000498626
-0.0128512
0.0123526
-0.180677
0.24872
-0.0680431
0.24787
0.0802079
0.304301
0.0738165
-0.000782715
0.0993819
0.09737
-0.228377
0.0606587
0.0217411
-0.00124185
-0.0168777
0.0175875
0.201739
0.115117
-0.316856
-0.406344
0.351327
0.0550173
-0.05279
-0.184345
-0.346308
0.0602949
0.122802
-0.155032
0.0385062
0.116526
0.516967
-0.0686726
-0.448295
0.395564
-0.634359
0.538241
-0.0506857
-0.487556
-0.048322
-0.019353
0.363236
-0.133836
-0.00801526
-0.0351381
-0.0389297
0.0355928
0.504367
0.156814
0.0757861
-0.412867
0.337081
0.0130357
-0.576481
0.0261545
-0.00137067
0.251591
0.0920158
0.0550639
0.281371
0.189134
-0.253303
0.200274
-0.13086
-0.0291474
-0.00711765
0.036265
-0.0616454
0.283376
-0.0395805
0.0104332
-0.166869
0.536422
-0.369553
-0.328415
0.185108
0.10201
-0.590662
0.176211
-0.0448819
-0.344103
0.0825914
0.261512
0.0145855
0.117692
0.0790494
0.20243
-0.281479
0.389292
-0.0849908
-0.493677
0.0201265
0.473551
0.324504
-0.243832
-0.466075
0.233557
0.232518
-0.268543
0.525386
-0.256843
-0.140585
-0.606937
0.18301
0.423927
0.456139
-0.3232
0.323388
-0.461614
0.138226
0.388128
-0.186389
-0.0150107
-0.000229754
0.0152404
-0.490905
0.512128
-0.512619
0.410938
0.101681
-0.345371
0.0848857
0.260485
-0.275969
0.410516
0.0425386
-0.04883
-0.00604535
0.00241313
0.00363222
0.00725487
0.048244
-0.0554989
0.406046
-0.0345321
0.403895
-0.0125999
-0.262609
-0.117159
0.334873
-0.217713
0.403122
0.118969
-0.52209
-0.2705
0.153528
0.116972
0.445121
0.177717
0.000609209
0.045553
-0.0461622
-0.38236
-0.192711
0.575071
0.1762
-0.556773
0.380573
-0.0244594
0.0139983
0.0104611
0.293617
-0.101077
-0.192539
0.211805
0.380151
-0.313896
-0.170243
-0.0739967
0.0812516
-0.230143
0.0751257
0.155017
0.0761043
0.217513
-0.276608
0.20877
0.437758
0.14361
-0.581368
-0.0158699
-0.0575012
-0.508544
0.0148665
0.00993332
-0.486752
0.153649
0.333102
-0.45477
0.186227
-0.367522
0.56926
0.0182806
-0.017782
-0.295934
0.22372
0.0722141
0.467915
-0.234358
0.082291
-0.12206
0.0397688
-0.033315
0.00136354
0.265538
-0.466289
-0.0705278
-0.159615
0.283863
0.105429
0.389065
-0.323256
-0.0658097
-0.365063
0.0733667
0.00920061
0.0219229
-0.0311235
-0.000434695
0.0181214
0.111041
0.11198
-0.223021
0.122405
-0.0401139
-0.0443003
-0.0577263
0.102027
0.515859
-0.0911172
-0.424742
-0.00286367
-0.0618212
0.0646849
-0.210838
0.289887
0.342733
0.156854
-0.499587
0.00738863
0.0154898
-0.0228784
-0.00224901
0.0353822
0.415703
-0.226727
-0.188976
-0.111275
-0.306085
0.41736
-0.00667547
0.0323981
-0.0257226
0.34039
-0.207926
-0.132464
0.511564
-0.188175
0.0328032
-0.0191059
-0.0136973
0.112825
0.0633859
0.00711239
-0.0524061
0.0452937
-0.292869
0.475023
0.00806311
-0.0626303
0.0727613
-0.211935
-0.017733
0.00272227
0.598495
-0.0291217
-0.131624
0.384936
-0.253312
0.0373817
-0.0745456
0.041557
0.364489
0.242542
0.033895
-0.276437
-0.438398
0.000645018
-0.10666
0.405818
-0.299159
-0.427307
0.455699
-0.443875
-0.0118237
0.505836
-0.41288
-0.0929566
-0.0038022
-0.0959464
-0.082618
-0.0750109
-0.233002
0.308013
-0.176071
0.286089
-0.110018
0.42658
-0.185305
-0.37151
-0.00519966
0.0304335
0.0344561
0.132035
-0.0520203
-0.243914
-0.0504208
-0.00227625
0.0526971
0.303319
-0.0944698
-0.20885
-0.0144829
0.0218716
0.194125
0.146264
0.442629
-0.366843
0.0997814
0.0548527
0.189609
0.313039
-0.115091
-0.197948
-0.00141
-0.00463535
0.366667
-0.311603
-0.00171322
0.000719434
0.000993786
-0.370869
0.0929342
0.20705
-0.0338286
0.152399
0.103612
-0.0240014
0.0278198
-0.00381842
0.0437149
-0.26645
-0.0875257
0.353064
0.443494
-0.0960683
-0.347426
-0.0844872
0.0990727
0.00313694
-0.00368275
-0.106669
0.503014
0.0491153
-0.0291902
-0.0199251
0.0816417
-0.0582802
-0.0233615
0.390768
-0.40518
0.0144113
-0.0022275
-0.000401662
0.150038
0.33446
-0.484497
-0.0550055
0.0621178
-0.0704712
0.0676075
-0.00388921
-0.0258629
0.338512
-0.434924
-0.150385
0.573269
-0.422884
0.432648
-0.341186
-0.0914616
0.442524
-0.313801
0.0957868
-0.528217
0.210484
0.205219
-0.213027
0.343046
-0.153523
-0.208723
0.362246
0.074192
0.126082
-0.137278
-0.00619362
0.0975905
0.0927172
-0.190308
-0.0164544
0.0256372
0.0987477
-0.563069
-0.0415863
-0.215924
-0.569565
0.165686
0.144815
-0.496118
0.351303
0.00234473
0.00172943
-0.00407416
-0.442249
0.426482
0.0157672
-0.00942802
-0.0328704
0.0422984
-0.494877
0.112517
0.364068
-0.50486
0.140793
-0.0853437
0.602311
0.590029
-0.261015
0.040842
0.0738096
-0.114652
-0.0933477
-0.0153561
-0.141112
0.146303
-0.00519081
0.179209
-0.118914
0.0183203
0.546667
0.24022
0.349809
-0.161118
0.487653
-0.326534
-0.00491563
-0.40194
-0.112848
0.0029244
-0.0269258
0.0145904
0.0121008
0.046837
-0.0376363
-0.178548
-0.0583173
0.0488443
0.00947304
0.354643
0.151193
-0.0666828
0.22178
-0.410501
0.0969505
0.185087
0.118232
0.00833526
-0.052892
0.0445568
-0.350095
0.196572
0.00328332
-0.000261324
-0.0231895
-0.117923
-0.0780254
0.349881
0.0522463
0.158932
0.337412
0.167154
-0.504567
0.00139545
0.115868
0.0029361
-0.00186085
-0.00107525
0.00063546
0.00230064
-0.162664
0.486197
-0.323533
-0.108267
0.104464
-0.0390423
-0.010443
0.0494853
0.0692808
-0.00452025
-0.000805361
-0.0174993
-0.0474633
0.0394481
0.0468448
-0.00864106
0.184977
-0.0503162
-0.134661
-0.342652
0.49269
0.209795
-0.0987539
-0.173149
0.0263875
0.146761
0.213723
0.0993161
0.490501
-0.126434
-0.389265
-0.166825
0.55609
0.575471
-0.0372296
0.516515
-0.305987
-0.210528
0.0905279
0.0216693
-0.112197
0.336644
-0.20222
-0.134424
-0.0486739
0.0128593
0.0358146
-0.0013475
0.00251211
-0.00116461
0.104069
-0.530682
0.426614
-0.367707
0.568393
-0.200686
0.0227631
-0.0176639
-0.00509915
0.0607556
0.0208861
-0.0629364
0.231003
-0.168067
-0.433857
0.31827
0.115587
-0.00140204
-0.00263178
0.439027
0.074662
0.294324
0.138324
0.00154872
0.183428
-0.010304
-0.162845
0.0467586
-0.00422001
0.421988
0.173666
-0.398488
-0.320965
0.0108197
0.0382957
-0.498807
0.366731
0.132076
0.0250931
0.00264995
-0.0277431
0.473753
0.124742
0.0261967
-0.0328721
-0.176036
-0.0944639
-0.116603
-0.325646
0.548564
-0.42224
0.502094
-0.0822025
-0.419892
0.474148
0.144732
-0.00100858
0.0261017
0.0125073
-0.163752
0.487965
-0.324213
0.104047
-0.0144583
-0.0895883
-0.07063
0.608194
-0.2713
0.375684
-0.0786019
-0.0975009
0.176103
0.134579
-0.00821636
-0.0729006
0.081117
-0.510872
0.629684
-0.118812
0.493981
0.203111
-0.209641
0.239181
-0.0132569
0.00473113
0.00852579
0.543278
-0.377676
-0.0262689
-0.383879
-0.0480648
0.431943
-0.0757537
-0.0792786
-0.459301
0.171666
0.287635
-0.489299
-0.13352
-0.0128512
-0.528095
0.361226
-0.139792
0.129721
0.010071
0.502003
-0.159269
0.00822484
-0.066505
-0.314881
0.197722
0.0932553
-0.0636452
0.00454367
0.0591015
-0.0348493
0.0606941
-0.0258448
-0.118079
0.215669
-0.0504542
-0.257225
0.0475834
0.122958
-0.000239073
0.336714
-0.0851229
0.0834453
0.241059
-0.401792
0.499364
-0.0975717
-0.553811
0.430313
0.123498
0.467567
-0.34694
-0.0564979
-0.110662
0.0701224
-0.547584
0.000554055
0.0199781
-0.0205322
-0.29831
-0.0470614
-0.185148
0.594578
-0.40943
0.312419
0.0376959
-0.350115
0.354267
-0.0774046
0.530849
-0.365414
-0.165435
0.283865
0.122023
-0.353404
0.118624
-0.232082
0.113458
0.00487994
0.0217496
-0.0266295
-0.346592
0.491407
0.525115
-0.421047
-0.17073
-0.202779
-0.00386559
-0.0337787
-0.394886
-0.192477
0.587363
-0.071993
-0.502421
-0.125192
0.562951
0.127231
-0.00358168
-0.335697
0.384598
-0.0489009
-0.0451739
-0.0131435
0.41029
-0.0372835
-0.0113903
0.000639622
0.0229573
-0.0235969
0.310958
0.144741
-0.0690726
0.0124697
0.0906464
-0.4948
0.404153
0.0501774
-0.0342632
-0.0159142
0.544058
-0.147911
0.307032
-0.278445
-0.0285868
-0.512726
0.145019
-0.000821009
0.108833
0.0136323
0.091807
0.0388212
0.047861
-0.0850615
0.29101
-0.516304
-0.537209
0.0229948
-0.123258
0.474305
-0.351047
0.00841268
-0.00776766
0.529883
-0.439237
-0.245655
0.0598026
0.185852
0.562764
-0.155791
0.0207804
-0.446375
-0.124374
0.57075
-0.135761
-0.341293
0.477054
-0.021213
0.0234205
-0.4818
0.444462
0.037338
0.0273773
-0.0486193
-0.43318
0.560845
-0.389024
-0.427583
0.568917
-0.141334
-0.00329515
0.00106765
-0.00667206
-0.120742
0.00036333
-0.016617
0.189454
-0.0472173
-0.142237
-0.000387943
-0.0449941
0.0196507
0.0143606
0.62174
-0.400169
-0.221571
-0.0180288
-0.011551
-0.481435
0.125876
0.0156179
0.0991029
0.279495
0.350727
0.562044
-0.381029
-0.0557024
-0.109242
0.0196616
-0.200339
0.413832
-0.312287
-0.0784146
0.0345968
0.0438178
0.108604
0.08085
0.086222
-0.500803
0.414581
-0.00442078
0.0290682
-0.0246474
0.223131
0.167451
-0.390582
-0.0146449
0.0195248
-0.0835738
0.106307
-0.0227333
-0.556997
0.402759
0.154238
0.43393
-0.150848
-0.283082
-0.431211
-0.124223
0.165708
0.152377
-0.0873485
-0.0650283
0.179141
-0.161878
-0.540466
0.00717509
0.533291
-0.387239
-0.139943
0.527182
0.497919
-0.411697
-0.267793
0.0963843
0.171408
0.0580608
0.00654342
-0.0646042
-0.0358595
-0.12594
0.196153
-0.0499585
0.0448088
0.00514965
-0.20527
-0.0779674
0.00199206
0.0686931
-0.452572
-0.00179341
0.00275052
-0.000957116
0.0768366
0.357396
0.331806
0.469731
-0.270479
-0.00305989
0.037272
0.332093
-0.444025
0.111933
-0.101997
0.0566594
0.090705
-0.147364
0.529632
-0.033963
-0.495669
-0.303748
0.379267
0.154252
-0.533519
0.00528463
-0.0401339
-0.0242421
-0.034119
0.503346
-0.296925
0.248718
0.373022
-0.0438226
0.0521579
0.555771
-0.200473
-0.355298
-0.0536294
0.459263
-0.405633
-0.385339
0.462567
-0.0772279
-0.463124
0.140527
0.322597
0.0787348
-0.541517
0.408223
0.15307
-0.561293
0.0367786
-0.0935852
-0.437097
-0.121261
0.195453
-0.0205733
0.264436
0.0722773
0.0026607
0.000161085
-0.29659
0.224612
0.0719784
-0.0191542
-0.120638
0.0414046
0.107806
-0.0583177
-0.21829
0.0535367
0.0137136
0.413369
-0.0839229
-0.383597
0.138944
0.244653
-0.0962336
-0.490702
0.36932
0.121382
-0.306257
0.000935045
0.112069
-0.113005
0.345611
0.170498
-0.450847
-0.124608
-0.0553707
0.255056
-0.199685
-0.108459
0.55501
0.0159247
-0.00131011
-0.389634
-0.018958
0.408592
0.270388
0.0838791
-0.113689
-0.284254
-0.091106
0.552777
-0.461671
-0.129437
0.438373
-0.308936
-0.0233553
-0.00436924
0.138622
0.331109
0.22603
-0.107406
0.0787788
0.00437735
-0.0831561
0.352406
0.178443
0.348758
0.160972
-0.50973
-0.0503923
-0.0740218
0.0855033
-0.0114815
0.469282
-0.583704
0.496922
-0.341516
-0.155406
-0.0664328
-0.121499
0.187931
-0.260142
-0.123455
-0.0451557
0.0421599
0.273915
-0.388966
0.115052
-0.166554
0.0542259
-0.279192
0.375433
-0.0962413
0.0587055
0.0936713
-0.584051
0.335263
-0.51309
0.177827
-0.154994
-0.385716
0.540711
0.283564
-0.226882
-0.0566817
-0.329902
-0.0561657
0.386067
0.349849
-0.485058
0.135209
0.0695959
0.1938
-0.056772
-0.0970299
0.376552
-0.201094
-0.175457
-0.0728702
-0.0310413
-0.358593
-0.147173
-0.202622
0.0689757
0.133646
0.592944
-0.163271
-0.077336
0.0855609
-0.413709
0.302434
0.126439
0.261009
-0.387448
-0.0501779
0.0407499
-0.160985
-0.00284675
0.163832
0.218845
-0.578544
0.397536
0.181009
0.325316
-0.255489
0.0787472
-0.51623
0.437483
-0.111133
-0.000377707
0.111511
0.0434316
-0.0653659
0.0219343
-0.430091
0.110311
0.319779
-0.494463
0.360696
0.133767
-0.0993653
-0.190009
0.289375
-0.281741
0.119503
0.162238
0.101606
0.214601
0.0353223
-0.574305
0.0372735
-0.0159118
0.115142
0.414799
-0.52994
-0.00439429
-0.0407614
-0.326767
-0.128939
-0.103503
-0.0376836
0.141186
-0.101738
-0.0405413
-0.447913
0.338875
0.109038
-0.264695
0.247917
0.0167779
-0.016106
-0.0077922
0.0238982
0.016437
0.00102281
-0.422055
-0.0045633
0.00447136
0.232777
-0.314911
0.0821342
-0.430334
0.279486
-0.00285938
0.00106597
0.434009
0.249408
-0.480945
0.427315
-0.0718415
0.22424
-0.018536
0.548168
-0.00370482
0.0205582
0.0134464
0.0367309
-0.40943
0.378389
-0.119833
-0.324346
0.444179
-0.386284
0.307683
0.0786007
-0.0268822
-0.00268012
0.0295624
0.212458
-0.139696
-0.556989
0.142408
0.414581
0.110844
0.428964
-0.374312
-0.353254
0.37541
-0.0433176
0.283449
-0.400051
-0.110198
0.349475
-0.0628019
-0.596983
0.456925
0.140058
0.454979
0.329294
-0.217613
-0.0956911
0.0571066
0.0385845
0.558796
-0.140407
-0.418389
-0.0659626
-0.00723583
0.0731984
-0.0986685
0.0424296
0.0562389
-0.166037
0.442556
-0.276519
-0.0454104
0.514692
-0.493167
0.327129
0.421676
0.157939
-0.574613
0.414325
0.160288
-0.140934
0.00237211
0.138562
-0.00189479
-0.268501
0.169136
-0.405386
0.00575432
-0.00724418
0.00148987
0.160516
0.216036
0.231544
0.30208
-0.0693028
0.414382
-0.554763
0.14038
-0.0810937
-0.21646
0.447697
-0.340347
0.494283
-0.156871
-0.0212199
-0.0822826
-0.127154
0.17212
-0.561385
0.177469
0.0535799
-0.231048
-0.00163705
0.00378233
-0.00214528
-0.43444
-0.13721
-0.0619333
0.234524
-0.17259
0.0648579
-0.492897
0.428039
-0.147438
0.0928126
0.0178538
-0.0172998
-0.00440541
-0.279285
-0.107
0.023729
0.0111277
-0.377959
-0.00410667
0.00264492
0.00146175
-0.025641
-0.184949
-0.429942
-0.00863085
0.00747144
0.00115941
-0.491344
0.356482
0.134861
-0.00210763
0.0409288
-0.0150567
0.0156984
-0.00064162
-0.256169
0.364994
-0.108825
-0.556061
0.155954
0.400107
-0.00294758
-0.341425
-0.106488
-0.206416
0.189399
0.0170176
-0.00633205
-0.370876
0.377208
-0.602486
0.197758
0.404728
-0.0346041
-0.00111046
-0.277406
-0.469184
-0.0386042
0.507788
-0.25872
0.341312
0.0451999
-0.0495942
-0.11029
0.104684
0.00560667
0.0494608
-0.004652
-0.41487
-0.240418
0.655288
-0.297598
0.329916
-0.0323177
-0.573837
0.447213
0.126624
0.0968401
-0.353009
-0.334327
0.237193
0.0971339
-0.390598
0.573609
-0.0145136
0.0714114
-0.0568978
0.180782
-0.269761
0.0889789
0.0753904
0.00384852
-0.143276
0.0796674
-0.292695
-0.137951
-0.00393771
0.000192318
0.00439897
-0.0054962
0.00109723
0.00675603
0.0826356
-0.0893916
0.0984738
-0.514471
0.415997
0.356111
0.140811
-0.53875
-0.0340136
0.572764
-0.00428211
-0.0260235
0.0303056
-0.0415209
0.275377
-0.342844
0.453156
0.0696704
0.14834
-0.21801
-0.081509
0.00492398
0.076585
-0.0657987
0.282674
-0.216875
-0.407437
0.289273
0.118164
-0.580898
0.456634
0.124264
0.108813
0.301584
-0.410397
-0.0384738
-0.460686
0.49916
-0.420884
0.519358
-0.336234
-0.409206
0.555954
-0.146748
0.155246
0.289216
0.389981
0.16579
-0.226717
-0.162666
0.389384
-0.333596
0.487245
0.0663509
0.258966
-0.031467
-0.336542
0.368009
-0.136445
-0.0359158
-0.422094
0.618197
-0.196103
0.0367794
-0.490454
-0.0759451
0.566399
0.0962924
0.00775429
0.377483
0.145011
-0.487663
-0.131265
-0.0204365
0.00277257
-0.453987
0.192608
0.420513
-0.613122
-0.0401009
-0.083007
0.123108
0.0433941
-0.0761462
-0.254572
0.330718
0.000878005
-0.0629656
0.093727
-0.431324
0.311491
-0.0368559
-0.474016
0.54112
-0.36492
0.395219
0.427409
-0.288787
0.122811
-0.349529
0.142737
-0.329046
0.18631
-0.215359
-0.227142
0.442501
0.00111549
-0.00567879
-0.00406836
-0.0348614
0.238795
-0.089882
-0.128511
-0.250242
0.194871
0.110465
-0.0199373
-0.0376303
0.299514
0.205132
-0.504645
-0.00352201
-0.367293
0.0696951
-0.121257
0.559063
-0.144681
0.0486703
0.449248
0.396664
0.162399
-0.0180838
-0.41099
-0.146007
-0.209678
0.00217409
-0.00352159
-0.401974
-0.00436997
-0.173927
-0.319739
-0.0335116
0.0257194
-0.14977
-0.301435
-0.106002
-0.267039
0.00234458
-0.0747529
-0.152763
-0.401048
0.0108787
-0.0686051
-0.000958438
0.0209365
-0.204549
0.224211
0.404872
0.129054
-0.533926
-0.300077
0.408889
-0.52731
-0.434174
0.10148
0.332695
-0.00332251
-0.560628
0.427396
0.133232
0.00917738
-0.380032
0.370854
0.436287
-0.281041
0.448126
-0.396454
-0.05667
-0.236351
0.280066
0.0520614
-0.330049
0.277988
-0.291834
0.220331
0.0715029
0.000293895
0.132114
-0.132408
0.000867929
-0.371282
0.573713
-0.441037
0.555706
-0.114669
-0.253375
0.371781
0.29134
-0.00309067
0.000371768
0.0027189
0.113021
-0.407759
0.294738
0.322752
-0.213173
-0.109579
-0.454571
-0.0239958
0.478567
-0.0251788
0.0625159
0.00676489
-0.317529
-0.240837
-0.587607
0.00328851
0.293533
-0.456198
0.00631514
-0.0862576
-0.0734451
-0.395415
0.46886
0.0496276
-0.0047042
-0.0449234
-0.00189845
0.000277462
-0.465374
0.00211365
0.463261
-0.194557
0.566505
-0.526713
0.163383
0.36333
-0.00260567
0.0339143
-0.0313087
0.465816
-0.516502
-0.0138543
0.192996
0.130542
-0.130248
-0.0439174
0.138828
0.338657
-0.0548339
-0.283823
0.00267371
-0.00519466
0.376306
0.0994316
-0.475737
0.0878687
-0.00908991
0.00347809
-0.00491625
0.0586744
-0.268971
0.210296
-0.099669
0.156328
0.575555
-0.159526
-0.416029
0.0889484
0.359177
-0.0504641
0.0584773
0.196579
0.0772166
-0.0154217
-0.0340738
0.0374281
-0.00335433
-0.332381
0.151775
-0.579161
0.47008
0.109081
0.0348101
-0.370507
0.139956
0.0859573
-0.225913
-0.45752
-0.00785389
-0.52123
0.126344
0.283777
0.21957
-0.444227
-0.176823
-0.314521
-0.554754
0.193974
0.36078
-0.289124
-0.0496286
0.338752
0.532761
-0.511343
-0.0214185
-0.30057
0.432945
-0.00755323
-0.103691
0.111244
-0.00485304
-0.0691437
-0.545204
0.157965
0.146136
-0.487776
-0.00662441
-0.115822
0.117217
0.104569
0.181687
-0.286256
0.270403
0.212104
0.318381
0.000185872
0.381463
-0.402375
0.0209127
-0.176544
0.0795154
0.0225112
-0.512812
0.4235
0.0893115
-0.0558781
0.0536018
-0.427519
0.298082
0.390515
-0.00105331
0.0207731
-0.0197198
-0.462121
0.00754999
-0.463362
-0.117535
0.146873
-0.118633
-0.0282397
-0.54242
0.122886
0.419534
0.00495653
-0.0390303
-0.0331088
0.305714
-0.272606
0.158505
-0.221442
-0.14523
0.221334
-0.504757
0.200811
-0.00526057
-0.00799635
0.181237
0.294532
-0.475769
0.305138
-0.420335
0.115198
0.356144
0.0246546
-0.0273348
0.0221085
-0.00182809
-0.0202804
-0.0655472
0.00172201
-0.0522726
0.0505506
-0.0101515
0.0338804
-0.51405
0.147946
0.366103
0.0440708
0.538849
-0.142185
-0.575747
0.221026
-0.151355
0.435848
-0.152399
-0.0679848
-0.0189563
0.0869411
-0.100954
0.520834
-0.41988
0.412014
-0.402837
0.00675453
0.279335
-0.138993
0.0988923
-0.569811
0.148304
0.0774845
-0.00209403
0.0244365
-0.0014792
-0.329127
0.0400028
-0.182333
-0.392805
0.575137
0.126323
-0.567359
0.0837522
-0.201831
-0.0895251
0.461306
0.534544
-0.159995
-0.374549
0.00585275
-0.097054
0.0912012
-0.000679792
0.0185336
0.533599
-0.125377
-0.111797
0.390367
0.143232
0.432239
-0.091662
-0.340577
0.590021
-0.464071
-0.12595
-0.599576
0.427329
0.172247
0.0453079
0.156461
-0.201769
0.118416
-0.125969
-0.13985
0.517612
-0.377762
0.361012
-0.20492
-0.156092
0.31755
-0.418503
-0.12023
0.12457
-0.00434081
0.193908
-0.531057
0.337149
0.00780255
-0.0582848
0.237562
-0.179277
-0.515049
0.176079
0.33897
-0.542312
0.424346
0.117966
-0.0827057
-0.230366
-0.348179
0.404188
0.134661
-0.435686
0.144302
0.291384
-0.280717
0.228265
0.0524523
0.319544