/*--------------------------------*- C++ -*----------------------------------*\
| =========                 |                                                 |
| \\      /  F ield         | OpenFOAM: The Open Source CFD Toolbox           |
|  \\    /   O peration     | Version:  v2012                                 |
|   \\  /    A nd           | Website:  www.openfoam.com                      |
|    \\/     M anipulation  |                                                 |
\*---------------------------------------------------------------------------*/
FoamFile
{
    version     2.0;
    format      ascii;
    class       volScalarField;
    location    "250";
    object      ddt0(k);
}
// * * * * * * * * * * * * * * * * * * * * * * * * * * * * * * * * * * * * * //

dimensions      [0 2 -3 0 0 0 0];


internalField   nonuniform List<scalar> 
13308
(
-6.59914e-06
4.66477e-07
-2.11284e-05
1.59166e-07
-2.0342e-07
1.13328e-07
-1.60212e-07
-3.52233e-06
2.54021e-07
-6.42463e-08
1.18783e-06
0.000138991
-8.69179e-06
-5.51302e-08
-7.94454e-08
-1.96454e-07
1.22734e-07
2.06575e-07
-4.09557e-06
4.65574e-08
-1.71744e-07
4.4968e-09
1.43273e-08
0.0002259
2.96194e-06
2.47738e-07
-0.000370149
8.87885e-09
0.000462077
6.00387e-09
0.000109853
0.000302873
4.81766e-05
0.000208997
-8.2635e-06
8.01929e-08
8.30541e-09
-1.26551e-07
3.78593e-07
7.23012e-07
1.88987e-07
1.86482e-07
-8.92429e-06
2.36127e-07
-0.0003175
5.5619e-05
3.25227e-07
-1.9491e-08
1.12383e-07
4.97708e-09
0.000455867
-7.79094e-07
-7.74175e-09
8.16426e-05
-6.20066e-08
2.69816e-07
-2.56921e-07
-5.25282e-08
-5.31012e-08
-1.54122e-06
3.2964e-08
-4.46716e-08
-4.43906e-07
4.481e-07
1.63804e-07
8.12466e-08
1.28831e-06
-0.000611577
-0.000176998
2.37436e-07
-5.60359e-10
-2.7007e-07
1.531e-07
6.29985e-07
1.08192e-07
1.47975e-08
-0.000293014
1.21645e-06
1.31577e-05
-5.79152e-08
2.75057e-08
-2.08038e-06
4.38086e-08
-1.31791e-07
-0.000207562
1.81797e-07
1.07051e-08
9.39041e-07
-2.06939e-06
-9.09591e-08
-1.48719e-08
-0.000706195
3.49795e-06
3.70428e-06
3.66909e-08
1.35985e-06
1.06958e-08
-1.07782e-05
4.28022e-07
1.30182e-06
1.58791e-06
-5.08081e-08
3.46141e-07
1.05131e-07
8.37932e-08
9.39735e-09
8.67067e-06
-3.5897e-06
-9.16277e-08
6.52313e-06
5.82593e-07
0.000206461
-7.08156e-09
-0.000181355
1.81232e-06
4.8825e-05
-7.59733e-07
7.14386e-07
1.03804e-07
1.03229e-06
-4.14524e-07
-5.75755e-08
-2.21085e-07
3.97174e-07
-2.01619e-06
6.59879e-08
0.000262819
-2.61992e-07
4.56082e-09
-0.000297893
1.2949e-05
6.6993e-07
3.23118e-07
-2.67438e-06
-1.25166e-07
4.09807e-07
8.41198e-08
3.55489e-07
2.42091e-06
7.86372e-08
-1.22444e-05
-0.000907414
0.000161093
-9.69866e-07
0.000195133
2.17696e-05
5.28023e-08
-9.08906e-09
-1.55798e-07
-0.000399038
-0.000205924
4.5535e-09
2.19453e-09
-4.46586e-08
-1.59466e-08
2.47013e-07
1.03522e-08
3.25426e-07
-1.29258e-06
0.000197593
-2.28521e-06
-0.0007964
6.95319e-08
9.93876e-08
-1.73786e-07
-4.64249e-07
4.45353e-07
-3.21153e-05
2.9935e-06
2.65527e-06
-2.74568e-06
-2.94207e-07
3.87346e-05
4.77529e-06
1.00283e-06
-7.82355e-10
6.88375e-07
2.59077e-06
3.3999e-08
-1.11308e-07
4.54581e-06
-5.9251e-08
2.8205e-07
-0.000429282
-6.49726e-07
1.69009e-07
-6.26769e-08
5.15766e-08
-1.38644e-07
-8.81927e-07
5.66774e-07
3.88143e-07
-4.89496e-06
-0.0018266
1.46958e-05
1.15763e-05
1.53584e-06
1.16137e-07
1.33571e-07
-3.95556e-06
4.66029e-05
-1.42076e-07
-2.40632e-06
3.07534e-07
-1.52796e-06
5.05124e-06
7.3765e-07
-2.33792e-08
-1.22474e-07
-2.26619e-07
1.04787e-06
-0.000279268
-3.37073e-10
-0.000111113
3.69964e-07
4.5273e-06
7.89449e-08
1.09709e-05
1.13247e-07
3.44753e-07
-1.07753e-07
-3.57232e-09
-5.61633e-08
-3.66696e-06
-2.38596e-08
8.16778e-06
4.71327e-07
2.04438e-08
-0.000132579
-4.88669e-06
-2.2487e-07
1.54583e-08
1.6438e-07
2.16771e-07
-1.18725e-06
-4.63228e-08
2.08472e-07
3.40501e-08
7.44896e-09
-1.62352e-07
-8.9815e-08
-8.26203e-07
-4.46134e-08
-8.27854e-07
1.38282e-07
-1.73884e-07
0.000144073
3.37916e-07
-3.11551e-07
7.46318e-07
4.74062e-06
-2.23314e-09
7.18446e-06
-7.12776e-10
-7.15237e-10
1.45402e-06
-2.54343e-08
-1.33927e-07
-1.85751e-07
9.67141e-07
-5.30073e-07
5.93474e-08
2.61443e-07
1.05173e-07
7.46215e-05
8.4861e-09
7.29274e-06
4.63994e-06
-0.000119053
-3.57011e-06
-6.3925e-09
5.45098e-07
-8.04383e-08
-2.16219e-07
6.92933e-06
8.84734e-05
3.41596e-08
-7.84131e-07
-1.37617e-05
-5.21592e-08
-1.4784e-07
-1.73759e-07
-1.03141e-05
5.34534e-06
4.90883e-06
-1.31458e-09
-4.58367e-08
6.41436e-06
1.56096e-07
2.52204e-07
-5.83682e-06
-0.000629777
-2.89285e-05
-0.000180755
-4.3637e-08
-2.19534e-08
5.53282e-07
-1.2031e-07
-0.000283125
-1.20602e-07
-0.000348712
-3.78099e-07
1.66611e-06
-3.6004e-08
-6.21969e-07
-1.10842e-07
7.23208e-07
-3.20855e-06
1.80931e-07
-5.75218e-08
-5.64584e-07
-2.46215e-06
-0.000483728
-2.94665e-08
-5.82318e-06
-0.00025499
-5.94839e-06
5.51468e-07
-6.23065e-06
-2.27338e-07
-1.35483e-07
-1.44548e-07
-3.19492e-07
2.80571e-07
3.0052e-06
3.27597e-06
3.85821e-07
-1.65141e-07
-9.13345e-07
-7.41129e-10
2.41522e-06
5.76144e-05
6.70601e-07
5.44179e-08
-3.72733e-07
0.000437424
-1.19263e-07
-6.67634e-07
3.4709e-07
4.73153e-07
-0.000163353
-1.05233e-08
7.12015e-07
8.14959e-07
-1.04885e-06
9.01917e-09
9.19039e-08
2.06173e-07
-1.144e-07
-4.89824e-05
7.40153e-07
3.6245e-08
5.45974e-07
2.96443e-08
5.00102e-06
1.91552e-08
8.75285e-07
-1.95449e-05
-1.19503e-05
9.4594e-08
-5.47526e-07
3.59246e-08
7.98958e-05
-3.10793e-10
3.14053e-06
4.12776e-07
-2.06724e-07
-8.88235e-06
4.64093e-09
4.94298e-08
-8.23832e-06
-0.000285369
-1.17834e-06
-2.00659e-06
1.17617e-07
-6.44415e-07
-1.85589e-05
-1.30867e-07
9.30687e-06
2.31164e-07
9.50103e-08
-5.65586e-07
-1.71798e-07
-1.93701e-06
1.36407e-06
-1.30918e-07
-3.95915e-08
4.02787e-06
2.76537e-07
-0.000401333
-0.000400374
-1.71583e-07
-1.11962e-07
8.01167e-05
-2.44215e-07
-1.08266e-06
-1.53836e-07
1.90393e-07
-1.61712e-05
3.40015e-05
1.37578e-06
-2.16661e-07
-1.1816e-07
-2.06017e-08
-2.84088e-07
2.64862e-08
2.99605e-07
1.30753e-08
-2.25673e-05
2.91813e-06
1.82933e-05
-0.00062655
-8.44888e-06
-9.2573e-08
0.00120668
2.28227e-07
3.16543e-06
-1.7152e-07
1.77875e-08
3.09063e-07
-8.48016e-08
-3.12047e-08
-4.24167e-06
-3.41173e-07
-0.0018396
-2.28848e-06
4.94852e-07
-0.000515694
-2.70744e-05
4.32745e-05
-1.23937e-07
-0.000214841
0.000791417
6.28188e-06
-1.22136e-07
-7.56644e-06
2.85054e-07
1.63822e-07
-3.99589e-09
1.26429e-06
1.31098e-08
-7.39331e-08
7.02403e-08
-1.6928e-06
1.96819e-07
-0.000356374
-4.29147e-06
1.15062e-08
9.45313e-08
2.43036e-05
5.05673e-06
-6.21402e-08
-3.54403e-07
-2.75354e-07
-4.16048e-06
0.000250682
2.30112e-07
5.25651e-07
2.17044e-06
-6.36512e-07
3.42717e-07
-2.54364e-06
1.87843e-07
-7.85682e-10
-2.45956e-07
-1.57552e-07
2.18462e-07
0.000781313
-3.10778e-07
1.79275e-07
7.78385e-08
2.28679e-07
-1.42246e-06
-3.55771e-06
1.02731e-08
3.00442e-08
1.56633e-06
1.157e-08
-4.42413e-06
-1.71265e-10
6.74943e-07
1.43257e-08
6.43496e-06
-1.66606e-06
1.35536e-07
0.000110697
3.15668e-07
0.000582492
-1.89245e-08
4.86576e-06
2.1068e-07
-0.000609258
2.51022e-07
4.08598e-07
5.13796e-07
3.44253e-06
9.73023e-06
-8.09191e-08
1.88447e-07
2.92659e-07
4.25739e-07
0.000151742
-6.73433e-06
-8.96091e-05
-3.95456e-06
-0.000144083
-5.58683e-08
6.89097e-06
-6.91032e-07
0.000261912
2.32604e-07
-5.63403e-05
-0.000223466
-6.78443e-07
2.68403e-07
-0.000161342
-1.40902e-05
4.26054e-08
-2.16609e-06
-3.72875e-08
4.31707e-06
-0.000403836
4.81542e-07
1.41458e-05
-3.85742e-05
0.00055068
-4.45703e-06
2.48159e-06
5.50868e-05
-2.18348e-06
-7.57401e-09
-1.89187e-09
-0.000472119
6.44584e-06
6.64513e-07
2.70862e-07
-9.7607e-07
1.17205e-06
7.27465e-05
-4.7039e-09
1.7427e-06
-0.000179035
4.44554e-05
1.18747e-07
-4.55761e-09
5.10887e-06
3.50032e-09
0.000158852
3.74433e-06
3.77877e-06
4.81231e-09
2.46548e-08
-1.37333e-05
-2.50256e-08
-4.43398e-06
1.53564e-08
5.07636e-06
3.53586e-07
5.2485e-06
5.96961e-09
-1.50326e-07
7.28403e-10
6.83397e-06
1.49883e-07
-3.71658e-08
-7.47205e-07
-1.66364e-07
-7.44223e-06
-2.5331e-10
1.58887e-08
-0.000518975
8.25526e-09
-4.54288e-08
-2.74993e-05
4.00229e-09
0.000229158
4.65738e-07
-9.99704e-10
1.69137e-06
3.61637e-07
-3.70492e-07
7.82254e-07
2.54293e-07
4.82515e-07
4.55797e-06
-3.98532e-08
-2.55969e-07
-9.81557e-08
3.97657e-06
-3.89856e-06
2.47534e-07
-2.99358e-07
6.72871e-08
8.29024e-07
-1.0617e-07
4.35102e-06
1.29447e-07
-6.67322e-06
3.41199e-07
-0.000351065
0.000142435
1.16051e-08
9.93669e-09
1.9252e-07
-1.01334e-08
2.8256e-07
-0.000212564
-2.38703e-06
2.30474e-07
-1.41486e-07
1.33082e-08
-1.33134e-08
-2.80274e-06
-0.00031384
-1.44821e-06
-8.52917e-05
2.04862e-07
-7.49149e-08
-0.000443886
1.35569e-06
-8.81179e-06
-5.72772e-09
-1.08095e-06
-7.60382e-05
6.01118e-06
1.04887e-08
0.000122063
-3.59871e-06
3.12564e-08
-1.09114e-06
-0.000117357
2.72438e-07
1.23246e-08
-5.90403e-08
5.4686e-06
-2.92709e-07
1.09492e-07
9.90052e-08
3.10432e-06
-1.77971e-05
0.000599205
-0.000774614
-1.1679e-05
1.04123e-08
-1.22782e-07
-1.05837e-07
5.15627e-08
-2.07102e-09
1.21301e-08
-1.20934e-06
-4.24082e-06
2.74303e-07
1.35467e-05
-1.09138e-07
-0.00025057
2.43892e-06
2.206e-07
3.789e-08
2.6938e-08
1.0776e-07
2.5767e-07
2.71956e-07
2.82118e-07
-9.97721e-05
-5.50974e-06
1.07542e-08
-4.22379e-06
1.33676e-07
2.47722e-08
-1.47308e-08
-0.000163456
2.54503e-06
-1.7586e-06
1.25399e-07
-7.80285e-08
-4.22528e-06
1.10346e-06
1.00622e-08
2.62896e-07
-0.000280166
-0.000150544
-7.49641e-06
0.00012717
-1.43952e-09
-2.77671e-07
-0.000185285
1.47239e-10
-3.65651e-06
-2.47249e-07
-3.5357e-07
1.05319e-07
5.62397e-07
0.000520571
-8.21439e-10
-6.71522e-10
4.26748e-07
-4.74647e-05
1.50597e-08
-1.27574e-08
1.15459e-06
-8.52028e-08
-1.72077e-06
0.000109684
-1.55713e-06
-6.97639e-08
0.00097434
7.3858e-06
-7.22737e-06
-5.29649e-08
-2.40824e-05
-1.80026e-06
-7.29504e-05
5.39204e-07
1.16992e-08
-6.17964e-08
-2.37632e-07
1.08371e-08
-1.52886e-06
2.1504e-07
1.67182e-06
-2.70613e-09
-8.92597e-07
-0.000283229
-3.03327e-07
-9.42021e-08
-4.8139e-06
-0.000286343
3.21155e-07
1.38647e-06
1.70545e-09
1.02401e-08
0.00117167
-4.82307e-10
1.09032e-08
1.46907e-07
-0.000723151
3.52209e-06
-0.000705903
-1.49989e-07
5.97697e-06
-3.16086e-06
-2.93701e-08
4.54083e-06
-2.44502e-06
-1.6926e-08
4.68139e-08
-7.34827e-08
2.69989e-07
9.56451e-06
-4.80634e-07
-2.02424e-06
-4.42341e-07
-0.000268657
-1.92038e-07
2.69991e-06
-8.28051e-06
6.81038e-09
-1.48777e-05
-5.44425e-07
1.62709e-09
-4.6891e-07
-3.79423e-07
-2.17311e-07
-1.32475e-07
-1.48728e-08
-3.69169e-08
3.66084e-07
-1.50395e-07
0.000353966
4.66719e-07
7.48433e-06
-1.46335e-09
-8.06743e-07
-2.18286e-06
-0.00262383
-5.25819e-07
-0.000534054
-9.51507e-05
-2.81167e-11
-5.78142e-05
3.55133e-07
2.04123e-07
-4.21334e-08
-4.30793e-07
1.23183e-08
3.4565e-08
-0.000567526
0.000927346
-0.00090064
5.44485e-07
-3.57742e-09
6.6726e-08
-1.90896e-07
1.87329e-07
-4.26009e-05
4.80163e-09
4.69686e-07
3.36349e-06
-0.000322048
-4.28269e-10
5.1404e-10
-5.36481e-08
-4.06855e-08
-3.71195e-07
8.70562e-09
6.96347e-08
1.51411e-08
-2.03516e-07
3.72511e-09
1.70298e-05
5.15673e-07
-0.000242477
-1.40005e-07
-5.02853e-06
3.6029e-06
7.7841e-09
4.24883e-07
-9.36846e-09
-1.3196e-09
-4.38754e-07
3.0261e-08
2.06482e-06
4.35137e-06
7.30493e-05
1.76834e-06
-1.87804e-07
-1.02878e-07
1.5259e-07
-1.78187e-07
3.9104e-06
3.64808e-08
3.03999e-05
-4.73936e-06
6.80741e-08
4.5169e-06
2.26078e-07
8.87989e-09
8.47604e-08
-3.69442e-08
1.32163e-06
1.11417e-07
-9.51891e-08
0.000797566
-2.25834e-06
1.10247e-08
-6.40902e-07
-1.38419e-07
1.0403e-07
-1.02385e-07
4.1302e-06
-5.81731e-07
-0.00031131
4.3077e-05
1.60893e-07
-1.65627e-07
-1.37174e-07
-2.94942e-09
-1.43843e-08
-1.70787e-07
1.08795e-07
-2.96532e-08
1.50403e-07
5.66607e-10
-2.12104e-09
5.6589e-06
2.41843e-06
-2.361e-06
-0.000490229
-7.56467e-08
2.62719e-07
1.81823e-08
-7.52826e-07
-0.000446958
1.75643e-07
5.26575e-09
-2.23591e-07
1.13248e-06
-3.54361e-06
-1.62678e-06
-1.47103e-08
0.000567146
-2.59804e-07
1.26596e-08
3.51038e-07
2.55937e-07
-4.62015e-08
-3.57528e-05
-2.36243e-07
-0.000103131
-8.52699e-05
4.13881e-06
1.74176e-06
-1.79695e-07
-0.00049731
1.23245e-07
-1.61043e-05
-0.000875058
8.94072e-09
-4.1137e-07
2.90498e-07
-1.23947e-07
-3.56811e-06
-0.000232762
1.32093e-07
-4.74571e-11
7.53108e-08
-1.11968e-06
-7.47904e-06
-0.000619362
7.71646e-08
0.000587402
3.25553e-07
-6.80553e-07
-0.0014882
9.8695e-08
-6.98684e-08
-6.42927e-06
-3.49166e-08
3.81218e-07
3.17747e-09
-0.000142464
-9.29628e-08
-0.000406632
-0.000214368
2.69412e-07
-4.28257e-06
-3.13729e-07
8.9581e-08
-3.67058e-07
-7.6781e-08
-9.80373e-07
3.50545e-06
1.04592e-08
-9.42148e-05
1.11429e-08
3.73005e-07
5.85322e-09
-0.000112063
-6.09775e-06
-3.643e-06
-1.00216e-05
-1.54513e-07
4.38027e-05
7.18739e-07
0.000176675
6.54261e-09
0.00021995
6.65664e-06
-5.07906e-10
-1.08571e-06
3.81458e-05
1.00976e-06
-4.32524e-07
1.11798e-08
8.47727e-09
-3.64618e-05
3.15587e-07
-1.83482e-07
-7.16322e-06
-1.61419e-08
-2.21476e-07
3.91032e-07
-7.30566e-08
3.57461e-06
1.77855e-07
-4.06033e-08
1.71544e-09
-1.28941e-07
-1.36862e-07
2.70101e-06
1.23023e-09
-7.6793e-06
-1.55654e-07
2.09233e-07
7.51114e-10
-0.000584684
-2.65828e-08
-1.14594e-06
-2.36478e-08
-0.000538724
8.49238e-07
-0.000387669
9.75431e-08
-1.04394e-06
-5.88146e-06
7.107e-08
-0.000161029
7.18288e-08
-6.03066e-07
3.04015e-05
-1.1272e-06
5.12071e-07
2.86785e-06
0.000144255
1.14864e-08
-1.01423e-07
-1.98317e-07
3.52696e-07
-5.44464e-06
-9.05725e-08
1.15277e-08
-1.19015e-08
2.21526e-07
1.43793e-07
-6.71603e-08
5.65661e-06
1.40229e-05
-0.000100641
1.17173e-06
0.00119711
-1.63582e-06
7.12002e-07
-4.59262e-07
1.8555e-06
-2.93368e-11
0.000116747
-2.91817e-10
4.351e-08
1.12762e-05
2.00058e-06
1.15862e-07
-4.22577e-05
-1.142e-07
-3.75075e-06
1.56694e-07
1.51848e-07
-2.26072e-07
0.000216111
-2.38421e-06
-7.09043e-06
1.94835e-05
0.000104181
-7.72984e-05
2.81338e-07
-1.42661e-05
1.20024e-08
-0.000184853
-4.45067e-08
4.31362e-07
2.31168e-06
-1.06574e-07
-1.34282e-07
-1.83022e-09
-6.96672e-07
-6.25698e-06
3.18868e-06
5.79835e-06
5.78191e-06
-3.53495e-09
-2.16091e-10
-2.50903e-10
3.04772e-07
3.29805e-07
-5.92473e-06
3.11641e-07
1.62888e-07
-1.32135e-07
3.14241e-07
1.15363e-08
1.25799e-06
-3.17216e-05
1.97932e-07
0.000816531
-7.58792e-07
-2.10211e-08
-1.92429e-06
-1.1345e-08
0.000369161
1.64272e-08
2.06615e-07
-7.34659e-08
2.7608e-07
2.8692e-06
-4.57247e-08
1.60252e-06
-2.30432e-07
-1.08568e-08
-1.3985e-07
4.17492e-07
-1.15607e-07
-0.000277924
-3.64075e-07
5.19961e-06
-1.47386e-07
2.59553e-07
1.30576e-06
1.40162e-08
2.46536e-07
3.15631e-07
-1.66072e-07
-1.37164e-05
4.83073e-06
7.56339e-07
-9.43301e-08
3.30254e-06
-9.36689e-09
-1.60892e-07
9.09629e-06
2.33069e-08
-4.73558e-08
7.27501e-07
2.0156e-07
-1.1771e-07
-4.40727e-06
-1.18942e-07
1.10291e-06
-0.000422861
1.60628e-05
6.14785e-08
7.87692e-08
7.72105e-09
1.43201e-08
-5.0104e-05
-3.31537e-08
1.05152e-07
2.83916e-07
-9.1631e-08
-9.93866e-06
8.54934e-08
-7.31665e-08
3.42509e-06
3.41696e-08
4.62463e-06
2.32276e-06
1.69346e-07
1.73816e-07
-0.000105915
2.45137e-07
-2.31629e-06
-2.84117e-08
-5.16933e-06
-3.16768e-06
-6.60294e-06
-8.8672e-07
-3.31644e-06
2.32179e-08
1.22284e-07
8.6061e-08
-1.15592e-09
6.82304e-08
6.08776e-08
0.000310704
8.45428e-08
9.78863e-08
-1.05973e-07
-0.000260783
9.36374e-09
9.33909e-09
-1.57805e-07
-6.63817e-07
-1.71617e-08
-8.182e-08
-1.45982e-07
2.8059e-06
3.93028e-10
-1.195e-06
-1.73756e-09
-9.25068e-08
-0.000378778
-1.95981e-07
-0.000186115
1.06534e-05
3.86333e-06
0.000391144
-2.84223e-10
-2.0249e-08
2.41887e-08
-2.88833e-08
1.62189e-09
-1.10298e-06
2.50877e-06
1.29331e-08
1.49721e-06
2.26994e-07
-3.10164e-07
-0.00013926
1.9495e-06
1.86918e-07
4.03231e-06
-6.08537e-08
-1.9169e-07
-0.000266164
-6.4204e-08
1.5672e-08
-1.19326e-07
-2.74535e-08
-5.57577e-08
1.73583e-08
-5.90409e-10
4.17474e-06
-0.000255773
6.60707e-08
-1.83335e-07
-1.5662e-07
-1.80485e-08
-9.81448e-08
-3.38469e-07
3.65299e-07
-0.000449198
-1.7993e-07
-4.57565e-06
-3.68952e-05
7.41613e-08
-4.27507e-07
-9.29753e-08
-1.43837e-07
-0.000231729
2.21714e-05
-6.41225e-07
5.87022e-06
-5.10618e-06
2.64333e-05
-6.37325e-08
2.22224e-07
1.37372e-07
7.96384e-06
-1.66945e-07
-5.51008e-07
-4.36025e-06
8.80662e-07
0.000180245
-7.81828e-08
-1.70959e-06
9.07252e-09
8.10685e-06
6.62772e-06
-2.98801e-07
-0.000239065
-4.03741e-07
-4.58734e-08
-3.76322e-06
-5.47438e-07
-1.00957e-07
1.39145e-06
-6.68862e-08
4.86168e-08
-2.05409e-08
-1.04522e-06
-1.91238e-06
-4.05312e-07
1.33275e-05
4.37684e-06
-3.26099e-07
4.236e-05
3.76126e-07
-4.4169e-08
-1.05953e-06
-1.43586e-06
-1.57724e-07
6.57818e-08
-0.000708128
-3.41198e-08
-1.22762e-07
-2.17011e-07
-4.42502e-07
-1.84398e-07
1.62687e-07
0.000292143
-9.1509e-10
3.90407e-10
1.58726e-07
-9.59647e-08
-6.87098e-08
-0.000221881
1.0114e-08
-2.01865e-07
-5.98066e-09
4.23845e-07
-4.03462e-07
9.99578e-09
-0.000327772
-1.83209e-06
-1.8153e-07
8.6986e-07
-5.60268e-07
-2.03996e-10
7.23511e-07
1.99575e-07
3.55138e-09
-2.16835e-06
-5.54363e-10
2.48644e-06
-4.11527e-06
-7.1134e-08
2.81572e-05
1.02464e-06
6.23848e-06
-0.000100531
-6.78756e-08
2.38324e-08
8.48426e-09
-0.000362687
1.95176e-05
-8.40651e-08
1.60869e-08
-0.000281826
5.89302e-06
-2.85897e-07
-0.000488497
-0.000418404
0.000216371
3.74485e-07
2.05294e-08
-3.59385e-10
-8.15285e-07
8.65825e-07
4.26338e-06
-3.42285e-09
1.29316e-07
1.83743e-08
-1.79475e-06
-4.28592e-07
2.49781e-06
0.000535777
2.44126e-07
2.93274e-07
5.49585e-07
3.07659e-07
7.28792e-08
4.78905e-07
-8.52907e-07
1.24204e-07
-4.4406e-06
1.73205e-08
-5.92164e-08
5.24645e-07
-7.05041e-07
-3.81118e-06
-2.88216e-06
-3.75243e-10
1.11108e-07
-7.37307e-06
2.33132e-07
-3.60802e-10
-1.60932e-06
-2.48113e-08
-3.58523e-05
3.85323e-07
2.91958e-08
6.43962e-09
3.12659e-07
-2.7353e-07
2.73692e-08
3.75808e-07
2.03913e-07
8.20313e-09
1.56084e-05
6.08907e-07
-9.41095e-05
0.000776511
-4.73614e-07
-0.000746982
1.95944e-07
1.87287e-06
5.90057e-06
2.53332e-05
2.69017e-07
-9.72202e-11
1.04657e-06
6.17747e-08
5.54886e-07
7.50064e-05
-2.22097e-07
1.45074e-08
-2.93358e-06
0.000772734
-1.59432e-07
-3.66424e-05
3.92756e-06
-5.41064e-07
-1.13857e-08
2.92899e-08
-1.20415e-07
4.21551e-07
2.53802e-06
-2.64651e-07
6.94652e-08
-1.30634e-09
-1.27136e-07
8.06782e-09
-1.90035e-08
-2.34477e-08
-0.000181392
-1.31365e-07
-0.000389642
-3.39878e-07
-1.49144e-07
0.00026012
-0.000403428
0.000722387
-3.82888e-08
-4.41166e-08
-2.79181e-07
-9.02239e-05
-1.33187e-05
-1.74357e-06
1.39592e-06
1.38599e-05
4.75551e-08
8.41249e-09
-2.64481e-08
1.47238e-07
-4.31499e-07
8.79518e-08
2.00272e-07
-3.27339e-07
1.65953e-06
6.81553e-08
-1.46865e-07
4.1242e-06
-2.09681e-06
-9.698e-06
-2.24305e-06
1.66223e-07
0.000397847
-2.15962e-06
-1.1079e-06
-8.92568e-07
1.31528e-05
1.55226e-07
-2.53446e-08
0.000560476
-5.62483e-07
3.94896e-07
-1.92017e-07
-4.60523e-07
1.34515e-08
-9.64721e-08
9.49813e-07
0.000117483
-1.16451e-06
-2.45135e-07
-2.52997e-06
-0.000231177
-0.000215561
-3.28149e-08
-7.33707e-08
-1.91048e-08
-9.15136e-05
-7.58432e-08
3.06849e-07
0.00081656
6.45272e-09
-5.31669e-07
2.22977e-07
1.5734e-08
-1.84849e-07
-2.76264e-06
0.000781081
2.31442e-06
-4.66807e-08
-1.57832e-07
3.52369e-05
8.36145e-08
3.97981e-05
1.80529e-05
0.0017031
2.26035e-07
9.4871e-08
-4.9936e-07
3.29382e-07
-0.000248826
3.17309e-07
-4.18549e-07
1.74933e-07
-4.40931e-11
1.49967e-08
-6.64812e-09
-0.000206114
3.77487e-07
-2.35346e-07
4.75063e-07
-3.045e-08
-1.75175e-07
0.000397106
1.52228e-07
-6.6263e-07
2.21659e-07
3.64286e-08
-0.000515447
-1.07689e-07
-0.000330693
-6.23369e-08
-1.74191e-06
-4.97723e-08
4.40292e-08
4.01083e-07
1.78944e-06
-9.53218e-08
-2.68481e-07
-1.03423e-07
-2.16723e-07
1.01521e-06
6.46511e-07
4.63428e-08
-2.99734e-08
-6.77704e-08
-1.22238e-06
-5.60684e-08
-4.21378e-10
-0.000521385
-4.10265e-06
1.37361e-07
2.9302e-07
-2.37601e-07
-0.00088518
2.98944e-07
0.000134887
-1.06241e-05
7.16064e-08
8.27553e-09
-4.08893e-07
4.89153e-07
-0.00018795
8.9243e-09
-1.55027e-05
1.8943e-07
1.47456e-07
-5.34405e-07
-8.95726e-08
-5.89618e-07
2.75283e-06
-2.80103e-06
0.000312257
-2.24826e-05
1.09819e-08
0.000190118
1.33105e-08
-5.28229e-11
2.57265e-07
4.65831e-07
9.82438e-07
-1.92824e-06
-9.53179e-08
-1.89292e-07
-9.67475e-08
1.19172e-08
0.000193322
-1.39404e-08
-2.48953e-07
-1.35668e-07
2.0895e-07
-5.45124e-05
5.04221e-07
1.94918e-07
1.9058e-07
-2.71059e-08
8.82893e-09
2.22831e-07
-1.09453e-07
2.28604e-07
2.63468e-06
1.50254e-07
-3.94513e-08
-2.98316e-05
-1.49436e-07
-4.60949e-08
5.16618e-05
3.84292e-06
-4.43061e-08
-5.08195e-07
3.59338e-08
-3.894e-07
0.000828601
-4.62377e-08
4.47678e-07
-4.14336e-07
-9.01996e-06
-2.28024e-06
-1.67394e-07
1.15027e-07
1.36853e-06
-6.01846e-07
-2.05835e-08
7.38351e-09
-1.1766e-06
9.84325e-09
0.000348241
1.67809e-07
2.05013e-07
-1.36793e-07
-0.000543143
-3.22289e-08
-6.24566e-09
-2.40477e-07
-6.73718e-06
8.5095e-09
-3.88447e-08
-1.09751e-07
9.09671e-08
-7.38136e-08
1.38418e-08
-1.4804e-07
-3.59119e-07
1.93799e-05
-9.08449e-08
1.43848e-07
-3.71145e-06
-0.000162423
2.79644e-07
4.92324e-08
6.91925e-09
-6.40034e-08
-1.48718e-05
-0.00061028
7.08471e-06
8.14728e-08
3.00405e-07
3.3284e-07
1.18023e-06
-5.79642e-05
-0.000240059
1.65507e-06
-4.58422e-07
-9.75344e-08
-1.50352e-05
6.67532e-07
-3.87052e-07
-1.43734e-06
-9.61554e-08
-4.93602e-06
-1.02155e-07
2.93068e-05
-3.68116e-08
6.67297e-07
-3.49882e-08
-1.64268e-06
1.2255e-08
4.08071e-08
2.93553e-07
0.000161268
7.12577e-08
-3.4608e-07
4.18439e-09
0.000179452
-5.04428e-08
-0.00404986
-1.98198e-08
-1.4597e-07
-5.69257e-08
1.21672e-06
-8.32359e-08
-9.26926e-07
-1.43784e-06
2.80505e-08
2.84379e-07
-4.80729e-06
-1.02209e-07
-2.14556e-09
9.40167e-07
-0.000135826
3.29228e-07
-3.76447e-07
-1.4306e-06
-1.302e-09
3.07528e-07
6.09251e-09
-0.000176702
2.68607e-07
-9.56828e-08
-5.2899e-08
-2.41367e-07
7.59346e-08
-7.27876e-08
-4.96044e-06
0.00019295
-1.85475e-07
-1.3209e-08
1.29399e-06
6.42064e-06
-3.50579e-07
-1.47887e-06
-6.63842e-07
-7.81857e-05
5.765e-07
3.34515e-07
-1.5262e-07
-2.83744e-08
1.7861e-07
-1.48035e-06
1.36912e-07
-0.000946886
-5.66124e-06
6.08676e-07
4.69599e-07
-8.15109e-07
-1.88702e-07
-2.05416e-07
-1.19815e-07
-1.00306e-09
-0.000329538
-8.57457e-09
6.94873e-06
-1.50998e-06
-1.78946e-07
1.94215e-06
6.34927e-07
1.32372e-07
-5.60533e-06
1.28672e-07
-3.4339e-08
8.46265e-07
4.38315e-06
-1.16034e-07
1.30979e-08
0.000558235
1.65157e-08
-7.63852e-09
-6.90139e-06
-1.24469e-07
-5.08458e-07
-0.000251343
3.18992e-06
2.98049e-07
1.12719e-06
5.4979e-06
8.30907e-07
-8.51561e-06
-1.46437e-07
-3.08268e-08
2.10967e-06
-2.88193e-07
-0.000370019
-1.6844e-06
-8.17672e-07
-1.19294e-07
0.000166122
3.32085e-08
1.92948e-06
-3.76794e-05
9.29046e-09
2.06556e-06
1.86029e-06
3.50756e-07
-0.000219744
0.000815481
0.000184325
-1.34244e-07
-4.95744e-10
-2.94972e-07
2.65646e-05
-2.43981e-07
-3.67069e-05
3.87635e-06
1.5644e-06
-1.29492e-05
1.91404e-08
-1.31845e-07
7.06952e-07
-1.51589e-08
1.54861e-06
1.64839e-08
-4.6182e-06
-3.47821e-05
-7.46596e-07
-4.7284e-08
-2.39748e-05
1.57094e-06
-5.36707e-06
2.42074e-08
-2.90802e-07
-2.44349e-07
4.19899e-05
2.82606e-06
3.35706e-06
1.11083e-07
-1.07813e-05
-0.000121136
2.40006e-08
-0.000183586
-1.37301e-07
5.51027e-08
3.24616e-07
-3.93934e-08
8.9429e-09
-1.63157e-06
-2.46486e-08
-9.2199e-07
-2.18157e-06
-5.73806e-08
-2.57125e-05
1.78942e-07
-3.14531e-07
2.67158e-06
-6.49378e-08
-4.20402e-06
5.20137e-05
-4.00133e-07
-1.26655e-07
-3.27321e-10
-7.27783e-08
1.4624e-07
-3.2269e-07
-0.000368619
-6.85311e-08
1.67616e-07
-4.30027e-07
3.0706e-07
0.00222911
4.72073e-05
1.74613e-06
0.000119681
-2.41738e-05
-1.14459e-07
-0.00181953
4.83886e-06
-9.8532e-08
2.87619e-05
-2.81671e-07
0.000234447
2.82594e-06
2.39934e-06
-1.3455e-08
4.74368e-06
-0.000248676
-0.000355662
-2.3367e-06
-5.63139e-08
-9.22314e-08
4.08186e-06
4.17848e-07
-0.0003657
4.86365e-08
6.78023e-06
-0.00018096
1.10674e-06
-0.000661774
-8.43273e-08
-0.0001661
-2.74529e-07
1.25831e-06
-6.09159e-07
1.24195e-07
3.3253e-06
-2.36186e-05
-1.80489e-07
-1.23797e-07
-6.67747e-07
-7.80603e-08
-7.96496e-08
5.14893e-07
2.26478e-05
-8.7373e-08
-4.52393e-07
-9.15251e-07
-2.89299e-07
0.000244114
-1.5177e-08
0.000256126
-3.67372e-05
1.65507e-08
4.51431e-08
-1.3518e-07
-6.16254e-08
5.19345e-05
-9.4981e-08
-2.73481e-06
1.11353e-08
4.80744e-07
5.29837e-07
-1.66179e-06
-3.50412e-07
-1.6136e-07
-5.32627e-08
5.02475e-07
-1.34994e-07
-1.0296e-07
4.9586e-07
4.38756e-08
4.84901e-07
4.21232e-07
-2.44755e-10
-0.000335739
-6.02242e-08
0.000516127
-2.0987e-06
-2.98047e-07
2.2675e-08
-7.67731e-07
-5.81778e-06
-2.60385e-07
6.16724e-06
1.68988e-05
-1.63949e-07
-1.05355e-07
8.79554e-07
-3.60878e-06
2.51922e-07
-9.53837e-08
-7.20918e-06
-4.1251e-08
2.50275e-07
4.79853e-09
-9.92965e-08
3.58759e-09
-1.80547e-07
2.13563e-06
-3.83214e-08
2.51882e-06
8.36437e-09
-4.41397e-06
5.97779e-06
-1.7769e-07
-1.2641e-09
-6.59986e-07
3.56674e-08
-1.30538e-09
4.61049e-07
-1.61372e-08
3.13213e-06
2.0066e-07
-9.76742e-08
-4.68212e-08
1.31256e-08
8.05227e-09
-0.00019239
-1.8477e-06
-0.000290684
1.00277e-08
1.83472e-07
-0.000159643
2.75197e-08
2.44975e-06
1.34881e-07
1.22492e-06
5.48772e-08
3.96162e-09
2.60049e-08
-2.1991e-08
1.50993e-07
-4.11623e-06
0.000238612
-8.61497e-08
-0.00129327
0.000482989
3.83564e-08
8.34019e-07
-0.000133783
2.29729e-07
-9.08506e-08
-8.77221e-08
1.34763e-06
1.35198e-06
-3.78295e-08
2.02138e-07
-8.46855e-07
7.75967e-08
1.18264e-06
-9.84294e-08
6.59146e-09
-7.6925e-08
5.11713e-06
4.71639e-10
-1.28297e-06
1.69862e-07
-7.5358e-07
2.71748e-07
9.26359e-09
1.80134e-06
-7.74521e-07
2.44069e-07
-5.16018e-06
-6.23609e-06
1.09142e-07
2.7552e-07
2.90476e-07
-2.67947e-09
1.98253e-05
1.07018e-06
-0.000217405
-7.87472e-10
-8.76305e-08
-6.4297e-10
2.33578e-06
9.28445e-07
1.3738e-06
-3.79005e-10
-0.000121342
-1.13331e-06
3.742e-06
-8.34686e-09
-3.59392e-05
-2.69443e-05
8.42612e-05
-3.2634e-10
-2.80553e-07
-6.69149e-07
1.5424e-06
-8.78028e-07
0.000325187
2.32579e-05
-1.02455e-06
2.37632e-06
3.54513e-07
0.000218294
-4.82778e-08
-4.98109e-06
1.74411e-07
2.85558e-07
-1.21134e-09
1.37151e-06
-1.28526e-06
-1.25407e-07
-5.75677e-09
-4.74982e-08
-2.72174e-08
5.67721e-07
-9.92966e-05
-1.77268e-05
-1.37089e-07
-3.12317e-07
2.97289e-09
-1.03256e-06
1.12836e-07
-7.9731e-08
-1.27792e-07
-2.98819e-07
-1.13579e-06
3.84555e-09
1.74661e-07
-1.18832e-07
4.75285e-06
-1.76073e-07
-8.10017e-08
2.97999e-06
-7.83248e-07
0.0080033
-1.32908e-07
6.45949e-07
4.05e-07
7.45264e-08
-1.30032e-05
3.23391e-07
-7.97007e-08
5.02465e-06
-5.62899e-08
3.41525e-07
-0.000153199
-1.21717e-07
1.25826e-08
1.53371e-06
-2.18864e-06
2.40517e-06
-8.18065e-08
-8.82835e-08
1.94962e-07
-4.08203e-10
-1.72495e-07
-1.27468e-05
-7.31669e-07
-5.13448e-06
-1.84343e-06
-6.8176e-09
-3.87603e-06
4.86426e-06
1.52426e-08
-2.23483e-08
2.05807e-07
7.13397e-09
-9.36977e-07
7.9737e-07
2.53717e-07
2.97492e-07
-2.25658e-06
-1.50144e-06
-8.6819e-05
-6.60524e-08
1.2595e-06
5.14798e-07
0.0012189
-1.10213e-06
-2.27858e-07
3.22828e-07
2.94971e-07
-2.02168e-06
-4.19194e-07
-4.8599e-05
-4.72345e-08
-1.14247e-07
7.43735e-09
-1.00869e-07
-7.26132e-05
-2.85344e-07
-1.46458e-07
-1.42493e-08
3.15414e-08
-2.08197e-07
-1.12792e-07
7.93742e-08
6.51248e-06
-3.08665e-07
5.37567e-07
2.59243e-07
4.45523e-07
-1.87537e-08
-2.07255e-07
8.7393e-05
-0.000105202
-9.13444e-07
-0.000304926
-2.62474e-08
2.01461e-07
2.12046e-07
8.78611e-06
-0.000393075
-1.61679e-07
5.97542e-05
4.34932e-09
-4.13613e-07
0.002076
4.86169e-05
2.9091e-07
7.99596e-08
1.04539e-08
-0.000672618
4.01866e-07
-1.37819e-07
-7.86958e-06
3.3391e-05
-1.42188e-05
2.1426e-05
1.62809e-07
7.50616e-07
-2.27242e-08
1.64721e-08
1.77665e-06
-1.99209e-07
3.84929e-08
1.33736e-08
-1.50535e-06
-3.97848e-07
0.000117211
7.19951e-07
-7.97119e-08
-0.000142208
3.34899e-05
1.42902e-06
-2.3083e-07
3.93739e-05
-3.37257e-06
2.66358e-06
3.21853e-06
-0.000693701
3.58169e-07
1.11059e-08
4.00377e-07
-1.32162e-05
-1.5651e-07
-1.33757e-06
-2.03952e-07
-5.08895e-05
-1.25894e-07
6.01837e-07
-7.38157e-08
-7.00055e-08
8.10646e-05
-5.19491e-06
-0.000402888
-1.57215e-07
1.62559e-07
-5.01255e-05
-5.99869e-06
-6.59272e-06
2.05703e-08
6.63997e-11
-8.5315e-09
1.8331e-08
1.23824e-07
-2.33984e-07
-1.97067e-06
0.000223182
2.20036e-06
0.000455573
-3.65692e-05
3.50752e-09
1.38156e-06
-4.36431e-09
1.28715e-07
1.82677e-06
3.67755e-06
2.86358e-08
-2.03526e-07
-2.5668e-09
1.55673e-06
3.94469e-07
1.00183e-08
-2.81525e-07
-4.14644e-08
7.58866e-07
-6.56415e-10
-2.18408e-05
-1.02769e-09
9.27206e-09
-0.00133968
-9.2011e-07
3.9736e-07
2.23616e-07
-0.000240119
-6.44299e-05
5.82282e-05
-7.68537e-07
4.37562e-09
2.87801e-07
-8.99693e-06
2.97714e-07
1.97503e-05
2.00851e-07
6.09542e-07
9.69114e-09
1.25541e-08
1.74297e-07
4.31551e-06
5.50953e-08
3.97349e-08
0.000910397
-1.38519e-07
1.07314e-07
-2.33e-07
-1.61487e-09
3.6237e-08
-2.05401e-09
-0.00103452
4.5778e-09
-5.08775e-07
3.78542e-06
-4.41021e-09
-2.81361e-07
5.1479e-07
1.66213e-06
1.05481e-07
-0.000109362
1.90778e-05
-4.01702e-06
1.11689e-07
3.0624e-07
4.12735e-06
-4.74254e-07
-9.20771e-09
-1.959e-06
-1.06062e-06
6.23057e-06
1.30811e-06
-1.46078e-07
6.68198e-07
4.42986e-06
-0.000170516
4.57098e-07
6.83093e-05
8.90485e-07
9.59839e-07
1.489e-06
2.6511e-07
2.56557e-07
2.17505e-07
2.99102e-05
4.62235e-08
-4.95792e-09
-4.96363e-08
4.90559e-06
-0.000314218
0.000354773
-3.91535e-08
-4.06308e-07
-0.000111715
3.32788e-07
2.96275e-06
-3.01589e-05
2.72653e-06
-0.000917173
-8.64445e-08
1.72734e-07
-2.61266e-07
-4.27644e-08
-1.33792e-07
1.68496e-06
5.6005e-06
-7.51452e-07
4.96219e-06
9.55593e-09
5.16532e-07
-2.07971e-05
-6.97113e-08
-3.01361e-06
7.1253e-08
2.41583e-07
5.70174e-10
0.000241593
0.000704791
-2.24456e-07
1.7235e-07
6.67532e-09
1.42629e-08
5.95803e-06
-2.74898e-07
3.96532e-07
0.00032168
-3.77906e-08
-9.20853e-06
-2.34623e-08
0.000981561
7.71831e-05
-8.99108e-09
5.9087e-08
-6.28646e-06
1.67347e-08
-1.17156e-07
1.83222e-07
5.27703e-09
-0.000395703
-2.84777e-07
-1.64258e-06
-0.000141431
1.81818e-07
6.50161e-05
2.31766e-05
0.000131528
-8.50465e-08
8.99033e-09
1.26109e-07
2.34057e-07
-6.96373e-07
4.89798e-09
2.45004e-07
-4.27416e-06
-7.16987e-06
2.14351e-07
-0.000594949
-8.69389e-08
-4.29763e-07
2.72953e-07
-1.51551e-09
-3.48593e-06
3.15441e-06
-0.00035304
3.88542e-06
-2.62118e-07
-1.31557e-07
5.4197e-07
2.67577e-06
-4.11372e-08
-4.3459e-07
-0.000133
-2.44047e-06
3.98456e-06
-6.90172e-08
1.81848e-07
-0.000352959
2.60655e-07
0.000405047
-2.32688e-08
-1.7653e-05
-1.93529e-07