/*--------------------------------*- C++ -*----------------------------------*\
| =========                 |                                                 |
| \\      /  F ield         | OpenFOAM: The Open Source CFD Toolbox           |
|  \\    /   O peration     | Version:  v2012                                 |
|   \\  /    A nd           | Website:  www.openfoam.com                      |
|    \\/     M anipulation  |                                                 |
\*---------------------------------------------------------------------------*/
FoamFile
{
    version     2.0;
    format      ascii;
    class       volScalarField;
    location    "250";
    object      ddt0(omega);
}
// * * * * * * * * * * * * * * * * * * * * * * * * * * * * * * * * * * * * * //

dimensions      [0 0 -2 0 0 0 0];


internalField   nonuniform List<scalar> 
13308
(
-0.00612756
0.00103562
0.268198
1.27737e-06
-5.17078e-05
9.56109e-05
-0.000108901
-0.0513006
8.37074e-05
-4.17789e-06
0.00177101
-0.164058
0.0859057
-2.99532e-06
-4.30573e-05
-4.00113e-05
2.90878e-05
1.38941e-05
-0.00473704
0.000230135
-1.0109e-05
5.47153e-07
1.03292e-06
-0.0344894
-0.031706
3.04362e-05
-0.116894
1.54111e-07
0.721887
2.26229e-07
-0.116976
0.482146
0.0166707
-1.29388
-0.00794186
-2.13287e-05
7.87196e-07
-3.57511e-05
6.01009e-05
0.000259978
0.000244626
6.77712e-05
0.125309
0.000177796
0.0544057
0.0510441
4.23368e-05
-1.29465e-06
1.01443e-05
3.28669e-07
-0.392209
-0.0014328
-6.26928e-07
0.552762
5.17129e-05
0.000104654
-8.85816e-05
-3.65189e-06
-2.8563e-06
-0.00289464
6.08153e-06
-3.12794e-06
-0.000376582
0.000284685
2.26529e-05
4.87376e-05
0.00183507
11.1177
0.338506
1.69723e-05
-3.82213e-08
-0.0002266
1.17656e-05
0.000425662
1.98852e-05
9.87446e-07
7.07033
0.00363088
0.0433816
8.35877e-05
2.07859e-06
-0.00360969
-3.0184e-06
-8.88525e-06
-0.0884741
3.68745e-05
7.56354e-07
0.00210698
-0.00444151
-7.64392e-06
-1.037e-06
2.83143
0.00702277
0.017752
0.000145286
0.000428028
4.90368e-07
-0.00129853
0.000314123
0.00113462
0.00259476
-3.2648e-06
4.76971e-05
-9.02671e-06
5.57994e-06
6.23297e-07
-0.00624456
-0.00956092
-4.51063e-05
-0.0849406
0.0232653
0.302344
-3.03885e-07
-0.284306
0.00184922
0.00192566
-0.000646479
0.000746872
2.36757e-05
0.0152575
-0.000372308
-3.57854e-06
-1.219e-05
0.000224242
-0.0629926
-2.59687e-05
-0.257906
-1.10622e-05
2.99864e-07
-3.18722
-0.226308
0.000663431
4.53032e-05
-0.00311981
-9.82903e-06
0.000261275
-6.35151e-06
4.63571e-05
0.0312364
-1.05267e-06
0.00633119
2.01438
-3.38039
-0.00120993
-0.193753
0.502242
5.99477e-05
-2.0589e-06
-1.14947e-05
1.48102
-0.172141
5.63743e-05
9.63699e-05
-1.88007e-05
-1.08887e-06
0.000168951
6.78247e-07
0.000119752
-0.00206522
-1.07894
-0.00411333
-0.269967
7.25516e-05
2.69734e-05
-8.01223e-06
-0.0878485
0.000571012
0.0605418
0.0623925
0.0251322
-0.12486
-0.00037257
-0.883636
0.0781523
0.00126414
-5.11511e-08
0.000184568
-0.0538944
-2.19221e-05
-3.68475e-05
0.006089
-7.06783e-05
4.54765e-05
-0.609614
-0.000592814
2.02325e-05
-3.75861e-06
4.04329e-05
-1.40375e-05
-0.001036
0.000554535
0.000321337
-0.0931232
-0.195822
-0.0483734
0.00591456
0.00575472
2.19895e-05
3.37389e-05
-0.112288
0.0648352
-0.000581807
-0.00304459
7.13696e-05
-0.00359724
-0.0982492
0.00077385
-0.000200005
-6.93776e-06
3.03863e-05
0.00123842
-1.28823
-2.2833e-08
-2.16578
0.000383973
0.00489128
7.39038e-06
0.477147
9.65629e-06
3.22111e-05
-6.79353e-05
-2.45918e-07
4.68942e-06
0.00431253
-1.0783e-06
0.0329086
0.000417365
1.35749e-06
-2.07955
-0.00595734
-0.000122381
9.23418e-07
1.71748e-05
8.19429e-05
-0.000967963
-6.76618e-05
1.80128e-05
2.27542e-06
-5.93727e-05
-1.18842e-05
-0.000131087
-0.00215459
-3.09327e-06
0.00893318
-0.00161863
-0.000265772
0.0384116
0.000297186
-2.33727e-05
0.000822226
0.0106286
-3.44855e-07
0.187805
-5.05226e-08
-4.6318e-08
0.00270069
-1.79242e-06
-7.58708e-06
-5.0366e-05
0.000945093
-0.000154343
5.37453e-06
3.71446e-05
5.99551e-05
-4.11786
-2.75671e-05
-0.0781593
0.00275765
0.183012
-0.00477681
-4.95325e-07
0.00140663
-0.000144094
-0.000277106
0.061768
0.954436
1.20623e-06
-0.000806245
0.0310449
5.86653e-05
-0.000231065
-5.88148e-05
0.0384453
0.0192883
-0.00030078
-9.28676e-08
-3.60812e-06
0.0334771
1.14836e-05
0.000252099
0.0499855
9.17284
0.0580172
2.37766
-0.000157145
-1.78243e-06
0.000537259
-3.64789e-05
-0.769968
-2.10427e-05
-2.03552
-0.000254318
0.00335733
-1.5848e-06
0.00165441
-8.94736e-06
0.00272939
-0.0107605
6.69679e-05
-3.92142e-06
-0.000560876
-0.0033939
-0.658883
-1.56065e-05
-0.0921258
-0.461086
0.266659
0.000583384
-0.0661399
-0.000121425
-0.000181298
0.024533
-0.00019572
4.45325e-05
0.00394254
0.00227402
9.31273e-05
-1.092e-05
-0.00151017
-9.45616e-06
-0.0497434
0.606641
0.00251477
-1.4574e-06
-7.31645e-05
0.938409
-0.0898173
-0.000711984
6.39686e-05
0.0005667
0.103486
-7.58752e-07
0.000662003
0.000788367
-0.00172636
5.31341e-07
-2.24596e-05
5.38599e-05
-2.70575e-05
0.404939
0.000512422
-2.17376e-05
0.000621543
-8.30833e-05
0.0648186
-1.59555e-05
0.000884319
0.168638
0.523774
4.82081e-06
-0.00462202
1.04855e-06
-0.225647
-7.23849e-05
0.0171514
0.000243481
-0.00544434
0.0625296
2.76018e-07
0.000415374
0.109567
-2.21
0.00974024
0.113325
0.000197799
-0.000704476
-0.278961
-8.7951e-05
0.0808904
7.24937e-05
4.2077e-06
0.0271288
1.09102e-06
-0.0147352
0.000617609
-1.00209e-05
1.89908e-05
0.00548588
4.395e-05
-0.255424
6.87685
2.41849e-05
-0.000123889
-0.0459067
3.99867e-05
0.0155333
-1.0873e-05
7.79903e-05
0.095733
-13.1146
-0.00370089
0.000478923
-8.88305e-06
-0.00617435
-0.000158174
1.62384e-06
8.67144e-05
8.64062e-07
0.0525556
0.00354718
0.198758
1.82003
0.645759
-5.25271e-05
-0.0365153
0.000281195
0.000711471
-1.16753e-05
1.29642e-06
0.000159009
-0.000354683
-2.09496e-06
-0.000765716
-7.78852e-05
-1.48344
-0.00377855
0.000212113
-0.838484
-0.123021
0.0136741
-5.96774e-05
0.167691
-19.5339
0.00643792
-9.06915e-06
-0.00677901
4.44007e-05
2.87171e-05
0.000163072
0.00121356
9.0157e-07
-4.57637e-06
7.09182e-06
-0.00328608
1.75221e-05
-0.0465611
-0.0891056
7.62727e-07
2.5801e-05
0.0585489
-0.0793695
-2.85331e-05
-0.000271743
-4.9897e-05
-0.00654886
-0.144037
4.36811e-05
0.000152511
-0.0520449
0.0246049
0.00019654
-0.00299621
7.38584e-05
-5.25175e-08
-0.00016188
-0.000302221
2.93908e-05
-0.667016
-0.000211398
1.22676e-05
-0.000864489
9.62372e-05
-0.00173676
0.0859596
7.01165e-07
1.97927e-06
0.00158709
7.40262e-07
-0.00512994
-1.12995e-08
-0.00250679
9.48022e-07
0.00945216
-0.00508262
1.18858e-05
-0.360916
0.000148254
-0.210322
-1.33063e-06
0.00612738
-3.55068e-05
-0.158058
2.37365e-05
-0.000823131
0.000379994
0.00232028
-0.017706
-5.89019e-06
1.61259e-05
9.79095e-05
0.000230748
-0.257952
-0.0103436
-0.309525
-0.00497008
2.36303
-3.83806e-06
-0.0653534
-0.00112703
-0.418254
7.88802e-05
-0.291565
-0.946497
-0.000501204
0.000135717
-0.568555
0.16669
1.56367e-06
-0.00302187
-7.65324e-05
-0.00244707
1.35663
0.000127797
0.0274022
0.12486
0.473952
-0.0557103
-0.00169178
-0.847757
0.00411483
-5.15129e-07
-1.16721e-07
-0.347669
0.00830137
0.000715609
0.000180582
-0.0010258
0.00157674
0.940051
-3.10612e-07
-0.0745406
-0.219334
0.346225
6.97233e-05
-3.44685e-07
0.00694058
2.28212e-07
-0.102438
0.0485362
-0.00337478
3.46866e-07
1.67606e-06
-0.170164
-1.63314e-06
-0.00444269
-6.3447e-07
0.00584553
4.91794e-05
-0.0752679
1.09358e-07
-9.75346e-06
1.62028e-07
0.00814769
0.00028431
-2.53779e-06
-0.00140657
0.0545366
-0.00968896
-1.68261e-08
1.04592e-06
-0.0558167
5.43067e-07
-4.96145e-06
-0.0677977
2.75412e-07
-0.221712
0.000440797
-6.6242e-08
0.00522085
0.000297704
-0.000365378
0.000709898
0.00102947
0.000127851
0.00442918
-2.48782e-06
-0.000450099
-3.69569e-06
0.00872584
0.0579516
5.18716e-05
-9.24409e-06
5.337e-05
0.0161541
-5.20552e-05
0.00417463
4.00908e-05
-0.00941489
0.000378964
12.1348
-0.259808
7.68906e-07
6.8318e-07
1.81392e-05
4.59465e-06
1.76801e-05
0.254565
-0.00734773
0.0208544
-0.000107148
9.19369e-07
-9.55228e-07
-0.0201098
2.09641
-0.00142814
0.0764648
4.84534e-05
-5.17714e-06
1.99009
-0.0165587
-0.263544
-0.000436724
-0.00361634
-0.319321
-0.361361
6.81845e-07
-9.36631
0.0342585
0.0181349
-0.00243652
-0.141593
5.20703e-05
8.70863e-07
-3.57384e-06
-0.0235324
-2.36142e-05
1.60832e-05
-2.81376e-05
0.00426213
0.307128
0.324175
-1.81968
-0.429653
7.06905e-07
-2.99941e-05
-2.93872e-05
4.38741e-05
-1.49006e-07
8.18023e-07
-0.00206088
-0.1051
3.44277e-05
0.0349473
-1.06094e-05
-3.26106
0.00261544
6.98292e-05
2.92263e-06
1.44859e-06
0.00157589
0.000148178
0.000170296
6.31725e-05
-0.111937
-0.00760816
7.04791e-07
0.0722713
1.34982e-05
2.20597e-06
-9.80677e-06
-0.840735
0.00697538
-0.00193228
5.79745e-05
-1.71084e-05
-0.00554827
0.00235171
1.21184e-07
0.000242215
0.560137
-0.650108
-0.00875929
0.581911
-9.78196e-08
-4.66973e-05
1.47373
4.98193e-09
3.01886e-06
-0.00011455
-4.36548e-05
5.82655e-05
0.00052356
-11.0038
-5.52503e-08
-3.16719e-05
0.000668724
0.203458
-5.18658e-07
-7.9791e-07
0.00180863
-5.97132e-06
-0.00188579
-7.79693
-0.00118277
-4.77539e-06
1.05295
-0.560991
-0.00955173
-3.48234e-06
-0.300205
-0.00193184
-0.493535
0.00075669
7.58361e-07
-4.04859e-06
-0.00016406
7.19925e-07
-0.00442693
5.47856e-05
-0.310431
-1.77603e-07
-0.00119893
0.181555
-4.48621e-05
-6.54716e-06
-0.00510235
-0.0821735
-0.00539461
-0.0383303
2.93165e-07
7.49221e-07
1.80081
-3.18026e-08
7.19495e-07
3.07373e-05
-1.01412
-0.000725148
0.185972
-9.91732e-06
-0.0309111
-0.00936364
-1.67836e-06
0.00512075
-0.00360477
-1.15191e-06
2.55768e-06
-0.000152219
0.00019759
0.0502153
-0.000459627
-0.00202209
-3.23218e-05
-0.303061
-1.89413e-05
-0.0337434
-0.0429869
4.48725e-07
0.0526492
-0.00040688
1.05106e-07
-0.000467465
-0.00800909
-2.32343e-05
-1.52533e-05
8.32862e-06
-4.72511e-06
0.000632239
-1.56529e-05
0.382232
0.00050576
-0.462866
-1.04009e-07
-9.29157e-05
-0.00590039
-0.768934
-0.000716516
-0.174979
1.12593
-1.83997e-09
-0.254725
0.000144855
1.80438e-05
-2.06797e-06
-0.000220524
8.75679e-07
1.55896e-06
0.746189
1.34067
0.973611
0.000589181
-1.62847e-07
-6.86871e-06
-2.67392e-05
0.00024425
-0.868647
-6.74537e-07
0.000832688
0.00275993
-0.220402
-2.87518e-08
6.59079e-08
-3.59423e-06
-2.67346e-06
-2.54524e-05
8.5933e-07
0.0397384
1.06567e-06
-0.000195324
2.89296e-07
0.661508
0.00043684
-0.174771
-9.84814e-05
-0.0188944
0.00691236
-3.06706e-06
0.000245945
-6.97615e-06
-4.61846e-08
-0.000457677
-1.39349e-05
-0.111602
-0.0390179
-3.01858
0.00671763
-5.37309e-05
-1.67292e-05
-5.1403e-06
-6.09443e-06
0.00307387
2.90457e-06
-2.66605
-0.0065274
-0.00134405
0.00530832
6.2744e-05
2.3646e-07
7.97111e-05
-1.30301e-06
0.0044453
0.000209179
6.84151e-05
-0.341115
-0.00302783
8.21761e-07
-0.000618481
-1.10827e-05
0.000142706
-1.08037e-05
0.00245079
-0.000675515
-0.281932
-0.115437
5.89591e-06
-1.4247e-05
-1.24914e-05
-1.99261e-07
-9.73509e-07
0.000125177
3.82655e-05
-1.90338e-06
3.47396e-05
3.49241e-08
1.9404e-05
-0.0217051
0.00311861
-0.00185053
0.244809
-4.618e-06
6.14086e-05
1.19878e-06
-0.00147931
0.565919
2.74665e-05
3.4623e-07
-0.000262016
0.00564627
0.0848133
-0.00265256
-3.43356e-05
-0.411911
0.000451875
9.74633e-07
9.34869e-05
5.64053e-05
-3.03558e-06
0.0931728
-0.000158612
-0.503329
0.0334034
0.00706469
-0.0116802
-0.000136345
-0.447037
0.000367149
-0.212674
-1.27805
8.27314e-07
-0.000263617
5.51456e-05
-2.87489e-05
-0.00402815
-0.239632
8.75579e-05
-3.07929e-09
6.8193e-06
-0.000952517
0.109893
-0.021293
4.89537e-06
0.0720999
6.00429e-05
0.000207544
8.38768
1.14778e-05
-3.18913e-06
0.117725
-7.64312e-06
9.00203e-05
1.02211e-07
-3.17945
-6.15063e-06
-0.280873
0.895564
0.000310366
0.106671
-0.0636236
-4.02281e-05
0.00210751
-5.02524e-06
-0.000772017
-0.178231
6.9507e-07
-1.40387
7.56974e-07
0.000809938
3.86225e-07
0.367246
-0.00395974
0.205102
-0.655283
-1.01398e-05
0.353968
0.0027461
-1.34059
4.77932e-07
0.675991
-0.00600956
9.74264e-08
-0.000604901
-0.472474
0.0068138
-3.42406e-05
7.25215e-07
-3.31496e-05
-1.79579
0.000358527
-2.75746e-05
-0.0129713
-1.09482e-06
-2.77474e-05
0.000424588
-4.57188e-06
0.0061532
2.47905e-05
-2.29645e-06
1.12572e-07
-8.44693e-06
-8.90269e-06
-0.00946326
7.91879e-08
-0.0130528
-1.04331e-05
1.51618e-05
5.92734e-08
15.1519
-1.67118e-06
-0.000545312
2.15532e-06
-0.981468
0.00104327
-3.13143
1.37558e-05
-0.00267229
0.20991
2.66558e-05
-0.828373
9.37955e-05
-0.000622489
-0.123891
-0.00280339
-0.0560465
0.106399
0.109403
7.52127e-07
-0.000104461
-2.24815e-05
-3.13258e-05
0.00501486
-6.08572e-06
1.69948e-05
-7.33349e-07
0.000143137
2.71814e-05
1.25514e-05
-0.488782
-0.427058
1.70776
0.00118676
-7.49397
-0.00187322
-0.00379226
0.0152361
0.0135359
-1.91737e-09
0.00178273
-1.93325e-08
1.43771e-05
0.010095
-0.0133731
9.6691e-06
0.445718
-7.12098e-06
0.000896712
5.66409e-05
6.05983e-05
-0.000210363
0.267766
0.0311462
0.0353804
-0.616876
1.01419
0.60962
0.000111734
0.07409
7.71404e-07
-0.198854
-3.03291e-06
0.000473745
0.00267089
0.0458826
-8.96991e-06
-1.22205e-05
-0.000387559
-0.00927026
0.00379386
0.00522331
0.0850908
9.40847e-07
-1.40337e-08
-1.66206e-08
0.000167878
0.000281566
-0.00683372
0.000124365
0.00012983
-8.36783e-06
0.000214154
7.56417e-07
0.00114589
0.0427371
4.89811e-05
-0.437333
-0.000655978
-1.31777e-06
-0.00687506
-2.57905e-08
-0.450166
1.05255e-06
0.000215978
-4.63149e-06
4.91451e-05
-0.0232389
-3.11811e-06
0.0016354
-0.000232405
-7.04133e-07
-1.09498e-05
0.000421416
-7.00072e-06
-0.490207
-0.000911367
0.009086
-0.000102461
3.72176e-05
0.00136483
9.88799e-07
0.00013907
0.000192973
-0.000259793
0.738827
0.00975268
0.00102554
-6.83169e-06
-0.0298735
-5.96293e-07
-0.000227536
0.0975997
2.48295e-06
-2.8091e-06
-0.00050045
-9.42854e-05
-3.63917e-05
-0.0014365
-2.61967e-06
0.00171542
0.133239
1.76359
2.50064e-05
-8.12688e-06
5.51733e-07
1.06965e-05
0.193489
-2.45433e-06
-0.00016943
2.23501e-05
-4.6318e-05
0.0556301
1.35392e-05
-3.39795e-06
-0.0733401
2.41542e-06
1.09233
0.00842231
4.72927e-05
-2.21465e-05
-0.146246
0.000132665
-0.00658651
-2.21643e-06
-0.0101419
-0.00269681
-0.0060652
-0.0462416
-0.00758744
-6.06753e-08
7.92677e-06
0.000188927
-7.65993e-08
1.46789e-05
2.46229e-05
-2.31328
0.00209257
0.000357175
-1.24073e-05
-0.187317
4.9985e-07
6.14014e-07
-1.50873e-05
-0.000863666
-4.71863e-05
-5.88859e-06
-1.0482e-05
-0.0359632
-3.75442e-05
-0.00102692
-1.04287e-07
-3.20375e-05
-0.217042
-0.000272906
-0.164978
0.139674
0.00414887
-4.97684
-1.86875e-08
-3.07907e-05
1.71971e-06
-0.000104478
3.66497e-08
0.00611899
0.0212526
8.95103e-07
0.00851799
4.8425e-05
-0.000314289
-0.15011
-0.055657
1.10669e-05
0.00787924
-3.89826e-06
-4.77902e-05
1.00413
-1.68618e-06
1.0456e-06
-1.33809e-05
-6.39982e-05
-3.70649e-05
1.15739e-06
-3.89873e-08
0.0269337
-0.0574015
3.98858e-05
-1.21994e-05
-1.0605e-05
-1.18745e-06
-6.18643e-06
-0.00193346
2.87813e-05
2.43324
-0.000117954
0.0437792
-0.0567419
4.8813e-06
-0.000461327
-1.33033e-06
-4.81885e-05
-1.22884
0.690804
-0.0006022
0.00486053
-0.0086874
-0.0202266
-4.24754e-06
0.000194916
1.04613e-05
-0.0661178
-6.31071e-05
-0.00041153
0.0236004
0.00302275
-0.74922
-2.99635e-05
-0.00266154
6.18059e-07
0.185788
-0.0426609
-7.99577e-05
-0.273802
-0.000484237
-2.9582e-06
0.0572971
-0.000605306
-1.11179e-05
0.00068319
-4.30815e-06
3.31177e-06
-1.1119e-06
-0.00152902
-0.025314
-0.000430304
-0.987422
0.0120734
-2.85441e-05
0.173635
0.00015551
-2.73792e-06
0.0670237
-0.0502324
-0.000109641
5.68184e-07
3.4666
-4.21463e-05
-1.14827e-05
-1.81238e-05
-0.000495733
-0.000255865
0.000177518
-1.27718
-6.08321e-08
1.99965e-08
2.83168e-05
-0.000142645
-4.56913e-06
-0.0738313
6.66684e-07
-0.000179488
-8.45077e-07
0.000313302
-0.00217863
6.59484e-07
0.149739
-0.00188025
-1.77429e-05
0.00168886
0.00036429
-1.28479e-08
0.0010707
3.86478e-05
2.3403e-07
-0.0028312
-3.68203e-08
0.0414631
-0.053538
1.63284e-07
-0.10567
-0.00303254
0.00935918
0.540818
-3.48226e-05
1.56745e-06
5.47056e-07
0.292636
0.210514
-1.10703e-05
1.19573e-06
-0.186356
0.134552
-4.05895e-05
0.566678
0.145951
-0.0281692
0.000253107
-3.45633e-05
-2.34337e-08
-0.000720781
0.000538577
0.00666135
-2.0209e-07
3.65642e-05
1.25697e-06
-0.0014076
0.0637373
0.0165008
0.428127
0.000570164
0.000253739
0.000678987
0.00025265
-1.3879e-06
0.000308819
-0.001109
5.39873e-05
0.0561158
1.00832e-06
-4.0678e-06
-3.77872e-05
-0.000871251
-0.00485924
0.0806464
-2.55584e-08
7.13074e-06
-0.00551039
2.96354e-05
-1.16258e-08
-0.00682337
-1.49258e-06
0.193125
0.000180907
-6.41959e-06
4.2307e-07
0.000348941
-1.96621e-05
2.40478e-06
5.83137e-05
0.000325683
6.16153e-07
0.0504567
0.000676696
-1.94843
-0.926233
0.0217425
-0.329514
0.000291675
0.00465041
-0.0633256
-0.00755416
0.000228597
-6.35519e-09
0.00141289
5.20715e-06
0.000598065
0.290841
-0.000140727
9.86731e-07
-0.00635813
0.535842
-1.23508e-05
-0.0919209
0.0243333
-0.000263606
4.20361e-06
-0.000326476
-0.000270175
0.000361686
-0.265567
-0.000275211
0.000461662
-8.83944e-08
-8.02541e-06
5.87702e-07
-4.9115e-05
-1.02698e-05
1.16125
-2.46751e-05
-0.856716
-0.00047354
-0.000261589
-0.576514
0.322678
-0.846942
-2.45039e-06
-2.85537e-06
-1.92003e-05
1.24515
-0.0406507
-0.00434223
0.00330142
0.068627
3.02373e-06
5.4197e-07
-4.12999e-05
9.93536e-06
-0.00023467
-2.73001e-06
8.2733e-05
-0.0381914
0.00216335
-8.56593e-06
-1.0107e-05
0.00470235
-0.00173326
0.56218
-0.0181399
2.25207e-05
-0.722789
-0.0060422
-0.00346762
-0.000936065
0.0157473
0.000301343
-4.49232e-05
0.126633
-0.0017189
0.00036259
-1.31176e-05
-1.92611e-05
-4.74153e-05
1.35802e-07
0.00161051
-0.0218312
-0.00106392
4.48339e-05
-0.00201718
-0.113267
0.562997
-1.13935e-05
-4.79541e-06
-1.21651e-06
-0.0802938
-4.87837e-06
0.000219912
0.959732
4.25599e-07
-0.00292482
2.80243e-05
1.04511e-06
-1.17731e-05
-0.00632704
0.0172655
-0.0489403
-3.32127e-06
-0.00010797
-0.00372918
1.46633e-05
-0.0653801
0.259236
-4.95023
0.000306714
-2.75306e-05
-0.000414454
0.000618481
-0.369822
0.000159729
-0.0336224
4.34051e-05
5.54734e-08
9.85912e-07
-4.0076e-07
1.24994
0.000457824
-0.000317198
0.000518002
-1.92354e-06
-1.63993e-05
-0.0139506
5.41952e-05
-0.00063103
8.06638e-05
2.40335e-06
0.0239114
-7.67835e-06
0.400841
-2.19635e-05
-0.0167174
-3.15407e-06
0.000149696
-0.00539887
0.00184468
-2.85617e-05
-3.44952e-05
-1.27645e-05
-2.76883e-05
0.0194544
-0.0464334
1.37859e-05
-0.000189742
-5.26722e-05
-0.00119305
-7.93065e-05
-2.62144e-08
-0.505551
-0.0249959
0.000811836
6.11229e-05
-2.54452e-05
-0.492454
0.00014788
-0.130158
-0.0870992
4.31204e-05
6.07074e-07
-0.000805495
0.000178064
0.308671
6.35964e-07
0.122562
2.11544e-05
2.58148e-05
-0.000502608
-0.000120712
-0.00113159
-0.0229928
-0.00406502
-0.046781
-0.169593
3.27132e-07
0.052106
9.27131e-07
-3.51113e-09
6.89697e-05
0.00109685
0.0102665
-0.0296252
-6.89099e-06
-0.000170838
-6.76205e-05
3.84521e-08
-0.227221
-8.36544e-07
-3.72207e-05
-2.50199e-05
8.23816e-05
0.957518
0.000562547
0.000282641
1.65482e-05
0.000920376
-6.52344e-06
9.02913e-05
-3.05663e-05
9.95116e-05
0.00173727
5.10309e-05
1.89734e-05
0.0696086
-8.5248e-06
-2.83196e-06
0.575694
-0.00708584
-5.17685e-05
-0.0527271
5.43538e-07
-0.000652638
-0.752548
-0.00323311
0.000421588
-0.00059465
0.0367197
-0.00569318
-1.12553e-05
0.000318949
0.00196581
-0.000523124
1.19878e-05
4.79515e-07
-0.168441
6.43573e-07
-2.33941
3.06889e-05
1.59613e-05
-1.24713e-05
4.46689
2.61025e-07
-9.92077e-05
-2.78985e-05
-0.0625679
5.57246e-07
-2.52952e-06
-6.05492e-06
0.000105305
-4.9027e-06
8.97652e-07
-1.53248e-05
-0.00625144
0.362462
-0.000356797
9.66337e-06
-0.0132446
-0.113075
7.89481e-05
7.99436e-05
5.52844e-07
-2.95586e-05
0.330498
-0.0554805
0.00703552
-1.26703e-05
0.00010826
6.90134e-05
0.000941749
-2.72831
-0.508174
0.00188398
-0.00105063
-0.000224235
-0.0266469
6.32901e-05
0.0927435
-0.0709034
-9.95496e-05
0.201803
-4.02421e-05
0.0921796
-2.5293e-06
0.011399
-6.72339e-06
-0.0186623
8.17916e-07
2.68064e-06
0.000221227
0.801744
8.8225e-05
-0.00015595
2.68931e-07
0.136788
-3.44669e-06
0.178237
-1.20707e-06
-1.73332e-05
-3.57132e-06
0.00394792
-5.5046e-06
-0.00120199
0.0938683
2.37957e-06
5.21417e-05
-0.00799813
-1.29194e-05
-1.47061e-07
0.00136239
-0.485244
8.35324e-05
-0.000686578
-0.00106136
-8.76685e-08
9.02034e-05
4.65873e-07
-0.879702
0.000142359
-0.000196587
-0.000143885
0.0809422
4.1098e-05
-4.56653e-06
-0.0197947
-0.19356
-7.81668e-05
-8.32753e-07
0.00194208
-0.0463522
-2.08923e-05
-0.00187183
-0.00121501
0.0297878
0.0183442
0.000434839
-1.30404e-05
-1.73792e-06
0.000183573
0.0176403
3.62257e-06
13.4877
0.00762172
0.000499885
0.000657058
-0.000635913
-0.000824386
-0.000148383
-6.66621e-05
-6.69575e-08
-0.219749
-5.39148e-06
0.00747252
0.00792285
-0.000336829
0.00205331
0.000588717
0.000240437
0.0484858
3.81377e-05
-2.33719e-06
0.00397739
0.000766809
-2.67333e-05
7.30814e-07
-1.92716
1.08917e-06
-0.000395833
-0.0124712
-8.38493e-06
-0.000822008
-0.154509
0.00344791
6.36513e-05
0.0519579
0.0104085
0.000649973
-0.042802
-4.88984e-05
-6.70313e-05
-0.0262222
-2.3771e-05
0.043911
-0.00164598
-0.00110472
-0.000110953
-0.174643
2.18336e-06
0.00229156
0.354692
6.06463e-07
-0.0198551
0.00162374
0.00041585
0.664081
2.41072
-0.277535
-8.78229e-06
-3.37025e-08
-0.000209547
-0.112526
-5.89674e-05
-2.10354
0.00329168
0.00187808
0.0718462
6.68448e-06
-0.00142306
0.000801773
-2.9489e-05
0.00419958
9.98448e-07
-0.00620195
-0.351973
-0.00985581
-2.86495e-06
0.140803
0.00188804
0.00650735
-8.36094e-06
-0.000212558
-1.59914e-05
-0.0794328
-0.00680686
-0.0518691
-1.31658e-05
0.113915
-0.0456711
1.48551e-06
-0.386279
-4.77838e-06
7.77497e-06
0.000202756
-0.000202703
5.8841e-07
-0.0018055
-1.3135e-06
-0.00141304
-0.00743529
-1.13511e-05
0.152566
1.07617e-05
-0.000339054
0.00300172
-5.70262e-05
-0.0449466
0.886726
-0.000423822
-7.9073e-06
-1.99087e-08
-9.29624e-06
0.000149965
-0.000296645
-0.245155
-4.51725e-06
0.000192112
-0.000585845
0.000113121
-0.64449
-3.37403
0.00242845
-1.85413
1.68447
-7.58428e-06
0.130302
0.00592714
-5.59675e-05
-0.0928481
-0.000236668
0.592884
0.00377539
-0.0317672
-2.23657e-05
0.00641716
-0.495724
-0.428587
-0.00263215
-6.49593e-05
-2.78511e-05
-0.00863907
4.11707e-05
0.111032
0.00010876
0.216136
-0.310821
0.00151112
18.1404
-5.49731e-06
0.458146
-0.000233466
0.00143266
-0.00125559
6.99929e-05
0.00255088
-0.399151
-1.73066e-05
1.1118e-05
-0.000883173
-6.67521e-05
-8.58438e-06
0.00302924
0.133703
-9.03975e-05
-0.000376813
-0.00115196
-0.000340812
0.0606812
-9.67429e-07
-0.111885
-1.06522
-5.102e-06
-0.000115988
-8.37968e-06
-4.17751e-06
-0.71365
-5.71112e-06
-0.00667973
7.76331e-07
0.000455369
0.000269663
-0.0402848
-0.000179929
-0.00015091
-3.91403e-06
0.000259559
-1.29485e-05
-3.21548e-05
0.000290226
2.12559e-06
0.000548536
0.0348224
-1.60721e-08
-0.358954
-3.44936e-06
-1.35963
-0.00401893
0.0131936
-3.31198e-06
-0.000213765
0.0338246
0.000427282
0.0236474
0.0667106
-1.16392e-05
-6.9534e-06
0.0155508
0.00315941
0.000152575
-8.3966e-05
-0.0594614
-1.95923e-06
0.000204697
3.87259e-07
-6.54476e-06
2.35091e-07
-0.000315462
0.00243689
-2.34004e-06
0.00308795
5.49085e-07
-1.65303
0.00875882
-1.48015e-05
-8.53817e-08
-0.000378769
2.25347e-06
-9.86878e-08
0.000387463
-1.01648e-06
0.00446426
9.81325e-05
-3.84975e-05
-0.000195176
8.89329e-07
5.25345e-07
-0.786614
-0.00164993
-0.18887
6.53989e-07
8.59681e-05
-0.115336
2.67504e-06
0.0139534
9.30375e-05
0.00118881
-5.86992e-05
-0.00014831
-0.00168549
-2.55295e-05
4.64423e-05
-0.00553553
0.163501
-2.24602e-05
0.340942
0.100997
1.53784e-05
0.000681925
-0.312695
-0.0452275
2.70536e-05
-1.3488e-05
0.00106428
0.00230776
-2.69926e-06
3.09647e-05
-0.0878924
3.11686e-05
0.000768955
-0.00011874
4.26608e-07
-4.8682e-06
-0.02062
-0.000118396
-0.00134352
3.35199e-05
-0.00046132
1.99449e-05
5.98027e-07
0.000202659
-0.000669377
9.81173e-05
0.0244714
0.0119431
9.38419e-06
0.000222854
0.000125632
-1.01438e-07
-0.520114
0.00090721
-0.181562
-5.18709e-08
-5.87547e-06
-4.2883e-08
0.0160905
0.000933425
-0.0336032
-2.52261e-08
3.59011
-0.00121377
-0.0189015
-5.33716e-07
-0.465349
0.0638886
1.17536
-2.18557e-08
-0.000388748
-0.000390922
0.00167609
0.0806423
-0.661715
0.0258302
-0.000830958
0.0247155
5.97757e-05
-0.265788
1.30033e-05
0.0444999
-0.00369193
0.000290131
-8.09723e-08
0.00222861
-0.00165771
-3.53943e-05
-3.65915e-07
-3.00481e-06
-5.6701e-06
0.00121471
2.14085
-0.326527
-0.000271346
-0.00046113
2.46085e-07
-0.000954706
4.92e-06
-9.14091e-05
-9.70187e-05
-0.000228643
0.0539179
-1.26917e-05
6.79026e-05
-3.53539e-05
0.00702953
-0.000236257
-5.43846e-06
0.00381015
-0.00105718
-0.877809
-6.53248e-06
0.000875602
0.000156091
9.96651e-06
0.263871
0.000105858
-1.14749e-05
-0.0102938
-3.72128e-06
0.000116946
-0.496088
-7.68835e-06
8.53754e-07
0.0185013
-0.0160869
-0.0530935
-4.91457e-05
-0.000318327
1.21972e-05
-2.7144e-08
-0.000184019
-0.328645
-0.000802484
-0.00622757
-0.00235139
3.62573e-07
-0.00738039
-0.121974
-3.21267e-05
-1.4675e-06
5.43295e-05
4.7848e-07
-0.00143112
-0.00293638
5.74387e-05
6.26568e-05
-0.0149852
-0.0268568
-0.585466
-6.85151e-05
0.00605925
0.000397667
-0.869797
-0.000962368
-1.78534e-05
0.000158078
5.53279e-05
0.0684838
-0.000206208
-0.180895
-4.51823e-05
-6.94899e-06
1.93213e-05
-0.000126074
-0.831222
-0.000388791
-2.28543e-05
-1.17623e-06
-2.32095e-05
-0.000193169
-7.47039e-06
3.15456e-05
0.00562472
-0.000290808
0.000308615
0.000103887
0.000243841
-1.18483e-06
-1.38383e-05
-0.253023
-0.389982
-0.000569839
-2.92136
-1.71563e-06
-0.000882996
4.34453e-05
0.0486481
-0.834739
-0.000164487
0.40497
0.00079567
-0.000385288
-13.4923
-3.22465
7.10774e-05
8.38386e-06
7.2384e-07
1.78426
0.000326711
-9.05019e-06
-0.160119
-0.807172
0.551762
-0.39255
7.53647e-05
0.00120184
6.65336e-05
1.09389e-06
0.0161189
-2.67632e-05
5.96888e-06
-2.32182e-05
0.0220973
-0.000723415
-0.422091
0.000911706
4.99395e-07
0.329831
0.515269
0.00513394
-0.00312412
0.0505948
-0.0473481
-0.0441954
-0.478415
-0.177984
0.000155296
7.36653e-07
0.000491908
-0.0155205
-8.2988e-05
0.00237722
-1.60066e-05
-1.01208
0.00126834
-0.0401642
-4.92498e-06
-2.66459e-05
0.391584
0.0425523
-0.016515
-9.33338e-05
6.04509e-05
-0.213964
-0.113567
0.284633
0.000612744
7.73707e-08
-8.70362e-06
1.26806e-06
2.00934e-05
-1.57379e-05
0.00153182
-0.603804
0.00360001
-0.0247225
2.68312
2.18967e-07
0.00238168
7.12061e-07
-6.64767e-07
0.0411696
-0.016551
-0.000175496
-5.92231e-05
-1.85466e-07
0.0243269
8.95792e-05
6.59233e-07
-2.18224e-05
-2.17586e-06
0.000732958
-4.31447e-08
1.20371
-7.52812e-08
6.49638e-07
-0.12478
-0.000737546
3.42922e-05
0.000279231
-0.285912
0.0070558
-0.52671
-0.000909554
6.25067e-07
3.67866e-05
-0.0633178
2.53255e-05
-0.162446
3.11438e-05
0.000395884
6.32601e-07
8.4033e-07
4.93657e-05
0.00594774
1.92332e-05
1.83037e-06
-0.63522
-9.97293e-06
-1.18518e-05
-0.000364062
-1.06526e-07
6.80005e-07
-5.55801e-08
0.224563
3.01332e-07
-0.000483361
-0.0573058
-4.32649e-07
-2.23205e-05
-0.0652713
-0.0888172
4.68004e-05
1.23284
-0.118007
-0.00419402
4.10388e-05
8.69355e-05
-0.0104705
-0.000316971
-5.8659e-07
0.0235417
-0.0118277
0.509615
-0.00113117
-0.000315327
0.00222126
0.00355686
-0.162191
0.0005796
0.232179
0.000720196
-0.180138
-0.091722
0.000247758
7.61836e-05
1.63814e-05
2.40852
1.91508e-05
-2.63983e-07
-3.87477e-06
0.0543761
-0.206941
0.0568503
-2.64798e-06
-0.000341519
-0.307571
0.000236156
-0.0473073
0.306562
-0.00745791
22.4033
-6.22151e-06
0.000703492
-0.00142742
-0.000172879
-6.60395e-05
0.00793952
1.17275
-0.000870205
-0.0759171
6.29734e-07
0.000227602
0.417004
-1.77364e-05
0.00165532
0.000106624
3.33465e-05
3.75902e-08
-0.459433
1.49477
-0.00103972
0.000249332
4.34476e-07
-4.12415e-05
0.00512009
-0.000247335
0.0153272
0.213472
-2.47439e-06
0.0147091
-1.36328e-06
-9.62289
-3.00687
-0.000157931
3.65301e-06
-0.0161563
1.10492e-06
-8.52912e-06
0.000100361
3.47331e-07
0.964344
-2.2337e-05
0.00625971
-1.06971
6.53579e-05
0.751848
-0.811453
-0.526958
-7.48914e-06
5.91215e-07
4.47354e-05
3.38577e-05
-0.000929657
3.22222e-07
1.65903e-05
-0.00618303
0.00370744
7.37449e-05
1.65289
-5.76898e-06
-0.00374337
8.16654e-05
-2.5049e-07
0.491152
0.00472866
-0.184012
0.00641361
-0.000160893
-3.34839e-05
0.000458864
0.00395697
-2.64408e-06
-0.000325827
0.00684196
-0.0201111
0.00542732
-0.000153685
2.93713e-05
-0.076668
-6.69298e-05
0.287034
-1.51138e-06
-0.0977833
-0.00103558
-0.00198725
-0.128977
-0.000341037
1.72303e-05
-5.23746e-05
9.15602e-07
-0.324033
1.14543e-05
-0.000798361
-3.51975
2.64948e-06
0.194592
-0.659106
-0.000167426
0.00052203
1.69547
1.61125
-4.63352e-05
-1.60647
0.00277662
-5.42789e-06
-0.000942788
-0.652345
2.64104e-05
-3.91927e-06
0.252684
3.78322e-07
-0.00021481
2.43939e-06
0.000163829
-0.0979565
0.25182
-0.000302855
-0.00138451
0.00010832
1.57654e-05
-0.298842
1.99216e-05
-3.53681e-06
-0.0667347
-2.73226e-05
1.40932e-05
-0.00584592
4.02543e-05
0.000199737
-0.00136484
0.0195703
4.98184e-06
8.5617e-05
-0.48076
-0.00729444
-1.85977e-06
-0.265765
-3.23154e-07
3.52274e-05
-0.689147
4.10756e-07
-2.67327e-05
0.0281934
-1.56392e-06
-0.000426173
0.000357398
8.11236e-07
6.53613e-07
8.92741e-05
0.00226859
0.000279363
-0.0210335
0.00596747
-7.90017e-05
-3.0431e-05
-0.170797
0.0306588
-0.0010828
-0.333183
-0.238074
-0.394125
0.000153877
-0.0205472
-1.78508
-0.000994048
0.442914
-0.104306
0.00691775
0.247518
0.00192797
-0.000167407
0.20551
0.0082793
0.0497013
0.0741393
-0.208236
4.60507e-05
-5.21436e-06
2.71306e-07
-0.0119542
-3.88691e-05
0.000234147
-0.139483
-2.91032e-06
-9.8301e-06
-6.87681e-07
-2.52982e-07
0.00226834
0.0284925
3.49738e-05
0.000303098
0.0105093
0.0778046
0.00701357
-0.000347217
0.000270713
-0.00739189
-0.000430508
0.000534177
1.44097
0.000368522
0.125168
0.000224116
0.00729504
4.7113e-07
0.000231956
6.38052e-06
-5.25858e-06
0.00447296
-0.000252863
8.62316e-07
-0.0113983
-0.013264
-0.000130359
-6.00987e-06
9.67068e-05
0.00494393
-0.00169968
0.0071913
0.0238994
6.51721e-05
2.9078e-07
-4.09056e-07
0.0387472
-0.0279631
1.346e-07
5.63625e-06
1.99081e-05
-0.907282
-0.417974
-0.000253237
4.13087
0.00068006
-0.018304
-0.000186084
-0.000706619
0.782732
0.0254333
0.000193103
0.00194134
8.48057e-07
-6.78805e-08
2.08128
0.00327195
-0.191818
9.62271e-05
-3.97307e-05
-0.0542415
3.71548e-07
0.00177493
-2.26219e-08
0.00127818
7.28837
-1.04723
1.19769e-05
-2.19114e-06
-0.210145
3.08739e-05
-0.00487359
-1.43793e-05
-0.0232911
0.00524688
0.00318359
0.0023995
-1.2852e-05
0.368046
-3.47045e-07