/*--------------------------------*- C++ -*----------------------------------*\
| =========                 |                                                 |
| \\      /  F ield         | OpenFOAM: The Open Source CFD Toolbox           |
|  \\    /   O peration     | Version:  v2012                                 |
|   \\  /    A nd           | Website:  www.openfoam.com                      |
|    \\/     M anipulation  |                                                 |
\*---------------------------------------------------------------------------*/
FoamFile
{
    version     2.0;
    format      ascii;
    class       surfaceScalarField;
    location    "250";
    object      ddtCorrDdt0(phi);
}
// * * * * * * * * * * * * * * * * * * * * * * * * * * * * * * * * * * * * * //

dimensions      [0 3 -2 0 0 0 0];
oriented        oriented;


internalField   nonuniform List<scalar> 
19765
(
-6.8319e-05
0.00128953
-0.0012212
0.00173762
-0.00124578
-0.000491828
0.000606336
-0.000539471
-6.68644e-05
-0.000449814
0.000412011
3.7801e-05
-0.000232237
0.0001407
9.15371e-05
0.0010105
-0.00122501
0.000214536
-0.000532645
0.000399039
0.000133589
-1.05877e-07
-0.000336072
0.000336165
-0.00011813
-0.000143789
0.000261906
-0.000240516
2.28282e-05
0.00021768
-0.000635438
0.000559344
7.61075e-05
-8.73374e-05
4.91051e-05
3.82414e-05
0.00066485
-0.000354538
-0.000310311
-0.000292973
-0.00023967
-1.85175e-05
-0.000250184
0.000268727
-0.000171038
-6.11997e-05
-0.000680252
0.000347197
0.000333051
0.000197153
-0.000281079
8.39363e-05
-0.00140697
0.000146568
0.00126041
-0.000583888
0.00175559
0.000263717
-0.000100809
-0.000162909
0.000162517
-5.39671e-05
-0.000108545
6.80748e-05
9.44475e-05
0.000440567
-0.000866513
0.000425945
-4.5089e-05
0.000651438
0.000528591
-0.000290977
-0.000237619
-0.000212189
0.000196642
1.55653e-05
1.82867e-05
-7.22546e-05
-3.65881e-05
4.59732e-05
-9.3824e-06
6.15275e-05
-4.93852e-05
-1.21358e-05
0.000382324
9.16124e-05
-0.00047395
-0.000365931
0.000249557
0.000116367
-0.000979575
0.000714543
0.000265034
-0.000338291
0.000164912
0.000173378
-4.1807e-06
-0.00140279
-0.000158111
-0.000291706
8.54701e-05
-1.73924e-05
0.000247028
-0.000143338
-0.000103656
-0.000189243
9.11098e-05
9.81299e-05
0.000438969
-0.000193505
-0.000245468
0.0001635
-0.000334969
0.000171476
0.000683256
-0.000472495
-0.000210748
-0.0004369
0.000436782
2.12561e-05
-0.000299908
0.000278662
0.000432851
-5.97744e-05
-0.000373081
-4.00379e-05
0.000265868
-7.41505e-05
-0.000191708
8.53055e-05
-0.000264486
0.000179182
-0.00107503
0.000148237
0.000926847
-3.57783e-05
-0.000175197
0.000210975
1.39297e-05
0.000368388
0.00206712
-0.000841244
2.83521e-05
3.31729e-05
-3.65743e-05
-0.000411663
0.00142216
0.000296026
0.000387235
-0.000868092
0.00143466
-0.000566584
-0.000145292
0.00024949
-0.00010421
-0.000140532
-9.99832e-05
0.0015079
-0.000259135
-0.00124879
-0.00041488
-0.00026538
-0.000289512
0.000144206
0.000519642
0.000102924
-0.000622552
0.000326807
0.000112155
0.000111348
0.000417235
-0.00074711
0.00121079
-0.000463658
0.00102688
0.000710764
0.00010462
-7.30651e-05
-3.15623e-05
-0.000196372
-1.5831e-05
4.48448e-05
0.000152297
6.57288e-05
-1.68962e-05
-4.88308e-05
-0.000579235
0.0010989
0.000312347
-0.000370344
5.80057e-05
-0.00133767
-0.00015494
0.00149264
4.12525e-05
-0.000613605
0.000572407
-0.000441756
9.5751e-05
0.000346015
-4.92952e-06
-3.81347e-05
4.30676e-05
-0.000252981
-0.000442973
0.000695964
-0.00103267
0.000586641
0.000446025
-0.000277128
-0.000681056
0.000958201
8.9871e-05
-3.7228e-05
-5.26477e-05
-0.00045136
0.00107613
-0.000624764
-0.000396654
-0.000123003
0.000519678
0.000324736
-4.32143e-05
-0.00028152
0.00032359
0.000109263
0.000298786
-0.000287377
-1.14072e-05
0.000125399
-0.000105498
-1.98975e-05
-0.000249002
0.000617042
-0.000368041
-5.86049e-05
-0.000190415
9.61883e-05
0.000167509
-0.000149525
-0.000121095
0.000270624
-0.00122918
0.000950712
0.00027847
-0.000551626
0.000357756
0.000193868
0.000428557
-2.11872e-05
-0.000407369
-6.13791e-05
0.000266431
-0.000205054
0.000990505
-0.000643366
-0.000347134
0.000110717
-2.08308e-05
0.000645959
5.15264e-05
-0.000697487
0.00021922
-0.00019797
-0.00119861
-0.000156985
0.00135561
0.0013139
-0.00167104
0.000357136
0.000176152
-9.08345e-05
0.000138638
0.000178924
-0.000317551
0.00025238
5.8267e-05
-0.000310633
0.000264371
4.79729e-05
0.000186699
-4.36529e-05
-0.000143045
0.00090605
-0.00148949
0.000583439
0.00160841
-0.000100533
-0.000983477
-0.000934712
0.0019182
-0.000709612
0.000186923
0.000522691
0.000325584
-0.000273771
-5.18168e-05
-0.00027305
-9.28737e-05
-0.000290059
-0.000657906
0.000501426
0.00015648
-0.000206254
0.00152016
-0.000802629
-0.000176941
-0.000474659
2.85283e-06
0.00047179
0.000275237
-0.000279834
4.59885e-06
0.000582377
2.53587e-05
-0.000607705
0.000300591
2.50122e-05
-0.000460666
0.000399265
-0.000267949
0.00023154
3.63939e-05
-0.000374254
8.59631e-05
5.7451e-05
0.000241353
0.000604191
-0.000266917
-0.000337272
-2.77303e-05
-0.000164419
0.000192136
-0.000468934
-5.03902e-06
0.000473973
-5.3117e-05
-0.000109544
0.000162661
0.000198848
-0.000234629
-0.00950385
0.00431081
0.00519303
-0.000691417
0.000619755
7.1665e-05
0.00105119
0.000202974
-0.00125417
-0.000347353
0.00114871
-0.00036087
-0.000787806
0.000334367
-0.000299757
-3.46234e-05
0.000576851
-0.000638804
6.19751e-05
-0.00030959
0.000191458
-0.000242334
0.000380975
-0.000434057
-0.000275559
0.0001299
0.000122476
0.000771873
0.000790968
-0.00021547
0.000129856
8.56127e-05
-2.43605e-05
0.000124189
-9.98307e-05
0.0005254
-0.00020533
-0.000320086
-0.000147717
6.03789e-05
0.00498244
0.00138527
-0.00636768
-0.000704664
-0.000370351
4.6717e-05
-4.94888e-05
2.77526e-06
8.94272e-05
6.01566e-05
-0.000149572
0.000547239
-0.000701188
0.000153952
-0.000569209
0.000902744
-0.000333535
0.000183182
-0.000262007
7.88243e-05
-0.00156737
0.000354918
-0.000107888
-3.22826e-05
2.12615e-05
1.10193e-05
0.000688596
-0.000111786
-0.000146042
0.000174797
-2.876e-05
-0.000163863
0.000327356
0.000364817
0.000668215
-0.00103303
-0.000133748
-0.000204541
0.00020524
-0.000438833
0.000233575
-0.000587181
0.000118243
0.00021219
6.30561e-05
0.000242413
-5.92276e-05
-1.98015e-05
4.49718e-05
-2.5173e-05
0.00274937
-0.000897947
-0.00185141
0.000477938
-2.96533e-05
-0.000448256
0.00157508
-0.000803215
0.000514124
-0.000559205
0.00171446
0.000135184
-0.000221271
0.00039186
-0.00017061
0.000891045
0.0011761
-5.08385e-05
0.00030666
-0.000255806
0.000644165
2.06846e-05
0.000477721
0.000128688
-0.000606423
7.98868e-05
1.09888e-05
-9.08706e-05
-0.0015752
-0.00021799
-0.000244315
0.00046233
0.000142908
-1.0921e-05
-0.000131985
-0.00032585
0.000240687
8.51617e-05
-0.000468231
0.000228911
0.000239305
-0.000176187
0.000758568
0.000703055
-0.000322087
-0.000380977
-5.15478e-05
7.0869e-07
0.000530685
-0.000308882
-0.000221789
0.00011081
0.000131332
-0.000242157
0.000345415
-1.10523e-05
0.000156507
-0.000903593
1.75082e-05
-2.70352e-05
9.51823e-06
0.000439315
8.60574e-05
-0.000259984
0.00131117
0.000898128
-0.00115813
-0.00151192
0.0042613
-0.00112135
0.000552156
0.0012755
-0.000369438
-0.000177286
0.000159955
-0.000412929
-0.000127677
0.000129198
-1.51689e-06
-0.000213222
0.0005604
-0.000371276
0.000149996
-0.00127595
0.000674932
0.000601026
0.000299214
0.000286816
-0.000586005
0.000314365
0.000242418
-0.000556781
0.00061036
-0.000270304
-0.000340044
0.00121139
-0.000739235
-0.000472152
0.000739096
-0.000119342
0.000362482
-0.000137922
-0.000224567
-0.00052323
0.000570891
-4.76203e-05
8.75016e-05
1.94255e-06
-0.000452143
-0.000715758
0.00116792
-0.000433243
-0.000765364
0.000689183
-0.00024862
2.86646e-05
3.7067e-05
-0.00539511
-0.00410874
-0.000158774
0.000473142
9.26365e-05
-0.00054399
-0.00026364
0.00022896
3.46897e-05
-0.00835213
0.00345795
-0.000318805
0.00013185
0.000186973
-0.000173788
-0.000145003
0.000319495
-0.000338014
3.99174e-05
0.000250573
-0.000290506
0.000192625
-0.000206049
1.34011e-05
0.000526374
-0.000211115
-0.000315254
-0.000136683
9.40474e-05
4.26333e-05
0.000149639
0.000494522
0.000421551
5.63883e-05
-3.3657e-05
-0.000307333
-0.000145589
0.000454276
-0.000308673
0.000295395
-0.000894004
0.000598614
-0.000856363
0.000282818
0.000143949
-0.000426772
2.62618e-05
2.04554e-05
0.000779927
-4.19012e-05
-0.000738056
0.000182252
0.000539565
-0.000721796
0.000310154
4.7637e-06
-0.000314908
-0.000215432
-0.000154919
3.80819e-05
5.00628e-06
-4.30891e-05
-0.000459392
0.00135752
0.000201042
-0.000169259
-3.17842e-05
0.00016708
-0.000364431
0.000197369
0.000524629
0.000686759
-6.06603e-07
-0.000267376
-0.000391356
0.000173375
-0.000236506
-0.000923169
0.00115967
0.000398977
-0.000412515
1.35206e-05
-0.000750889
-0.000525063
-4.05332e-05
0.000174487
-0.000133978
-2.88415e-05
0.000705139
-0.0002274
-0.000832859
0.000281249
-0.000114807
-2.18745e-05
0.00245152
0.00253092
-1.5919e-06
6.04734e-05
-5.88811e-05
0.000117909
-3.80311e-05
0.000541891
-0.000332266
-0.000209662
-3.92934e-06
2.29649e-05
0.000178072
-0.000179104
0.00018317
-4.08082e-06
-4.3036e-05
-0.000236764
-0.000660982
2.55602e-05
7.33451e-07
0.000412078
0.000508989
-0.000109027
8.46694e-05
0.000127106
1.57966e-05
-0.000464767
0.000651685
-0.000152186
-0.000316048
-0.000374848
-0.000283056
0.000473278
5.30706e-05
-4.91161e-05
1.38597e-05
3.52585e-05
-0.000191112
0.00055567
-0.000364579
-0.000201165
8.68142e-07
0.000200329
0.000181076
0.00017873
-0.000359806
-0.000119995
0.000484809
0.000410288
-0.000262975
-0.000147323
1.66668e-05
2.14169e-05
-0.000298959
-0.000175703
0.00070997
-6.40104e-05
-0.00135999
0.000491919
-0.000197958
-8.94139e-05
-0.000325934
0.000146808
-0.000601445
0.000652974
0.00142292
-0.00131809
0.000945799
0.000372289
0.000221648
-0.000181732
1.78018e-05
-0.000459293
-0.0027802
0.0010154
0.00176482
7.39966e-05
-0.000470643
-0.00159621
0.000700174
0.000896041
-0.000350718
0.000438268
-8.75447e-05
-2.91097e-05
0.000374323
-0.000728867
1.46751e-05
-0.000156315
0.000141644
-0.000336674
0.000632022
0.000118047
-3.25745e-05
-0.000378188
0.000337618
0.000304697
-0.00017226
-0.000132436
3.3411e-05
-3.34153e-05
0.000137136
-0.000155071
1.79446e-05
-0.000175914
0.000134689
4.12201e-05
0.000389835
0.00076833
-0.00115814
0.000446023
2.23919e-06
-0.000448274
-1.92589e-05
4.69914e-05
-2.77363e-05
3.8843e-05
-0.000147884
0.000109047
-0.000320343
0.000278757
4.16285e-05
-0.00179324
0.00224785
-0.000454597
0.00103701
0.000571376
0.000130523
-7.30826e-05
-0.00012843
0.000129026
-5.87927e-07
0.000853381
-0.00133044
0.000477039
0.000487099
0.00155024
-0.00203733
-0.000420509
4.89256e-05
0.00037159
0.00015095
9.31339e-05
-0.000244059
0.000347715
0.000256486
-0.000239447
2.39761e-05
0.000366225
-0.000523665
0.000157466
-0.000606696
-0.00088817
0.00149487
0.00101595
-0.000301494
0.000619166
-0.000317655
-4.66858e-05
-0.000154461
3.52105e-05
0.0002556
-0.000290802
-0.000756913
0.00114676
-0.000549022
0.000623018
1.88788e-05
0.00028099
-7.5754e-05
0.000227363
0.000382989
0.000291297
-0.000202227
-8.90676e-05
0.000841562
-0.0016828
-0.000130071
-0.00030218
0.000432257
0.00033578
-0.00102913
0.00069335
-0.000260584
0.000315563
-5.49885e-05
-0.000494565
0.000342275
0.000152275
0.000438924
-3.99592e-05
0.000624175
-0.000324931
-0.000121867
-0.000298654
-0.000155054
-0.000111855
0.000205264
-7.64892e-06
-0.000197619
2.10209e-05
-0.000343108
0.000887721
0.00074555
-0.00163327
-0.001225
0.000628377
0.000596632
0.000500047
-0.000124712
-0.000375344
3.06869e-05
0.000151573
0.000191238
-0.00117069
0.00201227
0.000396846
-0.000114026
0.000375147
-0.000208062
0.000110012
-0.000253808
4.09579e-05
0.000151642
0.000692956
-0.0016834
-0.000952598
0.00048625
0.000466378
0.000296706
1.34419e-05
0.000957746
-0.000340701
-0.000206807
-0.00031643
-0.0017253
-0.00105491
-7.77007e-06
0.000352578
-0.000481964
0.000129386
-3.60503e-05
0.000211123
-0.000175099
-0.000366179
0.000115637
0.000250573
-8.39686e-05
-4.37062e-05
0.000744413
0.00029258
-0.00154141
-0.000170399
0.000192805
-2.24186e-05
-0.000178069
0.000150344
0.000607571
-0.000457934
-0.000658011
-5.89819e-05
0.00071699
-0.00150528
0.00126878
9.97242e-05
-0.000491073
-9.06049e-05
-0.000740927
0.000439437
0.000335189
0.000369735
-0.000704923
0.000543216
4.0264e-06
-0.00129506
0.000836639
0.000458418
0.000126646
0.000143286
0.000326108
-0.000469398
0.000255997
0.000274686
-0.00155806
-0.000312244
0.00187028
0.000357217
-0.000381506
2.42736e-05
-0.000765309
-0.000816783
0.00158209
0.000440655
0.000130248
3.96442e-05
-0.000123629
-0.00023857
0.000102421
-0.000155544
-0.000812529
0.000670065
0.000195859
0.000232703
0.000255161
-5.4028e-05
-0.000201144
0.00094299
0.000491681
-0.000564779
0.00101079
-0.000379394
0.000400411
-0.000915374
-0.000205974
0.000735006
-0.000927849
0.00019283
-0.000481546
-0.000285488
0.000767026
-0.000118828
0.000177422
9.16412e-06
-0.000186588
0.000161401
-0.000642952
0.000803597
-0.000620053
-0.000183566
0.000111156
0.00018015
-0.000115896
0.000307117
-0.000561787
-0.000568249
0.00113003
9.75104e-06
0.0008915
0.000365474
-0.00125697
0.000363275
0.000205596
-0.000568881
-5.15123e-05
0.000306678
0.000512242
-0.000473411
0.000366501
-0.000651985
1.93558e-05
-6.8738e-05
-0.000169508
0.000246833
-0.000157871
1.18325e-05
0.000780338
-0.000378796
-0.000401518
0.000291459
-0.000729353
0.000437905
0.00168621
0.000162664
-5.804e-05
4.89622e-08
7.21521e-05
0.000247369
-0.00121013
0.000294749
0.000373795
0.000743153
-0.00111695
-0.000164896
-0.00118469
0.00134958
0.000122516
-0.000111964
4.03249e-05
7.164e-05
-0.000632649
0.00166044
-0.000324012
-0.00133644
-0.000343423
0.000342801
0.00156853
-0.000587943
-0.00098059
-0.000612394
0.0007738
-0.000426748
0.000281161
-9.73898e-05
-0.00015796
0.000255373
0.000409678
-0.000762414
0.000352736
-0.000479314
0.000128596
-0.000318122
-0.000185475
0.000336417
0.000462459
-0.000853989
0.000391537
0.000109626
-7.7098e-05
-3.25338e-05
-0.000600928
0.000256916
0.000344017
4.90588e-05
-3.42483e-05
-1.48028e-05
0.00102829
-0.0010136
-1.46774e-05
-0.000490711
-5.8315e-05
-0.000508479
0.000549717
0.000552
-0.00100413
3.2277e-05
8.64761e-05
-0.000118746
0.0001296
3.9553e-05
-0.000169143
0.000274466
-0.000207622
-6.6841e-05
-0.000123761
-9.60393e-05
0.000219823
-0.000394882
0.000336285
-0.000404193
0.000254062
0.000150137
0.000145003
0.000178249
-0.00032325
0.000519539
-0.000332112
-0.000187442
0.00021684
-0.000166024
-5.08084e-05
-0.000412531
0.000373042
3.94926e-05
-7.7257e-05
-0.000183328
-0.000130142
-0.000801759
0.00093191
0.00020943
-0.000137301
-7.27329e-05
0.000337072
-0.000264351
-0.00114668
0.000430934
0.000388043
-2.47829e-05
9.59574e-05
3.45957e-05
-0.000130536
-0.000103292
9.23669e-05
-0.000585123
0.000379549
0.000205573
0.000341357
0.000206263
-0.00054762
0.00101695
-0.000364607
-0.000652349
-0.000545068
-5.5523e-05
0.00060057
0.0012925
-0.00100104
7.63845e-06
0.00165281
4.00567e-05
-4.16486e-05
-0.000486255
-0.000185209
0.000671499
0.000767007
8.64007e-05
0.000111594
1.55225e-05
-0.000117114
-0.000360604
0.000477712
-0.000378337
0.00014751
-0.000323777
0.00017628
0.000363944
0.000287106
-0.00065104
0.000482912
-0.000156102
0.000416073
0.00115247
3.72485e-05
-0.000119088
8.18484e-05
-3.81738e-05
0.000167774
-0.000403987
1.49955e-05
0.00038897
0.000165225
-0.000124273
-4.09548e-05
-3.63981e-05
-0.00036758
0.00102817
-0.000903985
-0.000124153
2.1426e-05
-2.14267e-05
-0.00023173
-0.000207119
4.84308e-05
0.000168406
-0.000153097
0.000104784
4.83361e-05
-0.00013023
2.89072e-05
0.000101319
-7.12681e-05
2.62013e-05
4.50585e-05
-0.000382327
0.000293995
8.83272e-05
-0.000130747
0.000245048
-0.000114305
0.0005768
-0.000609473
3.26715e-05
-4.04543e-05
-8.66951e-06
0.00048241
5.94798e-05
0.00189301
5.45269e-05
-0.000169768
0.000115251
3.8887e-05
0.000226988
0.00130758
-0.000544926
-0.000407641
-0.000413522
-0.00102507
0.0014386
0.000817391
0.000458104
-0.000301862
0.000258638
-0.000244711
0.000141142
-3.11337e-05
-0.000425912
0.000631161
-0.000147817
-2.25882e-05
0.000960245
3.02494e-05
-0.000340324
-4.20054e-05
0.000759789
0.000388916
3.65638e-05
-0.000219446
-0.000100882
0.000842146
-0.000234579
0.000256456
-0.00142713
-1.0383e-05
-0.000287311
0.000156564
-4.95475e-05
2.30717e-05
2.6489e-05
0.000371793
-0.000196253
-0.000175532
0.000825522
-0.00289596
0.00207045
-0.000563354
0.000275555
0.000287775
-0.00126349
0.00071925
0.000544238
-0.000275498
0.000239429
-0.000413055
0.000436989
2.08891e-05
-0.000457871
0.000309242
0.00017367
-0.000952612
0.000305802
-0.0001608
-0.000357751
-0.0018036
0.00277526
-0.000971679
0.00256906
-0.00811344
0.0055444
0.00032207
-0.000439186
0.00106537
0.000122583
-0.00118795
0.000335991
-0.000107072
-0.000371288
-0.000197106
0.00056839
0.000127172
0.000855362
-0.000982531
-0.000149142
-0.00012475
0.000273892
0.000119557
0.00038052
-0.00101709
0.000571752
0.000445348
-0.00103279
0.00117361
-0.000140814
0.000340014
-0.000414176
7.41793e-05
-0.000514559
6.76359e-05
0.000446958
0.000485539
-0.000132941
0.000401266
-0.000257978
0.00131142
-0.000901139
0.000571124
-0.000451566
0.000449087
0.00029
0.000426044
0.000117179
6.97034e-05
-0.000225063
0.000155359
-0.000530278
1.57079e-05
7.16729e-05
-0.000220824
0.000255161
-0.000898527
0.000479826
-9.30589e-05
-0.000386773
0.000232039
-5.46123e-05
0.000369423
-0.000803481
-0.000880621
0.000750485
-0.000168053
0.000257997
-8.99394e-05
-9.32633e-05
-0.000348491
-0.000159848
-0.00139822
-0.000232433
-2.9937e-05
0.000262368
0.000737955
-0.000806273
1.61142e-05
5.47874e-07
0.00180493
-0.000316483
0.000948545
-0.000106402
0.000104686
6.03247e-06
-1.18922e-05
-0.000157367
0.000144167
-5.59716e-06
-0.000138565
-0.000554277
-0.000189297
0.000743585
5.35999e-05
-0.000316373
-2.70709e-05
-0.000387373
-9.9818e-05
0.000487177
0.00017933
0.00038616
-0.000565476
0.00128535
6.17541e-05
-5.31906e-05
-8.55093e-06
0.000190931
-0.000113636
-7.72948e-05
0.000161557
-0.000319437
0.000157879
-9.06345e-05
0.000133611
-4.29732e-05
0.000110758
3.81282e-06
-0.000114528
-5.81596e-05
5.81682e-05
2.87933e-05
-0.00019684
-3.74591e-05
0.000133416
-0.000597987
-4.07901e-05
-0.000138001
0.000170184
-3.21651e-05
-0.000106775
0.00020283
-9.6045e-05
-0.000388872
0.000468951
-0.00012891
0.000345998
-0.00018079
0.000258619
-0.000449738
0.000501524
-0.000121989
-0.000967792
6.55983e-05
-0.000298047
0.000683942
3.69033e-05
-6.09409e-05
-1.49021e-05
-0.000409963
0.000424844
-6.99673e-06
4.42604e-05
0.000208801
0.000159036
-0.000367842
1.48484e-05
-3.46496e-05
0.000634343
-0.000707089
-0.000847138
-0.000447907
-0.000634219
0.000152291
0.000481929
0.00022403
0.000258371
0.000175722
0.000512895
0.000371803
0.000802971
-0.00117477
0.000992206
-0.000618414
7.57733e-05
-0.000113899
0.00100843
-0.000545966
2.88249e-05
0.00020943
-0.000180629
0.000173764
-6.21712e-05
-0.000384528
9.15536e-05
0.000235625
-0.000442443
-0.000289962
-5.03594e-05
-0.000174167
-2.68465e-06
0.000176845
-0.000448744
0.00126614
-0.000662449
-1.57515e-05
0.000225187
2.64425e-06
0.000102042
-0.00174981
0.0025534
0.000610709
-0.000125181
-0.000485523
0.000702849
-0.00114583
0.000442994
-0.000550067
-0.00030515
-9.66762e-05
0.00040184
-9.51818e-05
0.000112816
-1.76363e-05
-0.000203718
0.000407949
-0.000204246
-0.00236539
-0.00202054
0.000757049
0.00202701
-0.00200813
-0.000646582
-0.000378489
0.000683179
-0.000255576
-0.000427602
0.000276284
0.000504077
0.00013037
6.05694e-05
-9.7932e-05
2.08375e-05
-0.000263973
0.000713076
-0.000552309
0.000887497
0.000803318
0.000269712
-0.00107304
6.03412e-05
1.54315e-05
-0.000233963
0.000442773
3.4766e-05
-1.41442e-05
-0.000114285
7.77792e-05
-0.00016893
9.11709e-05
-0.000305635
0.000314765
-9.14302e-06
5.01344e-05
-0.000284829
0.000234706
-9.00249e-05
0.000200826
0.000230416
-0.00023951
9.0775e-06
-0.000660137
0.000338827
0.000321324
0.000429014
-0.00046255
3.35478e-05
-0.000322368
0.00149826
-0.00181508
0.000316792
0.000126191
5.45285e-05
-0.000180712
0.000108397
2.37611e-06
9.14505e-05
4.56885e-05
-8.66692e-05
3.99971e-05
-0.000204361
0.000276036
-6.27614e-05
0.000188948
-0.000600991
0.000952183
-0.000351187
0.000148256
-0.000225273
-0.000327018
0.000488572
3.83546e-07
1.71237e-05
-0.000316169
2.62113e-05
-0.000394365
6.20955e-05
0.000958777
-0.000178848
0.00013351
-0.000548396
-4.80487e-05
4.45192e-05
3.53947e-06
0.000566413
-0.000927278
0.000207773
0.000121519
-0.000329325
-0.000604046
-9.48229e-05
-0.000253957
0.000348815
1.21564e-05
-6.17002e-05
-0.000274778
6.24091e-05
-0.000175846
0.00011344
-0.000333949
-0.000214941
0.000548915
-0.000161075
0.000200713
0.000236747
-0.000245901
9.13803e-06
-0.000172356
-0.000153485
0.000674248
-0.000264574
0.000225094
7.55218e-05
-0.000348733
0.000482665
-0.000133937
-0.000736627
0.000911568
-0.000174939
-9.3783e-05
-5.5336e-05
0.00014913
0.00181778
0.000209235
-0.000282313
-0.000212259
3.29762e-05
-3.29597e-05
-1.195e-08
-0.00111997
0.00120864
-8.86639e-05
0.000294092
-0.000278995
-1.50911e-05
-6.89373e-05
-8.73762e-05
0.000294947
-0.000681331
0.000386365
0.000268223
2.58679e-05
-0.00012541
2.33486e-05
0.000102064
0.00127313
-0.00052285
-0.000750309
0.000742704
0.000105301
-0.000847993
1.29708e-05
0.000208657
0.000397513
-4.40554e-05
-0.00035343
-0.00116857
7.34771e-05
-0.000282718
0.000209222
-0.000474125
0.000983149
-7.47039e-05
-0.000303513
0.000816796
-7.40812e-05
-0.000171
3.29913e-05
-0.000115967
-0.000286654
0.0004026
0.000664485
-0.000225198
-0.000439259
0.00044957
0.000270664
-0.000720227
1.64973e-05
-0.000191098
-2.3376e-05
0.000214486
-0.00029802
-0.000150342
0.000448359
-7.29778e-05
0.000185537
-0.00011255
-0.000143487
0.000468816
-0.000325321
-0.000814581
0.000651716
0.000162861
0.0013299
-0.000842797
1.37775e-05
0.000115255
-7.0618e-05
7.21626e-05
-1.55754e-06
0.000539136
-7.81791e-05
-0.000460949
0.00101294
1.53447e-05
-6.2817e-05
-1.01517e-05
-0.000228036
-0.000325356
0.000553391
0.000524252
-0.000667727
0.000462959
-0.00056252
9.95651e-05
-0.00114914
9.58975e-05
3.77141e-05
0.000100615
-8.68353e-05
4.10793e-05
0.000316121
0.000111112
-0.000154763
-0.000492746
0.000362505
-0.000462309
0.000157166
-0.000603457
0.000382346
0.00022113
0.000441052
2.96037e-05
-0.000470665
-0.000241952
0.000359907
-0.000117949
0.000414343
4.86182e-05
-7.75979e-05
-0.000100796
0.000178398
-2.68947e-06
-9.24895e-05
0.000703809
-0.000408864
0.000204108
4.37574e-05
-0.000247863
0.000478983
-0.000737776
0.000258815
-0.000327412
0.000351957
-2.45328e-05
-6.29859e-05
3.16354e-05
3.13503e-05
-0.000408599
0.000504359
0.000512383
-5.81017e-05
-5.17717e-05
6.27623e-05
-0.00043408
3.91422e-05
0.000394957
-0.000183328
0.000131587
5.17418e-05
-0.00010887
-6.70417e-05
7.75797e-05
0.000147525
0.000402898
-0.000892265
0.000489365
4.50254e-05
4.03406e-06
-0.000262324
0.0013277
-0.000590877
0.000254805
-9.03702e-05
4.23272e-05
0.000305387
-8.13656e-05
0.00054169
-0.000890418
-1.10528e-05
0.00045209
-4.67721e-06
3.76562e-05
0.000708235
-0.000432671
0.000374601
0.000289887
-0.00048509
9.00272e-06
0.000476092
0.000409421
0.000298813
-0.000374916
-0.000228528
0.000133181
0.000141706
-0.000274893
-0.000833784
-0.000183303
0.000184342
0.000131841
-0.000316164
-0.000548325
0.000884106
-0.000387379
-0.000272744
0.000363634
0.000116191
-0.000692805
0.00024276
-0.00097759
0.000734823
0.000277856
-0.000264896
0.000425654
-0.00014802
-0.000277634
-0.0008333
0.000348205
2.82482e-05
4.52364e-05
1.99092e-05
-1.76851e-05
-2.2147e-06
-9.64504e-05
-3.58393e-05
0.00013228
0.000265998
-0.000245228
-2.07788e-05
0.000666622
0.000117584
-0.000211367
-0.000126991
-7.67309e-05
0.00168594
-0.000798221
0.000412011
0.000127124
0.000149764
0.000421378
0.00098444
-0.000280637
-0.000145265
0.00108998
-0.00013927
0.000146057
-0.000388007
0.000294083
0.000876744
-0.00117082
-0.000155311
-0.000308924
0.000464243
-9.73015e-06
9.74123e-06
0.000119738
0.000123775
-0.0002435
0.000409191
0.000187231
-0.000596418
-2.94495e-05
-4.18152e-05
0.000292348
-0.00019616
0.000249842
0.00102335
1.26623e-05
-0.000118157
-0.000630744
1.71521e-05
0.000300202
5.60139e-06
-2.57311e-05
-4.48919e-05
2.65998e-05
0.000103256
-0.000797774
-0.000798432
1.37695e-05
-0.000218137
7.75144e-05
4.76114e-05
-0.000125128
-3.15542e-05
0.000165155
-0.000133588
-0.000259784
-0.000152718
-0.00356236
-0.000341994
0.00390436
-3.48526e-05
1.55939e-05
0.000170015
-0.000468044
6.25702e-05
-0.00109536
0.000169493
-0.000117132
-5.23664e-05
-7.20338e-05
4.6153e-05
2.5888e-05
-0.000160527
0.000263029
-0.000102502
-0.00044963
1.74143e-05
0.000432176
-1.41929e-05
0.000118219
1.49563e-05
-6.30159e-05
-0.000687655
0.00203726
-0.00134957
-5.6692e-05
9.41157e-05
-3.74241e-05
-5.51905e-05
-0.000232618
6.97539e-06
0.000225644
4.0414e-05
-0.000474812
0.000434399
0.000160922
0.000530853
0.000152324
-0.000490535
-0.000275239
0.000765772
-0.000993301
-0.000395334
-5.75269e-05
-7.25365e-05
-0.000279838
-0.000458496
6.6766e-06
-0.000239287
-0.000897396
0.000157154
0.000740216
-7.01671e-05
0.000261662
-0.000191498
-8.20515e-05
0.000294782
-0.000212744
1.7086e-05
-0.000344487
-0.000557272
0.000578084
-2.08006e-05
-0.000395875
8.67203e-05
-2.95967e-05
6.53426e-05
-3.57487e-05
-0.000156812
5.94258e-05
6.13113e-05
-1.32509e-05
-4.80588e-05
0.00164003
2.00904e-05
0.000336344
-0.000797136
0.00046079
-0.000524657
-0.000369349
0.000612925
-0.000486049
0.000332964
-0.000267467
-1.98384e-05
2.93267e-05
-0.000157132
0.000127809
8.52633e-05
0.000340376
7.43988e-05
0.000217927
-0.000412682
-0.000776414
0.00118908
0.000293174
-0.000131941
-0.000161208
3.33901e-05
0.000373649
5.53652e-05
0.00162208
-2.99939e-05
-0.00159208
-1.7945e-05
-4.50396e-05
-0.00065463
3.58979e-05
-0.000136711
0.000406071
-0.000143914
-0.000262175
-9.25288e-06
-1.77841e-05
0.000200266
-0.000431992
0.000695185
1.13951e-05
0.00015809
0.000118026
-0.00106195
0.00094392
0.000156087
-0.000441936
0.000285834
0.00030213
-0.000117791
0.000189791
-0.000221344
-4.80172e-05
-0.000265719
0.000313717
-2.81457e-05
-2.39037e-05
5.20497e-05
-0.000989316
-0.000998763
0.000136848
0.000861936
-0.000221031
-5.71383e-05
0.000134665
0.000229834
-0.00118415
-1.09868e-05
0.00119513
0.00118601
0.000559599
0.000424837
-0.000120173
-0.000304201
0.00042437
-0.000282235
8.58168e-05
-1.48433e-05
-7.09705e-05
-4.12074e-05
0.000197321
0.000293697
-0.000268019
-2.56695e-05
0.000238811
-0.000626186
4.23439e-05
0.000257859
-0.000178266
-5.70952e-06
0.000214762
-0.000209084
-1.83756e-06
0.000407892
0.000277332
6.90659e-05
-0.000346407
0.000299407
0.000238779
-0.000538175
4.95455e-05
0.00157253
-0.000497649
0.000427489
0.000472318
0.000536117
-7.41515e-06
0.000374977
-0.000367574
-1.60652e-05
0.000125874
2.16174e-05
0.000560862
-0.000296009
-0.000264858
0.000258292
-2.56014e-05
-0.0002327
0.000960965
-0.000675752
-0.000136472
-0.000733185
0.000851212
0.000965289
-0.000805317
-0.000527958
0.000283652
0.000227831
0.000111763
-0.000339581
2.97588e-06
-0.00077107
-0.000580741
0.00135184
0.000396704
0.000582192
-0.000978897
-0.000183459
-0.000243302
0.000102632
1.7923e-05
-0.000120555
-0.000611079
0.000310424
0.000250456
-8.98155e-05
-5.35101e-05
0.000367192
-6.32308e-05
-0.000191297
0.000254555
-2.70144e-05
0.000991868
-0.000964864
-9.15937e-06
-5.64112e-07
-0.000220877
9.7113e-05
0.000305423
0.000163538
0.000668873
-0.000299138
-0.000359518
-1.60229e-05
-0.000497859
0.00051387
0.000291325
-0.000270225
2.76666e-06
0.000363166
0.000261017
-1.81307e-05
-9.07536e-05
0.000205298
-0.000425143
0.000219853
5.86757e-05
0.000246034
4.63223e-05
-0.000614581
0.000186371
2.30734e-05
0.000169931
0.000331605
0.000102282
4.18876e-05
-7.95702e-05
9.39603e-05
0.000192948
-0.000286915
6.06691e-06
0.000149875
-0.00015594
4.13722e-05
0.000280688
0.000174388
0.000152482
-0.000326871
0.000253997
-0.00058797
-0.000182308
-2.23074e-05
0.000254347
-0.000232035
-0.000662162
0.000850908
-0.000188731
-4.73745e-05
4.45926e-05
2.7784e-06
-0.000814228
-0.000331587
-0.000350947
0.000459043
-0.0001081
-0.000153891
0.000167875
-1.3986e-05
0.00329763
-0.000510861
-0.00278679
-0.000126797
0.000181323
-0.000592246
0.000595091
0.000225329
-0.000211565
-0.000211402
0.000281101
-0.00169525
0.000487432
0.00120783
-0.000225601
-0.000224553
0.000450169
4.79743e-05
-0.000492493
0.00044453
-5.42648e-06
2.36328e-05
-1.81951e-05
0.00123187
-3.22989e-05
-0.000380391
-0.000243102
0.000362851
-0.000216934
0.000223613
-0.000698335
0.000141065
0.000305865
-0.000320755
3.1883e-05
-2.55781e-06
2.92813e-05
0.000333917
0.000506119
-0.000382038
-0.000124089
-0.000713028
0.000606252
8.69462e-06
0.000334569
-4.08758e-05
0.000281346
1.53577e-05
0.000235861
-0.000373051
0.000925063
0.000750854
-0.000123276
-0.000627584
-0.000498095
0.00109535
-0.000597246
-1.47586e-05
0.000273073
-2.35544e-06
-0.000100219
0.000102578
-0.000981179
0.000227263
4.7209e-05
9.20171e-05
-0.000502005
-0.000112204
3.11839e-05
8.1015e-05
2.16816e-05
1.21446e-05
-3.38309e-05
1.63862e-06
5.25932e-05
-5.42052e-05
-5.38928e-05
4.84652e-05
-6.79897e-05
-1.77178e-05
8.57235e-05
-0.00029048
0.000368286
0.000578237
-0.000428465
-0.00141988
-0.000250093
0.00166996
-7.69563e-05
-5.04491e-05
0.00012739
0.000173033
-0.000134156
0.00019133
3.40059e-05
-0.000441287
-0.000486559
-4.06941e-05
-8.72415e-06
4.94249e-05
0.000986839
-0.000984596
-1.78533e-05
3.77772e-05
-8.8836e-06
4.22889e-05
0.000110577
0.000853076
-0.000963646
0.000735579
-8.38516e-05
6.52547e-05
0.000667055
-0.000732316
0.000572957
0.000230367
-0.000563212
0.000348275
-0.000304341
-0.000694426
-2.10772e-05
8.14181e-05
0.000800566
-0.00101425
0.00107263
-0.00104214
-3.04844e-05
3.10882e-06
0.000668647
-0.000671757
-0.000445405
-0.000181303
0.000626705
0.00012968
-0.00021174
-0.00043282
0.0003603
7.24942e-05
-4.27045e-05
9.29345e-06
0.000163754
-0.000101346
0.00034464
-0.000116807
0.000125465
6.68034e-05
-0.000192262
-1.40715e-07
0.000364091
0.0003799
1.76255e-05
8.91788e-05
-6.88742e-05
-2.03009e-05
-6.543e-05
-1.74464e-05
4.93284e-05
-7.73397e-05
-0.000331464
0.000408789
0.000283662
-0.000207725
-7.59579e-05
0.000107673
-0.000279942
-0.000429126
0.000576998
-0.000300723
-0.000247889
0.000289255
-2.85015e-05
-0.000391046
0.00041954
0.00104293
4.70642e-05
0.000447771
-0.000142348
0.000357788
-3.78367e-07
-0.000357407
0.000981533
-0.00143028
0.000661745
-0.0003844
-9.15695e-06
-0.000222613
9.98425e-06