/*--------------------------------*- C++ -*----------------------------------*\
| =========                 |                                                 |
| \\      /  F ield         | OpenFOAM: The Open Source CFD Toolbox           |
|  \\    /   O peration     | Version:  v2012                                 |
|   \\  /    A nd           | Website:  www.openfoam.com                      |
|    \\/     M anipulation  |                                                 |
\*---------------------------------------------------------------------------*/
FoamFile
{
    version     2.0;
    format      ascii;
    class       volVectorField;
    location    "250";
    object      U;
}
// * * * * * * * * * * * * * * * * * * * * * * * * * * * * * * * * * * * * * //

dimensions      [0 1 -1 0 0 0 0];


internalField   nonuniform List<vector> 
13308
(
(1.09475 0.132917 -1.30725e-21)
(1.10122 0.0655404 -1.97736e-21)
(1.04893 0.16171 5.04198e-21)
(1.01772 0.0334171 -1.54664e-20)
(0.980812 0.0186306 4.26681e-21)
(1.07067 0.0560794 -4.67137e-21)
(0.969402 0.0403615 0)
(1.00856 0.153444 -1.46956e-20)
(0.996119 0.0401418 -6.04672e-21)
(1.0015 0.00845191 9.62415e-21)
(1.029 0.12353 -1.46901e-21)
(0.766241 0.130666 0)
(1.09108 0.161375 0)
(0.971708 0.0412411 -9.9129e-21)
(0.989915 0.0401156 2.94201e-20)
(0.981586 0.0194764 1.01078e-20)
(1.0361 0.0193607 7.1569e-21)
(1.02102 0.0184717 0)
(1.09251 0.12673 2.18578e-21)
(1.0932 0.0446635 1.80243e-21)
(0.987146 0.00815098 9.28997e-21)
(1.02174 0.0102646 -1.59856e-21)
(1.02194 0.00951423 1.09946e-20)
(1.10511 0.17434 0)
(1.04835 0.161296 -2.0133e-21)
(1.03067 0.0261967 2.85744e-20)
(0.781531 0.134498 -1.59509e-20)
(1.02109 0.0103458 -1.25281e-20)
(0.686585 0.11972 7.89472e-21)
(1.01972 0.00900523 2.85709e-20)
(0.981148 0.159197 0)
(1.0341 0.171885 6.92714e-21)
(1.09347 0.167424 0)
(0.886879 0.150728 0)
(1.09412 0.129325 -2.87697e-22)
(1.01702 0.0335719 0)
(1.02274 0.00942351 0)
(1.00763 0.0278976 0)
(1.01472 0.0346971 1.67556e-20)
(1.01129 0.0612507 9.40041e-21)
(0.987057 0.0784615 3.75512e-22)
(1.0326 0.0495504 2.17673e-20)
(1.00867 0.155832 1.76443e-20)
(0.995896 0.0834699 3.54146e-20)
(1.03216 0.172507 -4.67732e-21)
(0.607845 0.105221 0)
(1.02237 0.0288374 0)
(0.995266 0.000205988 -1.8602e-20)
(1.03672 0.0759975 -1.84539e-20)
(0.999866 -0.00106984 0)
(0.980476 0.160594 0)
(1.10878 0.0585367 0)
(1.01938 0.0082486 0)
(0.62192 0.107147 -3.73674e-21)
(1.06801 0.059859 6.01583e-21)
(1.03209 0.0475445 -2.38357e-20)
(1.05502 0.0481132 8.96482e-21)
(0.994745 0.0046811 0)
(1.00107 0.00870632 -1.34647e-20)
(0.926489 0.107521 0)
(1.03645 0.0201422 0)
(0.994567 0.00476426 3.91046e-23)
(1.04666 0.0724053 1.96463e-20)
(1.00937 0.0610668 4.59129e-21)
(1.03075 0.0256229 -1.51258e-20)
(1.04717 0.0203577 0)
(1.09961 0.0639961 -2.78958e-21)
(0.84618 0.146736 0)
(0.803235 0.137214 -1.8026e-22)
(1.02035 0.0181972 0)
(1.0002 0.00027048 -3.17371e-20)
(1.04742 0.0711761 -7.40196e-21)
(1.02718 0.0132358 0)
(1.06382 0.0254377 -4.83031e-21)
(1.03222 0.041701 9.46943e-21)
(0.996843 -0.00119652 1.01105e-21)
(0.860927 0.147899 3.47091e-21)
(1.05166 0.133885 1.85561e-20)
(1.09005 0.167906 4.33439e-21)
(1.05042 0.0695576 3.73041e-21)
(1.02353 0.00818463 1.60777e-20)
(0.957368 0.108557 0)
(1.03255 0.0193197 1.0507e-20)
(0.989222 0.000953696 3.04238e-20)
(1.03171 0.172472 9.07397e-21)
(0.94101 -0.0248559 0)
(1.00497 0.00291357 1.17044e-20)
(0.934897 0.100745 0)
(0.933165 0.104012 2.78495e-20)
(0.988316 0.00775919 0)
(1.00068 0.0085257 0)
(0.975304 0.16336 0)
(1.04504 0.137464 -1.26696e-20)
(0.943321 0.128227 -3.08786e-20)
(0.942886 0.0682724 -5.25923e-20)
(1.04588 0.132221 -1.4895e-20)
(1.0235 0.00805861 0)
(1.06116 0.155779 -4.60317e-21)
(0.994022 0.0844731 -5.26221e-20)
(1.08844 0.105537 1.45848e-22)
(1.09952 0.107432 0)
(0.994681 2.11333e-05 0)
(1.0249 0.0273412 -1.50737e-20)
(1.00348 0.0485584 4.59712e-20)
(1.02693 0.0126866 -1.8927e-21)
(1.00133 0.00447741 0)
(1.13658 0.151721 -6.45609e-21)
(0.923539 0.105812 2.87533e-20)
(1.09026 0.04795 0)
(1.08345 0.1621 0)
(0.982461 0.13122 0)
(1.03367 0.171477 0)
(1.00075 0.00821266 0)
(1.07742 0.175353 -3.42505e-21)
(1.098 0.105648 0)
(1.09571 0.165138 -1.22315e-21)
(0.887283 -0.0291088 2.78242e-20)
(0.964748 0.0970086 0)
(1.03371 0.0578386 7.04522e-21)
(0.981626 0.132323 1.4596e-20)
(0.944768 0.0652162 0)
(0.99305 -0.00524657 1.15001e-20)
(0.993041 -0.0135483 -2.40153e-22)
(0.944174 -0.0296837 0)
(0.961036 0.131869 0)
(0.947094 0.0205011 -1.21494e-22)
(1.03962 0.173224 0)
(0.980869 -0.0188058 2.30952e-21)
(0.999757 -0.001108 -2.6948e-20)
(0.981263 0.172558 0)
(1.04817 0.158332 -3.97466e-21)
(1.07328 0.0688879 -1.60548e-21)
(1.01569 0.0335318 -1.05895e-20)
(1.05853 0.114185 5.44295e-21)
(0.991651 -0.0125857 3.40037e-20)
(1.03166 0.0802109 -5.95035e-21)
(0.995746 0.0408469 1.39732e-20)
(1.02388 0.0275265 1.32519e-20)
(1.08553 0.162994 -1.55572e-21)
(1.00198 0.0481281 -3.22039e-20)
(1.14782 0.159716 -5.13595e-21)
(0.867185 0.148674 -1.98474e-21)
(0.876233 0.149613 -2.47683e-21)
(0.961479 0.0927933 1.75802e-20)
(0.780943 0.132751 1.88708e-20)
(0.874255 0.209488 -7.7782e-21)
(1.03893 0.07342 3.17538e-20)
(1.01058 0.00087245 2.06121e-20)
(0.989947 -0.00201265 1.17644e-20)
(0.911279 0.155912 -2.12202e-21)
(1.12219 0.176308 -2.53252e-20)
(0.993166 0.0404759 -1.67057e-20)
(1.09289 0.0438304 -1.60438e-21)
(1.00671 0.0280765 0)
(1.01851 0.00777575 0)
(1.0317 0.0761421 5.29241e-21)
(1.00125 0.00392125 0)
(0.988208 0.0762811 0)
(0.959907 0.128531 0)
(0.890825 0.151151 1.53407e-22)
(0.971624 0.12458 7.77116e-21)
(1.04234 0.172609 2.61226e-21)
(0.962736 0.0976429 0)
(0.992457 0.0416036 1.47636e-20)
(1.01924 0.00122868 -2.14824e-20)
(0.834742 0.189912 0)
(1.00022 0.105954 7.11683e-21)
(1.14716 0.154152 -2.02183e-20)
(1.04998 0.159524 -2.03408e-21)
(1.14503 0.119566 -9.17717e-21)
(0.996101 0.148711 2.09501e-20)
(1.10661 0.0544041 -2.35975e-21)
(1.01514 0.170041 0)
(1.0894 0.16087 3.72518e-21)
(1.02634 0.0990258 1.75009e-20)
(1.00006 0.00036183 0)
(1.06568 0.0259748 2.27674e-21)
(1.03473 0.156894 0)
(1.01522 0.0306916 1.61518e-20)
(1.00485 0.0297793 2.11354e-20)
(0.968665 0.11975 0)
(1.03447 0.0572699 7.05881e-21)
(1.03005 0.027742 8.44553e-21)
(0.992139 0.166929 1.80133e-20)
(0.953806 0.0502645 -6.02939e-22)
(0.99676 0.0436305 0)
(0.99271 -0.0121794 -3.78796e-20)
(1.04899 0.0215926 0)
(1.02189 0.00128711 1.60813e-21)
(0.959556 0.0914982 -3.83017e-20)
(1.07358 0.0680436 -3.72344e-22)
(1.07577 0.0660368 4.29904e-22)
(0.835397 0.189571 3.93033e-20)
(1.12825 0.175508 9.72352e-21)
(1.13467 0.147417 -1.02975e-20)
(1.04981 0.158262 1.17031e-20)
(1.05085 0.134976 -1.37266e-20)
(0.986133 -0.0175138 -3.32315e-20)
(1.03527 0.0181682 0)
(0.99709 0.146917 -1.73023e-20)
(1.12025 0.164593 0)
(1.00867 0.108267 0)
(1.00716 0.120451 0)
(1.02804 0.0467277 -1.16049e-20)
(0.903398 0.0847055 0)
(1.04808 0.156558 1.19887e-20)
(0.956338 0.0532196 -1.69853e-20)
(1.02403 0.0666655 1.9393e-20)
(0.990677 -0.00209017 0)
(1.0588 0.0635211 5.26776e-21)
(1.09143 0.102807 1.15957e-21)
(1.10249 0.175892 -1.40718e-22)
(1.00014 0.00019908 4.31892e-20)
(0.978262 0.16135 0)
(1.00752 0.118835 0)
(0.957856 0.109138 -8.95252e-22)
(1.02712 0.0117659 0)
(0.858046 0.226096 -2.56271e-21)
(1.02336 0.0176402 0)
(1.02348 0.0179817 2.36165e-20)
(0.990557 0.0375513 -2.9728e-20)
(0.999617 0.0021896 0)
(0.987659 0.028177 0)
(1.00875 0.1339 0)
(1.01055 0.0110541 1.74894e-20)
(1.0888 0.160049 -2.41309e-21)
(0.998274 0.104749 1.17894e-20)
(0.999675 -0.00259122 5.10571e-21)
(0.966244 0.154338 1.32586e-20)
(0.965211 0.1062 4.08626e-20)
(1.04985 0.0702965 0)
(0.998058 0.0012636 -3.62902e-20)
(1.01028 0.000915755 6.1533e-21)
(1.04521 0.0283315 -7.4851e-21)
(0.940279 0.0785486 0)
(0.992398 0.054169 0)
(1.02698 0.0136219 1.34938e-20)
(1.02245 0.00305298 4.16611e-21)
(1.07614 0.0658066 -5.70244e-22)
(0.995696 0.0116133 -2.8532e-20)
(1.00336 0.0609765 -9.40718e-21)
(0.899215 0.0846778 0)
(0.993508 -0.00424204 -2.02324e-20)
(1.03466 0.158233 6.91694e-21)
(0.842221 0.0247613 6.86782e-20)
(0.930528 0.0261976 2.54038e-20)
(1.12203 0.162642 0)
(1.01795 0.0698837 2.9948e-20)
(0.992052 -0.0137474 0)
(1.02695 0.0972264 0)
(1.04634 0.137775 0)
(1.01089 0.0108586 -1.30236e-20)
(0.872865 0.208389 6.83946e-21)
(1.00035 0.000222134 -2.03182e-20)
(1.00005 0.00038808 0)
(0.969653 0.110862 5.18415e-20)
(1.01876 0.00843573 1.32578e-20)
(0.996262 0.0106567 2.67642e-20)
(0.985517 0.0246457 1.25335e-20)
(0.966394 0.0974133 0)
(1.03112 0.123117 -1.11708e-20)
(1.02723 0.0121516 -6.44043e-21)
(1.03004 0.0275568 -6.68487e-21)
(1.04677 0.0190793 -2.83315e-21)
(0.856216 0.146181 1.26467e-21)
(1.01399 0.0312299 0)
(1.08207 0.164015 0)
(0.967685 0.121391 3.6056e-20)
(1.08106 0.17551 -2.87048e-22)
(1.00723 0.134967 0)
(1.01952 0.00527878 1.59042e-23)
(1.01788 0.1199 0)
(0.945403 -0.00784948 -1.16498e-20)
(0.998665 0.0845245 1.71092e-20)
(0.959493 0.128086 0)
(0.957463 0.122585 -1.31748e-23)
(1.02222 0.00268683 0)
(0.888142 -0.0257406 -1.04458e-19)
(1.06029 0.156803 5.87602e-21)
(1.05745 0.0462997 0)
(0.93885 -0.0304291 0)
(0.985525 0.0244249 2.34221e-20)
(1.06056 0.154079 -4.37522e-21)
(1.14272 0.120577 -1.85816e-20)
(1.10886 0.129641 0)
(0.99965 0.00203951 0)
(0.995538 -0.010883 -1.72625e-20)
(0.918001 0.146646 -3.54318e-20)
(1.03223 0.0201225 0)
(1.08323 0.0517877 -5.23314e-22)
(1.04408 0.16347 1.15009e-20)
(0.961392 0.161551 -1.53511e-20)
(1.09142 0.162782 -4.77887e-21)
(0.857706 0.146627 -9.61531e-21)
(0.963314 0.106245 0)
(1.02284 0.00924327 0)
(1.01898 0.0699188 -4.2126e-20)
(0.976414 -0.0202882 4.5233e-20)
(0.662218 0.110879 0)
(0.978411 0.0150939 2.8287e-20)
(0.854864 0.147044 6.64097e-21)
(1.06457 0.0627574 0)
(1.04515 0.122012 -8.98788e-21)
(1.00922 0.001553 2.25548e-20)
(1.0025 0.136503 -3.66862e-21)
(0.98926 -0.00017706 0)
(1.13001 0.0915211 1.05373e-20)
(0.920098 0.107873 1.94933e-22)
(0.945901 -0.0221472 0)
(1.01167 0.00971616 2.00208e-21)
(1.08226 0.0836016 0)
(1.1028 0.107947 -4.0215e-21)
(0.98301 0.161146 7.97377e-21)
(0.966142 0.0318164 6.28768e-20)
(0.960064 0.131125 6.73309e-21)
(0.847094 0.145667 9.29639e-22)
(1.02573 0.157054 0)
(1.08733 0.051953 3.8281e-23)
(0.959451 0.130386 -6.8093e-21)
(1.04567 0.10803 -4.26666e-21)
(0.943757 -0.0052169 -1.55392e-20)
(0.984957 0.130951 -1.36918e-20)
(1.06497 0.0626035 0)
(1.03123 0.0197175 0)
(1.11829 0.0629418 0)
(0.971556 0.125839 -1.08945e-20)
(1.02751 0.0451184 3.26779e-20)
(0.990371 0.00186444 1.77947e-20)
(1.10859 0.0583963 1.62152e-21)
(0.964371 0.0230075 -1.05869e-20)
(1.09068 0.152036 1.70175e-21)
(0.958082 0.124607 3.52204e-23)
(0.921543 0.0885797 -8.49832e-20)
(0.933975 0.0243288 -5.14076e-22)
(1.00652 0.107582 -6.39769e-21)
(0.981778 0.161781 0)
(0.961466 0.131809 0)
(0.967107 0.0646614 -2.01758e-20)
(1.02952 0.0292339 8.78445e-21)
(1.089 0.0569053 0)
(1.11584 0.165095 0)
(0.997987 -0.00133384 3.23116e-20)
(0.939975 0.0772365 0)
(0.92304 -0.0377648 -1.66812e-20)
(1.10563 0.0632561 0)
(0.997804 0.00106073 1.87944e-20)
(1.00389 0.0592964 -9.94416e-21)
(0.997652 0.0391511 0)
(0.986329 0.0279482 2.44232e-20)
(0.956252 0.110627 -3.79226e-20)
(1.04442 0.0621312 -1.42042e-20)
(0.990427 0.0533806 0)
(0.936084 0.102182 -2.59996e-22)
(1.02439 0.0696049 0)
(0.917288 0.147245 -3.9717e-20)
(0.990739 0.039852 -1.67874e-20)
(1.00277 0.117607 0)
(1.00723 0.159415 5.68745e-21)
(1.02295 0.156577 -1.45243e-20)
(0.986999 -0.0179229 2.2033e-20)
(0.917071 0.106575 -2.76696e-20)
(1.09013 0.0489233 0)
(0.761959 0.131011 -1.83735e-20)
(0.945935 0.0234002 5.54761e-20)
(1.08961 0.15922 1.12234e-21)
(1.03034 0.0587449 2.72329e-20)
(0.841244 0.0255034 3.46236e-20)
(1.03563 0.157989 0)
(0.999681 -0.00317143 -3.044e-20)
(1.04691 0.107359 -7.24723e-21)
(1.0765 0.154568 -1.36976e-21)
(0.894046 0.153801 6.31435e-22)
(1.09784 0.150817 -2.96827e-21)
(0.847955 0.239123 1.97338e-20)
(0.981461 0.100039 0)
(0.950977 0.0487069 3.22322e-20)
(0.943207 0.162614 0)
(0.997654 0.0520022 -4.37962e-24)
(0.885396 0.193447 -5.47276e-20)
(1.0226 0.0671114 0)
(0.988274 -0.0168128 -2.23057e-20)
(0.983722 0.13307 -1.67864e-20)
(0.979319 -0.0209596 -2.42172e-21)
(0.789711 0.136393 -1.33614e-19)
(0.942167 0.125982 -1.72118e-22)
(0.983254 0.0064118 -1.20755e-20)
(1.05406 0.0450432 8.09591e-21)
(1.04314 0.121922 1.05315e-20)
(1.02822 0.0293808 7.11015e-21)
(1.13032 0.176867 5.8958e-21)
(0.939249 0.16035 1.32597e-20)
(1.04591 0.0837398 2.3918e-20)
(0.997105 0.0850963 0)
(0.729868 0.122916 2.4442e-20)
(1.04779 0.0841705 2.67404e-21)
(0.871098 0.145115 1.5672e-20)
(0.991054 0.00228325 -1.36923e-20)
(0.924256 -0.0405702 7.06683e-20)
(0.96572 0.139309 -2.19441e-20)
(0.840508 0.144485 2.35493e-21)
(1.11467 0.127139 5.14385e-21)
(0.967265 0.11426 -2.74154e-20)
(0.983961 0.00646616 -5.2502e-21)
(1.00216 0.135696 0)
(1.04478 0.0850325 -2.61456e-20)
(1.02019 0.00862453 -1.37823e-20)
(0.956999 -0.0391716 7.93754e-21)
(1.00122 0.00408808 0)
(0.987803 0.156218 0)
(1.0718 0.120903 8.36338e-21)
(0.886588 0.195327 0)
(0.845418 0.14624 0)
(1.02455 0.158095 7.12552e-21)
(0.989655 0.0369041 0)
(1.13397 0.175511 -1.68643e-22)
(1.05535 0.0692757 1.22816e-20)
(1.13769 0.118904 7.7147e-21)
(0.990055 0.00137986 -1.47097e-20)
(1.00508 0.00158323 0)
(1.03173 0.0580536 -3.03006e-20)
(1.07634 0.0453642 0)
(0.99432 -0.00440631 1.9468e-20)
(1.11885 0.124467 1.23555e-20)
(1.0488 0.0829411 -4.21677e-21)
(0.969302 0.154654 1.65372e-20)
(1.1336 0.0868512 0)
(0.923419 -0.0187268 3.46944e-20)
(1.10551 0.17652 0)
(1.04405 0.164951 6.27488e-21)
(1.09184 0.16667 -1.85017e-21)
(0.965892 0.0319691 -3.74188e-20)
(1.10346 0.175787 0)
(0.835017 0.143768 4.51217e-21)
(0.965912 0.113384 0)
(1.00488 0.0127132 7.90356e-23)
(1.05673 0.135933 0)
(1.03082 0.0203634 0)
(1.03052 0.0429966 -9.12762e-21)
(1.05823 0.0636011 0)
(0.960751 0.0648951 1.88091e-20)
(1.00407 0.00317106 0)
(0.993599 0.0076249 -3.85292e-21)
(0.97329 -0.00893025 0)
(0.93009 0.101827 -8.12306e-21)
(1.02582 0.0265413 3.54768e-20)
(0.886504 0.150637 -8.4589e-22)
(0.999061 0.146858 1.8702e-20)
(1.00072 0.00457082 0)
(0.916371 0.0101173 2.34639e-20)
(0.957937 0.125267 -4.35692e-20)
(1.11005 0.152858 -7.93912e-21)
(0.990394 0.035209 -2.97902e-20)
(0.96165 0.0595833 7.31336e-20)
(1.06123 0.0608719 -7.7568e-21)
(0.967191 0.116129 1.45805e-20)
(0.736171 0.124758 6.24115e-20)
(1.01573 0.0330462 -1.03603e-20)
(1.02527 0.0438928 3.05118e-20)
(1.02823 0.157031 0)
(1.09492 0.154701 1.65414e-21)
(1.02757 0.0598515 0)
(1.07083 0.121972 -4.66537e-21)
(1.0759 0.0433416 -4.45596e-22)
(1.00029 0.000119107 2.55695e-20)
(1.03677 0.0562035 1.86713e-20)
(1.08073 0.0816129 0)
(1.01377 0.0295008 0)
(0.957064 0.154103 -2.28007e-20)
(1.06198 0.0652034 7.80508e-21)
(1.00852 0.0412009 -6.15503e-21)
(0.888436 0.080333 2.64546e-20)
(1.00728 0.0614615 2.50272e-20)
(1.11722 0.124457 -1.14755e-20)
(0.963685 0.133039 3.68263e-20)
(1.00391 0.00331848 2.38361e-20)
(0.998879 -0.00433236 1.56377e-20)
(0.98076 0.0906116 0)
(0.999 -0.00363978 0)
(1.03265 0.125663 1.17097e-20)
(1 5.56711e-05 2.16477e-20)
(0.973039 0.124158 0)
(1.00081 0.00450615 0)
(0.975623 0.115256 0)
(0.877737 0.113316 -1.53516e-20)
(1.01671 0.0217011 -1.33234e-20)
(1.02722 0.170655 8.49482e-21)
(0.989075 0.0626252 1.48091e-20)
(1.04577 0.172701 5.26343e-21)
(1.01979 0.00594 -2.33195e-20)
(0.969419 0.110801 -4.73748e-20)
(1.10676 0.0535177 -1.68273e-21)
(0.958642 0.161983 1.04573e-20)
(1.0219 0.0281303 1.38148e-20)
(1.1144 0.127493 0)
(1.04525 0.0625122 1.5289e-20)
(1.06532 0.135648 0)
(1.13131 0.147815 6.04328e-21)
(0.988604 0.00128328 -7.45088e-21)
(0.954572 -0.0370079 -3.18663e-20)
(0.997944 0.0384496 0)
(0.964533 0.063652 4.01709e-20)
(0.786497 0.134702 1.96641e-20)
(1.04336 0.131725 -6.23062e-21)
(1.02871 0.170827 9.59457e-21)
(1.05627 0.114472 -5.1322e-21)
(0.819988 0.14231 0)
(0.988487 -0.000871966 -1.68521e-20)
(1.08856 0.156414 -2.3501e-21)
(1.10593 0.063244 4.74608e-21)
(1.04422 0.173125 2.86441e-21)
(0.990771 0.0620984 0)
(0.931067 0.158207 -1.95709e-20)
(1.05575 0.172762 5.53318e-21)
(1.12296 0.0858948 -3.18379e-21)
(1.01476 0.0699333 -1.0217e-20)
(0.96325 0.125497 -3.28131e-20)
(1.00739 0.160393 1.8892e-22)
(0.994964 -0.0115189 1.81176e-20)
(1.04741 0.138926 6.43436e-21)
(1.00627 0.0611735 -4.65022e-20)
(1.11137 0.128586 -5.7404e-21)
(0.860701 0.147242 0)
(1.02576 0.0461337 -1.05801e-20)
(0.965746 0.133285 0)
(0.955289 0.219796 3.61576e-20)
(0.965703 0.153516 0)
(1.1157 0.149181 -1.38912e-20)
(0.968943 0.119585 0)
(0.985607 0.160645 1.71763e-20)
(1.09822 0.131349 0)
(0.999458 0.00565436 0)
(0.998026 -0.00144988 -1.62641e-20)
(1.11154 0.175761 9.0216e-21)
(1.09345 0.11862 0)
(1.00674 0.0967414 2.89781e-21)
(1.02181 0.0792324 5.7071e-21)
(1.00229 0.116973 1.11181e-20)
(0.981067 0.101086 1.82339e-20)
(0.956992 0.123476 0)
(0.998356 -0.00169314 -2.76659e-20)
(1.04638 0.156375 -4.18917e-21)
(0.912718 0.155304 -5.94316e-22)
(0.722581 0.121039 1.48024e-20)
(1.02383 0.0793182 1.24113e-20)
(0.999247 0.00568498 3.90052e-20)
(1.04594 0.133327 -1.25535e-20)
(0.999119 -0.00200207 1.45431e-20)
(0.739835 0.124309 -1.27634e-20)
(1.08695 0.162154 1.90968e-21)
(1.11167 0.150817 9.874e-21)
(1.00226 0.00522981 -1.37413e-20)
(0.996708 -0.00110638 0)
(0.941591 0.156531 0)
(0.995705 0.0045487 -3.26249e-20)
(1.094 0.135586 3.38567e-22)
(1.02222 0.00217283 0)
(1.14324 0.115839 -2.4063e-20)
(1.02336 0.0287649 8.16837e-21)
(1.08705 0.156439 -9.15518e-22)
(1.02388 0.00758675 -1.36241e-20)
(0.995796 0.0114862 2.72201e-20)
(1.00168 0.000447561 1.20263e-20)
(1.0621 0.137136 0)
(0.953911 0.0529486 0)
(0.994575 -0.00357469 0)
(0.883692 0.0206029 3.32346e-20)
(1.03928 0.155323 8.44432e-21)
(1.09253 0.132941 -1.21394e-21)
(1.00002 0.000186075 0)
(1.00034 0.00438472 0)
(1.05778 0.17496 2.97762e-21)
(1.00508 0.00232532 -1.75725e-22)
(0.974775 0.0120272 5.10377e-20)
(0.663977 0.113368 1.20735e-20)
(1.00236 0.00501026 2.78688e-20)
(0.736855 0.125139 -4.05543e-20)
(1.03391 0.0786588 2.92773e-21)
(0.999935 -7.61839e-05 1.71813e-20)
(0.811806 0.0415288 0)
(1.01545 0.0697544 2.17157e-20)
(1.00589 0.0968459 0)
(0.979958 0.0905641 0)
(1.01936 0.119162 0)
(1.02598 0.0436474 -1.9255e-20)
(1.06353 0.13662 0)
(0.99542 0.00474185 -1.0988e-20)
(1.10438 0.0492384 -5.90413e-21)
(0.99021 -0.0168511 -2.01645e-20)
(0.992229 0.138663 0)
(0.963177 0.133697 -2.83637e-20)
(1.0221 0.0528637 -8.70905e-21)
(1.01898 0.00121359 3.10319e-20)
(0.961961 0.0612819 -1.90185e-20)
(1.10024 0.148753 0)
(1.02721 0.0779812 0)
(0.970354 0.109298 -4.68387e-20)
(1.03008 0.0777312 0)
(1.07019 0.132927 0)
(1.05594 0.0696249 -9.52874e-21)
(0.863442 0.147556 3.71243e-21)
(1.11794 0.176885 0)
(1.00138 0.00424802 -1.42241e-20)
(1.00261 0.00533932 -3.7362e-20)
(1.01464 0.0292612 3.98837e-21)
(0.972628 0.0435474 1.10521e-20)
(1.0233 0.0712979 -1.16241e-20)
(1.0308 0.170881 -8.30795e-21)
(0.867172 0.119438 -2.30706e-20)
(1.13106 0.145162 -5.30682e-21)
(1.03611 0.0568716 -3.51146e-20)
(1.00281 0.00485131 2.39769e-20)
(1.02387 0.00743244 1.28936e-20)
(0.869476 0.135687 0)
(1.08552 0.175094 -6.91137e-21)
(0.970624 0.0630818 2.11805e-20)
(1.11759 0.164647 6.58592e-21)
(1.01828 0.0521232 9.72464e-23)
(1.01219 0.0119387 2.03857e-20)
(0.954884 0.14197 1.53674e-20)
(0.967735 0.134477 0)
(0.963767 0.122552 3.02045e-20)
(1.11588 0.0665939 1.30478e-21)
(1.06735 0.134013 -3.20325e-21)
(1.0811 0.175987 -3.34698e-21)
(0.987542 0.155048 5.53198e-21)
(1.00035 0.00439963 -1.49016e-20)
(0.805214 0.139791 -6.03158e-22)
(1.04635 0.154619 0)
(1.07576 0.15325 0)
(0.911849 0.077065 2.26626e-20)
(0.884853 0.151286 -3.7921e-21)
(1.02263 0.0518407 -1.4839e-20)
(1.00485 0.00266635 9.43778e-23)
(1.01145 0.00902069 3.03875e-23)
(0.976866 0.131472 -1.84439e-20)
(0.980079 -0.00712807 -2.47994e-20)
(0.974647 -0.00297994 -2.31868e-20)
(0.995329 0.0449538 0)
(0.985136 0.121671 5.71466e-21)
(0.993345 0.15842 -1.00957e-22)
(0.802904 0.130286 -3.49781e-20)
(0.984962 0.161831 9.07413e-21)
(0.943398 0.173748 0)
(1.00312 0.00359009 2.59749e-20)
(0.974306 0.0113354 -3.0793e-20)
(0.978726 0.0149653 0)
(0.941267 -0.0058376 1.70794e-20)
(0.999125 0.00544693 -5.07619e-20)
(1.00292 0.00339834 3.49624e-21)
(1.03594 0.126325 -5.82739e-21)
(0.998102 0.147993 2.04593e-20)
(1.02567 0.0262091 -1.53046e-20)
(1.06234 0.174611 -5.29814e-21)
(1.02143 0.0012768 -4.40352e-21)
(1.03042 0.170354 -2.48965e-21)
(0.968432 0.112658 -2.38918e-20)
(1.04416 0.0272164 7.21021e-21)
(1.03595 0.0208815 1.75788e-20)
(1.00888 0.0049176 -3.95525e-21)
(1.05946 0.117101 -5.73362e-21)
(0.925799 -0.0127761 3.25793e-20)
(1.02897 0.0596889 0)
(1.01652 0.0505882 0)
(0.944366 0.160571 1.78956e-20)
(1.06947 0.134408 3.06601e-21)
(1.00082 0.00362707 2.68272e-20)
(1.02637 0.153479 0)
(0.988584 -0.017695 5.8769e-21)
(0.992465 -0.0106001 2.76252e-20)
(1.00584 0.0289565 0)
(1.10022 0.177285 6.16489e-21)
(0.980115 0.131674 1.72779e-20)
(1.0377 0.120544 6.56039e-21)
(0.928204 0.0230314 -8.04064e-20)
(0.988107 0.0178779 2.56402e-20)
(1.11295 0.0669541 0)
(0.923888 0.0879938 0)
(1.00724 0.00118109 0)
(1.07725 0.0400117 -3.49782e-21)
(0.992963 0.165857 1.6116e-20)
(0.828291 0.142278 5.46923e-21)
(1.03953 0.130901 -6.71497e-21)
(0.996744 0.166023 1.34134e-20)
(1.00064 0.000578619 2.25112e-24)
(1.06322 0.0357145 0)
(0.934582 0.157702 0)
(0.999624 0.00176063 1.43757e-20)
(0.978373 0.128562 -1.50543e-20)
(1.06747 0.0599061 -9.84884e-22)
(0.998786 0.0192781 0)
(1.04553 0.0199521 1.34935e-20)
(1.02073 0.0706626 0)
(0.900676 0.153767 0)
(0.999969 6.25439e-05 -1.52504e-20)
(0.99104 0.0748703 6.24011e-20)
(1.03733 0.108888 1.00391e-20)
(1.05048 0.163638 -9.24935e-22)
(1.02187 0.00165954 4.55345e-21)
(0.995755 0.00406291 -2.13039e-20)
(0.95194 0.0880802 -5.45714e-20)
(1.0091 0.0134576 2.26148e-20)
(1.03694 0.0987351 -1.92799e-20)
(0.929009 0.157598 -6.02989e-21)
(1.10436 0.1016 -2.11042e-21)
(1.01139 0.00979751 -1.61081e-20)
(0.937869 0.15511 0)
(1.01727 0.157239 4.7185e-21)
(1.05578 0.137022 5.48557e-21)
(1.00957 0.0135476 1.39578e-22)
(1.08129 0.166515 5.66412e-22)
(1.03798 0.0977187 1.21262e-20)
(0.88086 0.150823 1.25677e-21)
(0.928131 0.0218321 6.47604e-20)
(1.00497 0.00219272 0)
(1.01083 0.00982641 0)
(0.996661 0.0501413 5.90009e-20)
(1.00113 0.0044951 0)
(0.882285 0.115734 -5.47794e-21)
(1.02012 0.05272 0)
(1.01946 0.156999 5.36843e-20)
(0.996842 -0.00383689 4.02896e-20)
(1.01975 0.108543 1.22111e-20)
(0.900773 0.153491 0)
(1.00288 0.0243161 3.164e-20)
(1.01242 0.0116019 0)
(1.03961 0.12987 -6.39416e-21)
(1.04508 0.17314 -2.22736e-21)
(0.800605 0.0563113 -1.16417e-20)
(0.985868 0.144364 -1.47989e-20)
(1.00725 0.00229119 2.5356e-20)
(0.997237 -0.00148536 -3.0666e-20)
(0.962155 0.154187 -2.5259e-20)
(1.00004 0.000192356 -1.90683e-20)
(0.999483 -0.00213119 8.47036e-21)
(0.964761 -0.0223564 4.02949e-22)
(0.827748 0.142398 -6.90171e-21)
(0.979358 0.131618 0)
(1.1108 0.176104 -6.67288e-21)
(1.00455 0.0137603 3.5923e-23)
(1.11513 0.147332 7.08805e-21)
(1.01006 0.152576 1.44827e-20)
(1.00868 0.00512247 -6.10117e-23)
(0.972044 0.109889 7.0626e-20)
(1.03901 0.118374 1.7534e-22)
(0.996596 -0.00437304 -1.58146e-20)
(1.00738 0.00142751 0)
(1.01287 0.0696272 1.21914e-20)
(1.03577 0.109389 -1.52193e-20)
(0.944328 0.133715 0)
(1.01192 0.0700851 -3.03922e-20)
(1.02048 0.156491 -4.02192e-20)
(0.981268 -0.0227813 -3.0703e-20)
(1.10816 0.174587 0)
(0.982583 0.0042539 3.80982e-20)
(1.0889 0.153866 -1.56118e-21)
(0.994071 0.157396 -2.49438e-20)
(0.999192 -0.00195861 -8.02624e-21)
(1.08249 0.165666 -5.42416e-22)
(1.04108 0.0855344 -6.82521e-21)
(0.999659 0.00161082 -1.33719e-20)
(1.01895 0.0868778 -1.82108e-20)
(0.945559 0.135166 5.45278e-21)
(0.998497 0.0195304 -1.9054e-20)
(1.00402 0.0214992 1.56861e-20)
(0.983969 0.0226161 -2.69016e-20)
(0.992657 -0.00913943 -9.44505e-21)
(0.960186 0.0635073 1.88897e-20)
(0.98941 0.0174985 -2.30814e-20)
(0.955804 0.142015 6.22316e-21)
(1.08923 0.0563815 0)
(1.016 0.156186 2.27592e-20)
(0.998453 -0.00174833 2.94809e-20)
(1.03741 0.12884 1.28918e-20)
(0.875067 0.120525 1.29611e-20)
(0.950847 0.160606 0)
(1.0199 0.109177 0)
(1.13968 0.17518 0)
(0.997461 0.165408 0)
(1 4.89375e-05 -2.07307e-20)
(1.0053 0.167755 0)
(1.02964 0.0514466 4.31049e-22)
(1.01699 0.0228278 0)
(0.988523 0.00716609 1.7688e-20)
(1.06144 0.032821 3.05246e-21)
(1.00476 0.00318289 -1.35219e-20)
(1.0333 0.0425609 -1.91302e-20)
(0.849507 0.145722 -1.01104e-21)
(0.939378 0.155767 0)
(0.914817 0.155685 1.23284e-21)
(1.08467 0.0564368 -4.32433e-23)
(0.99881 0.00535874 -1.86057e-20)
(0.964643 0.00394565 2.24858e-20)
(0.985052 0.0106682 2.51707e-20)
(0.916768 0.0108083 -1.5567e-21)
(0.942919 0.195998 0)
(1.00897 0.00133582 1.3515e-20)
(0.953042 0.0860502 4.8071e-20)
(1.09513 0.11955 0)
(0.864703 0.1471 1.87104e-20)
(1.00009 0.000282926 2.26135e-20)
(0.999836 0.0058814 1.71835e-20)
(0.997375 -0.00560469 0)
(1.01061 0.00998224 1.36504e-20)
(0.98073 -0.0238131 3.07406e-20)
(0.992091 -0.0113008 -3.63979e-20)
(0.828374 0.173845 -6.92164e-20)
(1.00427 0.00184266 0)
(1.00442 0.0609962 2.06573e-20)
(1.00382 0.00482821 0)
(1.03136 0.164988 -7.92229e-21)
(1.02148 0.0702619 0)
(1.07832 0.174794 6.68746e-22)
(1.03934 0.0549657 2.93319e-21)
(0.956774 0.199944 -2.25176e-20)
(0.965816 0.113247 6.24528e-21)
(0.964111 0.0246313 0)
(0.990341 0.0763414 -1.68524e-20)
(1.02863 0.0770804 0)
(1.00358 0.00525228 1.89741e-23)
(1.03752 0.0864086 -3.33304e-20)
(0.976948 0.0438146 -1.00515e-22)
(0.976888 0.141846 -2.75773e-20)
(0.986863 0.143606 1.46188e-21)
(0.907374 0.154582 0)
(1.04611 0.138651 6.99432e-21)
(0.984065 0.0228147 -2.88357e-20)
(0.982664 0.0211325 0)
(0.920701 -0.0221914 0)
(1.01702 0.00133339 -1.82448e-20)
(1.13904 0.115034 -3.58661e-21)
(0.992378 -0.00998936 1.08737e-20)
(0.951271 0.129842 0)
(0.967125 0.106755 -1.05279e-20)
(1.0444 0.135502 2.11098e-20)
(0.975319 0.114953 0)
(0.992364 0.063418 3.34291e-21)
(1.00804 0.00423014 0)
(1.01739 0.0858617 4.22998e-21)
(0.989457 0.007072 0)
(0.910431 0.106364 -1.11287e-19)
(0.920729 0.0145803 4.913e-20)
(0.920384 0.0144632 -4.46122e-20)
(0.823559 0.1335 3.36846e-20)
(1.10742 0.0737204 6.4414e-21)
(1.00702 0.00251234 -2.58786e-20)
(1.03912 0.0857186 3.19856e-20)
(0.986888 0.00850594 -1.29991e-20)
(0.971189 0.0864281 0)
(1.02232 0.00124142 2.52011e-20)
(0.974048 0.125239 0)
(0.968594 0.0620563 0)
(0.880836 0.149443 -2.37989e-20)
(1.12779 0.163899 0)
(0.937442 0.00581147 7.09943e-23)
(0.983245 0.00405479 -2.04127e-20)
(0.985052 0.0106685 1.44133e-22)
(0.999663 0.00115978 4.14809e-20)
(1.01783 0.00523747 -1.21541e-20)
(1.10403 0.0667023 -8.09943e-22)
(1.03825 0.032921 4.0188e-21)
(0.995484 0.00420455 3.56877e-20)
(0.964384 0.0036368 0)
(0.999649 0.00138106 -1.55049e-20)
(1.06877 0.0710023 8.08064e-21)
(0.942154 0.167043 0)
(1.03785 0.128085 -6.46049e-21)
(0.985131 0.113112 3.55248e-20)
(1.10171 0.175331 -1.03476e-20)
(1.00593 0.0131966 0)
(0.939188 0.00246731 -6.39742e-20)
(0.999584 0.00323065 -5.12286e-20)
(0.884091 0.0185997 -7.55403e-20)
(0.871832 0.149409 7.2243e-22)
(0.997122 0.0427275 -9.2926e-22)
(0.999826 -0.00121514 0)
(0.969821 0.0872658 -1.43379e-20)
(0.8395 0.0838862 -2.27925e-20)
(1.01308 0.152062 6.78359e-23)
(1.10492 0.0738491 -3.67091e-21)
(0.977889 0.0423478 -2.34906e-20)
(1.11609 0.175201 7.63014e-21)
(0.861604 0.0252191 -1.48374e-20)
(1.0052 0.00181037 0)
(1.00734 0.0409641 -2.35532e-20)
(1.0249 0.050803 0)
(0.994591 0.00562691 1.42072e-20)
(1.08974 0.165153 1.24615e-22)
(1.0385 0.0556579 0)
(0.879688 0.151559 1.19252e-21)
(1.12642 0.167461 0)
(1.04943 0.135173 -3.67008e-21)
(1.03623 0.156153 0)
(0.998844 0.0648777 6.1563e-21)
(0.994921 0.167524 0)
(1.06491 0.0317515 -1.53235e-21)
(1.10191 0.164451 -6.01969e-21)
(0.970068 0.153046 -5.86004e-23)
(1.00326 0.000951793 0)
(1.04258 0.084002 5.53923e-21)
(1.02441 0.0493677 0)
(1.00869 0.028478 -1.3853e-21)
(1.03106 0.125425 2.78336e-20)
(0.999837 0.167401 -1.37757e-20)
(1.0525 0.0280567 9.76901e-21)
(1 3.20062e-05 2.09599e-20)
(0.972426 -0.00902423 -3.59437e-20)
(1.00393 0.0971003 0)
(1.07524 0.156048 1.82512e-21)
(1.10706 0.177221 6.88263e-21)
(0.996633 -0.0077196 -1.65563e-20)
(0.779938 0.126045 -6.42939e-20)
(0.993049 0.0626941 1.0632e-20)
(1.00396 0.107472 5.98449e-21)
(0.832057 0.143024 1.22731e-20)
(1.02997 0.0235883 -6.74322e-21)
(0.977013 -0.0177931 1.0189e-20)
(0.966805 0.141035 3.41214e-20)
(0.989642 0.0341445 0)
(1.02532 0.0416144 -2.13031e-20)
(1.00153 0.000502673 1.41195e-20)
(0.921728 0.158455 -1.56773e-20)
(0.992192 0.00434657 0)
(0.935567 0.159592 1.33523e-20)
(0.96379 0.152211 0)
(0.964451 0.0837421 5.6319e-20)
(1.02777 0.152428 -3.00075e-21)
(1.02706 0.158283 0)
(0.932514 -0.0218685 -1.41171e-20)
(0.958872 0.109499 1.14225e-20)
(1.00953 0.00978968 -2.52047e-20)
(0.972553 0.0637 2.65295e-21)
(1.01854 0.154944 0)
(1.00207 0.00347422 4.0949e-20)
(0.975632 0.155311 -2.30465e-20)
(1.00339 0.0033426 -2.10564e-20)
(0.890329 -0.0306765 -1.11008e-19)
(0.99864 0.00511554 0)
(0.799762 0.132489 -1.41267e-20)
(1.11828 0.0925011 1.25963e-20)
(1.01704 0.152865 0)
(0.996191 0.157533 0)
(1.00013 0.014739 3.13808e-20)
(0.872594 0.150573 8.69053e-21)
(0.910162 0.108067 3.20204e-20)
(1.00973 0.168279 -1.11165e-20)
(1.00331 0.00481302 -4.27689e-20)
(0.888099 0.151935 1.9382e-21)
(0.992175 0.139675 0)
(1.00773 0.00364064 0)
(1.00292 0.106631 -7.96418e-21)
(1.02326 0.162557 -5.97059e-22)
(0.819623 0.0338261 -2.30967e-20)
(0.981652 -0.0208695 2.12828e-21)
(0.999568 0.00321013 3.25326e-20)
(0.988984 0.052567 1.92921e-20)
(1.08796 0.176866 2.75283e-21)
(1.05581 0.0659797 -1.52376e-21)
(1.05203 0.0816094 -9.07921e-21)
(1.11207 0.10554 7.1028e-21)
(0.995055 0.00603755 -1.52415e-20)
(1.00559 0.0217108 0)
(1.07105 0.0705799 -9.05532e-21)
(0.994259 0.00709399 -2.92916e-20)
(0.993721 0.137738 0)
(0.955147 -0.0244253 1.90789e-20)
(1.01156 0.00287765 -7.92565e-22)
(0.99999 -0.000349003 0)
(1.00084 0.01483 -2.88288e-20)
(0.999803 0.013077 2.79546e-20)
(0.976853 0.130645 0)
(0.998777 -0.00188751 0)
(1.13701 0.104791 3.68241e-21)
(0.997877 0.0117269 3.4234e-21)
(1.02087 0.02824 0)
(0.998701 0.0050765 1.64041e-20)
(0.941473 0.161014 -1.6565e-20)
(1.00857 0.00794622 -2.50692e-20)
(1.04675 0.121105 8.63447e-21)
(1.00332 0.0211008 -1.59028e-20)
(0.690906 0.12109 6.8308e-21)
(1.07044 0.0895401 0)
(0.909265 0.156382 1.27764e-20)