/*--------------------------------*- C++ -*----------------------------------*\
| =========                 |                                                 |
| \\      /  F ield         | OpenFOAM: The Open Source CFD Toolbox           |
|  \\    /   O peration     | Version:  v2012                                 |
|   \\  /    A nd           | Website:  www.openfoam.com                      |
|    \\/     M anipulation  |                                                 |
\*---------------------------------------------------------------------------*/
FoamFile
{
    version     2.0;
    format      ascii;
    class       volScalarField;
    location    "150";
    object      nut;
}
// * * * * * * * * * * * * * * * * * * * * * * * * * * * * * * * * * * * * * //

dimensions      [0 2 -1 0 0 0 0];


internalField   nonuniform List<scalar> 
13308
(
0.000355815
0.0484343
0.044569
0.000515137
0.000505858
0.000454807
0.000603964
0.000460255
0.000601129
0.0570339
0.042267
0.00424341
0.000456555
0.00044709
0.000464016
0.0426485
0.000459196
0.046259
0.0279793
0.0299506
0.000468622
0.0623112
0.062041
0.000484286
0.0412286
0.0584482
0.000519532
0.0375381
0.000522086
0.000557746
0.0536423
0.000537231
0.0614808
0.000566544
0.0563732
0.000456888
0.000604123
0.0610907
0.000466204
0.0415461
0.000444657
0.000458867
0.0680685
0.000445987
0.000466316
0.00369077
0.000472474
0.000530312
0.000432887
0.0424081
0.000504111
0.000454754
0.0493294
0.021033
0.00794428
0.016522
0.000446158
0.000455423
0.000475925
0.00047475
0.00825557
0.0551205
0.000455161
0.000451916
0.000482622
0.0621497
0.000443691
0.00714237
0.000456905
0.000585117
0.0635141
0.000465409
0.000453244
0.000545471
0.0286927
0.00045272
0.000429941
0.0141392
0.000449826
0.00717216
0.00045748
0.000430648
0.000452774
0.000480808
0.00758455
0.000460497
0.00519975
0.0688122
0.0159743
0.022763
0.000458062
0.000443052
0.00052344
0.000471335
0.000473217
0.00044388
0.000459319
0.00785937
0.0707984
0.000684563
0.000456863
0.000451155
0.000457226
0.000473119
0.063429
0.0521405
0.0467181
0.000470181
0.055003
0.0585263
0.000465183
0.000682155
0.000461702
0.000449459
0.000463114
0.0313107
0.00542295
0.0152138
0.000524974
0.00045619
0.000501276
0.000477307
0.000439781
0.000463126
0.020533
0.000506136
0.0115756
0.0090856
0.000450813
0.0244303
0.0709623
0.00048215
0.000451886
0.000444606
0.000592333
0.000454401
0.000443551
0.0211239
0.000392617
0.000459297
0.0370881
0.000464601
0.000450012
0.000463207
0.00046295
0.000572883
0.000849971
0.0201096
0.000457228
0.000498502
0.00838809
0.000490617
0.0605115
0.0120284
0.0427402
0.000400038
0.000474524
0.000440748
0.000445498
0.053885
0.0603508
0.000455043
0.000450008
0.0536558
7.98653e-05
0.000520899
0.0615718
0.000440563
0.0546771
0.000494746
0.000464091
0.0196052
0.00050687
0.0381024
0.00465406
0.0613392
0.0628653
0.0438758
0.000508916
0.000471567
0.0119945
0.0515349
0.000444763
0.0529548
0.0401733
0.000436204
0.0199857
0.0575655
0.000564117
0.00182768
0.000608399
0.0330431
0.000464245
0.00285361
0.000462375
0.0613199
0.000463885
6.67179e-05
0.0483947
0.000458808
0.0468591
0.0495445
0.0354948
0.000581038
0.027003
2.38383e-05
0.035916
0.0312188
0.000405654
0.00650237
0.00228813
0.000677004
0.000526328
0.0390671
0.0543753
0.000476613
0.000475481
0.0662581
0.054767
0.0324694
0.036959
0.000488045
0.000139832
0.000428449
0.000479428
0.0402578
0.000519427
0.0610775
0.0162306
0.00185371
0.0353101
0.000480716
0.0430239
0.0110226
0.000191646
0.00051577
0.0633612
0.0335504
0.042499
0.000486342
0.00048312
0.000134083
0.000471029
0.000428937
0.00681842
0.0441979
0.000736351
0.00439918
0.000428626
0.0387182
0.0536316
0.0606988
0.000448145
0.0553781
0.0541727
0.000479405
0.0634546
0.000489239
0.0645032
0.014615
0.000556425
0.000906891
0.000516809
0.000450831
0.000152987
0.000479475
0.0023753
0.000451867
0.0408346
0.0497962
0.000533907
0.000503948
0.000456347
0.000340954
0.000450355
0.000498596
0.000447808
0.0129195
0.000505566
0.00054739
0.061698
0.000475528
0.0103524
0.000480172
0.0588409
0.0026026
0.000450948
0.000299803
0.000643804
0.0263613
0.000527706
0.000443751
0.00519046
0.0518414
0.000443003
0.0655798
0.0191478
0.000550531
0.000587482
0.0418292
0.0614088
0.000482269
0.0579861
0.0188693
0.0231351
0.000446688
0.000521499
0.0391834
0.0134787
0.000435646
0.0121112
0.00410268
0.000528587
0.0351357
0.0626016
0.00437404
0.000476962
0.000442992
0.000449049
0.00412698
0.0004421
0.000431829
0.0245047
0.000430067
0.0146098
0.000464322
0.00048044
0.000453722
0.000467036
0.000520257
0.0610686
0.000448855
0.0130544
0.000448779
0.000465932
0.0403938
0.0480442
0.000440958
0.000513004
0.00910548
0.000490201
0.000453301
0.000447468
0.000563918
0.0409042
0.0316538
0.000602269
0.000549418
0.000506321
0.000467952
0.000529053
0.0702161
0.0591312
0.000443293
0.0004259
0.000454735
0.0494087
0.000445544
0.00057071
0.0569925
0.067912
0.000589284
0.000497106
0.00067752
0.0567631
0.0565132
0.000447272
0.000429281
0.000455626
0.000480554
0.0492898
0.0111524
0.0011274
0.000505875
0.000455439
0.000524283
0.0532556
0.0591539
0.00045937
0.0177292
0.00046143
0.000448917
0.0434148
0.000511611
0.000447112
0.0552386
0.000651941
0.000479115
0.000442558
0.0497497
0.000466682
0.00148424
0.000513049
0.0460418
0.0157316
0.000548745
0.0333421
0.000442863
0.0377181
0.00045625
0.0520315
0.000482737
0.000703286
0.0571689
0.000430993
0.0591687
0.000476043
0.000439784
0.0719226
0.0616293
0.000449472
0.0030391
0.000705284
0.000442855
0.000444186
0.0472388
0.000460774
0.000444086
0.000477575
0.000551826
0.00057899
0.000456008
0.000487719
0.000458063
0.000461142
0.0480052
0.00735025
0.000462178
0.0204032
0.0432116
0.00642158
0.000437373
0.000545078
0.0651693
0.000446814
0.000429993
0.0514048
0.000443434
0.00053266
0.0400071
0.0450625
0.065477
0.0451816
0.000455675
0.0615892
0.000478992
0.0159865
0.0507441
0.000442266
0.0394654
0.000338346
0.0704886
0.000712978
0.0680044
0.000482646
0.00051671
0.000498347
0.000985402
0.059973
0.000651327
0.0510454
0.063039
0.00046895
0.060509
0.00045504
0.00393029
0.000440772
0.000458998
0.000448934
0.0518806
0.0221074
0.000453315
0.0586404
0.000456925
0.00133566
0.0584159
0.00042968
0.000465192
0.0259447
0.000447057
0.0147783
0.000615743
0.017026
0.000447527
0.000608209
0.000457686
0.000437868
0.0268839
0.000465761
0.000443776
0.000444267
0.000525064
0.0243578
0.000429896
0.000430864
0.000458042
0.000470771
0.0253625
0.0640312
0.0697405
0.029767
0.00597354
0.0667357
0.00240545
0.000477568
0.000449467
0.000679181
0.0452421
0.000485544
0.0559679
0.000465202
0.000535801
0.000461576
0.000443612
0.000483583
0.000535836
0.000563741
0.000481319
0.000535197
0.0584128
0.0236052
0.0576033
0.0410081
0.00134413
0.000452157
0.00705526
0.000447345
0.000430106
0.0311609
0.000548499
0.000599189
0.000540946
0.0521998
0.0563286
0.00043569
0.0508439
0.0427051
0.0479791
0.000429618
0.0285561
0.000446098
0.000569053
0.000451328
0.0640851
0.00046155
0.0188274
0.0621738
0.0136184
0.000443135
0.000448808
0.0529691
0.00991348
0.0667883
0.0039376
0.0589494
0.0267875
0.0657695
0.0188417
0.0629765
0.0661218
0.000470755
0.000451732
0.000448684
0.0483765
0.000449342
0.00426423
0.0215562
0.000453399
0.0407053
0.0368615
0.0617993
0.000445803
0.00044902
0.000446031
0.0579855
0.000531695
0.000443291
0.000455475
0.0689127
0.000456068
0.0477314
0.000297499
0.000462627
0.000552861
0.000451746
0.000446583
0.000449938
0.000510172
0.000478717
0.000478565
0.00987303
0.000442458
0.000434243
0.000428315
0.000499789
0.0532358
0.059172
0.000444286
0.0216616
0.000459104
0.000496464
0.000444091
0.000478135
0.00047328
0.000461225
0.000503521
0.000443651
0.062964
0.000468951
0.0485984
0.0453032
0.000496173
0.0005075
0.000477419
0.0688242
0.0568679
0.000520691
0.00044883
0.0221276
0.0477144
0.000570662
0.000449874
0.000233646
0.0111977
0.000327481
0.00401826
0.000455936
0.000453336
0.000568683
0.00576842
0.000487921
0.0664048
0.0253643
0.039322
0.00658838
0.0315895
0.000506885
0.000465192
0.0289242
0.0551558
0.000447463
0.000450302
0.0214313
0.064905
0.000585429
0.0425956
0.000474243
0.000456073
0.000428306
0.0330035
0.0182541
0.000466198
0.0574299
0.000458611
0.0693397
0.000451314
0.000445519
0.0194202
0.0658621
0.000555469
0.0301226
0.0756237
0.000550708
0.0184252
0.000486415
0.0231126
0.0441328
0.000469858
0.0403764
0.0463776
0.0459279
0.000440231
0.0352469
0.000466757
0.000442998
0.0543427
0.046055
0.00826157
0.00542192
0.0420489
0.000481293
0.000488161
0.0004881
0.000428334
0.000475342
0.000471011
0.0536973
0.0541425
0.000734289
0.0222157
0.00043699
0.030864
0.000483721
0.00105456
0.000489429
0.000461988
0.00043583
0.000448618
0.000435697
0.0643736
0.000448913
0.0699447
0.0421374
0.000562127
0.000491932
0.000440484
0.0717892
0.0256133
0.0191804
0.000456394
0.000447081
0.000446472
0.00868482
0.000471057
0.000703065
0.000507663
0.000448832
0.000435088
0.000450599
0.000442533
0.000444995
0.000465954
0.00417785
0.0112217
0.00382121
0.000448676
0.00060346
0.0413606
0.00058942
0.0553453
0.000450469
0.000458715
0.000459915
0.000455704
0.0395657
0.000476661
0.000376384
0.0567443
0.0734589
0.000463043
0.000446177
0.0703889
0.000454229
0.0526986
0.000450407
0.000448626
0.0387187
0.000444899
0.000432622
0.000617817
0.000601173
0.0108933
0.0633382
0.0622931
0.0648812
0.000465117
0.000490403
0.00050069
0.0222264
0.000813498
0.000447305
0.000452604
0.00063859
0.0532284
0.000433341
0.000451774
0.0660746
0.0567047
0.000564311
0.000454861
0.000430138
0.000450185
0.000453387
0.000463579
0.00043014
0.000456696
0.00045413
0.0545199
0.000431636
0.000543231
0.0597035
0.0227694
0.000490329
0.000454385
0.000449124
0.023297
0.0520517
0.00904398
0.0404682
0.0024306
0.0625584
0.000690307
0.0531203
0.000474849
0.0320053
0.00044677
0.0372714
0.000447434
0.000471393
0.000806169
0.00045125
0.000452919
0.000443922
0.00046685
0.000483347
0.0246306
0.0335851
0.0630542
0.000486313
0.00044378
0.0256839
0.000445052
0.000432849
0.0208041
0.0698325
0.0218016
0.00899067
0.0363452
0.000460975
0.000417618
0.0734393
0.000435825
0.000480126
0.0629267
0.000442912
0.00044969
0.0657858
0.0498301
0.000451849
0.0644517
0.000435757
0.000502607
0.000606657
0.0193786
0.0187664
0.000507223
0.000477092
0.000490124
0.000461938
0.00861664
0.0118832
0.000448332
0.076687
0.00429677
0.000646557
0.000429887
0.000447647
0.0378021
0.000502578
0.000487925
0.0307052
0.0498769
0.000446164
0.059262
0.0686474
0.0579723
0.0140749
0.000548855
0.000436284
0.000428699
0.00045572
0.000471874
0.0453481
0.0559314
0.000518879
0.00057137
0.0112615
0.0597186
0.037035
0.000451555
0.0503046
0.00046019
0.0604744
0.000645196
0.000471027
0.000556437
0.000456113
0.0131158
0.0470999
0.000293931
0.05195
0.0341105
0.0225284
0.0555284
0.000510921
0.000487161
0.000435161
0.0470662
0.00044437
0.061181
0.00045273
0.000454573
0.000452592
0.000486457
0.00578342
0.00045101
0.0240506
0.016576
0.0106649
0.000482611
0.00043433
0.0508877
0.000454702
0.000455339
0.0621783
0.000445412
0.000450106
0.000634304
0.000466587
0.000434962
0.0285354
0.0534908
0.00965454
0.0631801
0.000442665
0.000504653
0.000565952
0.000257812
0.0443669
0.000449962
0.0653022
0.000460644
0.000467469
0.0470787
0.000447905
0.000436343
0.000488165
0.00046322
0.000445395
0.000455869
0.0157353
0.0639086
0.000480476
0.034988
0.0281562
0.000627581
0.000474256
0.000439365
0.000450899
0.00045494
0.0258952
0.000695225
0.0535291
0.0639743
0.0190425
0.000452039
0.00047787
0.015292
0.000478569
0.000472306
0.000455649
0.0423971
0.0188776
0.000455019
0.0477742
0.0306184
0.000476303
0.000475874
0.000449803
0.000617061
0.000431612
0.000562978
0.000477738
0.0389955
0.000487957
0.000459559
0.0333183
0.000455313
0.0365847
0.000497288
0.000461914
0.000493445
0.000460017
0.000509178
0.000445627
0.000482162
0.0743723
0.000448451
0.0511401
0.000485557
0.00047681
0.000677227
0.0685409
0.000443199
0.000430589
0.000564675
0.0429964
0.000454663
0.000606633
0.00743385
0.0728366
0.000524873
0.000517745
0.00571955
0.000438362
0.000455433
0.0290419
0.00971784
0.000949578
0.00045739
0.000502049
0.000482193
0.000499852
0.00712522
0.000460091
0.000450762
0.000497058
0.0617016
0.000443756
0.000444259
0.000463814
0.00047709
0.0031687
0.000438226
0.0211447
0.00051229
0.0570656
0.0548129
0.000500515
0.0586451
0.000463494
0.0701274
0.0051467
0.022096
0.000465294
0.042692
0.000490059
0.000609945
0.000485375
0.000472748
0.0612191
0.000454422
0.000510388
0.000487662
0.000529288
0.000434598
0.0575947
0.0625366
0.0349517
0.0409786
0.000455255
0.0551835
0.000438982
0.000451297
0.00051858
0.000456068
0.00172166
0.0670866
0.000445397
0.0595029
0.0004539
0.0704063
0.0439
0.0368677
0.000453303
0.000451646
0.000544625
0.000433031
0.000489061
0.00044857
0.0634744
0.000475238
0.0744933
0.000584057
0.000483283
0.0246701
0.000471171
0.0535098
0.000457432
0.000563356
0.0137093
0.0593357
0.000476943
0.0511897
0.0250517
0.0515648
0.0490757
0.00044885
0.0636663
0.000446468
0.00756475
0.000458168
0.000449513
0.000445452
0.00972301
0.0624458
0.0227676
0.0172851
0.0500358
0.0645276
0.000445159
0.016612
0.000502591
0.00045933
0.0532417
0.0533997
0.000430343
0.0460253
0.000622737
0.000448415
0.0481617
0.000455572
0.000448737
0.0469183
0.000453887
0.000523825
0.0639598
0.000561543
0.046696
0.000452507
0.000428385
0.000461703
0.0606529
0.000502636
0.000527139
0.000540289
0.000440353
0.000434733
0.000495095
0.0154481
0.000433769
0.045431
0.000453801
0.00068717
0.0570433
0.000467802
0.0633841
0.000429816
0.000471722
0.0558989
0.000452843
0.000453465
0.0639017
0.0426575
0.0664687
0.000476048
0.0263743
0.000460088
0.0714641
0.000903618
0.000503869
0.0301102
0.00068193
0.0212175
0.0545877
0.000435481
0.000606695
0.000514784
0.000510423
0.000482524
0.00314388
0.000451148
0.000452584
0.00045387
0.000457235
0.000455563
0.000448498
0.000444879
0.000468358
0.0305188
0.000485104
0.000444042
0.0350085
0.000486914
0.0229409
0.0279255
0.00978995
0.000452603
0.0593718
0.000466183
0.0578131
0.000465686
0.0609745
0.0244542
0.0379858
0.0173492
0.000453957
0.000450985
0.000439468
0.000460882
0.000480495
0.0418352
0.000450021
0.00046041
0.0261894
0.0475888
0.000615173
0.0110073
0.044459
0.000653756
0.000453188
0.000438826
0.0333047
0.000459231
0.000498829
0.0615557
0.00048831
0.000446433
0.000458268
0.000443327
0.000730619
0.0524728
0.04853
0.000493495
0.000464471
0.00043362
0.00045126
0.000455481
0.0607207
0.00048277
0.000434278
0.000458877
0.0237256
0.0529542
0.000452745
0.000445819
0.000484557
0.0304581
0.000445587
0.000479805
0.000530442
0.0679376
0.0222612
0.0636332
0.000527754
0.0285518
0.000498688
0.0450798
0.000486008
0.0546099
0.000451453
0.0578123
0.0469655
0.058409
0.000456386
0.0197574
0.000469176
0.0655954
0.0523992
0.0640073
0.0545388
0.0636887
0.000498028
0.000530781
0.0163547
0.000426906
0.00428664
0.000576002
0.0491229
0.0594383
0.0641427
0.0148938
0.0216916
0.00045088
0.0624515
0.000609625
0.00381294
0.000439759
0.000745135
0.0498124
0.000727093
0.0601866
0.000517005
0.0272521
0.0004967
0.016154
0.0695067
0.000467667
0.0608282
0.00271895
0.000457115
0.0277332
0.000483336
5.25372e-05
0.000504194
0.000474132
0.0101881
0.0629904
0.000447247
0.0609299
0.000441007
0.000445522
0.0583497
0.0608335
0.00147088
0.0428337
0.000446645
0.000450693
0.0191348
0.000436075
0.0635795
0.0451213
0.0606105
0.0593377
0.000447419
0.000536759
0.000441819
0.0257267
0.0281392
0.0199919
0.000518728
0.000436017
0.0179649
0.00086338
0.000501872
0.0018997
0.000451363
0.0484687
0.00043999
0.000459085
0.000511996
0.000434169
0.000463748
0.000463382
0.0204795
0.0563828
0.000435186
0.00043145
0.0555605
0.0644259
0.000652952
0.000478317
0.0420078
0.000433066
0.0532606
0.0692167
0.0616334
0.000449302
0.000455792
0.0625216
0.048544
0.000524238
0.000447648
0.0300039
0.000432793
0.0302238
0.0248863
0.000443784
0.0697681
0.0232094
0.000512589
0.000549912
0.000472896
0.000468774
0.0340849
0.000500844
0.00059114
0.000449496
0.000453075
0.00118703
0.00043456
0.000608974
0.0446176
0.000455726
0.0442945
0.0310243
0.000450469
0.0482408
0.000690982
0.00044551
0.0557676
0.0413248
0.0587935
0.000454762
0.0573266
0.000441534
0.000428415
0.0311012
0.0624684
0.0657611
0.00043576
0.0209795
0.000449013
0.000456007
0.000451713
0.0574513
0.0240026
0.0249744
0.000509301
0.000494277
0.000503326
0.0149236
0.0628719
0.0301969
0.0726438
0.000442221
0.000456337
0.000451942
0.000573277
0.000476022
0.000568233
0.0670436
0.000451495
0.0276161
0.0606578
0.000429722
0.030348
0.000449489
0.00053116
0.0565328
0.00634699
0.000444796
0.000445884
0.000310202
0.000861257
0.0546439
0.00197466
0.0544648
0.000634954
0.0574858
0.00811603
0.000469906
0.000463599
0.0528958
0.000749734
0.000452737
0.000501412
0.0186934
0.0163924
0.000432692
0.0628085
0.000446358
0.000437566
0.0183355
0.000466586
0.0634851
0.0586534
0.000571335
0.0415999
0.0464422
0.00045858
0.0528642
0.0246866
0.000518729
0.000489674
0.000492488
0.000449848
0.0696136
0.000436079
0.068162
0.000510244
0.00514247
0.0141179
0.000449597
0.0712699
0.000484612
0.000606084
0.00226283
0.0210711
0.00055821
0.000437214
0.0672592
0.000439067
0.0517881
0.0204339
0.000698907
0.000685985
0.000433104
0.0689791
0.000448406
0.000508254
0.000473153
0.000249058
0.000451109
0.0207458
0.000449782
0.0161331
0.000453736
0.0544522
0.0276672
0.000513375
0.000475013
0.000529266
0.0590941
0.0586944
0.000435655
0.0691699
0.000816311
0.000452988
0.0266652
0.000445245
0.000480373
0.053051
0.00566866
0.000684379
0.000447518
0.00969927
0.0736285
0.00247104
0.000461634
0.000437007
0.0458086
0.0153839
0.000498864
0.0275664
0.000473303
0.0556899
0.000469217
0.000447752
0.00519583
0.0461478
0.000530995
0.000530536
0.000435707
0.000497163
0.000458934
0.000530218
0.0396107
0.0426169
0.00049373
0.000432259
0.0576909
0.000453055
0.000514168
0.000448278
0.0199054
0.04017
0.0469608
0.000485804
0.000434726
0.000455088
0.0508553
0.0689652
0.0598944
0.00058587
0.0555915
0.000518547
0.0525594
0.000504323
0.000707791
0.000446094
0.000446916
0.000447989
0.0527752
0.000447603
0.000471198
0.0358451
0.0455909
0.0671495
0.0284531
0.000450122
0.0208777
0.00048907
0.0519874
0.000450134
0.022308
0.000432721
0.000446908
0.0187571
0.0273964
0.000454203
0.000452655
0.000445844
0.0319042
0.000523533
0.017144
0.000746402
0.0534835
0.0519715
0.0523688
0.0414373
0.000449406
0.0583262
0.00121594
0.000517703
0.000445682
0.000461848
0.000443805
0.000453117
0.000450734
0.000442228
0.00045663
0.000453076
0.000491979
0.041623
0.0438335
0.043124
0.000453983
0.000448649
0.0120304
0.000449687
0.0448386
0.000450374
0.000486308
0.0445884
0.0610041
0.000499758
0.000229478
0.000316125
0.000436512
0.00108433
0.000552723
0.0508716
0.0498968
0.00328938
0.000469872
0.059904
0.000458472
0.000448556
0.000547473
0.000438931
0.000492516
0.000457762
0.0501548
0.00044398
0.000434742
0.048552
0.000446317
0.000493747
0.0564022
0.000434705
0.0138091
0.000441577
0.000449296
0.000447138
0.0295098
0.000450781
0.0692686
0.0593755
0.000450206
0.000519388
0.000475711
0.057429
0.0621524
0.000443992
0.000445931
0.000441318
0.000439047
0.000441414
0.000445562
0.000429987
0.000515292
0.000450147
0.0592678
0.0412176
0.000583908
0.000454861
0.000483488
0.000475105
0.0176596
0.0108825
0.0371338
0.0207709
0.000445463
0.0548497
0.0590065
0.000447554
0.00874167
0.0274284
0.000446845
0.000438338
0.0698518
0.000462412
0.000438485
0.000593775
0.0730384
0.0640101
0.0251664
0.00283396
0.000516437
0.0223912
0.0515323
0.000476791
0.000470068
0.000468452
0.000442964
0.000528365
0.023868
0.000448291
0.0093393
0.0667245
0.0708741
0.0629789
0.000453935
0.07282
0.000454943
0.0477255
0.0421769
0.000450342
0.000444033
0.0643531
0.000496976
0.0309622
0.000453977
0.0518597
0.00364055
0.0487196
0.000453805
0.05579
0.0583585
0.0314641
0.000482623
0.00302405
0.0179262
0.0659405
0.0693013
0.0004934
0.0560739
0.0539588
0.0344751
0.0650617
0.0500309
0.0480831
0.0573661
0.0294492
0.0632107
0.0200117
0.000476168
0.0505147
0.0688212
0.0206521
0.000603918
0.000439642
0.0458398
0.00050706
0.0634556
0.0478328
0.0662372
0.0216899
0.0735784
0.000451676
0.000444129
0.0631362
0.0733967
0.0542783
0.000466584
0.016749
0.00045562
0.028
0.0267612
0.0351584
0.0311235
0.000450125
0.0576947
0.000490378
0.0709944
0.000477039
0.000437612
0.052813
0.000482112
0.00146834
0.0266116
0.0271302
0.0345679
0.000452503
0.000447445
0.0602412
0.0583042
0.000446763
0.0608996
0.0387859
0.000471632
0.0643606
0.000443597
0.000458014
0.000657337
0.0194557
0.000435381
0.0363941
0.000455411
0.000432352
0.072676
0.054501
0.000433186
0.0382778
0.0738215
0.0709025
0.0587229
0.000458503
0.0298741
0.000432656
0.000539932
0.0474859
0.000456015
0.0312463
0.000481989
0.0615856
0.000516946
0.03636
0.057938
0.0621335
0.0197943
0.000806963
0.0296449
0.052621
0.000752156
0.0437644
0.000466258
0.0522109
0.0622041
0.0715125
0.000445885
0.000434442
0.000446956
0.0518771
0.000818433
0.000454654
0.0431424
0.0500583
0.0641076
0.0226628
0.000760751
0.000647918
0.030512
0.000431997
0.00497901
0.0509865
0.000475583
0.069163
0.00044031
0.000452295
0.000474339
0.0612075
0.0597646
0.000444116
0.000469798
0.000433016
0.0528733
0.0455628
0.0364393
0.0116229
0.068626
0.074634
0.000474668
0.0294795
0.0154751
0.000473406
0.000472945
0.000442634
0.000468593
0.000444957
0.0732134
0.0566871
0.0345427
0.000441917
0.000476813
0.000435729
0.000198166
0.00118835
0.0468017
0.0606086
0.0190485
0.000681522
0.000474076
0.000439931
0.000459111
0.0170802
0.0489074
0.000435066
0.000552893
0.000512364
0.0573601
0.0230371
0.0645613
0.0019813
0.000463078
0.0614459
0.000455106
0.0493007
0.0478818
0.000446481
0.00054162
0.0518653
0.0599249
0.000537749
0.0645325
0.0123425
0.000476127
0.0553606
0.000437465
0.000434263
0.0629709
0.0590119
0.0454901
0.000496433
0.0408037
0.00948041
0.051668
0.0493699
0.000480806
0.0518012
0.000578455
0.000514251
0.0540076
0.000439576
0.0185975
0.000530804
0.0382957
0.0560992
0.0427217
0.000434647
0.000569314
0.0480872
0.0548077
0.0424928
0.073644
0.0457136
0.000448949
0.0598563
0.000915658
0.000455101
0.000448699
0.000713927
0.000761273
0.0473164
0.000450372
0.000593276
0.0200216
0.000440787
0.0364058
0.000452512
0.0516935
0.000466718
0.00045646
0.0212193
0.000449907
0.0239764
0.000451214
0.000455522
0.0624547
0.00045293
0.000458828
0.000432669
0.0563075
0.0248256
0.000500664
0.0165539
0.0489564
0.0504209
0.000506539
0.000438599
0.0542038
0.000463311
0.0254027
0.000449051
0.018766
0.0585304
0.000470526
0.000496248
0.0287187
0.00047613
0.000459807
0.0576358
0.0457107
0.000523131
0.0588434
0.000505171
0.0575653
0.0495132
0.000437367
0.000442724
0.000448204
0.0675538
0.0134416
0.060087
0.02903
0.0635927
0.0565068
0.0474399
0.0719792
0.000450468
0.0601428
0.0574509
0.000446978
0.000386061
0.000981984
0.000457983
0.000562284
0.0643668
0.0614525
0.0538305
0.000472339
0.00052267
0.00525936
0.0608632
0.000696043
0.000499083
0.00224516
0.0524237
0.0312819
0.0488384
0.0296763
0.019479
0.0643125
0.000443139
0.0582723
0.000472133
0.000469507
0.0609536
0.00044965
0.000442057
0.0607741
0.000455012
0.000492858
0.0623308
0.00047191
0.000451686
0.0554296
0.0463944
0.0497763
0.000477384
0.0489809
0.000448772
0.000492918
0.0469339
0.0638257
0.0541717
0.000450228
0.0215994
0.000458422
0.0238041
0.000448262
0.000425139
0.000455674
0.068388
0.000453644
0.000573398
0.0633322
0.000455482
0.0428434
0.0415145
0.0511805
5.05058e-05
0.000451837
0.000454844
0.0269603
0.0145632
0.000450875
0.05073
0.0216009
0.0558491
0.0164439
0.000529195
0.0089004
0.0505586
0.0277681
0.000844612
0.0646739
0.000438719
0.0273077
0.000451286
0.034382
0.000542871
0.0663898
0.0576743
0.0479306
0.0593457
0.0276458
0.000480883
0.00103063
0.000469784
0.0420015
0.000445116
0.0558379
0.000510658
0.0476903
0.000665499
0.011107
0.0518177
0.000497223
0.0596528
0.000455089
0.0619375
0.000480581
0.000544014
0.0301272
0.000474909
0.0367175
0.0216576
0.0604637
0.0447517
0.0375427
0.0615768
0.0653515
0.0562456
0.000451893
0.000455247
0.0185331
0.000452004
0.000445444
0.00756124
0.0663973
0.0598163
0.000452113
0.0548299
0.0013495
0.000682147
0.0503495
0.066313
0.000451883
0.0489114
0.000752702
0.0579118
0.000488237
0.0465465
0.0708739
0.00103927
0.0442061
0.000448651
0.063946
0.050607
0.0518706
0.00991382
0.0273445
0.0523463
0.0208858
0.0482814
0.000474403
0.0566027
0.000491803
0.00520788
0.000455348
0.0419841
0.0257574
0.000469266
0.000445962
0.0191836
0.000468319
0.000438321
0.000643772
0.0507744
0.000449818
0.0581139
0.057911
0.0535372
0.0616019
0.0322773
0.0582181
0.00744254
0.0729144
0.0573836
0.000449782
0.0464497
0.0319247
0.000485682
0.0490986
0.0532006
0.000443255
0.0110795
0.000590036
0.000460867
0.000444883
0.0256015
0.0693605
0.000509837
0.0487622
0.0266061
0.00290921
0.0577783
0.0278256
0.0306227
0.0608195
0.000536282
0.0551689
0.000451915
0.0473068
0.000444418
0.0637843
0.000454956
0.0606952
0.00354536
0.000444383
0.0693148
0.063632
0.0492387
0.0461321
0.000520842
0.067353
0.0266929
0.000435479
0.0257911
0.0575352
0.000454984
0.026535
0.000452297
0.0577253
0.000487912
0.000504332
0.000435678
0.0492156
0.0467609
0.0394431
0.0369092
0.000697704
0.0145137
0.0617382
0.000446313
0.000453955
0.0507334
0.0556638
0.000442069
0.0332782
0.0631078
0.0585143
0.0463472
0.059882
0.0275078
0.000498077
0.0461392
0.000469329
0.0554491
0.000444866
0.000462816
0.0588116
0.0652167
0.000120876
0.00830968
0.000482811
0.000434235
0.000432432
0.000455517
0.0200928
0.0658156
0.000447027
0.0324502
0.0128818
0.000491621
0.0328177
0.0471984
0.000435098
0.000389548
0.00045305
0.0502194
0.000485491
0.000498381
0.000442232
0.000457461
0.000917924
0.000434111
0.000816991
0.0522558
0.0263142
0.000485634
0.000502959
0.0474415
0.0572065
0.0263854
0.000465399
0.0131523
0.0562583
0.000429037
0.0540215
0.0633321
0.0504398
0.000744866
0.0214309
0.0491992
0.0260613
0.000608782
0.000696529
0.0446556
0.0261481
0.0442503
0.018255
0.0118381
0.0652829
0.0012145
0.0507455
0.000453954
0.071831
0.0230975
0.0524045
0.0627396
0.0652726
0.000443583
0.0625451
0.00047637
0.000448445
0.00123887
0.000501696
0.000461546
0.000467664
0.0213631
0.0452985
0.0730715
0.0731894
0.0645258
0.000227727
0.0262936
0.03945
0.0888783
0.000441402
0.0638828
0.000489029
0.0645949
0.0507993
0.0498821
0.0101536
0.0651803
0.073401
0.0210077
0.000529285
0.0477674
0.00394031
0.0414134
0.000960326
0.0452502
0.0188927
0.048625
0.0232002
0.0417035
0.0676009
0.0558768
0.000811051
0.0564931
0.000488129
0.0242319
0.000452756
0.060749
0.0544956
0.0448095
0.000758728
0.00051912
0.0257954
0.0695155
0.000764119
0.0205393
0.000512837
0.000433196
0.0292343
0.00048127
0.000450371
0.0552773
0.000525322
0.000464471
0.0670729
0.0550348
0.0473507
0.000430964
0.0668366
0.0249617
0.000511118
0.000298706
0.000451222
0.000471003
0.000492834
0.000567381
0.000498014
0.000469288
0.0677544
0.033567
0.0400896
0.0703126
0.0147509
0.000687137
0.0451438
0.000680841
0.027004
0.000442905
0.00614075
0.00051497
0.0259412
0.00834079
0.000477674
0.0499008
0.000527096
0.0059221
0.0557163
0.00044287
0.0114798
0.0551298
0.000803062
0.0566559
0.0577812
0.000753249
0.000629434
0.00114106
0.000709189
0.000467432
0.000738685
0.0705934
0.0345326
0.06162
0.0538202
0.000841633
0.000973174
0.0263176
0.061697
0.0222654
0.000969591
0.000505984
0.0536561
0.000477799
0.0547201
0.062021
0.0157478
0.0186106
0.000469691
0.0101741
0.0671412
0.00046519
0.0146408
0.0559355
0.0592652
0.000680926
0.000436848
0.02545
0.0684639
0.000485986
0.000454399
0.0198043
0.000452529
0.000536429
0.000516657
0.000697941
0.0632241
0.00650479
0.0581013
0.000371949
0.0521296
0.0652274
0.0010816
0.0349356
0.000476441
0.00912249
0.0481684
0.000492377
0.000500446
0.000495296
0.000927866
0.000585036
0.000446169
0.00103929
0.0516267
0.0458421
0.000567872
0.000535731
0.05208
0.0548576
0.0272531
0.0679454
0.0607396
0.033105
0.000432525
0.00054607
0.0248395
0.000448903
0.0203659
0.0538608
0.000554659
0.000512532
0.0520543
0.0581621
0.000455095
0.0584075
0.000439148
0.000485981
0.0346098
0.0194102
0.000543986
0.0005077
0.000603996
0.0732802
0.0479218
0.0664788
0.0369317
0.0482079
0.00045196
0.0005458
0.0483787
0.0264742
0.0579625
0.0234694
0.000471359
0.0605679
0.000627167
0.0383404
0.0675753
0.000454984
0.000526689
0.00050045
0.0669034
0.0479429
0.0597874
0.00044302
0.000700048
0.0107251
0.048635
0.0646687
0.000555098
0.000437346
0.000643263
0.05674
0.0642751
0.000508813
0.0540353
0.0698877
0.0216358
0.000431014
0.0625396
0.0747461
0.000442438
0.0721767
0.000982355
0.0206157
0.000475476
0.000484577
0.000454503
0.0642575
0.0683827
0.0669911
0.0146033
0.000483053
0.0106357
0.000453684
0.0171502
0.00581542
0.0684374
0.00140081
0.000452872
0.000447604
0.00103639
0.00049166
0.000488488
0.000513476
0.000432776
0.0284003
0.000442002
0.0421727
0.000514675
0.000449442
0.0371221
0.000442542
0.000431765
0.0454054
0.000456141
0.000562831
0.000448332
0.0576817
0.0422227
0.0672608
0.000431568
0.000446331
0.0581204
0.0715536
0.051874
0.0626093
0.0324182
0.0244549
0.000490346
0.000449078
0.0437808
0.0374678
0.000699245
0.073108
0.000497925
0.000498526
0.000477102
0.000496338
0.0626339
0.000448448
0.000452533
0.014361
0.000455436
0.0566671
0.000458154
0.0128183
0.00139082
0.000453147
0.000448748
0.0557401
0.0366653
0.000473878
0.0202782
0.00048122
0.000432434
0.0191084
0.028567
0.000448483
0.0240747
0.0621614
0.00048916
0.000481908
0.029747
0.0188874
0.000643431
0.000451009
0.000731725
0.000446164
0.0618383
0.073344
0.000439872
0.000493561
0.000516487
0.0289388
0.0569186
0.00045876
0.0626582
0.00112733
0.000448001
0.000760776
0.000451857
0.0667252
0.0111616
0.000449972
0.0458949
0.0494971
0.000761514
0.0323761
0.0571203
0.000501516
0.0300562
0.00166959
0.000449467
0.066392
0.000485306
0.000661963
0.000530583
0.0162308
0.000758983
0.0265546
0.030444
0.000448005
0.000431592
0.000442319
0.0185348
0.000465767
0.000518049
0.00044856
0.000466322
0.00044587
0.0562181
0.000605174
0.0508768
0.0548542
0.0734473
0.0720013
0.0730775
0.000489472
0.0212882
0.00148023
0.000485389
0.0611167
0.000501621
0.0582246
0.053635
0.000625218
0.000537142
0.00265516
0.0486721
0.000449455
0.0651066
0.000525111
0.000750867
0.0581013
0.000444709
0.0733657
0.010857
0.0727753
0.000462285
0.000461616
0.000464623
0.000454929
0.000452391
0.0360673