/*--------------------------------*- C++ -*----------------------------------*\
| =========                 |                                                 |
| \\      /  F ield         | OpenFOAM: The Open Source CFD Toolbox           |
|  \\    /   O peration     | Version:  v2012                                 |
|   \\  /    A nd           | Website:  www.openfoam.com                      |
|    \\/     M anipulation  |                                                 |
\*---------------------------------------------------------------------------*/
FoamFile
{
    version     2.0;
    format      ascii;
    class       volVectorField;
    location    "150";
    object      U;
}
// * * * * * * * * * * * * * * * * * * * * * * * * * * * * * * * * * * * * * //

dimensions      [0 1 -1 0 0 0 0];


internalField   nonuniform List<vector> 
13308
(
(1.01204 -0.0189045 0)
(-0.237972 0.0240142 4.73266e-20)
(-0.1824 -0.0176315 -2.56421e-20)
(0.991921 -0.000153025 -9.1908e-22)
(1.1899 0.0431352 -1.39233e-20)
(0.995673 -0.000471434 -1.6803e-22)
(1.20225 0.121078 -9.85892e-20)
(1.11418 0.018629 0)
(1.21399 0.0988232 0)
(0.263984 0.145763 -3.42454e-20)
(0.675741 -0.256498 0)
(0.808328 -0.319024 -1.47107e-20)
(0.995676 -0.000505336 0)
(1.03993 0.00400376 0)
(0.995593 -0.000324684 0)
(-0.18843 -0.0226328 0)
(0.999538 0.00555002 -5.24666e-23)
(-0.237802 0.0232472 2.30665e-20)
(0.855789 0.213498 -1.1674e-20)
(0.901344 0.20522 3.61863e-20)
(1.03887 0.0436171 7.97654e-23)
(-0.123162 -0.013932 2.67715e-20)
(0.178716 0.0242099 7.32686e-20)
(1.15833 0.0490355 5.57941e-20)
(-0.190788 -0.0237559 0)
(-0.0356968 0.00512762 -5.94511e-20)
(1.18573 0.0725314 -2.94916e-20)
(0.685587 -0.267182 -3.67346e-22)
(1.18892 0.0704932 -3.09918e-20)
(1.15465 0.133401 0)
(-0.24557 0.0090326 6.96351e-20)
(1.15562 0.118075 0)
(0.122098 0.0195986 0)
(1.21791 0.0640268 0)
(0.612874 0.102972 1.04705e-20)
(1.00148 0.00565002 -2.66911e-21)
(1.20312 0.116387 8.1101e-20)
(0.21677 0.0288643 -2.97423e-20)
(1.10457 0.0518833 1.65605e-22)
(-0.189777 -0.0208113 1.40319e-20)
(1.05319 0.00142399 0)
(1.11315 0.00179049 1.92493e-20)
(0.448052 0.123054 2.62185e-21)
(1.03005 0.0130075 -1.03591e-20)
(1.09908 0.056162 0)
(1.23557 0.0960012 0)
(0.99552 -0.000240436 2.57897e-24)
(0.994633 -4.93291e-05 3.14684e-23)
(1.02419 -0.0131416 7.65355e-22)
(-0.187538 -0.0175451 2.61326e-20)
(1.03136 0.00206145 1.16476e-21)
(1.04421 0.0363861 0)
(-0.18488 -0.0285232 1.32166e-19)
(0.810009 0.330282 5.03107e-21)
(-0.205161 -0.0319902 -1.34315e-19)
(-0.220937 -0.0307786 -2.59287e-20)
(1.02948 0.0119499 -4.68792e-21)
(1.04242 0.0362301 -6.26392e-21)
(1.134 0.0557813 2.35313e-20)
(1.12983 0.0546802 0)
(0.893459 0.36584 4.27853e-21)
(0.237835 0.0348037 -9.07252e-20)
(1.0428 0.0359805 9.87371e-21)
(1.06703 0.00549258 0)
(1.00493 0.00134928 -8.00824e-22)
(0.103343 0.0175403 -1.72217e-20)
(1.01564 0.00487112 -2.52452e-21)
(1.20127 0.099465 0)
(0.992911 7.973e-06 -1.96553e-21)
(1.14276 0.218081 0)
(-0.222694 -0.0336367 0)
(1.10165 0.0521638 1.40388e-20)
(1.0087 -0.0129457 -5.63048e-22)
(1.15664 0.123231 1.68528e-20)
(0.966819 0.103405 -1.06495e-19)
(1.02845 0.0293834 -4.00997e-21)
(0.998903 -0.00159814 0)
(-0.225482 -0.0326669 1.47666e-20)
(1.04037 0.0255204 -6.42049e-21)
(0.984444 -0.0392815 8.92787e-22)
(1.06211 0.0447085 7.20645e-21)
(1.00138 -0.00190039 0)
(1.02724 0.0286633 1.95958e-21)
(1.1477 0.0529146 0)
(1.20431 0.132752 0)
(1.11615 0.0171565 0)
(-0.19442 -0.0307134 9.8801e-21)
(0.101029 -0.00660492 1.67514e-20)
(1.05059 0.154598 2.08813e-21)
(0.993432 0.225241 -3.70609e-20)
(1.09398 0.030688 -3.95322e-20)
(1.0152 0.00701916 0)
(1.18387 0.0792766 2.49969e-20)
(1.03744 0.0459968 2.5878e-22)
(1.03424 0.00264725 9.52431e-21)
(1.01239 0.00242915 -1.86136e-21)
(1.11627 0.00150099 4.36788e-22)
(0.990525 -0.0414262 -2.6275e-21)
(-0.164796 -0.0309586 -1.12518e-20)
(1.13582 0.209199 0)
(1.09124 0.0299026 3.53287e-22)
(1.05434 0.000399767 1.21499e-20)
(1.00878 0.00242804 1.08563e-21)
(1.03778 0.047695 0)
(0.687798 -0.117644 6.75791e-21)
(-0.243968 0.0143961 1.28438e-22)
(-0.175999 -0.016159 2.53935e-20)
(0.991052 -1.81339e-05 1.71963e-21)
(-0.112637 -0.00401122 0)
(-0.0142683 0.00826928 6.13784e-20)
(1.13559 0.0116951 -2.60176e-20)
(1.25423 0.0263702 -2.07214e-20)
(1.03389 0.0135344 1.01194e-21)
(1.03962 0.0242735 6.06668e-21)
(1.036 0.0116324 -1.14796e-21)
(0.874364 0.188243 1.54291e-20)
(1.22868 0.0933958 -8.675e-20)
(0.677298 -0.157377 9.23391e-21)
(1.18737 0.0770293 8.23065e-20)
(1.03864 0.0348066 0)
(1.17673 0.0578116 -2.29231e-20)
(1.02987 0.0499526 0)
(1.00112 0.00355234 1.61664e-21)
(0.991396 0.0109272 -3.81965e-22)
(0.857166 -0.0860628 9.20253e-22)
(1.0555 0.159385 0)
(1.1586 0.143491 1.09785e-19)
(1.19408 0.141479 -9.94556e-20)
(1.00916 -0.0154239 2.16163e-22)
(-0.202209 -0.0278094 0)
(-0.162902 -0.0232905 0)
(1.05823 0.0420972 4.20491e-23)
(1.06855 0.00579925 -1.51648e-20)
(1.01393 0.00228082 9.47967e-22)
(1.21496 0.0900584 -9.69506e-21)
(0.992194 0.00918453 -6.32998e-21)
(1.01741 0.00703147 0)
(0.866591 -0.0685682 0)
(1.04263 -0.0293581 0)
(1.11729 -0.000480365 2.07309e-20)
(-0.201885 -0.0199043 9.1801e-21)
(1.13344 0.010503 0)
(1.05771 0.0118418 0)
(1.03368 0.0179228 0)
(1.11838 0.0305917 4.2754e-20)
(0.991974 0.073462 -2.67819e-21)
(0.997542 -0.026553 0)
(1.0154 0.237347 -5.95923e-20)
(1.06315 0.043434 -1.42115e-20)
(1.07019 0.0348963 8.548e-22)
(-0.198109 -0.0305879 -2.18667e-19)
(1.0102 0.00148994 0)
(0.222069 0.0784315 6.60479e-20)
(0.913846 0.344001 8.20638e-21)
(0.694876 0.0747445 0)
(1.05822 -0.0163828 -4.61863e-21)
(0.992046 0.000100379 9.9724e-22)
(1.00194 0.00516382 -1.80572e-21)
(1.05358 0.00129222 0)
(0.8186 -0.111595 0)
(0.229108 0.118832 4.50052e-20)
(1.04384 0.0367469 5.8243e-21)
(1.05631 0.0113167 -5.31453e-21)
(0.281956 0.0392318 8.22541e-20)
(1.068 -0.0141466 4.63228e-21)
(1.06999 0.0839862 0)
(-0.129195 -0.0154545 5.63319e-20)
(1.00149 0.00487199 -4.60299e-23)
(-0.119964 -0.00511781 -3.84262e-20)
(1.18607 0.0277053 4.56484e-20)
(1.13465 0.00703439 7.3348e-20)
(0.730966 -0.221949 -3.26301e-20)
(1.00866 0.00110237 -1.65627e-21)
(-0.196743 -0.0195592 -1.48164e-20)
(-0.205237 -0.0323131 2.66546e-23)
(-0.0790246 -0.00684921 -7.45676e-20)
(-0.108593 -0.0115516 8.42741e-20)
(-0.183986 -0.0170678 1.31258e-20)
(1.0765 0.0363285 -6.60388e-22)
(0.993106 0.000255078 1.44754e-21)
(0.809396 -0.270449 -5.19526e-21)
(-0.183585 -0.0229809 -2.40714e-21)
(1.01361 0.00430628 2.17272e-21)
(0.31258 0.162146 1.09266e-21)
(0.63556 0.0623399 0)
(0.998102 0.000782226 8.70501e-22)
(-0.21942 -0.0291885 2.4192e-20)
(-0.240265 0.00633919 0)
(1.1605 0.135299 0)
(0.873756 0.141152 0)
(0.887703 0.158725 0)
(0.847436 0.202338 0)
(1.11909 0.0327521 -1.86366e-20)
(0.798983 -0.297162 -1.77258e-20)
(1.12057 0.0242927 -4.11095e-20)
(-0.0688991 -0.00554376 6.28124e-20)
(1.13244 0.00571209 -5.45959e-20)
(0.999004 -0.0214254 1.01276e-21)
(0.658134 0.103613 1.03166e-19)
(1.1125 0.00360186 2.37656e-20)
(-0.181039 -0.0220761 -2.18398e-20)
(-0.184164 -0.0275094 -1.89433e-19)
(0.589685 -0.255508 -2.70428e-21)
(1.21269 0.0859615 2.49025e-21)
(-0.201314 -0.0274574 0)
(1.25773 0.0827822 -4.02601e-20)
(-0.197031 -0.0238666 1.65262e-20)
(0.923014 0.0959857 9.74821e-20)
(0.855662 0.163748 -3.72374e-21)
(-0.20673 -0.0320954 7.29988e-20)
(0.827942 0.156706 4.78162e-21)
(1.01664 0.189354 8.21737e-21)
(1.21455 0.0214555 1.16321e-20)
(-0.19741 -0.0184759 2.75196e-20)
(0.114619 0.0281312 1.08466e-19)
(1.02009 0.0462002 0)
(0.991048 6.07395e-05 -1.33535e-21)
(0.153275 0.0122836 3.57255e-20)
(0.845365 -0.0959073 1.05261e-20)
(0.913231 0.102447 7.40716e-20)
(0.699431 -0.264611 -1.1617e-21)
(1.01317 0.00208164 -4.34957e-21)
(1.06617 -0.00230427 0)
(1.00051 -0.00194673 -9.82578e-23)
(1.02862 0.0525004 0)
(-0.192804 -0.0292112 -6.20489e-20)
(1.01544 0.0620758 0)
(0.740594 -0.105634 -1.23403e-20)
(-0.223515 -0.0314107 1.07869e-22)
(1.2582 0.0801747 4.13368e-20)
(-0.198715 -0.0227762 -1.54047e-20)
(1.00991 0.0426889 8.82879e-23)
(-0.186212 -0.0181515 -6.30383e-21)
(1.16873 0.135152 0)
(1.01516 -0.0252427 0)
(1.21125 0.0137266 -5.50409e-20)
(-0.175653 0.00322337 0)
(0.804156 0.0226234 0)
(0.702624 0.0726043 -4.96953e-20)
(1.00727 0.0438834 -1.44332e-21)
(1.14904 0.0563807 0)
(1.01387 -0.0278794 0)
(1.03977 0.0453252 7.95907e-22)
(1.00014 -0.000912526 3.75739e-23)
(0.837063 -0.261774 1.08114e-21)
(0.620554 0.0635354 -1.56495e-20)
(1.01466 0.200318 -1.15809e-20)
(1.18448 0.216295 6.7772e-20)
(1.00109 -0.00208087 0)
(0.672931 0.0636243 7.20436e-21)
(0.130543 0.0293078 -1.07497e-19)
(0.124609 0.0202173 -4.56842e-20)
(1.05487 0.000771219 -3.86825e-21)
(0.213949 0.0329783 2.76039e-21)
(0.532188 0.0858733 1.01275e-19)
(1.01852 0.0479785 -6.79067e-22)
(0.186388 0.0531323 -2.43389e-20)
(1.01337 0.00212783 2.68085e-21)
(0.299924 0.359397 0)
(-0.22288 -0.0318868 5.61912e-20)
(1.1511 0.135831 0)
(1.20846 0.217739 0)
(1.21123 0.0159206 0)
(1.01193 0.0144339 -7.37661e-22)
(1.07252 0.000752358 3.44147e-21)
(1.05445 0.0425964 5.74091e-23)
(0.812702 -0.273864 1.5556e-20)
(1.06628 0.00447229 0)
(0.709412 -0.252276 0)
(-0.179155 -0.0248238 0)
(0.996568 0.215851 1.23784e-20)
(1.18102 0.0585632 8.13582e-20)
(1.04026 0.00341517 -7.1598e-21)
(1.05601 -0.0302925 0)
(1.04483 0.026837 -1.00271e-21)
(1.00378 0.0010257 4.48297e-22)
(1.0176 0.00315926 5.57048e-22)
(0.847664 -0.21488 3.14058e-21)
(1.19208 0.0408636 -3.09858e-20)
(1.01142 0.0299443 5.26904e-21)
(-0.0518501 -0.00274939 2.81002e-20)
(1.05194 0.0016252 1.84756e-20)
(1.04581 0.170513 -2.09688e-21)
(1.0153 0.0475513 3.96837e-22)
(-0.239043 0.000392364 0)
(0.935431 0.317796 7.13145e-21)
(1.01211 0.0143289 2.26794e-22)
(1.01138 -0.0210705 0)
(0.990073 0.0335253 3.31087e-22)
(0.63369 0.346223 1.4475e-20)
(1.18182 0.0864468 2.48389e-20)
(1.01351 0.010916 5.1607e-21)
(1.23392 0.0380545 4.22106e-20)
(-0.183887 -0.0245235 9.43631e-21)
(1.00657 0.00767567 0)
(0.567242 0.0214591 8.35788e-21)
(-0.22553 -0.0305604 5.86457e-20)
(1.14153 0.135583 2.70556e-21)
(1.00435 0.0285171 8.52361e-21)
(-0.191577 -0.0284394 1.44539e-20)
(0.105702 0.0178612 -2.32481e-20)
(1.005 0.00076855 4.00438e-21)
(-0.0450382 0.00448124 6.41297e-20)
(1.08964 0.156629 -5.85115e-20)
(1.04605 0.147285 4.13204e-20)
(1.01533 -0.0112649 1.82247e-21)
(1.15801 0.102157 3.77702e-20)
(-0.195117 -0.0186733 -2.89335e-20)
(1.10741 0.220139 -3.18342e-20)
(0.997915 0.000725283 0)
(0.681329 -0.198173 -9.06871e-22)
(-0.101328 -0.0952592 -5.36056e-20)
(1.18541 0.0840195 -5.36225e-20)
(0.609973 -0.264877 -6.23452e-22)
(0.551239 0.126414 0)
(-0.206153 -0.0327092 0)
(0.997779 0.000748286 1.23643e-22)
(1.00606 0.00749876 0)
(1.05122 0.00216032 1.70252e-20)
(1.2627 0.0340204 1.80581e-20)
(1.05489 0.000716901 2.08612e-20)
(1.00071 -0.00186972 0)
(-0.20272 -0.0274529 0)
(0.997854 -0.00145242 0)
(-0.191993 -0.0396309 -5.00004e-20)
(1.03606 0.0162856 5.67907e-22)
(1.01326 0.0448628 -1.37624e-22)
(1.08051 0.00944335 0)
(1.10175 0.0557163 -1.57478e-20)
(1.07805 0.081057 4.5361e-24)
(0.0596922 0.012921 5.15257e-20)
(1.02735 0.00433483 -4.9715e-21)
(1.11796 0.214926 1.42542e-21)
(1.01838 0.0211414 0)
(0.991948 -0.000443008 -2.03826e-21)
(0.915471 -0.0752364 -4.29451e-21)
(-0.181028 -0.0237173 0)
(1.00239 0.00533167 7.78175e-22)
(1.02018 0.0607398 0)
(1.10724 0.254459 0)
(1.17748 0.0348602 2.46324e-20)
(1.0794 0.00816162 0)
(1.03859 0.0143752 1.52762e-20)
(1.21471 0.066416 -2.06166e-20)
(0.845191 -0.0545569 0)
(0.572761 0.351768 1.82468e-20)
(0.987696 0.0583179 -4.33444e-21)
(0.994304 0.0660526 1.10457e-21)
(1.0359 0.000280444 0)
(1.04312 0.0413476 -1.28188e-21)
(1.21694 0.0231941 -1.29928e-20)
(-0.0495119 0.00839051 5.62531e-20)
(0.36565 0.382872 0)
(1.01208 0.0091026 0)
(1.02605 -0.0153078 -1.85974e-21)
(1.02734 0.0313064 -8.45345e-22)
(-0.181394 -0.00285381 0)
(1.0197 -0.00940877 0)
(0.990945 0.050848 4.20146e-21)
(0.469683 0.0708043 2.75964e-20)
(0.439793 0.161308 -3.85544e-22)
(1.21171 0.0939243 1.01798e-20)
(1.18739 0.0310264 0)
(0.998113 0.204326 -1.04019e-20)
(-0.179656 -0.0197058 -3.32411e-20)
(0.115511 0.0242551 -1.51556e-20)
(1.03879 0.0136253 -1.45677e-20)
(1.00029 -0.00100264 -8.30342e-23)
(1.0417 0.0361381 -1.09344e-20)
(1.17519 0.00461599 1.27752e-20)
(-0.175104 -0.0209195 0)
(-0.111162 -0.0555448 -5.25708e-20)
(1.21941 0.205169 0)
(1.03183 0.00231586 1.01852e-20)
(1.04071 0.0354645 1.04391e-20)
(1.02243 0.0270985 0)
(0.307006 0.0410498 -1.68376e-19)
(0.124759 0.0216636 -1.21208e-20)
(1.06309 0.0467069 -7.28162e-21)
(0.855795 -0.205001 3.15918e-21)
(1.08952 0.0480476 7.66066e-21)
(1.01799 0.0214202 1.5866e-22)
(0.960911 -0.0651209 9.65253e-21)
(1.19888 0.0383009 -5.21992e-20)
(1.01568 0.00339758 -2.25787e-21)
(-0.182207 -0.020557 0)
(1.25086 0.0246569 1.80046e-20)
(1.12741 0.067683 0)
(1.01479 0.00469817 2.46245e-21)
(0.3555 0.193354 3.79893e-20)
(1.04136 0.0409061 7.22627e-22)
(1.01383 -0.036279 -2.87009e-21)
(1.06314 0.116292 -1.90153e-22)
(-0.183907 -0.024178 2.70986e-20)
(0.66087 -0.102262 1.26862e-20)
(1.13639 0.134748 -9.94933e-21)
(0.766114 0.332477 3.03528e-22)
(1.0113 0.00873888 0)
(0.874446 -0.0538875 0)
(1.09657 0.00991363 -4.30179e-20)
(0.883416 -0.0462232 0)
(0.991865 0.0001815 -1.97083e-21)
(1.14357 0.198041 0)
(0.0997044 0.0231095 1.52093e-20)
(1.00591 -0.00410113 -2.16534e-23)
(0.611909 0.0739583 -1.08681e-20)
(0.991562 0.000103566 1.58408e-21)
(1.00066 0.00333058 -1.64073e-21)
(-0.144478 -0.0196135 -5.58923e-20)
(0.76485 -0.114874 -4.2e-21)
(1.00304 0.00419857 -2.62596e-21)
(1.20184 0.199042 -8.72854e-20)
(0.93939 0.141927 0)
(1.0109 0.00803482 1.3319e-21)
(1.01706 0.00952908 2.51724e-21)
(0.55534 0.0593845 -1.56096e-20)
(1.08693 0.0480461 -2.0877e-23)
(1.01689 0.00985221 0)
(1.13023 0.0622604 2.32811e-20)
(1.01673 0.0248788 -1.97442e-21)
(0.984915 0.0411042 -3.59443e-21)
(1.04047 0.035655 0)
(1.17359 0.0342809 -4.40201e-20)
(1.07039 0.0444171 0)
(1.03436 0.00962399 -1.45645e-21)
(-0.172115 -0.0158223 -5.04954e-20)
(1.12053 0.262812 0)
(1.11898 0.0259262 -2.44087e-20)
(0.812221 0.346571 -5.69679e-21)
(0.963097 -0.0814211 -7.71629e-21)
(0.8857 0.32683 0)
(0.998598 0.00133966 -1.75306e-21)
(1.05613 0.106116 -3.76675e-22)
(0.235378 0.033324 1.29063e-21)
(1.01163 0.0129161 -2.04923e-22)
(0.9977 -0.00118124 8.36615e-22)
(0.357013 0.0453159 8.21836e-20)
(1.01611 0.00726117 4.53313e-21)
(1.1832 0.0912087 -4.3098e-20)
(-0.192336 -0.0210688 -3.29609e-20)
(-0.175108 -0.0127055 -5.3351e-20)
(-0.0642864 -0.00200525 0)
(-0.179113 -0.0151087 5.10905e-20)
(1.03967 0.0351144 4.48786e-21)
(-0.175209 -0.00423012 1.07685e-19)
(1.17128 0.00509641 -2.62125e-20)
(0.72949 -0.264112 -2.54446e-21)
(-0.184552 -0.0277581 0)
(1.0131 0.00498643 -3.26464e-21)
(0.672456 0.0639843 0)
(1.01434 -0.0186969 0)
(0.0659749 0.00872602 -7.71612e-20)
(0.947019 0.130898 -4.01834e-22)
(-0.149253 0.00687765 0)
(1.15789 0.0460123 -3.59558e-20)
(1.16128 0.0944746 3.24295e-20)
(1.19218 0.0257062 1.76315e-20)
(0.916216 0.136062 4.65573e-21)
(0.244346 0.031502 0)
(1.13779 0.190573 0)
(0.914098 -0.0276416 0)
(-0.181868 0.00561497 5.35888e-21)
(1.02105 0.00315748 -6.95109e-21)
(0.223214 0.1055 0)
(1.03806 0.0338444 0)
(-0.238566 -0.038298 8.9286e-20)
(1.00211 0.00509384 -1.16837e-21)
(1.07037 0.0454089 0)
(1.03459 0.0233404 -1.24288e-20)
(-0.173259 -0.0233615 4.30248e-20)
(1.05821 0.0988547 1.88501e-19)
(1.07707 0.00587677 0)
(0.288071 0.0365532 3.45485e-20)
(1.07839 0.038445 -1.85377e-20)
(0.909969 0.149377 -7.40687e-21)
(0.120463 0.0224212 1.16674e-20)
(1.07089 0.0206883 -1.94491e-21)
(1.13381 0.0162357 0)
(0.793032 0.0104811 -2.72785e-21)
(1.03733 0.0141863 0)
(0.960735 -0.0533469 -5.3689e-22)
(1.0526 0.000545356 0)
(0.948841 -0.0561559 0)
(1.01184 0.0134402 2.29287e-22)
(1.06119 0.172628 -3.06551e-20)
(1.07206 0.0433777 0)
(1.02105 -0.0128856 0)
(0.770811 -0.0297042 3.20612e-21)
(1.13573 0.0146145 2.68284e-20)
(1.01805 0.0078507 -4.97698e-21)
(1.01627 0.0113923 7.08052e-21)
(1.15899 0.105815 -7.54858e-22)
(0.765888 -0.0421418 -6.28201e-21)
(0.998417 -0.00152327 1.6668e-23)
(1.00657 -0.0045015 7.87234e-23)
(1.07426 0.0438136 -2.302e-21)
(0.995036 -0.000305701 0)
(0.793618 0.329086 8.98187e-21)
(-0.214719 -0.049913 1.05571e-19)
(0.0976821 0.0122874 6.87502e-20)
(0.871335 0.0697014 -1.41649e-20)
(-0.236768 -0.0376547 0)
(0.499694 0.1099 -5.45267e-21)
(0.811712 -0.253543 -5.2414e-22)
(1.1239 0.0652539 0)
(1.01436 0.00767655 7.14712e-22)
(1.04998 0.211799 2.13585e-21)
(-0.178658 -0.0143371 -6.05312e-20)
(0.997575 0.000621174 9.37391e-23)
(-0.112522 -0.0051124 -9.11258e-21)
(1.07337 0.0254669 0)
(1.03951 0.155777 -8.62242e-22)
(1.09675 0.0452653 -2.76349e-20)
(1.00811 0.00828622 0)
(1.1551 0.0514623 5.72753e-22)
(1.21705 0.0335587 0)
(1.2226 0.047767 7.61226e-22)
(1.04904 0.00164206 0)
(1.014 0.0626204 -3.76496e-21)
(0.103456 0.0210819 -1.31465e-20)
(0.718779 0.203948 0)
(0.36163 0.375711 0)
(0.632907 0.061715 0)
(1.01722 -0.0334854 2.43016e-21)
(0.993619 0.000118714 0)
(1.22029 0.0402618 -1.10106e-20)
(1.03711 0.0149712 3.36536e-21)
(0.997696 -0.00108726 -8.43384e-22)
(0.84608 0.170093 -5.57606e-21)
(1.07017 0.172447 0)
(1.06488 0.168055 8.92775e-21)
(1.2178 0.0367228 -4.25022e-20)
(0.278327 0.0403901 -5.12189e-20)
(-0.170616 -0.0237871 1.00297e-19)
(0.997298 0.00066574 -3.66254e-22)
(0.855012 -0.0837358 3.07115e-21)
(1.00795 -0.0273326 -6.26114e-21)
(-0.176988 -0.00113612 2.39827e-20)
(0.999523 -0.00169393 1.22163e-21)
(0.958196 0.0961523 -1.67501e-19)
(1.03149 0.0126728 5.19706e-21)
(1.02828 0.113077 6.37898e-22)
(1.05428 0.00044469 4.55309e-21)
(0.662452 -0.103929 -1.5775e-20)
(1.0944 0.0457243 3.64393e-20)
(-0.193678 -0.0377903 -8.26278e-20)
(-0.218537 -0.0600884 -1.43456e-21)
(0.769374 -0.307057 2.58375e-20)
(1.01645 0.00675695 -4.74628e-21)
(1.01193 0.01075 -9.80927e-22)
(0.271738 0.0386714 0)
(0.77103 -0.32038 -1.03943e-20)
(-0.204472 -0.0310174 0)
(1.01686 0.185622 0)
(-0.00429677 0.00877843 -6.36529e-20)
(0.785688 -0.00944809 1.1046e-21)
(-0.0526946 9.55795e-05 2.36566e-20)
(-0.224628 -0.0305989 -5.00114e-20)
(0.232428 0.0308641 0)
(-0.0630386 2.51681e-05 -2.55325e-20)
(1.04331 0.0383915 0)
(1.05439 0.000219416 -8.83691e-21)
(1.01192 0.0113107 0)
(0.723643 0.0139989 0)
(1.03803 0.0245578 6.74471e-21)
(1.24688 0.0405672 3.29752e-20)
(-0.226486 -0.0298022 5.12012e-20)
(1.07912 0.00575747 0)
(0.666607 0.0637117 8.42778e-20)
(0.743102 0.0672034 2.68996e-20)
(-0.227141 -0.0431946 -4.9597e-20)
(1.02704 0.0121069 0)
(1.0368 0.0241389 -6.85958e-21)
(1.02799 0.0124077 0)
(0.438647 0.0580003 -3.48719e-20)
(1.17929 0.0936675 8.38441e-20)
(1.01246 0.00977625 1.79395e-21)
(1.09403 0.00974886 1.42843e-20)
(0.102179 0.0178608 -8.42306e-20)
(1.00845 0.00227126 0)
(-0.182685 -0.0250904 2.94412e-21)
(1.06974 0.0100528 2.40147e-21)
(1.04643 0.0457653 7.62064e-21)
(1.10969 0.146103 2.97679e-20)
(1.06475 0.00441348 0)
(1.03252 0.0130518 0)
(1.05692 0.0133169 0)
(1.08967 0.111906 -1.75077e-20)
(1.13384 0.0613177 -2.9357e-20)
(0.990693 9.70811e-05 -2.91297e-21)
(0.836298 -0.232637 -4.12143e-21)
(1.00974 0.00702454 1.39525e-21)
(1.00955 -0.00712935 1.40958e-23)
(1.00047 -0.00185156 0)
(1.01985 0.00242596 0)
(-0.0999865 0.000968083 0)
(0.104977 0.0197431 8.32365e-22)
(1.01421 0.0113807 -1.97763e-21)
(-0.21731 -0.0281255 0)
(1.11379 0.00693618 -1.05988e-20)
(1.01959 0.00244311 0)
(1.01559 0.0109742 0)
(1.03962 0.040046 -3.62357e-21)
(1.00485 0.00453388 -4.92325e-21)
(1.08422 0.0502935 0)
(1.19291 0.035072 7.02449e-20)
(1.01249 0.0108282 -2.80672e-21)
(0.289193 0.0429008 -1.02366e-19)
(1.04346 0.0386487 3.6602e-21)
(-0.197879 0.0223186 6.98068e-20)
(-0.172857 -0.021154 9.76635e-20)
(1.18855 0.0251005 -5.50271e-20)
(1.19133 0.0469388 8.08891e-20)
(0.990458 4.48863e-06 -1.64706e-21)
(-0.130782 0.00677152 0)
(0.467338 0.062227 1.15182e-19)
(1.16233 0.0987399 0)
(0.993868 -9.51088e-05 2.92207e-21)
(0.878469 -0.18011 -2.44145e-21)
(0.929137 -0.0857758 -4.53351e-21)
(1.08864 0.15607 1.97569e-20)
(1.05736 0.0140747 0)
(1.01819 -0.0213171 -1.96568e-21)
(0.851765 -0.223029 3.23421e-21)
(1.07406 0.0139762 1.80374e-21)
(-0.220606 -0.036206 4.42254e-20)
(1.06193 0.0415867 2.07639e-20)
(1.02167 0.00355659 7.46666e-21)
(1.12747 0.151025 0)
(-0.222736 -0.0356676 8.3613e-20)
(1.00205 0.0382037 1.105e-21)
(-0.0538287 0.00140861 0)
(0.883299 0.265188 -3.609e-21)
(-0.193464 -0.0208378 -1.38679e-20)
(0.803531 -0.336548 2.65036e-20)
(0.816578 0.106534 0)
(1.08462 0.109754 1.71698e-20)
(1.09655 0.0539171 -1.50994e-20)
(-0.11594 -0.00987054 0)
(-0.119765 -0.00616888 1.2352e-21)
(1.00297 0.00280334 -2.66066e-21)
(1.05799 0.0189764 7.17116e-21)
(-0.22444 -0.0295064 0)
(0.560514 0.0553755 -8.50861e-21)
(1.23245 0.0402552 6.63447e-20)
(1.01041 -0.00169209 6.81513e-21)
(1.1521 0.0279532 -7.48375e-20)
(1.09615 0.00668851 -7.05725e-21)
(1.00009 -0.00151744 0)
(0.760663 0.31316 3.96301e-22)
(1.09263 0.169385 0)
(1.00917 0.00205727 0)
(-0.168404 -0.0226733 -5.61245e-20)
(1.0918 0.0346769 -2.35069e-20)
(0.0751187 0.0165216 0)
(1.06259 0.00511175 0)
(1.02547 0.0107655 0)
(1.0897 0.122398 0)
(-0.137043 0.000588254 0)
(1.20927 0.0718471 0)
(0.800457 0.0932274 -1.32701e-21)
(0.153433 -0.00238189 5.63959e-21)
(1.10424 0.143547 -2.32908e-20)
(1.11037 0.106576 -1.72066e-19)
(1.00347 0.0416882 0)
(1.04762 0.115327 0)
(-0.172461 -0.0246099 -5.17652e-20)
(0.991912 -0.000343426 1.36606e-21)
(-0.191674 -0.0218353 -1.48738e-20)
(-0.167476 -0.0109004 -5.29729e-20)
(0.696189 0.119597 -1.25349e-20)
(1.01391 -0.00704277 2.48486e-21)
(0.989118 -0.0681767 0)
(0.99464 -0.000398606 -1.76179e-22)
(1.01487 0.00617972 0)
(-0.112968 -0.00278846 0)
(0.696404 0.112931 -9.86164e-22)
(1.19897 0.105211 9.78189e-20)
(0.96106 0.22239 7.37214e-22)
(0.514039 0.218298 0)
(1.15072 0.0505464 -2.82758e-20)
(1.0752 0.115602 -2.78314e-23)
(0.995184 0.0224288 -5.65323e-21)
(0.999999 -0.00159438 0)
(1.04081 0.0403162 0)
(0.992131 -0.000295869 1.02332e-21)
(-0.113215 -0.00196363 -8.32105e-20)
(-0.119691 -0.00415777 0)
(1.25677 0.10674 3.86465e-22)
(1.01183 0.211589 3.52963e-20)
(0.998264 0.00142063 1.8343e-21)
(0.900673 0.200997 -4.06056e-20)
(0.995663 0.0184377 0)
(1.25552 0.088714 -8.44811e-20)
(0.996919 0.271608 -2.79042e-20)
(1.04642 0.044491 3.79743e-21)
(0.999957 -0.000765231 1.26041e-21)
(1.01392 0.00802422 6.64007e-22)
(0.999828 -0.00101428 0)
(0.251404 0.0369172 4.576e-20)
(1.01703 0.0204814 9.92203e-22)
(0.148381 0.0513016 0)
(0.791641 0.0251748 4.56562e-21)
(1.13275 0.145784 -7.75727e-21)
(1.18041 0.0321551 5.31442e-20)
(1.01605 -0.00501645 1.48451e-21)
(0.127821 0.0240196 0)
(0.876694 0.256822 -2.99883e-21)
(0.619597 -0.334167 3.0076e-21)
(1.03942 0.0353197 -4.96647e-21)
(1.02656 0.00409215 0)
(1.03101 0.0133416 -6.84445e-23)
(-0.214948 -0.032482 -2.09548e-19)
(1.04804 0.00203127 -1.6882e-21)
(1.25721 0.0246998 7.2932e-21)
(1.18373 0.0604052 0)
(1.0167 0.0207167 5.9387e-22)
(0.997183 0.000609913 4.46043e-22)
(1.05694 0.00288643 0)
(1.01018 0.00770453 -1.49909e-21)
(1.0178 -0.00809576 -7.93049e-22)
(1.13447 0.0211049 0)
(1.01363 -0.0411747 0)
(0.772955 0.196468 4.43995e-21)
(1.23239 0.110605 -1.09117e-19)
(1.04081 0.0041128 0)
(1.02581 0.167881 1.29842e-21)
(-0.149151 -0.00215963 0)
(1.23311 0.0431326 -1.07171e-19)
(0.15205 0.0294408 -6.30384e-20)
(1.0046 0.0079051 -1.9577e-21)
(1.09415 0.0341438 -8.33219e-21)
(1.00302 0.00835976 3.05845e-21)
(1.07659 0.034995 -1.83821e-20)
(-0.193455 -0.0197668 3.6883e-20)
(1.12023 0.0665635 2.76901e-22)
(0.996698 0.28486 0)
(0.819898 -0.102165 4.33568e-21)
(-0.0389597 -0.0686834 0)
(1.13125 0.00115179 1.44403e-20)
(1.02842 0.0116932 9.45735e-21)
(-0.0306771 0.00911609 -4.92691e-20)
(1.07269 0.0305807 1.82868e-20)
(0.132469 0.02946 0)
(1.04365 0.0266834 1.00935e-20)
(1.01195 0.0136697 0)
(0.558165 0.243287 0)
(1.0163 -0.0129392 -1.83941e-21)
(1.00316 -0.0027211 0)
(1.13886 0.174968 -4.33771e-20)
(1.21054 0.102297 0)
(-0.21595 -0.031844 1.13529e-19)
(-0.187284 0.00885161 -6.99305e-20)
(-0.227889 -0.00143316 -6.47513e-20)
(0.307226 0.367592 2.73214e-21)
(0.991635 -0.000355882 -9.3053e-22)
(0.996491 0.000554198 0)
(1.17398 0.0602661 4.26421e-20)
(0.616443 -0.31371 -2.40881e-21)
(1.25215 0.0727713 0)
(1.01626 -0.0103284 0)
(1.07422 0.00473602 2.05017e-20)
(0.99328 0.0151871 0)
(-0.0933376 0.00189752 5.10145e-20)
(1.00871 -0.00625277 -1.85177e-22)
(1.05446 0.000301818 -2.313e-21)
(-0.138973 0.00114261 0)
(-0.112159 -0.0066283 -7.22058e-20)
(1.21782 0.0607552 0)
(1.0746 0.0336814 0)
(0.998435 -0.00155424 -1.15649e-21)
(1.0452 0.0261241 1.46451e-21)
(1.053 0.0349381 -1.07124e-20)
(1.13352 0.00250474 -1.15306e-20)
(0.997575 -0.00134509 0)
(1.09049 0.0271944 3.71531e-20)
(1.02608 0.0306136 8.446e-22)
(0.176545 0.0303939 1.00349e-19)
(0.998125 -0.000797834 -3.92194e-22)
(1.03442 0.0154709 2.259e-21)
(0.389037 0.0602894 0)
(0.869121 0.269861 -1.78201e-20)
(1.02175 0.066064 -6.85142e-22)
(1.01671 0.00329581 1.11757e-21)
(1.03527 0.024349 0)
(0.995745 0.215554 -3.66131e-20)
(0.587421 0.0902006 -1.24624e-19)
(0.944795 0.205472 -7.43275e-22)
(0.937457 -0.0755296 4.62713e-22)
(1.03381 0.152638 0)
(0.620312 0.0124997 4.9295e-21)
(1.02246 0.00100594 9.0642e-21)
(-0.113007 -0.00139666 0)
(1.11691 0.064397 2.22783e-20)
(-0.182483 -0.0400398 0)
(1.01476 0.00379894 0)
(-0.195791 -0.0229844 -1.58934e-20)
(1.04018 0.0130467 -7.56578e-21)
(1.0452 0.0425265 7.87615e-22)
(0.991806 -0.0258967 -7.81915e-22)
(1.03483 0.0787241 -1.81832e-21)
(1.05481 0.000433491 0)
(1.01455 0.0110119 3.14536e-23)
(1.13437 0.0258974 -2.66685e-20)
(0.991027 -0.000204232 0)
(-0.223306 -0.0280949 -7.38123e-20)
(-0.179235 -0.0396185 0)
(0.237928 0.0379349 0)
(0.997941 0.0102393 -9.22421e-23)
(1.0076 0.00819642 1.40522e-21)
(-0.20109 -0.0281623 0)
(1.01906 -0.0108075 0)
(1.00335 -0.00284645 2.66867e-23)
(0.864415 -0.195073 5.6536e-21)
(-0.0419845 0.0100667 -3.71537e-20)
(0.747483 -0.0966423 -2.08551e-21)
(0.812579 -0.271645 2.08616e-20)
(-0.197786 -0.0220037 -1.73687e-20)
(1.11538 0.021557 0)
(1.00285 -0.0223413 -8.46527e-22)
(-0.0247286 -0.0674552 -2.4975e-20)
(0.996598 0.00105587 0)
(1.13069 0.0664697 0)
(-0.0438925 -0.00254759 -5.43109e-20)
(1.01174 -0.0112556 8.59936e-23)
(1.01294 0.00922095 6.62124e-22)
(0.200308 0.023681 2.57648e-20)
(-0.164461 -0.0143319 4.90435e-20)
(1.05797 -0.000727616 1.31665e-20)
(-0.164089 0.00217708 -4.62063e-20)
(0.996367 0.000975569 0)
(1.17198 0.0669201 -1.39345e-22)
(1.01021 0.16015 -6.73271e-22)
(0.828661 -0.0892029 0)
(0.894077 -0.0196075 -2.70847e-21)
(1.02179 0.0544385 7.85141e-22)
(0.990676 -0.000354025 1.7637e-21)
(1.13466 0.0802296 -1.5313e-20)
(1.11544 0.0298362 0)
(0.843677 -0.228172 -3.12461e-21)
(-0.21154 -0.0307276 -6.60438e-20)
(1.04895 0.00580596 -5.59158e-21)
(0.198163 0.0818467 7.21688e-22)
(0.887743 0.372287 -6.83348e-21)
(1.2501 0.0214977 0)
(0.997618 -0.00131532 0)
(1.01176 0.0131127 -1.66819e-23)
(-0.194835 -0.0237064 0)
(1.00965 0.00110907 3.7579e-21)
(1.0453 0.0748197 0)
(0.790198 0.0404335 1.069e-20)
(0.925943 0.100203 0)
(1.01129 0.0126717 1.36721e-22)
(0.404133 0.0632266 -8.51795e-20)
(0.0963657 0.0184381 -6.14129e-21)
(-0.178352 -0.0171576 3.11817e-20)
(0.792081 -0.251596 -4.35606e-22)
(1.04593 0.105599 0)
(1.0119 -0.00281779 0)
(1.0018 -0.00228687 0)
(1.05977 0.0409297 -1.24199e-20)
(1.04513 0.0437756 0)
(-0.17602 -0.0128263 1.68838e-22)
(-0.118932 -0.00719279 1.02046e-19)
(1.03771 0.0194923 1.43406e-21)
(1.0024 0.0181504 -6.08803e-21)
(0.706654 -0.139931 -2.22156e-22)
(-0.0050213 0.00747704 -8.02739e-20)
(-0.196561 -0.0224661 0)
(1.05836 0.000166071 2.6041e-20)
(-0.184459 -0.000484366 7.37908e-20)
(1.10968 0.0264621 -1.85975e-20)
(0.075663 0.0153022 3.85287e-20)
(1.1437 0.181902 5.10632e-21)
(1.13104 0.0456447 2.41577e-20)
(1.02465 0.103086 0)
(1.09765 0.00846859 0)
(1.12584 0.0539533 -3.67922e-20)
(0.591011 0.248715 0)
(1.01993 -0.0202145 3.51494e-21)
(-0.163813 -0.0180023 4.33701e-20)
(0.789346 0.0676913 7.30476e-20)
(1.0499 0.158617 7.063e-21)
(0.669838 0.0290242 -5.72354e-21)
(1.1835 0.0639221 5.14788e-20)
(1.04457 0.0724443 7.85334e-22)
(1.01048 -0.00265835 0)
(-0.180652 -0.0267701 2.18265e-20)
(1.01525 0.0114283 -2.19164e-21)
(0.258703 0.0503996 4.4482e-21)
(1.03602 0.0308894 0)
(1.05371 0.00134827 0)
(1.07315 0.0132261 -9.9444e-21)
(1.17131 0.0370197 7.30305e-20)
(-0.233679 -0.0375783 0)
(1.0574 0.00247347 0)
(0.662815 0.0863924 -1.8397e-20)
(0.93585 -0.0475101 1.79177e-21)
(0.680646 -0.138007 1.12948e-21)
(1.05497 0.0484172 -3.0836e-22)
(0.995809 0.000345962 0)
(0.383061 0.0470619 0)
(1.02437 0.0306129 1.33002e-21)
(1.02564 0.0313366 1.26092e-21)
(-0.0435932 -0.0019928 2.77194e-20)
(1.0237 0.011718 -9.77448e-21)
(1.05801 0.0126526 1.29375e-20)
(1.03177 0.173509 -1.07419e-21)
(1.13617 0.0193311 1.52185e-20)
(0.997059 -0.000637649 0)
(0.777337 0.0245442 0)
(0.11293 0.027731 -1.54155e-20)
(-0.232614 -0.0355784 0)
(0.304774 0.364032 -7.96381e-21)
(1.01549 0.00558386 1.34485e-21)
(1.01495 0.00154784 0)
(1.21336 0.0731139 -3.16349e-22)
(1.25768 0.0924958 -8.28231e-20)
(-0.17929 -0.0135606 0)
(1.05686 0.00889071 0)
(0.219759 0.0285282 -3.51874e-21)
(1.04735 0.044363 3.06803e-22)
(1.13629 0.0240241 1.41085e-20)
(-0.211573 0.0326688 -2.74663e-20)
(1.04813 0.00581429 1.72494e-20)
(1.01116 -0.00429702 -7.2642e-22)
(1.15485 0.0611926 0)
(0.997004 0.000712856 2.16778e-22)
(1.02426 0.0127254 4.15693e-21)
(1.03483 0.0332166 0)
(0.934157 -0.0362979 7.29285e-22)
(0.245294 0.0348655 -2.54025e-20)
(0.99229 0.000240392 3.72072e-23)
(0.739355 0.294563 -1.67817e-21)
(0.906526 0.0713355 0)
(0.983172 0.127151 0)
(1.09157 0.0715828 0)
(1.0143 -0.00445478 0)
(1.05931 0.0188582 8.01436e-21)
(1.05866 0.0393664 -1.31359e-20)
(0.890972 -0.16976 0)
(1.0621 0.207987 -1.06023e-20)
(-0.169477 -0.0230049 -4.34512e-20)
(-0.178589 0.00661102 8.77182e-20)
(0.864473 -0.191682 2.41095e-21)
(1.03529 0.0299093 2.42164e-21)
(1.15657 0.0342805 1.00499e-19)
(1.08937 0.0572999 -2.45337e-21)
(1.16988 0.00800804 -2.56505e-20)
(1.129 0.0508242 2.65983e-20)
(1.08801 0.0264561 2.33364e-20)
(0.917489 0.176128 0)
(0.904563 -0.030662 0)
(1.03412 0.0332945 0)
(-0.242445 0.0181482 0)
(0.827994 0.157267 -1.46526e-20)
(0.991403 2.95316e-05 0)
(1.15555 0.0280346 4.12656e-20)
(1.05612 0.0101861 -1.11789e-20)
(1.24653 0.0203063 7.98712e-20)
(1.04827 0.0459795 0)