/*--------------------------------*- C++ -*----------------------------------*\
| =========                 |                                                 |
| \\      /  F ield         | OpenFOAM: The Open Source CFD Toolbox           |
|  \\    /   O peration     | Version:  v2012                                 |
|   \\  /    A nd           | Website:  www.openfoam.com                      |
|    \\/     M anipulation  |                                                 |
\*---------------------------------------------------------------------------*/
FoamFile
{
    version     2.0;
    format      ascii;
    class       volScalarField;
    location    "700";
    object      k;
}
// * * * * * * * * * * * * * * * * * * * * * * * * * * * * * * * * * * * * * //

dimensions      [0 2 -2 0 0 0 0];


internalField   nonuniform List<scalar> 
13308
(
0.000169834
0.0123153
0.048703
0.00016072
0.000190396
0.000153075
0.000244553
0.000166758
0.000231514
0.00135831
0.0100181
0.0029861
0.000152759
0.000149154
0.000153744
0.0589069
0.000230647
0.0115324
0.00179405
0.000193204
0.000196278
0.0761366
0.0902208
0.000185208
0.0612006
0.0803325
0.000201461
0.0117323
0.000201019
0.000248442
0.0543562
0.000231716
0.0907035
0.000207459
0.00211378
0.000202571
0.000240497
0.0892853
0.000176138
0.0538779
0.000147376
0.000163328
0.00130934
0.000153379
0.000177453
0.000192395
0.000153709
0.00015755
0.00020027
0.0454778
0.00016273
0.000167355
0.0557118
0.0222319
0.0170933
0.0374177
0.000152466
0.000168147
0.000181789
0.000180793
0.000536895
0.0928264
0.000167817
0.000155979
0.00016036
0.0896728
0.000148065
0.00135737
0.000152694
0.000345972
0.0533686
0.000176431
0.000229138
0.00023958
0.0210035
0.000171309
0.000144088
0.0399235
0.000162221
0.00166196
0.000170394
0.00014809
0.000171299
0.000183608
0.000133912
0.000166329
0.0121847
0.0272894
0.00690401
0.00037414
0.000166237
0.000149448
0.000207179
0.000205153
0.000155689
0.000166496
0.000164002
0.00176385
0.0561438
0.000337727
0.000165572
0.00014896
0.000152453
0.000211198
0.00178864
0.0430273
0.0485125
0.000158941
0.0604996
0.0866617
0.000168668
0.000212803
0.000215049
0.000161528
0.000216283
0.0029915
0.00027982
0.0173084
0.000205595
0.000169624
0.000192855
0.000219787
0.000158838
0.000448527
0.0141536
0.000416211
0.000112138
0.000229389
0.00021063
0.0645359
0.0573431
0.000216012
0.000156377
0.000168176
0.000221893
0.000379541
0.000149228
0.0141728
0.0133517
0.000164013
0.0409828
0.000168306
0.000155142
0.000229621
0.000169532
0.000266168
0.000708846
0.000427953
0.000169138
0.000240948
0.0234899
0.000162558
0.00148705
0.000556245
0.0617606
0.00637183
0.000156956
0.00015863
0.000148143
0.041417
0.00338599
0.000167778
0.000154294
0.0903194
0.00478956
0.0002901
0.074278
0.000158162
0.0573985
0.000185184
0.000168105
0.0187984
0.000166594
0.041427
0.015691
0.0672262
0.0763544
0.0468858
0.000244533
0.000158155
0.00721004
0.0375897
0.000148346
0.0017047
0.0681797
0.000151473
0.0372553
0.0616967
0.000251139
0.0250148
0.0217408
0.000202317
0.000170455
0.00115399
0.00016961
0.0683591
0.000167839
9.67468e-05
0.0323397
0.000163515
0.0577273
0.050341
0.000528973
0.00021656
0.0676761
0.000258866
0.059658
0.0271018
0.0271529
0.0193528
0.0245611
0.000403752
0.00019257
0.0433029
0.0965938
0.00022431
0.000160459
0.0256802
0.0400104
0.0268291
0.0171701
0.000160261
0.00214821
0.000143448
0.000227597
0.0682605
0.000287024
0.00784698
0.0395018
0.000262224
0.0513728
0.000243444
0.0475361
0.000521448
0.000272947
0.000191104
0.0645684
0.0133826
0.0606578
0.000255748
0.000184916
0.000284618
0.000202919
0.000140626
0.00991858
0.0688863
0.000380879
0.000443174
0.000144412
0.0648789
0.0950223
0.0916607
0.00015117
0.0940549
0.0392969
0.000230671
0.00323538
0.000160265
0.0319144
0.0380701
0.000248288
0.00042081
0.000191335
0.000171514
0.00147736
0.000210216
0.00127323
0.000155598
0.0210463
0.0641108
0.000487429
0.000193384
0.000151078
0.0130764
0.000162028
0.000164635
0.000179826
0.0193424
0.000190343
0.000287733
0.0721188
0.000154584
0.00419633
0.000237775
0.0648098
0.0100631
0.000170233
0.000155616
0.000330521
0.035951
0.000211039
0.000155693
0.000274144
0.0477026
0.000162793
0.000871543
0.0427777
0.000248009
0.000205971
0.067355
0.0904186
0.000255043
0.0786923
0.000704205
0.000191317
0.000182689
0.000216837
0.0414367
0.000394057
0.000151324
0.013915
0.0983795
0.000211235
0.000424722
0.00130094
0.0175052
0.000158447
0.000162777
0.000149807
0.0003047
0.000149054
0.000147259
0.0618548
0.000142759
0.0846243
0.000230484
0.000235565
0.00015915
0.00017782
0.000286973
0.0886499
0.000149645
0.000302261
0.000167715
0.000157751
0.0276348
0.0613476
0.000160326
0.00027252
0.000456349
0.000185565
0.000158667
0.000153885
0.000209046
0.0207615
0.0344569
0.000327642
0.000262494
0.0001707
0.000192121
0.000192506
0.0776144
0.0276523
0.000153298
0.00018436
0.000176009
0.0215373
0.000193078
0.000233335
0.0437487
0.00137895
0.000225195
0.000186479
0.00062374
0.0582915
0.0980982
0.000153142
0.00014039
0.000168552
0.000178046
0.0562953
0.0869984
0.000383873
0.00015953
0.000168366
0.000213854
0.0889261
0.0944084
0.000171508
0.0219695
0.000172531
0.000168575
0.0202728
0.000192389
0.000176236
0.0516215
0.000210242
0.000187217
0.000147752
0.00203091
0.000190583
0.000844415
0.000334108
0.0612969
0.0185732
0.000249733
0.0292403
0.000152966
0.0229274
0.000162004
0.0338733
0.000161725
0.000323054
0.0979219
0.000152608
0.00103873
0.000157598
0.00015792
0.0594292
0.0116801
0.00019107
0.000339296
0.00113426
0.000152097
0.000152291
0.073338
0.000171943
0.000152708
0.000185457
0.000139989
0.00132256
0.00016885
0.000184228
0.000169607
0.000207707
0.0490623
0.000459367
0.000169429
0.0226213
0.019591
0.0169841
0.000152653
0.000326181
0.073779
0.000164325
0.000141143
0.0858926
0.000149655
0.000213287
0.0528655
0.060808
0.0846362
0.046827
0.000168714
0.0574106
0.000177131
0.0147965
0.0599462
0.000147759
0.0650484
0.000165582
0.0678952
0.0019685
0.0757368
0.00018392
0.000212108
0.000186313
0.0105993
0.0887592
0.000311536
0.0320976
0.0582355
0.000153746
0.000957568
0.000169147
0.0321341
0.00016026
0.000170307
0.000161905
0.063096
0.00796834
0.000157841
0.086898
0.000167141
0.0130896
0.0958692
0.000275708
0.000169826
0.0170249
0.000153869
0.010313
0.000169689
0.0119881
0.000165415
0.000334313
0.000169615
0.000197295
0.0129906
0.000169598
0.000149874
0.000155107
0.000220003
0.0127618
0.000143462
0.000153029
0.000169365
0.000154389
0.024719
0.0502155
0.0658143
0.039119
0.0356355
0.00130229
0.00119975
0.000185884
0.000167002
0.000380274
0.0471219
0.000161655
0.057505
0.000257713
0.000414379
0.000172183
0.000163652
0.000185258
0.000194707
0.000202717
0.000157757
0.00037307
0.0960392
0.0119705
0.0267565
0.0683878
0.000709334
0.000151176
0.000291124
0.000154562
0.00014075
0.0189214
0.000404003
0.000323028
0.000197163
0.0897835
0.0707175
0.000150255
0.0229573
0.0158971
0.0231293
0.000145033
0.0231337
0.000152613
0.000379269
0.000148329
0.000655307
0.000172539
0.080617
0.0487094
0.0128672
0.000149029
0.000165247
0.0904937
0.00875636
0.0535115
0.00160955
0.0871004
0.0161925
0.0853679
0.0417269
0.0847851
0.0854809
0.000183017
0.000148923
0.000166289
0.00716746
0.000161849
0.00029875
0.044946
0.000158136
0.0657532
0.0580731
0.0513525
0.000152878
0.000161811
0.000153075
0.0671766
0.000213566
0.000154215
0.000161627
0.0743717
0.000152428
0.0636196
0.000614765
0.00017617
0.000265462
0.000154918
0.000152843
0.000155768
0.000231038
0.000185456
0.000161159
0.0120171
0.000150853
0.000159641
0.000142852
0.000160148
0.0796106
0.0944813
0.000156115
0.0361808
0.000164848
0.000158766
0.000154835
0.000198404
0.000278136
0.000172517
0.000189239
0.000156139
0.0442925
0.000179926
0.0251813
0.0172091
0.000185448
0.000191681
0.000161193
0.076135
0.0638068
0.000215531
0.000150067
0.0202146
0.0310588
0.000287433
0.000156237
0.000178128
0.0192157
0.000421444
0.0275326
0.000168279
0.000150849
0.000270821
0.0309974
0.000273298
0.0860022
0.0189763
0.0496053
0.00586358
0.0170492
0.000230485
0.000176321
0.0277738
0.0563967
0.000185313
0.000158712
0.043303
0.00125791
0.000204138
0.0159142
0.000176687
0.000161412
0.000141213
0.0276761
6.61593e-05
0.000155688
0.0712398
0.000166733
0.0765367
0.00015409
0.000151921
0.00357343
0.0807278
0.000208502
0.0166266
0.0071754
0.000262985
0.00554846
0.000271018
0.00722043
0.0210589
0.000158583
0.0559534
0.0636539
0.0184853
0.000169245
0.031068
0.000155553
0.000148693
0.0642748
0.0251291
0.000305956
0.000753129
0.00106761
0.000183634
0.000332394
0.00027652
0.00014156
0.000192428
0.000159044
0.0684625
0.0609296
0.000250239
0.000237831
0.000152237
0.000135957
0.00029797
0.000291701
0.000216584
0.00017487
0.000156698
0.000165343
0.000156311
0.0746205
0.000168167
0.0019944
0.0188103
0.000264865
0.000185164
0.00017149
0.00185474
0.018909
0.000331089
0.000169293
0.000149511
0.000153526
0.0287888
0.000154326
0.000214627
0.000195155
0.000168876
0.000150216
0.000150193
0.00015177
0.000183907
0.000171163
0.00131827
0.0177411
0.000165938
0.000149323
0.000414547
0.0190598
0.000205815
0.0968604
0.000203552
0.00016694
0.00020969
0.000165856
0.0484469
0.000186607
0.000750075
0.0191123
0.0353732
0.000167563
0.000152312
0.0783632
0.000164009
0.0929491
0.000162117
0.000167565
0.000616532
0.000183993
0.000150937
0.000295183
0.0002329
0.0311791
0.0599504
0.0654534
0.032296
0.000158782
0.000161606
0.000193415
0.000107195
0.000237861
0.000181708
0.000157344
0.00228554
0.0823862
0.000157168
0.000154746
0.0804453
0.0560703
0.0002046
0.000165147
0.000143705
0.000161778
0.000165574
0.000167985
0.000141984
0.000164882
0.000175979
0.0952439
0.000141846
0.00016283
0.0436874
0.000962508
0.000380868
0.000150641
0.000162439
0.000267503
0.0384623
0.000180634
0.0299279
0.00101234
0.00164689
0.000184018
0.0725082
0.000184132
0.0620677
0.000148789
0.0574006
0.000152544
0.000198788
0.000975025
0.000414348
0.000152029
0.000155287
0.00017198
0.000161857
0.0444709
0.0579874
0.0264959
0.000285001
0.000163817
0.0699313
0.000190866
0.000151188
0.0221482
0.079046
0.00563354
0.00718665
0.0497644
0.000168079
0.000171196
0.0324688
0.000148782
0.000187156
0.0767972
0.000190874
0.000168376
0.0439764
0.0490497
0.00015044
0.0733722
0.000148492
0.000195274
0.000449926
0.0142119
0.0158253
0.000266874
0.000161995
0.000195382
0.000168939
0.0172121
0.0287168
0.000148204
0.0323512
0.00182904
0.000209396
0.000141736
0.000166219
0.0606015
0.000165039
0.000215034
0.0149881
0.00163405
0.000162788
0.0458529
0.0780582
0.0567552
0.00827546
0.00033066
0.000158963
0.000145145
0.000168334
0.000201836
0.0545734
0.0550561
0.00022682
0.000956146
0.00839971
0.0841434
0.0536292
0.000150594
0.0221151
0.000167481
0.0908691
0.000301847
0.000177728
0.000369948
0.000161986
0.000194499
0.00327864
0.000193878
0.0531924
0.0524243
0.000338725
0.00205704
0.000196872
0.000213093
0.000157249
0.0332108
0.000155658
0.0163432
0.000166903
0.000149835
0.000158736
0.000184053
0.0352728
0.00015039
0.0262987
0.0125752
0.0113361
0.00022196
0.000148014
0.0843648
0.000177557
0.000177875
0.0745807
0.000153305
0.000155766
0.000358254
0.000171134
0.000144633
0.0144363
0.0947808
0.039723
0.0317662
0.000148021
0.000165293
0.000211687
0.000251906
0.0576978
0.000153036
0.0464475
0.000173659
0.000172086
0.0081894
0.000148078
0.000160355
0.000188518
0.000154349
0.000154307
0.000172259
0.0120976
0.0386923
0.000161832
0.0283561
0.0339561
0.000415365
0.000187147
0.000166264
0.000158906
0.000167477
0.0207217
0.000384423
0.0644091
0.0677833
0.0203649
0.000166535
0.000178908
0.000764089
0.000177079
0.000178809
0.000164248
0.00235948
0.0152868
0.000172677
0.0274709
0.0186193
0.000157594
0.000177565
0.000153591
0.000206603
0.000349356
0.000367521
0.000179323
0.0312833
0.000305091
0.000164985
0.0133967
0.000179134
0.00410209
0.000237185
0.00017278
0.00019803
0.000172383
0.000191608
0.000152099
0.000160465
0.00962287
0.000150839
0.061415
0.000186528
0.000233517
0.000637505
0.053524
0.000161107
0.000140828
0.000290442
0.00297204
0.000164665
0.00016711
0.00726098
0.0215381
0.000193352
0.000189469
0.0352332
0.000160949
0.000152771
0.026932
0.0107036
0.00426846
0.000161791
0.000273561
0.000162126
0.000209797
0.0143426
0.000167504
0.000149946
0.000250825
0.0443094
0.000161559
0.000156446
0.000175131
0.000237793
0.0011097
0.000160373
0.0405134
0.000192493
0.069415
0.046467
0.000212681
0.00973883
0.000174445
0.0698961
0.00133208
0.0125583
0.000152881
0.0614938
0.000223101
0.000417912
0.000187785
0.000190342
0.089419
0.000177181
0.000163483
0.000159987
0.000323292
0.000360757
0.0971779
0.0673671
0.0264829
0.0586299
0.000161598
0.0637732
0.000157293
0.000154843
0.000166916
0.000161197
0.000407871
0.0018001
0.00014742
0.0691375
0.000356555
0.0635323
0.081584
0.00694309
0.000151232
0.00015033
0.000199889
0.000144384
0.00015881
0.00016648
0.0784636
0.000194066
0.00207315
0.000411771
0.000210076
0.0116537
0.000154802
0.0646104
0.000167724
0.000278597
0.0420898
0.0831462
0.000183384
0.0370089
0.0125992
0.00566777
0.0283768
0.000164549
0.078143
0.000182993
0.0246608
0.000163266
0.000150247
0.000161367
0.0275672
0.0464224
0.0379083
0.000670681
0.0540966
0.0817909
0.000153122
0.00194799
0.000252067
0.000166864
0.0105391
0.0139498
0.000140625
0.00307093
0.000359395
0.000148844
0.0843683
0.000160451
0.00016735
0.057852
0.000172663
0.000210897
0.0852399
0.000201719
0.0479289
0.000159273
0.000140222
0.000169137
0.0668221
0.000217075
0.000288515
0.000334209
0.000159298
0.000148931
0.000205129
0.0219309
0.000153922
0.000990227
0.000171409
0.0002949
0.0640577
0.000172933
0.0898421
0.000141917
0.000187241
0.0645324
0.000160205
0.000149825
0.0796078
0.0143343
0.00715906
0.000194114
0.0124088
0.000165613
0.0250753
0.000244054
0.000194973
0.0278105
0.000294517
0.0347391
0.0100015
0.000157315
0.000237265
0.000198183
0.000165526
0.000185473
0.00110455
0.000149908
0.000157349
0.000172461
0.000161949
0.000160138
0.000151013
0.000160912
0.000170996
0.0311209
0.000228042
0.000174551
0.000448908
0.000334146
0.0089729
0.00667804
0.00700175
0.000156958
0.0721822
0.000242884
0.0088674
0.00020165
0.0713647
0.0394215
0.0109151
0.0077626
0.000163815
0.000172409
0.000168255
0.000168062
0.000202187
0.0521677
0.000162213
0.000318183
0.0250983
0.0172137
0.000231906
0.036608
0.0148627
0.000376788
0.000196116
0.000163559
0.0306673
0.000170124
0.000209697
0.0827082
0.00018579
0.000163755
0.000151972
0.00014787
0.000217565
0.0648862
0.0337509
0.000242803
0.000177794
0.000153207
0.000153446
0.000163721
0.0738998
0.000252097
0.000148792
0.000170564
0.0187992
0.0686392
0.000156975
0.000154473
0.000222369
0.0176881
0.000162206
0.000178127
0.000191984
0.0701066
0.00524809
0.0792487
0.000191259
0.0087936
0.000207473
0.0821072
0.000214426
0.014479
0.000162304
0.0105216
0.0754455
0.0686611
0.000164262
0.0181515
0.000196482
0.0295582
0.0721791
0.0189287
0.00469059
0.0810122
0.000239523
0.00019687
0.0332208
0.000427908
0.00206635
0.000356968
0.0293435
0.0860834
0.0811706
0.013724
0.0349454
0.000171422
0.0739585
0.000294028
0.0315195
0.000165775
0.000296191
0.0866612
0.000217296
0.0700526
0.000211743
0.00720041
0.000214014
0.043087
0.0730451
0.000180282
0.0198368
0.00107818
0.000167841
0.0211303
0.000161135
0.000386853
0.000269024
0.000184216
0.0284763
0.0793427
0.000163368
0.0880025
0.000433098
0.00015267
0.00278714
0.0789689
0.00460149
0.0553248
0.000163493
0.000150432
0.00813413
0.000157879
0.0631076
0.00132115
0.0734693
0.0649676
0.000193617
0.000198402
0.000189127
0.0495621
0.0715976
0.0342839
0.000220615
0.00015827
0.00305268
0.000431916
0.000188692
0.000910132
0.000161943
0.0252185
0.000158831
0.000164645
0.000246153
0.000155069
0.000176296
0.000293434
0.0128708
0.0676096
0.000149195
0.000148414
0.0048098
0.0359294
0.000270013
0.000193328
0.0796374
0.000142801
0.0542921
0.070972
0.0705395
0.000168772
0.000166314
0.00399759
0.0493667
0.000305625
0.00015323
0.0058607
0.00014315
0.0187269
0.0354437
0.000155107
0.0252895
0.0244164
0.000237451
0.000198675
0.000157529
0.000174312
0.0682219
0.000227191
0.000825943
0.000161102
0.000157561
0.000336622
0.0001607
0.000357363
0.0624964
0.000164056
0.0191168
0.00666409
0.000150251
0.0730453
0.00114325
0.000161735
0.00822304
0.0100029
0.0163387
0.00016727
0.0481567
0.000164612
0.000140371
0.00573374
0.0297722
0.0822801
0.000150895
0.00384737
0.000151072
0.000232792
0.000162936
0.0133766
0.00148092
0.0353206
0.000236923
0.000230145
0.000220631
0.0686137
0.0900495
0.0133216
0.0375549
0.000165469
0.000153057
0.0001503
0.000204044
0.000192799
0.000372218
0.0858249
0.00015294
0.0234156
0.0915708
0.000759064
0.000715807
0.000167256
0.000166877
0.0958723
0.000406455
0.000160202
0.000169699
0.00339519
0.000236185
0.0411576
0.00188431
0.0962169
0.000173612
0.00836013
0.00296835
0.000176018
0.000153772
0.0562333
0.000215997
0.000158731
0.000219453
0.00402182
0.013457
0.000143148
0.0318383
0.000179013
0.000163249
8.88803e-05
0.000374504
0.0899757
0.072905
0.000199873
0.032482
0.048894
0.000166539
0.0926111
0.00413947
0.000207418
0.000185422
0.000159708
0.000168735
0.0612056
0.000159347
0.0655959
0.000295081
0.000330693
0.00042793
0.00016127
0.0706753
0.000188701
0.000952645
0.0305231
0.0207521
0.000201173
0.000158978
0.0674972
0.000163356
0.0842427
0.0517495
0.000211801
0.000630261
0.000145119
0.0354176
0.000165031
0.000201514
0.000178767
0.00237119
0.000150218
0.000475937
0.000157364
0.0803264
0.0001959
0.0932053
0.0238771
0.000244076
0.000214612
0.000280833
0.0935599
0.0187311
0.000156866
0.0835902
0.00025739
0.000160743
0.0110039
0.000153972
0.000178281
0.0623874
0.029187
0.000101823
0.000162614
0.0039081
0.0520887
0.00567997
0.000168444
0.000158988
0.0823471
0.0413318
0.000193713
0.0092338
0.000189523
0.0640817
0.00017184
0.00016605
0.000260309
0.0734274
0.000240852
0.000229378
0.000157152
0.000190693
0.000165945
0.000202137
0.0253526
0.022498
0.000239034
0.000150215
0.0973916
0.000170921
0.000116518
0.000164383
0.0078
0.0503976
0.0242886
0.000181312
0.000149173
0.000152635
0.0879281
0.0672861
0.0929745
0.000200977
0.0976067
0.000304909
0.0925568
0.000200444
0.000421381
0.000162526
0.000171462
0.000163806
0.0166691
0.00016515
0.000272665
0.0063129
0.0600918
0.0627624
0.0215998
0.000153747
0.0554905
0.000239578
0.0121138
0.000150271
0.0134448
0.000142897
0.000190832
0.00420547
0.0176155
0.00016648
0.000159241
0.000147716
0.00995816
0.000213689
0.0743851
0.000214143
0.0593095
0.0198817
0.0858899
0.0633105
0.000164286
0.0106731
0.00345603
0.000185429
0.000179083
0.000168768
0.000154538
0.000165105
0.000148659
0.000150556
0.000166731
0.000167509
0.000163936
0.00112963
0.067909
0.0453259
0.000167976
0.000167652
0.00800069
0.000158022
0.0546496
0.000148866
0.000355471
0.0107188
0.00439694
0.000218053
0.000292971
0.000376753
0.000186428
0.000248931
0.000201043
0.0573927
0.0745033
0.00281781
0.000176853
0.0263645
0.000164075
0.000165805
0.000198936
0.000162468
0.000199255
0.000168552
0.019677
0.000183644
0.000148121
0.0840511
0.00016219
0.000189677
0.0638
0.00014966
0.00467606
0.00017439
0.000191493
0.000186011
0.00762175
0.000148336
0.0826141
0.0292444
0.000158629
0.000357633
0.000188862
0.0557303
0.0722815
0.000162584
0.000147634
0.000163097
0.000156557
0.000160104
0.000162585
0.000145552
0.000214128
0.000150869
0.00173103
0.0508806
8.50703e-05
0.000167683
0.000180267
0.000157685
0.0160471
0.000191505
0.00112396
0.0167664
0.000147469
0.0676581
0.0844466
0.000166157
0.00831878
0.00719023
0.000184594
0.000156054
0.0652297
0.000174379
0.000155279
0.000338638
0.0179992
0.0824752
0.008158
0.001365
0.000160262
0.0347557
0.0132943
0.000195279
0.000154106
0.000172934
0.000158799
0.000202397
0.000862912
0.000151121
0.000647015
0.0854711
0.0758745
0.0200465
0.000174135
0.0616023
0.000172388
0.0833352
0.0564192
0.000149432
0.000163162
0.0809939
0.000238623
0.0305354
0.000166269
0.013827
0.00868075
0.0298953
0.000151456
0.0913463
0.0635756
0.000516155
0.000205947
0.00509583
0.0790842
0.0838927
0.0279136
0.000255463
0.0663083
0.059389
0.00816105
0.0843548
0.0171919
0.0507565
0.00866063
0.0372429
0.0768629
0.0356947
0.000159634
0.0130204
0.0777891
0.0077841
0.000246109
0.000148942
0.0830393
0.000256135
0.00201947
0.0580665
0.00451675
0.0353044
0.0497497
0.000153556
0.000159899
0.0862563
0.052933
0.0575184
0.000178581
0.000540348
0.000166058
0.000611642
0.00418106
0.0438694
0.00752519
0.000159229
0.0195201
0.000159464
0.0730354
0.000294392
0.000160709
0.0927208
0.000160013
0.0262689
0.000529991
0.00260888
0.000740786
0.000164416
0.000163214
0.071445
0.09479
0.00016254
0.038542
0.052865
0.000177455
0.0755109
0.000158066
0.000151982
0.000180014
0.0195493
0.000157717
0.00188751
0.000167288
0.000150437
0.0311718
0.0730542
0.000152414
0.00988884
0.0381631
0.0710346
0.0723217
0.000165381
0.00811174
0.000143622
0.000196866
0.0836653
0.000179496
0.0429342
0.000160179
0.0870343
0.000221196
0.0043646
0.0628482
0.0655395
0.00575133
0.0225273
0.0140933
0.0330469
0.000219038
0.0799308
0.000154307
0.0606824
0.085928
0.0273344
0.000183742
0.000154826
0.000161784
0.0548626
0.000265773
0.000165959
0.0662678
0.0852027
0.032518
0.0125622
0.000232679
0.000257294
0.00818498
0.00015557
0.00342063
0.0494074
0.000185259
0.0790393
0.000159391
0.000164074
0.000186723
0.0804164
0.0742886
0.000159204
0.000245702
0.000152883
0.0337663
0.000264671
0.0433672
0.0786581
0.0727655
0.0304753
0.000287591
0.00496778
0.0757898
0.000249894
0.000156495
0.000148045
0.000257227
0.000153758
0.0606102
0.0967972
0.0444868
0.00015119
0.000190297
0.000155979
0.00619312
0.00028412
0.0276731
0.0224798
0.00395997
0.000213745
0.000181335
0.000149163
0.000164886
0.00398235
0.00301329
0.000156454
0.000258856
0.000206813
0.0703169
0.000551052
0.0897824
0.000264318
0.000175944
0.0359712
0.000161204
0.051886
0.0690269
0.000187425
0.00447237
0.0669469
0.0663436
0.00312653
0.0896907
0.00117751
0.000185715
0.0614054
0.000160407
0.000154515
0.0748479
0.0929473
0.0164582
0.000305638
0.0103352
0.0119808
0.0501907
0.0853625
0.000159973
0.0906442
0.000324372
0.000202526
0.05977
0.000149545
0.00570344
0.000193663
0.03966
0.0250717
0.00230362
0.000150407
0.000215819
0.0152562
0.0947267
0.00999242
0.0480943
0.0528012
0.000163714
0.00350116
0.000227222
0.000163512
0.000167199
0.00161421
0.000254119
0.0551037
0.000211959
0.000285745
0.0348903
0.000158136
0.013597
0.000156264
0.0904189
0.00017209
0.00015145
0.0758248
0.000168185
0.00153418
0.00014923
0.000161939
0.0722263
0.000162118
0.000167845
0.000150652
0.0367185
0.00759856
0.000241926
0.0342849
0.0840647
0.0596694
0.000197355
0.000156129
0.00941397
0.000170746
0.0041689
0.000166118
0.0163623
0.0232753
0.000175843
0.000220142
0.0198849
0.000183084
0.000165056
0.0692939
0.0521094
0.000223547
0.0106257
0.000197568
0.0434443
0.0247131
0.000145466
0.000159656
0.00015187
0.00277463
0.0801514
0.0806528
0.0406478
0.0796889
0.065495
0.0483201
0.0275929
0.000148445
0.085041
0.086204
0.00016369
0.000482434
0.000266501
0.000170505
0.000978242
0.0828499
0.0739345
0.094799
0.000179533
0.000225371
0.0104492
0.0621173
0.00316065
0.00240593
0.000400591
0.0517412
0.0419846
0.0686797
0.00910558
0.0803791
0.0816441
0.000159213
0.0853937
0.000285777
0.000174166
0.0664222
0.000156382
0.000150886
0.0757286
0.000160759
0.000214466
0.0303039
0.000265356
0.000162399
0.0920927
0.0549638
0.0498792
0.000198386
0.0140853
0.000199158
0.000184551
0.0666842
0.00826268
0.00641453
0.000169539
0.0344856
0.000164394
0.0768564
0.000181037
0.000230566
0.000207384
0.00743163
0.000163242
0.000281331
0.0809952
0.000161974
0.0487169
0.0434084
0.051051
0.000285019
0.000153309
0.000386678
0.0611818
0.00439954
0.000163511
0.0124006
0.0354691
0.0965585
0.0076753
0.000241834
0.0282937
0.0636819
0.010751
0.000221715
0.0839612
0.000155144
0.0550129
0.000148756
0.00875942
0.000168723
0.0697412
0.091028
0.0514964
0.0641656
0.0186653
0.000204594
0.000241902
0.000257882
0.0662041
0.000171752
0.0876568
0.000317501
0.0264721
0.0165492
0.0328631
0.000750496
0.00023658
0.0833369
0.000195157
0.0797631
0.000182766
0.00014009
0.000395573
0.000258201
0.00554009
0.0379836
0.0819217
0.000844958
0.00588563
0.0781486
0.0849016
0.0891551
0.000168636
0.000166681
0.00749525
0.000158128
0.000182933
0.000408466
0.0663359
0.0728489
0.000156442
0.097022
0.000293221
0.000211444
0.0493067
0.0402879
0.000148806
0.0858598
0.000215646
0.00957824
0.000193411
0.0675944
0.0663906
0.000116558
0.0524115
0.000162982
0.0668581
0.0886062
0.0910084
0.0228829
0.048153
0.0889292
0.00384261
0.0553338
0.000233311
0.0650323
0.000203123
0.000394831
0.000163156
0.0812348
0.0483037
0.000184755
0.000148243
0.00681287
0.000250345
0.000163657
0.0109699
0.0542385
0.000155464
0.0907514
0.0921402
0.00335779
0.0715123
0.00709362
0.0940574
0.000225577
0.0639769
0.0951098
0.000194912
0.0830734
0.0484871
0.000261036
0.0508877
0.0938223
0.00059954
0.0415315
0.000290404
0.000168061
0.000160411
0.0565892
0.0631357
0.000200224
0.0530465
0.035602
0.00678901
0.0809509
0.0221718
0.00918948
0.0351485
0.000350462
0.0730251
0.000157631
0.049861
0.000151707
0.0828438
0.00015927
0.0751096
0.000488203
0.000150981
0.0689043
0.0294959
0.0489813
0.0475953
0.000226335
0.0677486
0.0370783
0.000144258
0.0257004
0.0120946
0.00015962
0.0350199
0.000160114
0.0490048
0.000163367
0.000161932
0.000151119
0.0606989
0.082825
0.0598671
0.0631879
0.000213256
0.0051158
0.0618386
0.000163434
0.000171601
0.0182118
0.097159
0.000175329
0.0529284
0.000842248
0.0709476
0.0832199
0.0924149
0.0313361
0.000189991
0.0669734
0.000238541
0.0615833
0.000188362
0.000182267
0.0692979
0.0616704
0.00104313
0.000283893
0.00015863
0.000149524
0.00015195
0.000163705
0.0442798
0.0866444
0.000164472
0.00912588
0.000205396
0.000236983
0.0289156
0.0837317
0.000151047
0.00269661
0.000172804
0.0715527
0.000199611
0.000257202
0.000151481
0.00016728
0.000229486
0.000149735
0.000220796
0.0126859
0.0374008
0.000180987
0.000202034
0.0610441
0.0821015
0.0355067
0.000177626
0.0123026
0.098355
0.000146415
0.0958397
0.000805454
0.0857135
0.000214608
0.0185017
0.0864576
0.045322
0.000205305
0.000215233
0.0517224
0.0430294
0.0604164
0.0169411
0.0125188
0.0661507
0.000264869
0.0889562
0.000176852
0.0439705
0.00826618
0.0910949
0.0746368
0.074833
0.000158867
0.0052344
0.000219598
0.000150115
0.000260887
0.000190943
0.000155397
0.000247026
0.00749675
0.082608
0.0579725
0.0618929
0.0850007
0.000546748
0.0112862
0.07779
0.00248035
0.000160052
0.0839913
0.000182611
0.00132015
0.00117489
0.0841971
0.000869461
0.0859218
0.0578484
0.00961125
0.000229928
0.0527793
0.0257498
0.0782475
0.000258913
0.0687034
0.0189266
0.0502583
0.0165309
0.0485677
0.0737973
0.0974417
0.000246146
0.0830219
0.000199103
0.000530165
0.000158155
0.0273584
0.0775058
0.082742
0.000222664
0.000166394
0.00979788
0.0728627
0.00021886
0.00031305
0.000243872
0.000151623
0.0732642
0.000156373
0.000158164
0.0967167
0.000234561
0.000169129
0.0828276
0.0159954
0.0839607
0.00014761
0.0751686
0.0358728
0.000163592
0.000904362
0.000167946
0.000242726
0.000226739
0.000174977
0.000238142
0.000240771
0.0840605
0.00862006
0.0792673
0.0754111
0.0342893
0.000213891
0.0828901
0.000211503
0.0202408
0.00016044
0.01277
0.000202957
0.0402428
0.000274448
0.000158964
0.00677126
0.000222194
0.0299484
0.0838298
0.000151429
0.0415392
0.00162204
0.000242884
0.0250478
0.065172
0.000216909
0.000184987
0.000258745
0.000250827
0.000193436
0.000222556
0.0732914
0.0301001
0.0773784
0.0916545
0.000223492
0.000244508
0.00789861
0.0685933
0.0780625
0.00023359
0.000206584
0.094876
0.000197226
0.0439263
0.0611563
4.03742e-05
0.00416195
0.000157137
0.00417464
0.0817391
0.000203838
0.0329686
0.0672716
0.00244229
0.000210504
0.000145117
0.00666394
0.0829612
0.000214894
0.000167164
0.0393797
0.000162097
0.000249704
0.000278542
0.000211869
0.0830271
0.000583628
0.0607382
0.000293949
0.0608667
0.0701264
0.000252658
0.00273176
0.000240239
0.0361857
0.0711052
0.000190065
0.000197215
0.000191785
0.000264385
0.000180496
0.000162152
0.00024816
0.00628703
0.0652123
0.000178561
0.000251008
0.0897025
0.0844372
0.0142154
0.0607872
0.0294117
0.00056615
0.000156349
0.000256378
0.0368355
0.00014936
0.0705957
0.0769861
0.000293368
0.000196918
0.0179256
0.0349393
0.000158913
0.0796518
0.000157463
0.000157565
0.0175499
0.0198915
0.000363508
0.000205545
0.000270528
0.0143722
0.0610299
0.0870434
0.000539492
0.00101596
0.000152652
0.000268343
0.0848874
0.0348195
0.0112074
0.0209911
0.000219535
0.00248415
0.000172116
0.0595389
0.0746221
0.000163092
0.000232364
0.000187828
0.0712921
0.0158599
0.0919386
0.000157755
0.00021504
0.0254923
0.0534915
0.0825021
0.000333826
0.000159714
0.000177941
0.0609291
0.0689786
0.000295471
0.0850432
0.0806957
0.00620225
0.000151322
0.0826139
0.00249882
0.0001573
0.0569573
0.000241476
0.00935251
0.000157616
0.000182822
0.000165752
0.0631374
0.0485647
0.0713067
0.0441959
0.000180635
0.00346803
0.000192299
0.00854857
0.000198071
0.0711069
0.000262848
0.000156045
0.000163023
0.000271437
0.000187496
0.000221259
0.000205002
0.000156468
0.0221124
0.000158689
0.0463163
0.000215835
0.000156366
0.0109127
0.000147116
0.000154633
0.0570505
0.000204724
0.000182429
0.000158515
0.0913546
0.0783503
0.00634483
0.000150944
0.000172476
0.0326578
0.0180459
0.0910411
0.0447765
0.0503062
0.0421228
0.000187716
0.000157266
0.0679291
0.0010809
0.000213713
0.0438187
0.00019449
0.00022621
0.000176147
0.000191821
0.0799884
0.000162502
0.000155817
0.0587832
0.00016092
0.0614462
0.000163003
0.00791866
0.000296405
0.000162792
0.000157684
0.0570537
0.010661
0.000189584
0.000532227
0.000178943
0.00014388
0.0147842
0.0487938
0.000165762
0.0201269
0.0807179
0.000198405
0.000179045
0.00685984
0.00472724
0.000286077
0.000148519
0.000312015
0.000161656
0.083024
0.010913
0.000149673
0.000160449
0.000203121
0.0293624
0.00078075
0.000214372
0.000718527
0.000410849
0.000161419
0.000245119
0.000149647
0.0833044
0.000443646
0.000161657
0.0453135
0.0660767
0.00023804
0.0447424
0.0930268
0.000190372
0.00670733
0.000307849
0.000191106
0.0618318
0.000195555
0.000181291
0.000708194
0.000609457
0.0002493
0.0294848
0.023121
0.000150247
0.000189458
0.000151202
0.0172219
0.000230034
0.000190393
0.000167931
0.000193927
0.000169347
0.0936539
0.000168644
0.0128427
0.015284
0.0565131
0.0564189
0.0604692
0.000182866
0.0469967