/*--------------------------------*- C++ -*----------------------------------*\
| =========                 |                                                 |
| \\      /  F ield         | OpenFOAM: The Open Source CFD Toolbox           |
|  \\    /   O peration     | Version:  v2012                                 |
|   \\  /    A nd           | Website:  www.openfoam.com                      |
|    \\/     M anipulation  |                                                 |
\*---------------------------------------------------------------------------*/
FoamFile
{
    version     2.0;
    format      ascii;
    class       volScalarField;
    location    "700";
    object      nut;
}
// * * * * * * * * * * * * * * * * * * * * * * * * * * * * * * * * * * * * * //

dimensions      [0 2 -1 0 0 0 0];


internalField   nonuniform List<scalar> 
13308
(
0.00557951
0.00535385
0.0181192
0.00658726
0.000987616
0.00655294
0.000800136
0.00167452
0.000747657
0.00233117
0.0135769
0.00831537
0.00656034
0.00680718
0.00655078
0.0199921
0.00679538
0.0052733
0.00531192
0.00103032
0.00571143
0.0177842
0.0278335
0.00107607
0.019838
0.0228058
0.000876131
0.0151956
0.000914586
0.0011846
0.018044
0.00118517
0.0322161
0.000839578
0.00367952
0.00667091
0.00105987
0.0322551
0.00159057
0.0183603
0.00688821
0.00170882
0.00346995
0.00703044
0.00208312
0.000857535
0.0065595
0.00662776
0.00641713
0.0146011
0.00618276
0.00656407
0.0106173
0.0240314
0.00182923
0.00643141
0.00700293
0.00647229
0.00156753
0.00111987
0.00313225
0.0350444
0.00650631
0.0067741
0.00631033
0.0331147
0.00695226
0.00297212
0.00643939
0.00196196
0.0185609
0.00209807
0.00848942
0.00111672
0.0108073
0.00667707
0.0070488
0.00742
0.00703987
0.00772812
0.00453963
0.0071037
0.00671088
0.0012519
0.000579055
0.00164322
0.00114063
0.0192836
0.0138673
0.000931826
0.00238586
0.00698902
0.000970182
0.00567377
0.00647354
0.00665812
0.00183717
0.00797344
0.0191077
0.00172077
0.00238258
0.00682268
0.00668131
0.00563216
0.00306445
0.0143494
0.0194127
0.00640566
0.0238976
0.0235301
0.00159451
0.0020257
0.00638167
0.00706289
0.00629494
0.00663933
0.000880439
0.0207716
0.00101835
0.00637591
0.00085297
0.00560249
0.007116
0.0102767
0.0350926
0.00468403
0.000333713
0.00082964
0.00786682
0.0131009
0.0265309
0.00427328
0.00600036
0.0065964
0.000791377
0.00864963
0.00698332
0.0337723
0.0158278
0.00195831
0.0100374
0.00134068
0.00701925
0.00658121
0.00223977
0.00249854
0.00542231
0.00120153
0.00441668
0.00397465
0.00240323
0.00623903
0.00266319
0.0038105
0.0296498
0.0107567
0.00634025
0.00716088
0.00684836
0.0434852
0.00626616
0.00650791
0.00700284
0.0359442
0.00841429
0.00467124
0.0222374
0.00716698
0.0262976
0.0014172
0.00143332
0.0222516
0.00607531
0.0103078
0.0015031
0.022472
0.0174764
0.0163511
0.00425986
0.00635453
0.0157269
0.00656717
0.00693582
0.00480308
0.0273611
0.00710872
0.00622695
0.020756
0.00110488
0.0199785
0.0178639
0.000837847
0.00202562
0.00491334
0.00219117
0.0206671
0.00146163
0.0014498
0.0188785
0.00211353
0.020544
0.00871413
0.00277078
0.000813382
0.0151936
0.000869442
0.0170212
0.0133097
0.0209234
0.00211878
0.0195224
0.00276239
0.00114293
0.0114972
0.0295425
0.00571487
0.00636525
0.0179301
0.041918
0.0134047
0.0207251
0.00635801
0.00709025
0.007068
0.00555334
0.0143163
0.0035601
0.0100394
0.0071913
0.00142386
0.0130929
0.00572417
0.0161663
0.00145978
0.00450719
0.00132942
0.0116288
0.0400324
0.0293498
0.00571542
0.00134831
0.00388805
0.00565259
0.00685356
0.0224208
0.032037
0.00255115
0.00164374
0.00707664
0.0257778
0.0312645
0.0344498
0.00669781
0.0348092
0.0238693
0.00567141
0.00373718
0.00635204
0.0177955
0.00674042
0.00122579
0.00153713
0.00112755
0.00669416
0.00577086
0.00517243
0.0051872
0.00699394
0.0245839
0.0202784
0.0027028
0.00078503
0.00669001
0.0148518
0.00700744
0.00615511
0.00662639
0.0407201
0.000941103
0.00321192
0.0248775
0.0064645
0.0103124
0.00565058
0.0227484
0.00994768
0.00672987
0.00498047
0.00179538
0.0226036
0.000887592
0.00712183
0.00100968
0.0086686
0.00703723
0.00231443
0.00867738
0.00172272
0.00243448
0.0151201
0.0336933
0.00600138
0.0259126
0.00142574
0.000249444
0.00698813
0.00116572
0.0106693
0.000711095
0.00711107
0.0176603
0.00286327
0.00100978
0.00158725
0.00280179
0.0016721
0.00629205
0.00704803
0.00673028
0.00099123
0.00688112
0.00709094
0.0121171
0.00702918
0.00644338
0.00650719
0.00566863
0.00377677
0.00196342
0.00456602
0.0323492
0.00684639
0.000746826
0.00697175
0.00653567
0.0267167
0.0203747
0.00712702
0.00380138
0.00201247
0.000938769
0.00401454
0.00702786
0.000860452
0.0202622
0.0210684
0.00240126
0.00301699
0.00161043
0.00567068
0.00106578
0.021161
0.0141028
0.00706533
0.00578214
0.00653458
0.00515045
0.00711432
0.00280426
0.0270339
0.0032079
0.000870599
0.0010691
0.00347111
0.0136771
0.0315912
0.00700914
0.0069023
0.0064213
0.00125803
0.0207831
0.00250709
0.00178674
0.00627567
0.00645955
0.00324555
0.0350411
0.0342568
0.00399321
0.0461062
0.00224415
0.00693737
0.0356888
0.00105992
0.00663485
0.0122013
0.00214696
0.00131174
0.00697795
0.00327173
0.00573398
0.00581885
0.0046291
0.0203613
0.022049
0.00147808
0.031683
0.00705917
0.0220672
0.00258202
0.0358936
0.00629496
0.00170449
0.0341115
0.00712128
0.00208968
0.00634177
0.00712977
0.0222295
0.0137595
0.00681783
0.00145834
0.00238085
0.00703685
0.00702321
0.0353471
0.00231192
0.00703536
0.0013376
0.00232722
0.00578681
0.00638202
0.0010967
0.00466705
0.00621803
0.0204763
0.0016993
0.00208858
0.0244467
0.034474
0.0136536
0.00711649
0.00475666
0.0416854
0.00693527
0.00700495
0.0350599
0.0069899
0.000914367
0.0169682
0.0215658
0.0159189
0.0166463
0.00641152
0.0103693
0.00119734
0.0185512
0.00949169
0.00698751
0.0267916
0.0058628
0.0376594
0.00572579
0.0153898
0.00137331
0.0013443
0.00108362
0.0113498
0.0341676
0.00175648
0.0337569
0.00968955
0.00662605
0.00271021
0.00644689
0.00434337
0.00712103
0.00333609
0.0070729
0.020582
0.00471572
0.00463225
0.0369816
0.00336275
0.0126422
0.0341569
0.00390356
0.00136006
0.0480635
0.00703025
0.0318854
0.00573359
0.0363149
0.00690389
0.0026791
0.00355571
0.0067729
0.0311189
0.00140128
0.0069829
0.00710016
0.0016228
0.0307954
0.00703992
0.00711259
0.00277724
0.00655166
0.0263288
0.0233832
0.0410733
0.0143776
0.00580525
0.00313098
0.00416014
0.00132211
0.00655511
0.00223624
0.0165142
0.00619222
0.0266587
0.0040188
0.0048706
0.00204534
0.00698273
0.00100926
0.00104269
0.00101018
0.00628502
0.00676589
0.0340885
0.0110569
0.0135545
0.0284912
0.0056173
0.00649307
0.00103757
0.00704659
0.00699089
0.0420356
0.0045083
0.00232895
0.000941771
0.0375303
0.0198525
0.00709208
0.0231233
0.0286242
0.00565749
0.00705935
0.0115227
0.00700672
0.00504066
0.00687305
0.00145321
0.00179342
0.00717723
0.0224263
0.0165692
0.00698455
0.00678306
0.0362491
0.0130956
0.0204388
0.00694108
0.0310944
0.046852
0.0158202
0.00811147
0.0331744
0.0159551
0.00528423
0.00684065
0.00677029
0.00929595
0.00705049
0.00110474
0.0101754
0.00402067
0.0282444
0.0236303
0.0204107
0.00701936
0.0070592
0.00702304
0.0400368
0.00100836
0.00708936
0.00276058
0.0362864
0.00666806
0.0201801
0.00458044
0.00590825
0.00168296
0.00698925
0.00701082
0.00703308
0.0019081
0.00100298
0.00636507
0.0220689
0.00701229
0.00686884
0.00706239
0.00634578
0.0289336
0.0350641
0.00712765
0.00577195
0.00208649
0.00639441
0.00709629
0.00458343
0.00645402
0.00250779
0.000880923
0.00713315
0.0292123
0.00540498
0.00515627
0.00190366
0.00114489
0.000923538
0.00642633
0.014211
0.0380197
0.00117426
0.0065002
0.0449508
0.0306068
0.00178426
0.00704069
0.004699
0.0395837
0.00397893
0.00321353
0.00490812
0.00676044
0.00180088
0.00432656
0.00579733
0.0155771
0.0390113
0.0148271
0.0106622
0.03855
0.00177829
0.00155282
0.00600114
0.0262211
0.00679198
0.00703768
0.00902341
0.00285432
0.0010146
0.0286684
0.00104019
0.00227715
0.00704155
0.0297626
0.0002013
0.00653092
0.0198812
0.0023125
0.0319159
0.00697957
0.00699373
0.00308511
0.0156047
0.000882302
0.0371198
0.00727626
0.00262275
0.00392777
0.00577075
0.00478033
0.00328311
0.00653734
0.0183251
0.0230679
0.0117489
0.00693723
0.0300077
0.00654496
0.00698895
0.0235959
0.0150511
0.000662354
0.00605895
0.00338537
0.00108643
0.00455136
0.0056567
0.00704968
0.00506271
0.00653353
0.0240016
0.0267381
0.000555997
0.000678067
0.00711541
0.000687013
0.00603066
0.00112652
0.0011176
0.00596403
0.00709938
0.00662022
0.00710901
0.0449317
0.00694425
0.00521317
0.0207968
0.00178049
0.00107386
0.00696154
0.00390506
0.0385326
0.00287002
0.0063467
0.00685495
0.00703162
0.0041597
0.00647377
0.00192979
0.0012567
0.00691996
0.00709492
0.00688359
0.00702971
0.00706585
0.00149738
0.00708617
0.0146313
0.000680094
0.00678614
0.00468545
0.00477092
0.00134
0.0270957
0.00685032
0.00198406
0.00692665
0.00343228
0.0145328
0.00124863
0.00150706
0.0203306
0.0256315
0.0015011
0.00699964
0.0212595
0.00398789
0.0281064
0.00701098
0.00681718
0.00190697
0.00706242
0.00710875
0.00190463
0.000988786
0.0047802
0.0117952
0.0232822
0.0186616
0.00651722
0.00616523
0.00102828
0.0008186
0.00111097
0.0070409
0.00380542
0.00541985
0.0283621
0.00694729
0.00667487
0.0158174
0.0261347
0.00103404
0.00342358
0.00704031
0.00702284
0.0067662
0.00131397
0.00702268
0.0024673
0.00656682
0.0311203
0.00679652
0.00287217
0.0278703
0.00559923
0.00712256
0.00676683
0.00705046
0.000720423
0.0228559
0.00138402
0.0288237
0.00555231
0.0038778
0.00572221
0.0250708
0.00158626
0.00584655
0.00689106
0.0170294
0.00699088
0.00556024
0.00599209
0.0069321
0.00661644
0.00711004
0.00131387
0.00655335
0.0101473
0.00572282
0.0180277
0.00606244
0.00699554
0.0138476
0.00700972
0.00710865
0.047471
0.0275069
0.0105302
0.0165922
0.0129368
0.00144217
0.00328332
0.0235486
0.00704905
0.00147673
0.0209697
0.00727707
0.00660385
0.0298049
0.0214731
0.00687952
0.0142688
0.00704434
0.00106497
0.00455061
0.0356342
0.0436992
0.00392187
0.00654433
0.00119102
0.00204061
0.0363547
0.00392331
0.00686877
0.0200832
0.00545083
0.00212139
0.0070236
0.00685724
0.0185101
0.00611372
0.002318
0.0344949
0.00681514
0.00701325
0.0289778
0.032578
0.0143731
0.0174319
0.00479243
0.00693565
0.00708717
0.00511372
0.00554706
0.0184983
0.0258991
0.00351217
0.00378301
0.0127058
0.0314318
0.015254
0.0068866
0.00523876
0.00168065
0.0339949
0.00167603
0.00111101
0.00512802
0.00250785
0.000534862
0.00408557
0.00493585
0.0214334
0.0202599
0.000677539
0.00356476
0.000827343
0.00315907
0.00696484
0.00519596
0.00711557
0.0114767
0.00670857
0.00674455
0.00435717
0.00123533
0.00558023
0.00688768
0.0299733
0.0370235
0.0151528
0.00417753
0.00705511
0.0379497
0.00652532
0.00649908
0.024278
0.00703627
0.00703005
0.00269511
0.00135647
0.00664587
0.0331184
0.0287717
0.00752875
0.0169924
0.00698714
0.00617253
0.000900176
0.000707809
0.019837
0.00697087
0.0312336
0.00607728
0.00135081
0.0015436
0.00687055
0.00697925
0.000990877
0.00644667
0.00706449
0.00642888
0.0353889
0.025912
0.00631583
0.0308771
0.0126669
0.00318447
0.00135758
0.00694574
0.00599368
0.0058479
0.0466494
0.00242647
0.0207019
0.0125858
0.0444472
0.0067645
0.00112076
0.00121094
0.00123412
0.00116217
0.00279418
0.00827902
0.0431384
0.00642958
0.00987449
0.0408683
0.00637613
0.00104509
0.00698678
0.00196411
0.00637308
0.00489319
0.000904616
0.030647
0.0062083
0.00195794
0.0399843
0.0064968
0.00457815
0.00471096
0.00278813
0.00128116
0.00615293
0.000917231
0.00699789
0.00647456
0.0147174
0.00673686
0.0343684
0.00126186
0.00607782
0.00583345
0.0260111
0.00702653
0.00692411
0.002146
0.00886895
0.00361399
0.00584067
0.0124709
0.0159058
0.00117753
0.00097596
0.00576361
0.00697738
0.00650909
0.0126217
0.0145727
0.0093252
0.00237187
0.00426458
0.00636377
0.001527
0.001449
0.00204472
0.00687421
0.0043534
0.00788689
0.00698787
0.00713585
0.002138
0.00622262
0.0062665
0.00699972
0.00758617
0.000784451
0.0405599
0.0234971
0.00184471
0.00216204
0.00330506
0.0438901
0.00664674
0.031546
0.00654854
0.0201068
0.00379727
0.00322481
0.0012492
0.00321553
0.0334088
0.00657075
0.00620038
0.0062011
0.00504443
0.00622701
0.0322029
0.0147234
0.0286693
0.0193892
0.00281525
0.0211578
0.00709176
0.00699231
0.00607597
0.00222825
0.00217091
0.00373143
0.00692109
0.0183657
0.00680185
0.0421053
0.0277486
0.0102611
0.00674724
0.00687815
0.00102971
0.00703716
0.00638301
0.00701189
0.0170091
0.00323229
0.0075158
0.00298529
0.00382522
0.0299895
0.00657946
0.0261284
0.00298618
0.00165304
0.00840189
0.0241237
0.00119839
0.0403902
0.033339
0.00832482
0.0281882
0.00662685
0.0188655
0.00654943
0.0214261
0.00215741
0.00652896
0.00704371
0.00377456
0.0303623
0.00498512
0.00617125
0.0210406
0.0162608
0.00703293
0.00170806
0.00377516
0.00191367
0.0137402
0.00314483
0.00691528
0.00711419
0.00244618
0.00679429
0.0304254
0.00272466
0.00698062
0.0205805
0.00655576
0.000910413
0.033635
0.00106994
0.0183977
0.00541771
0.00700419
0.00116675
0.0233443
0.00170687
0.00337268
0.00497389
0.00711199
0.00707467
0.0015002
0.0192102
0.00703984
0.00181779
0.00659827
0.00116823
0.0167091
0.00145279
0.0287926
0.00674597
0.00431014
0.0256062
0.00429497
0.00495655
0.0191119
0.00317359
0.00610231
0.00503436
0.0337234
0.00202352
0.0185076
0.00157138
0.00114606
0.0298383
0.0013955
0.00434301
0.00198944
0.00695602
0.00116347
0.0011015
0.00616748
0.00114342
0.00391595
0.00673593
0.00508343
0.00660731
0.00224269
0.00274234
0.00693349
0.0070448
0.00112357
0.0143101
0.00470895
0.00697085
0.00160107
0.00710456
0.0176802
0.0202502
0.0158989
0.00482387
0.0426048
0.00664747
0.00189432
0.00774684
0.0242707
0.00736663
0.014109
0.0120715
0.00416779
0.00676155
0.00694192
0.00155986
0.00459165
0.0165539
0.00702968
0.00648174
0.0247928
0.0107969
0.000773294
0.00629503
0.00301083
0.00275464
0.00672381
0.00688551
0.0296303
0.00360799
0.00135825
0.0352428
0.00107305
0.00698193
0.00661919
0.00686357
0.00145061
0.0364784
0.0374562
0.00370646
0.00238339
0.00706005
0.00696578
0.00273441
0.0229176
0.00566095
0.00707353
0.00379414
0.0321843
0.0266588
0.00575977
0.00706586
0.00494267
0.0414766
0.00701462
0.00112465
0.00108504
0.0403303
0.0148782
0.0191241
0.000872797
0.0255808
0.00131492
0.0274365
0.00411857
0.00324361
0.00695275
0.00253747
0.0352519
0.0183002
0.00277805
0.0310457
0.00568701
0.0203774
0.0276399
0.0133799
0.0050034
0.0205172
0.00374178
0.000998003
0.00488905
0.00605462
0.00725719
0.00331515
0.00495939
0.0350546
0.0154302
0.0244484
0.00493758
0.00679519
0.0211853
0.00180288
0.00419409
0.00690287
0.00106841
0.0309319
0.00149643
0.0416089
0.00108389
0.0214912
0.00202886
0.00887328
0.0442717
0.00231074
0.0137111
0.00731167
0.00379307
0.0329239
0.00623624
0.00213546
0.000914566
0.00141175
0.0198997
0.0221401
0.00668766
0.0374918
0.00663103
0.00701591
0.00301709
0.0258877
0.00962411
0.0183886
0.0069385
0.00669288
0.0159411
0.00702901
0.0233125
0.0057931
0.0197965
0.0169524
0.00675971
0.00096281
0.00718769
0.00842165
0.0142382
0.00477916
0.00139399
0.00702236
0.00194722
0.00457789
0.00103864
0.00652339
0.00642948
0.0151441
0.00713382
0.00184643
0.00336331
0.00702781
0.00580061
0.00647522
0.0325694
0.0210371
0.00707399
0.00710521
0.00106032
0.0242841
0.00183666
0.00202956
0.0290387
0.00673589
0.0215665
0.0331453
0.0428241
0.00691637
0.0033351
0.0108517
0.020147
0.00466304
0.00700877
0.014706
0.00700769
0.0330349
0.00555891
0.00711094
0.0179861
0.02777
0.00216904
0.000871709
0.00625924
0.00131799
0.00815174
0.00248712
0.00837033
0.00705835
0.00413144
0.000835328
0.00679307
0.00296613
0.0227844
0.00273882
0.0190301
0.0212578
0.00674525
0.0361918
0.00664988
0.00709802
0.00156373
0.0185917
0.00484917
0.00567036
0.021543
0.00679107
0.00700819
0.0145738
0.02002
0.0146756
0.00710242
0.0106851
0.00693282
0.00670256
0.00665214
0.0164105
0.00613972
0.00496815
0.0023447
0.00404704
0.00153976
0.0110473
0.0319325
0.0317701
0.0221386
0.00674144
0.00645486
0.00671779
0.00082871
0.00319645
0.00347566
0.0147126
0.00695104
0.0368243
0.0352686
0.00469402
0.00250709
0.00660993
0.00611828
0.0330921
0.00365415
0.0070683
0.00682083
0.00793448
0.00122435
0.00804483
0.00578863
0.0265953
0.0055903
0.0104652
0.00842024
0.00138044
0.00653312
0.021273
0.00183482
0.00396042
0.00145389
0.00950181
0.0383391
0.00701783
0.0191753
0.00667228
0.00695716
0.000949297
0.00684765
0.0292804
0.0205725
0.00134584
0.0318259
0.0177886
0.00276563
0.028469
0.0112275
0.00324512
0.00107985
0.00620775
0.00676101
0.0410054
0.00697897
0.0427406
0.00520555
0.00139221
0.00309542
0.00705184
0.0211532
0.00110191
0.00793833
0.0216377
0.0211582
0.00102143
0.00701764
0.0432774
0.0069051
0.0396481
0.0081658
0.00197838
0.00537195
0.00704258
0.0212407
0.0070439
0.000977569
0.00136856
0.00773258
0.00687971
0.00202893
0.00706028
0.00918306
0.00711205
0.0336905
0.0378721
0.00441981
0.00561801
0.000889162
0.0354964
0.0218934
0.00708611
0.0199668
0.000977575
0.00428445
0.0301769
0.00705752
0.00102338
0.0356824
0.00394387
0.000848577
0.00713014
0.00901747
0.0364177
0.011105
0.00129581
0.00701679
0.0289292
0.00795725
0.000964395
0.0263258
0.00280279
0.0157909
0.00113084
0.00703534
0.000996784
0.0342861
0.00142731
0.00121577
0.00707906
0.0010207
0.00208359
0.000872001
0.0430483
0.0230083
0.00431811
0.00711333
0.0309813
0.0066427
0.00146621
0.00705815
0.00417386
0.0153917
0.024995
0.00104213
0.00707526
0.00645322
0.0272916
0.0159942
0.0358474
0.0012646
0.0323753
0.00510552
0.0286948
0.00100065
0.00288689
0.00697529
0.00676553
0.00708819
0.00320786
0.00706704
0.00665223
0.00882378
0.020345
0.0412107
0.0366907
0.00698762
0.00919291
0.00568441
0.0134265
0.0068937
0.0322625
0.00670647
0.00692656
0.0131358
0.0308407
0.00645465
0.00483505
0.00689324
0.0301916
0.000956037
0.0108405
0.0018464
0.034411
0.00400708
0.0367102
0.019916
0.00700212
0.00238227
0.00753919
0.00427274
0.00664069
0.00146674
0.00709415
0.00679599
0.00685285
0.00700578
0.00324565
0.00665099
0.00617855
0.00559262
0.0139834
0.0146963
0.0065891
0.00685916
0.0173077
0.00705802
0.0200737
0.00685811
0.00721702
0.0076925
0.00432958
0.00178067
0.00448389
0.00404645
0.00297419
0.00127617
0.000979789
0.0208213
0.0377594
0.0124292
0.00123664
0.0174574
0.00182336
0.00701601
0.00132602
0.00693544
0.00126044
0.00293643
0.0201718
0.00704611
0.00705629
0.0263336
0.006751
0.000975957
0.0226856
0.0070922
0.0122346
0.00699746
0.00677336
0.0068591
0.0231643
0.00684694
0.0255819
0.0191384
0.00705242
0.00683682
0.00222688
0.0255993
0.0220867
0.00696863
0.00690906
0.0068042
0.00710524
0.00712895
0.00707554
0.00706463
0.00110172
0.00690827
0.00336826
0.0169096
0.00301965
0.00655491
0.00104438
0.00627974
0.0420288
0.000451744
0.005808
0.0469811
0.00691345
0.0205551
0.0382493
0.00690777
0.0136594
0.0155021
0.00670138
0.0071074
0.0158023
0.00588866
0.00711671
0.00263047
0.0133412
0.0248527
0.0228294
0.00546122
0.006594
0.0043627
0.0029766
0.00264436
0.00648632
0.00131769
0.00707003
0.000863164
0.00217066
0.00694037
0.00397509
0.0154536
0.0225105
0.0148747
0.00659096
0.0202638
0.00649324
0.0309821
0.0194596
0.00686914
0.00695506
0.0174521
0.00363229
0.00495491
0.00655416
0.00311241
0.0119587
0.030685
0.00667024
0.0294313
0.0385594
0.00171737
0.00430457
0.010307
0.0100106
0.0317344
0.0151965
0.0044667
0.0387438
0.0152885
0.0214215
0.0183839
0.00398833
0.0198067
0.00191336
0.0145011
0.0202978
0.00560129
0.00633987
0.00291369
0.0139611
0.0163425
0.000895968
0.00700428
0.0287338
0.00346679
0.00407605
0.0211718
0.00502149
0.00529462
0.0351032
0.00696535
0.00709573
0.0329219
0.0228289
0.0215072
0.00283118
0.00452618
0.00313749
0.00242605
0.0111667
0.0112026
0.023517
0.00703899
0.0132552
0.00620298
0.0208012
0.00689675
0.00690751
0.0298726
0.0063103
0.0224999
0.00222811
0.00855359
0.00239558
0.0068498
0.00710858
0.0234986
0.0352191
0.00713754
0.0250781
0.0247399
0.001295
0.0144042
0.00713467
0.00669805
0.00558604
0.0232527
0.00694549
0.00722224
0.00496859
0.0071144
0.0224498
0.0252945
0.00708239
0.0124518
0.0213708
0.0408483
0.0200371
0.00211844
0.00822778
0.00670535
0.00102036
0.0269092
0.00646561
0.0164958
0.00625458
0.0337261
0.00148966
0.00911696
0.023792
0.0409476
0.0150725
0.020148
0.0156328
0.0201283
0.00131003
0.0308252
0.00655341
0.020815
0.0339205
0.0146052
0.00674677
0.00701047
0.00715104
0.0315556
0.000613778
0.00442456
0.0307605
0.0279067
0.0190079
0.0313464
0.000948494
0.00082908
0.0199296
0.00704148
0.00901839
0.022057
0.00142158
0.0143765
0.00712637
0.0068798
0.00210579
0.0312723
0.0199105
0.00711054
0.00632687
0.00708417
0.00618651
0.00065127
0.0111264
0.00920845
0.016199
0.0191083
0.00686119
0.0129542
0.0104934
0.00625707
0.0065482
0.00698011
0.00671462
0.00705406
0.026442
0.033873
0.0199539
0.00702414
0.00223354
0.00712253
0.00978633
0.0010611
0.0073558
0.0252466
0.0110072
0.00108231
0.00123241
0.00700812
0.00193067
0.0110359
0.000826067
0.00700231
0.00172735
0.0010907
0.0192001
0.00223228
0.025947
0.00108904
0.00270269
0.0236144
0.00296051
0.0210868
0.0256897
0.00697954
0.00981453
0.0369632
0.0234863
0.00736015
0.0275851
0.00187722
0.0015008
0.0214475
0.00693715
0.00702951
0.0196878
0.0361884
0.00914143
0.00723907
0.00699949
0.0145273
0.0219837
0.03158
0.00630009
0.0281994
0.00243118
0.00568633
0.0212291
0.00701564
0.00377428
0.00125974
0.00963356
0.00584815
0.00859229
0.00710951
0.000760561
0.00854684
0.0319498
0.0189157
0.0342368
0.020158
0.00703471
0.0102593
0.0014804
0.00297876
0.00699124
0.00511274
0.00102729
0.0198905
0.00705328
0.00146806
0.005174
0.00716738
0.0136098
0.00537786
0.0295438
0.00144297
0.00652549
0.0113149
0.00654892
0.00510097
0.00685874
0.00290093
0.0238219
0.00470264
0.00256439
0.00711305
0.00885198
0.0142595
0.00380585
0.00533549
0.0362727
0.0206518
0.00111731
0.00714807
0.00205899
0.001581
0.0113354
0.00680604
0.0423746
0.017075
0.00132636
0.00215132
0.0456092
0.00164657
0.00152333
0.0212167
0.0177795
0.00102065
0.00265821
0.00112722
0.0221751
0.00599892
0.00701994
0.00706941
0.00696209
0.0041229
0.0053928
0.0251604
0.0054837
0.0162282
0.0213745
0.019698
0.0198303
0.0068493
0.0361215
0.0392214
0.00711689
0.00321428
0.00116464
0.00632409
0.00641623
0.0191284
0.0230846
0.028077
0.00129063
0.00104893
0.000985266
0.0387634
0.00915513
0.00391034
0.0021963
0.0217946
0.00367386
0.0356302
0.0218493
0.00872363
0.0177849
0.00704171
0.0383943
0.00693927
0.00138148
0.0408854
0.00704793
0.00701434
0.0189328
0.00285627
0.00234031
0.0158935
0.00671575
0.0064887
0.03138
0.0204951
0.0215303
0.00417949
0.00323874
0.00699809
0.00100139
0.0174059
0.00649465
0.001498
0.00689082
0.00457472
0.00225578
0.0110777
0.00662583
0.00430053
0.00687793
0.00603331
0.00431033
0.00171633
0.0270436
0.00281426
0.0149748
0.0126335
0.0215997
0.000757872
0.00695393
0.00709298
0.012832
0.0117302
0.00696575
0.00232187
0.0225945
0.0336956
0.0145768
0.00164821
0.00400788
0.0350073
0.0301699
0.00159378
0.0223224
0.00714653
0.0106844
0.00685136
0.0282586
0.00606325
0.0192949
0.038039
0.0207355
0.0272892
0.0430959
0.00397316
0.00132359
0.00662054
0.0296417
0.00666941
0.0390483
0.00753277
0.00682403
0.0137374
0.00529074
0.00295998
0.00397697
0.0385189
0.00654677
0.0306685
0.0010913
0.00194266
0.00118818
0.00665906
0.0102322
0.00651994
0.0312607
0.00314331
0.00495672
0.0258387
0.023018
0.037869
0.00677867
0.00444449
0.0142271
0.00518641
0.00687804
0.00148377
0.0191901
0.0208965
0.00609312
0.0297638
0.000977741
0.00178732
0.0219018
0.0229784
0.00684787
0.0301927
0.00162836
0.00925825
0.00130852
0.0149981
0.0165773
0.00179269
0.0193489
0.00705652
0.0235151
0.0287846
0.0287692
0.00236272
0.00838727
0.0325274
0.0105884
0.0207453
0.00585413
0.0256
0.00131168
0.00199091
0.00292209
0.0278053
0.013602
0.00495487
0.00687104
0.0132415
0.00668773
0.00691969
0.0104679
0.0182611
0.00703345
0.0323885
0.0368658
0.00103489
0.0174124
0.0228157
0.0362352
0.000691447
0.025258
0.0348758
0.006791
0.0254476
0.0171689
0.00568258
0.0208584
0.0295254
0.00434321
0.00903691
0.00201532
0.00203788
0.00714744
0.0106845
0.0160917
0.000972375
0.0207797
0.00500177
0.0141862
0.0393785
0.0345176
0.0275228
0.00706802
0.0051303
0.0244916
0.00537199
0.0202858
0.00700653
0.0326854
0.00304512
0.0189116
0.00385583
0.0069902
0.0156609
0.0156205
0.0210479
0.0182451
0.00147952
0.0189989
0.00523886
0.00679822
0.00891171
0.00366495
0.00292339
0.00510582
0.00461655
0.0107993
0.00623719
0.0062836
0.00710995
0.0212399
0.030069
0.0265232
0.00862209
0.00197267
0.0127756
0.0220248
0.00712367
0.00655761
0.00336962
0.0310368
0.0069734
0.0187827
0.00274371
0.0192587
0.0298966
0.0349677
0.0106377
0.000938829
0.0252366
0.00607358
0.0237691
0.00709343
0.00582804
0.0218473
0.0401105
0.00321072
0.00308303
0.00626327
0.00709165
0.00711052
0.00262777
0.00961548
0.0230792
0.00709207
0.028129
0.000628686
0.00477789
0.0474282
0.0300837
0.00711278
0.00810024
0.00666357
0.0373354
0.00236196
0.00437718
0.00703087
0.00264117
0.00147375
0.00710192
0.00165354
0.00237567
0.00669534
0.00114593
0.00099605
0.022023
0.0391854
0.00583186
0.00233983
0.0167442
0.0299446
0.00710412
0.030155
0.00295784
0.0334173
0.00184441
0.0458657
0.0294062
0.0109151
0.00181012
0.00139626
0.0170391
0.00943008
0.0214686
0.0416015
0.0165021
0.0422865
0.00114228
0.0286763
0.00659574
0.0315568
0.0112005
0.0299426
0.0195586
0.017096
0.0071292
0.00540069
0.00558169
0.00690738
0.000850211
0.00101359
0.00508771
0.00669084
0.00499825
0.029414
0.0308375
0.0305861
0.0267504
0.00419086
0.0282516
0.0260595
0.00834991
0.00713634
0.0262015
0.00108789
0.00311866
0.000325513
0.0356076
0.00186075
0.0223591
0.0331562
0.00454634
0.00139021
0.0196858
0.00286904
0.0283677
0.000499564
0.0330061
0.046399
0.0209473
0.00690481
0.0146149
0.0377393
0.0300073
0.00116268
0.0390112
0.00142805
0.00329882
0.00521237
0.030014
0.0243043
0.0263697
0.00122365
0.00615423
0.0265134
0.015638
0.00144666
0.0017012
0.00226888
0.00710995
0.0130173
0.00644379
0.00705092
0.0256106
0.00156927
0.00174439
0.0140239
0.0124801
0.0255298
0.0070934
0.0382646
0.00489236
0.00611546
0.00447177
0.00683122
0.00659117
0.00411364
0.00585993
0.00338364
0.00658594
0.0287787
0.0274232
0.0268189
0.0176918
0.00554759
0.00147686
0.026122
0.00203808
0.0316895
0.00705538
0.0153023
0.00101474
0.00794618
0.00096824
0.00638211
0.00134598
0.000970049
0.0209635
0.0392006
0.00701792
0.00845128
0.000505647
0.000993399
0.0161566
0.0220267
0.0017854
0.00572837
0.00109613
0.0014369
0.00579887
0.00100571
0.0170467
0.0334179
0.0185587
0.0275799
0.00158935
0.00134294
0.0224293
0.0270592
0.0102095
0.00141841
0.00108566
0.0275871
0.00283714
0.0214682
0.0387252
0.000423658
0.00339966
0.00631071
0.0114359
0.0142367
0.00608245
0.00507346
0.0180621
0.00393459
0.00204534
0.00672821
0.0128502
0.0258259
0.00454425
0.0065783
0.00707361
0.00473724
0.00166612
0.00457187
0.00197435
0.0289371
0.00210771
0.0261221
0.00303201
0.0210077
0.0438738
0.00129955
0.00836949
0.00589778
0.00607703
0.0267498
0.0010335
0.00116517
0.00115181
0.00106296
0.00578292
0.00715201
0.00125189
0.00126401
0.0241467
0.00574625
0.00153882
0.029051
0.0399712
0.0334815
0.0404834
0.00709535
0.00197511
0.00698954
0.00156159
0.00624671
0.00689108
0.0121955
0.0268033
0.00225912
0.00103389
0.00401988
0.0222192
0.00318432
0.040866
0.00713078
0.00631776
0.00404645
0.0478641
0.00527407
0.00120289
0.000742774
0.010935
0.0228806
0.0221749
0.00191338
0.00176234
0.00693957
0.00205805
0.0268439
0.0053453
0.0129441
0.0507962
0.00592019
0.00408782
0.00563265
0.0253866
0.0202591
0.00320934
0.00118191
0.00132013
0.0424082
0.00281443
0.0357645
0.00713435
0.00193626
0.02229
0.0208655
0.0351183
0.00343177
0.00694293
0.00554354
0.0220938
0.0212501
0.00521138
0.039398
0.0230549
0.0170784
0.00713427
0.0309625
0.00435776
0.00711699
0.0391428
0.00131042
0.00572692
0.00635156
0.00115262
0.00491498
0.040506
0.0269592
0.0179952
0.0105336
0.00109175
0.0103351
0.00649058
0.0157792
0.000858847
0.0162417
0.00113731
0.00562546
0.0066956
0.0010254
0.00109026
0.00421464
0.00111535
0.00699569
0.0374138
0.00712456
0.0137316
0.00137213
0.00705431
0.0360055
0.00693527
0.00707565
0.0203646
0.0068299
0.00373009
0.00709602
0.0249155
0.0293768
0.00576959
0.00712703
0.00679649
0.0197331
0.013325
0.0284812
0.0260786
0.00452989
0.00871155
0.00123378
0.00706524
0.0117121
0.00522257
0.00196135
0.0313432
0.000935013
0.00244707
0.00110654
0.00103493
0.0289128
0.00708304
0.00560225
0.00870366
0.00285177
0.0264882
0.002011
0.0149386
0.00098693
0.00439658
0.00709142
0.022124
0.0349196
0.0051181
0.0022832
0.00112203
0.00668822
0.0381665
0.014127
0.00702745
0.0316084
0.0384954
0.00137038
0.00102982
0.0212938
0.0025806
0.0014379
0.00684956
0.00123683
0.00715693
0.0328454
0.0086057
0.00701912
0.00619415
0.000940511
0.0130938
0.00147297
0.00648695
0.00327005
0.00198092
0.00711889
0.000893695
0.00685909
0.0305464
0.00184427
0.00703923
0.0247147
0.0178762
0.000941197
0.0179768
0.0361977
0.00109081
0.0163905
0.00132911
0.00672485
0.01858
0.00165691
0.00552264
0.00603394
0.00280259
0.000950166
0.0280523
0.0144705
0.00691786
0.00649775
0.00702163
0.0437909
0.00661358
0.00115247
0.00692403
0.00583747
0.00683609
0.0356122
0.00576273
0.00879366
0.0103619
0.0356556
0.0218374
0.035359
0.00107899
0.0122734
0.00833824
0.000911325
0.032681
0.00208429
0.0362045
0.0324409
0.00567436
0.000916052
0.00804147
0.0370785
0.00705764
0.00745978
0.00104406
0.000873381
0.0112115
0.0070257
0.0162192
0.0103887
0.0326079
0.00281405
0.00188104
0.00662454
0.00272514
0.00697547
0.0441173
0.022205
0.0246046
0.00687401
0.0270421
0.0143131
0.000881008
0.00713835
0.0337669
0.0315267
0.0115122
0.00399422
0.00202957
0.00209676
0.00696444
0.00559734
0.00134695
0.0120015
0.00221392
0.000872379
0.00229239
0.038689
0.0265579
0.00713491
0.00259874
0.00704808
0.00713646
0.00127821
0.0069934
0.00556664
0.02649
0.0183771
0.00419397
0.0147339
0.00485073
0.00202968
0.0360078
0.0065475
0.00227715
0.00704143
0.000986084
0.00241452
0.0326395
0.00966778
0.0362746
0.017042
0.00123783
0.00653648
0.0107079
0.00556572
0.00216925
0.0324372
0.000796854
0.00652062
0.00609259
0.00676454
0.001989
0.0138918
0.00189769
0.00570701
0.00236706
0.00315568
0.0162145
0.00251545
0.00407324
0.00640634
0.0271584
0.0409746
0.00218366
0.0254689
0.00655221
0.00377661
0.0071549
0.00335257
0.00685997
0.00237688
0.0334997
0.00826435
0.0147239
0.0010029
0.00150361
0.00769282
0.0010172
0.0214983
0.0116362
0.0216571
0.0302611
0.00684882
0.00711373
0.00712699
0.00301153
0.00132885
0.000572571
0.0224239
0.00560859
0.00558153
0.00194618