/*--------------------------------*- C++ -*----------------------------------*\
| =========                 |                                                 |
| \\      /  F ield         | OpenFOAM: The Open Source CFD Toolbox           |
|  \\    /   O peration     | Version:  v2012                                 |
|   \\  /    A nd           | Website:  www.openfoam.com                      |
|    \\/     M anipulation  |                                                 |
\*---------------------------------------------------------------------------*/
FoamFile
{
    version     2.0;
    format      ascii;
    class       surfaceScalarField;
    location    "50";
    object      ddtCorrDdt0(phi);
}
// * * * * * * * * * * * * * * * * * * * * * * * * * * * * * * * * * * * * * //

dimensions      [0 3 -2 0 0 0 0];
oriented        oriented;


internalField   nonuniform List<scalar> 
20823
(
5.60684e-05
-2.63131e-05
-2.97563e-05
-2.34698e-06
-5.57664e-05
5.81145e-05
1.77297e-06
-3.39542e-06
1.62282e-06
-1.66366e-06
-2.69092e-05
2.85729e-05
-6.02225e-05
5.28783e-05
7.34397e-06
2.28608e-05
-1.68279e-05
-6.033e-06
-5.06491e-05
3.91541e-05
1.14951e-05
-2.19483e-06
5.97033e-06
-3.77553e-06
-2.18605e-05
1.58313e-05
6.0286e-06
1.46333e-06
1.79517e-05
-1.94146e-05
0.000149638
-4.99776e-05
-9.96605e-05
1.38148e-05
-8.71168e-05
7.33027e-05
-4.01582e-05
-7.64723e-05
0.00011663
-1.09549e-05
1.69973e-05
-6.04276e-06
3.90254e-06
-2.71704e-05
2.32676e-05
1.54099e-05
-1.39463e-05
1.11505e-05
-1.33862e-05
2.23587e-06
-2.3083e-06
-1.69771e-06
4.00458e-06
3.4993e-07
1.38288e-05
-1.41787e-05
-8.10268e-07
7.81242e-07
2.87195e-08
6.12386e-05
-4.9993e-05
-1.12447e-05
-1.47749e-05
2.18966e-05
-7.12211e-06
0.000113813
3.08642e-05
-0.000144677
3.39535e-05
-3.59105e-05
1.95694e-06
-2.93524e-05
-4.36851e-05
7.30378e-05
-2.5599e-05
-1.59763e-05
4.1575e-05
-2.40746e-05
-4.30526e-05
6.71277e-05
-2.466e-05
6.12358e-06
1.85363e-05
-0.000220375
4.3662e-05
0.000176715
0.000313225
-0.000189703
-0.000123522
2.89156e-05
2.71525e-05
6.20388e-07
2.52523e-06
-3.14588e-06
2.39151e-05
-2.18438e-06
-2.17308e-05
-1.20336e-05
1.23836e-05
-4.82571e-05
-1.16656e-05
5.99231e-05
1.5673e-05
1.59476e-06
-1.72683e-05
-4.43828e-05
1.87839e-05
-7.2471e-07
-8.58937e-08
-4.86326e-05
4.13867e-05
7.24654e-06
-3.05272e-05
1.42911e-05
1.6236e-05
-2.56657e-05
3.8742e-05
-1.30762e-05
-1.9639e-07
1.36945e-05
-1.34964e-05
-1.86436e-06
-1.38626e-05
1.57263e-05
-5.17652e-05
2.72162e-05
2.45486e-05
4.53746e-06
1.61469e-05
-2.06843e-05
-6.85537e-05
3.92015e-05
1.07805e-05
5.04584e-05
1.34324e-05
-1.3626e-05
-4.70824e-05
3.03908e-05
1.66936e-05
6.52249e-05
-7.24267e-05
7.20182e-06
1.37069e-05
-3.27892e-05
1.90827e-05
-9.58568e-06
-2.33335e-05
3.29192e-05
1.80355e-05
-1.27957e-05
-5.23971e-06
7.59724e-05
-1.60652e-05
-5.99074e-05
-2.68673e-05
5.77428e-05
-3.08746e-05
-1.74501e-05
-1.30772e-05
-0.000201906
0.000138893
6.30131e-05
-1.11086e-05
-1.35513e-05
-6.84542e-05
5.39064e-05
1.45479e-05
-1.09918e-05
-1.99631e-05
3.0955e-05
-4.16169e-05
-5.46449e-06
-3.40857e-05
2.34958e-05
1.059e-05
-5.01591e-05
0.00012136
-7.12005e-05
-1.89346e-05
2.82016e-05
-9.26695e-06
-4.45597e-05
8.05996e-05
-3.60385e-05
-4.09783e-05
-7.77941e-05
0.000118772
-6.01014e-05
0.000182049
-0.000121946
-1.88424e-06
-4.25009e-07
-8.21535e-07
2.23886e-06
-1.41749e-06
1.07919e-05
-5.90498e-05
-1.90156e-05
5.42075e-05
-3.51911e-05
2.728e-05
-3.11911e-06
-2.41606e-05
-9.88459e-05
0.00021266
-7.74718e-05
6.50612e-05
1.24102e-05
-0.000189394
0.000129293
-3.27714e-06
1.89501e-05
-2.87707e-05
4.24779e-05
-1.37951e-05
1.89299e-05
-5.13508e-06
2.27577e-06
1.09804e-05
-1.32566e-05
-6.69092e-05
4.28355e-05
4.29206e-06
7.58341e-05
-8.01259e-05
8.84865e-05
-8.10546e-05
-7.43181e-06
-1.55113e-05
1.36464e-05
4.88952e-06
1.18656e-05
-1.67553e-05
-6.76456e-06
-1.1798e-05
1.8562e-05
-1.46783e-05
-1.94073e-05
-2.16273e-05
2.553e-05
-1.48955e-06
1.26399e-05
-2.30918e-05
-1.75608e-05
4.0653e-05
-4.75054e-06
2.25093e-06
2.49975e-06
-2.87556e-05
4.96805e-06
2.37875e-05
3.88374e-05
-3.54425e-05
-3.39432e-06
-1.55937e-05
2.87408e-05
-1.31464e-05
0.000164741
-0.000164739
-2.21207e-05
2.02764e-05
1.84427e-06
-6.81151e-07
3.62405e-05
-3.55595e-05
-6.5862e-05
2.13024e-05
-6.72527e-05
2.62744e-05
-0.000201962
0.000179314
2.26494e-05
1.43739e-06
-2.26965e-05
2.12594e-05
-2.96632e-05
-5.29027e-05
8.25703e-05
-3.0074e-05
-2.16914e-05
2.02964e-05
-2.75623e-05
7.26588e-06
5.53403e-06
-3.76123e-06
-2.00835e-05
1.20445e-06
1.8879e-05
-3.81949e-05
-3.45936e-05
7.27878e-05
1.55288e-05
-3.11739e-05
1.56439e-05
3.5562e-06
2.66568e-05
-3.02129e-05
1.1532e-05
-3.46237e-05
-7.33848e-05
-4.0875e-06
2.53474e-05
2.24392e-05
-4.77869e-05
1.17948e-06
-4.20248e-06
3.02299e-06
-1.46062e-05
2.8291e-06
1.17771e-05
1.5309e-05
2.72627e-06
-3.8918e-06
-1.07144e-05
-1.65688e-05
2.14583e-05
-0.000149609
0.000156117
-6.50619e-06
-8.61378e-06
2.891e-05
5.63333e-06
3.1809e-05
-3.74426e-05
-0.000200157
0.000212979
-1.28208e-05
-9.62877e-06
-2.19951e-05
3.16233e-05
-0.000152522
2.44092e-05
-2.40838e-05
2.5324e-05
-1.23999e-06
-2.60089e-06
3.78031e-06
8.07244e-05
-1.56635e-05
-3.87868e-05
-1.18621e-05
3.84866e-05
-7.33423e-05
3.48552e-05
-0.000120154
6.95579e-05
5.05969e-05
7.32308e-06
-1.82785e-05
-7.19574e-05
4.22978e-05
0.000217083
-0.000113004
-0.000104078
-2.39087e-05
3.96904e-05
-1.57811e-05
-1.98251e-05
-2.1791e-05
3.81441e-05
1.72939e-05
-5.54377e-05
-4.37534e-05
5.11827e-06
3.86358e-05
9.35934e-06
7.63802e-06
2.46176e-05
-4.01823e-06
-2.06001e-05
6.60625e-05
9.91006e-06
3.92237e-05
-3.34559e-06
-3.58781e-05
-0.000143595
4.78906e-05
9.57058e-05
-4.66215e-05
0.000103311
-5.66895e-05
1.04179e-05
-3.23382e-05
2.19203e-05
9.2534e-05
-4.47063e-05
-4.78261e-05
1.56009e-05
-1.20445e-05
-9.80696e-06
1.20825e-05
4.6164e-05
-4.76548e-05
1.48922e-06
-4.15308e-05
2.98936e-05
1.1637e-05
1.76413e-05
-5.08802e-05
3.32389e-05
1.28562e-05
-3.91696e-05
2.93872e-05
1.14e-07
-2.95025e-05
4.38253e-06
-4.20841e-06
-1.74452e-07
3.32088e-05
-2.75756e-05
-1.64104e-05
-3.22222e-05
-8.8391e-05
-6.41312e-05
0.000132224
-5.16821e-05
-8.05413e-05
2.61184e-05
1.16184e-06
-2.15727e-05
2.26305e-05
-1.05858e-06
2.09961e-06
-4.12635e-06
2.02657e-06
3.42283e-06
1.5612e-05
-1.90348e-05
6.71248e-05
-0.000170312
0.000103187
8.21778e-06
-1.04126e-05
-7.97962e-05
9.52341e-05
-1.54372e-05
-3.07231e-05
2.64846e-05
4.23814e-06
5.44102e-06
2.85123e-05
-2.19913e-05
-2.65087e-05
4.85008e-05
-6.97427e-05
4.25384e-06
6.5489e-05
-7.60764e-05
2.69123e-06
-8.43846e-05
2.27793e-05
6.16069e-05
-0.000177524
2.79157e-05
-1.48728e-05
-8.98729e-06
2.386e-05
-3.87046e-05
-5.04956e-06
2.95175e-05
-1.9556e-05
-9.96133e-06
2.77193e-05
1.66689e-06
3.1904e-05
-3.25848e-05
3.39408e-05
-1.84129e-05
8.97483e-05
-5.27472e-05
-3.70005e-05
-8.83228e-06
8.95464e-06
-1.22955e-07
-1.58713e-05
1.06259e-07
1.57656e-05
1.47168e-05
-5.35737e-06
-9.57884e-05
-0.000124585
8.70103e-05
-0.000236833
0.000149823
-6.33339e-05
-8.02608e-05
1.49096e-05
-1.95914e-05
4.6818e-06
-0.000203493
3.3359e-06
-1.91317e-05
7.64805e-07
1.83665e-05
-4.56305e-07
-2.82994e-05
1.00052e-05
-1.67706e-05
5.01976e-06
-5.92664e-06
9.06844e-07
-2.05912e-05
-2.09397e-05
9.84225e-05
-5.13789e-05
-4.70401e-05
-1.2632e-05
-1.6763e-05
2.93952e-05
1.26672e-05
-2.22964e-05
-5.8334e-05
-2.71686e-06
6.10496e-05
2.6422e-05
1.24154e-05
-1.84473e-05
2.18702e-05
-2.82259e-05
-1.44118e-05
2.94852e-07
1.41168e-05
6.00807e-05
-0.000100239
2.69215e-06
1.74894e-05
-2.01818e-05
8.5998e-06
-6.5823e-06
-2.01695e-06
5.7086e-05
-1.85996e-05
-1.06927e-06
-4.4925e-05
4.5995e-05
0.000162397
-9.10191e-05
-7.13777e-05
-1.47157e-05
-7.14578e-06
-7.66089e-06
3.35466e-05
-2.58865e-05
0.000157161
0.000156065
-1.70722e-05
-1.92234e-06
4.48104e-05
-4.28875e-05
-2.65736e-05
3.69914e-05
9.25392e-05
0.000124544
5.23308e-05
4.02047e-05
-1.57337e-05
-2.2956e-06
1.80296e-05
3.49764e-05
-0.000112771
2.60721e-05
-2.15347e-05
-1.9457e-05
2.15009e-05
-2.04392e-06
-1.12825e-05
-3.12955e-06
-1.3929e-05
-1.10922e-05
2.50219e-05
4.85877e-05
-8.67834e-05
1.96269e-05
-8.45595e-05
6.49351e-05
5.51951e-05
1.09192e-05
-6.61144e-05
6.35344e-05
1.69047e-06
3.33925e-05
-7.70777e-05
-1.47741e-05
1.62118e-05
5.21224e-06
-1.75207e-05
1.23085e-05
-2.11894e-06
2.25115e-07
1.8933e-06
-5.49178e-05
-8.10259e-06
6.30221e-05
-0.000178293
6.91734e-05
0.00010912
7.74331e-05
-2.2238e-05
-9.9755e-06
4.81194e-05
-1.98076e-05
3.58682e-05
-1.60607e-05
1.15783e-05
7.22917e-06
-1.88075e-05
-2.31269e-05
4.19239e-06
5.14001e-05
-9.80198e-05
3.10256e-05
3.26786e-05
-6.37045e-05
-1.36281e-05
-5.61142e-05
-3.52694e-05
4.67771e-05
-1.1508e-05
0.000186184
-0.000197121
1.09376e-05
2.26874e-05
-1.1109e-05
2.22709e-05
-1.18071e-05
-1.04641e-05
-5.78455e-05
2.0642e-05
3.72041e-05
1.89759e-05
-4.01522e-07
-1.8574e-05
-3.62359e-05
5.38777e-05
7.53459e-05
-4.26182e-05
-3.27281e-05
1.20886e-05
1.25287e-05
1.69083e-05
1.26094e-05
-0.000209608
4.35323e-05
0.000166076
1.9586e-05
-4.67645e-06
-1.6616e-05
0.000108612
-9.19954e-05
-7.22632e-05
-2.38713e-05
1.7566e-05
6.30548e-06
9.13097e-05
-0.000126764
3.54551e-05
-0.000122269
1.47182e-05
-3.06688e-06
-1.16523e-05
1.22902e-05
-2.62192e-05
6.28092e-05
-2.00266e-05
-4.27818e-05
2.62978e-05
0.000105926
-1.66728e-06
1.01819e-06
6.4964e-07
7.58055e-05
8.65921e-05
2.75336e-06
-2.70931e-06
-4.38488e-08
1.92076e-05
6.19639e-05
-8.11712e-05
-3.00819e-06
8.02811e-06
-7.61698e-05
8.99849e-05
1.3232e-07
1.05221e-06
-1.18445e-06
-1.01775e-05
-1.48847e-05
2.50622e-05
-2.7819e-06
1.96025e-06
-2.53099e-05
2.77583e-05
-2.44846e-06
3.31961e-05
6.52282e-05
7.56256e-05
2.44795e-06
-7.80732e-05
2.74241e-05
-2.71904e-05
-2.33241e-07
-3.39602e-05
8.29463e-06
-2.3775e-05
7.51349e-06
1.62609e-05
2.47788e-06
6.12203e-06
1.87371e-05
-9.85329e-05
-1.2619e-05
1.95708e-05
-6.95289e-06
2.40481e-05
-2.13559e-05
-1.24644e-06
1.22709e-05
-1.1025e-05
4.81842e-06
7.1572e-07
1.61374e-05
-1.59652e-05
-1.72728e-07
-3.68218e-06
-3.13156e-05
3.49972e-05
-2.78554e-05
8.33409e-07
-5.23575e-08
4.00478e-06
-6.10196e-06
2.09707e-06
-2.50997e-06
0.000188695
2.43746e-05
-3.56751e-05
1.13007e-05
1.31055e-05
-1.23733e-05
-7.32221e-07
-0.000169276
0.000197394
-2.81172e-05
-3.45111e-05
-2.3334e-05
2.55508e-05
-2.72147e-05
4.69054e-05
1.42645e-05
-6.11701e-05
-2.48638e-05
7.93547e-06
1.69276e-05
8.11491e-07
2.17807e-08
-3.32976e-05
2.3712e-05
-1.24495e-05
1.12027e-05
-0.000158415
8.33311e-05
7.50845e-05
-2.83621e-05
3.16377e-05
-3.27547e-06
-4.43852e-06
-2.41601e-05
2.85982e-05
-2.30367e-05
1.04155e-05
3.34529e-05
5.77087e-06
-4.86866e-05
0.000112867
-6.41796e-05
0.000228072
-0.000141061
2.32872e-05
2.06472e-05
-4.39336e-05
-1.02191e-05
7.98919e-06
2.22962e-06
-7.48642e-05
-9.51928e-06
2.82579e-05
-2.74512e-05
-8.06958e-07
1.89917e-05
-0.000188268
-1.907e-05
9.65814e-06
9.41085e-06
1.6799e-05
-1.15873e-05
-1.92583e-05
-5.46131e-05
7.38757e-05
6.68903e-05
-2.19969e-05
-4.48927e-05
-3.02996e-05
5.56469e-05
-3.08237e-05
4.08565e-05
-1.00326e-05
5.11641e-05
4.40707e-05
-6.15231e-07
1.67524e-05
3.03872e-05
-1.41974e-05
-1.61883e-05
3.42829e-05
5.4204e-05
6.22011e-05
-0.000138674
2.54761e-05
4.14143e-05
1.34873e-06
-1.31157e-06
-3.73091e-08
-1.32902e-05
-8.83045e-06
1.22965e-05
-1.60491e-05
3.7514e-06
-3.25473e-05
1.27398e-05
7.15309e-05
-7.80306e-05
6.49974e-06
5.17216e-06
2.22521e-05
3.02426e-06
-7.02572e-06
4.00156e-06
-2.42617e-05
4.80473e-06
4.0303e-05
4.02968e-05
-7.89517e-05
2.63628e-05
5.25888e-05
2.59849e-05
-7.23408e-06
-1.875e-05
-2.35473e-05
6.41638e-06
1.71304e-05
-4.29345e-05
3.52726e-05
-8.47286e-05
2.04007e-05
6.43277e-05
4.56412e-05
-4.75632e-05
-1.42813e-07
-1.52448e-06
0.000156762
4.55479e-06
-0.000161316
-6.06173e-06
3.40188e-05
-2.79578e-05
-1.56537e-05
-3.47813e-06
-4.34122e-06
-6.38082e-06
1.07221e-05
2.14244e-05
-2.25767e-05
1.15272e-06
0.000186627
-0.000226241
3.96153e-05
-3.20949e-06
2.21851e-05
-2.05983e-05
0.000169879
-0.000149279
-7.85374e-06
3.10324e-06
-2.00553e-05
-4.02849e-06
8.53433e-05
-5.04259e-05
-3.49172e-05
-3.34407e-05
7.37451e-05
1.47128e-05
8.14813e-06
1.77137e-05
2.10288e-05
-4.81483e-05
3.21719e-05
-8.18953e-06
4.31805e-05
-3.49921e-05
1.14959e-05
3.22204e-06
8.02273e-05
-6.98098e-05
-1.04176e-05
5.4581e-05
-8.19543e-05
2.73744e-05
1.93625e-06
-1.17436e-05
2.95296e-05
4.71443e-06
-3.42444e-05
-3.40671e-05
-1.37563e-06
3.61479e-06
5.9195e-05
1.61389e-05
3.58325e-06
-1.97216e-05
4.75948e-05
0.000102044
0.00016474
-1.98628e-07
-0.000164541
-3.11949e-05
8.13518e-05
-5.01573e-05
1.23162e-06
-1.32171e-05
1.19858e-05
-7.04796e-05
8.96868e-05
4.7623e-05
-6.12506e-05
0.000154077
-4.50479e-05
-0.000109029
-2.06441e-06
2.19681e-06
-2.07643e-05
5.99059e-06
-7.98156e-06
3.75108e-05
2.20177e-06
-8.53141e-07
1.71079e-05
-2.07903e-05
-0.00011914
7.04531e-05
-1.29781e-05
-3.34912e-05
4.64712e-05
5.72523e-06
-1.72119e-06
3.70262e-05
4.36032e-06
-2.09764e-05
-3.88554e-06
-5.53882e-06
8.56306e-06
-0.000167853
-4.17555e-05
-1.9527e-06
4.47743e-05
-4.28216e-05
-2.29211e-05
3.41374e-05
-1.12165e-05
5.05447e-05
3.47986e-05
-4.2988e-05
-3.59637e-05
-9.94428e-06
-1.08197e-05
3.13726e-06
-1.03785e-06
4.36832e-08
-2.00049e-05
1.39504e-05
6.05432e-06
-3.65896e-07
-9.85344e-06
3.92166e-05
-3.43384e-05
-4.87825e-06
7.43694e-05
-5.47409e-05
-2.18693e-05
6.4616e-05
-4.27457e-05
-1.01425e-05
8.14483e-06
1.99755e-06
0.000109341
-8.21584e-05
-2.71854e-05
3.53372e-05
-1.49031e-05
-2.04344e-05
7.25213e-05
-9.55751e-06
-6.29625e-05
0.000132776
-8.92426e-05
-1.07567e-05
-7.21317e-07
1.14779e-05
-1.16295e-05
3.26042e-05
-2.09746e-05
7.7773e-05
-3.01417e-05
-4.76313e-05
3.80407e-05
-1.36669e-05
5.3553e-05
-3.01009e-05
-2.34527e-05
1.91454e-05
-2.03528e-05
1.2074e-06
1.74261e-05
1.87603e-06
2.41086e-05
-2.3979e-05
2.40652e-06
-5.87982e-07
-1.77355e-06
2.36147e-06
7.71214e-05
5.56552e-05
-4.66813e-05
4.62948e-05
3.85505e-07
3.38879e-05
-9.10239e-05
5.71353e-05
9.90485e-07
3.75739e-05
-3.85653e-05
5.1253e-05
-7.18091e-05
2.05565e-05
-7.62234e-05
-0.000115492
0.000191716
1.502e-05
-2.51973e-05
-7.216e-05
-2.63379e-05
7.39613e-05
7.71071e-05
-1.58348e-05
-6.12704e-05
-6.44108e-07
6.30521e-07
1.33938e-08
-1.68097e-05
-0.000185151
-3.1316e-05
2.78259e-05
3.48874e-06
-1.27076e-05
-1.10676e-05
-5.60355e-05
5.97123e-05
-3.67706e-06
3.95217e-05
0.000114556
-1.96765e-05
4.38065e-06
1.52949e-05
1.40068e-05
-2.90298e-05
1.5023e-05
2.68906e-05
-4.02814e-06
-2.28624e-05
2.18939e-05
-2.39267e-05
2.033e-06
-3.20759e-05
7.62128e-06
-2.78387e-05
-5.84955e-05
8.63339e-05
5.67514e-05
6.783e-06
0.000224722
3.34997e-06
2.59016e-05
-2.09336e-05
1.16554e-05
-1.3145e-05
-8.53882e-06
3.43735e-06
5.10162e-06
4.46396e-05
-1.68225e-05
-2.78174e-05
1.16064e-05
-1.20276e-05
4.20977e-07
-1.60178e-05
2.89531e-05
-1.29351e-05
-2.37731e-06
-2.52555e-06
-5.58084e-05
0.000207559
-2.09314e-05
4.0681e-05
4.90682e-05
0.000103692
-1.23812e-05
4.98687e-07
-1.98557e-05
1.93574e-05
8.96093e-06
6.85142e-05
-7.74733e-05
3.37879e-05
9.75275e-05
-0.000131314
-7.1906e-06
2.84939e-06
5.26146e-05
2.76128e-05
-2.15785e-05
-1.39214e-05
3.54998e-05
7.81733e-05
-7.76251e-06
-7.0411e-05
4.75132e-06
1.97971e-05
-2.45484e-05
4.80807e-05
-8.86429e-06
1.11085e-05
1.11628e-05
1.83941e-05
6.38013e-06
-2.47734e-05
3.52373e-05
-2.12305e-05
-5.01628e-06
-2.63e-05
6.70696e-05
-6.98362e-05
2.76766e-06
2.25719e-05
-6.77868e-07
-1.62264e-05
0.000203803
-0.000187575
4.20955e-08
-2.16142e-06
-5.75056e-05
-2.7223e-05
-2.67206e-05
1.57289e-05
1.85609e-05
-2.0907e-05
3.30651e-05
-1.0701e-05
-2.23643e-05
-5.87927e-05
5.06029e-05
3.52647e-06
0.000141357
-0.000144883
2.25903e-05
-2.70295e-05
0.00014237
5.96068e-05
-0.000201975
5.03344e-05
-4.106e-05
-1.39212e-05
4.45722e-05
6.25412e-05
9.78345e-05
-0.000160375
1.36786e-05
-3.14109e-05
8.59927e-05
2.14345e-05
-7.56761e-06
-1.38668e-05
2.27564e-05
-1.80047e-05
3.17137e-05
-2.48314e-05
-6.88205e-06
-1.86806e-05
1.91804e-05
-4.57847e-05
-0.000132508
4.21419e-05
-6.40109e-05
8.07247e-06
6.44493e-05
-3.67031e-05
2.15075e-05
1.51962e-05
0.000337382
-0.000221825
-0.000115556
-0.000143413
7.73748e-05
6.60388e-05
-7.95424e-05
4.83472e-05
3.10092e-05
4.43367e-05
-0.000105055
-5.33596e-05
0.000114446
-0.000190668
1.05924e-06
2.03655e-05
0.00011386
-0.000134458
-1.46932e-06
-9.6896e-06
1.11586e-05
4.65368e-06
1.67806e-05
8.11901e-05
-4.08194e-06
-1.88596e-06
1.3541e-05
-1.44511e-06
-9.64385e-06
1.10887e-05
7.5109e-05
2.14545e-05
-9.65626e-05
1.18806e-06
-1.11934e-06
-6.87305e-08
3.80901e-05
-3.71e-05
-2.99306e-05
1.56853e-06
-0.000139255
-3.7592e-05
0.000176847
-6.06091e-06
4.50734e-06
6.06939e-05
-6.52012e-05
1.09323e-05
-1.2402e-05
-2.39695e-05
2.18681e-05
2.10164e-06
-2.07133e-05
2.96228e-05
-8.90946e-06
-2.00258e-05
3.82875e-05
-1.82626e-05
-4.72687e-05
-1.29541e-05
-2.16148e-06
7.90317e-05
-1.25862e-06
3.6807e-05
-6.42681e-05
2.74631e-05
6.41643e-06
-2.32444e-05
3.96623e-06
-3.92362e-05
-3.43593e-06
-1.13393e-05
4.56743e-05
-2.93689e-05
-1.63054e-05
-5.47512e-05
-3.84868e-05
1.84609e-05
-4.64765e-06
2.4397e-05
-1.97499e-05
-2.72722e-05
2.26243e-05
-1.16745e-05
2.80224e-05
-1.90386e-06
1.88054e-05
-2.06616e-05
1.85605e-06
-4.66967e-05
7.7722e-05
2.25002e-05
-0.000129635
0.000107136
0.000185336
-6.02091e-06
8.49894e-06
-2.235e-05
1.3851e-05
-3.49528e-05
-3.35011e-05
3.97972e-06
-7.63595e-06
3.65574e-06
-5.49493e-06
-1.41821e-05
-2.41159e-05
-1.07483e-06
2.51897e-05
9.83658e-05
-6.44787e-05
3.58905e-06
-1.06391e-06
-9.1073e-05
5.86647e-05
3.24081e-05
4.32808e-05
-6.46907e-05
2.14101e-05
-7.4294e-07
1.36935e-05
-1.29476e-05
2.65487e-05
8.50562e-06
-3.50536e-05
-3.87947e-05
-6.3484e-05
0.00010228
1.47938e-05
1.2097e-05
-2.11149e-05
7.26496e-05
-1.11769e-06
-0.000142599
0.000101521
4.10786e-05
-4.08105e-05
3.88577e-05
1.08913e-05
-1.90967e-05
8.2056e-06
-0.000127363
0.000189905
-4.22447e-06
1.60901e-05
-2.83167e-05
1.7369e-05
1.09468e-05
-1.03814e-06
2.22616e-06
3.13971e-05
-9.59912e-06
-2.17966e-05
3.96045e-05
4.59891e-05
-8.55941e-05
2.48768e-05
-5.56824e-05
3.08047e-05
1.44086e-05
-3.14814e-06
-1.12605e-05
-5.23411e-07
-1.53477e-05
-5.46725e-06
7.25372e-05
-3.78543e-06
-0.000206976
0.000210763
1.12409e-05
-1.19822e-05
-2.56089e-06
1.97283e-06
-2.87514e-05
2.98205e-05
-1.06882e-06
6.5753e-05
-7.12198e-05
4.80272e-05
-4.23651e-05
-5.66211e-06
-0.000102128
-0.000104264
8.39419e-06
2.98012e-06
-1.13746e-05
1.69447e-05
1.61203e-05
7.68532e-05
-5.18945e-05
-2.49584e-05
2.5165e-05
6.54873e-06
-3.5268e-05
3.92337e-05
5.55886e-05
-1.80146e-05
4.25632e-05
-4.1427e-05
-1.136e-06
-5.28688e-05
5.72447e-07
-2.93235e-05
-1.85043e-05
-1.50075e-06
0.000189856
-8.05189e-05
7.94392e-07
-7.98496e-07
3.92204e-09
7.52602e-05
0.000133011
-0.00020827
3.3614e-05
-5.26289e-05
7.72993e-05
-4.3907e-05
-5.32609e-05
0.000203509
-0.000150248
-1.31625e-05
-1.93849e-05
-0.000145538
7.46882e-05
7.08493e-05
-6.62917e-05
1.52744e-05
-9.00779e-08
9.25753e-06
-9.16741e-06
-2.73001e-05
6.69043e-05
1.03426e-05
-1.22288e-05
2.34876e-05
-4.54786e-05
-1.94106e-05
-7.75185e-06
2.71624e-05
1.33361e-05
1.14195e-06
-1.37879e-05
-7.02074e-05
4.06932e-05
2.95141e-05
5.85272e-05
-4.95656e-05
3.793e-05
-6.47965e-05
-8.98553e-06
-1.67655e-05
2.57514e-05
1.41426e-05
-4.49661e-05
4.1809e-05
-2.66164e-05
-1.51931e-05
3.67253e-05
-9.24913e-05
-5.17237e-07
-2.41025e-05
1.51171e-05
2.20101e-05
-2.3039e-06
-1.97064e-05
-9.07855e-07
2.53044e-05
-0.000170809
-3.10973e-05
-3.15348e-05
3.53114e-05
-1.91203e-05
-1.61895e-05
2.85603e-05
-9.20439e-05
-1.50077e-05
4.80498e-05
-3.30418e-05
2.92016e-06
-4.61805e-06
-2.97138e-05
2.16557e-05
8.05813e-06
-1.48933e-05
3.72521e-06
1.11677e-05
7.53605e-05
5.27816e-05
-0.000128142
-3.13955e-05
1.97663e-05
-2.5732e-05
6.39287e-05
-3.81969e-05
-2.08358e-07
-2.65261e-06
2.86061e-06
-1.32927e-05
-5.81437e-05
7.14368e-05
8.44595e-05
-1.87061e-05
2.01935e-05
1.81652e-06
1.46418e-05
-3.70957e-06
-9.27856e-05
-1.27772e-05
2.12142e-05
-8.43721e-06
-6.62429e-06
-2.92864e-05
-5.03622e-06
-3.79627e-06
1.72223e-05
2.36349e-06
-1.25812e-06
9.65211e-06
-1.83357e-05
1.84688e-05
-1.33843e-07
-0.00021185
-1.69144e-05
-1.42128e-06
-5.17816e-05
-3.90829e-05
5.26971e-05
-1.36149e-05
-0.000259292
0.000194004
6.52881e-05
-0.000136175
0.000211436
6.63894e-05
-9.638e-06
1.20693e-05
-8.08996e-06
-2.89666e-05
5.84408e-06
2.31226e-05
-3.43155e-06
-3.95039e-05
-9.64112e-05
-4.91271e-05
-3.20391e-06
0.000190888
-0.000187683
-1.76169e-05
3.7553e-05
-1.99368e-05
4.92733e-05
-1.24622e-06
2.73296e-06
-2.44993e-06
-2.8315e-07
4.40492e-05
3.28044e-05
1.50418e-05
-3.49319e-07
-1.46924e-05
-2.27972e-05
0.00017956
-3.28137e-05
2.90071e-05
3.80664e-06
1.60389e-05
5.85732e-06
-5.88545e-06
2.35564e-05
-1.76713e-05
0.000110476
-0.000128993
1.85178e-05
1.30295e-05
-1.86988e-05
5.66953e-06
-0.000106572
7.41094e-05
3.24614e-05
-5.98776e-06
2.10078e-05
0.000100496
0.00015711
-0.000257605
1.86559e-05
-3.61426e-06
-2.62307e-05
1.13579e-05
-1.81474e-05
-1.25759e-05
1.67267e-07
6.95851e-05
-4.94367e-05
-2.01484e-05
-2.57032e-06
-2.56006e-06
5.12998e-06
-9.29328e-07
-1.05227e-05
1.14515e-05
2.1624e-07
4.16611e-06
2.1293e-05
-2.42756e-05
2.98274e-06
-1.87834e-05
-4.00093e-05
2.25541e-05
-5.30429e-05
3.04889e-05
-2.33021e-05
1.41786e-05
4.90904e-05
-6.32688e-05
-0.000160028
0.000106768
-0.000169397
2.12845e-06
-1.43991e-05
1.22706e-05
-2.02303e-05
8.48928e-05
-6.46632e-05
7.81065e-05
-7.38187e-05
-4.28704e-06
3.22558e-05
-5.25362e-05
2.02811e-05
1.244e-05
-3.2561e-05
9.5517e-06
2.30095e-05
-1.46693e-05
-1.50443e-05
1.92956e-05
-2.07297e-06
3.68437e-06
-3.89285e-06
0.000106077
-7.75164e-05
3.95874e-07
-3.65243e-07
-3.07506e-08
2.15585e-05
0.000203163
-1.21556e-05
-7.78079e-06
1.99363e-05
2.05594e-05
7.33872e-07
2.76944e-05
7.12234e-06
-3.48168e-05
6.35001e-05
-5.92079e-05
-1.06394e-05
4.96391e-07
2.43408e-05
3.68151e-06
0.000184517
-0.000179962
0.000141688
-0.000138161
1.71619e-05
1.32257e-05
1.47459e-05
1.04894e-05
1.1171e-06
5.90506e-06
-2.59654e-05
2.00604e-05
1.88801e-05
-7.98909e-06
1.76279e-06
9.34147e-06
-1.11038e-05
-3.44978e-06
-8.36667e-05
6.74469e-06
2.20979e-06
-2.53753e-05
9.35734e-06
-1.91707e-05
1.33147e-05
5.85568e-06
3.57175e-05
-1.92908e-06
-3.22281e-06
1.35652e-05
-8.43461e-05
1.55383e-05
6.88082e-05
-0.00012821
7.01213e-05
5.80902e-05
1.01022e-05
-8.33899e-06
1.58543e-05
-3.97624e-05
1.37417e-05
-2.76156e-06
-1.06192e-05
0.000159184
-3.06582e-06
-0.000150087
0.000241242
-9.11551e-05
-2.35471e-05
1.17399e-05
3.60314e-06
-1.57621e-05
3.45935e-05
2.31496e-05
9.72381e-06
-7.78772e-06
7.9927e-05
-4.49511e-05
1.96389e-05
-1.75775e-05
-2.06151e-06
3.45349e-05
2.27223e-06
-5.12544e-05
-7.83804e-05
-4.03519e-05
-1.99014e-05
6.02535e-05
-1.85436e-05
2.10914e-06
1.64354e-05
0.000206247
-0.000113707
9.02105e-07
-2.63623e-06
1.73408e-06
0.000171962
1.33747e-05
2.92184e-05
2.17845e-06
1.83884e-05
1.71559e-05
-3.5545e-05
-6.70507e-06
2.26144e-05
-1.59098e-05
-8.41577e-05
4.55705e-05
-2.06943e-05
1.5421e-05
-5.40622e-05
3.83024e-05
1.57604e-05
2.27379e-05
-2.36461e-05
-4.12544e-06
8.49895e-05
-8.0863e-05
-2.15427e-05
1.45912e-06
-1.31366e-05
-1.51809e-05
0.000147933
-2.00658e-05
4.33207e-06
-5.2041e-05
7.38131e-05
-2.17718e-05
1.09772e-05
1.29391e-06
-1.85714e-05
-1.75512e-05
3.61231e-05
1.81635e-05
-1.69592e-05
1.98396e-05
-0.000144635
0.000124796
-9.50046e-05
4.66967e-05
-5.99893e-05
-1.13719e-05
-1.67403e-05
5.59253e-05
-2.16575e-05
-3.42673e-05
-7.78963e-06
-7.10381e-06
-2.18854e-05
9.10845e-06
-4.62771e-05
-6.02948e-05
-0.000236601
-2.26911e-05
-9.69096e-07
2.59359e-05
-0.000101789
7.58533e-05
-1.91314e-05
-1.71466e-05
-1.54142e-05
-2.32162e-05
2.10654e-05
7.51818e-06
-2.85837e-05
-7.50827e-05
-9.26366e-06
-2.60266e-05
-1.14381e-06
1.03634e-05
-1.5438e-05
5.0742e-06
2.06382e-05
-1.21393e-05
1.94965e-05
-2.67296e-05
-6.41509e-06
3.28376e-05
-3.87598e-05
2.50647e-05
1.3695e-05
1.16851e-05
-3.32638e-05
-5.12435e-05
2.38351e-05
-6.26879e-06
1.25821e-05
2.10245e-06
6.50861e-07
-0.000197082
0.000193297
0.000139214
1.99703e-05
9.37347e-05
-3.02338e-05
0.000100549
-2.83559e-05
1.58157e-06
-1.35759e-06
-2.23881e-07
-1.84722e-07
9.40567e-08
9.07123e-08
1.2999e-05
-1.89869e-05
-9.12832e-05
3.92423e-05
5.30335e-05
-2.07774e-05
-0.000115538
-6.19857e-05
-0.000121076
-2.73223e-06
-2.10086e-06
4.83301e-06
2.01208e-05
-1.99597e-05
-1.61508e-07
-1.14324e-05
1.51117e-05
-3.67953e-06
-1.05229e-05
-2.11769e-05
3.17001e-05
-5.24044e-05
6.25384e-05
1.55684e-05
-2.75312e-05
1.22013e-05
1.53266e-05
-8.79468e-05
9.36869e-05
-5.7392e-06
0.000216058
-3.40087e-05
-8.54203e-05
0.000194728
-0.000109307
-5.22302e-06
-5.83029e-05
3.17941e-05
0.000200939
-6.20465e-05
2.74206e-05
2.81676e-05
9.08037e-05
-3.54548e-05
-5.53487e-05
3.38076e-05
5.25257e-06
-3.90594e-05
-1.58859e-05
3.42742e-05
-3.08669e-05
1.77292e-05
3.57167e-05
-1.58774e-05
-1.98397e-05
1.04742e-05
-0.000207555
8.89479e-05
-1.31111e-05
-2.03694e-05
4.36564e-05
7.87858e-06
6.5298e-06
3.29635e-05
-1.44496e-05
-1.85142e-05
0.000139135
5.82597e-05
-2.27642e-05
8.05016e-06
1.47142e-05
-3.3967e-05
5.46152e-05
0.000180724
-0.000183928
1.51722e-05
-1.39404e-05
-1.25215e-05
4.77656e-05
-3.52452e-05
-0.000136105
-9.5376e-07
-6.62602e-08
1.22858e-07
-5.6476e-08
-4.26155e-05
5.67942e-05
-0.000140113
6.39267e-05
7.61857e-05
7.8788e-06
-2.23158e-05
1.44375e-05
-2.03831e-05
1.68162e-05
3.56623e-06
2.11899e-05
-4.28194e-05
-3.0523e-05
-5.87913e-05
9.0085e-05
-3.12936e-05
5.79977e-05
-7.67808e-05
-2.29205e-05
-2.70727e-05
4.99918e-05
2.67172e-05
0.000143162
-3.09222e-05
5.34764e-05
0.000204065
-6.49304e-05
-2.23845e-06
3.16759e-06
-9.29234e-07
-6.87158e-05
2.20351e-05
-1.27231e-05
2.76327e-05
-1.49097e-05
-9.23091e-06
-9.83991e-06
-1.72916e-05
2.3415e-05
-7.10547e-06
-3.21319e-08
7.13723e-06
1.72022e-06
-1.38603e-07
-1.22754e-05
-6.11258e-06
1.83879e-05
-2.89889e-05
1.3569e-05
1.54203e-05
7.50873e-06
-2.57434e-05
1.82342e-05
-1.89102e-05
2.42519e-05
-5.34081e-06
-6.38021e-06
6.49077e-05
-6.34194e-05
4.76842e-05
1.57352e-05
1.48297e-05
4.80901e-06
2.84012e-07
-2.52239e-06
1.8811e-05
-8.96302e-06
-9.84795e-06
2.22622e-05
0.000115703
5.04109e-05
-0.000166113
-2.14387e-05
2.2012e-05
-5.73545e-07
-1.7331e-05
3.21944e-05
-1.48626e-05
-3.83327e-05
-5.27405e-05
2.88201e-05
-7.18721e-05
4.70476e-05
-1.32402e-05
5.89292e-05
-5.4422e-05
6.41964e-05
9.29946e-06
-7.34968e-05
-2.14243e-05
2.29649e-05
-1.54059e-06
-2.21105e-05
-6.85617e-06
-1.02451e-05
-8.82456e-05
4.56854e-05
4.25604e-05
-4.84586e-05
3.59374e-05
-6.63518e-08
6.63359e-08
2.08704e-05
-3.10783e-07
0.000191199
-2.61887e-06
-2.06316e-05
7.46734e-06
-1.85759e-05
4.76696e-05
-1.72775e-05
0.000181896
-0.000202631
2.07347e-05
2.8342e-05
-3.88647e-05
-4.3779e-05
-0.000119555
5.47349e-05
6.48205e-05
-2.60143e-05
-2.80468e-05
0.000173926
-5.82226e-05
-2.3092e-05
1.09366e-05
-4.02372e-06
-1.03756e-05
8.37196e-06
1.75296e-05
-6.54245e-05
-2.30037e-05
5.33391e-05
-7.35698e-05
-2.82254e-05
-3.51939e-05
3.87541e-06
3.89176e-06
-7.76733e-06
-3.47275e-06
8.83661e-05
1.99144e-05
-1.33311e-05
-6.58381e-06
2.77779e-05
-3.07164e-05
2.93853e-06
-1.30528e-05
3.14463e-05
-3.91871e-06
2.83482e-05
6.96412e-06
-1.8014e-05
-5.53358e-06
-2.24787e-06
-1.81356e-05
-2.73367e-05
1.2452e-05
6.47204e-05
-1.34673e-05
-3.56747e-05
2.60762e-05
-7.80256e-06
-1.45472e-05
4.28119e-05
-2.82916e-05
-1.45196e-05
2.49882e-05
7.75814e-05
-0.000102569
-4.59684e-05
6.88445e-06
3.43925e-05
-6.69827e-06
2.28831e-05
2.47883e-05
-2.43068e-05
-3.07418e-05
5.5049e-05
-0.000276962
0.000162974
0.000113989
-2.89095e-06
1.90302e-05
-2.08042e-05
-1.80882e-05
3.88921e-05
-2.80571e-05
3.18606e-05
-6.99858e-06
-2.4862e-05
3.05885e-05
-2.8807e-05
-1.78148e-06
-1.85338e-07
1.19076e-07
5.64912e-05
-2.58421e-06
6.12569e-05
-1.79762e-05
-2.0056e-05
-4.54977e-07
2.36526e-05
-2.31977e-05
0.00018571
-3.35133e-06
-0.000182359
5.76426e-05
-1.69494e-05
-2.69012e-05
8.8866e-05
-0.000218317
0.00014855
6.97677e-05
-4.07535e-07
2.33724e-05
1.98162e-05
-3.88771e-05
1.90605e-05
-3.70194e-05
-9.13551e-06
4.61551e-05
2.03205e-05
6.07556e-06
-2.63978e-05
-2.629e-05
1.95847e-05
-1.6552e-05
8.07484e-05
0.000118891
4.82874e-05
-4.90211e-06
-4.33853e-05
-0.000198978
0.000216979
-1.79989e-05
-2.49411e-05
2.44863e-05
7.75425e-06
-3.78914e-06
-3.96491e-06
4.13157e-05
2.82691e-05
2.58328e-05
3.00928e-05
4.22031e-05
-6.79352e-05
4.31004e-05
-0.000132991
8.98911e-05
4.38271e-05
4.46053e-06
-1.98988e-06
-1.94482e-05
1.70848e-05
1.01132e-05
9.03226e-06
1.10928e-05
2.33798e-05
-3.44735e-05
1.50008e-06
1.23279e-06
-1.89116e-05
1.34157e-05
-3.5414e-05
-3.14679e-05
6.68824e-05
-5.56626e-05
5.8981e-05
-3.31837e-06
3.56087e-05
-3.29588e-06
-3.23127e-05
-1.16657e-06
-3.2131e-05
-0.000215612
1.88204e-05
0.000196792
2.47384e-07
3.49903e-07
-5.97261e-07
-4.54462e-05
4.76136e-05
-0.000103274
5.56609e-05
-1.58011e-05
2.16671e-05
-5.86592e-06
6.67977e-06
3.06724e-05
-3.7352e-05
7.36776e-06
-4.68175e-06
-2.68631e-06
-3.6421e-05
-0.000245149
0.000208876
3.62741e-05
-8.16024e-05
7.74772e-05
-5.43937e-06
1.58026e-05
-2.70915e-05
5.1423e-07
2.65774e-05
2.27151e-05
-8.76479e-06
2.37786e-05
5.05917e-05
-1.40395e-06
4.13725e-08
-1.90758e-05
2.09522e-05
4.43191e-05
-5.06987e-05
4.10491e-05
-5.3327e-06
4.33337e-08
2.04059e-07
-1.22047e-05
-1.68251e-05
-6.14163e-05
-2.68291e-05
-3.57433e-07
-5.3874e-06
5.74526e-06
-1.85068e-05
-1.23604e-05
1.97551e-05
-2.64626e-05
6.70759e-06
0.000204828
-0.000200477
-4.35059e-06
3.60421e-05
1.75096e-05
-7.38317e-06
1.65507e-05
2.03227e-05
-3.68737e-05
1.07269e-05
-5.63368e-05
7.02657e-05
-1.39296e-05
1.43708e-06
-1.19602e-05
3.14399e-05
-1.02501e-05
-7.10186e-05
3.25584e-05
3.84602e-05
5.31534e-06
-7.5795e-05
9.11158e-06
-4.61311e-05
-0.000152151
0.000107104
1.28768e-05
1.37982e-05
-4.53622e-06
-9.26192e-06
-0.000174175
-1.55795e-05
0.000189755
-5.60932e-06
4.16328e-06
-2.82117e-05
-1.08697e-06
2.92982e-05
-8.67022e-06
-1.11504e-05
1.98205e-05
1.55024e-05
-1.64601e-05
9.5769e-07
-1.9159e-05
5.92264e-05
-4.00663e-05
-1.61738e-05
2.33143e-06
2.09748e-05
2.11789e-05
4.14503e-06
-9.34429e-09
-4.1992e-06
-4.11735e-05
1.75444e-05
5.76503e-05
-7.51943e-05
1.38644e-05
-1.89837e-05
5.11933e-06
1.14925e-06
1.4353e-05
-3.90369e-05
9.4236e-08
-2.78724e-07
-1.83943e-06
-2.28687e-06
-4.62065e-05
-3.94719e-06
5.01523e-05
-1.82537e-05
-1.7928e-05
3.47727e-05
-1.68438e-05
-3.14224e-05
8.08895e-06
-8.29535e-06
-1.35901e-05