/*--------------------------------*- C++ -*----------------------------------*\
| =========                 |                                                 |
| \\      /  F ield         | OpenFOAM: The Open Source CFD Toolbox           |
|  \\    /   O peration     | Version:  v2012                                 |
|   \\  /    A nd           | Website:  www.openfoam.com                      |
|    \\/     M anipulation  |                                                 |
\*---------------------------------------------------------------------------*/
FoamFile
{
    version     2.0;
    format      ascii;
    class       surfaceScalarField;
    location    "50";
    object      phi_0;
}
// * * * * * * * * * * * * * * * * * * * * * * * * * * * * * * * * * * * * * //

dimensions      [0 3 -1 0 0 0 0];
oriented        oriented;


internalField   nonuniform List<scalar> 
20823
(
0.723056
-0.254846
-0.46821
-0.0209859
0.0665951
-0.0456091
0.495417
-0.602779
0.107362
0.0270485
0.138899
-0.165947
0.116644
-0.141762
0.0251184
-0.0532381
0.161811
-0.108572
0.151962
0.0581375
-0.210099
0.0132201
-0.0139672
0.000747155
0.399282
-0.309351
-0.0899306
-0.467133
0.436971
0.0301619
-0.0112908
-0.0836431
0.0949339
-0.000596056
0.00790575
-0.0073097
-0.0018044
0.0454062
-0.0436018
0.483633
0.0542401
-0.537873
-0.0976501
0.246933
-0.149283
0.0106338
-0.477767
0.280846
-0.556662
0.275817
0.102505
-0.138052
0.0355474
0.00539809
-0.00245191
-0.00294619
0.47725
0.175857
-0.653107
0.0652049
-0.258541
0.193336
0.00361633
0.000212643
-0.00382898
-0.00655743
-0.0163077
0.0228652
-0.211691
0.188826
0.0228652
0.0015128
0.000870894
-0.0023837
-0.123495
0.276011
-0.152515
0.119634
-0.161067
0.0414333
-0.034569
0.423918
-0.38935
0.0194751
-0.00329257
-0.0161825
-0.0687247
0.0616085
0.00711626
0.318416
0.404641
-0.421353
-0.0670006
0.488354
-0.279146
0.128478
0.150668
0.00135199
0.0040461
-0.381081
0.3182
0.0628804
-0.336134
-0.00101821
0.337152
0.107079
-0.230574
-0.0747211
0.551971
0.185859
0.0843334
-0.270193
0.254273
-0.0167617
-0.237512
0.00726413
-0.156163
0.148899
0.204133
-0.240516
0.0363823
0.00113658
-0.0046989
0.00356233
0.0103017
0.000604476
-0.0109061
0.318837
-0.397704
0.0788665
-0.00142974
0.00294254
-0.204422
0.269627
0.00306164
0.201072
-0.0296579
0.148813
-0.119155
0.00779517
-0.00811543
0.000320263
-0.0723222
0.0955346
-0.0232124
0.156053
-0.0464652
-0.109587
-0.000283761
0.00706626
-0.0067825
-0.00226839
-0.00341353
0.00568192
0.165176
-0.114525
-0.0506513
0.251192
0.00308112
0.027836
-0.0281876
0.000351607
-0.372943
0.338374
0.0744168
0.13377
-0.208187
0.359947
-0.273085
-0.0868619
-0.115339
0.0856806
0.0946478
-0.293136
0.198488
-0.0359782
0.0140747
0.0219035
0.329904
-0.203347
-0.126558
-0.342031
0.093915
0.248116
0.0660432
0.0279523
-0.0939956
0.0800936
-0.0981538
0.0180602
0.126977
-0.0244721
0.414433
-0.529184
0.11475
-0.335592
-0.0454889
0.230913
-0.162567
-0.0683457
-0.384823
0.351582
0.0332412
0.0320436
-0.038601
0.01893
-0.0214105
0.00248049
0.0996752
-0.0195816
0.0251906
-0.361325
0.0140141
-0.0863363
0.319423
-0.377535
0.0581113
-0.397238
0.014521
0.382717
-0.0224157
0.14205
0.177913
-0.131753
-0.0461602
0.00170442
-0.00210713
0.000402709
-0.00199368
0.00313025
-0.00130222
-0.00273666
0.00403888
-0.0456087
0.309451
-0.263842
-0.167474
0.262122
0.122437
-0.220087
-0.215729
0.496575
0.000182406
0.142117
-0.142299
0.00113935
-0.00151324
0.000373897
0.248881
-0.307939
0.0590572
0.0932485
0.24996
-0.343208
-0.11057
0.00243414
0.108136
-0.0136188
0.0136188
0.0127115
-0.0133975
0.000685987
0.0201132
-0.137049
0.116936
-0.0860377
-0.255993
0.0992413
-0.033198
0.0177468
-0.0149513
-0.00279548
0.558992
-0.25708
-0.301912
-0.215575
0.150933
0.0646421
0.000296526
0.0100051
-0.312638
0.106682
0.205957
0.610447
-0.11503
-0.000626139
-0.000369036
0.000995175
0.00146104
0.0893913
-0.0908524
0.056411
0.0981714
-0.154582
-0.0276838
-0.0144562
0.0421401
-0.11612
0.116302
0.0120361
0.00689388
-0.344394
0.455423
-0.111029
-0.420025
0.46008
-0.0400551
-0.0645058
0.446882
-0.382376
-0.0102948
0.010011
-0.474245
0.40974
0.00651686
-0.00781908
0.0111952
-0.0119451
0.000749953
-0.209775
-0.102864
-0.109045
-0.00350026
0.112546
0.0197375
-0.0227824
0.00304489
-0.311915
0.251815
0.0600995
-0.0204619
-0.0329183
0.303269
-0.183717
-0.119552
0.0648375
-0.484863
-0.01899
-0.00242054
-0.0500339
0.201996
0.00362377
0.0254568
-0.0290806
0.113522
0.00417789
-0.117699
0.47513
0.00850333
-0.0491185
-0.166456
-0.0424514
0.00716893
0.0352825
0.157173
-0.150333
-0.00683994
-0.141036
0.0256975
0.00941771
0.00146002
-0.0108777
-0.112133
0.11394
-0.00180727
-0.445296
0.499536
0.0134466
-0.000154331
-0.0132922
-0.00426498
0.00199659
-0.157319
-0.0216601
0.178979
0.126994
-0.12251
-0.00448394
0.00330814
-0.0918867
0.0885786
-0.0210647
0.018944
0.00212063
0.0387453
0.127115
-0.16586
-0.0473664
0.0196826
0.0657116
-0.46295
0.614308
-0.603519
-0.0107893
0.00400811
-0.00679743
0.00278932
-0.0078488
0.101396
-0.093547
0.267357
-0.522203
-0.155636
0.0970165
0.0586198
-0.282416
-0.266528
0.548945
-0.131427
0.0223814
0.293609
-0.10775
0.0229696
-0.0434314
0.0186308
0.0842997
-0.10293
-0.0535426
-0.33128
-0.00206314
0.00314712
-0.00108398
-0.176043
0.542441
-0.366398
-0.157886
-0.0704356
0.228322
-0.0808237
0.09612
-0.0152963
0.000838924
0.0123811
0.0331439
-0.115658
0.0825142
0.284051
-0.155256
-0.128795
-0.0579337
-0.153757
0.000764144
-0.00561002
0.00484588
0.19589
-0.29077
0.0948796
0.0232051
-0.011169
-0.0956327
0.208805
-0.113172
0.0131471
-0.00195195
0.395752
-0.30382
-0.0919324
0.0150181
-0.127151
-0.0480509
0.245264
-0.197213
-0.0348586
-0.120778
-0.094958
0.115071
-0.109021
0.165432
0.0507658
0.0932128
-0.143979
0.292298
0.190035
-0.482333
-0.567952
0.44636
0.121592
0.08143
-0.526726
0.0080936
0.0113815
0.0305291
0.0424103
-0.0729394
0.134119
-0.00712462
-0.512553
0.297703
0.21485
0.0230745
-0.00333692
-0.537971
-0.0261979
0.564169
0.264316
-0.0154346
-0.269875
0.224266
-0.537539
0.42711
0.110429
0.00810326
-0.00409515
0.00790495
0.100858
-0.108763
0.104322
-0.12098
0.0166579
-0.285453
-0.0264613
-0.0269747
0.00444023
0.0225345
-0.255983
0.349232
0.115959
-0.273846
-0.006248
-0.0581019
0.345172
-0.287071
-0.029819
0.0280146
-0.0432455
0.121582
-0.0783369
-0.467466
0.391059
0.0764075
-0.01777
0.0213937
0.325484
-0.41488
0.0893953
0.118563
-0.131141
0.0125779
0.221262
0.17802
-0.0051058
-0.0168721
0.0219779
-0.0546079
-0.0141168
0.344614
-0.335216
0.295817
0.0393987
-0.00225124
-0.0188134
-0.033492
-0.00895944
-0.141463
0.180208
0.416313
-0.329675
-0.086638
-0.0837095
0.111662
-0.0824829
0.40132
0.289473
-0.216342
-0.0731308
0.239816
-0.297918
-0.123478
0.112239
0.0112396
-0.104079
0.10554
-0.0157649
-0.087441
0.103206
0.284037
-0.239006
-0.0450315
0.00749551
0.000299654
-0.00245801
0.00332891
0.301508
0.257484
-0.133611
0.177365
-0.0437543
-0.308491
0.610537
-0.302046
-0.118863
0.108401
0.0104625
0.0747313
-0.00629834
-0.0684329
0.0471676
0.23687
-0.0012205
0.0106382
0.276379
-0.0655687
-0.21081
-0.427997
0.273903
0.154094
0.155762
0.174142
-0.104057
0.107366
-0.00636899
-0.0235303
0.0298993
0.294044
-0.0981542
-0.0388069
0.515146
-0.476339
-0.0320243
0.0289608
0.00306347
-0.2628
-0.165197
-0.23955
-0.0709236
0.310474
0.107957
-0.227128
0.119172
-0.168134
0.340068
-0.171934
0.108813
-0.116661
0.0756849
-0.186725
0.11104
0.0126545
0.000792071
-0.194775
0.146724
0.0877092
-0.0039261
-0.0837831
-0.274018
-0.238534
0.000166405
-0.0120358
0.0118694
-0.00898847
0.196441
-0.262672
0.0662309
-0.00131958
-0.107595
0.108915
0.0188514
0.0305319
0.351785
-0.382316
-0.111367
-0.0121113
-0.157896
0.254022
-0.0961252
-0.104613
0.123244
-0.546432
0.513378
0.0330538
0.117295
0.00126751
-0.583393
0.599555
-0.0161616
-0.0118205
-0.0252209
0.0370414
-0.022631
-0.514908
0.00863193
-0.00922799
0.683633
-0.464003
-0.21963
-0.263771
0.368123
-0.104352
0.526697
-0.112264
0.388875
-0.053263
-0.335612
0.142072
-0.134167
-0.111003
0.111857
-0.000854691
-0.173543
-0.0489728
0.222516
0.140695
-0.133431
0.175432
-0.309039
0.133607
-0.0178525
-0.449614
-0.0722172
0.105361
0.0909462
-0.12016
0.0292135
0.0768399
-0.120085
0.370749
0.112663
-0.483412
0.315058
0.295389
-0.371978
-0.124876
0.496855
-0.00790536
0.0121717
-0.0042663
-0.0087409
-0.374897
0.550754
-0.275609
0.375121
-0.0995122
-0.0060591
-0.0259652
-0.000752708
-0.0060331
0.00678581
0.514405
-0.161572
-0.352833
0.0243788
-0.0274283
0.00304951
0.20373
-0.0957729
-0.14031
0.167359
0.403716
-0.312462
-0.0912539
0.215678
-0.105302
-0.110376
0.200205
-0.575102
0.131925
0.0241272
-0.0987567
0.469506
0.0341638
-0.0340889
-7.48821e-05
0.223523
-0.203971
-0.0195516
-0.0940083
0.0793008
0.0147074
0.118185
-0.0272385
-0.171311
0.0139925
0.0367466
-0.0491444
0.0123978
-0.0518336
0.0823627
-0.114236
0.00474238
0.109494
-0.00673334
0.00956068
-0.00282734
0.0810758
-0.176709
-0.196797
0.280551
-0.0837541
-0.00161391
0.0259927
-0.0967968
-0.391888
0.488685
-0.177314
0.0437032
-0.17589
0.128761
0.0471291
-0.0832441
-0.0724321
0.155676
-0.487036
0.142641
-0.0226251
-0.109848
0.132473
-0.0116145
-0.104044
-0.515845
0.143866
-0.016747
0.00496181
0.0117852
-0.000933715
0.00263813
-0.0117213
0.0571275
-0.167336
0.0840918
0.46277
0.170747
-0.633517
0.0113078
0.00140373
-0.207824
0.0375
0.170324
0.0914766
0.184902
0.0834551
0.0897307
-0.173186
-0.298865
0.125322
-0.0499324
0.404963
-0.355031
0.200203
0.0892692
0.305099
-0.211184
0.0995787
-0.184768
0.0851894
0.107034
0.398262
-0.505295
-0.131488
0.452749
-0.321262
0.0209442
-0.02605
0.0138586
0.00509581
-0.0189544
0.0521924
-0.387408
-0.451791
-0.0946411
-0.0134249
-0.000842965
0.0142679
-0.299666
0.0680766
0.23159
-0.519933
-0.0180384
-0.408174
-0.17768
0.585854
-0.162473
0.255249
-0.0927755
-0.0625987
0.0643248
-0.00172607
-0.361252
0.193118
0.00177097
-0.0145818
0.0128108
-0.000674
0.00181335
0.136031
0.167238
4.69311e-05
0.000646241
-0.000693172
0.232456
0.0726422
0.0659876
-0.119226
0.0101302
-0.166293
0.178205
0.0978054
-0.0111145
-0.0387963
0.0499108
0.43867
-0.408139
0.000504741
-0.00177712
0.00127238
-0.0885449
-0.0643555
0.1529
-0.325303
0.391015
-0.119939
-0.00370776
0.123646
-0.0989058
0.348866
-0.263296
0.1054
-0.395498
0.325141
0.0703576
0.0825243
-0.093815
-0.0148663
0.000554007
0.0143123
-0.0146908
-0.019974
0.0346648
0.306914
0.0633753
-0.370289
0.0371393
-0.0489598
0.333997
-0.0399527
-0.111488
0.0950582
0.0164297
0.310541
0.373093
-0.03216
0.333668
0.0205277
-0.140466
0.00880997
0.45396
-0.0111834
0.00327799
0.0527314
-0.0159848
-0.0245614
0.0333053
-0.00874388
-0.400686
0.125078
-0.192141
0.276475
0.146605
0.0690728
0.327826
-0.377758
0.0801934
0.00751577
0.00900884
-0.109754
0.100745
0.339376
-0.106947
-0.232429
-0.00152481
0.00157174
0.172837
-0.0732578
0.337059
-0.369219
-0.485044
0.309001
-0.0827042
0.142552
-0.261187
0.118635
0.00211479
-0.00884814
-0.0890593
0.00179143
0.0872679
0.106508
-0.122273
-0.134979
0.135205
-0.000225979
0.513314
-0.151451
-0.361863
-0.0131884
0.0402185
-0.0270301
-0.00561177
0.00906711
-0.00345534
0.246463
-0.255605
0.00914149
-0.10317
0.099244
0.374104
-0.50875
0.134647
0.0177555
-0.149465
0.13171
-0.076011
0.0737165
0.00229457
0.00341593
-0.00416864
-0.138412
0.111743
0.026669
0.0156018
0.0154471
-0.0310488
-0.310369
-0.384363
0.491397
-0.00262642
0.000563289
0.68922
-0.291433
-0.397787
-0.0855624
-0.0176076
0.0318394
-0.0259648
-0.00587459
-0.0705716
0.10092
-0.0303479
0.353038
-0.219291
-0.133747
0.0656782
0.122811
-0.188489
0.00541227
0.0267162
-0.0321284
-0.376738
0.112967
-0.0249576
0.248436
0.0855611
0.118749
-0.0468261
-0.0719232
0.322795
0.247839
-0.570634
0.00181572
0.0159311
0.0219862
-0.0181407
-0.00384551
0.2779
-0.102468
0.232916
0.0743897
-0.307306
-0.0973754
-0.0141126
0.0880748
0.094854
-0.182929
0.274836
0.0371475
-0.311983
-0.00672819
0.000228123
0.00650006
0.00131931
-0.0016639
0.000344588
0.0695963
-0.304567
-0.000153886
0.0145353
-0.0143814
0.00719309
0.000302428
-0.111591
0.0597575
-0.217356
-0.0905822
0.338005
-0.553734
0.420728
-0.0126852
-0.408043
0.00589052
0.386926
-0.392816
0.0164086
-0.0338325
0.0174239
-0.067223
-0.165412
0.232635
-0.0894009
-0.0114722
-0.0155026
-0.0565504
-0.0060483
0.147156
-0.0963902
0.107261
-0.10858
0.232456
0.0515287
-0.283985
-0.0193832
-0.00442386
0.023807
-0.0390259
0.0735977
-0.0345718
-0.545952
0.137778
0.00234306
-0.00183832
0.0172822
0.0977677
-0.11505
-0.0106255
-0.00126163
0.0118872
-0.0843331
0.111774
-0.0274411
0.000460703
-0.08952
0.0832899
-0.32284
-0.0118635
0.0104028
0.00146071
-0.061767
0.336603
0.0034019
0.0185843
-0.164986
-0.0782244
0.24321
0.00206716
-0.000747849
-0.0139523
-0.0476661
0.0616184
-0.597125
0.288634
0.0204035
-0.00654487
0.162392
0.197555
-0.0637183
0.0427324
-0.0157128
0.00631496
0.00939785
0.0410846
-0.0521991
-0.0004974
-0.0104881
0.0109855
-0.0828046
-0.0112037
-0.0277136
-0.0033881
0.0311017
-0.0107794
-0.0200522
-0.0927502
0.377677
-0.00493487
-0.0119322
0.0168671
-0.0390176
-0.135079
0.0465344
0.520608
-0.414366
-0.106242
0.0168253
-0.101158
-0.0408801
0.209574
-0.168694
0.311829
-0.0793734
0.00324328
0.071488
-0.0304756
-0.104504
0.249338
-0.00287453
0.168324
-0.00492059
-0.163404
-0.0974881
0.0338816
0.0636065
0.0946149
-0.0878047
-0.00681014
0.0333589
-0.0480498
0.170745
-0.0950602
0.0347814
-0.000617599
-0.0234589
0.0288712
0.106845
-0.269318
-0.00892841
0.0106994
0.365947
-0.480716
0.114769
0.365016
0.155592
0.0896855
0.0290638
-0.210562
0.548567
-0.129787
0.120148
0.00963906
-0.0729872
0.00767115
0.0653161
0.511691
0.150055
-0.661746
0.31669
0.0363485
0.181721
0.0418015
-0.0253217
0.0751226
-0.0498009
0.402876
-0.16808
0.0349756
0.133105
0.523901
-0.157954
0.00543949
-0.34548
0.340041
-0.411855
0.0765474
0.335308
-0.546472
0.321181
0.225291
0.111794
0.00484952
0.105344
-0.0103351
-0.0656759
-0.0804371
0.0402816
0.0401554
0.121563
0.0402473
0.475309
-0.514115
0.00438553
-0.0007692
-0.0136861
0.0206282
-0.00694213
0.00124719
-0.297553
-0.248918
0.153858
-0.145371
-0.00848772
0.129712
0.0241464
-0.194235
-0.408418
0.354875
-0.0437673
0.30571
-0.261943
0.0293261
-0.0356951
0.104003
-0.0885472
-0.0154562
-0.0157399
0.000788571
-0.247339
0.338446
-0.0911069
0.173374
-0.0989567
0.00186146
-0.0022224
0.00036094
-0.0658026
0.153877
0.122445
-0.104729
-0.0177167
-0.111189
0.0406178
-0.493123
0.426122
0.116702
-0.117971
0.00126932
0.00608693
-0.0070891
0.00100217
-0.179778
-0.00134074
0.181119
0.00301607
-0.0927312
0.0897151
-0.105953
0.116833
-0.0108797
-0.00596049
-0.000767699
-0.0717868
-0.121346
0.204801
0.0153188
-0.102294
0.0869756
0.114535
-0.105526
-0.17022
0.240948
-0.070728
0.0171659
-0.0221008
0.00135754
-0.0040942
0.210659
-0.128029
-0.0826305
0.515702
-0.00401097
-0.104417
0.0112441
0.0931725
0.00321435
-0.0417495
0.0385352
-0.0185232
0.0294786
-0.0109554
0.000617716
0.000414403
-0.00103212
-0.378721
-0.189231
-0.233221
0.0682353
0.00450586
0.0380514
-0.0425572
-0.204431
0.0246523
0.408779
0.28044
0.0880897
-0.0166955
-0.0713942
-0.183659
-0.0495622
0.00546399
-0.0049705
-0.000493496
0.0281653
-0.00359205
0.333699
-0.517844
0.184145
-0.00671593
-0.00899687
0.106696
0.108296
-0.214993
-0.216465
0.175585
0.0260569
0.449252
0.172359
-0.39165
0.00473118
-0.00467149
-5.96924e-05
-0.127926
0.0680617
0.020028
0.262116
-0.119564
0.0320778
-0.0452662
0.34005
0.250787
-0.590836
-0.0056451
-0.0282894
0.0339345
0.0882393
0.142673
-0.00785437
0.00539636
0.00664306
-0.021063
0.0144199
-0.214
0.305476
0.0377544
-0.036062
-0.00169235
0.0090524
-0.334852
-0.00440094
0.000413603
0.00398734
0.0273793
-0.0241649
0.312851
-0.523413
0.00729844
-0.0065343
0.114392
0.083991
-0.198383
0.00525795
-0.255609
0.176098
-0.168964
0.420751
-0.251787
-0.0237906
0.00440742
0.0527635
0.112413
0.34537
-0.100213
-0.245157
-0.122597
0.0999719
-0.0168525
0.0217785
-0.00492599
0.0111456
0.0554494
0.510796
0.230404
0.114966
-0.10845
0.113737
-0.00528704
-0.148009
0.00263829
0.0291882
-0.00135224
0.129602
0.148732
-0.147602
-0.00112999
0.107932
0.00890144
-0.00630278
-0.106368
0.11267
-0.0689596
-0.0690925
0.169407
-0.35516
0.185753
0.0116137
-0.0118207
0.000207
-0.0479669
-0.00821842
0.0561853
0.15905
-0.141294
-0.00816346
-0.0219733
0.0301368
-0.0267807
0.406747
-0.379966
-0.153021
0.12905
0.0239708
0.0566546
-0.240314
0.012442
-0.120892
0.202025
0.321876
0.00879834
-0.0708974
-0.225992
0.29689
-0.00251329
0.191339
-0.24269
0.534988
0.0721872
-0.346205
0.511373
-0.177674
-0.067767
-0.053535
0.121302
0.0392125
0.0784432
-0.14621
-0.0578539
0.114451
-0.00617628
-0.108274
0.0555621
-0.0647628
0.00920066
0.0319052
-0.0375503
0.00853861
-0.00134553
0.00251727
-0.000655817
0.201466
0.0788307
-0.280297
-0.00636039
0.0273046
0.0371853
0.000569086
-0.00370625
-0.0253958
0.0291021
-0.0592103
-0.126651
0.185861
0.00581113
-0.000347135
-0.426448
0.596394
-0.169947
-0.14993
0.256626
-0.29292
0.432728
-0.139808
0.00219792
-0.0156228
0.239663
-0.135332
-0.104331
-0.000304617
0.00051726
-0.442036
0.13819
0.303846
0.0277945
0.0577813
-0.0855757
-0.00125897
0.00605527
-0.00479629
0.0499479
-0.0335486
-0.0163994
-0.289058
-0.0876799
-0.0483713
-0.0199287
0.0683
0.138847
-0.431767
0.203268
0.192484
0.101117
0.182934
0.523
0.107353
-0.307184
0.199831
-0.0571881
0.466316
-0.409128
0.387016
-0.510955
0.123939
-0.575018
0.292602
-0.296261
0.203781
0.0924798
-0.0142869
0.0553715
0.0232201
0.0912222
-0.114442
0.234752
-0.0740384
-0.0364477
0.110486
0.0158096
-0.00916654
0.0483947
-0.296233
-0.203314
0.499547
0.1436
-0.0816909
-0.0619087
0.105483
0.113642
-0.219124
0.0936757
0.103601
-0.197277
0.00377567
-0.100999
-0.0175268
0.118526
-0.0854566
0.254863
-0.247405
0.319592
-0.390823
0.364043
0.00371124
0.10422
-0.520059
-0.110567
0.630626
-0.0558705
-0.0557205
0.42016
-0.164917
-0.255243
-0.185139
-0.111122
-0.170655
1.42996e-05
0.17064
0.0857101
0.0922027
0.242458
0.270856
-0.0262732
-0.382144
-0.0176255
0.0167825
-0.0114946
0.0109972
-0.00514943
-0.0115976
0.00249149
-0.0498064
0.066215
0.075958
0.185308
-0.261266
-0.253678
0.0834577
-0.291007
-0.12056
0.411567
7.34914e-05
0.00783226
-0.297279
0.487314
0.146158
-0.213381
0.2204
0.0925535
-0.312953
-0.0722811
0.0332552
-0.23494
0.547792
0.0214206
-0.00664718
-0.0147734
-0.1005
0.107603
-0.00710282
-0.405551
0.114544
0.0379512
0.119221
-0.323857
0.338378
-0.0936993
-0.0121127
0.000167574
0.0827944
-0.091804
0.00900958
0.235723
-0.306647
0.0875868
-0.0971841
0.0513532
-0.165878
-0.403424
0.0781207
-0.102563
0.0188536
-0.309673
-0.0341241
0.343797
-0.0235501
-0.056887
-0.106451
0.0179038
-0.0512596
0.163865
-0.112605
0.263382
-0.1936
-0.0697817
-0.0403949
0.00690293
-0.0541971
0.537242
-0.483045
-0.0139778
-0.00176209
-0.109684
0.00526767
0.0565139
-0.172265
0.115751
0.107336
-0.169124
0.0617881
-0.0418665
-0.0274375
0.0089143
-0.212601
0.139716
-0.0232078
-0.116508
-0.161571
0.0135625
-0.139588
0.0225232
0.117065
-0.000930764
0.000304625
0.100944
0.109715
-0.0118031
0.116072
0.300241
0.0691146
-0.0758619
0.00674732
0.489931
-0.377268
0.11572
0.0981812
-0.213901
0.00219092
-0.00255996
0.000419637
0.0146775
-0.0150971
0.097843
-0.143692
-0.00932881
-0.141741
0.279343
0.346894
-0.368537
0.0216436
0.00046522
0.0111485
0.207269
-0.278166
0.0189882
0.0309598
0.0676454
-0.0120833
0.362602
-0.134341
0.0363682
0.0979728
-0.0123759
0.013053
-0.114052
0.310626
-0.049224
-0.10565
0.154874
0.0168736
0.00454703
0.171158
0.0757755
0.000938459
-0.0121863
0.0112478
-0.311712
0.0643732
0.535657
-0.137395
-0.343772
0.0877884
0.137575
0.00843498
-0.14601
-0.109749
0.127032
0.10251
-0.237935
-0.0247371
0.135685
-0.49952
-0.0838725
0.0361704
-0.0316646
-0.0107859
-0.0013268
-0.0392412
0.124951
-0.0550778
-0.348903
-0.397574
0.562051
-0.164477
0.605694
-0.464724
-0.140971
-0.378465
0.0894066
0.0729178
-0.00380313
-0.139272
0.232948
0.00875993
0.00438721
0.0103263
-0.433045
0.512838
-0.079793
-0.00152401
0.000102941
0.00142107
0.0127353
-0.0131014
0.000366159
0.0887595
0.0236157
-0.112375
0.0167947
-0.151525
0.257008
-0.0898577
0.112355
-0.022497
0.0260987
-0.0260025
-9.62367e-05
-0.0791112
-0.0190426
0.00218144
-0.0341195
0.031938
0.349559
-0.00486762
-0.000742407
-0.031492
0.00330439
-0.273547
0.445905
-0.0175916
-0.00609668
0.0236883
0.0317823
-0.123186
0.0914033
0.178762
-0.122248
0.22376
-0.122816
-0.00398803
-0.00111646
0.00510448
0.00263213
0.0335383
0.0415817
-0.173334
0.0202621
-0.134498
0.000676127
-5.84108e-05
-0.0140341
0.00535488
0.00867926
-0.0208797
-0.00654858
0.168186
-0.271074
0.102888
0.102941
-0.0981982
-0.0307124
0.0270061
-0.0445242
0.351438
0.34411
-0.131615
-0.212495
0.0192741
0.339914
-0.103314
-0.45231
0.555625
0.0312497
-0.105288
0.0413487
-0.0346955
-0.00665325
0.119536
-0.00857545
-0.110961
-0.152584
-0.265273
0.417857
-0.233043
0.0325009
-0.00704411
0.021866
-0.0157618
-0.00610416
-0.0573442
0.0430572
-0.0521509
0.147151
-0.0949999
-0.00231826
-0.0122636
0.131574
-0.108354
-0.0282924
0.00741263
0.416536
-0.603172
0.186637
0.0168508
0.0149886
-0.0635199
-0.21342
0.27694
0.320509
-0.417306
0.317509
0.106409
-0.536365
0.440078
0.0962876
-0.499842
0.102268
0.413859
-0.137901
-0.275959
0.206845
0.206583
-0.413428
-0.0983506
-0.00620901
0.10456
0.00508933
-0.119946
0.114857
-0.0155653
-0.00822523
0.0237406
-0.00606554
-0.017675
0.0703421
-0.380015
-0.137514
0.554049
-0.217415
-0.0743654
0.29178
-0.00771918
-0.0801418
0.00989989
0.0702419
0.00454979
-0.00709217
0.00254238
0.116792
-0.178613
0.0618209
0.102662
0.0140396
-0.0940499
-0.0670175
-0.0702309
0.102013
-0.131162
-0.0369184
-0.115972
0.0754096
0.0405625
0.271259
-0.0386013
-0.232658
0.241392
-0.039926
-0.457805
0.104838
-0.151001
0.0461627
0.135937
0.208172
-0.550675
0.550675
-0.300689
0.11555
-0.0280803
0.227492
0.244437
-0.407133
0.0341901
0.0536714
0.0951413
-0.0265172
0.0265734
-5.62201e-05
-0.0152265
0.103986
0.00476454
0.0387888
-0.0324608
-0.00632796
-0.00438019
0.144096
-0.0732011
-0.0069407
0.262536
0.157624
0.265819
-0.469133
-0.305209
0.0878524
0.00528673
0.00594831
0.133011
0.0105889
0.0206189
0.00312169
-0.496203
0.111888
0.384315
-0.153064
0.0713727
0.156038
0.290541
-0.446579
-0.225591
0.161647
0.063944
-0.0141365
0.00227304
-0.281632
0.0385458
0.110186
0.297345
-0.428833
-0.363458
0.210873
0.12225
0.245874
-0.126792
0.19247
0.122329
-0.111085
0.177343
0.161103
0.113662
0.252508
-0.36617
-0.0186811
-0.0484064
0.0670876
-0.00466351
0.119114
-0.170174
-0.000480365
0.155192
-0.101521
0.234848
-0.384724
0.149876
0.0615884
-0.0137235
-0.0478649
-0.297821
-0.0976768
0.104682
0.0284791
-0.133162
-0.047851
-0.0137835
0.00135756
0.012426
0.0234217
0.0545966
-0.0780183
-0.552401
0.449087
-0.067543
0.201313
0.00803487
-0.00194794
0.248942
0.0666308
-0.212461
0.145831
-0.0191471
-0.00271302
0.0218601
0.16362
0.257131
0.0106167
-0.0358377
0.0292643
-0.0229506
-0.0063137
0.25132
-0.289921
-0.154057
0.121778
0.0322788
-0.0900278
0.254295
-0.164267
-0.00801774
0.0174954
-0.00947764
0.161321
-0.0539848
-0.0416067
-0.0743654
-0.00929672
-0.153659
0.217829
-0.0641696
0.0300498
-0.0339766
0.00392685
0.226017
-0.159386
-0.338819
-0.0968022
0.435621
0.277544
-0.170191
0.369954
-0.0230597
-0.0368549
0.0286914
0.00306761
0.0439348
-0.0470024
0.0616656
-0.215325
-0.00464045
0.00919024
-0.386303
0.0205248
-0.00492301
-0.175846
0.0437956
0.132051
-0.54018
0.113732
0.123358
-0.189161
-0.299873
0.232593
0.0672803
-0.00681941
0.00761901
-0.000799599
-0.138085
0.00261427
0.135471
0.136688
-0.00476226
0.0615811
-0.00871597
-0.0528651
-0.568979
0.427767
0.141213
-0.0619572
-0.0229402
0.0275743
-0.00463416
-0.122529
-0.148859
0.271388
-0.147426
0.021836
0.12559
-0.205457
-0.313399
0.518857
0.00274706
0.046645
-0.040337
-0.00630796
0.0015176
-0.141106
-0.0093799
0.0103184
0.148914
0.074854
-0.223768
-0.196279
-0.0649082
-0.0022072
0.108715
0.265274
-0.586714
-0.502929
0.118566
-0.0229873
0.00742192
-0.010915
0.00692696
-0.526504
-0.0424751
-0.281551
0.318699
-0.0278167
0.132655
-0.0826241
0.42139
-0.338766
0.124437
0.0993227
-0.275965
0.179549
0.096416
-0.0554214
0.0609081
-0.00548671
-0.0688731
-0.0695386
0.322339
-0.210452
0.0772546
0.133198
0.00171921
0.0026919
-0.100258
0.0975657
-0.388692
-0.122263
0.0679781
-0.301021
-0.0818404
0.282482
-0.200642
-0.00998969
0.047129
-0.252591
0.162564
0.0891299
0.00592832
-0.3742
-0.0548453
-0.274728
0.329573
0.0178842
0.00185633
-0.0197406
-0.0220261
-0.107761
0.0800174
-0.0801503
0.000132918
-0.136259
0.148628
-0.0123685
-0.497893
0.217754
0.280139
0.011897
-0.119456
0.107559
-6.94737e-05
-0.448147
-0.320947
-0.296081
0.112364
-0.548921
0.282393
0.124945
-0.0612821
-0.0369955
0.0982776
-0.0702041
0.320964
-0.25076
-0.262207
-0.235686
-0.0743861
0.317581
0.288113
0.466149
0.0762925
0.0948112
0.00460419
-0.0994153
-0.00598346
-0.0093239
-0.154506
0.16383
0.0609184
-0.107384
0.279835
-0.0725656
0.103712
-0.377259
0.0130849
-0.000349632
-0.103282
0.0134247
-0.00921301
-0.10965
0.075896
-0.304447
0.228551
0.436288
-0.490485
0.226219
-0.0580336
-0.00214594
0.109407
-0.0129431
-0.0911359
0.00422541
-0.0920301
-0.112125
-0.26541
-0.397754
0.253404
0.144349
0.0861364
0.647703
-0.296345
-0.351358
-0.000548139
-0.00111576
0.319284
0.19307
-0.512354
0.000877036
-0.000243316
-0.00063372
-0.0353656
-0.00502927
-0.0126355
-0.0022308
0.113627
0.401519
-0.0976557
0.0363736
0.0886451
-0.080974
0.0832419
0.0133324
-0.0969755
-0.278723
0.156194
-0.385867
0.0330855
0.352782
0.036211
-0.00688491
-0.121224
-0.0831362
0.20436
0.0989896
-0.0095983
-0.0345436
0.0145696
0.264297
-0.0318404
0.00615973
-0.126704
-0.386223
-0.0897191
0.296564
-0.00677171
-0.103382
-0.0886392
-0.0561828
0.0839773
0.529493
-0.210209
-0.0958721
-0.180093
-0.0394828
0.156275
0.093566
-0.21479
-0.0183231
0.113134
0.0618743
-0.186056
0.124182
-0.0355864
0.00149748
0.349853
0.217083
-0.566936
-0.516364
-0.0871548
-0.180811
-0.315392
0.0229879
-0.543047
0.0961798
-0.135421
-0.138086
0.0121069
0.12598
-0.00222637
-0.00806842
-0.316727
-0.0888239
-0.00171769
0.00430337
-0.00258568
0.0834885
0.170806
-0.298279
-0.240262
0.538541
0.23037
-0.642381
0.246964
0.395417
0.114008
-0.471294
0.357286
-0.00106256
0.0164205
-0.015358
-0.0441288
-0.0976331
-0.115954
-0.0343785
-0.0890277
0.0195574
0.0694702
0.00816903
-0.0677435
-0.0665975
-0.118733
0.0964099
0.0223235
-0.016482
0.0355676
0.0110774
0.00114954
0.00210214
-0.00325168
-0.0169137
0.0145955
-0.0101459
0.0435048
-0.140229
0.202104
0.00392737
0.00435405
-0.0288951
0.024541
-0.278349
-0.119404
-0.385293
-0.0549832
0.440276
0.503963
-0.139841
-0.364121
-0.0218192
0.0278217
-0.00600257
-0.0161981
-0.0240373
0.0402354
0.0213116
-0.0240246
-0.00895051
-0.032799
0.157301
-0.24181
0.0845095
-0.106864
-0.00413908
-1.06952e-05
-0.0137729
0.114572
-0.165832
0.00427439
-0.00312049
-0.00228633
0.00540681
0.0209392
0.0406693
-0.0906222
-0.11983
-0.000239316
0.00365737
-0.146977
0.14332
-0.253049
0.0894198
0.163629
-0.0919832
-0.0104841
0.102467
-0.0330241
0.0564458
0.00625076
-0.00750973
0.00169666
0.00238044
-0.0040771
0.0307203
-0.000670474
0.00464169
0.113375
0.160333
-0.150203
0.0228916
-0.00227276
-0.0223605
-0.00913149
-0.0615026
0.0916722
-0.0301697
-0.511562
0.12287
-0.162982
-0.0657103
0.000926653
0.0647836
0.00607714
-0.0675797
0.327473
-0.244183
0.194951
-0.0805588
0.310476
-0.383478
0.0730024
0.0753818
-0.0723658
0.00424672
-0.00336969
-0.0123131
0.101443
0.278889
-0.272998
-0.00325092
-0.00460346
-0.021418
0.0203554
-0.182599
-0.0806975
-0.0609136
-0.00325979
0.0641734
0.0129133
-0.0219788
0.00906548
0.308411
-0.0880711
-0.22034
0.0349913
-0.0100077
-0.0249837
0.0147027
-0.00931813
-0.00538454
0.273325
0.166406
-0.439732
-0.0157295
0.0217179
-0.00598841
0.0639218
-0.454745
-0.245733
0.20426
0.0414728
-0.207986
0.290065
-0.082079
0.0168433
-0.00230807
0.0134236
0.00736908
0.128122
-0.0163794
0.00336855
-0.00423123
0.000862686
-0.0333276
0.00736282
0.00191514
-0.00198832
7.31818e-05
0.412863
-0.249243
0.121059
0.0649993
-0.186058
0.226948
-0.300762
0.0738141
0.0893842
-0.406111
-0.260741
0.374403
-0.039793
0.0688937
-0.261035
-0.259814
0.196294
-0.00333737
-0.032249
-0.000883412
-0.0006406
0.0736186
-0.291033
-0.0512487
0.539134
-0.487885
0.0202821
0.0147092
-0.28683
0.0779549
0.208875
-0.00171896
0.301192
0.281536
-0.582727
-0.0181891
0.0237882
-0.00559909
-0.155569
0.000874969
-0.00728095
0.00640598
0.119551
0.0870199
0.0433112
-0.0052598
0.283029
0.0871355
-0.370165
0.022971
-0.161056
-0.0143703
0.020338
-0.00596769
0.005182
0.0209167
0.0202599
-0.0208691
0.000609191
0.0201197
-0.00223551
0.00354025
-0.000621149
-0.0029191
0.193365
-0.275206
0.284435
-0.396949
0.112514
0.103467
-0.152691
-0.0947776
-0.0782223
0.026446
-0.0220919
-0.0728991
-0.23747
-0.117426
-0.375053
0.492479
-0.236723
-0.000580259
0.00399619
-0.448328
0.0630351
-0.00716435
-0.107958
-0.076677
-0.0253449
0.0256965
-0.0850862
-0.00394146
-0.0238907
0.0633219
-0.591834
0.143687
-0.153308
0.0162587
-0.0249793
0.0169615
-0.365367
0.479375
-0.0229671
0.00397712
0.190575
-0.0222505
0.1783
0.325663
-0.335476
0.0754553
0.260021
0.00650653
0.00819614
-0.00229086
-0.00052183
0.00281269
0.0723235
0.191058
0.0826573
-0.133689
0.416828
-0.471811
-0.125479
-0.0126079
0.0443964
-0.0630775
-0.459667
0.117143
0.342524
0.354748
-0.476789
0.122041
0.45734
-0.142282
-0.0111105
0.00799001
-0.00539551
-0.0270675
0.165966
0.069592
-0.265871
0.109497
0.00868777
-0.0239325
0.147291
-0.03591
-0.0114564
-0.000535941
0.122402
-0.121866
-0.0212972
0.138335
-0.117038
0.0648754
-0.191667
-0.0516342
0.0205237
0.0311106
-0.468096
0.148433
0.319663
0.223574
-0.30149
0.077915
-0.00953634
0.0181765
-0.00864017
-0.0654144
0.00450082
0.00345522
-0.0407357
0.0372805
-0.0189759
0.0193955
-0.174842
-0.0782069
-0.185372
0.18903
0.00424352
-0.0325653
0.0262049
-0.126329
-0.288551
-0.375903
-0.14403
-0.0133376
0.33416
-0.320822
0.113306
-0.00380862
0.0519459
0.0978179
-0.149764
0.286534
0.353511
0.145149
-0.49866
0.00125576
0.00161646
-0.00287222
-0.021924
-0.153922
0.0531953
-0.0671477
0.051237
0.100642
-0.151879
0.0146381
-0.128681
0.114043
0.0105276
0.564328
-0.42123
-0.143099
-0.171768
0.0541415
0.117626
-0.0446018
0.00731648
0.0372853
-0.26413
0.0705302
0.00409332
0.00981629
0.00235537
-0.295873
0.0698812
0.00435769
-0.235816
-0.282184
0.162632
-0.237827
-0.0695073