/*--------------------------------*- C++ -*----------------------------------*\
| =========                 |                                                 |
| \\      /  F ield         | OpenFOAM: The Open Source CFD Toolbox           |
|  \\    /   O peration     | Version:  v2012                                 |
|   \\  /    A nd           | Website:  www.openfoam.com                      |
|    \\/     M anipulation  |                                                 |
\*---------------------------------------------------------------------------*/
FoamFile
{
    version     2.0;
    format      ascii;
    class       volScalarField;
    location    "100";
    object      ddt0(omega);
}
// * * * * * * * * * * * * * * * * * * * * * * * * * * * * * * * * * * * * * //

dimensions      [0 0 -2 0 0 0 0];


internalField   nonuniform List<scalar> 
13726
(
0.0169554
-0.0186263
-0.000523426
-0.000184338
0.00136522
-1.61301e-05
5.63272e-05
2.77244e-05
-0.0195781
0.00516506
-0.0163007
-0.000112658
-3.62876e-06
-0.0118145
-0.000229904
-6.30547e-05
0.004093
4.84983e-05
-0.00911279
0.0271879
0.000320868
3.07381e-06
-3.09361e-05
-0.000441494
-1.12398e-05
1.20292e-05
0.000493178
1.47703e-05
-1.57718e-05
-0.0184751
-0.00704264
-4.38169e-05
-0.00949277
0.000379372
-0.0347619
-0.00508509
-0.00131946
-0.0139743
-2.00793e-05
2.9994e-05
0.0052037
-0.0280047
3.19134e-06
9.60103e-06
0.0242141
0.000132626
0.184935
-3.27125e-05
-0.00386565
1.20464e-05
-0.157163
-3.44589e-05
0.0610911
5.44297e-05
0.000299507
2.0193e-05
0.0581949
0.0657904
-0.0022315
6.36124e-05
-0.0533759
-1.65421e-05
-0.0288635
3.26194e-06
-0.0328769
-4.10067e-06
0.000368273
-0.00705057
-5.82522e-05
0.0153459
0.222966
2.42365e-05
6.90704e-05
-0.000100554
-0.00914485
-0.0086642
0.00685012
0.00977426
-0.00878236
-0.00191603
0.00217701
0.00116158
-0.00295832
-1.29638e-05
-5.43929e-05
-0.00840864
0.00641876
0.000190037
5.45073e-05
0.00158539
-1.06108e-06
-0.00176263
0.000166379
-0.000343616
0.00319898
-0.00872802
0.00013185
-0.000103903
9.10563e-06
-0.158466
0.000112014
0.00345361
0.032733
-1.11538e-05
0.107831
0.0124429
-0.00228763
-4.32908e-05
-9.81053e-05
0.000659918
0.00801421
-1.55481e-05
-0.0121913
0.0383932
0.0376029
1.19303e-05
-0.00338347
-0.00513686
0.0288256
-0.000126764
0.00161487
2.44901e-05
2.08583e-05
-0.00882154
-0.0133648
-0.00842806
-4.05199e-05
0.0589428
-1.2339e-05
-0.0003301
-0.0402474
0.00803052
-0.000379832
0.00219154
0.0728402
-0.00440266
-0.0211488
0.0183555
-0.0227289
-0.000262136
-0.00273805
0.0858165
-2.47228e-05
-3.11332e-05
-0.000873043
-0.00147978
0.00351166
-0.000107135
0.00024958
-0.00882072
-1.87178e-05
-2.20068e-06
0.0014087
-0.000347928
-5.35404e-05
-0.000229167
0.00189552
0.0352103
0.00440482
1.0526e-05
2.19769e-05
-1.32125e-05
-0.0181032
-0.0133409
1.03013e-05
0.172638
0.00659237
3.89194e-05
0.000172859
-3.40262e-05
0.102191
-1.75676e-05
0.0127219
-0.000779077
-0.00727658
-0.00905388
-4.03337e-05
-0.0046083
-0.0153481
-0.000110832
-0.0161305
-3.11016e-06
-0.00679453
0.00704106
-3.54734e-05
-2.64807e-05
-3.83903e-05
3.47386e-05
-8.64936e-05
0.00181907
0.0384898
0.148725
-0.0160884
-0.0175486
6.71289e-06
7.08317e-06
1.56139e-05
0.0188378
0.234882
1.96983e-05
-0.0952941
0.01427
-0.0117773
0.000137144
-2.61819e-05
9.6479e-06
0.000191025
0.0190942
-0.000852646
-0.00240041
0.00559001
0.00209427
-0.0132319
8.05559e-06
-0.003775
-0.00896777
-0.00071357
-1.80656e-06
-0.000125666
-0.0171572
-0.000285497
-0.00492917
-0.0659812
-0.00518604
-3.1091e-05
0.00626036
-0.569069
-0.0114979
-0.0125961
0.000115578
0.000960805
-0.0986303
-0.0156563
0.0126178
-0.000144296
-8.86769e-07
0.00693329
-0.00278744
0.0175009
-0.0112902
-1.17814e-05
-0.00012466
-5.27285e-05
-0.00676277
-0.0413291
0.00577039
-0.00315133
-0.000465308
-1.82072e-05
-0.000190255
-0.0117594
-0.000160199
-0.0133506
-0.000271176
-0.000508676
0.0359422
0.000365965
-0.0178176
-0.0131477
0.00141587
0.0494709
0.00640567
0.000312264
-4.46733e-05
-0.150223
-0.0129644
-5.76535e-05
2.334e-06
-1.17075e-05
0.00018421
0.209093
-0.000783905
-0.00866806
9.4111e-05
-0.000913342
-0.0532765
-0.00876682
0.0756244
0.000861064
-7.81304e-05
0.0201771
-0.000762624
0.0726538
0.000701545
-0.00656927
-6.92916e-05
-0.015685
0.021345
0.00155365
2.46011e-06
-0.00984011
0.000772428
1.05078e-05
-0.0128386
0.0196889
0.000127382
0.0185493
1.77414e-05
0.00716397
-5.05759e-05
0.0360265
-0.00955391
0.00527647
3.86126e-06
0.0427852
0.0385764
-0.128159
-0.0142707
0.0563304
-0.000250625
0.00370484
0.0413168
-0.00748547
-0.033067
1.60485e-05
0.331665
-5.29915e-05
-0.00928417
-0.0111407
0.0124385
0.00901183
-0.00537632
-1.05539e-05
0.0709443
0.00885096
-0.00120212
6.32111e-06
0.0321996
2.61824e-06
-0.00969278
-0.00478492
-0.0308586
-6.26551e-06
0.000587162
0.0061215
2.12019e-07
-1.19202e-05
-0.00161561
5.94417e-05
-0.0124555
0.0162742
-0.00680546
-0.00851177
-0.0127881
0.036461
-0.00280315
-0.00022055
0.000800191
-0.0002464
-6.14051e-07
0.0436666
-0.00685013
-0.00810444
0.000142533
-0.000238698
0.000169671
3.7647e-06
-0.0768329
0.00170525
-0.000298102
-0.000174125
-0.000820702
0.193325
6.56221e-06
-0.00197122
-0.0138476
-0.00807735
-7.38598e-05
6.74103e-05
-0.000163486
0.00156496
-6.41115e-06
8.06057e-05
-0.000151404
0.0526066
3.56907e-05
-1.29758e-06
0.00226731
0.00133737
0.00102683
-3.5047e-05
2.22942e-05
-2.90831e-05
-0.0121657
0.000740877
-0.015167
-0.0218013
-0.0109593
-6.22559e-05
0.000282988
-2.27518e-06
7.86631e-07
-0.000141392
7.44421e-06
-1.0359e-05
-0.000458492
-0.0203276
-0.0120894
-0.00202682
-4.5744e-06
-1.80221e-06
8.46685e-05
-0.00026108
-0.00975329
-0.000399552
-0.00763716
0.000385861
5.47663e-05
-0.0180218
-0.209799
0.00538658
-0.00063678
0.00755361
0.00379717
-0.00819024
0.000119555
-0.00900502
-0.109613
-0.00982242
-0.183278
0.000873952
0.408764
2.51e-06
0.00334559
0.0169867
-0.00426061
0.0413697
2.65678e-05
1.47533e-05
-0.00588573
-0.0160577
-0.0135255
-0.00768458
-0.0132236
-0.00126658
0.00149062
2.18781e-05
-0.0195368
-0.000341008
0.00208649
-1.93479e-05
0.00252451
2.64958e-05
-0.00430695
0.0125934
1.29568e-06
0.00784
-1.05291e-05
-9.47374e-07
0.00895309
-0.00206928
0.0510482
0.016621
-0.00015087
-0.00617895
-7.17133e-06
-0.0125269
-0.00435402
-4.24067e-05
-3.57233e-05
0.00109476
-0.0235877
-0.000561484
-0.018603
-0.0337086
-0.000771247
-0.0126742
-0.00693623
-3.18442e-05
-0.0143066
0.000104255
-2.00979e-05
6.95647e-05
1.71487e-07
-0.00841843
-2.97095e-05
0.0220704
-0.00305918
-0.00629998
-0.000188328
0.0220125
0.000278801
1.38152e-05
0.0137654
9.67496e-06
-0.00345073
-1.64775e-05
0.000174883
-0.00869229
-0.00870331
-0.000507086
0.0041119
-0.0148686
-0.0133265
-0.0120069
0.000257375
0.000415114
-0.0224677
-0.00844025
-5.67574e-06
-2.70956e-05
0.0543264
-0.0501514
0.00235344
-1.86366e-05
-3.72786e-06
-0.0542526
0.00817638
0.000135097
2.19966e-05
9.83509e-05
-0.0109676
-4.50191e-05
0.00146611
1.6308e-05
-0.0579901
0.00114736
-0.000155685
0.000269543
0.00085987
5.54969e-05
0.00349937
-0.00254838
0.331269
0.00196416
-0.000402717
-0.0147132
0.0023682
1.75375e-06
0.0112043
0.00926854
0.00626165
0.040585
2.83002e-05
0.00328182
-0.000768134
0.000559005
0.0406669
-0.00276397
-0.000347513
0.0128182
-1.79064e-05
0.0472595
0.000773463
-0.0285175
-0.00435019
0.00229846
-1.25903e-06
0.0430002
1.75327e-06
1.90758e-06
0.0297487
1.82062e-05
-0.20439
9.59773e-05
-0.00017614
-4.38009e-05
0.00150814
-0.00429283
-0.0204034
0.0210855
5.19938e-06
-0.0221513
0.000309513
-0.0167159
0.0334987
-0.000190628
-1.41869e-05
-0.0149369
-0.00273467
0.000341042
-4.46128e-05
9.33071e-05
-0.0107143
8.47454e-06
0.0096843
8.77273e-05
0.00143298
0.00242556
0.00514425
-0.0100259
-0.00717408
-7.7956e-06
-2.57973e-05
-0.0260686
4.15588e-07
-0.00906609
0.034428
-3.49039e-05
0.0157655
-0.000156717
0.0152584
0.000119869
0.000604167
0.0252018
-9.04907e-05
0.00161433
0.000380669
-0.0298446
0.0437943
0.000186383
4.50185e-07
1.26313e-05
1.09781e-05
-2.30167e-05
-0.00945417
-0.00845874
0.440031
-1.7717e-06
-0.0181679
0.0425913
-0.00891547
-0.000545832
-0.0045603
0.000304125
-0.000392229
-3.12937e-05
-2.2013e-05
-0.0193494
0.000299544
1.14126e-05
0.000176851
-0.0132123
-0.0148727
0.00187889
9.00066e-06
-0.00205303
-0.00612486
-1.95548e-05
3.05946e-05
0.00657858
0.00361895
-0.00918663
1.06151e-05
-0.00785215
0.00279542
-3.72024e-06
-0.0242929
-0.0352452
7.3203e-05
-0.0106611
0.0005518
0.000482158
0.0138746
-0.00463762
-0.0223036
-0.000416731
-0.110781
0.0237217
-0.000269319
0.017399
0.00053349
-0.00903065
-7.06593e-06
0.342929
-0.000388414
5.04274e-07
-0.000173217
0.0236015
-2.1096e-06
6.13663e-07
1.99582e-05
-0.0191224
-0.083625
-0.0764756
5.33034e-05
0.016734
0.036195
0.0372267
-3.47659e-05
0.00231102
-0.00830637
-0.0165724
-0.12017
0.0225644
-0.00365912
-0.404766
-2.08359e-05
-8.71777e-06
-0.0168542
0.000107995
-0.000389961
-0.0341988
-0.190217
-1.86407e-06
-0.000285275
0.000144822
0.00029307
0.00279183
0.000332195
-1.50327e-05
6.48526e-05
2.10426e-05
-6.03361e-05
-0.00024085
0.00044389
0.000125092
-0.0133977
-0.000260924
-0.00100861
0.00497012
6.41081e-06
-1.39404e-05
0.000570924
-4.62122e-05
0.000263939
0.00141653
-0.00832569
-3.2738e-05
-0.00742793
3.18117e-06
-0.00965936
-0.00645792
-0.000549476
0.000531919
0.000139948
4.37092e-06
-4.01461e-05
0.023761
0.0790936
-3.84882e-05
-0.0140837
-0.0125235
0.0246717
-0.00545698
4.40508e-05
-0.02425
8.23855e-05
-1.54387e-05
-2.58207e-05
-0.000554055
-0.0187079
0.00614031
1.58699e-06
-0.00138315
-0.0490953
-0.0176391
0.0277273
-0.355505
9.87643e-05
3.27562e-06
-1.19838e-05
-2.61362e-05
0.00197859
-0.0083315
-0.0172833
-0.00186323
5.22078e-05
4.36791e-08
-0.0128488
-0.000694602
0.000318551
-3.07523e-05
0.000372008
-0.00771424
-0.00428766
-0.00122223
5.06896e-05
0.0197162
0.00391103
-0.000106886
0.00960716
0.0634919
6.99187e-05
-0.00345804
-0.0148075
-0.0140137
-6.15675e-05
0.000135208
0.00489663
2.04918e-06
0.00506075
0.0172691
-0.00539002
-0.0453615
2.79665e-05
-0.000369024
0.00192241
1.83764e-06
-5.01913e-05
-6.87318e-05
-0.0397925
-3.32309e-06
-0.0196716
0.0810838
-9.97557e-06
-1.74425e-05
-2.79177e-05
-0.00286025
-3.03421e-05
0.104674
0.00533901
-0.00928558
0.390959
-0.012672
-0.0119373
-0.00842518
-0.00032293
1.61181e-05
-0.000994698
-4.33222e-05
-0.00687501
-0.0171725
-0.019086
9.28169e-06
-0.000125705
3.35836e-06
0.0668678
-3.45877e-05
-0.0190365
0.0578339
0.0303926
-0.0142116
-0.0253166
-0.0129206
-0.148713
-0.0128973
0.000719017
0.0217576
2.10143e-05
-0.000735967
5.21127e-06
-0.284989
0.000417524
0.00419719
0.000190208
1.44713e-05
2.50364e-05
0.00694349
-2.68742e-05
5.43949e-05
-0.00746418
-0.123531
-4.47221e-06
-4.24055e-05
-0.0179208
-4.63632e-05
0.0035132
-0.000121231
-2.14662e-05
0.000112815
-9.64632e-06
-0.0222475
3.70078e-06
1.84396e-05
-0.00134965
-0.173137
2.02219e-06
-2.16928e-05
-0.0096685
-0.126106
-0.00458726
-7.8255e-07
-0.0116738
-0.0108449
0.00657262
-0.00591346
-0.0103333
-4.51157e-07
0.0159009
0.00284407
1.58612e-05
2.07179e-05
0.00843289
0.000246948
-0.0311991
-0.000199775
0.00102753
-4.73173e-05
-0.000598659
0.00744839
0.0021123
-3.9632e-06
0.000441626
-3.61684e-05
0.00415635
-1.12363e-05
-0.000177723
-0.00936441
0.00774906
0.000300222
-1.80103e-05
0.000197763
-7.9809e-07
0.00731172
-5.62325e-05
1.80346e-06
-0.00977019
-0.00119559
-0.00276321
0.000159027
0.0018944
-0.0354959
0.000677258
2.96772e-06
0.0180313
-0.0243536
-2.58777e-06
0.0117556
-0.00498677
-0.00077206
-0.0101901
-0.0124643
0.00368132
0.0852373
0.0380433
-4.28236e-05
-3.4741e-05
-0.00950517
-3.08199e-05
0.0412987
4.18026e-05
0.0245326
-0.00842794
-0.000370774
-0.0112286
-0.153068
-0.0742618
0.00068722
-1.01517e-05
-1.84783e-05
0.00392068
-0.0136626
0.0001795
0.00393884
0.0020455
0.0420443
-0.0219255
0.0437745
-0.173245
-1.2251e-05
-0.19328
0.000741303
-2.12179e-05
-9.12484e-06
-0.0134062
0.00547132
-0.00012525
-0.00252408
2.77674e-06
0.228713
2.83119e-06
0.00749022
-0.0102708
-0.0108614
-7.61413e-05
-8.64355e-05
0.0108686
-4.78576e-06
-0.00972579
0.0605799
-3.10921e-05
0.00187361
-0.0371375
-0.00265468
-0.033455
-1.05065e-05
-0.118187
5.15043e-05
1.47002e-05
0.00582289
-0.00163851
-0.017084
-5.49653e-05
-0.0112536
0.00800026
-0.00390982
0.0105197
0.453603
-0.0154313
0.00191945
-0.180817
-0.00633174
-0.00754407
-0.0132062
-1.75921e-05
-0.0103621
-0.0172279
0.000851744
-0.00509187
1.85175e-06
-0.218154
1.34091e-05
-0.00824633
-0.0190677
-0.0205988
-0.0065722
-0.00622946
-0.00932281
-0.00269409
-0.0128645
-0.00044115
0.0716688
-9.20705e-06
-0.0064609
0.0040843
-1.64262e-05
0.0131798
-1.55846e-05
2.57825e-05
-5.85009e-05
5.87003e-07
-0.0135079
-0.00769791
1.76095e-05
-5.52523e-05
0.0278948
-0.00698287
0.000481194
0.000311942
-0.125138
1.83689e-08
-0.000957003
-0.000456545
0.00673027
-0.0229073
1.72516e-05
-0.106713
0.000455005
-0.0447493
-0.0107436
1.15127e-05
-0.00163195
-0.000185176
-0.0232006
-0.00620332
-0.0151832
-0.000164418
-0.0290533
-0.000411766
-0.0150729
3.47039e-05
0.153696
1.29976e-06
-1.97459e-05
-0.0965313
0.000272975
-1.82053e-06
0.228854
-1.51383e-05
0.00329119
-0.00700343
-1.28821e-05
-0.00014333
-0.183487
-0.018567
5.01137e-05
0.0109151
8.45435e-07
-0.000250354
-0.000319425
0.000203884
1.75786e-05
-7.73475e-06
-7.51187e-06
-0.0377887
0.0152062
0.000127871
-0.00678144
0.000965652
0.0908008
-1.78522e-05
-0.000497056
0.221364
0.231374
1.12052e-05
0.000316969
0.00784662
-5.32821e-06
0.00582922
1.51017e-06
-0.00713013
0.0294863
-0.00111736
0.00148395
-0.0139154
7.7631e-07
0.0013464
-0.0422157
-0.0026382
-2.18682e-05
-0.00680968
7.98091e-06
-0.0100657
-0.0107153
-5.39575e-05
-2.77855e-05
-0.00477727
0.00644538
-0.000363542
0.05662
-0.000829382
-0.00046285
0.00098227
2.51813e-05
0.0207639
0.0573641
1.01585e-05
-0.00711826
0.00826613
4.23565e-05
-0.00896204
0.0354101
-0.018966
0.0191394
-0.0575526
-0.00120413
-0.0121864
5.30609e-05
-0.0108369
-0.00831879
-1.63967e-06
0.0103315
1.74269e-05
-3.52999e-05
0.00718688
0.0888622
0.0933579
0.00182499
-5.32213e-05
-6.21986e-06
-0.0097035
-0.0776002
-0.000180487
0.00537017
0.00851762
-3.12202e-05
1.73122e-05
0.000977918
-0.00142525
-0.00705392
-0.000398544
-5.43499e-05
-0.000324978
-0.0493621
0.000578906
-0.0124053
-0.00127879
-0.0088203
1.28507e-05
-4.32601e-06
-0.0106143
0.00563855
-0.00783531
0.00124251
0.0106823
-0.0010478
-1.02794e-05
-0.000226684
-0.0521887
-0.0173504
-7.25342e-05
-0.00830674
-0.00754864
-1.59505e-05
0.0364113
-0.00924435
-0.00950842
-0.0249851
9.93185e-06
-0.101634
-0.00892582
0.0156247
-0.000664153
-0.00207306
-0.0174326
0.000257141
4.16207e-05
-0.00914037
-0.00125219
0.0235439
-0.0113674
0.00133291
-0.00592657
-0.00999073
2.14104e-06
0.00391985
0.0940081
-2.97905e-06
-0.000120189
-0.00852215
0.000241839
-0.000881547
0.00115315
3.66149e-06
-0.0162424
2.1898e-07
0.0100905
0.0409652
-0.0168317
-2.53558e-05
0.000690837
-0.00720566
1.36086e-05
-1.02916e-05
-0.00042937
1.99207e-05
-3.22464e-05
0.00441047
-5.25418e-06
2.3931e-06
0.00765329
-7.15124e-06
-0.000543899
-3.96357e-05
-0.0139936
5.10372e-05
-0.0029384
0.284945
2.97125e-06
-0.0184571
-0.0225618
0.000698873
-6.72714e-05
-1.43841e-05
-0.00609635
-3.79389e-05
0.0191325
2.92836e-06
-3.8954e-05
0.0339248
-0.00696796
-3.44977e-05
-0.000442049
-0.00153892
0.00148639
1.81198e-06
0.00642824
0.000108667
-0.00584239
-0.208544
0.000110132
1.63192e-05
-0.0147902
-0.0126895
2.2956e-06
-1.60147e-05
-0.0126046
0.00730428
0.0036091
-0.00490945
0.000351887
-0.048384
-0.00139888
-0.0133831
-0.0145769
3.32891e-06
2.40444e-06
0.0597688
0.00184078
-3.7429e-06
0.000233835
-0.0160976
-0.0108302
-5.91178e-06
0.000890624
0.0182286
2.09323e-05
0.000549053
-0.0447546
0.00256605
-5.6969e-05
-0.0032359
-5.05547e-06
-0.000508472
-0.00178747
-0.198691
2.9935e-05
-0.0164035
6.22223e-06
-0.000225535
-0.000415215
0.000993247
-3.1441e-05
0.00135107
0.000565816
1.24821e-05
0.0105637
-2.76606e-05
-4.36098e-05
-0.00964593
-0.000125506
-4.12641e-05
-0.000699939
-2.26175e-05
0.000182391
1.81968e-06
-0.00814054
0.00176075
-1.7083e-05
-0.0138348
-0.0241823
-0.100147
-0.00220812
-0.00517534
-0.00629058
-0.00116002
-0.0100337
-2.41636e-05
6.90439e-05
7.27502e-07
-0.0165707
-0.00522323
0.00845861
-0.0128802
-8.62316e-06
-1.04294e-05
7.77006e-06
0.00170825
-0.000471655
6.69471e-07
3.07399e-06
-1.9556e-05
-0.101582
-1.31854e-06
2.06573e-06
-8.30165e-07
0.00465168
-2.9569e-07
8.35369e-06
-0.000963157
-0.0250121
9.40739e-08
-0.000138564
0.000153319
0.0263989
-0.000133641
-0.000891557
-0.000830847
0.00028314
0.0691368
0.0924425
-0.000335538
0.0072264
-0.00368108
-7.14556e-06
5.57896e-06
2.76934e-05
3.71978e-05
0.00361457
0.0106794
-8.61682e-05
-0.00642288
2.39788e-06
5.87792e-05
-0.0020213
-5.67212e-06
-7.31852e-07
1.10447e-06
-0.00012188
4.17741e-06
0.000944209
0.0811228
0.0997028
-0.032376
-0.0648955
-0.00973417
-1.54834e-05
-0.00872619
-0.00678573
1.01077e-05
-0.196191
0.00711234
-0.0090319
1.4338e-07
-0.133993
-0.000584179
-0.0957414
-9.91051e-06
-2.70541e-05
1.65203e-05
-0.000610215
0.0429642
-0.00324412
0.00279464
-0.00207403
-0.0108651
-2.50922e-05
-1.24193e-05
9.21871e-05
0.00458694
-4.74826e-06
1.42624e-06
-0.00246235
1.60548e-06
-0.0125223
-3.37617e-05
0.00157425
-9.71477e-06
-9.11102e-05
0.00512997
-1.93024e-05
0.00727825
0.00212195
-0.1397
-8.25726e-09
0.000153868
-0.0159531
0.109346
0.0323274
1.33256e-06
-0.0039836
0.00809488
-0.0149566
-0.00594357
4.53633e-06
1.37843e-06
-2.54845e-05
2.12324e-06
0.0800514
0.00175227
-1.52561e-05
0.000135262
-0.00969218
-0.0106511
-0.0153255
0.00197227
-0.0178994
-1.10424e-05
-4.05958e-05
-0.0286746
-0.000437704
0.0191711
0.000142479
0.00271218
-0.000821808
0.106624
-0.0141202
-0.0230041
-0.0817773
-0.0111665
4.3031e-06
-0.000650833
-0.152559
3.04631e-06
-3.91032e-06
0.0277986
-0.218693
0.000413847
-0.0191616
-3.96702e-05
-0.0142319
-8.58145e-05
0.0190504
-1.97263e-05
0.000761433
0.0011593
-0.00785355
-0.00703796
-0.0583095
-1.14089e-05
-0.0230233
0.000494005
-0.000546688
0.00778753
0.00758956
0.0391856
3.94767e-05
0.00108391
0.000387153
0.00584191
-0.000856599
-0.000455528
2.80708e-06
0.0297979
0.0924826
6.80124e-05
0.00100554
0.000762537
6.05934e-06
0.000857687
0.0280207
2.25411e-07
0.0544472
0.0293541
-4.03837e-05
6.5397e-07
-0.000133255
-0.0204727
0.00212594
-9.80425e-06
-7.27453e-06
3.54363e-06
-0.000195387
-0.00434372
-0.0199772
-0.000519679
-0.0134041
-0.000139885
-0.00878849
0.0584446
0.00134924
-0.0124578
9.33497e-06
0.00217939
-0.0239846
0.000249308
-0.000152734
0.000533135
8.68309e-06
5.60002e-05
0.00368687
-0.00143192
0.00615903
1.38447e-06
-7.68298e-05
-0.00655735
-0.00363603
0.0137374
0.197484
0.000507516
-0.00226317
0.00936278
-0.0158213
-1.24441e-05
-0.0202479
-0.0194729
2.8041e-05
-0.0081737
2.49802e-06
0.000373418
1.50015e-06
0.000167001
-0.041862
-0.0686623
1.39851e-05
1.04134e-05
-0.0197734
-0.195367
0.101908
0.00239993
-0.0151279
0.000106204
-0.00163926
9.03257e-05
-4.13452e-06
-3.15394e-06
-1.02463e-06
-0.0102973
-0.00685886
-1.23902e-05
-0.00333872
-1.33535e-05
-0.043422
3.57276e-05
-0.00576662
0.126714
-5.48724e-06
0.000324915
-0.00424544
-0.00565661
-0.00345714
-0.00688258
0.00139604
-0.00927127
0.00152329
-0.0413574
-0.00949049
-0.000192864
2.51327e-06
0.00771595
-5.06358e-06
-0.000164022
-0.000150463
5.6737e-06
0.000634988
-0.0125332
9.67227e-05
0.02084
0.00480155
0.000481779
-0.00120032
0.0157234
-0.000340194
0.186688
-0.000530307
0.149413
0.117302
-0.0121232
-0.00746649
-0.00830262
-0.0142237
-1.79518e-05
0.000269522
0.0133605
0.000442819
-0.00261459
0.173029
-0.0108016
0.000394125
-0.00239001
-0.00015631
-0.00916503
-0.0228887
-0.0245829
-0.000281928
-8.42813e-06
-0.000652306
-0.00689344
0.00845765
-0.00772448
-0.0833296
0.077039
-0.00277105
-0.0125622
-9.11117e-06
-0.0166856
-0.00863035
-0.0164835
0.00182118
-0.000870936
-0.0385721
-0.000132376
0.000102953
2.49106e-06
-0.00280602
0.0161677
0.023316
-1.61313e-05
0.00195761
0.000361021
0.00451379
-0.0153645
-4.27734e-06
0.0167027
0.00413832
0.00737258
-3.26151e-06
8.71289e-05
4.76316e-07
0.0307433
0.113106
-0.0132194
1.94807e-05
2.42212e-06
0.0378495
0.0016986
0.00634832
1.22766e-05
-0.0141284
-0.00723686
1.76026e-06
2.31203e-05
-0.0107119
7.5554e-06
-1.50454e-06
0.00188746
-0.000244865
-7.12008e-05
-0.0127671
0.0210245
-0.0194032
-0.00473008
-0.0257443
-0.000526603
0.130388
-0.0435207
-0.00752809
0.00141476
-0.00717443
-0.000407472
-0.00110972
-8.08536e-06
-1.78491e-05
-0.25891
0.037828
0.006199
7.84588e-07
0.00393295
0.0739098
-0.000687133
-5.15564e-05
-2.39971e-06
-0.0181021
1.60283e-05
-0.0110873
0.00171226
-0.0127658
-0.00656222
0.000322885
0.0167196
-0.0117143
0.143488
3.56419e-07
4.42219e-05
1.928e-06
-0.0091602
-0.000280717
-0.00298309
-0.000623498
-0.01507
-0.000900399
-0.00839915
0.0233776
-0.0276903
0.169431
0.00792414
-0.00512739
-0.000439742
-0.0345718
-0.00204316
0.219106
-0.000103051
0.00859662
-0.000443618
-4.02142e-06
-0.0137932
2.62059e-06
-0.00514665
-0.0114158
0.00581999
2.9074e-06
-0.00819962
0.00181902
-0.0134072
0.0924704
-0.000626211
0.000513005
1.45114e-06
-0.00342186
0.00593489
-0.0152442
0.00893554
-0.000338349
-0.00635823
-0.0148605
-9.70619e-06
-0.0131799
7.6153e-07
-0.00620703
-0.00226672
0.00148093
-1.93375e-05
-0.0012829
0.122459
0.00196039
-0.00031677
4.2291e-06
0.0308493
0.000188109
0.000387153
0.00669527
0.00720356
0.00893113
4.14671e-07
-3.9323e-05
0.00204689
-0.0170421
0.000956943
0.0247754
-0.00461807
0.00472724
-0.0165141
-0.00901788
0.000774418
-0.0258317
-4.71877e-06
-0.0105824
-0.0144705
-0.0188612
-1.37889e-06
-0.0173515
0.0087357
-0.000646452
-0.0146998
0.000759288
-1.47766e-05
-0.00046375
-6.83575e-05
-0.00357898
0.00988189
7.56586e-07
9.96333e-05
-0.00576655
-0.00126149
1.60983e-06
3.93416e-05
-0.0111273
1.32654e-05
0.000704901
1.97643e-06
-1.20642e-06
-0.00867547
0.00283595
-0.00837462
4.22961e-05
-0.0144075
-0.0135841
-0.000373749
-0.000233001
-0.00125152
-6.80625e-05
-6.41886e-05
0.00471611
0.00913927
0.00295303
-0.00259733
-0.000137914
0.0119684
0.000128595
8.65548e-05
-0.000262464
0.00539301
-4.58975e-05
-0.0676555
-0.0029075
0.00301878
-0.0147658
-0.121284
0.0108737
0.00551515
0.01173
-0.0120099
9.54456e-05
0.000962197
-0.0134555
-4.69956e-06
0.00782125
0.0340589
-0.00218627
-0.0953771
-0.00125052
-4.6965e-05
-2.88118e-05
-0.0203151
-0.00113877
-6.16145e-05
-0.00609657
-4.07356e-05
-1.84168e-05
0.314295
-0.0159632
2.46844e-08
-0.000739653
-9.27188e-06
-0.0142857
0.000160421
-6.50464e-05
-0.143165
-0.00317414
-3.46411e-05
0.000929449
-0.014967
0.000504854
0.0348481
0.141409
5.98147e-06
0.000396352
0.00500797
5.21005e-06
-0.0135102
1.38879e-06
0.000379095
0.0450898
-3.84613e-05
0.0138697
-0.00906014
0.00160879
3.60278e-06
-0.0146256
-0.0234719
0.000127479
0.000398876
0.133369
0.0472877
4.80282e-06
0.00749558
-0.0148754
0.000446104
-0.0189671
-0.0153945
0.00646129
-0.0136463
-0.00042534
2.88155e-06
2.74671e-06
-2.33789e-05
0.0410225
-0.000409783
0.00244175
-3.98547e-07
-0.00740837
-1.35949e-06
0.00714462
0.123961
0.000434288
-0.132201
-0.00243723
0.00392459
-0.0256441
-0.0102297
-3.4588e-05
3.08231e-06
0.0165181
0.000554758
-0.00490916
-0.0115624
-0.0159194
-0.00493122
0.0135428
0.013447
-0.000211088
-0.00475296
-0.0155509
-0.0175193
-0.000190774
0.069512
-0.000128273
-1.99361e-05
0.0099198
0.00826246
-0.00568238
2.05324e-05
0.000394364
0.000239837
2.87398e-05
3.54862e-06
-8.60118e-05
0.0397436
1.26281e-05
-0.174636
-0.00234896
0.00463548
-0.0155542
1.11462e-05
0.0216233
-0.0136997
0.00290604
0.00978949
1.8465e-05
-8.00056e-06
2.18763e-05
0.00365723
0.00810043
0.000835953
0.0664502
-0.0147842
-0.000206783
1.85529e-05
0.0329848
0.000371131
0.00761338
1.93942e-05
-0.00752527
0.0103763
-0.00760797
2.1285e-05
-9.78517e-07
-2.25367e-05
-0.00146701
-3.72785e-06
9.78514e-05
0.00125333
-0.00173212
0.0326117
0.0110863
-0.00449468
0.00645919
-0.00604521
-0.0170689
-2.21994e-05
-0.00403358
0.000868596
0.0214078
-0.00725999
-0.000516115
-0.00804393
-3.74922e-05
-7.08738e-06
0.00456454
-0.018921
0.000269507
-0.000342642
-0.000216514
-9.98651e-05
0.000260789
-0.0342254
0.0132515
-4.43233e-06
2.79268e-06
-0.00385276
-0.0332214
-2.85639e-05
-0.000988249
-0.0168205
-0.000293795
0.00339117
-0.000315786
0.00181134
0.00368715
0.16722
-2.19501e-05
-0.0117212
0.00608867
-0.00623206
-0.0024939
-1.05658e-05
6.77481e-07
0.00570902
-0.00230418
-0.00145697
-0.0191501
-2.62571e-05
0.0159468
-0.00884786
-0.00266802
-0.0111817
7.09155e-05
-3.89518e-05
0.00221259
0.0514395
0.0129884
1.16707e-06
-0.000308093
-0.0175201
-1.61545e-05
-0.000121683
-0.0170228
0.00274948
0.00122656
-0.00553993
2.86082e-05
0.00145009
1.69337e-05
0.0010514
-0.00465252
-0.00209962
-0.0160232
0.00765273
-0.0079226
-0.0129448
-8.69463e-06
-0.0317575
1.51519e-05
-0.0030291
-0.00900665
-0.0109996
-0.00961208
-0.0533689
-0.00780443
0.025127
0.021005
0.0315766
-0.0517071
-0.0208097
-0.0355671
0.169871
-0.00951836
-0.131377
0.00218794
0.0049992
-2.34616e-05
2.43244e-05
0.000386407
-0.00964286
0.00112285
-0.0114837
-0.000215222
-0.0137022
0.171645
0.002043
4.06809e-06
0.00388419
-0.00917087
0.000333235
-0.0102881
0.00506308
-0.00954061
0.00830791
-0.0150778
0.000359998
-7.01145e-05
1.44683e-05
-0.0114189
-0.00889693
-0.0120919
0.00191457
-1.68528e-06
0.0348133
-0.0195786
0.000322122
-2.7557e-06
-0.0171532
-0.00237499
-0.0363105
-0.0431945
5.09731e-06
0.219338
-0.00261328
-0.00046542
-0.0105469
-0.00623281
-0.00357367
0.00915934
0.00576259
-0.00663937
-0.00109498
0.00349043
-0.0175848
-4.57198e-05
-0.0230852
-0.00620069
-0.00458122
0.0090045
0.0113477
-0.00347807
-1.60056e-05
-0.0122872
-0.000402641
-5.95736e-05
-0.00543649
1.57005e-05
-0.0026361
-0.0110349
-0.00950067
-0.00632318
-0.01588
-0.0167393
2.30915e-06
-0.00665822
-0.0095364
0.00709701
-0.000577291
0.000272251
-0.00671072
0.0002941
0.00011778
-0.00278073
-0.00471068
-0.00292253
-6.32602e-05
-0.00470162
0.0186487
0.017088
0.0116168
0.00195182
0.00440635
1.39791e-06
-1.48545e-05
-0.0126163
-1.27677e-05
-0.0190294
-0.0120024
1.03257e-06
-3.60975e-05
0.00524962
0.00453057
0.0118201
0.022202
-0.0144069
-0.00988253
0.00836978
-0.016191
-0.00577076
0.0909257
-0.00691248
-0.0119596
0.206706
-0.00859935
-0.00821213
0.000643393
-0.000527694
0.00453826
-0.0158882
-0.00445064
-0.0010051
0.0121933
0.000146027
0.00188761
0.00622971
0.00876739
-0.00551373
0.0247729
-0.0104615
0.00227369
-0.00067389
0.000618769
0.329108
0.00135967
-0.0121719
-7.31005e-05
0.00566215
-0.0172837
4.7691e-06
-0.000404802
0.0844287
0.00394944
-0.00350037
-0.000344413
-0.000913063
0.000353016
-0.000776911
-2.59844e-06
-0.0124638
-1.81493e-05
0.0263032
8.57457e-06
-0.00675913
-0.000281269
-0.00160328
-0.000240348
0.00139663
-1.09101e-05
0.0062223
0.0718744
-0.0338802
0.0228863
-0.0253913
-0.00561314
0.000200389
-0.000881518
0.00759059
-0.0101682
0.00736457
-0.00400505
0.0261403
1.96025e-06
0.0271141
-0.0151177
2.7244e-07
0.0177606
-0.0208057
-0.00212994
-0.00732772
-0.234352
-3.88985e-05
-0.00101375
-0.012306
0.00121881
-0.00112155
0.0170801
1.51891e-05
-0.00164593
-0.00777802
0.00376681
-0.00452268
-0.0123237
-0.0123904
-1.23467e-06
-0.0109689
-0.00642946
2.14188e-05
-0.0063535
0.0669572
0.000517212
-0.0219227
-1.83856e-07
0.00974497
-0.0471079
0.00895842
0.00882295
-1.42295e-07
-4.68246e-05
-0.00673134
0.0913601
-0.00827833
0.130473
-0.00652581
2.07651e-05
-0.000160907
-0.0118189
0.020857
-0.0145419
-0.00495752
0.00871839
0.000462333
-1.31114e-05
-0.00988187
-0.0248253
-0.0100316
0.0135763
-0.00175149
0.000447676
-0.0173852
0.00438815
0.00620866
-0.00939595
-0.0194025
-0.00900156
-0.00934059
-0.0229312
-0.00915376
-0.275163
-0.0125798
0.00267576
-0.000856566
-8.14757e-06
0.0169568
0.00504592
-0.019794
-1.36294e-05
-0.00809971
0.00333709
-0.0155394
0.0231224
-0.000300819
0.0227732
-0.0354146
-0.00205961
-0.00192477
-0.00859083
0.0654454
-0.0482915
-0.0146028
-0.00715014
-0.00536511
-3.53526e-05
-0.000697516
-0.0100626
-0.00591098
-1.9622e-05
-0.00177859
0.140838
2.47791e-06
-5.85764e-07
-0.00674492
-0.0167568
0.000816335
0.00199477
-0.0111957
-6.04172e-05
-0.00715827
-0.00662295
1.10731e-06
-0.00322268
0.000412152
0.00160171
-0.0764664
0.000111375
-0.00201018
0.00306731
-0.144092
0.00618321
-0.0132156
0.000481061
-0.0115024
-3.98616e-05
-0.0032034
0.00301635
-0.0127619
0.000302075
-0.0148686
0.0205084
-0.0870305
-0.0216856
-0.0148489
0.00704115
-0.0153743
0.00169044
-0.00987105
-0.0130462
-4.04151e-05
-0.0178852
-0.0159749
2.76111e-05
-0.0319582
-0.0112016
3.04434e-07
-0.00288188
-0.000477
-2.73153e-05
-0.00985465
-3.69176e-06
-0.0184916
-0.00907673
-6.25473e-06
-0.0107232
0.138672
0.00109423
-2.15976e-05
0.000859792
0.00774656
-0.0183963
0.0150608
0.00242739
0.000343141
-0.0109275
2.81323e-06
0.0134915
0.00552299
-0.0949868
0.013992
-0.00683647
0.00145012
-0.206473
-1.8889e-06
0.000232656
-0.0150593
-0.01167
-0.00910188
-0.00135123
-0.00868378
0.00447545
-0.0148894
-0.00336139
-0.000221766
6.01544e-06
-0.0102506
0.0129343
-0.000219595
-0.000135727
0.0269622
-0.0173851
3.28844e-05
-0.0450657
0.00130628
-1.70943e-06
3.06088e-06
0.000397312
-0.0102208
-0.00619517
-0.0109772
3.32772e-06
-1.23829e-05
-0.00339506
5.69164e-06
-0.023186
-0.000222405
-0.00144718
2.39242e-05
-0.00978683
-0.00158296
0.00627714
-0.012128
0.0011865
-0.0206175
-0.0135897
-7.97262e-06
0.267871
-0.000860178
-0.000279303
-0.00944077
0.00913435
-0.005929
-0.000173056
0.000573179
-0.0677098
-0.0253967
-3.5192e-07
-2.61012e-06
-0.000396913
-0.0032088
-4.10448e-06
-0.0117416
0.00842884
2.42128e-06
-0.000483895
-0.0211572
-0.0123396
-0.0134895
-0.0122974
-0.00793201
-0.0632718
-0.00496989
0.0017621
0.000512408
-0.0163813
-2.87426e-05
-4.93727e-05
-0.00360072
-2.01513e-05
2.34212e-05
0.000415427
6.90371e-07
-0.0049781
-0.000560943
1.62872e-05
-4.66433e-06
-0.000167899
-0.00141264
0.0082091
-1.42151e-05
0.00179573
0.00149382
-0.0107175
-0.000153156
-0.000869439
-0.00662207
8.12718e-07
-0.00492991
-0.00167287
-0.00265895
-0.000144277
0.000423111
0.000678539
-0.0155961
-0.0146855
0.021413
-8.60732e-05
-5.56364e-05
-3.81609e-06
-0.022192
-0.000103756
-0.0221848
0.00292836
-0.0224439
-0.000444495
0.000868854
-0.00133777
-0.00540018
0.22478
0.00644977
-0.0122808
0.000317614
1.14234e-05
-0.00655811
0.022611
0.0678891
7.1193e-05
0.0356787
0.00815009
-0.000876014
0.0107345
-3.56127e-05
0.00320934
-0.000619063
-8.72493e-06
-0.0156213
-0.017607
0.000568926
0.242438