/*--------------------------------*- C++ -*----------------------------------*\
| =========                 |                                                 |
| \\      /  F ield         | OpenFOAM: The Open Source CFD Toolbox           |
|  \\    /   O peration     | Version:  v2012                                 |
|   \\  /    A nd           | Website:  www.openfoam.com                      |
|    \\/     M anipulation  |                                                 |
\*---------------------------------------------------------------------------*/
FoamFile
{
    version     2.0;
    format      ascii;
    class       volScalarField;
    location    "100";
    object      k_0;
}
// * * * * * * * * * * * * * * * * * * * * * * * * * * * * * * * * * * * * * //

dimensions      [0 2 -2 0 0 0 0];


internalField   nonuniform List<scalar> 
13726
(
0.000254523
0.0224712
0.000157513
0.000171145
0.000211245
0.000194147
0.000164576
0.000160451
0.000216829
0.00018273
0.000213425
0.000160063
0.000151118
0.0445625
0.000170863
0.000156045
0.000219006
0.000166415
0.0589652
0.000336253
0.0649887
0.000138589
0.00015921
0.000157875
0.000140271
0.000148473
0.000175363
0.000148453
0.000139804
0.0163938
0.0797511
0.000154974
0.0550017
0.000182885
0.0132457
0.0447317
0.000168299
0.024812
0.000159812
0.000161849
3.84739e-05
0.0132597
0.00015045
0.000158126
0.000286934
0.000157443
0.00348207
0.000155727
0.000195621
0.000147725
0.0478252
0.000156533
0.000722495
0.0001664
0.000159606
0.000170931
0.000820726
0.000931438
0.000175704
0.000157039
0.0349383
0.000158001
0.0325893
0.000138399
0.0173061
0.000152745
0.0617238
0.0480934
0.000157929
0.000217443
0.00238746
0.000160072
0.000155147
0.000153052
0.0583652
0.0458128
0.000219967
0.0664508
0.0564709
0.000210836
0.00025988
0.000193801
0.000209574
0.000152842
0.000160426
0.0358965
0.000217823
0.000156125
0.000150615
0.0665586
0.000144366
0.00021423
0.000157234
0.000159462
0.029084
0.0525256
0.000191709
0.000160398
0.000157819
0.0100504
0.000157256
0.000183142
0.000412664
0.000143612
0.000653246
0.000217692
0.000208772
0.000154452
0.000161574
0.000190786
0.000192448
0.000143961
0.0752314
0.0633938
0.058116
0.000160828
0.000397888
0.0810581
0.000486088
0.000156983
0.00811069
0.000156362
0.000158532
0.0578837
0.0741223
0.028271
0.000158512
0.00106485
0.000143896
0.000177135
0.0364205
0.0523234
0.000178753
0.000194993
0.0424294
0.000210585
0.0197315
0.0021243
0.00300989
0.0304792
0.000201745
0.0436293
0.000153603
0.00015373
0.000202958
0.000168231
0.0639902
0.000159058
0.000156473
0.0571456
0.000159034
0.00015565
0.000195331
0.000158462
0.000156792
0.000170978
0.000164101
0.0109915
0.0287584
0.0001421
0.000149034
0.000153418
0.0340886
0.0490934
0.000150673
0.000855966
0.0317356
0.000165637
0.000156532
0.000147609
0.000556439
0.000170001
0.0166317
0.000160321
0.0652375
0.000302175
0.000152116
0.0771816
0.0765694
0.000154543
0.0716601
0.000151751
0.0309768
0.0200988
0.000153075
0.000153065
0.000154488
0.000156202
0.000159111
0.000165031
0.0598849
0.000985528
0.0178952
0.0189469
0.000159073
0.000151354
0.000160713
0.0230329
0.00165039
0.000168242
0.0195977
0.00194754
0.0207448
0.00018125
0.000152707
0.000154239
0.000157792
0.0313151
0.000156839
0.000198676
0.000213487
0.0298669
0.0186649
0.000137522
0.0656719
0.0570599
0.000158608
0.000151238
0.00016739
0.0713049
0.00016041
0.000176081
0.0106055
0.0457364
0.000153047
0.0261256
0.019158
0.0647991
0.0622963
0.000155513
0.0345562
0.0228738
0.0697745
0.0661845
0.000153556
0.000149015
0.0252675
0.0825724
0.0106841
0.0698239
0.000143556
0.000160725
0.000154611
0.0478653
0.0115547
0.0571635
0.000175662
0.000178495
0.000152434
0.000212983
0.074073
0.000153474
0.0660529
0.000176556
0.00020113
0.000211098
0.000158883
0.0739657
0.0477656
0.000175695
0.000219599
0.0255603
0.000186501
0.000151138
0.0467223
0.0813004
0.000155236
0.000149328
0.000141389
0.000201923
0.00353806
0.00017669
0.0739444
0.000180802
0.0362663
0.0346804
0.0588035
0.000485113
0.000158052
0.000155609
0.0285792
0.000160208
0.028312
0.000178526
0.0452056
0.000154365
0.0311296
0.00301725
0.00017616
0.00015241
0.0264053
0.000178344
0.000142245
0.0469019
0.0322397
0.000159022
0.000191903
0.000154117
0.056711
0.000147111
0.00492859
0.0501424
0.000199987
0.000147937
0.00110431
0.0137951
0.0122749
0.0722649
0.0140375
0.000168369
0.0658077
0.000677922
0.0804538
0.0107548
0.000157436
0.0029991
0.000154975
0.035474
0.0695441
0.0333287
0.0516501
0.000193652
0.000151978
0.000437893
0.000206967
0.000177661
0.000147799
0.0311647
0.000146223
0.0324307
0.000262814
0.0195891
0.000158762
0.000179531
0.000200073
0.000146428
0.000159626
0.000174335
0.000166173
0.000192543
0.00714461
0.0465197
0.0650563
0.0322427
0.0160937
0.000211191
0.000164195
0.000200431
0.00020236
0.000153317
0.0418289
0.0469669
0.0544664
0.000159294
0.000168132
0.000155911
0.000157648
0.0179641
0.000165872
0.000160981
0.000160274
0.00017795
0.00297501
0.000158246
0.000183299
0.0707438
0.076476
0.000158467
0.000168577
0.000168228
8.88348e-05
0.000151463
0.00015857
0.000167554
0.00236064
0.000170961
0.000140767
0.0728188
0.000193967
0.00021327
0.000153612
0.000151592
0.000157502
0.0454568
0.07372
0.0799917
0.0704781
0.000176895
0.00015953
0.000167426
0.000154356
0.000146361
0.000157632
0.00015978
0.000149581
0.000168107
0.0676814
0.0457367
0.000188213
0.000153531
0.000154587
0.000154123
0.000161882
0.000190921
0.000156968
0.000178085
0.000168115
0.000157546
0.0762685
0.00222895
0.0279648
0.000164724
0.0552698
0.0644897
0.000572016
0.00015668
0.067878
0.0310633
0.0280933
0.0455348
0.0663867
0.00160386
0.000137606
0.000202595
0.0299188
0.000349857
0.0295828
0.000154739
0.00015248
0.000192725
0.0787012
0.0734583
0.0520573
0.0719946
0.000163111
0.000140037
0.000156736
0.000383719
0.000171153
0.000203555
0.000159408
0.0292978
0.000174779
0.0521455
0.000103018
0.000158877
0.0353345
0.000142679
0.000152414
0.000198701
0.000136344
0.0422802
0.0504322
0.000158311
0.0396046
0.000147716
0.0691988
0.0374881
0.000149495
0.00015856
0.000176302
0.0637753
0.000182433
0.0509751
0.000169957
0.000163043
0.067511
0.0349437
0.000150355
0.0765685
0.000193404
0.000144904
0.000166104
0.000154592
0.0598546
0.000151173
0.0111127
0.000937383
0.0430111
0.000190193
0.00117431
0.000164651
0.00014934
0.032144
0.000141482
0.000140611
0.000153319
0.000168562
0.0487468
0.0611645
0.000164816
0.000220513
0.000189944
0.0509861
0.0457031
0.000173174
0.000165657
0.0609757
0.0406219
0.000144212
0.000151236
0.00149466
0.000108829
0.000199049
0.000168573
0.000143974
0.032136
0.0248638
0.000160068
0.000154275
0.000153636
0.0339583
0.000149564
0.000196363
0.000149474
0.0177721
0.000216109
0.000159485
0.000172872
0.000174377
0.000157938
0.000199696
0.0321761
0.000811365
0.000204542
0.000200709
0.0564673
0.0002139
0.000138323
0.00295615
0.000192583
0.000183356
0.059312
0.000153869
0.0724559
0.000202239
0.000165209
0.0409568
0.000185491
0.00015965
0.0275419
0.000150902
0.000823432
0.000163488
0.000219056
0.033226
0.000176137
0.000142438
0.0029261
0.000146503
0.000147639
0.00164789
0.000169757
0.04717
0.000153712
0.000181824
0.000153803
0.0509911
0.0480579
0.0526337
0.0121238
0.000201235
0.0620236
0.000158114
0.0795796
0.00295253
0.000189893
0.000158333
0.0627239
0.000188075
0.0726824
0.000152932
0.000158412
0.0685271
0.000155969
0.0339605
0.000181047
0.0001693
0.000211626
0.000259607
0.0516064
0.0297027
0.000172236
0.000151315
0.00864292
0.000147537
0.0598124
0.00114155
0.00015139
0.0378848
0.000168171
0.000190753
0.000167623
0.000158838
0.0330368
0.000159081
0.0709152
0.000158197
0.000355698
0.0505837
0.000179425
0.000144266
0.000159933
0.000156452
0.00015614
0.0578594
0.0730496
0.00170665
0.000154568
0.00749346
0.0567271
0.0605812
0.00017974
0.0253625
0.0302756
0.000169045
0.000155292
0.000150134
0.0676855
0.000166486
0.00015077
0.000166006
0.0619934
0.0650206
0.00020181
0.000144468
0.0001684
0.000201465
0.000149304
0.000169037
0.0499975
0.000193375
0.0568327
0.000152601
0.0321451
0.000186908
0.000143757
0.0156501
0.0204366
0.000153917
0.00722163
0.00015737
0.000183708
0.0267319
0.000210948
0.0700208
0.000160257
0.000215299
0.0320997
0.000169165
0.000217477
0.000179599
0.0673921
0.000142118
0.000898906
0.000174656
0.000145032
0.000158738
0.0440387
0.000142114
0.000146626
0.000154498
0.00959501
0.000816191
0.000131107
0.00015639
0.000199861
0.064174
0.0644479
0.000153314
0.0491202
0.000228471
0.066631
0.045968
0.000219785
0.000198817
0.00176542
0.000145286
0.000152509
0.0718415
0.000173044
0.000175377
0.00267652
0.000258555
0.00014737
0.000171611
0.000158768
0.000161306
0.0745151
0.000193939
0.000146322
0.000173857
0.000155182
0.000155132
0.000157875
0.000158008
0.000158859
0.0799859
0.000166098
0.000180808
0.000183383
0.000153419
0.000150087
0.00019386
0.000156223
0.000202954
0.000173252
0.0603232
0.000152249
0.0504071
0.000148517
0.0587717
0.0405711
0.000195994
0.000163575
0.000166688
0.000152788
0.000153214
0.000189435
0.000379411
0.000152676
0.0780245
0.081595
0.00160576
0.0432705
0.000151594
0.0188188
0.000157776
0.000149823
0.000150378
0.000156282
0.0190113
0.000185696
0.0689845
0.000179804
0.000627777
0.0778477
0.00190661
9.02493e-05
0.000192575
0.000163808
0.000155853
0.000156274
0.000290155
0.0602344
0.068508
0.000196549
0.000158817
0.000144511
0.0747734
0.000157227
0.000166883
0.000153245
0.000159003
0.0454965
0.00021325
0.000198717
0.000159979
0.0286416
0.0326218
0.000155589
0.0263879
0.000272359
0.000154862
0.0715108
0.0493379
0.0523809
0.000153208
0.000198712
0.0476726
0.000146401
0.0267368
8.26238e-05
0.000199028
0.000129938
0.000152263
0.000227333
0.0319447
0.000147777
0.000155077
0.000156905
0.00221436
0.000142331
0.0393779
0.000389891
0.000143136
0.000138921
0.0001531
0.0594178
0.000147094
0.000757803
0.062527
0.0811499
0.00246731
0.0497945
0.066909
0.0620672
0.000158281
0.000155438
0.0646015
0.000146688
0.0487106
0.0581976
0.0238413
0.000145164
0.000161742
0.000151632
0.0032216
0.0001544
0.0579148
0.000474671
0.00176102
0.0589481
0.000174655
0.0469861
0.0019252
0.0725082
0.000181595
0.0501797
0.000160121
0.000228469
0.000155336
0.00351742
0.000169473
0.000191981
0.000171872
0.000155032
0.000173917
0.0574222
0.000147789
0.000154857
0.0322164
0.00301951
0.000151179
0.000153303
0.0178279
0.000153534
0.000224993
0.000197481
0.000143165
0.000185749
0.000148019
0.0432671
0.00015134
0.000142869
0.000148411
0.00439005
0.000153589
0.000186318
0.0535049
0.0248992
0.000190455
0.000144334
0.0584339
0.0541328
0.0276291
0.000217999
0.0353698
0.000148751
0.000251934
0.00021361
0.00014208
0.000160142
0.0247527
0.000194486
0.0287418
0.000163026
0.00022415
0.000154331
0.000186333
0.0209688
0.0285219
0.000142653
0.000157885
0.000208096
0.000154085
0.000146552
0.000161224
0.0582906
0.0458232
0.000185617
0.000150478
0.000172542
0.000143907
0.0507914
0.000166368
0.000143889
0.0291074
0.000182981
0.000216609
0.000161169
0.0837422
0.00562535
0.000157649
0.00014637
0.0192121
0.000240768
0.000149063
0.0275024
0.0335107
0.0492551
0.0681478
0.0657997
0.0273784
0.00109958
0.00178372
0.000151584
0.000150112
0.0571057
0.000151808
0.0528556
0.000152123
0.0183189
0.0429876
0.000169199
0.0645503
0.0202516
0.0210358
0.000161566
0.000150982
0.000143724
0.000219938
0.0230564
0.000163501
0.0592303
0.000174275
0.0160026
0.000194428
0.00204071
0.00521286
0.000149349
0.000677712
0.000181583
0.000146973
0.000153318
0.0567021
0.00019031
0.000154201
0.0704129
0.000149968
0.00419986
0.000150635
0.0002887
0.0597411
0.0557774
0.000156681
0.000158131
0.000185613
0.000156138
0.0595003
0.0511349
0.00015287
0.00021745
0.000198564
0.0371489
0.000769
0.000154661
0.000692516
0.000164965
0.000153181
0.0551049
0.0530703
0.0565149
0.00016167
0.0793549
0.00018742
0.0512721
0.000216304
0.00478497
0.0616978
0.000168066
0.00232648
0.0542042
0.0702417
0.0482811
0.000147448
0.0689532
0.000199622
0.00020079
0.000270506
0.000151421
0.0038688
0.000152045
0.0771426
0.040153
0.0190915
0.0459724
0.0328582
0.0632789
0.0595077
0.0592373
0.000172317
0.00913125
0.000142511
0.0332682
0.0276896
0.000149617
0.0267776
0.000148762
0.00015552
0.000154915
0.000145816
0.080514
0.0244523
0.000153598
0.000166666
0.00341256
0.0310439
0.000170372
0.000203588
0.00370112
0.000144822
0.000170239
0.000174873
0.0246965
0.000287813
0.000154789
0.00675912
0.000159142
0.00829888
0.0491933
0.000149533
0.0616182
0.000159528
0.0629559
0.034887
0.0595366
0.000156603
0.0044297
0.000169129
0.0550251
0.000166793
0.000621408
0.000145027
0.000144386
0.0461194
0.000160912
0.000145489
0.00161386
0.000186489
0.000165618
0.0483921
0.000159088
0.000161903
0.000917835
0.0696854
0.000175527
0.0208611
0.00014402
0.0834544
0.000160108
0.000157104
0.00015777
0.000145636
0.000152849
0.00403067
0.0431443
0.000160963
0.0338876
0.00017198
0.0411072
0.000144687
0.000179071
0.00183431
0.00176458
0.000151395
0.00015635
0.0288271
0.000148699
0.000203941
0.000148136
0.0311125
0.00471222
0.000189344
0.000215247
0.072107
0.000138476
0.000142943
0.000582813
0.0628405
0.000203499
0.0470045
0.000152292
0.067895
0.0634396
0.000148557
0.000169689
0.0308498
0.000200832
0.000155912
0.00569664
0.000185903
0.0001558
0.000202027
0.000152437
0.010378
0.000729923
0.000143578
0.0793849
0.0293039
0.000150137
0.000199188
0.00873278
0.0607439
0.0107027
0.00259238
0.000171085
0.0735891
0.00015512
0.00036502
0.0561606
0.000143816
0.0264335
0.000156809
0.000153719
0.0538449
7.39152e-05
0.00425539
0.000196767
0.000158345
0.000140688
0.0564971
0.00851026
0.000152618
0.000232293
0.050721
0.000149671
0.000170574
0.000163845
0.000165951
0.0494592
0.000163945
0.000152498
0.000191683
0.00234256
0.0538282
0.0778502
0.0662118
0.000199212
0.000139227
0.000147582
0.0500284
0.000219801
0.0464577
0.000196697
0.000204459
0.00016642
0.000151278
0.000169048
0.000429105
0.0789282
0.000161688
0.0289297
0.0780299
0.000148456
0.0611251
0.0443527
0.0265516
0.0100619
0.000143164
0.00553735
0.0121782
0.0273994
0.000181821
0.000184333
0.077769
0.000156659
0.000156658
0.0815844
0.000213658
0.04917
0.0516391
0.000204692
0.0528849
0.0687122
0.00014944
0.0534596
0.00513096
0.000152622
0.000167457
0.0429549
0.000155848
0.000158039
0.000184038
0.000146324
0.0800209
0.000146066
0.000211292
0.00832113
0.0117009
0.000155084
0.000183731
0.0680466
0.000140083
0.00015274
0.000162441
0.000154549
0.000176512
0.0657212
0.000151009
0.000146638
0.0247852
0.000145422
0.0687917
0.000154065
0.0813493
0.000170371
0.0605268
0.00331983
0.000153945
0.0250524
0.0124927
0.00017094
0.000160273
0.000149958
0.0337882
0.00014953
0.00615629
0.000151663
0.000161216
0.000394947
0.0348485
0.000149173
0.000170493
0.000184746
0.00019974
0.000146258
0.000178172
0.000160414
0.0767918
0.0136888
0.000171627
0.000156141
0.0749887
0.021625
0.000145914
0.000147563
0.0731231
0.0255562
0.0751355
0.000174924
0.000179957
0.00490956
0.000195253
0.0651323
0.0809818
0.000156928
0.00014778
0.0389361
0.000217464
0.000154839
0.0756705
0.0269181
0.0787925
0.000146179
0.000197556
0.000206449
0.000157603
0.000156581
0.00702839
0.000180444
0.000149499
0.051791
0.000147016
0.000179134
0.000192474
0.0026381
0.000159322
0.0804415
0.000154543
0.000167196
0.000161507
0.000162282
0.000152906
0.0639318
0.0561585
0.000151786
0.0367491
0.000152677
0.000145511
0.0264167
0.0661081
0.000158993
0.059876
0.000166349
0.000161606
0.000146525
0.0549559
0.0305958
0.00013902
0.0654014
0.0664836
0.0262757
0.000187967
0.0756835
0.0347454
0.000163853
0.00767466
0.000150343
0.000154889
0.00014591
0.0705185
0.0501821
0.0412791
0.00796273
0.000142189
0.000148467
0.000151209
0.000179513
0.000167398
0.000139732
0.000148832
0.000154523
0.0440672
0.000142753
0.000146023
0.000138567
0.02766
0.000152102
0.000141478
0.000182109
0.0544416
0.000156647
0.000159811
0.000183855
0.0037321
0.000173009
0.000199668
0.000187907
0.000178812
0.00021442
0.00341159
0.000167208
0.00460688
0.052033
0.000169035
0.000147102
0.000156534
0.000168899
0.000217313
0.000179227
0.000154155
0.0337883
0.000140235
0.000176874
0.000190523
0.000153914
0.000146969
0.000145592
0.000176707
0.000153237
0.000212591
4.6393e-05
0.0414139
0.012193
0.00174201
0.000195462
0.000147272
0.000206642
0.0353744
0.000153246
0.00659364
0.0216465
0.0362811
0.000146575
0.0440813
0.000158467
0.00646803
0.000157746
0.000164853
0.000152191
0.000164943
0.0142112
0.000208598
0.0476073
0.0655778
0.0816674
0.00015723
0.000152828
0.000184174
0.0718038
0.000152384
0.00015468
0.0415256
0.000144284
0.0586854
0.000178115
0.000199899
0.00015001
0.000177606
0.0321757
0.000144459
0.0269469
0.0835363
0.00843935
0.000152402
0.000164897
0.0692606
0.0454524
0.00500326
0.000145845
0.000204457
0.0212301
0.0794074
0.0825007
0.000155309
0.000145679
0.000151187
0.00015072
0.00111809
0.000191775
0.000146357
0.000162772
0.0619324
0.0664533
0.00682007
0.000201516
0.00751709
0.000147192
0.000149896
0.000260004
0.00015735
0.000199185
0.000206152
0.000170019
0.000180218
0.0175416
0.0640507
0.0543356
0.00416959
0.0595847
0.000144181
0.000176898
0.000449993
0.000137923
0.000149815
0.0207635
0.0164924
0.000171655
0.0127437
0.000165416
0.0563164
0.00016767
0.010756
0.000156545
0.000189578
0.054873
0.044771
0.0304975
0.00433605
0.000149233
0.00020831
0.000182699
0.000161849
0.000212228
0.0441852
0.00177267
0.000167153
0.000196877
0.00017736
0.000219388
0.000175146
0.000160961
0.000154417
0.0497605
0.000390943
0.000163313
0.000169048
0.00018911
0.000158674
0.000191676
0.000207173
0.00014602
0.0149209
0.03305
0.000156357
0.000145391
0.000160042
0.0746972
0.000200097
0.000148588
0.000151834
0.000140453
0.00016018
0.0760588
0.0127111
0.000161271
0.0200601
0.000176696
0.000243778
0.00167384
0.000198092
0.059528
0.000138759
0.0682069
0.0333521
0.000188413
0.000162164
0.000175715
0.00015377
0.000175513
0.0673872
0.000213154
0.0257372
0.000146417
0.000167775
0.0318539
0.0576142
0.0277432
0.00286151
0.000218987
0.000138142
0.0213109
0.0514983
0.00013993
0.0671493
0.0655973
0.000161212
0.000208814
0.000146175
0.000169515
0.00014668
0.000161409
0.00266298
0.0208233
0.0001554
0.000144651
0.075117
0.0032432
0.00834232
0.0661833
0.0620745
0.000184416
0.000170788
0.000164172
0.000148867
0.000143312
0.000139487
0.0370949
0.000194553
0.000160656
0.0354085
0.000146459
0.00104357
0.000158611
0.0524398
0.00142112
0.000152228
0.000182407
0.0825212
0.0353768
0.0459886
0.0344909
0.000916041
0.0765933
0.000215594
0.00849333
0.0464983
0.000162479
0.000146021
0.0309498
0.000140297
0.000161022
0.000163848
0.000149498
0.00019574
0.0672036
0.000175793
0.000266348
0.00018878
0.000167222
0.0648788
0.0108173
0.000185509
0.00432102
0.000195247
0.00499814
0.000713498
0.0522716
0.000181068
0.0551824
0.0724654
0.000167082
0.000178815
0.00668516
0.000180332
0.0615192
0.00309358
0.0608748
0.000177463
0.000191474
0.000162262
0.0536398
0.00948251
0.0674788
0.000174612
0.000205865
0.00016436
0.0499296
0.024076
0.0104082
0.00584606
0.00282677
0.0685194
0.0579523
0.000148444
0.000231111
0.0594996
0.0740197
0.000199962
0.000172833
0.0287457
0.000164642
0.000155247
0.000150194
0.000169395
0.0273831
0.0107812
0.000148777
0.000167356
0.00016134
0.000224604
0.055804
0.000150251
0.0312754
0.0271088
0.040449
0.00016054
0.000155403
0.00014467
0.0339732
0.000226796
0.0521231
0.000154613
0.000150248
0.00695151
0.000165389
0.0494092
0.000154197
0.0634149
0.0306232
0.000148177
0.000169031
0.0248044
0.000150351
0.00014802
0.02831
0.000272395
0.000162801
0.0597473
0.000226684
0.0332829
0.0529501
0.0529625
0.000200816
0.0359024
0.0122659
0.0294603
0.0335676
0.0488782
0.000157654
0.00020825
0.000147749
0.00015191
0.0122629
0.000239234
0.0262605
0.000148581
0.000209836
0.003276
0.000178985
0.00016301
0.000147664
0.0773088
0.000154428
0.0688213
0.000168072
0.0614857
0.0369628
0.000188529
0.0183443
0.0552033
0.000337912
0.000152967
0.000155744
0.000147112
0.0554087
0.000185547
0.000231525
0.000156045
0.00547588
0.000182713
0.0292176
0.0485335
0.0107234
0.0127578
0.022546
0.000179732
0.000156763
0.0523837
0.000164941
0.0037493
0.000170287
0.021692
0.000158465
0.000150893
0.0506043
0.000149218
0.0075526
0.0451958
0.0727577
0.000151505
0.062997
0.000164527
0.0539496
0.000349708
0.000177188
0.000157101
0.000146275
0.0706596
0.058282
0.0543679
0.0305898
0.000162137
0.000183101
0.0773599
0.000147337
0.0615671
0.000143607
0.0776679
0.000188172
0.000198036
0.000153891
0.0339937
0.00648823
0.000204048
0.00016974
0.000150321
0.0169797
0.0001555
0.000160725
0.000201967
0.0224015
0.024081
0.000155183
0.000153498
0.000200611
0.0781555
0.000205827
0.0664663
0.000178779
0.000180481
0.0794622
0.0638481
0.000192951
0.0288412
0.000148859
0.0593215
0.0371117
0.0618071
0.000151473
0.000237716
0.0232739
0.000184364
0.0536503
0.000160585
0.0001484
0.000159444
0.000153966
0.0112039
0.0288564
0.000147915
0.000155246
0.0452224
0.000188672
0.000143174
0.000158312
0.0214103
0.000154172
0.000166402
0.00015287
0.000149836
0.0264985
0.0001858
0.0529238
0.000156227
0.02655
0.0480921
0.000159106
0.000174373
0.060123
0.000164898
0.000163412
0.000249047
0.0233292
0.000197153
0.0362591
0.000166519
0.0292105
0.000176609
0.000156501
0.000157398
0.0263669
0.000159162
0.0297981
0.0478144
0.0651337
0.000190442
0.00852413
0.0204875
0.0380375
0.0210058
0.0283888
0.000198174
0.000161259
0.0590198
0.000152714
0.0529345
0.00312759
0.000164619
0.014402
0.0678479
0.000152862
0.000152165
0.0227134
0.0449993
0.000152965
0.0698134
0.000161371
0.000143588
0.00182942
0.075899
0.000145437
0.00019437
0.000154651
0.0582577
0.000156604
0.0326635
0.00027844
0.000173083
0.000157697
0.000188782
0.0570093
0.00013343
0.0003506
0.0373021
0.000153439
0.000178749
0.0673226
0.000159719
0.0501364
0.000144247
0.000159929
0.017646
0.000155066
0.0188492
0.0273209
0.0595393
0.000150856
0.0573083
0.0623788
0.000155875
0.000169847
0.00447497
0.000422868
0.000150824
0.000211369
0.0359193
0.000161591
0.0762036
0.0359542
0.0548401
0.065724
0.000167292
0.000147357
0.000146324
0.000142638
0.0585578
0.000156366
0.0340427
0.000151921
0.0300558
0.000143733
0.000221622
0.000734827
0.000155045
0.0193322
0.00019599
0.000190026
0.0319171
0.0496613
0.000171933
0.00014571
0.033568
0.000166026
0.00026497
0.0485886
0.0808093
0.0767961
0.0361866
0.0340739
0.000195429
0.0820646
0.0746531
0.0784788
0.000173851
0.00348219
0.000178206
0.000156213
0.0208043
0.0510442
0.0354604
0.000160886
0.000182867
0.000186858
0.000155621
0.000144763
0.00017463
0.000310865
0.000143974
0.000896899
0.0596518
0.0650904
0.0262197
0.000152736
0.0666521
0.0574193
0.000173746
0.000181234
0.000148296
0.000146614
0.000160998
0.000209954
0.0362893
0.000189675
0.000696059
0.0369062
0.000175247
0.000143079
0.0474888
0.000156388
0.022419
0.000152426
0.0512851
0.0294572
0.0300025
0.00015509
0.000149756
0.000150889
0.000177054
0.000139176
0.000156286
0.0657266
0.000173794
0.0265819
0.00345036
0.000218763
0.000202625
0.0346834
0.0357931
0.000152487
0.000218438
0.000158289
0.000750188
0.0412552
0.000166938
0.0331099
0.000164849
0.000152598
0.00347639
0.0753772
0.000176668
0.000205822
0.000171688
0.000154599
0.000165382
7.33729e-05
0.0282872
0.000151272
0.000148671
0.000180311
0.00101943
0.000163223
0.0345075
0.0786756
0.00018948
0.00020599
0.000161619
0.000183304
0.000182286
0.00277129
0.000154202
0.0600637
0.0527076
0.0365025
0.0828216
0.000153947
0.000145285
0.000204312
0.0484554
0.0521713
0.0318052
0.000144589
0.010793
0.0561624
0.0522807
0.0604854
0.000186938
0.000159354
0.0499964
0.0036554
0.00028083
0.000150494
0.000160444
0.0782875
0.000142674
0.000154875
0.0747759
0.000194098
0.000173234
0.0362025
0.000163927
0.000179962
0.000167455
0.0433239
0.0493065
0.0567341
0.0804492
0.0385575
0.0308762
0.0786335
0.000151267
0.0535563
0.000155083
0.068167
0.0685366
0.025731
0.0313298
0.0122027
0.000187418
0.04481
0.0342197
0.000892847
0.000141218
0.073409
0.0271176
0.00489503
0.0591988
0.0021919
0.000182199
0.000188249
0.00014499
0.000145191
0.000191138
0.0379335
0.000169665
0.0688071
0.000172871
0.00022411
0.00171379
0.000242737
0.000144552
0.0318548
0.080048
0.000187249
0.0445144
0.000196087
0.0259595
0.0218204
0.0811109
0.000159019
0.000168337
0.000171431
0.0810452
0.000194946
0.0359325
0.000163876
0.000158945
0.000193541
0.0714676
0.000188762
0.000142302
0.0790016
0.000176934
0.0525657
0.00505516
0.000151531
0.00632676
0.0626675
0.00016622
0.0613776
0.0354774
0.0474568
0.0422098
0.000180837
0.0820957
0.000188225
0.000172025
0.000207999
0.000154316
0.000204295
0.0342721
0.000211217
0.000226554
0.0426622
0.000203351
0.000150582
0.000180755
0.000249768
0.000165307
0.0461343
0.000152133
0.000206635
0.0589237
0.0269984
0.037171
0.0360787
0.0800475
0.000147186
0.000218351
0.0690749
0.063159
0.000165127
0.000176159
0.0329569
0.000174048
0.000162302
0.000212151
0.000196762
0.0819758
0.000155896
0.0393446
0.000223822
0.0367951
0.000212815
0.000166421
0.00020275
0.000144576
0.000163029
0.0531528
0.000153065
0.0726221
0.038638
0.00015351
0.000168877
0.0392302
0.000220847
0.000197008
0.000176726
0.000181696
0.0593584
0.000204774
0.0528884
0.0345747
0.0135243
0.0351193
0.0663169
0.00389619
0.0282219
0.0385518
0.000158054
0.000166171
0.000213965
0.0707101
0.000213652
0.0664798
0.0425383
0.000174295
0.000162945
0.0040247
0.0268267
0.0516918
0.00348812
0.0818638
0.000175067
0.000171684
0.000165207
0.00593091
0.000214058
0.0602347
0.000164419
0.0706388
0.0558912
0.000149733
0.00016729
0.00372452
0.000208275
0.044389
0.000159969
0.000161369
0.000173321
0.000184195
0.000142793
0.0472153
0.000152755
0.0349984
0.000151978
0.0364187
0.000177283
0.000229193
0.000189671
0.000206577
0.000146158
0.0423624
0.000589811
0.00200984
0.000236332
0.000375777
0.08251
0.000217479
0.0698352
0.0527195
0.0625968
0.0229094
0.000189036
0.000355535
0.000144941
0.000192182
0.000188298
0.000161256
0.00127187
0.0718061
0.00020421
0.04996
0.00359641
0.000149308
0.00016689
0.0527005
0.000177818
0.0830608
0.0346017
0.000156824
0.0485028
0.0409551
0.000191031
0.000230326
0.000156203
0.0372394
0.000148236
0.0591796
0.0378455
0.000159265
0.0356824
0.0126346
0.000207986
0.0731131
0.000146901
0.0413911
0.00477774
0.000210253
0.0289836
0.000146164
0.00015283
0.000201193
0.000198991
0.0371248
0.00888645
0.0326668
0.000167449
0.000171199
0.053543
0.04983
0.0758341
0.000189874
0.0396992
0.000184614
0.000145562
0.0636713
0.00022215
0.0630621
0.000198192
0.000166068
0.000190547
0.0544765
0.000209505
0.0361165
0.0392953
0.0537694
0.065468
0.0648916
0.00829851
0.0398095
0.00127761
0.0609511
0.000195136
0.000170366
0.000145616
0.000312683
0.000150315
0.000205873
0.000150262
0.0821593
0.0837063
0.0807401
0.000167942
0.000189754
0.0200315
0.000212644
0.0641176
0.000174516
0.0290964
0.00326032
0.000326021
0.000218777
0.0335227
0.000204159
0.000152522
0.000159178
0.0573619
0.000189933
0.00014403
0.000200964
9.91257e-05
0.000147847
0.000151433
0.0339665
0.0572439
0.00019195
0.000183986
0.000171441
0.000160252
0.0510355
0.0319586
0.000148365
0.0828283
0.000175841
0.000173375
0.0484143
0.000187776
0.00017286
0.000192878
0.0278975
0.040856
0.0595669
0.000160376
0.0805649
0.000153613
0.000171014
0.0112938
0.0232712
0.000208865
0.0651146
0.00294826
0.00714422
0.000191325
0.0236345
0.0504541
0.00575044
0.000187586
0.0756224
0.000204371
0.000174793
0.000225377
0.000187856
0.000145029
0.000195446
0.000200989
0.000151767
0.000188317
0.000217636
0.000188402
0.000210695
0.000139136
0.0001394
0.00497913
0.000153108
0.000197568
0.00232177
0.000162694
0.000150985
0.000186583
0.0562082
0.0763369
0.0180302
0.000187612
0.000182936
0.0553017
0.00014571
0.0373301
0.000205842
0.00486533
0.000162038
0.0816952
0.000170049
0.000484409
0.000143032
0.000169886
0.0645348
0.0489943
0.0791517
0.000181441
0.0663061
0.0511927
0.0790211
0.000206615
0.000202355
0.000149067
0.0661632
0.00364344
0.000190823
0.000155307
0.000470975
0.0776712
0.000156069
0.0501767
0.000194699
0.000150504
0.000147712
0.000160313
0.0562644
0.03363
0.0480005
0.000156966
0.000152065
0.00019464
0.000148404
0.0715358
0.000177687
0.0831328
0.000170635
0.0613125
0.00021932
0.0468566
0.0631652
0.0401481
0.0580749
0.0772204
0.00014759
0.00118039
0.000176887
0.000160237
0.0402807
0.000178033
9.67384e-05
0.000162535
0.000186569
0.00966601
0.00659545
0.000147396
0.000148348
0.000175577
0.000195593
0.00015619
0.022703
0.0217715
0.000147881
0.000172264
0.0572616
0.0271041
0.00018738
0.0647321
0.0289559
0.0108225
0.0327169
0.000175865
0.00016697
0.0586027
0.000155498
0.000156114
0.0572659
0.000144176
0.000171379
0.000189711
0.000147204
0.0806129
0.00018154
0.000167009
0.000155676
0.000158716
0.000169543
0.0238676
0.000149408
0.00018915
0.000167164
0.060786
0.000157587
0.000162262
0.000191079
0.000149237
0.000188483
0.0707925
0.060135
0.000161288
0.000157382
0.000166182
0.0646184
0.0798801
0.0352843
0.000160196
0.000165184
0.000149649
0.0562198
0.00015897
0.000216265
0.000180912
0.00574557
0.0832739
0.000217078
0.000179569
0.000207484
0.0063782
0.0380179
0.000262304
0.000160558
0.000158681
0.000175093
0.0240835
0.00343409
0.000168105
0.0567798
0.0225351
0.000174161
0.0199877
0.000154163
0.0839903
0.0395895
0.000151649
0.0761049
0.0771519
0.000174681
0.0030285
0.00016437
0.00166147
0.0267268
0.00015821
0.000152255
0.0646573
0.000145138
0.00312741
0.00373766
0.0645743
0.062369
0.0254746
0.000159718
0.000172281
0.0170583
0.00014602
0.000191718
0.0681598
0.0257447
0.000169231
0.000176417
0.000186662
0.000154224
0.000209591
0.0712013
0.000161148
0.00015582
0.0233444
0.0486697
0.00020115
0.000164911
0.08285
0.0820742
0.000159296
0.000199623
0.000165793
0.0192608
0.0681223
0.000163727
0.0243743
0.0748744
0.0594224
0.0002073
0.0001663
0.0448457
0.000176297
0.000182606
0.0756142
0.000147513
0.0298298
0.0769532
0.000185176
0.00391352
0.000210702
0.000187211
0.00487611
0.000163735
0.00016415
0.00441004
0.000154608
0.000187759
0.000207034
0.00015249
0.000161552
0.000145007
0.000158988
0.0598195
0.000146173
0.0363358
0.000189741
0.000146413
0.000147367
0.051536
0.0658126
0.000200951
0.000157697
0.0731723
0.000160015
0.000170481
0.000146781
0.0637843
0.024651
0.000157465
0.000166543
0.00329738
0.000202534
0.000203468
0.000145384
0.0521416
0.000158155
0.000151744
0.0389242
0.0494918
0.000220516
0.00353914
0.0421825
0.000170295