/*--------------------------------*- C++ -*----------------------------------*\
| =========                 |                                                 |
| \\      /  F ield         | OpenFOAM: The Open Source CFD Toolbox           |
|  \\    /   O peration     | Version:  v2012                                 |
|   \\  /    A nd           | Website:  www.openfoam.com                      |
|    \\/     M anipulation  |                                                 |
\*---------------------------------------------------------------------------*/
FoamFile
{
    version     2.0;
    format      ascii;
    class       volScalarField;
    location    "50";
    object      ddt0(k);
}
// * * * * * * * * * * * * * * * * * * * * * * * * * * * * * * * * * * * * * //

dimensions      [0 2 -3 0 0 0 0];


internalField   nonuniform List<scalar> 
13851
(
1.58877e-06
-2.66552e-07
-2.86961e-07
3.82933e-05
3.12903e-09
-2.05569e-08
-1.95937e-07
2.07287e-08
-0.00173734
1.12611e-08
-6.72998e-06
2.21569e-08
-1.17235e-08
-0.000368109
-1.93326e-06
4.14291e-07
-0.000330576
-5.09113e-08
1.61757e-05
1.14952e-05
2.60629e-07
7.6456e-07
-0.00343932
2.88239e-10
0.00148481
3.01218e-06
4.63188e-05
-0.000466496
0.00045725
2.35042e-08
-0.000208864
3.44595e-07
-2.54944e-06
-0.0031019
5.30138e-06
0.00128744
6.13599e-10
0.00652566
-0.000929495
9.36229e-08
0.000202437
0.000637598
-2.35814e-05
0.00027722
-0.000261077
-2.34947e-07
1.94521e-08
1.02069e-05
-7.9953e-09
-4.82589e-10
-0.000274739
5.00586e-08
-3.89364e-06
-2.49348e-06
-0.000613643
-1.0716e-08
-1.71384e-05
0.000474763
-0.000923447
0.00108373
-6.18195e-09
5.83054e-05
-8.12624e-09
2.71844e-07
-9.70104e-06
4.56953e-06
0.00118757
-1.8676e-06
3.09152e-07
1.27219e-05
-0.000363192
4.07236e-06
-1.15185e-07
0.00104549
2.19547e-06
-8.03935e-07
-0.000405268
6.69963e-09
-0.00290945
5.31101e-08
2.93129e-07
-8.20735e-05
3.54691e-06
-0.000225797
0.000962362
-0.000221851
-2.17389e-06
-0.000450082
2.66783e-08
-9.68694e-05
5.64036e-07
4.47465e-07
-0.000315711
-0.000235721
4.45954e-05
7.47211e-05
-1.40915e-08
-2.01158e-05
0.000769825
7.20565e-06
-1.00073e-05
8.83563e-07
7.94446e-07
-9.96964e-08
1.4662e-07
2.71534e-06
1.29208e-07
-0.000325567
1.76077e-07
-1.05173e-07
4.05415e-06
-2.31717e-08
-4.01287e-05
4.47954e-06
-2.49618e-05
-1.42666e-06
-8.88653e-09
2.3091e-08
4.19385e-05
4.45179e-05
-0.000481928
-3.26282e-08
4.90263e-07
0.000196214
-9.93172e-05
-8.16814e-06
-3.22253e-08
-1.03549e-06
-0.000715615
-3.43194e-06
2.17624e-06
-8.54239e-07
0.0139273
-0.00264873
-1.94774e-06
-0.000108039
-1.74322e-06
-0.000242594
-1.41103e-06
-2.67955e-06
0.000227902
-1.50814e-08
7.91821e-09
1.49932e-06
0.0199964
6.46732e-07
1.04198e-08
-0.000239601
-0.000691932
-5.73311e-06
-7.85318e-06
-1.72111e-05
9.22524e-07
-0.000169108
7.22379e-08
-3.17393e-08
-2.04528e-08
-0.000866251
-3.97366e-06
1.8872e-07
-4.31048e-10
0.000808329
5.29298e-07
1.04534e-05
-0.000413418
-0.00242833
-0.00246012
-0.000287781
-1.89147e-06
0.00593749
-4.55081e-08
4.40584e-09
2.63871e-06
-5.42016e-09
0.000151262
-0.000311647
-2.374e-05
1.13981e-08
1.06e-06
-9.92747e-06
-5.73313e-05
0.000132679
-2.34994e-06
-4.37526e-06
-0.000258881
-0.000656016
1.17185e-05
7.0457e-08
-1.66643e-07
3.27276e-08
0.0064659
-3.7663e-06
-0.000420747
-3.51094e-07
-5.34725e-07
-1.96703e-05
2.1106e-05
-1.21295e-08
1.88555e-07
8.50308e-08
-0.000777402
0.000646072
0.000642697
-3.38379e-06
0.00753891
0.00049037
6.55757e-07
-1.6421e-06
-0.00184804
-3.96796e-07
1.85331e-05
-1.23811e-07
2.45052e-05
-2.05351e-09
7.99731e-07
6.34308e-07
-7.80922e-08
8.89848e-05
1.19791e-07
0.00369478
-1.05728e-09
1.63121e-05
-0.000147576
7.6809e-06
9.57518e-07
-4.69396e-06
1.91288e-09
-1.26563e-06
7.58316e-08
3.1955e-06
0.000504449
1.82605e-07
-3.44794e-07
-4.3811e-09
0.000685564
1.93688e-08
-0.0149525
0.000750818
3.62548e-06
2.1851e-10
-0.000418326
0.000817481
-2.74151e-05
1.11983e-05
3.56544e-06
3.48969e-06
-9.05166e-06
-2.57947e-07
-0.00030077
-3.46534e-06
-0.000777963
1.64967e-05
-7.92101e-09
-4.91595e-07
-2.26476e-05
0.000825273
4.62419e-05
-1.81589e-08
-9.38249e-06
1.96374e-08
8.09707e-06
4.99475e-05
-8.96724e-07
-2.97016e-06
9.91537e-06
-1.19015e-07
6.74207e-07
-9.35491e-06
0.00687185
1.56885e-08
-1.00323e-07
6.37379e-07
-0.00301241
4.90219e-05
5.32262e-06
-6.11677e-08
-5.97903e-05
6.75686e-05
1.20681e-05
-4.5803e-06
-0.00268709
0.00113681
5.19909e-07
-2.18158e-06
0.0607176
6.3781e-08
-1.51929e-08
2.64804e-05
1.18154e-05
5.81968e-08
8.69552e-09
7.34322e-08
-2.6297e-09
-2.6899e-06
-2.70474e-08
-0.00191551
3.81289e-06
1.94053e-07
0.000978754
0.000225955
-1.45673e-07
1.43024e-05
0.000193992
2.68006e-07
-4.3253e-07
1.03007e-06
9.83104e-05
-0.00105367
-4.7577e-07
2.40779e-09
0.00582563
-2.32712e-08
2.63934e-06
0.000193187
-0.0027161
1.82584e-07
-0.11201
-0.000652226
-0.000531137
3.22622e-05
-1.33736e-06
-4.60363e-05
-2.5976e-05
-0.000960249
-1.15905e-07
-0.000159018
-0.000123227
0.000139134
-0.000115424
-4.92961e-07
9.81434e-07
1.02266e-07
-0.000468389
2.2026e-06
2.5307e-09
1.644e-08
1.3982e-07
-0.000498737
-5.64895e-05
5.41236e-08
8.21027e-06
-4.07857e-08
1.50417e-06
2.38056e-07
0.00023277
-9.83131e-06
-1.04143e-05
1.2797e-06
1.22378e-07
0.00257243
-2.78287e-07
-0.000195395
3.63828e-07
-6.84024e-07
3.17076e-07
3.14565e-08
1.7468e-08
-1.69281e-05
-7.96701e-06
1.90225e-05
0.00573155
0.00305079
2.46303e-06
0.000794609
7.91919e-05
-1.88949e-09
-0.00207632
8.58828e-06
0.000719967
-7.32647e-07
-4.99559e-06
0.000419637
0.0282733
2.24896e-05
-0.000460481
-3.80074e-07
-0.000474252
3.68324e-05
2.72972e-07
-0.000740391
1.46364e-06
0.000665408
-9.71076e-07
2.58405e-06
-3.78086e-05
1.31615e-06
-5.92902e-08
2.54079e-07
5.39025e-06
1.89938e-06
-2.11382e-07
3.26699e-06
-0.00932157
-1.15947e-07
1.07816e-06
-1.14526e-05
5.16108e-07
0.0078468
-6.44191e-06
-0.00110943
-6.98247e-07
6.11016e-06
-0.000461146
1.5958e-05
5.10206e-06
-0.00017505
0.000884824
-0.000719012
-1.05038e-07
-3.22173e-05
3.48523e-06
1.03668e-06
3.53989e-08
-7.7374e-05
-0.0080634
0.00255699
-1.96814e-07
-2.64636e-05
-0.00011446
4.94794e-05
-1.44904e-08
-7.10721e-05
0.000116951
-0.00049286
-4.86446e-06
-0.00234747
-3.14685e-08
-5.05803e-09
-0.000563551
-6.18248e-06
3.93668e-09
3.87977e-08
1.67095e-06
-9.88384e-09
-0.00914085
-4.14387e-07
2.04044e-08
2.68855e-07
-1.14206e-07
-2.63448e-07
-0.0209356
-7.96752e-09
4.30985e-07
0.00387602
-0.00976315
3.94319e-06
-0.000112231
-6.93026e-09
-1.82628e-08
4.0351e-07
1.68536e-05
-8.8552e-07
-2.48599e-08
1.23023e-07
-6.98519e-05
-6.12304e-07
-0.00160605
-2.82553e-09
-6.66536e-07
-0.00046485
3.17184e-08
-9.79933e-09
-3.59689e-08
-2.12948e-07
1.15608e-07
-0.00105169
0.00445131
3.7815e-06
0.00312063
9.391e-08
-1.14227e-08
-0.00167553
-0.000322762
1.3355e-07
-9.95793e-08
-1.27363e-05
-9.86562e-07
-0.0426283
-1.35402e-07
-3.58459e-06
3.3766e-05
-2.73447e-06
-0.000299501
-0.000115333
-0.000957981
-1.37431e-06
1.81712e-05
-3.87296e-08
0.000514523
-3.06343e-06
2.41722e-05
4.06031e-06
5.4335e-08
3.35176e-08
1.08786e-06
2.91263e-09
6.75812e-05
-0.00134432
-0.00239385
4.31927e-05
0.00403706
-0.000730844
0.000464783
8.93967e-07
-8.07863e-10
-0.00248987
5.23151e-08
-1.78299e-07
3.67758e-08
0.000462616
6.94415e-08
-9.75213e-08
-2.43404e-06
4.8093e-07
-3.34545e-10
0.00317163
-1.54299e-08
-0.00146243
-0.00112591
3.5209e-08
8.395e-08
-0.000241753
0.020783
4.63126e-08
-0.00287043
0.00504415
3.56044e-08
-0.00130491
-2.59187e-05
1.72452e-05
-2.50494e-07
0.00313393
0.00134232
2.67228e-08
0.000974165
3.90646e-07
-1.90646e-08
0.00812713
0.000674695
3.41216e-06
9.80223e-07
3.94219e-08
-5.93843e-06
-0.00113037
-0.000448215
6.52785e-08
-0.000621774
-2.33588e-07
2.57541e-07
4.87365e-06
7.63917e-07
-1.23278e-08
-4.97243e-07
-0.0014163
1.52104e-05
-0.00122011
-1.62499e-07
5.10827e-08
-0.00318517
-2.24894e-08
3.96392e-05
4.44843e-07
3.88668e-07
-2.80923e-06
0.000461479
0.00114348
-3.23261e-07
-1.03133e-05
-2.43329e-07
2.73183e-06
0.000523167
-0.000701053
-2.26278e-07
-7.32746e-08
7.25044e-07
-0.00125472
2.94748e-05
-7.56743e-06
0.0392936
2.66573e-07
-6.43013e-07
0.000581659
0.00265845
5.68214e-05
-0.00133289
1.27378e-06
0.00263831
2.18283e-07
0.00033839
0.000466388
1.1999e-08
-0.000510561
0.00400721
3.06451e-06
-3.6061e-06
-7.74583e-08
-0.00422802
-8.29438e-06
-0.0012074
-6.78303e-08
1.66077e-09
-2.01485e-07
4.07686e-06
-2.10507e-08
0.000307693
-3.00996e-09
-3.92347e-07
-1.45492e-07
6.23289e-06
-8.02131e-08
-5.96791e-09
-6.82799e-06
-0.000606671
1.18252e-06
-9.12942e-05
-3.4885e-06
-1.93316e-08
-4.00793e-08
2.35442e-06
-2.07881e-07
2.13864e-05
-2.72518e-07
-5.27973e-07
0.000738334
-1.12036e-08
0.000138248
7.71661e-09
3.68015e-06
-3.46581e-05
-0.00184825
-1.92578e-06
0.00374284
-4.05143e-06
-5.79254e-05
0.00404144
2.6551e-08
0.00227666
3.66018e-07
-1.88355e-07
0.000115405
-0.000333373
2.03318e-08
1.26895e-05
1.41122e-08
0.002119
-0.000561997
-1.51012e-07
2.66697e-07
-0.0071311
1.49652e-09
7.66894e-09
7.83288e-06
-2.81154e-05
0.00180959
1.46318e-07
-1.08331e-05
-1.61053e-07
-1.62664e-09
0.00114302
-2.47565e-05
1.12563e-05
-1.12502e-08
-1.76044e-05
-2.78226e-06
8.30119e-06
-3.13316e-07
-1.52741e-06
-5.8749e-06
-3.8034e-07
5.89803e-06
5.79273e-06
7.30018e-07
-4.11639e-05
-0.000794785
-1.39339e-05
-0.00747851
-0.000776068
6.06667e-07
-0.000413359
4.90717e-07
0.00801971
1.87622e-05
1.40162e-09
1.79599e-07
-0.00037635
1.41209e-06
2.76488e-08
-5.79524e-08
1.51793e-05
-0.000464416
-1.03521e-06
0.000835601
-2.59143e-08
0.00183763
-2.6218e-05
4.64882e-05
-6.2871e-06
-2.05326e-07
-4.05445e-07
-3.69779e-05
-5.57004e-05
-2.23049e-06
-3.04053e-05
-6.85058e-07
-0.0036666
1.88087e-05
-2.71549e-06
-1.28806e-06
-0.000188884
-7.16653e-09
7.96596e-09
7.40341e-07
1.91668e-08
9.04576e-05
-1.12928e-09
0.000181974
-0.00282995
-1.48249e-05
-0.000290471
0.000854487
3.02187e-05
0.000174273
-9.04871e-07
9.36813e-10
-6.20905e-08
-4.6321e-09
-2.06497e-08
-7.23106e-09
1.03298e-06
1.03559e-05
-2.01652e-06
0.00033116
9.16065e-07
-0.00170872
7.66491e-10
5.79314e-05
-4.47343e-06
2.51208e-09
-3.84817e-09
-0.00205535
2.95445e-07
-0.00608419
0.0047722
-1.95719e-06
3.64643e-06
1.25341e-08
-0.00219845
2.12693e-06
-9.70017e-08
0.000600249
1.11994e-09
-1.89563e-07
-4.1805e-08
3.37007e-06
-0.000561778
-8.89117e-07
-5.59398e-06
-0.000208918
-0.000457426
-8.02362e-07
1.59302e-06
0.00144127
-3.13698e-09
0.00156058
3.65134e-10
-1.77274e-07
-0.0479808
1.04141e-05
-1.34918e-05
-8.25056e-06
5.70634e-06
1.68866e-10
1.25155e-09
6.58397e-06
2.09889e-07
1.35411e-10
1.18786e-06
0.000299513
6.85299e-09
-3.90177e-05
0.00285285
-0.00381997
-1.06252e-05
-0.000144876
-1.53521e-06
1.26457e-09
-1.94822e-05
-3.82546e-08
4.42003e-07
-0.00790888
0.00383222
0.0023641
0.00175468
3.77991e-07
-8.9363e-08
-1.02433e-06
1.75585e-06
-1.39796e-08
0.0128549
-1.09903e-05
-0.000720474
7.18811e-06
3.45268e-06
-2.23226e-08
3.23821e-08
0.00407758
-4.13591e-06
-3.85247e-08
3.9278e-10
-2.34362e-05
-5.67899e-05
0.000801678
7.22071e-09
-3.95757e-09
-0.000655962
-1.02197e-07
-3.44658e-06
-7.53683e-09
0.000649177
-2.62881e-08
-8.39351e-05
1.6188e-08
1.4582e-05
-4.46782e-06
-2.10188e-06
-3.74871e-06
-1.22057e-07
-1.17993e-08
-1.57587e-09
-0.000850969
2.99566e-08
0.000309557
-8.09318e-07
-0.00979909
-0.00224215
1.72414e-06
1.64233e-09
-7.41288e-06
0.00296114
-4.30595e-07
1.23614e-05
-1.83381e-08
-0.00033934
-5.39825e-08
-0.000346099
4.00281e-08
-4.78483e-09
-0.00552599
4.02067e-07
-4.01401e-08
-2.04254e-06
0.000335687
-0.00592983
-0.00639538
-4.70854e-08
-0.000574901
2.06376e-08
6.12588e-09
-4.99576e-09
1.38675e-08
6.32101e-10
-0.000829483
-0.00879669
7.22555e-08
-2.78867e-09
2.90312e-06
-2.46139e-08
5.35981e-06
-1.20794e-05
-0.000255123
-0.000124768
-6.21847e-07
4.48943e-07
2.29368e-08
-2.3417e-06
3.91724e-06
-1.25953e-08
6.06055e-10
-0.000292975
-0.00053836
3.81528e-06
-0.000204499
6.59615e-06
-1.09596e-08
5.33263e-07
1.13597e-05
-0.000680742
-3.02377e-07
-0.00505273
-5.15458e-06
3.01608e-09
-0.000556562
2.97528e-05
-0.000447868
-0.00738916
0.00873103
7.36545e-07
3.96618e-06
3.68242e-07
0.000259991
1.18987e-06
5.00192e-09
-0.00452531
-1.4606e-07
-2.18415e-09
3.74762e-08
-5.99604e-07
0.000418694
0.000127923
-1.3357e-09
2.46434e-06
-6.44381e-05
-1.31084e-07
-0.000162688
-2.19234e-07
-1.05835e-05
0.000913766
-4.6731e-08
3.44987e-05
-4.64179e-06
3.33988e-06
0.000615526
4.53845e-07
0.000314187
9.76855e-06
-7.83416e-06
-8.76368e-08
-0.000237268
6.99082e-07
0.0003398
-0.000754542
-0.000422401
4.6022e-06
-6.70502e-08
3.73963e-07
5.84467e-09
2.26679e-06
-1.2555e-08
-0.000329055
-6.68014e-06
2.46263e-07
-7.33096e-07
-3.20922e-07
-2.45555e-08
-5.21324e-07
-1.01201e-06
8.61653e-08
-4.28641e-06
0.00419764
0.000947747
4.85938e-07
9.03134e-06
-0.00393919
-5.56032e-08
-0.000578835
-6.98253e-09
1.93146e-06
-4.07579e-07
4.65844e-07
2.40725e-06
-3.57426e-08
-5.45252e-09
-2.34628e-07
1.93918e-07
-0.000127279
-1.04069e-07
-0.000499074
-0.000952751
-4.92199e-06
-0.000195069
-5.40156e-08
-0.000335577
-1.21212e-05
-2.78874e-09
-9.06318e-08
-1.16861e-07
-0.000654406
-5.13238e-07
7.50736e-07
0.000589937
1.17922e-05
1.12745e-05
-8.34681e-08
4.05266e-05
-7.71113e-06
0.00887344
-2.18189e-06
-1.13577e-08
4.27114e-09
-5.13227e-07
-7.96592e-09
0.00132674
1.69807e-05
-2.90392e-09
7.87472e-05
0.00019189
-2.88465e-09
0.00484938
-6.15148e-05
-1.3534e-05
-5.43134e-07
0.000668842
-1.6018e-07
1.55977e-08
-0.000764623
1.28575e-06
-2.86092e-08
-1.24292e-07
1.76136e-06
3.54719e-06
-0.00222776
-5.4238e-05
5.77201e-06
-0.00245756
-1.59512e-06
3.54288e-08
7.40651e-06
-2.90985e-08
-0.00510487
6.34733e-08
-4.38704e-09
2.17985e-06
8.3959e-08
-0.00268118
-0.000353129
-5.01598e-05
0.0010332
-0.000571048
9.1553e-07
-4.85722e-08
-4.18187e-07
7.9309e-05
1.74725e-09
-5.93277e-09
-1.37467e-06
0.0203876
-2.02416e-05
-7.89465e-09
-3.11459e-06
4.76967e-07
-2.04126e-05
2.79504e-05
4.25145e-08
-2.434e-09
-4.40573e-08
0.000550589
1.39278e-06
-0.00080811
-5.52321e-07
-9.24831e-10
-3.64336e-08
-7.61142e-08
-3.63159e-07
-1.43674e-05
0.00305434
-0.00186809
-7.00545e-07
1.64859e-08
-0.0190011
5.97455e-09
0.0119543
0.00130321
-3.20196e-07
-0.000618791
0.000233915
-0.000140976
-6.23005e-06
-4.60096e-07
-0.000794446
-2.66771e-07
-3.89146e-07
1.35428e-06
-5.44334e-05
4.9514e-07
-0.00964325
1.06991e-08
-0.00699142
0.00326561
4.23493e-09
-3.02182e-07
8.80179e-07
6.08494e-05
1.25306e-06
-8.51865e-10
4.60777e-07
5.62145e-07
3.50358e-07
-0.000262223
-1.21986e-08
0.00239895
-0.000520633
-1.92882e-08
1.56963e-08
2.01654e-06
4.80487e-09
0.00353448
-0.000646599
-0.000197131
0.000630623
-3.02411e-08
8.15875e-07
1.44254e-07
-2.00769e-07
0.000112559
-1.18428e-06
1.42342e-09
2.24255e-06
4.44358e-08
-0.0107714
-4.11064e-06
-5.79005e-05
1.28046e-07
-5.65268e-07
1.18778e-06
1.14969e-05
2.42469e-06
8.18259e-08
-0.00049079
0.000728494
0.00966125
-0.00074197
-0.00682247
-0.0022281
0.000316614
-3.14978e-08
3.96324e-08
9.11186e-08
-8.20387e-05
-4.85526e-06
2.46035e-06
7.18224e-05
-1.30022e-07
5.15022e-09
5.95962e-08
-4.47067e-05
5.53159e-09
3.03618e-07
2.56873e-06
0.000102465
-1.77087e-08
-3.93234e-08
-6.45372e-09
-5.40362e-08
2.18243e-10
6.65271e-08
-1.55105e-05
-6.11102e-07
-0.00895466
1.29787e-08
-2.72481e-08
-0.00103089
-0.00278621
-0.000539633
-0.00109734
1.42649e-07
0.00260566
-7.35304e-09
1.77199e-06
-3.99003e-07
5.20414e-09
3.99221e-07
-0.000176731
-1.20404e-07
9.08602e-06
0.0875526
1.48659e-08
-1.44293e-07
-6.52955e-07
-2.48105e-06
1.46338e-09
0.00091937
9.843e-08
-1.93604e-05
-7.33643e-09
-7.10945e-08
4.35181e-08
-1.50798e-06
2.11904e-08
-0.000274347
-0.000299293
-4.17144e-05
-0.00345618
-2.67434e-08
-0.000711043
-0.000197989
2.65341e-08
-0.0470519
-3.1439e-07
-8.49719e-07
5.57589e-08
9.11437e-08
1.44236e-08
-2.79227e-09
6.75421e-08
-2.3203e-07
-6.43132e-06
1.93468e-07
-5.55426e-09
-9.14299e-07
-2.23088e-08
-0.000284912
-3.24283e-09
8.04316e-07
1.88509e-06
0.00112603
-0.000124121
-8.83795e-09
-2.27637e-05
-5.85448e-09
-1.76764e-06
3.38491e-06
-0.000555596
5.49947e-06
2.92533e-09
6.18566e-06
-5.61943e-07
-9.47448e-06
-0.000276432
-7.14992e-07
1.80266e-06
-3.05754e-06
8.71769e-06
-3.52257e-08
2.07119e-08
-0.00531865
-4.70013e-06
1.77819e-07
2.00227e-08
-4.46469e-05
-2.01594e-08
1.40015e-06
1.29848e-08
4.67987e-06
0.00573813
-2.744e-09
4.86887e-05
-3.18866e-07
6.58954e-10
1.25538e-05
3.46449e-09
-8.71645e-07
0.000875957
-1.68354e-06
-0.00499874
2.64474e-08
5.99533e-10
-1.74908e-06
8.12995e-09
6.96507e-10
2.08956e-07
1.79896e-07
-2.1855e-06
3.81984e-06
-4.53904e-08
-2.57595e-06
6.91744e-08
2.22666e-08
5.02771e-09
3.71399e-08
0.000810081
-5.45758e-08
7.60674e-08
-4.94971e-05
-1.45452e-08
2.78741e-08
-0.00315153
1.17597e-09
-0.000508195
-2.07732e-07
-0.00370968
4.60236e-05
-2.64441e-07
-0.00426305
7.20082e-06
0.00102343
-2.24505e-07
-6.32774e-05
2.6048e-07
1.90229e-08
-1.51521e-07
-4.66919e-07
-3.28808e-07
-1.01728e-07
-9.59773e-06
2.94406e-08
-2.83491e-08
-2.2823e-05
-0.000314191
0.00916276
2.00735e-07
1.35401e-06
0.00101682
0.000297316
-2.19447e-08
2.54371e-07
-0.00154575
-8.21761e-09
1.74e-07
-0.00211218
-0.00179585
4.44112e-07
3.42691e-06
3.14767e-07
-0.000149501
3.06604e-09
-1.04695e-06
-0.00973046
-1.00998e-07
2.85202e-08
-0.000376471
-2.78386e-06
-5.36231e-05
-0.00375903
-4.27e-06
-4.86575e-08
2.10914e-08
7.43335e-09
-0.000648515
0.0047137
-0.00702326
1.97973e-06
-1.0837e-08
0.000325714
-1.06266e-08
-2.82339e-05
2.8019e-07
-8.27064e-09
-1.33741e-06
4.09414e-08
0.00474159
-1.99163e-05
-2.90831e-08
2.05289e-07
-7.13955e-06
0.00388359
-1.05922e-06
-6.40781e-06
-1.58185e-05
-1.14836e-06
-0.000806415
-8.74054e-08
-1.52265e-08
-2.55217e-06
-4.15198e-06
0.00278601
-9.28093e-09
0.00124757
4.03277e-07
6.61675e-06
2.52859e-10
-0.00138095
-7.9854e-07
2.05434e-06
1.28259e-08
5.06284e-06
2.46183e-06
5.87819e-07
4.68566e-09
4.9139e-07
-8.56162e-06
-0.000312434
-7.1099e-06
-1.19454e-08
-4.12359e-07
-1.50796e-06
5.88486e-05
-2.96658e-08
-7.43736e-06
-0.0033433
-2.37984e-06
-0.0021312
3.08427e-06
0.000591173
-0.00120781
4.80771e-08
-0.00274483
-8.65766e-10
5.11136e-07
2.36891e-07
3.26405e-06
1.31876e-06
5.59723e-06
5.27054e-07
-5.44492e-06
1.78376e-06
-3.90154e-06
-9.31283e-09
5.35026e-07
-4.40953e-07
-1.19871e-07
7.43351e-05
-3.13023e-08
-2.32837e-06
7.22192e-09
-0.000366836
-4.06415e-06
-5.51633e-08
-3.81736e-07
-7.12143e-07
0.00018538
-2.13252e-05
2.30637e-09
0.000164835
5.32499e-05
0.000754991
7.01439e-06
-0.000106503
-2.86633e-08
1.63195e-05
-9.29058e-09
6.27626e-08
-0.0360208
0.00349858
0.000961728
-0.00140478
-1.42889e-08
0.000107428
-2.0824e-08
-2.68556e-06
-5.75552e-07
0.00474942
-0.00179133
2.8216e-07
-1.43227e-09
0.0031513
1.81584e-08
7.15243e-08
-0.000666466
1.12269e-08
1.42614e-06
-6.18532e-07
-1.24656e-07
1.03727e-06
1.40819e-07
2.42077e-08
3.98887e-06
-3.86961e-05
1.06094e-06
2.61e-06
7.36771e-08
0.000578601
0.00401811
3.14835e-09
0.000183317
-4.54671e-06
6.53233e-07
-0.011096
2.02802e-09
1.39396e-08
-3.43123e-07
0.000328753
3.99086e-08
2.41828e-10
2.59669e-06
0.00944585
3.76378e-09
-3.72161e-07
9.43934e-07
-0.00128845
-3.24596e-06
-7.46088e-07
2.75372e-05
5.44466e-09
1.72375e-06
1.33565e-08
0.00121249
-2.02121e-06
3.13081e-08
8.89367e-07
-1.87764e-06
-1.88065e-09
7.40887e-08
1.25959e-05
0.00437853
-8.1695e-08
0.000767622
1.67066e-09
1.39169e-08
-2.1889e-06
-3.06618e-08
-1.66432e-08
0.00534681
1.541e-09
2.85778e-06
2.29906e-05
-0.000824473
-0.000324533
-5.18612e-08
6.83722e-07
8.00209e-07
-9.71927e-09
-1.51022e-08
-4.17292e-09
0.00586076
5.27154e-09
-0.00038896
3.84004e-06
2.54914e-08
-2.4376e-08
8.56341e-07
-4.41032e-06
5.09353e-05
-3.35745e-07
8.44829e-06
-4.14089e-07
-0.00189779
-6.32067e-06
-8.9084e-07
4.75966e-06
9.21363e-06
1.12887e-05
-0.000504807
1.20113e-06
0.000353236
-0.00772288
0.000123917
2.05836e-07
-2.02942e-07
-5.19326e-07
1.08276e-07
-7.09741e-08
-6.12831e-08
-3.87506e-06
6.48547e-09
4.18451e-07
-3.00498e-08
-9.6361e-09
1.37161e-07
-1.09527e-07
-0.000336599
3.14945e-10
-0.00042746
-1.48484e-08
2.24533e-06
3.34229e-07
-8.18925e-06
3.86526e-06
-5.45392e-08
-0.00817752
-1.44435e-07
-1.52774e-09
-1.98952e-06
4.6625e-08
1.09601e-07
1.14611e-08
0.00367128
-4.35534e-07
-3.66126e-06
-3.60602e-06
-0.00845081
4.4636e-06
-0.00081575
9.25039e-05
6.06807e-06
-1.41177e-07
-8.93816e-07
1.48625e-05
3.30146e-06
-0.000761789
5.52789e-08
0.000164993
-3.0817e-07
-7.4956e-07
-0.00206064
1.6232e-06
0.00665952
2.4576e-06
-1.31249e-06
6.72353e-07
-0.000394293
-1.86057e-06
2.95219e-10
2.12782e-06
2.47982e-05
2.55288e-07
4.16548e-08
-1.76427e-09
-0.000710673
4.40598e-09
6.7089e-06
-0.00267344
6.67297e-07
2.12482e-08
1.75414e-06
1.76847e-06
-0.0100868
4.49822e-09
7.93644e-09
-8.9812e-10
7.12564e-07
-3.48443e-07
-1.91961e-07
2.1595e-06
-0.00198916
-3.07463e-08
-4.33537e-09
-0.00789449
-3.90025e-08
5.01667e-05
2.35119e-07
-0.00173929
5.31773e-09
1.20124e-06
-9.42007e-09
-0.000169266
-0.00374059
-3.32636e-06
4.3565e-09
8.76374e-08
-1.0163e-07
-8.54922e-09
0.00370001
1.03833e-10
-1.15619e-05
-1.32892e-08
4.16283e-06
-6.92539e-09
-0.00811201
-2.98092e-08
-2.90352e-06
-4.77965e-09
-0.000637371
0.000285611
4.4509e-08
3.62719e-06
0.00119477
7.08304e-06
-0.000274054
0.00612751
-9.63334e-06
5.58363e-07
3.45753e-06
1.26321e-05
-0.00423866
7.53406e-08
-9.08034e-07
4.93136e-07
-3.0106e-07
5.00727e-05
0.000360147
-5.1309e-06
-1.11714e-05
0.000315158
3.78527e-06
-0.00318636
-7.60545e-08
3.32962e-08
-1.11845e-05
0.000504019
0.00011913
-2.27108e-05
-0.000771017
-8.64873e-09
-0.000918662
-0.000704785
-0.00232756
2.2293e-10
-0.000747827
-0.000137497
0.000294485
-0.000196391
-0.000854386
3.63659e-06
-1.98798e-06
8.80067e-06
7.30158e-07
5.07435e-09
0.000840991
4.59241e-06
-1.57844e-08
0.000996725
-3.04793e-09
6.8729e-07
3.30672e-06
4.05466e-08
-0.00195181
-2.11266e-07
2.24397e-05
4.49757e-06
5.6258e-07
-0.00259033
0.0012921
1.95013e-05
1.42466e-07
8.02455e-08
1.105e-06
2.34103e-06
-4.30136e-09
5.12027e-06
7.54327e-07
8.81048e-06
-1.57109e-07
1.85421e-05
-4.27842e-06
-5.35295e-06
0.0018064
-0.000409733
-3.12593e-07
-8.62695e-06
-0.000631697
-4.23701e-08
6.02124e-07
-0.00151817
0.000766744
-7.32542e-08
-3.17221e-07
-2.18336e-08
-8.09191e-07
3.18023e-07
0.00106499
1.99161e-05
-1.04193e-07
7.98584e-10
-5.30129e-07
1.31505e-06
-6.95228e-06
-0.000324152
-2.23656e-07
-2.97219e-09
-1.61932e-06
-6.28551e-09
4.14056e-07
-3.21302e-07
-5.10031e-07
-1.13538e-07
-8.95195e-08
-7.16208e-06
4.66454e-08
2.37705e-06
-0.00716152
1.54842e-09
-0.00904869
-0.000491094
1.92325e-08
5.68485e-06
2.88934e-06
-3.95384e-06
1.58628e-07
-5.59907e-06
5.32593e-07
7.86603e-08
8.92656e-08
2.24001e-07
8.01345e-10
-0.00077286
-6.06994e-07
-0.00342312
2.94427e-08
5.61674e-08
3.93276e-08
8.53543e-06
-4.73034e-08
-4.44872e-06
1.46003e-06
-0.000685616
-4.69839e-08
-0.00010678
-0.0176602
0.000741957
-9.90852e-09
1.70312e-05
-5.45039e-05
-0.0362187
-0.0198392
-2.15853e-07
-1.78987e-08
-1.86344e-05
0.000821403
-0.00320851
-2.29908e-06
0.00016747
-8.55026e-09
-8.34454e-08
-1.24233e-06
7.64282e-09
-1.8471e-07
2.40178e-05
7.23316e-09
-2.54798e-06
-1.39238e-08
0.000746148
-0.00935304
-0.0109185
0.00130183
0.000883077
-8.35437e-08
1.53661e-08
0.00592711
3.89731e-08
3.86986e-08
1.35667e-08
-2.25004e-06
-0.00241608
-0.000770078
3.80215e-07
-5.21809e-08
2.95603e-07
-3.01019e-06
-8.32877e-05
-3.25112e-09
0.00480623
0.0008283
6.79622e-10
-1.57608e-10
-0.000775672
-7.48389e-06
4.04894e-07
6.17314e-08
-0.00583514
0.000886764
2.11992e-08
2.31e-05
1.01961e-08
0.00037204
0.000600769
2.88428e-07
0.000179268
3.90235e-05
-0.00717684
2.34069e-08
4.3395e-08
8.54259e-09
5.48403e-10
-0.00297873
-9.68094e-08
5.28864e-05
0.000106519
-0.000663633
2.86729e-07
-2.47531e-06
1.80492e-05
6.04375e-06
0.00667504
-0.0010577
-1.92847e-09
-2.37593e-07
3.46652e-07
6.95423e-06
-0.00209535
-7.77077e-09
-0.000457282
3.72862e-06
5.80886e-06
4.53465e-07
4.84537e-09
-7.47353e-06
1.75471e-06
5.2369e-06
1.07164e-08
-3.7501e-06
-1.33006e-06
2.55724e-05
-4.61815e-07
-0.00188304
-0.00143246
-1.79389e-05
-2.05079e-06
-7.99899e-08
7.35164e-09
-3.91252e-06
-3.14071e-05
-0.00294011
0.00352864
-6.3669e-10
0.00315496
1.20667e-06
0.000216364
-4.31972e-08
-1.61328e-06
-2.36763e-06
-2.69486e-07
-0.0072412
3.6198e-08
1.24823e-06
0.000738656
0.000535331
0.00166774
-0.00141017
1.51459e-06
-4.09388e-06
-7.78611e-09
0.00100044
1.50301e-06
0.0027932
-1.88577e-09
-0.00995838
-4.39583e-09
7.70725e-08
2.80563e-08
-3.88393e-07
-1.93996e-07
-2.05143e-07
-0.000767288
6.03402e-06
-9.88155e-08
2.37901e-06
-0.000326722
-0.00254622
3.90394e-08
-0.00118659
2.12957e-07
-4.76623e-07
1.29014e-06
9.65147e-09
4.89308e-07
5.73206e-08
-0.0128503
-1.42186e-06
7.58808e-07
5.02527e-09
-0.000202848
1.01912e-06
1.58736e-08
-0.0111557
-0.0110655
4.34201e-05
-3.08512e-08
0.000378305
-8.75957e-09
-5.56945e-06
5.43975e-07
8.57683e-07
-0.00150389
-0.000786976
-7.92284e-07
-0.00177376
3.01005e-06
1.66783e-06
1.929e-08
-0.0107803
-5.06727e-06
2.47362e-05
-9.56004e-07
7.24031e-10
0.0071948
-5.15348e-06
5.62559e-05
-0.000143884
0.00301884
-0.000720481
-0.002251
-0.000747079
2.57256e-06
-1.41909e-07
-2.14252e-08
-2.45443e-07
-1.64578e-08
-7.48345e-06
-3.92857e-06
1.65433e-08
-0.00153103
-1.18917e-07
-1.36644e-08
5.30168e-06
1.29952e-05
-1.60987e-07
1.1648e-08
0.000716064
-5.67905e-07
-1.30212e-07
-1.45623e-07
-0.000203598
-2.75676e-07
-0.00232843
9.54802e-07
-1.62484e-06
-3.65697e-06
-2.53723e-09
5.27921e-05
-6.08383e-05
9.04242e-06
1.78814e-08
4.5242e-09
-0.000618402
-0.000209604
0.00132811
-1.45097e-08
8.94159e-06
-0.000702152
-7.56689e-08
2.51963e-08
5.16058e-07
-0.00216415
-2.48771e-06
3.47513e-06
-5.1195e-07
2.04986e-07
-0.0074859
6.95901e-07
2.08028e-05
3.27931e-07
-6.26318e-07
-2.78202e-09
2.0415e-05
-4.25576e-07
2.7113e-08
0.00513641
-0.00117082
0.000552866
0.00526885
-0.000117316
-0.00104745
0.00616997
2.32276e-07
7.94107e-08
0.00287715
-5.01167e-05
0.00211997
-9.17151e-08
5.47753e-06
4.91301e-08
-1.31853e-07
0.00620191
0.000508558
-6.81678e-07
7.01915e-08
0.000146704
4.43257e-06
-3.77458e-06
-0.000143136
0.00172649
-3.29713e-05
3.0292e-09
-0.00162473
0.00168792
0.000151469
-9.11218e-07
2.10347e-06
2.53136e-07
-6.12065e-09
-1.6765e-06
5.01815e-06
-2.33173e-07
4.28919e-06
-2.09369e-07
2.04225e-06
-1.48247e-05
-0.000739801
-1.24758e-07
-5.03564e-06
0.000881704
-2.35877e-05
-7.51509e-09
-1.04378e-05
0.0003465
-0.000295939
1.58179e-06
-1.77227e-09
4.99698e-07
-9.75361e-07
2.67735e-08
9.8798e-09
-2.86647e-07
7.192e-07
-1.68925e-06
-3.28917e-05
9.01138e-10
-2.75113e-09
-0.000807017
0.00163581
0.00106399
0.000104817
1.90765e-05
9.14427e-09
3.08896e-08
-5.13784e-07
-2.3254e-08
0.000437523
1.3349e-07
2.13332e-10
1.11702e-08
0.00508522
-0.0249208
2.19946e-08
6.52153e-06
-2.70395e-06
2.16873e-06
3.60739e-07
-1.13123e-06
-2.30367e-06
-1.66982e-06
4.50658e-05
-2.95362e-08
0.000726389
-2.52549e-06
0.000837321
9.99012e-07
3.54441e-09
3.04443e-08
1.16222e-05
1.68112e-05
-7.04186e-09
-3.4804e-06
-1.2217e-06
-2.62671e-06
0.00215227
0.000237712
-0.0100272
6.64192e-09
-0.000648701
-1.62439e-06
-4.56209e-06
-7.08947e-10
-1.23817e-05
1.41114e-06
0.000500297
-0.0010883
-5.26157e-07
-4.91393e-09
0.00229702
-5.28357e-07
-0.000641027
0.000543112
-6.03317e-05
-2.01414e-08
2.71961e-05
-0.00888993
0.00057247
-0.00114438
1.01157e-06
-2.48833e-07
-1.29025e-06
-3.20493e-09
-0.00275266
-5.11826e-06
3.63681e-06
0.000280473
0.000132656
1.72995e-07
-1.63311e-07
-0.000732808
1.09316e-06
-0.00148325
9.26649e-07
5.75533e-08
-4.33223e-07
-1.52793e-05
8.86891e-07
0.000957503
-5.15751e-06
0.000598257
-1.27806e-07
1.24353e-08
-1.2935e-07
0.000101574
3.02046e-07
-5.49988e-06
-2.38791e-08
-2.23239e-07
-7.46937e-05
-1.10768e-08
-3.96379e-07
-2.61593e-08
-7.54591e-07
0.00113289
-6.40016e-06
-2.29315e-06
1.78925e-08
-2.10281e-07
-6.40811e-08
1.29312e-05
-9.96618e-07
-4.32897e-07
-6.56325e-07
-7.93119e-07
2.93644e-06
2.21322e-07
-4.20723e-08
1.35964e-07
7.60288e-05
0.00104751
-1.93394e-07
-0.00107444
-0.000727128
-5.12425e-08
-5.93942e-07
0.00128834
0.000147935
-8.47419e-09
-0.000697678
-0.00341995
5.26335e-08
-1.34961e-05
-9.58925e-09
1.57791e-07
-1.38141e-07
0.0242544
-0.000359205
9.16472e-05
0.000223165
0.00613838
0.000180363
3.31924e-07
-0.00101846
9.62381e-08
0.0052383
0.000876629
9.55862e-10
-2.61993e-09
0.000461278
1.50751e-07
-1.64172e-08
0.000116914
-0.0032992
-7.29567e-06
4.98548e-07
0.000995577
-5.66466e-10
0.00199136
-0.000865827
-6.42129e-10
-0.000575387
0.00312464
-2.77162e-05
-0.000259775
-0.000907069
1.5284e-05
-2.76105e-09
5.34867e-07
1.04742e-06
-4.31186e-06
-1.7079e-08
4.36696e-05
8.43337e-08
-0.00093136
-6.02638e-05
-1.73344e-06
-1.16316e-05
-0.000931514
6.56238e-05
-1.58756e-05
-8.35044e-07
-0.000313964
0.000230866
2.08772e-07
-1.83347e-08
0.00338525
3.44734e-06
4.73786e-08
-0.00158126
-5.28728e-08
0.00254651
-3.25914e-07
-0.000498713
-1.9256e-07
-1.08596e-07
-0.0133006
-2.7744e-07
-2.09737e-07
0.000235063
0.00693322
0.00137329
-2.64132e-07
4.41355e-06
3.08323e-07
4.92964e-06
-2.1338e-05
-3.46249e-06
-2.13166e-10
-0.0011917
-3.68481e-07
-5.4847e-06
-0.000385587
-3.20056e-07
3.82693e-07
1.05239e-05
-4.81618e-06
-6.03518e-06
3.07574e-08
-2.47067e-05
2.11001e-08
2.10944e-05
-0.000632421
0.00118217
1.2011e-08
1.79662e-06
1.66408e-05
-2.78463e-07
-5.79616e-06
1.47085e-06
-2.27675e-06
0.00168222
-3.73148e-07
3.07965e-07
0.000529834
-3.65559e-09
0.00298385
-3.08936e-08
-6.99843e-07
-1.80055e-05
0.00167132
2.52135e-06
-2.01986e-05
0.000314815
-2.11647e-07
3.60034e-07
6.85775e-06
1.49545e-06
-0.00117803
1.32438e-07
0.000277816
-2.56905e-05
-1.03839e-06
-5.02219e-07
-9.93311e-06
-8.08414e-07
-2.5836e-07
3.708e-06
-1.5005e-06
3.0688e-07
-2.36583e-08
-0.000758788
-2.43169e-08
7.8155e-08
-1.12028e-08
-1.95346e-05
-2.21367e-07
-2.77572e-07
-0.00035055
3.80109e-07
9.38611e-05
1.09191e-08
1.6211e-08
1.7613e-09
1.4798e-10
-5.79084e-07
-2.045e-08
-6.22408e-06
0.00106708
-3.45503e-06
-2.9487e-06
-4.81547e-07
2.26684e-07
0.000838905
-1.28891e-07
-0.0092187
-0.0106885
-0.000168192
-1.88783e-05
-2.46889e-06
-3.201e-08
-3.10333e-08
3.13059e-07
1.11368e-06
2.30411e-07
0.000882177
6.07436e-06
-0.000800535
6.81755e-06
3.06587e-10
-5.23496e-09
0.000825753
-1.93093e-07
-2.29537e-07
-4.77057e-07
-0.00188012
2.66534e-07
-0.00167521
-1.0651e-10
-5.19292e-07
1.03903e-08
-1.30376e-07
-1.11747e-06
-1.85464e-05
3.12119e-07
2.69486e-07
2.95695e-07
5.09209e-06
-6.03356e-06
0.000982261
-0.000517931
8.3492e-05
-2.31713e-05
-1.24921e-07