/*--------------------------------*- C++ -*----------------------------------*\
| =========                 |                                                 |
| \\      /  F ield         | OpenFOAM: The Open Source CFD Toolbox           |
|  \\    /   O peration     | Version:  v2012                                 |
|   \\  /    A nd           | Website:  www.openfoam.com                      |
|    \\/     M anipulation  |                                                 |
\*---------------------------------------------------------------------------*/
FoamFile
{
    version     2.0;
    format      ascii;
    class       volScalarField;
    location    "50";
    object      ddt0(gammaInt);
}
// * * * * * * * * * * * * * * * * * * * * * * * * * * * * * * * * * * * * * //

dimensions      [0 0 -1 0 0 0 0];


internalField   nonuniform List<scalar> 
13851
(
9.26254e-08
-6.07078e-15
3.62732e-15
-2.86464e-14
4.97594e-15
-2.17517e-14
-2.6115e-14
-1.87872e-15
3.99012e-15
2.79327e-15
1.29082e-09
-7.28454e-15
1.44092e-14
1.65772e-14
-2.24036e-14
-3.81901e-05
3.54989e-14
3.09901e-14
-3.05487e-05
-6.61287e-08
2.75938e-14
-2.87569e-15
0.000296717
-1.97942e-14
-0.0103668
-8.9021e-11
-0.00378195
-0.0515227
-3.61158e-15
1.76826e-14
-1.47342e-15
-1.1601e-14
-1.51652e-08
1.09492e-14
-4.65976e-14
-1.03168e-14
-6.30963e-15
-0.000976805
2.62079e-14
-1.41915e-14
-5.15298e-14
-2.52267e-14
-5.21823e-14
0.00120994
8.9301e-15
-1.32165e-14
-2.00512e-14
-1.64958e-06
2.16743e-15
2.12602e-14
-1.0519e-14
-4.61971e-15
-2.16619e-05
1.42448e-14
1.17497e-14
-1.1678e-14
-2.49903e-07
-5.24772e-14
-0.000625827
-1.29896e-14
-2.52215e-14
-0.000406553
-2.06492e-15
5.18856e-16
2.30037e-09
2.60253e-10
1.32214e-14
1.02634e-14
-2.72347e-14
-6.39076e-15
6.91127e-15
2.95861e-13
-1.38983e-14
-1.88714e-14
9.94586e-15
1.75038e-14
-9.75915e-15
-1.05386e-14
0.0573094
-1.47793e-15
9.20805e-15
-0.00320384
5.85897e-14
-2.43491e-14
9.73363e-15
1.16092e-14
-2.63364e-15
1.44189e-14
-2.38031e-14
9.32399e-15
4.34884e-15
2.86231e-15
-2.57024e-14
-9.4145e-15
-1.80185e-14
-4.05922e-06
-3.20769e-14
-3.07146e-06
-1.48072e-14
1.57744e-05
4.70829e-06
3.25161e-14
-1.82491e-14
-1.04729e-14
1.02363e-14
1.57307e-13
7.10813e-15
1.48069e-14
1.42659e-14
-1.05174e-14
3.91813e-14
2.6755e-14
-4.9918e-05
-3.63245e-12
-1.62123e-08
3.19222e-14
-1.54251e-15
1.35347e-14
9.84699e-15
1.56619e-14
-1.92499e-05
1.69937e-14
2.55248e-14
-3.53389e-14
6.4803e-06
2.56778e-14
-1.5365e-14
4.74159e-12
2.80943e-14
1.79143e-13
3.4667e-14
2.42991e-14
-0.0563638
1.14026e-14
2.78516e-09
3.92596e-15
-1.77437e-15
-8.82076e-16
3.67942e-14
-9.55997e-14
-0.00117254
2.64868e-14
-1.6355e-14
2.64636e-15
0.00169451
1.52545e-14
-2.4734e-14
-1.53697e-14
-1.08384e-14
-3.49486e-10
4.10215e-06
-2.5794e-05
-1.54143e-09
2.35602e-05
1.13351e-14
6.17659e-15
-2.92674e-15
3.85123e-15
-2.08239e-15
-1.17319e-14
7.40122e-15
1.82033e-14
-5.99006e-14
-3.83869e-06
8.51872e-15
-5.42213e-15
-3.31921e-14
-3.46686e-15
-1.94936e-14
1.29478e-08
-1.26257e-14
-2.48311e-14
-1.62013e-11
-1.60161e-14
2.84596e-14
-0.00379114
-6.50103e-06
-4.16836e-15
-7.21239e-15
3.90383e-05
1.26878e-05
-0.00207632
-1.33896e-14
5.62613e-14
4.14428e-14
7.29502e-15
2.00183e-07
-2.0881e-15
-2.99e-14
3.26445e-15
0.0184389
-3.40061e-14
4.57566e-15
-2.44105e-14
-1.47466e-14
-5.59659e-06
1.62843e-07
1.72361e-14
1.47824e-15
2.367e-14
-0.000343478
3.09528e-14
-6.11888e-15
-1.60491e-14
-0.0114669
-1.37951e-14
-1.50498e-16
3.69519e-14
1.37054e-14
-2.53996e-15
-6.25433e-05
-4.13964e-14
-0.00190708
2.57477e-15
-1.31662e-13
4.05619e-15
-1.12937e-14
1.01394e-05
-2.60244e-14
-6.02381e-05
8.03978e-15
-8.43683e-08
-2.00425e-15
6.87487e-14
8.10286e-17
7.29954e-14
-1.12595e-14
-2.37744e-14
-8.5893e-15
-1.79104e-13
-4.89728e-13
-1.7959e-14
-5.945e-15
1.96864e-14
1.03871e-14
-1.32136e-15
-0.0170728
3.5956e-14
1.38715e-06
2.53653e-14
0.029771
-5.2947e-15
5.90509e-15
-5.46261e-05
2.7664e-14
-3.18244e-14
-2.44325e-06
-1.66183e-14
0.000358244
1.17792e-14
-3.06439e-16
2.21438e-07
-1.17614e-14
-2.38798e-14
-4.26278e-06
-5.5217e-15
5.32751e-14
-1.6634e-14
1.69509e-14
-1.10253e-14
-3.43563e-06
9.1415e-06
-3.44382e-14
-2.52708e-13
4.35558e-06
-4.30596e-15
-2.60641e-15
2.19705e-08
-0.112051
-5.29915e-15
2.24093e-14
-5.28719e-15
8.51913e-15
5.74014e-15
1.00369e-13
-6.62098e-15
9.5536e-06
3.21077e-05
-4.42873e-08
-5.53508e-14
2.41999e-14
7.59036e-15
4.16853e-16
-2.14641e-15
-0.00300068
-9.52974e-15
1.58523e-14
-1.21578e-07
7.07589e-12
1.94013e-15
-7.89308e-15
8.68795e-15
-3.81971e-15
-4.66152e-15
5.54738e-16
1.76453e-14
2.16622e-14
-1.63036e-14
-1.04971e-14
7.9867e-15
-5.02021e-15
-1.27388e-07
1.43438e-14
-6.74548e-16
-1.65263e-14
1.76523e-15
-1.67726e-14
-4.53986e-14
-5.59258e-11
3.29485e-14
-1.58523e-09
-4.08557e-14
5.33676e-10
1.03477e-14
-0.11377
2.81267e-14
0.0194775
-0.027451
-1.72914e-14
3.14387e-05
1.75544e-14
-1.31705e-14
-1.81405e-14
-0.023853
-1.89305e-14
3.25336e-14
-3.00427e-14
1.42168e-14
-1.60098e-14
-1.02757e-14
6.58761e-11
2.39353e-14
-1.82155e-14
1.48824e-15
1.02586e-14
-1.19137e-14
-3.99739e-14
-3.65317e-15
-5.46311e-08
2.3031e-14
-3.11702e-14
1.53737e-14
-1.01064e-15
1.1053e-14
-5.07274e-14
-8.52763e-06
-9.64736e-06
-1.80405e-15
1.96987e-15
4.23605e-15
4.40185e-15
2.25211e-05
1.33894e-14
-7.87548e-14
-1.59797e-14
5.1748e-16
1.93254e-16
-1.21319e-05
1.03675e-05
-2.44376e-06
-0.0662353
9.22514e-15
1.58482e-14
2.68711e-14
-1.52856e-05
-1.6062e-15
-0.0217183
-6.19862e-09
-8.92415e-15
9.12871e-15
-8.3416e-11
0.011023
-0.000513046
3.67652e-06
-3.71737e-14
3.98369e-15
-0.00602621
4.39612e-14
-3.15209e-16
2.62433e-14
-1.46515e-14
-1.79955e-14
-1.12868e-14
1.9994e-15
4.31399e-06
-1.93606e-06
-6.75058e-16
2.53809e-14
1.81657e-10
1.6329e-14
3.56164e-15
1.62813e-13
-2.17411e-11
-1.57751e-16
-5.36711e-14
-1.14851e-14
2.18016e-15
0.38186
-4.26813e-14
-9.586e-13
-8.98193e-15
1.03651e-11
0.000709158
-2.12091e-05
-3.31665e-14
-5.06455e-16
-1.2132e-14
-0.00234581
1.47383e-14
8.60859e-07
1.54052e-14
1.92828e-10
-2.4103e-15
-4.86303e-15
3.14151e-11
-0.000183022
-7.06942e-16
5.08806e-06
-0.00350487
-2.24561e-14
-2.32433e-16
7.54095e-15
8.39361e-05
-2.91862e-06
-3.71597e-16
0.0580657
-1.0319e-15
-4.22401e-15
3.6922e-14
-0.00756656
-1.3074e-14
-1.70521e-14
-4.76783e-14
2.19632e-16
7.23887e-10
2.47655e-13
-4.32424e-09
2.29357e-14
9.74132e-15
-1.31453e-14
0.00521035
-8.72551e-15
1.45768e-14
5.73813e-09
1.51912e-10
-2.64606e-16
0.0030523
-2.5973e-14
-2.67663e-14
-9.87355e-15
-1.64844e-06
8.93461e-15
-2.75219e-15
1.61918e-15
8.28814e-05
8.26751e-16
1.2751e-12
-7.86142e-16
4.09478e-14
4.65263e-15
2.91903e-14
-1.47062e-14
-4.33365e-15
1.86054e-14
1.07245e-14
0.00525675
6.25138e-11
1.32943e-15
-3.18397e-07
1.16255e-14
-1.26345e-14
-1.16842e-14
-0.00700035
5.51749e-15
3.52459e-14
2.09374e-14
-2.15638e-14
0.0470492
-2.32091e-14
1.8891e-14
-6.05686e-07
-5.06762e-15
4.82143e-15
-0.000725938
-0.00130211
-4.50698e-15
7.92105e-06
-1.59976e-15
-2.84113e-14
-4.27675e-14
7.9693e-08
-6.20626e-18
-1.93372e-15
-6.62653e-15
-2.16271e-11
-3.16548e-14
-3.56852e-14
-1.9004e-14
1.24937e-11
-4.64752e-14
5.0207e-10
-1.79867e-15
3.52583e-05
1.51686e-14
-1.818e-14
-0.0155197
-1.70629e-15
9.8143e-16
-3.3701e-15
3.96335e-15
1.84593e-15
4.15064e-15
-8.98756e-09
5.42592e-14
-3.4777e-15
-1.02631e-07
-1.63097e-14
-6.1726e-15
0.00977096
1.91824e-14
1.65002e-14
0.000297692
0.0172512
3.32552e-15
-1.79433e-05
0.00672416
1.16638e-14
-3.15234e-14
4.36329e-05
3.82283e-07
2.92364e-14
3.4346e-09
1.52879e-14
2.49611e-14
-1.08208e-05
4.04259e-15
-2.18362e-14
-7.77016e-08
-3.99141e-14
1.2685e-14
-2.00097e-14
1.5162e-14
-1.095e-12
5.77386e-15
1.7052e-15
-1.63831e-15
1.83762e-14
-3.06305e-14
-1.02265e-14
2.64659e-14
1.31513e-14
5.43587e-15
7.01299e-15
-2.45455e-14
-3.7133e-05
-3.72474e-15
1.48292e-14
-9.72842e-17
2.34077e-14
-2.31947e-14
4.52022e-06
2.50143e-14
-1.22928e-14
-2.63192e-14
5.19406e-14
2.53547e-14
1.571e-15
1.11653e-14
1.26352e-14
-2.74795e-10
2.27011e-14
-3.66126e-14
-8.25206e-15
4.73649e-15
-5.40825e-14
3.89763e-15
0.00522025
-7.72877e-12
0.121488
1.52681e-14
-1.29301e-14
-5.86891e-11
-2.43159e-08
-5.81289e-06
-1.84685e-14
6.96538e-05
-2.89526e-14
-7.70836e-17
-0.00685264
0.341986
-2.29784e-15
3.73453e-16
2.30571e-13
-9.77621e-15
-1.45019e-13
2.46067e-14
-2.18302e-07
2.6933e-09
1.43083e-06
-1.12942e-14
-2.31706e-14
6.00464e-15
3.04902e-13
5.48987e-15
2.68744e-15
2.10584e-14
-1.56351e-05
9.36776e-16
4.91456e-10
1.83331e-15
-6.05853e-16
-2.60295e-12
-9.16228e-16
-1.52054e-14
8.72397e-15
-1.00723e-14
4.72197e-16
-3.35828e-15
1.5807e-11
-6.1398e-15
2.35785e-06
1.60471e-14
1.15732e-14
-0.0229003
4.96701e-15
1.85541e-14
3.11705e-15
-9.82821e-08
5.70827e-16
-5.97956e-14
-1.54002e-15
6.22924e-05
7.39382e-10
-9.28667e-05
4.82127e-14
9.20178e-16
-1.16021e-09
8.6748e-15
-1.38038e-15
-5.73838e-14
0.0176102
1.27798e-14
4.94369e-07
1.75515e-14
1.38153e-14
4.02691e-14
2.43674e-15
1.06585e-14
1.86403e-10
5.59808e-15
2.88883e-14
-5.07566e-11
1.77965e-14
-5.16242e-06
-2.63806e-14
-2.03092e-06
-1.02258e-14
8.34414e-15
0.0139917
1.62824e-06
-6.15961e-06
3.66042e-15
6.60275e-09
1.73166e-14
6.57841e-12
2.20905e-14
-1.27148e-14
9.87087e-09
3.11828e-15
1.18826e-06
-4.66223e-13
4.89352e-13
3.30635e-06
0.386019
2.97919e-05
-6.1399e-13
-2.14379e-05
1.34156e-06
4.40518e-15
-9.83182e-16
-1.0247e-08
2.25852e-07
1.61416e-14
9.13371e-16
-2.52834e-05
1.36154e-14
-2.13226e-14
2.17945e-14
4.00174e-08
2.3269e-15
-1.37971e-14
-1.55328e-14
-4.38616e-15
-7.01935e-07
1.31673e-07
-1.19289e-15
-4.03793e-07
2.46054e-14
-2.75009e-15
2.92997e-14
-4.5031e-06
-7.28111e-17
-0.00484192
2.0025e-14
-0.0749967
8.02072e-08
1.11306e-05
-2.5795e-15
-0.00202123
7.4652e-15
-6.72409e-15
-1.63216e-14
-7.74494e-15
2.87845e-14
-2.10228e-14
0.0241439
8.52133e-15
-2.43045e-06
-1.93815e-14
3.93868e-14
3.69686e-05
0.000168493
-1.61594e-14
-1.20625e-14
1.16229e-14
-5.05918e-16
1.02934e-14
2.08997e-14
-1.91073e-10
9.10429e-06
1.0358e-14
0.102459
2.28418e-14
-3.35661e-14
-4.31393e-15
-2.66653e-14
5.0952e-14
-1.69563e-14
1.46571e-14
-1.22071e-14
4.38261e-15
1.24406e-07
1.77905e-13
4.47337e-14
-2.4199e-12
-1.04265e-14
-2.7458e-14
2.22318e-14
7.87512e-15
-0.0512306
1.11998e-14
-1.51944e-14
1.72719e-15
3.19282e-14
1.68193e-14
6.93079e-15
3.0503e-15
0.000591622
6.7906e-15
1.68031e-14
-1.88472e-15
1.03661e-14
-4.39873e-15
1.45292e-14
5.45253e-14
3.03316e-15
0.0142166
-4.17165e-10
-1.25418e-07
3.49771e-07
-4.58256e-15
2.40608e-14
-9.79297e-16
1.63036e-09
-3.0093e-14
-9.1971e-15
1.62996e-14
-0.000399617
-1.52551e-14
-4.98219e-05
0.275557
-1.86855e-06
3.2795e-07
8.87102e-15
-2.04607e-14
2.90019e-15
1.5488e-06
-4.11126e-15
4.07239e-14
-3.93652e-11
1.46035e-14
3.34233e-09
1.3093e-14
3.19058e-16
1.51318e-15
2.30019e-11
1.57964e-14
8.27488e-15
-0.000144537
4.90082e-07
1.29532e-14
1.97578e-08
5.76728e-10
-2.97094e-14
2.50496e-14
0.0405901
-1.29968e-08
-6.8309e-16
7.12931e-15
3.63623e-07
-2.28432e-05
3.93669e-14
-2.3347e-15
1.42888e-14
-2.42881e-14
2.24383e-16
-2.65732e-14
-8.56245e-15
4.0063e-14
1.59821e-15
-3.48414e-15
-2.55522e-14
2.69038e-06
4.79864e-14
-1.44407e-12
-2.71001e-15
1.71033e-14
6.08866e-15
-3.40626e-15
-0.0139721
4.86247e-15
-2.29907e-15
-3.10229e-15
-2.6226e-05
-2.18127e-14
6.91062e-15
4.69401e-16
-1.38525e-15
-1.40621e-09
5.50159e-15
-5.1941e-10
9.23615e-15
-2.29301e-15
-1.00798e-14
-3.3502e-05
1.38169e-14
2.58098e-14
1.43169e-05
1.65676e-14
1.55179e-16
-5.03634e-15
-1.6883e-15
-1.26545e-05
1.98489e-11
1.50559e-14
-1.93294e-14
8.90747e-15
3.93418e-15
3.03185e-15
-7.67468e-16
-1.19516e-15
-5.50114e-11
3.93113e-10
3.05973e-14
-1.92596e-14
2.89081e-15
2.58041e-16
3.86147e-14
4.88426e-06
-2.35311e-14
2.40067e-14
6.23069e-15
1.0257e-06
1.40747e-14
2.90218e-15
-2.48969e-08
-1.08161e-14
1.95921e-14
-0.0102051
2.66122e-14
9.77426e-12
2.68639e-14
6.15559e-12
-3.15899e-15
-2.49715e-14
-1.07831e-09
-1.91665e-14
-1.457e-14
0.00206279
-1.53599e-08
-5.54613e-16
2.2943e-09
-7.71231e-09
-1.17564e-14
0.0190916
4.05012e-06
-5.98687e-16
9.77771e-16
8.75713e-15
0.0141901
-2.81365e-16
7.93485e-15
1.73247e-11
-7.42487e-15
-4.79748e-15
1.26844e-14
2.26276e-14
8.41544e-16
7.82398e-06
-5.8859e-15
-4.31412e-14
-2.40529e-14
1.41701e-14
1.26857e-14
-6.9726e-15
-1.59376e-10
4.43777e-14
1.76974e-14
-0.00382983
1.10189e-14
-2.0479e-14
6.3139e-05
9.91622e-15
0.00175812
2.59386e-11
4.22663e-14
-8.53018e-15
-9.63663e-15
-3.96699e-15
-3.1036e-14
-2.93847e-14
-4.52612e-14
-2.24258e-14
2.47328e-14
-6.68995e-15
-3.05136e-15
1.25805e-14
-2.60998e-14
-3.1394e-14
-1.88296e-15
1.78679e-14
-1.74103e-14
-5.0165e-15
-3.47869e-14
-5.71305e-15
-3.5091e-15
2.10645e-14
-5.11954e-14
2.45984e-14
0.0190909
3.76041e-15
-1.3335e-11
-3.79802e-10
2.01618e-15
3.84454e-14
1.87096e-15
1.29402e-14
-1.62667e-14
-2.79418e-14
-5.21892e-13
5.68436e-15
1.72797e-14
4.85879e-15
8.67776e-15
-0.000128676
-2.57311e-14
1.70573e-14
-0.0154492
8.23472e-08
8.85122e-05
2.17165e-16
-2.21054e-14
-8.03129e-07
-2.70699e-14
-1.06411e-15
3.04163e-15
-2.57707e-14
-2.04845e-15
1.35717e-14
0.000819917
2.5954e-14
7.73701e-12
-1.44133e-15
7.3233e-15
-0.00545432
-3.06954e-08
2.78099e-14
-1.38896e-14
-2.0894e-15
-1.01045e-10
3.79136e-15
-4.05689e-14
1.26861e-05
-1.42826e-14
-2.08476e-05
0.000205181
-2.13937e-14
2.85268e-14
2.25235e-14
-9.57999e-07
-1.134e-14
3.98733e-14
1.37736e-10
-2.18605e-16
9.20042e-15
-1.2454e-14
9.91487e-16
-1.50051e-14
-1.54501e-14
1.59765e-15
2.63864e-15
1.58604e-15
-2.52627e-15
1.40188e-14
2.0775e-16
1.78159e-14
-1.25798e-14
-2.48829e-14
-0.0072369
1.8583e-14
-6.54653e-16
8.0059e-15
2.35769e-14
-1.7251e-14
1.51564e-14
-0.000989888
6.35017e-15
8.56971e-13
1.22226e-14
-1.88168e-14
-3.07287e-15
0.000453673
1.29218e-14
-7.13178e-15
1.50864e-14
0.00961708
0.00519435
-8.72433e-15
-2.15763e-14
-3.93519e-15
4.89991e-07
1.06655e-14
-1.81448e-15
5.13592e-15
1.01429e-14
-0.00880312
4.53901e-15
3.09431e-14
-2.11288e-15
-2.78615e-14
-1.30091e-14
-1.27522e-15
-3.77192e-15
-8.67561e-06
9.40976e-15
-1.48582e-14
-6.93166e-15
1.23104e-14
-0.125327
-1.7459e-14
0.00349787
5.40743e-15
-1.40141e-14
1.94718e-14
-4.43109e-15
-1.78864e-14
1.60516e-12
6.46579e-15
3.18722e-14
1.47155e-15
2.46597e-14
-3.3682e-11
-0.000302262
-4.26299e-14
1.49935e-05
-4.1442e-15
-1.18196e-10
-0.00143273
-1.33883e-14
4.70555e-14
2.06942e-12
0.00125331
-1.99804e-15
2.04836e-14
3.23167e-15
-1.81258e-15
1.13514e-14
-9.97665e-08
-2.31481e-14
-2.32391e-11
-3.09825e-14
9.96532e-15
2.23363e-15
-2.72614e-14
-1.46164e-14
-7.35747e-15
-3.89335e-14
-1.32359e-14
-6.09039e-15
1.34588e-14
-3.67194e-15
-2.94437e-14
-2.5678e-14
-0.00222907
1.15408e-14
-6.64024e-17
-4.96038e-12
6.48694e-16
-7.02643e-06
5.75914e-14
-3.2439e-15
-2.55133e-14
6.36808e-16
-1.23773e-14
4.82526e-08
6.39146e-10
6.07991e-15
-1.10345e-14
4.64118e-15
-4.25211e-05
-1.65206e-14
9.29928e-12
-8.95136e-15
-3.71584e-16
1.81118e-14
1.10086e-14
2.97582e-14
0.00593003
3.40826e-14
2.11103e-10
-1.19838e-14
1.14818e-15
-1.28118e-14
-1.31933e-14
-0.000355446
1.70355e-14
1.28563e-14
1.0986e-14
-4.3207e-09
7.82646e-15
1.78521e-14
4.17229e-17
1.2059e-14
8.09369e-16
2.75515e-15
-0.00186409
-1.57455e-14
1.77898e-08
2.20611e-14
1.38358e-14
-1.42595e-14
-3.91366e-14
8.88788e-16
-5.04302e-06
6.40171e-15
-7.78231e-07
2.68779e-14
1.13921e-10
-2.83727e-15
1.72726e-14
1.5761e-14
1.09061e-15
1.01767e-14
4.46228e-08
0.00591474
-2.67128e-14
-2.75434e-14
2.68745e-14
-1.97208e-05
2.27686e-16
-1.77516e-07
-3.05341e-15
-0.0014657
-1.99057e-15
2.0006e-14
-2.36455e-15
-6.40699e-14
-1.7689e-15
-0.0094054
3.29205e-14
-0.000402622
-5.3478e-14
2.59372e-15
-1.97149e-15
-0.00458451
-2.7376e-16
-0.0611594
1.15678e-14
2.32557e-14
-2.29076e-14
3.49653e-16
3.61557e-15
-3.383e-15
1.09632e-14
1.76299e-14
2.29292e-11
3.69243e-14
-5.31126e-15
-3.63613e-14
-5.28084e-15
1.58142e-11
1.41465e-14
-1.11551e-14
-1.60473e-14
-5.86365e-15
-0.0415588
2.14788e-15
-1.00087e-05
8.05503e-16
-9.00789e-15
-5.18209e-09
0.000261673
1.46775e-13
-2.28569e-14
-1.19725e-07
1.40373e-14
6.61171e-11
0.000131467
-4.83535e-15
2.42594e-05
5.82624e-12
2.16961e-11
-1.42197e-14
-2.31027e-14
-2.86504e-06
-6.07406e-15
-1.2325e-14
3.44416e-15
5.89934e-15
-1.67357e-15
2.17815e-14
1.04548e-14
-1.75976e-08
-0.000558434
1.51794e-16
6.43902e-15
-1.47067e-14
7.90825e-15
2.01816e-05
2.83752e-14
-1.79516e-14
-1.10353e-14
4.37566e-14
6.90929e-07
1.64068e-14
-7.25972e-16
-7.05022e-15
-3.46261e-15
8.76869e-15
-8.15506e-15
2.49904e-14
-7.0177e-12
2.43824e-08
-2.23516e-14
2.07316e-15
-1.82613e-14
-1.79031e-15
6.45949e-15
1.5795e-14
-0.00422311
1.32211e-14
6.71076e-16
0.00617165
8.85156e-15
-7.10676e-17
-5.46349e-15
8.03192e-15
4.03596e-16
2.66284e-14
-2.03147e-15
-1.34166e-06
7.87214e-15
-0.324981
1.51166e-09
-1.08922e-05
-1.12516e-14
-6.69306e-06
-6.74648e-15
-2.73427e-14
-1.3862e-14
-3.74609e-15
-1.16848e-16
-6.5017e-15
6.43887e-14
-4.46094e-15
4.89205e-15
1.57526e-14
-2.39673e-14
-0.1349
5.8292e-15
-1.50885e-14
-9.54612e-15
-3.96553e-14
-1.73802e-14
-8.90967e-15
0.000258446
-2.21663e-16
8.04429e-15
-1.05584
-2.88467e-14
-1.9313e-14
-2.05445e-14
-6.11457e-16
-5.43724e-05
-2.14935e-14
5.81677e-15
-0.0125047
-1.38018e-14
1.56618e-14
-1.44594e-09
2.74187e-14
-0.000172988
1.47829e-14
5.52947e-08
-5.53646e-15
1.32329e-15
-6.71012e-15
-2.89658e-14
0.242853
4.06099e-07
1.02374e-11
-2.22126e-15
1.12183e-14
-1.61715e-14
-2.58905e-05
-1.03413e-14
-1.46715e-14
-3.47658e-14
4.69312e-14
1.26068e-13
1.48958e-11
-2.42312e-15
8.62145e-12
7.27351e-15
0.0334048
-3.72137e-14
3.16818e-12
-0.00122772
-7.39484e-15
0.0176103
7.71882e-12
1.59272e-14
-5.91376e-15
-3.4832e-14
-1.914e-08
-8.23573e-16
0.0182023
-2.46565e-13
1.49002e-11
1.58205e-15
-2.50598e-14
-1.12538e-14
-2.7332e-14
2.12271e-14
-7.44018e-16
1.34344e-14
-2.12106e-15
1.31676e-15
-1.95798e-15
2.24568e-11
1.36632e-14
4.21442e-11
8.84839e-16
-5.67765e-16
-1.49024e-14
-2.1554e-05
-1.28795e-14
-2.019e-08
-0.136815
7.92573e-13
-2.16531e-15
-2.69391e-16
-3.62938e-14
0.000919943
3.42537e-15
-0.0240989
1.06593e-14
-2.12314e-14
1.75027e-15
3.87637e-15
3.27374e-07
5.18786e-14
7.91149e-14
-1.47571e-13
1.54082e-15
9.10962e-15
1.44803e-14
-1.3979e-17
3.59733e-15
-2.18063e-14
0.0250987
-1.43586e-15
5.79716e-16
-8.74918e-15
4.81406e-14
-2.57453e-09
2.62966e-15
-9.69734e-15
1.89567e-14
-1.33652e-15
-1.28651e-05
2.78616e-14
-1.13539e-14
0.00316728
-0.00623867
1.72498e-07
0.00387016
-4.54427e-16
4.96794e-15
3.18595e-15
-1.26933e-15
-0.00215836
-2.38135e-14
-0.000927325
-0.00915705
1.3877e-14
-2.26393e-14
1.33695e-14
9.85854e-10
1.03206e-14
1.30048e-07
6.57501e-12
8.65859e-15
-3.65984e-15
-3.18003e-07
-5.20732e-14
7.07465e-15
6.33698e-15
-1.24719e-14
-2.59186e-14
-1.36559e-14
1.56883e-14
2.34067e-14
2.60074e-14
-9.99459e-16
-1.1791e-15
-0.0030058
1.43603e-14
-2.00903e-10
1.36132e-15
1.62826e-14
1.04271e-14
1.32792e-14
0.00158839
1.95759e-15
-1.11622e-14
-6.36906e-07
1.02485e-14
-1.06128e-14
-1.73364e-14
2.09202e-14
2.64762e-14
1.73547e-16
5.31713e-14
4.80603e-07
-3.22645e-15
2.71066e-15
1.98133e-15
-0.0414559
-2.31004e-13
-1.19175e-14
7.18166e-06
2.36033e-15
2.0335e-15
-1.20353e-14
-3.10174e-14
1.99899e-15
-2.12588e-16
-8.52421e-17
1.05526e-07
6.54966e-15
-2.62961e-14
-3.11759e-07
2.77996e-14
1.07516e-14
1.7192e-14
-1.21014e-16
1.97879e-15
-7.10307e-11
-9.48904e-15
-2.95717e-14
4.46953e-13
1.21176e-14
-4.63174e-16
4.49637e-05
1.90735e-15
0.00381105
1.56203e-15
1.3504e-14
1.60176e-14
-2.17548e-14
-9.26385e-15
3.72445e-14
-4.85941e-06
1.34863e-14
-0.0174478
-5.78293e-08
2.81379e-15
1.05183e-14
-1.02364e-14
-6.95764e-08
-0.000243258
-1.64614e-13
-6.66733e-10
-3.23838e-14
-9.62611e-15
-1.12688e-08
1.41337e-14
9.50318e-16
1.8798e-09
1.26515e-07
4.96963e-07
-2.2176e-17
-6.79379e-16
-0.000623326
-1.52898e-13
2.33984e-14
2.6724e-14
2.44203e-14
2.03605e-14
-2.22203e-15
2.13157e-14
1.75585e-07
-2.58736e-14
3.01587e-15
1.73605e-16
-2.90887e-15
-9.35451e-15
6.22893e-15
-1.2606e-14
2.4505e-16
-0.000202286
7.62403e-16
-5.24152e-08
5.02855e-14
5.97037e-08
-1.56375e-08
-2.73302e-14
3.74218e-11
2.35941e-15
-1.69982e-16
5.43625e-16
1.79716e-14
1.40443e-14
-9.27699e-15
2.90375e-15
3.03094e-15
2.94665e-15
-6.8966e-15
-1.40356e-11
-2.71735e-14
-0.01424
-0.0179079
3.25569e-12
-1.57676e-14
1.30473e-14
-4.33784e-07
-1.58299e-10
2.12495e-15
3.43249e-14
1.78448e-14
2.11369e-14
8.05381e-15
1.58103e-11
-1.04956e-14
-1.66289e-06
-1.74621e-15
-2.01208e-15
4.1454e-14
2.176e-12
1.46086e-14
3.61994e-16
9.30847e-12
-3.74891e-07
1.0556e-14
1.14405e-14
1.14447e-14
4.66148e-15
-1.02813e-14
2.66631e-16
3.67322e-14
9.51616e-15
2.55961e-14
-8.05588e-11
-5.66548e-15
-7.2905e-07
-2.57464e-14
-8.43461e-15
4.39496e-15
2.37459e-14
-8.90575e-15
-2.71948e-14
-1.3208e-11
4.09503e-15
-2.06627e-14
2.88554e-15
5.70103e-06
-2.1165e-14
-3.35491e-14
3.23944e-14
6.43168e-15
-1.96479e-15
1.39213e-14
-2.56182e-14
-1.02398e-14
5.13003e-15
-2.6623e-15
6.45321e-12
-1.81465e-17
9.79757e-15
-1.43213e-15
-2.00232e-14
-7.56511e-15
-1.274e-09
-1.28279e-14
1.38914e-14
-2.27557e-15
3.1758e-08
1.01769e-15
2.2174e-14
4.31202e-14
0.000379241
-0.00119846
1.26689e-14
-5.10107e-13
-3.00267e-12
4.03796e-11
7.68597e-08
-2.18977e-05
4.16552e-05
2.10537e-14
1.08239e-14
7.8546e-08
-0.0325796
1.24847e-14
-2.59563e-14
6.85833e-15
3.07747e-14
-2.86265e-14
5.33603e-15
2.46452e-11
-9.00521e-07
0.000470383
-2.83026e-16
-4.59055e-14
-9.89146e-15
1.01133e-15
2.13451e-06
4.13821e-11
-2.28861e-05
-1.96874e-05
0.0107484
-1.72938e-14
-7.71607e-14
1.67055e-14
-1.2399e-10
-1.43186e-14
-3.31012e-14
-2.46671e-14
0.000968228
3.74274e-05
-1.13e-14
9.24349e-10
-1.50773e-14
-3.32034e-05
-6.97806e-16
4.94099e-15
-0.0170139
2.20351e-09
-5.42761e-16
-3.70421e-14
-1.26827e-14
-3.98136e-15
1.37536e-14
-1.26344e-14
-0.00545723
1.31125e-14
7.67675e-15
-1.15712e-14
1.2061e-14
0.000463812
2.73077e-14
-1.0123e-06
-2.22714e-16
4.6262e-14
-1.20292e-09
-9.6671e-11
-2.37686e-16
-1.59955e-13
9.08971e-14
2.55324e-05
1.68178e-14
-3.14809e-05
-1.00257e-14
1.03942e-12
-2.27259e-08
0.00277465
-2.11957e-14
-7.99265e-07
-7.9147e-15
-9.53281e-15
-1.37544e-16
-2.2612e-12
0.000726773
1.77224e-14
8.52328e-16
-2.9527e-14
4.0665e-09
1.62491e-14
2.80431e-14
-9.57738e-07
-2.73695e-14
-1.2745e-14
9.8938e-15
2.96534e-14
0.000614703
3.28548e-14
5.58464e-15
2.75533e-14
-1.89974e-14
1.89572e-14
-1.50122e-15
-1.1015e-16
2.35546e-14
-1.38368e-15
-2.48704e-14
-1.80143e-15
-2.58894e-15
-1.57689e-14
-0.0727885
1.01964e-14
3.87428e-09
-9.60663e-15
2.66908e-15
-2.19213e-11
4.76699e-07
8.84359e-09
-2.5902e-15
1.01154e-09
2.73852e-14
3.37304e-15
-2.07239e-14
-2.76059e-15
-1.73956e-14
-5.3406e-14
3.20018e-16
1.23482e-06
1.84767e-14
-1.52646e-14
-1.10371e-14
-5.2852e-09
-2.05215e-15
2.42176e-13
6.73143e-12
-0.00210704
-2.67229e-14
-0.000323808
0.000250681
1.06493e-14
-1.11131e-14
-5.75969e-06
-4.14145e-09
0.00223931
0.328382
9.9594e-15
-2.02704e-15
2.07101e-06
-0.000254886
-5.03439e-05
-2.89497e-15
0.00191541
1.14003e-14
3.7537e-14
2.11775e-14
1.65748e-14
3.57877e-14
-9.50914e-06
1.69582e-14
1.41134e-14
-1.3931e-14
-2.80621e-14
9.51468e-10
3.45187e-05
-9.62466e-08
-1.16442e-14
2.44845e-14
-1.74134e-14
-1.11265e-10
5.3551e-15
3.13499e-14
-8.00708e-16
-4.2195e-07
1.96196e-16
2.36818e-14
-6.68834e-16
2.26667e-15
8.99712e-15
1.25395e-14
-5.07038e-16
1.79169e-14
1.95561e-05
-1.58797e-14
1.77807e-14
-9.22657e-15
1.29979e-14
-2.85031e-11
-1.09082e-14
-1.49984e-14
-1.25009e-10
1.29018e-14
-2.87426e-15
5.09663e-07
7.38037e-15
-2.1153e-15
0.536963
-4.12992e-14
-2.87776e-11
7.82369e-15
-3.68863e-07
9.73909e-15
-3.72691e-15
2.20164e-14
-6.56192e-15
8.74214e-15
-2.25321e-15
9.42004e-05
-0.0117394
-3.44852e-15
-7.27603e-16
-4.503e-11
-0.00172739
2.75913e-13
-1.56297e-10
3.22383e-14
-1.29558e-14
-1.41061e-14
2.96413e-15
2.3147e-05
-2.00222e-14
1.44416e-14
-1.78681e-14
1.40876e-15
-2.72531e-14
9.43473e-15
-1.01446e-14
-0.000137487
-2.29433e-15
-1.29801e-14
4.7321e-15
-2.15309e-11
-2.35369e-14
-5.08068e-08
1.11728e-15
2.45768e-14
0.0307404
0.000118963
8.81409e-09
-1.57607e-15
-1.57408e-14
-4.49271e-10
-3.75549e-09
2.05316e-14
-3.34344e-12
1.38899e-14
-5.36141e-06
-2.78467e-15
4.04939e-14
-2.92433e-15
-2.1077e-14
-1.89136e-14
1.04846e-14
-5.79635e-10
-7.82875e-15
1.43159e-14
1.74132e-14
7.82217e-15
0.115746
3.11369e-14
-1.78696e-15
1.64533e-13
1.89468e-15
1.68148e-14
-6.4075e-15
4.80881e-05
-5.73493e-15
-3.51271e-08
-1.74042e-15
1.41321e-14
2.12794e-14
-1.4108e-14
2.2649e-14
-9.99806e-15
6.11611e-16
-2.06719e-14
1.53951e-14
-2.48932e-15
1.17579e-14
0.0078751
-1.21278e-14
2.88779e-14
3.63135e-15
-2.58815e-14
-1.32161e-14
-7.17249e-15
-2.40659e-10
1.9937e-18
-0.00422395
1.09837e-09
1.8508e-14
1.26629e-14
-0.000493079
2.76122e-14
1.10163e-14
-7.2527e-08
-0.0365985
-5.01665e-06
-2.47575e-15
0.0141308
3.12683e-14
3.37573e-06
-1.223e-14
-1.88484e-06
-0.00546069
-1.94113e-15
-2.78875e-14
1.68516e-14
1.39649e-12
5.69884e-15
3.52865e-15
4.54603e-09
2.07401e-06
3.20583e-07
2.33117e-14
-2.60226e-14
9.31777e-08
-1.73492e-08
0.000986029
-0.00275231
-1.1115e-13
-1.24568e-14
-0.0093294
1.29895e-15
-7.90268e-16
-2.84107e-14
-3.56605e-14
6.44298e-15
9.82507e-15
-7.15342e-07
1.59216e-15
-1.97688e-14
4.43521e-14
-1.22891e-14
-5.69764e-16
3.67331e-15
-1.04045e-05
8.89549e-15
1.18652e-14
8.6031e-15
-1.46939e-14
-1.95198e-15
-1.03849e-16
-3.26544e-14
1.80703e-15
-3.77115e-10
4.35951e-14
-1.17051e-14
2.33036e-12
-1.22266e-14
-4.80204e-14
-0.00145743
2.18723e-09
3.37947e-14
-1.3436e-14
4.27527e-14
5.68975e-14
2.44861e-15
9.18705e-15
-3.31935e-09
0.00212852
5.01362e-15
2.66452e-14
-1.69243e-14
-1.35362e-14
-4.00398e-14
5.98286e-15
3.04365e-15
-8.88289e-15
-1.1535e-10
2.38586e-08
-7.516e-06
1.47461e-14
1.56561e-14
2.05682e-14
2.01493e-06
6.50565e-12
-1.68553e-17
-6.62432e-14
-2.41701e-14
-1.03784e-14
1.88185e-13
6.59287e-15
1.66544e-11
6.38719e-12
-1.02692e-14
-3.13879e-15
-1.447e-08
2.13023e-14
-0.000270407
-4.33785e-16
1.68033e-14
2.47369e-16
2.3264e-15
0.000318092
1.06034e-14
-2.33776e-12
-6.6341e-16
0.00012215
7.6631e-09
-2.60759e-15
1.70707e-14
-0.00850016
-0.002983
-1.58744e-14
8.26314e-15
0.00140654
-0.00057934
-1.3067e-14
2.25832e-15
4.5284e-14
-1.90945e-16
4.96368e-15
-1.66348e-14
-1.83549e-14
1.50365e-14
-2.34505e-14
1.31096e-14
-0.0031501
1.09293e-14
-2.17853e-15
3.09808e-15
4.10042e-14
-0.00214898
-1.08304e-14
-2.22049e-15
-4.17339e-05
4.36788e-15
-1.26303e-14
1.27279e-15
3.36861e-15
-2.95684e-15
-1.42627e-14
-2.62484e-14
-9.78162e-17
8.32818e-15
-2.34746e-15
-1.84198e-06
4.57901e-15
1.29475e-14
6.22277e-15
6.44129e-15
-5.99982e-15
-0.000874161
-9.55321e-09
-2.69576e-14
3.96728e-15
2.92489e-14
9.08917e-15
-5.91375e-15
1.32312e-14
1.48461e-14
-4.40756e-15
-5.45708e-15
0.0134499
2.71935e-15
5.8238e-12
-4.68445e-15
1.93043e-15
-2.75323e-14
-8.49734e-15
4.03698e-14
-4.15243e-14
-5.67043e-14
-9.99949e-15
3.33899e-16
3.54958e-15
-2.33866e-14
-2.47166e-14
1.94811e-14
1.10183e-14
-1.34681e-09
-2.51843e-06
-1.09864e-14
1.36814e-16
-2.187e-15
1.23883e-10
8.8767e-10
2.29887e-11
-5.74555e-07
3.50602e-15
-0.00345559
3.61695e-14
-8.61123e-16
-1.07188e-14
-1.89928e-10
1.23891e-14
3.86285e-14
-0.000826657
-9.39983e-15
-2.46567e-14
1.84652e-14
-1.65673e-16
-5.16359e-15
2.96359e-14
-0.00240782
-4.77197e-14
-7.88732e-06
-1.20029e-08
-0.00227299
-1.03816e-14
6.2459e-11
2.27319e-14
1.89278e-15
8.29301e-15
-4.51149e-10
1.78724e-15
-8.53953e-15
0.000697514
8.05546e-15
9.63474e-15
2.07018e-15
-2.97143e-14
1.30472e-14
4.45283e-15
1.62361e-14
8.36846e-15
-2.92676e-14
-9.12642e-07
6.01231e-15
8.58519e-06
6.83313e-15
-0.00481137
1.94131e-15
-8.21008e-15
5.05077e-15
6.72911e-05
1.64084e-15
-6.46685e-06
1.48028e-15
-1.50246e-14
-2.34416e-05
-9.62372e-15
-2.10461e-14
-1.0032e-14
1.06591e-14
0.00258313
9.82318e-15
-2.87345e-14
6.38592e-15
-2.76428e-11
-3.01321e-16
-1.5469e-06
1.4245e-14
-1.06533e-14
-1.41993e-15
6.62199e-15
-1.24473e-07
-5.68789e-15
2.37657e-14
-2.64169e-11
-7.38729e-14
2.47155e-14
-2.28099e-14
0.0336012
4.60706e-14
-1.20697e-14
6.36885e-15
0.000685734
3.25918e-15
-1.14633e-14
7.25844e-15
0.000537147
-4.86361e-16
-5.23167e-10
-2.45532e-14
1.31313e-15
1.72128e-11
-0.00481954
-2.06434e-05
0.00198606
0.000797127
-4.51359e-14
1.33774e-14
1.18059e-14
-9.07598e-15
9.08646e-16
0.00142786
-6.93024e-15
2.69168e-14
6.27573e-16
1.53882e-15
-8.81645e-15
1.23806e-14
0.000974877
-2.61032e-15
-5.37478e-06
2.06279e-16
-4.16831e-14
1.11198e-14
-5.27563e-14
1.10985e-14
1.14557e-14
-0.00413727
-0.00211069
-2.27657e-14
-3.8801e-16
2.24469e-14
1.53835e-14
-1.76519e-15
2.75731e-15
3.04005e-11
4.59586e-12
1.9352e-15
0.000680634
1.97201e-15
-1.50896e-14
0.00192136
1.13131e-14
-0.00112568
1.39485e-14
0.00275676
-0.000310315
-1.28708e-14
2.62526e-14
0.00133019
1.8617e-14
-1.44856e-15
0.000233152
1.2397e-14
2.47833e-14
-1.163e-15
7.06728e-16
-5.09696e-05
2.74291e-14
-2.18848e-14
2.64408e-14
9.12166e-16
-0.00652617
-1.48212e-14
-1.08287e-14
1.54333e-14
-1.31104e-09
-0.0161717
-4.53036e-14
-3.21221e-14
1.545e-15
4.08216e-15
-5.81961e-08
-1.45225e-15
7.8783e-15
-0.00725502
7.42172e-12
-8.44699e-17
1.13045e-15
-3.05578e-14
8.61037e-16
-7.15438e-06
-9.14054e-10
-1.41485e-14
-1.40763e-14
5.8404e-07
-2.46339e-16
-1.46442e-07
0.0109849
-4.38119e-15
-8.88804e-15
1.47331e-14
-1.8161e-14
1.60695e-15
-6.68042e-10
-1.09358e-14
-4.22618e-14
-1.33218e-08
-8.39237e-13
-2.56635e-15
0.00129162
1.52921e-14
-2.2797e-14
2.88654e-15
1.40497e-14
-1.92999e-08
1.66717e-14
1.71681e-14
-1.10859e-14
-0.00216651
-1.14562e-14
4.84752e-15
3.70577e-10
6.4729e-14
2.26609e-14
-1.28722e-14
-0.169483
7.21303e-07
2.38615e-14
6.38447e-15
2.11697e-07
4.45557e-15
1.73491e-15
-2.19125e-12
1.86747e-15
1.1056e-14
-1.20633e-14
0.00152137
-2.72702e-15
-2.24813e-15
-7.39812e-15
-1.80348e-08
9.39742e-15
1.36681e-12
1.7169e-14
-4.77045e-14
6.74796e-06
-1.0972e-15
-1.27319e-15
-1.09364e-15
-3.33835e-14
1.27368e-14
2.22321e-15
2.3597e-10
1.04041e-14
-1.62868e-12
1.70622e-14
-1.14287e-15
3.89897e-16
-0.0126447
-4.0184e-14
-8.63783e-08
6.20868e-05
-9.17114e-15
6.65341e-08
1.61892e-14
-9.79974e-15
1.1629e-14
-1.56551e-14
-1.33005e-14
-1.1801e-14
-2.46397e-14
-2.66609e-12
1.27727e-14
1.04638e-05
-4.87324e-14
2.01582e-14
3.08179e-15
2.72395e-15
1.35228e-14
-2.77083e-14
0.000653806
1.26842e-15
1.17175e-14
-5.19337e-16
5.27066e-14
-4.50989e-15
-6.78741e-15
-5.45413e-11
-1.40595e-08
9.17569e-15
7.73924e-16
3.72004e-15
2.02652e-14
-2.66601e-12
-0.000954751
0.000133889
-6.30224e-05