/*--------------------------------*- C++ -*----------------------------------*\
| =========                 |                                                 |
| \\      /  F ield         | OpenFOAM: The Open Source CFD Toolbox           |
|  \\    /   O peration     | Version:  v2012                                 |
|   \\  /    A nd           | Website:  www.openfoam.com                      |
|    \\/     M anipulation  |                                                 |
\*---------------------------------------------------------------------------*/
FoamFile
{
    version     2.0;
    format      ascii;
    class       volScalarField;
    location    "50";
    object      nut;
}
// * * * * * * * * * * * * * * * * * * * * * * * * * * * * * * * * * * * * * //

dimensions      [0 2 -1 0 0 0 0];


internalField   nonuniform List<scalar> 
13851
(
0.000875427
0.00189939
0.00157286
0.00403628
0.00672175
0.00138182
0.00342117
0.00676253
0.01294
0.00673054
0.000341865
0.00672373
0.00370053
0.00475165
0.00103761
0.000920946
0.00224961
0.00466009
0.000393845
0.0011977
0.0011083
0.000710565
0.000766872
0.00672551
0.00153299
0.00153055
0.00106831
8.7144e-05
0.0124396
0.0067371
0.00881827
0.0038466
0.00137587
0.0125506
0.000389918
0.0122439
0.0067257
0.000513268
0.0124644
0.00366734
0.0116191
0.0126784
0.000187784
0.000132571
0.0130491
0.00520578
0.00673291
0.00125909
0.00156678
0.00214503
0.00347901
0.00226678
0.000974258
0.00161608
0.00468159
0.00236512
0.00129504
0.012844
0.000369153
0.0053184
0.0067237
0.000833536
0.00672499
0.000865408
6.17017e-05
4.86969e-05
0.00344983
0.000121198
0.00375349
0.00590921
0.0088942
0.00100355
0.00345858
0.0040723
0.0015466
0.000986448
0.00377278
0.0067313
0.00131053
0.00672709
0.00255183
0.000320522
0.000493225
0.00551162
0.00562725
0.00907656
0.000740884
0.00291574
0.00653189
0.00870381
0.00197844
0.00295884
0.000308945
0.00855807
0.012638
7.98751e-05
0.00645265
0.000994024
0.00396896
0.000213369
0.000883105
0.000171068
0.000145233
0.00305992
0.00561115
0.000691531
0.00600687
0.00923145
0.00355926
0.00435674
0.000648132
0.00635973
0.000413815
0.000519766
0.00168757
0.00214742
0.00672542
0.0067332
0.00350671
0.00607421
6.40086e-05
0.00577386
0.00266392
0.0114425
0.000472538
4.84027e-05
0.00614397
0.000271315
0.0131986
0.00115041
0.000960865
0.000845795
0.000428208
0.0128567
0.000442486
0.01262
7.79831e-05
0.00904111
0.000196814
0.00126106
0.000348466
0.00204138
0.00518594
6.13065e-05
0.0020037
0.00114565
0.0067301
0.00854983
0.0108093
0.000194248
0.00145508
0.000339998
0.000471577
0.0004563
0.00192975
0.00446569
0.00672298
0.0125749
0.00149466
0.00238762
0.006725
0.012383
0.000717061
0.00124811
0.00505737
0.0135231
0.0135849
0.00536382
0.000491711
0.0072936
0.00672351
0.00672452
0.000765356
0.0067223
0.0128112
0.000803324
0.00135694
0.00672468
0.00163424
0.00133341
0.00041742
9.87949e-05
0.000575652
0.00140558
0.000214005
0.0111
0.00157699
0.000241335
0.0024685
0.00674148
0.000974846
0.00123578
0.0028372
0.00109422
0.000772493
0.000931148
0.00159676
0.00375569
0.00302356
7.63062e-05
0.000382031
0.0128356
0.0127779
0.00116316
7.6787e-05
0.0126652
0.000953585
0.00161884
0.0130837
0.00164811
0.00107662
0.00282342
0.000411612
0.00672503
0.000440259
0.00119255
0.00356337
0.000847726
0.0037346
5.20954e-05
0.00672424
0.00130557
0.00383557
0.0127448
0.000328223
0.00213048
0.00672578
8.91532e-05
0.00672508
0.000464768
0.00292628
0.000283536
0.00143066
0.00672362
0.0128704
0.00673826
0.000569425
0.012805
0.000197009
0.00672521
0.000137263
0.00576606
0.0129651
0.000983768
0.00100709
5.52676e-05
0.000784591
0.00180887
7.39411e-05
0.000431754
0.00353511
0.000593026
0.00673624
0.00122
0.000860212
0.0121807
0.00561431
0.00673955
5.21079e-05
0.00673091
0.00123775
0.000517074
0.00133787
0.00113032
0.000415093
0.00426757
0.00016505
0.00115878
0.000353956
0.00672503
0.00320518
0.000348858
0.0135807
0.00178311
0.0013513
0.00561932
0.00075315
0.000507642
0.00187711
0.000908671
0.0136205
0.0038305
0.00134992
0.00142318
0.00136038
0.00642188
0.00672275
0.00178212
0.000483085
0.00674106
0.00672496
0.00672496
0.00672353
0.00138912
0.00672298
0.0131877
0.000975399
0.00446021
0.0121177
0.0107792
0.00276224
0.00125641
0.00360392
0.00130447
0.0017589
0.0012085
0.00497107
0.00839725
0.000738212
0.00672077
0.00696387
0.00672373
0.000698565
0.00564685
5.8136e-05
0.00239593
0.000127012
0.000239591
0.0100563
0.000317638
0.000120861
0.0128653
0.0126427
0.000383103
0.00255343
0.00458583
0.000380365
2.38421e-05
2.5755e-05
0.00130013
0.000851722
0.000412501
0.00371661
0.000127784
0.00671897
0.00672356
0.00104405
0.0096173
4.88697e-05
0.00619377
0.0125759
0.000388509
0.000818131
0.00342588
0.00367032
0.000425649
0.000826536
0.00091531
0.00140839
0.0116074
0.00237863
0.000566905
0.00155779
0.00117971
0.000324552
0.00673187
0.00366031
0.000265172
0.000213277
0.000691743
0.000480028
0.0116952
0.00138726
0.0128713
0.00105302
0.00675131
0.000273475
0.00128657
0.00564251
0.000801434
0.00109888
0.000552339
0.00108711
0.000244447
0.00477937
0.00224764
0.000783582
0.000601448
0.00103405
0.00529993
0.00102445
0.0126325
0.00152183
0.00188061
0.000570682
0.000239013
0.0049052
0.00158898
0.00032155
0.00196418
0.00513881
0.00112528
0.0077389
0.00343577
0.000900633
0.0022785
0.0013071
0.000237418
0.001965
0.00795846
0.00101963
0.00112219
4.0914e-05
0.000533998
0.000686803
0.00399077
0.00408389
0.000149358
0.00479447
0.000280749
0.000891378
0.0011667
0.00623687
0.000231573
0.00792616
0.00130704
0.00158456
0.000472621
0.000758038
0.00227814
0.00673552
0.00269802
0.000279376
0.000835329
0.000303643
0.00103307
0.0037655
0.00672238
0.00329674
0.000782529
0.00479338
0.00206899
0.00107098
0.00672429
0.00700503
0.00073201
0.00135519
0.00219638
0.00216679
0.00305873
0.000411348
0.00278341
0.00303625
0.00851493
0.00873446
0.000918332
0.000856465
0.00672441
0.00672267
0.00129797
0.000649063
0.00171924
0.00527614
0.0022551
0.000180981
0.0020349
0.00814972
0.00672337
0.00172524
0.0130884
0.000280272
0.00671909
0.00672362
0.00203949
0.00373989
0.000194273
0.00998843
0.00133963
3.45215e-05
0.00176481
0.00672445
0.0134152
0.000823567
0.000321393
0.0039029
0.0122916
0.000193858
0.000102653
0.00369883
0.000783114
0.000253115
0.00139189
0.0130873
0.000770029
0.000838325
0.000872052
0.000379859
0.0042975
0.0122383
0.00177141
0.00165285
0.000893382
0.00113609
0.000251985
0.00067876
0.00672149
0.00211517
0.0133548
0.00692872
0.00103105
0.00897565
0.0070415
0.00056832
0.000451957
0.00672428
0.000182538
0.00669503
0.0067446
0.000344481
0.0128981
0.00212129
0.00155226
0.000139317
0.00085734
0.00639363
0.00756466
0.00673879
0.0131651
0.000168173
0.00672751
0.00238933
0.000348927
0.000567584
0.00674053
0.00258455
0.000650182
0.00677183
0.0117297
0.000421813
0.000992144
0.00121649
0.00815269
0.0055009
0.00677636
0.000362457
0.00313843
0.0061571
0.00596106
0.0125311
0.000920381
0.00133491
0.00666477
0.0017096
0.0131279
0.012707
0.00678824
0.00418863
0.00543221
0.00368572
0.00103157
0.00320135
0.00673594
0.000863636
0.0117457
0.000272127
0.0116802
0.00212326
0.00640453
0.013208
0.00672382
0.000305297
0.00189292
0.00146693
0.00109407
0.0124772
0.00549691
0.00137868
0.00243203
0.00250225
0.000538946
0.0127771
0.00702039
0.00218716
0.00539063
0.000125233
0.0118546
0.000830348
0.00123821
0.00044075
0.00306291
0.0013173
0.00318668
0.00860415
8.19984e-05
0.0132767
0.00123253
0.0120813
0.00238379
0.000532748
0.00114938
0.00672427
0.000796725
0.00892095
0.000391614
0.0012778
0.00274932
1.17566e-05
0.000167071
0.00186528
0.00403085
0.00672294
0.000400976
0.000770974
0.00672361
0.01281
0.00672275
0.00127018
0.000960868
0.00114346
0.00296547
0.00420828
0.000399878
0.00396574
0.00079159
0.0124661
0.000777907
0.00672553
0.00622689
0.000665036
0.00210652
0.000398974
0.00168045
0.000229559
0.000355068
0.00672385
0.00397026
0.0067255
0.00129724
0.00335524
0.0132927
0.000306065
0.00124676
0.000131486
0.000161153
0.0103889
0.00596876
0.00849097
0.000417021
0.00110079
0.00155896
0.000389348
0.00675409
0.00029182
0.00421446
0.0120054
0.00407503
0.0023997
5.28398e-05
0.00672952
0.00672579
0.00672554
0.00170905
0.00252196
0.00608188
0.00227382
0.000669597
0.00196878
0.0050767
0.000198465
0.000513557
0.000227995
0.00673028
0.00178289
0.000158022
0.00128675
0.00213846
0.00127315
0.000185402
0.00044894
0.00124545
0.000880952
0.00113934
0.00010381
0.000136959
0.000409126
0.00947833
0.00187296
0.000922982
0.00819845
0.000303036
0.00687037
0.00115881
0.00537157
0.00154311
0.000434944
0.000838542
0.00672676
0.00672596
0.00129724
0.00371873
0.0017719
0.0128551
0.00672573
0.00701401
7.17209e-05
0.00319154
0.000266517
0.000768102
0.00188798
0.00472976
0.000295829
0.000252072
0.000777217
0.00256062
8.27766e-05
0.00111187
0.00124987
0.000958075
0.000484256
0.00430349
0.00672529
0.00072926
0.00596868
0.0128648
0.00672021
0.00022225
0.0136329
0.00033593
0.0128106
0.00502987
0.00121745
0.000219447
0.000369483
0.00672372
0.0039437
0.00673005
0.0059835
0.00672247
0.000514241
0.000300458
0.000133188
0.000216723
0.00104417
0.012874
0.00672632
0.00454152
0.000486047
0.00672612
0.00672345
0.0134837
0.00103672
0.0053569
0.00889908
0.000982927
0.000856809
0.00676927
0.012876
0.000856533
0.00204594
0.000496168
0.00672371
0.00123226
0.00557316
0.00170918
0.00429911
0.000801031
0.000796435
0.000299927
0.0124642
0.000488626
0.00101928
0.0125067
0.00672836
0.0124069
0.00672398
0.00247829
0.000827188
0.0011113
0.00173441
0.00031925
0.000775496
0.00672469
0.00672633
0.000536494
0.00227176
0.00672493
0.00191693
0.000257788
0.00672084
0.00015123
0.000160056
0.00420132
0.000339302
0.00739725
0.00022347
0.00672361
0.00030144
0.00672597
0.00197045
0.00797888
0.0115122
0.00902468
0.0124525
0.00260106
0.00482173
9.14913e-05
0.00161269
0.00607382
0.000760826
0.00118279
0.00578695
0.00123162
0.00118211
0.0041776
0.00673757
0.000215464
0.000832109
0.00218372
0.00672525
0.0016906
0.000335176
0.0128136
0.00250041
0.00672301
0.00289359
0.00114662
0.00108584
0.00672344
0.0128943
0.00676325
0.00407372
0.00672624
0.000200682
0.00112655
0.000115434
0.000946436
0.00378727
0.00194808
0.00672074
0.000296852
0.00140503
0.00736187
0.00243357
0.00203772
0.0134985
0.000885266
0.00672042
0.00284643
0.00924681
0.00129104
0.00178492
0.00332328
0.00307745
0.00447431
0.000454624
0.00672465
0.00672068
0.00440696
0.0012885
0.00672381
0.00161254
0.0129944
5.06868e-05
0.00774688
0.00673695
0.00921426
0.00672511
0.00672082
0.00214165
0.00671564
0.00672503
0.00748739
0.00829883
0.00330735
0.0067227
0.000949303
0.00652368
0.00348912
0.000326415
0.00642736
0.0128772
0.00183015
0.00142614
0.0067243
0.00108401
0.000142321
0.00534218
0.00672419
0.0002293
0.00459529
0.000903456
0.000680217
0.00179239
0.00672469
0.000602363
0.00251914
0.00281814
0.00136905
0.000563196
0.00072047
0.00672477
0.00302348
0.00318536
0.00641156
0.000499864
0.00542408
0.000957225
5.73123e-05
0.00160451
0.000759761
0.000947467
0.00671796
0.00807412
0.00122551
0.00672034
0.00239185
0.00157534
0.0128596
0.000517812
0.00672945
0.000773372
0.00492461
0.00140452
0.000615022
0.000920253
0.00134168
0.0121076
0.00672295
0.00092426
0.000527337
0.000992076
4.317e-05
0.00140184
0.000358376
0.0012619
0.0128163
0.00448997
0.00600238
0.00105778
0.00919751
0.00292791
0.00406816
0.000969791
0.00401606
0.00222
0.00672573
0.00153539
0.00672402
0.0131691
0.000499866
0.000389069
0.000492826
0.000947993
0.00673549
0.0023505
0.000726733
0.00294768
0.000723953
0.0100964
0.000363457
0.00125255
0.000296836
0.00739834
0.00123654
0.0102511
0.00672699
0.000459227
0.00135018
0.00449889
0.000317133
0.00672468
0.00672912
0.000126943
0.00372707
0.000248325
0.00206255
0.000688839
0.000380744
0.000583051
0.000428818
0.00409056
0.0126387
0.000818239
0.00672492
0.00055136
0.00147541
0.0105668
0.00116974
0.000140144
0.000283766
0.00155133
0.000213196
0.00292083
0.0127794
0.000362769
0.00636333
0.00057018
0.00672582
0.00678859
0.000706939
0.00559875
0.00404958
0.000260834
0.0067241
0.00106921
0.000220623
0.0057952
0.00959636
0.00329896
0.00123089
0.00130726
0.0126091
0.000727893
0.00672249
0.00375382
0.000612497
0.00580079
0.00673489
0.0018279
0.00152945
0.0134863
0.00753718
0.00159377
0.0135972
0.00157084
0.00473167
0.000131048
0.00672489
0.000194148
0.00626701
0.00672112
0.00167487
0.00229432
0.0136111
0.00420457
0.000958828
0.00516865
0.00844255
0.000317362
0.00411833
0.0025837
0.000405122
0.00679038
0.00677155
0.000446271
0.00114538
0.000578304
0.00673025
0.00063101
0.000802078
0.00060951
0.000581986
0.00677293
0.00673525
0.00227201
0.000697523
0.00166885
0.0130948
0.00107
0.00672322
0.00599542
0.00673685
0.000939029
0.00123458
0.011958
0.013466
0.000541096
0.00672424
9.94252e-05
0.00420487
0.00123592
0.00788969
0.000378952
0.0052342
0.0127504
0.00758399
0.00140089
0.00138241
0.0107701
0.00122675
0.000400752
9.10698e-05
0.00015838
0.00226041
6.16586e-05
0.00476759
0.00818017
0.00130585
0.0067271
0.00101043
0.00024475
0.000406155
0.00109556
0.00672273
0.00144621
0.00100921
0.00175774
2.86633e-05
0.00672347
0.0100742
0.00426827
0.0041827
0.0013608
0.00175912
0.00672424
0.0114123
0.00102104
0.0127742
0.0092656
0.00672421
0.000934261
0.000945402
0.00207745
0.000968947
0.00141959
0.00672533
0.00141392
0.000599099
0.00438226
0.0010853
0.00321748
0.000962195
0.00120797
0.000114133
0.000880783
0.000625892
0.00673697
0.00061117
0.0102875
0.000525164
0.00837924
0.00930757
0.013521
0.00853494
0.0061449
0.00673104
0.00452056
0.000863411
0.00124638
0.000690021
0.00196698
0.00390784
0.00672115
0.00540661
0.000681702
0.00673057
0.00180138
0.00160469
0.00771518
0.00125331
0.00672531
0.0067249
0.00387776
0.00672289
0.000223947
0.00101734
0.000306468
0.00616112
0.00672789
0.00653914
0.0132438
0.0133355
0.00302858
0.00522846
0.000158272
0.00665683
0.00672529
0.000158191
0.00127321
0.00672567
0.00222698
0.00520984
0.00222891
0.000925834
0.00054578
0.00361135
0.0038156
0.0005266
0.00121184
0.00672586
0.00774696
0.00432343
0.00077191
0.00672352
0.00337421
0.00108549
0.000142327
0.00257375
0.000715771
0.00896894
0.000660051
0.012751
0.00501472
0.00420938
0.000849056
0.00672594
0.000996409
0.00230109
0.000144489
0.00226981
0.00477645
0.00672148
0.00534337
0.00204331
0.000363679
0.00107508
0.00293157
0.00672443
8.87126e-05
0.00675493
0.00772149
0.00672347
0.00100918
0.00198943
0.00687578
0.000143041
0.00672357
0.00119183
0.00672248
0.00212224
0.000266182
0.00439581
0.00153947
0.00672585
0.00127614
7.23012e-05
0.00182333
0.000670492
0.000261664
0.000452246
0.00112366
0.00145944
0.00101285
0.00596524
0.00388098
0.00223539
0.0010224
0.00672236
0.000800925
0.00672721
0.00102184
0.00672465
0.000193612
0.000836032
0.00673391
0.00272068
0.00144586
0.00672337
0.00126193
0.0067192
0.000169001
0.00984377
0.00103072
0.00457248
0.00672133
0.00672571
0.000177835
0.00672474
0.00672504
0.00200095
0.00109516
0.00105364
0.000225928
0.00291524
0.000448221
0.00626378
0.00672416
0.00672443
0.00672605
0.000246909
0.00678483
0.000833569
0.000848031
0.00672695
0.00672233
0.0121424
0.00672514
0.000987064
0.00253331
0.0132403
0.000576968
0.000124707
2.07691e-05
0.000461103
3.9743e-05
0.00257249
0.000344731
0.000815449
0.00671703
0.00513486
0.00115142
0.00111323
0.00456235
0.000362904
0.00672318
0.00169865
0.000498945
0.00351709
0.000138294
0.00290005
0.000156792
0.00763637
0.00431971
0.00672383
0.00185868
7.6881e-05
0.00367576
0.000542665
2.10322e-05
0.0134453
0.00153965
0.00135796
0.00198869
0.000274121
0.00672618
0.000254929
0.000322724
0.00242659
0.00679348
0.00774741
0.000602749
0.000878587
0.0117137
0.00134356
0.00184987
0.00672308
0.0033602
0.00675239
0.000241702
0.00446412
0.000405209
0.0041107
0.00930962
0.00672441
0.000310919
0.000552669
0.00270127
0.00103774
0.00672463
0.00985344
0.00854464
0.00677599
0.00100956
0.00120968
0.000357149
0.000567111
0.00116767
0.000913785
0.00171412
0.000342595
0.00127985
0.00672412
0.00173951
7.91448e-05
0.00867597
0.00672476
0.000379902
0.000579119
0.00146208
0.00672589
0.00831056
0.0018164
0.00117444
0.00645049
0.000434538
0.000524573
0.000139814
0.00672367
0.00193435
0.000373765
0.000242484
0.000291321
0.0067234
0.00138692
0.00162034
0.000328755
0.00672394
0.000271189
0.000437308
0.000317382
0.0133336
0.00176077
0.00368784
0.000359047
0.00557725
0.000318205
0.00672486
0.000862655
0.00194795
0.00103979
0.000462884
0.00163401
0.000242012
0.000372145
0.000906858
0.00112046
0.00672933
8.61286e-05
0.00188062
0.000445515
0.000233193
0.000880906
0.000576473
0.00672749
0.0054795
0.000270628
0.00300723
0.00175343
0.00105601
0.00493298
0.000324153
0.00213149
0.0129342
0.000755108
0.000324093
0.000640731
0.000638161
0.00672725
3.10557e-05
0.00675056
0.000636336
0.000765154
0.0113259
0.000394393
0.000197418
0.00672394
0.00354142
0.0067275
0.00135079
0.000530338
0.00574028
0.00811209
0.00319541
0.00672047
0.000476645
0.000159406
0.00672746
0.00855357
0.00672642
0.00128349
0.00165656
0.0022463
0.000718572
0.000700256
0.00467074
0.0005884
0.00041736
0.00107777
0.000420466
0.00672744
0.00524594
0.0109219
0.0067206
0.000838804
0.000572635
0.000433145
0.00591458
0.00672066
0.0020166
0.000527894
0.0104979
0.00672541
0.00672367
0.000519538
0.00588629
0.00672049
0.000416921
0.000445754
0.000264197
0.000585259
0.000603394
0.00107746
0.006726
4.42531e-05
0.00672412
0.00465033
0.000855701
0.00673
0.00217372
0.00034516
0.00672294
0.00370967
0.00091023
0.0113808
0.00337995
0.00510963
0.00672404
0.00672519
0.000662053
0.00672407
0.0067858
0.0082384
0.00672599
0.00101108
0.00138598
0.0108361
0.000576764
0.00679085
0.00147469
0.00047183
0.00672255
0.00441666
0.00672426
0.00280562
0.00672425
0.000383184
0.00180409
0.00674928
0.00675739
0.000909708
0.00180176
0.000781475
0.000116254
0.000481031
0.0012477
0.013202
0.000209224
0.00191964
0.00156677
0.000238042
0.000456202
0.00096476
0.00166802
0.00790866
0.00196362
0.00375045
0.00178397
0.00416022
0.000665538
0.000245292
0.00677145
0.00444624
0.000118792
0.00672523
0.00235454
0.00672446
0.00673194
0.00262894
0.00400781
0.00350098
0.00672036
0.00175809
0.00672269
0.00015315
0.00202548
0.00184692
0.000211293
0.00291636
0.00942926
0.000734692
0.00672494
0.00109247
0.00675622
0.000451339
0.00451037
0.0118261
0.00129106
0.000921523
6.79973e-05
0.00868298
0.000845759
0.000323142
0.000361178
0.00029666
0.00379021
0.00215843
0.000114908
0.000608607
0.00376631
0.00674309
0.0058023
0.00304623
7.2816e-05
0.00696994
0.000563478
0.00484862
0.000845454
0.00107852
0.000832738
0.00926736
0.000856746
0.00672247
0.000303097
0.000506804
0.00153487
0.00672771
0.00672277
0.0127328
0.00672546
0.000668922
0.0128063
0.000541186
0.0060316
0.000341621
0.000975732
0.00627316
0.00672174
0.00602896
0.00672361
0.000726049
0.00283853
0.00348023
0.0012367
0.013459
0.00609374
0.00672412
0.00352014
0.00458043
0.00305115
0.00343557
0.00921446
0.00638925
0.000739792
0.00672337
0.00780277
0.0127214
0.000346485
8.3688e-05
0.000352782
0.00424388
0.00672375
0.0117353
0.00672237
0.00137918
0.00675175
0.0018229
0.00672397
0.0059384
0.00672527
0.00126671
0.00675391
0.000136355
0.00017705
0.00675107
0.000268401
0.00887921
0.00166045
0.00676133
0.00441875
0.00021259
0.000703943
0.000957813
0.000591954
0.000464829
0.00511104
0.00177256
0.000428736
0.00298771
0.00693621
0.00529839
0.00143347
0.000817946
0.00037313
0.000558995
0.0135122
0.00677018
0.006748
0.000394344
0.00845045
0.000381676
0.000338421
0.000785851
0.00672571
0.00829675
0.00871898
0.00691532
0.0067241
0.00603704
0.00762095
0.000215848
5.92644e-05
0.0113168
0.00167532
0.000789389
0.000354836
0.000531575
0.0056885
0.000147471
0.00104823
0.00672881
0.00743333
0.00672405
0.000778983
0.00110548
0.000548048
9.15753e-05
0.000288386
0.00217872
0.00123712
0.000426612
0.000312773
0.0126292
0.00064374
0.00150292
0.000768274
0.000524464
0.000181445
0.00672238
0.00058971
0.000145608
0.000275133
0.00431517
0.000364194
0.00101195
0.000317227
0.0086094
0.000266181
0.000878909
0.000183348
0.00719892
0.00251156
0.00161132
0.0064982
0.000366471
0.00136212
0.00148845
0.00672403
0.000232463
0.00209433
0.0125592
0.000385794
0.00152857
0.00672452
7.32616e-05
0.000586782
0.000848886
0.00510178
0.00674361
0.00672597
0.00046098
0.00672414
0.00154437
0.00139807
0.0018253
0.000602992
0.00673686
0.000656152
0.00166848
0.00128448
0.000139859
0.00672567
0.00672089
0.00164174
0.00672481
3.78933e-05
0.000211227
0.000286988
0.00128057
0.00119256
0.0011234
7.47454e-05
0.00130661
0.00214434
0.00672418
0.00378447
0.00254845
0.00492009
0.00153992
0.00658783
0.00672451
0.000286715
0.00662774
0.00101817
0.00155474
0.000126807
0.00672666
0.000671118
0.000197231
0.0108101
0.00672583
0.000292487
2.26484e-05
0.000520563
0.000901851
0.00177972
0.00226798
0.000238068
0.000899451
0.002832
0.00110543
0.000797893
0.00672468
0.00597911
0.000530977
0.00672429
0.00263557
0.000338349
0.00672582
5.92662e-05
0.00669684
0.0124164
0.00665605
0.00386331
0.00889566
0.00991077
0.00251267
0.00672343
0.00891669
0.00674661
0.00675371
0.00672608
0.000182971
0.0117729
0.00439567
0.000474272
0.00451147
0.00179526
0.000277613
0.00520608
0.00672098
0.00481694
0.012283
0.00672397
0.0067237
0.00819737
0.00148757
0.0032864
0.00672704
0.00638049
0.0101655
0.0046281
0.00118269
0.0067255
0.0113738
0.000118409
0.00325998
0.002476
0.00256744
0.00474302
0.00660504
0.00406834
0.00672533
0.0067261
0.0130525
0.00499306
0.000151442
0.00060445
0.00282712
0.00305881
0.000409805
0.000715421
0.000583482
0.00824751
0.0111758
0.00671987
0.00178806
0.00153802
0.000789603
0.0131602
0.00672883
0.00464902
0.0004804
0.00170416
0.00128786
0.00671997
0.000348113
0.00064428
0.00367829
0.00672424
0.000432625
0.00210904
0.00178876
0.0018672
0.0134802
0.000175198
0.000161756
0.00105179
0.00476938
0.00147448
0.00148674
5.04385e-05
0.0136207
0.00895628
0.00672289
0.00573518
0.000105934
0.0127222
0.0026249
0.000682339
0.000681833
0.00321873
0.00617849
0.00672463
0.000965452
0.0085673
0.012545
0.000337859
0.0127755
0.0006981
0.000816112
0.00675099
0.0107786
0.000519937
0.00226406
0.0067523
0.00747428
0.00673406
0.00672471
0.00108981
0.000376879
0.000508609
0.0043156
0.00944437
0.00177039
0.00623758
0.00060825
0.00785626
0.000104638
0.00445192
0.0114141
0.00110271
0.00186626
0.00184561
0.00672108
0.000482105
0.00672467
0.000316923
0.000166273
0.00213456
0.00672961
0.000335612
0.00112278
0.00675301
0.00503755
0.000102415
0.000465167
0.00677269
0.000445006
0.00672357
0.00022769
0.00143966
0.000158774
0.000176774
0.008774
0.000225714
0.0127892
0.00038423
0.000799557
0.00673266
0.00699824
0.000104664
0.000412482
0.000122668
0.00672505
0.00468919
0.0003095
0.000453509
0.000890072
0.00933903
0.0096156
0.000418662
0.00685892
0.000533565
0.00033235
0.00672453
0.00360155
0.00672964
0.00130769
0.000634833
0.000374926
0.012332
0.00669554
0.00672206
0.00161845
0.000698451
0.00139239
0.00674185
0.0128496
0.00136417
0.00182874
0.00228069
0.00416513
0.000432786
0.0075277
0.000235076
0.00100441
0.000363823
0.00672475
0.00150814
0.000705802
0.000417479
0.00257263
0.00671942
0.0031344
0.00930095
0.0120628
0.00495123
0.000469321
0.000721808
0.00371659
0.00672234
0.00299442
0.0128076
4.85859e-05
0.000467067
0.00232903
0.00200022
0.0081102
0.000261449
0.000943579
0.00223437
0.000964691
0.00673312
0.000214314
0.000367269
0.00576738
0.0109838
0.0114699
0.0129847
0.010591
0.00789258
0.00741565
0.00842282
0.000904849
0.00678767
0.00642909
0.00814675
0.00176519
0.00304231
0.00115958
0.00519224
0.00604687
0.00341257
0.0113011
0.00107376
0.00672469
0.000870489
0.00106602
0.000620986
0.00828124
0.000301736
0.000842927
0.00671935
0.0134258
0.00202418
0.000311435
0.00167678
0.000857026
0.0020143
0.00672845
0.000731654
0.000717399
0.00087704
0.00152368
0.00121701
0.000755803
0.000762084
0.00800323
0.000306927
0.00152299
0.0105656
0.000719366
0.00672375
3.7649e-05
5.53634e-05
0.00573801
0.000661353
0.00341102
0.00112069
0.0007544
0.000406254
0.00672153
0.000314456
0.00136145
0.00134823
0.000164285
0.00672472
0.00165541
0.00929207
0.012464
0.0127928
0.000726717
0.00115539
0.00672972
0.0054814
0.00110431
0.00674788
0.00930853
0.00673276
0.00672598
0.00673196
0.0113128
0.000464706
0.00190662
0.00128135
0.000587914
0.000287473
0.000990038
0.000296449
0.00109684
0.000695079
0.00442691
0.00152468
0.00893815
0.000576167
0.0127939
0.000974269
0.00671935
0.0067308
0.0011516
0.000933763
0.00672228
0.000221526
0.000918151
0.000459503
0.00842689
0.00300796
0.00537125
0.00672595
0.00014379
0.000461051
0.000564628
0.00672913
0.000358253
0.00097515
0.00776826
4.28533e-05
0.000414102
0.00672565
0.0122667
0.00037187
0.00741926
0.00778043
0.000947807
0.000820739
0.000406257
0.00743487
0.000342761
0.012326
0.000463645
0.00303257
0.000573056
0.00571774
0.0071947
0.000649476
0.000597009
0.000844536
0.012905
0.00413212
0.00470666
0.0094245
0.000638746
0.00771985
0.000277149
0.00672631
0.00073312
0.00107192
0.000225968
0.00480572
0.000467353
0.000303008
0.000988108
0.00672531
0.00504232
0.000322761
0.00161816
0.000204928
0.00463012
0.00346704
0.000267177
0.00224621
0.0030912
0.00672369
0.000544862
0.000430382
0.00141072
0.00071513
0.000566365
0.000498188
0.00328657
0.000201556
0.000956329
0.000886096
7.94476e-05
0.0020619
0.000242043
0.00016684
0.00648635
0.00114115
0.00621416
0.00962199
0.00354279
9.71094e-05
0.00741758
0.00516294
0.00112945
7.31082e-05
0.00902292
0.000531353
0.00765674
0.000329727
0.00470444
0.00141872
0.00672788
0.0016145
0.000582078
0.00146776
5.49576e-05
0.000819265
0.000724311
0.0104383
0.0123072
0.00305257
0.0110172
0.00582232
0.00189733
0.0115525
0.00672443
0.00672135
0.00911929
0.00292109
0.00672518
0.000760806
0.0130949
0.000413756
0.00172136
0.0103221
0.00672222
0.0122198
0.00921084
0.00672379
0.000699087
0.00036399
0.00988559
0.0094219
0.00972848
0.00842597
0.0067283
0.00111132
0.000634043
0.00131093
0.00672575
0.000769596
0.00672817
0.0102304
0.000761726
0.000279339
0.000887052
0.0106664
0.000774607
0.000974844
9.33236e-05
0.00247474
0.000398526
0.00196778
0.00672716
0.00318508
0.000370765
0.00674474
0.00909347
0.0062712
0.00399038
0.0023642
0.0118548
0.00182169
0.00607884
0.000294095
0.000357176
0.000311731
0.00786196
0.00779804
0.000242542
0.00212874
0.00134119
0.00109964
0.00180201
0.000738073
0.00161895
0.00672439
9.99201e-05
0.000769663
0.000390819
0.00752902
0.000830404
0.000447391
0.000216368
0.000868678
0.00152294
0.00651399
0.00029271
0.0067322
0.00101435
0.000142771
0.00903838
0.0067234
0.000658956
0.00538711
0.00177609
0.000400608
0.00157811
0.000687712
0.00696593
0.000875267
0.00110206
0.000784033
0.00672236
0.0119511
0.00672351
0.00211589
0.00160708
0.0121289
0.000704368
3.25769e-05
8.56636e-05
0.00158717
0.0033611
5.36059e-05
0.000694921
0.0124964
0.000478898
4.49898e-05
0.000744968
0.00150408
0.00108501
0.000177565
0.000567125
8.94672e-05
0.00086037
0.00044261
0.0015598
0.00481412
0.00019571
0.00416436
0.000925499
0.00672311
0.00141185
0.000946079
0.00115133
0.0100605
0.001417
0.00046478
0.00671902
0.00280139
0.00672404
0.0067242
0.00208382
0.0067243
0.00201168
0.00376372
0.000981958
0.00104054
0.00223019
0.00346142
0.000496754
0.00331081
0.00603007
0.00337169
0.00583506
0.00125987
0.000505978
0.00224146
0.00672392
0.000393601
6.81881e-05
0.000503451
0.0110519
0.00104188
0.0108179
0.000924028
0.00672427
0.00672223
0.00943567
0.00415817
0.00140697
7.48452e-05
0.000515812
0.00275515
0.0129445
0.00672359
0.00101962
0.00409278
0.00131729
5.0487e-05
0.00151064
0.00259838
0.00162062
0.00020415
0.00132196
0.00139218
0.000101971
6.47892e-05
0.000240531
0.000893876
0.00225937
0.00169383
0.00110555
0.0118601
0.0079278
0.012818
0.00162527
0.000986538
0.0012711
0.0022517
0.00672415
0.00118729
0.00672362
0.00202691
0.0041587
0.00673359
0.00676215
0.000462769
0.00341737
0.00179224
0.000268065
0.00378472
0.00465704
0.000575224
0.0126257
0.000289639
0.00428743
0.012417
6.54232e-05
0.00361038
0.000165389
0.0067254
0.000193016
0.000867702
0.000126332
0.00928317
0.000423858
0.00548668
0.00660191
0.00949903
0.00362529
0.00122762
0.00122516
0.000503271
0.00672284
0.000119662
0.0122583
8.15202e-05
0.000772664
0.000520309
7.95713e-05
0.00530147
0.00678051
0.00252118
7.17627e-05
0.0018649
0.0118953
0.00716187
0.000233569
0.00672448
0.000305028
0.000250807
0.000543061
0.00252226
0.00843252
0.00445739
0.00672725
0.00561792
3.23551e-05
0.00367891
0.00411777
0.0125875
0.00673301
0.000309423
9.21408e-05
0.00678535
0.0135812
0.00226296
0.011796
0.00438598
0.000498153
0.00152208
0.000110264
0.00168429
0.000823326
0.00673254
0.00207429
0.00620858
0.00202007
0.000299124
0.00114621
0.000901917
0.000184837
0.000445383
0.00489064
0.000189801
0.00079197
0.00233392
0.00080383
0.00611098
0.00662978
0.0067237
0.00204984
0.00295855
0.000678066
0.00614145
0.000451874
5.2844e-05
0.0013379
0.00147222
0.00188874
0.0126776
0.00996763
0.00174849
0.00176444
0.00318322
0.00850992
0.000298177
0.000806746
0.00545933
0.012159
0.00192211
0.000262997
0.00795727
0.000195275
8.35186e-05
0.000418267
0.00228483
0.00675441
0.000120595
0.00672618
0.00379144
8.9313e-05
7.18193e-05
0.00671942
0.00136062
0.000162033
0.00114659
0.00672628
0.00672197
6.64559e-05
0.00252305
0.00341297
0.00165053
0.0120331
0.0014129
0.000172416
0.00672315
7.56044e-05
8.43929e-05
0.00269505
0.000671551
0.00672459
0.0120212
0.0133108
0.000620674
0.00014865
0.000484742
0.000726228
0.00672393
0.0015501
0.00674263
0.00251579
0.00672491
0.00943746
0.00673922
0.00180357
0.00018562
0.000863045
0.00137912
0.0067285
0.0125203
0.000341504
0.00214053
0.00678194
0.000304285
0.000381505
0.00690141
0.000256839
0.000288986
0.00203924
5.7353e-05
0.000328935
0.000502509
0.0114424
0.00672783
0.00330825
0.000181966
0.00774629
0.00671945
0.00123222
0.012628
0.00672598
0.00455425
0.000711344
0.0049685
0.00672186
0.00271918
0.0004503
5.07903e-05
0.00196826
0.000569796
0.00668531
0.0032047
0.00884185
0.00628596
0.00419857
0.00138474
0.00483692
0.00153012
0.00672338
0.000327381
3.92367e-05
0.013287
0.00137625
0.0001018
0.000612028
0.00671979
0.00672031
0.00500212
0.00144322
0.000315649
0.000626192
0.000891848
9.37681e-05
0.00533833
0.00187777
0.00673125
0.0067288
0.00733048
0.00178424
8.66588e-05
0.000469237
0.00258755
0.000531309
0.000150319
0.00803349
0.00900091
0.00672402
0.00676424
0.000939622
0.00037934