/*--------------------------------*- C++ -*----------------------------------*\
| =========                 |                                                 |
| \\      /  F ield         | OpenFOAM: The Open Source CFD Toolbox           |
|  \\    /   O peration     | Version:  v2012                                 |
|   \\  /    A nd           | Website:  www.openfoam.com                      |
|    \\/     M anipulation  |                                                 |
\*---------------------------------------------------------------------------*/
FoamFile
{
    version     2.0;
    format      ascii;
    class       volVectorField;
    location    "200";
    object      U;
}
// * * * * * * * * * * * * * * * * * * * * * * * * * * * * * * * * * * * * * //

dimensions      [0 1 -1 0 0 0 0];


internalField   nonuniform List<vector> 
14479
(
(0.195168 0.128656 -2.29165e-21)
(0.872405 -0.0252929 0)
(1.10717 0.162771 0)
(1.04293 -0.000507187 0)
(1.00036 -0.0137834 0)
(1.04136 -0.00048165 2.55786e-21)
(1.03976 0.00160546 -7.87286e-22)
(1.19568 -0.0052799 1.33824e-20)
(1.1983 0.0761169 -2.65819e-20)
(1.19491 0.13538 -1.02918e-20)
(1.04035 -0.00287618 4.07006e-22)
(1.09879 0.0733399 3.53388e-21)
(1.08927 -0.0399307 -3.53972e-21)
(1.0863 0.0898812 0)
(0.921078 -0.206228 0)
(1.04215 -0.000171089 0)
(1.04001 0.00176632 0)
(0.937369 -0.154756 1.02961e-21)
(1.04838 0.00635604 1.34615e-22)
(1.05459 -0.00997606 2.48115e-21)
(1.14898 0.03876 -7.72276e-20)
(1.00196 -0.0188951 0)
(1.01214 -0.0366969 2.73442e-21)
(-0.21256 0.00626319 1.6249e-20)
(1.04066 -0.00294043 -4.63563e-21)
(1.04652 0.00890942 -6.66526e-22)
(1.19255 0.117336 0)
(1.19202 0.0789702 0)
(1.05464 0.0170814 -7.46041e-22)
(1.19234 0.119882 -8.3254e-22)
(1.11685 0.160957 -1.62161e-20)
(-0.21919 0.00388083 0)
(1.03163 0.00646318 0)
(1.03268 0.00848818 0)
(1.06154 0.165137 1.08262e-20)
(1.09429 -0.0042373 -4.87252e-21)
(1.04032 -0.00323067 4.64471e-22)
(1.04186 -0.000187703 0)
(1.1191 -0.0147041 1.95335e-21)
(1.09874 -0.00314814 0)
(1.04126 -0.000291217 2.36589e-21)
(1.04125 -0.00256941 3.50195e-21)
(1.07579 0.0374987 1.52895e-21)
(1.076 0.0294202 0)
(1.04003 -0.0031317 1.71849e-21)
(1.04051 -0.000510806 -1.31886e-21)
(1.04124 0.000916919 1.3655e-21)
(0.737347 0.0179443 0)
(1.02615 -0.0256291 0)
(1.04104 -0.00261299 6.28926e-21)
(0.995122 0.178807 -1.49065e-20)
(1.19014 0.082131 2.7716e-20)
(1.04811 0.00442921 2.91421e-22)
(0.989088 0.174405 1.52154e-20)
(1.01264 -0.0301212 -5.27199e-21)
(1.10743 0.0638098 -2.93417e-20)
(1.09497 -0.00362671 5.37807e-21)
(1.06636 0.0196249 2.77945e-21)
(1.06859 -0.0234226 0)
(1.06573 0.020437 2.53249e-21)
(1.05422 0.00164 0)
(1.05657 -0.00495076 0)
(0.752709 0.271683 -2.89026e-22)
(1.04431 0.00418572 0)
(1.03942 0.00146961 1.73278e-21)
(0.769279 -0.134402 -5.8689e-22)
(0.749484 0.0425098 6.04676e-21)
(0.622346 -0.255127 7.68028e-20)
(1.04836 0.00396073 -3.51932e-22)
(1.0552 0.0177965 7.17764e-22)
(0.590624 0.157855 0)
(1.04109 0.000964426 -2.90827e-21)
(1.02233 0.17132 0)
(1.09918 -0.0042953 0)
(1.05327 -0.00849371 0)
(1.04137 0.000858924 3.18787e-21)
(1.04116 0.0138415 3.9401e-21)
(0.75291 0.247795 -1.21364e-21)
(1.0431 -0.00318655 1.78621e-21)
(0.80627 -0.0832679 3.8321e-21)
(1.04893 0.00697645 -2.93729e-22)
(1.09427 -0.0259488 0)
(0.855371 -0.189959 6.47813e-21)
(1.13652 0.154582 0)
(1.20685 0.0523111 -4.13025e-20)
(1.03941 -0.00883974 -1.84858e-21)
(1.03861 -0.00577999 2.28274e-21)
(1.03963 0.00167641 2.602e-21)
(1.19116 -0.00785972 0)
(1.06956 0.0101095 0)
(1.19612 0.0796352 2.83444e-20)
(0.745013 -0.0734905 -6.99044e-21)
(-0.233255 -0.0402429 -3.50567e-20)
(1.04373 0.00405605 0)
(1.05651 -0.0382754 2.31497e-21)
(1.04116 0.000922892 1.17633e-21)
(1.04331 -0.00343725 -3.94887e-21)
(1.04079 4.30466e-05 0)
(1.03941 -0.000910533 2.28476e-21)
(1.11407 0.064262 -3.66711e-21)
(0.668734 0.207799 1.79179e-20)
(1.03875 5.97524e-05 2.75507e-21)
(0.990624 0.173925 -3.77092e-20)
(1.0505 0.16503 0)
(0.881754 -0.245454 -5.17083e-22)
(1.23187 0.0124449 9.54847e-20)
(1.26748 -0.0736156 -2.4204e-20)
(1.03201 0.0115796 -1.44451e-21)
(1.11246 0.161755 6.23302e-20)
(1.11801 0.0742302 -5.6609e-21)
(1.25738 -0.048358 3.30921e-20)
(0.933859 -0.22415 0)
(1.0449 0.0243739 2.92762e-21)
(1.11372 0.0483178 0)
(1.21499 0.0881617 0)
(1.13913 0.109049 1.55754e-20)
(1.03617 0.00137223 -1.75011e-21)
(1.00717 -0.0637441 -2.46617e-22)
(1.02523 -0.000114105 0)
(1.0592 -0.00544267 -1.36535e-22)
(1.03541 0.0012758 -6.2268e-22)
(1.08382 -0.241207 0)
(1.00636 0.175016 2.03704e-20)
(1.03928 -0.000866161 0)
(1.07213 -0.0268355 3.45274e-21)
(1.04216 0.0250184 -2.94221e-21)
(1.06868 0.00951515 -2.98522e-22)
(0.59232 0.179628 0)
(1.09396 0.00714693 -7.40711e-21)
(1.0755 0.0123302 2.86359e-21)
(0.995073 -0.0245104 -8.34081e-21)
(-0.0105061 0.119685 -1.66409e-19)
(1.11554 0.16162 -2.61991e-20)
(0.988665 -0.0260222 -2.02294e-21)
(0.900696 0.0328198 2.92855e-21)
(1.1118 0.0209525 1.33667e-20)
(1.16038 -0.0642457 3.8777e-20)
(1.0962 -0.0286386 1.56359e-21)
(0.220647 0.144041 4.09592e-21)
(1.13542 0.156876 5.15372e-20)
(0.898875 0.0679473 -1.33893e-23)
(0.0310484 -0.0228038 5.61189e-20)
(1.04323 0.000573545 0)
(0.899242 0.0875562 0)
(1.04872 0.00749959 -1.07635e-23)
(0.895415 0.050902 2.06416e-22)
(0.0373436 -0.0180198 -6.07228e-20)
(1.03928 -0.00467818 0)
(0.997871 -0.0177478 7.28626e-21)
(1.10181 -0.000605479 0)
(0.891382 0.154191 4.06336e-23)
(1.0461 -0.00115119 0)
(1.10539 0.0308776 0)
(1.08189 0.0270121 0)
(1.04619 0.00937931 -8.57392e-22)
(1.04289 0.000386342 1.57553e-21)
(0.921934 0.268735 8.23757e-21)
(0.0513714 0.0553624 -3.85373e-20)
(1.13017 0.0403236 -6.10829e-21)
(1.11349 0.0218966 0)
(1.10102 -0.00638762 -7.99404e-21)
(1.04239 0.00044838 -2.28749e-21)
(1.04626 -0.000876634 -7.92557e-22)
(1.01195 -0.00815116 -9.50423e-21)
(1.08628 -0.0125241 -3.30677e-21)
(1.04801 0.00120042 -1.26061e-22)
(1.04701 -0.00195198 3.60907e-22)
(1.14862 -0.0138128 -3.20843e-20)
(1.18557 0.131655 0)
(1.12993 0.0477754 1.27056e-20)
(0.800117 -0.171046 3.28829e-22)
(1.11504 0.0899118 -2.91064e-20)
(1.04094 -0.000291958 -1.37159e-21)
(1.08552 -0.0403198 1.6554e-21)
(1.03903 -0.000368786 -3.09249e-21)
(1.05665 -0.0115084 -2.38598e-21)
(1.11059 0.0176887 2.62202e-20)
(1.04124 -0.00056967 0)
(1.03136 0.0215794 3.47776e-22)
(0.943295 -0.0160354 -2.59414e-21)
(1.13747 0.107292 1.36419e-20)
(1.04871 0.00327416 1.13822e-22)
(1.09705 0.0988606 0)
(1.05052 0.0230226 3.12917e-21)
(1.09768 0.0405385 -5.02593e-22)
(1.05244 0.00321404 5.10723e-22)
(1.14611 0.154185 -2.56205e-20)
(-0.0600942 0.059897 -2.35775e-22)
(1.0642 0.0166254 8.88359e-22)
(0.631002 0.115169 0)
(-0.0522976 0.0333695 0)
(1.11419 -0.065524 0)
(0.787982 -0.141128 3.72133e-21)
(0.923061 -0.145158 0)
(1.03948 0.000208461 0)
(1.11539 0.0880806 3.47522e-20)
(1.03841 -0.00144234 4.01839e-21)
(1.03471 0.023681 -4.01552e-22)
(1.10876 0.045517 0)
(1.04591 -0.000578503 1.54123e-21)
(1.10405 -0.00193171 -1.59255e-20)
(1.03634 0.00136496 0)
(1.04287 0.0148491 -5.68279e-21)
(1.04748 -0.00202155 0)
(1.09008 -0.00011783 1.17388e-20)
(1.04379 0.000345656 6.91153e-22)
(1.09791 0.0360679 3.03433e-22)
(1.03953 -1.84997e-05 -1.6263e-22)
(1.04045 0.000994877 -2.81676e-21)
(1.09069 -0.000627095 -4.1026e-21)
(1.10549 0.0628937 0)
(1.05648 0.00683683 0)
(1.09015 0.000758469 8.86461e-21)
(1.08943 0.0011966 8.16898e-21)
(1.20672 0.0666897 -2.3736e-20)
(1.0965 -0.159416 1.7688e-21)
(0.858874 -0.0240844 -1.4747e-20)
(1.0591 0.0107403 1.66896e-21)
(1.11157 -0.141729 -2.30493e-21)
(1.02992 -0.0272922 5.03088e-21)
(0.941474 -0.266866 3.18347e-21)
(0.52794 0.0912261 5.15081e-20)
(1.075 0.0172349 -7.15695e-23)
(1.05432 0.0222685 0)
(0.746983 0.109961 3.89613e-20)
(1.04308 -0.000344604 2.00104e-21)
(0.550718 -0.174278 -5.74287e-20)
(1.04218 -0.000221521 -3.41344e-21)
(1.16328 0.118049 0)
(1.05257 -0.000772845 -2.12373e-21)
(1.05876 -0.00378012 8.38113e-22)
(1.05388 -0.000231727 2.11022e-21)
(1.11047 -0.0608189 0)
(1.03831 -0.0035888 3.63146e-21)
(1.04103 0.000107641 7.95503e-22)
(0.191867 -0.00110708 -1.78646e-19)
(1.04503 -0.0191641 -7.69509e-22)
(1.18319 0.0103515 2.91435e-20)
(-0.0668256 0.0511849 7.55047e-20)
(1.04869 0.00587856 1.94582e-22)
(1.04413 0.00206881 0)
(1.04609 -0.000341599 -1.40205e-22)
(1.19302 0.0497283 0)
(1.0359 -0.00298002 0)
(1.05211 0.00290215 -5.0532e-22)
(1.09635 -0.0366518 2.39335e-20)
(0.0169584 -0.105525 1.8746e-20)
(0.973214 -0.235448 0)
(1.05749 -0.00491653 -4.12472e-22)
(1.04751 0.00846377 4.16925e-22)
(1.05641 -0.0452068 -1.23143e-21)
(1.03201 0.0026291 0)
(1.06152 0.0248174 2.03117e-21)
(1.19227 0.139045 0)
(1.10495 -0.0646081 -9.41587e-23)
(1.03915 -0.000623692 0)
(1.08882 0.00269095 7.22323e-21)
(1.04071 0.00110067 -2.88329e-21)
(1.0499 0.0165103 0)
(1.04491 0.00964182 0)
(1.04207 -0.000276 1.53498e-21)
(1.04361 0.00259794 0)
(1.04528 0.00917438 -1.14836e-21)
(1.04128 -0.000564088 -2.1482e-21)
(1.04133 -0.00153703 2.61319e-21)
(1.09445 0.00781055 0)
(1.00918 -0.0117286 8.44586e-21)
(1.04736 0.00890962 1.45473e-22)
(-0.00322492 -0.11166 -1.27773e-20)
(1.13208 0.0218557 2.52247e-20)
(1.16329 0.115237 0)
(1.04616 0.000519749 -7.24441e-22)
(1.06437 -0.252877 4.05746e-22)
(1.11241 0.0908849 -2.08526e-22)
(1.14114 -0.0187147 -6.59918e-21)
(0.96459 -0.0656494 0)
(1.18391 0.0135265 0)
(1.04126 0.00111906 0)
(1.11156 0.048346 0)
(1.07407 -0.000488782 -6.50591e-21)
(1.08903 -0.0228388 -1.98635e-20)
(1.03895 -0.000400804 0)
(1.06888 0.00851746 2.73278e-21)
(1.07701 0.0176409 -3.26678e-21)
(1.2223 0.0274327 0)
(1.20166 0.0504385 5.97418e-20)
(1.16364 0.108781 0)
(1.13484 0.15553 -5.6602e-20)
(1.11552 0.0725331 0)
(0.299371 0.178332 -5.27757e-22)
(1.20837 0.12211 -2.21214e-20)
(1.05234 -0.00825698 0)
(1.05086 0.0139259 4.14154e-21)
(1.07582 -0.0327702 -3.18462e-21)
(1.04521 -0.0161677 8.82637e-22)
(0.854473 -0.223116 1.33355e-20)
(-0.125279 0.00109115 -1.49166e-19)
(1.06606 0.0129468 1.26249e-22)
(1.11225 0.00802862 1.20832e-20)
(0.954161 -0.0591824 1.40503e-21)
(-0.0406083 0.0344735 0)
(0.760124 -0.0866338 0)
(1.04115 -0.00144 0)
(1.05061 -0.00743368 0)
(1.12866 0.0682937 2.23753e-20)
(0.609595 -0.0507188 1.5524e-20)
(1.04237 0.000483784 0)
(0.506185 0.206407 1.44064e-20)
(1.04023 0.0010378 0)
(1.21007 0.0869005 0)
(1.04564 -6.67155e-05 0)
(0.506932 0.226476 -1.61678e-20)
(1.07609 0.0314569 8.83374e-21)
(1.0396 -0.00527179 0)
(1.12915 0.070201 -2.47565e-20)
(1.02118 0.127868 1.19325e-20)
(1.10832 -0.068291 -2.75129e-21)
(1.08619 0.0512231 -1.90555e-20)
(1.12842 0.072656 0)
(1.03865 0.000430101 1.45656e-21)
(0.0811389 0.0209388 3.69228e-20)
(1.19652 0.0491981 -4.44073e-20)
(0.720696 0.121444 -5.96514e-21)
(1.08229 -0.0406692 -9.26793e-22)
(1.05533 0.00271109 1.00429e-21)
(0.312519 -0.00830645 3.71791e-20)
(0.20592 0.0332116 3.21417e-20)
(0.862732 -0.0179834 -1.92177e-22)
(1.09074 -0.0363001 -4.41494e-21)
(1.07367 -0.00126932 -5.78817e-21)
(1.01791 -0.0398286 5.03856e-21)
(1.03864 -0.00139246 -9.22153e-21)
(1.05361 0.0129038 -7.95301e-21)
(1.13073 0.127274 -4.60345e-20)
(1.04206 -0.000718477 0)
(1.06802 0.00792924 0)
(0.785135 -0.397335 0)
(1.09348 0.00888902 -1.16162e-20)
(1.04603 -0.0173412 -9.37717e-22)
(1.05999 -0.00595257 1.7339e-22)
(1.05598 0.00408539 0)
(1.01062 -0.020135 4.51774e-21)
(1.04001 0.000921531 -1.91889e-23)
(1.12675 0.101854 -4.08083e-20)
(0.956377 -0.0444333 -3.16879e-21)
(1.1076 0.0660089 3.80208e-20)
(1.01782 -0.0445473 -1.5832e-21)
(1.12627 0.0732002 -8.36719e-21)
(1.17247 0.110564 1.43755e-20)
(1.05939 0.0139469 0)
(1.04306 0.00881567 0)
(0.978259 0.0320535 0)
(1.01049 0.169345 1.61273e-21)
(-0.235656 -0.0492048 9.24633e-20)
(1.08237 -0.0105952 0)
(0.491644 -0.0672304 0)
(1.21211 0.0625746 -2.75268e-20)
(0.149727 0.0112198 4.34225e-20)
(1.05503 0.00314832 -1.13967e-21)
(-0.0540724 0.0967956 -1.97173e-20)
(1.04384 0.00327698 -2.00819e-21)
(1.09637 -0.0628932 1.03894e-20)
(1.07895 0.130873 0)
(0.519011 0.226528 -3.17609e-20)
(1.07563 0.030153 -6.07052e-21)
(1.04434 0.00307084 0)
(1.0435 0.00257873 0)
(1.02059 2.53263e-05 0)
(1.14004 0.130574 3.61947e-20)
(1.04325 0.00268293 1.59958e-21)
(1.04132 7.40743e-05 -1.14052e-21)
(1.11638 -0.0109091 0)
(1.04064 9.14248e-05 -1.96775e-21)
(1.09031 -0.0260036 2.05071e-20)
(0.855487 -0.205489 -3.10841e-21)
(1.23806 0.0132182 1.54483e-21)
(1.056 -0.00412171 0)
(1.19257 -0.0151328 0)
(1.10642 0.0508888 7.28636e-21)
(1.06379 0.0118315 -4.63849e-21)
(1.13133 0.0664161 -2.60315e-22)
(1.14718 -0.0107699 3.65899e-20)
(1.04248 0.00855363 9.23373e-23)
(1.03525 0.0024265 -3.70158e-21)
(1.04042 0.171204 3.15514e-20)
(1.02945 0.0122548 0)
(-0.0675587 0.0365716 1.23178e-19)
(1.05666 0.00627299 2.28381e-21)
(1.0791 0.0173249 -2.92849e-21)
(1.01842 -0.00623085 -2.25665e-21)
(1.18726 -0.017663 2.73185e-20)
(0.98419 0.0260976 -7.76452e-21)
(1.07819 0.0303753 1.56366e-20)
(0.961516 -0.032718 -5.39317e-21)
(0.94908 -0.0372731 3.15491e-21)
(1.05689 0.00983521 -5.19679e-21)
(1.03455 -0.00255748 0)
(0.911183 0.279992 4.13243e-21)
(1.10957 -0.000558917 4.5322e-23)
(1.22226 0.0315589 6.09366e-20)
(1.15663 0.060933 4.81937e-20)
(1.18885 0.0485095 -3.79343e-20)
(1.11393 0.00882385 -1.27481e-20)
(0.994296 -0.0114444 -1.45385e-21)
(1.09323 -0.0036113 1.73858e-20)
(1.07354 -0.00498777 0)
(1.084 -0.044304 -2.03547e-21)
(1.13091 0.0641632 0)
(1.02155 0.168732 0)
(1.14697 0.0821799 0)
(0.879432 -0.00307224 0)
(1.23302 -0.0044187 -6.39597e-20)
(1.09444 0.00598806 1.15609e-20)
(1.10662 0.00124544 8.80723e-21)
(1.0533 0.00863445 1.69547e-21)
(0.885771 0.32615 6.80937e-21)
(1.05688 0.0155179 -1.56309e-21)
(1.06978 0.0181763 -6.12371e-21)
(-0.0155383 0.128277 1.35376e-19)
(1.10098 -0.0357938 0)
(1.08169 0.0243862 0)
(0.874118 -0.115478 6.02481e-23)
(-0.0546561 0.0371003 -1.26489e-19)
(0.873043 0.320894 0)
(-0.214137 -0.0382009 -4.20093e-20)
(1.06553 0.0122766 0)
(1.07946 0.0304978 -1.698e-20)
(1.09361 0.009885 0)
(1.04426 0.00269604 0)
(1.0398 -0.00330731 -6.89297e-21)
(1.04171 -0.00685786 3.01075e-21)
(1.1177 0.00171252 1.71482e-20)
(0.897983 -0.054533 0)
(0.891052 0.172896 0)
(0.0544321 0.0572001 8.28312e-20)
(1.129 0.101356 6.94648e-20)
(0.869311 -0.100312 0)
(1.00778 -0.0263771 5.3755e-21)
(1.13774 0.130537 -4.52845e-20)
(1.05526 0.00389859 0)
(0.228945 0.0777662 -5.09286e-22)
(1.04095 0.00101936 0)
(1.03873 -0.00328127 -2.02404e-21)
(1.10637 -0.253283 5.27322e-22)
(1.0512 -0.00701977 -1.0992e-22)
(1.04108 -0.000603222 -9.02543e-22)
(1.07975 0.0146146 0)
(0.912122 0.275528 -2.88643e-21)
(1.08114 -0.0110207 2.67995e-21)
(1.04059 -0.00746375 -3.35392e-21)
(1.03971 -0.00441895 -2.65483e-21)
(1.05514 -0.00421344 0)
(1.08081 -0.0116359 3.12096e-21)
(1.10088 0.0395613 1.14628e-20)
(1.08735 -0.0115216 8.97159e-22)
(1.15602 0.0580653 -6.83051e-20)
(1.05497 0.00197062 3.46391e-22)
(1.10898 0.162536 -2.56411e-20)
(1.0916 -0.0834433 -4.11451e-21)
(1.10573 0.162861 1.28465e-20)
(1.21734 -0.0288767 -4.54677e-20)
(1.05633 0.0148803 0)
(1.03561 -0.00709851 -2.56846e-21)
(1.10679 0.0210768 -3.59639e-20)
(0.939016 -0.119884 0)
(1.04111 -0.000652025 0)
(1.11608 0.00397931 -2.80655e-20)
(0.994929 0.165782 -6.3545e-22)
(0.267321 0.0718059 -3.91409e-21)
(1.05351 0.00205351 5.90122e-22)
(1.04191 -0.000235495 -5.00999e-22)
(1.1669 0.139302 8.2948e-21)
(1.04177 -1.89615e-06 6.33502e-22)
(1.04284 0.000137433 0)
(0.945058 -0.20576 8.54945e-22)
(0.801955 -0.103005 -6.65171e-21)
(1.14556 -0.0179554 0)
(0.714628 0.0218822 -2.21209e-21)
(1.14559 0.038592 2.99407e-23)
(1.04384 -0.000360369 0)
(1.22371 0.0703841 0)
(1.0943 -0.00547758 9.53435e-21)
(1.07501 0.0293028 0)
(0.939638 -0.106303 0)
(1.11673 -0.000432823 2.30444e-20)
(1.04511 0.000279496 1.97896e-22)
(1.0486 0.00306842 0)
(1.03757 -0.00587543 -2.33724e-21)
(0.775544 0.043152 4.25486e-21)
(0.981364 -0.00380974 2.91105e-21)
(1.03981 0.000921894 7.53181e-21)
(1.03861 0.000405853 0)
(1.21025 -0.0266025 3.8719e-20)
(1.05445 0.0077911 -6.83568e-22)
(1.04395 -0.000109744 -1.1823e-22)
(1.04008 -0.00659422 -1.81459e-21)
(1.03936 -0.000560075 -3.83002e-22)
(1.1647 -0.0710279 -4.29706e-20)
(1.0486 0.00112701 2.99663e-23)
(1.21783 0.0148176 4.72118e-20)
(1.09135 -0.00312324 -1.1975e-20)
(1.00035 -0.0298835 0)
(0.82745 -0.144703 8.08969e-21)
(1.09364 -0.00404839 -1.21559e-20)
(0.12179 0.00874034 9.48204e-20)
(1.19347 0.133339 0)
(1.23984 0.00548953 0)
(-0.121753 -0.143591 -8.42588e-20)
(1.04359 -0.0650245 0)
(1.04281 0.000145561 8.58193e-22)
(1.04153 -0.00626605 -3.22027e-21)
(1.07002 -0.00615434 -1.76784e-21)
(1.07792 0.0181443 3.48055e-21)
(1.20864 0.0822661 4.94625e-20)
(1.06318 0.0168382 0)
(1.02825 -0.041976 0)
(1.19672 0.112823 -2.94047e-20)
(1.07737 0.0316103 0)
(0.709168 0.134823 4.29433e-21)
(1.18634 0.128213 0)
(0.944172 -0.193555 0)
(1.01642 -0.00878448 2.32612e-21)
(1.04186 -0.000183883 1.25066e-22)
(1.08958 0.00222479 -8.05081e-21)
(1.04033 -0.00586928 -4.67328e-22)
(1.18752 0.0447116 3.33272e-20)
(1.03683 -0.000340207 1.28268e-21)
(1.11081 0.0460229 0)
(0.980497 -0.0985144 -5.21048e-21)
(1.04469 -4.35244e-05 2.15516e-21)
(0.418246 -0.0208208 0)
(1.02321 0.168409 0)
(1.08884 0.0174598 0)
(1.03963 0.000817025 -4.58849e-21)
(1.04132 0.00855678 -1.04107e-21)
(1.04386 -0.00140455 -1.84303e-21)
(1.08214 0.00137049 4.28077e-21)
(1.04503 0.0065671 0)
(1.15085 0.0368747 3.81374e-20)
(1.10853 0.0207201 -1.26583e-20)
(1.11724 0.0736354 0)
(0.801766 -0.175142 3.38435e-20)
(1.09371 0.00516416 0)
(1.0481 0.00831504 -2.7364e-22)
(0.866906 0.255352 2.06645e-20)
(1.10794 0.049423 -2.94739e-20)
(1.06759 0.0119421 -2.95019e-21)
(0.878732 0.0271411 0)
(0.510591 0.257248 -2.68995e-20)
(1.0058 0.0208025 -5.79224e-21)
(1.06755 -0.0163771 0)
(1.24278 0.00553978 0)
(1.11047 -0.131934 4.6058e-22)
(1.03876 -0.000330265 1.97739e-22)
(1.09378 0.00462566 0)
(1.06761 0.0412192 0)
(0.743899 0.181119 -1.18852e-20)
(1.13455 0.108502 -1.38377e-20)
(1.04219 1.94348e-05 -1.13227e-21)
(-0.091973 -0.00610496 8.01626e-20)
(1.04243 0.000253721 -2.75176e-22)
(1.06433 0.0125245 6.52782e-21)
(1.04244 -0.000634121 0)
(-0.108916 0.0295051 -7.31563e-22)
(1.20367 0.0526426 -2.63685e-20)
(1.04036 -0.0085022 4.92169e-22)
(1.04179 -0.000235693 1.46512e-21)
(1.09145 0.0330146 0)
(1.13002 0.0200976 1.40235e-21)
(1.04674 0.00186824 0)
(1.10477 0.0299667 2.25817e-22)
(1.08025 0.00474288 2.60504e-21)
(1.04911 -0.0212428 1.16779e-22)
(1.04869 0.00249216 6.28089e-22)
(1.11072 0.00941481 2.73772e-20)
(1.18908 0.134896 -3.57724e-20)
(0.303769 0.0306514 -8.59158e-20)
(1.07092 0.0182575 7.90169e-21)
(1.23999 -0.00371932 0)
(0.166063 0.135312 7.96487e-21)
(0.936688 -0.047911 0)
(1.08055 0.00561776 -3.01902e-21)
(1.08866 0.0167156 0)
(-0.127462 -0.0277637 0)
(1.03873 -0.00790805 0)
(1.11638 -0.0419634 2.67496e-21)
(1.0865 0.0496621 1.9737e-20)
(1.08968 -0.00884858 -4.6575e-21)
(1.09121 -0.041803 1.30531e-21)
(1.07574 0.0390838 -3.07791e-21)
(1.12563 0.019482 -1.56911e-20)
(1.04213 0.000111346 1.21934e-21)
(-0.225368 -0.00045262 0)
(1.23675 -0.0160588 -1.40206e-20)
(1.05261 -0.0140277 2.37566e-21)
(0.898746 0.281362 -5.2282e-22)
(1.01632 -0.0581371 2.94291e-21)
(1.03854 0.000207006 0)
(0.90815 0.0326727 1.45386e-20)
(1.00914 0.0233924 1.20905e-20)
(1.04982 0.0170449 0)
(1.11206 0.0188447 -2.18337e-20)
(1.03862 -0.000299767 4.41937e-22)
(1.04597 -0.0205107 1.03639e-21)
(1.08046 0.026698 -7.10462e-21)
(1.16647 0.110591 1.21685e-20)
(0.787123 -0.073968 1.41564e-20)
(1.15513 0.0667113 -4.91881e-20)
(1.08904 -0.00219378 7.54819e-21)
(1.00665 -0.0207469 -1.04138e-22)
(1.08955 -0.00377765 2.6315e-21)
(1.14026 0.14257 4.82081e-21)
(-0.00760527 0.117341 6.26672e-20)
(1.06763 -0.019161 0)
(0.129577 0.045066 1.69986e-20)
(0.191489 0.195607 -9.82539e-21)
(1.03992 -0.00509868 2.70543e-21)
(1.14799 0.149791 0)
(1.042 5.50529e-05 2.51576e-21)
(1.10932 0.0149686 -1.32826e-21)
(1.07346 0.0229622 0)
(0.308224 0.146696 8.10395e-23)
(1.10583 0.00721831 -1.13117e-20)
(1.09704 -0.076835 0)
(1.05557 0.00693943 -7.55052e-22)
(1.176 0.0884875 4.76968e-20)
(1.05888 0.00584375 8.32099e-22)
(1.21653 -0.0213315 2.09896e-20)
(1.08258 0.025999 0)
(1.09576 0.0425814 0)
(1.05831 -0.000597331 -4.92946e-21)
(1.03975 -0.000310223 -2.03964e-23)
(1.00434 0.16466 1.18576e-20)
(1.07049 -0.00244631 1.81499e-21)
(1.04389 0.00386716 0)
(0.93532 -0.00757345 -2.93723e-21)
(1.03907 -0.00679783 2.13075e-21)
(1.14072 0.146074 0)
(0.85069 0.247695 8.87282e-21)
(1.04206 0.000648655 -2.07331e-21)
(1.09438 0.0432058 0)
(1.05538 0.00769423 1.5722e-21)
(-0.0477204 0.0713374 0)
(-0.119143 -0.136486 -5.6931e-20)
(1.11772 -0.070223 0)
(0.659823 0.221566 -3.01589e-20)
(1.08951 0.00721229 -5.48391e-21)
(1.05104 -0.0159025 2.50645e-21)
(1.16426 0.136924 2.92486e-20)
(1.10458 0.02319 0)
(1.04859 0.00493558 -3.68323e-22)
(1.05426 0.0269606 0)
(1.07152 -0.00329908 1.75601e-21)
(-0.221019 -0.00785271 -6.97816e-22)
(1.08788 0.00503537 1.00273e-20)
(1.05727 -0.00441609 4.15821e-21)
(0.87165 0.0929897 9.69629e-20)
(1.09933 0.038717 1.1013e-20)
(0.93021 0.00139924 0)
(1.05948 -0.00432702 1.2211e-21)
(0.999342 -0.0379123 2.04477e-21)
(0.96632 0.254563 -3.35526e-21)
(0.698944 -0.105498 -3.12841e-21)
(1.04154 -0.000626859 -2.66291e-21)
(1.13463 0.0957707 0)
(0.179255 0.0338927 -7.00174e-20)
(1.14001 0.148222 -1.65464e-20)
(1.04398 0.00283647 0)
(1.10549 0.0606433 -1.16984e-20)
(1.0416 -0.000577268 0)
(1.06219 -0.0125119 -3.19089e-23)
(1.08115 0.000808947 -8.7832e-21)
(1.04157 0.00279724 0)
(1.03945 0.000786288 1.52959e-21)
(1.0412 -0.00156455 -1.4903e-21)
(1.04066 0.00209457 2.32697e-21)
(1.13023 0.0991567 -3.01696e-20)
(1.12088 0.0817222 0)
(1.0435 -0.00101702 1.89796e-21)
(0.896455 0.0203286 0)
(1.068 0.0124465 2.67113e-21)
(1.07241 -0.00536927 0)
(1.10877 0.0186198 1.26262e-20)
(1.23404 0.0506434 0)
(-0.0345994 0.050965 0)
(1.04147 0.00251917 -1.6515e-21)
(0.877411 -0.317878 -1.30956e-21)
(1.04322 0.00382027 1.34159e-22)
(0.879653 0.171163 0)
(1.06663 0.0393867 8.72578e-22)
(1.07124 0.0395669 2.1833e-21)
(1.17668 -0.0168284 -1.26534e-20)
(1.07658 0.0146873 4.52312e-21)
(1.07099 -0.00702015 0)
(1.10741 0.047281 1.4205e-20)
(0.4248 -0.150518 9.0289e-20)
(1.04624 0.00333755 1.77187e-21)
(1.05399 0.0259526 7.70904e-22)
(1.04501 -0.00552347 0)
(1.08063 0.0153 -1.73587e-21)
(1.05732 -0.00668677 0)
(1.04141 -0.000173537 0)
(1.11043 0.00499249 -1.32025e-20)
(1.07435 0.0299418 0)
(1.04056 0.00193499 0)
(1.13308 0.106481 4.17483e-20)
(1.03953 -0.0119702 0)
(0.722129 -0.0474618 1.20299e-19)
(0.68816 -0.0825168 1.71585e-21)
(0.934393 0.0340938 -1.42226e-20)
(0.930288 0.27923 -2.81457e-21)
(1.09314 -0.00327168 0)
(-0.00358388 0.0215421 -3.54131e-20)
(1.09273 0.0305039 2.20795e-21)
(1.07397 0.0174767 3.11632e-21)
(1.05756 0.0266446 0)
(1.04344 0.010436 1.90652e-21)
(0.999282 0.00549903 2.90863e-21)
(1.06865 -0.0200424 -2.02983e-22)
(1.04132 -0.00160278 1.73935e-21)
(1.13169 0.149285 1.03477e-20)
(1.09921 0.0860685 -1.39077e-19)
(1.04765 -0.0138394 5.70247e-22)
(1.0916 0.0355308 1.21565e-20)
(-0.0394259 0.0567932 -6.341e-20)
(0.916912 -0.0211689 1.49513e-20)
(1.17601 -0.0231114 3.80378e-20)
(0.435671 0.251683 2.2289e-20)
(1.13582 0.144317 -5.89413e-20)
(1.08855 -0.00856722 4.77818e-21)
(1.0393 0.00069374 1.55341e-21)
(1.04984 0.00534748 1.3309e-22)
(1.11181 -0.0658232 -5.28414e-21)
(1.12648 0.0936769 1.2389e-19)
(0.965614 -0.257477 0)
(1.04115 -0.00153295 1.52592e-21)
(1.10071 -0.00451356 -2.43372e-21)
(1.08996 0.0351579 0)
(1.09317 -0.00691933 -9.69552e-21)
(1.09275 -0.0113328 0)
(1.13972 0.0876983 -5.11595e-20)
(1.04509 -0.00239306 0)
(1.05883 0.0236109 0)
(1.1639 0.105604 0)
(1.04545 -0.00250466 0)
(1.05423 0.00850479 -1.12425e-21)
(0.895044 -0.0692142 4.67855e-21)
(1.11818 0.0849257 6.72956e-21)
(1.04086 0.000129212 3.17312e-21)
(1.18565 -0.110892 0)
(0.99465 -0.0536666 -2.4348e-21)
(1.06811 0.0115385 0)
(1.20548 0.0483842 -5.19185e-20)
(0.994443 -0.228424 -5.1385e-22)
(-0.0531473 0.065737 -6.37992e-20)
(1.09965 -0.00724987 4.3074e-22)
(1.13705 0.146419 -5.41655e-21)
(0.83255 -0.0274545 -1.50462e-22)
(1.17223 0.113872 0)
(1.11702 0.00582029 0)
(1.09576 -0.0780579 8.48176e-22)
(1.0332 0.00145084 -8.96031e-22)
(1.2191 -0.0725774 -1.00122e-19)
(-0.21095 -0.00334989 7.80307e-20)
(1.04809 0.00294056 -3.20632e-22)
(0.926025 0.277172 -5.07066e-22)
(1.12029 -0.138191 4.48824e-21)
(1.08803 0.00429534 0)
(1.12038 0.160083 9.60611e-21)
(1.0592 0.0221741 -1.32057e-21)
(1.10979 0.00300061 -1.3041e-20)
(1.04246 -0.0219792 0)
(1.0414 -0.00169406 1.60004e-21)
(1.04453 -0.0060846 2.53265e-21)
(1.04025 -0.00447968 0)
(0.436515 0.270996 -4.26693e-21)
(1.09492 0.0219676 5.29057e-21)
(0.538988 -0.196077 -3.376e-21)
(1.05067 0.012741 8.05327e-23)
(0.938244 -0.123049 4.88356e-20)
(1.06843 -0.0172919 3.29926e-21)
(1.06943 -0.00295573 -5.36128e-21)
(1.12469 -0.0672086 1.88188e-20)
(1.04594 -0.00219837 -8.34507e-22)
(0.898202 0.225642 3.20744e-21)
(1.14496 0.0838113 3.06728e-20)
(1.09348 -0.00579404 0)
(1.00068 0.0347707 8.24646e-21)
(1.03946 -0.000176142 0)
(0.985791 -0.0112898 -5.66487e-21)
(1.2391 0.0520412 0)
(1.10915 0.00870015 -2.77789e-20)
(1.07346 0.002629 0)
(1.08968 0.0260923 -4.59713e-23)
(1.19625 -0.115866 0)
(0.516992 -0.169091 -6.54766e-20)
(1.2285 0.0739748 0)
(1.15327 -0.0653211 -4.94432e-20)
(1.03922 -0.000396236 0)
(0.92094 0.158347 2.75681e-21)
(1.07565 0.0139421 -6.93559e-21)
(1.10454 0.0499848 6.54058e-21)
(1.07975 0.0374334 -8.59511e-21)
(1.13003 0.0975751 3.04515e-20)
(0.918536 0.0236864 -1.06192e-20)
(1.04136 0.000140392 3.32844e-22)
(1.05243 -0.00456955 -3.34812e-21)
(1.1767 0.0860919 -8.16904e-20)
(0.958388 0.0345178 0)
(1.03918 -0.00353839 -5.46542e-22)
(1.09319 -0.0693675 0)
(0.926336 -0.252947 -3.51353e-21)
(1.04762 0.017283 0)
(1.05244 0.00181948 0)
(1.04585 0.00367326 6.0353e-22)
(1.09999 -0.00189957 0)
(1.08843 -0.000967793 -4.6252e-21)
(1.0056 0.0215209 -2.86447e-21)
(1.07052 0.0438815 0)
(1.05881 0.021398 2.82011e-22)
(1.09048 0.0356103 -4.26268e-22)
(1.04324 0.00515032 -2.44749e-21)
(0.0808923 0.049627 0)
(0.0193038 0.0877213 -9.63611e-20)
(1.03768 -0.0119059 0)
(-0.0626458 0.042414 -3.63457e-20)
(1.12815 0.0325089 -6.42456e-21)
(1.04152 0.000777673 0)
(0.870361 -0.00826094 1.38805e-20)
(1.18696 0.0814022 4.05045e-21)
(1.13697 0.0945676 4.79656e-20)
(1.04604 0.0174782 -2.08406e-21)
(1.04059 -0.0134399 2.30111e-21)
(-0.0860413 0.0326128 4.82499e-20)
(0.106372 -0.0163128 -1.93684e-20)
(1.20797 0.123522 0)
(0.254976 0.195539 4.16449e-22)
(1.03956 -0.00383182 2.26083e-21)
(0.0871791 0.018242 0)
(1.15515 -0.0273414 -1.95098e-20)
(1.07604 0.0181363 0)
(1.10602 0.00898282 -1.1746e-20)
(1.12072 0.0839866 0)
(1.14175 0.0868931 1.53727e-20)
(1.03919 -0.243584 0)
(1.03768 0.000127769 0)
(1.04219 -0.00158489 -2.10042e-21)
(1.04299 -0.0223914 -1.03636e-20)
(1.07507 0.0162454 -3.78887e-21)
(1.0797 0.0168424 0)
(1.05221 0.00297699 0)
(-0.0576344 0.0349172 0)
(1.07546 -0.0716805 1.2941e-21)
(1.20613 0.109601 5.51241e-20)
(1.1018 0.163453 -4.87546e-20)
(0.798979 -0.188317 9.09823e-21)
(0.990425 -0.109293 5.84507e-21)
(1.04212 -0.000541866 2.21375e-21)
(1.20986 0.118091 1.94614e-20)
(1.08046 0.0102726 6.39638e-21)
(0.822386 -0.0835304 -5.39035e-21)
(1.15324 -0.0322824 1.69333e-20)
(-0.0331777 0.0914225 6.8874e-20)
(1.04246 0.00581917 1.41993e-21)
(0.966386 0.0281233 0)
(1.0578 -0.00396342 -1.47599e-21)
(1.04525 0.000264433 -1.59495e-21)
(1.1159 -0.0323463 0)
(0.804127 0.137146 -4.5264e-20)
(0.936719 0.156414 -3.29435e-21)
(1.04625 0.0120858 -3.86967e-21)
(1.08409 0.0212754 8.61824e-21)
(1.11798 0.087215 -7.91508e-21)
(1.04015 -0.000855697 0)
(1.08005 -0.0443323 -4.82966e-21)
(1.04656 0.00174283 0)
(1.04742 0.00306556 -6.39906e-22)
(1.10632 0.0230661 1.25092e-20)
(1.06435 0.0158274 0)
(1.05838 0.0230524 1.20267e-21)
(1.04027 0.00258785 -1.63525e-21)
(1.05989 0.0300215 -1.66979e-21)
(0.633447 -0.0499963 0)
(0.999047 0.0258334 0)
(0.781352 -0.1631 -6.63442e-21)
(1.09135 -0.00252818 4.30754e-21)
(0.874589 -0.465421 4.72002e-21)
(1.12372 0.109235 2.15076e-20)
(1.04188 0.00885616 -2.06751e-21)
(1.20231 0.0765662 3.06168e-20)
(1.16642 0.142031 -2.07711e-20)
(0.473098 -0.189472 5.71859e-23)
(1.05602 0.00552279 -1.27387e-22)
(0.0229219 0.0304365 9.1044e-20)
(1.04582 -0.00237611 1.35358e-21)
(1.14379 0.036008 -1.61852e-20)
(1.06157 0.0179083 -1.29737e-21)
(1.05407 -0.165808 1.96599e-21)
(1.0404 0.00232849 -2.32626e-24)
(1.03892 0.000191947 -1.5003e-21)
(1.03607 -0.00439403 0)
(1.0471 0.00354705 -1.99936e-21)
(1.07829 -0.00493363 -3.00829e-21)
(1.08895 -0.00456516 4.50034e-21)
(0.571534 -0.193984 4.18869e-21)
(0.878199 0.272736 -1.4906e-20)
(1.07706 -0.105348 -3.10773e-24)
(1.04102 -0.00281417 -5.96606e-21)
(1.03308 4.76566e-06 1.83483e-21)
(1.04729 0.00340737 6.84587e-23)
(1.03872 -0.00077536 0)
(1.03809 0.000310923 0)
(1.03701 -0.0104505 1.19716e-21)
(0.909269 0.123666 -1.40329e-20)
(1.19376 -0.0927603 0)
(1.04284 0.000347605 3.69976e-21)
(1.12618 0.0166927 0)
(1.09111 -0.00519614 5.29015e-21)
(1.03771 0.000259956 -3.91043e-21)
(1.18287 0.0440195 0)
(0.869743 -0.338566 -2.03729e-21)
(1.0207 0.00015523 -4.23758e-21)
(1.04295 0.000358104 0)
(1.03067 -0.225689 0)
(1.07816 -0.000536517 -4.41601e-21)
(0.375351 0.31198 0)
(1.00932 0.00675731 2.67354e-21)
(1.03868 -0.000573546 0)
(1.0527 0.00302473 -4.86502e-22)
(1.22794 0.018484 -9.26114e-20)
(1.04377 0.0012761 5.08953e-21)
(1.14445 0.143725 0)
(1.22373 -0.0624424 0)
(1.03915 -0.00296738 5.23622e-21)
(1.04358 0.00489009 2.80703e-21)
(1.04518 -0.015367 9.84555e-21)
(0.854245 -0.131652 -4.07098e-22)
(1.09018 -0.00319655 7.45088e-22)
(0.825774 -0.459901 0)
(1.07899 0.0490581 7.64901e-21)
(1.08829 -0.0259429 9.74774e-23)
(0.935229 -0.132396 0)
(0.862733 -0.454096 -1.69503e-20)
(1.19106 -0.109927 -8.08167e-21)
(1.05028 -0.0278756 1.51316e-20)
(0.859393 -0.146526 1.8002e-22)
(0.774569 -0.113918 -1.96352e-21)
(1.00427 0.0154685 5.85206e-21)
(-0.0412992 -0.0214559 5.44009e-22)
(1.04306 0.00605077 -3.39386e-21)
(1.06755 0.0332449 -4.97743e-21)
(1.09123 -0.0187418 -1.15683e-22)
(1.0943 0.0341154 8.00116e-21)
(1.08721 0.00598866 -8.18376e-21)
(1.03912 0.000642795 6.21981e-21)
(1.08397 -0.0815284 4.0135e-21)
(0.944934 0.270987 7.81025e-22)
(1.09239 0.0215794 -7.32627e-21)
(0.916456 0.302511 2.60842e-21)
(1.03897 0.000564077 -3.06512e-21)
(1.04899 0.0168491 -2.95556e-22)
(1.10243 -0.0622786 -9.80295e-21)