/*--------------------------------*- C++ -*----------------------------------*\
| =========                 |                                                 |
| \\      /  F ield         | OpenFOAM: The Open Source CFD Toolbox           |
|  \\    /   O peration     | Version:  v2012                                 |
|   \\  /    A nd           | Website:  www.openfoam.com                      |
|    \\/     M anipulation  |                                                 |
\*---------------------------------------------------------------------------*/
FoamFile
{
    version     2.0;
    format      ascii;
    class       volScalarField;
    location    "400";
    object      omega_0;
}
// * * * * * * * * * * * * * * * * * * * * * * * * * * * * * * * * * * * * * //

dimensions      [0 0 -1 0 0 0 0];


internalField   nonuniform List<scalar> 
13749
(
0.0219918
0.111604
0.02205
0.0269012
0.0235565
0.0507749
0.0656707
0.0225028
0.0219856
0.026717
0.0678218
0.022034
0.0350916
4.25111
4.83389
0.0242375
0.0220153
0.141926
0.0219958
0.0221089
7.10768
4.73849
3.34087
0.0726958
0.0235851
0.0365585
0.0338266
0.0303031
0.0215914
0.0225457
0.308549
5.47283
0.0282356
0.0406487
0.0217586
0.021611
0.0220508
0.02202
0.0242385
0.0424691
0.051034
24.6853
0.0245582
0.0252083
0.149284
0.0275775
0.0220449
0.0700314
0.021732
8.00546
0.0752861
6.70952
0.0434169
0.260632
0.0298736
0.0217315
0.036095
0.0282348
0.0217658
2.95986
0.0219049
0.0234286
5.69884
0.0220453
0.0223536
0.0238115
0.0219823
0.0219948
0.0252527
0.0271882
3.67447
0.0217429
1.64853
0.0218239
0.130826
0.0921405
0.0240448
0.0217758
0.0356383
0.0222566
0.0216098
0.0233738
0.0745427
0.0215918
0.0483477
0.0738009
5.03097
0.186422
0.0217608
0.0686226
0.021795
0.164241
0.0230523
2.67042
0.136868
0.0693229
0.0267565
0.0220996
0.0217576
0.0235922
5.81866
0.0216224
0.0244698
4.79043
0.0222507
4.89129
0.0699664
0.0219754
0.0698061
0.0220252
0.0220265
0.0251
0.072357
11.7049
5.99987
0.0220058
0.0216233
0.0291137
0.0223332
0.0217424
0.0224496
0.0222213
0.021646
0.021537
0.0232784
3.71807
0.0515646
5.97956
0.0276884
1.55203
0.02788
4.77439
5.42424
0.3504
0.0371434
0.0227226
0.136091
0.0217123
0.0224655
13.7012
0.0359496
0.0328997
0.0255128
6.7204
0.0217357
22.6996
0.032943
0.0377146
0.0222616
0.0876351
0.0217412
0.0373613
5.13007
0.281673
0.0254851
5.64757
0.0330989
0.0376789
0.115871
0.0219404
17.8166
0.0219573
6.20794
0.0286586
0.0220959
0.0219159
0.170532
0.0220513
0.0226463
0.0360988
0.0257185
0.0220213
0.0217269
0.0316235
0.0226402
0.0647219
0.0996522
0.0254211
5.85492
5.89519
0.0222632
0.0397488
0.0272767
0.167842
0.158417
0.0227916
6.42846
0.0231132
0.937583
0.0219083
0.0276161
3.6445
0.0229745
0.0793757
6.1614
0.0783202
0.048912
7.37928
0.0217727
0.0276896
0.0215984
0.0699966
0.0376997
0.0249103
5.60689
0.0225528
0.0217656
0.0802383
0.152782
0.0786945
0.0220476
3.9235
26.1602
0.104637
0.0351157
0.0792045
4.71332
0.0491172
5.53017
0.0216003
7.06043
0.0245193
0.256614
5.12873
0.0302056
0.398643
0.022601
0.038247
6.91116
3.26144
0.0220447
0.0222916
0.022208
0.0220438
4.02959
0.0233094
0.0565877
0.236032
0.022118
0.0220048
0.0238956
6.35598
0.725137
0.10024
0.0540298
6.56884
0.0232338
6.67403
0.0272643
0.0220323
6.46273
0.0227495
0.0218418
0.0231804
0.0380678
0.0316536
0.0219815
8.86894
0.0750027
11.6987
0.0216056
0.0326737
0.071877
0.0231438
0.022231
0.133219
0.331712
0.0374953
0.0497031
0.0380621
0.0215194
6.56691
0.0785932
6.48899
0.0230354
5.3523
25.205
0.0335539
0.0375012
0.0307412
0.0219146
0.0217805
0.258015
6.26776
0.0347447
0.0222794
0.0396429
0.0217617
0.431033
0.0234019
0.263215
0.0217458
6.18009
0.0686094
3.86596
0.193173
0.0220824
0.0216023
0.023381
0.0218072
0.0242298
0.0217544
0.037066
7.668
0.0379438
0.0216053
0.0218504
0.0221031
0.0225513
0.0336758
8.04167
0.0511676
0.0224625
5.20017
0.0215174
0.0233338
0.0246042
4.1092
0.0217376
0.025626
0.207134
25.3178
0.0470918
0.0222914
13.322
0.0222677
0.0217564
0.021638
0.0219642
0.0223006
0.0216452
0.0220501
0.0215361
0.0304135
0.0224581
0.0224018
0.0218058
0.0334479
0.0219686
0.0312593
0.0220932
0.344427
0.0230964
0.427274
0.081076
0.0225016
0.0253617
0.0224402
0.0218174
0.0219652
0.0219772
0.0220037
6.96191
23.8932
0.0235622
0.0218432
0.0525542
0.159902
0.045741
0.424574
0.0220442
0.0222841
0.0217447
9.09531
0.0381628
0.021923
0.0387353
7.98638
5.18608
0.0220865
3.91794
0.032661
0.0310074
0.0222667
0.0219287
0.0230178
0.0441263
6.19817
0.115306
0.027015
0.0222239
0.0220967
4.88608
0.0224318
0.0222612
0.0224951
6.52417
0.0219325
0.0219417
0.0243826
0.157204
0.374675
6.2155
0.0219778
0.023649
0.551065
16.0921
0.181961
0.0873506
0.426377
0.0219501
0.0503087
0.0220396
0.0956151
0.0224848
0.0345687
6.70939
0.0910522
0.0912585
0.0218351
0.0234515
0.0265568
0.0860216
5.92631
0.0418017
0.0222303
4.07048
4.06681
0.0381206
0.068891
0.0219546
0.0500661
0.860459
0.0241151
0.218057
0.0219542
0.0475892
19.0277
7.23729
0.0654164
0.173756
0.0222599
0.0997418
0.0445086
0.370813
0.0275164
0.0231871
0.0224755
0.0220245
6.60353
0.0219853
0.0221865
0.0222762
0.0273928
0.0265938
0.0216119
0.0219192
0.109757
0.0821042
0.121561
0.304312
0.0232211
2.93509
0.0217765
6.98108
0.0342178
0.0268582
0.033204
7.84967
0.0220947
0.0220642
0.0222873
0.024077
6.63089
0.0241822
0.0320217
0.106021
0.163688
15.1203
0.024892
1.02691
0.0219332
0.156834
5.7497
0.0219156
0.0219534
0.084035
0.0546843
0.0220277
0.0221695
0.0308491
0.0225372
0.0216343
6.95395
6.61354
0.555071
6.45858
5.71967
0.024622
0.0267538
0.0232766
0.0225491
0.0220374
0.041996
0.0216407
0.0226822
6.15411
0.0224123
9.58746
0.0218393
0.0222569
3.93706
0.0251688
0.214317
0.0223048
6.23563
0.0760339
0.0953983
0.0219822
0.022561
0.022263
0.0224262
0.0217712
24.9965
0.0258629
9.49421
0.0302628
2.25567
0.0483034
0.0219893
2.32464
6.07761
0.0223048
0.0747194
0.0225839
0.0217403
0.0220233
0.0321272
0.0227039
0.0789111
0.0220134
0.137119
0.0363378
0.0317375
0.0306011
0.050919
0.0220475
1.92906
6.0813
4.03347
1.90515
0.547693
0.118924
0.279527
6.46681
0.0698249
0.025744
4.44054
6.16707
1.46513
0.0669323
0.0225921
5.85058
0.055928
0.0444634
0.0235797
0.0220271
0.0429091
0.0238969
6.06728
4.09426
0.0216006
0.0216084
0.115622
0.0225602
6.21246
0.0220868
0.022066
0.0220974
0.175227
0.022231
0.217754
4.59714
0.0220488
0.0225939
0.0218359
5.72784
6.03533
0.0327135
0.0333787
0.0233154
0.0968477
7.74428
0.0279017
0.0256815
0.0222715
1.47927
2.68937
0.0219446
0.0266767
0.027763
0.0236009
0.0244466
0.0236832
4.48108
2.30916
0.02178
9.36877
6.40618
0.0255984
0.0254731
2.71443
0.155041
5.73354
5.73204
0.0244181
0.0328509
5.77645
6.75391
0.0222705
0.0218959
0.0243806
0.0217901
4.23373
0.0696963
0.0325512
0.0296134
0.0285617
0.0219376
0.0274811
0.117234
0.0219563
0.335668
0.0221274
0.282231
7.72915
0.0222421
0.715613
0.0229851
0.0219616
2.89652
0.0217048
0.0395077
0.0218667
0.0254913
0.0219905
0.025086
0.022299
3.16112
0.0218099
0.0216564
0.0219723
0.0218508
6.90653
0.125931
0.0298623
0.124587
0.0223012
14.9521
5.14239
0.0215588
0.033464
0.0739948
0.0216061
0.022056
0.0347746
0.218441
5.77522
0.0877488
0.0222637
0.0224043
0.080429
0.0222512
0.17668
0.0220455
6.93451
0.0228047
0.0218678
0.0221389
0.0217895
4.06833
0.096133
0.386587
0.0216197
0.0239142
0.228894
0.0234715
0.0243121
7.13509
5.36844
0.139742
0.0219312
6.28962
0.0328437
0.0220584
0.0215775
0.0891083
0.0739142
0.0216
5.98394
7.4729
0.0377653
0.022743
0.0217751
0.0216582
4.14615
0.0400012
0.0218366
0.0296616
0.0218255
0.027531
0.0215909
0.0232467
0.0267541
0.0222616
0.0239332
0.0371729
4.47775
0.0661041
0.150929
0.0374589
0.0518821
6.76
0.0326527
0.0252668
0.213648
5.97081
0.0220992
12.3992
0.0307258
0.0249786
0.0297902
0.0219356
10.4546
0.0218573
0.0891067
15.3469
0.0219744
0.0230588
0.118393
0.0218285
0.187633
0.121712
1.12704
0.534432
0.0913726
0.0216072
0.0342434
0.0229281
0.0221054
3.96493
0.022076
0.0320047
0.0219353
0.36408
0.0215988
0.022234
0.0219707
0.029071
0.0343795
4.80068
0.0836007
0.0219911
0.0219264
0.0899189
1.9093
0.0225074
0.0218619
0.0217746
0.031893
0.0217643
3.36733
0.022232
0.042861
0.242911
4.15018
0.0222717
0.021862
0.0221696
0.0240901
0.454588
7.28096
4.75114
0.102383
0.0325138
4.79119
0.0219416
0.0234683
0.134232
0.0254494
0.0224602
0.0306409
2.90452
0.0224809
8.17713
0.023493
7.53485
0.0220098
7.2354
7.2196
4.01334
4.1682
0.122052
0.0415293
6.64448
0.0217697
0.026086
0.0220665
0.199892
0.021911
0.763902
0.0769579
0.0342673
0.0219131
0.0221559
4.85801
0.0238975
0.0253734
0.0219461
4.44998
0.256118
0.11053
0.08124
7.3746
0.0221003
7.06271
0.127352
1.19191
0.0271521
0.0839216
0.0232447
0.201787
0.0220071
0.0269493
0.0400297
0.0218559
5.07657
4.09858
5.7002
4.78056
0.136516
2.75494
0.0223722
0.494259
0.0219245
0.282708
0.200635
0.0278572
0.171999
0.0935455
0.213336
0.0220297
0.0560965
6.39117
0.0220124
0.0244151
0.0219356
0.0220569
0.0219841
3.87766
0.0222425
0.0217895
0.0913227
0.0221131
0.0325575
0.0218417
0.0299918
0.0224095
0.122313
0.0221339
0.0738398
6.95909
0.0841652
0.120181
0.035791
0.34524
0.112453
3.74738
0.0462046
0.0221097
8.05042
0.0232508
6.78752
0.0275271
0.201849
0.168827
0.0999904
0.0222843
0.0242735
3.91516
0.0244911
0.167524
0.0261111
0.249269
0.0557259
0.120663
4.30089
0.0217998
4.76779
0.240983
0.0219211
0.0220286
5.9519
0.0221339
0.0741302
7.19626
0.0221339
0.102048
0.0281794
0.0389987
0.0219922
0.0219256
0.0222916
0.0777562
4.39859
0.0218648
0.0218516
0.0245344
0.424599
0.049443
0.0220947
0.0217652
0.0218229
0.0222643
0.021956
0.0337585
0.0242837
0.0822585
0.656076
0.0408463
0.123495
0.0224385
0.0222211
0.0220376
0.347333
0.0277019
0.0713962
0.378212
0.0222677
0.217496
0.0312874
0.0690456
0.0220702
0.175167
0.0229754
0.0222537
0.0224394
0.0215263
0.0666889
0.0360649
0.0441281
0.0219902
4.82553
0.0222821
12.3416
7.41164
0.022099
6.79864
0.0217682
0.0218288
0.0221232
0.0222834
0.0220297
0.0220255
0.0218348
0.0219694
0.0216342
0.0225469
0.0557916
4.44211
0.0217773
7.62035
0.022292
0.0222781
0.0303724
0.0225651
5.77589
4.53203
7.46134
0.0224251
0.0217196
3.089
0.0224336
0.0220853
0.0418806
0.0219824
0.0238554
4.67123
0.0747424
0.0216181
0.0325945
0.185613
0.0218549
0.150285
0.0225889
6.43241
0.0269198
0.0348051
0.0969272
0.838802
0.0217914
0.21497
0.0314951
0.0219086
0.0702397
0.0222709
0.0220837
0.0220226
0.0219836
0.0355282
5.82293
0.0217166
8.70907
6.10104
0.0218502
0.199082
5.88032
0.0275512
0.0294218
12.0236
0.139934
5.43075
0.122288
0.0222604
0.16629
0.0221183
4.7201
0.0731767
17.4302
0.0220714
5.24638
0.0219489
5.21555
0.230429
0.213711
0.0220269
7.36991
0.588667
0.0224706
6.58445
0.0248371
0.664863
0.0402855
3.8885
0.0222679
0.0521734
0.0221083
0.0422315
0.0255269
0.0221003
0.169509
0.0221022
0.133668
0.0796041
0.0220823
15.983
0.0223602
0.022507
5.63221
0.0217304
0.022508
0.0219221
4.18241
0.0220481
10.6349
0.0220874
0.0231521
0.0215151
0.0241249
0.0222047
6.5063
0.0536303
0.0707796
0.022133
0.0221759
0.0222483
0.0220292
0.0220639
0.0394411
14.7449
0.0214971
0.0251444
0.244091
0.0279971
0.0424268
0.0218362
5.32195
0.0233052
0.0225577
4.19723
0.0221046
0.0219751
8.38059
0.0559691
0.0223671
0.0635113
0.022478
0.0405151
0.0250462
0.0218738
0.0251874
4.02689
5.97462
0.0389708
0.0226313
6.31107
0.0226575
0.021847
0.222522
0.0221694
0.0700382
1.31571
0.216327
0.221755
0.0219918
0.0814475
0.0251443
0.0387767
0.0220708
0.0264654
0.0221358
0.022051
4.79166
0.0221746
0.0222625
0.0494213
0.0243943
0.0233144
0.021787
16.0377
0.0760242
0.0240791
20.6039
0.0817003
0.0221048
0.0620656
0.0366306
0.0254674
17.5803
2.32762
0.021877
1.66612
0.0603868
7.33645
0.0219535
3.56547
0.0222116
6.77365
0.0215568
0.0219919
6.51194
0.022089
0.0218267
0.0220982
0.254183
5.80023
0.0808222
0.0220403
0.106083
0.0219929
7.06688
0.0219821
0.0217667
0.103042
0.0223462
0.0220539
0.0801932
0.0221043
0.022244
0.0259156
0.025652
0.0217491
0.02439
0.0215862
0.0220892
0.0219852
0.0278192
0.021983
0.0490076
5.3604
0.022113
3.4473
0.0220522
0.0247315
0.0219517
0.0219039
0.0244211
4.50329
0.0311094
0.0222645
0.0219113
0.484412
4.58577
0.0218381
0.0410868
0.0219728
0.0258076
13.8884
0.0240338
4.48022
0.0219981
0.0215248
0.0218392
0.0219547
4.89634
0.0225116
0.021667
0.0219636
0.0216484
0.0218786
5.05499
0.0218221
6.60014
0.0219946
0.0244301
3.38389
0.0222634
0.0219305
0.0217542
0.0345553
0.094645
0.197125
0.0223928
4.68604
0.0935581
0.0225324
0.0385776
0.0222926
0.0223136
0.0224685
0.240248
0.0222287
0.0219572
0.0840499
9.13041
0.0220314
6.37072
8.31788
0.0239454
0.021921
0.238152
0.0405516
0.0219464
3.34022
0.0221251
0.0219968
0.0258004
0.0255171
0.021977
0.0222708
0.0218407
0.0226
0.517694
0.0376287
0.0915146
0.0315038
0.0222481
0.0273762
0.0316433
3.94761
6.54231
0.0731358
0.0285374
0.0905497
0.021999
0.021803
3.71139
0.0890563
3.19628
0.0222919
0.263409
0.242158
0.213533
0.0221498
0.0221525
0.0500336
0.0221674
0.021857
0.154431
0.0499334
0.0783744
0.0239366
0.0216655
3.96529
0.022037
0.0255938
0.0693183
0.0220096
0.0222699
0.0222004
7.01453
0.0227519
0.0220914
7.96221
0.0321606
0.0217999
0.0221027
0.128009
0.0220521
0.0220344
0.0220501
0.0256135
0.0215774
2.497
0.0272556
5.48025
0.0215324
0.0221959
4.77576
0.0215045
0.123444
0.0681296
6.28328
7.35102
0.033083
0.022064
0.0220019
0.0370436
0.0217638
0.0228496
11.7952
0.0221263
0.0234718
0.0220193
0.0215651
0.0220243
0.0268989
6.48548
0.0218457
0.0223419
0.0220333
0.0221666
0.0218952
0.0797482
2.16997
0.0217887
0.0241632
0.0221245
0.0220353
13.5024
0.270259
0.0220151
0.262529
15.1073
0.0222033
0.0216407
0.0261231
0.0216317
7.18323
5.70375
0.0216915
0.0527674
0.0218935
0.0221153
0.0221047
5.49258
0.0751643
0.0220795
0.0364251
15.6525
0.023968
0.0218037
0.579006
0.0541544
0.0215724
3.85486
0.0249804
0.0993139
0.0222286
0.0222524
0.0538474
0.0262754
0.0219048
6.1701
20.4446
0.0219472
0.0392341
0.0224153
0.0372363
0.0221071
0.0222827
0.0332464
0.0829011
0.0408698
5.34374
0.0219301
0.157507
0.0217447
0.0582968
5.27866
18.3133
0.0220465
0.0220979
13.5985
6.48162
0.037454
0.032384
0.0218411
0.0218963
0.0217212
0.0220204
6.40819
0.0222438
0.0730458
2.71322
0.0220324
3.79337
0.0240778
4.24651
0.022759
0.0253478
0.0220018
0.0353954
0.0220417
0.0222247
0.0304837
0.112049
6.65375
0.828983
0.0220604
0.0317885
0.0243511
1.39013
0.0220653
5.27167
0.124008
0.0229156
0.205408
0.0217385
0.0221057
0.0221877
0.0222634
0.146698
0.10746
0.0217999
0.0250209
0.0219913
0.0222415
0.0296354
7.83204
0.0585257
0.0225222
5.71139
0.0215886
16.5387
3.40832
0.0219167
0.0738351
0.0219067
0.313249
0.0737373
5.2087
0.0221758
0.0222687
0.0222111
0.0222356
0.0266311
5.51429
0.023827
0.0319755
0.0217676
0.0341631
0.0218549
0.0222685
0.02227
0.143527
0.0233869
0.0370522
0.0218635
0.19752
0.0220495
0.0227374
0.0218513
5.63527
0.0215222
0.0220808
24.2308
0.0219411
5.9151
0.151261
0.0227038
0.0220415
0.0405331
0.23604
5.28351
0.0217473
0.0808987
0.0222593
0.0357454
3.75102
0.0517491
1.49311
0.228467
0.0220389
0.0216101
0.0790711
0.0363097
0.229313
0.023614
0.0222848
1.18963
0.021938
0.0222513
0.0214822
0.127582
0.0215655
0.0215549
5.44159
0.0510985
0.0293534
0.0218231
0.51276
0.0217503
3.63981
4.16738
0.0922879
0.0220367
0.0222617
0.240154
0.0219378
0.0494558
0.0222846
0.0222517
0.044171
0.0273937
0.0348273
0.20213
7.91806
0.0222716
0.0248235
0.0220903
5.22875
0.0437078
0.191393
0.0325904
0.0221241
5.6483
5.76502
1.25028
0.0220435
0.0226341
0.0220058
3.88987
0.0220932
3.61181
0.0251693
5.15213
0.0407083
16.4963
0.0516726
0.131741
0.0239315
0.021782
0.0218608
0.077583
0.0225834
0.0222642
0.120626
0.0339609
6.28888
0.0222681
0.0232392
0.0522673
9.77156
9.02494
2.97135
0.0361295
6.1557
3.79459
0.0218442
0.150577
0.236645
15.3923
7.62324
5.09148
0.0219666
0.366442
0.0220709
0.124926
0.0218694
0.0220653
0.108695
0.171317
0.0220009
0.0273332
0.0518924
0.0522562
0.0388965
0.0220134
0.0222726
0.0908397
0.0332006
0.0741992
0.0870895
6.52722
0.0222838
0.0222836
0.0325049
0.0547123
0.0220281
0.0249098
0.0217547
0.126755
0.0484906
0.11139
0.0220886
0.0270351
0.39246
4.0583
0.0224987
0.0246715
0.0407748
0.0222628
0.02664
0.0229913
0.0221162
0.0219339
0.0219313
0.0324797
0.27738
0.0217455
0.762661
0.0221233
0.345781
0.0221247
0.0263171
7.96695
0.0219384
0.0241687
0.0229838
7.50845
3.95213
0.0224552
0.0218714
0.0335256
0.0223027
0.0220536
0.0220505
0.0218741
0.0392779
0.291715
6.50496
4.94282
0.0221555
0.0475578
0.418922
0.0222708
0.0218133
0.222642
0.022114
0.269979
0.0220576
3.86339
0.0341774
0.0221795
0.140106
0.103831
8.72183
3.8688
0.0216142
0.0367757
0.0216762
0.0704371
0.023329
0.0215867
5.71693
5.03972
0.0218758
0.0220053
0.0220046
5.39221
0.0220441
0.02161
0.0221045
0.0216664
0.218404
0.0238366
0.046631
0.0218364
0.0313212
6.6209
0.0222449
0.0264787
0.151634
0.0218688
0.169114
0.213769
0.0216766
0.0231296
0.0217304
0.511348
0.0215654
0.0368154
0.0525544
0.0220535
0.130679
6.33557
0.101634
5.79077
3.89395
9.04363
0.0217257
5.08978
0.0320126
3.50907
0.0392165
6.58033
0.0220342
0.540337
7.63074
0.0355
0.0224297
0.0624442
6.09053
0.397773
0.186944
0.0510758
0.0218851
0.0256429
0.0389586
3.88566
0.0218935
0.0221318
0.0236751
0.0304055
0.0216781
0.0221696
1.4958
0.0667547
0.0524729
0.0214787
5.65288
0.0223214
0.0223622
5.04909
0.0246465
0.0222703
0.0221552
0.237581
0.167068
0.0505825
0.0216238
0.0224429
19.4026
0.0221349
0.023163
0.0219252
0.0228207
5.22529
0.0223274
0.0606679
0.92186
6.08827
0.026219
0.0219821
0.022449
0.0301753
4.08199
4.21879
2.42053
0.109294
5.35006
7.79673
0.0220627
3.97543
0.0277899
0.0275523
3.856
0.022285
0.115036
0.0215012
0.932308
0.022118
5.39955
0.0330451
3.5432
0.0217918
0.332635
0.103803
0.0430091
0.109607
15.365
0.024026
0.0343685
0.0218188
0.15622
0.0286129
0.0219808
6.37376
0.0266348
16.3153
14.1389
0.595674
0.0245351
0.0215497
0.146761
3.63246
0.354678
0.0224876
14.2999
0.022271
0.0217351
0.0236958
7.28115
0.0254647
0.202224
0.138845
0.364321
0.0217121
6.95823
0.124621
0.0221911
0.0220111
7.68598
0.0224762
0.0219967
0.0383553
7.20295
0.16155
0.0216629
0.0220152
0.0216888
0.0222855
3.92167
0.215638
4.0863
0.0446486
0.0243122
3.75528
0.0654535
0.448999
0.0215672
0.0220684
0.0401883
0.0817987
0.0222627
0.02199
0.0221249
0.0222461
0.0221273
0.0219901
0.0218648
0.030919
0.0221404
0.0862008
2.0913
0.352134
0.0261761
0.0290243
0.0215472
0.0219993
0.0728407
6.30867
0.0215256
8.29705
0.471397
0.140126
4.74201
6.21551
7.64557
3.97208
0.023098
6.71172
5.05202
0.293122
0.0219861
0.021742
0.401376
0.0219334
7.13835
6.28792
0.144811
0.0460578
0.231783
0.0242346
0.253412
0.0238876
0.0221113
0.138469
0.0701316
0.0222184
0.101228
0.0379894
0.0220811
0.0272224
0.0219614
0.0358638
0.0276314
0.0325625
0.113841
0.0412678
0.0219117
0.0257765
0.0215206
0.0274901
0.0218153
0.0780927
5.59746
4.02001
0.0219276
0.671084
0.0219127
0.0219861
0.137694
0.0228224
0.263913
0.300963
6.49036
0.0398083
0.0402177
0.829999
0.0466152
0.29217
0.0248195
0.0234356
0.0219705
5.44831
0.0216201
7.9701
3.57314
0.0650912
0.0221601
0.0969716
0.157538
6.53996
5.37099
0.152124
0.0370728
0.0275108
0.2826
5.18497
0.027476
0.0262115
0.0261949
0.0242835
0.0222318
0.0221169
0.0709985
0.0214795
0.022263
0.629914
0.0222216
3.79073
6.60895
0.196307
0.0218322
7.53383
6.82548
0.0221002
2.01145
13.3642
7.15019
4.17828
0.0409677
0.0875922
0.0344291
0.0574246
0.0280331
0.0220471
0.0260458
0.0327998
0.440166
0.0340323
0.0220436
0.0217163
0.2615
0.0423699
0.0217706
0.027055
0.0392916
5.70327
4.98122
0.0234228
0.0299247
0.0227953
0.0316796
6.78976
0.021737
0.0227013
0.0653198
0.496947
0.0358902
4.56195
0.0221869
0.0224827
0.0590392
8.29325
4.73108
0.0218694
0.147687
5.13786
0.0229773
0.0615479
0.0283538
5.51798
0.0311907
0.0220333
5.73478
6.52433
0.0857472
0.764571
0.0503848
5.51073
0.0239651
5.22017
0.0221222
0.0273767
0.0225892
8.22929
4.89775
0.021997
0.454152
22.9425
0.0238361
0.0263586
0.475829
0.0228162
0.186726
0.0221388
5.83548
0.295252
0.11107
0.0219964
0.0220393
0.116912
0.032237
0.0601319
0.0489852
0.0429286
0.0508669
0.0335597
0.0296555
0.0219113
0.0219715
0.0486391
0.0218489
0.170007
4.83119
0.0416025
0.0268419
0.0722657
0.299745
0.0219764
7.16082
0.0233791
0.0222072
0.0329464
0.104403
0.0475781
0.0263171
0.0241659
0.0432899
0.0219696
0.238626
0.0519858
0.173026
6.60611
0.588805
0.0221407
0.327963
5.59724
0.141654
0.0447061
0.0219406
0.0471806
0.0220746
0.0268643
0.0220048
0.0243153
0.217757
0.0314616
0.0217884
0.0428626
4.89364
0.0316797
0.021705
0.0781677
4.83695
5.67051
0.022053
0.0229598
0.200369
0.11271
0.98234
4.27205
0.0220307
3.91056
0.0479174
0.207895
0.021814
4.27707
0.0371197
0.0220639
0.021961
4.13473
0.145395
0.159481
4.55165
0.0314178
0.0455529
0.0236189
0.458162
7.00343
3.77656
2.16652
0.0266469
0.145633
0.0220211
0.0221227
0.219271
0.0334933
5.98944
0.402919
0.0607685
0.0295434
5.92524
4.57884
0.021635
7.02674
0.0312112
0.0218175
0.724048
0.0652374
4.07282
0.0252826
0.0322252
0.0225322
1.53763
0.0215932
0.0221181
4.91947
0.0221347
0.0366515
0.0265419
0.0230232
0.0241818
4.24972
0.181189
0.0274546
0.0456171
4.73361
0.0653703
0.0220687
1.45547
0.0231504
0.0310095
0.022108
0.0225604
3.55972
0.0220785
0.0217288
0.201067
0.0218083
0.276773
4.72917
0.279787
0.276973
0.0220131
0.0239406
0.169731
0.0219776
8.66004
4.46932
0.216479
0.61503
0.0258869
0.16978
6.20116
0.0219023
0.0584293
7.03211
5.08366
0.0290142
0.0288397
0.021984
0.0302905
3.47203
0.0249701
5.62944
0.16764
0.0273854
0.0462965
0.139521
0.024673
0.0219475
0.147085
0.0219674
0.0218776
0.0247346
0.0220625
0.066124
0.02556
0.0302132
0.021487
0.0581382
3.76276
0.0259641
4.10834
0.0324864
0.227722
0.0217646
0.0218333
0.384542
3.27355
0.0305257
9.55034
0.0218521
5.95052
0.329003
5.75099
0.0219627
0.0763819
0.0221127
3.78524
0.0215509
0.0220092
0.02343
3.97211
5.61116
0.0299428
0.0218983
6.35616
4.13127
0.313097
6.24798
0.030923
0.0219617
6.75492
0.0234681
0.0751168
0.26959
0.0220174
0.0318226
0.0216329
0.0216063
4.69708
2.46522
7.61002
0.0450833
0.194161
0.0285003
0.0301071
7.59947
0.0223876
0.0226293
0.0230061
0.164
0.347708
5.64907
0.0248613
4.94818
0.0218735
5.58007
0.146941
10.1452
0.022906
1.06847
0.0543313
0.0233135
0.0325697
0.023282
0.022266
0.0606973
0.0360151
0.0256748
0.0435407
0.0230499
4.76876
32.1549
0.619754
3.82444
0.274371
4.26521
0.023341
0.0230836
0.0217957
0.0220602
0.158584
0.0697651
0.0312343
0.0349404
0.0218983
0.0255
7.09109
0.0441896
0.161692
4.42159
0.0219854
0.0265505
0.106575
0.159015
3.95857
0.0317723
4.34046
0.0220392
0.0220809
0.0339673
7.37102
0.0231631
4.27889
0.487754
4.09118
0.0837543
0.107332
0.152375
4.1192
5.0299
0.180558
0.0216103
0.133564
9.17235
0.0221132
0.0444828
0.144422
0.0232457
5.46339
0.0303838
0.0226513
0.0357934
4.40015
5.38061
0.0302384
0.500799
0.101592
0.0253258
26.743
0.0640999
0.0261389
0.0319099
0.0266792
0.133918
0.103446
0.0702034
3.81651
0.0220425
18.0928
0.0240192
0.0220589
0.0228759
0.0216387
5.8341
0.0223441
0.0627305
4.27915
0.0300853
0.0303652
0.0219522
0.022086
0.0216613
2.19204
0.0217393
0.0432381
0.0342714
8.02288
0.0219871
7.94441
0.023732
0.575
0.0226468
6.46706
0.0320597
0.0872288
0.0607476
0.0256761
0.0219138
0.0219579
0.0713007
0.0428973
4.82317
0.0220409
0.0232961
0.0309416
5.44092
0.0932922
3.12284
0.133025
4.78838
0.592059
5.16387
0.049698
0.0216532
0.0401324
0.0257342
5.53423
5.34606
6.11436
0.398474
0.0219539
0.0420127
0.1835
0.0218214
0.0418812
0.0231851
0.0219909
0.0218399
0.0581725
0.0221518
0.0301612
0.0899112
0.303457
1.15743
0.0236861
0.0867967
0.0416432
7.2546
5.37475
0.0218932
0.0240529
0.0564592
0.0367151
4.20352
0.065442
0.0413916
4.36339
0.0216013
0.0691885
13.2032
0.0219522
0.0229804
0.0220538
0.055309
0.0217144
0.0219829
0.0222295
7.10328
3.57769
0.0295683
20.0206
0.022144
5.42511
0.0802386
0.0410121
0.0221373
0.0219515
0.138003
3.77611
0.111591
0.0685844
0.022526
0.0223449
0.0552432
0.0402463
0.0219685
2.3739
3.87922
3.79344
0.0221365
3.71402
0.022989
1.46041
2.22815
0.0220865
7.37056
1.11685
0.0230313
0.0751097
0.0222593
0.0256059
0.0625033
0.0216879
0.0216806
0.0221633
5.31905
0.0520465
0.0215685
0.0724653
0.029058
0.022232
0.0216411
0.0224691
1.85852
0.0236043
6.88869
4.1209
0.0220943
0.534594
0.0217756
0.0220563
0.038525
5.76026
0.0218193
0.0216734
5.26456
0.0226699
0.0239963
0.0221419
0.0245697
0.0217684
0.0216647
0.0217889
0.0258137
0.0222
0.0217532
0.0222127
0.0303417
0.0221172
0.0510103
5.53628
0.0220082
0.0221847
4.53259
0.0220541
0.0217885
0.0215704
0.0347411
0.0221816
0.0220626
0.141444
0.021584
0.0217002
0.0339405
0.0525866
4.58363
0.0221597
0.0217224
0.0663014
0.0819231
2.68676
5.65475
0.0237367
0.131757
0.0672468
8.05899
0.64891
0.0318331
8.6858
0.0223012
0.0219883
0.0216934
0.0216672
0.0291635
0.0219218
33.0784
5.74633
2.4876
0.150865
2.44079
3.94779
0.0219999
0.0217856
0.0714967
0.0223248
0.3257
1.07483
0.0214955
22.3001
0.0740403
0.0218235
4.72101
0.0964269
0.073818
8.0747
0.0295108
4.57135
3.73243
4.36434
0.11951
0.026096
0.0266406
6.41255
0.022271
7.14906
14.5195
0.0218042
0.0220246
4.92886
0.44694
0.244879
0.0217519
0.0318555
23.0008
0.0221519
0.0756325
0.0323715
7.25006
0.169532
9.40846
0.0218802
0.494904
0.0219282
0.0217146
0.0228182
0.100218
0.0638506
0.152904
0.035575
0.021979
0.0702963
0.0251329
0.161663
5.52652
0.0219805
0.0222927
0.0224839
5.37446
0.0222179
0.0219064
0.0221404
0.0353203
4.78473
0.0219797
0.0220566
9.28687
0.38104
0.0390924
5.46481
0.202202
7.83366
6.37831
0.0224708
0.0626364
7.74291
0.04776
0.021843
0.0221019
6.66936
7.47434
0.0222724
0.092657
0.139732
3.86103
4.70833
2.52248
0.0219979
0.42634
6.09815
0.12532
0.0254163
8.46531
10.2593
0.0216783
0.0263281
0.0219761
0.0225498
4.03495
0.022029
4.6278
1.80104
0.0220135
0.0743639
4.66614
2.21378
0.0221552
0.0225185
0.0219086
0.0980447
25.4456
0.021911
4.39146
0.0882441
4.97065
5.60903
5.43621
4.16387
0.0227225
0.0222169
0.0214963
0.022234
5.31201
0.204494
0.024526
7.21199
0.0217865
0.0669159
0.0224751
0.0222727
0.0220664
0.103666
0.0220265
6.89546
0.0218797
0.0225386
0.0222052
4.11527
0.0312007
0.0216739
0.0228193
4.12283
0.170786
6.38218
0.0240738
0.123943
0.73856
0.0230668
0.0215565
0.0230398
0.0219797
5.44815
0.0479332
0.0218275
0.0221761
20.3507
18.6139
0.073801
0.0218287
0.0224424
0.0533954
0.06885
0.0219174
2.445
0.0220842
0.0446282
0.0221227
0.0377989
3.79357
0.0223468
0.022308
6.85787
0.382474
0.0221408
5.18624
0.0228676
0.338417
4.45719
0.0996853
5.60995
0.0652073
0.144298
6.47992
0.0218686
5.1053
0.0222587
0.0226176
4.37573
0.0220299
0.259637
0.123782
0.023527
7.23271
5.73501
1.0625
0.43777
5.62061
0.115292
0.0221027
0.0338812
0.11083
0.0227329
16.345
0.0257026
0.0240023
0.0227262
0.0854595
0.803002
0.0218272
3.91517
6.71886
0.0227549
6.18896
0.0218005
0.0219861
3.68042
0.0217369
0.0319861
4.97588
3.64554
0.0760879
0.137059
0.239584
6.19613
0.0221802
0.0636388
0.0215962
4.43319
5.64683
0.0233158
6.57454
0.0218407
0.715753
0.206346
0.208349
0.13026
0.0216138
0.070374
0.0616148
0.0434966
0.310156
7.88583
0.0522125
0.0222635
4.81163
0.0254868
0.0825898
0.190303
0.119589
4.53917
0.0217493
0.202213
0.0367364
0.02412
0.0218946
2.77945
4.63736
0.0221249
0.0219731
0.21928
6.81066
0.0217115
0.0314389
0.0223066
4.53184
0.0222307
4.87348
0.0223382
0.0297318
7.29356
0.0504163
9.21726
0.0238926
0.0729848
4.40883
0.0263026
0.0222858
5.31886
0.0214494
0.149657
0.022077
0.0217046
4.60256
0.0320597
4.49401
5.40508
0.0475076
13.8226
0.186327
0.0221302
4.15473
0.0218824
3.89948
0.0219004
0.293126
3.9198
0.133928
0.065435
0.0219652
0.0228501
0.0502679
0.0688412
0.0218818
0.0281158
4.59171
4.53577
0.0219763
8.60586
0.0225577
1.10439
0.0222301
0.0680263
5.78141
0.0257279
0.0282721
0.0216902
0.0264941
0.0216415
0.0221528
0.0241743
4.21177
0.0593897
0.0329284
0.0219306
0.0217895
0.0221442
5.98866
0.0336967
6.40035
0.0220019
27.7127
6.1632
0.0234627
4.19106
0.0337522
0.0324875
0.0404859
0.0483299
10.3092
0.0216266
0.316882
0.0642288
0.0381802
0.0221452
0.146838
0.0219059
0.0218803
0.0331239
0.0214715
0.592288
4.48158
0.0252504
6.91051
0.0276071
0.0329398
7.50455
0.0528271
3.65352
1.23063
0.0228738
0.0298685
0.0260011
0.0390405
0.0219866
0.0264584
0.0222205
0.0220008
4.90562
0.0319708
0.0218372
0.0219109
0.173497
0.0524357
0.0222654
0.0230241
9.66243
0.0216017
0.0405726
0.0218833
0.0222723
0.0506797
0.0222717
0.030823
0.0364302
6.25747
0.0240381
0.0238447
0.0224087
0.0245269
0.0715532
0.0227812
0.0268348
0.0222856
0.0222856
0.282439
0.437495
0.023917
0.0401013
0.034609
7.90954
0.0406021
0.0216898
1.54673
0.253601
0.0237545
9.12697
0.0219143
0.0223734
7.50633
0.0218115
0.0219396
0.0373905
0.446766
0.0310987
0.0232059
0.0220287
0.0271122
0.0508437
0.021959
7.40658
0.0222708
0.276481
4.28084
0.0215434
0.0230639
0.0275043
0.175243
4.99949
0.022657
0.0681108
8.95799
3.70075
0.0219295
0.0344646
0.0263575
0.0215282
0.0299532
5.92001
0.0218231
5.55655
7.18838
1.2302
5.59055
5.49063
0.0783321
0.571253
0.0216968
0.0771893
0.0275064
6.17047
0.82683
0.251678
0.0285477
0.21995
8.41419
0.0220734
5.44794
0.0254349
0.0218223
0.0409581
0.0221993
0.0665096
0.0389291
5.81317
8.84338
0.0288574
20.7384
0.0274012
0.0295007
0.491889
0.0222271
0.150241
0.0218405
5.70492
0.0769796
0.189107
3.30731
0.0717969
0.0215002
5.36296
0.456937
0.0485872
5.9066
1.45098
0.0219761
6.43825
0.0219847
8.08831
0.0217848
0.0372829
8.37233
0.0338336
0.0219975
0.27428
3.48261
6.26713
0.0215488
8.66115
0.0220384
0.0321071
0.0396708
0.165017
0.0215105
0.0510138
0.0532909
0.155915
0.0224878
0.0286684
0.0221512
5.97989
7.95558
0.0220764
5.41104
0.0219294
0.0253297
0.0332983
0.0220054
0.296685
0.0330467
0.0227512
0.0220074
0.022677
0.0220117
0.0359675
0.0288352
0.0711501
0.022018
0.0220262
0.0222522
0.022028
0.0302065
0.0332516
0.0220364
5.0254
5.30859
5.42338
0.0220447
0.18657
0.574531
0.478957
0.0220563
0.0345213
0.0223206
0.0220677
1.81536
0.071328
0.022069
0.0220802
5.64107
0.0222563
0.0410144
0.0262768
0.0220944
5.39318
4.94058
0.0220019
0.0218524
0.0217506
0.42095
0.0267689
0.0314715
0.041926
0.164788
0.0215567
0.0221446
0.0221094
0.0611949
0.0322014
0.0232378
0.0216333
0.490458
0.0221514
5.88899
3.99445
0.030931
7.40293
0.029198
0.0220325
0.032584
8.41551
0.516258
3.80779
0.202197
0.0356654
0.049448
0.0368641
6.46397
0.022079
4.59773
3.35137
0.0311542
7.74526
6.28181
10.7565
0.0416395
0.034829
0.0285488
0.0220627
5.33482
0.0228214
0.0330113
0.0219894
0.0219322
0.0364896
0.0234855
4.89422