/*--------------------------------*- C++ -*----------------------------------*\
| =========                 |                                                 |
| \\      /  F ield         | OpenFOAM: The Open Source CFD Toolbox           |
|  \\    /   O peration     | Version:  v2012                                 |
|   \\  /    A nd           | Website:  www.openfoam.com                      |
|    \\/     M anipulation  |                                                 |
\*---------------------------------------------------------------------------*/
FoamFile
{
    version     2.0;
    format      ascii;
    class       volScalarField;
    location    "400";
    object      omega;
}
// * * * * * * * * * * * * * * * * * * * * * * * * * * * * * * * * * * * * * //

dimensions      [0 0 -1 0 0 0 0];


internalField   nonuniform List<scalar> 
13749
(
0.0219918
0.111495
0.02205
0.0269132
0.0235621
0.0508261
0.0665842
0.0225029
0.0219856
0.0267357
0.0678807
0.022034
0.0351553
4.25071
4.83414
0.0242401
0.0220156
0.142005
0.0219958
0.0221089
7.10718
4.73872
3.34419
0.0726879
0.0235864
0.0365845
0.0338317
0.0303271
0.0215914
0.0225437
0.341647
5.47261
0.0282553
0.0406303
0.0217586
0.021611
0.0220508
0.0220199
0.0242423
0.0424703
0.0510994
24.6812
0.0245504
0.0252084
0.149533
0.0275888
0.0220449
0.0700351
0.021732
8.00513
0.0752868
6.70898
0.0434208
0.256171
0.0299159
0.0217316
0.036073
0.02825
0.0217658
2.96101
0.0219047
0.0234221
5.69894
0.0220453
0.022355
0.0238146
0.0219823
0.0219946
0.0252548
0.0271923
3.6747
0.0217429
1.65307
0.021824
0.130701
0.0919991
0.0240461
0.0217758
0.0355766
0.0222566
0.0216098
0.0233856
0.0745181
0.0215918
0.0484588
0.0732754
5.03513
0.1828
0.0217609
0.0685856
0.021795
0.165179
0.0230523
2.56869
0.138677
0.0694293
0.0267658
0.0220996
0.0217576
0.0235885
5.81838
0.0216224
0.0244737
4.79092
0.0222507
4.89186
0.0697164
0.0219754
0.0699164
0.0220252
0.0220265
0.0250812
0.0721795
11.7015
5.9993
0.0220061
0.0216233
0.02915
0.0223328
0.0217424
0.0224492
0.0222213
0.021646
0.021537
0.0232759
3.71832
0.051584
5.97882
0.0276838
1.55501
0.0278611
4.7739
5.42659
0.354592
0.0372312
0.022722
0.136267
0.0217121
0.0224656
13.701
0.0359092
0.0329157
0.0255105
6.72113
0.0217357
22.6986
0.0329712
0.0376779
0.0222625
0.0876571
0.0217412
0.0373399
5.13077
0.284529
0.0254865
5.64748
0.0330308
0.0376536
0.115737
0.0219404
17.8122
0.0219573
6.20839
0.0286927
0.0220959
0.0219159
0.168579
0.0220513
0.0226455
0.0361817
0.0257129
0.0220213
0.0217269
0.0316371
0.0226424
0.0649858
0.0985839
0.0254207
5.85415
5.89397
0.0222632
0.0397245
0.0272842
0.16615
0.147888
0.0227929
6.42921
0.0231188
0.913524
0.0219082
0.0276189
3.64759
0.0229756
0.0792958
6.16245
0.0775573
0.0488688
7.37956
0.0217727
0.0277064
0.0215985
0.0699747
0.0376431
0.0249074
5.60718
0.0225539
0.0217656
0.0798245
0.160187
0.0774986
0.0220477
3.92162
26.1633
0.106509
0.0351301
0.0798522
4.71318
0.0491416
5.5306
0.0216003
7.33207
0.0245093
0.255252
5.13198
0.0301978
0.375717
0.0226028
0.0381509
6.91091
3.25889
0.0220447
0.0222916
0.022208
0.0220438
4.02972
0.0232977
0.0559665
0.235649
0.022118
0.0220043
0.023898
6.35524
0.686192
0.100962
0.0538218
6.57006
0.0232424
6.67457
0.0272498
0.0220323
6.46324
0.022751
0.0218418
0.0231805
0.0380537
0.0316715
0.0219815
8.86966
0.0752476
11.6959
0.0216056
0.0326723
0.0720015
0.0231429
0.0222302
0.133608
0.335064
0.0375109
0.0496721
0.0381424
0.0215194
6.56605
0.0786168
6.48959
0.0230333
5.35209
25.2091
0.0335349
0.0376076
0.0307431
0.0219146
0.0217806
0.25392
6.26784
0.0347613
0.0222811
0.039607
0.0217617
0.44145
0.0234011
0.262889
0.0217459
6.18043
0.0686513
3.86621
0.198097
0.0220824
0.0216023
0.0233822
0.0218072
0.0242299
0.0217544
0.0370592
7.66852
0.0379269
0.0216053
0.0218505
0.0221031
0.0225521
0.0336702
8.04024
0.0512112
0.0224614
5.19939
0.0215174
0.0233249
0.0246089
4.10917
0.0217375
0.0256298
0.205867
25.3141
0.0470774
0.0222914
13.3223
0.0222677
0.0217564
0.021638
0.0219641
0.0223008
0.0216451
0.0220502
0.0215361
0.0304126
0.0224565
0.0224018
0.0218057
0.033425
0.0219685
0.0312394
0.0220932
0.347072
0.0230944
0.415802
0.0808417
0.0225016
0.0253664
0.0224405
0.0218173
0.0219652
0.0219772
0.0220037
6.96358
23.909
0.0235585
0.0218431
0.0528153
0.157625
0.0457616
0.411427
0.0220442
0.0222841
0.0217447
9.09635
0.0380824
0.021923
0.0386989
7.98495
5.18679
0.0220865
3.91816
0.0326555
0.0309742
0.0222667
0.0219287
0.0230184
0.0439661
6.19871
0.114918
0.0270312
0.0222239
0.0220967
4.88653
0.0224329
0.0222612
0.0224951
6.52391
0.0219324
0.0219417
0.0243865
0.156721
0.371482
6.21612
0.0219768
0.023651
0.579614
16.0943
0.206241
0.087732
0.419996
0.0219501
0.0505302
0.0220396
0.0956839
0.0224865
0.0345697
6.69314
0.0913205
0.0908916
0.0218348
0.0234496
0.0265521
0.0860741
5.92515
0.0416612
0.0222303
4.07048
4.0669
0.0381035
0.0689098
0.0219545
0.0499554
0.930862
0.0241183
0.217114
0.0219542
0.0477798
19.1372
7.23662
0.0654957
0.175703
0.0222599
0.100551
0.0444391
0.375014
0.0275023
0.0231879
0.0224759
0.0220243
6.60337
0.0219853
0.0221871
0.0222762
0.0274082
0.0266163
0.0216119
0.0219192
0.110044
0.0816329
0.122187
0.306522
0.023232
2.63781
0.0217765
6.98172
0.0342123
0.0268821
0.0332262
7.8421
0.0220947
0.0220642
0.0222873
0.0240797
6.63026
0.0241864
0.0320212
0.10595
0.162627
15.1313
0.0248749
1.14038
0.0219332
0.157978
5.74953
0.0219154
0.0219533
0.0842571
0.0548537
0.0220277
0.0221695
0.0308678
0.0225349
0.0216344
6.95436
6.61288
0.57032
6.45893
5.71974
0.0246081
0.0267511
0.0232769
0.0225473
0.0220374
0.0420027
0.0216407
0.0226832
6.15466
0.0224138
9.59414
0.0218393
0.0222566
3.93717
0.0251743
0.213446
0.0223054
6.23525
0.0759695
0.0955865
0.0219822
0.022561
0.022263
0.0224265
0.0217711
24.9956
0.0258668
9.49527
0.0302351
2.25397
0.0483246
0.0219893
2.32449
5.78134
0.022307
0.0746526
0.0225833
0.0217403
0.0220232
0.0321115
0.0227066
0.0790783
0.0220135
0.137594
0.0363473
0.0317385
0.0306087
0.0509939
0.0220476
1.92838
6.08174
4.03352
1.91301
0.639514
0.119012
0.280116
6.46673
0.0698807
0.0257488
4.44075
6.16652
1.47024
0.0669258
0.0225947
5.85031
0.0558939
0.0444519
0.0235808
0.0220271
0.042914
0.0238907
6.06682
4.09393
0.0216006
0.0216084
0.114014
0.0225624
6.21211
0.0220868
0.022066
0.0220973
0.174113
0.022231
0.216863
4.59738
0.0220488
0.022594
0.0218361
5.72673
6.0349
0.0327022
0.033367
0.0233159
0.0964548
7.74476
0.0279287
0.0256732
0.0222715
1.21621
2.68631
0.0219446
0.0266575
0.0277636
0.0236018
0.024449
0.0236819
4.48071
2.31142
0.02178
9.36879
6.40674
0.0255971
0.0254706
2.71732
0.154209
5.73344
5.73198
0.0244217
0.0328456
5.77538
6.75365
0.0222705
0.0218959
0.0243773
0.0217901
4.23384
0.0696814
0.0325581
0.0296265
0.0285312
0.0219377
0.0274908
0.117814
0.0219563
0.344846
0.0221267
0.327846
7.72884
0.0222421
0.613359
0.0229855
0.0219616
2.89859
0.0217048
0.0396794
0.0218666
0.0254905
0.0219905
0.0250881
0.0222984
3.16362
0.0218096
0.0216564
0.0219723
0.0218508
6.90647
0.126604
0.029887
0.125267
0.0223021
14.9507
5.14302
0.0215588
0.0334504
0.0740049
0.0216061
0.022056
0.0347762
0.216989
5.77511
0.0880312
0.0222637
0.0224065
0.0805221
0.0222512
0.178673
0.0220455
6.93371
0.0228071
0.0218678
0.0221389
0.0217896
4.0685
0.096778
0.393896
0.0216197
0.0239112
0.234077
0.0234716
0.0243104
7.13556
5.36838
0.139567
0.0219312
6.69122
0.0327723
0.0220585
0.0215775
0.0888129
0.0735736
0.0216
5.98359
7.4731
0.0378388
0.022745
0.021775
0.0216582
4.14617
0.040059
0.0218366
0.0296651
0.0218256
0.027514
0.021591
0.0232387
0.0267538
0.0222616
0.0239361
0.0372341
4.48466
0.0661151
0.15376
0.0374642
0.0518083
6.76011
0.03271
0.0252703
0.212673
5.97074
0.0220992
12.3942
0.0307113
0.0249778
0.0297953
0.0219356
10.4468
0.0218573
0.0894
15.3423
0.0219744
0.0230499
0.118575
0.0218285
0.185604
0.121485
1.13272
0.510465
0.0916074
0.0216072
0.034166
0.022929
0.022106
3.96383
0.0220759
0.0320182
0.0219353
0.364412
0.0215988
0.022234
0.0219708
0.0291053
0.0342894
4.80084
0.0839513
0.0219908
0.0219264
0.0896356
1.6069
0.0225077
0.0218619
0.0217746
0.031914
0.0217642
3.36981
0.022232
0.0428644
0.246187
4.15006
0.0222717
0.0218619
0.0221696
0.0240868
0.471945
7.28107
4.75131
0.101342
0.0325364
4.79157
0.0219415
0.023481
0.134629
0.025446
0.0224615
0.0306358
2.90649
0.022483
8.16608
0.0234924
7.53385
0.0220098
7.23425
7.21959
4.01345
4.16808
0.122103
0.0415456
6.64406
0.0217697
0.0260761
0.0220665
0.196882
0.021911
0.664307
0.0771063
0.0341516
0.0219131
0.0221556
4.85837
0.0239119
0.0253879
0.0219461
4.44968
0.260061
0.110555
0.0809196
7.37296
0.0220998
7.062
0.127311
1.8262
0.0271638
0.0833339
0.023245
0.198662
0.0220071
0.0269502
0.0399779
0.0218559
5.07718
4.09848
5.70019
4.78086
0.136808
2.76572
0.0223725
0.541305
0.0219245
0.284775
0.201521
0.0278559
0.17413
0.0928423
0.216008
0.0220297
0.0561011
6.39115
0.0220124
0.0244121
0.0219356
0.0220569
0.0219841
3.87793
0.0222425
0.0217894
0.0918266
0.0221131
0.0325531
0.0218417
0.0300277
0.0224109
0.122425
0.0221339
0.0737571
6.96053
0.0843505
0.120611
0.0358202
0.345478
0.11242
3.74771
0.046373
0.0221097
8.05038
0.0232571
6.7877
0.0275102
0.201215
0.16002
0.0988936
0.0222843
0.0242713
3.91505
0.0244847
0.189053
0.0261229
0.25148
0.0556723
0.120677
4.30095
0.0217998
4.76787
0.243727
0.021921
0.0220288
5.95088
0.0221327
0.0746021
7.19641
0.0221339
0.102062
0.0281495
0.0390086
0.0219922
0.0219256
0.0222916
0.076996
4.39834
0.0218648
0.0218516
0.0245387
0.371185
0.049699
0.0220947
0.0217653
0.0218228
0.0222643
0.021956
0.0337036
0.0242859
0.0825373
0.619547
0.0408756
0.123209
0.0224397
0.0222211
0.0220372
0.358654
0.0276449
0.0715025
0.370679
0.0222677
0.214643
0.0313083
0.0690388
0.0220702
0.173013
0.0229733
0.0222537
0.0224371
0.0215263
0.0666664
0.0360505
0.0440663
0.0219902
4.82573
0.0222821
12.3409
7.41168
0.022099
6.80005
0.0217682
0.0218288
0.0221236
0.0222834
0.0220294
0.0220255
0.0218351
0.0219695
0.0216342
0.0225461
0.0564059
4.44197
0.0217771
7.61983
0.022292
0.0222786
0.0303564
0.0225662
5.77578
4.53184
7.45931
0.0224231
0.0217195
3.08794
0.0224327
0.0220853
0.041831
0.0219824
0.0238556
4.67126
0.0743529
0.0216181
0.0326368
0.192081
0.0218548
0.150086
0.0225893
6.43181
0.0269326
0.0348085
0.0961421
0.636309
0.0217914
0.21169
0.0314651
0.0219086
0.0704542
0.0222709
0.0220837
0.0220226
0.0219836
0.0354542
5.82201
0.0217165
8.71177
6.1004
0.0218502
0.208977
5.87982
0.0275325
0.0294444
12.022
0.139767
5.43114
0.121893
0.0222607
0.169106
0.0221183
4.72014
0.0730529
17.4277
0.0220714
5.24629
0.0219489
5.21608
0.233357
0.20773
0.0220269
7.36977
0.588179
0.022473
6.58423
0.0248343
0.717072
0.0402904
3.88841
0.0222679
0.0521264
0.0221083
0.0422228
0.0255349
0.0221003
0.172041
0.0221021
0.136319
0.079675
0.0220823
15.9851
0.0223604
0.0225089
5.63108
0.0217303
0.0225084
0.0219224
4.18223
0.0220479
10.6348
0.0220874
0.0231518
0.0215151
0.0241215
0.0222047
6.50685
0.0533585
0.070794
0.0221332
0.0221759
0.0222483
0.022029
0.0220639
0.0394326
14.7462
0.0214971
0.0251482
0.253189
0.0279997
0.0424394
0.0218363
5.32105
0.0233031
0.0225575
4.19708
0.0221046
0.0219752
8.37979
0.05641
0.0223666
0.0634919
0.0224759
0.0405084
0.0250477
0.0218738
0.0251588
4.02714
5.97429
0.0389302
0.022631
6.31065
0.0226572
0.021847
0.213183
0.0221694
0.0700313
1.31925
0.217067
0.223759
0.0219913
0.081426
0.0251239
0.0387116
0.022071
0.0264788
0.0221358
0.022051
4.79209
0.0221746
0.0222625
0.0493965
0.0243948
0.0233313
0.021787
16.8045
0.0760097
0.0240816
20.5879
0.0821571
0.0221048
0.0621926
0.0366219
0.0254708
17.5206
2.32216
0.021877
1.54656
0.0605384
7.33624
0.0219535
3.56557
0.0222116
6.77326
0.0215568
0.0219919
6.51158
0.0220889
0.0218267
0.0220982
0.257138
5.8001
0.0810839
0.0220403
0.106022
0.0219929
7.06644
0.0219821
0.0217668
0.102577
0.0223462
0.0220539
0.0801522
0.0221044
0.022244
0.0259238
0.0256485
0.0217491
0.0243915
0.0215862
0.0220889
0.0219855
0.0278094
0.021983
0.0489273
5.3595
0.0221131
2.43119
0.0220521
0.024725
0.0219517
0.0219038
0.0244027
4.50308
0.0311206
0.0222645
0.0219113
0.443462
4.58554
0.0218382
0.0410656
0.0219728
0.025821
13.8842
0.0240344
4.48222
0.0219981
0.0215248
0.0218392
0.0219547
4.89685
0.0225116
0.021667
0.0219636
0.0216484
0.0218786
5.05487
0.0218221
6.60034
0.021995
0.0244398
3.38232
0.0222634
0.0219305
0.0217542
0.0345575
0.0941755
0.185412
0.0223922
4.68638
0.0937697
0.0225354
0.038565
0.0222926
0.0223153
0.0224682
0.237212
0.0222282
0.0219572
0.0837777
9.13059
0.0220314
6.37198
8.32003
0.0239538
0.0219211
0.24128
0.040545
0.0219463
3.3346
0.0221251
0.0219971
0.0257869
0.0255114
0.0219769
0.0222708
0.0218408
0.0225999
0.497196
0.0375968
0.0929529
0.0314767
0.0222482
0.027385
0.0316258
3.94751
6.54352
0.0734174
0.0286125
0.0903048
0.0219989
0.021803
3.71175
0.0893059
3.18956
0.0222922
0.261622
0.229697
0.213766
0.0221498
0.0221526
0.0500356
0.0221674
0.0218571
0.155689
0.0498731
0.0776986
0.0239326
0.0216655
3.97357
0.022037
0.0255965
0.0693343
0.0220097
0.0222699
0.0222004
7.01616
0.0227528
0.0220914
7.59957
0.0321605
0.0217997
0.0221024
0.128494
0.0220521
0.0220344
0.0220501
0.0256166
0.0215774
2.49342
0.0272623
5.47928
0.0215325
0.0221967
4.77587
0.0215045
0.123661
0.0682467
6.28253
7.35092
0.0331039
0.022064
0.0220019
0.037084
0.0217638
0.0228507
11.7533
0.0221262
0.0234722
0.0220193
0.0215651
0.0220243
0.0268925
6.48545
0.0218457
0.0223433
0.0220333
0.0221666
0.0218952
0.0794681
2.15946
0.0217887
0.0241657
0.0221246
0.0220353
13.5009
0.273011
0.0220151
0.26082
15.1042
0.022203
0.0216407
0.0261129
0.0216317
7.18286
5.7026
0.0216916
0.0529841
0.0218935
0.0221153
0.0221047
5.49154
0.0757807
0.0220795
0.0363832
15.6493
0.023969
0.0218037
0.563432
0.0540478
0.0215724
3.85482
0.0249814
0.0995245
0.0222286
0.0222518
0.0539614
0.0262873
0.0219048
6.17005
20.4547
0.0219472
0.0392481
0.0224153
0.0371754
0.0221071
0.0222827
0.0332965
0.0825935
0.0409041
5.34379
0.0219301
0.158322
0.0217446
0.0582818
5.27931
18.3325
0.0220465
0.0220979
13.5981
6.48094
0.0374497
0.0323521
0.0218409
0.0218963
0.0217212
0.0220204
6.40753
0.0222438
0.072669
2.70907
0.0220324
3.79805
0.0240742
4.24634
0.0227587
0.0253563
0.0220024
0.0354199
0.0220417
0.0222247
0.0304922
0.115907
6.65361
0.836752
0.0220604
0.031729
0.0243627
1.39722
0.0220653
5.27185
0.120312
0.022913
0.205877
0.0217385
0.0221057
0.0221877
0.0222634
0.14672
0.107261
0.0217998
0.0250421
0.0219914
0.0222415
0.0296126
7.83165
0.0584923
0.0225226
5.7102
0.0215886
16.5339
3.40656
0.0219167
0.0740728
0.0219067
0.32352
0.0737535
5.20928
0.0221758
0.0222687
0.0222112
0.0222356
0.0266281
5.51441
0.0238265
0.0319858
0.0217676
0.0341305
0.0218549
0.0222685
0.02227
0.143761
0.0233922
0.0370439
0.0218634
0.202425
0.0220495
0.0227362
0.0218513
5.63493
0.0215222
0.0220808
24.2327
0.0219411
5.91462
0.149749
0.0227006
0.0220415
0.0405614
0.223228
5.2852
0.0217472
0.0804062
0.0222593
0.0357978
3.75099
0.0517346
2.48586
0.22966
0.0220388
0.0216101
0.0797881
0.0363056
0.229259
0.023613
0.0222848
1.28197
0.021938
0.0222513
0.0214822
0.127575
0.0215655
0.0215549
5.4418
0.0510755
0.0293705
0.0218231
0.554753
0.0217503
3.63983
4.16735
0.0919328
0.0220366
0.0222617
0.236221
0.0219378
0.0494815
0.0222846
0.0222517
0.0441702
0.0274062
0.0348351
0.204212
7.9167
0.0222716
0.0248095
0.0220903
5.23091
0.0437438
0.191388
0.0325664
0.0221241
5.64862
5.76322
1.25923
0.0220435
0.0226334
0.0220058
3.89012
0.0220933
3.55999
0.0251691
5.15243
0.0407063
16.4972
0.051658
0.130995
0.0239121
0.0217819
0.0218607
0.0776281
0.0225831
0.0222642
0.122098
0.0339835
6.28456
0.0222685
0.0232369
0.0522259
9.77226
9.09927
2.97928
0.0361707
6.15285
3.79456
0.0218442
0.150598
0.238936
15.397
7.62223
5.09135
0.0219666
0.374374
0.0220709
0.125581
0.0218694
0.0220653
0.108943
0.171027
0.0220009
0.0273419
0.0519074
0.0522789
0.0388625
0.0220134
0.0222726
0.0907529
0.0332172
0.0743242
0.0861986
6.52829
0.0222838
0.0222836
0.0325068
0.0544039
0.0220281
0.0249128
0.0217546
0.126696
0.0485275
0.111327
0.0220886
0.0270668
0.391672
4.0626
0.0224984
0.0246829
0.0407508
0.0222628
0.0266447
0.0229938
0.0221162
0.0219339
0.0219314
0.0324902
0.2758
0.0217455
0.796227
0.0221233
0.341568
0.0221247
0.0263093
7.96751
0.0219385
0.0241638
0.022977
7.50886
3.95213
0.022456
0.0218713
0.0335242
0.0223031
0.0220536
0.0220505
0.0218741
0.0392958
0.292978
6.50428
4.94313
0.0221555
0.0478265
0.42243
0.0222708
0.0218133
0.222361
0.022114
0.272784
0.0220576
3.8636
0.0341416
0.0221795
0.140487
0.10392
8.72429
3.86878
0.0216142
0.0367609
0.0216762
0.0706651
0.0233289
0.0215868
5.71681
5.04001
0.0218757
0.0220053
0.0220048
5.39241
0.0220441
0.02161
0.0221045
0.0216664
0.212648
0.0238362
0.0463894
0.0218365
0.0313113
6.62008
0.0222449
0.0264777
0.149692
0.0218687
0.17075
0.216757
0.0216766
0.0231306
0.0217303
0.514517
0.0215654
0.0367558
0.0520808
0.0220535
0.130289
6.33478
0.100912
5.79122
3.89388
9.04201
0.0217257
5.09044
0.0320195
3.50915
0.0391666
6.58181
0.0220342
0.566349
7.62987
0.0354772
0.0224292
0.0624296
6.08912
0.421427
0.185301
0.0508961
0.0218854
0.0256372
0.0389057
3.88564
0.0218935
0.0221316
0.0236715
0.0304125
0.0216781
0.0221696
1.59378
0.0669076
0.052461
0.0214787
5.65271
0.0223206
0.0223613
5.04957
0.0246351
0.0222703
0.0221552
0.23709
0.168612
0.0505104
0.0216238
0.0224422
19.4122
0.0221349
0.0231598
0.0219252
0.0228186
5.22525
0.0223263
0.0603191
0.922474
6.08679
0.0262354
0.0219821
0.0224495
0.0301743
4.08204
4.21799
2.41954
0.109934
5.35039
7.79515
0.0220627
3.97563
0.0277746
0.0275356
3.8561
0.022285
0.115938
0.0215012
0.958077
0.022118
5.39945
0.0329957
3.54501
0.021792
0.342956
0.103629
0.0431124
0.109703
15.3658
0.0240253
0.0343261
0.0218189
0.157014
0.028631
0.0219808
6.37458
0.0266433
16.3244
14.1363
0.605507
0.0245319
0.0215497
0.144687
3.63248
0.366419
0.0224864
14.1548
0.022271
0.0217352
0.0236915
7.28123
0.0254745
0.206841
0.138958
0.372054
0.0217122
6.95885
0.12426
0.0221911
0.0220112
7.68682
0.0224761
0.0219967
0.0383554
7.20448
0.162742
0.0216629
0.0220153
0.0216888
0.0222855
3.92182
0.213406
4.08622
0.0445865
0.0243156
3.75556
0.0655281
0.468059
0.0215672
0.0220684
0.0401718
0.0818916
0.0222627
0.02199
0.0221249
0.0222461
0.0221273
0.0219902
0.0218649
0.0309694
0.0221404
0.0860605
1.7223
0.334846
0.0261747
0.029063
0.0215472
0.0219998
0.0729499
6.30881
0.0215256
8.29748
0.35701
0.140046
5.86571
6.21594
7.64592
3.97228
0.0230982
6.71161
5.05254
0.295593
0.0219862
0.021742
0.390889
0.0219334
7.13437
6.28563
0.14446
0.04602
0.231308
0.0242325
0.254794
0.0239001
0.0221113
0.138677
0.0699024
0.0222185
0.102562
0.0380109
0.0220809
0.0271963
0.0219614
0.0358959
0.0276638
0.032532
0.113385
0.0412627
0.0219117
0.0257808
0.0215206
0.0274789
0.0218154
0.0774965
5.59757
4.02022
0.0219276
0.695131
0.0219124
0.0219861
0.137987
0.022813
0.257267
0.303879
6.49085
0.0398012
0.0401848
0.802922
0.0466376
0.287069
0.0248389
0.0234356
0.0219705
5.44796
0.0216201
7.97037
3.57478
0.0650835
0.0221601
0.0953789
0.157648
6.53897
5.34579
0.154581
0.0369912
0.0274865
0.279168
5.18563
0.0274699
0.0262158
0.0261811
0.0243086
0.0222312
0.0221169
0.0707115
0.0214795
0.022263
0.5529
0.0222216
3.79102
6.60904
0.194119
0.0218321
7.53273
6.82543
0.0221002
2.01266
13.1908
7.15053
4.19399
0.0409688
0.087936
0.0345076
0.0569364
0.0280169
0.0220471
0.0260527
0.0328077
0.512236
0.0340372
0.0220433
0.0217163
0.25419
0.0424307
0.0217706
0.027032
0.039281
5.70367
4.98159
0.0234201
0.0299352
0.0227969
0.0316277
6.791
0.021737
0.0227073
0.0653869
0.49665
0.0359292
4.56176
0.0221869
0.0224823
0.0590302
8.29166
4.73116
0.0218694
0.148912
5.13811
0.0229754
0.0615355
0.0283452
5.51779
0.0311606
0.0220333
5.73502
6.52287
0.0852638
0.691667
0.0504929
5.51078
0.0239709
5.21995
0.0221222
0.0273216
0.0225893
8.22897
4.89766
0.021997
0.442233
22.946
0.0238338
0.0263785
0.601387
0.0228162
0.187977
0.0221388
5.83639
0.29277
0.111267
0.0219964
0.0220393
0.116565
0.0322234
0.0601365
0.0489816
0.0429603
0.0509225
0.0335579
0.0296684
0.0219113
0.0219715
0.048754
0.0218489
0.176862
4.83095
0.0417271
0.0268397
0.0723551
0.304381
0.0219765
7.16276
0.023379
0.0222072
0.0329706
0.104344
0.0477095
0.0263017
0.0241656
0.0433273
0.0219696
0.238737
0.0520015
0.174609
6.60774
0.568603
0.0221406
0.329148
5.59703
0.141919
0.0445314
0.0219407
0.0471477
0.0220746
0.0268884
0.0220048
0.0243166
0.218914
0.0314611
0.0217884
0.0428327
4.8942
0.0317118
0.0217051
0.0781969
4.83855
5.67009
0.022053
0.0229606
0.198171
0.112949
0.975666
4.27629
0.0220306
3.91047
0.0479307
0.21137
0.0218139
4.27699
0.0371747
0.0220639
0.021961
4.13479
0.14548
0.157512
4.55141
0.0314142
0.04569
0.0236171
0.459504
7.00299
3.77691
2.17279
0.026622
0.146032
0.0220211
0.0221227
0.217134
0.0335347
5.8133
0.406122
0.0607791
0.0295144
5.92479
4.57882
0.021635
7.02663
0.0312239
0.0218175
0.802042
0.0653219
4.07285
0.0252787
0.0322187
0.0225316
1.54407
0.0215932
0.0221181
4.91926
0.0221347
0.0365881
0.0265333
0.023024
0.0241823
4.24992
0.182999
0.0274789
0.0455174
4.73358
0.0654708
0.0220687
1.44784
0.0231514
0.0310292
0.0221078
0.0225603
3.55978
0.0220785
0.0217288
0.197235
0.0218082
0.21912
4.72945
0.278102
0.274208
0.0220131
0.023935
0.166769
0.0219776
8.66237
4.46912
0.213895
0.61411
0.0258985
0.169001
6.19986
0.0219026
0.0584878
7.03078
5.08344
0.0290463
0.0288605
0.0219837
0.0303054
3.47216
0.0249678
5.63005
0.166547
0.0274082
0.0464095
0.140042
0.0246778
0.0219471
0.147106
0.0219674
0.0218777
0.0247279
0.0220625
0.0661072
0.0255606
0.0302084
0.021487
0.0581338
3.7627
0.0259692
4.10998
0.0325151
0.224124
0.0217644
0.0218332
0.563447
3.27653
0.0305336
9.4273
0.0218522
5.95049
0.329515
5.75091
0.0219627
0.076398
0.0221127
3.78517
0.0215509
0.0220089
0.0234293
3.97205
5.61112
0.0299887
0.0218983
6.39041
4.13124
0.307362
6.24934
0.0308867
0.0219617
6.75458
0.0234566
0.0759411
0.275769
0.0220174
0.0318325
0.0216329
0.0216063
4.69708
2.47023
7.62624
0.0450706
0.19134
0.0285159
0.0301213
7.60096
0.0223883
0.0226291
0.0230065
0.163472
0.35238
5.6488
0.0248564
4.94843
0.0218735
5.58037
0.147482
10.1478
0.0229047
1.06523
0.0543445
0.0233154
0.0325621
0.0232813
0.0222659
0.0603453
0.0360018
0.0256721
0.04355
0.0230532
4.7689
32.1727
0.629655
3.82442
0.272129
4.26538
0.0233418
0.0230826
0.0217957
0.0220602
0.160038
0.0697513
0.0312433
0.0349606
0.0218984
0.0255067
7.09243
0.044194
0.159666
4.42172
0.0219854
0.026564
0.106585
0.15973
3.95897
0.0317599
4.34041
0.0220395
0.022081
0.0339525
7.37173
0.0231622
4.27892
0.46632
4.09129
0.0802055
0.107232
0.151556
4.1191
5.03008
0.184112
0.0216102
0.13316
9.17271
0.0221132
0.0444284
0.144435
0.0232396
5.46362
0.0303906
0.022651
0.0357607
4.40009
5.38042
0.0301994
0.515724
0.100617
0.0253266
26.8401
0.0641523
0.0261387
0.0319117
0.0266686
0.134031
0.103269
0.0703616
3.81683
0.0220424
18.0919
0.0240225
0.0220584
0.0228767
0.0216387
5.83372
0.0223433
0.0626762
4.27898
0.0300823
0.0303601
0.0219522
0.022086
0.0216614
2.28481
0.0217394
0.0432281
0.0342642
8.02433
0.0219871
7.94253
0.0237343
0.616674
0.0226422
6.46846
0.0320573
0.0860011
0.0607045
0.0256688
0.0219138
0.0219578
0.0714532
0.0429348
4.82727
0.0220409
0.0233028
0.0309477
5.44146
0.0929706
3.12232
0.133479
4.78826
0.574468
5.16456
0.0495827
0.0216532
0.0402237
0.0257511
5.53414
5.3458
6.11384
0.445446
0.021954
0.0420197
0.179618
0.0218214
0.0418974
0.0231842
0.0219908
0.0218399
0.0582238
0.0221518
0.0301825
0.0897459
0.321609
1.38785
0.0236834
0.0865593
0.0416219
7.25519
5.37456
0.0218932
0.0240721
0.0564867
0.0366599
4.20366
0.0653592
0.0413843
4.36332
0.0216013
0.06918
13.5225
0.0219522
0.0229787
0.0220538
0.0552039
0.0217145
0.0219829
0.0222288
7.10285
3.5779
0.0295728
19.9966
0.022144
5.42486
0.079903
0.0410085
0.0221373
0.0219514
0.137234
3.77641
0.10682
0.0675854
0.0225261
0.0223434
0.0552192
0.0402561
0.0219685
3.19296
3.87916
3.79343
0.0221365
3.71396
0.0229838
1.27713
2.23454
0.0220865
7.37219
1.10942
0.0230211
0.0751168
0.0222591
0.0256054
0.0626143
0.0216879
0.0216806
0.0221633
5.31833
0.0520654
0.0215686
0.0725024
0.0290643
0.022232
0.0216411
0.0224702
1.85299
0.0236066
6.8885
4.12075
0.0220943
0.530192
0.0217756
0.0220562
0.0385503
5.76003
0.0218193
0.0216734
5.26436
0.0226716
0.0239937
0.0221419
0.0245576
0.0217684
0.0216647
0.0217889
0.025791
0.0222
0.0217532
0.0222127
0.0303284
0.0221172
0.0509508
5.53653
0.0220079
0.0221847
4.53281
0.0220541
0.0217885
0.0215704
0.0347377
0.0221814
0.0220626
0.140514
0.021584
0.0217002
0.0339168
0.0526146
4.58368
0.0221597
0.0217225
0.0661961
0.0824614
2.68278
5.65487
0.0237392
0.131479
0.0672844
8.05798
0.616469
0.0318453
8.68625
0.0223007
0.0219883
0.0216934
0.0216672
0.0291746
0.0219218
33.0471
5.74601
2.49016
0.150353
3.26071
3.94797
0.0219999
0.0217854
0.0714543
0.0223226
0.32555
1.12959
0.0214955
22.4087
0.0738066
0.0218235
4.72097
0.0953038
0.0738563
8.07507
0.0294939
4.57143
3.7324
4.33308
0.119075
0.0260982
0.0266322
6.41242
0.0222709
7.93729
14.5429
0.0218044
0.0220246
4.92884
0.454334
0.235738
0.0217519
0.0318693
22.9955
0.0221519
0.0761905
0.0323758
7.25053
0.167992
9.40716
0.0218802
0.467932
0.0219282
0.0217146
0.022822
0.101004
0.0639231
0.15292
0.0356092
0.021979
0.0702759
0.0251293
0.159833
5.52635
0.0219806
0.0222927
0.0224844
5.375
0.0222179
0.0219064
0.0221404
0.0352899
4.78467
0.0219797
0.0220565
9.28778
0.376058
0.0390478
5.4654
0.204189
7.83444
6.37792
0.0224736
0.0626337
7.73952
0.0477387
0.0218427
0.0221019
6.66988
7.47482
0.0222724
0.0913496
0.139543
3.86093
4.70841
2.52614
0.0219977
0.452256
6.09784
0.125315
0.0254186
8.46625
10.2569
0.0216784
0.0263126
0.0219761
0.0225515
3.71401
0.0220286
4.62781
1.8005
0.0220134
0.0743573
4.66637
2.21395
0.0221559
0.0225157
0.0219084
0.102344
25.3089
0.021911
4.3939
0.087751
4.97095
5.60943
5.43632
4.16384
0.0227211
0.0222169
0.0214963
0.0222338
5.31193
0.203503
0.0245378
7.21246
0.0217865
0.0669324
0.0224743
0.0222727
0.0220664
0.105352
0.0220265
6.89512
0.0218797
0.0225377
0.0222053
4.11536
0.0311767
0.0216739
0.0228262
4.12266
0.173742
6.38185
0.0240726
0.124074
0.731475
0.0230668
0.0215565
0.023051
0.0219797
5.4473
0.0480611
0.0218275
0.0221753
20.3026
18.6068
0.0738392
0.0218287
0.0224414
0.0533601
0.0688593
0.0219174
2.44986
0.0220842
0.0445889
0.0221227
0.0377554
3.79358
0.0223466
0.0223077
6.85716
0.384426
0.0221408
5.18591
0.0228667
0.31504
4.45715
0.1017
5.61003
0.0653222
0.144016
6.47865
0.0218686
5.105
0.0222583
0.0226197
4.37545
0.0220299
0.25886
0.124133
0.0235251
7.2332
5.73489
0.99085
0.428442
5.62012
0.115967
0.0221027
0.0339065
0.11216
0.0227341
16.3479
0.025709
0.0239919
0.0227274
0.0852427
0.889253
0.0218271
3.91537
6.71863
0.0227549
6.18758
0.0218006
0.0219862
3.68043
0.0217369
0.0319845
4.9755
3.64581
0.0754162
0.135905
0.22061
6.19516
0.0221806
0.0635087
0.0215962
4.43516
5.64678
0.0233146
6.57351
0.0218405
0.761664
0.212838
0.199049
0.130116
0.0216138
0.0702386
0.0611455
0.0434582
0.30613
7.88772
0.0521902
0.0222635
4.81164
0.0254938
0.0827267
0.188456
0.122377
4.53933
0.0217494
0.203651
0.0367686
0.0241221
0.0218946
2.78719
4.63712
0.0221249
0.0219731
0.203845
6.80958
0.0217115
0.0314309
0.0223057
4.53192
0.0222304
4.87318
0.0223387
0.0297649
7.29248
0.050885
9.21777
0.0238963
0.0726832
4.40899
0.0263013
0.0222858
5.319
0.0214495
0.150529
0.0220772
0.0217045
4.60267
0.0320313
4.49386
5.40579
0.0475518
13.8195
0.186206
0.0221302
4.15478
0.0218824
3.89941
0.0219004
0.295509
3.91996
0.133475
0.065421
0.0219654
0.0228496
0.0500857
0.0691563
0.0218818
0.0280866
4.59179
4.53573
0.0219763
8.60121
0.0225588
1.00598
0.0222301
0.0677416
5.7813
0.0257142
0.0282616
0.0216902
0.0264907
0.0216415
0.0221528
0.0241976
4.21202
0.0594095
0.0328559
0.0219309
0.0217894
0.0221442
5.98838
0.0336798
6.40013
0.0220019
27.7764
6.1628
0.0234633
4.19109
0.0337136
0.0325083
0.0403104
0.0483511
10.3111
0.0216266
0.297629
0.0642655
0.0381716
0.0221449
0.152221
0.0219059
0.0218803
0.0331101
0.0214715
0.571797
4.48176
0.0252391
6.90964
0.0275906
0.0329463
7.50532
0.0529182
3.65361
1.17482
0.0228765
0.029868
0.0260131
0.0390495
0.0219867
0.0264329
0.02222
0.0220008
4.9205
0.0320038
0.0218372
0.0219109
0.174369
0.0524481
0.0222654
0.0230244
9.66346
0.0216017
0.040658
0.0218833
0.0222723
0.050647
0.0222717
0.0308093
0.0364644
6.25726
0.0240364
0.0238458
0.0224087
0.0245251
0.071541
0.0227897
0.0268168
0.0222856
0.0222856
0.269797
0.410509
0.0239221
0.0401816
0.0345889
7.91084
0.040603
0.0216898
1.76907
0.23264
0.0237565
9.12956
0.0219143
0.0223723
7.50824
0.0218114
0.0219396
0.0373962
0.474219
0.0311293
0.0232122
0.0220287
0.0270921
0.050747
0.021959
7.4058
0.0222708
0.276724
4.281
0.0215434
0.0230698
0.0274853
0.175255
4.99993
0.0226571
0.0682
8.95672
3.70081
0.0219295
0.0344926
0.0263581
0.0215282
0.0299453
5.92041
0.0218231
5.55658
7.18955
1.22733
5.5904
5.49074
0.078253
0.577967
0.0216968
0.082164
0.0275004
6.16986
0.825318
0.25357
0.0285625
0.21866
8.41279
0.0220734
5.44812
0.02543
0.0218222
0.0410331
0.0221996
0.0664145
0.0389215
5.81358
8.84228
0.0288548
20.7534
0.027377
0.0294724
0.493719
0.022227
0.150938
0.0218405
5.70572
0.0769235
0.194452
3.41024
0.0716539
0.0215002
5.36311
0.540944
0.0485791
5.90616
1.42032
0.0219761
6.43978
0.0219847
8.08583
0.0217848
0.0372802
8.37244
0.0338976
0.0219975
0.274851
3.48514
6.26666
0.0215488
8.66129
0.0220384
0.0321248
0.0396141
0.167817
0.0215105
0.0511981
0.0530254
0.159742
0.0224864
0.0286894
0.0221509
5.9796
7.95437
0.0220765
5.41103
0.0219294
0.0253365
0.0333258
0.0220054
0.298373
0.033073
0.0227521
0.0220074
0.0226761
0.0220117
0.0359362
0.0288347
0.0713395
0.022018
0.0220263
0.0222522
0.022028
0.0301988
0.0332497
0.0220364
5.02518
5.30837
5.42351
0.0220447
0.185369
0.527623
0.470687
0.0220563
0.0345421
0.0223205
0.0220677
1.81406
0.0709592
0.022069
0.0220802
5.64098
0.0222563
0.0411018
0.0262755
0.0220944
5.39297
4.94027
0.0220019
0.0218524
0.0217506
0.433757
0.0267856
0.0314843
0.0417978
0.166817
0.0215567
0.0221446
0.0221094
0.0610515
0.0321999
0.0232372
0.0216333
0.491816
0.0221514
5.88769
3.99461
0.0308743
7.40427
0.0291558
0.0220325
0.0325908
8.41458
0.495848
3.68433
0.206564
0.0357647
0.0494834
0.0368086
6.46389
0.0220791
4.59746
3.35106
0.0311644
7.74607
6.28065
10.7587
0.0416008
0.0348554
0.0285592
0.0220627
5.32551
0.022823
0.0330094
0.0219895