/*--------------------------------*- C++ -*----------------------------------*\
| =========                 |                                                 |
| \\      /  F ield         | OpenFOAM: The Open Source CFD Toolbox           |
|  \\    /   O peration     | Version:  v2012                                 |
|   \\  /    A nd           | Website:  www.openfoam.com                      |
|    \\/     M anipulation  |                                                 |
\*---------------------------------------------------------------------------*/
FoamFile
{
    version     2.0;
    format      ascii;
    class       volScalarField;
    location    "400";
    object      p;
}
// * * * * * * * * * * * * * * * * * * * * * * * * * * * * * * * * * * * * * //

dimensions      [0 2 -2 0 0 0 0];


internalField   nonuniform List<scalar> 
13749
(
0.00306988
-0.0448609
0.0395368
-0.0160227
0.0294394
-0.0814051
0.0415651
-0.019515
0.0330742
-0.017084
-0.0432621
0.0208217
-0.0470018
-0.0367224
-0.0344415
-0.0265996
0.0354756
-0.0501214
0.0171901
0.0292641
-0.191193
-0.0360112
-0.0445275
-0.0431476
0.0324574
-0.0567618
-0.0532809
-0.04426
0.00066603
0.0558155
-0.15667
-0.0375713
0.10599
-0.0401987
0.00706808
0.00195601
0.0412556
0.0291967
-0.0297446
-0.0456262
-0.0796486
-0.122246
0.0872813
0.106365
-0.0502735
-0.0396442
0.0219733
-0.0744698
-0.0016861
-0.32183
-0.0432201
-0.188887
-0.046309
-0.0786504
0.00990214
-0.000893905
-0.0521036
0.102785
0.00486556
-0.0821286
0.0186098
-0.0152021
-0.033544
0.0210001
-0.0101635
0.08176
0.0331233
0.0286332
-0.0295927
-0.0385045
-0.0376323
0.0087071
-0.0814521
-0.00237774
-0.044544
-0.089075
-0.0279294
0.00509839
-0.0524635
0.0205131
0.00170748
0.0403443
-0.0433402
0.000422674
-0.0796965
-0.0633301
-0.067999
-0.0879262
0.00743303
-0.0719428
0.0102755
-0.0785413
-0.016816
-0.23175
0.197649
-0.0558334
-0.036328
0.0304422
0.00872417
0.0787594
-0.10784
0.00239787
-0.0298929
-0.037569
0.0257083
-0.0375869
-0.0799947
0.0301706
-0.0711964
0.0289307
0.0210236
0.0918688
-0.0823601
-0.341024
-0.143644
-0.012768
0.0026238
0.0147024
0.0561675
0.00300589
-0.0191857
0.0182264
0.00216447
-0.000549523
0.0357236
-0.0389738
-0.0800197
-0.0586482
-0.0409641
-0.0848742
-0.0322224
-0.0435558
-0.0678628
-0.0808371
-0.0594069
0.0704028
-0.0443297
-0.00191425
-0.0197906
-0.303328
0.167967
-0.0455936
-0.0352544
-0.211915
0.00760722
-0.305437
-0.0471903
0.0202742
0.055328
-0.0499349
0.00805083
-0.0390294
-0.0374706
-0.115852
-0.0308943
-0.0768578
-0.0473415
-0.0570075
-0.0449372
0.0241921
-0.32866
0.0148361
-0.270775
0.104475
0.0284389
0.0236558
-0.0877013
0.0386394
0.0564078
-0.0475247
-0.0363437
0.0291931
-0.00207367
-0.0405589
0.0665923
0.0347377
-0.098843
-0.0307536
-0.0618779
-0.0704436
0.0255925
-0.0398057
-0.0375116
0.14208
-0.0747062
0.0691867
-0.208421
0.00173736
-0.253109
0.0178725
-0.038353
-0.0431407
-0.0227617
-0.109192
-0.197999
-0.0721347
-0.0773493
-0.333084
0.00219837
-0.0405665
-0.00245105
-0.0428997
-0.0560551
0.0795927
-0.0336602
-0.0183159
0.006258
-0.110902
-0.0716117
-0.0935123
-0.0135623
-0.0380014
-0.169417
0.12939
-0.0550533
-0.101388
-0.0356428
-0.0421766
-0.0324663
0.00103986
-0.287693
0.0760771
-0.0808162
-0.13458
0.0749755
-0.0844437
-0.0190188
0.176405
-0.0353567
-0.03899
0.035957
0.0262534
0.0181347
0.0216548
-0.0385928
0.0364268
0.0258645
-0.0734604
0.0288732
0.0345801
0.0283332
-0.136656
-0.0389759
-0.0655964
-0.0878942
-0.193071
0.0408464
-0.032866
-0.0386257
0.0334829
-0.300045
0.0704365
0.0110484
-0.0173716
0.167375
-0.0447052
0.0306895
-0.27254
-0.0591515
-0.330253
-0.00339205
0.103036
-0.0738496
-0.00772763
0.0558723
-0.0441025
-0.0648597
-0.0585553
0.121426
0.172913
0.00104065
-0.155174
-0.0452309
-0.220212
0.00250275
-0.0586996
-0.193179
-0.0400933
0.172514
-0.0399368
0.0233772
-6.20625e-05
-0.152394
-0.233108
-0.0471723
0.0566974
-0.0665549
0.00421634
-0.243851
0.025855
-0.045471
0.000249691
-0.0312662
-0.0431339
-0.0387048
-0.0706656
0.0316307
0.00275667
-0.025581
0.00338118
-0.0286493
0.00713435
-0.0386816
-0.298688
-0.0390727
-0.00395393
-0.0107916
0.0282332
-0.0207533
-0.0411437
-0.15307
-0.0795442
-0.00731412
-0.072562
0.00119131
0.0282712
-0.0307361
-0.0372224
0.00224991
-0.0322733
-0.105614
-0.0598965
-0.055684
0.0202331
-0.329765
0.0263091
0.00746038
-0.00220686
0.0311145
0.0573191
-0.00187582
0.0207729
-0.000835547
-0.0471732
-0.00584394
-0.0188962
-0.00153002
-0.0528948
0.0315167
0.0787564
0.0310143
-0.141813
-0.0058233
-0.0418647
-0.0935059
-0.0202538
-0.0315918
0.0619672
0.00479276
0.0308922
0.020226
0.0205023
-0.327503
-0.320642
-0.0171984
0.0126102
-0.0814008
-0.0425574
-0.0424889
-0.157468
0.0351248
0.0262524
0.00100053
-0.234915
0.1864
0.0230311
0.0128848
-0.132926
-0.0367665
0.0310472
-0.0394237
-0.0453847
0.110516
0.0203743
0.0232622
-0.0185197
-0.0324204
-0.334271
-0.125259
-0.0369951
0.0264342
0.0307315
-0.0350115
0.0615818
0.0263133
0.00425964
-0.0368063
0.0215378
0.0237555
-0.0297399
-0.0612219
-0.0864211
-0.217219
0.0167127
0.06349
-0.213696
-0.331793
-0.151783
-0.0545686
-0.0865777
0.014474
-0.0816301
0.0162954
-0.0429726
-0.0200591
-0.0463979
-0.193874
-0.056217
-0.043078
0.00435425
-0.0263905
-0.0350111
-0.0537198
-0.067051
-0.0261626
0.0266458
-0.0351589
-0.0383488
-0.0394166
-0.0570283
0.0293899
-0.0801731
-0.242565
-0.0291106
-0.0643899
0.0164832
0.119573
-0.317102
-0.0493595
0.0570982
-0.0749238
0.0198462
-0.0642707
-0.0367303
-0.115667
-0.039548
-0.0198755
-0.00919074
0.0304433
-0.117496
0.032694
0.0498926
0.0220938
-0.037748
-0.0205933
-0.00291033
0.0147453
0.137772
-0.0798831
-0.12859
-0.148211
0.074463
-0.266277
-0.00078274
-0.230046
-0.0519196
-0.0199086
-0.043423
-0.198217
0.030569
0.0167998
0.0220711
-0.0286926
-0.134959
-0.0289745
-0.0360527
-0.0463188
-0.170756
-0.322896
0.104019
-0.0386926
0.0157731
-0.162598
-0.092782
0.0211661
0.0287882
-0.0487821
-0.0880675
0.0333664
0.0486647
-0.0440234
-0.0202116
-0.0029001
-0.031696
-0.0575086
-0.208651
-0.255901
-0.0324497
0.0177281
-0.0351366
-0.0253177
-0.0203088
0.0164971
-0.0447886
-0.0026585
-0.00266237
-0.226598
-0.00900442
-0.328785
0.0124765
0.0571808
-0.0446557
-0.0310661
-0.086659
-0.00905514
-0.0489442
-0.0439936
-0.0430277
0.0276203
0.00463268
0.026172
-0.0175563
0.00682426
-0.0485348
-0.0328786
-0.257537
0.111988
-0.0407715
-0.0418642
0.0172929
-0.0396162
-0.281067
0.0359772
-0.0442153
0.0513972
-0.0106362
0.0256847
-0.0511258
-0.00194159
-0.110684
0.0196528
0.184226
0.0210746
-0.0360343
-0.0387496
-0.0813222
0.0402476
-0.0405714
-0.0321824
-0.0387458
-0.039403
-0.248685
-0.0463246
-0.0453424
-0.320465
-0.0434496
0.048515
-0.0333338
-0.139726
-0.0398907
-0.0429286
0.0680416
-0.0379888
-0.0449878
-0.0549379
-0.02672
0.0260888
-0.0453263
-0.0263577
-0.111751
-0.0373289
0.00254707
-0.00458046
-0.0424176
0.0661776
-0.115389
0.0312502
0.0337457
0.00345637
-0.104624
0.0262517
-0.141327
-0.0322692
0.0165195
-0.0199449
-0.010165
-0.0688147
-0.104209
-0.0531625
0.0857751
-0.0202538
-0.0430922
-0.333481
0.0967252
0.0352059
0.0242361
0.14842
-0.0378662
0.0161792
-0.0235454
-0.0411486
-0.0267686
0.0192725
0.0624347
-0.0435235
-0.0381496
0.00579112
-0.308571
-0.229144
-0.0313739
-0.0312619
-0.0389176
-0.0630675
-0.0796799
-0.333253
-0.0295115
-0.0504976
-0.0654288
-0.322899
0.0246921
0.0213004
-0.0301722
0.00992348
-0.0322574
-0.0428599
-0.0524546
0.0199266
0.0231191
0.0276709
-0.0387977
-0.0569354
0.0289207
-0.0826973
0.0023131
0.0427578
-0.272121
0.025961
-0.233447
-0.0229867
0.0302441
-0.0384263
-0.00320811
0.178
0.0157694
-0.0323749
0.0164756
-0.0305517
-0.0176256
-0.0384781
0.00319932
-0.000402258
0.0320913
0.0149685
-0.277836
-0.112452
-0.0382887
-0.110558
0.0352
-0.171819
-0.035792
0.00119465
-0.0406183
-0.0430943
-0.00499997
0.0166215
-0.0519994
-0.136151
-0.0739186
-0.0491878
0.0244551
-0.0101915
-0.112427
0.0263178
-0.0766104
0.0167212
-0.108728
0.0185057
0.0168804
0.0279925
7.46129e-05
-0.0386502
-0.0627557
-0.0846072
-0.00298621
-0.0267993
-0.178762
0.0772332
-0.0286469
-0.0314518
-0.0343454
-0.0493314
0.014057
-0.281762
0.156899
0.0444361
-0.00345806
-0.0792808
-0.0966436
0.00128913
-0.0964045
-0.309666
-0.0626426
0.0219782
-0.00208185
-0.000781675
-0.0325225
-0.0151572
0.00274533
0.074972
0.00739861
-0.0398381
-0.00283497
0.0334769
-0.0233078
0.0248333
-0.0273269
0.0158947
-0.0576646
-0.0429955
-0.157981
-0.0386917
-0.0817027
-0.077233
-0.0439926
-0.0312165
-0.11803
-0.0679955
0.03042
-0.124486
-0.0479806
0.0514431
0.124667
0.0209016
-0.333443
0.0115002
-0.0432031
-0.120469
0.0227723
0.0440967
-0.0899154
0.0122328
-0.169631
-0.0532266
-0.0399003
-0.228116
-0.0618366
-0.00246532
-0.0363951
-0.018234
0.00526589
-0.0371344
0.0453318
-0.0404868
0.0239821
-0.144241
0.00150975
0.055782
0.0209774
0.0794918
0.164314
-0.0346361
-0.048214
0.0155617
0.0154067
-0.0505958
-0.233853
-0.0185276
0.0163245
0.00775925
-0.0504125
0.00302457
-0.0380252
0.0256648
-0.0415242
-0.08838
-0.0366312
0.0253178
0.0153096
0.0265774
0.0258533
-0.23899
-0.0329202
-0.0343789
-0.071858
0.105983
-0.034348
0.0282909
0.0242745
-0.0531145
-0.0326376
-0.00537428
-0.0367669
-0.0386047
-0.0199813
-0.212493
-0.0261622
-0.286332
0.0286665
-0.113284
-0.0686752
-0.0382267
-0.0399173
-0.046835
-0.0439454
-0.284505
0.00714126
0.0370696
0.0297012
-0.166163
0.0146415
-0.187391
0.230934
0.0348397
0.0217849
0.0334682
-0.0343349
0.0317329
0.045446
0.0189611
-0.0408062
-0.180552
-0.0465861
-0.104137
-0.144989
0.0015758
-0.097575
-0.0468757
-0.225632
-0.0370937
-0.10851
0.0707859
-0.144549
0.0174106
-0.0363941
0.189841
0.0132094
-0.0353306
-0.0365022
-0.0338092
-0.0314694
-0.0521487
-0.0376418
0.0589276
-0.157897
0.0138629
-0.174812
-0.149905
-0.0328568
-0.0973092
0.133307
-0.171454
0.0359243
0.0203863
-0.311019
0.0290098
-0.0311616
0.0151989
0.0222128
0.0164977
-0.0410163
0.0264594
0.00215091
-0.0552718
0.0294012
-0.0396967
0.0131977
0.127787
-0.0193238
0.192133
0.0271335
0.25939
-0.144455
-0.103616
-0.0438201
-0.0482114
0.0665227
-0.0871777
-0.0424739
0.109906
0.0278586
-0.267665
0.0734611
-0.0805561
-0.0289082
-0.149216
-0.214386
-0.0705856
0.0262768
-0.0279983
-0.0372484
-0.0316336
-0.0425705
-0.037377
-0.0434068
-0.044462
-0.0457013
-0.0421536
0.0103935
-0.0345228
-0.0410253
0.0192718
-0.0119407
-0.0641927
0.000271808
-0.0999884
-0.305156
0.0282618
-0.0432201
-0.00312397
-0.0391113
-0.0111281
0.0194948
0.019591
-0.0965077
-0.0354766
0.0172775
0.0131805
0.095237
-0.208271
-0.0795466
0.0307965
0.00373074
0.00263998
0.0253223
0.0283145
0.0411689
0.0586343
0.228899
-0.218856
-0.0395025
-0.0495221
0.063974
0.0266749
-0.0142773
-0.17047
0.125461
-0.0835642
-0.040028
0.0197081
-0.173464
-0.0447932
-0.0428577
0.0292749
-0.0948837
0.0552999
0.0262479
0.0595354
0.000572099
-0.0427981
-0.0544852
0.108795
0.0167967
-0.0346109
0.0204111
-0.0617909
-0.270632
0.0252748
-0.184174
0.00972082
0.0124125
0.0324423
0.0200532
-0.0137843
0.0405714
0.00704775
0.0303172
0.00387961
0.0531317
0.0129591
-0.0357493
-0.00399194
-0.0380754
0.0187032
0.0572348
-0.0400339
0.0660942
-0.0652125
-0.0353298
-0.335585
0.0134753
-0.0102562
-0.037318
0.0602114
0.0189428
-0.0216489
0.0220837
-0.0273529
-0.0451977
-0.103833
0.00156793
-0.0393079
-0.175809
0.0147373
-0.0436547
-0.0162903
-0.111836
0.0943685
-0.0510481
-0.0730546
-0.246051
0.00983434
-0.144703
0.0826509
0.0187722
-0.0490642
0.0238468
0.0225599
0.0398305
0.0161927
-0.0408046
-0.06078
-0.00333443
-0.208176
-0.113193
0.014339
-0.177222
-0.0536916
-0.0392979
0.0798528
-0.332146
-0.0976948
-0.0318334
-0.0489859
-0.00896111
-0.170552
0.0276873
-0.0455882
-0.0765273
-0.329916
0.0329124
-0.051017
0.0239747
-0.0368996
-0.0428292
-0.169928
0.0364818
-0.0338521
-0.226912
-0.00401212
-0.0350602
0.0986918
-0.239895
-0.041281
-0.0403172
0.0200289
-0.0859803
0.0299776
-0.0412214
-0.0338761
0.0304398
-0.0728632
0.0320382
-0.150743
-0.0448531
0.0314177
-0.195819
-0.0172021
-0.00227108
-0.074836
-0.00846401
0.0302377
0.0233179
-0.0361503
0.0270422
-0.328197
0.0260414
-0.0245924
-0.00123436
0.058019
0.0266067
-0.288326
-0.0857265
-0.0429937
0.0464515
0.0227388
0.0264485
-0.01412
0.02221
-0.0648831
-0.190417
-0.00139963
-0.0293581
-0.18307
-0.0415593
-0.0445058
0.0131654
-0.0729165
0.0438229
-0.0152537
-0.0397807
0.0189981
0.0321566
-0.0393368
0.00565681
-0.0185179
-0.0425751
0.0146874
-0.0418526
0.10479
0.0175877
0.0510538
-0.0386992
-0.0896971
-0.0650231
-0.0215491
-0.0391486
-0.0204301
0.014898
-0.161874
0.0225552
-0.0428505
-0.0385208
-0.130635
0.161814
0.0137218
-0.045556
-0.00167852
0.158491
0.0456613
0.119572
0.028493
0.0348634
-0.0349739
0.0266708
0.026345
-0.0631335
0.00180323
0.0222983
-0.00206681
-0.283824
-0.0998412
-0.0278694
-0.320055
-0.0890105
0.0250301
-0.0475549
-0.0546511
-0.0301997
-0.314115
-0.038367
9.36668e-05
-0.163563
-0.0471829
-0.329515
0.0211415
-0.0414031
0.0264082
-0.0937412
-0.00419471
0.0177477
-0.334109
0.02231
0.0119377
0.0191025
-0.0428604
-0.336845
-0.0820568
0.0163955
-0.0431793
0.0322413
-0.277251
0.0159049
-0.0112148
-0.0744722
-0.0130661
0.0351239
-0.111886
0.0297097
0.0262972
-0.0347353
-0.035068
0.00327542
-0.0304605
-0.00359266
0.0328925
0.0143607
-0.00178966
0.0315648
-0.0752714
-0.0719753
0.0443841
0.108617
0.0420153
-0.0320487
0.0187438
0.0221104
0.0568632
-0.0335924
-0.0360972
0.0250882
0.018509
-0.212363
-0.0351939
0.0134647
0.0499959
0.0327643
-0.0364809
-0.330992
0.0593384
-0.0484114
0.0282032
0.00110996
0.0139558
0.0158904
-0.0346749
0.0606998
0.00438935
0.015627
0.00355254
0.0180437
-0.0350532
0.0101002
-0.312295
0.0355564
0.056395
-0.0418181
0.0185415
0.0152068
0.00847582
-0.0415868
0.172431
-0.0389874
0.0595772
-0.0449676
-0.0432159
-0.00352605
0.150497
0.0232036
0.0379582
0.053969
-0.140133
0.0331593
0.0302073
-0.081208
-0.033137
0.0214298
-0.18789
-0.208425
-0.0204221
0.0227498
-0.040879
-0.0411931
0.0209231
-0.0371463
0.0288345
0.0356229
-0.00698981
-0.0337776
0.0180982
0.0262223
0.0138128
-0.0210043
-0.141564
0.179222
-0.0420245
-0.0506184
0.0556305
-0.0311194
0.105842
-0.0397103
-0.14901
-0.0988148
0.00510133
-0.0606728
-0.0136051
0.0105751
-0.0428577
-0.0431087
-0.0375211
0.0571832
-0.0447292
-0.0771951
-0.18233
0.0277312
0.0477086
-0.0654355
0.0179524
0.0156018
-0.0428299
-0.0818619
-0.0806161
-0.0285099
0.00415765
-0.0586265
0.033006
-0.0356195
-0.0692503
0.0252597
0.0186133
0.0182325
-0.177847
0.0182801
0.0257095
-0.286797
-0.0502682
0.00305967
0.0489699
-0.0436642
0.0257017
0.0383058
0.0202295
-0.0218224
0.00212499
-0.0382298
-0.0397331
-0.087807
0.000331826
0.0340481
-0.0329397
-0.00144879
-0.0440408
-0.0543529
-0.12963
-0.0336096
-0.0465154
0.0328456
0.0286348
-0.0575557
0.00735834
0.0721739
-0.305187
0.0456307
-0.0097481
0.0164364
8.87274e-05
0.0164836
-0.0357258
-0.0332851
-0.0119083
-0.0187742
0.0316861
0.027472
0.0131042
-0.0777568
-0.0436492
-0.00144816
-0.0291359
0.00407582
0.040741
-0.0500319
-0.0492339
0.0249136
-0.0439809
-0.325835
-0.00800022
0.0031664
-0.00966672
0.00368624
-0.0383389
-0.072856
-0.00457846
-0.0856713
0.0210936
0.0296014
0.0299601
-0.0871194
-0.106776
0.0190557
-0.0607838
-0.0482722
0.0621247
0.0108238
-0.2279
-0.0322869
0.00182197
-0.0354742
-0.0204694
-0.0430885
0.0182515
-0.0171569
-0.0857513
-0.0354919
0.0135085
-0.033633
-0.312702
0.0155428
-0.0587724
-0.0143394
-0.0558782
0.0244217
-0.016266
-0.0305776
0.151146
0.0526682
-0.161257
0.0247353
-0.0418231
-0.00904619
-0.0437444
-0.0371207
-0.324372
0.0395578
0.0187327
-0.325406
-0.177062
0.00646975
-0.0400493
-0.0116324
0.0204365
-9.19855e-05
0.0159695
-0.337437
0.0261117
-0.079219
-0.0381805
0.0162151
-0.0506539
-0.0292447
-0.0366227
0.0199987
-0.0253733
0.0151788
-0.0552069
0.0331134
0.0255513
-0.0438114
-0.0768874
-0.274595
-0.0415327
0.0186126
-0.0370227
0.0945128
-0.0428499
0.045449
-0.0467286
-0.0926218
-0.0038653
-0.155612
0.00752605
0.0221477
0.0265584
0.0240098
-0.0421582
-0.0457168
0.0023489
0.00309757
0.0310813
0.0265167
-0.0393528
-0.302951
-0.0440609
-0.0190474
-0.075192
2.92771e-05
-0.0596929
-0.0415099
0.0157746
-0.10725
0.0208842
0.156307
0.176453
-0.0360656
0.0232095
0.0263316
0.0431138
0.0263868
-0.0356411
-0.0476284
-0.0273764
0.0543796
-0.00996681
-0.0566405
0.0159376
0.0194281
0.0191819
-0.0439103
-0.00854353
-0.0600167
0.00987179
-0.125936
0.0387299
-0.02165
0.0152423
-0.0530131
-0.00132516
0.0194789
-0.0315825
0.0203824
-0.0527324
-0.0425526
0.0699636
0.0181835
-0.0395145
0.0828976
-0.0616698
-0.0093313
-0.115506
0.0207056
-0.0499771
-0.0405717
-0.0686511
-0.00772971
-0.0410908
0.0377374
-0.00621454
-0.102403
0.00090932
-0.0462633
-0.0270349
0.0234053
-0.111153
0.0156917
0.0253794
-0.000497057
-0.142998
0.000357276
0.00165907
-0.299252
-0.0417885
-0.0376612
0.0119156
-0.042094
0.00718115
-0.0420361
-0.0332527
-0.0598449
0.0318182
0.0192906
-0.160699
0.0186271
-0.0728359
0.0186273
0.0261396
-0.0437045
0.00556139
-0.0439547
-0.0442624
-0.287713
0.0184964
0.054976
0.0314417
-0.0640895
-0.0615784
-0.0509275
-0.0503726
0.0273328
-0.301388
-0.0898775
-0.04438
0.0165277
0.0683064
0.0161633
-0.0405561
0.0476232
-0.259705
-0.0305367
-0.0464074
-0.042456
-0.166429
-0.068704
-0.105598
0.019569
-0.00334557
0.0166899
-0.107685
-0.0209059
0.0184396
-0.148349
-0.0391465
-0.141336
-0.0181709
-0.0136867
-0.0746375
-0.289773
-0.29063
-0.0513965
0.162123
-0.0899926
-0.0415629
0.0106338
-0.0422753
-0.0423688
-0.321691
-0.137994
-0.0523236
0.0162131
-0.191165
0.0323135
-0.0687898
0.0121286
0.0272693
-0.0437149
-0.0423238
0.0161662
0.0960424
-0.0726101
-0.0789577
0.145016
0.0157839
0.0254718
-0.113733
-0.0386225
0.150019
-0.120865
-0.322805
0.0197347
0.0194469
-0.0375178
-0.0364302
0.0372346
-0.0236123
0.00277747
-0.144306
-0.0695486
-0.0445446
0.0314843
0.123151
-0.0883429
-0.0493008
0.0215872
0.00130171
0.100664
0.0188486
-0.0382307
0.0570829
0.0293418
0.0273285
0.024276
-0.0275637
-0.0447616
0.00789965
-0.19091
0.0285564
-0.0755768
0.0187163
-0.037037
-0.179372
0.0279253
-0.027424
0.0419246
-0.302611
-0.0346947
-0.0154834
0.0104299
0.0920961
-0.0127833
0.0379864
0.0184549
0.0122576
-0.0391095
-0.0471103
-0.104248
-0.0346772
0.0277153
0.172034
-0.232039
0.0189619
0.0110325
-0.134195
0.017397
-0.0458964
0.0167515
-0.0410802
-0.0555462
0.0180486
-0.0423332
-0.0430845
-0.211857
-0.0351753
-0.00600285
-0.0557942
0.00481752
-0.104727
-0.0248989
-0.00471049
-0.0528804
-0.0352764
0.0132187
0.0378858
0.0317438
-0.159267
0.0204036
0.00116427
0.0186411
0.00507536
-0.0393012
-0.0280446
0.184042
0.0133615
0.0565266
-0.121705
0.0255829
-0.036686
-0.0656463
-0.00557555
-0.0427005
-0.129166
0.000995145
-0.0247118
0.0022148
-0.230466
-0.0043734
-0.0602854
0.0377123
0.0260645
-0.0969016
-0.0993499
-0.0402905
-0.225133
-0.0353993
-0.288482
0.00168096
-0.0362465
-0.0365275
-0.042194
0.146243
-0.180799
0.0379781
-0.23902
-0.173109
-0.058372
0.0214687
-0.052937
-0.0827987
-0.204676
-0.16272
-0.0817774
-0.0063012
-0.0361738
0.000965465
-0.0353126
0.0197495
0.0494515
-0.0276731
-0.0361279
0.0050418
0.0229878
-0.13145
-0.100424
-0.0419781
-0.000696677
-0.332267
0.0305954
0.0604375
-0.034723
0.0124089
0.0233783
0.0214835
-0.0430068
-0.0967324
-0.0771848
-0.00337679
0.0110903
-0.326405
0.0155332
0.0693543
0.0260258
-0.0035076
-0.0363527
0.0586243
0.245273
-0.0387006
-0.0820416
-0.0153796
0.0238742
-0.0156919
-0.0362075
-0.0332599
-0.0411449
-0.0439952
-0.110595
-0.0428613
-0.335161
0.0209306
-0.0392718
-0.0372395
0.0242503
-0.0404968
0.0187816
-0.141981
-0.00367454
-0.230534
0.0187982
-0.0346348
0.0288846
-0.0465211
0.000858977
-0.13027
-0.120171
0.132047
-0.0434361
-0.0318744
0.017082
-0.0346542
-0.00288109
-0.0424726
0.120264
0.0174787
-0.322239
0.0897715
-0.331006
-0.325978
-0.215158
-0.0311736
0.0013563
-0.153151
-0.0408472
0.146864
0.0629086
-0.301884
0.0229257
-0.0109536
-0.0259191
-0.218004
-0.03371
-0.172473
-0.0688457
-0.112731
-0.0105881
-0.239602
-0.105552
0.0266552
0.0325598
-0.240763
0.0525422
0.0320404
-0.0573818
-0.333796
-0.0423253
0.00487185
0.0352119
0.00633602
0.0229458
-0.0399658
-0.151407
-0.0336777
-0.04653
-0.000122622
-0.0423651
-0.0759421
-0.202155
0.00183263
0.0207348
-0.0403489
-0.0477656
0.0190605
0.0161743
0.0291268
0.0225476
0.0291406
0.0317802
0.0172028
-0.0335558
0.0282235
-0.0531225
-0.0170268
-0.177529
-0.0376046
0.0747489
-0.000238786
-0.0122747
0.220178
-0.313986
-0.00153044
-0.220376
-0.00505386
0.16019
-0.174613
-0.0315645
-0.335983
-0.0395388
-0.0178206
-0.0632303
-0.0354338
-0.0476163
0.0271192
0.00418055
-0.20755
0.0201091
-0.152082
-0.137217
-0.0421727
-0.0501232
-0.178999
-0.0254946
-0.0503635
-0.0211471
0.0297616
-0.0549909
-0.0772987
-0.0170733
-0.0426934
-0.0181778
0.0423069
0.113951
0.0278232
0.028108
0.0940655
-0.0406404
0.156922
-0.0423082
0.0144749
-0.0330006
-0.0015448
-0.0371695
-0.00915329
-0.0742049
-0.0468034
-0.0390739
0.026512
-0.237928
0.0196029
0.0168419
-0.0436772
0.0381603
-0.13414
-0.0487002
-0.336486
0.106251
-0.036798
-0.0938762
-0.0622453
-0.0400313
0.00349421
-0.0267302
0.0159028
-0.0383143
0.00187517
-0.335306
-0.0382957
-0.059838
0.0217085
-0.115839
-0.0419876
-0.148915
-0.266927
-0.0719015
-0.0620043
0.029825
-0.142272
-0.0394701
-0.0385662
-0.0353511
-0.0372395
0.0920501
0.0444671
0.0244064
-0.0904901
-0.00157665
0.0236244
-0.225356
0.0263343
-0.0424477
-0.335236
-0.0429114
0.0132714
-0.153148
-0.114765
0.022377
-0.0415934
-0.302183
-0.114799
-0.0827162
-0.0417527
0.168844
0.145469
0.0616282
0.0212721
0.0326443
-0.0369272
-0.0380401
-0.101144
-0.0434079
0.0258651
-0.0104097
-0.0535985
-0.0496359
-0.00271038
0.0234144
-0.0414852
-0.0316433
-0.0354296
-0.0247898
-0.035706
-0.016933
-0.0235389
-0.1415
0.00350983
0.0386217
-0.0611869
-0.218212
0.0257558
-0.0356701
0.0181454
0.0566792
-0.0456529
-0.183402
-0.0341917
0.0143333
-0.0723237
-0.0449293
0.066962
-0.0424357
0.122785
-0.0518482
0.00825293
0.018018
-0.31674
-0.079239
-0.0510266
-0.232839
-0.0698783
-0.30006
0.0125351
-0.0735035
0.0293195
0.0197585
0.0649806
-0.318942
-0.0389531
0.0176756
-0.00708557
-0.331278
-0.0278081
-0.0340546
-0.255223
0.00253639
-0.0783913
0.0272265
-0.160051
-0.0765613
-0.0440966
0.0371475
0.0167273
-0.0992969
-0.0439842
-0.052867
-0.0743051
-0.0593024
0.145349
-0.0501785
-0.0351507
0.0212331
0.0147467
0.183315
0.0120319
-0.0987131
-0.0566151
0.12875
0.101571
-0.106073
-0.0609463
0.0261203
-0.160509
0.0207383
0.0182176
-0.0520381
-0.0433031
0.16976
0.110172
-0.0266593
-0.0618417
0.0156243
-0.0424755
-0.0703292
-0.0504317
-0.159255
0.253682
0.0495235
-0.0666134
-0.332667
-0.0538612
-0.0681916
0.0256682
-0.0668354
0.0321715
0.00922118
0.0374858
-0.0269522
-0.0472577
-0.0371963
0.00141484
0.101148
-0.0358429
-0.0512456
-0.0047471
-0.0431439
-0.0602246
-0.156919
0.034226
-0.0192269
-0.0453778
-0.0438222
-0.0394449
-0.0634526
0.0408549
-0.0351557
0.16014
-0.170996
0.00804449
-0.033512
-0.053555
0.0340542
0.0283912
-0.0380495
-0.0423693
-0.0422837
-0.0347
-0.0499591
-0.0749431
-0.0275665
-0.0392953
-0.124037
-0.0418184
-0.0400606
0.0191873
-0.0419881
0.014771
0.0293483
-0.0904053
-0.0543517
-0.287118
-0.140879
-0.0424313
0.107352
-0.0532432
-0.0352731
-0.00328233
-0.0661202
-0.0487077
0.0111372
-0.250586
-0.0634721
-0.0333644
-0.0326851
-0.049115
-0.0170283
-0.040061
-0.00328448
0.0184981
-0.0556454
0.02515
-0.0614511
-0.0379641
-0.0231723
-0.0279492
-0.0365748
-0.0414432
0.100818
-0.07614
-0.0381374
-0.095539
0.0193208
-0.0388818
-0.0120139
-0.0435948
0.048223
0.0574169
-0.0411606
0.046827
0.00116158
-0.0983964
0.00835241
0.0180347
-0.032496
-0.0440006
-0.0965768
0.0158068
-0.0266831
-0.160214
0.0197335
-0.311926
-0.0371011
-0.044668
-0.0393934
-0.0368962
-0.164432
-0.0712005
-0.00643521
-0.0458962
-0.126242
-0.0665395
0.0841271
-0.0371369
-0.0105182
-0.0391465
-0.0427601
0.0122366
-0.159861
-0.0419856
0.0281986
-0.0759219
-0.0439202
0.0491954
-0.00973395
-0.0419073
0.0150038
0.0162702
-0.018119
0.0333849
-0.0991624
-0.0353788
-0.048828
-0.00161753
-0.0478877
-0.0375123
-0.0130189
-0.0703865
-0.0522563
-0.100094
-0.00934624
0.0131069
-0.057267
-0.0635255
0.0538651
-0.215144
-0.00558456
-0.0826254
-0.0766638
-0.0469935
0.0190195
-0.044664
0.0297313
-0.0367487
-0.00268501
0.0243132
-0.0249964
-0.0358167
-0.0433841
-0.031209
0.0212973
-0.267605
-0.0349056
-0.0669328
-0.162485
-0.0383471
0.0247048
-0.200587
0.0836536
-0.110341
-0.0614134
0.0159635
-0.0504352
0.00301998
-0.00740401
-0.0350023
-0.0474474
-0.203362
-0.072165
-0.0542803
0.0831929
-0.0357095
-0.179306
0.0228727
-0.0154245
-0.0235471
-0.0719776
-0.180357
-0.178751
-0.00133225
-0.0352482
0.0167762
-0.271862
-0.0424387
-0.312247
-0.0140951
-0.0423898
-0.045241
0.0769009
-0.0492596
-0.0237273
-0.0174989
-0.0450562
-0.0571419
-0.0344502
-0.0439508
-0.0107963
-0.0347425
-0.320497
-0.0405165
-0.0356784
-0.0398676
-0.0330529
0.0740651
-0.0242437
0.0100759
0.027065
-0.0480107
-0.0871471
-0.0433669
0.00518467
0.0215711
0.0443621
-0.138471
-0.0689068
-0.0459876
-0.0335509
0.0222211
-0.0360434
-0.105987
-0.0443683
-0.0388881
-0.0282162
-0.0364512
0.0276858
0.0444368
-0.0400058
-0.275859
-0.0237665
-0.0368681
-0.0386918
-0.0380391
-0.0396778
-0.0977087
-0.0426525
-0.0360978
-0.0359857
-0.0979945
-0.0072546
-0.0429909
-0.303709
0.0297827
-0.0653934
-0.0422302
0.0380144
-0.245491
-0.049257
0.00165602
-0.0579911
-0.036006
-0.134546
-0.0215049
-0.216999
-0.0862466
-0.0113276
-0.313712
-0.0731926
-0.0368489
0.0999986
-0.0380744
-0.0446488
-0.0833651
0.185232
-0.0418364
0.0198529
-0.306729
-0.022016
0.0402747
-0.0189205
0.00189352
-0.124805
-0.00655834
-0.0672439
-0.0366546
-0.0482869
0.0119436
0.0235762
0.0314534
0.000423756
-0.065406
-0.000105811
-0.0581088
0.144926
-0.312932
0.0158986
-0.1315
0.012452
-0.240924
0.00427287
-0.153712
-0.0298673
0.122907
-0.0629724
-0.0361159
0.0209192
0.0272375
-0.106516
-0.0564053
-0.0698736
0.0157461
0.0729544
-0.0477537
-0.0400387
-0.0678516
-0.043076
-0.0424791
-0.0493267
-0.213919
-0.0393619
-0.0714022
0.000362349
0.119569
-0.0319911
-0.0425822
-0.126382
-0.194102
-0.0316821
0.024566
-0.0529641
0.117307
0.00852424
-0.0436746
-0.0249012
0.0363206
0.0116493
-0.0566578
0.00954191
-0.0427445
-0.0881557
-0.0547485
-0.0718188
-0.025458
-0.0581221
-0.0500944
-0.239961
-0.0891403
0.013872
0.0149167
-0.0532367
-0.0557966
-0.0332233
-0.0586344
-0.04765
-0.0350855
-0.00682352
0.20454
-0.282087
0.0271244
-0.0236754
0.00252668
-0.0503209
0.000457259
0.0195295
0.0285073
-0.0350836
-0.0407512
-0.0385513
-0.321411
0.0209571
-0.10352
-0.0510637
-0.0453155
0.0287562
0.0276542
-0.0405881
-0.0427465
0.0726945
-0.08216
-0.0165867
0.0114933
-0.0478302
-0.0436236
0.0309333
-0.105798
-0.0351914
-0.0361664
0.0211263
-0.0370069
0.0694516
-0.123824
-0.0581613
0.0193406
-0.145124
-0.038733
0.0395466
-0.046668
-0.0180579
-0.0342235
-0.092878
0.00547582
0.00186979
0.0178763
-0.0637457
-0.0450228
-0.00663042
-0.0453312
-0.0346641
-0.0117745
0.00220146
0.0568003
-0.0443488
-0.0261853
-0.0345865
-0.0365794
0.0291723
-0.211493
0.00925265
-0.0140679
-0.0402785
-0.0360006
0.00571564
0.00173869
-0.0480242
0.0237285
-0.0226938
0.0263309
0.100001
0.00591029
0.00322243
0.0097499
-0.00465864
0.0181303
0.00399511
0.0542994
-0.0368174
0.0256046
-0.0744457
-0.296289
0.0312952
-0.00699277
-0.0331219
0.0346379
0.00996855
-0.00374372
-0.0579759
0.0528056
0.0203996
-0.14931
-0.00428579
0.00339111
-0.0497379
-0.0724313
-0.0380416
0.0180628
0.000482226
0.222408
-0.0913796
-0.0380662
-0.315689
-0.0272109
0.0821644
-0.0936466
-0.280518
-0.230538
-0.0399343
-0.244333
0.0289767
0.0352906
0.00323068
0.00353502
0.118313
0.0180448
-0.326344
-0.0435747
-0.13118
-0.0685892
-0.229495
-0.040037
0.000354486
-0.00990943
-0.0985405
0.0226273
-0.0697179
-0.235072
-0.00277974
-0.320349
-0.0887672
0.0123796
-0.0477243
-0.116899
0.19925
-0.257661
-0.0363153
-0.034402
-0.0380978
-0.28063
-0.102804
-0.0348424
-0.0379052
-0.0341982
-0.0156943
-0.262359
-0.316382
0.00559939
0.0249602
-0.0362177
0.258766
-0.165242
0.00747126
0.0335127
-0.328703
0.0266412
-0.0163594
-0.0337349
-0.255993
-0.0408142
-0.290239
0.0161942
-0.209271
0.0262806
0.00481105
-0.000773149
0.114447
-0.0932658
-0.0688764
0.00892258
0.0269339
-0.0980856
0.09457
-0.0642652
-0.196317
0.0225368
0.026238
-0.0171737
-0.037924
0.0264409
0.0226092
0.0283478
0.162278
-0.0396786
0.0319156
0.0188885
-0.273948
-0.124285
-0.000109581
-0.0416489
-0.06751
-0.205578
-0.1161
0.0634471
-0.042557
-0.19952
-0.0551487
0.00342155
0.0434667
-0.337475
-0.33529
0.0260329
0.0942771
-0.0426385
-0.0375496
-0.0316366
-0.0392482
0.0183743
-0.189005
-0.333157
-0.0445736
-0.0303501
-0.30639
-0.337736
0.000662728
-0.0364752
0.0273681
0.0636746
-0.121713
0.00736035
-0.0339166
-0.0378896
0.0254558
0.109856
-0.0324307
-0.041962
-0.00480198
0.00496156
0.0202318
0.0725428
-0.311771
0.0153995
-0.0610588
-0.109204
-0.0320028
-0.0318222
-0.294726
-0.0378102
0.00273723
0.00888784
-0.00306391
-0.014479
-0.135519
-0.0462206
0.0838688
-0.0315325
0.00977383
-0.100975
0.012033
0.0260683
0.00696
0.104035
0.0152834
-0.305167
0.0130465
0.0281891
-0.00575102
-0.0380938
0.0981762
0.0031234
0.016993
-0.033869
0.0470279
-0.0998071
0.000468785
-0.10918
-0.0389665
0.0762723
0.000310498
0.0366971
0.0217511
-0.0650593
0.127673
0.0127537
0.00762297
-0.303017
-0.315258
0.246752
0.00822663
0.0312535
-0.0437254
0.161582
0.0182548
-0.0400678
0.00574406
0.12508
0.0252421
0.116148
-0.0369028
0.0357977
-0.0153624
-0.0983023
-0.181926
0.0253572
-0.104781
0.0735945
-0.171182
-0.0348546
0.0817603
-0.234726
-0.0986338
-0.0853903
-0.0918219
0.0157905
-0.0905796
-0.0179391
-0.00274651
-0.0353619
0.0245885
0.00680573
-0.130989
-0.0256332
-0.117726
-0.29822
-0.0352931
-0.123212
-0.150457
-0.112913
0.0288125
0.0141625
-0.0440204
-0.0221244
-0.330165
-0.0344113
0.0236366
-0.0166546
-0.0524204
-0.164912
0.0127285
-0.0395436
-0.0512376
0.00396983
-0.0742692
0.00601332
0.0320369
-0.0427972
0.00640867
-0.037672
-0.0746919
-0.0409649
0.122539
-0.065899
-0.160873
-0.0652198
0.0430189
-0.0905251
0.00258826
-0.0736741
-0.329506
-0.0260403
-0.0826693
-0.00350384
-0.22434
0.102894
-0.165308
-0.0594893
0.00312732
0.135583
0.235085
-0.0400247
-0.0698863
-0.3174
-0.0674002
0.0259893
-0.0480382
0.0442085
-0.0432783
-0.041453
-0.0394506
-0.0387512
0.00441846
-0.0567966
-0.0124327
-0.0297816
0.0203001
-0.049166
-0.0346466
0.0184404
0.0171102
-0.0439208
-0.33431
0.00605614