/*--------------------------------*- C++ -*----------------------------------*\
| =========                 |                                                 |
| \\      /  F ield         | OpenFOAM: The Open Source CFD Toolbox           |
|  \\    /   O peration     | Version:  v2012                                 |
|   \\  /    A nd           | Website:  www.openfoam.com                      |
|    \\/     M anipulation  |                                                 |
\*---------------------------------------------------------------------------*/
FoamFile
{
    version     2.0;
    format      ascii;
    class       volScalarField;
    location    "350";
    object      k;
}
// * * * * * * * * * * * * * * * * * * * * * * * * * * * * * * * * * * * * * //

dimensions      [0 2 -2 0 0 0 0];


internalField   nonuniform List<scalar> 
14033
(
0.000144993
0.000254176
0.000147563
0.000160453
0.000171397
0.000157191
0.000162973
0.0121209
0.000149902
0.000147466
0.000159721
0.0231629
0.073707
0.000147124
0.000155721
0.000147356
0.000146382
0.000200784
0.0172772
0.000149825
0.000159078
0.0286989
0.0684414
0.000161331
0.0407343
0.000159949
0.00020025
0.000147969
0.0220689
0.0782328
0.000144516
0.000147589
0.000154683
0.0225734
0.000151057
0.000149687
0.000160352
0.000149751
0.000155561
0.000155555
0.000169294
0.00015228
0.0262493
0.0440716
0.00014887
0.0371318
0.000158465
0.000152604
0.000199028
0.0201792
0.000171145
0.000181805
0.0372135
0.0469858
0.000181228
0.000155627
0.0645766
0.000148053
0.000166474
0.00014917
0.000200445
0.000149539
0.000257124
0.000151177
0.000160377
0.000184249
0.0372821
0.000215898
0.000147676
0.000151009
0.000164603
0.000149725
0.0713937
0.0630696
0.0301158
0.000149506
0.000170058
0.000149358
0.000148578
0.000201863
0.000187836
0.0344196
0.0210114
0.0179007
0.000149683
0.000149541
0.000155856
0.000146338
0.000173353
0.0188671
0.000152723
0.000151379
0.000161437
0.00737237
0.00568786
0.000165923
0.000160378
0.000199215
0.0250621
0.000148924
0.000182833
0.0417785
0.000149873
0.000147577
0.0218028
0.00886524
0.000170718
0.000192501
0.0001751
0.06382
0.000148788
0.000147726
0.000148962
0.0412863
0.000148987
0.0154359
0.0248885
0.000149766
0.000189491
0.0381995
0.000151782
0.000252183
0.000154439
0.000147739
0.0653779
0.000163411
0.0720743
0.000209507
0.00014712
0.000182939
0.0756156
0.000188513
0.000201194
0.0183331
0.000178189
0.000147061
0.0130449
0.0445103
0.000165253
0.000210866
0.000181132
0.0619579
0.000176145
0.000188653
0.000148523
0.000150849
0.0461023
0.00018271
0.000144512
0.000160129
0.000149629
0.000188865
0.000155579
0.000299288
0.000237433
0.00014953
0.0251402
0.000147835
0.000153782
0.0273004
0.0141788
0.000215811
0.000153895
0.000161045
0.0304194
0.000154049
0.0670068
0.00017426
0.020543
0.000149026
0.000256224
0.00015015
0.000159921
0.000166393
0.000170153
0.000198774
0.000149493
0.000147042
0.000147011
0.0235528
0.0592054
0.000211605
0.000148787
0.0404467
0.000150517
0.000153171
0.000149776
0.000148658
0.0486701
0.000183529
0.00016032
0.000152053
0.000395036
0.000151142
0.000153778
0.000160968
0.000149807
0.0667791
0.000524774
0.000148564
0.0680313
0.000151333
0.000184124
0.000149969
0.066303
0.0773041
0.000149438
0.000151916
0.0641094
0.0767553
0.000175427
0.000148776
0.000183424
0.000149018
0.000153533
0.000149899
0.000159482
0.00242441
0.000249707
0.000158278
0.0166159
0.0432862
0.00014891
0.000154965
0.000149615
0.00414084
0.060649
0.00015867
0.0145086
0.000149607
0.000149244
0.000150899
0.000211558
0.0744208
0.000154251
0.000146598
0.0579321
0.000149111
0.000149993
0.000164335
0.000148878
0.000181538
0.000183285
0.0154162
0.000150295
0.0390236
0.000148787
0.0346742
0.000210471
0.000153527
0.00024402
0.0341769
0.00014726
0.000159071
0.000157336
0.000219492
0.000148772
0.000192851
0.000148435
0.0775101
0.000148675
0.0282146
0.000149456
0.000148996
0.000147659
0.000148712
0.000182344
0.000200398
0.000150051
0.000170052
0.000151966
0.00014856
0.000221997
0.00020119
0.00024852
0.000147044
0.000146987
0.000147201
0.0441409
0.000159927
0.000149763
0.000148592
0.0592316
0.0281538
0.000147049
0.058404
0.000165287
0.000160069
0.000151742
0.000155612
0.000149799
0.000181263
0.000147072
0.0766242
0.000159307
0.000162512
0.000199002
0.000164488
0.0778912
0.0527707
0.000166429
0.0449895
0.00017505
0.000153534
0.0598364
0.00014706
0.000154728
0.000183817
0.000181032
0.000148609
0.000181017
0.000212875
0.000147178
0.000483161
0.0352411
0.0735863
0.00018024
0.000149803
0.00652618
0.000152924
0.000149752
0.000178862
0.000149976
0.000148018
0.000153352
0.000159713
0.00017584
0.000146466
0.00014781
0.0700472
0.0632177
0.000151847
0.000147849
0.0346599
0.00015196
0.000148621
0.000148785
0.000152134
0.0670128
0.000148805
0.0328149
0.0222116
0.000154991
0.0393265
0.000159841
0.000156658
0.000168368
0.000160218
0.000686412
0.000147161
0.0364788
0.000201454
0.000148463
0.000165605
0.000151308
0.00015713
0.000148901
0.000167617
0.0330747
0.077787
0.000148689
0.0812372
0.000154527
0.000166859
0.000149384
0.000148822
0.000164862
0.00014975
0.0414858
0.0792446
0.000205569
0.000148595
0.000155302
0.000155855
0.000148037
0.0415872
0.000171947
0.000149471
0.0386916
0.000176529
0.000148837
0.000147837
0.000154217
0.000151794
0.0425444
0.00925009
0.00023094
0.000208347
0.000148144
0.00018908
0.0498123
0.000158578
0.0281453
0.000147202
0.000159674
0.000191657
0.0316242
0.000200983
0.0370235
0.000149764
0.000146311
0.0206815
0.000149142
0.0222674
0.000206463
0.000191449
0.000150251
0.000174424
0.0674413
0.00633158
0.000148968
0.000183836
0.00015463
0.000196579
0.000149816
0.022216
0.0674585
0.000152318
0.000153918
0.000188003
0.000154761
0.000149222
0.0202538
0.0193537
0.000149421
0.045099
0.0193783
0.0436531
0.000152937
0.000146353
0.000148529
0.000148425
0.0204235
0.000156127
0.000147987
0.000364674
0.0661406
0.000197408
0.000233744
0.000150321
0.0668822
0.000191861
0.000150455
0.0381886
0.000161886
0.0389752
0.000176997
0.0021935
0.000149864
0.000371222
0.000149201
0.0658084
0.000165651
0.0233812
0.0645795
0.000149665
0.0657652
0.000149314
0.000220765
0.0121908
0.000532116
0.0224884
0.000162114
0.0573836
0.0413329
0.000216459
0.000151536
0.043868
0.000198462
0.000199979
0.000146054
0.000157718
0.000154498
0.000150573
0.0666451
0.000207933
0.000158421
0.000165837
0.0658778
0.0243772
0.0818527
0.000182555
0.0748885
0.0644763
0.000152006
0.0290033
0.000147488
0.000145991
0.000184305
0.000146131
0.000253681
0.0311809
0.000149682
0.000150326
0.00015928
0.000213541
0.000148546
0.000178668
0.000147657
0.000149046
0.000148917
0.000147243
0.000171271
0.000147601
0.000191288
0.000170301
0.000157831
0.000146801
0.0266184
0.0648941
0.0589858
0.000147268
0.000179664
0.000179672
0.000145774
0.000149086
0.000149391
0.077743
0.000256685
0.0213446
0.000150525
0.000167134
0.0187356
0.000154919
0.000159551
0.000264926
0.000147631
0.000349522
0.0247809
0.000152703
0.00016531
0.000213148
0.0240561
0.000148952
0.000178084
0.00027922
0.000171097
0.000152323
0.0474946
0.0201427
0.000155945
0.000149607
0.000165713
0.081066
0.0736696
0.0300999
0.000147083
0.000165149
0.0683146
0.000152582
0.000149095
0.000165665
0.000148781
0.000164824
0.020959
0.000214829
0.000251036
0.000149053
0.0121056
0.000171264
0.000153928
0.00014688
0.000150181
0.0218437
0.000229333
0.000166495
0.000152798
0.000185328
0.000149815
0.0686939
0.000164591
0.0470997
0.0395077
0.000149652
0.0799076
0.0297259
0.000149105
0.00417676
0.0769775
0.000145849
0.0268921
0.000157236
0.0623818
0.000151696
0.000151566
0.0648856
0.000181056
0.000149981
0.000181929
0.0656627
0.000297028
0.000149773
0.000149751
0.000190369
0.00017854
0.0624096
0.00014961
0.000205229
0.000216269
0.000178821
0.000195929
0.000149707
0.0196668
0.0797416
0.000159575
0.0756111
0.000148549
0.000186831
0.000163931
0.000188729
0.000147653
0.0303215
0.000152715
0.000162032
0.000149464
0.000148861
0.000148998
0.000157006
0.0729377
0.000156353
0.000154016
0.000227483
0.0676292
0.0711831
0.0163165
0.0222665
0.000152678
0.0722121
0.0783813
0.0591914
0.000166987
0.0170487
0.00014782
0.000170569
0.000148383
0.032645
0.000161043
0.0315557
0.000148248
0.000187088
0.0236711
0.0789534
0.000148901
0.066863
0.000148319
0.000149131
0.000154555
0.000149768
0.000153783
0.000148443
0.000147456
0.000149687
0.000151617
0.000391213
0.000192785
0.000151775
0.000218475
0.0363964
0.000195725
0.000147259
0.000195131
0.000166182
0.000169312
0.0633095
0.000341929
0.000149755
0.000148825
0.000148564
0.000214136
0.000147573
0.0428732
0.000149325
0.000151427
0.00016267
0.000188007
0.000148169
0.000148811
0.0383774
0.0271029
0.000459399
0.0474185
0.0118148
0.000152422
0.000151953
0.000148334
0.0200794
0.000149436
0.000156224
0.000151182
0.000188023
0.000146121
0.0633035
0.000168656
0.0001483
0.000188248
0.000148603
0.000147537
0.0217498
0.0452248
0.000149941
0.000159884
0.000151391
0.000180225
0.000148428
0.000184279
0.000148407
0.000169359
0.00025762
0.000178028
0.000151233
0.0755382
0.000148632
0.024375
0.000165429
0.000168001
0.000157781
0.000200187
0.0711541
0.000164171
0.000191948
0.000178413
0.000195688
0.0182306
0.000156414
0.0128248
0.000148856
0.0327796
0.000146951
0.000159158
0.0273987
0.0436702
0.0001695
0.000186763
0.000147241
0.000149031
0.000150557
0.0176031
0.000152778
0.0788108
0.0702928
0.000148801
0.000218681
0.000155951
0.000326773
0.00015188
0.000158981
0.061569
0.00015632
0.0146965
0.000150348
0.000146537
0.000151001
0.000175305
0.000161844
0.000181265
0.000153781
0.000146986
0.000148446
0.0664364
0.0249935
0.000186857
0.0650239
0.000148148
0.000148119
0.000147723
0.000148872
0.0233139
0.000168364
0.0211589
0.0128921
0.000149449
0.03069
0.011233
0.000163861
0.000116105
0.000165875
0.000242706
0.0634851
0.0350276
0.0718477
0.000148466
0.032769
0.0629693
0.000150045
0.06782
0.000155152
0.000167514
0.000156337
0.0368487
0.0651458
0.000186782
0.000165823
0.0275571
0.0146791
0.0598781
0.000150727
0.000166986
0.0616217
0.000148677
0.000152592
0.0705881
0.000147108
0.000149723
0.000218499
0.0800449
0.000158223
0.000148932
0.000149607
0.0744303
0.0668112
0.000385372
0.000188313
0.0345434
0.000190578
0.0579727
0.000148508
0.000207607
0.000151213
0.000147106
0.000148012
0.000146805
0.000148094
0.000149349
0.000149082
0.000185215
0.00015795
0.0662636
0.0654325
0.000148295
0.000148453
0.00015176
0.0150847
0.043203
0.000519431
0.000159379
0.000446332
0.000200057
0.000472661
0.000178986
0.000205435
0.000149358
0.000153039
0.000147129
0.000191209
0.000152516
0.000149803
0.000151217
0.0629085
0.000149451
0.000154561
0.000148024
0.000198807
0.0599844
0.00016446
0.07878
0.0800923
0.000193149
0.0406284
0.000149115
0.000147394
0.000152614
0.0786087
0.072325
0.000195554
0.0637724
0.000148336
0.000194178
0.00014725
0.000160085
0.000282306
0.000148859
0.000205439
0.000147939
0.00014894
0.000149062
0.000173461
0.000165203
0.00015064
0.000150525
0.000199185
0.000197732
0.000162754
0.000197402
0.000150281
0.0787405
0.000148842
0.000164864
0.000151908
0.00803149
0.000165995
0.000149746
0.000165846
0.0218921
0.000149349
0.000156301
0.0409014
0.000151641
0.0741362
0.0601478
0.000149417
0.000176378
0.000160123
0.000252808
0.000158188
0.000214603
0.0288376
0.000161452
0.0622441
0.000156435
0.000147894
0.000153617
0.000150521
0.0791964
0.0785295
0.00016098
0.000483722
0.000148979
0.0323937
0.000173703
0.000147842
0.00015483
0.000155571
0.0186851
0.000165366
0.000183099
0.0682914
0.000149606
0.000175349
0.0633929
0.000149243
0.000178702
0.000149508
0.0585229
0.0701169
0.000195761
0.0187716
0.000158953
0.000151411
0.000219198
0.000149794
0.000146268
0.0638651
0.0398359
0.00014967
0.000149187
0.000192048
0.000147965
0.000156846
0.000152816
0.0672803
0.000200421
0.000148043
0.000167628
0.0149827
0.000459651
0.000147521
0.000149403
0.000155088
0.0831765
0.000160642
0.000171858
0.000148703
0.000148751
0.0437937
0.000226509
0.000164682
0.000156265
0.0001484
0.000209275
0.0379962
0.000149544
0.000149564
0.000153472
0.000149683
0.000165584
0.000272548
0.000149439
0.000148362
0.000160662
0.00014699
0.000147836
0.000180412
0.000156193
0.000167571
0.000183365
0.000152905
0.000149891
0.0135237
0.000271851
0.00217601
0.000150155
0.000148676
0.000150797
0.000221587
0.000612568
0.0302536
0.000149311
0.00014943
0.000153247
0.000149425
0.0219523
0.000149524
0.0379194
0.0767165
0.0348257
0.000146507
0.000288777
0.01363
0.000147039
0.000529336
0.000149307
0.000149007
0.079465
0.000161366
0.014654
0.0740014
0.00016026
0.0691038
0.000144955
0.000149113
0.00011679
0.000151577
0.000182339
0.000149478
0.000152512
0.000159895
0.000160686
0.000182796
0.000156395
0.0753946
0.00014952
0.00014799
0.000148396
0.000147636
0.000186038
0.000189196
0.0433286
0.000148318
0.042211
0.000159869
0.00014962
0.000149323
0.000148449
0.000146494
0.000263452
0.000170606
0.000188073
0.00016509
0.000158675
0.000220199
0.000219395
0.000175829
0.0690843
0.000526865
0.0383176
0.0839389
0.000156248
0.0387897
0.0629933
0.000149349
0.000148732
0.00014802
0.0643306
0.0831285
0.00191158
0.0443767
0.0826724
0.000159467
0.000199092
0.00685912
0.000179096
0.0651883
0.00639783
0.0773915
0.000167727
0.0179116
0.000152506
0.000168159
0.0018226
0.000166299
0.0290502
0.000472099
0.0634581
0.0642663
0.000199399
0.000167964
0.0656773
0.0645292
0.0529258
0.000147462
0.000184051
0.0001656
0.0471254
0.000149775
0.0001576
0.000150528
0.000165616
0.0344294
0.000179733
0.000148191
0.0483585
0.000268512
0.000157157
0.000171191
0.023095
0.000153507
0.000188128
0.0236414
0.000147868
0.0667497
0.000148643
0.000151517
0.000151335
0.0469821
0.000173032
0.0623398
0.000199781
0.0343269
0.000194072
0.0399829
0.000151435
0.000158513
0.000151926
0.000148251
0.000150372
0.000177273
0.000155296
0.000151059
0.0770222
0.032075
0.000151242
0.000148765
0.000186532
0.000156344
0.0580048
0.000149821
0.0684059
0.000152946
0.0404072
0.000167715
0.0403981
0.0688668
0.000148692
0.000164732
0.0658449
0.0658728
0.0510058
0.0455653
0.0209066
0.00015546
0.000150073
0.00015902
0.000150725
0.000148788
0.0599193
0.00014964
0.000146752
0.000153314
0.0327583
0.000148753
0.074044
0.000164692
0.000159925
0.0675496
0.000164579
0.00016683
0.000164815
0.000149644
0.000165325
0.000221086
0.000146321
0.0626971
0.000166252
0.000148013
0.000149125
0.0239762
0.0218546
0.000151533
0.000149511
0.000150405
0.000148723
0.0001896
0.000207161
0.000148123
0.000148059
0.000150197
0.00447498
0.000471423
0.000160994
0.000151654
0.000200677
0.00015471
0.000187396
0.000186623
0.000166482
0.000172144
0.0237522
0.000148505
0.000153625
0.000379508
0.000169817
0.0687567
0.0474064
0.00016825
0.000152493
0.0362698
0.0758091
0.000151306
0.000150237
0.000148788
0.000200161
0.000202099
0.000151516
0.000147327
0.0405661
0.000173571
0.0609334
0.000196685
0.000192306
0.0730585
0.000148007
0.000187408
0.000329369
0.000151081
0.0786057
0.042667
0.000152454
0.0681576
0.000150083
0.000154709
0.000151305
0.000169341
0.0001478
0.000184133
0.000146348
0.000148162
0.0646829
0.0725937
0.000146312
0.0656423
0.000149681
0.0432739
0.000147128
0.000182492
0.000148033
0.000241362
0.000209305
0.000151422
0.000165741
0.00029029
0.0590286
0.000142172
0.000164949
0.0650685
0.000150031
0.000148698
0.000167276
0.000155447
0.0181552
0.000150694
0.000154105
0.000206018
0.000149223
0.049373
0.000156841
0.0590446
0.0236351
0.000188179
0.000204611
0.00088272
0.000150754
0.000151368
0.022053
0.000169557
0.000148516
0.000212425
0.000150802
0.054257
0.000151875
0.0668223
0.000150127
0.0180775
0.0158165
0.0217964
0.02277
0.000162217
0.000150198
0.000149322
0.00015625
0.000148812
0.0755382
0.000181277
0.0455765
0.000150905
0.0367136
0.0459757
0.0440679
0.00015056
0.000182716
0.0471205
0.000149142
0.00014857
0.000159767
0.0180286
0.000179817
0.0464328
0.000148043
0.0836232
0.000149774
0.000150478
0.000149092
0.00016443
0.0350643
0.0429808
0.0633849
0.0301289
0.00014821
0.000166754
0.000158963
0.000178774
0.0298357
0.000214861
0.000146858
0.000148961
0.000177381
0.000155287
0.000209391
0.000149369
0.000197944
0.000149916
0.0407563
0.044999
6.38032e-05
0.000150919
0.0402355
0.0408236
0.0718688
0.000155621
0.000161785
0.00015233
0.000150426
0.0457169
0.000185388
0.0632464
0.00014765
0.000156742
0.000149949
0.0001885
0.013876
0.0419029
0.00017234
0.066779
0.000232633
0.000182353
0.000148695
0.000149488
0.000153335
0.00844344
0.000148421
0.000148284
0.00015373
0.000164503
0.00530791
0.000148748
0.00705754
0.000398281
0.000148527
0.000149092
0.000149476
0.000147886
0.000198304
0.000213568
0.000147967
0.000189079
0.000160901
0.000150547
0.000155354
0.0819938
0.0187571
0.000175848
0.000154246
0.000180582
0.000154152
0.0856473
0.00682945
0.0776297
0.00018349
0.0367984
0.000168011
0.000165905
0.0450112
0.000188014
0.0635868
0.000150583
0.0806769
0.000188397
0.000190651
0.000148771
0.000152694
0.0220404
0.000255618
0.0662725
0.000162392
0.000154309
0.000197661
0.000148186
0.000465301
0.000148727
0.000148806
0.000150873
0.000146895
0.000149415
0.000147508
0.0212649
0.0665962
0.000147672
0.000148988
0.000148588
0.000169555
0.000146868
0.000187627
0.000160039
0.000172046
0.000176788
0.000155971
0.000184975
0.0799102
0.0496511
0.000165004
0.000147846
0.000173446
0.000164279
0.000149973
0.000152972
0.0243616
0.0205734
0.000153036
0.0461185
0.000195746
0.000200589
0.00015275
0.000171143
0.000148949
0.069206
0.000148042
0.00016705
0.000149631
0.0173735
0.000263168
0.000178895
0.000165157
0.000150432
0.0855914
0.000149309
0.00016056
0.0206303
0.000157141
0.000151948
0.000184001
0.00014982
0.000152556
0.0794748
0.000150978
0.000152697
0.000148346
0.000148615
0.000157702
0.000449356
0.000183644
0.000174446
0.0523956
0.000196951
0.000223472
0.0235631
0.000147772
0.000149028
0.0654693
0.000170542
0.0219758
0.000197146
0.0423552
0.000147734
0.00183252
0.0190552
0.0186951
0.000177102
0.000161481
0.0715165
0.041611
0.000208751
0.00015916
0.0474865
0.0314753
0.000147688
0.000150933
0.000177002
0.000157929
0.000550501
0.00016267
0.000153092
0.000157738
0.0291504
0.000225951
0.000162396
0.00677805
0.000179463
0.000150616
0.000151581
0.000151953
0.000169934
0.00016222
0.00016475
0.000151126
0.0694694
0.0277461
0.000194381
0.0258254
0.0162072
0.000151269
0.00017028
0.0710912
0.000149013
0.0298796
0.000154088
0.000155659
0.00501814
0.000202956
0.000151193
0.00015772
0.0850428
0.000147944
0.000150881
0.000155147
0.000420108
0.000161519
0.000148612
0.000217729
0.0816102
0.0171944
0.00015743
0.00014977
0.0675607
0.000149513
0.000148138
0.000156492
0.000147972
0.000911967
0.000165982
0.0400466
0.000148797
0.000147207
0.000149012
0.000149139
0.00015491
0.000215616
0.0669452
0.000188813
0.000148739
0.000148782
0.000148105
0.00106671
0.000158927
0.000150514
0.000153835
0.000148978
0.0374283
0.000165838
0.0197862
0.073268
0.079966
0.000365903
0.000148304
0.0428017
0.0606302
0.0107135
0.000145731
0.000212162
0.000149172
0.000159921
0.00019563
0.000148768
0.000164493
0.0796624
0.000151261
0.00032117
0.0700947
0.000248906
0.0372264
0.0496434
0.0147633
0.000164836
0.0324476
0.0620821
0.000149603
0.000178658
0.000153867
0.000147972
0.000189066
0.000155193
0.000156255
0.000168134
0.000147913
0.000519087
0.000251428
0.000180145
0.0188506
0.0802249
0.000149467
0.000269127
0.000145823
0.000149364
0.000180165
0.000147531
0.000160255
0.00015939
0.0271149
0.000155498
0.00024693
0.0413879
0.000148995
0.000177459
0.000153689
0.000152607
0.000191597
0.000162315
0.000160651
0.000152779
0.000149642
0.000151197
0.000154666
0.000152273
0.000149678
0.000151806
0.0673809
0.000150856
0.0125088
0.0412483
0.000149111
0.000146761
0.000205319
0.000194988
0.000148516
0.000174958
0.000146918
0.000173193
0.0455265
0.0785692
0.000153956
0.0729168
0.0713412
0.000161871
0.0179199
0.0361312
0.000148766
0.000149808
0.00015092
0.000156111
0.000152579
0.0677273
0.000175543
0.000183497
0.0417486
0.000146948
0.000151561
0.0286531
0.000148518
0.000148922
0.000151168
0.000155095
0.0331264
0.022736
0.000190595
0.000177483
0.0722003
0.0242265
0.0647772
0.000365071
0.000147335
0.000152739
0.00017539
0.000197103
0.000183302
0.0348012
0.0405384
0.000155477
0.000149472
0.000149045
0.000147568
0.000166638
0.000150178
0.000148621
0.000341
0.0685096
0.000182853
0.000148755
0.0379709
0.000162458
0.000282527
0.000148593
0.000195376
0.000150269
0.000152487
0.000152242
0.013962
0.0414522
0.00016382
0.0431741
0.000148787
0.00014853
0.000149777
0.000159008
0.0317452
0.000147742
0.000161665
0.0208571
0.000147438
0.000166743
0.000148993
0.03406
0.000149991
0.000238758
0.00014925
0.000233017
0.00019605
0.000162297
0.00015213
0.000221761
0.000150597
0.000159373
0.000196114
0.000179942
0.000149763
0.000149418
0.000146701
0.000149562
0.00920422
0.00020527
0.0633128
0.0370115
0.000145931
0.000508202
0.000199974
0.0730859
0.0108842
0.00015052
0.000148446
0.000187919
0.00014871
0.000151305
0.00438836
0.018128
0.0773287
0.0368596
0.00014892
0.0767584
0.0338353
0.0685613
0.000152542
0.0656395
0.000180078
0.000149804
0.000297342
0.0684563
0.0566479
0.000276227
0.00015073
0.033642
0.000148849
0.000252259
0.000153694
0.000147546
0.000148226
0.000190859
0.0304326
0.000187801
0.000186463
0.0175972
0.0698558
0.000152776
0.00014759
0.0355356
0.0792333
0.000149767
0.000149293
0.000227269
0.0374844
0.0156224
0.000157427
0.000156621
0.0123797
0.0404944
0.000242395
0.000178044
0.000148765
0.0679067
0.0338759
0.0812414
0.0001743
0.000148947
0.000153583
0.000165117
0.000199639
0.000148205
0.000220015
0.0329028
0.0389725
0.000176779
0.000148163
0.0331501
0.000149312
0.0646121
0.0256197
0.00346909
0.000151108
0.000234433
0.000153271
0.0680506
0.000271548
0.000149545
0.00015452
0.000149212
0.00054503
0.000149821
0.000153713
0.000153404
0.000180446
0.00012843
0.000227515
0.0265529
0.000216764
0.0688354
0.000193116
0.0656511
0.000176681
0.000167107
0.000149348
0.0452168
0.00016403
0.00015345
0.000149168
0.000148778
0.000161713
0.000149841
0.000149211
0.000155667
0.000147847
0.0464385
0.00015941
0.072694
0.000176674
0.000193027
0.00014766
0.000158603
0.0642788
0.000219296
0.000194233
0.000150314
0.0291341
0.000149264
0.000170585
0.000169004
0.000161533
0.000166
0.000148169
0.0160867
0.000201751
0.000188385
0.00014982
0.000155311
0.0729948
0.000150361
0.000363244
0.000214692
0.000152759
0.000149643
0.035826
0.000208731
0.000246703
0.0299408
0.000175421
0.0377662
0.000149603
0.000148139
0.00019506
0.00017161
0.000168275
0.000200161
0.00027566
0.0178344
0.0357773
0.000240486
0.0838226
0.000153051
0.000153713
0.000152809
0.0374903
0.000196536
0.0731157
0.0201866
0.0850025
0.000149884
0.0431441
0.000163317
0.000157287
0.000162026
0.000174612
0.000291474
0.000150398
0.000154319
0.000211722
0.0639544
0.000196041
0.0174443
0.00014791
0.000152182
0.000148489
0.0232746
0.000180696
0.0653871
0.000152876
0.000217238
0.000151253
0.000153248
0.02179
0.000147851
0.000188721
0.000194941
0.0672253
0.0693834
0.0207108
0.0782614
0.082384
0.000186681
0.068379
0.0210902
0.000149768
0.000192218
0.0443137
0.000169211
0.0333701
0.000179926
0.0783864
0.000151741
0.000192522
0.000205105
0.000159368
0.00015088
0.0433706
0.000210567
0.000146549
0.00649209
0.0488901
0.000148195
0.00017116
0.000316336
0.0431421
0.000155264
0.0425189
0.000161774
0.000227168
0.000186962
0.000162814
0.0412488
0.0694625
0.00015184
0.000202605
0.0430944
0.000185784
0.000202612
0.0337786
0.0364862
0.000153945
0.000148698
0.0384501
0.0273294
0.000149026
0.00032935
0.000170332
0.000192225
0.000166702
0.0493647
0.00014894
0.000193203
0.000163976
0.000191699
0.000147884
0.0329297
0.0477928
0.000231141
0.000169103
0.000148582
0.000156878
0.000153131
0.000233244
0.00015164
0.000198151
0.0274734
0.0780216
0.000151605
0.0670944
0.000174462
0.000179533
0.0501706
0.000174687
0.000152414
0.000198557
0.000150352
0.000203334
0.000148792
0.0703193
0.000182584
0.000155099
0.000160109
0.0447305
0.0474046
0.000152233
0.000165688
0.000198826
0.0126966
0.0001791
0.000149148
0.000148943
0.000162653
0.0151341
0.000148963
0.000267403
0.0755888
0.000148014
0.0766757
0.000179877
0.00015572
0.000186165
0.0446057
0.00022943
0.068305
0.00583152
0.0478307
0.000160946
0.0645012
0.000199628
0.000152366
0.000167659
0.000177918
0.0348281
0.000151016
0.0257466
0.000151715
0.0439882
0.000161431
0.0480607
0.0679919
0.000185551
0.000175641
0.000187485
0.00015527
0.000148657
0.000148096
0.000147609
0.000175594
0.000148767
0.0747934
0.0239998
0.000174417
0.0413981
0.0489441
0.0443669
0.0602608
0.000167343
0.0339048
0.000148268
0.0137126
0.000166045
0.0349844
0.000519579
0.044058
0.000149199
0.000154919
0.000158497
0.000158289
0.00014828
0.0438186
0.000153888
0.03848
0.0349907
0.000158865
0.000148236
0.000206763
0.000150461
0.000150699
0.000152485
0.000186957
0.000214866
0.0670328
0.0424297
0.000152045
0.000152034
0.0436655
0.000153769
0.0655447
0.000147839
0.00022381
0.0499116
0.0402607
0.0332374
0.000183689
0.000319672
0.000150707
0.000154819
0.0722779
0.0821753
0.00015381
0.000185529
0.0304576
0.0806296
0.000190196
0.0758371
0.000149351
0.000148413
0.000154565
0.0700303
0.000149871
0.000157749
0.000153551
0.000147943
0.000170817
0.0001491
0.000205559
0.000148696
0.00014805
0.000147951
0.000221762
0.000183689
0.000188444
0.000172851
0.000181808
0.000148034
0.000179835
0.000183818
0.000150372
0.0235344
0.000147707
0.0289954
0.000147752
0.000269349
0.0436377
0.000150572
0.000182814
0.0238204
0.000186099
0.000188738
0.000163941
0.000148707
0.0814496
0.000152194
0.0442059
0.00016399
0.0410647
0.000149507
0.00017391
0.000153349
0.000169031
0.0371556
0.000149445
0.000213253
0.0697113
0.0186078
0.0384926
0.000149491
0.031363
0.000155914
0.0453993
0.000193369
0.000209356
0.000152314
0.000148506
0.0420352
0.0651158
0.000148468
0.0462255
0.000149208
0.000198267
0.000152612
0.0468265
0.0776914
0.0329103
0.000183525
0.000161734
0.000148763
0.000153219
0.047827
0.000168478
0.000150268
0.000151744
0.00018818
0.000221065
0.0717521
0.000186285
0.0446814
0.0299689
0.000207241
0.000257473
0.000210416
0.0353643
0.045124
0.000148368
0.0222071
0.0321103
0.000205062
0.000200561
0.000166588
0.000170771
0.0340744
0.000147762
0.000305635
0.000195613
0.000149315
0.000147296
0.00034975
0.000272243
0.000175715
0.000198276
0.000192404
0.0666607
0.0634241
0.000148973
0.0270644
0.0632564
0.000149435
0.000180964
0.0507187
0.000218338
0.000150703
0.000162958
0.000197317
0.00955044
0.0706937
0.00016008
0.000153197
0.000146389
0.000151284
0.000150124
0.000194984
0.00171447
0.00019681
0.0212223
0.00018736
0.0475411
0.000149988
0.000149661
0.000118264
0.00018294
0.000151152
0.000163994
0.000155302
0.000168866
0.000165591
0.000149383
0.0438815
0.000183944
0.0173607
0.000199011
0.000160113
0.0364397
0.000166322
0.000186286
0.00014919
0.000185441
0.000208548
0.00019945
0.000148925
0.000204437
0.000149088
0.000157159
0.0501758
0.0283782
0.000289973
0.028316
0.000166023
0.000149207
0.000192413
0.00015795
0.000303649
0.000149254
0.000149013
0.000284443
0.000197036
0.0704876
0.000233247
0.000173801
0.00019368
0.000152399
0.000165837
0.000146769
0.000166077
0.00016024
0.000156191
0.0716161
0.000165684
0.0704778
0.000278741
0.00695234
0.0338226
0.000166674
0.000161221
0.0226309
0.000183332
0.000154088
0.000148928
0.0627605
0.000148411
0.0637278
0.000256674
0.000159926
0.000164025
0.000149052
0.000238947
0.000186222
0.000148041
0.000187005
0.00014992
0.000147359
0.0824356
0.000149806
0.000149015
0.000166357
0.000151175
0.000148352
0.00015399
0.000148699
0.0418739
0.000153762
0.00015163
0.000148937
0.000184463
0.00016
0.0432948
0.0416562
0.000149652
0.00019474
0.0440723
0.000149091
0.0278875
0.000154999
0.000160301
0.000148758
0.000153932
0.000170711
0.000164813
0.000161175
0.000165082
0.0001492
0.000145906
0.00016277
0.000146361
0.000148009
0.000148134
0.000148118
0.000167195
0.000311047
0.0403985
0.000158355
0.000159396
0.000176877
0.000154425
0.000152683
0.000150355
0.000159934
0.000179346
0.000285583
0.000158144
0.0079363
0.000150448
0.000187034
0.000162261
0.00154943
0.0001652
0.0786756
0.000148659
0.000215892
0.000156358
0.065483
0.0241174
0.00015245
0.000178898
0.000150831
0.000150401
0.000148772
0.000150725
0.000174406
0.0156995
0.0456985
0.000160589
0.000185853
0.000283762
0.000247041
0.000375031
0.000153403
0.000149059
0.000148194
0.000200935
0.000151485
0.00014607
0.000202312
0.000159178
0.000180677
0.00229441
0.000163631
0.000168115
0.00015511
0.000151109
0.000204047
0.000241147
0.0456495
0.000262165
9.74662e-05
0.0702178
0.0783888
0.0628091
0.000149164
0.000185272
0.000148209
0.0126701
0.000151572
0.00014772
0.000160685
0.000157092
0.000271322
0.000149755
0.000149069
0.00018825
0.000149055
0.000151154
0.000165174
0.0139105
0.000162537
0.000169743
0.000156888
0.000152442
0.0545769
0.00015591
0.000156137
0.000185403
0.000164444
0.000160157
0.000153868
0.000150599
0.000205715
0.0485068
0.0232232
0.0543167
0.00015165
0.0383982
0.000147296
0.000164084
0.000149774
0.000149202
0.000159256
0.000149692
0.000164061
0.0283529
0.000150488
0.000157898
0.000156804
0.0136093
0.000152229
0.000147657
0.000182154
0.0460432
0.0812674
0.000186829
0.0670273
0.000199816
0.000148605
0.0239406
0.000155275
0.000155541
0.0001685
0.000155597
0.000149903
0.014111
0.000185706
0.000271376
0.000153413
0.000148187
0.000204427
0.000164967
0.000165499
0.000153491
0.000157611
0.000179669
0.081494
0.000163987
0.000175983
0.000159133
0.000167214
0.0724565
0.000148624
0.000252605
0.000149745
0.0428138
0.000149447
0.000151078
0.0189864
0.000177903
0.0465362
0.000206108
0.000151863
0.000222897
0.000189817
0.00022908
0.0252708
0.000181729
0.000154877
0.000178282
0.0740833
0.000166987
0.0782337
0.000157856
0.000150643
0.000256441
0.0758175
0.000163976
0.00569951
0.000183026
0.000190712
0.000156379
0.000210041
0.000277522
0.000158342
0.000178045
0.0733874
0.000153119
0.0102668
0.000169413
0.000149537
0.000165737
0.000152497
0.000157802
0.0694793
0.000184693
0.000367045
0.0413882
0.000148209
0.065825
0.000150678
0.000172985
0.000190692
0.000149256
0.000184851
0.000170569
0.0852499
0.000149906
0.000223493
0.0160621
0.000157007
0.000146026
0.000164897
0.0473472
0.00015195
0.000179525
0.000159544
0.000155307
0.000149208
0.00796315
0.000164496
0.00018314
0.000151715
0.000148303
0.00015442