/*--------------------------------*- C++ -*----------------------------------*\
| =========                 |                                                 |
| \\      /  F ield         | OpenFOAM: The Open Source CFD Toolbox           |
|  \\    /   O peration     | Version:  v2012                                 |
|   \\  /    A nd           | Website:  www.openfoam.com                      |
|    \\/     M anipulation  |                                                 |
\*---------------------------------------------------------------------------*/
FoamFile
{
    version     2.0;
    format      ascii;
    class       volScalarField;
    location    "350";
    object      omega_0;
}
// * * * * * * * * * * * * * * * * * * * * * * * * * * * * * * * * * * * * * //

dimensions      [0 0 -1 0 0 0 0];


internalField   nonuniform List<scalar> 
14033
(
0.0214853
1.71351
0.0218667
0.0321068
0.0864824
0.0304669
0.0312607
6.00257
0.0222713
0.0217724
0.67641
5.35415
9.48834
0.0218354
0.0263625
0.0217691
0.0217297
0.218697
7.25562
0.0222739
0.0259498
3.27628
3.23768
0.0328214
3.08012
0.0284991
0.110299
0.0218992
5.3114
4.33965
0.02142
0.0219345
0.0248695
9.32267
0.0222503
0.0222092
0.0288363
0.0222631
0.0244761
0.0250564
0.047307
0.0237759
4.43442
4.99593
0.0220523
3.01993
0.0254784
0.0240781
0.10133
4.95805
0.0974634
0.0927645
3.13145
2.93464
0.0663533
0.0250587
3.0614
0.0219054
0.0342569
0.0221062
0.107018
0.0222339
1.90206
0.0226538
0.0271658
0.35254
4.19806
0.212195
0.0219546
0.0222508
0.0330785
0.0221985
3.37984
3.8183
4.14365
0.0221622
0.092815
0.022123
0.0220301
0.114769
0.073193
3.06777
5.90352
3.64566
0.0222139
0.0222282
0.0263657
0.021728
0.066236
6.55924
0.0230995
0.0224607
0.0410517
21.0163
5.0102
0.0490651
0.0273398
0.46261
4.43084
0.0221418
0.0610872
4.43233
0.0223234
0.0218769
5.53868
4.93369
0.0469241
0.416981
0.0749439
3.83056
0.0218171
0.0219477
0.0221461
2.93688
0.0221496
3.526
4.49289
0.0222918
0.0983234
2.80307
0.0226264
2.15582
0.0246562
0.0219532
4.0325
0.0315337
3.73743
0.184563
0.0218302
0.0614375
3.66212
0.100539
0.10979
4.5598
0.327039
0.021829
6.46011
2.913
0.0418032
0.177292
0.941433
3.16543
0.0443665
0.343479
0.0220277
0.0225133
2.87808
0.169457
0.0214517
0.0358639
0.0222465
0.0981587
0.0244661
3.1059
0.313831
0.0221882
4.44719
0.0219716
0.0239109
4.05592
4.59198
0.248354
0.0243981
0.0325023
3.10609
0.0234649
4.0642
0.0429405
6.07207
0.0220829
0.353312
0.0224405
0.0355806
0.0518377
0.0452483
0.106644
0.0222247
0.0217502
0.0218301
4.7325
4.53402
0.180088
0.022035
2.71451
0.0222706
0.0233703
0.0222437
0.02209
2.88769
0.0608219
0.0363575
0.0227197
3.19226
0.022383
0.0239975
0.0394203
0.0221282
8.21016
1.3173
0.022054
3.4965
0.022233
0.165391
0.0222716
3.30007
4.38819
0.0221419
0.0223856
3.26154
3.75558
0.0433095
0.0220527
0.268431
0.0220815
0.0236897
0.0221591
0.0353427
2.4792
0.276433
0.0257703
6.6731
3.14068
0.0221376
0.0260581
0.0222441
2.29845
12.4869
0.0260008
7.0892
0.0222507
0.0220744
0.022474
0.801161
3.66153
0.0235575
0.0216655
2.8095
0.0220474
0.0223037
0.0325641
0.0218934
0.150988
0.0570392
4.90559
0.0225339
3.94823
0.0220376
3.25784
0.187589
0.0238209
0.282423
4.14237
0.0218051
0.0352914
0.0253413
0.229235
0.0219981
0.256563
0.022081
5.60051
0.0220953
4.10468
0.0222246
0.0220828
0.0219494
0.0219813
0.0579554
0.130142
0.022442
0.0502473
0.0227768
0.0220572
0.274837
0.168823
0.638588
0.0217884
0.0218013
0.0218442
2.856
0.0355261
0.0222645
0.0220627
2.8568
3.1636
0.0217644
2.8362
0.0339345
0.0320381
0.0224283
0.0266317
0.0222706
0.0904431
0.0217855
3.72878
0.0298421
0.0574474
0.157879
0.0397728
7.61976
4.54892
0.0554775
2.85452
0.0441615
0.0239595
2.88042
0.0218151
0.0257658
0.0636599
0.0639174
0.0218059
0.100699
0.232046
0.0218474
3.53557
3.02407
9.87438
0.0619252
0.0222714
4.15137
0.0244048
0.0222912
0.0532167
0.0224247
0.0219486
0.0236463
0.0267035
0.0491433
0.0216915
0.0218751
3.48914
3.55559
0.0223729
0.0219146
3.1143
0.0227573
0.0218822
0.0219934
0.0232992
3.78464
0.0218854
3.32552
4.88826
0.0251008
2.95291
0.0266453
0.029129
0.044413
0.0285047
10.5636
0.0217983
2.99534
0.118101
0.0220209
0.0471555
0.0224411
0.0252075
0.0220674
0.238185
3.22498
4.80699
0.0220419
6.13121
0.0236959
0.302525
0.0222143
0.0221258
0.0435354
0.022263
2.92976
8.0199
0.703441
0.0220658
0.0243144
0.0268145
0.0219507
3.93139
0.080675
0.022181
2.95296
0.0501929
0.0221271
0.0219732
0.0244432
0.0228893
2.89604
5.82927
0.230127
0.144356
0.0219905
0.385106
2.8947
0.0256619
3.90428
0.0218582
0.032404
0.366763
3.1021
0.153287
22.5966
0.0222286
0.0216787
7.04315
0.0221817
3.82933
0.672788
1.13066
0.0220812
0.0473005
3.18489
21.547
0.0220798
0.0637663
0.0237213
0.49164
0.0222728
5.39018
3.32379
0.0228849
0.023386
0.259596
0.0258561
0.0221389
6.87269
7.22223
0.0222134
2.80831
5.02152
4.58068
0.0232345
0.0217381
0.0220582
0.0218012
35.3161
0.0256393
0.0219254
3.45065
3.81236
0.101322
0.224866
0.0224928
3.19966
0.445362
0.0221787
3.00752
0.0396989
2.99953
0.454837
4.1654
0.0222723
2.30147
0.0221315
3.24254
0.0312999
5.18117
3.7779
0.0222518
3.70259
0.0221856
1.01899
4.29546
7.24854
5.33284
0.0537453
2.78997
2.9068
0.25737
0.0222793
2.76512
0.522062
0.111903
0.0216724
0.656777
0.0241441
0.0226113
12.0386
0.14254
0.0254156
0.0369858
4.46724
3.91421
5.25457
0.0551407
3.60852
3.05471
0.0232923
3.83962
0.0217997
0.0216633
0.320502
0.0217106
0.311733
15.0875
0.0222549
0.0220987
0.0295963
0.567466
0.0220556
0.0542948
0.0218073
0.0220379
0.0218919
0.0217101
0.0836205
0.0219399
0.385221
0.102241
0.030935
0.0216791
3.2278
3.27181
2.84622
0.0217143
0.0741181
0.0725673
0.0216064
0.0220807
0.022159
3.89251
0.3006
5.73268
0.022539
0.0353629
6.72835
0.0258714
0.0347921
1.00031
0.0219388
1.35438
3.63293
0.0242722
0.0559256
0.187283
5.05713
0.0219017
0.0513319
0.359081
0.0802684
0.0235504
2.72225
3.83861
0.0263667
0.0222438
0.0572119
5.27215
3.63236
3.51337
0.0217577
0.03094
3.33287
0.0241123
0.0221746
0.0656109
0.0220502
0.0309252
5.03173
0.192542
0.302348
0.0221644
4.74734
0.0375019
0.0236992
0.0216803
0.0220632
4.53103
0.225461
0.0741944
0.0235619
0.324666
0.0222734
3.25334
0.0329814
3.31662
2.78437
0.0222387
4.01097
3.97877
0.022118
9.08653
4.83816
0.0216777
3.2814
0.02766
3.17235
0.0233264
0.0223549
3.12162
0.0651958
0.0222399
0.109593
3.28788
2.2379
0.0222663
0.0221519
0.129008
0.0709619
2.98099
0.0222379
0.127305
0.197967
0.119005
0.203847
0.0222691
3.49425
7.79808
0.0324711
3.93366
0.0220881
0.0762815
0.0301824
0.121163
0.0218026
3.75821
0.0231095
0.0338077
0.0222212
0.0220503
0.022157
0.0301326
3.47302
0.0295938
0.0234513
0.308351
4.26951
3.40118
7.18295
4.93044
0.023437
3.6034
3.87885
2.85471
0.0388756
7.23969
0.0219771
0.0365052
0.0218965
3.30194
0.0306945
3.484
0.0219059
0.344186
5.11167
6.12108
0.0220718
4.22025
0.0218908
0.0221036
0.0250473
0.0222652
0.0230583
0.0220734
0.0218062
0.0222543
0.0230418
5.40456
0.218559
0.0224268
0.203476
2.94153
0.470754
0.0217761
0.0974096
0.0327036
0.0406023
3.19348
0.451792
0.0222843
0.0220397
0.0220886
0.188847
0.0219546
4.60768
0.0220939
0.0229757
0.0343927
0.0733228
0.0219875
0.0220227
2.87793
4.10744
3.05495
2.87812
19.7046
0.0231403
0.0233015
0.0219684
6.74106
0.0222174
0.0257584
0.0225433
0.347179
0.0216904
4.03546
0.0864034
0.0219732
0.0991787
0.0220322
0.0218078
5.96097
4.09353
0.0222823
0.035964
0.0230412
0.0638923
0.022022
0.211186
0.0219495
0.102186
0.309646
0.0567664
0.0229103
3.6486
0.0221111
4.59392
0.0549033
0.041255
0.0296014
0.112529
3.48811
0.0325643
0.105438
0.0718738
0.109643
7.43025
0.0270636
10.8386
0.0220633
15.2158
0.0217807
0.0302203
4.11118
2.78628
0.265992
0.0771548
0.0218576
0.022032
0.0220495
3.80759
0.0231611
5.99445
4.24788
0.0220049
0.204056
0.0278276
0.454074
0.0231857
0.0316679
3.85126
0.0266978
4.98229
0.0224792
0.0216914
0.0223531
0.0617035
0.0396697
0.139376
0.0239567
0.0217549
0.0220863
3.19837
4.69117
0.0694463
4.50385
0.0217226
0.0220331
0.0219331
0.0220682
13.8537
0.0390536
5.66164
11.7062
0.0222213
3.57276
6.27499
0.0493067
0.279462
0.0322753
0.439219
4.38416
4.21269
3.41422
0.0220757
3.05298
3.00322
0.0220301
3.74206
0.310553
0.0401102
0.0269837
4.28169
3.12473
0.0707261
0.0528504
3.87708
3.5972
2.88295
0.0226753
0.058802
2.95029
0.0220387
0.0227673
4.22765
0.0217883
0.0222615
0.212343
4.02786
0.0329515
0.0221407
0.0222652
3.88169
3.72189
3.8087
0.0892437
3.16884
0.195346
2.82562
0.022091
0.687748
0.0228341
0.0218183
0.0218963
0.0218116
0.0220345
0.0221122
0.0220983
0.511699
0.0313153
3.18016
3.16482
0.0219393
0.0220826
0.0228612
3.58768
3.64653
3.4001
0.0317085
2.02849
0.111026
1.51484
0.0555732
0.397124
0.0221614
0.0236547
0.0217711
0.092606
0.0227291
0.0222729
0.0228693
3.00738
0.0221802
0.0247715
0.0219079
0.100018
2.88766
0.0505142
7.57551
4.03775
0.109469
3.6525
0.0220458
0.0217869
0.0230543
3.90083
3.5406
0.0988698
3.09745
0.0220493
0.0940834
0.0218336
0.0299044
1.56031
0.0220611
0.125877
0.0218851
0.0221432
0.0220945
0.0456044
0.0544913
0.0225596
0.0221558
0.592733
0.350418
0.0347844
0.0951079
0.0220065
4.42347
0.0220608
0.0502609
0.0227146
4.50442
0.072767
0.0222646
0.0334746
4.29885
0.0221021
0.0261283
2.69066
0.0223642
5.26076
2.89561
0.0221813
0.0651312
0.0281661
1.19947
0.0302641
0.39565
3.81055
0.0293433
2.9709
0.0262773
0.0219278
0.0229965
0.0220406
4.22311
8.27967
0.0289267
3.39374
0.022079
18.707
0.0531056
0.0219828
0.0261506
0.0241638
5.25449
0.0457936
0.100089
3.87624
0.0222457
0.0489621
6.02672
0.0221311
0.063541
0.0222278
2.845
3.42014
0.112454
3.95924
0.0287981
0.0226324
0.206429
0.0222716
0.0216801
3.0899
4.91062
0.0222543
0.0221285
0.0952227
0.0219383
0.0275765
0.0235773
3.84627
0.15
0.0219442
0.0384987
7.37661
2.08335
0.0218151
0.0221944
0.0237258
6.37536
0.0287349
0.184725
0.0220424
0.022062
2.71267
0.276438
0.0601676
0.0281818
0.021963
0.187456
14.913
0.0222328
0.0222181
0.0238362
0.0222537
0.0525902
0.366854
0.0221515
0.0219556
0.0288567
0.0218638
0.0219661
0.145199
0.0278637
0.0414154
0.103677
0.0232386
0.0219984
4.68475
0.444585
1.84299
0.0223843
0.0221162
0.0227319
0.206039
1.34433
4.02069
0.0221206
0.0220948
0.0238041
0.0222211
5.54312
0.0222326
3.07563
3.74144
3.08719
0.0216544
0.39983
9.75903
0.021819
1.27114
0.0221527
0.0221552
4.02247
0.0301052
5.32528
4.45706
0.0268335
3.84592
0.0215175
0.0221055
0.607938
0.0226709
0.264904
0.0222259
0.023486
0.0319927
0.0296329
0.167197
0.0269957
3.64679
0.0222329
0.0218842
0.0220581
0.0219616
0.0676551
0.114068
2.88322
0.0219819
2.90054
0.0278258
0.0222454
0.022165
0.0219031
0.0216444
1.45
0.0810648
0.0968886
0.0600634
0.0354206
0.203224
0.221207
0.0637219
3.35066
5.134
2.91632
5.47175
0.0269832
2.76296
2.9949
0.0220723
0.0221008
0.0219945
3.04998
4.8579
1.84434
2.62954
5.52996
0.027462
0.124609
5.58169
0.0597304
3.58764
3.97128
4.33332
0.039052
6.8201
0.0235423
0.0345134
3.98697
0.0749158
3.96808
3.2571
3.02606
3.57466
0.124672
0.0430054
3.1655
3.06361
5.21458
0.0218154
0.0573284
0.067682
5.26861
0.0222537
0.0277023
0.0220099
0.0594116
3.03979
0.361129
0.0217837
3.4278
1.48516
0.0253093
0.102309
28.8268
0.0229695
0.373138
4.96297
0.021903
3.48002
0.0221004
0.0230891
0.0228392
2.78068
0.650769
2.97544
0.148986
3.27667
0.42446
3.0083
0.0222981
0.0301012
0.0228502
0.02198
0.0221167
0.0683699
0.0244121
0.0227011
3.76518
3.8825
0.0225602
0.0220545
0.384633
0.0244308
2.82893
0.0222736
4.10658
0.0246101
2.96341
0.0399601
4.05734
3.39875
0.0218789
0.04359
3.4605
4.57234
5.76511
2.68546
5.24226
0.0239311
0.0219818
0.0317743
0.0220468
0.0218892
2.89036
0.0221986
0.0217604
0.0238443
3.12351
0.0221064
4.50393
0.0552797
0.0300076
3.18972
0.056459
0.0660481
0.0557862
0.0222468
0.0459719
0.885237
0.0216316
3.86437
0.0379124
0.0219888
0.0221001
4.95041
5.03837
0.023137
0.0222303
0.0220272
0.0221012
0.116663
0.74591
0.0218745
0.0218783
0.0221625
4.7341
3.57048
0.0324892
0.022759
0.164671
0.0256913
0.383235
0.114976
0.0483708
0.0434388
26.0253
0.0220771
0.0233411
3.17934
0.0927247
3.34662
2.73496
0.0348621
0.0235813
3.15708
3.83856
0.0222405
0.0221542
0.0220388
0.157286
0.112322
0.0223066
0.0218836
2.92122
0.053528
3.78247
0.0943864
0.196381
3.76865
0.0220073
0.0702592
2.81289
0.0228574
3.90565
2.88915
0.0230079
3.81586
0.0223535
0.0249378
0.022665
0.0573231
0.0219258
0.100371
0.0216909
0.0218825
4.06448
10.2383
0.0216924
3.90412
0.0222534
2.883
0.0217522
0.210687
0.0217679
0.278355
0.553547
0.0230635
0.0345592
1.91269
5.53709
2.04428
0.0638282
5.67358
0.0223404
0.0221046
0.03379
0.0270646
3.75335
0.0225837
0.0243436
0.137753
0.0220962
4.27264
0.0252364
3.92755
5.27313
0.109453
0.13091
4.19711
0.0226213
0.02232
3.41032
0.0386783
0.0220603
1.2786
0.0226076
6.08905
0.0233851
3.7634
0.0221588
8.01848
32.0154
24.9412
8.00456
0.0295491
0.0220012
0.0222071
0.0260371
0.0220372
3.66627
0.260351
2.82646
0.0226619
2.99589
2.87792
2.89366
0.0220254
0.0567038
2.82952
0.0221343
0.0220863
0.0280668
6.09252
0.0551839
2.84224
0.0217723
6.78684
0.022269
0.022251
0.0221062
0.0457647
5.24698
2.8986
3.34377
3.89505
0.0220033
0.0479882
0.0309788
0.0653008
21.6117
0.193227
0.0218106
0.0220726
0.198514
0.0240599
0.292098
0.0221667
0.0975038
0.0222872
2.90269
2.83736
1.38062
0.022357
2.80578
2.74414
3.43963
0.0273481
0.0339151
0.0230047
0.0225295
2.84873
0.321586
3.02025
0.0219322
0.0296046
0.0223781
0.0939238
15.7271
3.69674
0.0882962
3.20797
0.304252
0.0939558
0.0220955
0.0221735
0.0228937
7.04766
0.0220304
0.0220047
0.0235135
0.0415072
4.94097
0.0219762
7.97453
1.63193
0.0220572
0.0221648
0.0222261
0.0219679
0.503341
0.595699
0.0219332
0.079867
0.030415
0.02217
0.0242904
4.82072
6.77916
0.0478806
0.0248484
0.054555
0.0239235
5.80222
8.21688
8.92368
0.0583028
3.10249
0.0430034
0.0483152
4.34483
0.083527
3.08368
0.0225619
4.24736
0.0792596
0.0915089
0.0220229
0.0233443
5.09831
0.368684
3.15345
0.0474106
0.0240202
0.232247
0.0219069
4.18725
0.0220512
0.0220624
0.0226312
0.0217713
0.02218
0.0218231
6.34742
3.14741
0.0219379
0.0221556
0.022094
0.0351819
0.021822
0.0714523
0.0280137
0.0385787
0.0498462
0.0264251
0.10707
4.03087
2.71846
0.0313244
0.0218725
0.0664617
0.0510565
0.0223108
0.0240649
4.96816
6.54184
0.0227805
2.61527
0.503648
0.106185
0.0236049
0.0784982
0.0220275
3.27156
0.0218823
0.0371941
0.0222042
29.5557
0.265676
0.174437
0.0460186
0.022526
5.184
0.0222004
0.0304357
5.97448
0.0310299
0.0226725
0.313282
0.0223703
0.0237245
4.36703
0.0225438
0.0241027
0.0220593
0.0218128
0.0249513
8.97213
0.312257
0.0450052
3.72669
0.0998894
0.216469
4.9732
0.0218883
0.0221016
5.56734
0.0600835
5.37253
0.0937357
15.6907
0.0219642
3.71309
5.6626
6.10804
0.0446962
0.0311905
3.38623
2.82727
0.211791
0.028195
2.77359
4.0836
0.0219487
0.0226941
0.0465264
0.0250254
4.04853
0.0298491
0.0234359
0.0304301
3.70443
0.255964
0.048102
4.4342
0.202772
0.0225426
0.022374
0.0226787
0.0572865
0.030353
0.0397781
0.0225241
4.28548
3.83216
0.09697
4.21544
7.28425
0.022749
0.0419214
4.14213
0.0220793
3.11544
0.0249731
0.0272519
5.18084
0.123979
0.0227711
0.02504
5.90355
0.0219049
0.0226505
0.026416
1.74071
0.027993
0.0220718
0.237038
7.09971
7.36328
0.0254178
0.021974
3.49707
0.022232
0.0218964
0.0262609
0.0219845
2.09926
0.0370632
2.83987
0.022036
0.0218291
0.0220746
0.0220944
0.0270706
0.212524
3.31402
0.363777
0.0219859
0.0220407
0.0220214
3.12152
0.0278895
0.022155
0.0240542
0.0220746
2.99315
0.056559
7.02672
3.50224
6.58788
2.1817
0.021927
3.74062
5.46692
3.79937
0.0216275
0.177271
0.0221765
0.033359
0.219171
0.0220663
0.0563884
4.02211
0.0224387
0.732998
4.10724
1.39451
11.9422
3.91145
8.46563
0.0527187
11.8143
2.96666
0.0222449
0.0964998
0.0233992
0.0218578
0.0932582
0.0267566
0.024477
0.0832985
0.021974
1.69395
0.284624
0.210947
5.76771
7.6564
0.0222255
0.260076
0.02163
0.0222088
0.0852546
0.0219151
0.0343011
0.0274139
3.31585
0.0267584
0.752585
19.8969
0.0221566
0.0511777
0.0237973
0.0236446
0.423335
0.033986
0.0289293
0.0231405
0.0220774
0.0226434
0.0260913
0.0230521
0.0222533
0.022807
3.18369
0.0227109
3.65636
2.91338
0.0221422
0.0217968
1.02782
0.0990506
0.0220627
0.0427666
0.0218159
0.0511583
2.87343
3.91066
0.0230856
4.43228
4.46045
0.0317241
5.68123
3.22824
0.0220538
0.0221079
0.0224274
0.0263075
0.0235245
3.22992
0.0854523
0.238436
2.99728
0.0218242
0.022534
4.01758
0.0218692
0.0220746
0.0225345
0.0265034
3.81935
3.35778
0.100172
0.0599065
3.47956
3.26687
3.14788
2.78827
0.0218803
0.0239283
0.0466264
0.273154
0.100258
3.29707
5.285
0.0248685
0.022072
0.02216
0.0216865
0.724493
0.0223465
0.0219736
2.13303
7.15177
0.28818
0.0220416
5.30294
0.0340925
1.85611
0.0220734
0.0941515
0.0220962
0.0235054
0.0233135
8.51795
2.83818
0.0319179
4.99636
0.0220591
0.0220766
0.0222673
0.0275685
3.07086
0.0219206
0.0280763
5.68659
0.0217792
0.039997
0.0221539
3.10598
0.0223064
0.282729
0.022119
0.276641
0.102038
0.032481
0.0232917
0.683842
0.0225249
0.0321379
0.428894
0.142951
0.0222662
0.0221984
0.0217609
0.0222363
7.44328
0.173158
3.02167
2.98651
0.021592
1.70781
0.122112
3.47907
5.34812
0.0224883
0.0220285
0.155536
0.0221087
0.0227563
12.0254
5.36211
3.96672
3.08696
0.0221462
3.73743
3.01881
5.58698
0.0233808
3.18633
0.102722
0.0222717
0.830567
3.39454
3.93692
1.84277
0.0225863
3.38516
0.0220673
0.498594
0.0245703
0.0217935
0.0218743
0.187419
4.95301
0.0758436
0.271839
3.40573
3.42741
0.0238188
0.0219487
4.33044
3.94053
0.0222663
0.0221282
0.211881
3.0492
6.97265
0.0292825
0.0285142
11.9307
2.77614
0.296544
0.0957049
0.0219768
3.32466
4.47501
6.55438
0.0417066
0.0221483
0.0229906
0.0401437
0.150538
0.0219211
0.211894
3.26509
3.11966
0.0442917
0.0219938
3.08825
0.0220381
3.12296
3.63505
16.1884
0.0226305
0.234885
0.024162
3.23916
1.43119
0.0222562
0.023391
0.0221024
2.23296
0.0222736
0.0232732
0.0229152
0.0513408
0.663681
0.206096
3.23434
0.239398
3.25681
0.0912745
3.13079
0.0463362
0.0400613
0.022125
2.79994
0.0393171
0.0231443
0.0221758
0.0219851
0.0515412
0.0222816
0.0221825
0.0239823
0.0218999
2.86884
0.0312269
3.48671
0.0488649
0.0921028
0.0218689
0.0310912
3.36211
0.188925
0.0951247
0.0223869
3.62134
0.0221039
0.0415175
0.0571289
0.0289091
0.0409219
0.0217511
3.41468
0.118493
0.0805398
0.022274
0.0238046
3.49021
0.0224205
3.88301
0.191931
0.0234534
0.0222549
3.01067
0.181993
0.941092
3.40386
0.0744448
3.23462
0.0219369
0.0220157
0.0891377
0.107922
0.0852533
0.140652
1.60124
7.55773
3.54842
0.23662
4.70596
0.0239798
0.0230594
0.0237179
3.11637
0.143848
3.4822
3.31533
5.18915
0.0222838
2.89598
0.0305148
0.0277277
0.0384024
0.0786984
2.07217
0.022152
0.0232172
0.748236
3.20449
0.0963339
6.4021
0.0219934
0.0236596
0.0220573
5.28487
0.10224
3.23665
0.0239786
0.195944
0.0227596
0.024734
5.2173
0.0218946
0.0876359
0.096354
3.31875
3.35043
3.45418
3.89865
4.39696
0.140897
3.22726
5.86109
0.022266
0.5199
4.29182
0.0378911
14.1326
0.246862
3.99748
0.0233249
0.426982
0.133686
0.0325869
0.0224757
2.8783
0.238392
0.0216659
11.0913
6.33926
0.0220345
0.0418261
2.44907
2.82353
0.0258284
2.8477
0.0282026
0.19977
0.159347
0.0289326
3.90962
4.70877
0.0226474
0.160396
11.8061
0.0791172
0.157281
5.33051
4.71728
0.0235349
0.0221179
2.97621
3.15972
0.0221563
2.81286
0.0406514
0.44568
0.0821203
2.80143
0.0221487
0.0900067
0.0408348
0.0863621
0.021887
3.73456
2.92015
0.764043
0.0860179
0.0220838
0.0297462
0.0238743
0.459036
0.0228052
0.451948
3.26197
3.89565
0.0230557
3.22115
0.0696995
0.0521753
2.83847
0.0454463
0.0236837
0.235058
0.0222082
0.120807
0.0220618
3.38366
0.373629
0.0264679
0.0266288
2.65488
5.34397
0.0236359
0.0407438
0.144947
6.36753
0.0804079
0.0221779
0.0220954
0.0297649
3.85215
0.022148
0.309029
3.64835
0.021866
3.85281
0.072358
0.024666
0.0749125
3.14549
0.203574
3.29725
7.04221
3.92489
0.0274374
3.05491
0.614976
0.0233364
0.0704754
0.095424
3.13404
0.022535
4.93512
0.0226457
6.56506
0.0277759
2.80978
4.47954
0.0990031
0.0470531
0.0851237
0.0238879
0.0220385
0.0218565
0.0218642
0.0469446
0.022127
3.6507
11.0654
0.044934
2.87149
2.83953
2.67234
4.30011
0.0340456
3.66404
0.0220468
10.0206
0.0498163
3.70571
1.39449
2.69247
0.0221153
0.0254734
0.0270745
0.0278706
0.0220484
2.72122
0.0231204
2.86151
3.22663
0.0303152
0.0220099
0.219986
0.0224743
0.0224068
0.0231687
0.0855147
0.217339
3.95473
2.9107
0.0230512
0.0232493
2.73785
0.0247211
3.13921
0.021723
0.197597
2.71215
2.81592
26.0106
0.0718053
2.36656
0.0224357
0.0233743
4.11461
4.27452
0.0233272
0.072267
3.55118
4.37829
0.116812
3.66349
0.0221177
0.0220285
0.0255351
3.34514
0.0222801
0.0249063
0.0232728
0.0219971
0.0411629
0.02209
0.166885
0.0220537
0.022018
0.0219781
0.964859
0.342388
0.072188
0.0636686
0.0937979
0.0220135
0.217557
0.270601
0.0224798
4.9541
0.021888
22.8901
0.0219498
1.42331
2.99427
0.0223782
0.260676
3.7375
0.090461
0.114262
0.0436382
0.0219246
4.26251
0.0233365
2.64043
0.0337819
3.25903
0.0222314
0.041212
0.0228932
0.0346748
3.78232
0.0220701
0.173913
4.36314
3.30483
2.89724
0.0219621
3.35416
0.0268581
2.99039
0.0870869
0.168497
0.0234225
0.0219831
3.07972
3.37884
0.0219826
2.77744
0.022186
0.509973
0.0238042
2.76483
7.83555
3.4391
0.326172
0.028034
0.0220605
0.0228956
3.00261
0.0519308
0.022484
0.022583
0.107152
0.867604
3.40496
0.308975
3.69155
3.13519
0.160409
1.18228
0.172425
3.23335
2.81769
0.0220616
5.51846
3.55758
0.67328
0.144381
0.0331353
0.0948022
5.14195
0.0219678
1.99355
0.0885156
0.0219327
0.0218274
2.60828
1.63768
0.046808
0.099136
0.0832451
3.1664
3.03289
0.022151
3.91063
3.03226
0.0221385
0.211845
3.01452
0.363537
0.0226775
0.0301582
0.135279
19.124
3.72164
0.0306038
0.0231235
0.0217031
0.0227625
0.0223669
0.103384
2.8154
0.134783
4.32655
0.0689372
2.8249
0.0221563
0.0220151
0.497074
0.0698647
0.0225579
0.0306066
0.0258018
0.0890937
0.0366638
0.0219326
2.70341
0.0792818
5.35429
0.227953
0.0267139
3.07581
0.0350626
0.0858233
0.0221064
0.106618
0.209621
0.145569
0.0220418
0.595229
0.0221655
0.0245512
2.88467
25.1872
1.84397
4.00588
0.0405656
0.022182
0.592507
0.0267422
0.524904
0.0220224
0.0221564
1.69211
0.14575
10.341
0.971064
0.0570324
0.126993
0.02346
0.0368989
0.0218005
0.035873
0.0281692
0.0277447
3.39395
0.0339241
3.35939
0.635773
23.8297
11.6438
0.0483037
0.0486611
19.4434
0.0767898
0.0234899
0.0221473
4.98737
0.0220153
3.03016
1.44091
0.0358273
0.0515817
0.0221587
1.18886
0.304677
0.0218605
0.342865
0.0223079
0.0218277
4.27522
0.0222728
0.0220952
0.0678082
0.0228893
0.0220215
0.0232024
0.0220597
2.9215
0.0232838
0.0232549
0.0220835
0.293427
0.0350529
2.87031
2.90695
0.0222516
0.091468
2.87057
0.022165
5.05402
0.0242123
0.0358117
0.022021
0.0241306
0.0421467
0.0313237
0.0278421
0.0475834
0.0219038
0.0216464
0.0290122
0.0217052
0.0220105
0.0220243
0.021743
0.0719856
1.90289
2.93397
0.0280832
0.0327192
0.0605957
0.0257166
0.0236988
0.0224268
0.0285602
0.227862
1.82361
0.0269673
6.83378
0.0221473
0.308651
0.0325089
3.76124
0.0358765
3.89466
0.0220948
0.252786
0.0270303
5.45668
3.23925
0.0238436
0.0513622
0.0226314
0.0224838
0.0220557
0.0224551
0.0587093
8.02699
2.86886
0.0299427
0.321641
1.88099
1.57974
2.54716
0.0229309
0.0221604
0.0218645
0.230435
0.0227759
0.0216796
0.179377
0.0279227
0.0550317
8.18102
0.0307554
0.0787194
0.0237857
0.0224879
0.119247
1.10159
2.87633
0.761027
0.613501
7.60967
8.19282
2.99121
0.0221162
0.0777227
0.0220364
7.95058
0.0226365
0.0218981
0.0340892
0.0284731
1.52414
0.0219639
0.0220983
0.347922
0.0221579
0.0224801
0.0389355
5.01421
0.0296233
0.0354938
0.0291541
0.0229683
5.16461
0.0241809
0.0260563
0.0665937
0.0469169
0.0306465
0.0233547
0.0225886
0.17852
3.33317
14.3713
10.8993
0.0226539
2.96521
0.0218799
0.0479932
0.0222254
0.0220915
0.034803
0.0222266
0.0455454
3.18931
0.0223217
0.0273037
0.0243581
4.87962
0.0235765
0.0217597
0.0642683
2.62305
4.39381
0.332675
3.199
0.282529
0.0220609
5.07169
0.0261342
0.0265557
0.0346544
0.0260863
0.0222861
8.18109
0.329432
1.49346
0.0244662
0.0218767
0.590877
0.0321673
0.0543701
0.0233482
0.0249366
0.0642758
7.2722
0.0487291
0.057728
0.0335428
0.0408026
3.48278
0.0221015
0.691649
0.0222628
2.83515
0.0219155
0.0228285
6.80999
0.172889
19.8688
0.25986
0.0226124
0.220042
0.411033
0.931765
16.8864
0.0580763
0.0264812
0.202454
3.63692
0.0371863
8.40777
0.0250023
0.0224136
1.33662
4.4757
0.0427192
9.02019
0.0704001
0.389121
0.0257821
0.692883
0.471839
0.0289046
0.20309
4.14779
0.0228084
14.565
0.0357926
0.0220679
0.0411631
0.0239421
0.0254119
3.9007
0.304723
2.61622
4.11147
0.0220422
3.39173
0.0224352
0.0550367
0.170608
0.022118
0.0711222
0.0730176
4.85435
0.0219651
0.206809
4.37107
0.0261308
0.0215967
0.0304497
5.14928
0.0232108
0.178153
0.0357286
0.0266918
0.0221116
5.04326
0.0418667
0.278447
0.0226769
0.0217825
0.0257778
11.0801
2.55062
0.220396
0.13192
18.251
0.0245374
5.21718
0.0221377
0.0220315
0.0252253
0.183654
0.0221712
3.93983
4.12952
6.97635
0.041023
0.0221007
0.021602
2.7122
0.0219458
3.20343
3.40693
0.0221813
0.024309
0.0848829
0.0269324
0.296901
0.181946
3.40909
0.271931
0.201123
0.880405
0.235342
2.6674
0.0285852
0.0223288
0.0226342
0.0227844
0.0221468
0.022835
3.49278
0.0220015
2.88812
0.0749962
0.0221282
3.34
0.0511478
0.236933
0.0224538
0.190762
0.0494728
0.242799
5.57743
0.0887032
0.0524588
0.0231641
21.6075
0.0220656
0.0283812
5.49566
0.0234364
0.0222125
0.0220768
0.0222034
0.286639
0.0221369
0.0219142
2.92769
0.0594622
0.0226691
0.051798
0.0227092
0.0243888
0.0221763
0.0261505
0.0248434
0.024053
0.0223067
0.618794
0.428531
0.0227333
0.170329
0.0270005
0.0238059
3.59665
5.15149
0.0221716
0.0224872
0.0222671
0.0218055
0.0230784
0.0507199
0.0461815
0.0235883
0.0301592
0.0222867
0.127744
3.8696
0.0225684
0.0469681
0.0360292
4.15547
0.0221356
0.040901
2.94176
0.0738449
0.0391011
0.0239305
5.2936
3.65411
0.022959
0.0231514
0.0231806
0.0461801
0.0238349
0.168558
0.0232681
0.0264193
0.0758615
0.0956111
13.3062
0.61796
0.0238255
0.048301
0.0223209
0.022265
0.0228034
2.61983
0.0752284
0.0220326
4.88125
3.34765
0.0252295
0.0248757
4.27263
0.257503
0.0431085
0.0220284
0.13031
16.1847
0.0218702
0.0226292
0.0220589
0.0229436
3.9513
0.0232143
0.0520299
0.0274128
0.0424175
0.022277
2.11971
0.0222669
0.0542473
0.023066
0.0220944
0.0626539
0.0227437
0.0222099
3.90196
7.01772
0.0848343
0.0899594
0.022669
0.025437
0.0222986
3.12319
3.59939
0.0222727
0.0487451
5.37657
0.0217313
0.227899
17.5542
0.845837
0.0221042
0.0262875
0.089054
0.0903963
0.0258429
7.46472
0.0461624
0.0224626
0.0395338
0.0226346
4.51606
2.97414
0.022002
0.108925
5.41006
0.022269
3.25205
0.0260219
0.364213
0.0221024
0.0262293
20.9854
10.9872
5.55728
0.0345709
0.0219402
0.0220659
0.0277707
0.0359257
0.183927
4.74686
0.0219841
0.0218011
0.0235746
0.0390805
0.213997
0.0325922
0.0506321
3.3304
0.173162
0.0314847
0.143959
0.0221926
0.0753352
1.32093
0.0219506
0.0577711
0.061357
0.0220673
0.0306977
0.139801
12.7498
0.0233444
0.0275242
0.0215769
5.48059
2.98181
13.6224
0.0238022
0.286678
0.0220496
0.0218676
3.00437
0.0226329
0.0218838
0.0218538
0.0735727
5.02748
4.5393
0.0220917
0.226627
3.29523
0.0221272
0.0219826
0.092319
0.0228274
6.97314
0.222899
0.0233351
0.0367214
0.0222227
4.06518
0.0485134
3.89012
0.0234263
0.0219524
3.75641
0.0415115
6.07575
10.7328
0.0624827
0.0369707
0.102906
0.309018
3.33654
0.0574536
0.0313612
0.0692591
4.97223
4.35341
0.0293035
0.747976
9.973
0.0219391
0.0217435
0.0263347
0.0310525
3.93006
0.077634
0.0221599
8.41641
0.0239582
4.19836
0.168634
0.0220806
0.0262474
3.40792
6.56521
3.13118
0.0390661
0.0233727
0.02209
0.259839
3.60732
0.0416944
0.0222933
0.0857145
0.297836
0.02266
0.0220783
0.022294
0.0255237
0.0225544
0.0672046
8.24815
0.0220118
0.0242416
0.0217563
0.0392299
11.2494
0.0220975
3.89705
0.0944256
0.0224106
0.0237966
9.55283
0.0727557
0.042218
0.0225385
0.119098
0.0228003
0.0420437
3.14533
0.0222858
0.0609537
0.022286
8.97511
0.0234477
0.0401727
19.2815
0.0402862
0.0325999
0.688864
7.91138
0.0237858
0.0525532
0.0238943
0.0219213
3.79058
0.0224385
0.280443
8.8864
1.52249
0.0222675
0.0235165
9.75262
3.25574
3.7338
0.0418038
0.220339
0.0220051
0.021712
0.022576
0.0263544
0.0295451
0.0221108
0.0444631
0.268378
0.0221023
0.0475499
0.185858
0.0220979
0.040237
3.18381
0.023134
3.32385
0.293678
0.0558567
0.0476451
0.0244464
0.0231063
3.39135
10.889
0.0216302
4.5786
0.0250632
0.0227699
3.85413
0.0403186
0.0265437
0.180467
0.0216564
0.0230097
0.0220156
9.68053
0.0219891
0.0220903
2.88779
0.0222459
4.70496
3.11864
3.83912
0.0219912
0.027114
2.41117
0.0263753
2.92283
4.72833
3.9051
0.0217104
0.0820907
0.0348388
5.10366
0.0223227
3.33911
0.0218967
1.70136
0.10742
0.816276
5.7792
0.0232874
0.0272814
3.81327
7.57904
0.0216026
0.0223306
3.33231
0.0223944
0.0291608
3.17646
3.44461
3.38152
0.3645
0.0224055
0.0871205
0.0908955
4.4635
0.0361812
6.67817
0.0219735
0.0257031
0.0281864
1.83176
0.12684
0.022972
2.99149
0.0222836
0.0283012
3.27194
0.055212
0.0963436
5.24608
0.0224751
0.0502337
0.0222861
0.0223388
0.0218923
3.6026
0.220842
0.0246996
2.73698
4.79771
0.117479
0.0222238
0.0228083
0.0219107
3.20145
0.178165
3.60976
0.0216113
0.032303
0.129125
0.0245811
0.0697271
3.05274
3.40489
0.153364
3.6211
6.38534
0.0460985
0.0292308
0.0278615
0.0225409
0.0223275
0.0222731
3.13111
0.0272644
0.0222647
0.621538
0.191095
6.61047
0.0252764
6.6671
0.0219547
3.22456
0.0225608
3.38332
4.86908
0.0235367
0.355888
11.3855
0.0220647
0.178068
3.50311
0.0217721
0.0828653
0.0228161
3.17534
0.0868911
0.292322
0.0222525
0.0530499
0.0480535
3.24855
0.0987039
0.0221253
0.0667066
0.0501363
0.0226415
2.91
0.0632721
0.0232698
3.90573
0.0625385
0.0263548
0.0573326
0.0809597
2.39615
0.0255592
0.0277293
1.02704
2.76001
0.104384
1.67983
0.228411
0.0273115
4.26163
0.0457666
0.0218532
0.0269946
5.75599
3.12815
0.025273
3.30766
0.0455588
0.0721292
3.74388
3.32451
0.0223358
0.0222946
0.0523751
0.0220083
0.109198
0.20825
3.23939
0.0358115
2.86096
0.022064
3.8558
3.95398
0.0220368
3.07987
0.0219646
9.05611
0.0255512
0.0227143
1.28126
0.0297365
0.0225964
3.51157
0.0675587
0.0237974
5.55605
3.87176
0.264
0.182833
0.0234055
0.0746386
9.89232
0.0215567
0.0224125
3.86407
3.33055
3.40654
0.0470432
0.0392515
0.0231975
4.45921
0.0223954
0.025181
3.46688
2.93806
3.92914
3.76214
0.0229696
0.048262
3.68317
0.0618752
0.0220669
0.0260317
3.04286
0.0239746
0.0416522
9.21828
0.0415823
3.3124
0.0221726
0.0765117
3.6953
0.0421813
0.14369
0.0247034
0.0275163
0.0779774
0.0429006
0.0929353
0.146899
0.0415348
3.01676
0.0219577
0.04317
0.0219858
0.188935
3.02987
0.0222362