/*--------------------------------*- C++ -*----------------------------------*\
| =========                 |                                                 |
| \\      /  F ield         | OpenFOAM: The Open Source CFD Toolbox           |
|  \\    /   O peration     | Version:  v2012                                 |
|   \\  /    A nd           | Website:  www.openfoam.com                      |
|    \\/     M anipulation  |                                                 |
\*---------------------------------------------------------------------------*/
FoamFile
{
    version     2.0;
    format      ascii;
    class       surfaceScalarField;
    location    "350";
    object      phi;
}
// * * * * * * * * * * * * * * * * * * * * * * * * * * * * * * * * * * * * * //

dimensions      [0 3 -1 0 0 0 0];
oriented        oriented;


internalField   nonuniform List<scalar> 
20823
(
0.726459
-0.256268
-0.470191
-0.0213026
0.0626672
-0.0413645
0.495935
-0.603489
0.107553
0.0305007
0.134176
-0.164676
0.113888
-0.135992
0.0221046
-0.0507553
0.157745
-0.106989
0.150765
0.0624813
-0.213247
0.0128204
-0.0132763
0.000455927
0.397984
-0.30729
-0.0906937
-0.468449
0.43938
0.0290687
-0.0104822
-0.0897063
0.100188
-0.000389283
-0.00637491
0.00676419
-0.00439274
0.0298487
-0.0254559
0.48414
0.0553764
-0.539517
-0.100526
0.246692
-0.146165
0.0117393
-0.480188
0.282308
-0.558539
0.276231
0.109887
-0.140059
0.0301722
-0.000492389
-0.00230914
0.00280153
0.477473
0.175702
-0.653174
0.0668433
-0.262592
0.195749
0.00520629
0.0028781
-0.00808439
-0.00434947
-0.00280299
0.00715247
-0.211081
0.184335
0.0267462
-0.00166719
-0.00630438
0.00797158
-0.128634
0.279309
-0.150674
0.124783
-0.166729
0.0419457
-0.0362265
0.425369
-0.389143
-0.00185179
0.000747915
0.00110388
-0.0462083
0.0401344
0.00607396
0.319943
0.406516
-0.421254
-0.0679239
0.489178
-0.279945
0.132028
0.147917
0.00169299
-0.00218538
-0.384857
0.319963
0.0648931
-0.334085
-0.00246497
0.33655
0.104154
-0.232788
-0.0744948
0.551967
0.184497
0.0883422
-0.272839
0.25251
-0.0134633
-0.239047
0.00017881
-0.151824
0.151645
0.202821
-0.237988
0.0351667
-0.00140135
0.0103365
-0.00893513
-0.00197854
0.00174671
0.000231828
0.3177
-0.396926
0.0792262
-0.00973764
0.00807044
-0.206677
0.27352
0.00368558
0.199136
-0.0290318
0.152906
-0.123874
0.0148355
-0.0171127
0.00227715
-0.0679382
0.0903771
-0.0224389
0.158047
-0.0531999
-0.104848
-0.00162656
-0.00645632
0.00808287
0.00731298
0.000964528
-0.0082775
0.170258
-0.114102
-0.0561557
0.252427
8.28376e-05
0.00799641
-0.00585859
-0.00213782
-0.374592
0.338365
0.0727122
0.13942
-0.212132
0.359301
-0.273223
-0.086078
-0.118243
0.0892111
0.0934174
-0.291522
0.198105
-0.0343347
0.0128935
0.0214412
0.329751
-0.200971
-0.12878
-0.348262
0.0972597
0.251002
0.0605573
0.0280663
-0.0886236
0.0720042
-0.0894777
0.0174735
0.127378
-0.0174909
0.414375
-0.529865
0.11549
-0.337535
-0.047322
0.23447
-0.161508
-0.0729616
-0.384093
0.352464
0.0316289
0.0101355
-0.014485
0.00131816
-0.0013003
-1.78581e-05
0.092522
-0.0205178
0.0264797
-0.360565
0.0150294
-0.0829676
0.317561
-0.377004
0.059443
-0.396228
0.0137669
0.382461
-0.0220123
0.146795
0.184027
-0.13544
-0.0485867
0.0147814
-0.0121497
-0.00263175
0.0086913
-0.0100927
-0.00212089
-0.00451555
0.00663644
-0.047143
0.309383
-0.26224
-0.167268
0.260685
0.118864
-0.219391
-0.216077
0.498385
-0.00595641
0.143138
-0.137182
0.0129323
-0.0137086
0.00077631
0.248411
-0.310553
0.0621413
0.0963795
0.249458
-0.345837
-0.110926
0.00354871
0.107377
0.00350908
-0.00350908
0.00871957
-0.00882545
0.000105886
0.0175836
-0.132327
0.114743
-0.0890008
-0.259261
0.0929005
-0.0323433
-0.00175124
0.00215948
-0.000408239
0.558809
-0.257224
-0.301584
-0.223198
0.154994
0.0682035
-0.00146544
-0.000513098
-0.31088
0.105818
0.205062
0.611367
-0.115431
0.0124568
-0.00247317
-0.00998364
0.0068794
0.0863857
-0.0932651
0.0619252
0.094758
-0.156683
-0.0266042
-0.012444
0.0390482
-0.118267
0.112311
0.00138418
-6.60211e-05
-0.345482
0.458229
-0.112747
-0.419961
0.460879
-0.0409179
-0.0641499
0.44663
-0.38248
0.00647768
-0.00810424
-0.47408
0.40993
0.00531719
-0.00743807
-0.00486475
0.00581309
-0.000948343
-0.208948
-0.101933
-0.116106
0.00143995
0.114666
0.00126403
-0.00233867
0.00107463
-0.315477
0.252257
0.0632204
-0.0164765
-0.0325656
0.303878
-0.181067
-0.122811
0.0657161
-0.485677
-0.00170644
0.000406138
-0.0542771
0.205043
0.00128271
0.00494518
-0.0062279
0.117167
0.00712247
-0.124289
0.476465
0.00767578
-0.052131
-0.171067
-0.0195338
0.00494314
0.0145906
0.163665
-0.151185
-0.0124791
-0.145852
0.0276089
0.0116928
0.00287405
-0.0145668
-0.118304
0.111416
0.00688789
-0.445648
0.501024
0.0147171
-0.000453724
-0.0142633
0.00921829
-0.00190531
-0.150461
-0.0253909
0.175852
0.131344
-0.129404
-0.00193966
0.00855174
-0.0899132
0.0813614
-0.000122544
-0.00108474
0.00120728
0.0401362
0.130015
-0.170152
-0.0463421
0.0197379
0.0663197
-0.462548
0.616129
-0.605349
-0.0107802
-0.00684646
0.00866823
-0.00182177
-0.0019869
0.0949906
-0.0930037
0.268605
-0.524874
-0.152026
0.095819
0.0562075
-0.282441
-0.26647
0.54891
-0.134905
0.0187987
0.295758
-0.111261
0.0221304
-0.0386068
0.0186652
0.0890137
-0.107679
-0.0513275
-0.332765
0.0108915
-0.0118985
0.00100705
-0.177268
0.543369
-0.366102
-0.161441
-0.0670447
0.228485
-0.073884
0.0904196
-0.0165355
0.00140088
0.0114195
0.0306493
-0.120079
0.0894294
0.281925
-0.152048
-0.129877
-0.0608598
-0.150221
-0.000935894
-0.0095222
0.0104581
0.195526
-0.293432
0.0979067
0.00286274
-0.00147856
-0.0991904
0.214174
-0.114984
-0.00635136
0.00148661
0.39435
-0.302395
-0.0919552
0.007865
-0.126169
-0.0466789
0.243403
-0.196724
-0.033486
-0.118541
-0.0930062
0.11059
-0.105499
0.167424
0.0521994
0.0972256
-0.149425
0.292469
0.189814
-0.482283
-0.570671
0.447601
0.12307
0.0823977
-0.528046
-0.00087146
-0.000980331
0.0240525
0.0350185
-0.059071
0.141265
-0.00992091
-0.511617
0.297731
0.213886
0.00311936
-0.00185533
-0.539161
-0.0261463
0.565307
0.266823
-0.0184118
-0.269866
0.222723
-0.536991
0.426774
0.110217
-0.00750766
0.000661206
0.00911077
0.103505
-0.112616
0.102648
-0.120763
0.0181156
-0.286713
-0.0287645
-0.0240058
0.00641029
0.0175955
-0.255984
0.352364
0.112825
-0.274265
-0.00827801
-0.0606767
0.347231
-0.286554
-0.0142392
0.00984644
-0.033604
0.119605
-0.0860009
-0.466548
0.390701
0.0758477
-0.000571488
0.0018542
0.327703
-0.418758
0.0910545
0.123066
-0.137518
0.0144518
0.219653
0.178331
-0.00165776
0.000325213
0.00133255
-0.0349573
-0.011251
0.344041
-0.337679
0.298955
0.0387236
-0.000995878
0.000873334
-0.0133048
-0.00622901
-0.144521
0.184657
0.415452
-0.328712
-0.08674
-0.0778271
0.105893
-0.0829035
0.400603
0.290706
-0.215075
-0.0756305
0.239488
-0.300164
-0.122688
0.109966
0.012723
-0.106028
0.112908
-0.0183704
-0.0895656
0.107936
0.289149
-0.241793
-0.0473568
0.014832
3.52242e-06
0.00149517
-0.00779955
0.301057
0.257752
-0.131829
0.174799
-0.0429698
-0.308374
0.610553
-0.302179
-0.123038
0.109731
0.013307
0.0537468
0.000852325
-0.0545991
0.0495913
0.239558
-0.00199005
0.0136828
0.274811
-0.0644728
-0.210339
-0.427894
0.275227
0.152667
0.153801
0.175949
-0.0939571
0.102509
-0.00288598
-0.0048023
0.00768828
0.296576
-0.10105
-0.0398066
0.518367
-0.47856
-0.0130896
0.0104083
0.00268125
-0.261208
-0.166686
-0.237863
-0.0728038
0.310666
0.10585
-0.230296
0.124446
-0.167396
0.341388
-0.173992
0.107495
-0.109482
0.0773627
-0.191611
0.114249
0.013097
0.00162012
-0.193414
0.146735
0.0797591
-0.00625308
-0.073506
-0.274264
-0.237353
0.00112318
0.0047796
-0.00590278
-0.0122378
0.19446
-0.26399
0.0695293
-0.00266289
-0.111705
0.114368
0.018638
0.0319501
0.352177
-0.384127
-0.10838
-0.014309
-0.157369
0.256507
-0.0991382
-0.109961
0.128627
-0.547077
0.513857
0.0332195
0.123252
-0.000186015
-0.583264
0.599324
-0.0160603
-0.00289579
-0.0104874
0.0133832
-0.022428
-0.514563
-0.00596551
0.00557623
0.683678
-0.464111
-0.219568
-0.263068
0.366849
-0.103781
0.527408
-0.113033
0.388231
-0.0513912
-0.33684
0.146505
-0.137394
-0.114777
0.118094
-0.00331709
-0.171498
-0.0501635
0.221661
0.137254
-0.137076
0.17385
-0.310663
0.136812
-0.017387
-0.449161
-0.0787643
0.109414
0.0996362
-0.124265
0.0246289
0.0836629
-0.117267
0.371256
0.114058
-0.485314
0.315531
0.295836
-0.371609
-0.12588
0.497489
0.00611865
-0.00630423
0.000185575
-0.0107977
-0.37498
0.550682
-0.275211
0.374544
-0.0993339
-0.00457804
-0.00851156
0.000845861
-0.00996397
0.00911811
0.516791
-0.163314
-0.353476
0.00514456
-0.00742615
0.0022816
0.205689
-0.0998391
-0.136444
0.166945
0.407826
-0.314501
-0.0933252
0.212589
-0.10335
-0.109239
0.200122
-0.575102
0.127071
0.0309765
-0.100241
0.471497
0.0128782
-0.011398
-0.00148015
0.224402
-0.201262
-0.0231404
-0.0917317
0.0762573
0.0154744
0.121493
-0.0218563
-0.169436
0.0189749
0.0255391
-0.0290249
0.0034858
-0.0454506
0.0695031
-0.10956
0.00365713
0.105902
0.00839159
-0.0082284
-0.000163189
0.0821386
-0.181329
-0.193642
0.278629
-0.0849878
-0.00261312
0.00775767
-0.0981922
-0.392068
0.49026
-0.174796
0.0429671
-0.181877
0.132133
0.0497439
-0.0818194
-0.0773161
0.159136
-0.49023
0.144748
-0.0292786
-0.104031
0.133309
-0.00863439
-0.111444
-0.51692
0.145311
-0.0141814
0.00407049
0.0101109
0.00626087
0.00852058
-0.00532799
0.0351767
-0.172423
0.0906033
0.462675
0.170755
-0.633431
0.00713695
0.00158261
-0.205156
0.0346541
0.170502
0.0904323
0.184379
0.0880628
0.0905285
-0.178591
-0.297527
0.12603
-0.0514198
0.405875
-0.354455
0.198181
0.0925248
0.310386
-0.213126
0.0984569
-0.189242
0.0907849
0.10837
0.399304
-0.507674
-0.133276
0.454306
-0.32103
0.00299546
-0.00465322
0.000349497
6.98678e-05
-0.000419365
0.0535826
-0.391261
-0.452132
-0.0949449
0.00197555
-0.0010109
-0.000964645
-0.302511
0.0707115
0.2318
-0.520925
-0.0182363
-0.408354
-0.178238
0.586592
-0.159778
0.25355
-0.0937715
-0.0469556
0.0456171
0.00133848
-0.362896
0.1955
0.000437005
0.00201244
-0.00244945
0.000200776
0.0127315
0.133626
0.170252
0.0115884
-0.00785444
-0.00373392
0.235005
0.0753807
0.0670455
-0.117801
0.0158632
-0.167687
0.17675
0.102559
-0.00860701
-0.0450929
0.0536999
0.440603
-0.408653
0.0102818
-0.0102739
-7.89908e-06
-0.0926091
-0.0660801
0.158689
-0.324449
0.390769
-0.114363
-0.00605521
0.120419
-0.101686
0.351144
-0.266287
0.108919
-0.394541
0.324135
0.0704066
0.0881274
-0.0986096
0.000645184
0.000743944
-0.00138913
-0.00414497
-0.00673462
0.0108796
0.305991
0.0636963
-0.369688
0.0203868
-0.0232826
0.339047
-0.0424712
-0.116346
0.10101
0.0153366
0.310635
0.373043
-0.0324643
0.333521
0.022801
-0.137164
0.00871709
0.453958
0.0074345
-0.00131585
0.0313964
-0.00585735
-0.0239124
0.0313263
-0.00741394
-0.400197
0.124987
-0.191501
0.279843
0.144595
0.067994
0.327105
-0.378525
0.0711043
0.00865483
0.0112559
-0.106852
0.0955966
0.337584
-0.105987
-0.231597
0.00698664
0.00460171
0.176252
-0.0777946
0.336613
-0.369077
-0.485471
0.308203
-0.0854847
0.13982
-0.2615
0.12168
-0.000369122
0.00876071
-0.083281
-0.00646687
0.0897478
0.109658
-0.128028
-0.140831
0.139618
0.00121229
0.513373
-0.152293
-0.36108
-0.0112033
0.0378806
-0.0266773
0.00674369
-0.00689368
0.000149993
0.250935
-0.25882
0.00788591
-0.0989812
0.0927281
0.374131
-0.509837
0.135706
0.0195091
-0.147612
0.128103
-0.0707639
0.0677983
0.00296555
0.00933582
-0.00848996
-0.142127
0.119606
0.0225213
0.008035
0.0158599
-0.0238949
-0.309755
-0.385525
0.493895
0.0123511
-0.00145963
0.689255
-0.291394
-0.397861
-0.0796335
-0.0193477
0.0298603
-0.0250406
-0.00481973
-0.0621413
0.0944854
-0.0323441
0.355226
-0.219466
-0.13576
0.0707801
0.122279
-0.193059
0.00362469
0.00792641
-0.0115511
-0.375538
0.11247
-0.0268831
0.250361
0.0886857
0.122673
-0.0467896
-0.0758837
0.32287
0.247738
-0.570608
1.42365e-05
-0.00176548
0.00231345
-0.000657789
-0.00165566
0.278846
-0.104996
0.232941
0.0775826
-0.310524
-0.103902
-0.0124439
0.0859587
0.0945829
-0.180542
0.274368
0.0363462
-0.310715
0.0100932
0.00017126
-0.0102645
-0.0117846
0.0126418
-0.000857136
0.0679871
-0.303176
0.00161667
-0.00478723
0.00317056
0.0127811
0.00205088
-0.0985408
0.0530902
-0.216455
-0.094098
0.339549
-0.555626
0.420019
-0.0122041
-0.407815
0.00713162
0.388385
-0.395517
0.018937
-0.0328799
0.0139429
-0.0721723
-0.162828
0.235
-0.0896314
-0.00944655
-0.0145592
-0.0395243
-0.00743125
0.152368
-0.100169
0.111404
-0.114067
0.230786
0.0513134
-0.282099
-0.00100285
-0.0026259
0.00362875
-0.0363641
0.0684092
-0.0320451
-0.546499
0.138145
0.00886443
0.00141735
0.0176502
0.0948534
-0.112504
0.00378635
0.00175506
-0.0055414
-0.093262
0.113278
-0.020016
0.00962029
-0.0929012
0.084929
-0.322792
-0.00992608
0.00914846
0.000777627
-0.0603534
0.334722
0.00128464
0.0010288
-0.166891
-0.0805296
0.247421
-0.0116575
-0.000127145
-0.013699
-0.0318796
0.0455786
-0.59713
0.288757
0.00102338
-0.00067388
0.161597
0.197704
-0.0588448
0.0375422
-0.0129067
0.00577843
0.00712832
0.0391815
-0.0477885
-0.00045432
0.00331814
-0.00286382
-0.0797446
-0.0119871
-0.0121014
0.000518399
0.011583
0.00540302
-0.0233697
-0.0942067
0.381286
-0.00119177
0.00256157
-0.00136981
-0.0363564
-0.140163
0.0475544
0.522941
-0.415773
-0.107168
0.0101149
-0.103377
-0.0379118
0.209382
-0.17147
0.309543
-0.078757
-0.000931772
0.0546785
-0.0329949
-0.107836
0.252688
-0.00175328
0.165259
0.000640898
-0.1659
-0.0766886
0.0269137
0.0497749
0.0900948
-0.0814944
-0.00860032
0.0159985
-0.0201435
0.174949
-0.0975865
0.0116931
0.00118513
-0.00491136
0.00853605
0.107944
-0.267722
0.00273708
-0.00230007
0.36654
-0.482958
0.116418
0.366249
0.156693
0.0942993
0.028374
-0.211008
0.550557
-0.130153
0.127457
0.00269607
-0.0707335
0.0146512
0.0560823
0.511614
0.150163
-0.661777
0.319673
0.0355528
0.178969
0.0454333
-0.0227261
0.0688345
-0.0461084
0.402632
-0.173598
0.0388773
0.134721
0.526424
-0.159884
0.00352754
-0.344721
0.341194
-0.414854
0.0785112
0.336343
-0.549352
0.323579
0.225773
0.106573
0.00731476
0.106154
-0.00920282
-0.0615611
-0.0776445
0.038454
0.0391905
0.119241
0.0385039
0.477392
-0.517199
0.00718558
-0.0019793
0.00163365
-7.83313e-05
-0.00155532
-0.00169308
-0.299784
-0.249568
0.159323
-0.145122
-0.0142007
0.128445
0.0308777
-0.194761
-0.407328
0.356
-0.0446771
0.305103
-0.260426
0.00957887
-0.0124649
0.109264
-0.09203
-0.0172339
0.00203264
0.000126843
-0.245344
0.336518
-0.0911735
0.175653
-0.102941
0.0129002
-0.0133224
0.000422241
-0.0655763
0.151535
0.119516
-0.103381
-0.0161356
-0.10314
0.0409989
-0.49393
0.426006
0.107886
-0.116815
0.00892869
0.00937777
-0.0128929
0.00351511
-0.178753
-0.000393651
0.179147
0.00329715
-0.089566
0.0862689
-0.113733
0.122706
-0.00897298
0.0101897
-9.64512e-05
-0.0734661
-0.122823
0.210885
0.0148285
-0.107521
0.0926927
0.112073
-0.100817
-0.168188
0.238826
-0.0706382
-0.000992649
-0.000199121
0.00290802
-0.00742357
0.208005
-0.125152
-0.0828534
0.515754
-0.00413952
-0.10118
0.0118513
0.0893283
-0.000267803
-0.0172236
0.0174914
-0.00290572
0.00691335
-0.00400762
0.0126796
-0.0128876
0.000207974
-0.379584
-0.191087
-0.237426
0.070535
0.00464725
0.0179983
-0.0226456
-0.202076
0.0233231
0.408791
0.280464
0.0849555
-0.0151996
-0.0697559
-0.185824
-0.0516025
0.0130738
-0.0138057
0.000731833
0.0275319
-0.0024414
0.333387
-0.517918
0.18453
-0.00530302
-0.00760372
0.109068
0.110588
-0.219656
-0.216116
0.178204
0.0253637
0.452028
0.175059
-0.394525
0.01232
-0.0142319
0.0019119
-0.133517
0.0661726
0.0187829
0.2619
-0.12208
0.0329289
-0.0441323
0.340026
0.250809
-0.590834
-0.00435532
-0.00894215
0.0132975
0.0927764
0.141693
0.00519379
-0.00369862
0.00143137
-0.0018024
0.000371032
-0.213321
0.303753
0.015746
-0.0137938
-0.00195225
0.0104612
-0.333577
-0.00636956
-0.00374097
0.0101105
0.00740145
-0.00766925
0.314187
-0.525195
0.00967691
-0.0106128
0.110677
0.0862654
-0.196942
0.000548913
-0.254781
0.174751
-0.171765
0.424719
-0.252954
-0.00273361
0.00173075
0.0583772
0.111881
0.346482
-0.102484
-0.243999
-0.123137
0.0938585
0.000983236
0.000590287
-0.00157352
0.0120346
0.0506325
0.510781
0.229099
0.117384
-0.105069
0.117057
-0.011988
-0.154525
0.00940277
0.00658537
0.00141105
0.128636
0.152482
-0.153039
0.000556416
0.115007
0.0076993
-0.0108711
-0.100868
0.111739
-0.0650915
-0.0749675
0.168467
-0.353247
0.18478
0.0113364
-0.0123726
0.0010362
-0.0320838
-0.000249252
0.0323331
0.156737
-0.137228
-0.00276531
-0.00478211
0.00754742
-0.027341
0.407101
-0.37976
-0.159921
0.132614
0.0273071
0.0590748
-0.244898
0.0193479
-0.124417
0.204117
0.322308
-0.00484233
-0.074121
-0.225041
0.299162
-0.00717865
0.191513
-0.242603
0.535071
0.0708761
-0.345141
0.511306
-0.177919
-0.0682774
-0.0523303
0.120608
0.0150787
0.0761312
-0.144409
-0.0604908
0.107567
0.00292
-0.110487
0.04276
-0.0481992
0.00543918
0.0126736
-0.0170289
0.0155435
-0.00276241
0.0132467
-0.000346526
0.198326
0.0810422
-0.279368
-0.00234064
0.0053361
0.0143939
0.00135209
-0.00348792
-0.00735756
0.0108455
-0.0650369
-0.122809
0.187846
0.0147059
-0.0016321
-0.426336
0.597067
-0.17073
-0.15277
0.261838
-0.292246
0.433775
-0.141529
0.000522278
0.00145327
0.239263
-0.13164
-0.107623
0.00633124
-0.00345314
-0.443573
0.140099
0.303474
0.0260887
0.0556368
-0.0817255
0.000558763
-0.00975732
0.00919856
0.0222983
-0.0140985
-0.00819984
-0.288345
-0.0871934
-0.034754
-0.0174518
0.0522058
0.141088
-0.433334
0.2029
0.19145
0.098318
0.183607
0.522993
0.109805
-0.311141
0.201337
-0.0577888
0.466635
-0.408846
0.387679
-0.513291
0.125612
-0.575004
0.292563
-0.294629
0.201086
0.0935436
-0.0150842
0.0542657
0.0303154
0.082674
-0.112989
0.236061
-0.0816178
-0.0342483
0.115866
0.000613502
0.000817871
0.0450722
-0.29655
-0.205354
0.501903
0.149144
-0.0843848
-0.0647593
0.109382
0.114211
-0.223593
0.0993022
0.101335
-0.200638
0.000904905
-0.106634
-0.00973673
0.116371
-0.0850878
0.253555
-0.247537
0.318413
-0.391081
0.36374
0.00604444
0.108962
-0.51998
-0.110569
0.630549
-0.0476507
-0.0508901
0.420728
-0.166717
-0.254011
-0.182878
-0.111751
-0.170899
0.00420727
0.166692
0.0892508
0.0947759
0.243244
0.27013
-0.0243632
-0.382965
-7.94415e-05
-0.000931462
0.00196961
-0.00242393
-0.0039763
-0.0102051
-0.000763974
-0.0493371
0.0682742
0.0781319
0.182557
-0.260689
-0.251654
0.083466
-0.289481
-0.121594
0.411075
0.000332338
-0.00670725
-0.297427
0.487242
0.143993
-0.216166
0.219573
0.0952054
-0.314779
-0.0682503
0.0318862
-0.235399
0.549586
0.00101331
-0.000293183
-0.000720128
-0.104232
0.113073
-0.00884119
-0.405439
0.115957
0.0450528
0.118612
-0.32369
0.337457
-0.0952794
0.00551844
0.000294647
0.0718804
-0.0816309
0.00975048
0.233726
-0.30653
0.0860303
-0.0984017
0.056814
-0.170916
-0.403241
0.078792
-0.0972898
0.0194627
-0.308904
-0.0356884
0.344592
-0.0221919
-0.0554526
-0.111673
0.0196426
-0.0565802
0.168571
-0.111991
0.260895
-0.192155
-0.0687406
-0.0180821
0.00477729
-0.0542264
0.537296
-0.48307
0.00240476
-0.000372126
-0.105976
0.00479664
0.0630355
-0.174854
0.111819
0.105303
-0.166373
0.0610707
-0.0429379
-0.0051004
0.00219468
-0.215785
0.142289
-0.018928
-0.123361
-0.161918
0.00739288
-0.146898
0.026083
0.120815
0.0124081
4.87419e-05
0.100919
0.107086
0.00352331
0.116321
0.299131
0.0702178
-0.072362
0.00214419
0.491847
-0.37779
0.117025
0.0949549
-0.21198
-0.0123676
0.00989447
-0.00162798
-0.00127646
0.00290444
0.102956
-0.148113
-0.0118088
-0.142789
0.278755
0.350314
-0.37128
0.0209658
-9.93933e-05
0.0114358
0.206117
-0.280238
0.00567111
0.0166272
0.0499325
-0.00717253
0.363868
-0.141222
0.037968
0.103254
-0.0136771
0.00451973
-0.111154
0.30903
-0.0485525
-0.103102
0.151655
0.00126819
-0.000254884
0.16801
0.0786815
0.00161322
-0.0128809
0.0112677
-0.30999
0.0646457
0.53809
-0.138786
-0.346463
0.0904791
0.132828
0.0152321
-0.14806
-0.106731
0.124382
0.0966241
-0.236568
-0.0274217
0.137207
-0.499501
-0.0837627
0.0172315
-0.0125843
0.00565403
-0.000135585
-0.0396051
0.128856
-0.0416701
-0.351205
-0.39759
0.562164
-0.164574
0.60632
-0.465019
-0.141301
-0.377398
0.0890532
0.0661804
0.00403744
-0.137866
0.237169
-0.00409531
-0.00225605
-0.00276116
-0.432969
0.512917
-0.0799472
0.00702584
-0.00106844
-0.0059574
0.0117203
-0.011805
8.47221e-05
0.0857204
0.0232529
-0.108973
0.0190202
-0.152911
0.262292
-0.0971689
0.111056
-0.0138869
0.00503442
-0.00439719
-0.000637224
-0.0738551
-0.0156226
0.00306738
-0.0141553
0.0110879
0.349312
-0.0116397
0.00211745
-0.00814377
0.00228518
-0.274305
0.449364
-0.0011068
-0.000999574
0.00210638
0.0258386
-0.124768
0.0989296
0.181546
-0.118511
0.220862
-0.119943
0.00303445
-0.000373836
-0.00266061
0.0035289
0.0137026
0.044049
-0.179489
0.0211666
-0.130726
0.000538262
0.0121414
-0.0119572
0.00394865
0.00800851
-0.00348173
-0.00394442
0.166171
-0.269529
0.103358
0.0988105
-0.0951533
-0.0131699
0.00968199
-0.0447279
0.350719
0.346618
-0.131217
-0.215401
0.0151785
0.340362
-0.10342
-0.452251
0.555671
0.0292667
-0.110884
0.0169262
-0.012876
-0.00405022
0.118014
-0.00938759
-0.108626
-0.152526
-0.265048
0.417574
-0.23174
0.00725409
-0.0023089
0.00152563
-0.000705689
-0.000819946
-0.053953
0.0388688
-0.0587649
0.152845
-0.0940803
-0.000749866
0.00276231
0.131409
-0.101093
-0.00655809
0.00307636
0.416513
-0.603409
0.186896
0.015107
0.0147533
-0.0652734
-0.211261
0.276534
0.320597
-0.418789
0.317244
0.108125
-0.537744
0.440891
0.0968533
-0.499989
0.102399
0.414257
-0.139539
-0.274718
0.206326
0.20571
-0.412036
-0.10601
0.00147802
0.104532
0.00448583
-0.117417
0.112931
0.000135995
-0.0028696
0.00251857
-0.00231525
-0.000203321
0.0718343
-0.380738
-0.137817
0.554329
-0.21628
-0.0773615
0.293642
-0.00617874
-0.0725035
0.0114407
0.0610628
0.00403088
-0.00644308
0.00241221
0.112979
-0.17567
0.0626915
0.103269
0.00461763
-0.0980067
-0.068722
-0.0782683
0.104107
-0.132569
-0.0410289
-0.109146
0.0736114
0.035535
0.270719
-0.0393724
-0.231346
0.240309
-0.0419836
-0.459864
0.105974
-0.156432
0.050458
0.135604
0.211014
-0.550684
0.550684
-0.298969
0.11609
-0.00964102
0.226041
0.244853
-0.407557
0.0329654
0.0537177
0.0991883
-0.00586582
0.00784969
-0.00198388
-0.0148081
0.100528
-0.000687398
0.0154513
-0.0117547
-0.00369661
-0.0091677
0.151456
-0.0633461
-0.0091574
0.261219
0.159509
0.265941
-0.471295
-0.30756
0.091105
0.00313245
0.00211104
0.138442
0.0107023
0.00102461
0.00149396
-0.496397
0.112478
0.383919
-0.15915
0.0747656
0.157615
0.290381
-0.447996
-0.225866
0.157719
0.0681465
-0.0127456
0.00281953
-0.280605
0.0378771
0.114605
0.29698
-0.430257
-0.363285
0.21076
0.121756
0.245093
-0.126616
0.197396
0.118935
-0.107084
0.175803
0.160715
0.116036
0.253007
-0.369044
-0.0165704
-0.045071
0.0616414
-0.0116635
0.119231
-0.166194
-0.00470456
0.159351
-0.105633
0.235777
-0.387793
0.152016
0.040576
-0.0107162
-0.0298598
-0.296988
-0.0975529
0.100466
0.0294972
-0.129963
-0.0502545
-0.00952184
0.00134633
0.00817552
0.0235611
0.0516062
-0.0751674
-0.552458
0.449038
-0.066286
0.205706
0.0130424
-0.00366465
0.24754
0.0695922
-0.212363
0.142771
-0.00183674
-0.00171092
0.00354765
0.166062
0.258657
0.00173691
-0.0122243
0.00803332
-0.00423113
-0.00380219
0.249751
-0.289123
-0.1551
0.116131
0.0389686
-0.0945985
0.257875
-0.163276
-0.00818858
0.0156654
-0.00747685
0.158492
-0.0531889
-0.0415396
-0.0676068
0.00249189
-0.152926
0.221441
-0.0685148
0.0097962
-0.0129476
0.00315143
0.225915
-0.156323
-0.338359
-0.0982763
0.436635
0.280938
-0.171133
0.372797
-0.022483
-0.0127569
0.00999154
0.00724873
0.0235339
-0.0307826
0.0658251
-0.218752
-0.00402264
0.00805352
-0.385298
0.0106584
-0.00262335
-0.180316
0.0502123
0.130104
-0.540771
0.114435
0.121107
-0.186683
-0.304336
0.234181
0.0701547
-0.0129129
0.0133118
-0.000398883
-0.133485
-0.000651537
0.134137
0.140168
-0.0130967
0.0448012
-0.00880651
-0.0359947
-0.569039
0.427774
0.141265
-0.0669626
-0.00796183
0.00709385
0.000867986
-0.121425
-0.148792
0.270217
-0.153233
0.0280146
0.125218
-0.205584
-0.313285
0.518868
0.0021675
0.0235305
-0.0179177
-0.00561278
-0.000865842
-0.146032
-0.0101252
0.0117384
0.145493
0.0783489
-0.223842
-0.194083
-0.0674172
-0.0042013
0.113859
0.265184
-0.586718
-0.505282
0.119757
-0.00141253
0.00154852
0.00197843
0.00105602
-0.526477
-0.0425623
-0.280921
0.317267
-0.0319471
0.137921
-0.0841231
0.422358
-0.338235
0.121051
0.0998109
-0.27548
0.17662
0.0988604
-0.0383694
0.0448916
-0.00652215
-0.0670783
-0.0750491
0.321752
-0.214088
0.0824428
0.131645
0.0026306
-0.00550157
-0.0933213
0.0988228
-0.389347
-0.123943
0.06818
-0.29992
-0.0842852
0.286299
-0.202014
-0.00278438
0.0231712
-0.256273
0.161675
0.0927064
0.00830329
-0.37344
-0.0540601
-0.274575
0.328635
0.0002582
0.00128624
-0.00154444
-0.0154642
-0.114689
0.0768397
-0.0782855
0.00144575
-0.1364
0.147646
-0.0112461
-0.49759
0.216593
0.280997
0.0072547
-0.121974
0.114719
-0.00455315
-0.448187
-0.319308
-0.29674
0.115673
-0.548884
0.282414
0.121633
-0.0682577
-0.0352452
0.103503
-0.0709737
0.320128
-0.249155
-0.263195
-0.234395
-0.0795238
0.317891
0.28843
0.46617
0.0771999
0.088246
0.00848077
-0.0967267
-0.00767281
-0.0148895
-0.151199
0.166088
0.0551024
-0.108302
0.282008
-0.0758913
0.105887
-0.380192
0.0115018
0.000218463
-0.103873
0.0067045
-0.0119314
-0.111107
0.0758039
-0.302779
0.226975
0.436354
-0.49058
0.225006
-0.0588343
-0.00343062
0.114834
-0.00811151
-0.0979167
0.00592118
-0.0874156
-0.113027
-0.263977
-0.397575
0.254897
0.142678
0.0882609
0.647726
-0.296381
-0.351345
0.0101806
0.00246118
0.319134
0.193162
-0.512296
-0.00214515
0.00851948
-0.00637433
-0.0138687
-0.00421335
0.00161273
-0.000967546
0.115015
0.403351
-0.103413
0.0351556
0.0898203
-0.0751691
0.0843965
0.0127011
-0.102407
-0.277734
0.156309
-0.385673
0.03306
0.352613
0.0131039
-0.00352504
-0.118909
-0.0875744
0.206484
0.0984281
-0.0120424
-0.00951378
0.00277916
0.268838
-0.0338331
0.00643177
-0.127607
-0.388193
-0.0893384
0.295664
-0.00441518
-0.108005
-0.0910891
-0.0535644
0.0796532
0.529389
-0.210254
-0.0979048
-0.177575
-0.0404205
0.153399
0.097733
-0.216642
-0.0208453
0.109091
0.0637437
-0.18497
0.121226
-0.0134944
0.00209636
0.349668
0.217232
-0.5669
-0.517799
-0.0875495
-0.181337
-0.31506
0.0234236
-0.543404
0.0999716
-0.139577
-0.145061
0.0194661
0.125595
-0.000551287
0.00702897
-0.315517
-0.0899214
-0.000602262
-0.00826428
0.00886655
0.0877664
0.170108
-0.298298
-0.240197
0.538495
0.229777
-0.64363
0.247463
0.396167
0.115268
-0.474204
0.358936
-0.00187955
0.0162429
-0.0143633
-0.0403739
-0.0956186
-0.121376
-0.0298091
-0.0867226
0.0197219
0.0670006
0.00963453
-0.0708272
-0.0703949
-0.124787
0.101436
0.0233507
-0.022272
0.0161001
0.00743037
0.000346291
0.00199523
-0.00234152
0.000968147
-0.00171801
-0.00329321
0.0192917
-0.137235
0.200979
0.00128263
0.00298037
-0.00909049
0.00611012
-0.279783
-0.117792
-0.384917
-0.0551618
0.440079
0.504355
-0.140669
-0.363687
-0.00364384
0.00756536
-0.00392152
-0.00666954
-0.00941987
0.0160894
0.00353931
-0.00525023
-0.00234426
-0.0148793
0.156659
-0.245188
0.0885291
-0.112892
-0.00188534
-0.000242916
-0.00927893
0.114046
-0.170626
0.00041883
-0.00193048
-0.00323508
0.00516556
0.0131915
0.0269429
-0.0959535
-0.118134
-0.00148567
0.00447326
-0.146019
0.141546
-0.258943
0.0926619
0.166281
-0.0843993
-0.0177151
0.102114
-0.0312498
0.0548109
-0.0080945
0.00865326
0.00193023
0.00261577
-0.00454599
0.0117238
-0.00192756
0.000317689
0.117229
0.162548
-0.146685
0.00290691
-0.00188231
-0.00401479
-0.00412898
-0.0519831
0.0775086
-0.0255255
-0.513863
0.124515
-0.166868
-0.062627
-0.00124629
0.0638733
0.00678948
-0.0587726
0.327525
-0.242596
0.192275
-0.0815986
0.31262
-0.386992
0.0743721
0.0732424
-0.0699453
0.00828187
-0.010427
-0.0147477
0.107454
0.281099
-0.273967
0.001347
0.00384678
-0.0208307
0.0189512
-0.182452
-0.0838351
-0.0589163
-0.00207197
0.0609883
0.0141242
-0.0180636
0.00393941
0.312007
-0.0899896
-0.222018
0.0336383
-0.0108936
-0.0227448
-0.00547915
0.00285063
0.00262851
0.272459
0.168338
-0.440797
0.000385146
0.00097943
-0.00136458
0.0635552
-0.454636
-0.243871
0.202841
0.0410301
-0.20578
0.289882
-0.0841014
-0.0035616
-0.00122563
0.00726785
0.00294153
0.130683
-0.0110772
-0.00997063
0.00933229
0.000638342
-0.0315835
0.00654289
0.00712149
0.00198245
-0.00910394
0.416727
-0.250664
0.117598
0.0656069
-0.183205
0.226013
-0.302588
0.076575
0.0906243
-0.406142
-0.261244
0.37728
-0.0457867
0.0723443
-0.263845
-0.259447
0.194174
-0.00249245
-0.0110019
0.00418359
0.00284225
0.0763991
-0.292679
-0.0515383
0.540709
-0.489171
0.0212168
0.0124215
-0.29102
0.0807804
0.21024
0.0012916
0.301149
0.281578
-0.582727
-0.00273792
0.00339821
-0.000660285
-0.154849
0.00122062
0.00853002
-0.00975064
0.116509
0.0778016
0.0233242
-0.00532582
0.282965
0.0891045
-0.37207
0.0259474
-0.159433
0.000791232
0.000362277
-0.00115351
0.00233285
0.00270157
0.00511874
-0.00369119
-0.00142756
0.00192267
-0.00166447
0.012501
0.000195161
-0.0126962
0.194689
-0.278974
0.285688
-0.400084
0.114395
0.101348
-0.1499
-0.0961892
-0.0799309
0.00658055
-0.00360017
-0.0737765
-0.235978
-0.118733
-0.375714
0.494447
-0.235625
0.00208574
0.00725008
-0.448137
0.0632194
-0.00211233
-0.104374
-0.0803722
-0.00911887
0.00698105
-0.0823724
-0.00435017
-0.0256853
0.0616401
-0.591729
0.143543
-0.150357
0.0180299
-0.0227215
0.0145329
-0.367007
0.482276
-0.00158938
-0.000117058
0.192348
-0.0270893
0.179166
0.32519
-0.334345
0.0748341
0.259511
-0.00248947
-0.00298968
-0.0134622
0.000850494
0.0126117
0.0717107
0.189185
0.0827843
-0.135503
0.416399
-0.471561
-0.125725
-0.0193362
0.0414962
-0.0580666
-0.46148
0.118994
0.342487
0.354757
-0.478566
0.123809
0.457785
-0.142255
-0.00674627
0.00481579
-0.00451286
-0.0298064
0.163982
0.0726951
-0.266778
0.117897
0.00359595
-0.0243932
0.1455
-0.0356935
-0.0106486
0.0068224
0.118875
-0.125697
-0.0249129
0.137052
-0.112139
0.0697688
-0.196384
-0.0520046
0.0244508
0.0275538
-0.468334
0.148934
0.3194
0.223674
-0.304601
0.080927
-0.0105542
0.0187472
-0.00819301
-0.0628091
0.00389276
0.00380495
-0.0211456
0.0173406
-0.000116167
-0.00151182
-0.177763
-0.0811796
-0.183075
0.187549
-0.00875001
-0.00957833
0.00723769
-0.128424
-0.290334
-0.37633
-0.144595
-0.0144878
0.334208
-0.319721
0.115534
0.00236288
0.051858
0.102177
-0.154035
0.288302
0.353505
0.146155
-0.49966
-0.00827702
-0.00138587
0.00966289
-0.0275864
-0.152729
0.0402914
-0.0539904
0.051902
0.104753
-0.156655
0.00693583
-0.121498
0.114562
0.00247198
0.564863
-0.421051
-0.143812
-0.177798
0.05651