/*--------------------------------*- C++ -*----------------------------------*\
| =========                 |                                                 |
| \\      /  F ield         | OpenFOAM: The Open Source CFD Toolbox           |
|  \\    /   O peration     | Version:  v2012                                 |
|   \\  /    A nd           | Website:  www.openfoam.com                      |
|    \\/     M anipulation  |                                                 |
\*---------------------------------------------------------------------------*/
FoamFile
{
    version     2.0;
    format      ascii;
    class       volVectorField;
    location    "350";
    object      U;
}
// * * * * * * * * * * * * * * * * * * * * * * * * * * * * * * * * * * * * * //

dimensions      [0 1 -1 0 0 0 0];


internalField   nonuniform List<vector> 
14033
(
(1.02654 0.000137272 9.67852e-21)
(0.64773 -0.657124 -2.85871e-20)
(1.01425 -0.00144917 3.47432e-21)
(1.03888 -0.152236 1.60915e-20)
(1.00146 -0.324125 -8.77015e-21)
(0.86819 -0.0474954 -3.84929e-20)
(1.12343 -0.0517793 0)
(-0.262946 -0.012731 -1.53553e-19)
(1.00333 -0.050509 0)
(1.03264 -0.0093112 -2.45989e-21)
(1.24494 0.059216 1.00584e-19)
(-0.156074 0.00139299 -4.84938e-21)
(0.378414 -0.0681324 -7.60621e-20)
(1.01901 -0.0102548 -9.29978e-21)
(1.04012 -0.107949 4.30266e-24)
(1.03174 -0.00991276 3.03134e-22)
(1.02213 -0.00423759 -1.60283e-20)
(1.27585 -0.103766 -3.18057e-20)
(-0.0656397 -0.0221034 6.55952e-20)
(1.00017 -0.00185101 0)
(1.08505 0.0149341 0)
(-0.141757 -0.0203777 1.97014e-19)
(0.133681 0.0460107 3.77743e-20)
(1.06293 -0.147658 0)
(-0.140617 -0.0124692 0)
(1.10672 -0.0534094 1.47437e-20)
(1.16052 0.0704535 6.36648e-20)
(1.02252 -0.0212475 -6.08781e-21)
(-0.0331431 0.00598882 4.37613e-20)
(0.507881 0.0746451 1.15111e-19)
(1.02658 6.3354e-05 9.86268e-21)
(1.01085 -0.0108282 0)
(1.05948 -0.081785 -5.38257e-22)
(-0.01247 -0.0308341 6.3834e-20)
(1.05562 -0.00767409 0)
(1.00561 -0.0479246 -3.15385e-22)
(1.10916 -0.0588931 0)
(1.0001 -0.00245417 -6.43235e-23)
(1.08475 -0.0378772 -8.14252e-21)
(1.07487 -0.0687236 0)
(1.14068 -0.137667 0)
(0.940482 -0.0378504 -3.6024e-20)
(-0.218074 -0.00206816 0)
(-0.00639125 -0.0252382 0)
(0.997045 -0.0315512 4.30882e-21)
(-0.168208 -0.0117666 0)
(1.0829 0.0132309 1.78166e-20)
(0.935526 -0.0358648 3.37682e-20)
(1.14675 0.0747174 0)
(-0.282324 -0.00912648 2.6599e-20)
(0.784228 -0.332487 -8.62809e-21)
(1.20237 -0.16494 5.71065e-20)
(-0.16012 0.0057713 5.12828e-22)
(-0.13965 -0.00144067 -1.38056e-19)
(1.19343 -0.035952 2.03933e-20)
(1.07851 -0.0664831 -2.67708e-21)
(0.113163 0.0411015 -8.15653e-20)
(1.02273 -0.0223603 -3.70318e-21)
(1.13746 -0.0254444 2.70783e-20)
(0.976669 -0.0205355 6.30932e-21)
(1.14801 0.0774031 3.7741e-20)
(0.972567 -0.0248506 -2.73834e-20)
(0.371516 0.50263 -9.49924e-20)
(1.02877 -0.0667546 0)
(1.09915 -0.000502841 -3.7199e-23)
(1.00319 -0.481125 -3.22666e-20)
(0.973584 0.0952079 1.06876e-19)
(1.27201 -0.0997312 1.05151e-19)
(1.00927 -0.0093128 -5.46229e-21)
(1.056 -0.00814712 0)
(1.13304 -0.0493814 5.94011e-20)
(1.03225 -0.0393113 1.22104e-20)
(0.170465 0.0490211 0)
(0.017291 -0.00108927 1.35606e-19)
(1.0215 0.0963552 -4.37137e-20)
(1.00571 -0.0473744 2.22588e-21)
(0.789181 -0.319209 0)
(1.00745 -0.0449049 0)
(1.00178 -0.0269854 0)
(1.16057 0.0708204 -1.01779e-19)
(1.16941 0.0349092 -2.89291e-20)
(-0.213141 -0.00675051 -7.56791e-20)
(-0.235123 -0.00383633 -4.85104e-20)
(-0.116386 -0.0289097 0)
(1.01201 -0.0500285 -2.25329e-22)
(0.972842 -0.0231686 9.42284e-21)
(1.03809 -0.107765 -8.80614e-21)
(1.0221 -0.00381321 0)
(1.15411 -0.192409 -7.39747e-20)
(-0.277129 -0.00713695 -1.51935e-20)
(1.07088 -0.0392048 0)
(1.05799 -0.0240931 2.75975e-20)
(0.791346 0.00586243 -5.07196e-20)
(-0.068729 -0.000381701 0)
(-0.170001 -0.0172442 -9.39924e-20)
(1.01187 -0.236796 0)
(1.10047 -0.000838401 2.25742e-20)
(1.02717 -0.491705 2.45905e-20)
(-0.0326774 0.00775382 -1.08614e-20)
(0.997608 -0.00775893 -5.69345e-21)
(1.16554 0.02192 0)
(-0.0349973 -0.0229841 8.65049e-20)
(0.973474 -0.0336116 0)
(1.01493 -0.00196778 -8.01023e-21)
(-0.25197 -0.00532334 -9.3582e-20)
(1.256 -0.00849288 0)
(1.15296 -0.110117 6.48258e-20)
(0.475493 -0.278656 -7.75907e-20)
(1.15809 -0.206829 0)
(0.0218716 4.5439e-05 3.40656e-20)
(1.04137 -0.00493166 -2.21106e-20)
(1.01074 -0.0127084 -7.46455e-22)
(1.00119 -0.00862556 0)
(-0.140375 0.0086284 0)
(1.00127 -0.0079408 1.58684e-21)
(-0.14261 -0.0248051 1.20587e-19)
(-0.105907 0.00348588 -5.73083e-20)
(0.974032 -0.0325939 2.56543e-20)
(1.21938 -0.0415265 3.21178e-20)
(0.0353699 0.0202289 3.83583e-21)
(1.06594 -0.0327228 -2.01876e-20)
(0.561728 0.583531 1.58865e-19)
(1.06762 -0.0684564 0)
(1.0102 -0.0118902 3.34345e-21)
(0.0399381 -0.00253324 -1.15789e-19)
(1.12662 -0.0476108 0)
(0.0761083 0.020549 0)
(1.23529 0.0213246 1.19065e-19)
(1.01991 -0.0103109 1.05202e-20)
(1.16739 0.0193452 -5.06668e-20)
(0.248406 0.0565977 -1.21855e-19)
(1.22834 -0.0617698 -5.50619e-20)
(1.15078 0.0752903 0)
(-0.274937 -0.0116436 -1.34241e-19)
(1.28287 -0.178325 1.18075e-19)
(1.01862 -0.00902014 9.66972e-21)
(-0.276268 -0.0130276 2.73708e-19)
(-0.156173 -0.00335454 1.58025e-19)
(1.08483 -0.170859 0)
(1.23348 0.0266622 3.54495e-20)
(1.20955 -0.473562 0)
(-0.0210118 0.0164004 -1.30326e-20)
(1.13139 0.0351557 3.03129e-20)
(0.481941 -0.329119 2.05328e-19)
(1.00197 -0.0265186 0)
(1.02543 1.3591e-05 3.40608e-22)
(-0.14762 0.00390355 0)
(1.11974 -0.35362 2.77167e-20)
(1.02693 -2.19847e-07 3.50165e-21)
(0.839581 -0.0803346 -6.03117e-20)
(0.999865 -0.00280093 -1.53746e-20)
(1.22149 -0.0501469 4.65917e-21)
(1.08768 -0.0365439 -1.85855e-20)
(0.566369 0.529586 -1.05355e-19)
(1.1948 0.0823942 3.52059e-20)
(1.03038 -0.0379884 -1.18009e-20)
(-0.23345 -0.0040131 -1.0183e-19)
(1.00893 -0.0130616 5.72398e-21)
(1.05879 -0.07744 2.11315e-20)
(1.03559 0.0978935 0)
(-0.250748 -0.0134475 -1.43454e-22)
(1.25041 0.00941851 -4.458e-20)
(1.03329 -0.0850611 7.29526e-21)
(1.05807 -0.143485 1.10655e-20)
(-0.197122 -0.0137809 0)
(1.07929 -0.0174343 2.27947e-20)
(0.0527739 0.00288499 -5.70615e-20)
(1.13629 0.0212836 -5.92909e-20)
(-0.116779 0.00145881 -2.84076e-20)
(0.993432 -0.0345699 -2.71669e-21)
(1.28426 -0.185345 -1.62772e-19)
(0.961719 -0.0194876 6.60392e-21)
(0.837726 -0.0973629 1.00524e-19)
(1.00933 -0.244475 4.88824e-21)
(1.14976 -0.10278 -2.64964e-20)
(1.17094 0.0630017 1.93837e-20)
(1.00008 -0.00455666 2.20818e-21)
(1.03007 -0.00917317 0)
(1.01776 -0.00881879 -1.16797e-20)
(-0.0265777 0.00665725 -7.51688e-20)
(0.819045 0.0795275 -1.09894e-19)
(1.23379 0.029789 1.94199e-20)
(1.00444 -0.0323629 -3.87033e-21)
(0.0487921 0.0233379 3.01952e-20)
(1.0231 -0.00111017 -5.24271e-21)
(1.07323 -0.0371579 -1.47608e-20)
(1.01135 -0.0505011 -1.60866e-22)
(0.99838 -0.015257 0)
(-0.131616 0.00613414 -3.19705e-20)
(1.15703 0.0362898 -5.47421e-22)
(0.811765 0.00279875 1.25085e-19)
(1.06606 -0.0329832 3.88182e-20)
(0.0945033 0.386175 0)
(1.05669 -0.0209773 -2.67337e-20)
(1.05829 -0.0759886 -2.491e-20)
(0.799856 -0.0148879 5.34136e-20)
(1.04242 -0.0297325 8.45137e-21)
(0.23739 -0.0497464 1.54219e-19)
(1.32246 -0.157714 8.476e-20)
(0.999292 -0.0208884 0)
(0.0319738 0.0186642 0)
(1.0543 0.000142542 3.12455e-20)
(1.18812 0.091749 0)
(1.005 -0.0530964 0)
(0.0192084 0.0209114 1.44491e-19)
(0.535956 0.0742342 -1.20559e-19)
(1.00734 -0.0446055 0)
(1.05733 0.00249629 0)
(-0.00761358 0.0162279 0)
(0.267756 0.0586562 5.54914e-20)
(1.12951 0.0335988 -7.77012e-20)
(0.995183 -0.0289043 -9.24792e-21)
(1.01024 -0.460887 1.90639e-20)
(0.996292 -0.0338612 2.08082e-21)
(1.06041 -0.0719239 0)
(1.04303 -0.031421 -2.20907e-20)
(0.825241 0.00183708 -1.12584e-19)
(1.29127 -0.0126281 0)
(1.16685 0.0966477 -2.91943e-20)
(1.0975 -0.00704161 -2.38807e-20)
(-0.294374 -0.00971521 6.30864e-20)
(-0.123551 -0.0121491 0)
(0.997054 -0.00763627 -7.63542e-21)
(0.924546 -0.0769979 2.20242e-20)
(1.00015 -0.0031039 2.427e-21)
(1.14361 0.109902 0)
(0.779394 -0.150316 -5.81916e-20)
(1.09766 -0.00575093 4.18211e-20)
(-0.288408 -0.0118486 1.39145e-19)
(0.974771 -0.0252603 -7.7125e-21)
(1.02389 -0.0348 9.72658e-21)
(1.03155 -0.0637857 -8.36873e-21)
(1.18981 -0.435041 0)
(0.121449 0.0326944 0)
(1.08147 -0.0162514 -2.95421e-20)
(1.03276 -0.00308589 -2.3981e-21)
(0.184149 0.048581 0)
(1.02197 -0.0342904 0)
(1.01716 -0.0529107 -1.32345e-21)
(1.13069 -0.0440149 0)
(1.03988 -0.0144175 2.84854e-20)
(1.11851 -0.318845 -5.22719e-20)
(1.13618 0.0496381 -4.02471e-20)
(-0.264583 -0.012912 -2.40539e-19)
(0.961997 -0.016732 8.26687e-21)
(0.931944 0.0999403 7.2143e-20)
(1.00409 -0.0330972 -3.38068e-21)
(-0.111499 0.00906936 0)
(1.23553 0.0229902 -1.2506e-19)
(1.0541 -0.0783892 3.62705e-20)
(1.18426 0.0892962 0)
(0.990357 0.0968524 -5.02422e-20)
(1.02573 -0.012179 -1.20365e-21)
(0.830346 -0.0191459 1.02196e-19)
(1.09564 -0.0208806 0)
(1.1931 0.0787426 2.8822e-20)
(1.01311 -0.00133798 -3.72261e-21)
(1.18453 0.0925176 0)
(1.00303 -0.000934213 0)
(0.218783 -0.00709278 -6.21448e-20)
(0.998675 -0.0140559 5.25735e-22)
(-0.139874 0.00431766 -6.62185e-20)
(1.00051 -0.00182095 -3.29089e-22)
(0.986183 -0.0261128 -3.04422e-20)
(1.00974 -0.0102174 5.71589e-21)
(1.02729 -0.0325994 0)
(1.15468 0.0292124 0)
(1.21806 0.0186233 -9.65783e-21)
(0.963115 -0.0129789 3.56154e-20)
(1.1424 -0.149096 -4.61628e-20)
(1.059 -0.0346111 1.77196e-20)
(0.999532 -0.0200562 5.44211e-22)
(1.25184 0.0152457 4.88307e-20)
(1.25945 -0.0725603 -2.61344e-20)
(1.31742 -0.163409 -8.33538e-20)
(1.02441 -0.0101042 0)
(1.01553 -0.00161622 0)
(1.0187 -0.0114038 1.36231e-21)
(-0.114423 0.0121709 8.13066e-20)
(0.816683 -0.0180673 -2.05952e-19)
(1.00011 -0.00243527 4.97458e-21)
(0.99537 -0.0184159 4.85873e-21)
(0.193969 0.0505334 0)
(-0.194837 -0.0150021 -3.14999e-21)
(1.02821 -0.00966579 0)
(0.115115 0.0411605 0)
(1.13504 -0.0426699 -3.62531e-20)
(1.0408 -0.147245 1.49501e-20)
(1.06072 -0.00376193 1.50011e-20)
(0.950916 -0.103672 -1.59597e-21)
(1.00005 -0.00131016 -7.31056e-21)
(1.20349 -0.168394 -1.65528e-19)
(1.02539 -0.0101598 0)
(0.194962 0.0454792 -1.82454e-20)
(1.06515 -0.122651 -2.35653e-20)
(0.76124 -0.0477335 0)
(1.25563 -0.0670462 3.6936e-20)
(1.07798 -0.168468 1.91608e-20)
(0.395574 -0.0488925 0)
(0.878185 0.0829657 0)
(0.933993 -0.267028 -2.43077e-20)
(-0.139588 0.00754356 -1.45998e-19)
(1.13986 0.0222575 6.67695e-20)
(1.02599 -0.0891721 -5.51452e-22)
(0.132138 0.0436156 2.81652e-20)
(1.02082 -0.0102756 -1.09909e-20)
(0.92965 -0.0722503 -4.54596e-20)
(1.16468 0.0256405 0)
(1.19053 -0.0245692 0)
(1.04039 -0.00615955 4.02988e-20)
(1.19138 -0.215099 0)
(1.25012 0.00890524 1.20995e-20)
(1.018 -0.0110119 0)
(0.0944173 -0.23218 1.86753e-19)
(-0.208624 -0.00547753 8.3219e-20)
(0.456564 -0.0632223 9.29824e-21)
(1.18769 -0.0299923 0)
(0.999828 -0.00112478 -3.72855e-21)
(-0.156967 -0.0253289 -2.04928e-21)
(0.929106 -0.0118718 0)
(0.974128 -0.028462 1.85563e-20)
(1.16417 0.00565655 -5.00079e-20)
(0.964251 -0.0124632 -2.55677e-20)
(1.01409 -0.0215595 -7.17692e-22)
(1.06217 -0.0679098 -1.19392e-20)
(1.09624 0.00064755 3.89587e-20)
(1.16629 -0.0238445 4.65092e-20)
(1.02904 -0.00561213 1.50432e-20)
(1.02367 -0.0188151 3.591e-21)
(0.0579812 0.0239863 -4.43579e-20)
(-0.000724232 0.00392318 -1.35276e-19)
(1.05677 0.00126497 0)
(1.01258 -0.0017138 0)
(-0.0300534 0.0137385 -3.84312e-20)
(1.06805 -0.0296835 -1.23286e-20)
(1.02282 -0.000854048 3.91559e-21)
(1.01756 -0.00162119 0)
(0.999069 -0.0812158 5.05858e-21)
(0.560963 0.0869117 2.44853e-21)
(1.03894 -0.0145874 -1.42271e-20)
(-0.0536885 0.0113296 -9.64974e-20)
(-0.26668 -0.00643529 0)
(1.07052 -0.0684379 1.89227e-20)
(-0.182348 -0.00704438 0)
(1.09562 0.00100579 -1.95493e-20)
(0.87783 -0.0262965 0)
(1.13208 -0.146407 -5.03978e-21)
(1.10835 -0.0536433 -1.44171e-20)
(0.240085 -1.23811 9.51967e-20)
(1.02536 -0.0114734 8.57896e-22)
(-0.177563 -0.0104013 0)
(1.16808 0.0678491 7.06094e-20)
(1.00266 -0.0255691 -1.94516e-21)
(1.02385 -0.226397 1.1987e-20)
(1.06012 -0.0223477 -3.03668e-20)
(1.09309 -0.0213805 2.07795e-20)
(0.992336 -0.0276802 0)
(1.23749 0.0548495 1.04806e-19)
(-0.0269037 0.0132757 0)
(0.176321 0.00796025 5.35435e-20)
(0.99717 -0.0275161 -1.11231e-20)
(0.308775 -0.0100373 -1.19216e-19)
(1.08227 -0.0147113 2.30807e-20)
(1.24984 0.0424571 -1.68965e-19)
(1.00059 -0.00184201 3.16271e-22)
(0.996906 -0.00921989 0)
(1.0176 -0.224071 -1.57749e-20)
(0.999731 -0.00208624 -3.14286e-22)
(-0.128912 0.00949012 -1.30301e-19)
(0.48111 -0.0561987 0)
(0.402735 -0.291093 1.46499e-22)
(0.99586 -0.0177804 -4.82013e-21)
(1.08328 -0.0343617 -1.68519e-20)
(0.951263 -0.105082 2.07535e-21)
(1.01389 -0.0216851 7.75981e-22)
(0.913446 0.0981146 -1.1507e-19)
(1.02729 -0.3342 0)
(0.977145 -0.0307351 -2.50693e-20)
(-0.185431 -0.00541307 0)
(1.16891 -0.0185335 0)
(0.996899 -0.00857752 0)
(1.00868 -0.0129056 -1.99599e-21)
(1.05651 -0.0840401 -2.72793e-20)
(1.05337 -0.0534688 8.15561e-21)
(-0.153824 0.00539623 1.38616e-19)
(1.28113 -0.175369 1.68798e-20)
(1.16711 0.0925809 5.03277e-20)
(1.16378 0.0808126 -4.20721e-20)
(1.00799 -0.0225873 0)
(0.448289 0.25798 2.39598e-19)
(-0.123041 0.00697538 0)
(1.08647 0.00337435 -3.63676e-20)
(1.017 0.100434 -6.70519e-20)
(1.01657 -0.0104808 -2.44907e-21)
(0.962642 -0.164157 0)
(0.890769 -0.551076 2.12655e-21)
(-0.169933 -0.0156961 2.71722e-21)
(1.25004 -0.0375782 -4.01646e-20)
(0.286605 -0.163583 1.25144e-20)
(1.00372 -0.0493011 3.47851e-22)
(1.02854 -0.00457884 0)
(-0.246692 -0.00525362 1.075e-19)
(1.00093 -0.00161086 0)
(1.055 0.10123 1.16176e-19)
(0.351678 -0.1716 1.64626e-19)
(1.19721 -0.484086 -2.24816e-19)
(1.05191 -0.0109284 0)
(1.16374 -0.028801 4.46033e-20)
(0.165727 0.0485582 6.34787e-20)
(-0.277198 -0.00615782 1.20285e-19)
(0.987617 -0.0249734 8.16601e-21)
(1.1664 0.0252006 -1.61118e-20)
(1.08114 -0.0144986 3.46105e-22)
(1.16177 0.103324 3.50549e-20)
(0.999894 -0.00174953 -2.2995e-22)
(-0.0381997 0.00607318 4.64663e-20)
(0.0349356 0.0244649 -1.66171e-21)
(1.06163 -0.0355287 -1.27876e-20)
(1.07774 -0.0219318 0)
(1.24893 0.0414235 1.51819e-19)
(0.915252 -0.0475298 4.46993e-20)
(0.980055 -0.0214585 2.22876e-20)
(-0.207356 -0.00293954 -1.7001e-19)
(-0.255344 -0.00601915 0)
(0.970292 -0.00901351 1.73911e-22)
(-0.0807449 0.0160599 0)
(-0.284436 -0.00903201 -5.6582e-20)
(0.956885 0.0819837 -1.1297e-19)
(1.07012 -0.0395 0)
(1.02146 -0.00332984 1.0307e-20)
(1.00034 -0.0194688 0)
(1.03935 -0.00706548 -1.38419e-20)
(0.368759 -0.296435 0)
(1.08154 -0.0639665 0)
(1.01364 -0.0018299 1.02526e-20)
(0.141003 0.358025 1.75074e-19)
(0.58615 0.0869121 0)
(1.1681 0.0597335 -1.75905e-20)
(1.18408 0.0831693 0)
(0.974862 -0.0440015 3.68485e-21)
(0.057351 0.0332166 6.14333e-22)
(0.7017 -0.519125 -7.67541e-21)
(1.01693 -0.000955046 0)
(-0.165838 -0.0110203 -7.36717e-20)
(0.908822 -0.193138 -3.67587e-20)
(-0.110471 0.0108792 0)
(1.30902 -0.0929328 -1.96991e-20)
(1.30394 -0.183327 1.48765e-20)
(1.01649 -0.049936 1.2475e-21)
(0.17043 -0.0230538 0)
(0.978524 -0.0193708 -2.16198e-20)
(0.0198578 0.0230725 5.53631e-20)
(1.10917 0.0184259 6.23924e-20)
(-0.242807 -0.00442062 -5.75035e-21)
(0.602118 0.0897782 0)
(1.00014 -0.0025423 -2.28412e-21)
(0.024057 0.00482752 3.15512e-20)
(0.974704 -0.0193722 0)
(0.677856 -0.583527 2.42485e-20)
(-0.222196 -0.0161981 0)
(0.663172 -0.845098 0)
(-0.074124 0.00439164 -5.97813e-20)
(0.777429 -0.0273987 -9.20191e-20)
(0.187386 0.0481466 4.89302e-20)
(-0.101215 0.0123405 0)
(1.15262 0.102032 -1.165e-20)
(1.05514 0.00154662 -2.63936e-20)
(-0.0322396 0.019499 -8.0709e-20)
(0.412369 -0.290124 -8.49017e-20)
(1.16825 0.0670523 -3.59727e-20)
(1.0254 -0.00335578 1.14859e-20)
(1.31486 -0.0991258 4.57338e-20)
(1.07781 -0.0454047 1.95099e-20)
(0.972336 -0.0489377 0)
(0.709432 -0.115479 7.12813e-20)
(1.16532 0.0806202 4.5728e-20)
(1.08561 0.00584175 2.644e-20)
(1.12362 -0.115204 -7.9966e-21)
(0.732365 0.0787065 5.27796e-20)
(1.04763 0.100081 4.25033e-20)
(0.250584 0.0075916 -4.92662e-20)
(1.13471 0.0473296 0)
(0.172469 0.0446917 0)
(0.131044 0.0443029 0)
(0.99897 -0.0779351 1.37385e-21)
(-0.0686698 0.00832666 0)
(1.03033 -0.0129472 -1.47698e-20)
(1.02555 -0.00336136 -8.24136e-23)
(1.16027 0.104366 0)
(1.0215 -0.00303992 -1.04172e-20)
(1.2832 -0.091797 -1.19228e-19)
(1.00307 -0.304888 3.72187e-20)
(1.00019 -0.00203123 -1.17568e-21)
(1.05247 -0.0102564 -4.43858e-21)
(1.06915 -0.119923 2.8458e-20)
(0.946165 -0.562041 -7.56072e-21)
(1.00008 -0.0199919 1.66643e-21)
(1.1725 -0.0127858 -6.09256e-20)
(1.03152 -0.0130279 1.43335e-20)
(1.02434 -0.033731 0)
(1.0411 -0.0140306 -1.191e-20)
(1.03569 -0.00414006 0)
(1.00737 -0.340359 5.63677e-21)
(1.01035 -0.00986797 1.38471e-21)
(0.888668 -0.513183 6.40324e-21)
(0.673157 -0.194656 0)
(0.866525 -0.0320839 -2.03451e-20)
(1.0337 -0.00372218 -1.69827e-20)
(-0.154034 -0.0203224 -2.80966e-19)
(0.00305337 0.0189773 9.72208e-20)
(0.200976 0.050019 -4.60056e-20)
(1.03544 -0.0042503 1.66681e-22)
(1.19615 -0.114419 0)
(1.19597 -0.113712 0)
(1.02614 0.000314757 3.49777e-21)
(1.02966 -0.0356847 5.55891e-21)
(0.997785 -0.0432388 0)
(0.169322 0.0360429 8.8753e-20)
(1.1892 0.0852831 0)
(-0.0468886 0.00521678 5.07829e-20)
(0.985695 -0.0556443 0)
(1.14057 -0.02262 -8.31468e-20)
(-0.280677 -0.00750569 -1.19997e-19)
(0.915111 -0.0480963 2.54229e-20)
(0.841972 -0.0735902 -1.32249e-19)
(1.16232 -0.473871 1.94365e-19)
(1.0108 -0.0112114 -5.61574e-21)
(1.27964 -0.348 0)
(-0.25579 -0.0099319 0)
(0.927518 -0.0251707 2.11218e-21)
(0.810657 -0.216903 5.00367e-20)
(1.22651 0.0361013 1.88452e-20)
(-0.19811 -0.00125966 1.54654e-19)
(1.04098 -0.0143969 0)
(1.15977 0.00740307 4.23692e-20)
(1.23187 0.0528703 1.30035e-20)
(1.03637 -0.305876 0)
(0.971313 -0.0718271 -6.11699e-21)
(-0.0118269 0.0228946 -3.48185e-20)
(-0.101688 -0.0316273 0)
(0.987946 -0.11681 -9.92506e-21)
(1.00017 -0.00250708 1.01451e-21)
(0.885411 -0.26483 0)
(0.239643 0.00365244 0)
(0.108801 0.0316824 2.22169e-20)
(-0.236757 -0.00369741 9.28551e-20)
(1.02967 -0.00931934 0)
(1.1087 0.0143464 -5.3063e-20)
(0.305509 0.0645514 6.02518e-22)
(0.931297 -0.0264026 0)
(1.00115 -0.00160414 -8.34021e-23)
(0.717064 -0.127514 -8.7461e-20)
(1.02559 0.000170545 0)
(1.11021 0.0138175 -7.37642e-20)
(-0.280199 -0.00913447 -1.11853e-19)
(1.23114 0.0305591 1.94556e-20)
(1.18754 0.0875872 0)
(1.00116 -0.00643423 -7.15502e-22)
(-0.225704 -0.0166746 0)
(1.11731 0.0325746 0)
(1.07639 -0.0429126 0)
(1.03436 -0.00310028 2.21196e-20)
(1.05053 -0.0113661 5.44354e-21)
(-0.277465 -0.00884934 5.84815e-20)
(1.15182 0.0989866 -3.10757e-20)
(0.712382 -0.125579 0)
(1.05553 -0.0544516 -1.1221e-20)
(0.515423 0.236665 -2.30553e-19)
(0.999937 -0.00116152 0)
(0.198636 0.0523076 -5.8629e-20)
(1.13325 -0.0494166 2.12865e-20)
(-0.0905632 -0.0123978 -1.51141e-19)
(0.0188499 0.0203093 0)
(0.974348 -0.0284958 0)
(0.240794 0.0475819 8.71917e-20)
(1.00893 0.099757 -8.43295e-20)
(0.97843 -0.0185258 0)
(-0.0921298 -0.0874397 -2.14594e-19)
(0.166518 0.00353529 0)
(1.02088 -0.00251809 0)
(-0.219253 -0.0133066 0)
(1.02066 -0.124268 1.92226e-21)
(-0.0170674 0.0162073 -1.07525e-19)
(0.941302 -0.0116828 -6.27155e-20)
(1.05867 -0.00228839 -6.14861e-21)
(0.0367825 0.0309001 -1.17874e-20)
(1.19282 -0.0357641 -1.88732e-20)
(1.03019 -0.0451434 0)
(1.19405 -0.224472 -1.94947e-21)
(0.0109879 0.0196519 0)
(0.728992 -0.687472 -5.45519e-21)
(0.99987 -0.00201913 2.32858e-21)
(1.03196 -0.0435783 8.04736e-21)
(1.23721 -0.128299 -5.04428e-20)
(1.19213 -0.122433 0)
(0.0966662 0.0393268 8.30065e-20)
(0.976546 -0.0311315 -5.88025e-22)
(1.14949 0.0821321 4.21981e-21)
(1.22584 0.0364636 -1.75113e-20)
(1.12451 -0.305604 5.68137e-20)
(1.27362 -0.106156 -3.6019e-20)
(0.976521 -0.0346533 1.4901e-20)
(-0.215426 -0.0160034 0)
(0.482166 -0.0521737 -5.55013e-20)
(0.968274 -0.159611 9.40042e-21)
(0.120888 0.0239051 5.00801e-20)
(1.00307 -0.00969856 -2.04316e-22)
(1.18812 0.0106521 -6.47598e-20)
(1.10957 0.0110757 5.37076e-20)
(1.23357 -0.136914 4.94763e-21)
(1.03197 -0.0126524 -4.80718e-21)
(-0.128613 0.00597279 0)
(1.06362 -0.0438119 1.15238e-20)
(1.07003 -0.145204 0)
(1.00033 -0.00434474 0)
(1.00288 -0.0319851 -2.20844e-21)
(1.00117 -0.00683356 1.74254e-21)
(0.874897 -0.0278652 0)
(0.198639 0.0518118 0)
(0.874988 -0.0143179 1.01019e-21)
(1.07936 -0.019219 1.16109e-20)
(1.2717 -0.2095 0)
(0.676452 0.0851702 0)
(0.238532 0.0566363 5.84866e-20)
(-0.295125 -0.0103541 2.14403e-21)
(-0.26972 -0.00702156 1.14673e-19)
(1.02788 -0.0828633 0)
(0.0830927 0.0261674 0)
(0.215586 0.0466942 -8.87197e-20)
(0.175322 0.0479298 0)
(1.1361 -0.0974631 6.90205e-20)
(-0.292881 -0.0104317 0)
(1.00811 -0.0101081 0)
(1.11394 0.0328243 -3.92629e-20)
(1.03105 -0.020814 1.17209e-20)
(-0.0419557 0.0117441 -4.17976e-20)
(1.09678 -0.105365 0)
(-0.11629 -0.0218361 1.03166e-19)
(1.02515 -0.0213371 -7.91102e-21)
(0.781723 -0.498517 -6.21625e-20)
(-0.202525 -0.00140474 0)
(0.2783 -0.0157783 0)
(0.987904 -0.0242953 1.91835e-20)
(0.681425 0.0865537 2.77122e-20)
(1.02986 -0.0205308 -1.46278e-20)
(0.993509 -0.0346088 0)
(1.03627 -0.0877257 -3.6258e-21)
(0.999949 -0.00240169 -3.08545e-21)
(1.07124 8.45877e-05 -2.43987e-20)
(1.00351 -0.0100024 1.46002e-22)
(1.02886 -0.01332 -2.1897e-20)
(0.999897 -0.00268456 7.53873e-21)
(1.00306 -0.0745108 1.47189e-21)
(0.592386 -0.903821 -1.98397e-22)
(1.19395 -0.305193 1.1205e-20)
(1.06051 -0.00363343 0)
(1.25008 -0.00257858 -5.5497e-20)
(0.00529771 0.0178285 0)
(0.935865 -0.537109 0)
(1.02974 -0.0104629 8.74308e-21)
(1.18221 0.0475692 1.04889e-19)
(1.12437 0.00112495 0)
(1.14943 -0.0573232 0)
(-0.0106 0.0175813 0)
(1.29899 -0.1588 0)
(0.977267 -0.0371239 -1.49633e-20)
(1.00208 -0.0335609 -7.95119e-21)
(1.00294 -0.0100781 0)
(1.22385 0.0399181 0)
(1.00769 -0.00197095 -8.72858e-21)
(0.965172 0.0833579 -1.2453e-19)
(1.0208 -0.0385742 -2.77961e-21)
(1.00095 -0.070951 4.74487e-21)
(1.07798 -0.154901 0)
(1.16857 0.0342241 -7.35364e-20)
(1.00889 -0.0225183 0)
(1.02839 -0.0352764 -3.34514e-21)
(-0.0129743 0.0176222 3.31107e-20)
(-0.0596553 0.00768084 2.91861e-20)
(0.0966839 -0.19821 3.65652e-19)
(-0.139549 0.00537923 3.85726e-20)
(0.887171 -0.660343 8.00794e-20)
(1.03675 -0.078557 -3.51272e-21)
(0.973637 -0.0664558 9.46294e-21)
(1.01213 -0.0285512 0)
(-0.162744 -0.000314781 0)
(1.00008 -0.00485974 -7.28052e-21)
(1.0824 -0.0702843 -2.18871e-20)
(1.05574 -0.0352473 1.79227e-20)
(0.699117 -0.493027 2.27111e-20)
(1.02092 -0.00231767 -5.16675e-21)
(0.0268375 -0.00272752 6.84617e-20)
(1.18068 0.094347 0)
(1.01223 -0.028057 4.13382e-23)
(1.22702 -0.0625455 8.92051e-20)
(1.00103 -0.0279776 0)
(1.02996 -0.0134685 4.89035e-21)
(-0.118297 0.00178061 6.80099e-20)
(0.895854 0.0965896 4.41906e-20)
(1.01602 -0.0536391 0)
(0.837325 -0.0745817 1.46947e-19)
(0.945486 -0.00906659 1.00824e-20)
(1.19068 -0.0416129 6.13313e-22)
(1.00276 -0.0255533 3.67286e-21)
(0.996164 -0.43477 9.9783e-21)
(1.02139 -0.0268228 7.42409e-21)
(0.670415 -0.197273 1.12333e-19)
(1.19175 0.0842728 1.09781e-20)
(1.18076 -0.0321989 3.48004e-20)
(0.960077 -0.0472949 -1.49614e-20)
(0.23454 0.055908 -3.97977e-21)
(1.00197 -0.000612966 0)
(-0.0404279 0.00686113 -4.3146e-20)
(0.876548 -0.241348 0)
(1.1387 -0.112432 -3.81242e-20)
(0.934542 -0.123404 -1.15177e-20)
(1.17116 0.0641351 0)
(0.0800088 0.0280663 -6.43437e-21)
(1.1294 -0.0527177 -4.02909e-20)
(1.22593 -0.0366649 9.08167e-20)
(1.19403 -0.124703 6.98835e-22)
(1.20784 0.0228705 5.45801e-20)
(-0.264283 -0.00632233 -5.39275e-20)
(0.990773 -0.118504 5.76425e-21)
(-0.0633738 0.00216216 0)
(0.99558 -0.0300386 -9.99049e-21)
(0.94402 -0.316083 -4.67885e-20)
(1.0241 -0.00915205 0)
(1.02341 -0.145781 2.20312e-22)
(-0.233391 -0.0027518 4.0489e-20)
(-0.0404917 0.0185253 0)
(1.23445 0.058005 -1.18722e-19)
(1.19113 0.00754708 1.39101e-19)
(1.01714 -0.0113379 -2.71797e-21)
(1.02481 -0.0336369 -9.2243e-21)
(1.04983 -0.000397711 0)
(-0.225676 -0.0155357 0)
(1.06467 -0.0461086 -1.24563e-20)
(0.269573 -0.0123288 1.16744e-19)
(0.635463 0.0844026 0)
(1.02871 -0.0330066 4.14939e-21)
(1.20962 0.0605075 1.28315e-21)
(0.888834 -0.00504535 2.03547e-20)
(1.29985 -0.168729 -1.26727e-19)
(1.00196 -0.0755278 -2.93887e-21)
(0.924018 -0.14163 -1.35169e-20)
(0.00721709 -0.00226198 -5.32905e-20)
(1.04508 -0.104027 5.64369e-21)
(-0.264443 -0.0127373 0)
(0.98682 -0.0522647 5.31018e-21)
(1.02993 -0.00527577 -1.62094e-20)
(1.05501 -0.0230308 2.8718e-20)
(1.17609 -0.138196 -3.38119e-20)
(0.919628 -0.180174 2.86993e-20)
(1.12554 -0.326606 -3.31836e-20)
(1.05168 -0.0820224 -2.50262e-20)
(1.02864 -0.00938242 0)
(1.00252 -0.000670466 0)
(0.265406 0.0599248 4.69513e-20)
(-0.110688 0.00341121 6.42681e-20)
(1.16471 0.0381441 0)
(0.746798 0.0802762 -4.41486e-22)
(1.03858 0.00196732 0)
(1.00417 -0.000790833 -3.94901e-21)
(1.01019 -0.00174837 -2.84423e-21)
(0.989313 -0.0234003 -7.70457e-21)
(1.0522 -0.337649 3.24013e-20)
(1.14606 -0.0517888 0)
(-0.112211 0.00163807 9.79506e-21)
(-0.0585995 -0.000494973 -2.7746e-20)
(1.00039 -0.0034925 -6.16095e-22)
(-0.106829 -0.0243984 -7.80512e-20)
(-0.25785 -0.0134282 1.55499e-19)
(0.841511 -0.205192 -4.22413e-20)
(1.18375 0.0939582 -9.53977e-21)
(1.1211 0.00413268 -3.61385e-20)
(1.30042 -0.135518 -1.50977e-19)
(0.0523451 -0.00733785 1.27476e-19)
(0.990333 0.0947099 -3.09258e-20)
(0.199807 0.0529312 -5.81984e-20)
(1.00335 -0.0102272 3.72259e-23)
(-0.183521 -0.0135777 -2.09797e-20)
(0.0937727 0.0399709 -3.41012e-20)
(1.04922 -0.00991842 0)
(0.038769 0.00936848 1.71029e-19)
(1.30391 -0.056357 0)
(1.13756 -0.103444 3.43345e-20)
(0.996099 -0.118336 -5.50678e-21)
(-0.0560952 -0.0265952 0)
(0.249919 0.0586241 -5.97561e-22)
(1.16968 0.0321746 -2.5719e-20)
(0.934871 -0.263252 0)
(-0.248282 -0.00489676 -9.69301e-20)
(-0.195432 -0.0195938 0)
(0.124239 0.0431639 -7.07284e-21)
(0.954837 -0.0218417 1.83188e-20)
(0.925758 -0.280501 1.12896e-20)
(0.204076 0.0521275 -5.40007e-20)
(0.996674 -0.0281401 9.29488e-21)
(1.06608 -0.012554 -3.85558e-22)
(0.631666 0.0840639 -6.41749e-20)
(1.0258 -0.0110371 0)
(1.00015 -0.00122494 0)
(1.25552 -0.00477418 0)
(0.23582 0.0466588 0)
(0.847575 -0.0241112 8.24846e-20)
(0.99838 -0.00975316 -1.27142e-20)
(0.973954 -0.024507 -1.0071e-20)
(0.103347 0.0225507 -8.2109e-20)
(0.0315786 0.0076232 0)
(0.662327 -0.746336 -1.97794e-20)
(1.21146 -0.0377433 -4.92797e-20)
(-0.049267 0.0122849 9.90798e-20)
(1.19027 -0.287322 6.2468e-20)
(0.104825 0.0395315 -1.70443e-20)
(1.00289 -0.00330946 1.29169e-21)
(0.347467 -0.166076 -2.24453e-19)
(1.01702 -0.0656226 2.0533e-22)
(1.02097 -0.0112806 0)
(1.02327 -0.0206711 -7.53254e-21)
(1.01672 -0.00376561 0)
(1.00407 -0.000785356 3.64158e-21)
(1.01865 -0.0389343 -7.51011e-23)
(0.987937 -0.0276245 -1.08997e-20)
(1.30734 -0.0835234 -7.23363e-20)
(0.891654 -0.0927476 -7.71816e-20)
(0.0469387 0.0320005 9.48883e-20)
(0.0302577 0.0283002 7.74682e-20)
(1.02064 -0.0255235 -7.22584e-21)
(1.00314 -0.00403643 -1.42102e-21)
(1.05585 -0.0484185 0)
(-0.197935 -0.0196651 1.2498e-19)
(0.861573 0.103691 -3.58661e-20)
(0.0548254 -0.124168 -1.07572e-19)
(0.980428 -0.156722 0)
(1.28381 -0.344236 9.52009e-20)
(1.16281 0.0674616 -3.69396e-20)
(1.30437 -0.0539412 1.9495e-19)
(1.17389 -0.0136725 3.32638e-20)
(1.06998 -0.466267 6.09281e-20)
(0.995517 -0.041941 0)
(1.02796 -0.0846024 -6.0678e-22)
(1.02864 -0.0104872 -1.39867e-20)
(1.20486 -0.00262478 -6.03047e-20)
(1.06628 -0.0119176 0)
(1.00005 -7.76602e-05 0)
(1.00217 -0.0694462 -3.74649e-21)
(0.216286 0.0536674 4.88177e-20)
(0.995969 -0.0450361 0)
(1.05987 -0.0817614 6.98699e-21)
(1.0221 -0.0225846 -3.02072e-21)
(1.14446 0.0755161 1.17555e-19)
(0.114676 0.0411435 -2.90111e-20)
(0.83455 -0.212253 0)
(0.419706 -0.0471569 0)
(0.229405 0.0443448 5.30013e-21)
(1.22786 -0.0328764 -6.3253e-20)
(0.888151 0.104523 -5.56595e-22)
(1.02237 -0.0378195 3.43205e-21)
(1.03014 -0.011374 -4.7496e-21)
(1.06779 -0.041483 -1.25166e-20)
(0.211427 0.045778 -2.56495e-21)
(0.0946139 0.0304029 0)
(1.18086 0.0463338 3.32051e-21)
(0.0168586 0.0273559 -5.00676e-20)
(1.00395 -0.0153565 0)
(1.18166 0.0428027 -7.95837e-20)
(1.02156 -0.0131633 3.47008e-21)
(1.08731 -0.0996524 -3.20941e-20)
(0.198087 -0.0210286 -4.92216e-22)
(0.996521 -0.0312906 -4.62137e-21)
(1.14615 0.0868758 -3.29008e-20)
(1.02388 -0.0194683 -3.82996e-21)
(0.99873 -0.00927905 1.35797e-20)
(0.985924 -0.0266034 4.50998e-21)
(1.1598 -0.0249833 -2.27403e-20)
(0.900883 -0.245862 -2.02189e-20)
(0.985675 -0.0564497 1.18702e-20)
(1.05254 -0.0157094 0)
(0.815622 -0.562025 1.23176e-20)
(1.27751 -0.201536 -7.3274e-20)
(1.07486 -0.151531 0)
(1.14304 0.0737309 -5.47398e-20)
(1.04912 -0.00196112 3.08932e-20)
(0.519529 0.0717061 6.23804e-20)
(0.992388 -0.0275612 -1.15147e-20)
(0.946255 -0.242606 -3.56019e-20)
(1.06791 -0.0303569 1.36991e-20)
(-0.1789 -0.0138591 0)
(0.68584 -0.0464902 -1.01955e-19)
(1.00022 -0.000998156 0)
(1.13441 -0.021265 0)
(-0.268201 -0.0104466 0)
(1.02021 -0.0388246 5.52586e-21)
(1.05156 -0.104232 -1.41681e-20)
(0.0583784 0.0243888 0)
(1.05847 -0.00212558 2.21926e-20)
(0.16741 -0.00661069 -6.51759e-20)
(0.108122 0.0413589 0)
(0.993855 -0.04339 0)
(1.18359 -0.130252 0)
(1.11072 -0.0446152 4.93576e-20)
(0.291043 -0.00750535 -1.49233e-20)
(0.929892 -0.128729 -1.21107e-20)
(1.04964 -0.474923 0)
(-0.0561693 0.00884593 -2.60964e-20)
(1.11913 -0.0421403 2.25805e-20)
(0.184932 0.0497376 -1.63963e-21)
(1.05208 -0.105158 0)
(1.01588 -0.0200604 0)
(1.06974 0.000687019 -1.27202e-20)
(1.04923 0.000589867 4.81909e-21)
(0.172513 0.026254 9.79528e-20)
(0.478175 -0.0626401 7.79728e-21)
(1.11639 -0.0447575 -1.6836e-22)
(0.0705607 -0.138507 1.08317e-19)
(0.99448 -0.0323641 -2.06611e-21)
(0.182179 -0.0840471 0)
(1.16826 -0.101341 1.1363e-19)
(1.00766 -0.00914536 -3.11851e-21)
(0.918749 -0.0553434 -1.23155e-20)
(1.0827 -0.0126798 3.34423e-20)
(-0.285698 -0.00978765 1.60524e-20)
(1.05325 -0.215434 0)
(1.21239 -0.160043 1.09506e-19)
(0.574326 0.0855312 -8.83127e-20)
(1.00029 -0.00111779 0)
(1.1667 -0.0254024 -3.09458e-21)
(0.138409 -0.0301329 -1.46424e-19)
(0.993629 -0.0401737 8.08017e-21)
(1.19144 -0.0746767 8.20695e-20)
(1.0003 -0.00407871 1.716e-21)
(0.0970506 0.039596 1.62876e-20)
(0.303028 0.0644111 0)
(1.2113 0.0163317 -5.51631e-20)
(-0.243483 -0.0135132 0)
(1.07998 -0.0996714 1.36128e-20)
(1.05107 -0.0547587 2.06797e-20)
(1.16477 0.092381 -1.08633e-19)
(0.999928 -0.000742454 9.85365e-21)
(1.02786 -0.00509787 8.96338e-24)
(0.0243789 0.0284671 -8.45242e-20)