/*--------------------------------*- C++ -*----------------------------------*\
| =========                 |                                                 |
| \\      /  F ield         | OpenFOAM: The Open Source CFD Toolbox           |
|  \\    /   O peration     | Version:  v2012                                 |
|   \\  /    A nd           | Website:  www.openfoam.com                      |
|    \\/     M anipulation  |                                                 |
\*---------------------------------------------------------------------------*/
FoamFile
{
    version     2.0;
    format      ascii;
    class       volScalarField;
    location    "300";
    object      ddt0(omega);
}
// * * * * * * * * * * * * * * * * * * * * * * * * * * * * * * * * * * * * * //

dimensions      [0 0 -2 0 0 0 0];


internalField   nonuniform List<scalar> 
14315
(
0.000366776
0.0024705
3.07084e-06
8.18666e-06
0.000120191
-8.32988e-07
3.74847e-05
-7.64826e-06
0.288996
7.29895e-06
-1.55531e-05
3.11012e-05
-0.00353233
-3.06421e-06
8.8629e-06
3.41832e-06
-2.72034e-07
0.129029
-9.18355e-07
3.69676e-06
0.000376242
-1.791e-06
9.24653e-06
-9.1405e-06
-0.318824
4.27187e-06
0.0100732
5.34487e-06
-0.0346067
-9.37539e-08
-3.61978e-05
-2.80866e-07
-0.00432842
0.0018005
2.95284e-05
-2.63705e-07
3.20125e-07
1.72967e-05
-1.85656e-05
-5.02728e-05
0.21997
-1.3236e-06
-2.17881e-07
0.00180532
0.00188854
0.000107792
1.31111e-06
4.06212e-06
-8.42259e-06
3.54128e-06
2.61213e-07
-0.00102733
1.06114e-07
-1.06372e-06
9.6753e-08
-2.23018e-05
0.00170543
-7.68255e-06
4.16165e-06
-0.303998
-6.65766e-07
0.000112779
0.000235283
-1.90272e-07
-1.76837e-07
2.41439e-08
3.27775e-06
0.000207902
6.72877e-06
-1.47296e-07
4.20126e-07
2.21409e-06
7.59997e-07
1.42341e-06
6.23877e-08
2.04346e-05
2.50079e-06
7.26625e-05
-1.37554e-07
-0.0101012
-4.04287e-05
-0.000159917
-9.87173e-06
-3.80912e-06
1.15385e-07
0.00523254
0.000344309
-6.04193e-08
3.36024e-07
9.02716e-07
0.000278759
0.508664
-0.00634657
-6.19297e-08
-0.000211549
0.000252625
3.42939e-07
1.13131e-05
3.2637e-05
1.47169e-06
3.74073e-07
0.00303583
2.51108e-05
0.000134127
9.18863e-07
1.4936e-07
-9.33971e-06
0.000150393
5.6605e-05
0.000107841
0.000583513
-1.99396e-05
9.94635e-06
0.0133844
-2.9553e-06
-0.00167805
0.000101257
1.61227e-05
0.0219713
0.000840679
3.32915e-06
-1.34014e-07
-1.05359e-06
0.000624242
-0.0520112
1.97381e-07
0.00116625
0.000691569
-4.71652e-06
1.06896e-06
-0.000559213
-0.175512
-0.000687842
0.00828728
1.88579e-05
-6.49805e-06
-4.3477
0.0168044
-0.0887966
0.00438475
0.000601198
-0.0190378
-1.17028e-07
-0.0426835
-0.00189783
1.76237e-07
2.34581e-05
-7.75314e-06
-0.000497715
-7.56611e-05
-1.06391e-06
-3.22419e-07
-7.15324e-06
5.9271e-06
-7.65286e-05
3.24379e-05
-5.15839e-05
1.91638e-05
-0.000549785
-0.00154477
-8.07591e-05
-2.19842e-06
-0.000641387
-0.0005401
-1.60063e-05
0.001421
-6.85928e-06
-0.000115727
-2.02763e-05
9.64517e-08
-0.0157578
-0.39785
0.000254586
-2.58955e-05
-0.467964
-0.00685234
1.72546e-05
7.51811e-09
0.000235685
0.000174452
-0.0114445
0.00023178
-1.26942e-06
-0.000259199
0.000460125
-0.000629942
0.000202531
-0.000335355
-2.28326e-06
-0.000479779
-1.37802e-06
0.00195819
0.0456496
-5.86324e-07
3.5859e-06
-1.70537e-05
0.00892531
4.33986e-06
-4.26067e-05
-0.000338001
-0.00501258
-1.53065e-06
0.00329387
6.67126e-07
2.58624e-05
-7.41119e-08
2.11752e-05
-6.06832e-05
1.32076e-05
1.38307e-07
2.1327e-06
5.53903e-06
0.00662645
-0.000147471
-0.000462863
-6.79889e-05
-0.058184
2.57969e-06
-1.66761e-06
-3.75419e-06
0.020393
-2.793e-05
-0.00403878
-0.00595759
-7.11791e-05
7.74099e-05
0.000120848
-0.000293375
-8.60218e-07
5.90779e-05
-5.45219e-05
-0.000795787
1.06536e-06
-0.00217918
2.63497e-05
-4.00037e-05
0.000408581
7.65166e-05
1.57387e-05
12.6371
-0.0218175
0.000322641
-4.30394e-08
-0.00942844
-0.0163279
8.93534e-05
-0.0193643
3.39265e-05
-9.98117e-07
-1.21894e-06
-3.30074e-05
1.98015e-07
0.380354
2.47866e-07
-1.09231e-05
-0.0159056
1.75123
-0.000551545
-0.00259762
1.25745e-06
4.13304e-06
-6.00274e-05
-8.89086e-05
0.800909
-1.1685e-05
0.00795982
-5.84204e-05
-0.00878843
0.000317821
-6.65003e-05
0.000332287
2.55785e-08
6.80824e-05
6.95486e-05
2.97485e-05
3.71429e-05
-0.000495642
-1.09716e-07
0.000128179
0.000266325
-2.4384e-07
-0.000731028
2.9132e-06
-8.56882e-05
1.58236e-05
0.149065
-0.0659442
-7.11738e-05
1.46744e-05
-5.13417e-07
0.0064389
-1.77597e-06
1.42452e-06
-0.0161218
-4.01824e-08
4.25335e-06
-4.2444e-06
-0.00431186
2.33682e-06
0.00129926
-0.000595614
5.14358e-07
8.8279e-08
4.781e-05
1.59752e-05
-3.22846e-06
0.000137406
-0.000929215
-2.7004e-05
0.000294786
-1.43897e-07
-2.21749e-07
-8.29702e-05
0.000346901
0.000133333
-0.0353759
7.00789e-05
-2.34184e-06
6.60777e-05
-0.155352
-2.35636e-05
-1.5216e-06
0.00893992
2.14607e-06
1.1109e-06
4.49246e-05
-0.0669035
-3.03804e-07
0.0091629
-1.50785e-05
-0.0452226
-0.0625465
2.96209
-0.214768
0.119833
8.11823e-08
0.00880742
9.34976e-06
-0.37443
5.41576e-05
0.000212724
0.00373601
-1.79959
3.38382e-06
-2.52463e-05
-0.384416
-0.000625479
0.317382
2.05456e-07
3.32577e-05
-0.0515388
0.0246898
-2.62112e-06
2.24123e-05
7.56219e-05
0.000354136
0.000487495
-0.236698
-0.00066845
1.49256e-05
9.75497e-05
-0.00059576
3.82028e-07
2.51493e-06
4.13125e-07
-8.56626e-05
5.6761e-05
-6.62433e-05
5.20684e-05
-2.06937e-07
0.0556876
-0.00722465
-0.000155223
0.013054
1.34216e-05
3.34107e-07
-0.00296185
-0.00549188
0.000461623
-1.8413e-06
-5.75066e-05
1.63453e-06
0.0416591
-1.87078e-05
1.38417e-05
-1.6077e-05
0.0127531
2.87321e-05
-0.00313603
-0.0029051
0.191569
0.000225433
-5.62843e-07
3.52664e-05
5.9299e-06
1.05327e-05
0.00010547
2.94117e-05
-8.37912e-06
4.77908e-05
8.37256e-07
1.73964e-07
-0.00136965
8.11093e-05
0.0619398
0.0564372
0.0738025
0.000359167
-0.000344422
0.000308578
1.41645e-07
2.62997e-06
-1.8352e-07
-0.00456683
-0.000178841
-0.000696124
0.000211958
-0.000142249
8.26054e-05
0.00689159
0.00937181
0.169314
-0.013846
2.75694e-06
9.82383e-09
0.000131473
-0.000406091
5.51179e-06
0.00977333
-0.0226666
0.141593
7.77155e-06
4.63916e-07
0.00375016
4.33946e-06
6.98848e-08
0.0761243
0.0108948
0.000193226
7.8199e-07
-0.00803399
6.9404e-08
-7.44386e-07
-0.065028
-0.488906
0.0174873
3.43252e-08
7.53634e-08
-0.00010554
-9.89437e-07
-4.89958e-06
4.20805e-07
-0.00133949
0.00821218
5.48138e-08
0.0330847
-5.79939e-07
0.0014279
9.50375e-05
-4.47886e-06
-0.00598768
1.20685e-05
0.00082906
0.00872146
-0.0127815
2.50483e-07
0.680812
-0.00868825
2.69249e-05
-8.54168e-06
0.00544953
0.000289538
-3.4738e-06
-2.17213e-05
-1.471e-07
0.000235812
-0.00391252
0.00218237
2.73858e-06
-1.15662e-05
-0.00107687
-2.60788e-07
-0.0022613
-0.000154906
0.000139244
0.00455197
-0.00961787
8.77653e-07
0.0226314
4.90428e-05
0.450635
0.000120024
3.07043e-07
0.000249127
0.844588
-0.000362018
-0.0221597
6.4622e-06
6.71664e-05
1.18429e-05
0.0367358
7.01301e-07
0.000445497
5.02072e-05
0.00157327
6.06587e-07
-7.30647e-09
-1.85946e-05
-2.86112e-05
-4.12173e-07
0.00102872
-4.27291e-05
-0.000105141
0.00461573
-2.37116e-06
-0.000141381
-0.000548296
-0.00306788
-2.45208e-05
-0.00113962
-2.96356e-05
0.00245398
-0.000746572
-0.911023
-0.00310096
-6.52158e-05
0.000204167
-0.00070049
0.0294489
1.61948e-06
-3.66815e-06
-0.00223877
1.78478e-06
-1.24947e-07
5.52789e-06
5.24569e-07
1.01935e-05
7.89885e-09
-2.03696
-1.27145e-07
-8.16089e-05
0.0203086
-0.000476381
-3.4426e-06
5.50842e-07
-2.76905e-06
5.6486e-05
5.71826e-07
0.0754884
4.13452e-06
-5.82838e-08
-1.14388e-06
-9.67916e-05
-2.58608e-07
0.00044895
2.46403e-05
-6.82033e-07
0.000178047
1.75563e-06
-2.07606e-06
-2.81248e-05
-0.000868759
-0.000441476
-0.196165
-0.0600313
1.31339e-07
-3.11458e-05
0.00298747
0.000738945
1.10607e-06
-6.80237e-07
7.14481e-06
-7.99217e-06
-2.97996e-05
7.67188e-05
-0.00115829
-0.00253005
-4.38807e-06
0.00522895
-0.587181
3.36756e-05
0.369708
-0.000108652
-0.000444556
-3.23279e-05
-1.27558
9.21239e-07
-0.00523271
-5.90149e-08
0.00769861
1.74055e-05
-1.61974e-06
0.00227926
-0.0221411
-0.361336
-0.00196135
-1.18567e-05
-7.37856e-05
0.0682214
3.10535e-05
0.119828
3.0305e-06
-8.53368e-05
-9.64594e-06
1.12522e-06
9.61239e-06
-1.48574e-06
2.99834e-05
-1.02998e-06
-7.20429e-06
0.000265619
-4.9193e-06
6.61048e-05
-3.41456e-06
-0.00020454
1.44644e-05
-2.4624e-05
0.000432311
4.60367e-05
4.08278e-06
0.00176548
-1.8547e-06
-0.00251531
0.757438
9.09247e-06
-2.14739e-06
6.73167e-07
-0.0288168
0.000200914
2.48245e-05
-0.000337102
-0.00957814
-7.4594e-06
0.00127934
-6.30528e-07
-0.000823683
-4.68421e-05
-0.00229265
0.000138351
-2.06579e-07
0.00104344
-7.18468e-07
-1.11129e-05
8.00269e-05
0.00125405
-0.00364949
0.00061084
2.05387e-05
-2.41463e-05
0.000720906
0.00834798
-9.69541e-05
0.112505
2.40363e-08
-0.00134537
-2.72821e-08
-0.0901085
-4.79414e-05
-0.00217999
-9.17693e-07
0.000842141
-2.38849e-07
-5.60927e-05
0.0560816
0.000103358
5.31217e-08
0.0383685
0.0043526
-4.34108e-07
-2.10387e-06
0.00533889
0.00216258
-0.0456973
1.86224e-08
0.000115846
-4.69911e-07
-8.84751e-05
-7.60828e-06
0.0023374
-1.62036e-07
1.40244e-06
5.23171e-05
-4.30715e-06
-0.000105704
-0.459772
-0.00352027
-3.15253e-05
1.30908e-06
5.67354e-07
1.76276e-05
-7.07523e-08
2.79033
-8.37151e-06
6.07983e-06
2.08426e-06
2.26324e-08
1.28329e-05
-0.0141928
0.00481245
0.0666579
-5.21643e-07
-2.68498e-06
2.87988e-07
-3.69861e-05
-4.34067e-06
0.025229
-4.74285e-08
-5.47923e-08
-0.00169386
0.389309
-0.00282706
1.81066e-06
-1.76032e-07
-3.08357
-0.0118671
-6.42445e-07
-0.00338109
-1.71122e-05
0.00044385
0.000384293
-1.06354e-05
-5.93378e-06
-0.0921147
-0.205311
-9.67595e-06
0.000192386
0.000144489
-1.99895e-05
0.00120937
-11.5768
-9.35647e-07
-0.000115203
0.0502602
0.00467259
0.000964955
-3.51499
-3.33424
-1.22824e-07
0.000113495
-0.000585737
1.26479e-05
-4.57953e-07
2.65021e-08
-0.000431126
0.0546983
1.87597e-07
-1.48386e-05
0.000229148
0.00422365
0.000147645
0.000394885
0.00615198
-0.000352851
3.5299e-05
0.00024582
0.899162
-0.0119956
-0.0643242
2.60117e-05
3.50477e-07
-0.0163756
-0.00673341
0.00935407
-6.2874e-05
-0.000120474
0.0262719
2.75993e-07
1.49529e-07
-0.00605442
0.0350966
-2.64606e-05
2.32386e-07
-0.00682228
-4.35673e-07
-9.27278e-08
-2.39202e-07
0.0128969
-3.4881e-07
-7.34007e-06
-0.0903238
4.9401e-06
-0.0135743
8.71187e-08
-5.25601e-05
-5.74469e-07
-9.48638e-07
0.00940107
0.000512481
5.10017e-06
3.50397e-07
-8.25069e-07
0.112091
6.13831e-08
-6.69182e-08
0.000261168
0.000455341
-0.0217539
-2.23797e-07
0.00344329
2.36146e-08
5.38574e-06
-0.000681342
-0.00187343
0.0311748
0.000350109
-1.43124e-07
0.000108854
-1.5732e-07
-0.00624892
1.91953e-06
0.000250949
-7.57412e-05
0.0324978
-0.0469501
-5.24042e-07
0.000100066
0.00191519
-0.000145347
1.35702e-05
0.000434631
-0.000309061
2.47835
-9.89276e-06
6.18021e-05
7.348e-05
-0.0566056
0.000599177
2.58304e-05
0.000192288
5.34901e-06
-4.38343e-05
7.06698e-05
2.12689e-05
-0.00735747
-0.0405582
0.0661448
0.000107367
-3.44969e-06
-0.0139193
1.8568e-05
5.53664e-05
0.104153
0.00522039
1.87437e-05
9.16867e-08
0.000407282
2.15006e-05
0.0137793
3.04351e-06
5.76656e-08
-0.000134724
-2.63564e-07
-2.72988e-05
2.94139e-05
0.000202834
-0.000123195
0.00150961
1.95184e-06
-0.0127062
-3.50957e-05
-2.25224e-05
-3.28301e-07
6.21156e-06
-0.000923514
-4.54862e-05
-1.26239e-06
8.48504e-05
0.00118416
-0.000360467
0.00635031
-0.000109926
1.92126e-05
-3.82481e-05
0.0533579
2.47408e-06
-7.51818e-05
1.336e-05
6.04737e-07
0.0190134
0.00767058
-0.000308101
0.0249779
-4.47585e-05
0.00179307
0.00272864
-0.416118
0.000495771
1.12995e-07
-0.00363048
-0.0190601
-1.04556e-09
-2.26979e-06
4.71315e-05
-0.00157231
0.0036707
-9.85593e-06
1.10758e-05
3.14823e-05
0.000304589
-0.000234023
-0.00649823
0.0266153
2.14714e-05
0.085811
-1.37955e-06
-0.00088396
-8.3417e-05
0.00554415
-0.000138846
-1.25064e-06
0.000277458
0.000119105
-0.0115433
0.000140671
-1.14152e-05
-0.00070034
9.42823e-08
-1.12214e-05
0.0941256
1.3527e-05
-9.16812e-07
-9.56144e-06
-7.79019e-05
5.53913e-07
-0.000508596
1.39906e-08
-0.0471591
-6.51234e-07
-0.000424706
1.75838e-05
-0.000350827
0.000492847
-1.04286e-06
0.000758292
-0.0448212
4.50842e-05
0.00043367
-1.9857e-06
-0.289488
5.31882e-05
-0.000463391
3.11035e-05
-0.000108731
0.0749517
-0.000203456
0.00452142
0.0175051
-0.0243328
0.000174262
0.000250921
3.75383e-06
0.00340314
0.00893401
-3.41061e-07
-1.60307e-05
0.0130564
-8.81226e-05
-3.55306e-06
0.015564
-0.000443563
-1.00382
-2.71096e-07
0.0310237
0.00954454
0.000301625
-3.22175e-06
3.12314e-05
4.80264e-06
2.88611e-07
-4.43726e-06
0.0732549
-8.75442e-07
7.88434e-08
2.90397e-07
-4.34467
-0.000111429
-3.98623e-07
-2.67351e-05
-1.25614e-05
6.83705e-05
5.85114e-07
0.000161945
0.00959067
-0.00626996
0.020646
-4.57167e-07
-1.78277e-05
0.000275637
0.0814568
0.000298024
2.93412e-07
0.000810741
-3.03815e-05
0.000235423
-0.00359132
-3.43854e-06
-1.55164e-06
-1.26739e-05
-7.6484e-08
0.192774
-3.43395e-05
-0.000351862
-1.43419e-05
0.0346068
-7.98351e-06
-0.00087432
-0.333935
1.52905e-07
0.000918458
0.000749787
-0.0113615
-0.00130414
6.29019e-08
0.00203262
1.83543e-05
-1.56388e-05
4.07367e-05
-7.30658e-06
0.00040408
-0.00722415
0.000378419
28.0019
1.98734e-05
3.5043e-08
0.0273698
-7.89625e-07
-1.07804e-05
-3.36823e-05
-0.000359142
-1.23877e-05
1.88515e-05
-2.32194e-05
9.6806e-07
0.0443935
-0.0106652
-1.05838e-06
0.032125
-0.000330312
2.47047e-08
-5.46596e-08
0.00117382
0.000338582
0.000239151
-2.06648e-05
-1.30903e-05
-0.00011307
-0.00243772
0.000700351
0.111664
8.53843e-06
0.000467872
-0.00125919
1.47506e-05
3.61132e-07
-0.000226904
-2.37955e-08
-0.00044995
-3.13734e-06
3.55345e-05
-0.000270301
-0.000455629
0.00327566
-0.000204263
-1.34358
0.0210056
-0.0119263
-1.88727e-06
-0.0171341
-5.33444e-05
-1.03632e-05
0.002806
-0.524722
-0.170445
-1.21758e-05
1.85766e-05
-0.00292029
-0.000163496
-0.00182549
8.24854e-07
-1.4514e-06
-2.83856e-07
-4.78075e-05
-7.98291e-05
4.90064e-06
0.00306361
0.00191225
0.00140724
0.000287605
-6.81029e-06
0.000219095
-3.19876e-07
0.000199513
-3.3498e-05
0.000305494
0.00343353
1.38424e-05
-0.0344618
-7.41504e-05
-1.38524e-06
0.00611759
-0.0242648
0.00010043
-8.32895e-05
0.000697191
4.9808e-08
-9.36298e-07
-0.000208171
-5.18695e-07
7.12508e-08
-0.262568
-0.000677547
0.00455765
-2.62316e-06
0.00376737
0.00190586
8.95125e-06
-2.18238e-08
0.0320873
-0.000947078
-1.34714e-05
-2.3581e-05
2.06421e-06
0.022919
6.16181e-06
-2.16922e-06
0.0202446
0.0307139
1.61871e-05
-7.34486e-06
0.000409492
-0.000767622
3.50541e-05
0.0181904
-2.54383e-07
-4.53208e-07
-1.32345e-07
-0.000724445
-6.13059e-06
-2.09368
-0.736513
5.59267e-08
-0.000135414
-0.0586928
0.000177537
1.46093e-07
0.0171726
5.04335e-06
1.37301e-05
-0.00211638
5.64103
2.22892e-08
0.000914462
-2.01278e-07
2.79167e-07
7.83973e-07
0.0093355
-0.00699294
2.91487e-07
0.000180161
-0.0144183
0.000826334
-7.802e-07
0.000227595
-0.00153399
0.000240964
0.00221103
1.41165e-05
-2.70631e-07
1.16792e-07
0.229489
-1.76156e-05
1.35678e-07
-1.37028e-07
0.000136474
2.50867e-07
-1.08414e-06
0.000503279
1.32589e-06
1.89296e-05
0.000179053
1.8411e-05
-0.00629115
3.79385e-06
-0.000195831
9.30763e-05
0.000437939
2.25772e-05
4.2903e-06
1.95365e-06
-1.86008e-05
0.0114487
1.14729e-07
-0.00031015
0.0135031
7.58733e-07
-0.436148
-1.24586e-06
-0.0647844
4.73705e-06
2.91011e-05
-0.000329263
0.0736082
-5.83022e-05
-0.000535504
-7.37886e-06
2.72349e-05
7.12377e-05
0.000170854
-0.58382
0.00889852
8.69019e-05
6.45546e-05
1.96145e-07
1.59815e-07
-0.000169954
3.10934e-06
-0.2762
1.75082e-05
0.00529064
0.000405805
0.123224
2.13808e-07
-7.74418e-07
0.000303761
0.000279582
1.28847e-06
-4.90345e-07
-3.81697e-05
1.63327e-05
2.84326e-07
-0.0486492
-0.0807485
3.34829e-05
6.40973e-06
-9.99568e-08
0.00827244
0.00208883
0.000461039
0.00022996
0.039021
-3.5958e-06
-6.45407e-07
-2.29033e-05
2.32762e-07
-1.4706e-06
-0.0609007
-5.90875e-08
-7.43182e-06
0.000180591
1.55889e-06
-0.0220444
-1.08958e-07
1.96069
0.0583858
4.90179e-06
-7.8515e-07
-2.68161e-07
1.199e-05
-2.78828e-05
7.14676e-07
9.10969e-08
4.03542e-07
1.93137e-06
-0.000633921
5.63228e-06
2.1884
2.04983e-06
5.52496e-05
0.0685732
0.000518526
-9.33097e-06
5.67873e-07
0.180563
-0.000129712
-0.000191557
-0.491942
-0.00108717
1.30045e-07
-0.0248312
0.000248699
4.36249e-07
7.935e-07
-0.0373767
-4.13963e-07
-1.34321e-07
0.000247881
0.00294014
-0.0223122
0.000340257
-3.4817e-06
4.89431e-06
0.00029793
2.31282e-05
-2.08137e-06
-0.00073266
7.87461e-05
8.89544e-06
0.00022613
0.000367389
-0.00180889
0.0012703
2.14997e-05
-0.00615246
-0.000329484
0.0268502
0.00966184
-0.0156111
6.87327e-07
7.09513e-06
9.98492e-05
9.66164e-07
1.37017e-07
6.75751e-07
0.0187659
-0.0116489
-0.00478511
-1.6863e-06
4.17554e-06
0.0450654
-0.00193311
-0.000177851
-2.99734e-05
8.51311e-06
2.96492e-05
0.407434
0.00215891
2.96683e-06
-0.165667
0.0232134
-3.01868e-06
-1.19926e-06
0.00123343
-1.54182e-07
5.42971e-06
-0.680753
0.000326949
0.00121823
3.6533e-07
-1.35317e-07
-2.3361e-06
1.97487e-07
8.63518e-07
-1.48866e-07
7.67216e-07
-0.0510151
0.000483293
-0.000986563
1.93238e-07
-0.124043
0.0460255
0.00101295
-0.603278
0.0106282
1.17869e-07
1.81155e-06
0.0241968
1.85958e-08
-6.38629e-05
2.75763e-05
3.52267e-07
-0.000256298
-3.71634e-08
-2.10931e-07
4.23594e-07
2.64862e-05
-8.74338e-07
0.17469
-5.23458e-05
8.85997e-08
0.0073484
3.23758e-08
-1.03401e-05
-0.551312
-0.000253807
-8.60825e-08
0.140921
-0.00261007
-1.79395e-07
-0.552545
0.150609
-0.00200411
0.000365043
3.83433e-06
0.000663986
0.00053484
-0.00200469
-0.0132959
7.81192e-05
0.210699
-0.000346093
9.63988e-07
-3.8214e-06
0.000361537
4.5905e-05
8.41684e-06
-1.65387e-07
1.86693e-07
3.97178e-05
-1.43821e-05
2.47833e-05
1.41372e-05
4.00758e-07
0.000333376
3.25087e-05
-3.74159e-06
-0.00394074
0.0989109
0.00514378
-1.68586e-05
3.9999e-05
-7.52997e-06
-1.80664e-05
-2.29062e-05
-7.0183e-05
-2.10145e-06
0.0467509
-8.16428e-07
-2.62543e-05
0.000321923
0.00284258
-0.0212903
0.0807613
-8.16642e-08
-0.000695232
4.00302e-05
3.37727e-08
-0.0321369
2.11357e-07
-0.045998
9.03395e-08
-0.000109111
-1.2391e-05
6.12869e-07
-5.85666e-06
0.0011228
2.70152e-05
0.00159031
2.08983e-06
-0.0020538
-6.76826e-08
5.68555e-05
0.126305
-0.19084
0.00687608
-3.37588e-05
0.0016018
0.0966084
-6.50022e-07
4.80184e-07
0.000132794
1.9697e-06
1.09599e-05
-0.0324664
0.00865174
0.00384813
-0.000611219
2.79462e-05
-0.000313842
0.00152479
-9.65403e-06
-1.74348e-05
-1.68383e-05
-0.00031459
2.19896e-07
3.69633e-05
-4.18169e-06
-2.35045e-07
-8.37543e-05
1.41513e-05
5.7423e-05
0.00633595
0.0325853
3.61999e-06
-6.01528e-07
-1.09602e-05
1.72892e-07
-5.86999e-06
-0.0147236
6.59702e-07
0.0351892
7.56924e-06
0.305254
-2.7837e-07
1.83436e-06
1.20679e-06
-1.58593e-05
-0.000287276
1.7123e-07
0.0213792
1.9107e-07
0.000130619
-4.19378e-07
-0.000155987
0.2181
0.0010858
-0.000245909
-0.000155713
0.119537
-0.00255947
0.000443566
-0.0219963
0.0394107
0.00502706
1.36747e-05
1.0914e-07
1.25166e-05
2.44506e-06
-0.00113438
2.9374e-06
0.00431944
-2.11142e-05
-0.00120339
-2.04946e-06
-1.67397e-05
-2.12052e-07
-3.90364e-07
-5.06827e-07
0.0379314
0.00161378
-3.15187e-06
-0.000333708
-2.66718e-05
-0.000575553
-0.0110721
-0.0756103
-1.4644e-07
2.92328e-07
8.3414e-07
-5.15925e-05
0.00111891
4.00571e-05
-0.0842717
1.40597e-05
-0.000204662
-0.00422702
5.98249e-05
0.0211068
0.0013658
-0.000228313
0.0351842
1.12504e-06
-0.0113288
0.00715881
0.00177992
1.41646e-05
5.74339e-07
-1.0747e-06
-0.595982
-3.39787e-06
-0.134683
0.000464033
4.94449e-06
-0.000554728
-0.000246837
-0.242256
1.22488e-06
2.47745e-05
-9.19389e-05
0.000195493
1.41623e-06
1.4299e-06
0.00174365
0.00545897
0.000145468
0.000418018
2.54318e-06
2.76085e-05
-0.0159869
0.0323264
1.66856e-06
-1.83526e-05
-0.293285
-0.0587319
-2.36614e-05
1.85555e-06
-5.04745e-05
-1.95869e-06
-3.37016e-07
-2.88736e-07
0.000175169
0.18733
3.77007e-06
3.44497e-06
-0.014466
0.00468215
-1.93037e-06
2.63206e-06
-1.00042
0.0115912
6.85793e-07
5.92772e-07
0.00536004
6.39108e-05
1.4988e-05
8.09188e-09
-0.000167379
-1.09849e-06
1.3805
1.392e-05
4.59919e-07
-0.0348995
-0.00365045
-0.0623245
1.86029e-06
-5.74464e-07
-1.58949e-06
0.0725869
2.24917e-07
2.13939e-05
4.32189e-07
-0.000193068
-0.000436653
0.104728
-0.0196627
-4.9874e-05
-1.53815e-05
4.11019e-05
0.00105086
-2.5716e-06
-0.0157201
0.000827795
-7.77629e-05
2.36054e-06
-9.63229e-08
-0.000405825
2.57885e-05
2.0074e-07
0.00118535
0.0025578
-0.000252702
0.000133093
-0.00134022
1.30934e-06
4.69192e-06
2.51277e-06
5.1281e-05
3.8692e-07
-4.53183e-06
0.000109145
-5.60178e-06
-0.00445373
4.3357e-08
-0.142899
-1.3762e-07
0.0690808
6.18532e-05
1.36366e-05
-0.00282112
-4.76571e-05
0.00085308
-0.00199479
3.83402e-05
0.56334
-0.666614
0.0492731
-2.57485e-05
-1.31321
2.27974e-07
4.24956e-05
-0.00184152
0.0232155
0.0310137
4.60508e-08
0.000119573
6.85084e-06
3.1674e-07
4.70134e-05
-4.56593e-06
-0.000124056
5.67378e-06
0.00230009
-0.00038837
-0.000303539
0.00221129
0.00227536
0.000146686
1.27015e-05
-0.000167928
0.030787
4.40675e-05
2.04691e-06
6.7266e-05
-1.69382e-07
-0.000395939
1.9727e-05
-9.17958e-08
1.95619e-05
0.0208618
-0.000731967
-0.000132323
1.91368e-06
-1.68508e-06
-1.01651e-05
0.0111687
-0.000106957
1.15298e-06
-0.100384
-0.00322789
5.58166e-05
-4.37057e-05
0.000917245
0.00380577
-1.44611e-07
0.0114355
-0.000469223
-0.00579415
1.98247e-07
-1.77978e-06
-1.19653e-06
0.000100441
0.0338585
5.91749e-05
-0.000472866
-0.000918975
1.0459e-06
0.0575493
-3.25561e-05
-0.0149945
0.00114394
5.53524e-05
-0.0128809
-0.191399
-0.000141082
-1.68765e-05
-0.000125858
2.71974e-06
-9.62449e-08
-2.773e-07
0.000565535
-9.2171e-05
1.96801e-06
-1.41039e-07
-3.07656e-05
-3.73208e-07
0.0416138
0.000193389
-4.07735e-05
-1.33514e-07
9.57356e-06
0.000366478
-0.286052
-1.42642e-05
-0.000292997
-0.000191131
4.18093e-05
4.78184e-05
0.00597156
-4.13977e-06
2.03931e-06
8.71935e-07
0.000331916
6.25908e-05
-0.150234
-3.35047e-07
9.70614e-06
5.74637e-05
1.32536e-05
8.79827e-06
9.34971e-05
0.000128783
-0.00164367
0.000725031
2.01237e-07
0.00367248
0.000273296
-8.93013e-06
-3.89583e-07
-1.55985e-06
1.36813e-06
0.913008
1.99679e-07
-3.75752e-06
-0.000101631
-3.69262e-07
-0.00227051
-6.81928e-07
0.183623
0.0549891
-0.0023025
-0.0064716
-6.41981e-05
0.00262914
0.0194264
-3.81029e-05
6.3261e-05
1.27955e-06
0.000222751
0.0161655
-2.34929e-06
-0.00137325
0.000383519
0.000121689
9.5706e-08
1.09531e-06
-9.98586e-05
0.0208197
-9.81809e-06
-0.000215958
9.01535e-05
0.0486072
3.49659e-06
0.0198591
-1.47114e-07
9.73729
-5.6676e-06
-1.19523e-06
-5.66651e-05
0.000113511
0.051728
-1.09908
0.000102716
-0.0126001
-3.45195e-05
0.000569113
0.0297345
-1.22269e-05
0.00016381
-1.60228e-06
7.30762e-05
0.00441925
-0.0177856
1.25912e-06
0.0125215
-0.00348056
0.0106649
-0.000246682
-8.75603e-07
0.0069667
8.98551e-06
4.44642e-05
-8.88695e-07
-8.53693e-08
4.24438e-06
-0.000181119
1.60532e-06
-7.72821e-05
-9.81863e-07
0.00112491
0.000117375
0.320207
-2.95669e-05
8.37532e-06
1.23511e-07
0.00191296
6.86339e-05
-4.10574
-4.75859e-06
2.0095e-06
-0.0504874
3.05955e-05
-1.95652e-05
-1.9042e-06
4.51618e-05
-3.09886e-07
6.25488e-06
-1.02956e-08
-0.00169782
2.05132e-07
-0.000662609
0.0442369
0.120612
4.86322e-05
-1.91058e-07
-5.97803e-06
-0.00255923
4.45449e-07
0.000133098
0.00581968
4.26927e-07
-2.35584e-06
-7.50845e-08
0.0280042
-3.55517e-06
1.19852
3.60484e-05
-7.4953e-06
5.45597e-05
-1.34078e-07
-0.0151579
-0.00115133
0.0054491
-0.00487048
0.0291827
-0.00501567
-0.000223463
-2.95021e-06
-4.25491e-05
-0.0443905
-5.41702e-05
-0.0126773
0.000158364
0.0274925
-5.48881e-05
-3.85868e-06
-0.000703279
0.000266577
6.80926e-05
-1.18914e-05
0.000202969
-0.00139664
1.54079e-06
-3.94071e-06
0.000603489
-0.00106463
0.00022878
-6.36359e-07
9.07192e-06
-0.0062423
0.0207285
1.83216e-06
-0.00127316
0.00196793
-0.000984851
-2.91425e-06
-0.398037
0.0350924
2.19189e-07
0.000389483
-5.08526e-05
0.02598
-0.235336
1.57991e-06
-2.62361e-05
2.0406e-05
0.00133821
8.33047e-06
2.41537e-06
-6.94409e-06
-4.23885e-06
0.0433129
-1.60364e-07
0.00261358
-7.9074e-07
-0.407647
-4.51232e-06
0.217307
-8.86668e-06
2.10043e-06
-0.000413209
0.0489778
-0.000568647
0.0112874
-0.00594157
0.227843
-0.000127986
6.67643e-05
-1.92675e-07
1.37184e-05
0.307572
0.00416763
1.41131e-07
0.000147071
3.7651e-06
-0.00214687
-0.000100807
-2.08044e-05
-5.97569e-07
-6.77374e-06
9.4658e-08
8.99213e-06
-1.56437e-07
-0.000281215
0.000350368
2.99091e-06
0.000135246
-0.000960515
2.39036e-05
0.000696498
0.000211765
-4.95318e-07
0.0390113
-0.072924
6.15639e-08
-3.27851e-07
-5.37651e-06
9.12272e-06
5.6967e-07
-0.0269203
2.88274e-06
0.00357208
0.0330102
-1.3501e-07
7.84325e-06
1.95324e-06
7.61943e-07
-0.015455
-0.06161
-2.64885e-06
-2.27784e-07
1.75299e-05
3.96664e-06
3.41459e-05
2.91011e-07
-0.0161528
-2.22658e-07
-3.49224e-06
-0.150805
-0.00144387
-1.03957e-06
1.21695e-07
-0.000201902
7.16205e-08
-0.00547135
0.00432674
-9.23699e-07
-2.83448e-07
0.36855
0.21103
-0.00181438
2.33193e-06
-1.63581e-06
0.000206353
-0.0122548
-0.000924236
-0.411366
1.6193e-08
-4.1087e-05
2.37617e-05
-1.42608e-05
-0.0257399
-0.00010409
-0.0156993
0.000526002
-0.0225558
-9.40049e-05
-7.12189e-06
0.00170675
-0.000124199
6.91791e-05
-0.000740123
8.54517e-07
8.15297e-07
-0.000299762
0.00247678
-1.66973e-05
2.54831e-05
0.0505792
1.51849e-06
-2.88133e-06
2.05954e-06
-2.07634e-05
0.00397695
-0.00422877
0.0678027
-9.24884e-05
-3.98963e-07
0.0250148
6.2072e-06
0.000211446
-1.00736e-06
0.0336457
0.00017093
0.00418245
-0.00722747
-0.00101779
-8.58248e-05
-0.000433245
-0.000176209
-1.81665e-06
1.0348e-06
-0.00795083
0.319682
-0.000155028
-0.0702334
1.29359e-06
-6.481e-08
0.505202
4.34437e-12
0.0385816
-0.0295122
2.29007e-05
0.0524537
-9.72289e-05
0.0185453
-5.84961e-08
8.27139e-08
0.00749238
2.88161e-06
-4.78729e-07
-0.0117886
0.084614
2.24357e-06
-2.29552e-05
1.15618e-05
-0.662145
-3.33136e-05
-0.00220826
0.000706922
7.20101e-08
0.0132844
0.000105165
-9.79127e-05
-3.14567e-07
3.26905e-06
0.00043823
-0.0161956
-0.0027457
4.3945e-05
-5.9605e-05
-0.00452327
-5.27686e-06
2.06685e-05
-2.21394e-06
-0.00552033
-0.0628118
0.00135334
-6.22728e-05
0.00765253
0.0106228
-8.04001e-05
0.00358374
-3.01685e-06
0.000822291
-5.40364e-06
0.00934322
0.0149734
-0.000982436
0.0492475
0.0130235
3.67086e-05
-1.16961e-05
8.52004e-06
-1.63748e-06
0.0293195
4.64554e-07
0.145519
-0.469692
-1.48749e-06
-9.0841e-09
4.90621e-05
-2.20786e-05
0.083463
-9.83319e-06
-2.8955e-06
0.000109242
-0.00134344
3.88432e-06
-6.33744e-05
-0.000505124
4.48531e-06
0.00012887
0.000315644
-0.00297011
-6.04e-07
-4.90121e-06
4.73585e-08
0.328494
1.69111e-07
3.28781e-06
-3.46311e-06
0.00058314
-0.00479586
-1.48863e-05
1.05373e-06
-3.53188e-06
-0.000287214
0.460988
3.46819e-05
-2.39436e-06
0.000191457
-1.82352e-07
-1.60285e-07
-7.06109e-06
-0.00219787
-0.00765901
3.10152e-05
-0.0190232
-0.0278823
-0.0658055
-0.00292139
-0.243591
0.0685334
0.107087
-8.58137e-05
1.42416e-07
-0.000665017
3.20515e-06
1.75629e-05
0.202052
-0.0028102
2.75979e-07
-0.000917275
5.05633e-06
-5.4562e-05
7.961e-05
6.50415e-06
6.93374e-05
-0.00511508
-0.000392429
-0.00361787
-7.56562
-1.67755e-05
-2.17887e-05
-2.92414e-06
0.066295
-2.85525e-06
-0.0239438
0.0119865
2.17425e-06
-1.4747e-05
-0.00559008
-0.335716
1.38494e-06
2.58317e-06
-2.59209e-07
-0.0533763
5.08432e-05
-1.22054e-05
0.108851
0.0132861
5.40214e-07
-0.267294
0.0126654
-0.000425447
7.07848e-06
5.04132e-06
-0.000138072
-0.00204063
3.89141e-06
-0.00121371
0.0423523
0.000505134
-0.000301236
0.0100056
-0.00689039
4.4645e-05
2.67992e-07
0.0134059
-0.00113626
8.03871e-05
0.00168878
0.00268066
0.264674
0.00603481
0.0332577
-0.000565023
-8.53109e-05
0.00864774
-0.0133974
-0.00010578
-6.58386e-05
0.000132594
7.37638e-07
0.0559687
2.28959e-05
-5.36369e-07
0.00638033
-0.000198452
-0.0506089
-0.000275544
-1.55874e-06
0.0423163
0.00410991
-0.0136743
3.48917e-07
5.63086e-06
-2.07025e-05
0.0475056
0.0292836
-0.000325407
-9.04876e-07
-0.000759066
-0.000737015
-0.416017
1.10521e-05
0.0247258
-1.47595e-05
-0.0124397
0.000164575
0.00166389
0.000193771
2.92327e-06
3.45103e-05
1.19208e-06
2.8013e-06
3.83685e-05
-2.98644e-06
5.12429e-07
-0.000784086
0.00770827
-3.25863e-05
0.000384172
3.44838e-05
0.0644826
0.0161008
-4.36748e-05
0.00014191
-0.00870188
-0.00240934
-0.0294989
3.45589e-07
0.0224503
-0.00121442
-1.05025
-1.37663e-07
-0.0272759
-0.0333462
-0.00272753
-1.41473e-06
-6.73246e-10
-1.1505e-05
5.93474e-05
-1.61943e-05
0.00022327
0.00942842
-2.55118e-05
-0.0147238
-9.84937e-08
-0.595273
0.000139887
-0.0228035
0.0447578
0.000110333
2.52023e-06
-0.0314061
-3.16092e-07
7.92506e-06
2.6189e-05
-1.73056e-05
0.0127361
3.17012e-05
0.012279
1.31822e-06
0.069337
1.18705
6.2639e-05
4.47816e-06
-2.18628e-07
0.00299123
-0.0587726
1.64106e-05
0.000100487
-4.37672e-06
0.0114857
0.000156841
0.0984495
0.289207
-0.00183352
5.26925e-06
0.00202472
0.000884662
0.000106916
0.0115675
0.00211833
-1.07573e-07
-0.0204714
0.0114492
0.000310442
-9.22488e-07
0.00133451
0.000101753
0.000435533
-0.00187338
0.0308514
-9.40511e-05
7.96628e-07
-0.017039
-0.00701692
-0.018208
0.000460463
-6.89311e-05
0.0156209
0.00319143
-4.92008e-07
0.644009
4.94264e-06
0.00014529
-9.37114e-05
0.0794517
-0.0586205
2.01222e-06
-0.00369861
2.26923e-06
-0.00804684
0.0187929
0.000206918
-4.86095e-06
0.000161589
9.45646e-07
-1.04462e-07
-1.88133
0.0212443
-3.76282e-06
0.00370489
-0.00032396
-7.58262e-05
1.06024e-05
-0.000417404
8.93292e-07
0.952639
0.073663
1.90053e-07
7.77898e-06
-6.47106e-08
-5.31072e-06
-1.98932e-06
-0.00188716
-3.65728e-05
-0.0323979
0.0210677
-3.50828e-05
0.00014981
-3.10183e-08
0.00486197
0.0119398
-1.04052e-05
-8.38605e-07
0.00150126
4.18249e-05
-2.49265e-07
0.00401856
0.000181364
-2.3992e-06
0.000131188
-6.73924e-08
1.75783e-06
-0.00618173
0.000258367
-0.00139151
-7.6497e-05
-0.0198952
-0.0602316
-0.000264448
0.000164577
0.221437
2.26578
-0.0361595
-0.0422195
-0.000217142
-0.000941471
0.00843822
-4.08226e-05
-3.38159e-06
5.88373e-08
3.61836e-06
-1.71509e-07
2.7247e-05
-0.00117619
1.13871e-05
0.000593886
-1.35897e-05
-0.00762156
0.000813123
0.000627051
0.0412721
0.00113231
-8.92042e-06
-0.0221179
-12.0505
0.000450409
0.0330594
8.43618e-05
-0.000889139
-9.62859e-06
-3.01222e-05
1.59782e-07
0.000110073
-0.0396784
0.011263
0.00492212
0.0010772
5.23616e-06
0.000474208
-7.91281e-05
-0.00443511
-0.00587057
-6.43583e-07
0.575879
-1.05471
3.37336e-07
-0.0184314
0.000156948
6.94206e-05