/*--------------------------------*- C++ -*----------------------------------*\
| =========                 |                                                 |
| \\      /  F ield         | OpenFOAM: The Open Source CFD Toolbox           |
|  \\    /   O peration     | Version:  v2012                                 |
|   \\  /    A nd           | Website:  www.openfoam.com                      |
|    \\/     M anipulation  |                                                 |
\*---------------------------------------------------------------------------*/
FoamFile
{
    version     2.0;
    format      ascii;
    class       volScalarField;
    location    "300";
    object      k;
}
// * * * * * * * * * * * * * * * * * * * * * * * * * * * * * * * * * * * * * //

dimensions      [0 2 -2 0 0 0 0];


internalField   nonuniform List<scalar> 
14315
(
0.000155067
0.000195412
0.00014983
0.000152969
0.000154921
0.000144368
0.000141929
0.000151936
0.00634807
0.00014902
0.000147556
0.000162217
0.000139906
0.000146561
0.000142029
0.000147847
0.000142643
0.00941385
0.000141298
0.000148052
0.000163451
0.000148308
0.00016086
0.000147633
7.63373e-05
0.00014717
0.000184643
0.000149197
0.0001876
0.000135952
0.00016223
0.000137034
0.0262796
0.000170463
0.000151793
0.000136939
0.000139007
0.000151555
0.00016763
0.000150261
0.00481602
0.000146935
0.000160598
0.000174209
0.00017593
0.000154913
0.000149277
0.000148586
0.000148791
0.000160077
0.000138816
0.000174697
0.000139536
0.000143856
0.000139661
0.000151334
0.000173206
0.000146976
0.000147036
0.000743306
0.000143459
0.000154937
0.000160056
0.000141726
0.000141941
0.000141241
0.000150342
0.000161791
0.000152038
0.000136712
0.00014342
0.000142166
0.000142329
0.000149647
0.000141921
0.000154866
0.000142176
0.000162461
0.000136634
0.000175465
0.000155181
0.0280643
0.000148766
0.000142615
0.000139973
0.0368772
0.00017606
0.000142823
0.000142773
0.000143996
0.000167744
0.00932403
0.000117837
0.000148709
0.000160971
0.000153055
0.000139924
0.000139943
0.000160455
0.000146765
0.000144918
0.000158875
0.000164166
0.000157692
0.000143319
0.00014291
0.000150092
0.000158338
0.000153306
0.000170781
0.000164268
0.000169624
0.000157116
0.000183267
0.000148713
0.000173887
0.00016228
0.000152058
0.00708561
0.0327716
0.000148701
0.000142746
0.000140978
0.000168133
0.000181793
0.000143298
0.0393053
0.000157873
0.000147758
0.000145043
0.000167227
0.000705228
0.02663
0.0205358
0.000154831
0.000147716
0.00812311
0.000182572
9.54332e-05
0.0285958
0.000177951
0.000182276
0.000136044
0.000520265
0.0100557
0.000149409
0.000156616
0.000146953
0.000166112
0.000170293
0.000144908
0.000131277
0.000143151
0.000175925
0.000143835
0.000153077
0.000152485
0.000168559
0.000151479
0.00017476
0.000155005
0.000147787
0.0178529
0.000165955
0.000163195
0.0419008
0.000167914
0.000153323
0.000160599
0.000144331
0.00747532
0.0100443
0.000167443
0.000158348
0.00013166
0.0203333
0.000161214
0.000143239
0.000172326
0.000179246
0.0297586
0.000168156
0.000144803
0.000163704
0.000162912
0.0251073
0.000164879
0.000164538
0.000149268
0.000166335
0.000152597
0.0277165
0.000186357
0.000131241
0.000139506
0.00015411
0.0203752
0.000145202
0.000155183
0.000166614
0.0259407
0.000145051
0.000161887
0.000149098
0.000152988
0.00014407
0.000152309
0.000174602
0.000141595
0.000131564
0.000148881
0.000149945
0.000177501
0.00015319
0.0257957
0.000156497
0.000181125
0.000145057
0.000144784
0.000167122
0.000183997
0.000151121
0.000186849
0.0235007
0.000162213
0.000153664
0.000162338
0.000165265
0.000140682
0.000154043
0.000154163
0.00777217
0.000148816
0.000144742
0.000153312
0.00015763
0.000173361
0.000158491
0.000158005
0.00827521
0.04919
0.000162386
0.000141385
0.0174916
0.00018553
0.000142563
0.0497197
0.000142808
0.000140411
0.000141633
0.00015239
0.000143401
0.00421947
0.000139186
0.000152324
0.00829249
0.0106366
0.000174224
0.00901458
0.000148873
0.000165439
0.00015398
0.0001563
0.00650915
0.000156419
0.000178037
0.000167702
0.028627
0.000162444
0.000161288
0.000186594
0.000145889
0.000151514
0.000142586
0.000170184
0.000142419
0.000180553
0.000131167
0.000153076
0.00016199
0.00014173
0.000166324
0.000148984
0.000160525
0.000154554
0.00946205
0.000114297
0.00015701
0.000140234
0.000143749
0.000178828
0.000145097
0.000169554
0.000181036
0.000135919
0.000147923
0.000142179
0.0109733
0.000145733
0.0200967
0.000169759
0.000146342
0.000146745
0.000161403
0.000153132
0.000143233
0.000158292
0.000169322
0.000156238
0.000160315
0.000136319
0.000136373
0.000165007
0.000169474
0.000164484
0.00640021
0.0336869
0.000165305
0.000166202
0.0106031
0.000148576
0.000146528
5.70905e-05
0.000145569
0.00014399
0.000157622
0.000181933
0.000141838
0.0204707
0.000142095
0.0122562
0.000187462
0.00839806
0.000197226
0.0036897
0.000149235
0.000157366
0.000154376
8.48975e-05
0.000153622
0.000160906
0.00220338
0.00986177
0.000152905
0.000146669
0.0103023
0.0165956
0.00623381
0.000138666
0.0001536
0.000712468
0.000193889
0.000147913
0.000140648
0.000160307
0.00017756
0.000162079
0.000100067
0.00762585
0.000142812
0.000161077
0.0168618
0.000137721
0.000143362
0.000137675
0.000156948
0.000169009
0.000157416
0.000159141
0.00014177
0.000186345
0.0140627
0.000161147
0.00836826
0.000174236
0.000147524
0.000178281
0.0128419
0.000161578
0.000145392
0.000167688
0.000149008
0.000181289
0.000157838
0.000140599
0.000171811
0.000145508
0.000157559
0.00346997
0.000174185
0.000204049
0.000165817
0.000142045
0.000169435
0.000155627
0.000178733
0.000148741
0.000157859
0.000155597
0.000167011
0.000142307
0.000142778
0.00018909
0.000154005
0.00370166
0.000186289
0.00951964
0.000169296
0.000170263
0.000161176
0.000136907
0.000147755
0.000139682
0.00873567
0.000164855
0.000165008
0.000167323
0.000173642
0.00015743
0.0198039
0.000141874
0.00375493
0.000175972
0.000146413
0.000132983
0.000164581
0.000169318
0.000150213
0.000146686
0.000207764
0.000187544
0.000153506
0.000143154
0.000182495
0.000159393
0.000136964
0.00515493
0.000177675
0.000168112
0.000144384
0.000182393
0.000135967
0.000145075
0.000188105
0.000144584
0.000178398
0.00013602
0.000135988
0.00014511
0.000144221
0.00015695
0.000143093
0.0302749
0.020515
0.00013611
0.0243782
0.000131206
0.000176667
0.000158657
0.0001676
0.0174675
0.000172896
0.000174106
0.00978105
0.000182644
0.00013145
0.00843898
0.00103995
0.000167347
0.000146476
0.000178681
0.000165751
0.000149094
0.000153717
0.000141288
0.00015817
0.000174572
0.0200383
0.000149768
0.000146779
0.000150655
0.000153626
0.0315336
0.000163018
0.00015328
0.0185107
0.000180035
0.000149395
0.000182333
0.000157829
0.00122313
0.000171245
0.000144141
0.0001648
0.00012917
0.000170871
0.000180204
0.000151492
0.000157577
0.000161698
0.0235754
0.000143592
0.0583589
0.000145009
0.000183721
0.000142931
0.000132764
0.000159584
0.000157496
0.000141722
0.000181875
0.000151672
0.0001544
0.034757
0.000147731
0.000169401
0.000165192
0.000193807
0.000149231
0.000176226
0.00015534
0.0067868
0.000185621
0.00814483
0.0101932
0.000162301
0.000160284
0.000172196
0.0124442
0.000173205
0.000161419
7.29673e-05
0.00014679
0.000138601
0.000148604
0.000149384
0.000157432
0.00013654
0.0068446
0.000136603
0.000152785
0.0130032
0.0160047
0.000142692
0.000148283
0.000142298
0.000147963
0.000144299
0.00883698
0.000148651
0.000148084
0.000144438
0.000157864
0.000141684
0.000177195
0.000153376
0.000147199
0.000160752
0.000149793
0.00014792
0.000151696
0.000163948
0.000167821
2.65577e-05
0.000200189
0.00014329
0.000152642
0.000178323
0.0306238
0.000166549
0.000142304
0.000163516
0.000167737
0.000143729
0.000213781
0.000168304
0.000164145
0.00014633
0.000183371
0.0114284
0.000156042
0.000124042
0.000182651
0.000148338
0.000148986
0.00897877
0.000137185
3.89923e-05
0.000141408
0.0204742
0.000140972
0.00014715
0.000172176
0.00782026
0.0105711
0.0112145
0.000173615
0.000143193
0.00728949
0.000163398
0.00521778
0.000145182
0.000157634
0.000147971
0.000138314
0.000152963
0.000146962
0.000166549
0.000146129
0.000146515
0.000174212
0.000145987
0.000157303
0.000142272
0.000139821
0.000148549
0.000155427
0.0588718
0.000167938
0.00014791
0.00993424
0.000148143
0.000185352
0.00829479
0.000156899
0.000145751
0.00014807
0.000207549
0.000160894
0.000155827
0.0160649
0.000181068
0.000151882
0.0524999
0.000142253
0.000166875
0.000154277
0.00020042
0.000157939
0.000136112
0.000172967
0.000144482
0.00016064
0.000161718
0.000173745
0.00018262
0.000152975
0.000148902
0.000158691
0.000153945
4.42977e-05
0.000157587
0.0147014
0.000141262
0.000172488
0.000131947
0.00217065
0.000157098
0.000173055
0.000143277
0.0492361
0.000142689
0.000161654
0.0258277
0.000158482
0.000139367
0.0224062
0.000182308
0.000142469
0.000146405
0.000176815
0.00678458
0.00128817
0.00014327
0.00587052
0.000149687
0.000170772
0.000153002
0.0325246
0.000136182
0.000148896
0.000145466
0.000154382
0.000163817
0.000159169
0.0269607
0.000152307
0.000149126
0.000149693
0.00014858
0.00013252
0.011072
0.000152205
0.000163389
0.00015113
0.000139317
0.000150743
0.00983131
0.000179096
0.000108523
0.000140185
0.000152095
0.000144592
0.000152964
0.000150815
0.000179816
0.000132371
0.000146028
0.0111744
0.000195458
0.000136766
0.000145016
0.000139759
0.0103178
0.000139339
0.000147261
0.0286685
0.000152049
0.000146016
0.000174336
0.000149619
0.00014653
0.0107797
0.00020224
0.000158528
0.000164096
0.00015882
0.000155714
0.000172949
0.00586375
0.000144138
0.000174548
0.00018907
0.000178654
0.00017773
0.00506946
0.0104138
0.000142578
0.000157821
0.000170859
0.000164297
0.000145815
0.000132118
0.000167715
0.0252482
0.000148502
0.000153207
0.00017
0.0328998
0.000143313
0.000171567
0.000131263
0.000167365
0.000175
0.000147755
0.00898957
0.000204913
0.000151938
0.000155399
0.000139954
0.0340662
0.00289101
0.0192624
0.000160888
0.000168973
0.0104612
0.000136615
0.000142784
0.000175889
0.00138408
0.000152514
0.000136439
0.000153524
0.000136836
0.000141803
0.000140644
0.0102192
0.000135601
0.000151339
0.0092582
0.000147355
0.00018744
0.000138722
0.00015675
0.000145384
0.00013564
0.000175134
0.00874017
0.000148611
0.000144354
0.00014479
0.000207608
0.000142739
0.00014188
0.000160808
0.0001291
0.00933401
0.000136897
0.00018928
0.000142433
0.000140303
0.000170245
2.30966e-05
0.000338669
0.000180044
0.000139856
0.000143125
0.000140012
5.18397e-05
0.000145591
0.000169854
0.000151156
0.000140245
0.00544821
0.000148133
0.000157735
0.00685565
0.000161433
0.000140261
0.000166521
0.000173996
0.00564958
0.000152581
0.000162466
0.000154119
0.000940007
0.000164422
0.00015277
0.000173709
0.000156871
0.000157866
0.000158133
0.000153094
1.14213e-05
0.000188218
0.000186653
0.000154095
0.000147858
0.0305399
0.000173598
0.000157051
0.00679002
0.000178074
0.000155111
0.000136842
0.000167169
0.000158503
0.000142053
0.000145149
0.000139751
0.000158293
0.000143744
0.000179861
0.000166424
0.00015321
0.000148707
0.00675287
0.000148606
0.0107167
0.000145709
0.000159783
0.000139997
0.000149826
0.000171386
0.00015176
0.000167481
0.000155811
0.000175654
0.0531299
0.000142972
0.00015662
0.00015487
0.000167156
0.0100852
0.000148375
0.000170213
0.000142254
0.000145552
0.000279021
0.019421
0.000168894
0.000180557
0.000141156
0.0140689
0.0437278
0.000129807
0.000177209
0.000142332
0.0156153
1.79017e-05
0.000142482
0.000143844
0.000154423
0.000169773
0.0344368
0.000149265
0.000155612
0.000143979
0.000163946
0.000168797
3.58188e-05
0.000185611
0.000157017
0.0116849
0.000150139
0.0552789
0.000141225
0.000178962
0.000150737
0.000143728
0.000171937
0.000153966
0.000237453
0.000140349
0.00015001
0.000166312
0.000139666
0.000139409
0.000593881
0.000156121
0.000142032
0.000139472
0.000153907
0.000143282
0.000171302
0.000144293
0.00018546
0.000141313
0.000141643
0.000140252
0.000168491
0.00016686
0.000144327
0.000188666
0.000203474
0.000155944
0.0499039
0.000146909
0.000132776
0.000153455
0.000142791
0.000152957
0.000155736
0.000185939
5.31299e-05
0.0355842
0.0234798
0.0477964
0.000157891
0.000170879
0.000149897
0.0449923
0.0198055
0.000142096
0.000148396
0.0229944
0.000156819
0.000135146
0.0255981
0.000170683
0.00020717
0.000143237
0.000175428
2.45778e-05
0.000170968
0.000146248
0.0001124
0.000139505
0.000144605
0.00015906
0.000158239
0.00016615
0.000136777
0.000140033
0.00879536
0.000157411
0.000131414
0.000149932
0.000156406
0.000156561
0.000137203
0.000154942
0.0204526
0.000182214
0.000181274
0.000143845
0.000150163
0.000144041
0.00119473
0.000143265
0.000144129
0.000160367
0.000151533
0.000163703
0.0187153
0.000147687
0.000143768
0.000156372
0.000131527
0.000198758
0.000152707
0.000160577
0.00015663
0.000377061
0.000152603
0.000170185
0.000116681
0.000140105
0.000159142
0.000170729
0.000183398
0.000172309
0.000140889
0.00019033
0.000157841
0.000155324
0.000154798
0.000149357
0.00016481
0.000185365
0.000174726
0.00863842
0.000160681
0.000139889
0.0105153
0.000144362
0.000149574
0.000141084
0.000176746
0.000154884
0.000141182
0.000153167
0.00014184
0.00688354
4.84555e-05
0.000144894
0.000137465
0.000160228
0.000138328
0.000141138
0.000176756
0.000171535
0.00015852
0.000140883
0.000149333
0.000158999
0.0176436
0.000170257
0.000187472
0.000166923
0.000159881
0.00517714
0.000152151
0.00014398
0.000163836
0.000143105
0.000153903
0.000149499
0.000151792
0.000156335
0.000152678
0.000121104
0.000155507
0.0109305
0.000185329
0.0314139
0.000149317
0.000179197
0.000154458
0.000153306
0.000182865
0.0108075
0.0109273
0.000153575
0.000152527
0.000180981
0.000163101
0.00017316
0.000142925
0.000146905
0.00014493
0.000151418
0.000153803
0.000148359
0.019156
0.0135724
0.000173346
0.000155089
0.000148832
0.000172325
0.000142421
0.000143348
0.000163666
0.000109677
0.0329077
0.000152611
0.0201485
0.000167455
0.000146592
0.022284
0.000182411
0.000166985
0.000153214
0.000175456
0.000138949
0.000147667
0.000177322
0.00014369
0.000138911
0.0105964
0.000179171
0.000156924
0.000151378
0.00012928
0.000133601
0.000149457
0.000147007
0.0006191
9.90751e-05
0.000140885
0.000163187
0.000143172
0.00863405
0.000157235
0.000134957
0.00915205
0.0221086
0.000158665
0.000149545
0.000166985
0.000164565
0.000168209
0.0061519
0.000145007
0.000144095
0.000141508
0.000182526
0.000150989
0.00942108
0.000208161
0.000138383
0.000146242
0.000181917
0.000140498
0.000138473
0.0187574
0.000135391
0.000157093
0.000158041
0.00777069
0.000139026
0.00653866
0.000140741
0.000141103
0.000143164
0.0210462
0.000181064
0.000144727
0.00014113
0.00897018
0.000174984
0.000146578
0.000171408
0.000110361
0.00015832
0.000756652
0.00015565
0.000143613
0.000138437
0.0130354
0.000153073
0.000138705
0.000142313
0.000149778
0.000137247
0.000143789
0.000152629
0.000148447
0.000150682
0.000157612
0.000153017
0.000258528
0.000146296
0.000158136
0.000163738
0.000165291
0.000157708
0.000148876
0.000148104
0.000157457
0.0178051
0.000141698
0.000171323
0.0221252
0.000170539
9.89525e-05
0.000134366
0.00954854
0.00014907
0.000156751
0.000166475
0.000191058
0.000147927
0.00016832
0.000147457
0.000166424
0.000158422
0.000173493
0.000535801
0.0205039
0.000174059
0.000171743
0.00013867
0.000142078
0.000152263
0.000153291
0.000202124
0.000153199
0.0439141
0.000148769
0.01267
0.000143563
0.00014042
0.00016896
0.00016264
0.000146752
0.000141119
0.000151291
0.000143026
0.000144123
0.000207859
0.000150224
0.000156782
0.00014543
0.000148638
0.0198503
0.000101851
0.000166079
0.00014178
0.00470117
0.000151494
0.000144683
0.00015154
0.000141836
0.000147462
0.000181647
0.000141086
0.000148919
0.000148906
0.000142567
0.000182441
0.000138827
0.011032
0.00970954
0.000147605
0.000143413
0.000144546
0.000155162
0.000158801
0.00016348
0.000133792
0.000138207
0.000156683
0.0170507
0.000149575
0.00869
0.000148493
0.000145671
0.0251247
5.44132e-05
0.000156773
0.000131243
0.00952689
0.000170946
0.000160951
0.0106332
0.000157573
0.000140792
0.0094814
0.000173685
0.00014002
0.000146252
0.0100489
0.000146667
0.000140938
0.000174192
0.00318706
0.000175974
0.00016019
0.000149569
0.000135694
0.000151165
0.000146591
0.000155102
0.000171624
0.000170617
0.00014946
0.000173191
0.000162993
0.000150327
0.000212109
0.000149066
0.00266577
0.000160632
0.0214354
0.000195359
0.00939777
0.000144416
0.000154967
0.000165341
0.000152897
0.000141182
0.000143905
0.0112285
0.00017643
0.000174944
0.000146591
0.000148611
0.000180258
0.0078929
0.000158886
0.00015594
0.000148877
0.000151569
0.00952958
0.000184736
0.000147706
0.00816269
0.0130665
0.000148308
0.000146246
0.000170198
0.000138793
0.000136017
0.000133666
0.000164974
0.0449654
0.00013738
0.000141612
0.000152766
0.000142278
0.000137289
0.000144613
0.000167556
0.000205861
0.000163921
0.000108471
0.00014077
0.00261042
0.000701364
0.000176858
1.05304e-05
6.322e-05
0.000142157
0.000153846
0.000207247
0.00013211
0.000165294
0.000157829
0.000146398
0.000163642
0.000139358
0.000142018
0.000139997
0.000154135
0.000146681
0.000183554
0.000165345
0.00013781
0.0131806
0.00014466
0.000154969
5.22687e-05
0.000158644
0.000139686
0.000185789
6.31829e-05
0.000140696
0.00160626
0.000128
7.16943e-05
0.000191395
0.000151743
0.000172195
0.000171794
0.000174554
0.00017865
0.000155779
0.000184246
0.000159494
0.00014377
0.000147416
0.000168598
0.000165397
0.0001495
0.000139761
0.00013844
0.000158144
0.000157275
0.000170514
0.00015232
0.000138407
0.000167288
0.000155657
0.000146192
0.000177112
0.00019362
0.000155681
0.000166331
0.000153553
0.000152014
0.000154249
0.00015344
0.0001522
0.000143839
0.000201553
0.000142439
0.000160562
0.000160086
0.0056468
0.000176497
0.0281788
0.000137636
0.000183919
0.000158885
0.000144964
0.00019048
0.000140849
3.4863e-05
0.000140071
0.000166742
0.000148343
0.000143471
0.000148692
0.000164592
0.00015322
0.0145478
0.000146438
0.000172413
0.000134054
0.000157751
0.0109277
0.000204736
0.0203943
0.000152124
0.00018395
0.000186252
0.000143706
0.000159473
0.000154378
0.000149426
0.000152837
0.0297205
0.000185311
0.0231381
0.000160701
0.000156107
0.000170093
0.000176609
0.000148583
0.000136681
0.000162613
0.000168445
0.000143031
0.000167007
0.000146134
0.000144345
0.000168615
0.000157233
0.0588346
0.000190486
0.00802122
0.000148145
0.000146145
0.000173546
0.000144772
0.000147925
0.000185764
0.000148923
0.000186577
0.000147436
0.000184816
0.000142586
0.00014679
0.000142204
0.000148472
0.000162056
0.000139789
0.000724783
0.00014009
0.000168702
0.000138045
0.000160973
0.00093524
0.000182526
0.000176326
0.000176743
0.000523299
0.000111242
6.81485e-05
0.0346096
0.000184365
0.000180994
0.000151452
0.000146316
0.000147928
0.000147868
0.000178956
0.000150276
0.0102702
0.000153421
0.000159484
0.000164588
0.00015362
0.000143367
0.000137809
0.000142458
0.00617456
0.000175058
0.000165285
0.000163473
0.000148769
0.000157901
0.000182444
0.000183274
0.000144722
0.000141508
0.000131113
0.000161702
0.000203763
0.000143568
0.000181264
0.000151848
0.000164828
0.0313424
0.000160612
0.00018844
0.000183568
0.000163969
0.00227383
0.000143522
2.51534e-05
0.000183475
0.0107148
0.000147764
0.00014287
0.000146983
0.00779343
0.000132477
0.00194363
0.000171676
0.000153723
0.000166197
0.000163531
0.0117052
0.000146681
0.000148414
0.000152948
0.000167311
0.000146869
0.000144658
0.0195255
0.000180192
0.000106081
0.000165623
0.000147036
0.000154726
8.22828e-05
0.00402569
0.000146463
0.00014933
0.000210761
0.00706176
0.000141571
0.000146609
0.000148486
0.000145217
0.000143498
0.000154343
0.000153451
0.000195998
0.000148186
0.000147026
0.000178735
0.0593508
0.000146937
0.000144967
0.00769206
0.00902349
0.000149431
0.000141863
6.83635e-05
0.000164723
0.000150735
0.000143424
0.000175429
0.000144699
0.000167183
0.000150474
0.000161097
0.000179334
0.0148023
0.000167991
0.00014705
0.000140184
0.000134657
0.0001827
0.000138497
0.000152361
0.000139952
0.000166197
0.000166149
0.0111538
0.0110439
0.000164953
0.000152609
0.000142245
9.77189e-05
0.00013845
7.10606e-05
0.000174207
0.000138161
0.000147297
0.000143235
0.000159595
0.00016919
0.000140755
0.000185545
0.000106692
0.000178248
0.00015427
0.000154427
0.000147356
0.000167495
0.000170598
0.000158524
0.000138949
0.000147672
0.00016328
0.000139619
0.000120281
0.000140749
0.0104727
0.000144294
0.00018698
0.000158309
0.000154354
0.0259792
0.000154416
0.000146411
0.000173442
0.000152657
0.000104753
0.0106601
0.00549793
0.000153305
0.0087248
0.000142117
0.00015802
0.0105402
7.62624e-05
0.0208918
0.000142782
0.000168188
0.00014957
0.000141453
0.000143149
0.000151136
0.000163045
0.000158768
0.0596623
0.000169472
0.000205094
0.000182485
0.000173494
0.000143959
0.000157243
0.000172828
0.00190955
0.000153388
0.000135314
0.000156089
0.000137464
0.000164376
0.000138872
0.000138434
0.000149055
0.00019184
0.000144284
0.000158475
0.000146974
0.000134642
0.000150608
0.000179662
0.000160189
0.000153211
0.00776317
0.000174192
0.000154186
0.000151415
0.000164545
0.00124531
0.000137258
0.000140836
0.000160005
0.000125338
0.000140829
0.000164151
0.000147452
0.000158359
0.00847153
0.000150498
0.000160808
0.000175982
0.000147264
0.00338762
0.000155101
0.0100728
0.000177658
0.00015366
0.000178399
0.00737984
0.000170448
0.000153195
0.00015104
0.000147616
0.000142776
0.000146195
0.000172782
0.000148808
0.000139391
0.000141332
0.000138309
0.000139931
0.00394858
0.000164178
0.000160837
0.000155087
0.000175371
0.000162838
0.00429993
0.000137535
0.000168652
0.0171448
0.000160148
0.000161009
0.0244749
0.000149033
0.000146447
0.000144825
0.000146582
0.000167906
0.00618738
0.000144724
0.00015209
0.000156447
0.000159827
0.000155683
0.00015483
0.000166383
0.00871173
0.000172235
0.000145995
0.0415136
0.000145937
0.000147334
0.000137468
0.000148229
0.000147557
0.000177122
0.000138969
0.000146518
0.00015488
0.000137347
0.000164676
0.000145805
0.0066527
0.00116149
0.0240145
0.000185349
0.000158981
0.000174035
0.0131166
0.000152817
0.000166389
0.000148737
0.000173969
0.0208041
0.0001498
0.000181272
0.000158412
0.000166347
0.00013734
0.000143155
0.000161315
0.000182985
0.000154636
0.000175365
0.000155426
0.00222322
0.000147415
0.00598801
0.000131765
0.00855638
0.00015995
0.000137826
0.0001479
0.000167406
0.0334832
0.0109327
0.000154302
0.018768
0.000152602
0.000176541
0.0244148
0.000156194
0.000156825
0.000137087
0.000160748
0.0457488
0.0218134
0.000142909
0.010233
0.000167534
0.0215995
0.000167791
0.000145061
0.0182697
0.000149247
0.000153479
0.000147968
0.000142662
0.000146146
0.000172379
0.000147188
0.000152525
0.00014386
0.000173613
0.000154058
0.000191236
0.000151098
0.000149599
0.000138222
0.000183641
0.000159529
0.00830439
0.000150245
0.000137609
0.000189839
0.000151267
0.000150729
0.000146302
0.000163339
0.000143802
0.000159479
0.000143385
0.0227815
0.000142977
0.000179014
7.88562e-05
0.00414073
0.00015032
0.000138139
0.00014976
0.0458425
0.000148691
0.000157275
0.0368027
0.000138175
0.000153092
0.000141818
0.0163147
0.000149972
0.0102625
0.000156055
0.000154014
0.000159996
0.00014053
0.0362729
0.000170946
0.0378512
0.00231382
0.0111407
0.0314465
0.000154962
0.000147909
0.000160178
0.00387035
0.000168858
0.0196924
0.000165752
0.0109018
0.000154715
0.000147534
0.0185009
0.000176192
0.0203317
0.000150039
0.000163693
0.0108767
0.000146896
0.000152027
0.000147213
0.000165266
0.000172233
0.000139943
0.000150281
0.000174647
0.0129624
0.000150138
0.00017073
0.0146773
0.000170465
0.000146469
0.000187497
0.0191122
0.000144766
0.000171338
0.000155961
0.00017975
0.000199021
0.00014645
0.000157551
0.00015558
0.000155062
0.00014742
0.000146523
0.000150916
0.000146465
0.0352971
0.000143154
0.0110697
0.000142225
9.40658e-05
0.0001573
0.0113516
0.000153464
0.000145743
0.000169454
0.000125334
0.000181245
0.0211342
0.000186154
0.000195874
0.000160698
0.000173877
0.000138646
0.000150358
0.00796816
0.00996369
0.000140816
0.000157481
0.000135109
0.0234366
0.000173026
0.000137163
0.000143289
0.00016992
0.000141559
0.000148609
0.00013742
0.000139222
0.000164789
0.000147762
0.000165774
0.000176085
0.000152514
0.000166403
0.000161119
0.000145658
0.00498315
0.00699755
0.000148372
0.000137424
0.000149965
0.000136329
0.000152646
0.0391365
0.000146441
0.000111428
0.0143205
0.000140044
0.000135996
0.000147235
0.000150961
0.00911066
0.000509034
0.000140055
0.000132856
0.000154555
0.000151024
0.00017088
0.000147202
0.00581978
0.000143817
0.000147103
0.0119643
0.000159476
0.000147625
0.000132964
0.000157938
0.000133129
0.0015333
0.000185341
0.00014707
0.000146902
0.00754706
0.000408965
0.0233599
0.000151028
0.000146282
0.00016587
0.000178174
0.000144128
0.000202506
0.00013333
0.000150807
0.000155239
0.000149759
7.88137e-05
0.00015531
0.0219249
0.000177692
0.000506424
0.000162439
0.000151633
0.0571948
0.000157874
0.000175053
0.000156446
0.000147608
0.000144595
0.000169642
0.030764
0.000158392
0.000151018
0.000179534
0.000146152
0.000146217
0.000146049
0.000151631
0.0416092
0.00522565
0.000182703
0.00014586
0.000143415
0.0124471
0.00014923
0.00016994
0.000145979
0.000185641
0.000156395
0.0373485
0.00017924
0.0072239
0.000154234
0.000163563
0.000162268
0.000152191
0.000147722
0.040271
0.00229635
0.000168854
0.00018065
0.000142608
0.000138991
0.000238802
0.000140171
0.0310595
8.92203e-05
0.000173265
0.0115852
0.000157771
6.1746e-05
0.000143618
0.000138138
0.0147055
0.000150294
0.000144923
0.000128195
7.66692e-05
0.000144851
0.000150621
0.000156838
6.61474e-05
0.000151658
0.000181697
0.000166233
0.000146358
0.000184923
0.000157082
0.00016266
0.000158763
0.000145847
0.000161661
8.53602e-05
0.000178045
0.000153565
0.000163115
0.0347535
0.000147864
0.000148749
0.000146943
0.000158562
0.00856781
0.0218635
0.00015252
0.0200363
0.0115526
0.00015445
0.000182807
0.000149227
0.000185287
0.000148516
0.000144327
0.00995759
0.0233296
0.0329651
0.037411
0.000154583
0.000137263
0.000148963
0.000145962
0.0123772
0.000135691
0.00242025
0.000939957
0.000148156
0.000142834
0.00016176
0.000152893
0.0118305
0.000142886
0.000147132
0.000157775
0.0546214
0.000135344
0.000146141
0.000160947
0.000138288
0.000160057
0.000172745
0.000181566
0.000138532
0.000147149
0.000142616
0.0105102
0.000138005
0.000152407
0.000152183
0.000172208
0.0441757
0.000142581
0.000136702
0.000154967
0.000167612
0.000203815
0.000166398
0.000153338
0.000134381
0.000146698
0.000137141
0.000151346
0.000183526
0.00742629
0.000137923
0.0397293
0.00345617
0.000185882
0.000172351
0.00429778
0.000184539
0.00570082
0.000157177
0.000142599
0.000177441
0.000150724
0.0001567
0.00459934
0.0106565
0.000141337
0.000170445
0.000156523
0.000138201
0.000174602
0.000152769
0.000152472
0.00017838
0.00017739
0.000153806
0.00981143
0.000175504
0.000151008
0.000146778
3.59354e-05
0.000145776
0.00278826
0.000186414
0.000146473
0.000151098
0.00017903
0.000192438
0.000142523
0.000149926
0.000143343
0.000179942
0.000165936
0.000152489
0.0116542
0.000179072
0.00014818
0.000192113
0.0109242
0.000160059
0.000153047
0.000145905
0.000161146
0.000112239
0.000156046
0.0148524
0.00552615
0.000168643
0.000161731
0.000184715
0.000177628
7.25127e-05
0.000142314
0.000176143
0.0223016
0.000151461
0.0146715
0.00859336
9.05192e-05
0.000181806
4.51138e-05
0.000165472
0.000162295
0.000186356
0.000446316
0.000165025
0.000146261
0.000158005
0.000133536
0.000195558
0.00015384
0.000140003
0.0528513
0.000161183
0.00275951
0.000182304
0.000151016
8.46048e-05
0.00895576
0.010711
0.000146351
0.000151956
0.000156162
0.00842913
0.0021334
7.65629e-05
0.000148627
0.000175438
0.000174717
0.00049154
0.000148996
0.0119474
0.000147833
0.00218557
0.000172038
0.0593695
0.000156952
0.00014679
0.000155822
0.000144795
0.000147474
0.000150237
0.000145821
0.000142093
0.000183174
0.000191675
0.000151446
0.000167836
0.000151288
0.00018373
0.000117067
0.000160412
0.000154683
0.0103146
0.000146975
0.000311973
0.00014419
0.000184742
0.000175645
0.0113237
0.000143268
0.00166271
0.00904516
0.000174543
0.000146172
0.000140522
0.000149071
0.000159594
0.000147497
0.000180027
0.000180046
0.000139474
0.00797148
0.000141162
0.0129473
0.000155637
0.000189602
0.0111395
0.00015264
0.000147551
0.00256552
0.000144639
0.000137645
0.000155651
0.000145159
0.000175723
0.000151397
0.000176918
0.000147432
0.000184275
0.0109436
0.000163028
0.000145739
0.000143189
0.000182496
0.000468318
0.000154673
0.000156718
0.000147269
0.000178387
0.000154805
0.0115231
0.0118638
0.000185306
0.00016254
0.000175249
0.0001672
0.000156943
0.0101327
0.00018093
0.000137087
0.0362585
2.31507e-05
0.000164507
0.000144219
0.000176702
0.000156311
0.000168268
0.0174175
0.000187775
0.00015105
0.000144775
0.0117698
0.00906484
0.000161653
0.000174034
0.000158188
0.0109316
0.0174874
0.000143462
0.0115696
0.000162257
0.000158068
0.000154668
0.00124867
0.0130148
0.000145411
0.0515907
0.000148657
0.000115657
0.0164961
0.000157741
0.000162556
0.000164979
0.000144012
0.000142296
0.00815886
0.00221358
0.000148867
0.000175755
0.000170073
0.000162236
0.000150075
0.000177127
0.000151554
0.0122626
0.000183894
0.000141929
0.000157052
0.000142826
0.000154962
0.000137455
0.00017986
0.000153905
0.00725382
0.000183354
0.000166574
0.000166114
0.00013599
0.000181211
0.00018385
0.000136345
0.000152051
0.000174439
0.000157419
0.000138243
0.000105944
0.000147053
0.000148251
0.00017018
0.000140838
0.000147695
0.000186033
0.000144026
0.000182288
0.000170818
0.000344206
0.00461361
0.000185465
0.000167075
0.00874347
0.0107406
0.00707911
0.00018598
0.000162148
0.00659216
0.000168929
0.000151519
0.000147376
0.000142459
0.000146822
0.000160056
0.000149833
0.000108833
0.000150768
0.000168379
0.000161565
0.0278158
0.000169511
0.000167366
0.0115002
0.000178933
0.000148731
0.000185475
0.0073983
0.000172421
0.000179707
0.00016056
0.000184581
0.000151445
0.000164264
0.000138227
0.000164602
0.000184659
0.000185411
0.000177672
0.0001733
0.000151402
0.00016097
0.000152231
0.000154754
0.000186325
0.000166425
0.000112284
0.0106412
0.000143602
0.000177782
0.000166395
0.00017074
0.000148227
0.000146326
0.000172988
0.0134732
0.000184441
0.000172871
0.000144912
0.000180946
0.000141601
0.000168409
0.000179158
0.0101145
0.00832647
0.0001438
4.23371e-05
0.0311415
0.000172577
0.000140172
0.000178484
0.000166382
0.000151922
0.000154323
3.60694e-05
0.000142843
0.000160272
0.0108772
0.00014371
0.000151239
0.00015478
0.0328495
0.000140798
0.000207736
0.000186377
0.000152042