/*--------------------------------*- C++ -*----------------------------------*\
| =========                 |                                                 |
| \\      /  F ield         | OpenFOAM: The Open Source CFD Toolbox           |
|  \\    /   O peration     | Version:  v2012                                 |
|   \\  /    A nd           | Website:  www.openfoam.com                      |
|    \\/     M anipulation  |                                                 |
\*---------------------------------------------------------------------------*/
FoamFile
{
    version     2.0;
    format      ascii;
    class       surfaceScalarField;
    location    "300";
    object      phi;
}
// * * * * * * * * * * * * * * * * * * * * * * * * * * * * * * * * * * * * * //

dimensions      [0 3 -1 0 0 0 0];
oriented        oriented;


internalField   nonuniform List<scalar> 
21240
(
-0.358365
0.568482
-0.210117
-0.0452847
0.157273
-0.111988
-0.160443
-0.344766
0.505209
0.251829
-0.18173
-0.0700992
-0.0915391
0.25048
-0.15894
-0.258345
-0.214598
0.472943
0.616444
-0.481873
-0.134571
-0.253328
-0.118911
0.372238
0.0454121
-0.0669341
0.0215219
0.57024
-0.477314
-0.0929255
-0.64092
0.374015
0.266905
0.387111
0.0236086
-0.41072
0.192776
-0.0233115
-0.169464
0.141884
0.236444
-0.378328
0.49981
0.116634
0.0168784
-0.347344
0.330466
-0.385661
0.535852
-0.150191
0.0371152
-0.0318699
-0.00524528
0.411098
-0.56954
0.158442
0.28139
-0.264511
0.0069517
0.14537
-0.152321
0.0773025
-0.407662
0.330359
-0.669816
0.476359
0.193457
-0.309736
-0.331184
0.0442997
0.047808
-0.0921077
0.322187
-0.058083
-0.264104
0.172137
-0.0620314
-0.110106
0.423153
0.147087
0.155591
0.0165456
-0.574418
0.616966
-0.0425474
-0.053236
0.153103
-0.0998668
0.628688
-0.165359
-0.463329
-0.00253868
0.00527982
-0.00274114
0.626476
-0.454398
-0.172078
-0.0347626
0.242123
-0.207361
0.104041
0.524647
0.410536
0.146358
-0.556894
-0.300893
0.266131
-0.740266
0.392074
0.348193
-0.188873
0.282211
-0.0933383
0.0718958
-0.0264837
-0.184687
-0.134248
0.318935
0.0124249
0.172915
-0.18534
-0.109208
-0.0186636
0.127871
0.240179
-0.138506
-0.101672
0.29417
-0.162214
-0.131956
0.352425
-0.512868
0.579543
-0.156389
0.456751
-0.20888
-0.247872
0.23475
-0.222326
-0.160095
0.570631
0.00130788
-0.119832
0.118524
-0.697919
0.375993
0.321927
0.391976
-0.565324
0.173348
-0.440382
-0.257537
0.217719
0.0765897
-0.294309
0.371324
-0.273983
-0.0973409
0.666648
-0.492251
-0.174397
-0.0388439
0.361031
0.11034
-0.0660402
0.625123
-0.233147
0.15472
0.139449
-0.168391
0.191784
-0.0233924
0.210173
-0.621783
0.41161
0.396611
0.0911131
-0.487724
-0.38
0.551608
-0.171608
-0.491769
0.147003
0.0868485
-0.140085
-0.358689
0.171213
0.187476
0.672911
-0.56887
0.199287
-0.651206
0.45192
-0.612661
0.220068
0.392593
0.174327
-0.566544
0.392217
0.262664
0.0925397
-0.355204
0.626117
-0.437868
-0.188249
0.461568
-0.222221
-0.239347
-0.402488
0.245392
-0.0433569
-0.202035
0.538929
0.133981
-0.0420276
-0.0629063
0.104934
0.557904
0.0144412
-0.572345
0.0728991
-0.311332
0.238433
0.27329
0.183462
0.641098
-0.42103
0.781669
-0.405676
0.105537
-0.0516465
-0.0538904
0.0849773
0.155201
-0.621714
0.159723
0.46199
-0.447387
0.664897
-0.465611
0.180404
-0.0450969
-0.135307
0.0288024
0.00416004
-0.0329625
0.0256533
0.167122
0.0685577
0.488012
0.59753
-0.607996
0.0104662
0.553801
0.00410339
0.420762
0.360907
0.463683
-0.673366
0.209683
-0.250404
0.63816
-0.387757
-0.382602
0.197916
-0.401976
0.545962
-0.143986
-0.441433
0.593463
-0.15203
-0.35775
-0.312066
0.0476637
-0.238234
0.19057
0.58253
-0.422806
0.356188
0.075168
-0.431356
-0.318674
0.129801
-0.228138
0.195943
0.0321955
-0.0253888
0.21834
-0.192952
0.127603
-0.136005
0.00840192
-0.184744
0.25222
-0.0674767
0.115347
-0.00181007
-0.113537
0.364518
-0.379782
0.0152639
0.132471
0.00125497
-0.133726
0.357083
-0.279781
-0.120893
0.1222
0.333768
-0.177861
-0.155907
-0.116566
0.0787377
-0.000843847
-0.0778938
0.278786
-0.205886
0.145808
0.433735
-0.583286
0.197625
-0.198313
0.609411
0.256806
-0.136873
-0.119933
-0.0475042
-0.0515615
0.0990658
0.558451
-0.265772
-0.29268
0.0343038
0.11804
-0.152344
-0.532498
0.174133
0.615318
-0.377287
-0.238031
-0.559421
0.157445
-0.0484312
-0.089016
0.137447
0.149579
-0.0302452
-0.119333
-0.303772
0.205615
0.0981568
-0.100308
0.205247
0.256321
0.360037
0.25528
-0.0428268
0.000166917
0.0426598
0.155391
-0.0229205
-0.0103143
-0.119163
0.129477
0.191196
-0.156892
-0.197014
0.15153
0.0454844
-0.0831288
0.0356245
-0.152726
-0.421692
0.149132
0.000446389
0.00237303
-0.00463457
0.00226154
-0.094958
0.357622
-0.0671727
0.431691
0.356911
0.152497
-0.138114
-0.0143829
-0.0153996
0.143003
0.400865
0.145097
-0.279116
0.707194
-0.428078
-0.60471
0.280359
0.324352
-0.478139
-0.103462
0.581601
-0.674315
0.510594
0.163722
0.24206
-0.267448
-0.260143
0.167429
0.0927144
-0.626547
0.148408
0.298887
0.0724379
0.0801791
-0.122207
-0.175832
-0.0142677
0.1901
-0.217996
0.35308
-0.135084
0.00363841
-0.0241444
0.152396
-0.128251
0.398742
-0.631905
0.233163
0.0237119
0.081825
-0.318134
-0.422132
0.119003
-0.184725
0.065722
0.600616
-0.126055
-0.474561
-0.553584
0.295239
0.0799825
-0.00124486
0.0430809
-0.0316918
-0.0113892
-0.308247
0.146836
0.161411
-0.0120593
-0.191761
0.20382
-0.0615814
0.0911032
-0.0295218
-0.316742
0.0978936
0.218848
-0.117559
0.50467
0.174675
0.383776
0.0176577
-0.159571
0.141913
0.0232507
-0.142194
0.118944
0.00404983
0.00383388
-0.0078837
0.0999174
0.156889
0.504715
-0.10385
0.199888
-0.293941
0.0940533
-0.152737
0.159688
-0.224505
-0.0868275
-0.244806
0.060062
-0.188786
-0.0560196
0.0643107
0.328667
-0.392978
0.158464
-0.00596714
-0.27892
-0.0864403
0.36536
0.272863
-0.033674
-0.239189
0.10882
-0.00179521
-0.107025
-0.396603
-0.210625
0.607228
0.63751
-0.173827
0.334356
-0.150756
-0.183601
-0.374644
0.26111
0.487483
-0.213819
-0.273664
-0.180564
0.00473169
0.104422
-0.152853
0.00495785
-0.00749652
-0.501971
0.358619
0.143352
-0.648044
0.206611
0.267266
-0.362224
0.148204
0.103624
-0.54204
0.286694
0.255346
-0.303543
0.0246236
-0.126671
0.0174632
-0.119047
0.618857
-0.181421
0.625366
-0.443945
-0.334679
0.39899
-0.241613
0.334153
-0.0688426
-0.0735479
0.14239
-0.0769896
0.195992
0.00367931
0.00160051
-0.146543
-0.0528593
0.199402
0.0269166
0.0684118
-0.0953284
-0.36267
-0.196751
0.161168
0.343547
0.593399
0.00721659
0.0267108
-0.103751
0.0770401
-0.0823548
0.300074
0.0964345
-0.0697237
-0.212644
-0.0911277
-0.0065691
0.251961
0.0411414
0.186351
-0.227493
0.154213
0.179555
-0.154614
0.130469
0.414866
-0.613179
0.112313
-0.273733
0.16142
0.201096
0.13326
0.0126905
-0.111923
0.099233
0.484386
-0.131961
-0.368989
-0.178959
0.547948
0.0807966
0.193575
-0.274372
0.231923
-0.20717
-0.0247529
0.108302
-0.126966
-0.262078
0.0824018
0.179676
0.229297
-0.355836
0.126539
-0.00614901
-0.0366777
0.0217416
0.0255567
-0.0472983
0.0465172
0.086464
-0.132981
-0.569218
0.189218
-0.111127
-0.0645809
-0.03917
0.456902
-0.667256
0.210354
-0.012877
0.0346186
-0.74884
0.297399
0.451441
0.539198
-0.124332
0.468228
-0.603298
0.13507
-0.155848
-0.104295
-0.446024
-0.205182
0.0117526
-0.0313925
0.01964
-0.403474
0.549831
0.126392
-0.37972
0.0540517
-0.106131
0.0520788
0.0537138
-0.0466423
-0.00707147
-0.138659
0.100428
0.0382304
0.00351612
-0.00114309
-0.098007
0.365273
0.396329
-0.228382
-0.167947
0.168908
0.0783449
-0.247253
0.045174
-0.191717
-0.0307426
0.0424952
0.180338
-0.00218455
-0.178154
-0.117206
0.019518
0.0976875
-0.322097
0.13701
0.185087
0.00933679
-0.00664673
-0.14609
-0.0613681
0.148217
0.369419
-0.2831
-0.0863196
-0.414617
0.483175
0.679301
-0.372437
-0.306864
0.6199
-0.162999
0.656537
-0.587249
-0.069288
0.128179
-0.610052
-0.0890522
0.115433
-0.0263806
-0.603687
0.324571
-0.153924
-0.0880723
0.241996
-0.161425
0.154778
0.508704
0.117413
0.0142819
-0.482689
0.19853
0.284159
0.131766
0.0166693
-0.148436
-0.24084
0.149301
-0.0596338
0.00561025
0.0540235
-0.139496
0.129181
0.22398
-0.0259848
-0.197995
-0.423536
0.595328
-0.171792
-0.453837
-0.110565
0.564402
-0.0500147
-0.0532835
0.103298
-0.199869
-0.302102
0.537589
-0.138847
-0.0333894
-0.0633867
0.0967761
0.17783
0.439135
-0.351405
0.133409
0.753117
-0.352028
-0.401089
0.00029781
0.00330586
0.281778
0.142669
-0.424447
-0.410561
0.124514
0.286047
-0.225782
0.170989
0.0547927
0.342478
0.0609121
-0.40339
0.409693
-0.267809
-0.322017
0.144156
-0.243083
0.0613535
-0.255459
-0.349251
-0.214414
-0.125865
-0.0244858
0.204824
-0.151093
-0.0172983
-0.694082
0.286598
0.407485
-0.271027
-0.423055
0.164492
0.0166239
-0.181116
0.130943
-0.146343
0.294457
-0.206286
-0.0881706
-0.0373099
0.0666919
-0.029382
0.211685
0.0671008
0.237666
0.158663
0.544566
0.111971
-0.0360373
0.00714157
0.0288957
0.35303
-0.125393
-0.227637
0.117106
0.255276
-0.372382
0.653724
-0.498689
-0.155035
0.428127
-0.146348
0.241459
0.423438
0.214014
-0.00868218
-0.205332
0.0921176
-0.0652011
-0.0668623
0.463473
-0.0997833
0.320364
0.432753
-0.045033
0.0130416
0.0319914
-0.0960347
0.0314539
0.0339103
-0.00510789
-0.0822159
0.0773044
0.00491152
-0.110714
0.0648195
0.0458948
0.540962
-0.487446
-0.0535158
0.583289
-0.416735
-0.166555
0.224102
-0.111789
-0.0918646
0.0302831
0.344249
-0.125909
0.1033
-0.164668
0.00596841
0.0616472
-0.0676157
0.0282425
0.0148384
0.00950178
-0.389587
0.380085
0.490339
0.0506228
-0.0378785
0.00184123
-0.0010251
-0.00170968
0.00273478
-0.00482915
-0.0621049
-0.564999
0.404904
0.193494
-0.0928957
0.0988641
-0.0823255
0.000109644
0.4535
-0.649931
0.196432
-0.610332
0.186796
-0.0220938
0.15386
-0.112037
0.126354
-0.0798371
0.0917574
9.68186e-05
-0.0918543
0.112194
-0.0581424
-0.428476
0.141233
-0.175806
0.0345729
0.00246097
-0.00348607
0.679715
-0.297901
-0.381814
0.421785
0.160744
0.334614
0.3451
0.17112
-0.0215058
0.152449
0.349405
-0.120107
0.249622
-0.16722
0.487245
-0.554107
-0.00752576
0.116346
-0.00347611
0.000954825
0.00252128
0.0220313
-0.170182
0.148151
-0.0557497
0.0184397
0.508526
0.029063
0.0759274
-0.350966
0.275039
-0.49377
0.317373
0.176397
-0.00333266
-0.000143452
0.00163667
-0.12054
0.118903
-0.447555
0.491892
-0.044337
-0.196657
-0.12544
-0.234426
-0.248263
-0.109937
0.020885
-0.318962
-0.13893
0.457891
-0.467719
-0.142614
-0.0377269
0.165542
-0.127815
0.348474
0.234815
0.254402
-0.175886
-0.0785161
-0.0784637
0.142311
-0.0638472
-0.103834
-0.0228366
0.0791473
-0.104511
0.0253633
0.121358
-0.282469
0.16111
0.607838
-0.446023
-0.161815
0.484149
0.0243773
0.435119
-0.229872
0.530409
-0.490668
-0.0397413
0.449743
0.229557
0.186025
0.0458984
0.204853
0.230266
0.394457
-0.0754332
-0.319024
-0.14937
-0.417174
-0.0903333
0.446521
-0.196367
0.26294
-0.0665727
-0.137099
-0.136634
-0.049067
0.0729481
0.0234864
0.101184
-0.0884938
-0.00872597
0.124073
-0.037949
-0.126222
0.164171
-0.13931
0.140947
-0.665446
0.392732
0.272714
-0.271417
0.144923
0.389111
-0.534034
-0.00387407
0.000169176
0.00370489
-0.117044
-0.0375697
-0.2452
0.0564135
-0.186889
-0.127352
0.14501
0.0161683
0.0784937
-0.394384
0.315891
-0.154874
0.503349
-0.0488368
0.0716499
-0.0228131
-0.0974666
0.0345602
-0.0484101
0.390888
0.47312
0.149298
-0.622418
-0.0275049
0.191997
-0.174989
0.13704
-0.331975
0.0903615
0.152961
-0.569696
0.0856573
-0.130942
0.0805261
-0.00884372
-0.0716824
-0.339105
0.348607
0.599217
-0.332212
-0.267006
0.215228
-0.185146
-0.0300822
0.33148
-0.449039
-0.278731
-0.386715
0.023059
-0.105047
-0.0121587
0.0466519
0.133752
-0.176267
-0.377317
-0.0363293
0.146607
-0.110278
-0.663268
0.385626
0.277642
0.304893
0.0537258
-0.0292503
-0.0667844
0.104208
-0.0124506
-0.118857
-0.485437
-0.114483
0.500109
-0.215699
-0.331991
0.54769
0.122142
0.309485
-0.431628
-0.499978
0.333642
0.166336
0.333446
0.318671
-0.106986
0.358095
-0.279602
0.314413
-0.428896
-0.0055389
-0.000547963
0.00608686
0.310591
0.254395
0.372081
0.2198
-0.182404
-0.0373957
0.297498
-0.198335
-0.0991635
-0.31921
0.429863
-0.110653
0.493018
0.0373912
-0.0681945
-0.0704643
0.0877185
-0.0199186
-0.0677999
-0.132214
0.00678229
0.125432
-0.609499
0.0383258
-0.00121055
0.0775236
-0.0244968
-0.0530268
0.315822
0.0786351
-0.53565
-0.0171047
0.552754
0.169962
-0.0523507
-0.117611
-0.0760901
-0.206379
-0.392091
0.224604
0.167487
0.249704
0.388949
-0.531713
0.142764
-0.16527
-0.0628683
-0.121894
0.0180598
-0.128762
-0.2818
-0.134061
-0.15392
0.28798
-0.147977
-0.387673
0.274101
-0.64309
-0.0945823
0.548082
0.220617
0.0980541
-0.104203
0.304091
-0.225631
0.0717068
-0.286072
-0.108312
-0.0998688
0.12312
-0.458144
0.17068
0.287464
0.151329
0.00594313
0.21056
-0.222619
0.0625331
0.0149905
0.212728
-0.463132
-0.345452
-0.196588
0.209732
0.0847245
-0.0982532
-0.0086097
0.106863
-0.163949
-0.0992695
0.0658801
0.262309
-0.38122
0.224424
-0.0383986
-0.572058
0.0446773
0.52738
-0.00180476
-0.00373414
0.447115
0.133078
-0.580193
0.0509192
-0.0384565
-0.0124627
-0.11773
0.585958
0.218349
-0.0465405
-0.171808
-0.434818
0.584784
-0.149965
-0.102389
0.575508
0.46953
-0.632882
0.163352
0.188029
-0.457702
-0.164081
0.0156622
0.199566
-0.212963
0.289553
-0.162495
0.0280692
-0.195398
-0.355889
-0.133277
0.489165
-0.172527
0.144484
0.0280427
0.0583322
0.173688
-0.23202
0.0765787
-0.272946
-0.5465
0.507991
0.0385082
0.550735
-0.17593
-0.374805
-0.605407
0.0589071
-0.565479
0.222948
0.34253
0.371477
0.179258
-0.0358375
0.00396752
-0.00297698
-0.000897087
0.342827
-0.319218
0.0355765
0.156207
0.113115
-0.0194365
-0.0936781
-0.013104
-0.031929
0.0181522
-0.496617
0.478465
-0.149102
-0.460707
0.629215
-0.168507
-0.265496
0.159749
0.424245
-0.583994
-0.586749
0.25207
-0.259613
-0.200553
0.0397947
0.160758
-0.72306
0.305322
0.417737
0.052995
-0.03706
-0.0159349
-0.436462
0.655261
-0.293799
-0.361461
-0.0466111
0.0335071
0.000157319
0.00230365
0.501992
0.139106
0.343427
0.0339563
-0.377383
0.681108
-0.179116
0.544782
-0.609806
0.0650242
-0.4966
0.320333
-0.0490787
-0.010555
-0.243323
0.485249
-0.360334
-0.124914
0.40633
-0.284188
0.520875
0.0107943
-0.531669
-0.00719272
0.494438
-0.164605
0.134056
0.0305489
0.207696
-0.32541
0.117714
0.300973
0.0873619
-0.388335
-0.0354695
0.176703
0.415616
-0.244936
0.393994
0.00891286
-0.206032
0.19712
-0.247717
-0.246052
-0.175485
0.0318316
0.143653
0.0933381
-0.0455301
-0.0488355
0.0802704
-0.0314349
-0.210004
0.485784
-0.27578
0.062857
-0.260394
0.197537
0.10324
-0.557638
0.273499
-0.175605
-0.0531971
0.290863
0.560239
-0.205546
-0.354693
-0.572058
0.216359
-0.269557
-0.376917
-0.259677
0.103227
0.15645
-0.500509
0.31466
0.185849
0.0840895
0.458616
-0.542705
0.120815
-0.390317
0.269502
0.134568
0.0208236
0.040266
-0.0272243
-0.314162
0.107453
0.206709
-0.0521675
-0.0774178
0.129585
0.194016
0.0659429
-0.259959
-0.332729
0.606829
0.364284
-0.0106819
-0.0251556
-0.641606
0.418304
0.223302
-0.64585
0.185143
0.48345
0.0810619
-0.564512
0.275069
0.0830265
-0.586766
0.411622
0.0423478
-0.45397
0.0611707
0.0631382
-0.246372
0.340277
-0.0939056
0.0338246
0.0198892
0.00398328
-0.00447243
0.000489157
0.587192
-0.110833
0.638773
0.00941408
0.0601064
-0.0695205
-0.161527
0.195236
-0.033709
-0.0452797
0.0660993
-0.0208196
0.124813
0.241197
0.108207
0.442396
-0.0683811
-0.641654
0.392978
0.248676
0.360578
-0.152883
-0.112404
0.413377
0.374298
-0.0584763
0.386387
-0.325475
-0.656357
0.189359
0.466997
0.110064
0.00167908
-0.111743
-0.24179
-0.414567
-0.0726449
-0.127908
0.515453
0.165655
-0.521459
0.30576
0.316907
-0.25026
-0.0666467
0.509762
0.0877687
0.0241455
0.0267737
0.210862
0.0866361
-0.21964
0.349726
-0.130086
0.0305968
0.0571218
0.12936
0.099295
-0.0245934
-0.0747015
-0.0305816
-0.00438342
0.034965
-0.253266
-0.246712
-0.46466
0.122113
-0.341753
0.143546
-0.147916
0.00437012
-0.122641
-0.414946
-0.19305
-0.00290653
0.00306385
0.0220466
-0.0736082
0.1632
-0.154287
0.0649877
-0.0412759
0.374343
0.185896
-0.227529
0.176761
0.0507678
0.475156
0.0457189
-0.151735
-0.107942
-0.206607
-0.149229
-0.669908
0.398881
0.123338
-0.0150363
-0.425631
0.211033
0.179357
-0.0340978
-0.145259
-0.288785
0.0893951
0.19939
0.116333
-0.0159047
0.156719
-0.0221507
-0.620955
0.287042
0.333912
0.122279
-0.307711
0.185432
-0.45104
0.132079
-0.258959
-0.361995
-0.641821
0.432134
0.209687
0.0967607
-0.302562
0.205801
-0.00336568
0.10455
-0.0832232
0.566673
0.0278497
0.0852649
0.143537
0.442154
-0.585691
-0.108709
0.357456
-0.116259
-0.036511
0.115868
-0.0793574
-0.216497
-0.329039
0.545537
-0.144155
0.0977805
0.358127
-0.538336
0.180209
-0.139394
-0.0136467
0.011842
0.00833559
0.211464
0.563971
-0.336785
-0.227186
0.00865433
-0.00798418
-0.000670152
0.174263
0.044086
0.530417
-0.17229
-0.166946
0.0352139
-0.108762
-0.289515
-0.275964
-0.0506764
0.108503
-0.0578268
-0.47307
0.263066
-0.320816
-0.1555
0.476316
0.582514
-0.253846
0.199695
-0.16262
-0.0370748
-0.072747
-0.170336
0.0602185
-0.269324
-0.400584
0.355449
0.128937
-0.604085
0.577694
0.0263912
-0.14433
-0.305131
0.449461
-0.189032
0.073992
-0.122427
0.0484355
0.324858
-0.104242
0.197713
-0.281209
0.0834962
-0.151389
-0.240702
0.201297
0.381217
0.288308
0.0285985
0.476858
-0.579246
0.0361485
-0.0319884
0.0790306
-0.263319
0.184289
0.0209548
0.288359
-0.309314
-0.11516
0.377469
0.389049
0.174922
-0.383293
0.268133
-0.0642028
0.223874
-0.159672
0.14093
0.029032
0.00595485
-0.107017
0.541006
-0.433989
-0.0781891
0.275902
0.445155
-0.613521
0.168366
-0.198328
0.261185
-0.310569
0.228214
0.0718568
-0.12514
-0.0303938
0.507252
-0.0461643
0.432552
0.000693708
0.00328957
-0.0215735
0.100721
0.324922
-0.503881
-0.197987
-0.296847
0.494834
0.519245
-0.374321
0.04356
-0.0410185
-0.00254148
-0.247393
0.0719002
0.175493
0.357918
-0.491195
0.0855961
0.239262
0.104664
-0.412941
0.308277
-0.609192
0.276463
0.110743
-0.00067966
-0.366949
0.239812
0.127137
-0.257513
0.109002
-0.0335003
-0.0755014
-0.0793652
0.0305297
-0.11956
-0.315753
0.115638
0.200114
-0.431969
0.450122
0.131992
0.309074
-0.441066
-0.111685
-0.0144966
0.126182
0.045722
-0.0177932
-0.0279289
-0.555297
0.10146
0.0839639
0.0267793
0.0858386
-0.00531251
-0.0012647
0.104254
0.0381365
0.0201493
0.0255728
0.0159185
0.0276415
0.417507
-0.566844
0.149337
0.039964
0.184459
-0.0982662
-0.0222825
0.120549
-0.207427
0.302209
-0.44327
0.141061
0.566738
-0.423201
-0.128168
0.0391519
-0.0049924
-0.495132
0.134797
0.187046
-0.0388418
0.280192
-0.0736763
-0.206515
0.091486
0.182013
0.650665
-0.407076
-0.243589
0.293206
-0.102022
-0.191184
-0.591365
0.444679
0.146686
-0.14705
-0.0284347
0.126399
-0.648148
0.206493
0.441655
0.0149994
0.0233264
-0.0207147
0.164261
-0.0808944
0.13853
-0.0576361
0.124762
-0.311696
0.186934
-0.283202
-0.390164
-0.00377514
0.00577066
-0.00199553
-0.601177
0.256142
0.345035
-0.00261008
0.000663636
0.00194645
0.0350231
0.144334
-0.125875
0.0548355
-0.00651944
-0.048316
0.0879653
0.349789
-0.437754
0.116851
0.322664
-0.439516
-0.093518
-0.0157879
0.109306
0.302986
0.157497
-0.460483
-0.181363
0.402935
-0.31497
-0.144166
-0.671371
0.263407
0.407965
0.11402
0.32562
-0.43964
0.162128
-0.540859
0.378731
-0.0148104
-0.0417254
0.0565358
-0.733058
0.511785
0.221273
0.062726
0.168043
-0.230769
0.0433398
0.0656619
-0.265964
0.207881
-0.0639521
0.0906779
-0.0267258
-0.40525
0.108419
-0.307321
0.198903
-0.276378
0.422251
-0.145873
-0.191081
-0.541977
0.0473767
-0.0980531
0.0595336
-0.0501196
0.10277
-0.168695
-0.327905
-0.286897
-0.159981
0.446879
0.014308
-0.0952024
-0.344839
0.461691
0.440069
-0.326049
-0.140229
-0.451059
-0.135125
0.586183
0.000237872
0.0592958
-0.319666
-0.351705
-0.373715
0.457804
0.417354
0.0560306
-0.473385
0.675854
-0.185677
-0.490177
-0.100076
-0.594405
0.456812
0.137594
0.453559
-0.324878
-0.128682
-0.0740926
0.268109
0.111186
-0.499594
0.388408
-0.227176
-0.44008
0.494461
-0.383275
-0.445899
-0.148506
-0.145136
0.447345
0.0592685
0.220923
0.0820804
-0.235243
0.153162
0.475686
-0.293532
-0.182155
0.0829457
-0.0397769
-0.0431688
0.310833
0.102549
-0.413382
0.200027
-0.05462
-0.145407
-0.565583
0.276068
-0.209032
-0.0797524
0.288057
0.387797
-0.019764
-0.162049
0.181813
-0.0330328
0.116997
0.0224134
-0.164312
0.429662
-0.26535
0.0994495
0.207816
-0.307265
0.0189427
-0.198189
0.179247
-0.226923
0.162721
0.17613
-0.134101
0.419957
-0.285856
-0.188301
0.153014
0.0352871
-0.440267
0.301337
-0.198835
0.187261
0.267704
-0.0741295
0.227135
0.426589
0.033775
-0.0977271
0.0595633
0.0290457
-0.088609
-0.201267
0.273821
-0.0725542
0.420561
-0.109728
-0.000480027
0.0043139
-0.158401
0.1785
-0.0200992
-0.666111
0.279148
0.386963
0.0214122
-0.0256429
-0.079404
-0.327299
-0.0782421
0.405541
0.648885
-0.343563
-0.156637
-0.36694
-0.299171
0.19329
0.282397
-0.411806
0.111131
-0.517404
0.406272
-0.19956
0.296321
-0.277738
0.564432
0.193714
-0.178052
0.0531465
0.321152
-0.143378
-0.0822529
-0.556206
0.198793
0.357413
-0.301789
-0.263795
0.269393
-0.3674
-0.0141433
0.0586379
-0.0444946
-0.366319
0.594733
-0.228414
-0.158741
0.136647
0.387444
0.277376
0.13824
0.0696443
-0.0919268
0.189658
-0.267847
0.612841
-0.612841
-0.191363
0.166878
0.0377881
-0.148307
0.110519
0.0156735
-0.0448222
-0.364742
-0.226623
0.0323835
0.0965414
-0.723062
0.391071
-0.318346
0.114968
0.203377
0.008796
-0.0131794
-0.107154
0.376547
-0.0875683
0.557098
0.219827
0.400074
0.151749
-0.329463
0.441292
-0.111829
0.108528
-0.427738
-0.0305048
0.0304778
0.0660395
0.71205
-0.296549
-0.415501
0.00278355
-0.00268364
-9.99089e-05
-0.0590758
0.140122
0.0751899
-0.0616127
-0.0135771
-0.0302101
0.18174
-0.11956
0.536915
0.00965333
-0.0086985
0.456268
-0.627084
0.170816
0.473538
-0.593456
0.400872
0.192584
0.194332
-0.17539
0.21034
0.383123
-0.218311
-0.0569417
0.275253
0.265004
-0.0140465
-0.250957
-0.394471
0.0573358
-0.10602
0.168872
0.187546
-0.633445
0.161394
-0.0643329
-0.0970613
0.503377
0.134784
0.0459829
0.00552695
-0.0515099
-0.194681
-0.361526
0.0151806
0.0498071
0.28294
0.42911
0.114365
-0.094847
0.18107
0.474191
-0.584032
0.243313
0.340719
0.208802
0.0844034
-0.157048
0.615079
-0.168179
-0.446901
-0.436094
-0.141542
0.577636
0.231445
-0.275584
0.0441388
-0.169197
0.14597
0.388908
-0.534879
-0.699145
0.415943
0.120865
0.0656625
-0.186527
-0.382809
-0.340253
0.169555
0.345898
-0.413337
-0.285808
-0.316278
0.121287
0.194991
-0.545383
0.167073
0.0326223
-0.491751
0.323056
0.0700447
-0.376502
-0.193038
-0.64164
0.230745
0.410895
0.418295
0.177033
0.114016
0.01279
-0.126806
-0.0274939
-0.125522
0.153016
-0.569303
0.232369
0.336934
-0.359335
0.123802
0.235532
-0.062686
-0.0418246
-0.189401
-0.0825556
-0.0615995
-0.0682597
0.479882
-0.0436419
0.117634
0.247705
-0.421813
-0.0843545
-0.185228
0.269583
0.150087
0.0329182
-0.183005
-0.0308256
0.0903889
-0.139177
0.595989
-0.190242
-0.00129038
0.000742418
0.00498682
-0.0178638
0.0503712
0.149656
0.502298
-0.367053
-0.135245
0.275684
-0.044239
-0.153559
0.0944832
0.373603
-0.268463
-0.10514
0.150135
-0.325815
0.200422
-0.0113533
0.0186652
-0.00731193
-0.142382
0.140198
0.101942
0.493687
-0.595629
0.0351809
-0.0868274
-0.0326604
0.199733
-0.0988853
0.060434
0.0384512
-0.115772
-0.307096
0.422868
0.0259579
-0.2219
0.195942
-0.0551781
-0.443511
0.0141792
0.112598
-0.126777
0.504639
-0.370799
-0.13384
-0.671532
0.376973
0.294559
0.451833
-0.522265
0.163865
0.3584
0.193412
-0.243736
0.0503246
-0.11225
0.0600826
0.529339
0.0835026
0.407552
0.241333
0.136448
-0.514576
0.378128
-0.0459613
0.0281681
-0.194143
-0.51487
0.304245
0.57845
-0.432642
-0.430379
0.16282
0.267559
-0.226595
-0.0350015
0.261596
-0.378199
0.189202
0.0612776
0.273296
-0.206476
-0.00776044
0.214236
0.0941083
0.118378
0.423065
0.155385
0.702534
-0.288068
-0.414466
0.205922
-0.0850572
0.272897
0.429637
0.480677
-0.197124
-0.283553
0.585954
-0.415602
-0.170351
-0.143306
-0.0411999
-0.115164
0.156364
0.301102
-0.364584
0.227354
0.13723
0.296637
-0.513135
-0.225526
0.110496
-0.101425
0.0928148
-0.237211
0.164464
-0.0485012
0.151802
-0.199868
0.124097
-0.284923
0.104788
0.39751
0.0193343
0.0558556
-0.387551
0.523999
0.43967
0.146284
0.120874
0.0124994
-0.133373
0.12836
0.0283586
-0.000602896
-0.121663
0.122266
-0.142525
0.537918
-0.395392
0.24497
0.124449
0.275193
-0.399768
0.124575
-0.188057
-0.123639
0.466853
-0.637671
0.170818
-0.0820753
0.306679
-0.0782827
0.169467
-0.0911839
-0.180518
-0.0781275
0.22946
-0.151332
-0.0300428
0.174012
-0.028645
-0.145367
-0.388462
0.0525973
0.00223819
-0.313956
-0.169929
-0.197019
-0.702072
0.279448
0.422624
0.194634
-0.164558
-0.0300759
0.527303
-0.0193112
-0.419132
0.188275
-0.00122921
-0.417455
0.573502
-0.156048
-0.431011
0.309689
0.121322
0.624634
-0.168366
-0.490778
0.203881
-0.156237
0.109149
-0.15765
-0.234148
-0.407506
0.549272
-0.160324
-0.126817
0.0452941
-0.207915
-0.207076
0.0418063
-0.710272
0.413723
-0.356622
0.186693
0.0232478
0.135726
-0.158974
0.0144076
-0.00475428
-0.0151313
0.0936372
-0.115211
-0.107483
-0.151069
0.177757
-0.0266875
0.299554
-0.62037
-0.432821
0.29872
-0.13643
0.483385
-0.346954
-0.242935
0.0716416
0.171293
-0.414582
0.29881
-0.693632
0.262764
0.430869
-0.497579
0.359035
0.138544
0.207175
0.0756513
-0.282826
0.171226
-0.283349
-0.410283
-0.200769
-0.19981
0.400579
-0.0491062
0.199193
0.0400089
-0.0117664
0.162649
-0.00149057
-0.00228457
0.265123
-0.000118855
0.115865
-0.140547
0.0246819
0.140554
0.0835481
-0.131621
-0.193788
-0.203511
0.2403
-0.0367888
0.0408332
-0.00700864
0.0350207
-0.442327
0.297996
-0.226713
-0.0768302
-0.136198
-0.109245
-0.0336813
0.142927
-0.121495
0.379601
0.48607
-0.128152
-0.322948
-0.16783
-0.153328
0.235409
-0.115182
0.0958217
0.252026
-0.347848
0.236451
-0.332578
-0.280046
0.0116531
0.189674
0.378808
-0.137596
0.305083
-0.12747
-0.117465
0.244935
-0.184564
0.472699
-0.288135
0.423489
-0.1276
-0.115334
-0.590236
-0.0500253
-0.189163
-0.268697
0.184343
-0.0754961
0.159363
-0.0838668
0.11525
-0.143462
0.0282114
0.509319
-0.185241
-0.324078
0.00332361
-0.00408017
0.000756561
0.0143927
0.152845
-0.0375948
-0.00413685
0.192412
-0.0309545
-0.117353
0.551927
-0.155953
-0.395974
-0.267294
-0.0972903
0.0324994
0.162135
0.276434
0.301155
-0.577589
0.385198
0.166728
-0.0379062
-0.0147518
0.208466
0.110473
-0.311242
0.454144
0.0731581
-0.672731
0.225585
0.447146
-0.264648
-0.408083
-0.131519
-0.345796
0.345556
-0.491263
0.145707
-0.448123
0.123245
-0.640382
0.249177
0.391205
-0.422215
-0.442546
0.603373
-0.480481
-0.122892
-0.0610567
0.0462463
0.125633
0.231823
0.149242
0.440833
-0.590076
0.0559891
-0.0625085
-0.00262671
-0.00535747
0.26658
-0.0731687
0.20399
-0.286065
0.102763
-0.14786
-0.0715113
0.131873
-0.153379
0.0466971
0.018098
-0.0647951
-0.328927
0.00597897
0.155334
0.325343
-0.508751
0.589813
-0.0665324
0.0954785
-0.0289461
0.0734616
0.233389
-0.30685
-0.0243959
-0.0128139
0.0372099
-0.0368483
-0.062037
0.169132
-0.583186
0.414054
0.164347
-0.530666
0.0356791
0.142944
-0.579038
0.547712
-0.395741
-0.15197
-0.00231413
0.00198732
0.000326813
-0.353684
0.599757
-0.246073
0.396146
-0.120953
0.656143
-0.197527
-0.0330038
0.00137389
0.0316299
0.607796
-0.201663
-0.406133
-0.457289
0.539008
-0.37688
0.464726
-0.547949
0.608103
-0.160988
-0.0108921
-0.000461119
0.129902
-0.4749
0.314919
-0.699706
0.411638
-0.00298974
-0.103141
0.151249
-0.0223722
-0.128876
-0.354211
-0.137945
0.492156
-0.201146
-0.34661
-0.156705
-0.424275
-0.166154
0.590428
-0.202667
0.279775
-0.0771079
-0.498614
0.331074
0.16754
0.477253
0.0704589
-0.0324907
0.0386418
-0.0061511
-0.193903
-0.0893043
0.283207
0.561074
-0.175876
-0.452674
0.26811
-0.181179
-0.363509
0.544688
0.169382
-0.579099
0.409717
-0.396671
-0.187361
0.132417
0.354823
-0.48724
-0.139683
-0.108956
-0.274338
0.210031
-0.0603745
0.135751
0.224828
0.443499
0.17158
0.130512
0.262877
-0.393388
0.049997
-0.190567
0.14057
0.167364
0.0278723
0.0802348
-0.158518
-0.143981
-0.255787
0.0753162
0.238153
-0.31347
0.2669
-0.374054
0.293553
-0.403587
0.110034
5.71266e-05
-0.00237126
0.468197
-0.298642
0.187072
-0.300191
0.113118
0.00203323
0.534936
-0.534936
0.0836474
-0.0303568
-0.0532905
-0.149078
-0.450446
0.599524
-0.0161782
0.0619112
-0.0457329
-0.209637
0.284953
0.28771
0.111258
0.0472054
-0.0565183
0.0476746
-0.53432
0.353141
0.0153822
0.0986342
0.104022
-0.596274
-0.111977
0.248987
-0.19029
-0.082552
0.272842
-0.151289
-0.0256002
0.176889
0.0199941
-0.0734289
0.0534348
-0.106332
0.367442
-0.137262
-0.0211394
-0.136735
-0.0228362
0.165333
0.108
-0.540268
0.432267
-0.578921
0.319962
0.0657457
0.162161
-0.227906
-0.0799632
0.0559488
0.0240145
0.0824764
-0.0014727
-0.696242
0.412893
-0.0403903
0.00789965
-0.570418
0.427205
0.111993
-0.536478
0.519026
0.0174521
-0.21592
0.305315
0.13693
0.344667
-0.481597
0.527615
-0.0628896
0.294893
-0.221431
-0.61245
0.444853
0.167597
0.578233
0.129916
-0.153955
0.0240385
0.0992166
0.0393139
-0.210427
-0.344662
-0.267788
-0.380822
0.243226
-0.000346343
-0.00226374
-0.430042
0.129423
-0.156917
-0.420258
0.0660324
-0.0193353
-0.25311
-0.174088
0.427199
-0.43378
0.291096
0.142684
0.278705
-0.0890462
0.147955
-0.585823
-0.263604
0.0735354
0.082056
0.382927
0.166346
0.263903
0.00938625
-0.423345
0.555455
-0.341477
-0.213978
-0.0973579
0.606354
-0.448403
-0.157951
-0.0202567
0.0478982
0.0465752
-0.0607184
-0.125283
-0.226717
0.352
0.250863
0.374261
-0.372062
0.491101
-0.358976
-0.132125
-0.0730712
-0.170665
0.296375
-0.196926
-0.436459
-0.148712
0.585171
-0.427082
0.517335
-0.090253
-0.308275
0.00192872
0.153413
-0.287474
-0.0347268
0.00303503
-0.306192
0.408741
-0.330658
0.0594636
-0.0628293
0.179359
0.449856
-0.0862292
-0.206189
-0.397499
-0.0585887
0.0208567
0.037732
-0.320813
0.10971
0.211103
0.141984
0.0320281
0.0439508
-0.00311757
-0.691831
0.427183
-0.529218
0.386693
0.24915
-0.195593
-0.525563
0.117984
0.407579
0.125388
0.251532
-0.376921
0.0445165
-0.0442786
-0.132583
0.478139
-0.152822
0.535748
0.0272109
0.108801
0.028971
-0.137772
0.102347
-0.0844379
-0.0179091
-0.186539
-0.353294
-0.444364
-0.146836
0.5912
-0.413814
0.566732
-0.152918
-0.630078
0.20267
0.427409
-0.448664
0.143534
-0.113261
-0.112011
0.408085
-0.130709
-0.14545
-0.0428518
-0.170806
0.129606
-0.429067
0.144339
0.0397757
-0.184115
0.279627
-0.157348
-0.329214
-0.271963
0.172284
-0.0303001
-0.00160311
-0.00213103
0.140008
-0.160723
-0.0497735
0.0803702
0.31107
0.176016
-0.487087
0.0859472
0.405154
-0.192727
0.308365
0.108911
0.17451
-0.283421
0.371174
0.180434
-0.523468
0.387038
0.025795
-0.0186534
0.00882902
-0.109606