/*--------------------------------*- C++ -*----------------------------------*\
| =========                 |                                                 |
| \\      /  F ield         | OpenFOAM: The Open Source CFD Toolbox           |
|  \\    /   O peration     | Version:  v2012                                 |
|   \\  /    A nd           | Website:  www.openfoam.com                      |
|    \\/     M anipulation  |                                                 |
\*---------------------------------------------------------------------------*/
FoamFile
{
    version     2.0;
    format      ascii;
    class       volVectorField;
    location    "300";
    object      U_0;
}
// * * * * * * * * * * * * * * * * * * * * * * * * * * * * * * * * * * * * * //

dimensions      [0 1 -1 0 0 0 0];


internalField   nonuniform List<vector> 
14315
(
(1.02703 0.000543241 1.0872e-21)
(1.12777 -0.0188119 -4.2001e-20)
(1.03131 -0.00573949 -5.82133e-23)
(1.06036 0.0064647 -2.07948e-21)
(1.06061 -0.00492694 -8.06609e-21)
(1.03236 0.00266329 3.93284e-22)
(1.03104 0.000446348 -5.39463e-23)
(1.03991 -0.0106653 -1.75735e-21)
(1.04734 0.0611248 8.02003e-20)
(1.03194 -0.00193207 0)
(1.03033 -0.00148833 2.3603e-22)
(1.03096 -0.0077227 6.16031e-22)
(1.11189 -0.043154 -6.39745e-21)
(1.0381 0.00727556 1.89107e-21)
(1.03122 0.000431357 0)
(1.0384 -0.00551803 3.14559e-21)
(1.0304 -0.000680063 -1.26456e-21)
(0.750317 0.0589241 2.58015e-20)
(1.02834 -0.00117456 8.16997e-23)
(1.03859 -0.00595067 0)
(1.08479 0.00285813 0)
(1.03483 -0.00677413 0)
(1.0208 -0.000150248 1.29114e-23)
(1.03043 -0.00171125 -5.29682e-22)
(1.14063 0.0270215 -5.92859e-20)
(1.04009 0.00731237 -1.68845e-21)
(1.12278 -0.0126983 1.84223e-20)
(1.03183 -0.00197796 -2.57718e-22)
(1.12263 -0.0140798 0)
(1.02619 -0.000289135 0)
(1.08172 0.0273765 0)
(1.02704 -0.000303644 -2.04841e-22)
(-0.0548989 0.0214143 8.50579e-20)
(1.03623 0.00406665 1.73127e-22)
(1.04726 -0.00848919 -9.51998e-21)
(1.02704 -0.000304217 1.8783e-22)
(1.02704 -0.000678973 7.78029e-23)
(1.04697 -0.00784266 0)
(1.01938 -0.000154566 -6.4511e-23)
(1.05157 0.00375722 1.32098e-20)
(1.06579 0.0605538 -5.48078e-20)
(1.04048 0.00100748 -5.92917e-21)
(1.05777 -0.0200212 1.53643e-20)
(1.10179 0.030044 -3.05526e-20)
(1.09851 -0.0160659 1.87278e-20)
(1.06425 0.00107918 0)
(1.0314 -0.00552502 0)
(1.03145 -0.00209716 8.78023e-22)
(1.03898 -0.0067317 7.26473e-21)
(1.05755 -0.018852 -6.00427e-21)
(1.02692 -0.000647681 0)
(1.10503 0.00463217 -2.80208e-22)
(1.02942 -0.000281817 1.3349e-22)
(1.02972 -0.00118286 -3.80955e-22)
(1.02944 -0.0002822 1.49429e-22)
(1.04901 -0.00582005 0)
(1.02558 -0.0287523 -7.60427e-22)
(1.0306 -0.00165113 0)
(1.03991 0.00712806 0)
(1.13786 0.0264692 5.65693e-20)
(1.02954 -0.00110069 3.23573e-22)
(1.06407 0.00147002 1.06203e-20)
(1.0787 0.0182875 0)
(1.0302 -7.14828e-05 -9.94013e-23)
(1.02968 -0.00159296 -8.43821e-22)
(1.02844 -0.00191606 0)
(1.03138 -0.00589953 1.42051e-22)
(1.08069 0.0267226 0)
(1.04654 -0.00890039 0)
(1.02671 -0.000306243 2.28801e-22)
(1.02973 -0.000258061 -1.79166e-22)
(1.03062 -8.28614e-05 0)
(1.02982 -4.45885e-05 -1.54526e-22)
(1.04321 -0.00600035 -1.7192e-21)
(1.029 -0.00052622 7.42084e-22)
(1.03953 -0.0133131 -4.37451e-22)
(1.03057 -2.26916e-05 0)
(1.07083 -0.0153858 1.21621e-20)
(1.02672 -0.000304279 -1.83137e-22)
(1.10216 0.0354506 -2.80555e-20)
(1.02532 -0.000408673 7.29841e-22)
(0.798509 -0.0140487 0)
(1.03859 -0.00698343 -1.97883e-21)
(1.03098 -8.34792e-05 0)
(1.02967 -0.000232393 1.23131e-22)
(0.654441 -0.0574896 -3.76943e-20)
(1.09804 -0.017292 -1.88432e-22)
(1.03022 7.82841e-05 0)
(1.03008 9.23732e-05 0)
(1.02988 -0.00012045 1.73971e-22)
(1.09175 0.000744514 -1.96773e-20)
(0.719143 0.0567105 -5.86889e-20)
(1.11116 -0.0450733 0)
(1.02469 0.000688024 0)
(1.02141 -0.0003548 7.61405e-23)
(1.02525 -0.000389928 -8.334e-22)
(1.0297 -0.000234121 1.03846e-22)
(1.03119 -0.000399162 -1.61765e-23)
(1.02139 -0.000294838 0)
(1.0401 0.00140445 2.73512e-21)
(1.03317 0.00462602 0)
(1.03821 0.00135756 -3.09365e-23)
(1.01996 -0.000116749 -2.50812e-23)
(1.05883 -0.013238 0)
(1.03048 0.000262567 0)
(1.03147 -0.00213782 1.3648e-21)
(1.05106 0.00474385 -6.57979e-21)
(1.07483 0.00629465 -9.23101e-21)
(1.0519 -0.00899006 1.2e-21)
(1.09879 0.00842398 0)
(1.06491 -0.02206 0)
(1.09301 0.0302654 -1.66373e-20)
(1.03541 -0.0133743 -6.85393e-22)
(1.11468 -0.00948049 4.75264e-20)
(1.03491 -0.00723531 -1.4783e-21)
(1.1032 0.0048789 2.73112e-22)
(1.05593 -0.0226558 -1.04091e-20)
(1.04719 -0.00874543 6.06061e-21)
(1.05053 0.0285693 0)
(0.706594 -0.0120729 6.23266e-21)
(1.03118 -0.00213898 -2.92532e-22)
(1.03061 -0.000536351 1.14053e-21)
(1.02818 -0.00107933 -1.64101e-22)
(1.08425 -0.0144419 -3.82495e-20)
(1.10396 0.0464358 -3.72767e-20)
(1.03135 -0.00310957 4.79996e-22)
(0.722255 -0.0466923 1.42054e-21)
(1.02646 -0.000882491 -8.93658e-22)
(1.03261 -0.00580895 0)
(1.03345 0.00494255 0)
(1.0884 0.0321977 0)
(1.13562 -0.0133148 0)
(0.826878 -0.0306488 -4.16444e-21)
(0.706189 -0.0241421 8.40931e-22)
(1.03891 -0.0130779 -2.50469e-21)
(1.03239 -0.00600301 0)
(0.792576 0.0600792 -5.12904e-21)
(1.11279 -0.0120878 -2.32297e-20)
(1.12677 -0.0299686 0)
(0.820253 -0.0473128 0)
(1.09879 -0.0207327 3.95309e-20)
(1.10399 0.0471224 -5.89568e-21)
(1.02622 -0.000294496 0)
(1.13479 -0.0149969 0)
(-0.0125855 0.077192 8.92492e-20)
(1.04266 -0.00594502 1.53644e-21)
(1.03533 -0.013093 -1.53204e-22)
(1.03046 -0.00158967 2.72692e-22)
(1.09055 0.018954 0)
(1.09798 0.00733554 0)
(1.03342 0.00429019 2.01249e-21)
(1.02612 -0.00022931 3.1406e-24)
(1.03156 -0.000572373 9.60441e-23)
(1.01651 -0.000127053 1.35212e-23)
(1.03119 0.000703308 6.10017e-23)
(1.05152 -0.00823702 -9.7837e-22)
(1.05693 0.000704882 -7.47658e-21)
(1.01955 -0.000163659 -9.22831e-25)
(1.02443 -0.0267758 0)
(1.10067 0.0358126 5.88563e-21)
(1.0659 0.0053909 -1.26029e-20)
(1.04249 0.00768248 -2.33914e-22)
(-0.0409209 0.0341414 -5.65349e-20)
(1.09005 0.020956 -2.53577e-20)
(1.02063 -0.000210418 0)
(0.598502 -0.058281 -2.99603e-20)
(1.01907 -0.000130011 0)
(1.06184 0.0183268 -1.62577e-20)
(1.02103 -0.000231252 -6.53004e-23)
(1.03189 0.00281312 0)
(1.04634 0.0259766 0)
(0.719595 0.0570678 1.55948e-20)
(1.06166 -0.0274933 7.69291e-21)
(1.0665 -0.00950911 0)
(1.13015 0.0414555 0)
(0.885747 -0.026278 -4.19191e-21)
(1.03102 -0.00763969 0)
(1.0312 -0.00322394 -2.24852e-21)
(1.09497 -0.00979075 1.95609e-20)
(1.11077 -0.00363963 -3.36669e-20)
(-0.0672165 0.0194316 0)
(1.08345 -0.0149988 1.17956e-20)
(1.03317 0.00408117 -2.10544e-21)
(1.05197 -0.0237588 0)
(1.08327 0.0027235 -2.49973e-20)
(0.829429 -0.0134745 6.81341e-21)
(1.06601 -0.0225142 5.71373e-21)
(1.06701 -0.0215028 -1.15952e-20)
(1.03188 -0.00594607 2.10342e-23)
(1.09125 0.0173991 7.6037e-21)
(1.04174 -0.0109214 -1.82859e-21)
(0.818034 -0.0330922 0)
(1.12479 0.00484307 -2.98022e-20)
(1.02626 -0.000230105 1.57779e-25)
(1.03094 -0.000453524 0)
(1.05136 -0.0105959 -1.0953e-20)
(0.711068 -0.0169369 0)
(1.03321 0.00584963 9.68972e-22)
(1.06651 0.00611756 1.51682e-20)
(1.08729 0.0318223 2.07776e-20)
(-0.0744987 0.0220196 -5.47754e-20)
(1.03161 0.00599521 -1.09419e-22)
(1.03828 0.0035461 0)
(1.04237 -0.00519388 -4.50377e-21)
(1.06043 0.00646318 7.85896e-21)
(1.03209 -0.00365589 -1.96304e-21)
(1.04223 -0.0108488 3.2779e-21)
(1.10203 0.0312163 5.48845e-20)
(1.03119 0.000420468 0)
(1.02646 -0.000228021 3.86706e-24)
(1.0319 -0.00581954 -2.08741e-23)
(1.04339 -0.00658151 2.73771e-21)
(1.11109 0.0132372 0)
(1.06143 0.0176521 3.3346e-21)
(-0.0451217 0.0214743 -7.4125e-20)
(1.06954 0.00412393 0)
(1.09757 0.0518905 0)
(1.03319 0.00522637 0)
(1.03339 0.00372565 0)
(1.0196 -0.000239785 6.3333e-23)
(1.10313 0.05417 0)
(1.04826 -0.00579789 -3.05561e-21)
(1.10391 0.0553762 0)
(0.84948 -0.0305839 4.55016e-21)
(1.06928 -0.0160099 -2.39825e-20)
(1.06278 0.00788456 0)
(1.05454 -0.0226496 6.05104e-21)
(1.08863 0.0204807 1.17227e-20)
(1.02796 -0.00110916 2.12685e-22)
(1.06425 0.0142251 0)
(1.05084 -0.0108409 5.49263e-21)
(0.988667 -0.0313718 -2.94043e-20)
(1.03127 -0.00538139 0)
(1.03174 0.000992395 -5.88151e-24)
(1.05804 -0.00194084 -1.11087e-20)
(1.06803 -0.00472225 0)
(1.10036 0.0294507 5.01454e-20)
(1.0588 -0.0148129 -1.22896e-20)
(1.04346 -0.0172007 -3.2067e-21)
(0.794577 0.0599339 -1.72629e-20)
(0.341442 -0.0352992 4.97178e-20)
(1.08339 0.0196688 -9.92411e-21)
(1.02862 -0.00198287 0)
(0.898915 -0.0274187 0)
(1.10203 0.0551338 0)
(1.03295 0.000601799 2.05725e-23)
(0.241529 -0.0320193 2.31551e-20)
(1.03088 0.000395537 0)
(1.02781 -0.00105267 -1.66087e-22)
(1.02545 -0.000506593 2.98855e-22)
(1.05705 0.00125727 -8.48151e-21)
(1.02964 -0.000318262 1.64764e-22)
(0.777965 0.0375521 -2.64068e-20)
(1.02725 -0.000676681 1.7614e-22)
(1.04036 -0.0108844 2.70323e-22)
(0.973267 -0.024841 -3.80623e-20)
(0.877392 0.0518086 0)
(1.09273 0.0439041 1.89577e-20)
(-0.0131495 0.0829673 0)
(1.0418 -0.00531647 0)
(1.03378 -0.0190732 -2.69634e-22)
(1.05952 -0.00245982 -1.51436e-20)
(1.06918 0.0050782 0)
(0.796769 0.0394624 5.67957e-20)
(1.07027 0.0176081 2.3512e-20)
(1.10623 0.036699 0)
(1.04958 -0.0289505 -3.85354e-21)
(-0.0844446 0.021907 0)
(1.08301 0.00431147 -2.59023e-20)
(1.08047 0.0258071 0)
(1.02636 -0.0250681 -1.46773e-21)
(1.02524 0.00116937 0)
(1.0236 -0.00032599 -1.15103e-22)
(1.03287 0.000314866 0)
(1.01938 -0.000173825 -3.58587e-23)
(1.03106 0.000444994 6.07825e-23)
(1.11436 0.0298425 4.53832e-20)
(1.02595 -0.00023143 -6.19607e-24)
(1.06037 0.0197796 1.39299e-22)
(1.0818 0.00477493 1.17239e-20)
(1.029 -0.000522007 8.04473e-22)
(1.09075 0.0199024 2.65564e-20)
(1.0377 -0.00727752 -4.57374e-23)
(1.07659 0.029628 0)
(1.05999 -0.00367425 1.57151e-20)
(0.992857 0.059686 -3.85533e-20)
(1.12935 -0.0332986 3.51542e-20)
(1.07093 0.00529172 4.32615e-21)
(1.03077 0.000158032 -8.41911e-23)
(1.02967 -0.000518118 5.88903e-22)
(1.11357 0.0141495 3.0878e-20)
(1.03146 0.00597517 -1.28851e-21)
(1.01811 -0.000142245 -6.09672e-24)
(1.10509 0.0448839 0)
(1.02621 -0.00029114 0)
(1.04299 0.00808667 4.13988e-21)
(1.03054 8.49276e-05 -8.67001e-24)
(-0.0164525 0.0629323 0)
(1.03698 0.00433094 -1.6384e-21)
(0.782106 0.0169269 0)
(1.08391 -0.0179788 0)
(1.03797 0.00656896 -9.99337e-22)
(1.03881 0.00740727 -5.78213e-21)
(1.05625 -0.0207045 1.04033e-20)
(1.06102 0.00756113 0)
(1.03163 -0.000495038 0)
(1.05946 -0.0144892 6.51238e-21)
(1.08464 -0.0167193 -3.06885e-20)
(1.06991 0.0170069 -1.70145e-20)
(1.0792 0.0186324 3.85091e-21)
(1.02789 -0.000192657 6.29586e-23)
(1.02787 -0.000184925 1.05093e-22)
(1.08166 -0.00953236 -2.34633e-20)
(1.09652 0.00782065 0)
(1.04947 -0.0251587 3.68167e-21)
(1.03087 0.0653145 6.73087e-20)
(0.67734 -0.011373 2.93625e-21)
(1.03339 -0.0191995 -2.7776e-22)
(1.01922 -0.000194777 -7.91095e-24)
(0.794967 0.059649 -4.99235e-20)
(1.04447 0.0133719 0)
(1.03956 0.00211254 -4.71932e-21)
(1.03098 0.00072849 8.36264e-23)
(1.03652 0.00387922 0)
(1.02997 -4.07405e-05 0)
(1.07278 0.00588793 0)
(1.09824 0.0521276 1.77006e-20)
(1.0295 -0.00158148 2.32662e-21)
(0.721188 -0.0200461 -1.76933e-21)
(1.03063 0.000118554 1.60199e-23)
(0.808704 0.058099 2.39392e-20)
(1.10187 0.0557355 2.16938e-20)
(0.699913 0.0566666 6.01948e-20)
(1.10863 0.0531053 -7.88367e-21)
(1.11285 0.0161835 0)
(1.0231 -0.000287176 -8.55982e-24)
(1.0278 0.00893891 0)
(1.06533 0.0136465 0)
(1.13063 0.0416547 -8.37123e-21)
(1.05182 -0.00930477 4.35999e-21)
(1.07951 0.0257108 0)
(1.13159 0.0188225 3.99465e-20)
(0.721262 0.0572683 -5.24363e-20)
(1.03218 -0.00744485 -9.05961e-24)
(1.0231 -0.00025696 -9.75947e-24)
(0.784585 0.0596314 3.46801e-20)
(-0.0355286 0.0425322 0)
(1.04631 0.0609394 -2.71658e-20)
(1.02673 -0.00064219 0)
(1.05114 -0.00964947 7.45849e-21)
(1.1391 0.0208308 5.35279e-20)
(1.10708 0.0540829 1.81402e-21)
(1.02814 -0.00016371 -7.69789e-22)
(1.03092 0.00019678 -2.46721e-24)
(1.0765 0.0288996 -2.26539e-20)
(1.09963 -0.0188123 -1.47246e-22)
(1.08267 0.018405 1.04002e-20)
(1.13904 0.0233508 -2.1212e-21)
(0.993327 -0.0278253 0)
(1.03073 0.000381685 -1.39408e-22)
(1.08142 0.0159896 0)
(-0.0372691 0.0412484 0)
(1.02835 -0.000225304 0)
(1.03067 0.000235074 4.46728e-22)
(1.02835 -0.000227525 0)
(1.07051 0.00499419 0)
(1.09563 0.00654545 0)
(1.04287 -0.0168173 0)
(1.05904 -0.0170965 1.39238e-20)
(1.02933 -0.00139855 1.12439e-21)
(1.12346 0.00234038 3.86968e-21)
(0.0441671 0.0360306 -1.58832e-20)
(1.08036 0.0060724 -1.35332e-20)
(1.00548 0.0646103 -3.70591e-20)
(1.01807 -0.000120728 4.47321e-24)
(1.03841 -0.0048779 1.82435e-21)
(1.03094 -0.00744697 0)
(0.0193541 0.0448067 0)
(1.07892 0.0299404 -1.04561e-21)
(1.02996 -0.000442762 0)
(1.05116 -0.0281757 -4.66533e-21)
(1.03812 -0.00726594 0)
(1.11469 0.0310141 -3.75901e-20)
(1.03095 -0.00731059 8.75903e-22)
(1.03079 0.000243963 4.21624e-23)
(1.09646 -0.00589075 9.62313e-21)
(1.02911 0.0112151 0)
(1.06019 -0.0123476 -1.01592e-20)
(1.10008 -0.0161663 0)
(1.10095 0.0322745 -3.07679e-20)
(1.12971 0.0304611 -1.26876e-20)
(1.06279 -0.0254573 8.80041e-21)
(1.03014 2.16647e-05 1.22121e-22)
(1.01827 -0.00011098 7.14914e-25)
(1.03859 -0.0139258 0)
(1.01685 -0.000127111 1.16978e-23)
(1.0238 -0.000330321 5.83302e-23)
(1.06809 -0.00519747 6.01156e-21)
(1.03806 -0.0136667 0)
(1.02954 -0.0136742 0)
(1.02971 -5.85936e-05 1.58148e-22)
(1.03122 -0.0021343 -1.32717e-21)
(1.04476 -0.0428022 1.54851e-21)
(1.06405 0.0146624 -1.22538e-20)
(1.109 0.016272 -6.286e-20)
(1.10573 0.0542136 0)
(0.93417 -0.0319877 -3.10554e-20)
(1.09303 0.0296959 -1.27624e-20)
(1.09367 -0.00701598 8.5399e-21)
(1.07822 0.029025 -1.30971e-20)
(1.02765 -0.000247158 1.73668e-22)
(1.03863 -0.00527428 3.77745e-21)
(1.02667 -0.00106823 1.28088e-22)
(-0.0142336 0.0842918 1.53799e-20)
(1.0879 0.0218264 -1.23445e-20)
(1.06824 -0.0217952 1.18394e-20)
(1.06266 -0.026225 -8.35068e-21)
(1.09622 -0.0118916 0)
(1.05921 -0.0123306 0)
(0.801641 -0.00460793 1.08205e-21)
(1.03225 0.009679 -1.51289e-22)
(1.08189 0.0598579 1.98361e-20)
(1.10258 0.0366278 2.7322e-20)
(1.03839 0.00594649 -5.45363e-22)
(1.02815 -0.000209503 -8.89588e-25)
(1.08024 -0.00991165 2.36268e-20)
(1.09232 -0.00438348 -8.5311e-21)
(1.04398 -0.00659661 0)
(1.02635 0.0100097 0)
(1.12517 -0.0193794 -1.05853e-20)
(1.09914 0.0584851 -2.06405e-20)
(1.03207 -0.00747911 3.90861e-22)
(1.03139 -0.00291505 2.90586e-22)
(1.09419 -0.0334024 0)
(1.03107 -0.00761786 -1.78067e-21)
(1.02766 -0.000246675 -6.04802e-23)
(1.06593 0.0606012 1.29123e-21)
(1.105 0.0383153 2.1261e-20)
(1.09194 -9.24171e-05 -9.60843e-21)
(1.03168 0.00297505 0)
(1.11671 -0.00379919 0)
(1.02646 -0.000280251 -1.15947e-22)
(1.03194 0.00566152 5.25597e-22)
(1.10092 0.0569869 0)
(1.13734 0.0221933 -2.43618e-20)
(1.1118 0.0153232 -1.39107e-20)
(1.02644 -0.000274905 1.78559e-22)
(1.0266 -0.000263477 1.57717e-22)
(1.02358 -0.000364795 -1.12188e-22)
(1.03308 -0.0034697 -1.77271e-23)
(1.03143 -0.00793505 4.69421e-22)
(1.03123 -0.00295584 -1.25965e-21)
(0.75097 -0.00988182 0)
(0.754219 -0.00464445 0)
(1.02672 -0.000269055 0)
(0.0521868 0.0150008 -9.37492e-20)
(1.02612 -0.000229732 0)
(1.03663 0.00406863 -2.23023e-22)
(1.07065 -0.00378621 -3.94673e-21)
(1.04615 -0.0278688 -4.65023e-21)
(0.861918 0.00922537 -7.30628e-22)
(1.01784 -0.000116721 -1.50038e-23)
(1.09189 0.0451817 -4.02432e-20)
(0.970061 0.0192267 2.08521e-20)
(1.11539 -0.00626664 3.26106e-20)
(1.02623 -0.000229689 0)
(0.737438 0.0582819 -3.08713e-20)
(1.1215 0.0536956 5.96507e-20)
(1.02918 -0.0129715 -5.07092e-22)
(1.03004 -0.000516171 0)
(1.11137 0.00213391 -1.80243e-20)
(1.06404 -0.0242365 4.55963e-21)
(1.04378 -0.00400149 0)
(1.05864 -0.00263695 7.69345e-21)
(1.02841 -0.0020469 4.61359e-22)
(1.0745 0.00723037 3.82796e-20)
(1.10128 0.0334708 4.43349e-20)
(0.795724 0.0130481 2.60486e-23)
(1.04963 0.00314649 1.56245e-21)
(1.03003 -0.000575735 3.07284e-22)
(1.03162 0.000448878 7.13582e-24)
(1.02737 -0.000162333 0)
(0.726359 -0.0096955 4.90867e-21)
(1.05101 -0.0236543 0)
(1.06077 0.0205811 6.13349e-22)
(0.824759 -0.00708628 -1.11986e-21)
(1.11254 -0.00415352 0)
(1.03743 -0.00785992 -1.251e-21)
(1.12781 -0.0227236 2.43039e-20)
(1.06565 -0.00800646 0)
(1.12288 0.0537551 2.21283e-20)
(1.01901 -0.000302641 4.12876e-23)
(1.03235 -0.00368093 0)
(1.04849 -0.0248699 0)
(1.1378 0.0181587 -1.08853e-20)
(1.09496 -0.00424077 8.50884e-21)
(1.10429 0.0433291 0)
(1.04002 -0.00992127 1.78406e-21)
(1.06705 -0.00574132 -2.64603e-20)
(1.02548 2.86541e-05 -1.10305e-21)
(0.0605415 0.0138218 3.5218e-20)
(1.03007 5.05333e-05 -1.80003e-22)
(0.258367 -0.0491302 0)
(1.02488 -0.000481126 -2.40052e-22)
(1.07836 -0.048332 0)
(1.02944 -0.000474009 1.69851e-22)
(1.02804 -0.000214023 0)
(1.02126 -0.000233519 3.43421e-23)
(1.07208 0.0052209 -4.57223e-21)
(1.03013 -4.38368e-05 -4.79883e-22)
(1.09155 -0.0345711 -3.34848e-21)
(1.04938 -0.00650428 0)
(1.06025 -0.00293209 -4.79946e-23)
(0.555803 -0.00883904 1.34755e-20)
(1.03053 -0.00423141 3.30588e-22)
(1.09346 -0.0019065 2.05002e-20)
(1.07047 -0.0209192 -7.36034e-21)
(1.04501 -0.042839 -1.52289e-21)
(1.02224 -0.000185046 2.32834e-23)
(1.02467 0.00428501 0)
(1.02186 -0.000245727 -1.65389e-23)
(0.868991 0.00382784 7.20628e-23)
(1.02514 0.00490753 0)
(0.726352 0.0586654 -1.60018e-20)
(-0.015889 0.0779717 -2.32381e-22)
(1.03086 -0.007623 1.68728e-21)
(1.07945 0.0167695 0)
(1.09608 0.0354278 3.43622e-20)
(0.814141 0.057778 -2.55329e-20)
(1.02134 -0.000198988 -5.50744e-22)
(1.05752 -0.0205261 5.78758e-23)
(1.03221 0.00332807 7.6287e-23)
(1.04011 0.00161442 0)
(1.02654 -0.000657923 0)
(1.03204 -0.00617656 0)
(1.03778 -0.00786713 2.7944e-21)
(1.07234 0.0232964 -2.77216e-20)
(1.02818 -0.000178016 0)
(0.737106 0.0338705 8.13248e-20)
(1.02818 -0.000172931 -7.86416e-23)
(1.02506 -0.000379911 6.30356e-22)
(0.840507 0.0581891 1.2802e-20)
(-0.0324486 0.0460225 6.45019e-20)
(1.03106 -8.79324e-05 0)
(1.03231 -0.00606349 0)
(1.03091 -0.000216741 0)
(1.02324 -0.000312701 5.99498e-23)
(1.03118 0.00297155 1.32377e-21)
(1.00298 0.0604873 4.99065e-20)
(1.0322 -0.00595277 0)
(1.03074 -0.0046174 7.16648e-23)
(1.03323 -0.00366941 -7.86397e-22)
(1.02304 -0.000324439 8.49663e-23)
(1.02921 -0.00140816 -1.68535e-21)
(1.10722 -0.002468 3.04284e-20)
(1.04693 -0.0111597 0)
(1.03841 -0.00432103 1.7523e-23)
(1.08074 0.0151439 0)
(1.03747 -0.00830792 -1.43505e-21)
(1.03228 -0.00577848 0)
(1.05687 0.0130118 -1.47632e-20)
(1.03086 -0.00702627 1.25801e-22)
(1.08941 -0.00479311 8.4566e-21)
(1.14044 0.0255483 3.64075e-20)
(1.11277 0.054487 0)
(1.0307 0.000447587 0)
(1.05259 -0.00622227 9.02031e-21)
(1.03583 0.00475018 0)
(0.774925 -0.0260851 8.3724e-21)
(1.03244 -0.0179126 7.39111e-23)
(1.02995 -0.00255497 8.12183e-22)
(1.02414 0.000233826 1.04047e-21)
(1.03187 -0.0187257 0)
(1.03096 0.000739174 -1.56053e-22)
(1.06438 -0.0532561 -6.04381e-21)
(1.02848 0.00392031 3.55192e-23)
(1.03189 0.00567483 0)
(1.03718 0.00766608 -5.91869e-21)
(1.11314 -0.0132218 0)
(0.786302 0.0579348 -2.58148e-20)
(1.04923 -0.0148666 6.65673e-21)
(1.13957 0.00076402 3.8451e-20)
(1.03748 -0.0351748 0)
(1.03176 0.000639722 7.34682e-25)
(1.02305 -0.00031725 0)
(0.7353 0.0578728 -1.34538e-20)
(1.02909 -0.000201835 0)
(1.03191 0.00309068 -2.85499e-23)
(1.02881 -0.00102208 0)
(0.737721 2.68774e-06 7.71815e-22)
(1.03089 0.000257112 0)
(1.03276 -0.00564964 -1.40131e-22)
(1.08921 0.0436814 0)
(0.965776 -0.029263 -3.31637e-21)
(0.877586 0.0515015 -3.97821e-20)
(-0.0167558 0.0749989 0)
(1.01767 -9.79722e-05 -1.38535e-23)
(1.03125 0.000757081 0)
(1.05084 0.0375429 6.99519e-20)
(1.07792 -0.00987733 -2.71053e-20)
(1.04846 0.0654788 -4.92051e-21)
(1.0335 0.00556659 6.38875e-23)
(1.04215 -0.016696 1.48489e-21)
(1.0302 -0.00137682 1.88414e-22)
(1.02996 -0.000213508 0)
(1.04628 -0.0106621 2.31404e-21)
(1.0379 -0.00433563 0)
(1.02949 -0.0122813 0)
(1.03717 0.00609643 3.36486e-21)
(1.02292 -0.000200993 6.32253e-23)
(1.10466 0.0202296 -3.20729e-22)
(1.02287 -0.000194461 -2.37522e-23)
(1.07186 0.0240856 0)
(1.03091 -0.000249925 0)
(1.02423 -0.000323633 1.19735e-22)
(1.04458 0.0123606 7.41862e-21)
(1.022 -0.00034849 -2.1174e-23)
(0.260656 -0.0437731 0)
(1.04497 -0.0270662 -1.45138e-21)
(1.04311 0.00601402 3.59711e-22)
(0.961016 0.0170729 -3.56988e-20)
(1.03061 -0.00438976 -4.21309e-22)
(1.09919 0.0566842 5.04705e-21)
(0.665443 0.0299253 1.11918e-20)
(1.03151 -0.00814131 -1.74698e-21)
(1.03 -0.000506851 0)
(1.0436 0.00635842 4.6477e-21)
(1.11685 -0.0346725 0)
(1.07746 0.0305596 0)
(1.02196 -0.00034919 -1.10634e-22)
(-0.0319957 0.0449656 -6.92238e-20)
(1.10283 0.04572 5.12064e-20)
(1.05766 0.0128109 9.87718e-21)
(0.441459 -0.055205 0)
(1.02981 -0.00260367 0)
(1.07012 -0.0236586 0)
(1.02303 -0.000324345 1.95077e-23)
(1.06752 -0.0518079 7.97076e-21)
(1.04443 -0.0173094 0)
(1.02758 -0.000205433 7.94337e-23)
(1.10009 0.0286826 -3.90735e-20)
(1.03268 0.00295335 2.20259e-21)
(1.07651 -0.00259019 -1.27302e-20)
(1.04942 -0.0214444 3.69348e-21)
(1.09266 0.0436369 -9.85289e-21)
(1.11135 -0.0149735 0)
(1.02866 -0.00321271 4.53327e-22)
(1.04668 0.00343439 -2.96804e-21)
(1.03094 -0.00743181 0)
(1.02877 -0.0031619 -1.22825e-21)
(1.04269 -0.00340254 -1.7537e-23)
(1.04763 -0.0168319 -2.6215e-21)
(0.875501 -0.0365439 -8.36399e-20)
(1.02865 -0.0010094 -3.47913e-22)
(1.09692 0.0339802 -5.30863e-20)
(1.02707 -0.000224327 0)
(1.12554 -0.0141981 0)
(1.04172 -0.0161962 1.34927e-21)
(1.0987 0.0329275 1.36278e-20)
(1.02894 -0.000190995 -1.71499e-21)
(0.440972 -0.0322427 1.46726e-21)
(1.02984 -0.0029634 -7.07765e-22)
(1.08149 0.00605579 -1.49427e-20)
(0.136676 0.00502771 -7.88235e-20)
(1.06983 -0.00513055 -8.29526e-22)
(1.02644 -0.000969992 9.13233e-23)
(0.0873613 0.0145325 0)
(1.07713 -0.0454605 6.77798e-21)
(1.02966 -0.00285319 0)
(1.03779 0.00678343 -4.59683e-21)
(1.10946 0.0142064 -6.71338e-21)
(0.871494 0.0018731 -1.37861e-22)
(1.13544 0.00871879 0)
(1.03046 0.000532004 6.21771e-22)
(0.923885 -0.00181085 1.4545e-22)
(1.03179 -0.00611746 0)
(1.08256 -0.021575 2.57534e-20)
(1.0609 0.00837406 0)
(0.76979 -0.0331071 1.98051e-21)
(1.02758 -0.000202252 1.55849e-22)
(1.03112 -0.00513599 0)
(1.02384 -0.000419752 -2.35442e-23)
(1.03098 -0.00670212 3.74831e-22)
(1.079 -0.00921668 3.42062e-20)
(1.14196 0.00754437 1.15218e-20)
(0.800984 -0.00743771 -7.71081e-21)
(1.05604 -0.000208554 0)
(1.04409 -0.00352562 0)
(1.03164 -0.00598012 0)
(1.04491 0.0115421 -7.50422e-22)
(1.02773 -0.000215173 0)
(0.75265 0.0574896 0)
(1.0524 -0.00503222 0)
(1.03547 -0.0185232 0)
(1.03952 -0.009734 1.86603e-21)
(1.0264 -0.000940836 -1.05673e-23)
(1.03953 -0.00905975 -5.53699e-21)
(0.953278 -0.0589138 9.52258e-22)
(1.1119 0.000526576 0)
(1.13911 0.0187903 2.48891e-20)
(1.02761 -0.00108102 1.18902e-22)
(1.05523 -0.000615525 5.40584e-21)
(1.03021 0.000202568 -3.62005e-22)
(1.05304 -0.00682356 -4.60861e-21)
(1.04787 -0.0053616 2.84817e-21)
(1.11481 0.0167976 0)
(1.02766 -0.000218585 1.00804e-25)
(1.03698 0.00595458 -1.94621e-21)
(-0.0161316 0.0743434 2.69018e-20)
(1.12914 0.028404 0)
(1.03169 0.000859744 7.02855e-24)
(1.03237 0.00531492 -1.06265e-21)
(1.02677 -0.00114369 2.86945e-22)
(0.805793 0.0590656 -6.23096e-20)
(1.06331 -0.0551413 1.1332e-20)
(1.03053 -0.00414089 2.40592e-23)
(0.776523 -0.00735795 2.43749e-21)
(1.0325 -0.00749704 7.55905e-23)
(1.03164 0.000297489 -2.99527e-24)
(1.10551 0.0181558 0)
(1.04768 -0.000446991 0)
(1.03782 0.00788237 4.36069e-21)
(0.895934 -0.0161324 5.55817e-20)
(1.11133 0.0545981 1.53774e-20)
(1.0311 -0.00756339 1.98155e-21)
(1.04673 -0.024002 0)
(1.02411 -0.000345424 -6.04361e-22)
(1.03126 -0.00718236 0)
(1.10084 0.0261877 -1.94725e-20)
(0.698747 0.0549293 -2.0328e-20)
(1.02978 -0.000597012 -3.01442e-22)
(1.10543 0.017604 5.3962e-20)
(1.09963 0.0585718 3.04805e-20)
(1.1102 -0.00151661 0)
(1.11153 0.0124013 4.43358e-20)
(0.708439 0.0584493 0)
(0.810773 0.0597854 2.09196e-20)
(1.03054 -0.000932231 6.95519e-23)
(1.06693 -0.00655199 1.688e-20)
(1.09522 0.0299686 -1.81217e-20)
(1.03502 -0.018737 6.88624e-22)
(1.03759 -0.00129664 -3.59361e-21)
(1.02733 -0.00021908 0)
(1.08861 0.0331763 -9.19401e-21)
(0.16362 0.00564439 -2.05783e-20)
(1.03085 -0.0047789 0)
(1.06082 0.00549167 5.67185e-21)
(1.06449 -0.029908 1.13084e-20)
(0.747067 -0.0275688 -4.05635e-21)
(1.03221 0.00062815 -9.97789e-23)
(1.04184 -0.0298013 0)
(1.03657 0.00658117 -9.21566e-23)
(1.08933 -0.00417067 0)
(1.01811 -0.000178385 0)
(1.03401 -0.000614683 0)
(0.749071 0.0593241 -2.02552e-20)
(1.11432 -0.0350042 0)
(1.13542 -0.00682848 5.75921e-20)
(1.04986 -0.0133654 -8.89819e-21)
(1.0312 -0.000381813 1.28068e-24)
(0.0631723 0.00613505 -2.58156e-20)
(0.983929 -0.00113944 2.52095e-22)
(-0.0165051 0.0288934 0)
(1.07652 -0.00336555 -6.63751e-21)
(1.0934 -0.00157478 -1.06096e-20)
(0.970076 0.0526998 -6.08246e-20)
(1.02771 -0.000219613 -6.0739e-23)
(1.03052 -0.00038044 1.16184e-21)
(1.09776 0.0422448 -4.00309e-20)
(1.03309 -0.00895699 2.62022e-21)
(1.05289 -0.00556467 -1.00989e-20)
(1.02759 -0.000213449 -1.91287e-22)
(1.06536 -0.0547206 -2.52783e-20)
(1.02873 -0.00019128 5.84394e-23)
(1.02942 -0.00176733 5.09505e-22)
(1.02766 -0.00161401 0)
(0.976044 0.0606866 2.2998e-20)
(1.02571 -0.000307747 0)
(1.05566 0.0137675 3.6457e-21)
(0.908966 -0.0145682 -2.68767e-20)
(1.04064 0.00734316 1.88129e-21)
(1.10807 0.0503894 -1.62414e-20)
(1.02671 -0.000672094 0)
(1.04847 -0.0159416 -2.97332e-21)
(1.03617 0.00324144 1.58877e-21)
(1.02571 -0.000307476 0)
(1.14222 0.0107666 -2.56063e-20)
(1.0205 0.0376831 -1.56235e-20)
(1.04483 0.0128723 -5.5352e-21)
(1.03098 0.0031669 0)
(1.03062 0.00488172 -1.27359e-21)
(1.13333 -0.00524601 -2.14492e-20)
(1.03032 -0.000397146 -1.11442e-21)
(1.02954 -0.00188972 4.83489e-22)
(1.08079 0.0172223 0)
(1.03404 -0.00063774 0)
(1.00684 0.0347406 5.60361e-20)
(1.02874 -0.000187926 -3.91303e-23)
(1.03216 0.00677359 -3.99262e-22)
(1.03021 -0.000800884 0)
(1.03127 -0.000601075 0)
(1.09404 0.031498 0)
(1.03621 -0.000108609 -8.67821e-23)
(1.0341 -0.0102916 0)
(1.03722 -0.0349502 0)
(1.02727 -0.00105868 0)
(1.03282 0.000630976 -2.13956e-23)
(1.02741 -0.00109256 8.75432e-23)
(1.03594 0.000553399 1.09832e-22)
(1.03709 -0.00148723 4.19332e-21)
(1.06272 -0.0305616 -5.03722e-21)
(1.0545 0.0173417 7.33989e-21)
(1.03407 -0.00617463 0)
(1.07988 0.03411 0)
(1.03565 -0.00669796 0)
(1.07364 0.0101944 0)
(0.885186 3.56914e-05 -8.93102e-23)
(1.05046 -0.0214585 0)
(1.03124 -0.00060951 0)
(1.08254 -0.0126127 -5.63123e-21)
(1.10473 0.0160485 -5.40511e-20)
(0.759684 0.0377674 -4.21753e-20)
(1.03413 -0.00934801 0)
(1.038 -0.0196392 -9.11672e-22)
(1.06389 0.0068948 2.09707e-20)
(1.03005 -0.0546687 -4.74499e-21)
(1.06383 -0.0228396 -5.12716e-21)
(1.03329 -0.00880129 0)
(1.08734 -0.022847 -1.50762e-20)
(1.03097 -0.00717049 -9.38336e-22)
(1.06884 -0.00356228 7.85282e-21)
(1.07397 0.00559339 1.02198e-20)
(1.05716 -0.00237179 1.84403e-20)
(1.03131 0.001205 0)
(1.10809 0.050483 -1.57441e-20)
(1.1121 0.0491169 -2.31579e-20)
(1.05776 -0.0053208 0)
(1.0353 -0.0065267 8.88334e-22)
(-0.0371942 0.0171081 -4.14244e-20)
(1.09398 -0.0152056 0)
(1.02174 -0.000279114 1.32797e-22)
(1.02955 0.0651764 -2.59876e-21)
(1.1049 0.0385529 -3.56515e-20)
(1.0356 -0.0120697 -1.27456e-21)
(1.02847 -0.000167596 0)
(1.08412 -0.0132788 3.26258e-20)
(1.0214 -0.000235987 1.22155e-22)
(1.03511 -0.00715629 0)
(1.0327 0.00579618 1.05936e-21)
(1.02711 -0.00107974 5.28443e-24)
(1.04764 -0.0176105 3.12331e-21)
(1.03175 -0.00356875 4.31841e-22)
(1.09052 -0.0316317 3.26214e-20)
(1.02932 -0.0115557 -1.20412e-21)
(1.06029 0.0217189 -5.95743e-22)
(1.03307 0.00273426 0)
(0.886081 -0.00142538 0)
(1.0415 -0.00477433 0)
(0.961124 0.0543374 4.07147e-22)
(1.03282 -0.00111878 7.77788e-23)
(1.07553 0.0281902 -2.10088e-20)
(1.02744 -0.00104665 1.06624e-22)
(1.0371 -0.00835953 2.50658e-21)
(1.09588 0.0307154 0)
(1.05459 -0.000211999 5.34829e-21)
(1.02353 -0.000116468 1.20874e-21)
(1.06886 0.0168473 1.774e-20)
(1.10539 -0.00109209 -3.48147e-20)
(0.250469 -0.025176 -6.0426e-21)
(1.03532 0.00802538 1.39864e-22)
(1.06878 0.0261192 0)
(1.02211 -0.000316286 0)
(1.04317 -0.0258566 -2.19427e-21)
(0.283625 0.0214835 -1.30462e-20)
(1.04095 -0.00482516 0)
(1.01878 -0.000149821 1.32747e-24)
(1.03295 0.000221463 9.25287e-24)
(1.03655 0.00348934 -3.39321e-21)
(1.03312 -0.0118356 0)
(0.821599 0.0042698 -1.76591e-21)
(1.09218 -0.0038763 0)
(1.09417 0.0529746 3.44621e-20)
(1.03167 -0.000922963 -2.59979e-23)
(0.00238331 0.0461105 -2.01566e-21)
(0.467403 -0.022463 -4.76211e-21)
(1.11095 0.059952 0)
(1.09666 -0.021137 -2.94224e-20)
(1.03002 -0.000841534 0)
(0.113966 0.0215321 5.16417e-20)
(1.03521 0.00422288 0)
(1.03037 -0.000970415 0)
(1.0297 -0.00107276 4.29751e-22)
(1.06478 0.0064897 9.49441e-21)
(1.03809 0.00095228 3.89623e-24)
(0.666927 -0.0145821 -7.57513e-21)
(1.04854 0.00846235 7.79058e-21)
(1.03579 -0.0123577 1.00083e-21)
(1.02349 -0.000299675 -6.18815e-23)
(1.04785 -0.0244386 3.15763e-21)
(1.09066 -0.00696382 -8.41119e-21)
(1.03643 0.00108019 -1.0437e-22)
(1.11782 -0.0108073 -4.99761e-20)
(1.02162 -0.000270183 3.95884e-23)
(0.937327 0.0586875 -5.10171e-20)
(1.0326 0.00342993 6.59784e-22)
(0.392598 -0.053935 -7.90281e-21)
(1.03158 -0.000894118 0)
(1.10771 0.0378745 -1.43486e-20)
(1.02509 -0.000354862 0)
(1.02965 -0.00123728 1.13872e-22)
(1.04055 -0.0289298 0)
(1.06368 0.00776934 -1.20481e-20)
(1.03584 0.00275748 -5.43888e-23)
(1.03168 0.000133516 -5.39576e-24)
(1.05096 0.00765628 -4.66276e-21)
(1.07105 -0.0219211 2.34681e-20)
(1.02696 -0.00108954 1.53649e-23)
(1.03086 -0.000255395 -8.03697e-23)
(1.08687 -0.0606608 -4.57369e-20)
(1.0219 -0.000289266 0)
(1.03075 -0.000314406 1.77777e-22)
(1.03086 -0.000251759 -4.71118e-23)
(1.04953 -0.0110795 0)
(1.02955 -0.000552794 0)
(1.08194 -0.0228376 2.31044e-20)
(1.03053 0.00308643 0)
(1.10029 0.0559278 -4.65163e-20)
(1.02833 -0.0011812 -2.62757e-22)
(1.03354 -0.000140302 0)
(1.03089 9.76781e-05 7.56992e-23)
(1.0887 0.0354427 -2.09758e-20)
(1.092 0.0126619 0)
(1.03205 -0.00387815 -9.14298e-22)
(1.02548 -0.0212482 2.57138e-22)
(1.12895 0.0317577 4.86483e-20)
(1.04998 -0.0141986 -3.57366e-21)
(0.457521 -0.0361285 0)
(1.03253 -0.00554983 2.68083e-22)
(1.14103 0.00582509 1.96957e-20)
(1.06211 0.00723712 0)
(1.03352 5.52555e-06 1.53425e-24)
(1.05611 -0.00331755 3.05345e-21)
(1.06494 -0.0018877 0)
(1.11214 0.0488475 2.93454e-20)
(1.0355 -0.000633028 1.18012e-22)
(0.618222 -0.0136745 9.20137e-21)
(0.012611 0.0186548 -3.3747e-20)
(0.151351 -0.0220637 0)