/*--------------------------------*- C++ -*----------------------------------*\
| =========                 |                                                 |
| \\      /  F ield         | OpenFOAM: The Open Source CFD Toolbox           |
|  \\    /   O peration     | Version:  v2012                                 |
|   \\  /    A nd           | Website:  www.openfoam.com                      |
|    \\/     M anipulation  |                                                 |
\*---------------------------------------------------------------------------*/
FoamFile
{
    version     2.0;
    format      ascii;
    class       volScalarField;
    location    "50";
    object      epsilon;
}
// * * * * * * * * * * * * * * * * * * * * * * * * * * * * * * * * * * * * * //

dimensions      [0 2 -3 0 0 0 0];


internalField   nonuniform List<scalar> 
13917
(
0.00563848
1.40459e-06
1.58982e-05
1.51065e-06
1.10889e-06
1.39299e-06
1.59398e-06
2.33168e-06
1.67644e-06
0.0050653
2.18725e-06
1.39628e-06
1.74225e-06
0.00256631
1.25104e-06
0.00685488
7.98015e-07
1.69815e-06
3.36049e-06
0.00654828
1.44758e-06
1.09176e-06
1.77705e-06
1.08887e-06
1.44839e-06
1.45124e-06
0.00165234
0.00809758
1.51958e-06
7.55573e-07
0.00557557
2.12636e-06
1.44701e-06
0.00455313
8.3782e-07
1.834e-06
1.33547e-06
1.17541e-06
1.59866e-06
1.55854e-06
9.31156e-07
7.52403e-07
1.66057e-06
3.15366e-06
3.14043e-06
0.000182403
1.43523e-06
0.0234458
4.87587e-05
8.42746e-07
1.39602e-06
3.38505e-06
0.0136365
1.2638e-06
1.28613e-06
3.4138e-06
0.00348426
1.77367e-06
7.51401e-07
0.000135425
0.0174727
8.55785e-07
7.80558e-07
1.45067e-06
0.00429992
7.57955e-07
1.56048e-06
2.00025e-06
2.16625e-06
0.00625472
0.00330038
0.00454044
1.57269e-06
7.50145e-07
1.4614e-06
1.41248e-06
1.09602e-06
7.50177e-07
1.41273e-06
1.44511e-06
1.20813e-06
8.02744e-07
1.58067e-06
0.00357677
1.22307e-06
3.73414e-05
2.07942e-06
1.22753e-06
1.54483e-06
7.8774e-07
7.6912e-07
1.66507e-06
0.000252985
8.00606e-07
1.27534e-06
1.56497e-06
0.0021763
8.44343e-07
1.2302e-06
3.67314e-06
8.06626e-07
8.03987e-07
1.21532e-06
7.97967e-07
1.09025e-06
0.00422818
0.00387644
8.62442e-07
7.56159e-07
0.00260924
1.63197e-06
0.00454912
1.52439e-06
0.0247075
0.00426817
1.40384e-06
3.08763e-06
7.64077e-07
7.61543e-06
1.61894e-06
7.95975e-07
7.49971e-07
1.63667e-06
2.68107e-06
0.00624302
0.00401102
1.457e-06
1.47621e-06
9.17362e-07
2.69883e-06
1.70749e-06
5.0567e-06
0.0064365
1.39951e-06
2.35957e-06
0.00380866
0.0133254
0.00657542
1.46342e-06
1.27324e-06
0.000672471
7.50123e-07
0.0040793
1.08318e-06
1.54941e-06
7.87547e-07
0.00325169
0.000345551
0.0172981
1.27163e-06
1.51571e-06
7.93601e-07
1.55319e-06
1.63264e-06
0.00354586
1.04004e-06
7.95947e-07
0.00659353
7.87291e-07
7.72452e-07
1.16331e-06
0.00416268
1.31929e-06
0.000534784
0.00647973
6.64741e-06
0.0194952
0.0264797
7.5837e-07
1.48179e-06
1.07623e-06
0.00596877
1.68242e-06
0.00994086
2.0707e-06
8.10564e-07
1.51734e-06
4.14292e-06
1.70329e-06
1.32236e-06
1.64604e-06
1.07203e-06
1.38314e-06
1.97931e-05
7.73301e-06
2.01862e-06
1.38159e-06
5.53494e-06
7.56379e-07
1.75932e-06
2.0625e-06
2.85958e-06
4.78432e-06
0.00547569
8.06739e-07
0.00605907
1.49233e-06
0.00641703
8.34436e-07
1.04093e-06
1.42097e-06
0.00603422
0.00754574
1.30082e-06
0.000924484
1.4021e-06
1.52679e-06
7.50145e-07
3.96133e-06
1.20132e-06
8.92887e-07
1.1472e-06
1.15797e-06
0.0178663
2.30501e-06
1.46576e-06
0.00436041
1.09626e-06
7.59195e-07
7.59631e-07
0.0269467
4.63487e-06
0.000147375
1.49414e-06
8.05085e-07
0.00515923
0.00670577
7.59252e-07
7.59187e-07
9.66477e-07
7.5946e-07
7.59751e-07
0.00455613
0.00792686
1.14957e-06
7.53598e-07
2.20545e-06
0.00472679
8.06642e-07
1.48367e-06
0.00139235
0.00428213
1.46991e-06
0.00437411
2.67402e-06
1.09222e-06
0.0207282
2.24783e-06
1.49565e-06
2.26247e-06
1.30022e-06
0.00961134
1.60685e-06
1.63671e-06
1.95097e-06
1.14192e-06
1.01052e-06
1.45796e-06
1.06667e-06
7.88764e-07
0.00524648
0.000485186
7.51384e-07
7.58418e-07
1.04675e-06
7.58156e-07
1.61635e-06
1.62867e-06
1.65101e-06
7.51534e-07
0.00604131
0.00386663
1.33726e-06
1.06235e-06
0.000589738
7.51842e-07
2.90894e-06
0.00513872
7.52177e-07
0.00522223
7.84305e-07
0.0041262
8.14261e-07
1.22771e-06
1.13999e-06
1.05637e-06
5.19583e-06
9.62797e-07
3.11963e-05
1.49202e-06
0.000580901
7.99169e-07
0.000279208
0.00687327
7.74914e-07
1.83022e-06
1.08345e-06
1.39359e-06
1.10108e-06
1.42021e-06
7.92442e-07
9.39811e-07
4.00428e-06
4.60328e-07
1.62668e-06
1.41866e-06
1.45945e-06
0.00656935
0.00773223
8.93362e-07
7.95787e-07
1.39938e-06
3.677e-06
3.85797e-06
0.00393929
0.00680647
7.5787e-07
2.85716e-06
1.05423e-06
0.00319779
5.19346e-06
1.7206e-05
1.65893e-06
1.24289e-06
0.00101914
1.06834e-06
1.43535e-06
2.84775e-06
8.07936e-07
0.00591272
1.22236e-06
1.82946e-06
7.66808e-07
0.0148991
9.17773e-07
1.60967e-06
1.41481e-06
7.57949e-07
7.81935e-07
2.27298e-06
0.00355998
1.28382e-06
1.06192e-06
0.00466178
0.00373916
0.0036872
0.00221663
7.53865e-07
1.17273e-06
0.00451241
2.97793e-06
7.54743e-07
1.09322e-06
1.32877e-06
1.6792e-06
1.62193e-06
3.31612e-06
2.56524e-06
2.94423e-06
1.80562e-06
0.00435913
9.22276e-07
1.29046e-06
1.11867e-06
6.40014e-06
8.07776e-07
0.0062296
1.80746e-06
1.52126e-05
1.27929e-06
3.66242e-06
7.95536e-07
0.000972803
7.52788e-07
0.000168342
0.000603412
1.43289e-06
1.33792e-06
0.00183493
7.61684e-07
0.00930191
5.33392e-06
7.56905e-07
0.000317012
1.13656e-06
4.99015e-07
7.72562e-07
0.00582549
1.38385e-06
1.34714e-06
0.00490985
2.41012e-06
1.29342e-06
0.00414696
1.05102e-05
1.35715e-06
5.50689e-06
1.19023e-06
2.44231e-06
1.38597e-05
1.2242e-06
1.6252e-06
1.42687e-06
1.068e-06
1.01983e-06
9.36364e-07
0.0128047
2.96538e-06
1.28779e-06
9.28364e-07
1.08339e-06
1.7957e-06
2.33598e-06
7.63978e-07
7.58932e-07
3.81074e-06
3.60982e-06
1.06061e-06
1.34988e-06
0.0034775
0.00621318
7.57416e-07
3.60214e-06
0.00255658
7.58617e-07
7.58494e-07
1.40679e-06
1.0162e-06
7.65083e-07
1.15068e-06
7.59577e-07
7.59492e-07
0.0194318
1.19634e-06
1.59473e-06
0.00587421
1.81815e-06
8.96572e-07
1.54545e-06
0.00411999
1.41418e-06
0.00704809
7.68598e-07
1.40812e-06
7.60873e-07
7.59572e-07
1.32842e-06
1.12857e-06
0.00326059
7.4831e-07
0.0045462
1.4033e-06
1.70359e-06
7.21525e-07
1.1935e-06
2.66378e-06
0.0036707
1.3305e-06
0.00482481
9.07672e-07
1.00565e-06
1.07822e-06
1.14366e-06
8.8179e-07
1.17565e-06
0.00648126
0.0153692
8.7546e-07
0.000409823
3.71819e-06
1.51468e-06
1.87992e-06
2.28922e-06
0.00420708
1.63972e-06
0.00428357
2.0568e-05
1.97709e-05
1.13522e-06
7.5793e-07
6.5874e-07
1.29314e-06
0.0027017
7.7014e-07
1.26675e-06
1.28238e-06
1.64349e-06
1.46258e-06
6.16177e-06
1.89316e-06
7.711e-07
1.06739e-06
1.71854e-06
1.76382e-06
1.28368e-06
0.00221298
1.66491e-06
1.49745e-06
0.0100151
1.22456e-06
1.8092e-06
4.53317e-06
9.51808e-07
0.00642571
1.01358e-06
7.59782e-07
1.81097e-06
7.69893e-07
1.07849e-06
3.86165e-06
0.00705082
0.00617067
1.16748e-06
1.56761e-06
7.62358e-07
0.00225982
0.00161928
1.27081e-06
1.2797e-06
1.16304e-06
1.88208e-06
0.000341628
9.03486e-07
8.09389e-07
1.03433e-06
1.07348e-06
9.30613e-07
1.54713e-06
7.75599e-07
1.89804e-06
9.49225e-07
1.09771e-06
1.42559e-06
0.00406368
7.476e-07
1.58522e-06
7.93632e-07
1.69512e-06
2.0386e-06
1.70942e-06
1.98959e-06
3.72131e-06
1.40664e-06
1.64026e-06
0.00627158
0.0132496
0.00580931
8.69538e-07
1.06396e-06
8.04701e-07
1.37926e-06
0.00441989
7.53034e-07
0.000244679
1.4965e-06
0.0054425
3.61004e-06
1.65108e-06
0.0221294
8.69356e-07
2.09391e-06
8.44709e-07
7.81516e-07
0.00562492
7.67682e-07
1.16027e-05
7.98889e-07
1.56483e-06
1.06916e-06
5.59547e-06
9.28735e-07
7.59512e-07
3.19367e-06
1.86695e-06
0.00031795
0.00279427
0.00673525
0.00436503
7.4787e-07
0.0067347
7.66145e-07
0.014003
0.000448928
7.82543e-07
8.02623e-07
7.95303e-07
1.65776e-06
1.64767e-06
7.69205e-07
8.3701e-07
1.57132e-06
0.00232349
1.19565e-06
2.02363e-06
1.25902e-06
7.60467e-07
7.7841e-07
4.74408e-06
0.00354712
0.0248416
2.15991e-06
1.55079e-06
0.00122153
0.00472552
7.70955e-07
0.00330071
1.60262e-06
2.90992e-06
1.36825e-06
0.00158848
1.06494e-06
9.39789e-07
1.55861e-06
0.000348294
1.66178e-06
0.00440777
7.67199e-07
1.63928e-06
8.69697e-07
8.53692e-07
0.00429062
1.763e-05
8.63773e-07
3.79631e-06
1.46617e-06
7.77155e-07
8.07402e-07
0.00431834
1.19768e-06
1.0756e-06
7.52886e-07
8.62385e-07
6.43329e-06
8.04575e-07
3.41464e-06
8.16701e-07
9.32946e-07
0.0165642
2.05415e-06
1.26752e-06
0.0157816
8.3117e-06
2.48247e-06
4.74965e-06
8.63454e-07
1.25834e-06
0.00403215
1.25634e-05
1.39872e-06
1.34092e-06
9.40473e-07
8.12483e-07
9.61497e-07
7.57855e-07
2.13357e-06
1.45921e-06
0.0177511
1.67231e-06
2.85876e-06
0.00191952
1.01907e-06
1.60709e-06
4.62242e-06
0.00496137
7.98373e-07
1.04664e-06
7.59617e-07
9.396e-07
7.66241e-07
7.7455e-07
7.76368e-07
1.11957e-06
0.00646092
1.75557e-06
8.35262e-07
2.63653e-06
7.67086e-07
0.00399973
7.80941e-07
9.09929e-07
0.00691061
1.97743e-06
9.01737e-05
1.54143e-06
7.6626e-07
8.78682e-07
1.56163e-06
1.6078e-06
1.03181e-06
0.00682494
1.51087e-06
0.000224359
9.6499e-05
1.04806e-06
0.00679891
1.56034e-06
8.1734e-07
8.66885e-07
0.00511589
0.00581974
1.49122e-06
0.00658762
0.000731126
9.23799e-07
8.98199e-07
1.32164e-06
0.00397326
5.17434e-05
1.6616e-06
1.55507e-06
1.58217e-06
2.97671e-06
1.05206e-06
3.32002e-06
1.75433e-06
1.26809e-06
1.44288e-06
8.26695e-07
1.60275e-06
1.05983e-06
1.94323e-05
1.38779e-06
7.82682e-07
0.00657505
7.76321e-07
0.000622693
1.34095e-06
1.34881e-06
1.51789e-06
1.07568e-05
7.86325e-07
2.04154e-06
0.00339768
7.70143e-07
1.39742e-06
1.3941e-06
1.163e-06
1.35308e-06
1.57508e-06
1.20065e-06
7.2461e-07
2.73115e-06
3.40966e-06
8.51988e-07
7.65851e-05
1.67222e-06
1.64052e-06
3.92401e-06
1.17218e-06
2.09001e-06
0.000697071
7.59222e-07
1.98377e-06
2.33885e-06
1.74541e-06
9.42994e-07
8.94793e-07
9.56007e-07
0.00710996
1.43935e-06
7.78314e-07
1.81682e-06
1.03744e-06
9.00102e-07
3.18357e-06
0.00030231
1.31832e-06
0.00626239
1.62868e-06
0.00469446
1.58481e-06
1.10006e-06
0.000779636
7.82356e-07
1.02458e-07
7.8736e-07
7.67355e-07
1.51439e-06
1.38302e-06
1.76158e-06
9.40792e-07
7.7818e-07
1.00635e-06
0.00050555
1.34716e-06
1.6442e-06
7.66912e-07
2.2734e-06
1.2362e-06
0.00403436
1.36773e-06
7.96016e-07
0.00398892
1.43406e-06
0.00528861
1.65662e-06
2.15112e-06
1.05879e-06
8.46095e-07
1.39904e-06
0.00558625
1.59217e-06
2.52747e-06
0.00570076
1.35229e-06
1.74508e-06
7.54773e-07
8.60672e-07
0.000191665
7.53682e-07
0.0156521
1.5978e-06
2.52169e-06
3.02351e-06
1.87382e-05
7.42289e-07
7.79963e-07
2.87269e-06
8.57411e-07
1.2485e-06
1.36419e-06
1.04995e-06
1.81592e-06
7.41687e-07
2.02048e-06
1.26064e-06
0.00590389
0.00541219
4.09555e-06
0.00478686
0.00581213
0.00711454
3.39922e-06
8.85219e-07
7.7399e-07
1.43547e-06
1.39613e-06
1.15908e-06
1.59846e-06
1.1813e-06
2.36055e-06
1.2553e-06
0.00154575
1.44055e-06
1.72532e-06
2.50263e-06
8.5519e-07
1.58186e-06
1.43105e-06
7.85775e-07
1.54884e-06
7.61969e-07
0.00711851
2.24029e-06
8.05588e-07
8.86195e-07
1.61667e-06
1.0688e-06
1.01231e-06
0.00728499
8.97947e-07
3.07199e-06
1.06585e-06
2.23001e-05
1.20507e-06
1.11709e-06
2.06766e-06
8.79255e-07
9.02713e-07
0.000103174
0.00309591
1.28749e-06
2.27554e-06
8.38456e-07
3.74716e-06
7.64117e-07
1.02024e-06
0.0045231
7.95655e-07
1.50774e-06
2.61511e-06
0.00471359
7.71063e-07
3.48744e-05
0.00135826
7.53587e-07
1.09919e-06
1.05509e-06
0.00218024
1.59245e-06
3.51834e-06
1.4232e-06
0.00655922
1.22072e-06
0.00217615
9.34236e-07
7.59561e-07
3.86362e-06
1.19503e-06
7.74034e-07
0.00611151
1.32277e-06
9.9934e-07
1.66562e-05
7.54128e-07
7.72277e-07
2.12734e-06
1.35056e-06
0.00447483
1.57535e-06
2.27723e-06
4.7604e-06
1.57271e-06
0.00625309
1.26658e-06
2.04517e-06
1.44579e-06
0.00555266
2.52434e-05
1.56592e-06
7.64816e-07
7.81152e-07
1.27954e-06
7.62456e-07
7.52001e-07
7.55179e-07
1.41274e-06
1.54173e-06
7.61174e-07
1.32297e-06
2.20031e-06
0.00586288
0.00410926
2.43401e-06
1.07573e-06
4.18026e-06
1.16849e-06
0.000607868
0.000267533
0.0199042
7.58038e-07
8.90538e-07
1.3468e-06
1.1936e-06
7.58205e-07
7.60645e-07
1.24465e-06
1.61858e-06
1.00677e-06
0.0116807
9.59503e-06
9.79436e-07
0.00553641
1.45097e-06
9.4304e-07
8.55944e-07
0.00431242
1.83247e-06
7.76393e-07
7.61196e-05
8.38989e-07
9.22199e-07
0.000266159
7.768e-07
0.00549811
1.51391e-06
3.5788e-05
9.04696e-07
7.50297e-07
1.42738e-06
1.73496e-06
1.40899e-06
0.00473706
9.97477e-07
1.00953e-06
1.09972e-06
1.60283e-06
8.88126e-07
2.63504e-06
1.75804e-06
1.4531e-06
0.00520602
0.00822022
1.35128e-06
2.79172e-06
7.5241e-07
0.0054467
7.49978e-07
0.00446866
1.93726e-06
1.63059e-06
1.40103e-06
0.00245829
0.00620145
0.00209601
7.8078e-07
0.000429751
7.6262e-07
1.18798e-06
1.76843e-06
1.25381e-06
1.41634e-06
6.40386e-05
0.00501201
7.50098e-07
1.69892e-06
0.00480492
7.99655e-07
7.58867e-07
0.000155315
0.00410903
1.39601e-06
7.69241e-07
1.58865e-06
1.52501e-06
9.09804e-07
1.19334e-06
1.29101e-06
1.44538e-06
0.000245234
7.83184e-07
1.59908e-07
0.000255281
9.52156e-07
0.00538492
1.54779e-06
1.43328e-06
7.96598e-07
0.00467704
4.50457e-07
8.02177e-07
1.41645e-06
1.62181e-06
1.51079e-06
7.7092e-07
0.00406121
7.80948e-07
1.05459e-06
1.87712e-06
1.07222e-06
7.6933e-07
2.23056e-06
3.37435e-06
2.03497e-06
0.000643316
6.30284e-05
0.00305638
0.00536091
1.16272e-06
0.000580386
7.57583e-07
1.86323e-06
2.20768e-06
0.000128698
1.53553e-06
7.81581e-07
1.49988e-06
3.50238e-06
1.30086e-06
0.00443288
1.61775e-06
2.40292e-06
0.00463836
7.67371e-07
2.87561e-06
1.3577e-06
1.19992e-06
9.20737e-07
2.87759e-07
7.63735e-07
8.29055e-07
1.40511e-06
0.00295067
9.8917e-07
1.31521e-06
1.65528e-06
1.2738e-06
1.31214e-06
2.51522e-06
2.18522e-06
1.06102e-06
8.74572e-07
2.93601e-06
8.188e-07
1.36319e-06
0.00638542
1.49992e-06
1.5351e-06
0.00631139
7.80717e-07
1.31509e-06
0.00537957
0.00540664
1.15936e-06
1.85792e-06
1.33707e-06
0.00792313
6.19342e-06
1.45222e-06
0.00292265
8.97564e-07
2.25623e-06
0.00466885
8.08304e-06
0.000305969
0.00163347
7.60444e-07
1.09271e-06
1.53827e-06
1.31643e-06
1.09455e-06
2.07698e-05
7.85841e-07
1.7213e-06
7.52838e-07
1.998e-06
0.00416914
1.3433e-06
0.00243261
0.00512648
1.51901e-06
2.29883e-06
1.28788e-06
1.34464e-06
1.34327e-06
0.0055768
2.13893e-06
0.00472731
1.44327e-06
0.0240144
2.35503e-06
7.66786e-07
6.23612e-06
1.62884e-06
7.88352e-07
1.10821e-06
6.95511e-05
1.35244e-06
1.38938e-06
1.45491e-06
1.28689e-06
1.62881e-06
1.90823e-06
0.0019169
1.1673e-06
2.41326e-06
5.08491e-05
1.24049e-06
1.1526e-06
7.89383e-07
0.00197796
0.000646017
8.256e-07
1.71965e-06
7.94867e-07
2.16293e-05
0.00761646
1.41792e-06
9.71971e-07
7.60571e-07
1.61337e-06
1.3506e-06
1.31479e-06
0.00227085
1.02625e-06
1.57274e-06
2.2253e-07
7.96422e-07
2.42215e-06
0.00414881
0.0233181
1.55747e-06
9.14294e-07
9.73662e-07
1.31652e-06
2.1884e-06
0.00701772
7.93608e-07
2.54239e-06
1.40558e-06
1.84485e-06
1.64062e-06
7.67345e-07
1.37567e-06
3.08808e-06
8.20863e-07
3.67163e-06
7.72055e-07
7.87047e-07
1.57262e-06
0.00489288
1.76334e-06
2.88302e-07
0.00799534
3.70168e-06
8.85045e-07
0.000445361
1.13214e-06
1.29583e-06
0.00356872
0.000157354
8.19131e-07
1.15339e-06
2.98002e-06
1.49192e-06
1.455e-06
7.42369e-07
1.15604e-06
8.84468e-07
1.37038e-06
1.5488e-06
1.70747e-06
0.00582981
1.50304e-06
1.54675e-06
1.68233e-06
2.30702e-06
8.63009e-07
1.45415e-06
0.000101209
9.46846e-06
0.00387181
1.27046e-06
7.47034e-07
0.00554972
9.90206e-07
3.91729e-07
1.47762e-06
1.59353e-06
1.33131e-06
9.92361e-07
0.000292493
1.51989e-06
1.25075e-06
1.61538e-06
0.00248177
0.000651037
0.00479668
1.00631e-06
1.10749e-06
0.00107991
7.70471e-07
7.56265e-07
3.55331e-06
0.000286585
1.44585e-06
1.64322e-06
1.45633e-06
0.00279888
1.32176e-06
1.15535e-06
1.63852e-06
7.50367e-07
9.41154e-06
1.30788e-06
8.79572e-07
8.92164e-05
1.98026e-06
0.00213554
1.08921e-05
1.26669e-06
1.624e-06
9.06076e-07
8.7331e-07
1.09142e-06
1.37183e-06
1.32658e-06
7.35438e-06
1.41185e-06
2.09436e-06
9.14614e-07
7.90535e-07
1.53242e-06
7.71072e-07
9.30237e-07
0.00580313
7.66469e-07
2.80773e-06
2.12531e-06
1.39662e-06
1.87199e-06
1.64528e-06
1.62417e-06
1.27177e-06
8.71326e-07
9.57173e-07
7.82922e-07
7.87217e-07
1.36307e-06
8.20919e-07
7.92792e-07
8.46822e-07
7.64641e-07
1.7855e-06
1.08182e-06
0.00429208
1.73189e-06
7.50864e-07
1.41778e-06
7.59861e-07
1.72135e-06
5.50049e-07
0.00612787
4.08976e-07
7.67261e-07
7.82373e-07
2.60425e-06
1.224e-06
0.00388891
7.51335e-07
7.64986e-07
1.44167e-06
8.31649e-07
7.64835e-07
0.00476237
1.18521e-06
8.04784e-07
3.6268e-06
9.02764e-05
0.00822599
7.9648e-07
1.51167e-06
3.2711e-06
6.65857e-07
7.50984e-07
0.00395117
1.4663e-06
8.08275e-07
0.00130045
7.51371e-07
0.00480637
7.307e-07
1.05918e-06
1.41046e-06
7.51322e-07
0.0066029
7.7982e-07
7.43102e-07
2.22777e-06
1.26667e-06
8.94827e-07
7.73552e-07
7.49415e-07
1.80875e-06
1.49169e-06
1.0599e-06
8.5803e-07
0.00043435
1.0993e-06
8.70921e-07
8.77052e-07
1.39145e-06
1.39573e-06
1.59378e-06
1.02802e-06
7.75435e-07
1.50825e-06
1.20864e-06
1.31649e-06
1.34897e-06
1.6857e-06
7.57572e-07
2.27463e-06
1.08434e-06
1.4722e-06
8.12946e-07
1.33023e-06
1.04695e-06
7.66725e-07
1.51134e-06
1.21223e-06
1.64617e-06
0.0023153
7.32489e-07
0.00639274
0.00418271
2.29402e-06
0.00500244
1.1078e-06
1.34823e-06
0.000373236
0.00379285
7.64697e-07
0.00486207
7.74632e-07
3.43597e-06
0.000781287
1.57026e-06
2.31793e-06
0.00283204
0.0039273
7.87486e-07
1.82943e-06
9.85489e-07
1.65733e-05
1.56803e-06
0.00529002
0.00539665
1.35525e-06
1.18806e-06
2.93027e-05
8.03655e-07
0.00206049
7.68811e-07
1.36443e-06
1.04156e-06
7.63194e-07
0.00525873
7.50439e-07
1.69098e-06
1.19562e-06
0.000105315
3.93548e-06
1.26191e-06
8.20036e-07
0.00161734
8.61539e-07
1.53099e-06
1.51301e-06
8.34659e-07
0.00146078
1.21764e-06
1.58764e-06
0.005467
1.37523e-06
1.69388e-06
1.59189e-06
7.62128e-07
1.81398e-06
2.20683e-05
7.99106e-07
1.60217e-06
7.84558e-07
8.10709e-07
1.66274e-06
1.2646e-06
0.00258416
1.34501e-06
8.44251e-07
1.18074e-06
6.53149e-07
1.02996e-06
0.00011592
0.0028337
9.49206e-05
1.01937e-06
8.40878e-07
1.30483e-06
1.24437e-05
1.25685e-06
0.00344075
7.92281e-07
0.00348546
1.33675e-06
7.84316e-07
0.00018244
1.23337e-06
7.89406e-07
0.00521639
3.03792e-06
0.00468147
7.81326e-07
0.00536495
0.00576197
1.17868e-06
0.00485993
1.19015e-06
1.21538e-06
0.0210093
1.23066e-06
1.43594e-06
0.00467781
1.35091e-06
2.06138e-06
1.54886e-06
0.00234293
1.48686e-06
0.000100224
1.31895e-06
0.00516992
1.51249e-06
1.57442e-06
1.05165e-06
0.00046668
8.51249e-07
7.4769e-07
1.8703e-06
0.00244253
1.25951e-06
1.39964e-06
0.00582783
2.31953e-06
0.000877085
2.18476e-06
8.06746e-07
3.00142e-06
0.00316427
1.28001e-06
0.00141952
7.61986e-07
4.51174e-06
0.00641196
8.50319e-07
0.00748044
1.42727e-06
0.00501713
0.00111454
1.39762e-06
1.09318e-06
0.000115069
0.000491245
1.60054e-06
1.47179e-06
8.33079e-07
1.21829e-06
0.00417122
1.94491e-06
0.000132063
9.88226e-07
1.49545e-06
0.00490772
7.73128e-07
1.97878e-05
0.00180648
1.22559e-06
1.46968e-06
7.18474e-06
0.00321008
0.0016083
0.000752174
7.57086e-06
1.52184e-06
1.34807e-06
0.00549328
0.00469803
0.000329104
1.03512e-06
2.2441e-06
1.71e-06
2.03227e-06
1.31327e-06
1.65519e-06
1.85849e-06
3.81684e-06
0.000347214
7.56092e-07
0.000474705
0.0053287
1.47571e-06
1.53286e-06
1.52629e-06
2.67377e-06
8.33678e-07
0.00669099
1.49288e-06
7.66277e-07
1.615e-06
6.07152e-07
8.62878e-07
1.62825e-06
1.6187e-06
1.32944e-06
0.00648782
7.77063e-07
0.00694811
7.79163e-07
0.00474436
0.00044847
7.63382e-06
7.66848e-07
1.42842e-06
1.3584e-06
0.000178137
3.02264e-06
2.1011e-06
0.00419954
0.00128561
7.53147e-07
1.45495e-06
7.85177e-07
3.52696e-06
0.00687904
7.76464e-07
8.47579e-07
1.39398e-06
0.000388144
0.000205826
7.94275e-07
1.69053e-06
1.20442e-06
1.0097e-06
6.38935e-07
1.30781e-06
0.0068135
1.20961e-06
3.69461e-05
0.00366622
1.58124e-06
1.28659e-06
0.00130856
1.13999e-06
1.50367e-06
0.00390968
1.64395e-06
2.40029e-06
1.73216e-06
1.96593e-06
0.00298973
0.00520775
1.53006e-06
0.00195485
0.000787048
7.53088e-07
3.8029e-06
2.0187e-06
2.91681e-06
0.00234037
4.79615e-05
0.000789014
2.87599e-06
0.00388563
1.45114e-06
2.13074e-06
7.71872e-07
1.54336e-06
1.32802e-06
9.58077e-07
0.000206208
3.53871e-06
7.65358e-07
1.45048e-06
6.03408e-06
1.13656e-06
0.00031496
0.00440017
7.55499e-07
1.25269e-06
7.78291e-07
1.2649e-06
1.80903e-06
1.48456e-06
0.0251444
1.61374e-06
2.05011e-06
1.27894e-06
2.00586e-06
1.34464e-06
1.31626e-06
0.000311528
1.31962e-06
1.272e-06
7.61968e-07
7.88644e-07
0.00577197
2.70802e-06
1.39184e-06
0.0220227
9.93078e-07
1.19453e-06
1.36785e-06
7.79373e-07
7.53722e-07
2.06875e-06
1.51089e-06
0.00444348
0.00224914
0.0100397
1.61627e-06
0.00633631
1.26654e-06
0.000430902
8.51162e-07
4.23745e-06
0.00248347
1.04433e-06
0.000291346
0.00488144
1.42416e-06
1.18973e-06
7.65616e-07
1.42315e-06
0.00347288
8.22254e-07
1.50255e-06
9.64537e-07
1.20268e-06
7.22254e-06
1.43987e-06
1.49486e-06
1.18894e-06
8.72876e-07
0.0014285
1.60752e-06
1.1543e-06
3.55178e-06
2.58088e-06
0.00536491
0.00180992
1.18268e-06
1.21275e-06
0.00397884
1.30141e-06
2.03469e-06
1.58789e-06
0.00425318
8.98194e-07
1.03358e-06
1.12383e-06
0.00409745
1.48718e-06
7.9301e-07
7.49593e-07
4.39773e-06
0.0101704
3.16241e-06
1.62569e-06
1.2311e-06
9.95907e-07
0.00559267
8.11573e-07
0.00201126
1.96248e-06
1.0012e-06
3.71203e-05
1.3335e-06
8.35704e-07
1.64393e-06
7.54203e-07
1.50628e-06
1.44222e-06
3.58029e-06
1.49761e-06
1.24824e-06
8.92176e-07
0.00441461
1.03754e-06
1.47685e-06
0.00506551
1.32957e-06
7.94505e-07
1.52381e-06
9.0517e-07
7.90172e-07
0.000311785
1.64219e-06
0.00276153
6.52385e-07
7.50474e-07
0.00573803
1.33835e-06
2.84634e-06
1.69823e-06
1.43178e-06
7.6715e-07
7.50532e-07
1.46645e-06
0.00178255
1.84315e-06
0.00588649
0.00394882
9.62993e-07
7.52688e-07
1.52642e-06
0.00133665
1.42702e-06
5.63237e-06
0.00530215
0.0037491
8.45018e-07
1.46425e-06
1.43406e-06
3.06087e-06
0.00566467
7.63579e-07
1.57175e-06
1.61501e-06
0.0260014
1.49589e-06
1.47783e-06
1.2511e-06
3.37061e-06
0.000996537
7.57806e-07
0.00412915
1.22599e-06
1.52221e-06
0.00308616
1.95013e-06
0.00588068
0.00208889
1.43789e-06
1.2229e-06
1.508e-06
1.3333e-06
1.2462e-06
1.67664e-06
1.58002e-06
7.77975e-07
1.53448e-06
2.86163e-05
0.0022199
8.15838e-07
2.93888e-06
0.00484075
0.00536891
7.75751e-07
1.40815e-06
8.25381e-07
0.00272247
2.00988e-06
1.01426e-06
0.00478465
2.13052e-06
7.51924e-07
0.00575415
1.43728e-06
1.16615e-06
8.84774e-05
1.04195e-06
9.66046e-07
8.31028e-07
7.54208e-07
1.02585e-06
7.48486e-07
0.00426092
7.66264e-07
1.12379e-06
2.22064e-06
1.64042e-06
1.27416e-06
3.94335e-06
1.24589e-06
1.61406e-06
1.35823e-06
1.33867e-06
7.68922e-07
7.68468e-07
0.000767262
0.00201833
1.27189e-06
0.00011339
1.23218e-06
0.00424178
0.00258991
0.00418964
9.13941e-07
1.34409e-06
1.44659e-06
1.17078e-06
7.83394e-07
7.79695e-07
7.07773e-06
2.009e-06
1.47117e-06
1.12117e-06
1.4807e-06
1.9828e-06
1.46631e-06
1.22602e-06
1.22029e-06
0.00593792
1.50432e-06
0.00756586
1.62587e-06
7.87175e-07
1.25503e-06
1.01983e-06
1.13178e-06
1.79206e-06
1.05021e-06
2.36493e-06
0.00447329
1.53473e-06
0.00547491
0.000413205
1.19188e-06
1.50052e-06
2.44054e-05
3.08773e-06
7.66722e-07
7.76705e-07
7.50466e-07
0.00395289
7.55416e-07
1.9119e-06
1.23155e-06
2.19344e-06
0.00223669
0.000689827
2.04847e-06
0.00667987
7.49455e-07
7.54876e-07
3.4805e-07
0.00298268
1.31471e-06
1.56097e-06
0.00195914
1.03643e-06
1.52634e-06
1.32241e-06
7.92158e-07
1.36951e-06
1.45916e-06
2.08715e-06
0.00422903
0.00444913
1.52981e-06
8.36211e-07
2.15943e-06
1.4147e-06
2.15789e-06
9.52627e-07
4.08267e-06
2.61055e-06
1.23382e-06
1.15984e-06
7.51199e-07
3.60664e-06
1.34617e-06
7.51274e-06
0.00165244
1.49142e-06
0.00338628
2.22235e-06
3.1314e-06
0.0046769
1.27781e-06
0.0039935
1.4052e-06
0.00600763
0.000250917
0.00397103
0.00434735
8.07909e-07
1.79975e-06
4.69768e-07
1.02069e-06
0.00480612
1.23863e-06
1.40601e-06
1.61422e-06
1.46466e-06
1.6564e-06
7.51529e-05
0.00136373
0.0202137
1.50635e-06
1.51779e-06
1.33872e-06
9.93e-07
1.56981e-06
3.8676e-06
2.4591e-06
0.00370479
1.65236e-06
7.66653e-07
8.46135e-07
1.12296e-06
9.92124e-06
1.29404e-06
1.10879e-06
1.43569e-06
2.40508e-06
1.66187e-06
1.45535e-06
1.30058e-06
0.00409638
1.48447e-06
1.666e-06
1.43726e-06
1.62093e-06
0.000360866
1.21598e-06
1.55623e-06
7.76711e-07
0.00319627
1.59949e-06
1.00834e-06
1.76416e-06
0.00460116
1.8515e-05
1.44251e-06
1.03333e-06
0.00493339
1.2406e-06
1.01776e-06
7.66741e-07
0.00142391
0.0015986
1.05475e-06
0.00223123
0.00369498
1.47925e-06
1.30147e-06
1.87048e-06
0.00691505
1.49699e-06
0.00552344
1.22475e-06
9.046e-07
7.99175e-07
0.00588945
1.63227e-06
7.74083e-07
0.00507499
1.36413e-06
1.33264e-06
0.00362764
0.00324635
2.0093e-06
0.000492851
1.61948e-06
1.47107e-06
0.00228467
1.02337e-06
1.25324e-06
1.56634e-06
1.70942e-06
1.41653e-06
1.30854e-06
1.62738e-06
9.63447e-07
0.00172263
1.4951e-06
0.00490555
1.51483e-06
0.00490047
0.00529913
1.52257e-06
1.4693e-06
1.60513e-06
0.000424749
7.0772e-06
2.00322e-06
0.00458159
0.00411839
0.00181252
8.47115e-07
0.00274394
0.00400806
1.31088e-06
0.00140657
1.22535e-06
1.02286e-06
1.61554e-06
1.24383e-06
1.29526e-06
1.6751e-06
0.00459509
1.25805e-06
6.34203e-07
0.0136179
0.00246068
0.00735086
0.0054454
1.20765e-06
0.00611534
2.93786e-06
2.2291e-06
8.3776e-07
1.03482e-06
2.09187e-06
0.00551006
1.05344e-06
0.00391034
0.0051956
9.15512e-07
1.47829e-06
7.78388e-07
2.38179e-06
1.23922e-06
2.11062e-06
0.00399091
8.02287e-07
1.55436e-06
9.20115e-07
1.40635e-06
2.78743e-06
0.00446986
1.43547e-06
0.00335254
3.01668e-06
1.18247e-06
7.59101e-07
3.65161e-06
7.97517e-07
0.000615826
0.00146326
0.00327042
0.00100199
0.00493628
1.02826e-06
0.00248991
0.00468542
4.1062e-06
0.00348121
7.95662e-07
1.30819e-06
1.39138e-06
1.59387e-06
0.00437134
1.9868e-06
1.45353e-06
1.48953e-06
3.1731e-05
0.00486372
8.41589e-07
7.75739e-07
0.00668088
0.00533236
1.53891e-06
1.4176e-06
2.83224e-06
1.40294e-06
1.52896e-06
0.00230375
1.12441e-06
1.71665e-05
7.75007e-07
0.00470391
1.04372e-06
2.03888e-06
4.48303e-06
9.95027e-07
7.57765e-07
0.0027691
0.00177058
9.98756e-07
1.31286e-06
4.63381e-06
8.82264e-06
0.00601353
0.00187501
1.44402e-06
1.24547e-06
6.07852e-05
1.57389e-06
1.19418e-06
1.93678e-06
7.46427e-07
7.6497e-07
0.00451948
1.50712e-06
2.54355e-06
1.54053e-06
9.96951e-07
8.39423e-07
7.4533e-07
1.48809e-06
1.48337e-06
0.00289114
1.5407e-06
0.00128533
0.00713467
1.6391e-06
2.12264e-06
0.00347088
0.00554896
0.00298062
7.63238e-07
1.54667e-06
1.58468e-06
1.43692e-06
2.05148e-06
8.75644e-05
1.50349e-06
0.00127338
0.0051855
1.4222e-06
2.61341e-06
2.20352e-06
2.84412e-06
3.12606e-06
1.48393e-06
3.57829e-06
4.07721e-06
4.78049e-06
5.71963e-06
3.26844e-06
2.33593e-06
1.0768e-06
1.1222e-06
1.62303e-06
2.58654e-06
1.07436e-06
0.000524955
0.00643785
1.27508e-06
0.00481914
7.54397e-07
7.69545e-07
9.78562e-07
0.00341273
1.4859e-06
1.29297e-06
2.1042e-06
0.0173166
0.00209149
1.25554e-06
1.3308e-06
1.5039e-06
0.0145871
3.55193e-05
1.6185e-06
0.000548472
0.00480272
2.83837e-06
0.0053409
2.58174e-06
1.67429e-06
0.00625905
7.56418e-07
0.00625717
0.00535477
1.32457e-06
2.03249e-06
2.62034e-06
1.20773e-06
8.36096e-07
0.000753391
0.000784686
7.49585e-07
7.49704e-07
0.00293045
0.000928568
2.18782e-06
1.31206e-06
2.87075e-05
3.79493e-06
0.00519589
0.00566968
1.4829e-06
1.47628e-06
1.47861e-06
1.09085e-06
0.00522116
0.00168221
0.0043172
2.44412e-06
0.000218522
0.000286122
1.03442e-06
1.03584e-06
0.00492544
7.83938e-07
0.00580342
7.86093e-07
0.00543791
1.48092e-06
1.237e-06
0.000819168
1.05303e-06
3.18312e-06
0.000144646
1.73796e-06
1.23811e-06
1.48023e-06
6.67753e-06
0.00465464
4.17591e-06
0.00504529
1.2496e-06
9.0508e-07
1.59229e-06
2.14931e-06
0.00682126
0.0209805
2.5882e-06
1.09996e-05
3.63558e-06
0.00276747
7.71382e-07
7.72904e-07
8.08783e-07
8.41439e-07
0.000207598
1.66605e-06
5.1581e-05
1.53939e-06
4.82784e-06
1.03397e-06
1.87473e-05
0.00181125
0.0146263
1.61198e-06
1.46363e-06
7.53447e-07
0.00486105
7.94455e-07
0.000505483
0.000167706
3.52053e-06
0.000145277
7.5061e-07
1.6932e-06
4.04642e-06
0.000258528
0.000848988
1.36412e-06
4.0571e-06
1.1872e-06
9.10466e-07
2.73623e-06
0.00176218
0.000738121
1.16553e-06
2.33437e-06
1.71066e-06
0.00719695
0.00601862
0.0051276
0.00488621
8.81568e-07
1.90796e-06
9.75311e-07
4.26179e-06
8.19286e-07
2.96551e-06
1.1753e-06
1.77432e-06
1.96788e-06
0.000136876
1.29037e-06
3.12873e-06
0.00529752
3.4215e-06
1.20291e-06
0.00435731
3.09623e-06
8.56276e-07
9.40998e-07
0.00453758
1.53621e-06
3.78078e-06
0.000614944
1.17348e-05
0.00488974
1.07839e-06
0.00388808
0.00439722
0.0020622
0.000131827
1.59276e-06
3.08316e-06
2.76523e-06
0.00488843
1.81442e-06
1.47971e-06
0.00141307
1.52452e-06
0.000469787
1.40419e-06
0.0173931
0.000292041
0.00180102
1.6515e-06
0.000485018
1.39052e-06
0.00437774
3.97373e-06
0.00191986
0.00766615
1.0337e-06
7.5509e-07
0.00479772
0.00607287
9.5111e-07
1.45834e-06
1.55582e-06
1.25227e-06
0.00375287
1.80505e-06
0.00540989
1.42648e-06
0.0055282
3.54606e-06
0.00120842
1.47335e-06
9.82218e-05
0.0169798
1.35139e-06
2.47807e-06
7.521e-07
1.52279e-06
1.49859e-06
2.1507e-06
1.12948e-06
1.582e-06
0.00610903
0.00287435
8.25396e-07
0.00647611
1.42019e-06
1.04159e-06
1.31683e-06
8.29035e-07
1.52539e-06
0.000683987
0.0061058
7.62491e-07
0.00437614
2.10889e-06
1.85722e-06
0.00146246
2.48742e-06
1.43172e-06
1.70598e-06
1.40435e-06
2.10904e-06
1.3217e-06
0.00662738
1.40394e-06
0.0038702
0.00108045
2.07353e-06
0.00166492
0.00566082
9.12252e-07
0.00504206
1.84134e-06
2.04525e-06
1.23778e-06
1.04544e-06
1.19573e-06
7.3247e-06
1.49216e-06
1.378e-06
1.56222e-06
0.00484704
4.66702e-06
0.00283319
6.50918e-06
6.04983e-06
0.00595263
1.30441e-06
8.12613e-07
2.04355e-06
1.38517e-06
1.47812e-06
1.48546e-06
1.41988e-06
1.02097e-06
1.26158e-06
1.38062e-06
1.53248e-06
1.39098e-06
1.39025e-06
1.25523e-06
1.27477e-06
2.91227e-06
1.39802e-06
0.00519532
1.41205e-06
1.27066e-06
2.68444e-06
1.80411e-06
1.12744e-06
9.97092e-07
0.00392686
1.64941e-06
0.00492352
1.63359e-06
3.20437e-06
1.36141e-06
1.00683e-06
3.06264e-06
0.00657015
2.17507e-06
1.44262e-06
7.62799e-07
0.00528214
1.50891e-06
1.22172e-06
2.30429e-06
1.55854e-06
4.5941e-06
0.00524182
2.79619e-06
0.00010993
1.55912e-06
0.00503777
1.11753e-06
1.39658e-06
1.92199e-06
1.27534e-06
1.99594e-06
2.77554e-06
0.00778352
1.41017e-06
1.39117e-06
1.58682e-06
2.51218e-05
2.00523e-06
1.50115e-06
2.92744e-06
2.83218e-06
1.99839e-06