/*--------------------------------*- C++ -*----------------------------------*\
| =========                 |                                                 |
| \\      /  F ield         | OpenFOAM: The Open Source CFD Toolbox           |
|  \\    /   O peration     | Version:  v2012                                 |
|   \\  /    A nd           | Website:  www.openfoam.com                      |
|    \\/     M anipulation  |                                                 |
\*---------------------------------------------------------------------------*/
FoamFile
{
    version     2.0;
    format      ascii;
    class       volScalarField;
    location    "550";
    object      omega;
}
// * * * * * * * * * * * * * * * * * * * * * * * * * * * * * * * * * * * * * //

dimensions      [0 0 -1 0 0 0 0];


internalField   nonuniform List<scalar> 
13308
(
0.0568006
0.0355894
0.128924
0.0221056
0.0221407
0.0281738
0.0232452
0.0963363
0.0224515
0.0218588
0.0410794
8.32534
0.137946
0.0232528
0.0225553
0.0221177
0.0220403
0.0217083
0.0520783
0.0309704
0.0219596
0.0215798
0.0215694
0.657609
0.145657
0.0220556
8.45285
0.0215855
12.4274
0.0215878
0.301667
1.13473
0.16441
5.36104
0.0541285
0.0221375
0.0215644
0.0219409
0.0221025
0.0240795
0.0263429
0.023357
0.0919928
0.0269574
1.76259
13.6338
0.0219584
0.0220867
0.0266642
0.0222663
0.957635
0.0357037
0.0215867
16.9615
0.0279686
0.0232591
0.0254113
0.0219749
0.0218597
0.041716
0.0220701
0.0219803
0.0271223
0.0238935
0.0220256
0.0229822
0.0347806
5.61958
6.78198
0.0217021
0.0222035
0.0270167
0.0216068
0.0251349
0.0228615
0.0221313
5.61711
0.0501843
0.144195
0.0271348
0.0215349
0.0385563
0.0218717
0.0220097
1.65055
0.0231277
0.0218839
0.0370078
0.0385462
0.0219506
0.0218741
2.28325
0.0506965
0.0573733
0.0274974
0.047429
0.0215296
0.0883423
0.0269446
0.0414544
0.0429542
0.0220804
0.021959
0.0228539
0.0215944
0.0220027
0.095409
0.0407939
0.0307083
0.135548
0.0553514
1.28823
0.0218686
1.64627
0.0427306
0.151769
0.0270917
0.0318527
0.0243948
0.0559006
0.0272101
0.0220933
0.0221223
0.0230929
0.0903636
0.023377
1.52048
0.0221656
0.0222556
0.430812
0.124148
0.0300987
0.0221244
0.0396683
0.0221168
0.0269648
0.0225297
0.0219455
0.135346
0.0228267
0.154878
5.54549
4.73114
0.0307809
6.51933
0.0891171
0.026838
0.0216904
0.0220497
5.39989
1.76159
0.022526
0.0311804
0.0219425
0.0215939
0.0267005
0.0220289
0.0259431
0.0987576
4.42814
0.0519887
1.07733
0.0321863
0.0225352
0.0215314
0.106033
0.0327025
0.148334
0.11667
0.0623926
0.100268
0.0350385
1.73653
0.124454
0.0314249
0.0222476
0.025452
0.093872
0.0219923
0.0220047
0.0463162
0.0242577
0.022123
2.5523
0.0246334
0.022667
0.022119
0.0231193
0.0220059
0.0311825
0.0298908
0.0302876
0.108695
1.28774
0.0838335
0.11158
0.0519157
0.0221185
0.0219791
0.0924403
0.161387
0.032984
0.0391434
0.0230565
0.0353445
0.102165
0.0247889
0.0249844
0.0220562
0.027243
0.0413624
1.0558
0.0222139
0.333239
0.0379909
0.0392085
0.0215766
0.119488
0.0216814
0.0216986
0.0224699
0.0221413
0.0221624
0.0488552
0.0217219
0.104609
0.0320215
0.0222703
1.42615
0.0376942
0.027193
0.0221278
0.0219176
0.0230191
0.0295477
0.0234298
0.021614
0.0214885
0.0301132
0.0218757
0.0238658
0.0356956
0.0220991
0.0923258
0.034002
0.0244421
0.148454
0.0250779
0.0221183
0.0308507
0.0505235
0.0217154
0.0910199
0.0221748
0.0222368
0.0378196
0.0215944
0.0218714
0.0221093
0.031951
0.0411511
0.021587
0.0220549
0.0228883
4.55633
0.0219982
0.150128
0.0478907
1.72191
0.0486087
0.0215661
0.0385785
0.0229711
0.027177
0.107142
0.151763
0.021491
0.0275252
0.0855511
0.0255942
0.0232784
0.0221204
0.0741835
0.0605428
0.0572898
0.0221495
0.0221471
0.0624741
0.0218793
0.0297903
0.181538
4.82849
0.174929
4.76805
0.0373455
0.021559
0.02508
0.0221929
15.5324
0.0221063
4.71979
0.0279711
0.0409653
0.0217384
0.0520046
0.0220284
0.0472697
0.0411181
0.0229834
0.0216994
0.0344112
0.0459816
0.988565
0.0229427
0.0911512
7.37742
0.108432
0.0304933
0.0952904
0.0351136
0.0229962
0.0533206
0.0278304
0.021835
0.0385681
0.053863
0.0229345
0.0220052
0.0361941
0.0226438
0.0789489
0.111562
0.0337772
0.0241573
0.0329687
1.64409
0.0972506
0.0253741
0.0221206
0.0315508
0.160309
0.022159
0.0291796
0.0246052
0.035608
0.0221218
0.0237587
0.022407
0.0221905
0.676922
0.0255781
0.0234758
0.0370807
0.0252749
0.0648687
0.0225719
0.0378196
0.199346
0.0864333
0.0221146
0.0399066
0.0310199
8.60553
0.0234815
0.097143
0.0242698
0.035687
0.0974447
0.0222606
0.0347349
0.0839873
5.78263
0.0744907
0.112823
0.0308613
0.0246363
0.115869
0.0231415
0.087059
0.024873
0.0221206
0.0556173
0.0221764
0.0650333
0.0535872
0.0219926
0.0250169
0.0406731
0.0220881
1.51552
4.05021
0.0290757
0.0271291
9.53796
0.0293358
0.0597646
0.0220052
0.0244536
0.15283
5.2814
0.0570833
0.0412827
0.0219869
0.0520708
0.0292185
0.0215841
0.0226679
0.0220224
0.157857
0.0440446
0.0889327
4.80413
0.103392
0.0224288
1.16159
0.0277764
0.0591682
0.0220109
0.0218935
0.0243267
0.0281463
0.0221068
0.0572071
0.0291937
0.644281
0.0477409
0.0239467
1.27154
0.129907
0.145581
0.0228973
1.79607
4.25043
0.0409867
0.0217844
0.0512997
0.0218454
0.0228458
0.0273822
0.0255925
0.0219185
0.0219238
0.0221583
0.038657
0.0219194
5.46311
0.0841459
0.0220183
0.0249697
0.129112
0.0842316
0.0223579
0.0250695
0.0274717
0.0424478
9.20331
0.0220234
0.0227796
0.124134
0.081265
0.0241927
0.0448841
0.0278832
0.0221826
0.0242791
0.0338298
0.0219727
2.29345
0.027716
0.0224283
0.0353424
0.0240074
0.0560396
0.112376
0.021925
0.022217
0.0294857
0.0222213
0.0428432
0.0222924
0.0508143
0.0220268
0.0408779
0.0465518
0.0217718
0.990667
0.0241463
0.911591
0.0215655
0.0377687
0.0346468
3.26245
0.0219279
0.0560592
0.0257007
0.05221
0.083352
0.0220037
0.0226763
0.0223497
0.0254656
6.68162
0.0475065
1.1442
0.0391614
5.13957
0.0220285
0.0857263
0.0363339
1.27636
0.0241684
3.71823
2.42683
0.0440145
0.0250194
0.238733
0.245763
0.0221404
0.0551281
0.0238972
0.0572037
6.55571
0.0228984
0.122887
0.252244
1.19537
0.0800429
0.0459078
0.620225
0.056604
0.0219811
0.0221633
1.72724
0.0478821
0.0299615
0.0265312
0.0372301
0.0313921
0.127157
0.0221751
0.101721
4.74989
8.28854
0.0266107
0.0219839
0.0477797
0.0222125
7.67807
0.128877
0.0799828
0.0219477
0.0221243
0.105587
0.0219996
0.0582419
0.0214923
0.0589126
0.0219753
0.0906789
0.0215195
0.0218682
0.0220558
0.0526046
0.0247579
0.022108
0.0288844
0.0783155
0.055295
0.022261
0.0220356
1.44515
0.0218853
0.0221651
17.7089
0.0219411
8.49382
0.0271696
0.02226
0.0419735
0.0250185
0.0295709
0.0292392
0.0380595
0.0227101
0.0528602
0.021993
0.0336081
0.0221175
0.0642953
0.112439
0.0233041
0.0220818
0.0253296
0.0755078
0.0264531
0.0371536
0.0264864
0.051926
0.0275965
5.21188
1.19092
0.0220101
0.0219289
0.0219464
0.0233275
0.0252684
0.820389
0.0500138
0.0808689
0.0243598
0.0219289
0.0215152
0.0571022
1.51449
0.0248649
0.15259
0.0231818
0.021697
0.475824
0.143779
0.242607
0.0380153
0.052435
1.23786
0.218334
0.0220424
5.30526
0.0813423
0.0780402
0.0329063
4.2843
0.02326
0.0218926
0.0217009
0.0612685
0.0220782
0.0221062
0.0227092
0.0426357
0.280937
6.9568
1.05988
0.130786
0.0219527
0.0221559
0.0221108
0.0232351
0.0219972
0.0219636
0.0427134
0.0893262
0.0219577
0.759182
0.0216644
0.924695
0.038996
0.0228805
0.0220688
0.0217558
0.0408506
0.0240326
0.0243322
0.0229914
3.40011
0.0528102
0.0220571
0.0759364
0.0221149
0.022121
0.0219849
1.70324
0.0577592
0.0396515
0.0246723
0.0219804
0.0378221
0.0335545
0.021807
0.0279698
1.79815
6.71576
0.0475279
0.935156
0.0221375
0.0254291
3.20944
0.0221584
0.0531424
0.0281076
0.0218705
0.0227347
0.0251728
6.37463
0.0222702
0.0255978
0.0350591
0.122572
0.0214695
0.0220144
0.0306161
0.0217393
0.0316355
4.6337
0.0457546
0.021707
3.56961
0.127044
0.052306
0.0217367
0.122068
0.0315633
6.62944
0.0243047
0.0218924
0.0217137
0.0230484
0.0220083
0.0477
0.0232142
0.100878
0.0221511
0.0334491
5.09843
0.0218926
0.0216931
0.0458444
2.06942
0.0452739
0.0876436
0.0218092
0.022141
2.5487
0.0222611
0.0222364
0.0223726
4.89241
0.0585347
1.13019
0.0217847
0.0789132
0.0892282
0.0217614
0.0363444
0.0391673
0.0221471
0.0218086
0.0251027
0.034563
0.0651534
0.0250418
0.0887958
0.0221397
1.85395
0.0220111
0.081671
0.291991
0.0222178
0.124094
0.0288429
0.0221682
0.0280946
0.0696462
0.0218711
0.0218504
0.0221117
0.0221144
0.0254193
0.021973
0.466332
0.0312559
0.135114
0.0221796
0.0446139
0.0501517
4.81686
0.0340213
1.04502
1.28062
0.022292
1.57942
0.0235135
0.0217873
0.0219491
0.0250904
0.0218886
0.0229198
8.56351
3.81284
3.71401
0.0304049
0.0219972
0.0223698
0.021969
0.0250553
0.193522
0.0217438
0.0299718
0.0490997
5.30978
0.0222273
0.0219641
0.022172
0.0217179
0.022154
0.0221176
0.0804809
0.0219251
0.0240018
0.0218948
0.125534
0.0252574
1.26753
0.0243626
0.215941
0.0410809
0.0227121
0.025768
0.0266289
0.0218992
0.0286833
0.0231632
0.086201
0.0825227
4.66944
0.0537924
0.0221224
0.0221184
0.024421
0.0217308
0.0585112
0.0221134
0.559118
0.0373228
0.0494988
0.0403669
0.0241454
0.0217775
0.0278568
0.0219439
0.0401872
0.0250582
0.024973
6.44679
0.0378904
0.0218171
0.0288613
0.0219584
0.0291057
0.0218353
0.0505897
0.0249941
4.73908
0.108298
0.0234058
0.0220066
0.0219642
0.0221866
0.0215916
0.0358486
0.0226798
0.022007
0.0223877
0.022176
0.0297138
0.111487
0.0437014
0.0368169
1.99336
0.0217729
0.0233374
0.0220985
0.0292787
5.59506
0.0225865
0.0222657
0.0289347
0.0441961
0.079911
0.0374399
0.0230118
0.942089
0.0322557
0.0218862
0.0223936
0.0232815
0.0219574
0.175111
0.0244001
7.34459
0.0863515
0.0512776
0.0889922
0.0243916
2.70052
0.0255768
0.130007
0.461984
0.0219733
0.0289945
0.0231851
0.0219358
0.0425948
2.12407
0.0237413
0.0222847
0.0221567
0.0294844
0.0859706
1.49687
0.0221626
7.27707
0.0242228
0.0331202
6.42097
0.0219136
0.0221714
0.161459
0.0223233
0.0226096
0.022063
4.82107
0.0219757
3.70353
1.14597
0.0286733
0.0724772
0.128502
0.0235899
0.0400652
0.0217292
0.0247234
0.0996078
0.0220007
0.256619
0.0219457
0.0269926
0.0220109
6.67297
0.0443419
0.0817923
0.289469
0.0218287
14.9736
0.0407671
0.839475
0.0219124
6.19472
0.0669257
0.0217892
0.0332113
0.243842
0.0398036
0.022172
0.022104
0.0233681
1.2901
0.0272135
0.0292519
0.0473177
0.0219527
0.0218356
0.0298253
0.021925
0.0623082
0.0226322
0.0216907
0.0222874
0.0218222
0.0218329
0.0593628
0.0221931
0.0556942
0.0218523
0.0219294
0.0220168
3.22984
0.0217507
0.0404124
0.0218514
11.16
0.0337187
4.37989
0.0219821
0.0336318
0.0843885
0.0228048
3.47998
0.0233564
0.0297039
0.169708
0.0427723
0.0843208
0.128954
15.8439
0.0220633
0.0244361
0.0219356
0.0350799
0.0516244
0.0217112
0.0221342
0.0217972
0.0265944
0.0230156
0.0221726
0.108991
0.184253
0.497742
0.0249803
3.02829
0.0296674
0.0432173
0.0796474
0.0472956
0.0222924
9.43091
0.0222691
0.0232152
15.475
0.0571391
0.0216312
0.146369
0.0217787
0.0571707
0.0254721
0.0223353
0.030267
0.963472
0.0814525
0.0787264
0.172533
0.168952
1.2019
0.0235829
0.132793
0.0221102
1.34515
0.0217137
0.0295318
0.0291602
0.0836353
0.021828
0.0218828
0.0285769
0.0484223
0.0402849
0.0490558
0.113327
0.0216434
0.0222854
0.0222845
0.0227955
0.028132
0.0455198
0.0229899
0.0238124
0.021831
0.0235716
0.0221212
0.0290707
0.143055
0.0236339
0.400959
0.0240964
0.0217451
0.05854
0.0220716
0.794983
0.0219056
0.029163
0.0218191
0.0230034
0.0983454
0.0218949
0.0298132
0.0281465
0.0219979
0.0218641
0.030752
0.0218727
3.06541
0.0323969
0.0396602
0.0229477
0.0317981
0.0332595
0.0219026
0.0230196
0.0271729
0.0287691
0.106058
0.0503299
0.0309024
0.0218873
0.0858891
0.0219975
0.0258115
0.0919198
0.0215694
0.0219188
0.0436291
0.0241114
0.0221357
0.0416476
0.0218702
0.0307622
3.36852
0.15262
0.022982
0.0232397
0.0219153
0.0231463
0.140333
0.0218765
0.0255534
0.0216713
0.022277
0.0725815
0.0263719
0.0218315
0.08185
0.0221725
2.02141
0.0486709
0.0227753
0.0232281
1.26007
0.0226942
0.0426001
0.0217222
0.0418943
0.037488
0.0471946
0.0765976
0.0478549
0.0216261
0.0216783
0.0273453
0.0222618
0.023036
0.0232855
0.870306
0.0493629
0.029964
0.0216469
8.57001
0.0215434
0.0220248
0.0219926
0.0284989
0.022972
0.0219809
0.0217506
0.0998135
0.0234672
0.0376348
0.0219682
0.0219944
1.3273
0.0285924
6.70474
0.113843
0.0432493
3.72671
0.0222684
0.0230779
0.0217634
0.0258675
0.0215898
0.0418907
0.0779945
0.0221519
0.0408766
0.0232844
0.0249643
1.83035
0.0788492
0.0219003
0.0595352
0.0217797
0.0264758
5.95825
0.0269635
0.0219046
0.0216384
0.0230812
0.0229708
0.0215381
0.0222631
0.143245
4.329
0.0237487
0.0218582
0.0218197
0.0219923
0.0219309
0.0457764
0.0216623
4.76844
0.0306147
0.0976114
0.153444
0.0214987
0.0244548
0.0218807
0.0224057
0.609077
0.163377
0.0265973
0.0548359
0.0450032
5.79212
0.0221662
0.0295062
0.0216439
0.238901
0.0247958
0.0344535
0.0756851
0.0337512
1.5577
0.0223653
0.0515531
0.0219354
0.110948
0.0797367
0.0223708
2.31771
0.0251359
0.0220808
0.078769
0.0501558
0.0218358
0.043272
0.0217091
0.0217574
0.021745
0.0360307
0.0582084
0.0347937
0.555515
0.0492469
0.0220777
5.62056
0.0234431
0.0218332
0.0724735
0.116609
0.0229803
0.0219527
0.641872
0.0268676
0.0219694
0.0219627
0.0358825
0.0270651
0.0238556
0.429712
0.0222715
0.0221982
0.0227368
0.025029
0.0216903
0.494591
0.0222287
0.0246759
0.0220702
0.0245716
0.0631176
0.022019
5.74757
0.0407091
0.0219811
0.028704
0.03856
0.0222739
0.0368915
0.0229109
0.0222747
0.0345949
0.0222271
0.121918
0.0807264
0.0221129
0.171869
0.0494638
0.0446575
0.192175
0.0274604
0.0218258
0.0221272
6.9207
0.100107
0.0216856
0.0218693
2.26114
0.0920595
0.0218914
4.85473
2.56986
5.02724
0.0257717
0.0231036
0.0222676
0.02388
0.0255749
0.0430414
0.0221476
0.0245208
0.0216171
0.0377923
0.0905721
0.0571633
5.5194
0.0357616
0.0249046
0.0256394
0.0265872
0.0224764
0.0269728
0.0337886
0.0234325
0.0835822
0.0219035
0.0219204
0.0451053
0.0321764
0.0384345
0.0817716
0.0222183
0.0216685
0.0551857
0.0219215
0.0216018
0.0568653
0.0218873
5.05886
0.0225582
0.0223269
0.022255
0.0289419
0.0220919
0.0215265
0.0220476
0.0303995
0.0218612
0.138366
0.027559
0.316437
2.645
0.092744
0.753571
0.0272912
0.0408987
0.0876296
4.91674
0.0256573
0.0222841
0.0340146
0.0221501
0.027253
7.51458
0.0338399
0.0219123
0.0519166
1.40762
0.0218684
0.135983
0.0812502
0.0249457
0.0218321
0.0296434
0.032349
0.0322675
0.207555
0.0305097
0.0315503
0.0221258
0.021848
0.0220166
0.0227617
0.0287469
0.123161
0.0221445
1.20975
0.0252906
0.0252466
0.404389
3.3238
0.43582
0.021698
0.0217513
0.0220832
4.10095
0.180042
0.0498296
0.0403691
0.162567
0.0218939
0.0221384
0.0237633
0.0216722
0.0255219
0.0223727
0.0228487
0.0820776
0.0413063
0.0225387
0.0218722
0.0382236
0.0376464
0.117711
0.0735158
0.0221466
3.91076
0.0477504
0.0363433
0.0361357
0.0966831
0.0262156
0.0283823
6.69524
0.0271715
0.0273351
0.022046
0.0348544
0.0230535
0.0218734
0.0368505
9.87019
0.0412238
0.0309138
0.0429784
6.26066
8.81298
0.0223567
0.0216159
0.0217808
7.45752
0.0220647
0.0228458
0.49785
0.0222738
0.0698855
0.0221003
0.0222768
0.0220377
0.0486646
1.37853
0.110674
0.0219451
0.0253704
0.193001
0.0220993
16.205
8.07727
3.25644
0.0302348
0.0224569
0.0290165
0.0300787
1.05376
0.0237698
0.0746203
0.0236944
0.0218742
0.0220939
0.02203
7.9915
0.0259873
0.0260913
0.0244912
0.0218988
0.0219833
1.40012
0.0231836
0.0244712
0.0230881
0.0222429
1.69396
0.0216819
2.54501
0.021841
0.0554129
0.0217873
0.0290037
0.0509766
0.0444954
0.0221592
0.0218492
0.0221096
0.0220066
0.0585515
0.0720149
0.0236546
0.0257978
0.0228411
0.0312763
0.0231272
0.0222557
6.54786
0.0612215
0.0339606
0.0227757
0.0218691
0.817826
0.0238057
0.107644
0.150657
0.0223183
0.0218776
0.0275633
0.0238514
8.6579
0.022033
0.235072
0.0218853
0.0218585
0.0250966
0.0234998
0.0368125
0.0829045
0.0403383
0.870004
0.118147
0.022005
9.16249
0.0219308
0.0222853
0.0223126
0.0343704
0.0595265
0.0601015
0.0217473
0.0235861
0.0229895
0.0217695
7.0029
0.0218204
0.0218783
0.022108
0.0264017
0.160416
0.0278153
0.0312074
0.0220478
0.0334243
0.0218994
0.022648
0.0276274
0.0270053
0.0445571
0.022429
0.0222779
0.151392
0.0217062
0.0218373
0.0974263
0.0540318
0.0276998
0.0698835
0.0235822
0.0352138
4.75112
0.0518407
0.0278385
0.0259822
0.0795908
0.0491369
0.0217539
0.0338013
0.0372158
0.0243115
0.0219664
0.0220402
0.143695
0.0220939
3.37937
0.0226888
0.0217735
0.0216818
5.30423
0.0221231
0.0247405
0.0233642
0.0737657
0.0222481
0.0218926
0.021843
0.0267969
0.0216137
0.0221044
0.0219918
0.0425693
0.0992686
0.0355128
0.0243469
0.059637
5.76617
0.023098
0.0274373
0.0221782
0.0221012
0.190438
3.83725
0.0554815
0.0223833
0.0232957
0.0231011
0.040772
3.82546
5.22434
0.0378544
0.043596
0.0258923
0.132345
0.0511092
0.0809232
0.102312
0.0231726
0.0751563
0.0221411
0.165279
0.0221873
0.0549672
0.0217784
0.0552406
0.0219887
0.0222377
0.0254909
0.508473
0.0266974
0.0288142
0.0222882
5.97018
0.0217242
0.707393
0.0218954
0.0220633
0.0220094
0.0320974
0.0217048
0.0358253
0.0834543
0.0215222
0.0225759
0.049203
0.0220817
0.0222497
0.0305473
0.405709
0.0227823
0.0252931
0.0488323
0.0221745
0.0232742
0.0218059
4.18688
0.0258182
0.0265795
0.0323598
0.0874633
0.0226929
0.0217286
0.0681862
7.49327
0.0222472
0.021904
0.0438246
0.0768243
0.0222473
0.0362554
0.0350886
0.127965
0.0734361
0.0276173
0.0219411
0.0220805
0.0291729
0.0744883
0.0223943
4.15302
0.0533169
0.0268
0.0344611
0.0239848
0.0281188
0.0265595
0.0226406
0.0216178
4.74469
0.0223669
0.039315
0.0650701
0.0335706
0.0377518
0.0238741
0.0272988
0.0694262
0.0231237
0.021882
0.0473554
0.0524783
0.0221091
0.0218286
6.55257
0.0220523
0.0377558
0.0549672
0.0218499
0.0352156
3.0588
0.0376599
0.0231432
0.0804077
0.0531515
0.0275518
0.0672748
0.022415
0.0232279
0.0799706
0.0220926
3.29203
0.0407
0.0309766
0.0266894
1.14207
0.0217641
0.0396384
0.124917
0.0220818
0.106219
0.0352711
0.0304992
0.423814
0.98636
4.8388
0.0217797
0.0222077
0.023004
0.175089
0.0294302
0.937383
0.0539717
0.0376011
0.121596
0.0227597
0.0392893
0.0285139
0.0224112
0.0336776
0.0219117
0.0424869
0.122959
0.0458828
0.0217283
0.134572
0.0362942
0.0520401
0.0221292
0.0381961
0.0220697
0.125243
0.0559499
0.153512
0.0258758
0.0702784
3.44023
0.0215874
0.217483
0.0217262
0.0226487
0.0262279
0.0253073
0.0220184
0.0343921
0.0220677
0.0427211
0.0765719
0.0220719
0.123623
0.0217749
0.0281637
0.0394383
0.0229378
0.0573658
0.36687
0.0264131
0.0217792
0.0222388
0.0215741
0.0403594
0.0298421
3.76389
0.0216956
0.0239598
0.0251835
0.0234505
4.22133
0.799853
0.035376
0.57343
0.140755
0.0218534
0.240003
0.048056
0.0248242
0.180495
0.0263992
0.142054
0.0391944
0.116512
0.0228443
0.0420351
0.30624
18.1188
0.0414035
0.023137
0.0219541
0.0838889
0.0222149
3.13226
0.02956
0.14699
3.17176
0.0391064
6.17675
0.0221041
0.362481
0.0237851
0.0327007
0.032468
0.0247843
0.0489674
0.498875
0.0219777
0.0272742
0.0368256
0.0228645
0.0216336
0.0413045
0.116784
0.0281977
0.0327257
0.0334862
0.0260911
4.9092
0.0219081
6.0309
0.196414
0.0224016
0.0315311
0.0220106
0.0216432
0.197719
0.0218824
0.0455312
0.0220944
0.0270747
0.024149
0.0908554
0.0331482
0.023598
0.0220541
0.024404
0.0219577
0.0229326
0.0256775
0.0221175
0.0289318
0.0844646
0.0222621
1.17935
0.021627
1.26414
0.0433342
0.0780742
0.0218506
0.0347289
0.0750121
0.0366242
0.149687
0.204134
0.0220552
0.022107
0.100109
0.0486398
0.0234656
0.0265896
0.117409
0.0217615
0.0283409
0.0218655
0.0218256
0.0221648
0.0289797
0.0395637
0.0217888
0.0451255
0.0220249
0.769875
0.0536185
0.0220486
0.0221446
0.0246673
0.0215056
0.0221657
0.0318315
0.0218154
0.0405082
0.0243987
0.0223423
0.0290085
0.0220429
0.0220466
0.236168
0.0369284
7.08968
0.0220757
0.0243998
5.90044
0.0217722
0.0513772
0.0245929
0.0323249
0.0231884
0.0370706
0.0340426
0.0272326
0.0233047
0.0403214
0.473581
0.0218263
0.689877
0.680832
0.0225998
0.0249269
4.87217
0.0716599
0.0249669
0.0220163
0.0247655
0.0376372
0.0220522
0.0226785
0.0994181
0.0233032
0.0424013
0.0274139
0.0221123
0.0221215
0.0785861
0.0248831
0.0337861
0.0219125
0.0362249
0.0217439
0.0220936
0.0642044
0.0295631
0.0230333
0.0734345
0.0583916
0.0221449
0.0262078
0.0267833
0.0218295
0.193735
0.0255353
4.02061
0.0222722
0.0216938
0.0222199
0.049688
0.0384752
0.0792151
0.0222483
0.167574
0.0415945
0.0922235
0.0219924
0.128313
0.129743
0.334964
0.0222403
0.032654
0.0313844
0.0313859
0.0689451
3.2315
0.204977
0.0398729
0.071544
0.0221178
6.02145
0.0245946
0.0754281
0.0486242
0.0363883
0.0221804
0.0382934
0.0390988
0.0220717
0.0220076
0.0217676
0.0220693
0.0318338
0.468833
6.75241
0.0289409
0.0256821
0.0218815
0.0290597
0.021758
0.0234095
0.0229974
0.0266552
0.0733565
0.0218265
0.0244789
0.0221039
0.0391049
0.0260254
0.0216441
0.0395978
0.0297303
0.56528
0.0219606
0.0318291
0.0232373
0.0220976
0.0910565
0.0232896
0.0221712
0.0625167
0.0221119
0.0255107
2.31499
0.0218391
0.0219437
0.0765281
0.0550673
0.0763543
0.0277675
0.0323877
0.021731
0.0222404
0.0270766
1.05782
0.0324041
0.0486538
0.0395317
0.021693
0.05082
0.0947545
0.0232755
0.0220215
0.0223443
0.0220058
0.0422169
0.0438088
0.0224778
0.0225812
0.0852653
0.0690246
0.151541
0.0228422
0.0429022
0.0289085
0.533379
0.0341738
0.0240124
0.023826
0.0224948
0.0745139
0.0243358
0.130383
0.0260034
0.0219345
0.0221195
0.0247155
0.195926
0.0332351
0.02206
0.0216341
0.0253645
0.0262421
0.0219556
0.0233069
0.0555283
0.0261511
0.0240442
0.0242468
0.0242325
0.0219045
0.0217575
2.41404
0.201153
0.0768241
3.84952
0.0218846
0.0264298
0.0223218
0.06579
0.845157
0.0240696
0.144887
0.0353759
0.0233589
4.3375
0.24398
0.0229705
0.0232009
0.0216317
3.6984
0.0260546
0.0217873
0.115276
0.24662
0.110323
0.206545
0.0256337
0.0394179
0.0247006
0.022256
0.0760977
0.021935
0.0217795
0.023196
0.0805591
0.0279206
0.806766
0.0348012
0.0219292
2.0547
1.43714
0.0434572
0.0346013
0.384908
0.0801118
0.077199
0.174908
0.781454
0.0238304
0.0220064
0.027549
0.0518164
0.0229498
0.049683
0.0220603
0.368266
0.0307827
0.0754929
0.0216833
0.0221868
0.532443
0.0740517
6.03218
0.0249555
0.0230661
4.49955
0.139328
0.0861627
0.0501609
0.021879
0.0218674
0.0221523
0.0233062
0.0220957
0.0514843
0.242395
0.0412062
6.80044
0.229362
0.0222174
0.0374347
0.0220062
0.0225054
0.161346
0.100168
0.0257555
0.0220859
0.0221756
0.07357
0.0225633
0.0221046
0.022097
0.021726
0.024405
0.0222644
0.240765
0.0221752
0.0221324
0.758905
0.0365662
0.0216302
0.0342261
0.539965
0.10646
0.92694
0.0320823
0.0220155
0.0218693
0.0709552
0.021637
8.04269
0.0230176
0.0252409
0.0220999
0.021982
0.0225429
0.0435833
0.0229926
0.0227262
0.265873
0.0220668
0.0224025
0.0250289
0.0222158
0.022142
0.0217985
1.55655
0.0222943
0.0297025
0.0763812
0.0215353
0.0220613
0.0783102
0.0819811
0.0231252
0.582456
0.156436
0.0435087
0.0226251
0.022285
0.060713
0.0302633
0.0221692
0.0781785
0.0423369
0.112086
0.0485059
0.0343024
0.033386
0.0491699
0.713946
0.0324427
0.15006
0.0253358
0.118244
0.0854436
0.0238168
0.0222705
0.0218854
1.98488
0.0219095
0.0218894
0.0219977
0.0774991
3.70107
5.47267
0.0220901
0.0241687
0.187064
0.0264003
0.0770733
0.13185
0.0752642
6.10718
0.021953
0.02892
0.0609383
0.0249215
0.0224361
0.0476968
0.0437914
0.0345145
0.0840599
0.0220199
0.0232924
0.13406
0.0221525
0.0539759
0.025449
0.0218042
0.0222875
7.61618
3.11402
0.0346726
0.0293595
0.022182
0.022934
0.0497687
0.0236363
0.0762736
6.3031
0.0220999
0.0959511
0.0217064
5.23119
3.60935
0.0250893
0.0217644
0.0767844
0.0222683
0.0219424
0.0245674
0.0222301
3.61287
0.0220711
0.0572489
0.297023
0.0225948
0.0653985
0.274761
0.196307
0.0221412
0.0220188
0.0369748
0.0225224
0.0244496
0.022287
0.0217582
0.0500517
0.0771451
0.0223194
3.85607
0.0217561
0.0658533
0.0224206
0.0215595
0.141156
0.0392662
6.71865
0.0416376
0.0228817
0.0221042
0.0254021
0.041978
0.0216789
0.0238925
0.0574125
0.0665082
0.0472832
0.0268931
0.0222832
4.17235
0.0266173
6.34537
0.0219082
0.140564
0.029398
0.0323317
0.190338
0.0255115
0.0244578
0.0266422
0.0222755
0.212004
0.0217593
0.0264101
5.53286
0.0220996
0.286165
0.592971
0.0274528
0.0420715
6.53836
3.21288
0.0221314
3.93956
0.0386955
0.0221073
0.0314358
4.88565
0.0218752
0.02185
0.119903
0.0220234
0.0271939
0.0216482
0.0275671
0.153617
0.768075
0.0267286
0.0368604
0.0225094
0.0218657
0.662672
0.0218452
0.0216816
0.920136
0.0283349
0.02247
0.0504658
0.0228837
0.0244318
0.0346087
0.0568527
0.0217764
0.024262
0.26894
0.0670337
0.0224648
1.06787
0.0220689
0.0218399
0.310217
0.0221927
0.0221033
0.0766702
0.0219276
0.0261031
0.0241337
0.0221423
0.0220257
0.0233366
0.0330906
0.0266576
3.25304
0.0630766
0.0314291
0.0220631
0.109167
0.153133
0.037403
0.754536
0.243259
0.161887
0.0257322
0.122026
3.1011
0.0268014
0.22047
0.158413
0.0408553
0.272135
0.0336785
0.027375
2.98967
0.0443573
0.12119
0.0964241
0.248948
0.0229549
0.0219496
0.0222749
0.139688
0.02333
0.0254641
5.08967
0.0216813
0.0219204
0.0292456
0.0220127
0.0576575
0.0933685
0.0229097
0.0271525
0.0454027
0.080803
0.0492761
0.0238057
0.0269113
0.0495523
0.0344785
0.0249921
0.557609
0.0244777
0.108967
0.022837
0.0485342
0.0220441
0.0295115
0.0215719
0.0216384
0.0290774
0.0322763
0.0220525
0.0777731
0.0444349
0.0334813
0.021832
0.0290124
0.0377213
0.0284651
0.0520244
0.100465
0.0223083
0.0215621
0.021557
0.0709684
0.0735685
0.0215747
0.0225707
0.0226355
0.20802
3.51675
0.0280237
0.572053
0.0301939
0.0754615
0.0307429
0.0299302
0.278323
0.082024
0.0257047
0.0471796
0.0219488
0.0222652
0.447731
0.0704821
4.55603
0.0289373
0.0229022
0.0748724
0.022273
0.028607
0.0222226
0.0379652
2.24644
0.381181
0.0230177
0.0219903
4.21656
0.0228253
0.0456875
0.0219331
0.0818711
0.0409002
0.0612452
0.0478579
0.0220504
0.13382
0.0216494
0.024275
5.20994
0.0398867
0.108449
0.246941
0.0278488
0.0331608
0.034203
0.781598
0.0220691
0.19636
0.0528302
0.0220052
0.0222879
0.031557
0.0227564
0.0346687
0.021545
0.383346
0.0253308
0.0303917
0.0220826
0.021879
0.0348539
0.0221659
0.0315138
0.0217681
0.022192
3.52372
0.0307152
0.0220977
0.032484
0.0218049
4.22273
0.0236865
0.0218542
0.0249785
0.0335448
0.0260074
0.0273317
0.220829
0.0221313
0.0788183
0.0277459
0.0500389
0.0291145
0.0327474
0.0857591
0.052973
2.58587
0.248895
0.0557259
0.0222914
0.0219534
0.0225242
0.0222518
0.0235665
0.858353
0.0701575
0.171223
0.0384219
0.0237389
0.0219503
0.0220463
0.0221563
0.12286
0.0241307
0.0221609
0.0592939
0.335335
0.0220809
0.0221445
0.0222013
0.0219166
0.939353
0.0348985
0.0219303
0.0217455
0.104391
0.152422
0.0491598
0.0216868
0.0220888
0.14036
0.0866475
0.0283884
0.0247322
3.59267
0.0893167
0.111456
4.83387
0.0831597
0.0215434
0.0389509
0.0244904
0.274245
0.0314712
0.0999054
0.0231732
0.0321245
0.0347258
0.0527506
0.0410015
0.0228779
0.179985
1.44274
0.0858991
0.0219853
0.0223052
0.0216938
0.0218455
1.2906
0.0343392
0.0274169
0.117041
0.0631977
0.0264292
0.0557486
0.0244361
3.12941
0.0342525
0.0481868
0.0259287
0.034945
0.0463342
0.0546969
0.0802093
0.0220468
0.0395591
0.0221561
0.0932575
0.0288748
0.0218649
0.0733264
0.0218963
0.0251697
0.022663
0.0344866
0.0216317
0.0510573
0.0251292
0.0401485
0.0226535
0.0218301
0.0267317
0.0221279
0.0234248
0.135358
0.029349
0.0256378
0.0217586
0.0220788
0.0361987
0.0371917
0.177085
0.0216144
0.0274627
1.32172
0.0912681
0.0221248
0.160187
0.0218853
0.0884195
0.137121
0.0284794
0.539688
0.0219146
0.03985
5.27132
0.110419
0.0286295
0.0254494
0.0267858
0.0262879
3.66832
0.0220599
0.0349175
0.0325781
0.0231806
0.0618689
1.45074
1.74264
0.20312
0.0218424
0.179007
5.79017
0.033337
0.0250838
0.156243
0.0220169
0.0234287
0.144898
0.142554
0.0220484
0.0228295
0.0218865
0.040367
0.0864509
0.0384265
0.0220212
0.116229
0.0340671
0.540116
0.857173
0.0766015
0.0287276
0.320931
0.13766
0.0220671
0.0216094
0.0224888
0.0436554
0.93709
2.87486
0.0783345
0.288841
0.1298
0.0218741
0.302837
0.034774
0.128193
0.0219685
0.0220658
0.023897
0.095018
0.0329267
0.096686
0.0234121
2.2379
5.52551
0.0516473
0.0510945
0.0899884
0.0240595
0.0430552
0.0220669
0.0245593
0.0594767
0.0222835
0.0354578
1.76532
0.0221135
0.0359746
0.0220379
0.0226818
0.361161
0.0220641
0.0779025
0.149064
0.916061
0.0222169
0.0222355
0.114445
0.0220752
0.0591633
0.0285403
0.0218211
0.0857591
0.0222552
0.358167
0.0221752
4.00924
0.0216392
2.94913
0.0861996
1.98729
0.472089
0.0225016
0.0252135
0.026316
0.0230328
0.0220828
0.0816287
0.46002
0.139467
0.0218594
0.0952346
0.470437
0.0222871
0.0888343
0.0391982
0.0874121
0.0885437
0.0232407
0.0716341
0.0886224
0.0216104
0.0236781
0.0217026
0.0837416
0.321296
0.12679
6.21122
0.0991548
0.406241
0.0780587
0.0760492
0.0220611
0.143237
0.0238105
0.0220937
0.933874
0.0971494
0.0218028
0.0263992
0.0260098
2.29421
0.0220433
0.0245191
0.0861845
0.0798165
0.0263209
0.0891864
1.61237
0.0814348
0.0532981
0.432604
0.021994
5.08987
0.0253134
0.0234948
0.0351391
2.6107
0.0216872
0.0466981
0.0221183
0.0218519
0.0411005
3.26418
3.25598
0.037861
0.0235214
0.0798058
3.93228
0.0265992
0.022275
0.0450107
0.0585492
0.0905647
0.0858845
0.0220963
0.0289139
0.0219273
0.036564
6.29545
0.0305675
0.0393019
0.0683375
0.021544
0.021863
0.0435092
0.0351665
0.0221051
0.615279
0.0262554
0.179666
0.131405
0.0220905
0.0237738
0.0838165
0.0269604
0.0215949
0.0220545
4.72959
0.0278457
0.0217445
0.105991
2.39251
0.0241938
0.0420988
0.0301474
0.0247321
5.83341
0.0349372
0.0218243
0.0876008
0.0411816
5.17067
0.0230754
0.0229405
0.0752297
0.0364023
0.0220465
0.0403508
3.7354
0.0679749
0.0221046
4.80005
0.0449719
0.0234829
0.022399
0.0508554
0.0226534
0.506942
0.126503
0.0243392
0.0341209
0.0412515
0.0823881
0.170182
0.0333363
0.0400044
0.0238218
0.022305
0.0228356
0.0245981
0.0746995
0.120561
3.78634
0.0893917
0.0344945
0.0233611
0.0241655
0.0231774
0.0261641
0.0280007
0.0776532
0.0231333
0.0226552
0.121332
0.0360341
0.0220674
0.0222675
0.356777
0.0219008
0.17966
0.0220796
0.0282323
0.0217375
0.0371653
0.0227946
0.917525
0.0234323
3.81832
0.0356462
0.0233347
0.0833882
0.0283239
0.0403027
0.271413
0.0228732
0.296205
0.0589262
0.0281876
0.0222343
0.0225392
0.0819577
0.209219
0.0268402
0.0220431
0.0220767
0.0226569
0.0222368
0.0313841
0.0223239
0.0354295
0.0219907
0.0221014
0.0220502
0.127667
0.329278
0.0222741
0.0252409
0.0796014
0.0354306
0.0227042
0.0219167
0.0220453
0.0840267
0.0884235
0.0414787
2.03891
0.0221815
0.271377
0.135775
3.83523
0.0220999
0.0273433
0.0243988
0.022127
0.0270907
0.137273
0.0811325
0.0348637
0.0251089
0.0280895
0.0220606
0.0226639
0.0228948
4.32672
0.0287264
0.641064
0.0293683
0.0222576
0.215781
0.125789
5.70692
3.53108
0.026939
0.0516967
1.38419
0.0463617
0.0219883
0.0227146
0.0231439