/*--------------------------------*- C++ -*----------------------------------*\
| =========                 |                                                 |
| \\      /  F ield         | OpenFOAM: The Open Source CFD Toolbox           |
|  \\    /   O peration     | Version:  v2012                                 |
|   \\  /    A nd           | Website:  www.openfoam.com                      |
|    \\/     M anipulation  |                                                 |
\*---------------------------------------------------------------------------*/
FoamFile
{
    version     2.0;
    format      ascii;
    class       volScalarField;
    location    "400";
    object      nut;
}
// * * * * * * * * * * * * * * * * * * * * * * * * * * * * * * * * * * * * * //

dimensions      [0 2 -1 0 0 0 0];


internalField   nonuniform List<scalar> 
13726
(
0.000465777
0.000456616
0.00156697
0.00157283
0.000460636
0.00706204
0.00133751
0.000471065
0.00046995
0.00663276
0.00489592
0.00500187
0.000622264
0.000468664
0.000529994
0.000455393
0.000517371
0.00766806
0.00515599
0.000459381
0.000526277
0.000459093
0.000456291
0.000561749
0.000557715
0.00412764
0.000458295
0.000458461
0.000472637
0.000469422
0.000470349
0.000461368
0.00692757
0.000473524
0.000463391
0.000549471
0.000460848
0.000463269
0.000468098
0.00750264
0.000468515
0.000457899
0.000480974
0.000461371
0.000456489
0.000458157
0.000456248
0.000574458
0.000460183
0.000459633
0.00049761
0.000606993
0.000471946
0.000466313
0.000465331
0.00046094
0.000463761
0.000459198
0.0004601
0.00046034
0.000459722
0.000453711
0.00046113
0.00055239
0.000525105
0.00045651
0.000467161
0.000460659
0.000473692
0.000460424
0.000463101
0.00127192
0.000459994
0.000520197
0.000466157
0.000459928
0.000457188
0.00744284
0.000537274
0.000544302
0.00753619
0.00269073
0.000455436
0.0004623
0.000471108
0.00249792
0.000460737
0.00703116
0.000859163
0.000457195
0.000460152
0.000460245
0.000453366
0.0004582
0.000468155
0.000198851
0.000460245
0.000469168
0.000307368
0.00111732
0.000460919
0.00669998
0.000471057
0.00045901
0.000458115
0.000457925
0.00662143
0.000458115
0.000455225
0.000455475
0.000463891
0.000456561
0.000465044
0.000468726
0.000459029
0.000535052
0.00046621
0.00267289
0.000459546
0.0018221
0.00051431
0.00127197
0.000500144
0.000466377
0.000460915
0.000460041
0.000454276
0.00589532
0.000455421
0.00731472
0.000463683
0.000869475
0.000464239
0.000457156
0.000465686
0.000464007
0.000561952
0.000454363
0.000459123
0.000456915
0.000454871
0.000461869
0.000901354
0.000462036
0.00278163
0.000455834
0.000499431
0.000463627
0.000520379
0.000454816
0.000496686
0.000464798
0.000486888
0.00098526
0.000461794
0.000472261
0.000480165
0.000453446
0.000484217
0.00624962
0.000457296
0.000461835
0.000816235
0.00313733
0.00045873
0.00045403
0.000457465
0.000459152
0.000465368
0.000460318
0.000461961
0.000468255
0.000459283
0.000464659
0.000457269
0.000457204
0.00758845
0.00681331
0.000457305
0.00594384
0.000469014
0.000496869
0.00410541
0.0029794
0.00163178
0.000459408
0.00560034
0.000456693
0.00229902
0.000457566
0.000476731
0.00045519
0.000458007
0.000461556
0.00713337
0.000482293
0.000454923
0.00605748
0.000455731
0.000457613
0.000459877
0.000464243
0.000457021
0.000459669
0.000460739
0.000459592
0.000736581
0.00105586
0.000462063
0.00678762
0.000459464
0.00187076
0.000458693
0.000452559
0.000464242
0.00263891
0.000484902
0.000454945
0.000333575
0.00273558
0.000453888
0.000462002
0.000481357
0.000456558
0.00228242
0.000457261
0.000453549
0.00103443
0.000458964
0.000498207
0.00502415
0.00716232
0.007123
0.00729554
0.000481209
0.00627467
0.00046819
0.00047325
0.000457688
0.00514634
0.000468601
0.000467544
0.0004685
0.000537405
0.00731935
0.000564637
0.000484187
0.000461515
0.0004975
0.000456465
0.000517628
0.00615647
0.000462004
0.00045734
0.000463789
0.00439162
0.000460526
0.000476278
0.00202986
0.000461742
0.003735
0.000461212
0.000458241
0.000454804
0.000464374
0.0039864
0.000454445
0.000468019
0.000487126
0.000526964
0.000484376
0.000468503
0.000527117
0.000557743
0.000497796
0.000453988
0.000528699
0.000456629
0.000660299
0.000464024
0.000460804
0.000453628
0.000466639
0.000531491
0.000496743
0.000513053
0.00047271
0.00046392
0.000344666
0.00744566
0.00052461
0.000464127
0.00653176
0.00045352
0.000463446
0.00155033
0.000466905
0.000648862
0.000454475
0.00193579
0.000462051
0.00372013
0.000458718
0.00737564
0.000481718
0.000471321
0.000461911
0.00046481
0.000480427
0.00045163
0.000497261
0.000468379
0.00730026
0.000460055
0.00336397
0.00522191
0.000454188
0.00293152
0.000467716
0.00136445
0.00046149
0.000480451
0.00231686
0.000465129
0.000458149
0.000460131
0.00459357
0.00350479
0.00338465
0.00045946
0.000457888
0.000453991
0.00114464
0.000458972
0.000472476
0.000494768
0.000454955
0.000468581
0.000479951
0.00124596
0.000459888
0.000461539
0.000852468
0.000235043
0.000466375
0.00619197
0.000458709
0.00428635
0.000454957
0.000459047
0.000460157
0.00470706
0.000455613
0.000462975
0.000457261
0.000463684
0.000500327
0.000696563
0.00279794
0.000457423
0.000472667
0.000471294
0.00178989
0.000583173
0.000464019
0.000460788
0.00136582
0.000469497
0.000462799
0.00354842
0.000458821
0.000489463
0.000454479
0.000462073
0.000459789
0.00641485
0.000451941
0.00374
0.00048947
0.00210239
0.000497826
0.003647
0.000474705
0.00045833
0.000518252
0.000463995
0.00685335
0.00716441
0.000456413
0.000464502
0.000459653
0.000459129
0.000549834
0.00045742
0.000463059
0.000484404
0.00626562
0.00213227
0.000459682
0.000459128
0.000574047
0.000451652
0.000458621
0.000457138
0.000456619
0.0016948
0.00620029
0.000501918
0.000484338
0.000459105
0.00703035
0.000454248
0.000550149
0.000457837
0.000497576
0.000463937
0.000562862
0.000457975
0.000455559
0.000458658
0.000457912
0.000461354
0.000451575
0.000468241
0.000479523
0.000459082
0.00046024
0.000467802
0.00471777
0.000453569
0.000477415
0.000453372
0.000461757
0.000457405
0.00162801
0.000467679
0.000459567
0.000466032
0.00620383
0.00221115
0.000459164
0.000457267
0.000459454
0.00466787
0.000459636
0.000454654
0.000584062
0.00559271
0.000459175
0.00015612
0.000456628
0.00364962
0.00688535
0.000457829
0.000498543
0.000625588
0.00045606
0.000456326
0.000458978
0.000463044
0.000460127
0.000456486
0.00647136
0.000467058
0.000573787
0.00629311
0.00046305
0.000550917
0.000460595
0.00251136
0.00046258
0.000452721
0.00058465
0.00199232
0.000543366
0.000523226
0.000601362
0.000456542
0.000462003
0.000480606
0.000453038
0.000460621
0.000456617
0.00440228
0.000456373
0.000473986
0.000452074
0.00588106
0.000768258
0.0005519
0.00476877
0.000466177
0.000468355
0.00687595
0.000507873
0.000459428
0.000456159
0.000464083
0.000453413
0.000456411
0.0017205
0.000520243
0.000462604
0.000454917
0.000460216
0.0046895
0.000456735
0.000452618
0.000471275
0.00260229
0.000455386
0.000455091
0.000458906
0.000464432
0.000460693
0.00045703
0.000456548
0.000459126
0.00320489
0.00046108
0.000459907
0.000453188
0.0064047
0.000461197
0.000459504
0.00136718
0.000461269
0.000513719
0.000694417
0.00046386
0.00398305
0.000455683
0.000453644
0.0071118
0.0027326
0.00601126
0.00464073
0.000468695
0.000462258
0.000464644
0.000462149
0.00482303
0.00692891
0.000462807
0.000468911
0.000455942
0.00046001
0.000457053
0.000458959
0.00500436
0.000456055
0.00222642
0.000465913
0.000478148
0.000460175
0.000459382
0.000459635
0.00240663
0.000465029
0.000459455
0.000452716
0.00625905
0.000457843
0.000582225
0.000476268
0.00743711
0.000474129
0.000454056
0.00215937
0.00266726
0.000469259
0.000764955
0.000457244
0.000460992
0.000478004
0.000499994
0.00608516
0.000460348
0.000453835
0.000464991
0.000453659
0.000459848
0.00401528
0.000455275
0.000454082
0.000460229
0.000466034
0.000455793
0.00604336
0.00052014
0.0070248
0.000459526
0.000461588
0.00361678
0.000458893
0.000480324
0.000457868
0.000457703
0.00642291
0.000466285
0.00532026
0.000466503
0.000458146
0.000452642
0.00730909
0.00728871
0.000464853
0.000461246
0.00299088
0.000468671
0.000466106
0.000458631
0.000461853
0.000459999
0.000468167
0.000454742
0.000468221
0.000457454
0.000527196
0.000457236
0.000461037
0.000458194
0.000464126
0.000544912
0.00672291
0.00763637
0.000459136
0.000461608
0.000454147
0.000457334
0.00046259
0.000467304
0.00486961
0.000456058
0.00482824
0.000240722
0.000459758
0.000453773
0.000458928
0.00725663
0.000469426
0.000459441
0.000468214
0.000458181
0.000461249
0.000527955
0.000453591
0.000512649
0.000807564
0.000466273
0.000460056
0.000460398
0.00271445
0.00045775
0.00623555
0.00435163
0.000466457
0.00419593
0.00144212
0.000462034
0.000454616
0.000456136
0.000463212
0.000460054
0.000457514
0.00586205
0.00708767
0.000471602
0.000551444
0.000465788
0.00512951
0.000463101
0.00545464
0.000464034
0.00117699
0.000462149
0.000460527
0.000454666
0.000460842
0.00101624
0.000454355
0.00046044
0.000456393
0.000565864
0.000576396
0.000460615
0.000560247
0.00605729
0.00671238
0.000492842
0.000516043
0.000460394
0.00750784
0.000457889
0.000467999
0.00046479
0.000461667
0.000492529
0.000458495
0.000464509
0.00448773
0.00101272
0.000464322
0.000462627
0.000491396
0.000455133
0.000460166
0.00439535
0.000457971
0.000460898
0.00721208
0.000463178
0.00046512
0.000457615
0.00590765
0.000470187
0.00111719
0.000456137
0.000453384
0.000472176
0.000461727
0.0016021
0.00645021
0.000456316
0.00045304
0.000464358
0.000457611
0.000457338
0.000457209
0.000456049
0.00438404
0.000460112
0.000460268
0.000464624
0.00750778
0.00210591
0.000458194
0.000457703
0.000511962
0.000482736
0.00734122
0.000475804
0.000470475
0.000455653
0.0069504
0.000531032
0.000523748
0.000488273
0.000462447
0.00477267
0.000458864
0.000468116
0.0004588
0.000453988
0.000459115
0.00718944
0.000470413
0.000469341
0.000453122
0.00045531
0.000457285
0.000460604
0.00443077
0.000451841
0.000455817
0.00045407
0.000462958
0.000459609
0.00526365
0.000452579
0.00116023
0.000463363
0.00045801
0.000465272
0.000461226
0.000458111
0.000467584
0.00735115
0.000465535
0.000513392
0.00046875
0.000498611
0.000460388
0.000459281
0.0043477
0.000481189
0.000457142
0.000460203
0.000457469
0.00286877
0.00572492
0.000465509
0.00045969
0.00644553
0.000459337
0.000496497
0.000466596
0.000731066
0.000456956
0.00046857
0.00045677
0.00511532
0.0004618
0.000468789
0.000495645
0.000468663
0.000462843
0.000954858
0.000468304
0.000467733
0.000468435
0.000547041
0.0004587
0.00202533
0.000462259
0.000459596
0.000454202
0.000462491
0.000461665
0.000465801
0.000463461
0.000459662
0.000887683
0.000468862
0.000458068
0.00050495
0.000650765
0.000480205
0.000454017
0.00625617
0.000460017
0.00048349
0.000463156
0.000451892
0.000460811
0.000468703
0.000461987
0.000493658
0.000455868
0.000456134
0.000461611
0.00613649
0.000496542
0.000742865
0.000456035
0.000454797
0.000457445
0.00322597
0.000466763
0.000462808
0.000459547
0.00400235
0.00608133
0.000531994
0.000685441
0.000462694
0.000460301
0.000460943
0.00776255
0.00105635
0.000459116
0.00046118
0.000452298
0.000531154
0.000463957
0.000451366
0.000452441
0.00532457
0.000498139
0.000480389
0.000463148
0.000457218
0.00428535
0.000463671
0.000978823
0.000454268
0.000460405
0.0004543
0.000459839
0.000469043
0.00046139
0.000454262
0.000458049
0.00620767
0.00279602
0.000458382
0.000466615
0.000457738
0.000460079
0.000659554
0.000488841
0.00731919
0.000455973
0.0004612
0.000457259
0.000453576
0.000460393
0.000451413
0.000457523
0.000459459
0.00568763
0.00175475
0.000464755
0.00046288
0.000456633
0.000464148
0.000456588
0.000455989
0.000458975
0.00280154
0.0004636
0.000469354
0.000454017
0.00047317
0.000451094
0.00235975
0.0065168
0.000457537
0.000504663
0.000451946
0.000456678
0.000462807
0.00216683
0.000451752
0.000700057
0.000460343
0.000468978
0.000458913
0.000455357
0.000458011
0.000462632
0.000466052
0.00591327
0.000461636
0.000454683
0.000468841
0.00046798
0.000462925
0.000460067
0.00588202
0.000469544
0.000466875
0.000453058
0.00685975
0.000462802
0.00637731
0.00613428
0.000456828
0.000459949
0.000462041
0.000459132
0.000463439
0.00045746
0.000463944
0.000456563
0.000456516
0.000457205
0.0004595
0.000455482
0.000459272
0.000460039
0.000467797
0.000459752
0.000473205
0.000460307
0.000452554
0.00737221
0.000453512
0.000458377
0.00045793
0.000456832
0.000475736
0.00610621
0.000468396
0.00229098
0.000462975
0.000576512
0.00296459
0.00045132
0.000494359
0.000459301
0.000459926
0.000529691
0.000455317
0.00045798
0.000484096
0.000468617
0.000459883
0.000469178
0.000452175
0.000464289
0.000468008
0.000466128
0.00108671
0.000543776
0.000457691
0.00046011
0.000461654
0.0004568
0.000456515
0.00597996
0.00186849
0.00177241
0.000454957
0.00454244
0.000456622
0.000494375
0.000892531
0.000495334
0.000459082
0.000452551
0.000458805
0.00776379
0.000452811
0.0004631
0.000509706
0.000457223
0.000455863
0.000475201
0.00166857
0.00645094
0.00441195
0.000466374
0.000453258
0.00126364
0.00679282
0.000459735
0.00570212
0.000463313
0.000916225
0.000459427
0.000536931
0.000460906
0.00410719
0.000457467
0.000463679
0.00630763
0.00045952
0.00209981
0.000459885
0.000456464
0.0026014
0.00478061
0.000468731
0.000460439
0.000467729
0.000457318
0.000547972
0.000463043
0.000459823
0.000454501
0.000458571
0.000460449
0.000459185
0.000453671
0.0014292
0.000461324
0.0068478
0.000467672
0.000465231
0.000467342
0.000455517
0.00045713
0.000539783
0.000453891
0.00267753
0.000457647
0.000476125
0.000623758
0.00298482
0.000621419
0.000461507
0.000466333
0.00087991
0.0061213
0.000460582
0.00128091
0.00361928
0.00272456
0.000489497
0.000460257
0.00221247
0.00490706
0.00045855
0.000460539
0.000459858
0.000455472
0.000453346
0.00045601
0.000452728
0.000458209
0.00404004
0.000453892
0.000538442
0.000506996
0.000455587
0.0004577
0.000468262
0.000504283
0.000505016
0.000467538
0.000455731
0.000456006
0.000468832
0.000459581
0.000458668
0.00574029
0.000469174
0.00501084
0.00290696
0.000465915
0.000462662
0.000461613
0.000491067
0.000462589
0.000456777
0.000461806
0.00157733
0.000456662
0.000456704
0.000456903
0.000796679
0.000457101
0.000474739
0.000468897
0.000459972
0.000460329
0.000463179
0.000459481
0.000481167
0.00730686
0.000462751
0.000460487
0.000455703
0.00682123
0.000460323
0.00046382
0.000459899
0.00503321
0.000455986
0.000686371
0.000453142
0.000461013
0.000382021
0.000961694
0.0038198
0.00501105
0.000456074
0.000457186
0.000462699
0.000460018
0.000464242
0.00047447
0.000499267
0.000461368
0.000461952
0.000454021
0.00611444
0.000447324
0.000460076
0.000900224
0.000453933
0.000456987
0.000462161
0.000461402
0.000475969
0.00391687
0.00703658
0.000460164
0.000458952
0.00208526
0.00045981
0.00047682
0.000482249
0.000459209
0.000460925
0.000452975
0.00046609
0.000554433
0.000460613
0.000461966
0.00025043
0.000488064
0.00731443
0.00482123
0.000468486
0.000493257
0.00403674
0.0011603
0.000457314
0.000457252
0.000713932
0.00199627
0.000462033
0.000467243
0.000464732
0.00045632
0.000461657
0.000492606
0.000468784
0.000451777
0.000718448
0.000469401
0.00228796
0.00045686
0.000469177
0.00631997
0.000456556
0.00200956
0.00493547
0.00274703
0.000703653
0.00045896
0.000491805
0.000456231
0.000463531
0.00046578
0.00189578
0.000463449
0.000453098
0.000462258
0.000465221
0.000452664
0.00730531
0.000461557
0.000470791
0.000548424
0.000459232
0.00047605
0.000463168
0.000529083
0.000457279
0.000452734
0.00287646
0.00708085
0.000453437
0.00046054
0.000510367
0.000471182
0.000467111
0.000461799
0.000457507
0.000462484
0.000458137
0.000465773
0.00175022
0.000455668
0.000460438
0.00107761
0.000456196
0.000462973
0.000454716
0.000465824
0.000517014
0.00046601
0.000454467
0.00399182
0.000458522
0.00046496
0.0012587
0.000467137
0.00630133
0.000580701
0.000785066
0.00172852
0.000462722
0.00691986
0.000466756
0.000466347
0.000454165
0.000463686
0.00612946
0.000459274
0.000462052
0.000457179
0.000573459
0.000459194
0.00674105
0.000455586
0.00046896
0.000456486
0.000458294
0.000459658
0.000463417
0.00048057
0.00045663
0.00321149
0.00713127
0.00454413
0.00135448
0.000462507
0.000409776
0.000744018
0.000460749
0.000492704
0.000458859
0.000457647
0.000935778
0.00954028
0.00343899
0.000461721
0.000458794
0.000399881
0.000874431
0.000474216
0.000454472
0.000457918
0.000466988
0.00047736
0.000453068
0.000463309
0.00538119
0.000481512
0.000520494
0.000460774
0.000459193
0.000515469
0.000468048
0.000852695
0.00045464
0.000466325
0.000480593
0.000461421
0.000455174
0.000361978
0.00045646
0.000470331
0.000466962
0.000462633
0.000477216
0.0004579
0.000463056
0.00406953
0.00743438
0.000456636
0.00050811
0.000462151
0.00512473
0.000456375
0.000522963
0.000457081
0.000458856
0.000499197
0.00133184
0.000463452
0.000457572
0.000470135
0.00057723
0.000482615
0.000514158
0.000459437
0.000533822
0.000458978
0.00613021
0.000301767
0.00591472
0.000466615
0.0071242
0.000458638
0.00284357
0.000463404
0.000460903
0.0066173
0.00179527
0.000464886
0.000456314
0.000575335
0.000463632
0.000504063
0.000468716
0.000453836
0.0071706
0.0004593
0.00715136
0.0055376
0.000456629
0.000633123
0.00046801
0.000460258
0.000452346
0.000455683
0.00574793
0.000458749
0.00046313
0.00570135
0.000685585
0.00213702
0.000460892
0.00243351
0.000463371
0.000457821
0.000455643
0.000460752
0.000492454
0.0067253
0.000457992
0.0032204
0.000711711
0.000457757
0.000456901
0.000458853
0.00476264
0.000476063
0.000363462
0.000482368
0.000569054
0.000460049
0.000460027
0.000469255
0.000468523
0.000460054
0.000464641
0.000466638
0.000456783
0.000520453
0.0057725
0.00046107
0.000460139
0.000691136
0.000465763
0.00574866
0.00045632
0.00504451
0.00452093
0.000482093
0.000806862
0.000755381
0.000460337
0.000467101
0.00722363
0.000464136
0.00061949
0.00651885
0.000456908
0.000457834
0.000455822
0.00258684
0.000799003
0.000465763
0.000464907
0.000461933
0.000368627
0.000463292
0.000464341
0.00626961
0.00046748
0.00532946
0.00539766
0.0074071
0.000469139
0.00571996
0.000466819
0.000456193
0.00509507
0.000460274
0.00288444
0.000474607
0.00695169
0.00734069
0.000457305
0.00108093
0.000458699
0.00732756
0.000528043
0.00537408
0.000460358
0.00644182
0.000460668
0.00689006
0.00445295
0.000465254
0.000466401
0.00435237
0.000468802
0.00053226
0.00178394
0.000454967
0.000461916
0.00054484
0.0035656
0.000459083
0.00049125
0.000453448
0.00406562
0.000451275
0.000454372
0.00708476
0.000451713
0.000513242
0.000463786
0.000468335
0.000489331
0.000462819
0.000460784
0.000460321
0.00052875
0.000661301
0.000460117
0.00045412
0.000458033
0.000456531
0.000468103
0.00047608
0.000454281
0.00946428
0.000470899
0.000463356
0.000464098
0.00694914
0.000453481
0.000456402
0.000453479
0.000457586
0.00045444
0.000452759
0.000457694
0.00409703
0.00172371
0.000460849
0.00051509
0.000456131
0.000490873
0.000703714
0.00621913
0.000484782
0.000460716
0.000466657
0.00442044
0.000466444
0.000452321
0.000782195
0.000652518
0.000462398
0.00623732
0.000503483
0.00567023
0.00287118
0.000668875
0.000458327
0.00694788
0.00045475
0.000455448
0.000463074
0.000453116
0.00628374
0.000662141
0.000463776
0.000499534
0.000512768
0.00045912
0.000502891
0.00676916
0.000684167
0.000469997
0.000455465
0.000464882
0.000460037
0.000463028
0.000457519
0.00050314
0.000460454
0.000453237
0.00586546
0.0056666
0.000467655
0.000454067
0.000502492
0.000459139
0.00613887
0.000462721
0.000457096
0.00535446
0.00143265
0.000490083
0.00250569
0.000856291
0.000505056
0.00455652
0.000459858
0.00751422
0.000465219
0.000452611
0.00680285
0.000460974
0.000460429
0.00431458
0.00520448
0.00867108
0.000455252
0.00048064
0.00631171
0.0004602
0.000688583
0.000511341
0.000642011
0.00736458
0.00403759
0.00454918
0.000459255
0.00621128
0.0062454
0.000492783
0.000468053
0.000459306
0.000458778
0.00045945
0.00587925
0.00549041
0.000247969
0.000454768
0.000502891
0.000466993
0.000458441
0.00520324
0.000458503
0.00577731
0.00662529
0.000460192
0.000481605
0.00281879
0.000546454
0.00095327
0.000460204
0.000460223
0.00070162
0.000460082
0.000456091
0.000463106
0.000463531
0.000458968
0.00704924
0.000639955
0.000466906
0.000522335
0.000471663
0.000454866
0.000484861
0.000462316
0.000459899
0.000481284
0.00199888
0.00709138
0.000463723
0.000465836
0.00549428
0.000452423
0.000469886
0.00564617
0.000459206
0.00242162
0.000528756
0.000468667
0.00749296
0.000459711
0.000469571
0.000559164
0.00570282
0.000456787
0.000457591
0.00169014
0.000457688
0.00124453
0.000652392
0.000587813
0.00047651
0.000457791
0.000502905
0.000456758
0.000468901
0.000477497
0.000461754
0.000480511
0.000455888
0.00723945
0.000453312
0.000453721
0.00413822
0.0026172
0.00521562
0.000506584
0.000453513
0.000459519
0.000459794
0.00343053
0.00249928
0.000457657
0.000715884
0.00688279
0.00643284
0.000502587
0.000451861
0.000461631
0.00151293
0.00562113
0.00045535
0.000451793
0.000456573
0.000456359
0.000457204
0.000511407
0.000457716
0.000454894
0.000468742
0.000495716
0.000501384
0.00052236
0.000563189
0.000459245
0.000499482
0.00554785
0.000473354
0.000462906
0.000173307
0.0056715
0.000379149
0.00046117
0.000454637
0.000694209
0.00533978
0.000660184
0.000459096
0.000458944
0.000456691
0.00607896
0.00680655
0.00528604
0.000464594
0.00402549
0.000460621
0.000455142
0.000500389
0.000481418
0.000456129
0.00729146
0.000460141
0.000457862
0.00047743
0.000685818
0.000482694
0.000453791
0.000488617
0.000459531
0.000505578
0.000464526
0.000469224
0.00488092
0.000534578
0.00500094
0.000463905
0.000474619
0.000460426
0.00045674
0.00046322
0.00109478
0.000631368
0.00689216
0.00635869
0.000451744
0.000452252
0.00045189
0.000463589
0.000568126
0.00628482
0.00046013
0.000459061
0.000455319
0.000459938
0.00633846
0.00502315
0.000476772
0.000460261
0.000462298
0.000630015
0.00672707
0.000497672
0.00689024
0.00659714
0.000466721
0.000455533
0.000459412
0.000456377
0.00636967
0.000974124
0.000469245
0.000459722
0.00533143
0.000629652
0.000460266
0.00676872
0.00680123
0.00244542
0.000463966
0.000461897
0.00754617
0.00647255
0.00546237
0.00606183
0.000461821
0.000456731
0.000462815
0.000459083
0.000913601
0.000451981
0.000492151
0.000458353
0.000500379
0.00761911
0.000463011
0.000455648
0.0060782
0.00635272
0.00655234
0.000463522
0.000570811
0.000472684
0.00730764
0.000468754
0.00381337
0.00613222
0.00407459
0.000467557
0.000468687
0.000459604
0.00295031
0.000460853
0.00579959
0.000456682
0.000454538
0.00501077
0.000464462
0.00051304
0.00652312
0.000507419
0.00046874
0.000591584
0.000472454
0.000707758
0.000468724
0.000463866
0.00072375
0.000457904
0.000457176
0.000477213
0.00576352
0.000460043
0.000453983
0.000460806
0.0059733
0.000917088
0.00286269
0.00661367
0.000581564
0.00577578
0.000459978
0.000455082
0.000498762
0.000463001
0.00614727
0.000468834
0.000459183
0.000458954
0.00598638
0.000463608
0.00166194
0.000454893
0.000516891
0.000493085
0.000462074
0.000455783
0.000457667
0.00059623
0.00620832
0.00716347
0.000458643
0.00520253
0.000479033
0.00468936
0.000465976
0.000456599
0.000496027
0.00591848
0.000463208
0.000504404
0.000464009
0.000550535
0.000464426
0.000459333
0.000462901
0.00587956
0.000666166
0.00473289
0.000464702
0.000469763
0.00470625
0.000470208
0.00700515
0.000461241
0.000459136
0.000990454
0.00448595
0.00045681
0.00271812
0.00606106
0.0071261
0.000457869
0.000457361
0.000461376
0.00046911
0.000460543
0.000459344
0.000456519
0.00526246
0.00459842
0.00046274
0.00110546
0.00046891
0.000462194
0.000535639
0.000459676
0.00045983
0.000459399
0.000465087
0.000518885
0.00598173
0.00689657
0.000453493
0.000463945
0.0004628
0.000457831
0.00264421
0.00655524
0.000459938
0.00644569
0.00507007
0.00053822
0.000462077
0.000452577
0.000452801
0.000457708
0.000453877
0.000461458
0.000461201
0.000546877
0.000595997
0.000456888
0.00472392
0.000457494
0.00578825
0.00558214
0.000462735
0.000459353
0.00479986
0.000457231
0.000451872
0.000453542
0.000476558
0.000459399
0.000464163
0.000457382
0.000456706
0.00145702
0.000462312
0.00462378
0.000467479
0.000463274
0.00255465
0.000462779
0.00483237
0.000493026
0.000459406
0.000454138
0.000459759
0.004708
0.000459911
0.000475386
0.000490914
0.00045386
0.00661823
0.000498506
0.000462554
0.000456436
0.00045634
0.00605098
0.000461182
0.00046639
0.000461878
0.000461044
0.000460626
0.00590435
0.00488523
0.000458578
0.000455929
0.000463314
0.000458905
0.000459451
0.000459056
0.00362232
0.000468557
0.00558623
0.000459776
0.000460157
0.00045657
0.000461312
0.000465032
0.000461223
0.000466138
0.00127757
0.000628078
0.00653595
0.000462829
0.00055959
0.000458929
0.00249554
0.000464907
0.000460004
0.000474835
0.000460801
0.000461479
0.000454165
0.000459777
0.000642376
0.0057863
0.000465068
0.00634281
0.00538121
0.000465716
0.000456822
0.000469182
0.0037113
0.000453863
0.000461655
0.000460831
0.00076271
0.00549344
0.000457461
0.000461844
0.00605947
0.00441069
0.000462626
0.00275216
0.00511863
0.000997687
0.000460594
0.000461582
0.000465217
0.000720242
0.000466813
0.00670011
0.000463312
0.000465316
0.000467022
0.00433863
0.00589855
0.000464254
0.00725926
0.00459953
0.000516289
0.000463926
0.000467127
0.000843772
0.00051003
0.006255
0.000457322
0.000468808
0.00455797
0.000457546
0.000457547
0.00375282
0.000462868
0.000458077
0.00126868
0.000507817
0.000456464
0.000505218
0.00422656
0.000456735
0.000465387
0.000461325
0.00661134
0.000460341
0.00046465
0.000460122
0.00713326
0.000551281
0.00046866
0.000488947
0.000503524
0.000453729
0.000472541
0.00045933
0.00043625
0.000456815
0.000457402
0.000454054
0.00072824
0.000458583
0.00855261
0.000499936
0.00548814
0.00045787
0.001021
0.0070319
0.000460398
0.000455342
0.000544642
0.00268599
0.007263
0.000459296
0.0004647
0.000464051
0.00683063
0.000496533
0.00114848
0.000461657
0.000466064
0.000471768
0.000462039
0.000521577
0.000458002
0.000492133
0.000457466
0.000493282
0.00580529
0.000458259
0.000459511
0.000470993
0.000453621
0.00138611
0.000462534
0.000487417
0.00045935
0.000483183
0.000462045
0.00046038
0.000485139
0.000451852
0.00556114
0.0045107
0.0035932
0.000456381
0.000462404
0.000470376
0.000480069
0.000458171
0.00548242
0.000453785
0.00105306
0.000457031
0.000457118
0.00069018
0.000453775
0.000456437
0.00046178
0.000454236
0.000459576
0.00525273
0.00046382
0.000690878
0.00046965
0.000468277
0.000445134
0.000458369
0.000460863
0.000468832
0.000460542
0.000458576
0.000456866
0.00379916
0.000458395
0.00619919
0.00292716
0.000468094
0.000455818
0.00046295
0.000471446
0.00742001
0.000457171
0.000958907
0.00719212
0.000483652
0.000463692
0.000460836
0.00612217
0.00125941
0.000468839
0.00046625
0.000463805
0.000460529
0.000460132
0.000463883
0.00464473
0.000592867
0.00045717
0.0008617
0.000469684
0.000459114
0.000471315
0.000459405
0.000473916
0.000455527
0.00045375
0.000459572
0.000460458
0.000460253
0.00636436
0.000457338
0.000457095
0.000459228
0.000465297
0.000465463
0.000461353
0.000466826
0.00054437
0.000454831
0.00550355
0.000466348
0.000466313
0.000461974
0.00045935
0.000495928
0.000466188
0.000459958
0.000461743
0.00045464
0.000479537
0.00539437
0.00465877
0.00571184
0.0051569
0.000462273
0.00829708
0.00628035
0.000454871
0.000459627
0.000972373
0.00504808
0.00045493
0.00337613
0.00433827
0.00607545
0.0040365
0.000847082
0.000465125
0.00571534
0.000734984
0.000459939
0.000464826
0.00252656
0.000514294
0.000481872
0.000460077
0.000452723
0.000514735
0.00045922
0.0011751
0.000459443
0.000459279
0.000628756
0.000530325
0.00454402
0.00057511
0.00298032
0.000465715
0.00045987
0.000461069
0.000530293
0.000843836
0.000460693
0.00045904
0.00488637
0.000461257
0.00382445
0.0059543
0.000453522
0.00636862
0.000462149
0.00588507
0.002835
0.00045913
0.000460471
0.000459366
0.000460699
0.000457272
0.00682838
0.000457236
0.000459864
0.000453933
0.000459949
0.00317559
0.00045919
0.000571321
0.000466248
0.00524583
0.000951533
0.000453352
0.000832013
0.00730711
0.0027512
0.0012197
0.00636189
0.000467033
0.00784228
0.000460136
0.000454726
0.000699175
0.000480849
0.00643361
0.00589475
0.000740655
0.000469412
0.000457132
0.00423472
0.000458142
0.000500585
0.000454491
0.00587706
0.000458346
0.000464146
0.000466103
0.000463918
0.00543428
0.000535319
0.00185826
0.000455059
0.000585346
0.000681112
0.00389281
0.000489849
0.0064588
0.00149425
0.000899795
0.00701444
0.000707213
0.00150833
0.000531725
0.000682046
0.000480879
0.000634641
0.00758227
0.000456889
0.000464649
0.000672482
0.00727778
0.000524158
0.000462861
0.000459525
0.00468201
0.000475618
0.000458673
0.00045786
0.00518192
0.000469022
0.000460925
0.000454477
0.000456262
0.000458761
0.00550517
0.000734232
0.000591956
0.00552348
0.000899119
0.000464824
0.000452779
0.00046082
0.000463997
0.000720854
0.000457359
0.000465349
0.00507661
0.000456736
0.00409319
0.000464941
0.00627204
0.000461445
0.000480356
0.000452817
0.00426547
0.000465268
0.000461242
0.000463294
0.000462669
0.000961511
0.000468787
0.00199553
0.000457736
0.000454463
0.000462606
0.00741406
0.000515151
0.000459484
0.00280311
0.000457951
0.000563642
0.00578015
0.00639311
0.000457642
0.000454217
0.000475509
0.000489512
0.00258284
0.000456654
0.000452811
0.000457764
0.000560368
0.000467234
0.000452636
0.00103503
0.000460353
0.00612604
0.000845001
0.00527425
0.000586362
0.000457867
0.000465404
0.000459241
0.000460636
0.000455248
0.000455048
0.00577605
0.000460057
0.000459491
0.000509833
0.00158843
0.000460254
0.00226011
0.00048893
0.000459223
0.00309273
0.00682032
0.000465118
0.000463783
0.000993796
0.000463918
0.000454687
0.000459767
0.000836494
0.000452661
0.000451878
0.000528424
0.000455499
0.000456641
0.000465917
0.000347568
0.00657623
0.000466178
0.00485836
0.00492505
0.000460906
0.00573044
0.000452394
0.00576925
0.000460743
0.000469959
0.000524125
0.000460273
0.00046008
0.00481843
0.000502491
0.000459862
0.00139925
0.000461227
0.00491753
0.000458123
0.000465308
0.000459288
0.000467631
0.000461992
0.00045332
0.000465945
0.000481797
0.0060665
0.0006273
0.000455124
0.000458444
0.000466075
0.000497272
0.000465656
0.00713312
0.00251633
0.00640921
0.000580691
0.00046724
0.000529335
0.00046353
0.000452568
0.000771296
0.000457934
0.000465941
0.00507521
0.00416398
0.00193262
0.000373808
0.00055246
0.000576449
0.00068094
0.00691973
0.000456638
0.00045818
0.000464701
0.00617458
0.00264647
0.000463636