/*--------------------------------*- C++ -*----------------------------------*\
| =========                 |                                                 |
| \\      /  F ield         | OpenFOAM: The Open Source CFD Toolbox           |
|  \\    /   O peration     | Version:  v2012                                 |
|   \\  /    A nd           | Website:  www.openfoam.com                      |
|    \\/     M anipulation  |                                                 |
\*---------------------------------------------------------------------------*/
FoamFile
{
    version     2.0;
    format      ascii;
    class       volVectorField;
    location    "400";
    object      U_0;
}
// * * * * * * * * * * * * * * * * * * * * * * * * * * * * * * * * * * * * * //

dimensions      [0 1 -1 0 0 0 0];


internalField   nonuniform List<vector> 
13726
(
(0.999235 0.00100008 -1.55851e-22)
(1.04782 0.0396551 4.22764e-21)
(0.758103 0.0683739 9.48655e-21)
(0.712576 0.0601951 6.60906e-21)
(1.00313 0.00484095 2.65455e-20)
(0.591728 0.0342135 -5.96799e-22)
(1.06907 0.124227 0)
(1.06166 0.050465 3.55258e-21)
(0.900964 0.0353532 -1.03287e-19)
(0.86549 0.0606512 -7.63268e-22)
(1.03112 0.0749533 0)
(0.462948 0.0280666 1.3232e-21)
(1.03406 0.0767107 -5.55183e-22)
(1.0463 0.0588795 -6.71034e-22)
(1.02984 0.0794362 -2.56601e-22)
(1.0489 0.0350654 1.25757e-21)
(1.03979 0.0705464 0)
(0.591459 0.0129546 1.80803e-20)
(1.02689 0.0741719 0)
(0.963637 0.020149 -9.78705e-21)
(0.864684 0.118892 1.64125e-20)
(0.982959 0.0146586 -9.57875e-21)
(1.00818 0.0169343 6.25853e-21)
(1.02835 0.0987507 4.8499e-23)
(1.03061 0.0811663 -2.23987e-23)
(0.746843 0.0612032 0)
(0.979905 0.0375517 -3.24363e-20)
(0.981523 0.0374909 2.53001e-20)
(1.05563 0.0563214 7.98716e-21)
(0.99828 0.0819936 2.51077e-20)
(1.06172 0.0499181 -3.43363e-21)
(0.931149 0.0069971 0)
(0.841909 0.0553566 -9.40993e-22)
(1.03199 0.0678978 1.33877e-22)
(1.03928 0.0574726 0)
(1.03007 0.0812198 -2.10223e-23)
(1.00285 0.00458106 -7.39424e-21)
(0.992545 -0.00521462 -1.31469e-20)
(0.905551 0.0351521 2.91032e-20)
(0.623062 0.0168825 -1.90085e-20)
(0.999427 0.0805612 -8.15277e-21)
(1.04022 0.0481047 0)
(1.06293 0.0551467 7.61328e-21)
(1.00165 0.00452307 -7.06934e-21)
(1.00796 0.0390373 4.7299e-23)
(1.00501 0.00928036 0)
(1.0478 0.0388527 -4.68892e-21)
(1.06407 0.0685257 1.9794e-20)
(0.995645 0.0612257 0)
(1.02389 0.0580573 -5.18987e-21)
(1.06757 0.0571722 3.68838e-22)
(1.03399 0.0764278 0)
(1.05586 0.0554359 -1.08823e-20)
(0.999355 0.000839188 1.89616e-20)
(1.03666 0.0604958 0)
(0.995878 0.00681312 0)
(0.993157 -0.00522053 1.06842e-20)
(0.983212 0.0137398 -8.1596e-21)
(0.996092 0.0106885 0)
(0.980511 0.00542682 -2.22071e-20)
(1.00468 0.000784637 1.36785e-20)
(1.01885 0.0148941 1.43133e-21)
(0.97128 0.0550814 -1.37469e-20)
(1.02671 0.0986416 0)
(0.879637 0.129464 3.7561e-20)
(1.00824 0.01634 -6.37647e-21)
(1.00021 0.000156952 -1.20615e-20)
(1.00129 0.0647236 1.37789e-20)
(1.0314 0.0679037 6.48138e-22)
(0.994435 0.0620839 0)
(0.991103 -0.00763074 0)
(0.733264 0.0648077 -1.27039e-21)
(1.02342 0.0588483 5.70364e-21)
(1.03707 0.0717976 -8.11113e-22)
(1.02703 0.0660134 -6.52266e-22)
(1.00218 0.0621391 0)
(1.00701 0.0146937 1.58724e-21)
(0.721236 0.035834 -2.25272e-21)
(1.03029 0.0795166 0)
(1.02848 0.0871592 0)
(0.672732 0.0293742 1.84128e-21)
(0.576635 0.0460944 -1.07651e-21)
(1.0172 0.0349814 1.56597e-20)
(0.994702 0.00221055 7.78411e-21)
(1.06042 0.0514031 -1.94717e-20)
(1.04745 0.0743583 -7.79793e-21)
(1.00246 0.0638249 -9.9407e-21)
(0.832925 0.0547448 0)
(1.07331 0.0681176 -2.00312e-20)
(1.04463 0.0440151 0)
(0.952497 0.0293985 -5.08031e-20)
(0.978443 -0.00401955 4.01581e-20)
(1.02428 0.0270417 0)
(0.987055 0.0221491 2.01334e-20)
(0.999848 0.000142247 0)
(1.05878 0.0745831 0)
(0.977292 -0.00439267 -3.74495e-20)
(0.996302 0.0822259 1.03465e-20)
(1.05908 0.0727171 1.41571e-20)
(1.04299 0.0858412 0)
(0.973154 0.0555666 -1.41358e-20)
(0.839457 0.0592371 1.85263e-21)
(1.06118 0.0512546 1.0141e-20)
(0.990165 0.0150223 0)
(1.04003 0.0489512 0)
(1.02998 0.0531962 0)
(0.566292 0.0329032 -8.28521e-22)
(0.988089 0.0222733 8.11113e-21)
(1.0139 0.00136968 0)
(1.04967 0.0347733 0)
(1.00027 0.00308664 1.99086e-20)
(1.00712 0.0398356 8.37236e-21)
(1.00024 0.00234486 -2.72177e-20)
(1.04559 0.058867 0)
(0.965667 0.0203641 8.01262e-21)
(1.02917 0.0817681 -5.74008e-22)
(1.00036 0.000200372 -9.47729e-21)
(0.79767 0.0661253 0)
(0.97629 0.0479857 0)
(1.07736 0.124379 0)
(0.869468 0.110999 -3.5133e-20)
(1.06375 0.128929 3.81008e-21)
(1.06831 0.0574075 -7.94367e-21)
(1.02629 0.0660061 -1.62691e-21)
(1.00284 0.00431053 0)
(1.00493 0.00061085 -1.39092e-20)
(1.0222 0.0361691 -7.37396e-21)
(0.920826 0.0673469 0)
(1.01672 0.0357593 -8.74569e-21)
(0.737405 0.0350724 0)
(1.00045 0.00286081 1.39388e-20)
(1.07373 0.0676955 2.61841e-20)
(0.994591 -0.0013227 7.83305e-21)
(1.04635 0.0428393 0)
(1.02786 0.0649475 -1.05274e-21)
(1.0003 0.00293803 -1.52564e-20)
(1.01466 0.126227 -3.96696e-21)
(1.0213 0.0361327 -4.05242e-21)
(1.00112 0.0107931 -3.59811e-22)
(1.02431 0.0503106 -5.34471e-21)
(1.01547 0.0273893 -1.0702e-20)
(1.00169 0.00427445 0)
(1.04306 0.0746993 -3.73364e-22)
(0.994395 0.00249898 9.28797e-21)
(1.05164 0.074134 3.98479e-21)
(1.00964 0.0235675 1.36074e-20)
(1.04369 0.0680053 -4.99647e-21)
(1.03802 0.0582755 1.1817e-21)
(0.885967 0.126437 -6.04835e-20)
(1.04544 0.0336254 -2.14988e-21)
(1.02117 0.0875616 1.15976e-21)
(1.0003 0.00222773 1.3753e-20)
(0.977611 0.106926 2.70575e-20)
(1.0428 0.0745623 5.49268e-21)
(1.00194 0.00425693 1.45678e-20)
(0.948964 0.0851834 1.33034e-20)
(0.889787 0.0644585 3.99963e-20)
(1.02386 0.0265284 -2.61676e-21)
(0.979873 0.104697 -8.79754e-21)
(0.841231 0.0605142 1.90959e-21)
(1.04542 0.043873 1.25319e-21)
(0.929071 0.00912633 -3.39008e-20)
(1.03821 0.0804117 -2.54416e-22)
(0.731277 0.0613409 -2.81313e-21)
(1.03315 0.0529233 0)
(1.02501 0.0345251 4.88197e-21)
(1.00811 0.00812317 0)
(0.996044 0.0137266 1.05083e-20)
(0.98948 0.0757976 1.82268e-20)
(1.00314 0.00514281 -2.27101e-20)
(0.990895 0.00199705 0)
(1.00827 0.0769416 -6.43161e-21)
(1.03664 0.0525496 -2.5931e-22)
(1.03629 0.0598813 4.40476e-22)
(1.04358 0.0450422 -5.07108e-21)
(0.997814 0.0463003 0)
(0.497631 0.00379619 2.68315e-20)
(1.12135 0.265213 -4.58535e-20)
(0.993787 0.0285194 0)
(0.915917 0.0671611 0)
(0.994804 0.0815615 -1.96591e-20)
(1.0202 0.0881233 0)
(0.822031 0.0655881 -9.23158e-21)
(0.809887 0.0666404 0)
(0.701329 0.0575695 -4.60397e-21)
(1.02539 0.0572567 0)
(0.542573 0.034363 -1.2579e-21)
(1.01337 0.0472193 0)
(0.627544 0.0518795 -4.20074e-22)
(0.999895 0.0192587 3.24288e-20)
(1.04597 0.0627977 -6.45373e-21)
(1.01658 0.028314 0)
(1.00165 0.0140159 2.45056e-20)
(0.982335 -0.000778479 -1.66045e-20)
(0.799273 0.0482751 -1.23118e-21)
(0.883528 0.0656082 -5.24961e-20)
(1.04535 0.0342621 0)
(0.790839 0.0576286 0)
(1.01053 0.0248065 7.27521e-21)
(1.02966 0.0524394 0)
(1.0033 0.0615228 -6.77086e-21)
(1.00055 0.00296183 -8.70584e-21)
(1.00752 0.0147945 -7.57268e-21)
(0.968107 0.0434321 -2.11767e-20)
(0.981932 0.00156166 0)
(0.96977 0.0420657 0)
(1.07342 0.0665037 -3.29305e-21)
(1.04108 0.0861033 1.89246e-21)
(0.998481 0.00587805 -2.0438e-20)
(0.838644 0.0536149 1.158e-21)
(0.995657 0.0105161 1.1007e-20)
(0.732578 0.0611019 -1.46289e-20)
(1.03279 0.0537465 0)
(1.02812 0.0222936 -3.32047e-21)
(0.999768 0.00307754 -1.99909e-20)
(1.05277 0.0742513 -8.11905e-21)
(1.03387 0.0701609 -2.58176e-24)
(1.01578 0.0266578 0)
(1.03831 0.0756579 0)
(1.06406 0.0726786 1.0117e-21)
(1.01866 0.0165623 0)
(0.991239 0.00164484 -1.01285e-20)
(0.978819 0.101554 -9.05822e-21)
(1.00913 0.0406181 7.96167e-22)
(0.619691 0.0505234 -3.42583e-21)
(0.998211 0.0452058 -5.13145e-21)
(1.02256 0.0260721 0)
(1.03794 0.0802136 1.31851e-21)
(1.00091 0.01113 -1.89993e-21)
(1.00968 0.100683 -2.48732e-21)
(0.854206 0.0664717 -2.59502e-21)
(0.880557 0.0612565 2.53322e-21)
(0.849449 0.0572661 1.77439e-22)
(0.857141 0.0598489 -1.42543e-21)
(0.869064 0.0406465 4.71474e-20)
(1.09611 0.175632 1.27262e-20)
(1.00006 5.64638e-05 1.25553e-20)
(0.88421 0.0266086 5.13829e-20)
(0.999216 0.0191909 -2.63486e-20)
(0.575511 0.0404528 -9.72333e-22)
(0.999969 0.00028957 1.31275e-20)
(1.05527 0.0526675 4.31695e-21)
(0.999896 -0.0012562 -5.26656e-22)
(1.02766 0.0874145 0)
(0.827116 0.0572193 -9.7767e-23)
(0.870632 0.151678 4.28902e-20)
(1.03404 0.0696027 0)
(0.99874 0.00650487 -5.14156e-21)
(1.06084 0.0608247 0)
(1.00903 0.0393406 1.23373e-20)
(1.03941 0.0706454 0)
(0.814057 0.0596772 2.02335e-21)
(0.994559 0.00178906 1.49583e-20)
(1.04441 0.0448712 1.06239e-21)
(0.990774 -0.00718344 -1.37621e-21)
(1.06859 0.0849027 5.73813e-22)
(1.00293 0.00560073 0)
(1.04623 0.0622348 6.21292e-21)
(0.723101 0.0596669 0)
(0.998206 0.00574865 1.32096e-20)
(0.831712 0.0669625 -2.39595e-20)
(0.999034 0.00711188 1.23175e-20)
(0.988363 0.023368 -3.03858e-20)
(1.01534 0.0260088 3.79928e-22)
(0.994113 -0.00133815 1.04601e-20)
(0.698008 0.0555264 -5.08944e-21)
(1.03238 0.0352198 3.61405e-21)
(1.05241 0.054739 3.59165e-21)
(1.00141 0.0998023 -1.46148e-20)
(1.02797 0.0834071 8.06968e-22)
(1.00177 0.0971186 -7.58774e-21)
(0.999905 -0.000948183 -3.02025e-23)
(1.02785 0.0839409 1.06769e-21)
(1.05799 0.0720732 -3.04475e-23)
(1.04392 0.067508 4.00333e-21)
(1.02411 0.0346766 2.82416e-21)
(0.870122 0.125983 3.73745e-20)
(1.02215 0.0488681 0)
(1.07265 0.0661659 0)
(0.989885 0.0736662 1.52504e-20)
(0.996232 0.00713303 0)
(1.02292 0.0253823 0)
(1.02754 0.0656683 6.49902e-22)
(1.03268 0.0757501 0)
(1.01677 0.0925596 0)
(1.06713 0.0606278 1.30375e-20)
(0.887297 0.0238098 -4.65864e-23)
(1.02309 0.0655354 -3.53985e-21)
(1.03979 0.0761485 -1.55374e-21)
(0.70565 0.0245484 -4.13584e-23)
(1.03623 0.0725167 6.47426e-22)
(1.03167 0.0610622 0)
(0.864894 0.0440411 0)
(1.02302 0.0266917 7.28124e-21)
(1.04002 0.0574917 1.13162e-22)
(0.762219 0.0670563 0)
(1.00026 0.00013049 6.92235e-21)
(1.03597 0.078627 0)
(1.02082 0.0369843 0)
(0.712161 0.0626523 7.89277e-22)
(1.0476 0.0519584 -4.63991e-21)
(0.585849 0.0467822 -4.22119e-22)
(1.03439 0.051996 0)
(0.815368 0.0550738 -7.84713e-22)
(1.00008 0.0957259 1.74776e-20)
(1.05925 0.052558 -1.67197e-20)
(1.00192 0.00397109 -1.32236e-20)
(0.998183 0.000813957 0)
(1.01304 0.0853992 0)
(1.02856 0.0149235 0)
(1.01863 0.0903635 0)
(1.0057 0.0782544 0)
(0.782409 0.0471296 6.97661e-22)
(1.02165 0.058989 5.98525e-21)
(0.591999 0.0466787 0)
(0.866286 0.0667244 -7.89663e-21)
(1.0396 0.0350538 6.79347e-22)
(1.04623 0.0739542 0)
(0.999781 0.000189241 8.30638e-21)
(0.682273 0.0615171 0)
(0.984559 -0.00966546 -3.63612e-20)
(1.01448 0.0851707 3.70733e-21)
(0.611604 0.0497106 -1.38355e-21)
(1.02343 0.0662834 -3.61841e-21)
(1.00505 0.00882272 0)
(0.953512 0.0311002 3.71761e-20)
(0.846044 0.0675389 1.00356e-20)
(0.434438 0.0273933 -1.74521e-22)
(0.578357 0.0470755 1.89203e-21)
(1.00176 0.0103402 -1.19527e-20)
(0.989453 0.0234945 1.84767e-20)
(1.02616 0.0334426 -2.68759e-21)
(0.727119 0.0660383 0)
(0.99569 0.0155468 -3.3336e-22)
(0.945009 0.0845492 -1.22449e-20)
(1.0602 0.0605034 -3.80135e-21)
(1.01584 0.0282945 7.21683e-21)
(1.00737 0.0781543 0)
(0.870543 0.034682 4.69406e-20)
(0.757197 0.0633945 0)
(0.965792 -0.00407648 0)
(0.998457 0.00635424 5.71829e-21)
(0.950341 0.235211 2.97293e-20)
(1.05943 0.0736376 7.63379e-21)
(1.05471 0.0521589 4.0818e-21)
(0.981655 0.155456 -4.99552e-20)
(1.00473 0.00809093 -2.32384e-21)
(0.711444 0.0547518 5.90758e-21)
(1.0147 0.0273629 6.33679e-21)
(0.995376 0.0135087 0)
(0.980976 0.00619348 -2.2112e-20)
(0.837941 0.0658194 1.66853e-20)
(1.02664 0.0441 0)
(0.992031 -0.00184775 0)
(0.994172 0.0292397 0)
(1.04065 0.0571212 3.98805e-21)
(1.00937 0.103008 0)
(1.03559 0.0774086 9.80929e-22)
(0.644576 0.0518663 -5.0872e-22)
(1.00409 0.0164865 1.166e-20)
(1.05488 0.0565274 3.1876e-21)
(1.06007 0.0525083 1.87509e-20)
(1.06099 0.0901989 7.3153e-21)
(1.03073 0.101391 9.19185e-22)
(0.999893 0.0029817 1.38864e-20)
(0.982944 0.001827 -1.17179e-21)
(1.03495 0.0782534 0)
(1.01064 0.0771046 6.85304e-22)
(0.967583 0.0652275 2.20241e-21)
(1.04311 0.0749033 0)
(0.966614 0.0219319 -2.8484e-22)
(1.04882 0.0647527 6.08588e-21)
(1.03171 0.0350313 -1.2632e-21)
(1.04689 0.0519756 4.82645e-21)
(0.965871 -0.00549514 0)
(0.869952 0.0650141 0)
(1.0284 0.0168266 -2.9076e-21)
(1.07282 0.0886135 0)
(1.04934 0.0645711 0)
(0.640284 0.0524307 5.61155e-22)
(1.01998 0.0899309 1.29692e-21)
(0.790822 0.0640629 7.20665e-21)
(1.05787 0.0559383 6.33276e-21)
(1.0047 0.00851107 0)
(1.03666 0.0717834 0)
(1.0367 0.059163 -3.24772e-22)
(0.90468 0.062841 0)
(0.802659 0.0485192 -3.15817e-22)
(1.01008 0.0408395 -8.05204e-21)
(1.00029 0.00251552 7.95414e-21)
(0.980811 0.00787272 0)
(1.0016 0.0108039 0)
(0.833653 0.12309 0)
(1.0425 0.0461495 -3.92692e-21)
(1.04088 0.0565302 -4.13008e-21)
(0.959189 0.105614 0)
(0.864397 0.0498834 2.38079e-21)
(1.07273 0.107354 0)
(1.02497 0.0580912 0)
(1.05377 0.0423073 4.22297e-22)
(1.02888 0.101563 -3.3896e-22)
(1.02786 0.0140811 0)
(1.03411 0.0528547 0)
(1.00539 0.0483769 -5.89575e-21)
(1.02314 0.0490051 0)
(1.05895 0.0889912 0)
(0.825215 0.0625614 2.76168e-21)
(1.04625 0.0677262 0)
(1.06349 0.0557584 -1.61214e-20)
(1.01033 0.0600338 9.26766e-21)
(0.691685 0.0472368 0)
(1.04033 0.0348562 1.07722e-21)
(0.871044 0.142398 -8.62494e-20)
(0.993969 0.0485634 1.57421e-20)
(1.01233 0.0978305 -7.2934e-21)
(0.999769 0.00331856 1.34751e-20)
(1.03514 0.078432 0)
(1.0021 0.0138456 -1.68105e-20)
(1.02613 0.0434446 1.40203e-21)
(0.996932 0.0152989 -5.03114e-21)
(1.00307 0.0143142 -2.72947e-21)
(1.04432 0.0525494 2.33581e-21)
(1.02839 0.014271 0)
(0.999949 0.000403164 1.72903e-20)
(0.867014 0.0239082 0)
(0.976545 0.0184398 -1.14753e-20)
(0.988267 0.059928 -1.84542e-20)
(0.907624 0.0396993 7.84353e-22)
(0.481732 0.0314503 -2.14661e-21)
(1.01793 0.00935877 9.79158e-21)
(0.954055 0.0958308 9.59536e-22)
(1.01949 0.0149104 4.32089e-21)
(1.04827 0.0508355 8.53203e-21)
(1.00998 0.00107996 -9.7357e-21)
(0.785001 0.0676731 -3.6618e-21)
(0.999872 -0.000444967 0)
(0.984048 0.00958886 1.81488e-20)
(0.999094 0.000948436 0)
(0.816729 0.0591232 -1.93719e-21)
(0.634529 0.0520045 -4.73935e-22)
(0.975423 0.0189287 0)
(0.998643 0.046898 -7.47972e-21)
(0.983963 0.0080376 0)
(1.00123 0.0713298 -1.19409e-20)
(0.974255 0.0476253 0)
(1.01993 0.0369951 -8.61052e-21)
(1.06457 0.068982 -5.57904e-21)
(0.58994 0.0408158 5.89576e-22)
(1.05211 0.0435652 -7.81814e-21)
(1.06063 0.0751701 0)
(1.00281 0.033314 -1.69841e-21)
(1.09132 0.110708 -2.96642e-22)
(1.09954 0.258864 0)
(1.00251 0.0144317 1.27266e-20)
(1.01837 0.0920526 -4.02276e-22)
(1.03483 0.0759628 -1.03133e-21)
(1.00669 0.0363706 1.25164e-20)
(1.01117 0.042272 6.39431e-21)
(1.05306 0.042438 4.27144e-21)
(1.03136 0.0603938 -1.16083e-21)
(0.995126 0.00969604 0)
(1.00972 0.00140224 0)
(1.11711 0.16219 -3.50801e-20)
(0.911966 0.0398424 6.26863e-20)
(0.826079 0.1314 0)
(0.889493 0.0607293 0)
(1.00125 0.00308611 0)
(1.02968 0.0846644 0)
(1.00368 0.000975104 0)
(0.65546 0.0527076 1.27101e-21)
(0.991962 -0.00138037 -4.20755e-21)
(1.01973 0.00895195 5.26957e-21)
(1.05827 0.0713675 -6.55592e-21)
(0.70657 0.0631547 -4.70535e-21)
(1.0297 0.0817999 -2.19342e-22)
(1.03488 0.0732913 2.76962e-22)
(1.03479 0.0756855 1.35359e-21)
(1.00615 0.0393639 8.56129e-21)
(1.03777 0.0562233 -9.0871e-22)
(1.06207 0.0554173 0)
(1.02154 0.015928 -6.33913e-21)
(0.999397 0.00771282 -2.06182e-22)
(1.01233 0.0468272 0)
(0.472258 0.0322234 0)
(1.00252 0.0377584 8.71052e-21)
(1.03035 0.0686625 0)
(1.0279 0.0165448 0)
(0.921478 0.0643462 0)
(0.86834 0.225105 -1.35256e-20)
(1.03589 0.0776347 0)
(0.765154 0.061855 3.8743e-21)
(0.998269 -0.00125314 2.15263e-20)
(1.00977 0.0766784 2.37825e-21)
(0.82264 0.0351958 0)
(1.01789 0.0974592 -4.75737e-21)
(0.973863 0.0453312 0)
(1.03138 0.0466465 -2.93966e-21)
(0.993902 -0.000993888 5.39022e-21)
(1.01786 0.00703702 -1.05012e-20)
(1.00301 0.0368553 -8.24959e-21)
(1.06175 0.0989195 4.14276e-22)
(0.89493 0.131037 3.63153e-20)
(0.969425 0.0635073 1.25343e-20)
(1.01952 0.036072 6.73007e-21)
(0.995644 0.00985217 -9.04522e-21)
(0.975306 0.0705761 0)
(1.00559 0.0199275 0)
(1.02815 0.0228609 4.04426e-21)
(1.05809 0.0535271 6.32209e-21)
(0.69444 0.0601286 5.39351e-21)
(1.01811 0.0350588 -1.24249e-20)
(1.04358 0.0359318 1.17881e-21)
(1.014 0.000418644 7.89667e-21)
(0.999886 0.00270775 2.09908e-21)
(0.995391 0.00691026 -9.29139e-21)
(1.00632 0.0477387 -3.05578e-21)
(1.01507 0.000747641 9.26397e-21)
(0.996128 0.0143497 -1.17838e-20)
(0.581696 0.0461069 -3.63328e-22)
(0.996695 0.00693731 0)
(1.02254 0.0591347 -6.56867e-21)
(1.02092 0.0160344 -6.97176e-21)
(0.891538 0.0664514 0)
(0.998729 0.00697008 -6.55902e-21)
(0.983455 0.00886942 1.99991e-20)
(1.06442 0.0724722 0)
(0.980575 -0.00289382 0)
(1.03993 0.0701292 1.40741e-21)
(0.868866 0.209909 2.29763e-20)
(0.917041 0.0100083 2.83492e-20)
(1.04257 0.0748466 0)
(1.00982 0.0245683 0)
(1.02244 0.0247671 0)
(0.878202 0.0607407 5.55014e-23)
(0.636084 0.0506104 2.74062e-21)
(0.527936 0.0308299 2.55519e-21)
(0.451566 0.0279269 0)
(1.00001 0.000346894 1.67282e-20)
(1.0481 0.0515089 -9.89566e-21)
(0.999976 0.00260658 1.07276e-21)
(0.993937 0.00256027 0)
(1.0275 0.0746377 0)
(0.580118 0.0327149 0)
(1.04205 0.0557436 1.09867e-21)
(0.999998 0.000263934 -1.52124e-20)
(1.01035 0.00852718 0)
(0.998207 0.00947395 -1.54754e-20)
(1.04652 0.0422672 3.35058e-21)
(0.965027 0.0096106 -2.06553e-20)
(0.959327 0.0703889 -9.58766e-21)
(1.00881 0.0224791 8.62535e-21)
(1.06825 0.0984301 5.03544e-21)
(1.03632 0.0611903 4.69601e-22)
(1.04277 0.0643555 -3.00901e-21)
(0.967431 -0.00277524 -2.70677e-20)
(1.05281 0.0434361 3.37567e-21)
(0.977075 0.0497099 1.99787e-20)
(0.693043 0.0611955 -3.08689e-22)
(0.998398 0.00092999 1.35675e-21)
(0.983672 0.0104432 -1.85375e-20)
(1.04221 0.0262803 1.56932e-21)
(0.563796 0.0344432 7.51314e-23)
(0.994999 0.0493545 -1.85259e-21)
(1.06446 0.0678665 -1.21966e-20)
(0.953421 0.0932824 0)
(0.70898 0.0338834 2.82221e-21)
(1.031 0.0686986 -6.24379e-22)
(1.02271 0.0337489 -7.73184e-21)
(1.01997 0.0766784 1.69287e-21)
(0.566862 0.045481 -3.32302e-22)
(1.00512 0.0797074 -5.93788e-21)
(0.940927 0.227883 -2.2693e-20)
(0.995727 0.0314912 -1.83599e-20)
(1.04397 0.051928 6.6763e-22)
(1.04226 0.064473 0)
(1.01183 0.0999224 7.24212e-21)
(0.927222 0.0671738 1.10116e-20)
(0.996929 0.00939911 -1.7327e-20)
(1.01901 0.0161662 0)
(1.00025 0.00199991 1.52868e-20)
(1.01813 0.00893151 -4.39933e-21)
(0.982565 0.0104642 -2.08126e-20)
(0.826882 0.0664253 0)
(1.04346 0.0367885 1.79274e-21)
(1.03455 0.0333441 1.40317e-21)
(0.99142 0.0092321 0)
(1.00045 0.000237264 -1.56332e-20)
(1.01179 0.0402125 2.91662e-21)
(1.09391 0.146484 3.72508e-20)
(1.03628 0.072168 -6.5021e-23)
(0.782363 0.0487094 4.6328e-20)
(1.0105 0.0608512 0)
(1.04948 0.049832 0)
(1.03301 0.0757945 1.41661e-21)
(1.00879 0.058354 0)
(0.975428 0.100388 0)
(0.97877 0.0303086 0)
(0.98456 0.0371744 0)
(0.867822 0.0613038 1.59712e-21)
(0.99956 0.0010554 2.89046e-22)
(0.930358 0.068344 0)
(1.00032 0.00013231 1.40424e-20)
(0.977839 0.0295528 0)
(1.0421 0.0256423 -1.7551e-21)
(0.856261 0.0593011 6.99821e-22)
(0.71041 0.0335202 -1.64108e-20)
(0.994181 0.0754829 1.12908e-20)
(0.997024 0.00722749 9.33852e-22)
(1.06074 0.0734613 1.3337e-20)
(0.999915 -0.000542938 3.0601e-20)
(1.01632 0.0709864 1.68538e-22)
(1.00968 0.0576445 -3.38583e-21)
(1.00173 0.00348298 1.82398e-20)
(0.971328 0.00207315 -9.85022e-21)
(0.999859 -6.05306e-05 0)
(1.0225 0.038734 6.28313e-21)
(1.00003 0.000547373 -1.49129e-20)
(1.04333 0.0459809 3.80068e-21)
(1.02982 0.0788573 -7.92758e-23)
(1.0082 0.00693838 -3.54018e-21)
(0.981607 0.000630537 -9.5307e-21)
(1.03081 0.0533765 0)
(0.993957 -0.010579 -2.36246e-20)
(1.02995 0.0806224 -1.12365e-22)
(0.819365 0.0452132 -5.08791e-21)
(0.51006 0.00384878 0)
(1.0358 0.0525955 1.33604e-22)
(1.00212 0.00364778 -3.64321e-21)
(1.02678 0.0340878 -2.77262e-21)
(1.03952 0.0474755 -1.61014e-21)
(1.04319 0.0548971 0)
(1.02052 0.0700128 0)
(0.423717 0.0209962 0)
(1.01079 0.00870031 0)
(0.633611 0.0474698 5.95008e-22)
(1.05842 0.0737887 -7.59096e-21)
(0.96707 -0.001868 2.2e-20)
(1.01775 0.00843158 -1.28064e-20)
(0.990915 0.014779 0)
(0.713141 0.0479182 -3.32812e-22)
(0.999965 -0.000280619 1.29067e-20)
(0.970032 0.00167397 4.78463e-22)
(0.999759 -0.00205341 0)
(1.00535 0.00960357 -2.20806e-20)
(0.982479 -5.12496e-06 2.61037e-20)
(1.02573 0.0898862 -4.51188e-22)
(1.02049 0.0154921 0)
(1.06787 0.0603712 0)
(1.03369 0.080749 -7.65908e-22)
(0.999465 0.000881658 -2.67436e-20)
(1.00348 0.00576126 -1.96469e-21)
(0.994872 0.00892681 0)
(1.06254 0.0732459 -1.7089e-20)
(0.983964 0.0386912 0)
(0.87741 0.056349 -4.21392e-21)
(1.02432 0.0745165 2.95069e-22)
(0.998521 -0.00123731 -1.03134e-20)
(1.0425 0.0750222 2.86721e-21)
(0.676151 0.0609437 5.93939e-21)
(1.04922 0.0506305 1.30642e-21)
(1.03217 0.03851 -1.40118e-21)
(1.0082 0.0222693 -8.18857e-21)
(0.951963 0.0585592 2.35216e-20)
(1.01935 0.00021394 0)
(1.00794 0.00762259 -3.81621e-21)
(0.91013 0.0662832 0)
(0.781604 0.0424728 0)
(1.0589 0.0535227 6.75713e-21)
(1.01328 0.123232 -5.71659e-21)
(1.05504 0.0513052 -8.81657e-21)
(0.948932 0.0691643 4.00049e-21)
(0.996607 0.00287341 1.45816e-20)
(0.783261 0.0620604 6.18255e-22)
(0.993943 0.0733946 0)
(1.06378 0.0727233 8.49642e-21)
(0.993606 0.00232142 0)
(0.964874 -0.011644 0)
(1.045 0.0330162 0)
(0.999072 0.00756292 0)
(1.05769 0.127487 -3.8544e-21)
(1.03853 0.0361431 5.92706e-22)
(0.989491 0.0611396 1.08588e-20)
(0.98775 0.0415065 1.74915e-20)
(1.01259 0.129741 3.6509e-21)
(1.06553 0.0669253 1.06302e-21)
(0.982939 0.00411574 0)
(0.987171 0.147961 -9.9177e-21)
(0.560736 0.0347378 1.28999e-21)
(0.835721 0.0514944 2.50956e-21)
(1.05031 0.0646071 6.38523e-21)
(0.901635 0.126758 -2.96432e-20)
(0.995115 0.00857988 0)
(0.64133 0.0288057 0)
(1.00637 0.00900139 1.02092e-20)
(1.06267 0.0469022 6.25657e-21)
(0.999972 0.00238907 -1.08353e-21)
(1.01766 0.000419554 0)
(1.02776 0.0766337 1.32147e-21)
(0.97895 0.017992 2.44201e-20)
(0.949869 0.0630562 4.90928e-22)
(1.06743 0.0853649 -1.74233e-20)
(1.04128 0.184733 0)
(0.997711 0.00133698 7.88121e-21)
(0.923352 0.0101653 4.34234e-20)
(1.02718 0.0768433 0)
(1.01856 0.0360308 1.29398e-20)
(1.01992 0.0597898 -3.87658e-22)
(0.837984 0.0662423 0)
(1.00408 0.0145034 -1.28374e-20)
(0.979772 -0.00112572 0)
(0.835652 0.0584384 0)
(0.996704 0.00226124 2.36227e-20)
(0.998399 0.00119342 2.58918e-21)
(1.04223 0.046985 3.3814e-21)
(0.890242 0.0641987 1.82438e-21)
(0.999868 -0.000599743 -2.89219e-20)
(1.04542 0.075389 0)
(1.01329 0.00122873 -4.97744e-21)
(1.02198 0.0164335 1.42158e-20)
(1.0566 0.0553039 3.20366e-21)
(0.986285 -0.00438493 3.58746e-20)
(1.05876 0.102134 0)
(1.05825 0.164257 -1.36977e-20)
(1.00574 0.0359896 0)
(1.0381 0.0286869 2.10401e-22)
(0.997939 0.00126515 -1.76762e-20)
(1.04136 0.0471441 2.02982e-21)
(1.003 0.0175875 0)
(0.995071 0.0307276 0)
(1.00896 0.0233218 0)
(1.04254 0.0749426 -2.52575e-21)
(0.959447 0.000866245 0)
(0.959133 -0.00098724 0)
(1.05445 0.0506751 0)
(0.53863 0.0178047 -1.86358e-20)
(1.08268 0.128746 6.95848e-21)
(0.989472 0.0264383 0)
(0.983764 0.0359102 2.85716e-20)
(0.864582 0.10178 -1.65656e-20)
(1.06817 0.05197 6.59033e-21)
(0.798174 0.0550734 0)
(1.04732 0.0616385 4.84406e-21)
(1.03909 0.0628716 -2.20852e-21)
(1.03374 0.0437885 7.35843e-22)
(0.456558 0.0111233 0)
(1.034 0.0799853 0)
(1.03708 0.0721969 -1.21065e-21)
(0.958053 0.110579 0)
(1.00157 0.0032661 1.84922e-20)
(0.841124 0.0655713 0)
(0.978915 0.0172014 8.0532e-21)
(1.00008 8.76664e-05 0)
(0.984509 0.0179497 4.15079e-20)
(1.01856 0.0153887 -1.817e-21)
(1.00588 0.000869461 0)
(0.828957 0.0578112 1.22707e-21)
(1.0385 0.0628366 1.81128e-21)
(0.999988 -0.000156511 -1.33061e-20)
(1.02276 0.0157901 -2.9487e-21)
(1.01185 0.002056 6.31803e-22)
(0.997085 0.0442568 -1.79819e-20)
(0.963107 -0.0113384 0)
(0.988451 0.0713788 1.02924e-21)
(1.03462 0.0202594 0)
(1.03387 0.0433187 1.49128e-21)
(1.02359 0.0337176 -1.39025e-21)
(1.00138 0.00265489 -1.88964e-21)
(0.992026 0.0116375 0)
(0.933258 0.0697618 -7.23559e-22)
(1.0202 0.00898567 -3.01807e-21)
(1.04039 0.0747054 -4.43098e-21)
(1.04175 0.0564455 0)
(1.00607 0.00873869 0)
(0.998613 0.00127564 0)
(0.979793 -0.00250996 0)
(0.990627 0.0264661 1.81386e-20)
(1.02011 0.0708924 1.20569e-21)
(0.727349 0.0267764 2.58354e-20)
(1.02914 0.0641105 -2.74866e-21)
(1.06285 0.0722331 -8.20417e-21)
(1.0444 0.0595071 0)
(1.05292 0.0646908 -6.16357e-21)
(1.01156 0.0623658 7.7687e-21)
(0.99527 0.0127998 1.06131e-20)
(1.07747 0.0906763 -3.31395e-21)
(0.997323 0.0958976 1.31333e-20)
(1.03579 0.0478905 3.00064e-22)
(0.999456 0.00817976 2.11089e-22)
(1.0287 0.052324 -3.53934e-21)
(1.08132 0.107021 0)
(0.662926 0.0489019 0)
(0.999903 0.00206695 -1.08652e-21)
(0.969504 -6.54229e-05 2.99972e-20)
(0.587179 0.0371393 -1.31875e-21)
(1.00352 0.0597073 -9.03395e-22)
(1.02296 0.0846078 4.65684e-21)
(0.960436 0.0768934 2.58201e-20)
(1.03418 0.0783891 1.30312e-21)
(1.02339 0.050195 5.53446e-21)
(0.999997 0.00028913 -1.14133e-20)
(1.0249 0.0496039 8.54418e-21)
(1.04342 0.07503 -2.99479e-21)
(0.985578 -0.005944 2.60919e-20)
(0.999924 -4.12888e-05 3.07744e-20)
(1.02288 0.0834904 -3.95194e-21)
(0.983395 0.0838921 -8.8005e-21)
(1.00141 0.00329626 -1.49278e-20)
(0.778364 0.22891 9.53713e-20)
(0.999664 -0.00223817 0)
(0.999786 -0.000550299 0)
(0.985297 0.0828326 5.97729e-21)
(1.02628 0.0968251 0)
(0.968572 0.0219199 -1.74792e-20)
(0.645353 0.0528071 -3.26867e-22)
(1.03644 0.0570742 0)
(0.991787 0.0120618 0)
(1.02567 0.0351125 -5.52326e-21)
(1.03815 0.0568307 -2.05808e-21)
(0.993759 0.00427924 0)
(0.997313 -0.00293877 0)
(0.995442 -0.00025237 -1.45825e-20)
(0.988189 0.0121586 -9.25833e-21)
(1.03412 0.080912 0)
(0.999912 -0.000799449 1.41381e-20)
(1.00412 0.013894 2.01534e-20)
(1.0457 0.0679261 0)
(1.05351 0.0720005 -4.673e-21)
(0.864795 0.0295572 5.4861e-20)
(1.02529 0.0335965 0)
(0.878041 0.117851 9.45892e-20)
(0.997378 0.00961367 3.30177e-20)
(1.03484 0.0689922 -2.44609e-22)
(0.998758 0.00359783 0)
(1.02819 0.0151513 -2.43203e-21)
(1.00316 0.000800295 0)
(1.00003 5.63653e-05 7.0092e-24)
(0.985605 -0.0048792 -2.98724e-20)
(1.05493 0.062934 0)
(1.01033 0.016741 8.3303e-21)
(1.01426 0.00102869 4.11913e-21)
(0.945641 0.0435312 1.74321e-20)
(0.53369 0.0321816 1.05462e-21)
(1.0548 0.0633129 0)
(1.04287 0.0745499 -3.51517e-21)
(1.0285 0.046259 0)
(1.01404 0.0149698 -4.76791e-21)
(0.990838 0.0293141 1.14473e-20)
(1.02693 0.0757547 1.85009e-21)
(0.963181 0.0769074 0)
(0.994933 0.00143006 -1.36582e-22)
(0.971942 0.0449765 6.02736e-21)
(1.09085 0.105282 1.79803e-20)
(0.928586 0.0673492 5.19252e-21)
(1.03294 0.0754416 -4.18615e-22)
(1.05323 0.0725551 -6.23647e-23)
(0.954383 0.0575057 -4.07789e-20)
(0.966263 -0.0102069 -2.84479e-20)
(0.982571 0.00328675 2.00862e-20)
(1.12672 0.288854 6.33591e-20)
(0.733206 0.0630628 -6.24241e-21)
(0.963468 0.00884288 3.49326e-20)
(1.00324 0.000577415 0)
(1.0204 0.00850465 9.93064e-21)
(1.02606 0.091139 5.77954e-22)
(1.03879 0.0583242 -9.74296e-22)
(1.02783 0.0134996 0)
(1.02084 0.00855108 -5.62838e-21)
(0.950866 0.0675003 3.34744e-22)
(1.05344 0.0645825 -9.04401e-22)
(1.01061 0.0872934 1.19693e-20)
(0.996462 0.00259122 -7.40008e-21)
(0.986669 0.0407376 0)
(0.701479 0.0541496 0)
(0.993435 -0.010703 4.72406e-20)
(1.03719 0.0844235 -2.62093e-21)
(1.02119 0.0298383 3.78326e-21)
(0.992111 0.00915335 -2.99302e-21)
(1.03934 0.0360126 -1.40085e-21)
(0.980722 0.0122729 -3.52137e-20)
(1.00002 0.000372143 2.18579e-20)
(0.946645 0.0409141 -6.178e-20)
(1.02183 0.0296605 0)
(0.994232 0.0202334 0)
(0.913483 0.0666955 2.61362e-21)
(0.591155 0.0469266 -2.5844e-22)
(0.991626 0.0183293 -1.41885e-22)
(1.00987 0.0740207 -7.61819e-21)
(0.993391 0.0200743 1.08661e-20)
(0.946783 0.00503482 3.40807e-22)
(1.03405 0.0782007 -1.50578e-21)
(1.06791 0.0542359 -2.12022e-20)
(0.78419 0.0482694 0)
(1.01077 0.0156428 5.26602e-21)
(0.980556 -0.000685397 0)
(1.00606 0.0127501 0)
(1.01797 0.00797472 1.51277e-20)
(1.00288 0.00523702 7.6901e-21)
(1.02731 0.0131472 1.03021e-21)
(0.991454 0.0415172 1.3634e-20)
(0.988428 0.0114433 2.81367e-20)
(0.537791 0.0343458 0)
(0.682659 0.0561402 6.34538e-21)
(0.999889 0.00228719 1.10431e-21)
(1.03682 0.0577388 5.81181e-22)
(1.01421 0.0468756 0)
(0.913867 0.000122912 0)
(1.00383 0.0328924 3.71844e-22)
(1.02915 0.0465019 2.28687e-22)
(1.00439 0.00778697 1.15066e-20)
(0.629301 0.0499367 1.66659e-21)
(1.00025 0.00381613 -4.74012e-21)
(0.999996 -0.000212755 -1.09925e-22)
(1.03408 0.0327298 -3.20976e-21)
(0.950882 0.0876535 0)
(1.02539 0.00857637 1.91591e-21)
(0.603022 0.0494707 0)
(0.8415 0.0593297 -3.24977e-21)
(1.00912 0.00104794 0)
(1.05429 0.0651289 -4.1403e-21)
(1.03409 0.0206407 0)
(0.998497 0.0307079 0)
(0.992071 -0.00554476 2.25665e-20)
(0.701896 0.0584397 -5.3039e-21)
(1.02362 0.00804637 -3.69767e-21)
(1.0432 0.0740511 3.52323e-21)
(1.00358 0.00427464 0)
(0.999991 0.00025889 -2.18648e-20)
(1.02831 0.0557118 9.93599e-22)
(1.01608 0.000993655 4.34686e-21)
(1.00861 0.000950606 0)
(0.99879 0.00415235 5.56777e-21)
(0.99747 -0.00312254 -3.49591e-21)
(0.780925 0.0576513 2.87725e-22)
(1.03823 0.0554967 1.38924e-21)
(1.02337 0.0387243 -2.11264e-21)
(0.999954 -0.000374543 1.3341e-20)
(1.05375 0.0538097 1.3207e-20)
(0.996565 0.00197819 -1.90365e-20)
(1.02093 0.0599502 -9.44249e-21)
(0.917145 0.0634313 0)
(0.999874 -0.00108309 -1.3785e-20)
(1.05203 0.0541243 0)
(1.02331 0.0157671 3.1928e-21)
(1.12273 0.196754 0)
(0.987986 -0.0106213 -1.4409e-21)
(0.889924 0.0654222 -4.07686e-21)
(0.866025 0.0623516 -1.91009e-21)
(0.998267 0.0317253 0)
(0.944667 0.00412998 -5.76863e-20)
(0.929744 -0.0159037 3.39396e-20)
(1.01341 0.0588347 0)
(0.993661 -0.00459687 -5.07626e-22)
(1.00657 0.0142151 -1.15551e-20)
(0.916488 0.0124595 -3.38221e-20)
(1.0026 0.0340521 8.92731e-21)
(1.00323 0.0349414 0)
(1.00659 0.0137103 2.63081e-21)
(0.983525 0.00727181 2.5827e-21)
(1.04137 0.0385421 -4.08617e-22)
(1.00474 0.0595717 0)
(0.997775 0.00928652 -1.5715e-20)
(1.00003 0.000712119 -1.6192e-20)
(1.0117 0.0615512 -6.28919e-21)
(0.930061 0.0784107 -1.60086e-20)
(1.00243 0.00550193 0)
(1.03273 0.0248682 3.239e-21)
(0.680181 0.0333679 -2.38279e-20)
(1.01762 0.00744787 2.39913e-21)
(0.991633 0.0177687 -1.57317e-20)
(1.00701 0.00678329 7.83701e-21)