/*--------------------------------*- C++ -*----------------------------------*\
| =========                 |                                                 |
| \\      /  F ield         | OpenFOAM: The Open Source CFD Toolbox           |
|  \\    /   O peration     | Version:  v2012                                 |
|   \\  /    A nd           | Website:  www.openfoam.com                      |
|    \\/     M anipulation  |                                                 |
\*---------------------------------------------------------------------------*/
FoamFile
{
    version     2.0;
    format      ascii;
    class       surfaceScalarField;
    location    "350";
    object      ddtCorrDdt0(phi);
}
// * * * * * * * * * * * * * * * * * * * * * * * * * * * * * * * * * * * * * //

dimensions      [0 3 -2 0 0 0 0];
oriented        oriented;


internalField   nonuniform List<scalar> 
20424
(
-8.55689e-09
3.34629e-08
-2.44895e-08
-2.59509e-05
1.93266e-05
6.62423e-06
-1.57631e-07
2.57798e-07
-9.99723e-08
2.21093e-06
-2.03332e-06
-1.77588e-07
-1.08001e-06
7.33854e-07
3.46246e-07
8.81274e-06
-1.54431e-06
-7.26922e-06
-1.06278e-05
-5.50098e-06
1.61245e-05
1.00623e-06
2.26675e-06
1.24376e-07
5.1945e-07
-6.43556e-07
5.26889e-07
1.68406e-06
2.21242e-06
9.71851e-06
-1.19311e-05
-3.11135e-07
5.30286e-07
-2.19032e-07
-2.42923e-06
-1.27992e-06
3.7094e-06
-6.49728e-05
0.000200031
-0.000135058
6.77156e-05
-0.000159726
9.20094e-05
3.3581e-06
1.23146e-07
1.71395e-07
-2.94305e-07
0.000107185
-6.85024e-05
-3.86806e-05
7.52521e-08
-3.04988e-07
2.29732e-07
-2.38827e-07
-1.04952e-08
2.49471e-07
0.000416803
-7.10325e-05
-0.000345762
0.00012967
-6.19549e-05
0.000202021
-0.000192708
-9.31196e-06
-3.70147e-06
1.55014e-05
-1.17994e-05
-1.87155e-07
-8.92692e-07
-8.62936e-06
-1.70336e-06
1.03317e-05
1.32828e-06
-8.36212e-06
7.0331e-06
1.2246e-06
-3.87524e-06
2.6502e-06
1.04403e-06
-3.01981e-07
-7.42246e-07
-1.14142e-07
4.409e-07
-3.2649e-07
0.000275543
-0.000810963
0.000535419
-4.23178e-05
6.29248e-05
-2.06059e-05
1.73446e-06
-6.81633e-07
-1.05298e-06
-1.15794e-05
5.30818e-07
1.10485e-05
-3.74067e-07
-5.75254e-08
4.3169e-07
8.60784e-07
-3.32438e-07
-5.28408e-07
2.19243e-07
3.05306e-07
-5.24514e-07
1.65024e-07
-5.60844e-07
3.96012e-07
-4.99481e-06
2.11003e-06
2.88486e-06
7.45473e-06
5.37982e-06
-1.28339e-05
1.2456e-06
7.56696e-06
0.000119656
-0.000119654
-1.36284e-06
5.67338e-07
7.95564e-07
8.49351e-07
4.28718e-09
-8.53784e-07
8.88003e-05
1.8386e-05
3.9827e-06
-3.34844e-06
-6.34161e-07
-1.54922e-07
-1.78188e-07
3.33121e-07
4.13313e-05
-2.65507e-05
-1.47834e-05
-1.07103e-06
9.94912e-09
1.06087e-06
0.000393036
-0.000379092
-1.39377e-05
-1.22825e-05
8.58135e-06
0.000164717
0.000252095
-4.00723e-06
1.14622e-05
0.000220999
-0.000588269
0.000367219
-5.18562e-07
-1.683e-07
6.86876e-07
-9.7214e-07
-9.90716e-08
2.97933e-06
-4.22917e-06
1.24962e-06
1.37928e-06
3.553e-07
-8.76379e-07
7.53661e-07
1.2263e-07
0.000115294
-9.50492e-05
-2.02467e-05
6.12322e-07
-7.78212e-07
1.65829e-07
2.17303e-06
-3.50141e-07
-1.82284e-06
6.83343e-05
-6.21242e-05
-6.20992e-06
-2.69046e-07
-4.20253e-08
-1.34295e-06
-4.51013e-07
1.79407e-06
1.0023e-06
-6.01416e-07
-4.01122e-07
9.20712e-07
-7.96143e-07
4.63399e-07
-2.98308e-07
-1.57078e-06
6.61565e-06
-5.04499e-06
3.23251e-06
7.49996e-07
-0.000112805
0.000141497
-2.86922e-05
1.38827e-07
-2.29435e-07
9.05129e-08
0.000181637
-6.63211e-05
-1.23284e-06
8.40832e-07
3.91866e-07
-0.000171736
-0.000103826
4.70882e-05
4.37795e-06
-5.14664e-05
6.01625e-06
-4.73178e-06
-1.28452e-06
-8.0965e-07
-6.67312e-08
-6.82324e-07
3.66175e-06
5.99184e-07
-7.02951e-07
1.03926e-07
3.39213e-07
5.21554e-07
-1.35244e-08
6.40285e-07
-6.26672e-07
1.4857e-05
5.75416e-07
4.68459e-07
-4.10947e-06
1.8912e-06
2.21789e-06
1.05844e-05
2.46105e-05
-3.51945e-05
0.00026383
0.000124797
-0.000388623
-0.000832373
0.000368085
0.000464281
6.53693e-08
-4.39403e-07
3.54458e-05
-1.54244e-05
-2.0023e-05
5.65207e-08
-3.53488e-07
2.97007e-07
9.25972e-05
0.000128423
-1.02048e-06
2.36307e-06
-1.34284e-06
-0.000603161
0.000900486
-0.000297324
0.000585562
0.000632034
-0.0012176
-1.92382e-05
3.01196e-06
1.62269e-05
2.14616e-06
5.30999e-06
-7.45617e-06
-3.51572e-07
4.4599e-07
-9.41621e-08
2.16213e-07
-7.74099e-08
3.36074e-07
6.65938e-07
-0.000270269
0.000202125
6.81448e-05
-6.97152e-07
3.64736e-07
4.38669e-06
-5.18785e-07
-3.8677e-06
-3.08345e-05
3.88829e-05
-8.04797e-06
3.01684e-07
9.01521e-07
-1.20294e-06
2.18846e-05
-5.27186e-05
-4.43933e-05
4.7168e-05
-2.77681e-06
-1.14397e-06
3.62729e-07
7.81486e-07
1.36351e-05
2.18128e-05
2.30831e-07
-5.03418e-07
2.72847e-07
3.25457e-07
2.04891e-07
-5.17523e-07
-8.45376e-07
-5.22467e-05
7.85293e-06
0.000150922
0.000136508
-0.00028742
5.00222e-05
-0.000117143
6.71179e-05
2.89741e-06
-1.43388e-06
-1.46353e-06
-3.58093e-07
-3.39211e-07
-1.11999e-06
6.01471e-07
-8.01995e-08
-9.69701e-08
8.33611e-07
-7.87317e-07
-4.65542e-08
2.39774e-06
-1.39159e-06
1.21413e-07
-7.81104e-08
-4.32598e-08
-2.26637e-07
1.98522e-08
2.07118e-07
3.65734e-07
1.56903e-07
-5.22793e-07
-6.72985e-07
7.86769e-07
-1.13667e-07
1.71668e-05
-0.000129972
8.88015e-06
-1.04251e-05
-3.81597e-05
-7.2152e-05
0.000110312
-9.30825e-06
5.13579e-06
4.17206e-06
0.000154367
2.72653e-05
2.55993e-06
-5.24994e-07
-2.03506e-06
0.000254954
-0.000245569
-9.38388e-06
-4.17392e-05
0.00030557
0.000255036
-0.000966822
0.000711737
-2.64529e-06
-1.06624e-06
3.7112e-06
-4.70834e-07
5.20135e-07
-4.93938e-08
-0.000160502
-1.1229e-05
9.73943e-07
-1.28276e-06
3.08613e-07
-3.47654e-06
2.22083e-06
1.25577e-06
3.31746e-06
8.17896e-05
-8.51052e-05
-3.7281e-06
3.86727e-06
-1.40414e-07
-9.05791e-06
1.08076e-05
-1.74989e-06
-1.55024e-06
5.90373e-06
-4.35373e-06
4.52491e-05
0.000229182
-0.000274425
-2.2605e-07
8.40614e-08
1.4177e-07
3.31801e-06
3.0085e-06
8.15673e-08
-3.09018e-06
4.56323e-06
-2.08916e-06
-2.47378e-06
-3.47824e-09
-1.41198e-07
1.4455e-07
1.03645e-07
1.96636e-05
-1.97668e-05
-1.21705e-07
-1.04356e-07
1.03759e-06
1.01259e-05
-1.11636e-05
-3.24936e-05
5.43783e-05
0.00118157
-0.00121591
3.44394e-05
-2.28089e-07
-5.87885e-06
6.10668e-06
-0.000184728
0.000176561
8.16726e-06
3.25429e-06
-2.4617e-07
3.50592e-06
1.02547e-06
-4.53085e-06
-2.57477e-05
-2.03334e-07
4.4271e-07
3.226e-07
-7.65154e-07
0.000363894
-0.000212961
2.92207e-07
-9.04151e-08
-2.01794e-07
0.000243507
6.6635e-05
-0.000310138
8.02201e-07
-1.48381e-06
-2.09434e-07
3.21956e-07
-1.12383e-07
-1.71274e-07
-2.03312e-07
3.74816e-07
-0.000366831
-0.000465549
-2.14993e-07
5.74781e-08
4.74498e-07
-5.88458e-07
1.13409e-06
-3.56281e-06
-5.41076e-06
3.86044e-06
-2.58876e-08
2.56824e-07
9.83813e-07
-1.10316e-05
7.8598e-06
3.17173e-06
-2.39478e-07
2.8246e-07
-4.27512e-08
3.36784e-07
-1.09637e-05
-2.55073e-05
7.25949e-05
5.67686e-06
-5.90516e-06
-8.85208e-05
5.03611e-05
4.91565e-05
4.61998e-05
-9.53579e-05
-1.07316e-06
1.37502e-06
-1.23996e-05
8.20287e-07
1.93739e-06
5.1583e-06
-7.09584e-06
0.00201345
-0.000360192
-0.00165323
-0.000383763
9.3438e-05
0.000290352
2.76311e-08
-2.6704e-07
0.000207095
-0.000161844
9.83519e-07
6.21321e-07
-1.60498e-06
0.001186
-0.00115254
-3.34752e-05
8.33833e-07
-2.21581e-07
-4.78475e-06
6.72206e-06
-3.28274e-05
0.000234849
3.35347e-06
-2.00669e-07
-3.15309e-06
-2.24503e-06
2.09611e-05
-1.8715e-05
-5.73655e-05
0.000138292
-8.09265e-05
4.01934e-05
-2.96087e-05
-1.6549e-06
1.05345e-05
-0.000557735
0.000604789
-1.3742e-08
-2.12729e-07
-3.98484e-06
-5.32367e-06
-2.07481e-07
1.33122e-06
-1.1236e-06
-5.34267e-06
8.60084e-06
-3.25712e-06
-7.23121e-07
1.32446e-06
-8.15739e-07
-5.08592e-07
-3.9642e-05
3.04257e-06
3.65992e-05
1.79724e-06
-3.3984e-06
1.60101e-06
-6.13523e-07
1.63323e-08
5.97254e-07
-3.27076e-05
3.04629e-05
-0.000143854
-0.000244803
0.000388658
-3.07633e-05
-1.5947e-05
4.67109e-05
1.35703e-06
1.54031e-06
0.000350854
-8.00857e-05
-0.000270768
-0.000219904
0.000219899
0.000222944
-0.0002584
3.54113e-05
9.58003e-06
-8.25245e-06
2.92389e-05
1.55605e-05
-4.47985e-05
-1.53417e-05
-2.18247e-06
1.75248e-05
-8.02397e-06
-4.1799e-06
1.22038e-05
3.81918e-05
-4.45703e-05
6.37787e-06
-8.67776e-07
5.65726e-07
-0.000560379
0.000620292
-5.99134e-05
5.40583e-07
7.84084e-07
-0.000333243
-0.000444131
0.000137581
0.000306577
-2.52206e-06
5.20438e-07
2.00093e-06
0.000256823
-0.000102452
2.82853e-06
-1.03141e-06
8.68442e-07
-4.59729e-06
-8.33555e-06
-7.00562e-06
0.000218519
0.000132335
-1.64718e-07
-1.54441e-07
3.19329e-07
4.20642e-07
-4.20472e-07
4.83804e-08
7.30769e-08
1.74521e-07
-3.29391e-07
-5.38493e-05
-5.59957e-05
0.000109846
-5.82596e-07
-9.03286e-08
1.38878e-05
-1.32472e-05
-6.41838e-07
-0.000527632
8.7412e-08
-3.26169e-07
-1.59214e-07
2.8251e-07
5.09743e-07
-1.28442e-06
7.74829e-07
-0.000228
-0.000216138
0.000294068
-0.000470847
0.000176781
-7.39532e-06
1.98862e-06
5.40645e-06
-2.00828e-06
-9.35985e-07
2.94362e-06
0.000119463
-0.00017683
-5.60517e-07
5.47193e-07
-4.44971e-05
4.85497e-06
-4.28078e-06
3.89504e-06
3.85058e-07
-2.18977e-07
-6.23883e-08
2.81548e-07
-0.000153824
0.000142119
1.17076e-05
-4.43211e-07
-2.07917e-07
2.04915e-07
3.09992e-09
-2.08792e-06
1.06754e-06
-1.9724e-06
3.88885e-06
-1.91683e-06
-9.30489e-06
2.4708e-07
-1.01777e-06
-1.26048e-07
0.000294386
-5.08775e-05
-2.93045e-05
5.39153e-05
-1.37678e-05
-0.000511466
0.00052522
1.05764e-06
1.40885e-07
-1.19838e-06
-1.72524e-06
2.73161e-06
-1.00606e-06
2.59064e-05
-1.8997e-06
-1.57535e-07
2.05719e-06
-3.18817e-08
-1.32049e-07
1.64063e-07
3.43766e-05
-0.000194876
8.6639e-05
-1.99931e-05
-6.66601e-05
-1.71972e-07
-8.45795e-06
7.20007e-06
-1.30283e-05
5.82817e-06
2.32275e-06
-4.29557e-06
-1.72409e-07
-2.83359e-07
4.55893e-07
7.55933e-05
0.000112529
-0.000188121
7.93173e-06
9.61227e-07
-8.8927e-06
1.61834e-05
0.000288489
-0.000304662
1.76022e-06
-7.76642e-07
9.3119e-06
-8.10332e-05
7.17216e-05
-0.000311508
0.000311515
-1.11802e-05
6.2673e-06
4.91259e-06
-3.00878e-06
5.33074e-06
-6.05282e-06
-4.97864e-06
2.58572e-07
-4.29743e-07
9.34819e-07
-2.20364e-07
-7.14575e-07
-0.000669356
0.000290532
0.000378868
4.17498e-05
-0.000117015
7.5268e-05
3.01062e-06
6.28384e-06
-9.29468e-06
1.39235e-07
-1.42872e-07
5.73771e-06
-3.41838e-07
-5.39748e-06
-1.94656e-07
9.48185e-07
0.000641075
0.000544929
-1.00111e-06
3.13541e-07
6.87647e-07
0.000110024
-0.000157387
4.73625e-05
-9.01953e-07
2.36099e-07
6.65597e-07
-6.30546e-06
-9.43922e-06
1.16516e-05
-6.38394e-05
0.000149809
-8.597e-05
0.000262544
-0.000507352
3.25062e-07
1.04237e-07
-4.29106e-07
4.54281e-07
-2.78201e-07
-1.7598e-07
4.54711e-06
-3.29458e-06
-1.2524e-06
-6.19488e-08
5.35832e-08
3.94846e-06
2.06782e-06
-3.49125e-07
4.14647e-07
1.00951e-05
5.13097e-07
-1.06083e-05
-3.87132e-05
-0.000115109
1.11327e-05
-2.02511e-07
1.26023e-06
-2.16728e-06
2.07667e-06
9.0682e-08
-1.21641e-07
-8.7698e-08
-1.85251e-06
-1.03147e-06
2.88367e-06
-2.64692e-06
-6.24885e-06
8.89582e-06
0.00013155
-5.59542e-05
-5.79206e-06
8.65812e-07
4.9254e-06
-1.94132e-06
3.03186e-07
1.63814e-06
4.28558e-05
-7.13188e-05
2.84617e-05
-4.00468e-07
2.28194e-07
-2.67261e-07
5.80316e-06
-1.41645e-06
6.37623e-05
-3.96257e-06
-5.97995e-05
3.03683e-07
5.29769e-07
-6.40278e-06
5.68616e-06
7.16393e-07
0.000585827
-0.000335355
-0.000250546
0.000100976
-0.000100975
-1.24187e-05
1.51237e-05
-2.70521e-06
-2.95304e-07
2.95372e-07
-1.40365e-05
0.000253103
1.09979e-08
1.39557e-06
-1.40628e-06
6.4806e-08
-4.13974e-07
2.75309e-07
9.42212e-07
-1.2178e-06
-4.59659e-07
3.08842e-07
1.50969e-07
1.60043e-07
-1.91935e-07
-7.47412e-07
1.02261e-06
2.18234e-08
-2.90779e-07
-1.95106e-07
5.60654e-07
-2.52349e-06
3.74754e-06
-1.68364e-06
-2.57718e-07
-1.39119e-06
-2.08536e-06
-2.15374e-07
-1.01761e-06
2.29054e-07
-8.59127e-06
-4.35667e-07
-2.387e-08
-1.75921e-06
-7.63106e-07
3.05138e-08
3.90125e-07
-4.20447e-07
0.000850522
-0.00057498
-4.132e-08
-1.8585e-06
4.37477e-05
0.000323753
-0.000367501
-5.80739e-05
2.73133e-05
2.30943e-06
-8.8562e-08
-5.57579e-06
-8.27013e-07
-1.01327e-07
4.3992e-07
-3.38377e-07
-4.03667e-07
-7.70384e-07
1.17412e-06
1.05549e-06
-4.48985e-07
-6.063e-07
-1.51926e-07
-6.07959e-07
7.59868e-07
5.61139e-07
-7.13086e-07
0.000621697
-0.000478386
-0.000143309
0.000777979
-0.000542968
-0.000234983
-1.86379e-07
2.35945e-06
-4.44787e-07
6.86976e-07
-2.42184e-07
6.03804e-06
-1.43321e-06
-4.60383e-06
-0.000119382
-0.000438259
0.000557637
2.05705e-06
4.80399e-06
-6.86032e-06
-0.00126869
0.00044527
0.000823425
4.51069e-07
-6.15727e-07
4.31717e-07
-4.97543e-07
-4.04593e-07
-1.87241e-05
6.0479e-05
-5.93125e-06
2.66871e-06
-3.94979e-07
1.01933e-07
2.9318e-07
2.93174e-06
1.632e-06
6.74068e-05
-5.42645e-05
-1.31425e-05
4.62126e-05
-7.87059e-05
-1.29184e-07
-2.95911e-07
4.25258e-07
-0.000169247
0.000105408
7.56034e-06
3.24715e-06
7.17453e-07
1.68133e-06
-2.39848e-06
-6.56126e-08
6.64867e-07
-4.86598e-07
9.17455e-08
1.6051e-06
9.5043e-07
-2.55577e-06
1.15488e-07
-5.26334e-06
5.14825e-06
-0.000472759
-8.49816e-05
7.73115e-05
2.72892e-05
-0.000104603
1.83595e-06
5.17446e-06
-7.01053e-06
-2.18808e-08
3.62163e-08
-1.40902e-08
-6.39347e-09
-3.45068e-07
-0.000137774
6.94279e-05
6.83465e-05
2.23893e-07
-3.25209e-07
1.15671e-06
2.38986e-07
-2.18093e-07
1.48381e-07
6.98795e-08
-6.2103e-05
1.97856e-05
2.32182e-07
4.80864e-07
-7.13157e-07
-2.7357e-07
7.164e-07
-4.07074e-06
3.5521e-06
-1.54608e-05
-0.000108567
0.000124034
0.000645203
-0.000286621
-0.000358589
0.000245366
7.03029e-07
-5.30229e-07
-1.72722e-07
7.23446e-07
1.37349e-07
-8.60505e-07
0.000563019
-0.000121476
-0.000441544
-0.000360232
-0.000374487
0.000734745
-0.000267236
-0.000543728
3.09996e-05
-4.35659e-06
-2.66427e-05
9.36992e-05
0.000163114
6.45732e-08
2.27619e-07
-2.85855e-06
-1.2507e-06
-2.79053e-07
1.27651e-07
1.51331e-07
3.15262e-05
-2.47745e-05
-6.75332e-06
1.01837e-06
-2.87101e-06
-6.12495e-06
9.13545e-06
9.3651e-05
-8.26296e-05
-1.10061e-05
3.49057e-05
-1.97169e-05
-1.51873e-05
-1.62039e-05
1.49474e-05
1.25676e-06
6.18164e-07
-1.02181e-06
-5.07031e-06
2.7894e-06
2.28096e-06
4.46929e-06
2.74599e-06
-7.21531e-06
-5.53937e-07
3.15537e-05
9.41572e-06
8.32574e-05
-9.26736e-05
3.81754e-06
-3.7022e-06
-1.26377e-07
-1.57131e-08
1.42371e-07
5.06228e-05
1.31395e-05
-1.83312e-05
7.75791e-05
-5.92474e-05
-2.27375e-06
-1.82616e-05
-9.75973e-07
2.32919e-07
-4.98319e-07
2.65609e-07
-2.48595e-06
-2.9442e-07
2.7797e-06
-0.000974586
0.000307679
0.000666916
-1.48377e-06
-2.58681e-06
-4.76543e-05
0.000134291
2.47826e-07
1.76999e-07
-4.24871e-07
7.46527e-06
-2.66271e-07
0.0007725
5.4974e-06
-3.36797e-05
1.24334e-05
2.12469e-05
1.28148e-05
-1.83161e-05
0.000313938
-0.000230848
-8.30894e-05
5.1871e-07
-6.10355e-07
9.18056e-08
9.72875e-06
-1.71227e-05
-3.20624e-06
0.000271291
0.00091045
-1.04826e-06
-1.18483e-06
2.78976e-06
6.3997e-07
9.74465e-07
-1.61447e-06
-3.81235e-07
-1.79564e-07
-0.000249896
0.00019441
5.54883e-05
8.69714e-07
-3.50143e-07
2.31567e-07
-6.95196e-08
-1.6184e-07
-3.09684e-08
-6.20203e-07
6.51285e-07
6.99421e-06
-2.24012e-06
6.69613e-07
1.57036e-06
1.5069e-06
-1.36611e-06
1.06445e-07
-3.56356e-07
2.49895e-07
0.000248359
-2.54598e-05
-6.11449e-05
3.2798e-05
2.83473e-05
0.000160728
-8.34171e-05
-0.000704194
3.48562e-05
-8.73162e-07
3.31592e-07
5.41712e-07
0.000870679
-0.000644762
-0.00022591
1.14738e-06
-2.12719e-07
0.000281559
-0.000338254
5.67088e-05
-3.60848e-06
1.07624e-05
-7.15437e-06
-1.71321e-06
2.91763e-06
-3.39757e-06
4.79927e-07
-5.71652e-05
0.000150821
-3.96847e-07
2.67744e-07
1.74244e-07
1.2184e-07
-2.96092e-07
2.17823e-07
-2.48659e-07
2.85353e-06
-4.3371e-06
-5.59952e-06
7.30048e-05
-1.80019e-06
-3.19445e-06
-1.54875e-07
9.62431e-06
8.47534e-06
-1.54271e-05
6.95249e-06
0.000280572
-0.000277527
-3.03802e-06
-0.000434813
7.45945e-05
7.78285e-07
-0.000170892
0.000464959
-4.93003e-07
2.38312e-07
2.54627e-07
8.27814e-05
0.000197795
-0.000240429
0.000208717
3.1714e-05
-4.90926e-07
7.23181e-07
-3.62776e-07
5.95824e-07
1.64458e-05
-1.99605e-06
-1.44496e-05
5.57078e-06
-5.49865e-06
-7.11291e-08
5.51094e-08
-2.73973e-07
2.67945e-07
-3.61736e-08
-6.212e-07
-1.75087e-06
3.14891e-06
-1.39833e-06
3.29706e-07
8.489e-07
-1.17905e-06
-4.72795e-05
2.70878e-06
7.26137e-05
-6.33007e-05
0.000185859
0.000377157
0.000186044
-1.36188e-05
-0.000172419
4.10138e-05
2.73204e-05
8.25719e-07
4.60298e-07
-1.28601e-06
6.93546e-06
-2.46628e-06
-1.90786e-06
-3.16244e-06
-2.8508e-06
1.09976e-06
-7.5413e-08
-1.7105e-07
2.46548e-07
5.80668e-06
5.62116e-06
-1.14279e-05
1.27183e-06
-1.74186e-06
2.01161e-07
1.54055e-06
4.84546e-06
0.000283646
1.66205e-06
-1.02208e-06
0.00018689
-5.95908e-07
1.51037e-07
-5.1027e-08
-1.2197e-07
1.73083e-07
-3.2537e-05
-0.00016017
3.82254e-07
-5.95823e-06
-9.3199e-05
0.000186892
4.37317e-07
-1.78023e-06
-3.22464e-05
-1.43326e-06
-8.74164e-06
-5.94102e-06
1.46821e-05
-1.18631e-05
4.33883e-05
3.41273e-07
1.22279e-07
-1.33879e-07
-8.40956e-08
2.03643e-07
-1.25035e-06
1.04687e-06
3.63411e-06
-1.79162e-06
-1.84262e-06
-2.78158e-07
-3.35278e-07
2.9479e-05
-2.94784e-05
-8.46278e-07
6.53244e-06
0.000198302
-1.22595e-05
2.57014e-06
-1.85248e-06
0.000234738
0.000125496
-0.000360233
-1.16633e-05
3.63928e-06
-1.33107e-07
2.08348e-07
-0.000186991
-0.000204802
0.000391791
0.000599706
0.000270975
4.38188e-07
-9.45755e-07
5.07631e-07
4.49514e-06
-1.32368e-05
-6.23114e-07
-1.42285e-07
7.65544e-07
-1.03709e-06
2.94669e-07
7.42349e-07
3.26844e-07
1.62308e-07
-4.88962e-07
-6.18954e-06
6.41817e-06
-1.18942e-06
-5.5246e-07
1.18327e-05
-2.39386e-05
1.21064e-05
1.29984e-08
5.48145e-07
0.00158108
-0.000995494
2.06803e-07
-2.29581e-06
-9.57727e-06
9.42228e-06
-9.45966e-06
5.90242e-06
3.557e-06
-4.5466e-06
-1.59469e-07
3.78792e-07
0.000379306
-0.000144569
7.50465e-07
-4.80303e-05
3.22915e-05
-0.000175758
-0.00025783
0.000433587
0.000366911
-0.00134149
3.31884e-05
1.20308e-05
-4.52187e-05
7.52553e-05
3.4764e-05
0.000271502
0.000121538
-6.10115e-06
1.58195e-05
1.09326e-06
-8.35935e-07
-2.57079e-07
-7.42525e-06
-4.77255e-08
7.4725e-06
-3.67577e-05
8.67777e-05
0.000123488
-0.00031048
-1.20758e-06
8.92767e-06
-7.72034e-06
3.77999e-07
-2.16116e-07
-1.61828e-07
-4.0604e-05
-2.14983e-05
-2.09828e-06
-9.4115e-06
1.15094e-05
-1.30485e-05
6.29551e-07
4.12245e-06
4.24708e-07
4.37004e-07
-1.10011e-07
1.11867e-05
5.37035e-06
-4.48147e-06
-8.89049e-07
-0.000225056
0.000171321
5.37364e-05
0.00014649
-0.000211463
1.86395e-07
2.67967e-07
-2.63971e-08
-6.44694e-07
6.71199e-07
-1.80234e-05
-0.00010136
1.96463e-07
1.81762e-07
-0.000175163
-7.47317e-05
4.18064e-07
-9.29041e-08
-1.12989e-08
6.40132e-07
-6.28478e-07
1.04038e-06
-1.58743e-06
5.47347e-07
0.000173082
0.000412739
-3.14489e-08
9.68807e-09
-5.63511e-05
0.000426858
-0.000370535
-6.06206e-06
-1.36327e-06
-1.37068e-07
-1.41983e-07
1.85944e-06
-3.62525e-06
1.7657e-06
-3.376e-07
-1.82969e-06
5.8572e-05
-0.000151793
-0.000118477
-4.04313e-06
-1.49197e-06
5.53445e-06
2.33026e-06
-3.31481e-06
9.84447e-07
-2.64257e-06
1.45755e-06
9.41137e-07
-1.71455e-05
-0.000127718
-5.69052e-05
0.000184615
1.36926e-06
9.90819e-09
-1.23425e-06
-8.48887e-08
1.31929e-06
-1.05304e-06
1.07491e-06
-2.16884e-08
0.000125507
-0.000165122
0.000159318
-0.00035184
0.000192523
-2.45166e-07
-2.1755e-06
5.61381e-07
1.61407e-06
8.17161e-06
-4.81881e-06
-3.35311e-06
-4.18951e-06
4.38349e-06
-1.9384e-07
1.39718e-06
-5.71594e-07
1.13346e-06
-4.09846e-07
0.000222417
-3.02502e-05
-2.04474e-05
5.06978e-05
-8.3168e-07
2.20347e-08
-6.56627e-05
0.00012244
-5.67749e-05
0.000286405
2.4666e-07
5.43007e-06
-5.13408e-06
5.38064e-06
0.000357778
-0.00011641
-0.000241369
-8.84699e-05
7.30184e-05
-0.000180132
0.000182613
-2.47949e-06
0.000106624
-0.000234348
-4.66888e-06
2.86899e-06
-9.79657e-06
6.18792e-06
2.50551e-05
5.82022e-05
-0.000127633
-0.000251458
1.07612e-06
-9.70043e-07
-1.05893e-07
-3.42498e-07
-1.06984e-07
4.49651e-07
4.32615e-06
-5.36523e-06
1.03933e-06
-2.84211e-07
3.40643e-07
1.52466e-05
-1.52949e-05
-6.64566e-06
1.30362e-06
-2.2723e-07
-3.81631e-06
-6.47733e-07
-4.72063e-07
7.63759e-07
-1.41137e-06
6.50431e-08
-2.7818e-07
2.13189e-07
-1.11345e-06
-2.23486e-06
-9.42949e-05
0.000127611
-3.33168e-05
5.29457e-07
-8.92125e-07
-0.000563241
-0.000403587
1.52729e-06
-4.86705e-07
-0.00163501
0.000569708
0.00106527
1.11243e-05
-8.19582e-05
7.08369e-05
8.86631e-07
1.50238e-08
0.000830892
0.00012056
-0.000951453
-9.15254e-07
4.2686e-06
4.06599e-07
6.49011e-07
-0.000231511
0.000328268
-9.6757e-05
1.02589e-06
-1.19139e-06
1.65619e-07
3.016e-06
-6.02538e-06
5.02908e-07
-3.91697e-07
-1.11156e-07
1.62992e-07
5.8006e-06
-5.96374e-06
2.0758e-08
2.21166e-07
-2.41864e-07
5.86961e-06
-5.90631e-07
-5.27911e-06
3.46077e-06
-2.23694e-06
-1.22388e-06
0.000126267
-1.35929e-08
1.0123e-06
-9.98737e-07
1.07043e-06
-6.20923e-07
-4.49636e-07
-4.43335e-07
-1.86647e-07
6.3017e-07
2.03571e-07
-5.52671e-07
3.48945e-07
9.72879e-05
-8.61615e-05
-8.3322e-05
0.000127152
-4.38318e-05
-6.06871e-06
-3.39113e-06
-0.000159319
7.59907e-05
-3.24638e-07
7.62863e-07
8.36119e-06
-0.000228256
-0.000110414
6.81609e-05
4.22535e-05
1.40935e-07
1.52713e-07
-2.93337e-07
6.91843e-06
-9.56561e-06
-3.68095e-06
-5.70237e-07
5.43805e-07
2.87802e-07
-1.13563e-07
9.51188e-06
1.25046e-06
-0.000374517
0.000318142
-0.000117177
-6.75513e-05
1.65495e-05
2.31376e-08
1.21105e-06
3.27936e-05
1.09551e-06
-1.24626e-06
1.50925e-07
0.000247143
6.67942e-05
1.99985e-07
-2.75389e-07
-2.29309e-05
8.42666e-07
5.41232e-08
-8.96825e-07
5.35021e-07
-2.97061e-07
-2.37983e-07
1.42235e-07
-1.07838e-07
-3.42567e-08
-9.60321e-07
7.3984e-07
1.67827e-06
-5.55272e-05
1.20479e-05
-2.31726e-06
8.19549e-05
1.66549e-06
-1.58777e-07
4.18756e-06
1.18271e-06
-9.2154e-05
0.000122709
-3.05562e-05
-5.37154e-07
-2.6699e-06
-1.9988e-06
-5.02328e-05
4.862e-05
1.6126e-06
-1.58532e-05
1.56334e-05
2.20025e-07
-4.97227e-05
-1.87781e-05
2.14528e-07
-3.25285e-07
1.10755e-07
-5.94062e-05
-0.000500968
-3.58219e-06
2.6884e-06
8.92979e-07
-1.03922e-06
2.27665e-07
8.11576e-07
7.8095e-07
-3.73037e-07
-4.08081e-07
4.45715e-05
-3.60348e-05
-1.92343e-06
3.79633e-05
-5.28615e-07
0.000192913
-0.000218299
2.53883e-05
-0.000175463
0.000109801
-3.32238e-06
6.77073e-07
1.00409e-06
-4.33341e-07
-5.7065e-07
4.27193e-07
7.70386e-07
-1.19777e-06
4.32777e-07
6.37499e-07
-4.8289e-05
6.35354e-05
1.70935e-06
-4.35727e-06
2.64756e-06
-6.71007e-08
1.00728e-07
-1.73391e-06
2.25421e-06
5.18352e-08
-7.19404e-07
6.67543e-07
5.00805e-06
-1.11336e-06
8.78047e-07
-1.08552e-06
5.99676e-07
-1.50587e-06
-1.17294e-06
2.03021e-07
5.565e-06
-4.49327e-06
-1.07187e-06
2.08515e-06
-1.87844e-06
-0.00014852
0.000199788
-5.12679e-05
-1.0647e-05
0.000189528
-0.000106746
1.11162e-05
-1.06031e-05
-1.62055e-06
-3.57135e-06
2.99911e-06
6.25188e-06
-0.000667964
-0.000547799
0.000120381
-0.000118897
-1.48462e-06
-1.12413e-07
-2.84278e-07
4.73207e-05
7.23368e-05
-3.8051e-06
4.85078e-06
-1.04635e-06
-2.45275e-07
-8.60504e-07
1.10592e-06
-8.39351e-07
1.80749e-06
-9.67785e-07
-3.13008e-07
7.9382e-07
0.000169535
-0.000381652
0.000212154
-2.36059e-08
-1.84244e-07
2.68933e-05
-1.02561e-05
-1.66386e-05
-3.99945e-05
-7.96597e-05
5.4268e-07
-9.46712e-07
4.0394e-07
-1.02124e-07
7.18616e-07
-6.16073e-07
7.16869e-05
9.79054e-05
-0.000169598
-3.21398e-07
-2.31548e-07
5.53039e-07
0.000183682
4.71412e-05
-0.000230824
1.72901e-06
-9.60257e-05
-0.000124337
0.000247825
0.000709415
1.57819e-05
-3.73417e-06
-3.49729e-08
-3.78061e-06
7.63089e-07
3.01766e-06
-1.62899e-06
2.57927e-06
1.04154e-06
4.6143e-07
-1.50261e-06
0.000175794
2.42367e-05
-9.91113e-07
-4.81329e-08
-1.79851e-06
9.65816e-06
-1.63975e-07
-0.00041817
2.65699e-07
-1.24576e-07
-1.498e-07
1.7846e-08
-8.86515e-07
2.7853e-07
-7.0066e-07
1.8488e-06
-1.14826e-06
2.8484e-07
0.000114891
-0.000185696
7.08036e-05
-1.17417e-05
9.74568e-06
5.5484e-07
1.48291e-07
-9.31622e-08
3.3142e-07
-7.35868e-06
2.70224e-05
5.44596e-05
-0.000657619
1.70643e-06
1.92759e-06
3.78678e-07
1.56297e-07
6.11165e-07
-3.62049e-08
-5.74811e-07
-4.03248e-06
-7.87e-07
7.56708e-07
2.99098e-08
0.000104362
0.000223905
-3.60121e-08
-4.14776e-08
7.77292e-08
-7.46234e-06
1.10083e-05
-3.54629e-06
-4.24508e-05
-5.07506e-05
2.79887e-05
3.18069e-05
-5.97957e-05
-1.10139e-06
2.84868e-08
2.51974e-07
2.51037e-07
-2.16419e-06
2.57004e-07
1.90739e-06
1.18631e-06
-6.76531e-07
3.50636e-05
-0.000344774
0.000309692
3.74804e-06
-6.58723e-05
-4.48345e-05
-3.59353e-05
2.11456e-05
1.4791e-05
6.16549e-07
-2.34162e-06
-9.44912e-05
-4.32831e-05
2.80364e-07
-2.15219e-07
1.10865e-06
-7.95056e-07
7.33062e-05
5.48138e-06
-7.87854e-05
-4.4456e-06
4.60853e-06
-1.58501e-06
-9.86314e-08
-8.44831e-06
1.02304e-05
-1.78225e-06
-0.000365009
0.000189251
-1.82874e-06
2.84696e-06
0.000195088
-0.00035831
0.000163181
-6.24938e-08
-4.12684e-06
-0.000212033
6.46529e-05
0.000147384
1.19962e-07
-2.37314e-08
-9.60467e-08
0.000202834
-3.15133e-05
0.000129152
-8.77195e-06
2.15834e-05
-6.61835e-06
7.77861e-06
-1.16113e-06
1.74733e-05
1.57156e-05
5.8624e-06
5.48524e-06
-1.13473e-05
-0.000141285
-7.07454e-05
3.33012e-07
1.26415e-07
-1.36036e-06
-4.83105e-08
1.12674e-07
-6.41252e-08
-0.000241483
-1.24669e-05
0.000253953
3.38971e-07
-2.32593e-07
-0.000281604
-2.55797e-05
0.000307187
4.52063e-05
1.25246e-05
-5.77317e-05
-2.67387e-06
1.10735e-06
1.56666e-06
-5.8725e-07
9.64057e-08
6.5902e-07
4.09266e-08
-6.99843e-07
-0.000152316
5.7825e-05
-9.41425e-07
-3.42885e-07
6.08265e-07
4.85139e-07
5.30219e-07
1.73324e-07
-7.03277e-07
-0.000223882
0.000278477
-5.45939e-05
0.000298644
-0.000106469
-0.000192177
2.05064e-05
3.67447e-05
-3.59904e-05
-7.54371e-07
-8.30434e-05
-3.40974e-05
8.3615e-07
6.91341e-07
0.00021908
-2.61662e-05
5.15058e-05
-3.4032e-05
0.00058161
0.000318877
7.32058e-06
4.03773e-06
-8.57398e-07
4.6709e-07
3.90238e-07
0.000496902
-0.00049666
-2.44337e-07
-1.79241e-07
-1.25832e-07
-2.10825e-06
7.41828e-06
-1.61838e-06
2.64221e-07
6.53402e-08
-3.29455e-07
-5.67542e-05
-5.36595e-05
2.4026e-05
-5.83507e-05
-9.03468e-06
6.73851e-05
-2.26461e-05
-1.91771e-05
9.24846e-05
-6.99526e-06
3.09626e-05
-2.39675e-05
-2.39493e-07
-1.2371e-08
2.51952e-07
0.00112597
-0.000680701
2.5932e-07
-4.47998e-08
0.000430032
-0.000548321
0.000118296
-0.000294625
0.000562703
-0.000268076
2.34455e-06
2.15349e-07
0.000100476
-0.000345655
0.00024511
6.2988e-05
-0.000321399
0.000325183
-0.000418244
9.3066e-05
-5.98724e-08
-6.08992e-08
1.20952e-07
1.2571e-05
1.3169e-06
0.000432969
-0.000186122
-0.000246842
9.41323e-08
5.76308e-06
-5.09753e-06
-6.65678e-07
-9.35211e-08
-2.80698e-07
3.74195e-07
-3.12227e-07
1.34068e-07
-2.33358e-07
2.54161e-07
-0.000129476
-5.76835e-05
0.000187159
1.12338e-06
-2.77315e-08
-7.90432e-07
8.68541e-07
-7.82658e-08
3.05493e-05
2.15831e-08
8.82084e-08
-1.09532e-07
-6.23775e-06
-4.94263e-06
-2.88025e-07
-3.0801e-07
-2.17883e-06
1.33935e-06
-2.62505e-06
7.96174e-07
5.42943e-05
0.000577718
1.92288e-07
-1.38067e-07
-5.39427e-08
-9.53894e-05
-0.00039846
0.000177623
0.000220833
-6.75043e-06
-0.000154231
0.000119744
3.44919e-05
-3.40196e-06
9.68555e-06
0.000217517
-0.00185254
-5.62328e-05
0.00012792
0.000261685
-8.06633e-05
-0.000181021
4.166e-06
3.29967e-06
-1.63205e-07
4.1711e-08
6.97949e-05
-2.68035e-06
-6.7114e-05
-5.25829e-07
0.000193224
-1.06096e-05
1.69297e-06
-2.21791e-06
0.000202274
0.00101633
-0.000166124
-0.000850198
-1.66469e-05
-1.92878e-05
-8.45882e-08
-3.35756e-07
-5.79531e-06
1.36738e-06
4.42778e-06
-1.90847e-05
4.82668e-05
-2.91806e-05
4.6849e-06
1.07809e-06
0.000397758
1.14597e-05
-0.000409218
1.56915e-06
-6.57719e-06
5.00778e-06
4.61446e-05
-4.04408e-05
-5.69997e-06
-8.83043e-06
6.73176e-06
-2.80257e-05
-1.71927e-05
-0.000256709
3.81702e-07
-1.55441e-07
-2.26191e-07
6.54582e-05
0.000134451
-0.00019991
0.000101096
-8.28641e-05
-1.82307e-05
-3.50146e-07
2.94678e-07
5.552e-08
-2.72563e-06
1.44964e-06
1.27579e-06
0.000116489
-9.14342e-05
1.41865e-06
-5.82461e-07
-4.31905e-05
1.44655e-05
2.87302e-05
0.000337168
9.58053e-05
1.40664e-07
1.66318e-09
2.45908e-05
8.68691e-06
-3.32798e-05
1.24815e-06
-7.59718e-07
-4.88182e-07
1.21367e-06
9.90249e-06
-1.46888e-06
-1.25669e-06
-5.9916e-07
2.49075e-07
-2.31221e-07
2.31301e-07
-5.19805e-05
-2.35716e-05
0.000161867
-0.000138295
4.52217e-07
-1.02848e-07
-3.49306e-07
3.09842e-07
-4.55873e-08
-1.01055e-06
2.41345e-07
7.69287e-07
0.00066222
0.000354108
3.17948e-06
1.84571e-07
2.61546e-07
-9.81727e-07
8.65283e-07
-8.78903e-07
-9.43509e-08
-1.07281e-06
1.16734e-06
-2.06983e-07
7.3654e-07
-5.56784e-07
-2.11714e-06
5.40014e-07
4.04272e-07
-9.43987e-07
0.000220066
-0.000174857
0.000521905
-0.000580238
5.8343e-05
2.26577e-07
-1.20693e-05
1.18427e-05
-5.55423e-05
5.82102e-06
-2.52535e-07
1.87688e-07
6.49967e-08
7.3292e-08
-1.99511e-07
-1.62499e-06
-8.57884e-07
2.48282e-06
-0.000190096
0.000620128
1.38208e-06
-7.98955e-07
-2.2124e-05
-3.01262e-05
-0.000217418
9.308e-05
-9.62255e-09
5.28431e-07
8.37006e-05
-8.07495e-06
-1.23019e-06
1.17213e-07
7.45215e-06
-7.56921e-06
2.08344e-07
-2.56536e-07
0.000364256
-0.000263818
-6.88944e-07
9.5659e-07
-2.67499e-07
-1.02462e-06
1.22838e-06
5.59931e-09
-2.54676e-07
2.49242e-07
-3.04792e-07
-5.41389e-08
3.59134e-07
-1.27657e-05
9.50867e-06
1.19843e-05
-8.40197e-06
-3.58264e-06
5.0508e-06
-8.84055e-07
-2.85124e-09
-2.30463e-07
-0.000142262
0.000207719
-3.60876e-07
-2.32095e-06
0.000103298
-1.21634e-05
-1.57907e-07
-6.34264e-08
2.21525e-07
-2.16966e-05
0.000149155
-0.00012746
-2.45765e-07
1.15657e-07
1.30183e-07
-6.02806e-07
2.81423e-07
2.11582e-08
6.37877e-07
5.46634e-08
2.40802e-07
1.41449e-06
-3.03952e-06
9.96863e-07
-1.05589e-06
5.91864e-08
7.04626e-07
-6.52789e-07
-5.46726e-07
9.09568e-07
3.1613e-07
-8.29997e-08
-2.33132e-07
9.43459e-08
-7.17267e-07
6.95676e-06
5.61413e-06
-0.000248832
0.000225259
-6.47745e-07
-8.43896e-07
1.49154e-06
-5.20255e-05
1.14218e-05
1.10321e-07
-1.10269e-07
-2.00731e-07
-9.13241e-06
3.07953e-06
-5.59181e-08
-0.000120379
0.000126673
-6.29363e-06
-0.000180436
0.00023454
-5.41045e-05
0.000207276
-1.1456e-06
9.35932e-07
2.09827e-07
-1.07683e-06
3.96839e-08
-0.000155269
0.000314587
-2.33852e-07
-2.69182e-07
5.41614e-08
2.15194e-07
5.5268e-06
-3.43846e-07
-7.10654e-09
-4.72459e-06
-6.83197e-06
2.62294e-05
-1.93972e-05
6.16291e-07
1.92002e-05
-1.98158e-05
2.7229e-07
-7.45222e-07
4.72679e-07
-4.12499e-06
1.73803e-06
2.38723e-06
0.000284927
0.000144042
-0.000428961
4.64492e-07
-2.12368e-07
-0.000111656
0.000444369
-0.000332708
-2.37863e-06
7.2828e-07
1.65062e-06
-0.000110955
-6.90337e-05
0.000179991