/*--------------------------------*- C++ -*----------------------------------*\
| =========                 |                                                 |
| \\      /  F ield         | OpenFOAM: The Open Source CFD Toolbox           |
|  \\    /   O peration     | Version:  v2012                                 |
|   \\  /    A nd           | Website:  www.openfoam.com                      |
|    \\/     M anipulation  |                                                 |
\*---------------------------------------------------------------------------*/
FoamFile
{
    version     2.0;
    format      ascii;
    class       volScalarField;
    location    "350";
    object      p;
}
// * * * * * * * * * * * * * * * * * * * * * * * * * * * * * * * * * * * * * //

dimensions      [0 2 -2 0 0 0 0];


internalField   nonuniform List<scalar> 
13749
(
0.00813295
-0.0374906
0.0382582
0.0014754
0.0350026
-0.0377021
0.0384877
-0.0111163
0.0344382
0.000704195
-0.0365445
0.0239862
-0.0183755
-0.0387772
-0.0388273
-0.0176793
0.0373797
-0.0373509
0.0209697
0.0299512
-0.0663143
-0.0409149
-0.0374399
-0.039466
0.0370574
-0.0284086
-0.0261907
-0.0174157
0.00643587
0.055165
-0.136161
-0.0393494
0.0995817
-0.0318776
0.0133085
0.00762068
0.0398155
0.0328376
-0.0124589
-0.0310241
-0.0368621
-0.0488115
0.0837408
0.0981444
-0.0374537
-0.0150936
0.0248657
-0.0379355
0.00595232
-0.21522
-0.0396843
-0.0648712
-0.0313018
-0.0414016
0.0222456
0.00648403
-0.0222555
0.0967071
0.0117458
-0.0426423
0.0238445
-3.28741e-05
-0.0386072
0.0241001
0.002076
0.07695
0.0345303
0.0323148
-0.0205184
-0.0146936
-0.0445834
0.0137164
-0.041435
0.00652813
-0.044492
-0.0602614
-0.0169225
0.0120108
-0.0224983
0.0234961
0.00742028
0.0441258
-0.0399868
0.00628757
-0.036891
-0.0428479
-0.0394041
-0.0429917
0.0135096
-0.037322
0.0154714
-0.0413855
-0.00202963
-0.0973198
0.182284
-0.0351345
-0.021587
0.0303635
0.0137446
0.0747856
-0.0458498
0.00808481
-0.0172539
-0.0389543
0.0259169
-0.0388136
-0.0394013
0.0320909
-0.0372879
0.030535
0.0241629
0.0864181
-0.0400614
-0.384592
-0.0540159
-0.00263278
0.00823506
0.0241764
0.0515054
0.00999142
-0.010754
0.0216668
0.00729251
0.0049554
0.0399361
-0.044615
-0.0370803
-0.0395747
-0.0214367
-0.0431217
-0.0090048
-0.0380803
-0.0393147
-0.0418677
-0.0264292
0.065984
-0.0444256
0.00578462
-0.00831856
-0.15664
0.15717
-0.0266606
-0.0166318
-0.072257
0.0128026
-0.159223
-0.0190806
0.0239522
0.0525422
-0.0359952
0.0130186
-0.0306324
-0.0383627
-0.0498483
-0.0209872
-0.0403996
-0.0191857
-0.0246694
-0.0375711
0.0273377
-0.365617
0.0188657
-0.109182
0.0985267
0.0296102
0.0276608
-0.0429944
0.0375557
0.0558257
-0.0190071
-0.0170178
0.030811
0.00577847
-0.026506
0.063557
0.032172
-0.0662313
-0.0206729
-0.0412164
-0.0393356
0.0258309
-0.0315863
-0.0214135
0.118975
-0.04073
0.0650755
-0.0700735
0.0132052
-0.134942
0.0233758
-0.0217862
-0.0367807
-0.0135722
-0.0501055
-0.0701773
-0.0488345
-0.0361527
-0.402232
0.00728865
-0.0209394
0.00389125
-0.0387201
-0.0242818
0.0762343
-0.0425317
-0.00572374
0.0128099
-0.05074
-0.0400395
-0.0435338
-0.00317986
-0.0384149
-0.0589856
0.116544
-0.0270416
-0.0470267
-0.0443238
-0.0338325
-0.0403136
0.00684264
-0.239323
0.0739854
-0.0419717
-0.0540442
0.0709699
-0.0426065
-0.0059883
0.163707
-0.0449236
-0.0391422
0.0354586
0.0270384
0.0216084
0.0246096
-0.0446393
0.041056
0.0279653
-0.040824
0.0296326
0.036621
0.034375
-0.0560781
-0.0387829
-0.0377005
-0.0411909
-0.0674944
0.0442641
-0.0415653
-0.0157022
0.0340122
-0.151514
0.0659246
0.0156414
-0.00214829
0.156471
-0.0259044
0.032486
-0.110178
-0.0416318
-0.267574
0.00304911
0.098789
-0.0379229
0.00576004
0.0534176
-0.0439551
-0.0391444
-0.0290167
0.111284
0.162415
0.00627077
-0.0541874
-0.0362592
-0.0758211
0.0136391
-0.0364962
-0.0646875
-0.0279777
0.162189
-0.0258681
0.027366
0.00795379
-0.0595916
-0.0819261
-0.0277736
0.053505
-0.0304078
0.0111825
-0.132019
0.0324708
-0.0380982
0.00767422
-0.039078
-0.0368736
-0.0452821
-0.0399393
0.0315163
0.00810809
-0.0107324
0.00848313
-0.017286
0.0131544
-0.0306061
-0.14846
-0.0309721
0.00273303
-0.0018265
0.0294297
-0.011259
-0.0278308
-0.0539787
-0.0371326
0.00517751
-0.0396233
0.00638675
0.0343638
-0.0177545
-0.0430998
0.009414
-0.0208658
-0.0477374
-0.0393118
-0.032195
0.0232657
-0.249456
0.0271567
0.0133631
0.00465588
0.0333103
0.0546903
0.00493531
0.0239042
0.00473739
-0.0189029
0.00604091
-0.00771741
0.00697929
-0.0255975
0.0335318
0.074701
0.0304366
-0.129863
0.00701507
-0.0459907
-0.0435832
-0.00880592
-0.0201726
0.0592984
0.0122923
0.0328208
0.0255748
0.0259342
-0.414096
-0.41171
-0.00115578
0.0186862
-0.0379735
-0.0449182
-0.0180564
-0.150989
0.0348634
0.0271188
0.00816553
-0.0817502
0.174031
0.0265911
0.0195316
-0.0482453
-0.0379261
0.0312913
-0.045078
-0.026986
0.105464
0.0233852
0.0266559
-0.00386948
-0.0122988
-0.398183
-0.0560799
-0.0215402
0.0268321
0.0304895
-0.0381547
0.0589945
0.0272328
0.0101533
-0.0364487
0.0263131
0.0269216
-0.0174432
-0.0382753
-0.0430693
-0.0745038
0.022946
0.0619457
-0.154722
-0.407596
-0.125642
-0.0362543
-0.0435918
0.0186379
-0.0377246
0.0201026
-0.0393677
-0.0106829
-0.0276628
-0.0713271
-0.036402
-0.039731
0.0120691
-0.0118409
-0.0216994
-0.0362947
-0.0386834
-0.0085289
0.0274539
-0.041583
-0.044669
-0.0309836
-0.0351375
0.0318071
-0.0371158
-0.140943
-0.0166679
-0.0390637
0.0204198
0.111166
-0.395129
-0.0386658
0.0505104
-0.0404741
0.0229674
-0.0377094
-0.0147951
-0.0499471
-0.0158179
-0.00482018
0.00309098
0.0336384
-0.0484155
0.0339722
0.0493264
0.0246644
-0.021886
-0.00185291
0.00351429
0.0191194
0.128676
-0.0397587
-0.0570355
-0.0587131
0.0713786
-0.23983
0.00733496
-0.0811022
-0.026923
-0.0013506
-0.0168996
-0.0727059
0.0308525
0.0205251
0.0246445
-0.0165308
-0.0489107
-0.0118081
-0.0280358
-0.0370434
-0.093331
-0.421562
0.0963343
-0.0391832
0.0198114
-0.089227
-0.0428227
0.0259335
0.0313018
-0.0359353
-0.0414792
0.0339768
0.0481864
-0.0173427
-0.0111939
0.00403506
-0.0368975
-0.0355568
-0.155962
-0.0958012
-0.0366252
0.026628
-0.0220501
-0.0111385
-0.0114452
0.0203043
-0.0310692
0.00427312
0.00923106
-0.0810705
0.00315688
-0.42679
0.0184802
0.0550037
-0.0370232
-0.0198044
-0.0433736
0.00279935
-0.0373118
-0.0366794
-0.0390835
0.0314583
0.00960766
0.0272384
-0.00550549
0.0132836
-0.03736
-0.0211728
-0.0957258
0.106962
-0.0455453
-0.0337308
0.0210762
-0.043945
-0.255069
0.0392938
-0.0364446
0.0516582
-0.00310998
0.0279845
-0.024527
0.0100097
-0.0514868
0.0253289
0.168066
0.0258685
-0.0277885
-0.0263606
-0.0379248
0.0390252
-0.0449469
-0.037352
-0.0463227
-0.0385408
-0.141576
-0.0373402
-0.038034
-0.21147
-0.0365337
0.0510282
-0.0393784
-0.0527521
-0.043544
-0.0369496
0.0642093
-0.0363727
-0.0341258
-0.0317116
-0.0115315
0.0282577
-0.031334
-0.0167446
-0.0454631
-0.0385219
0.00793829
0.00203364
-0.0454778
0.0625382
-0.0469087
0.0312621
0.0328046
0.0125849
-0.0473824
0.0265969
-0.0583555
-0.0385357
0.0202699
-0.00754721
-0.00139557
-0.0387499
-0.0437734
-0.023144
0.0817853
-0.00488918
-0.0401442
-0.284053
0.0920857
0.0405507
0.0262112
0.0896082
-0.0393442
0.0201759
-0.00395814
-0.020733
-0.0154091
0.0274438
0.0613144
-0.0380311
-0.0407021
0.0125924
-0.170843
-0.0802793
-0.0210658
-0.0208022
-0.0426211
-0.0383762
-0.0398198
-0.28216
-0.0121013
-0.026056
-0.0385152
-0.219491
0.0264771
0.0255737
-0.0163758
0.015234
-0.0379335
-0.0385224
-0.0228188
0.0280262
0.0302207
0.0307958
-0.0147513
-0.0480842
0.0312731
-0.0422548
0.0118206
0.0104421
-0.112334
0.0261903
-0.165738
-0.0135246
0.0322843
-0.0417189
0.00426279
0.166291
0.0204481
-0.0202353
0.0203193
-0.019801
-0.00659911
-0.0425823
0.0110526
0.00626836
0.0339
0.020119
-0.119627
-0.0500353
-0.0258139
-0.0493647
0.038992
-0.0589711
-0.0377623
0.00634765
-0.0277719
-0.0393455
0.00166203
0.020389
-0.0274128
-0.0571478
-0.0386447
-0.0361134
0.0263344
0.0021853
-0.0518666
0.0267732
-0.040682
0.0204762
-0.0452629
0.0256605
0.0215094
0.0289028
0.00813426
-0.0446575
-0.0374134
-0.0427963
0.00369986
-0.0169897
-0.0848639
0.0735803
-0.0114269
-0.0385171
-0.041911
-0.0373568
0.0183426
-0.240719
0.147299
0.0429579
0.00286324
-0.055047
-0.0446495
0.00699428
-0.042381
-0.175802
-0.0276869
0.0290919
0.00610042
0.00599605
-0.0376909
-0.00106899
0.00788329
0.0720789
0.0143786
-0.01666
0.00350698
0.0379247
-0.00375972
0.026577
-0.0168301
0.0235763
-0.0389557
-0.0366618
-0.0883683
-0.0308776
-0.0380499
-0.0396631
-0.017226
-0.0201629
-0.0498861
-0.0374388
0.0306085
-0.0480892
-0.0202477
0.0533555
0.115986
0.02589
-0.505583
0.0159518
-0.038368
-0.0488341
0.0275693
0.0464818
-0.0429467
0.0179808
-0.0768188
-0.0467371
-0.043172
-0.166367
-0.0371484
0.00393521
-0.0119053
-0.0037806
0.0141503
-0.0391305
0.0434787
-0.026892
0.027236
-0.136807
0.00650544
0.0536195
0.0261641
0.0770343
0.153772
-0.0392046
-0.0360607
0.0222302
0.0196176
-0.036099
-0.0999409
-0.00623317
0.0211142
0.0138979
-0.0214643
0.0102712
-0.0419441
0.0271286
-0.0323677
-0.0434985
-0.0423044
0.0254982
0.0200868
0.0278942
0.0335132
-0.115444
-0.0391196
-0.0387979
-0.0389057
0.10146
-0.0378207
0.0313369
0.0315473
-0.0373549
-0.0201956
0.00654802
-0.0266246
-0.0386356
-0.0104342
-0.0761891
-0.0150754
-0.127711
0.0304153
-0.0446074
-0.0360893
-0.0441679
-0.0474527
-0.037247
-0.0310436
-0.126195
0.0134477
0.0414586
0.0308161
-0.102339
0.0190906
-0.257977
0.216376
0.039297
0.0263489
0.0367063
-0.0380247
0.0363586
0.0492819
0.0226602
-0.0376346
-0.0891305
-0.0371067
-0.0480477
-0.0526212
0.0111039
-0.041434
-0.0373413
-0.0956728
-0.0219082
-0.0494046
0.0680517
-0.0602271
0.0211106
-0.0219434
0.177855
0.017846
-0.0378976
-0.0426756
-0.0370984
-0.0364507
-0.0374031
-0.0399611
0.0570275
-0.159854
0.0182048
-0.0676574
-0.0627113
-0.0092357
-0.0453266
0.119901
-0.0998908
0.0359667
0.0261796
-0.179602
0.030695
-0.0153211
0.0194012
0.0250525
0.0203424
-0.0476004
0.0270008
0.00980212
-0.0364757
0.0290934
-0.027456
0.0190494
0.119083
-0.00986136
0.172572
0.0284652
0.246723
-0.0552511
-0.0479979
-0.0430019
-0.0283208
0.030482
-0.0424295
-0.0485781
0.10218
0.0290961
-0.108737
0.0702858
-0.0392438
-0.00719786
-0.0619664
-0.0910799
-0.0385668
0.0269757
-0.0179587
-0.0443663
-0.0158277
-0.0467412
-0.0186059
-0.0382807
-0.0341089
-0.0374963
-0.0374951
0.0154432
-0.0391252
-0.0400892
0.0232155
-0.00151351
-0.0389727
0.0104103
-0.0457736
-0.1697
0.0290999
-0.0385222
0.0123702
-0.0315421
-0.000958868
0.0233769
0.0227685
-0.0446494
-0.0405038
0.0220559
0.0178525
0.0897998
-0.0891657
-0.0365822
0.0307428
0.0108672
0.010749
0.0268768
0.0307559
0.0430657
0.058963
0.213521
-0.131139
-0.0326624
-0.0371825
0.0606369
0.0275339
-0.00412792
-0.0662826
0.114386
-0.0404763
-0.042796
0.0228637
-0.104887
-0.0255585
-0.037553
0.0305341
-0.0448185
0.0557102
0.0273017
0.0577096
0.00549416
-0.0384611
-0.0281668
0.10164
0.0206001
-0.0388827
0.0233983
-0.0378372
-0.110394
0.027316
-0.0635202
0.0143972
0.0180719
0.0359983
0.0231244
-0.00364669
0.0401611
0.0141905
0.0322937
0.00921306
0.052851
0.0177286
-0.0409241
0.0044245
-0.0356481
0.0220655
0.0550027
-0.0255456
0.0622811
-0.0380995
-0.0399563
-0.497452
0.0218021
-0.00294047
-0.0380382
0.0582904
0.0223082
-0.00572088
0.0271383
-0.0163917
-0.0376852
-0.0525134
0.00739822
-0.0135356
-0.0994599
0.0195665
-0.0444038
-0.00295576
-0.0476784
0.089861
-0.0272121
-0.039162
-0.144641
0.0150798
-0.0599682
0.0797205
0.0228396
-0.0343456
0.0259244
0.0252769
0.039634
0.0200989
-0.0142214
-0.0381789
0.00426473
-0.0738303
-0.0489377
0.01925
-0.102693
-0.0376449
-0.016396
0.0772654
-0.257336
-0.045585
-0.0385352
-0.0371295
0.00252103
-0.0954776
0.0289313
-0.0372018
-0.0385691
-0.351743
0.0321742
-0.0374859
0.0270398
-0.0380945
-0.0383869
-0.0757405
0.0364844
-0.0415271
-0.114227
0.00744828
-0.0437948
0.0927769
-0.145639
-0.0312576
-0.0475539
0.0231084
-0.0403398
0.0301977
-0.0322072
-0.0198531
0.0300179
-0.0401448
0.0354992
-0.0839633
-0.0364802
0.031546
-0.0647988
-0.00535689
0.00908394
-0.0393248
-0.000500968
0.0350299
0.0275845
-0.0418626
0.0312617
-0.38919
0.0279342
-0.0107662
0.00431288
0.058375
0.0277297
-0.130881
-0.0399608
-0.0373979
0.0464071
0.0252532
0.0270486
-0.00413076
0.0250342
-0.0296371
-0.0647809
0.00393056
-0.0200963
-0.088408
-0.0212658
-0.0312998
0.0189823
-0.0384905
0.0464465
-0.00218375
-0.0468485
0.0223406
0.0338802
-0.0342613
0.0122016
-0.00724182
-0.0379388
0.0227565
-0.0311739
0.0966339
0.0220878
0.0531299
-0.0445228
-0.0410721
-0.0297007
-0.00983678
-0.036152
-0.00773579
0.0201869
-0.135711
0.0251097
-0.0378545
-0.0407018
-0.0553825
0.134482
0.0206013
-0.0363112
0.0114203
0.146823
0.0449302
0.110506
0.0291817
0.0345077
-0.0382754
0.027919
0.0269544
-0.033435
0.0141118
0.0296077
0.00623413
-0.41432
-0.0457483
-0.0171568
-0.363438
-0.0569166
0.027109
-0.0342795
-0.028551
-0.0209725
-0.351915
-0.0408358
0.00496388
-0.225626
-0.0340749
-0.250187
0.0245687
-0.0487127
0.0275962
-0.0425074
0.00200477
0.0214651
-0.471531
0.0250679
0.0168193
0.0224284
-0.0383823
-0.320833
-0.0523944
0.0202058
-0.0385761
0.0334928
-0.116258
0.0198488
-0.00358
-0.0395401
-0.000874802
0.0342404
-0.0527888
0.0301551
0.0266932
-0.0205391
-0.0143839
0.0102766
-0.0168229
0.00285374
0.0360536
0.0210896
0.0131
0.0332388
-0.0357904
-0.0401266
0.0446891
0.0370498
0.0404363
-0.01716
0.0224674
0.0262662
0.0573722
-0.0387352
-0.0273118
0.0252365
0.0225696
-0.130146
-0.0400024
0.0190137
0.0519019
0.0344371
-0.0182158
-0.270296
0.058958
-0.0371651
0.0301995
0.00629986
0.0194158
0.0199419
-0.0374097
0.0587121
0.0099399
0.0196283
0.00915499
0.0224356
-0.0432488
0.0147617
-0.185588
0.0371575
0.0568248
-0.0382836
0.0219342
0.0194079
0.0134132
-0.014755
0.155944
-0.0403328
0.0573462
-0.036479
-0.0384383
0.00807491
0.140593
0.0254515
0.0405676
0.0535594
-0.0559719
0.0363625
0.0323811
-0.0520269
-0.038617
0.0244675
-0.0646139
-0.073289
-0.00298634
0.0271621
-0.0403108
-0.0315654
0.0244228
-0.039908
0.0295042
0.037251
0.00806168
-0.01344
0.023929
0.027207
0.0187482
-0.00936846
-0.0558603
0.166149
-0.0449362
-0.0239021
0.0528899
-0.00858241
0.101638
-0.0466389
-0.0582932
-0.0458259
0.0182218
-0.0369619
-0.00381418
0.015498
-0.0493682
-0.0386594
-0.0391035
0.0543642
-0.0380911
-0.0410402
-0.0855446
0.0286632
0.047545
-0.0338581
0.0214568
0.0205181
-0.0385234
-0.038198
-0.0398526
-0.0153945
0.00976727
-0.038741
0.0335634
-0.0171525
-0.0368376
0.0277039
0.0219941
0.021685
-0.0632711
0.0251221
0.0276997
-0.185625
-0.0256002
0.0107562
0.0475865
-0.0429878
0.0278511
0.0377375
0.023451
-0.00313482
0.00738051
-0.039877
-0.0198446
-0.043119
0.00532319
0.037308
-0.0368013
0.00395941
-0.0434687
-0.0348842
-0.0494037
-0.0360445
-0.0186994
0.0328229
0.0304832
-0.025391
0.0135532
0.0678418
-0.256935
0.0457171
0.00522109
0.0202729
0.00575616
0.0202716
-0.0220058
-0.0384148
-0.00346897
-0.0095319
0.0326081
0.0283612
0.0174789
-0.0391411
-0.0479695
0.00686621
-0.012256
0.0132609
0.0401188
-0.0368326
-0.03791
0.0273924
-0.0381767
-0.244227
0.00317623
0.0087904
0.00664014
0.00906238
-0.0454454
-0.0406986
0.00296499
-0.0400976
0.0253271
0.0294889
0.0295375
-0.043065
-0.0526545
0.0224113
-0.027437
-0.0379864
0.0607306
0.0158658
-0.117364
-0.0158923
0.00708384
-0.041635
-0.00227641
-0.0388102
0.0216834
-0.00642119
-0.0405998
-0.0208673
0.0177827
-0.0402585
-0.359057
0.0196423
-0.0299739
-0.0015748
-0.0243975
0.0266366
-0.00467642
-0.00809817
0.135139
0.0532436
-0.0581864
0.0286788
-0.0398472
-0.000931076
-0.0347995
-0.0382645
-0.339397
0.0381562
0.0221314
-0.244795
-0.0607604
0.0188009
-0.0140066
-0.00312761
0.0244004
0.00476126
0.0198921
-0.32759
0.0263879
-0.0392848
-0.0384302
0.0200858
-0.0383324
-0.0156644
-0.042227
0.0277638
-0.00540788
0.0221577
-0.0274674
0.0335421
0.0270844
-0.0248719
-0.0711961
-0.112591
-0.0466148
0.022054
-0.0121786
0.0886658
-0.0368999
0.0448349
-0.0374988
-0.0846556
0.00846811
-0.0653783
0.0128431
0.0248953
0.0277653
0.0260607
-0.0413589
-0.0371905
0.0100858
0.0150888
0.0326285
0.027347
-0.0249325
-0.16223
-0.0347659
-0.00680992
-0.0384189
0.00593228
-0.0402035
-0.0393535
0.0199503
-0.0507572
0.0247246
0.13756
0.161015
-0.0375691
0.0255922
0.0270142
0.0443186
0.0273606
-0.021612
-0.0380085
-0.0160532
0.0564629
-0.00175446
-0.0253244
0.0209252
0.0226433
0.0224467
-0.0443918
0.00573391
-0.0286609
0.0165645
-0.053547
0.037467
-0.0123555
0.0204646
-0.0375396
0.00432774
0.0227677
-0.0382595
0.0239841
-0.0380221
-0.0387636
0.0659559
0.0217069
-0.0323946
0.0495845
-0.0372926
-0.00130868
-0.0557303
0.0236284
-0.0203146
-0.0463296
-0.0346029
-0.0764668
-0.040412
0.0373249
0.000522431
-0.0469859
0.0133839
-0.038005
-0.0121431
0.0256114
-0.174816
0.0197395
0.0269341
0.00452826
-0.066644
0.00596666
0.00690838
-0.150968
-0.0348405
-0.0255316
0.0168173
-0.0463433
0.0130668
-0.0493452
-0.038776
-0.0369903
0.0326568
0.0225349
-0.0705258
0.0224692
-0.0351272
0.0220014
0.0264713
-0.0320394
0.0180467
-0.0279818
-0.0479411
-0.131202
0.0218984
0.0556747
0.0310111
-0.0380361
-0.0320928
-0.037888
-0.0202174
0.0286503
-0.155423
-0.0429085
-0.0381915
0.0203282
0.0643623
0.0200692
-0.0472326
0.0467426
-0.133612
-0.0201085
-0.0392794
-0.0311028
-0.0592803
-0.0348078
-0.0472895
0.0274924
0.00495039
0.0216687
-0.0541304
-0.0115085
0.021851
-0.080686
-0.0283347
-0.0552615
-0.00897877
0.000823901
-0.0360633
-0.131873
-0.253756
-0.03814
0.150759
-0.043097
-0.0487415
0.0153944
-0.0393673
-0.0385477
-0.252129
-0.0524865
-0.0378869
0.0201732
-0.13668
0.0323279
-0.0592053
0.0168836
0.0289671
-0.0380896
-0.0448039
0.0200808
0.0913156
-0.0354799
-0.0372343
0.136317
0.0196704
0.0269432
-0.0648453
-0.0280654
0.134867
-0.0579757
-0.218771
0.0228796
0.0226531
-0.0279719
-0.0170695
0.0370547
-0.00449405
0.00997078
-0.0663801
-0.0323843
-0.0376337
0.0308939
0.113133
-0.0434161
-0.0373413
0.028127
0.0137997
0.0933872
0.0221819
-0.0200964
0.0569124
0.0290772
0.0303808
0.0283702
-0.0059843
-0.0381286
0.0131093
-0.196125
0.0293765
-0.0955089
0.0221109
-0.0153017
-0.064108
0.0309132
-0.0175987
0.0446417
-0.156677
-0.0408038
-0.00236548
0.0170307
0.0858256
-0.00094814
0.0367678
0.0219364
0.0169134
-0.0317972
-0.0379751
-0.0421679
-0.0384023
0.0285787
0.161952
-0.222375
0.0222697
0.0158802
-0.056393
0.0209973
-0.0381024
0.020509
-0.0474685
-0.0247403
0.0215343
-0.0407488
-0.0388372
-0.0749505
-0.0415375
0.000784665
-0.0286084
0.0103391
-0.0491139
-0.0101517
0.00175542
-0.037009
-0.0381012
0.0176822
0.0383701
0.0345839
-0.0587583
0.0236055
0.00701407
0.0220601
0.0103587
-0.0404648
-0.0115273
0.172492
0.0184802
0.0582561
-0.050682
0.0270568
-0.0145483
-0.038778
0.0036286
-0.0385605
-0.0545777
0.00762149
-0.0135961
0.00928044
-0.111241
0.00191095
-0.0273063
0.0361864
0.028066
-0.0453783
-0.0395697
-0.042273
-0.0793353
-0.0414211
-0.131403
0.00874403
-0.0378025
-0.0278837
-0.0493864
0.137312
-0.0633398
0.0375255
-0.1408
-0.0600376
-0.0276157
0.0279257
-0.0343348
-0.0429326
-0.145296
-0.0802423
-0.0380582
0.0030661
-0.0166319
0.0124121
-0.0419911
0.0239764
0.0478795
-0.0146554
-0.0265674
0.0105118
0.0254393
-0.238792
-0.0472106
-0.0350267
0.00435922
-0.270826
0.0348134
0.057883
-0.0378734
0.0225394
0.0256141
0.0242981
-0.0448209
-0.0451591
-0.0365406
0.00343132
0.019716
-0.422358
0.0194522
0.0668651
0.0292343
0.00842435
-0.0390292
0.0562799
0.232158
-0.0406467
-0.0419775
0.00222615
0.0284869
-0.0026515
-0.0263042
-0.0393931
-0.0392854
-0.0486063
-0.0494187
-0.0362916
-0.317742
0.0240079
-0.04513
-0.0230046
0.0313961
-0.0466527
0.0221272
-0.0767083
0.00191908
-0.228645
0.0221774
-0.0419504
0.0359512
-0.0377425
0.00877074
-0.122879
-0.0692824
0.122592
-0.038316
-0.0390136
0.0256582
-0.0107583
0.00585297
-0.0387445
0.112532
0.021276
-0.218808
0.0860237
-0.452618
-0.244258
-0.112961
-0.0165595
0.00663315
-0.0768536
-0.0484139
0.123749
0.0603718
-0.328348
0.0252981
-0.00379754
-0.0163545
-0.0749995
-0.0194662
-0.0802287
-0.0391218
-0.0490115
-0.00355148
-0.0858682
-0.0473413
0.0277806
0.0352168
-0.0864711
0.0525037
0.0333201
-0.0294417
-0.458374
-0.0426483
0.0101982
0.0374466
0.0113424
0.0252943
-0.0459609
-0.0643159
-0.0393989
-0.0190804
0.012554
-0.0482307
-0.0380276
-0.0844421
0.0068363
0.0238385
-0.0317648
-0.0359379
0.0223484
0.0200828
0.0290664
0.0249904
0.0294241
0.0331506
0.0219066
-0.0100208
0.0289996
-0.0360973
-0.103978
-0.0693389
-0.0197785
0.0730547
0.0053055
-0.002104
0.205769
-0.190731
0.00408175
-0.0750588
-0.0509412
0.141046
-0.278735
-0.0372451
-0.310228
-0.0455555
-0.00293791
-0.0380435
-0.0381916
-0.0379797
0.0311088
0.0108861
-0.0866836
0.0238447
-0.0575331
-0.052707
-0.0410284
-0.0214107
-0.0829921
-0.00786765
-0.0379357
-0.00338458
0.0295402
-0.0374859
-0.0386438
-0.00662786
-0.0463029
-0.000955893
0.0429518
0.106682
0.0302309
0.0348542
0.0902557
-0.0149751
0.145013
-0.0313915
0.0188391
-0.0209005
0.00396549
-0.0226367
-0.000442379
-0.0470545
-0.0378887
-0.0450603
0.0297015
-0.117698
0.0247007
0.0206658
-0.0434755
0.0414934
-0.0542555
-0.0379876
-0.374784
0.0992576
-0.0125699
-0.158215
-0.0328802
-0.0426327
0.0154166
-0.0136215
0.0198638
-0.045315
0.00763068
-0.496292
-0.0387841
-0.0350729
0.0244707
-0.0690101
-0.0395717
-0.053987
-0.136161
-0.0399262
-0.0281264
0.0357816
-0.056943
-0.0381738
-0.0215611
-0.0134553
-0.0200061
0.0868241
0.0455071
0.0265994
-0.0423499
0.00362739
0.0257656
-0.150354
0.0274589
-0.0485575
-0.30281
-0.0453424
0.0186521
-0.0583622
-0.0478251
0.0250908
-0.0389502
-0.346049
-0.0473272
-0.0433775
-0.031478
0.151953
0.136227
0.0554653
0.0290754
0.0330967
-0.0180346
-0.0280434
-0.11991
-0.0274719
0.0303135
-0.00321214
-0.0379857
-0.0214246
0.00550404
0.0307764
-0.0306357
-0.0377556
-0.0394772
-0.00985783
-0.0262334
-0.00292788
-0.00349708
-0.0546968
0.0103343
0.0417243
-0.035262
-0.103392
0.0312917
-0.0403371
0.0216168
0.0555822
-0.0344712
-0.0648498
-0.0386401
0.0188787
-0.0398663
-0.0370701
0.0647839
-0.037671
0.114192
-0.0376969
0.0204808
0.0216065
-0.199704
-0.0393862
-0.0359391
-0.151445
-0.0331901
-0.15292
0.0223492
-0.0382663
0.0296482
0.0280302
0.0621433
-0.204552
-0.0366514
0.021372
-0.0441731
-0.442632
-0.0116167
-0.0124138
-0.17571
0.00763845
-0.0411039
0.0285051
-0.0573064
-0.0411317
-0.0378637
0.0381524
0.0204771
-0.0458587
-0.0263276
-0.0340924
-0.0353743
-0.0274161
0.13381
-0.0267362
-0.0261334
0.0249849
0.0188462
0.17192
0.0182125
-0.0456889
-0.0375785
0.120058
0.0957965
-0.049403
-0.0386951
0.0301767
-0.0583052
0.0284119
0.0216785
-0.0256097
-0.038322
0.160262
0.103244
-0.0175235
-0.0319032
0.0196216
-0.044322
-0.0349767
-0.0378033
-0.0572982
0.215954
0.0480359
-0.0393749
-0.27621
-0.0374863
-0.0316713
0.0294257
-0.0335868
0.0320935
0.0204647
0.0379642
-0.00874455
-0.0378764
-0.0271865
0.00918868
0.0938011
-0.0361187
-0.0233686
0.00291735
-0.0395558
-0.0389466
-0.0564667
0.033954
-0.00466666
-0.0379783
-0.0380757
-0.0386326
-0.0394261
0.0402295
-0.0410987
0.148701
-0.0817848
0.0147321
-0.0387811
-0.0223937
0.0329047
0.0307266
-0.0439878
-0.0394055
-0.0390094
-0.0396153
-0.0240813
-0.0345311
-0.0143152
-0.0417703
-0.0510424
-0.0481177
-0.0442946
0.0276324
-0.0402393
0.0188686
0.029553
-0.0438826
-0.0249063
-0.190252
-0.0568429
-0.037857
0.103396
-0.0378264
-0.0394157
0.00365445
-0.038089
-0.0247527
0.015944
-0.176738
-0.0355929
-0.0393688
-0.0196326
-0.0256587
-0.00419525
-0.038206
0.00315235
0.0219323
-0.0372589
0.0270924
-0.0278568
-0.0202078
-0.0139852
-0.0177202
-0.0413373
-0.0402481
0.0951909
-0.0351642
-0.0377148
-0.0441933
0.0226574
-0.0392364
0.00199777
-0.0255379
0.0468345
0.056277
-0.0481803
0.0459113
0.00835789
-0.0454234
0.0149209
-0.0544792
-0.038444
-0.0381646
-0.0450721
0.0197674
-0.00987439
-0.0800184
0.0232113
-0.18755
-0.0443119
-0.0381016
-0.0421369
-0.0188114
-0.0751413
-0.0397964
0.00314431
-0.0342609
-0.0491405
-0.0383558
0.0807819
-0.0249197
-0.000359761
-0.0255872
-0.0496548
0.0224728
-0.0599571
-0.039234
0.0346157
-0.0353092
-0.0439313
0.0515339
0.000181544
-0.0405477
0.0190429
0.0206797
-0.000687289
0.0331384
-0.0462131
-0.0149451
-0.0228786
0.00363111
-0.033691
-0.0443637
0.00435489
-0.0394701
-0.0237229
-0.0461321
-0.00103222
0.0186052
-0.113984
-0.0384485
0.0560326
-0.318685
0.00356625
-0.0391697
-0.0410726
-0.0377256
0.022666
-0.0363371
0.0300014
-0.0437954
0.00324643
0.0289283
-0.00935453
-0.0433046
-0.037879
-0.00853753
0.0254107
-0.309569
-0.0417638
-0.0393966
-0.0583281
-0.013428
0.0275894
-0.0677099
0.0783564
-0.054399
-0.0387029
0.0198541
-0.0246221
0.00860529
-0.000867406
-0.0394465
-0.0382619
-0.07358
-0.0342641
-0.0380325
0.0801551
-0.0264829
-0.063703
0.0288902
-0.00213873
-0.00998579
-0.0400997
-0.131609
-0.0616746
0.011777
-0.0389171
0.0220268
-0.11066
-0.0424162
-0.187889
0.000204652
-0.0386483
-0.0338424
0.073075
-0.0261026
-0.00852773
-0.00686671
-0.0256865
-0.0276936
-0.0134139
-0.0317953
0.0028249
-0.0391045
-0.506221
-0.0380397
-0.0423913
-0.0385177
-0.0379409
0.0707222
-0.0109351
0.0153479
0.0288422
-0.0378121
-0.0413355
-0.0258496
0.0170897
0.0256793
0.0466752
-0.0540593
-0.0335077
-0.037914
-0.0377118
0.0253336
-0.0136406
-0.048054
-0.0380997
-0.0446302
-0.0064264
-0.04151
0.0316972
0.0419565
-0.0282526
-0.114185
-0.00936854
-0.0420885
-0.0395927
-0.043726
-0.0413696
-0.0453374
-0.0388314
-0.0438579
-0.0386617
-0.0455964
-0.00063137
-0.0419636
-0.162431
0.0299377
-0.0327645
-0.0400011
0.042191
-0.0887498
-0.0222007
0.0124809
-0.0278977
-0.0414132
-0.0518304
-0.002144
-0.136471
-0.0421333
0.00518402
-0.476954
-0.0373151
-0.0158101
0.0946436
-0.0158188
-0.0378751
-0.0412409
0.170339
-0.0480256
0.0256463
-0.163812
-0.00467258
0.0412811
-0.00464978
0.00785241
-0.0496938
0.00529833
-0.0361569
-0.0420564
-0.0231172
0.0236171
0.0266802
0.0312737
0.00698026
-0.155122
0.00749948
-0.0315236
0.135848
-0.188025
0.0198538
-0.0486585
0.0222736
-0.133911
0.0145079
-0.0550299
-0.00746921
0.106088
-0.0351917
-0.0192273
0.0247004
0.0297632
-0.0517958
-0.0313079
-0.0394521
0.0196641
0.0700242
-0.0248032
-0.0376227
-0.0378549
-0.038043
-0.0408066
-0.036443
-0.142211
-0.0377768
-0.0340308
0.00681132
0.112257
-0.0112178
-0.0381835
-0.0497328
-0.0663018
-0.07056
0.0275294
-0.0309161
0.0983679
0.0152202
-0.0312938
-0.0112397
0.0374485
0.0160548
-0.0341738
0.0142989
-0.0248949
-0.0570751
-0.100635
-0.140532
-0.00902476
-0.0363652
-0.030661
-0.0848942
-0.0406785
0.0182423
0.0240946
-0.0337449
-0.0242656
-0.0394773
-0.0351256
-0.0305268
-0.0423027
-0.000259722
0.191759
-0.347547
0.0297644
-0.0132317
0.00764451
-0.0334567
0.00768532
0.023034
0.0329957
-0.0334873
-0.0474544
-0.024959
-0.379587
0.0239008
-0.0436346
-0.0357149
-0.0305274
0.0290865
0.0302337
-0.0425938
-0.0487417
0.055801
-0.046992
-0.00368881
0.019952
-0.0333467
-0.0305246
0.0328497
-0.209904
-0.041112
-0.0432685
0.0240409
-0.0438434
0.0669283
-0.186563
-0.0380482
0.0226492
-0.0542071
-0.0416655
0.0428053
-0.0357169
-0.00871733
-0.0193238
-0.042976
0.0109095
0.00834567
0.0213971
-0.0384751
-0.0334035
-0.000459879
-0.0358922
-0.0255239
-0.000163776
0.00811911
0.0556401
-0.0383062
-0.0158759
-0.0423021
-0.042493
0.0300539
-0.113691
0.0145825
-0.00369378
-0.0306937
-0.0442011
0.0130265
0.00815841
-0.0360876
0.0299541
-0.00545206
0.027891
0.092553
0.0125487
0.00914762
0.0150796
0.00969099
0.021608
0.0108889
0.0517511
-0.0263583
0.0274772
-0.0360354
-0.144225
0.0342257
0.00405582
-0.0405895
0.03364
0.015407
0.00250983
-0.0259727
0.0504242
0.023566
-0.074093
0.00205303
0.00975025
-0.0207176
-0.0356322
-0.0374662
0.0215569
0.00777549
0.208366
-0.0562994
-0.0411584
-0.195259
-0.0155799
0.0629556
-0.0433804
-0.120004
-0.135924
-0.026788
-0.0891125
0.0335056
0.0369159
0.00952535
0.00938293
0.110444
0.0220534
-0.506047
-0.0379166
-0.0527653
-0.0392091
-0.283245
-0.0461111
0.00526589
-0.00149411
-0.0457031
0.028607
-0.0398442
-0.10534
0.00265788
-0.419599
-0.0515327
0.0176978
-0.0373995
-0.0713111
0.186769
-0.0979611
-0.0257524
-0.037539
-0.0449092
-0.225161
-0.0466521
-0.0209123
-0.0155787
-0.0368932
-0.00408924
-0.322633
-0.237916
0.0127678
0.0273835
-0.037375
0.23572
-0.0725862
0.0132692
0.0386561
-0.459382
0.0280417
-0.0141075
-0.0100998
-0.0965264
-0.0437649
-0.136049
0.020593
-0.0926129
0.0293736
0.0109309
0.0110122
0.0968954
-0.0431474
-0.0394954
0.0206444
0.029264
-0.0493694
0.0874506
-0.0386168
-0.0678781
0.0256093
0.0268566
-0.00501242
-0.0377719
0.0274663
0.0266644
0.028282
0.151902
-0.0361894
0.0336105
0.0249694
-0.110848
-0.0518436
0.0153458
-0.0391257
-0.039496
-0.0692645
-0.0456923
0.0601894
-0.0380432
-0.0713156
-0.0323409
0.0114734
0.0439366
-0.356171
-0.382249
0.0271821
0.0790761
-0.0418931
-0.0443311
-0.0349427
-0.043136
0.0242301
-0.0757223
-0.277592
-0.0378407
-0.0206427
-0.170405
-0.326082
0.00735965
-0.0201719
0.0296891
0.0611109
-0.2448
0.0155819
-0.0395122
-0.0396038
0.0298373
0.0969741
-0.0380078
-0.0374754
0.00579574
0.0148752
0.0251277
0.0567377
-0.429553
0.0196408
-0.0378145
-0.0640534
-0.0375432
-0.0387878
-0.142136
-0.0438561
0.0132725
0.0137782
0.00239194
-0.00290283
-0.0520604
-0.0378982
0.0787496
-0.0381336
0.015288
-0.0496137
0.0205583
0.0264675
0.0153447
0.0844116
0.019264
-0.16535
0.0175114
0.033818
0.00524236
-0.0439931
0.0936814
0.00921017
0.0246988
-0.0396043
0.0215068
-0.0422278
0.0129264
-0.048786
-0.0420229
0.0707191
0.00583617
0.0406254
0.0249588
-0.0384373
0.119151
0.0180267
0.0164264
-0.385975
-0.328115
0.232902
0.0150433
0.0355081
-0.0338866
0.146547
0.0222645
-0.0440343
0.0144129
0.117484
0.0271919
0.109447
-0.0407138
0.0394099
-0.00357781
-0.0438477
-0.136606
0.0272315
-0.0441074
0.0684525
-0.130999
-0.0419395
0.0656824
-0.0826064
-0.0466225
-0.0424086
-0.0422073
0.0203268
-0.0414846
-0.00950702
0.0091345
-0.0405643
0.0270888
-0.0200072
-0.0603834
-0.0100262
-0.0489394
-0.148807
-0.0955311
-0.0517805
-0.0546514
-0.0502354
0.0297609
0.0242434
-0.047191
-0.011439
-0.314524
-0.0197525
0.03146
-0.00295674
-0.036194
-0.18316
0.0181822
-0.0454613
-0.037285
0.00936358
-0.0391583
0.013028
0.0333953
-0.048672
0.01236
-0.0274928
-0.0386805
-0.0476925
0.108525
-0.0386625
-0.130815
-0.0388468
0.0441525
-0.0421965
0.00789337
-0.0398597
-0.249573
-0.013284
-0.0410165
0.00531321
-0.155271
0.0700615
-0.0733847
-0.0378785
0.00848279
0.120881
0.221169
-0.0152174
-0.0398369
-0.205979
-0.0343912
0.026341
-0.0372176
0.04697
-0.0400746
-0.0411917
-0.0390883
-0.0378657
0.0111815
-0.0382354
0.00295397