/*--------------------------------*- C++ -*----------------------------------*\
| =========                 |                                                 |
| \\      /  F ield         | OpenFOAM: The Open Source CFD Toolbox           |
|  \\    /   O peration     | Version:  v2012                                 |
|   \\  /    A nd           | Website:  www.openfoam.com                      |
|    \\/     M anipulation  |                                                 |
\*---------------------------------------------------------------------------*/
FoamFile
{
    version     2.0;
    format      ascii;
    class       volVectorField;
    location    "300";
    object      ddt0(U);
}
// * * * * * * * * * * * * * * * * * * * * * * * * * * * * * * * * * * * * * //

dimensions      [0 1 -2 0 0 0 0];


internalField   nonuniform List<vector> 
14479
(
(-0.0312201 0.00793033 2.68558e-20)
(-0.04542 -0.0473751 0)
(0.00257185 -0.000213295 0)
(3.20376e-05 1.39342e-05 0)
(-0.019344 -0.0075788 0)
(3.87784e-06 -1.72835e-05 1.61792e-21)
(-0.000272407 0.000491775 -5.39196e-22)
(0.00220499 -0.0116922 4.25593e-22)
(0.00350754 -0.00353413 -8.6505e-22)
(0.00318002 -0.00112466 -3.18116e-22)
(0.000386953 -0.000884373 2.06106e-22)
(-0.00021945 -0.00120838 1.92785e-22)
(0.0157158 -0.000544813 -1.78259e-21)
(0.0500631 0.0440291 0)
(0.00662001 -0.107846 0)
(2.07224e-05 -1.71888e-05 0)
(-0.000205241 0.000569607 0)
(0.00101926 -0.0988763 2.68847e-21)
(0.000162481 0.000146805 -7.69016e-23)
(0.00741498 -0.00158852 8.25014e-22)
(-0.000721757 -0.00447671 -2.00105e-21)
(-0.0178017 -0.00983794 0)
(-0.00410807 -0.0224326 1.27255e-21)
(-0.0175642 -0.00195165 3.65776e-22)
(0.000514542 -0.00082636 -2.32296e-21)
(8.42405e-05 0.000140102 2.01243e-22)
(0.0045403 -0.000869667 0)
(0.00313793 -0.00338171 0)
(-7.5207e-05 0.000292096 -2.85581e-22)
(0.00439204 -0.000897583 2.07268e-23)
(0.00263537 -0.000268087 -5.21527e-22)
(-0.0190803 -0.00380861 0)
(-0.00700175 -6.79638e-05 0)
(-0.006827 0.00111968 0)
(0.00167439 -9.53306e-05 4.84853e-22)
(0.00032492 0.0141328 -8.21604e-22)
(0.000388942 -0.00108987 2.35592e-22)
(5.83257e-05 1.38686e-05 0)
(0.03837 -0.0119569 7.35951e-22)
(-0.00818422 0.00387333 0)
(3.1501e-05 -1.58534e-05 2.42952e-21)
(0.00069189 -0.000442465 1.73474e-21)
(0.0149769 0.0183529 3.44927e-21)
(0.0150567 0.0133396 0)
(0.000252581 -0.00113222 8.60919e-22)
(1.44368e-05 -1.54421e-05 -8.36846e-22)
(6.04161e-05 6.57101e-06 3.16954e-23)
(-0.0735411 -0.052144 0)
(-0.00141651 -0.0141843 0)
(0.000629622 -0.000526268 3.17211e-21)
(0.00226514 0.000278295 -5.4447e-22)
(0.00302861 -0.00320332 9.09491e-22)
(0.000197442 0.000100186 -7.05492e-23)
(0.00239659 0.000289986 6.0481e-22)
(-0.00534838 -0.0196717 -2.73528e-21)
(-0.000518977 -0.00153496 -1.26233e-21)
(0.000229054 0.015371 1.11722e-21)
(-0.000348309 0.000580608 2.61025e-22)
(0.0369824 0.00522374 0)
(-0.000353199 0.000529481 2.46432e-22)
(0.000487575 0.00012802 0)
(0.00099232 -0.000320216 0)
(-0.0766264 0.144978 -3.43503e-20)
(0.000114859 5.85002e-05 0)
(-0.000412693 0.000407475 1.18469e-21)
(0.00238671 -0.134205 -2.75589e-21)
(-0.0862242 -0.0280788 1.19126e-20)
(0.0248165 -0.0877525 1.44674e-20)
(0.000210977 8.95191e-05 4.09298e-23)
(-9.44899e-05 0.000294019 1.69057e-22)
(-0.147239 0.191286 0)
(5.57109e-05 7.69267e-06 -1.61682e-23)
(0.00186853 7.64466e-05 0)
(-0.00914064 0.00379831 0)
(0.000769473 -0.00103888 0)
(6.06385e-05 4.2826e-06 1.5181e-22)
(-0.00202846 0.00954999 1.99187e-21)
(-0.090856 0.143267 -1.62013e-20)
(-0.000365016 -0.000103336 8.43434e-22)
(-0.0149291 -0.106785 1.84537e-20)
(0.000159381 0.000166181 1.38961e-22)
(-0.0198985 -0.000456619 0)
(-0.00780116 -0.157491 3.47424e-21)
(0.00311341 -0.000346893 0)
(0.010983 -0.00136315 -1.57766e-21)
(-0.00273036 -0.00126398 -8.65008e-22)
(-0.00298379 -0.000115412 1.08236e-21)
(-0.000373356 0.000496406 1.7987e-21)
(0.001311 -0.0118712 0)
(2.9399e-05 0.0011378 0)
(0.00337279 -0.00333245 9.21633e-22)
(-0.0361559 -0.117322 -1.50591e-20)
(-0.0354255 -0.0301953 2.24077e-22)
(0.000105854 5.41803e-05 0)
(0.0112935 -0.0139309 2.59466e-21)
(5.38292e-05 6.50763e-06 1.90819e-23)
(-0.000393178 -0.000149292 -1.87226e-21)
(-2.56799e-05 1.86785e-05 0)
(0.000138873 -1.73066e-05 1.23323e-21)
(0.0617116 0.0135671 -1.67302e-21)
(-0.0978602 0.279173 2.42957e-20)
(1.32502e-05 1.06691e-05 2.21204e-21)
(0.00251529 0.000310334 -1.41498e-21)
(0.00166062 -4.0913e-05 0)
(0.0678951 -0.0891967 -1.83996e-22)
(0.00723006 -0.00923986 3.91158e-21)
(0.0925804 0.0103279 3.79178e-21)
(-0.00853952 0.00251232 -2.8277e-21)
(0.00243556 -0.000276428 2.14761e-21)
(0.0584447 0.0233358 -2.52932e-21)
(0.0836317 0.0190989 -3.83499e-21)
(0.0162155 -0.0873919 0)
(-0.00331676 0.0118451 6.2264e-21)
(-0.00124259 -0.00185552 0)
(0.00430296 -0.00272972 0)
(0.00133822 -0.00158163 6.98832e-22)
(2.61815e-05 5.46014e-06 1.36534e-22)
(-0.0639195 -0.011766 -5.64361e-21)
(9.12284e-06 -2.82933e-06 0)
(0.00126566 -0.00016556 -2.07727e-23)
(2.54008e-05 5.34689e-06 5.01556e-23)
(0.0464531 -0.0572019 0)
(0.00257649 0.000305722 7.17065e-22)
(0.000129641 -2.63967e-05 0)
(0.0143246 -0.00804168 3.5411e-21)
(-0.00537083 0.0122118 -6.25349e-21)
(9.8451e-05 0.00109443 -2.5821e-23)
(-0.137345 0.218176 0)
(-0.00356411 0.00276874 -6.21126e-24)
(0.0114715 0.00771961 1.82114e-21)
(-0.0166136 -0.0254229 -4.76115e-21)
(0.00180777 0.00488245 -1.10693e-21)
(0.00239609 -0.000300383 -8.89453e-22)
(-0.0703312 0.00663527 -1.20554e-20)
(-0.0550127 -0.0106423 -9.48731e-21)
(-0.00354293 -0.00136011 -5.05977e-23)
(-0.00770086 -0.0210852 -3.75017e-23)
(-0.0200548 -0.00216666 -1.44218e-22)
(-0.0524528 0.0342618 -5.52677e-20)
(0.00284037 -0.000391283 1.56139e-21)
(-0.0658265 0.0145614 -1.16517e-23)
(-0.00175085 -0.00830963 3.56083e-21)
(0.00103259 8.28354e-05 0)
(-0.0639969 0.0273644 0)
(0.0001448 0.000169848 6.46643e-24)
(-0.0519368 -0.00343492 -3.28066e-20)
(9.81804e-05 -0.00462632 -3.46792e-21)
(3.13319e-05 -0.00210185 0)
(-0.0192627 -0.0212687 4.07686e-21)
(0.00569278 0.0222618 0)
(-0.0354795 0.0406921 2.04366e-20)
(0.000116959 -0.000177289 0)
(0.0359321 0.0270959 0)
(-0.00120839 0.000392223 0)
(7.28946e-05 0.000138203 2.38297e-22)
(0.000939275 -2.85872e-05 1.4682e-21)
(-0.00814646 0.149689 1.26243e-20)
(0.00786222 0.00452448 -2.68294e-22)
(0.0671778 -0.00933014 -2.23139e-21)
(-0.00343947 -0.00155221 0)
(-0.0101808 0.00249974 1.42417e-22)
(3.69599e-05 4.17569e-05 -2.50621e-21)
(0.000134788 -0.000158956 -2.39658e-22)
(-0.0149378 -0.00324359 -4.03435e-21)
(0.0371253 0.00793678 -1.98384e-21)
(-6.96645e-05 -3.84464e-05 -1.29069e-22)
(0.00013285 -0.000254522 1.45936e-22)
(-0.00576938 -0.00947261 -3.19241e-22)
(0.00287363 -0.00126784 0)
(0.06453 -0.000332769 5.6349e-21)
(0.0322053 -0.112844 1.24721e-21)
(0.000391121 -0.00151001 -1.45209e-21)
(7.3214e-05 4.33971e-06 -1.2686e-21)
(0.0145631 -0.00173605 7.84139e-22)
(3.24709e-05 -4.36692e-05 -1.86443e-21)
(0.00853238 -0.00196325 -7.93404e-22)
(-0.00395684 -0.00110483 -1.64625e-22)
(-8.53019e-06 -1.28598e-05 0)
(-0.01157 0.00865 7.8177e-22)
(-0.054218 0.0039856 -5.51772e-21)
(0.00126119 -0.00160295 6.06932e-22)
(0.000548412 -8.25845e-06 6.83506e-23)
(0.0476633 0.0516873 0)
(0.000770794 0.0109285 5.90294e-21)
(0.0273293 0.0177256 -1.70724e-21)
(0.00187972 -0.000474417 2.2717e-22)
(0.00291834 -0.000469193 -7.75942e-22)
(-0.000725256 0.00708258 3.40271e-24)
(-0.000186414 0.000605843 9.07263e-23)
(0.00363683 0.00042745 0)
(0.00238686 0.0101009 0)
(0.0308164 -0.00352132 0)
(0.013452 -0.124902 7.11565e-21)
(-0.0108156 -0.113231 0)
(5.69052e-05 8.71581e-06 0)
(0.000343972 -0.00154365 1.73363e-21)
(-0.000653935 -0.0008516 2.1763e-21)
(-0.0101453 0.0103974 -9.03637e-22)
(-0.00138852 -0.00154817 0)
(0.000126983 -0.00013423 4.50493e-22)
(0.00783176 0.0221328 -6.13579e-21)
(-0.00402861 0.00310878 0)
(-0.00114365 0.0101444 -2.87215e-21)
(0.000159392 -0.00026463 0)
(-0.00195429 0.00590647 8.66865e-22)
(-9.30062e-05 -4.81785e-06 7.26438e-22)
(0.0228451 0.0188126 -4.52808e-22)
(-1.82416e-05 -7.37956e-06 -1.75381e-22)
(0.000246589 0.000279902 -2.32261e-21)
(-0.00223187 0.0062829 -2.87014e-22)
(-0.000557097 -0.00145364 0)
(0.000305641 0.000387934 0)
(-0.00221921 0.00537476 4.34223e-22)
(-0.00192413 0.00509352 4.26603e-22)
(0.00835 -0.00158546 -7.91894e-22)
(0.0406711 -0.0267657 1.99692e-22)
(-0.0465817 -0.0641636 -2.21177e-20)
(0.00641882 0.00599904 1.15546e-21)
(0.0401372 -0.0264198 -4.3382e-22)
(0.000546926 -0.0139904 2.3205e-21)
(0.0265539 -0.0609742 1.38368e-21)
(0.00135827 0.000207676 2.5194e-21)
(-0.000658479 0.00100498 -3.87516e-24)
(0.00287361 0.0104698 0)
(0.00421747 0.000331075 5.68095e-22)
(5.58226e-05 -4.04251e-06 3.12517e-22)
(0.0111958 -0.076667 -8.3029e-21)
(4.22886e-05 -4.19264e-05 -8.98084e-22)
(0.00216413 -0.00159592 0)
(0.00391151 -0.000507808 -2.22676e-21)
(0.0010866 -3.91593e-05 1.07077e-22)
(0.00444663 -0.000133697 2.21253e-21)
(0.0337678 -0.0227182 0)
(-0.000549219 -0.00185142 1.82824e-21)
(-1.91183e-05 1.67045e-05 5.89747e-22)
(0.0241658 0.00623296 -1.09424e-20)
(-0.000607967 -0.00418032 -3.59366e-22)
(0.000924986 -0.00908583 8.40881e-22)
(-0.000781746 0.00698448 3.04556e-22)
(0.000181228 0.00014299 -7.67471e-23)
(0.000325812 0.00337219 0)
(0.00014247 -0.000119699 -5.18712e-23)
(0.00300148 -0.00537209 0)
(-0.00419539 0.00109835 0)
(0.00168877 -0.000630578 -2.24757e-22)
(-0.0219164 -0.00508062 -2.23423e-21)
(-0.0173386 -0.0751089 -1.48142e-20)
(0.0295533 -0.0544367 0)
(0.00106834 -0.000255352 -5.37878e-23)
(0.000105401 0.00015502 -1.24466e-22)
(0.011628 -0.0163832 -1.40792e-21)
(-0.00605997 -0.00192787 0)
(0.00627263 0.0116868 4.14234e-21)
(0.00315891 -0.00101452 0)
(0.0280289 -0.0192927 -5.23589e-23)
(8.9633e-05 9.53849e-06 0)
(-0.00189926 0.00442263 3.95501e-22)
(0.000292209 0.000323908 -2.32945e-21)
(0.00234771 0.0112207 0)
(5.49192e-05 0.000118765 0)
(3.51387e-05 -4.32583e-05 3.97179e-22)
(-4.2528e-05 0.00367547 0)
(6.55851e-05 0.000121528 2.21112e-22)
(-1.1324e-05 4.11896e-07 -9.05072e-22)
(-7.72628e-05 8.74674e-05 1.22657e-21)
(-0.00352246 0.00247312 0)
(-0.0156482 -0.0051969 3.5857e-21)
(9.49295e-05 0.000155901 8.11954e-24)
(-0.0171026 -0.0758143 6.76352e-21)
(-0.00309041 -0.00393166 3.82333e-22)
(0.00213858 -0.00168163 0)
(-9.28549e-05 -7.29558e-06 -7.71503e-22)
(0.0445516 -0.060684 1.63144e-22)
(0.00037467 -0.00142925 -1.06938e-23)
(-0.00761248 -0.00950104 -5.57562e-24)
(-0.0152112 -0.0572501 0)
(0.00115581 -0.0087059 0)
(0.000432586 0.000328718 0)
(-0.00125334 -0.00173555 0)
(0.00122946 0.0020516 -7.88008e-22)
(-0.0210789 0.00265469 2.2646e-21)
(6.03217e-05 -1.55882e-06 0)
(0.00017205 0.00114425 2.37862e-22)
(-0.000788497 0.00104814 -1.52733e-22)
(0.00598531 -0.0075626 0)
(0.0102919 -0.00198886 2.29601e-21)
(0.00208498 -0.0018906 0)
(0.00302007 -0.000354695 -1.64087e-21)
(-0.000117075 -0.00177183 0)
(-0.103169 0.10717 4.11448e-20)
(0.00367302 -0.00140043 -6.66428e-22)
(0.000640466 -0.0010412 0)
(0.00296035 0.00993893 1.90403e-21)
(0.0161355 -0.00951695 -3.40861e-21)
(-0.00074989 -0.00331524 4.53736e-22)
(-0.0128948 -0.148228 5.08902e-21)
(-0.0193518 -0.00468951 -6.96593e-21)
(-5.77153e-05 0.000818763 1.1141e-23)
(-0.00572656 -0.00128165 -1.38378e-22)
(-0.0245394 -0.0603163 2.05719e-21)
(0.00323659 0.0104181 0)
(-0.0270888 -0.121292 0)
(-5.73529e-05 9.0103e-05 0)
(0.000362861 -0.000983965 0)
(-3.50817e-05 -0.0023329 8.28126e-22)
(-0.0773835 -0.0192222 3.87571e-20)
(4.92194e-05 3.97804e-05 0)
(-0.131263 0.22328 -7.47975e-20)
(0.000176971 0.00030355 0)
(0.00409775 -0.002835 0)
(-9.5976e-05 -8.1938e-06 0)
(-0.122448 0.24857 5.39342e-20)
(-0.000880461 0.00017718 5.53931e-22)
(0.000243074 -0.00231343 0)
(5.87023e-05 -0.0023402 -9.17741e-22)
(0.00452139 0.000237553 1.98368e-22)
(0.0292396 -0.00583767 -1.229e-21)
(-0.000805138 -0.000678775 -1.025e-21)
(0.000135639 -0.00219971 0)
(-3.28753e-05 0.000105293 1.07652e-21)
(0.0142885 0.0102144 1.86051e-21)
(0.00326689 -0.00543001 -1.43376e-21)
(-0.087288 0.029164 2.34513e-21)
(0.0223456 -0.00954783 6.64966e-22)
(0.000490067 0.000216342 1.51049e-22)
(0.0315898 0.00490846 2.31412e-21)
(0.00804478 0.003533 6.99923e-22)
(-0.0403838 -0.0413869 1.55967e-20)
(0.0152783 0.000977129 -2.21056e-21)
(0.00135504 0.0019952 -7.75039e-22)
(-0.0014611 -0.0224907 2.98274e-21)
(-0.000499519 -0.000765931 -5.00904e-21)
(0.0043768 0.00955939 -3.40666e-21)
(0.00137811 -0.00104868 -2.30324e-21)
(6.8488e-05 6.56914e-06 0)
(0.000246711 0.00109713 0)
(0.0556841 -0.110658 0)
(-0.00319857 0.0024199 -1.45191e-22)
(-0.00045087 -0.00358813 -4.82063e-22)
(0.00137593 -0.0001628 2.63765e-23)
(0.000427201 0.000301872 0)
(-0.0137735 -0.00887091 1.65985e-21)
(0.000151201 0.000257621 3.35175e-23)
(0.000893106 -0.0015411 -1.92855e-21)
(-0.028955 -0.0521612 -7.99917e-21)
(-0.000431151 -0.00153536 1.63623e-21)
(-0.0599655 -0.000727643 4.28599e-21)
(0.000115001 -0.0021383 -3.40588e-22)
(0.00240621 -0.00189327 5.07908e-22)
(0.00601437 0.00761606 0)
(4.90891e-05 8.93593e-05 0)
(-0.0396185 0.0142876 0)
(0.00186871 0.000113836 6.99167e-23)
(-0.0360716 -0.0344913 -2.03115e-22)
(0.00404457 0.00436518 0)
(-0.074791 -0.0277631 0)
(0.00858579 -0.00194385 -9.77411e-22)
(0.0011282 0.000219674 5.85794e-22)
(0.00045515 0.000226206 -1.6738e-22)
(0.000169822 0.000832408 -2.57945e-22)
(0.000855264 0.00137812 -1.53788e-21)
(0.0237707 -0.00656395 4.94427e-21)
(0.00466423 0.000218132 0)
(-0.0109519 0.0758083 -1.83128e-20)
(-0.000865611 0.00023934 -3.76217e-22)
(0.00107764 0.00131907 0)
(0.000281828 0.000641881 0)
(-9.69994e-06 1.16183e-07 0)
(0.00163442 -0.00105792 1.69609e-21)
(0.000179792 0.000681499 1.97339e-21)
(3.55088e-05 9.37048e-06 -5.91148e-22)
(0.0354216 -0.00888841 0)
(2.20852e-05 1.52615e-05 -1.57607e-21)
(-0.0215824 0.000775979 -2.34113e-21)
(-0.0105783 -0.161408 -2.02969e-21)
(0.0081352 -0.00887071 6.48126e-23)
(0.000889315 -0.000267916 0)
(0.00121572 -0.0131158 0)
(-0.00108802 -0.00145977 2.34169e-22)
(5.38034e-05 0.000724928 -4.71485e-22)
(-2.41041e-05 -0.00248013 -9.49228e-24)
(-0.0054742 -0.00890048 3.61449e-22)
(4.68214e-05 8.33255e-05 -1.75006e-23)
(-0.00462671 0.00360266 -1.83278e-21)
(0.00339226 0.000335852 8.99637e-22)
(-0.0109989 0.00243882 0)
(0.00242842 0.0081791 2.62453e-21)
(0.000341842 0.000386422 3.5855e-22)
(0.0127933 0.00940418 -1.86372e-21)
(-0.0121081 -0.00155806 -1.04526e-21)
(0.000241631 -0.0132565 7.91256e-22)
(-0.0344069 0.0119365 -6.02323e-21)
(-0.000983861 0.000219683 8.43483e-22)
(-0.0484826 0.0045158 -1.58654e-20)
(-0.035856 -0.0509396 7.86012e-21)
(0.00550564 0.00522405 -3.61327e-21)
(-0.00485327 0.00126506 0)
(-0.000106321 0.160319 3.97811e-21)
(0.0110948 0.0256471 -1.76008e-22)
(0.00586193 -0.00705418 2.19265e-21)
(0.000779964 -0.00370579 1.54898e-21)
(0.00263449 -0.00539943 -1.20542e-21)
(-0.00550805 -0.00163789 1.24458e-22)
(-0.0237863 -0.0194415 -7.92575e-22)
(-0.00764907 0.00882157 -5.30297e-23)
(0.00209795 0.00195264 0)
(0.015038 -0.00343295 -9.78559e-22)
(-0.000141534 -0.00251356 0)
(0.00195963 0.000108496 0)
(0.00101882 -0.00252089 0)
(-0.0485574 -0.0349248 0)
(0.0138009 -0.0104774 -3.36195e-21)
(-0.00376701 0.00301109 6.82727e-23)
(0.00844656 0.0259895 3.30882e-21)
(0.000179531 0.000294398 5.46534e-22)
(-0.0340049 0.249088 1.47896e-20)
(-4.60727e-05 0.00038056 -3.06334e-22)
(-0.000421617 0.000758611 -4.53439e-22)
(0.00113599 0.00536568 9.55659e-22)
(-0.0201366 -0.00582712 0)
(0.0172227 0.0102857 0)
(-0.03444 -0.126861 -5.06101e-23)
(0.00367634 0.00819509 -2.92306e-21)
(-0.0459655 0.248333 0)
(-0.0351942 -0.028006 -3.18151e-22)
(-5.89511e-06 0.000811464 0)
(-0.00104395 0.000206019 -8.90712e-22)
(-0.00315044 0.00216578 0)
(0.0005021 0.000707081 0)
(0.000153751 -0.00128943 -3.50985e-21)
(-0.00171595 -0.000656105 1.45283e-21)
(-0.0068955 -0.00252818 -1.45707e-22)
(-0.0278923 -0.0541018 0)
(-0.0276972 0.0454794 0)
(0.00745636 0.00418101 4.27227e-22)
(0.000938291 -0.00158645 3.2729e-21)
(-0.0420662 -0.118292 0)
(-0.00882709 -0.0182949 2.44647e-21)
(0.00157802 -0.00104115 -2.11271e-21)
(0.000429028 0.00027387 0)
(-0.0557678 -0.000982765 3.38997e-20)
(0.000373883 0.000283123 0)
(-0.000373397 -0.00162722 -1.04592e-21)
(0.0510753 -0.0565625 1.32208e-22)
(0.00045223 -0.000891975 1.6988e-22)
(-1.20052e-05 -2.83085e-06 -3.63748e-22)
(-0.000926432 0.00141154 0)
(-0.00353234 0.156464 -4.0438e-21)
(0.00414023 0.00386647 5.72633e-22)
(-0.00218771 -0.000797712 -1.59234e-21)
(0.000203729 -0.00187257 -1.31275e-21)
(0.000818449 -0.000323981 0)
(0.0185966 0.00109059 1.74142e-22)
(-0.00158049 -0.000968457 3.25599e-22)
(0.0208883 0.00133604 -8.9594e-23)
(0.000622082 -0.00381877 -2.15388e-21)
(0.00050769 0.000169727 4.95112e-23)
(0.00227197 -0.000270122 -9.20485e-22)
(0.026419 -0.0143463 -1.64493e-21)
(0.00231242 -0.000245191 4.73031e-22)
(0.00524966 -0.0160522 -1.96271e-21)
(-2.19504e-05 0.000371363 0)
(-0.0043004 -0.000644894 -1.20207e-21)
(-0.00334888 -0.000729463 -5.84311e-24)
(-0.00992 -0.0939122 0)
(-1.48715e-05 -1.48214e-05 0)
(-0.00652121 -0.00206402 2.80275e-22)
(0.003417 0.000404552 1.81795e-25)
(-0.0737642 0.0100393 -3.51542e-20)
(0.000439683 0.000119979 8.82792e-23)
(3.58881e-05 -3.18475e-05 -1.38336e-22)
(0.00240737 -0.000997208 3.08048e-22)
(-2.85407e-05 -7.96427e-06 6.98427e-22)
(-3.93083e-05 8.79649e-06 0)
(0.0336313 -0.065479 -4.51711e-21)
(-0.00424604 -0.114319 -2.79778e-20)
(-0.00679413 -0.00988528 0)
(-0.0676533 -0.0514067 -1.11266e-21)
(-0.000939478 -0.00430345 -4.32307e-23)
(1.27078e-05 -8.07046e-06 0)
(0.00736579 -0.00220021 0)
(0.00177505 0.0135015 1.34629e-21)
(0.0128013 0.0127003 0)
(-0.0153537 -0.0900552 0)
(-0.0074186 -0.00247193 -2.00832e-22)
(-1.41624e-05 -3.59852e-05 1.90679e-22)
(0.000494915 -8.17575e-05 0)
(-0.00343973 -0.000136101 -1.10817e-21)
(-0.0886547 -0.0234241 1.44784e-20)
(-0.0298208 -0.0167623 1.22924e-21)
(9.24498e-05 0.000263591 5.90411e-21)
(-1.42938e-05 9.85038e-05 0)
(0.00405896 -0.015542 1.57921e-21)
(0.000227798 0.00032481 -1.48461e-22)
(6.52312e-06 -2.01504e-05 -1.16889e-22)
(-0.00236511 -0.000470185 -8.67514e-22)
(8.61762e-05 4.06252e-06 -2.0956e-22)
(-0.00719547 -0.0228954 -4.29947e-22)
(-7.9431e-05 -3.88416e-05 4.0034e-23)
(0.00552423 -0.00915924 1.77661e-21)
(-0.00156504 0.00891626 -9.25376e-22)
(-0.0110977 -0.0244061 0)
(0.0251531 -0.0990772 1.25191e-20)
(-0.00852321 0.00833096 5.07286e-23)
(0.0177069 0.00788652 6.00861e-21)
(0.00309795 -0.00120159 0)
(0.00896101 -0.00991016 0)
(-0.0355255 -0.0623985 2.11395e-20)
(0.00699012 -0.0188809 0)
(-3.86267e-05 1.41452e-05 9.54568e-22)
(-0.00170525 -0.000462701 -1.55754e-21)
(0.00218806 0.00119246 -2.86024e-22)
(-0.000886886 0.00103928 1.6265e-22)
(0.00408458 -0.00310575 1.5894e-21)
(-0.00017564 0.00056646 0)
(-0.0551933 0.000620723 0)
(0.00470889 -0.000956706 -7.53183e-22)
(-0.000934937 0.000161667 0)
(-0.0722189 0.0286387 5.58848e-22)
(0.00290725 -0.00137053 0)
(0.0216781 -0.0627918 0)
(-0.0126952 -0.00293658 1.00327e-21)
(4.10292e-05 -2.89666e-05 3.18896e-23)
(-0.00213129 0.00461923 -4.20402e-22)
(-0.00220978 -0.000237077 -2.21441e-22)
(0.00244349 -0.00568071 1.04082e-21)
(1.7693e-05 -3.95658e-06 4.10442e-22)
(-0.00137553 -0.00166992 0)
(0.0231965 -0.0337251 -2.13276e-21)
(-2.46299e-06 -2.06517e-05 2.09036e-21)
(0.0383811 0.00253389 0)
(0.00320615 0.000350012 0)
(-0.00197905 0.00114253 0)
(7.83398e-05 0.000224323 -3.57635e-21)
(3.73617e-05 6.87484e-05 1.29518e-22)
(0.00129054 -0.000944904 -1.87203e-21)
(0.000158517 0.00348281 4.23775e-22)
(0.000422863 0.00589229 0)
(-0.000753695 -0.00468098 9.77225e-22)
(-0.00347009 -0.000924186 4.256e-23)
(-2.95258e-05 -0.00180388 0)
(0.0570563 -0.0791306 7.28395e-21)
(-0.00357615 0.00340185 0)
(0.00011682 0.000165343 1.20369e-22)
(0.00290151 0.144364 1.51308e-20)
(-0.00117293 -0.00152949 -9.88098e-22)
(0.00879961 0.00726003 -2.00476e-21)
(-0.076345 -0.0252638 0)
(-0.0281972 0.178413 -1.98546e-20)
(-0.0212781 0.0111166 -3.7188e-21)
(0.00389125 -0.000489734 0)
(0.0106144 -0.00958289 0)
(-0.0192748 -0.036316 -3.6058e-23)
(1.11616e-05 -3.31221e-06 8.59565e-23)
(-0.00369752 0.00364418 0)
(0.0101655 0.0219663 0)
(-0.0920696 0.256167 -1.23643e-20)
(0.00120424 -0.0015234 -6.36231e-22)
(1.57823e-05 -7.65984e-06 -4.05436e-22)
(-0.0167601 -0.00583425 3.68056e-21)
(-9.08447e-05 -5.13335e-06 -2.55591e-22)
(7.81189e-06 0.000737167 6.74564e-22)
(2.71274e-05 1.27383e-05 0)
(-0.00397856 0.0085781 -2.76711e-22)
(0.00389866 -0.00516665 -8.58633e-22)
(-0.00236668 -0.00113024 2.35486e-22)
(7.4833e-05 1.56949e-06 1.35511e-21)
(0.0201965 0.0163024 0)
(-0.00341372 -0.00380198 1.74544e-23)
(7.60943e-06 -9.59619e-05 0)
(0.0318203 0.00963335 1.13708e-21)
(-0.00012654 0.0026725 2.05e-22)
(0.000726627 -0.00435913 7.17373e-23)
(0.00206284 0.000782069 7.40984e-22)
(-0.0053735 -0.000863171 -3.09353e-22)
(0.00297081 -0.00117573 -1.17643e-21)
(0.00258153 0.000386912 -1.07132e-21)
(-0.000473322 0.000790767 5.28983e-22)
(0.01231 -0.0108171 0)
(-0.00277203 -0.000653615 -3.42557e-20)
(0.0481171 -0.00963341 0)
(-0.000322788 0.00259754 -2.3757e-22)
(-0.002004 0.00126437 0)
(-0.00301961 0.0052866 0)
(-0.00298354 -0.000928916 0)
(0.0377155 -0.0209758 1.0681e-21)
(-0.000867452 -0.000653067 1.02079e-21)
(0.00366656 0.00817387 -9.16515e-22)
(0.0254328 -0.00900485 -8.05263e-22)
(-0.000802873 -0.000131216 -2.30377e-22)
(-0.00368514 -0.0032291 -1.83596e-22)
(2.47564e-06 -3.10822e-05 1.27083e-21)
(-0.0194557 -0.00564022 0)
(0.0658447 0.0257081 -6.72601e-21)
(0.0071993 -0.00373549 8.44332e-22)
(0.0012563 0.16313 -2.71686e-22)
(-0.0600746 -0.00744517 -3.83862e-21)
(-2.86754e-05 5.02965e-05 0)
(-0.0792268 -0.00664422 1.81095e-20)
(-0.0197378 0.0129433 7.88063e-21)
(-5.7262e-05 0.000186132 0)
(-0.00383573 -0.0013598 1.36955e-22)
(6.5677e-05 2.92773e-06 3.78264e-22)
(-0.000240861 -0.0044845 4.83098e-22)
(-0.00113015 0.000414721 -3.2177e-22)
(0.00220125 -0.00185273 4.43886e-22)
(-0.025005 -0.108538 4.37501e-20)
(0.000902808 -0.00335612 -1.63944e-21)
(-0.0105499 0.0160308 -6.92743e-22)
(-0.0153425 -0.00971591 -3.45922e-23)
(5.41485e-05 0.00759928 3.02344e-22)
(0.00385007 -0.000181355 1.07571e-22)
(0.00207271 0.00437014 4.70866e-22)
(0.00444935 -0.000931871 0)
(0.00825275 0.00361487 2.50673e-22)
(-0.0120443 0.0452612 3.52748e-20)
(-0.00232741 8.27665e-05 1.28537e-21)
(0.00330796 -0.000427056 0)
(1.37825e-05 -2.91996e-05 2.57252e-21)
(0.0367732 0.0174628 -1.01628e-21)
(0.011218 0.0109 0)
(-0.103007 0.0810262 -3.32652e-20)
(-0.00556581 0.00034179 1.54555e-22)
(0.0269161 -0.0111453 0)
(0.000283781 0.000352603 -1.46356e-22)
(0.00236323 -0.00279196 1.64446e-21)
(0.00453511 0.00106301 2.32741e-22)
(0.0683326 0.0252015 1.54249e-20)
(-0.0012595 0.000456292 0)
(-0.00130817 -0.000790718 0)
(0.00782815 0.00326588 -1.741e-21)
(2.54047e-05 -3.68744e-05 -1.45931e-23)
(0.00362541 0.000420838 3.15956e-22)
(0.00155867 0.00144454 2.54116e-22)
(0.000765335 0.0016345 0)
(-0.0496757 -0.032608 -9.69744e-21)
(-0.00281043 -0.000524007 1.01868e-21)
(0.00179729 -0.000709043 0)
(0.00141714 0.14357 6.27151e-21)
(6.0132e-05 1.69535e-06 -1.04224e-22)
(-0.00126636 -0.000762757 0)
(0.000247989 0.000357514 3.21012e-22)
(0.000456343 0.00697981 0)
(-0.0357159 -0.0583727 1.35137e-20)
(-0.0198656 -0.0193041 0)
(-0.0867315 0.29078 -2.32743e-20)
(-0.00852117 0.0274514 1.59285e-21)
(0.00686548 -0.00482131 8.51469e-22)
(0.0023367 -0.0010559 1.11391e-21)
(-0.00300972 -0.000603582 0)
(0.000199739 0.00012064 8.91661e-23)
(-0.000244986 0.000122862 0)
(0.00170757 0.00163513 2.52502e-22)
(-0.0298452 -0.0132249 -9.27541e-22)
(-0.0101265 0.0251403 -2.18105e-21)
(0.00780055 0.00134756 1.42894e-21)
(0.00473999 0.00043727 1.58146e-21)
(-0.00158899 -0.000900028 3.42572e-22)
(-0.0520891 -0.0265325 0)
(0.00119848 -3.98282e-05 1.76169e-22)
(-0.0698541 0.00118287 1.54763e-20)
(-0.00826304 0.188231 -6.24395e-21)
(-0.03572 -0.142049 1.74933e-20)
(7.13667e-05 -2.8698e-06 -1.51135e-21)
(0.000959412 -0.00183205 0)
(0.00885992 0.00400327 -1.98858e-21)
(0.00179958 -0.00065736 -7.82479e-22)
(0.00038692 0.000762448 0)
(-0.000632002 -0.00144562 -4.81285e-22)
(-8.2434e-06 -1.03139e-05 0)
(0.0110078 -0.00160384 1.71575e-23)
(0.000413992 0.00334606 -8.42212e-22)
(-0.000528717 0.000573253 0)
(2.95159e-05 0.000217802 1.19921e-21)
(-3.81997e-05 0.000176847 -7.17632e-22)
(-4.45819e-05 0.00072004 1.69717e-21)
(0.000926431 -0.00167168 -1.38087e-21)
(0.00023332 -0.00181239 0)
(0.00114405 -0.000772036 1.92778e-21)
(-0.0740997 -0.0210926 0)
(-7.99104e-05 0.000934703 2.38361e-22)
(0.00214188 0.00171329 0)
(-0.00376231 -0.000878561 -4.24566e-23)
(0.00863133 -0.00373296 0)
(-0.00208236 0.00866853 0)
(-0.000459915 0.000478989 -2.09422e-21)
(0.06955 -0.100402 -5.1237e-22)
(0.000499414 0.00157106 9.87507e-23)
(-0.0123565 0.0300409 0)
(0.00981094 0.0178813 4.87543e-22)
(0.0118696 0.0223908 9.68683e-22)
(-0.00147167 -0.0125931 -3.11843e-22)
(-0.000650374 0.00126871 2.56687e-22)
(0.00241088 0.00132966 0)
(-0.00128536 -0.0014781 4.64237e-22)
(0.0386917 -0.0438754 -5.5189e-22)
(0.00106911 0.00105578 2.14925e-21)
(-0.00022953 0.000136536 4.58421e-22)
(0.0025507 -0.00114799 0)
(-0.00102731 0.00138359 -6.72011e-23)
(0.00813546 0.000322534 0)
(4.87548e-05 -1.13204e-05 0)
(-0.00624922 -0.000735748 1.51875e-22)
(-0.000808659 0.000249507 0)
(-2.07767e-05 0.000655827 0)
(0.00113627 -0.00155229 1.94019e-21)
(0.00128576 -0.0053907 0)
(0.0495867 -0.00565589 8.53437e-21)
(-0.0382115 -0.122582 -1.51573e-20)
(-0.0698211 0.0051869 -1.42147e-20)
(-0.0332887 0.214683 -6.58159e-21)
(0.0196141 0.00269336 0)
(0.00388173 0.00817128 -1.9316e-21)
(0.0215048 0.0136317 1.11432e-21)
(-0.000608618 0.000947445 1.83793e-22)
(0.00396582 0.0128198 0)
(-0.000609508 0.00449734 1.17919e-21)
(-0.0225141 -0.00928497 1.47879e-21)
(0.00482422 -0.000957684 -2.74532e-23)
(-7.48148e-05 0.000132116 8.27726e-22)
(0.00400394 -3.05758e-06 2.06152e-22)
(0.00714208 0.000886443 -3.49893e-21)
(-0.000196692 -0.00252047 3.70407e-22)
(-0.00150367 -0.000369119 4.27362e-22)
(-0.00206297 0.00832197 9.62214e-23)
(-0.0521322 -0.00808863 3.27986e-20)
(-0.00194041 -0.0136497 9.25431e-22)
(-0.118696 0.259126 -3.41155e-20)
(0.00409396 3.23001e-06 -1.11322e-21)
(0.00337234 0.00742381 9.40608e-22)
(2.66233e-05 0.000185478 1.24096e-21)
(0.000217776 0.000152213 -1.16937e-22)
(-0.0212096 -0.017184 3.81521e-22)
(0.00686586 0.000657339 2.95201e-21)
(0.0309399 -0.0514225 0)
(-1.20513e-05 0.000195394 7.34783e-22)
(-0.00936237 0.00267137 2.6508e-23)
(-0.00143436 -0.000276418 0)
(0.00270862 0.0114792 -1.70035e-21)
(0.0197758 -0.000148796 0)
(0.000920081 -0.00216315 -2.07736e-21)
(-2.33078e-05 -0.0002489 0)
(-0.000273533 0.000268908 0)
(0.00205575 -0.00200316 0)
(-9.42791e-06 -0.000268073 0)
(0.000197032 0.000324929 -3.24331e-22)
(-0.0181578 -0.0607194 -2.23113e-21)
(0.0003236 -0.0016625 3.19825e-22)
(6.45894e-05 7.91027e-06 2.73368e-21)
(0.0356425 -0.0330445 0)
(-0.0630713 -0.00729021 6.05056e-21)
(-2.38001e-05 0.000981779 0)
(0.0040566 -0.00553451 -1.71069e-21)
(0.0339633 -0.0432363 -1.94163e-22)
(0.000233585 0.00706434 -2.32401e-22)
(-0.0107787 0.00322225 -2.49225e-25)
(0.00373239 -0.000186752 -1.20176e-22)
(-0.0480454 -0.0723375 -9.42664e-22)
(0.00242343 -0.00178102 0)
(-0.00609224 -0.00217399 0)
(0.0254537 -0.0193139 3.77402e-22)
(-0.00523174 -0.00219237 -1.45626e-21)
(0.012456 -0.0249206 -5.14143e-21)
(-0.0142404 -0.00180355 1.20053e-21)
(0.000369386 -4.2828e-05 -1.98225e-22)
(-0.032414 0.156054 1.20784e-21)
(-0.0166777 -0.0381992 -4.51519e-23)
(-0.00168883 0.00372933 0)
(0.0027091 -0.000282149 3.00087e-22)
(-0.000242715 0.000307408 -2.56472e-22)
(-0.00667636 -0.000511874 2.28522e-22)
(-0.00110859 -0.00535114 0)
(-8.81937e-05 0.000153168 7.64327e-22)
(0.00244132 -0.00152948 1.13347e-21)
(-0.00210016 0.000290745 0)
(-0.10736 0.284396 2.13819e-20)
(0.0365779 0.0258453 2.95138e-21)
(-0.0194348 -0.068797 1.33868e-20)
(3.43354e-05 0.00023026 2.09294e-22)
(0.082227 -0.0276578 3.53962e-21)
(0.00424338 -0.000470904 8.62131e-22)
(0.0016125 0.00126297 -7.52734e-22)
(-0.0175758 -0.0188363 -8.4204e-22)
(4.75089e-05 -0.000258849 -3.4858e-22)
(-0.0163396 0.0871252 1.03576e-20)
(0.000983161 -0.00241664 1.18803e-21)
(0.0016736 0.0122306 0)
(-0.0300312 0.0110265 3.69048e-21)
(3.08567e-06 -1.18776e-05 0)
(-0.0240446 -0.019423 -2.70667e-21)
(0.0080108 -0.00414196 0)
(-0.00548634 -0.000496645 3.15999e-22)
(0.000717973 0.00185276 0)
(-0.00893051 0.0441861 1.2363e-21)
(0.0237023 -0.0344318 0)
(0.0474204 -0.045414 4.86628e-22)
(0.00681123 -0.00237461 0)
(-0.00944289 -0.0210482 -5.02535e-23)
(4.21673e-05 -3.98917e-05 0)
(-0.0546903 0.0758001 5.06445e-21)
(-0.000550621 0.00128508 -3.59201e-22)
(-0.00112139 -0.00136008 2.45849e-22)
(-0.000947831 -0.000113645 -5.04262e-22)
(0.000874281 -0.00169864 1.39368e-21)
(-0.0758094 -0.00563656 -1.22923e-20)
(-7.00571e-05 -9.53823e-06 3.21437e-22)
(0.00425098 -0.00228428 -2.99346e-21)
(0.00237136 -0.0029113 -2.81268e-21)
(-0.0568865 0.0112301 0)
(-0.000131174 -0.00158509 -2.80796e-22)
(0.0240864 -0.00949348 0)
(0.0181085 -0.0809939 -1.52457e-21)
(-5.86182e-05 0.000144967 0)
(0.00361789 0.000688798 0)
(0.000877561 0.00119099 6.99564e-22)
(-0.00806042 0.00312034 0)
(-0.0106384 0.0176099 3.95196e-22)
(-0.024027 0.00336391 -1.51358e-21)
(-0.000606302 -0.000226459 0)
(-0.000220413 0.00031594 5.01281e-23)
(0.0232597 0.0150608 -3.62079e-22)
(8.87244e-05 6.53428e-05 1.84003e-22)
(0.00864481 0.00420737 0)
(0.00422294 0.00362259 -8.07362e-22)
(0.000467494 -0.00577445 0)
(0.00173053 0.00685032 -1.06093e-22)
(-0.00220792 -0.00311928 -1.21614e-22)
(5.78509e-05 5.78626e-06 0)
(-0.0567849 -0.0511666 1.95021e-20)
(0.00283938 -0.00322692 1.35635e-22)
(0.000996583 -0.00191022 2.03626e-21)
(-5.67979e-05 0.000117776 7.57828e-22)
(0.0019994 -0.00580123 9.92075e-22)
(-0.000963623 0.00922388 1.76312e-21)
(0.0114584 -0.00210846 -1.29222e-21)
(0.00373385 -0.0013151 0)
(-0.0779505 0.095581 -7.66415e-21)
(6.67758e-05 -0.00163289 1.12093e-21)
(0.0152016 0.0100317 0)
(-0.00606746 -0.0126832 -2.76635e-22)
(-0.000755535 0.00098223 0)
(-0.00520072 0.000139299 1.45222e-22)
(0.000324774 -0.00176237 0)
(0.000952455 -0.0022227 6.38902e-22)
(0.0400314 -0.0619611 0)
(5.22316e-05 2.16396e-06 0)
(0.000402466 0.000591804 -1.00176e-21)
(-0.0462796 0.0111494 9.483e-21)
(-0.000621913 0.00109013 -2.2682e-22)
(-0.000997343 0.00119108 0)
(0.0034285 0.00122355 0)