/*--------------------------------*- C++ -*----------------------------------*\
| =========                 |                                                 |
| \\      /  F ield         | OpenFOAM: The Open Source CFD Toolbox           |
|  \\    /   O peration     | Version:  v2012                                 |
|   \\  /    A nd           | Website:  www.openfoam.com                      |
|    \\/     M anipulation  |                                                 |
\*---------------------------------------------------------------------------*/
FoamFile
{
    version     2.0;
    format      ascii;
    class       volScalarField;
    location    "300";
    object      k_0;
}
// * * * * * * * * * * * * * * * * * * * * * * * * * * * * * * * * * * * * * //

dimensions      [0 2 -2 0 0 0 0];


internalField   nonuniform List<scalar> 
13726
(
0.000148978
0.000156633
0.0109317
0.0107984
0.000147353
0.0514729
0.000221279
0.000168208
0.000157583
0.0168694
0.000149224
0.0354903
0.000203368
0.000166308
0.000182071
0.000155718
0.000179281
0.0524691
0.000133818
0.000150672
0.000164088
0.00014865
0.000146899
0.000183124
0.000181472
0.0177897
0.000150935
0.000151
0.000168517
0.000162911
0.000167823
0.000153306
0.0302307
0.000168922
0.000162351
0.000185586
0.000147434
0.000148442
0.000157441
0.052863
0.000162578
0.000157321
0.000171267
0.000147703
0.000150333
0.000146856
0.000156451
0.000184172
0.000155681
0.000158049
0.000175118
0.000192203
0.000168074
0.000149066
0.000163744
0.000147728
0.000148485
0.00014863
0.000147562
0.000148688
0.000147007
0.000146341
0.000154371
0.000179597
0.000164677
0.000146859
0.000149314
0.000156847
0.000168655
0.000155646
0.000148519
0.00970729
0.000158177
0.000178938
0.000164217
0.000156231
0.000146804
0.0614726
0.000184274
0.000182903
0.0617617
0.0236673
0.000149655
0.000148129
0.000168112
0.000100821
0.000156609
0.0312887
0.000193996
0.000156965
0.000152581
0.000148905
0.000148666
0.000148828
0.000149592
0.000198282
0.000149011
0.000162314
0.000192147
0.000256698
0.000154327
0.0222626
0.0001681
0.000148133
0.000157617
0.000156943
0.0474773
0.000148796
0.000146054
0.000155856
0.000148355
0.000150471
0.00014861
0.000166195
0.000150692
0.000181021
0.000149077
0.0122041
0.000153243
0.000220414
0.000163456
0.000232593
0.000175738
0.000164213
0.000147458
0.000147858
0.000150385
0.0101974
0.000149763
0.0614675
0.0001484
0.000191374
0.000148398
0.000157082
0.000163917
0.000148406
0.000174764
0.000150276
0.000147208
0.000154666
0.000148235
0.000147752
0.000193961
0.000148079
0.000137859
0.00014761
0.000175599
0.000162308
0.000164379
0.000154211
0.000172923
0.000148655
0.000164982
0.000197757
0.000147699
0.000160382
0.000159875
0.000148534
0.000164908
0.0205269
0.000157189
0.000153668
0.000236438
0.0158384
0.000157771
0.000150184
0.000146485
0.000147628
0.000160081
0.00014732
0.000148091
0.000163641
0.000158162
0.000162927
0.00015701
0.000151837
0.0445368
0.001115
0.000149043
0.010444
0.000162041
0.000172395
0.0148726
0.0129069
0.0113951
0.000158089
0.0412799
0.000152611
0.0188845
0.000147666
0.000169838
0.000148511
0.000147194
0.000148604
0.0464754
0.00016016
0.000154291
0.0254765
0.000147881
0.000156443
0.00015618
0.000148348
0.000146788
0.000152691
0.000148582
0.000152684
0.000185491
0.000235657
0.000147786
0.0410715
0.000147613
0.0120864
0.000158082
0.00014819
0.000148405
0.000129663
0.000172873
0.000148157
0.000203021
0.000202564
0.000146588
0.000148106
0.000164198
0.000150731
0.0192167
0.000151554
0.000148402
0.000221693
0.00014719
0.000169963
0.0149989
0.0152174
0.0236215
0.0197817
0.000159656
0.00544756
0.00014964
0.000158245
0.000147695
0.0380352
0.000149752
0.000165972
0.000149722
0.000183017
0.0259069
0.000166212
0.000172652
0.000147696
0.000174429
0.000150423
0.000179428
0.0238258
0.000148168
0.000157246
0.000148485
0.000863963
0.000147329
0.000169357
0.0129219
0.000147814
0.0131265
0.00014761
0.000148857
0.000148042
0.000148377
0.0216659
0.000151371
0.000165874
0.000167658
0.000181036
0.00016772
0.000149783
0.000180083
0.000187143
0.000174964
0.000150177
0.000164313
0.000153901
0.000186046
0.000158994
0.000147704
0.000148282
0.00016454
0.000184007
0.000172245
0.000177552
0.000157952
0.000161628
0.000209493
0.05834
0.000180178
0.000161939
0.0539102
0.000148537
0.000162388
0.0106167
0.000149238
0.000234857
0.000150443
0.0127811
0.000161725
0.0295854
0.000157462
0.0316162
0.000166755
0.000168044
0.000147731
0.000148696
0.000168391
0.000146805
0.000172445
0.000163147
0.049827
0.000157892
0.026867
0.0148145
0.000153021
9.33287e-05
0.000149523
0.0106597
0.00014865
0.000168873
0.0196659
0.000162514
0.000146879
0.000152666
0.0139455
0.029387
0.0286783
0.000147152
0.0001488
0.00015008
0.00887607
0.000147678
0.000160252
0.000173893
0.000148468
0.000163792
0.000159347
0.00880633
0.00014978
0.000147733
0.000175724
0.000194984
0.00016534
0.0226528
0.000146906
0.0225712
0.000148192
0.00014767
0.000148658
0.0155243
0.000153051
0.000148309
0.000149028
0.000162477
0.000170756
0.000175351
0.0207574
0.000147124
0.000168352
0.000168262
0.000156029
0.000174739
0.000148441
0.000148527
5.58112e-05
0.000164163
0.000156624
0.000206144
0.000150689
0.000172906
0.000151172
0.000161597
0.000149755
0.0156791
0.000147243
0.000203314
0.000172872
0.0174525
0.000172813
0.0150522
0.000169478
0.000146913
0.00017876
0.000162447
0.0105583
0.0462536
0.000150787
0.000148544
0.00014869
0.000147138
0.000164841
0.000157131
0.00016198
0.000163259
0.0455292
0.000166815
0.00015836
0.000159882
0.000179234
0.000146528
0.000157835
0.0001525
0.000154036
0.000128342
0.0204302
0.000175738
0.000171913
0.000156525
0.0439343
0.000153109
0.000165529
0.000152338
0.000170322
0.000148337
0.000213513
0.000147127
0.000152661
0.00014755
0.000147093
0.000160703
0.000146655
0.000149658
0.000159074
0.000149461
0.000154928
0.000157532
0.0357095
0.000145693
0.000161754
0.000146328
0.000161451
0.000147259
0.010133
0.000149727
0.000148463
0.000148932
0.0233546
0.0182256
0.000149572
0.000151865
0.000148443
0.00143687
0.000153256
0.000150372
0.000184436
0.0400304
0.00015968
0.000206944
0.00014929
0.000153536
0.00383971
0.000147116
0.00017304
0.000183585
0.000149759
0.000151024
0.00015973
0.000161255
0.000147646
0.000146448
0.000767828
0.000157228
0.00016549
0.019751
0.000148066
0.000184752
0.000147393
0.0189898
0.000148278
0.000145503
0.000187347
0.013359
0.000186082
0.000180912
0.000187387
0.000150374
0.00016093
0.000171003
0.000146539
0.000147525
0.000152377
0.0349621
0.000150093
0.000168458
0.000147089
0.0135611
0.000172105
0.000162599
0.0189012
0.000148984
0.000163866
0.0572993
0.000174181
0.000152777
0.000154592
0.000148333
0.000145455
0.000149967
0.000199062
0.00016469
0.00015644
0.000150127
0.000147637
0.00463764
0.000147319
0.000148305
0.000167977
0.0155456
0.000149708
0.000154255
0.000155413
0.000148521
0.000147714
0.000152257
0.000150627
0.000147627
0.0269632
0.000147699
0.000157993
0.000146535
0.0127713
0.000147642
0.000148515
0.000200212
0.000148697
0.000178295
0.000170318
0.000154878
0.000204663
0.000147872
0.000148139
0.0158212
0.0211028
0.043685
0.0355196
0.000149759
0.000161844
0.00014856
0.000148105
0.000113719
0.0503081
0.000161778
0.000149814
0.000146253
0.00014745
0.000157002
0.000149966
0.00657811
0.000147585
0.000170375
0.000164284
0.000170263
0.000149716
0.00015984
0.000153474
0.0155581
0.000148736
0.000148509
0.000151697
0.0452518
0.000152515
0.000183952
0.000161541
0.0615843
0.000169008
0.000149868
0.000152334
0.023921
0.000163557
0.000174522
0.000149283
0.000160238
0.000170273
0.000170601
0.00868472
0.000147533
0.000146541
0.000148749
0.000145615
0.000148593
0.014182
0.000154448
0.000151551
0.000147894
0.000148992
0.000150617
0.00543977
0.000179294
0.0555217
0.000156778
0.000161446
0.00013739
0.000155632
0.000163778
0.000150293
0.000150786
0.0163143
0.000149106
0.0100638
0.000149117
0.000150266
0.000151521
0.0203362
0.0568564
0.000159996
0.000147672
0.000199757
0.000149781
0.000162821
0.000155388
0.000147849
0.000149345
0.000149647
0.00015099
0.000149599
0.000157358
0.000181686
0.000146464
0.0001486
0.0001573
0.000148685
0.000182837
0.0520987
0.0463576
0.00015803
0.000147715
0.00015029
0.000156748
0.000161699
0.000164395
0.0349094
0.000146222
0.0317139
0.000194427
0.000149719
0.00014558
0.000148059
0.0449042
0.000149885
0.000149443
0.000149641
0.000146808
0.000148569
0.000178124
0.000146429
0.000177812
0.00018791
0.000149115
0.00014722
0.000147651
0.00019878
0.000150987
0.0341666
9.28561e-05
0.000149056
0.000200675
0.0110711
0.00016168
0.000152266
0.000147585
0.000155944
0.000156776
0.000146517
0.0113728
0.0561371
0.000168399
0.000173795
0.000164976
0.0076529
0.000148163
0.0199671
0.000158918
0.000199235
0.000148078
0.000149904
0.000153854
0.00014756
0.000211593
0.000152942
0.000155196
0.000151221
0.000174546
0.000184221
0.000148511
0.000170808
0.0440978
0.0415842
0.000173472
0.000164519
0.00014766
0.0597633
0.000146689
0.00016659
0.000148646
0.000156113
0.000174693
0.000149185
0.000156923
0.00244632
0.000188536
0.000148534
0.000154357
0.000173821
0.000150036
0.000157971
0.0145493
0.000147023
0.000148798
0.0240432
0.000148258
0.000148687
0.000157409
0.0120097
0.000149718
0.000198381
0.000147086
0.000146636
0.000168416
0.000148462
0.000221318
0.0105099
0.000149704
0.000151135
0.000148573
0.000157179
0.000147302
0.000149241
0.000147598
0.000200859
0.000150465
0.000150359
0.000164279
0.0528795
0.000231122
0.000149024
0.000150587
0.000163054
0.000172227
0.0306116
0.000169235
0.000166974
0.000154062
0.0454218
0.00024073
0.000179808
0.000163905
0.000147927
0.015602
0.000149211
0.000149579
0.000148704
0.000146437
0.000146801
0.0246509
0.00016673
0.000149944
0.000146557
0.000145749
0.000151525
0.000150039
0.00326939
0.00014881
0.000153891
0.000149958
0.000148086
0.000147848
0.00537049
0.000145489
0.000193397
0.000162207
0.000146733
0.000148722
0.000148713
0.000149002
0.000164762
0.0604832
0.000163519
0.000193051
0.000166263
0.000174476
0.000157536
0.000147632
0.0010041
0.000166053
0.000156155
0.000147476
0.000156143
0.000119512
0.0350924
0.000148781
0.000149503
0.0468107
0.000155594
0.000173671
0.000158774
0.000195849
0.000154482
0.000149797
0.000154593
0.000206509
0.000148538
0.000149742
0.000173176
0.000161087
0.000147984
0.000172442
0.000149586
0.000149638
0.000161037
0.000179789
0.00015045
0.0167033
0.000160962
0.000147837
0.000150347
0.000161379
0.000147946
0.000148852
0.000148386
0.000148218
0.000203596
0.000149785
0.000146944
0.000176166
0.000186119
0.000159338
0.000150063
0.0331104
0.000147508
0.00017266
0.000148213
0.000146827
0.000147519
0.000149742
0.000148507
0.000173727
0.000146788
0.000149086
0.000154409
0.043983
0.000174236
0.000188327
0.00015398
0.000146491
0.000149273
7.65198e-05
0.000158818
0.000148173
0.00015272
0.000162913
0.0085359
0.000184198
0.000187245
0.000155861
0.000149771
0.000148546
0.000459987
0.00825152
0.000150229
0.000147562
0.000145407
0.000177884
0.000162622
0.000146401
0.000145405
0.00793039
0.000174522
0.00016779
0.0001482
0.000151118
0.0236521
0.000148686
0.000236629
0.000149006
0.000147854
0.00015315
0.00014879
0.000149739
0.000154147
0.000148978
0.000148157
0.0104445
0.0239089
0.000148139
0.000162565
0.000148202
0.000151705
0.000179559
0.000173474
0.0486233
0.00014668
0.000148721
0.000146764
0.000145531
0.000147374
0.000146251
0.000151045
0.000148187
0.0411908
0.0128172
0.000148695
0.000161499
0.000152554
0.000154935
0.00014922
0.000154155
0.000146966
0.0217564
0.000148147
0.000149941
0.000151309
0.000160834
0.000145168
0.0200757
0.0213385
0.000146831
0.000175644
0.000148766
0.000149033
0.00014847
0.0144195
0.000145146
0.000190445
0.000147284
0.000149805
0.000157648
0.000148901
0.000147349
0.0001481
0.000148892
0.0254632
0.000160629
0.00015105
0.000149883
0.000165931
0.000148283
0.000158162
0.0151234
0.000149729
0.00016531
0.00014657
0.00222414
0.000148588
0.0128889
0.0162235
0.000149128
0.000151879
0.000152992
0.000156144
0.000148483
0.000146842
0.000155093
0.000149414
0.000149575
0.000146809
0.000148477
0.00015431
0.000155664
0.00014748
0.000149503
0.000157146
0.000159738
0.000147439
0.000149314
0.0532303
0.000145516
0.000148121
0.000146627
0.000155747
0.000159529
0.00876328
0.000149641
0.0116359
0.000148046
0.000184697
0.012144
0.000145123
0.000173552
0.000147385
0.000147865
0.000163619
0.000154381
0.000146633
0.000173138
0.000149748
0.000149658
0.000156834
0.000149262
0.000162462
0.000149453
0.000164221
0.0100034
0.000211661
0.000147282
0.000148718
0.000148632
0.000147254
0.000149609
0.0431058
0.0156535
7.44549e-05
0.000146497
0.000294596
0.000151883
0.000169431
0.000185926
0.000174062
0.000147625
0.000149379
0.000148656
0.000301376
0.000151112
0.000162046
0.000176161
0.000151236
0.000146157
0.00016874
0.0113476
0.0400517
0.00113752
0.000149062
0.000145408
0.000169555
0.0575837
0.000148651
0.0088592
0.000154725
0.000229753
0.000150766
0.000179495
0.000147636
0.015748
0.000156351
0.000156458
0.010322
0.000147444
0.0123408
0.000147408
0.000155944
0.000194215
0.00486806
0.000162001
0.000147479
0.000164476
0.000147156
0.000184913
0.000161697
0.000155031
0.000150558
0.000150248
0.000150979
0.000147691
0.000146698
0.000205765
0.000147645
0.0491368
0.000149501
0.000160378
0.000163284
0.000153208
0.000156498
0.000179526
0.00015357
0.0199884
0.000151153
0.000169641
0.000203431
0.000204958
0.000196743
0.000154151
0.000165866
0.000214079
0.013043
0.000147336
0.00967936
0.0321249
0.000236993
0.000173171
0.000148179
0.0145944
0.00257915
0.00014755
0.000148499
0.00014744
0.000147924
0.000148865
0.000146657
0.000148112
0.000151091
0.000120841
0.000153352
0.000172727
0.000172945
0.000154431
0.000150434
0.000149649
0.000175659
0.000175473
0.000164194
0.000146765
0.000154454
0.000149777
0.000148625
0.000155545
0.0252943
0.000166695
0.0184541
0.0138594
0.000162559
0.000148058
0.00015328
0.00017342
0.000160811
0.000156143
0.000147677
0.000149727
0.000147417
0.000153156
0.000147261
0.00017151
0.000146455
0.000169172
0.000166499
0.000158601
0.000159543
0.000148178
0.000147494
0.00016063
0.030838
0.000161604
0.00014741
0.000153606
0.0550387
0.000148205
0.000148407
0.000150682
0.00696857
0.000146144
0.00017433
0.000146216
0.000147459
0.000263981
0.000215001
0.0323948
0.0345839
0.000146104
0.000147116
0.000148067
0.000150656
0.000148731
0.000169136
0.000167837
0.000161363
0.000148601
0.000146241
0.00729085
0.0103379
0.000152332
0.000208183
0.000148894
0.000147194
0.000148016
0.000154735
0.000169153
0.0145709
0.051329
0.000147917
0.000149829
0.00010739
0.00014788
0.000163378
0.000171531
0.000151308
0.000147599
0.000145376
0.000148978
0.000173022
0.000147836
0.000149045
0.000207434
0.000172667
0.0543566
0.004745
0.000149587
0.000173585
0.000203453
0.000188098
0.000146807
0.000146502
0.000193004
0.0153223
0.000148624
0.000149308
0.000148632
0.00014996
0.000147967
0.000173601
0.000149758
0.000145109
0.000169887
0.000166475
0.0204005
0.00014941
0.000149937
0.0119042
0.000151012
0.000235388
0.0145304
0.0133355
0.000189193
0.000149781
0.000174104
0.000146007
0.000148273
0.000148923
0.0119266
0.000158365
0.000145425
0.000153994
0.000148798
0.000148049
0.0501565
0.00014865
0.00015723
0.000169627
0.000158154
0.000168948
0.000154644
0.000180777
0.000155786
0.000146486
0.0140048
0.0619984
0.000151005
0.000151167
0.000164594
0.000159261
0.000149356
0.000148626
0.000146523
0.000147793
0.000157381
0.000148942
0.000115463
0.000155883
0.000149622
0.000187206
0.000150846
0.000148074
0.000147947
0.000148969
0.000180498
0.00014902
0.000147641
0.0281623
0.000157578
0.000148677
0.00962915
0.00015721
0.0255535
0.000185061
0.000186116
0.0115999
0.000148264
0.0381267
0.000149201
0.000149078
0.000150024
0.000148441
0.016384
0.000157962
0.000147902
0.00015121
0.000166231
0.000147253
0.0485318
0.000149763
0.000166409
0.000152931
0.000151365
0.000147409
0.000158103
0.000168418
0.000155558
0.0258689
0.0221594
0.0140134
0.00019703
0.000154557
0.000199876
0.000170298
0.000148857
0.000173399
0.000149852
0.000146576
0.000227832
0.000272255
0.0150704
0.000148648
0.000148173
0.000216197
0.000226825
0.000168385
0.00015179
0.000150808
0.000161916
0.000159943
0.000151225
0.000148316
0.0141057
0.000171417
0.000178983
0.000148634
0.000147534
0.000179737
0.000166091
0.000171374
0.000152134
0.000156894
0.000160527
0.00015373
0.000154275
0.000202193
0.000149133
0.000166931
0.000149252
0.000147953
0.000169449
0.000157919
0.000148149
0.000189611
0.0629139
0.000148923
0.00017642
0.000160696
0.0156841
0.000149948
0.000178478
0.00015692
0.000149096
0.000171487
0.000140112
0.000158643
0.00014657
0.000158682
0.000175366
0.000162745
0.000176964
0.000150296
0.000177454
0.000156412
0.0408256
0.00498983
0.0001949
0.000165149
0.000371303
0.000156821
0.027775
0.000148196
0.000148981
0.0439065
0.0128132
0.000148821
0.000149766
0.000182707
0.000161145
0.000175808
0.000161766
0.000146437
0.0297742
0.00015241
0.0508977
0.00335152
0.000152982
0.000194
0.000166122
0.000155553
0.000148211
0.000155811
0.0179546
0.000149069
0.000148301
0.00798353
0.000185328
0.00019358
0.000147248
0.0181975
0.000161768
0.000157494
0.000147547
0.000159959
0.000173432
0.0152467
0.000147201
0.000187263
0.000191069
0.000148576
0.000156612
0.000147153
0.0339969
0.000168852
0.0048458
0.000171873
0.000165837
0.000149141
0.000160119
0.000149884
0.00015805
0.000151147
0.000162885
0.000161897
0.000152031
0.000177526
0.0100329
0.000148064
0.00015034
0.000189567
0.000148881
0.00521041
0.000146682
0.0388475
0.00051297
0.000171533
0.000183846
0.000187321
0.000147357
0.000159908
0.0519276
0.000148738
0.000193246
0.0514355
0.000149213
0.000157732
0.000152503
0.018282
0.000199492
0.000148891
0.000148719
0.000159367
0.00018825
0.000148155
0.000162785
0.0423786
0.000149402
0.0354703
0.0137581
0.0505963
0.000163276
0.00541817
0.000163953
0.000150572
0.0258974
0.00014991
0.0222806
0.000168991
0.0457342
0.0441135
0.00014657
0.00020007
0.000147099
0.0265371
0.000163409
0.0251198
0.000150556
0.0376755
0.000153186
0.0226566
0.000182288
0.000161045
0.000149036
0.0140368
0.000167077
0.000178649
0.0124655
0.0001542
0.000154318
0.000180331
0.000407381
0.000147453
0.000165018
0.00014633
0.0288159
0.000146114
0.000147729
0.061267
0.000145101
0.000162766
0.000154832
0.000162848
0.000172426
0.000148108
0.000148882
0.00015078
0.000180702
0.000198754
0.000151364
0.00014871
0.000148957
0.000149266
0.000166279
0.00015861
0.000148893
0.000308119
0.000159623
0.000148366
0.000163896
0.039812
0.000146665
0.000146677
0.000147946
0.000148889
0.000151757
0.000151161
0.000151787
0.0322166
0.000183097
0.000147798
0.000162922
0.000147396
0.000168958
0.000203108
0.00873633
0.000165739
0.000147327
0.000149176
0.0316621
0.000149095
0.000149245
0.000191159
0.000210029
0.000147983
0.0130964
0.000175687
0.0276126
0.0223226
0.000191417
0.000146687
0.023393
0.000153797
0.000154554
0.000148213
0.000146205
0.0367781
0.000184031
0.000148375
0.000174873
0.000177734
0.000148488
0.00017515
0.0114062
0.000190115
0.000166857
0.000154476
0.000148802
0.000152517
0.000148094
0.000152471
0.000175322
0.000148986
0.000148085
0.0416893
0.0273232
0.000160431
0.000150777
0.000162535
0.000156311
0.000328024
0.000154502
0.000151152
0.0186987
0.000170681
0.00017281
0.000173832
0.000196261
0.000164809
0.000149462
0.000156306
0.000211102
0.000163338
0.000146362
0.0204784
0.000149061
0.00016072
0.000794252
0.0144654
0.000700348
0.000148087
0.000165251
0.0335028
0.000151537
0.000187992
0.000163448
0.000190143
0.0540217
0.0246487
0.0258262
0.000147932
0.0199328
0.0108486
0.000192883
0.000160345
0.000154249
0.000147558
0.000146982
0.0131879
0.0185433
0.00020289
0.000153633
0.000162274
0.000165581
0.000150454
0.0249106
0.000155421
0.00750627
0.0474604
0.000160536
0.000165103
0.0154225
0.000180203
0.000228341
0.000149864
0.000147374
0.000163628
0.000148009
0.000155991
0.000148101
0.000148524
0.000149986
0.046698
0.000180963
0.000165466
0.000178982
0.00016737
0.000146745
0.000168295
0.000147817
0.000147449
0.000160167
0.0158004
0.0413
0.000148479
0.000148922
0.0200545
0.000149288
0.000156873
0.0317135
0.000149774
0.0211695
0.000177841
0.000149775
0.0540076
0.000158379
0.000149885
0.00018749
0.00553478
0.00015637
0.000148654
0.00993157
0.000148846
0.0123112
0.000185814
0.000198893
0.000169184
0.000148663
0.000163813
0.00015418
0.000149803
0.000165542
0.000148633
0.000167349
0.000155921
0.0612035
0.000146232
0.000150519
0.015381
0.000188441
0.02729
0.000174087
0.000146773
0.000151949
0.000156534
0.000201884
0.000138929
0.000146885
0.000194222
0.0489195
0.020329
0.00016408
0.000148981
0.000152933
0.00992043
0.00929918
0.000149642
0.000148348
0.000153156
0.00015255
0.000150852
0.000163809
0.000146892
0.00014787
0.000149728
0.000165862
0.000165685
0.000179416
0.000173761
0.00015614
0.000168913
0.00427227
0.000168401
0.000148075
0.000210469
0.00439751
0.000202864
0.000160032
0.000147842
0.000186471
0.00758404
0.000185694
0.000147907
0.000157362
0.000156292
0.0108653
0.017696
0.00657939
0.000155221
0.033945
0.00014732
0.000146139
0.000167936
0.000167577
0.00015449
0.0546936
0.000158675
0.000149209
0.000164558
0.000187647
0.000171775
0.000150255
0.000172278
0.000153606
0.000164656
0.000148559
0.000149902
0.0292776
0.000183516
0.00656227
0.000148541
0.000168486
0.000160595
0.000146305
0.000148251
0.000191199
0.000183447
0.00903151
0.00645056
0.000145029
0.00014919
0.000145249
0.000161311
0.000199981
0.0391909
0.000147243
0.000148549
0.000152459
0.000159258
0.00758808
0.00191606
0.000167038
0.000148042
0.000156181
0.000184944
0.0454759
0.000165266
0.008322
0.00744844
0.000165996
0.000154345
0.000148679
0.000155496
0.00610319
0.000185581
0.000149898
0.000148121
0.0284098
0.00018481
0.000147535
0.0253153
0.00752591
9.54926e-05
0.000148473
0.000153309
0.0579861
0.00517303
0.0295859
0.014221
0.000148096
0.000152861
0.00015817
0.000157882
0.000192782
0.000148613
0.000166309
0.000146745
0.000162781
0.0485087
0.000148023
0.000150532
0.00449392
0.00436395
0.00475267
0.000148459
0.000185353
0.000193039
0.0303089
0.000149801
0.000470446
0.0267776
0.0254355
0.0001657
0.000149771
0.000148765
0.0234112
0.000148794
0.0252416
0.000156577
0.000152195
0.00473413
0.000155069
0.000179362
0.00436664
0.000176681
0.000149629
0.000178384
0.000157801
0.000209912
0.000166228
0.000148427
0.000171901
0.000156923
0.000149582
0.00016645
0.0104505
0.000148741
0.000145813
0.000151499
0.0242831
0.000230139
0.0218295
0.041342
0.000186895
0.00614056
0.000149249
0.00014617
0.000172659
0.000148033
0.000261532
0.000149795
0.000147921
0.000156257
0.0204488
0.00015863
0.0117202
0.000147952
0.000177531
0.000166957
0.000147747
0.000152229
0.000152382
0.000189803
0.0453882
0.0307378
0.000156483
0.0224299
0.00017094
0.0266971
0.00016549
0.000155683
0.000163256
0.0297541
0.000161349
0.000175599
0.000148476
0.000165043
0.000148529
0.000156929
0.00016054
0.0055319
0.000186457
0.00353097
0.000160456
0.000166566
0.0159983
0.000158553
0.0483793
0.000158552
0.000157525
0.000198297
0.00296908
0.000156511
0.0119792
0.030984
0.0254523
0.000149059
0.000155984
0.000148605
0.000164191
0.000147436
0.000148523
0.000146233
0.0150439
0.0256677
0.00015442
0.000186859
0.000149799
0.00014806
0.000177462
0.000154861
0.000158414
0.000153228
0.000148781
0.000178433
0.0433606
0.0245793
0.000147855
0.000158665
0.000161046
0.000147996
0.0131696
0.0333255
0.000152597
0.0427633
0.0261412
0.000175401
0.000148079
0.000150969
0.000148006
0.000153212
0.000145786
0.000160099
0.000147625
0.000168965
0.000187804
0.000146357
0.016042
0.00014895
0.0286529
0.00968786
0.000161032
0.000155355
0.0277146
0.000149474
0.000148494
0.000148056
0.000167229
0.000147194
0.000148424
0.000156229
0.000152119
0.0120531
0.000147976
0.00142461
0.000157774
0.000148364
0.00016372
0.000157738
0.00357583
0.000173431
0.000147863
0.000153024
0.000149047
0.0164874
0.000154821
0.0001678
0.000169931
0.000148813
0.045067
0.000167597
0.000162279
0.000146301
0.0001474
0.00746415
0.000160296
0.000158704
0.000155617
0.000153496
0.000150974
0.0282733
0.0201333
0.000150074
0.000150512
0.000148247
0.000157587
0.000157366
0.000149738
0.000198299
0.000160749
0.0307313
0.000159902
0.000159877
0.000156075
0.000154865
0.000148809
0.000152933
0.000162129
0.000205807
0.000185506
0.0439204
0.000157931
0.00017956
0.000150138
0.000179675
0.000161007
0.000151707
0.00016786
0.000160897
0.00014836
0.00014571
0.000154702
0.000190669
0.00386523
0.000148728
0.0377741
0.00122852
0.000163707
0.000148788
0.000149896
0.0147863
0.000146768
0.000149104
0.000153143
0.000208616
0.00765329
0.000150442
0.000160352
0.0265715
0.0179181
0.000148021
0.0224003
0.0161435
0.000213405
0.000147549
0.000152794
0.00014873
0.000169349
0.000164289
0.0556414
0.00016151
0.000162995
0.000165303
0.0192668
0.00513603
0.000162228
0.0475872
0.000221992
0.000177026
0.000148503
0.000164443
0.000226084
0.000179532
0.0160328
0.000149246
0.000149796
0.0151324
0.000156344
0.000148794
0.0225692
0.000161244
0.000148157
0.000204593
0.000177546
0.000151761
0.000177775
0.0338469
0.000152433
0.000148829
0.000160443
0.0122301
0.000160171
0.000148597
0.000150431
0.0140785
0.000174736
0.000161568
0.000172936
0.00017713
0.000145206
0.000167672
0.000150152
0.00628928
0.000146354
0.000150595
0.000150322
0.000225584
0.000146725
0.000321342
0.000175778
0.00286521
0.000147178
0.000202921
0.0128249
0.000148154
0.000152145
0.000164202
0.0204305
0.045625
0.000157154
0.00014867
0.000148552
0.0122524
0.000174577
0.000245457
0.000153775
0.000148943
0.000167381
0.000147814
0.000178538
0.000146891
0.000173724
0.000147054
0.000173969
0.0199172
0.000155065
0.000148618
0.000167444
0.000150631
0.000186875
0.000148092
0.000172401
0.000147799
0.000171749
0.000160428
0.000149339
0.000172026
0.000145013
0.041082
0.00237148
0.0289613
0.000156052
0.00016062
0.000167199
0.000171164
0.000148032
0.014265
0.000145719
0.000189483
0.000155553
0.00015571
0.000186601
0.000150439
0.000155921
0.000160366
0.000150933
0.000155069
0.00607571
0.000159722
0.000187908
0.000166611
0.000149749
0.000186457
0.000155921
0.000149724
0.000149807
0.000150252
0.00015565
0.000152854
0.0168226
0.000148615
0.0322693
0.0237741
0.000166663
0.000147551
0.000148046
0.000167198
0.0533712
0.000146428
0.00016726
0.0391653
0.00017219
0.000161655
0.000159888
0.0135196
0.000196901
0.000156741
0.000149027
0.00016382
0.000148131
0.000148889
0.000163138
0.00040905
0.000184042
0.000147188
0.000176492
0.000159167
0.00014701
0.000167364
0.000152402
0.000160567
0.00014762
0.000150755
0.00015939
0.000147437
0.000157883
0.0116677
0.000150436
0.000148649
0.000159344
0.000164524
0.000148887
0.000149047
0.000161669
0.000184516
0.000152183
0.00439576
0.000165258
0.000162086
0.000147782
0.000147274
0.000173925
0.000149106
0.000151932
0.000153189
0.000147706
0.000171109
0.00498937
0.0175804
0.00806919
0.000189401
0.000162066
0.000536703
0.0335988
0.000146694
0.000147363
0.000208098
0.0058398
0.000145685
0.0287852
6.12406e-05
0.00748719
0.00131861
0.000202181
0.000164338
0.035191
0.00015507
0.000148463
0.000155079
0.0242197
0.000162945
0.000165989
0.000149511
0.000145269
0.00016329
0.000154806
0.000205064
0.000147069
0.000147371
0.000200177
0.000179447
0.00353874
0.000234454
0.000186047
0.000148856
0.000148159
0.00014933
0.00018097
0.000177664
0.000153808
0.000155321
0.028642
0.000149065
0.000204297
0.0273459
0.000148428
0.020666
0.000148455
0.00949578
0.0263327
0.0001578
0.000148441
0.000154531
0.000147798
0.000148612
0.041125
0.000149081
0.000152144
0.000146926
0.000151599
0.0137652
0.00015266
0.000178697
0.000149061
0.0385542
0.000184653
0.000147913
0.000223792
0.0486618
0.0210467
0.000213397
0.0191529
0.000164124
0.0020598
0.000150798
0.000151961
0.00017234
0.00016561
0.00149437
0.00996082
0.000193028
0.000149948
0.000146417
0.00133329
0.000148638
0.000175417
0.000145738
0.00693745
0.000147945
0.00014846
0.000149067
0.000148348
0.0216961
0.00017212
0.0183415
0.000148591
0.000189104
0.000169824
0.00135881
0.000171726
0.00968596
0.000119348
0.000191975
8.62106e-05
0.000169728
0.00023509
0.000181902
0.000169501
0.000168036
0.000194144
0.00121614
0.000146835
0.000164824
0.000187908
0.00169596
0.000186658
0.000148026
0.000147126
0.021906
0.000168757
0.000147153
0.000150312
0.0375957
0.000167207
0.000147842
0.000150773
0.000151991
0.000152861
0.00608098
0.00018671
0.000210076
0.00373312
0.00017595
0.000148551
0.000147857
0.000153013
0.000148473
0.000173062
0.00015035
0.000163245
0.00137786
0.000153642
0.0271722
0.000157736
0.0439388
0.000147674
0.000167471
0.000146221
0.000204839
0.000148791
0.000153445
0.000162726
0.000148335
0.000222615
0.000149799
0.000166683
0.000147144
0.000150857
0.000148543
0.0555589
0.000163059
0.000158206
0.000164746
0.000152461
0.000187372
0.0343994
0.0163388
0.00015001
0.000148492
0.000162891
0.000172829
0.000147125
0.00015635
0.000145464
0.000148802
0.000221929
0.00016502
0.000145295
0.000187565
0.000150635
0.0353197
0.000186746
9.94293e-05
0.000184826
0.000150637
0.000148838
0.000153949
0.000148856
0.000149364
0.000148261
0.0201685
0.000149157
0.000147204
0.000164872
0.000181147
0.000149397
0.0135711
0.00569771
0.000149859
0.000143477
0.05679
0.000164982
0.000148462
0.000226805
0.000162245
0.000147764
0.000147162
0.000187743
0.000146523
0.000145307
0.000163625
0.0001474
0.000150013
0.000148924
0.000248976
0.0166856
0.000165627
0.00288297
0.0313199
0.000149625
0.0423022
0.000146884
0.00448893
0.000156541
0.000164739
0.000178696
0.000147991
0.000148933
0.000180859
0.000165154
0.000152566
0.000219373
0.000154021
9.72823e-05
0.00014689
0.00014869
0.000153462
0.000163696
0.000161063
0.000150522
0.000163838
0.000165705
0.0220149
0.000201076
0.000149613
0.000147399
0.000149048
0.000161085
0.000148891
0.000164536
0.000210341
0.0480193
0.000183053
0.000165683
0.000179205
0.000148387
0.000146226
0.000170261
0.000147105
0.00015683
0.0179633
0.00232021
0.000205574
0.000189736
0.000184059
0.0001842
0.000170777
0.0585707
0.000153482
0.000148018
0.000158707
0.00997671
0.0220901
0.000148283
0.000150266
0.000157489
0.000147947
0.000178576
0.00015517
0.000162471
0.000150154
0.0152976
0.00529954
0.000147279
0.000196002
0.000150398
0.00369117
0.000588749
0.000148739
0.000152125
0.000178805
0.000181849
0.000147886
0.000148088