/*--------------------------------*- C++ -*----------------------------------*\
| =========                 |                                                 |
| \\      /  F ield         | OpenFOAM: The Open Source CFD Toolbox           |
|  \\    /   O peration     | Version:  v2012                                 |
|   \\  /    A nd           | Website:  www.openfoam.com                      |
|    \\/     M anipulation  |                                                 |
\*---------------------------------------------------------------------------*/
FoamFile
{
    version     2.0;
    format      ascii;
    class       volVectorField;
    location    "300";
    object      U;
}
// * * * * * * * * * * * * * * * * * * * * * * * * * * * * * * * * * * * * * //

dimensions      [0 1 -1 0 0 0 0];


internalField   nonuniform List<vector> 
13726
(
(0.999573 0.00291094 -1.2867e-22)
(1.06566 0.0330724 1.30206e-20)
(0.651473 0.0518198 1.65902e-20)
(0.618812 0.0490483 1.30065e-20)
(1.00502 0.00629883 1.76962e-20)
(0.152877 -0.028853 -1.26688e-20)
(1.15646 0.192594 0)
(1.08194 0.041962 6.8507e-21)
(0.904126 0.0649197 -1.0398e-19)
(0.888139 0.0387001 -2.60218e-21)
(1.06013 0.0497416 0)
(-0.0521499 -0.0230439 2.04147e-20)
(1.07364 0.0513035 -1.09207e-20)
(1.06817 0.0500729 -2.23147e-21)
(1.08276 0.0682079 1.00208e-20)
(1.06589 0.0289381 3.55088e-21)
(1.06477 0.0547214 0)
(0.0981409 0.0161061 6.9695e-20)
(1.05972 0.0500425 0)
(0.969316 0.03561 -8.93819e-21)
(0.867602 0.168858 1.72322e-20)
(0.988748 0.0241146 -7.87433e-21)
(1.01494 0.0201446 3.22816e-21)
(1.09855 0.123635 3.25248e-20)
(1.08961 0.067809 -2.29422e-20)
(0.640663 0.044596 0)
(0.992228 0.052644 -2.36224e-20)
(0.994703 0.0515298 1.80776e-20)
(1.07584 0.0482199 1.80752e-20)
(1.03285 0.102288 -3.23343e-21)
(1.08204 0.0413287 -6.59736e-21)
(0.933155 0.0276118 0)
(0.795776 0.00558813 -1.39533e-20)
(1.0636 0.0592944 -3.81106e-21)
(1.06265 0.0505405 0)
(1.08851 0.0702273 5.98829e-21)
(1.00461 0.00614799 -5.00244e-21)
(0.992968 0.000315038 -1.2266e-20)
(0.909802 0.0617783 2.95967e-20)
(0.154562 0.0200955 -6.23385e-20)
(1.03395 0.0942713 8.10753e-22)
(1.06049 0.0429853 0)
(1.08316 0.0472807 1.47706e-20)
(1.00317 0.00654651 -4.97018e-21)
(1.02359 0.0452491 1.37038e-23)
(1.00867 0.0117298 0)
(1.06547 0.0327759 -1.45537e-20)
(1.08437 0.0616818 3.78367e-20)
(1.01763 0.0759827 0)
(1.05012 0.0581367 8.66518e-21)
(1.08843 0.0495259 6.75696e-22)
(1.07325 0.0520894 0)
(1.07613 0.0473724 -2.45731e-20)
(0.999643 0.00263063 1.54926e-20)
(1.06209 0.0533322 0)
(0.998479 0.0119012 0)
(0.993629 -0.000193588 9.89852e-21)
(0.988593 0.0244316 -6.59479e-21)
(1.00005 0.0164404 0)
(0.983831 0.0156483 -2.00239e-20)
(1.0063 0.000756305 8.54979e-21)
(1.02535 0.0152844 2.31305e-22)
(0.988046 0.0746722 -1.00245e-20)
(1.09463 0.121305 0)
(0.889184 0.172526 3.62784e-20)
(1.01476 0.0193329 -3.29959e-21)
(1.00029 0.000211763 -8.68441e-21)
(1.02785 0.0756052 1.1981e-21)
(1.06338 0.0599225 -9.95011e-21)
(1.01683 0.0759549 0)
(0.991329 -0.0014919 0)
(0.638624 0.0511346 -2.20362e-21)
(1.05046 0.0590309 -9.59928e-21)
(1.06547 0.055191 -6.31122e-21)
(1.05921 0.0624734 2.9248e-21)
(1.02835 0.0729618 0)
(1.01273 0.0176926 8.91702e-22)
(0.378196 -0.0237038 -3.87482e-20)
(1.08354 0.064174 0)
(1.09452 0.0907833 0)
(0.264327 -0.0267814 2.30815e-20)
(0.276937 0.010637 -8.65164e-21)
(1.03188 0.0374848 3.30153e-22)
(0.996272 0.00759633 6.60261e-21)
(1.08048 0.0432592 -3.97954e-20)
(1.07468 0.069836 -1.70759e-20)
(1.02897 0.0758381 -1.05202e-21)
(0.786192 0.00403675 0)
(1.09475 0.0616782 -3.69244e-20)
(1.06363 0.0385523 0)
(0.960536 0.0485464 -4.47324e-20)
(0.979939 0.00600818 3.79433e-20)
(1.03582 0.026668 0)
(0.994942 0.0323015 1.53736e-20)
(0.999898 0.000943592 0)
(1.07413 0.06649 0)
(0.978346 0.00556978 -3.55346e-20)
(1.0301 0.0999902 3.85922e-22)
(1.07647 0.0653938 2.94357e-20)
(1.14842 0.0872735 0)
(0.990757 0.0746967 -9.73028e-21)
(0.826896 0.0336546 6.2995e-21)
(1.08136 0.0430728 2.1528e-20)
(0.995955 0.0235892 0)
(1.06057 0.0434944 0)
(1.05316 0.0504267 0)
(0.117601 -0.0273787 -1.8856e-20)
(0.996092 0.0324194 6.07706e-21)
(1.01599 0.00136339 0)
(1.06672 0.0273879 0)
(1.0013 0.00486939 1.44777e-20)
(1.02312 0.0455151 2.61709e-21)
(1.00083 0.00385952 -2.04901e-20)
(1.0675 0.0505424 0)
(0.972121 0.0353517 7.0262e-21)
(1.087 0.077102 2.15098e-20)
(1.00051 0.000269418 -6.80472e-21)
(0.717303 0.0551612 0)
(0.991574 0.0654238 0)
(1.16304 0.208484 0)
(0.872776 0.148834 -3.5278e-20)
(1.14343 0.209909 1.74745e-20)
(1.08911 0.0497321 -1.45076e-20)
(1.05819 0.0636543 5.44307e-21)
(1.00452 0.00577947 0)
(1.00614 0.000868274 -8.64867e-21)
(1.03738 0.0369958 2.75714e-21)
(0.96272 0.0652153 0)
(1.03152 0.03779 -1.51362e-22)
(0.413757 -0.0181579 0)
(1.00127 0.00460816 1.03063e-20)
(1.09549 0.0616474 4.96304e-20)
(0.995354 0.00340455 6.8427e-21)
(1.06502 0.0362926 0)
(1.05869 0.0602734 4.47611e-21)
(1.00132 0.00480449 -1.11284e-20)
(1.06574 0.176546 1.74967e-20)
(1.03646 0.0373311 1.06008e-21)
(1.00517 0.0149269 -2.46292e-22)
(1.04625 0.0503914 6.78251e-21)
(1.02639 0.0293211 -2.2068e-21)
(1.00314 0.0062171 0)
(1.06118 0.0567401 -1.27286e-21)
(0.996042 0.00772251 7.92309e-21)
(1.07694 0.0697369 8.73823e-21)
(1.01882 0.0269499 5.88403e-21)
(1.06613 0.0555463 -1.6989e-20)
(1.06198 0.0514317 9.80356e-21)
(0.893021 0.166826 -5.53393e-20)
(1.06167 0.0279966 -7.30789e-21)
(1.07443 0.0966081 -7.59181e-21)
(1.00085 0.00353931 1.02876e-20)
(1.01016 0.140047 8.02033e-21)
(1.06084 0.0572135 1.67326e-20)
(1.0035 0.00600671 1.01205e-20)
(0.967026 0.117672 1.10739e-20)
(0.89487 0.0968976 4.00919e-20)
(1.03516 0.0258247 6.8866e-22)
(1.01143 0.139424 -2.86263e-21)
(0.830944 0.039042 5.91766e-21)
(1.06433 0.0375448 4.55725e-21)
(0.930687 0.0321493 -3.44009e-20)
(1.0929 0.0400838 -5.34177e-21)
(0.616047 0.0454502 -5.62918e-21)
(1.05603 0.0492841 0)
(1.03997 0.0343319 -3.47918e-21)
(1.01175 0.00962189 0)
(1.00109 0.020063 7.80095e-21)
(1.0181 0.0981341 4.65164e-21)
(1.00514 0.00683427 -1.52152e-20)
(0.992721 0.00827269 0)
(1.04403 0.090197 3.76689e-21)
(1.05909 0.0472503 -9.75753e-21)
(1.06143 0.0528034 6.03152e-21)
(1.06288 0.0396272 -2.25293e-20)
(1.0161 0.056754 0)
(0.0177228 0.002797 7.59749e-20)
(1.13461 0.424277 -7.69663e-20)
(1.00443 0.0387473 0)
(0.962039 0.0649968 0)
(1.02652 0.105363 -6.05234e-22)
(1.07264 0.103885 0)
(0.757155 0.0551883 -1.73273e-20)
(0.732356 0.0558088 0)
(0.59021 0.0463834 -8.50864e-21)
(1.05111 0.0563914 0)
(0.0958933 -0.021618 -2.98413e-20)
(1.03365 0.051642 0)
(0.421544 0.0264606 -1.56913e-21)
(1.00708 0.0251632 2.13066e-20)
(1.06797 0.0530382 -2.02353e-20)
(1.02841 0.0303233 0)
(1.00681 0.0184125 1.62521e-20)
(0.984214 0.00886986 -1.51554e-20)
(0.650936 -0.0116487 -2.8702e-20)
(0.887569 0.104948 -5.2837e-20)
(1.06172 0.0280723 0)
(0.722119 0.0336707 0)
(1.02073 0.0285164 2.80058e-21)
(1.05248 0.0497383 0)
(1.02963 0.0729646 -2.17524e-22)
(1.00147 0.00442368 -6.48977e-21)
(1.01341 0.0179031 -4.12819e-21)
(0.980664 0.0624321 -1.70913e-20)
(0.984249 0.0105774 0)
(0.98227 0.0607222 0)
(1.09553 0.0597778 -6.04151e-21)
(1.14453 0.086411 2.20548e-20)
(1.00054 0.00962925 -1.58251e-20)
(0.718197 -0.00729155 1.77398e-20)
(0.999518 0.0167074 8.52481e-21)
(0.62963 0.0495166 -2.77769e-20)
(1.05607 0.0494939 0)
(1.03823 0.0204317 2.56682e-21)
(1.00067 0.00522219 -1.53391e-20)
(1.07605 0.0696925 -1.77118e-20)
(1.06583 0.0583723 -1.60619e-22)
(1.02663 0.0290067 0)
(1.0644 0.0502895 0)
(1.08149 0.0674451 2.0071e-21)
(1.0257 0.016728 0)
(0.992994 0.00830606 -8.86147e-21)
(1.01065 0.132522 -2.50946e-21)
(1.02562 0.046559 1.84851e-22)
(0.403232 0.0243811 -1.32289e-20)
(1.01557 0.0551202 -2.14768e-21)
(1.03362 0.0257643 0)
(1.09097 0.0391499 2.81537e-20)
(1.00514 0.01504 -1.27922e-21)
(1.05721 0.130493 3.8817e-21)
(0.816356 0.0575908 -4.97846e-21)
(0.917813 0.0303035 1.80302e-20)
(0.840029 0.0178738 1.34034e-22)
(0.866569 0.0281516 -9.8577e-21)
(0.872074 0.067834 4.7103e-20)
(1.12345 0.313154 2.98808e-20)
(1.00009 9.87985e-05 9.0827e-21)
(0.885573 0.0550733 5.59584e-20)
(1.00615 0.0254066 -1.73885e-20)
(0.188314 -0.0112041 -2.05615e-20)
(0.999983 0.000750839 1.03798e-20)
(1.0755 0.0445985 9.83948e-21)
(0.999876 -0.000525496 -4.88514e-22)
(1.09267 0.0931589 0)
(0.792366 0.0235749 -1.78151e-22)
(0.875346 0.196184 4.28367e-20)
(1.06549 0.0577515 0)
(1.00105 0.0103042 -3.88657e-21)
(1.08117 0.0527856 0)
(1.02501 0.0444374 3.29952e-21)
(1.06483 0.0546838 0)
(0.768686 0.0369128 5.58458e-21)
(0.995991 0.00686071 1.27806e-20)
(1.06364 0.0387146 4.19057e-21)
(0.991126 -0.00141131 -1.30094e-21)
(1.18991 0.130983 -3.38625e-22)
(1.00501 0.00740837 0)
(1.06812 0.0526183 1.97696e-20)
(0.603785 0.0470243 0)
(1.0002 0.00975018 1.02389e-20)
(0.770829 0.057133 -4.31003e-20)
(1.00154 0.0109432 9.24564e-21)
(0.996769 0.0334332 -2.30454e-20)
(1.02595 0.0279568 9.61065e-23)
(0.99482 0.00379062 9.4828e-21)
(0.542519 0.0332106 -1.27785e-20)
(1.04805 0.0326134 -1.10193e-20)
(1.07288 0.0467915 8.85853e-21)
(1.04336 0.131416 1.01273e-20)
(1.08632 0.0795459 -2.44059e-20)
(1.04429 0.126836 4.79854e-21)
(0.999903 -0.000327533 -1.48195e-23)
(1.08753 0.0803687 -2.48273e-20)
(1.07606 0.0644793 -8.12248e-25)
(1.06631 0.0552185 1.41442e-20)
(1.03904 0.0351932 -1.38665e-21)
(0.876674 0.170546 3.81291e-20)
(1.04341 0.0500741 0)
(1.09461 0.0596026 0)
(1.01802 0.0900399 4.11376e-21)
(0.999014 0.0123009 0)
(1.03372 0.0254784 0)
(1.0594 0.0617856 -2.88621e-21)
(1.07342 0.056864 0)
(1.06959 0.113964 0)
(1.08772 0.0537156 2.51597e-20)
(0.888561 0.0559268 -4.96369e-23)
(1.05444 0.0647628 7.18894e-21)
(1.0637 0.0502008 -9.78528e-21)
(0.286195 0.0315741 -6.89844e-22)
(1.06626 0.0546819 6.2174e-21)
(1.05867 0.0559762 0)
(0.607744 0.0446346 0)
(1.03435 0.0268329 -1.67046e-21)
(1.0633 0.0501519 7.19195e-22)
(0.662381 0.0519567 0)
(1.00036 0.00023456 4.98169e-21)
(1.07909 0.0444462 0)
(1.03643 0.0376689 0)
(0.585922 0.0443491 1.46867e-21)
(1.06833 0.0443341 -1.47466e-20)
(0.250643 0.0033857 -5.13509e-21)
(1.05666 0.0481512 0)
(0.754871 0.0106938 -7.77229e-21)
(1.04115 0.120175 -9.97827e-21)
(1.07922 0.0446015 -3.49416e-20)
(1.00343 0.00558873 -9.17805e-21)
(0.998699 0.0036666 0)
(1.05837 0.101445 0)
(1.03553 0.0126235 0)
(1.07218 0.107623 0)
(1.04056 0.0939598 0)
(0.593487 -0.0174027 1.42673e-20)
(1.04861 0.059751 -8.36151e-21)
(0.290856 0.0080221 0)
(0.840785 0.0584912 -1.51787e-20)
(1.05563 0.0309525 6.90008e-21)
(1.07562 0.0703874 0)
(0.999847 0.00113593 6.95658e-21)
(0.560347 0.0450023 0)
(0.984761 -0.00112403 -3.52852e-20)
(1.0609 0.0977789 -7.4317e-21)
(0.384363 0.0225035 -5.56956e-21)
(1.05566 0.0657771 9.40646e-21)
(1.00863 0.0109704 0)
(0.961719 0.0507352 3.39491e-20)
(0.794596 0.0573889 1.85574e-20)
(-0.0809514 -0.0207907 -2.77203e-21)
(0.240308 0.00299505 2.86789e-20)
(1.00552 0.0140543 -8.0306e-21)
(0.997892 0.0332391 1.37064e-20)
(1.04066 0.0326057 1.99914e-21)
(0.636944 0.0521027 0)
(1.00138 0.0221211 -2.46521e-22)
(0.961494 0.116271 -9.46855e-21)
(1.08053 0.0523295 -7.51742e-21)
(1.02735 0.0308746 1.45749e-21)
(1.04338 0.0902606 0)
(0.872215 0.0700541 4.64827e-20)
(0.680391 0.0546183 0)
(0.967129 0.00848289 0)
(1.00068 0.0103475 4.38032e-21)
(0.957783 0.310621 2.15337e-20)
(1.07587 0.0659958 1.55686e-20)
(1.07495 0.0443037 9.40261e-21)
(0.846404 0.27142 -9.28901e-20)
(1.00792 0.0100845 -1.4803e-21)
(0.562375 0.0319454 1.52174e-20)
(1.02581 0.0299492 1.46448e-21)
(1.0003 0.0197801 0)
(0.984415 0.0162565 -1.97203e-20)
(0.788427 0.056619 3.05786e-20)
(1.04564 0.0438992 0)
(0.993043 0.0040566 0)
(1.00496 0.0370575 0)
(1.06366 0.0498178 2.31346e-20)
(1.05835 0.131874 0)
(1.06978 0.0446909 1.22119e-20)
(0.441435 0.026055 -1.72767e-21)
(1.01032 0.0207039 7.09638e-21)
(1.07512 0.0482718 7.18934e-21)
(1.08006 0.044372 3.97376e-20)
(1.17925 0.114647 5.74069e-20)
(1.10489 0.129821 4.02074e-20)
(1.00074 0.00492344 1.06369e-20)
(0.985357 0.0111487 -1.06513e-21)
(1.06385 0.0665232 0)
(1.04868 0.0878947 -6.59054e-22)
(0.986208 0.0899138 1.53305e-21)
(1.05993 0.0546193 0)
(0.973613 0.0387739 -2.51034e-22)
(1.06967 0.0545557 1.77619e-20)
(1.04726 0.032602 4.30925e-21)
(1.06746 0.0449261 1.51324e-20)
(0.966943 0.00802176 0)
(0.876678 0.0558054 0)
(1.03627 0.0145574 2.29276e-21)
(1.19418 0.133534 0)
(1.0701 0.0547398 0)
(0.452364 0.0297036 1.65319e-21)
(1.07355 0.101199 -7.30608e-21)
(0.714136 0.053364 1.4396e-20)
(1.0781 0.0478509 1.3751e-20)
(1.00811 0.0106529 0)
(1.06571 0.0549744 0)
(1.06138 0.0526299 -5.39005e-21)
(0.968192 0.0326528 0)
(0.642942 -0.0164755 -6.2132e-21)
(1.02683 0.045961 -1.70943e-21)
(1.001 0.0040117 6.01168e-21)
(0.984599 0.0181531 0)
(1.00553 0.0145446 0)
(0.834512 0.158412 0)
(1.06203 0.0408594 -1.93082e-20)
(1.06353 0.049276 -2.37142e-20)
(0.983441 0.140785 0)
(0.718808 0.00303997 3.59485e-20)
(1.17714 0.168074 0)
(1.05101 0.0567668 0)
(1.07274 0.0349619 1.04183e-21)
(1.10024 0.128993 -4.85715e-20)
(1.03444 0.0117928 0)
(1.05681 0.048395 0)
(1.02512 0.0564199 -1.42073e-21)
(1.04487 0.0486862 0)
(1.17879 0.114452 0)
(0.797796 0.0460187 6.92271e-21)
(1.06748 0.056078 0)
(1.0837 0.0478258 -3.14552e-20)
(1.03623 0.0668098 -2.12141e-21)
(0.440424 -0.00418943 0)
(1.05643 0.0297394 8.48106e-21)
(0.879017 0.186836 -8.63351e-20)
(1.01155 0.0609962 8.21345e-21)
(1.06107 0.124218 1.50222e-20)
(1.00072 0.00561517 1.0428e-20)
(1.07893 0.0451849 0)
(1.00721 0.0180025 -1.11099e-20)
(1.04486 0.0423829 -1.91955e-21)
(1.00258 0.0214652 -3.669e-21)
(1.00827 0.0185918 -1.71821e-21)
(1.06531 0.0453125 9.19497e-21)
(1.03514 0.0117886 0)
(0.999996 0.000916489 1.36668e-20)
(0.86593 0.0585542 0)
(0.983079 0.0303739 -9.66812e-21)
(1.00966 0.0782589 -8.34174e-21)
(0.911883 0.0733156 9.19373e-22)
(-0.018431 -0.0241895 -3.68102e-20)
(1.02247 0.00914126 2.38495e-21)
(0.975357 0.127458 6.83493e-22)
(1.02602 0.0145462 5.23718e-22)
(1.06874 0.043534 2.58252e-20)
(1.01163 0.00136225 -5.0093e-21)
(0.698377 0.0547036 -6.49951e-21)
(0.99992 0.000140902 0)
(0.98823 0.0194091 1.56124e-20)
(0.999422 0.0030029 0)
(0.77775 0.0361895 -6.01232e-21)
(0.437971 0.0279679 -1.59433e-21)
(0.982253 0.0328806 0)
(1.0171 0.0557901 -3.09882e-21)
(0.987694 0.0174368 0)
(1.07454 0.0718427 -2.32033e-20)
(0.988589 0.0659305 0)
(1.03533 0.0387373 1.439e-21)
(1.08462 0.0619058 -1.07847e-20)
(0.214979 -0.0121225 1.46529e-20)
(1.07099 0.0364909 -1.89109e-20)
(1.07422 0.0668989 0)
(1.01557 0.0400886 -8.58147e-22)
(1.20189 0.18967 -2.27949e-21)
(1.11842 0.419032 0)
(1.00779 0.0186904 8.11135e-21)
(1.07244 0.108231 1.92149e-21)
(1.07041 0.0510669 -1.62697e-20)
(1.0212 0.0418218 4.61092e-21)
(1.02855 0.0470741 9.77689e-22)
(1.07182 0.0352712 1.03672e-20)
(1.05816 0.0554217 8.29924e-21)
(0.998691 0.0157281 0)
(1.01197 0.00142616 0)
(1.18763 0.290256 -8.94213e-20)
(0.917183 0.0649057 6.21144e-20)
(0.823656 0.177973 0)
(0.904244 0.0136602 0)
(1.00228 0.00442512 0)
(1.09426 0.0808021 0)
(1.00516 0.001264 0)
(0.469107 0.029972 3.85481e-21)
(0.993106 0.00427542 -3.73643e-21)
(1.02423 0.0084508 9.20507e-22)
(1.07656 0.0639132 -1.34853e-20)
(0.577653 0.0439881 -9.47864e-21)
(1.08948 0.0714887 2.29363e-20)
(1.06828 0.0552877 3.559e-21)
(1.07021 0.0518497 2.22076e-20)
(1.02169 0.0458883 3.14741e-21)
(1.06119 0.0499609 -9.49345e-21)
(1.08219 0.0475424 0)
(1.0285 0.0153173 -5.25145e-23)
(1.00215 0.0115076 -1.52437e-22)
(1.03175 0.0524187 0)
(-0.0289734 -0.0252237 0)
(1.01767 0.0452972 3.70323e-21)
(1.06343 0.0609344 0)
(1.03556 0.014406 0)
(0.966996 0.0165846 0)
(0.867771 0.269664 -1.34414e-20)
(1.07102 0.0440329 0)
(0.673011 0.0457069 7.90702e-21)
(0.998519 0.00146109 1.90368e-20)
(1.04653 0.0873971 -1.67288e-21)
(0.559151 0.0310735 0)
(1.07355 0.120253 2.00352e-20)
(0.987534 0.0623963 0)
(1.05163 0.0439631 1.14797e-20)
(0.994784 0.00390462 4.80262e-21)
(1.02185 0.00696648 -2.71706e-21)
(1.01751 0.0443148 -3.55422e-21)
(1.17245 0.14305 1.07666e-21)
(0.899787 0.176684 3.36281e-20)
(0.988021 0.0850924 8.80479e-21)
(1.03468 0.0373422 -1.17668e-21)
(0.999234 0.0156659 -6.94417e-21)
(1.04722 0.0691078 0)
(1.01323 0.0241273 0)
(1.0385 0.0209956 -3.26452e-21)
(1.07809 0.0455054 1.37001e-20)
(0.551067 0.0409797 1.02316e-20)
(1.03287 0.0368293 6.87727e-22)
(1.06027 0.0304586 5.33505e-21)
(1.01543 0.000380003 3.11017e-21)
(1.00072 0.00449894 1.59281e-21)
(0.998051 0.0125108 -7.25042e-21)
(1.02567 0.0556359 -8.40948e-22)
(1.01659 0.000958888 3.60697e-21)
(1.0014 0.0206111 -8.76527e-21)
(0.262875 0.00553444 -5.46423e-21)
(0.999361 0.011797 0)
(1.04979 0.0594661 9.31006e-21)
(1.02791 0.0158059 -4.30635e-22)
(0.926188 0.0602058 0)
(1.00117 0.011009 -5.00409e-21)
(0.987481 0.0183662 1.7391e-20)
(1.081 0.0663247 0)
(0.981886 0.00666272 0)
(1.06479 0.0547808 6.94519e-21)
(0.870978 0.267834 2.2048e-20)
(0.916828 0.0339864 2.9411e-20)
(1.0601 0.0542596 0)
(1.01957 0.0284347 0)
(1.033 0.0245722 0)
(0.910918 0.02886 4.02332e-22)
(0.422379 0.0242887 1.02725e-20)
(0.0485072 -0.0273834 4.86296e-20)
(-0.0617232 -0.0272153 0)
(1.00007 0.00076066 1.3001e-20)
(1.06882 0.0442267 -3.03194e-20)
(1.00069 0.00441215 8.13565e-22)
(0.995537 0.0079855 0)
(1.06019 0.049424 0)
(0.133998 -0.0293972 0)
(1.06412 0.0484852 5.33715e-21)
(1.00005 0.00048792 -1.1841e-20)
(1.01431 0.00986084 0)
(1.00163 0.0141213 -1.15367e-20)
(1.06496 0.0364686 1.15223e-20)
(0.969407 0.0254605 -1.92103e-20)
(1.02418 0.0686776 -1.95188e-20)
(1.01775 0.0264131 4.01928e-21)
(1.18171 0.153117 2.76558e-20)
(1.06219 0.0536559 6.82788e-21)
(1.06619 0.0537634 -1.18519e-20)
(0.968905 0.01093 -2.6308e-20)
(1.07166 0.0364861 8.63934e-21)
(0.993576 0.0680144 1.37195e-20)
(0.549066 0.039845 -6.1713e-22)
(0.998942 0.00375293 1.13672e-21)
(0.988022 0.0197443 -1.59377e-20)
(1.05548 0.0208003 8.25632e-21)
(0.125057 -0.0241097 1.69759e-21)
(1.01405 0.0615179 -9.19854e-22)
(1.08488 0.0611105 -2.35688e-20)
(0.974624 0.125357 0)
(0.356504 -0.0234346 4.13001e-20)
(1.06366 0.0604417 9.96813e-21)
(1.03708 0.0346774 2.71772e-21)
(1.06297 0.0666218 3.77834e-21)
(0.250898 0.00834131 1.79198e-22)
(1.04164 0.0937256 3.30772e-21)
(0.949716 0.290253 -1.5652e-20)
(1.00712 0.040514 -1.1258e-20)
(1.06493 0.0449042 2.60185e-21)
(1.06594 0.053945 0)
(1.06125 0.12366 -1.6066e-20)
(0.983329 0.0662946 2.15071e-20)
(1.00036 0.014474 -1.3164e-20)
(1.026 0.0166993 0)
(1.00073 0.00318719 1.13594e-20)
(1.02266 0.00881135 -1.05936e-21)
(0.986858 0.0209188 -1.81573e-20)
(0.763388 0.0561 0)
(1.06033 0.0309294 7.72665e-21)
(1.04948 0.0298682 -7.97469e-21)
(0.995134 0.0167289 0)
(1.00064 0.000344191 -1.11748e-20)
(1.02855 0.0443143 4.28672e-22)
(1.14251 0.27452 1.04326e-19)
(1.06608 0.054855 -2.41271e-23)
(0.378679 0.0627252 1.33579e-19)
(1.03734 0.0692775 0)
(1.06946 0.0426205 0)
(1.06152 0.0474901 7.61857e-21)
(1.0335 0.0658132 0)
(1.00356 0.137111 0)
(0.988726 0.0438905 0)
(0.997179 0.0504269 0)
(0.892107 0.040188 5.88989e-21)
(0.999801 0.00252875 2.3542e-22)
(0.971405 0.0653962 0)
(1.00045 0.000222233 1.00233e-20)
(0.98721 0.0434751 0)
(1.0551 0.0201138 -9.20228e-21)
(0.863853 0.0283582 2.96358e-21)
(0.246467 0.0349503 -4.91148e-20)
(1.02491 0.0947666 1.62304e-21)
(0.99974 0.011943 7.24363e-22)
(1.07995 0.0689465 2.67389e-20)
(0.999915 3.41194e-05 2.73398e-20)
(1.0511 0.0760237 -2.27015e-22)
(1.03435 0.0654491 2.51155e-22)
(1.00304 0.00483076 1.27623e-20)
(0.973988 0.0142263 -9.26204e-21)
(0.999892 0.000731916 0)
(1.03895 0.0397449 -2.92444e-21)
(1.00008 0.000860949 -1.12557e-20)
(1.06286 0.0398796 1.68644e-20)
(1.08019 0.0649344 -2.25368e-23)
(1.01153 0.00807732 -1.98097e-21)
(0.983859 0.0103129 -8.76652e-21)
(1.05423 0.0503784 0)
(0.993469 -0.00539545 -2.33408e-20)
(1.08622 0.0672822 1.04033e-20)
(0.625417 -0.00424424 -7.36789e-20)
(0.0204936 0.00668758 0)
(1.05823 0.0480087 -3.16298e-21)
(1.00356 0.00496075 -2.52704e-21)
(1.0414 0.033207 2.3707e-21)
(1.05963 0.0420289 -1.24489e-20)
(1.06484 0.0477533 0)
(1.05616 0.0722089 0)
(-0.0949061 -0.0275051 0)
(1.01482 0.00956421 0)
(0.362191 0.00857355 8.19017e-21)
(1.07497 0.0661044 -1.56981e-20)
(0.968636 0.0108518 2.13775e-20)
(1.02208 0.00829652 -3.19556e-21)
(0.996552 0.0227892 0)
(0.483976 -0.00495945 -5.66907e-21)
(0.999969 -1.53246e-05 1.14034e-20)
(0.97241 0.0141425 4.54082e-22)
(0.999732 -0.00104999 0)
(1.00912 0.0119487 -1.36077e-20)
(0.984489 0.00889513 2.39282e-20)
(1.08721 0.0969749 1.15636e-20)
(1.02727 0.0150923 0)
(1.08868 0.0526585 0)
(1.09773 0.0502619 -1.964e-20)
(0.999727 0.00259636 -2.18073e-20)
(1.00573 0.00755451 -1.29102e-21)
(0.998372 0.0146117 0)
(1.08028 0.0680846 -3.49644e-20)
(0.99728 0.0523749 0)
(0.808316 -0.000941709 -9.1684e-20)
(1.0604 0.0477765 1.49576e-21)
(0.99874 0.00103743 -9.10789e-21)
(1.05961 0.0544354 1.13952e-20)
(0.551402 0.0443972 1.22112e-20)
(1.06939 0.0431491 3.63519e-21)
(1.0492 0.0358962 5.07818e-21)
(1.01687 0.0264582 -4.03107e-21)
(0.965919 0.0835736 1.86941e-20)
(1.02091 0.000271009 0)
(1.01147 0.00891749 -2.14026e-21)
(0.94842 0.06399 0)
(0.539197 -0.0129023 0)
(1.07889 0.0454312 1.42939e-20)
(1.06501 0.168764 1.88098e-20)
(1.07518 0.0435232 -2.05043e-20)
(1.00935 0.0676388 8.25715e-21)
(0.997947 0.00706797 1.21043e-20)
(0.703688 0.0460236 1.28168e-21)
(1.02408 0.088801 0)
(1.08009 0.0668092 1.72638e-20)
(0.995168 0.0075005 0)
(0.96502 0.000361261 0)
(1.06107 0.027269 0)
(1.00174 0.0116026 0)
(1.13953 0.192634 -1.80019e-20)
(1.05466 0.0322577 7.55487e-21)
(1.01285 0.074502 5.77817e-21)
(1.00286 0.0544702 1.07997e-20)
(1.06313 0.174469 -1.57653e-20)
(1.08613 0.0600292 2.07415e-21)
(0.985791 0.0133799 0)
(1.01709 0.205247 2.88194e-23)
(0.128588 -0.0238154 3.08503e-20)
(0.723287 -0.00737531 5.34221e-20)
(1.07073 0.0550673 1.68762e-20)
(0.909676 0.170111 -2.80809e-20)
(0.998465 0.014435 0)
(0.202104 -0.0243937 0)
(1.01015 0.0107037 6.04671e-21)
(1.08253 0.039051 1.24202e-20)
(1.00064 0.00402871 -8.23016e-22)
(1.02048 0.000646731 0)
(1.07253 0.070785 -1.32845e-20)
(0.985634 0.0296239 2.09122e-20)
(0.963439 0.0901744 7.38701e-22)
(1.18176 0.141281 -1.10094e-19)
(1.08317 0.282961 0)
(0.998447 0.0047627 6.57755e-21)
(0.924694 0.0346518 4.49365e-20)
(1.07256 0.0709407 0)
(1.03366 0.0383737 -9.95611e-22)
(1.04722 0.0618862 -4.40177e-22)
(0.784193 0.0564265 0)
(1.00945 0.0184446 -7.99415e-21)
(0.981584 0.00878214 0)
(0.810798 0.0269735 0)
(0.997908 0.00621064 1.97134e-20)
(0.998976 0.00390018 2.15091e-21)
(1.062 0.0412862 1.65463e-20)
(0.93642 0.0482997 5.18727e-21)
(0.999855 4.23207e-05 -2.57026e-20)
(1.06263 0.0613683 0)
(1.01528 0.00154776 -2.20264e-21)
(1.02915 0.0161481 -3.97854e-23)
(1.07678 0.0473146 7.18217e-21)
(0.987366 0.00348259 3.35505e-20)
(1.16308 0.155707 0)
(1.06255 0.30434 -3.31102e-20)
(1.0198 0.0429213 0)
(1.05173 0.0242818 1.15716e-20)
(0.998613 0.00431849 -1.48336e-20)
(1.06124 0.0418865 1.13674e-20)
(1.0095 0.0221632 0)
(1.00618 0.0398187 0)
(1.01798 0.0270388 0)
(1.06032 0.0536891 -1.07442e-20)
(0.961605 0.0181584 0)
(0.961516 0.0136496 0)
(1.07461 0.0428974 0)
(0.0376881 -0.0255584 -1.46768e-19)
(1.17061 0.215349 3.18263e-20)
(0.998718 0.0362606 0)
(0.996108 0.049016 2.05201e-20)
(0.868947 0.139827 -1.68397e-20)
(1.08886 0.0437767 1.30945e-20)
(0.724581 0.0181561 0)
(1.06886 0.0523814 1.4704e-20)
(1.06409 0.0534644 -1.59366e-20)
(1.05273 0.040172 -4.64812e-21)
(-0.0569167 -0.0279735 0)
(1.09199 0.0436691 0)
(1.06536 0.0547835 -9.3337e-21)
(0.982471 0.152175 0)
(1.00276 0.00466049 1.30799e-20)
(0.797841 0.0567517 0)
(0.985137 0.0295323 7.05892e-21)
(1.00011 0.000116025 0)
(0.991178 0.0276105 3.28135e-20)
(1.02526 0.0152945 -3.69934e-22)
(1.00761 0.000897376 0)
(0.804438 0.0274084 6.57333e-21)
(1.06373 0.053652 1.21324e-20)
(0.999991 -1.53515e-05 -1.1602e-20)
(1.02978 0.0150745 2.48439e-22)
(1.01475 0.0019373 2.99617e-22)
(1.01396 0.054689 -8.77134e-21)
(0.963138 0.00318569 0)
(1.06431 0.0700033 1.77224e-21)
(1.04456 0.016417 0)
(1.05262 0.0395433 -9.34137e-21)
(1.038 0.0336502 8.02568e-22)
(1.00233 0.00380607 -1.33959e-21)
(0.996384 0.0195173 0)
(1.01316 0.0621939 -1.76725e-21)
(1.02469 0.00841019 -4.03283e-22)
(1.06129 0.0532181 -1.99272e-20)
(1.06408 0.0488113 0)
(1.00979 0.0106959 0)
(0.999215 0.00394563 0)
(0.981427 0.00687763 0)
(1.00006 0.0364688 1.30411e-20)
(1.05648 0.0730879 -2.56775e-21)
(0.289772 0.0299579 1.13183e-19)
(1.05892 0.0590393 1.60238e-20)
(1.07969 0.065665 -1.65513e-20)
(1.06678 0.0508613 0)
(1.07279 0.0553606 -1.51743e-20)
(1.0397 0.0681513 -2.62751e-21)
(1.00001 0.0190442 8.07618e-21)
(1.19768 0.147779 -1.94851e-20)
(1.0348 0.127503 -3.41232e-21)
(1.05644 0.0436069 -1.22486e-20)
(1.00237 0.0121879 1.56162e-22)
(1.05147 0.0507764 9.57052e-21)
(1.19252 0.182354 0)
(0.414689 0.00746455 0)
(1.00043 0.00358736 -8.33451e-22)
(0.971973 0.0130087 2.87726e-20)
(0.18064 -0.0231496 -3.75029e-20)
(1.02868 0.0694846 -7.26739e-23)
(1.0762 0.0903291 -2.83671e-20)
(0.981977 0.103266 1.87387e-20)
(1.07926 0.0465049 2.68831e-20)
(1.04535 0.0509318 -5.72084e-21)
(1.00006 0.000418567 -8.7991e-21)
(1.0464 0.0496577 -1.11738e-20)
(1.05973 0.0537687 -1.02602e-20)
(0.986362 0.00213747 2.46011e-20)
(0.999947 0.000500482 2.60245e-20)
(1.07534 0.087857 2.44048e-20)
(1.01342 0.105778 -3.00722e-21)
(1.00253 0.00470359 -1.05981e-20)
(0.7656 0.27664 1.12256e-19)
(0.999626 -0.00116596 0)
(0.999831 0.000484273 0)
(1.01464 0.108097 1.99996e-21)
(1.09378 0.113406 0)
(0.975638 0.0362501 -1.52085e-20)
(0.466221 0.0312415 -9.0505e-22)
(1.06051 0.0507955 0)
(0.996366 0.0188746 0)
(1.04088 0.0346405 3.98369e-21)
(1.06157 0.0505843 -2.01503e-20)
(0.995905 0.00993354 0)
(0.997584 8.90246e-05 0)
(0.996347 0.00418848 -1.27212e-20)
(0.992831 0.0204634 -7.44621e-21)
(1.10039 0.0500817 0)
(0.999903 -0.000189207 1.3041e-20)
(1.00931 0.0173929 1.25546e-20)
(1.06701 0.0560325 0)
(1.07146 0.0618722 -1.04273e-20)
(0.866048 0.0543167 5.90168e-20)
(1.03987 0.0335399 0)
(0.662508 0.201216 1.94679e-19)
(1.00088 0.0145891 2.50181e-20)
(1.06518 0.0568999 -5.36571e-21)
(0.999969 0.00685711 0)
(1.03525 0.0127433 1.57326e-21)
(1.00446 0.000799915 0)
(1.00003 9.64773e-05 9.83073e-24)
(0.986516 0.00276683 -2.78102e-20)
(1.075 0.0544587 0)
(1.01695 0.0190061 3.93964e-21)
(1.0159 0.00118849 1.70452e-21)
(0.955577 0.0656058 1.53759e-20)
(0.059928 -0.0265786 2.50066e-20)
(1.07495 0.0543131 0)
(1.06151 0.0581403 -9.81531e-21)
(1.04843 0.0451179 0)
(1.02034 0.0161523 -1.74934e-21)
(1.00132 0.0392537 7.9865e-21)
(1.06322 0.0454162 1.36024e-20)
(0.984546 0.105256 0)
(0.996179 0.00619288 -1.17179e-22)
(0.98527 0.0626834 4.64879e-21)
(1.20182 0.185679 7.87137e-20)
(0.983154 0.0664427 9.89889e-21)
(1.07254 0.0564282 -1.65895e-20)
(1.07113 0.0623685 5.48523e-24)
(0.968413 0.08207 -3.33154e-20)
(0.966667 0.00341774 -2.829e-20)
(0.98531 0.0127595 1.81526e-20)
(1.14048 0.435406 9.96021e-20)
(0.654882 0.0532803 -1.15357e-20)
(0.967274 0.0226633 3.28654e-20)
(1.00436 0.000799096 0)
(1.02483 0.00786795 1.24665e-21)
(1.08894 0.101965 -1.10006e-20)
(1.06254 0.0512372 -8.77543e-21)
(1.0342 0.0112103 0)
(1.02532 0.00773643 -6.4968e-22)
(1.02243 0.0191139 8.09832e-21)
(1.07342 0.055457 -2.23867e-21)
(1.05423 0.105937 -1.64563e-20)
(0.997774 0.00684907 -6.10203e-21)
(1.00141 0.052296 0)
(0.54198 0.0292648 0)
(0.992845 -0.00711297 4.70585e-20)
(1.12942 0.0737842 -3.65195e-20)
(1.03388 0.0303326 -3.93827e-22)
(0.995744 0.015824 -2.43682e-21)
(1.05557 0.0312133 -1.58141e-20)
(0.985674 0.0224067 -3.04993e-20)
(1.00008 0.000767635 1.67725e-20)
(0.955407 0.0649901 -5.34072e-20)
(1.03452 0.0306052 0)
(1.00155 0.0279414 0)
(0.956469 0.0644263 5.65939e-21)
(0.310432 0.0115428 -4.66524e-21)
(0.998373 0.0261043 -1.75943e-22)
(1.04478 0.0840099 4.58912e-21)
(1.00069 0.0283279 7.87114e-21)
(0.949572 0.0236842 5.09464e-22)
(1.07841 0.0474286 -3.14651e-20)
(1.08834 0.0460621 -4.14173e-20)
(0.604075 -0.0181846 0)
(1.01724 0.0174513 2.42295e-21)
(0.982614 0.00957328 0)
(1.01101 0.0155448 0)
(1.02222 0.0079241 3.81454e-21)
(1.00489 0.00707433 5.16723e-21)
(1.03348 0.0109878 -5.02026e-22)
(1.00648 0.0538624 8.19636e-21)
(0.992943 0.0201312 2.27115e-20)
(0.0815753 -0.0210454 0)
(0.550947 0.0421823 1.35807e-20)
(1.00048 0.00404377 8.46892e-22)
(1.06097 0.0516075 9.85234e-21)
(1.03429 0.0516623 0)
(0.913445 0.0236246 0)
(1.01644 0.0397087 1.72055e-22)
(1.04942 0.0448427 -5.72991e-22)
(1.00745 0.00998165 7.39344e-21)
(0.405077 0.0223208 6.94794e-21)
(1.00139 0.00595132 -3.54519e-21)
(0.999993 -6.59253e-05 -2.52207e-23)
(1.04873 0.0297934 1.58439e-20)
(0.970281 0.120595 0)
(1.02964 0.00705965 -5.19581e-22)
(0.364459 0.0210273 0)
(0.831346 0.035534 -1.22517e-20)
(1.01086 0.00139441 0)
(1.0743 0.0561406 -9.76175e-21)
(1.04406 0.0169287 0)
(1.00982 0.0387673 0)
(0.992419 0.000164265 2.10525e-20)
(0.563271 0.0423572 -1.16189e-20)
(1.02775 0.0069605 2.78048e-22)
(1.06244 0.0584151 1.08487e-20)
(1.00547 0.0055957 0)
(1.00002 0.000510641 -1.70706e-20)
(1.05287 0.0536344 -2.74275e-21)
(1.01805 0.00155464 1.66491e-21)
(1.01022 0.00110119 0)
(1.00012 0.00757092 4.36887e-21)
(0.99766 5.23743e-05 -3.19184e-21)
(0.700318 0.0335908 8.45384e-22)
(1.06128 0.0497106 1.47891e-20)
(1.03992 0.0386415 1.10258e-21)
(0.999965 -0.000106185 1.195e-20)
(1.07399 0.0460607 3.1016e-20)
(0.997694 0.00608032 -1.60325e-20)
(1.04854 0.0606048 1.12666e-20)
(0.952822 0.0150156 0)
(0.99988 -0.000349114 -1.26622e-20)
(1.07254 0.0462804 0)
(1.03034 0.0148383 -2.75319e-22)
(1.17567 0.339821 0)
(0.987995 -0.00406144 -1.39977e-21)
(0.921162 0.0604473 -8.46838e-21)
(0.886134 0.0431966 -5.35987e-21)
(1.00984 0.0398791 0)
(0.946781 0.0218308 -5.70145e-20)
(0.928027 0.00452457 3.54087e-20)
(1.03938 0.064619 0)
(0.994099 0.000535571 -4.67766e-22)
(1.01193 0.0173703 -6.67456e-21)
(0.917163 0.0318275 -3.54552e-20)
(1.01571 0.0409782 4.42278e-21)
(1.01682 0.0412566 0)
(1.01186 0.016668 1.51998e-21)
(0.987132 0.0166307 2.2734e-21)
(1.05862 0.0335532 -2.5945e-21)
(1.02979 0.0708348 0)
(1.00115 0.0141032 -1.18787e-20)
(1.00013 0.00127461 -1.23045e-20)
(1.03924 0.0675222 2.28113e-21)
(0.943226 0.108858 -1.46431e-20)
(1.00451 0.00737115 0)
(1.04419 0.0219646 -8.99928e-21)
(0.247704 0.0383518 -6.87743e-20)
(1.02171 0.00718245 6.02661e-22)
(0.998083 0.0267918 -1.20811e-20)
(1.01018 0.00825853 4.5712e-21)
(1.0558 0.0430772 1.67183e-20)
(0.906859 0.0966158 -3.83734e-20)
(0.977748 0.063179 -6.6936e-21)
(0.999915 0.000878334 -6.02972e-21)
(0.701335 0.0551178 0)