/*--------------------------------*- C++ -*----------------------------------*\
| =========                 |                                                 |
| \\      /  F ield         | OpenFOAM: The Open Source CFD Toolbox           |
|  \\    /   O peration     | Version:  v2012                                 |
|   \\  /    A nd           | Website:  www.openfoam.com                      |
|    \\/     M anipulation  |                                                 |
\*---------------------------------------------------------------------------*/
FoamFile
{
    version     2.0;
    format      ascii;
    class       volScalarField;
    location    "400";
    object      ddt0(omega);
}
// * * * * * * * * * * * * * * * * * * * * * * * * * * * * * * * * * * * * * //

dimensions      [0 0 -2 0 0 0 0];


internalField   nonuniform List<scalar> 
13851
(
3.06177e-06
0.661463
-0.00268601
-3.2951e-05
-0.000246155
-0.0474207
-4.28663e-06
0.000482896
1.32718e-06
-0.00127594
-0.0190325
0.545755
0.117927
1.10969
-1.577e-05
0.000717642
0.000276591
-0.00033159
0.434354
1.98783e-06
-2.70728e-05
-0.00565676
2.68312e-06
4.48904e-07
2.58567e-06
-0.00072804
3.35968e-05
0.334144
1.25866e-05
-2.31244e-05
0.0681492
0.00026646
-0.00364346
-0.119977
3.41585e-09
0.00514975
0.00413569
-0.0306435
-0.00998543
-0.0887532
3.9744e-06
2.34509e-06
-1.99455
-0.0331885
-0.0499289
0.059737
-0.0226097
-0.105175
0.000181975
-0.127986
-0.000760427
-0.00226633
-0.237484
-1.74959e-06
4.84331e-05
2.72276e-06
-5.89034e-06
-0.974576
-2.46231e-06
2.23999e-06
-0.0877016
1.87421
0.0298961
0.000323979
1.30489
-7.14608e-05
-0.515565
0.0105189
-0.00177794
-0.000549677
-0.180005
-0.821204
0.555372
-8.81883e-06
3.82695e-05
3.78402e-06
-0.00561471
0.0145737
-0.00372601
-0.176795
-5.14159e-06
0.00651018
1.8748e-06
0.355385
-0.00405962
0.547318
-0.00551255
-0.443083
0.00012338
-1.67577e-05
-0.0160335
-0.0172518
0.0270751
0.000271258
0.000355962
2.11416e-06
0.000532041
-0.0335088
-0.0637378
1.026e-06
-1.26384
-0.00177181
1.01289e-05
0.000564232
-7.14536e-07
0.00508201
-0.00239491
-1.26735e-07
-0.500003
-0.0544043
-5.86215e-07
-3.15755e-05
-0.00912241
1.25548e-08
-1.91983e-06
0.410855
-0.0357641
5.32889e-07
-1.06357e-06
-7.83921e-05
-2.20974
0.000719518
0.0928425
0.415511
-0.103711
-0.00100326
-0.0953095
0.00147506
-3.33227e-05
-0.000172103
3.80728e-06
-1.5367e-06
-0.165983
2.34523e-06
0.727999
4.38984e-06
8.85919e-08
-1.01388
1.04233
-0.232473
-0.685097
5.09369e-05
7.68656e-05
-9.54582e-06
7.84603e-05
-0.00805139
-0.0271824
-0.00249287
-3.41891e-06
-0.0502145
0.00486651
-2.55127e-05
1.07908
-4.68482e-06
7.48751e-05
8.8796e-05
2.40693e-06
-2.74235e-05
-0.00326662
-0.000139322
-7.2649e-06
9.79729e-05
-2.51257
-4.31405e-07
-0.000118878
-3.32213e-06
-0.0306418
-0.00261822
-2.56165e-05
-0.022968
-0.0162107
3.64916e-07
2.67337e-06
-0.255707
-8.96265e-07
-0.160535
-0.000173877
-7.4714e-06
0.501072
-3.96776e-07
0.000160807
-1.0123
2.60975e-06
-0.0112615
2.39181e-07
-5.94665e-07
9.86274e-05
-1.75337e-05
-0.00345044
0.00863925
-0.00516586
-0.0538991
-7.14763e-05
0.00114817
1.29806
-7.05191e-05
3.07569e-05
0.13253
-5.22202e-05
4.33007e-06
0.000149053
0.0955891
6.65309e-06
-2.91382e-06
0.00681655
2.25868e-06
-0.0567474
-5.52862e-05
-0.0586407
-2.52511e-06
0.055781
6.59195e-06
0.14513
-1.42971e-06
-6.52278e-06
-0.0322274
-0.0166793
0.232914
-6.86122e-08
-0.0552123
6.05519e-05
-2.79142e-05
-0.0602625
-0.00268907
0.119388
-1.58256e-06
-0.000439118
-1.29328e-07
0.752399
-1.67916e-06
-0.000317654
0.0581899
6.92113e-08
-1.82351e-05
0.00303388
-0.00220141
-0.0145659
2.42703
-1.02916e-05
-3.47525e-06
0.12417
-0.00911626
0.000170548
0.0054611
-3.9821e-07
0.0601986
-0.00167908
0.0354858
-6.84048e-05
0.000134837
-0.000631225
-0.00352992
-4.03863e-05
4.50777e-06
4.34682e-05
0.00655097
0.00625487
-0.839215
-1.58001
-1.99113e-06
-7.79218e-06
9.2919e-06
-0.00682119
3.73192e-05
0.515472
-0.000123149
-3.7844e-05
0.000307233
-0.0392683
0.0577983
-0.00142249
-1.06201e-05
0.160296
-0.0029462
0.000303698
-1.56207e-06
0.00460034
-0.0724281
0.168163
-0.0340181
0.000143972
-2.60276e-06
-1.87394e-06
-0.00201042
-0.501668
-0.336737
3.64297e-06
-1.12961e-06
0.163084
-0.00584757
-0.0134794
-4.70975e-05
3.30438e-06
0.00170308
-0.000732739
0.552981
-0.000170328
0.613666
4.06418e-07
0.0643213
0.000141766
0.000182543
0.153095
-1.56087e-06
0.0378534
-0.0500545
3.61409e-06
0.00334481
-2.95267e-05
-2.79465e-05
1.2477
-0.000208594
3.84632e-05
-0.0919472
1.42754e-06
0.000176762
0.00175494
0.122467
0.0014868
6.67207e-07
0.0011708
-6.13234e-07
-1.97543
-0.00335268
-4.04351e-07
1.30474e-06
-0.000323826
-6.91205e-05
0.000120257
-1.01094e-06
-3.77962e-06
3.28252e-05
-0.0435672
-2.22306
0.991474
-0.00203609
0.106259
0.384625
-1.06476e-05
-0.000285665
-0.0194988
-0.0211017
-0.00191766
0.0119525
0.679764
0.000531706
-0.60095
-0.00702424
-1.21087e-05
-0.00233242
0.0187573
-0.0475417
7.00768e-05
-0.000997643
0.781169
2.71404e-06
-0.571999
1.48098e-06
-7.17088e-07
-1.39027e-06
-2.77256e-07
2.22925e-06
0.0114705
-0.0366388
-4.39613e-06
0.00290511
1.22392e-06
0.493417
0.00154052
-0.445611
0.176436
-6.08737e-06
-0.0093721
-0.000353958
-0.386507
4.17466e-06
8.44802e-07
-0.00172084
-1.97617
9.53857e-06
0.978775
-0.00233346
0.00667244
-1.00097
-0.000118304
0.00642054
0.00143711
9.24022e-07
8.74132e-06
-0.00137119
0.00349518
1.13695
0.000219194
0.11966
-0.0334277
2.83233e-07
-1.55403e-06
-0.278926
-0.149285
0.019633
-0.106722
0.00722449
-0.000382414
-4.66153e-08
0.623409
-1.80245e-06
0.000868389
0.000123868
-5.20496e-06
-1.38304e-06
3.01518e-06
-2.87311e-06
-0.00207718
0.00182282
-1.59614
0.000604996
0.000674514
0.00199983
-0.0151155
-8.71637e-05
-0.0899911
0.000111925
-0.0548444
8.3801e-07
2.75963e-06
1.81434e-06
0.0380706
-0.00639906
0.00850424
0.00323361
-2.46168
-0.154667
0.039236
-4.81668e-05
0.00195906
3.75406e-06
-0.067946
9.56554e-07
0.0207838
0.0498467
-0.00189886
-0.0561587
-8.67186e-06
-0.0780978
0.0718533
-1.00893
2.86997e-07
-0.000213784
-0.00255021
0.0934911
-1.38596e-06
-1.51007e-05
0.00553625
-0.00101312
-0.000171407
0.283304
-1.71613e-06
1.055e-06
0.333538
-0.000320337
-2.41196e-06
-0.331335
1.06271e-06
-9.12666e-06
-1.23608e-06
-0.00135832
-4.39365e-05
-2.56687e-06
9.13979e-06
-0.0751278
2.10433e-06
-0.00267094
2.0275e-06
0.000986579
-0.0925582
1.81559e-06
-3.49011e-07
-2.9778e-07
-1.54045e-06
-0.290506
1.28667e-05
0.00993669
1.98289e-06
1.60397e-07
1.00266
-0.0551401
1.55553e-06
0.0053959
7.22205e-05
-0.0168164
0.343352
1.03565e-06
-0.0303516
4.15669e-06
-0.0042509
-8.86699e-07
1.20825
2.44964e-06
0.266787
-0.0254244
2.11235e-06
0.0038301
0.0224911
-0.000129194
-0.0378736
4.88509e-07
0.143137
7.27592e-05
8.66417e-07
-1.72095e-06
-1.66357e-06
-0.0948488
8.16192e-05
0.00286966
-0.262361
-0.000871371
-9.14585e-06
0.0965389
0.00554401
0.000277684
-0.000124527
-0.0255569
0.480495
0.0396114
5.47357e-06
1.13356
0.172303
-0.233369
-0.000129957
0.00156783
-0.0553411
-0.089112
-0.049203
0.135929
0.261263
-6.35447e-05
0.444684
-0.454283
4.10956e-06
-0.089732
0.00209849
-0.0337828
-0.000109169
-1.82708e-06
2.28544e-06
-2.03559e-07
-0.00450868
-0.00188362
-0.643278
0.243727
4.99651e-06
-0.0373773
-0.0394446
-0.383854
0.0418972
-0.00307399
-1.85453e-06
1.72774e-06
-0.0109179
0.0733608
0.000110711
-0.00175324
0.013007
2.60396e-06
-1.31165e-05
0.299408
-0.0555112
-0.00564727
-0.0791279
-0.555607
4.26945e-06
-4.0263e-06
-0.510122
-0.0456521
-0.00222106
0.00216535
-0.0909447
-7.7565e-08
1.89431e-06
-0.113
2.30191e-06
-4.91361e-05
-9.57931e-07
-2.88673e-06
-0.405638
0.00178667
0.000949348
1.9549e-06
1.01044
0.0828519
-4.99383e-07
-1.79272e-06
1.61269e-05
-3.15622e-06
-1.5795
0.0914415
0.132054
-1.03306
-0.0991167
0.00224672
-0.0121273
-0.0634653
0.000637455
-0.000125001
-1.83355e-06
0.000361043
-0.000338812
-0.0330258
-0.625266
-0.003626
0.000609023
2.65458e-07
0.000373102
0.000135212
-0.0136414
8.41934e-05
1.57657e-06
-0.000175058
-1.28856e-06
0.000300028
0.0120691
3.81755e-07
3.05523e-06
0.00126278
-3.3759e-06
-0.00206143
0.0195845
-0.00259754
0.000532619
-0.000687052
2.54586e-07
-0.0455039
-0.000735557
-1.04205
1.10278e-05
8.80419e-07
-0.671974
3.34455e-05
-0.622801
0.00146271
0.641389
-0.359737
-1.78976e-06
-0.794275
0.000292089
-1.13673e-07
2.85728e-06
7.0697e-07
-0.00716832
0.000635237
-0.00117929
1.53252e-06
0.61805
0.0154145
0.335465
2.09923e-06
-3.36258e-07
1.29525e-06
-0.00681872
0.704849
0.0016853
0.000759433
0.000441931
-1.23334e-06
6.47316e-06
2.22488e-06
0.0700115
0.300537
-5.9241e-07
1.05901e-06
-2.06365e-06
2.32782e-06
-0.0534816
-1.30361
0.000317104
0.130131
0.412202
2.90282e-06
0.00114445
-2.00248
0.000193041
0.44251
3.11887e-05
-0.000388015
-0.000679936
0.000426717
0.129215
1.54727e-06
0.032567
7.89549e-07
0.00194894
-0.0583785
6.59514e-07
2.76261e-06
-0.109325
-4.6864e-07
0.000199977
-0.118995
0.0273303
-0.000593678
0.715461
-0.0212613
-1.02469e-06
1.93485e-06
0.736585
0.0284703
-0.00287604
0.00544158
-4.47681e-07
-4.61542e-07
-1.1397e-06
-0.26992
-0.808623
-8.99747e-05
-3.54211e-06
-0.0908828
-0.000319719
9.48467e-07
-0.303562
0.187537
-0.0933847
1.99686e-06
-1.82519e-06
-0.00124987
1.78035
-0.00792482
6.58276e-05
-0.179141
2.55209e-06
-0.062131
0.00882522
0.00223978
0.000146423
0.601268
-0.00101601
-0.000762624
0.00518103
6.58873e-07
3.05824e-05
-5.88125e-05
-3.9388e-07
0.0561572
0.000935636
-0.00208743
0.00154733
-0.0915164
1.44552e-06
0.109493
-3.33153e-06
0.000463001
2.2069e-06
2.14599e-06
1.005e-05
-0.0603977
2.39788e-06
9.84249e-07
-0.0890586
-3.32832e-06
-0.0187904
1.2863e-06
5.08422e-05
0.00559933
-0.129472
0.00632077
-6.85206e-06
0.0508645
0.0743876
-2.18459e-05
-0.00837712
0.000778082
-7.9846e-07
-0.00548982
-1.18787
-0.0227257
-8.67806e-05
5.56114e-06
5.83456e-07
0.0273979
-0.00137905
0.0139975
-8.07877e-05
-0.0173388
7.55693e-06
4.10961e-05
0.00446635
-0.108174
-0.0051872
-0.481961
1.23885e-06
-0.00463733
-0.00170025
0.0835002
-5.23897e-05
-0.422634
0.0474052
-3.43944e-06
0.122778
-0.0247085
0.448848
0.187823
-0.109532
-0.00825021
0.000713589
-4.88903e-07
-0.000462246
-0.177179
0.32441
2.90212e-06
1.01091e-06
0.00263201
-0.00593875
-7.92104e-08
-1.15035
-1.46699e-07
-3.54718e-07
0.350471
-0.00148961
-0.0167782
5.88222e-09
-9.22691e-07
0.395416
0.0183678
-0.005114
-9.28742e-06
1.14676
-0.0665251
0.244364
-0.00399548
0.000682079
1.04338e-05
-3.00384e-06
0.577222
0.000626986
-0.154738
0.00667241
-0.00188255
0.196419
0.68765
-0.0238882
-1.15523e-06
0.00200508
-3.73075e-07
0.000671966
9.48545e-06
0.468174
-1.89524e-06
0.0355373
-2.68362e-07
0.00418056
2.29201e-06
-0.0129633
0.00259837
0.00162381
0.00859327
-0.00178939
-0.00134831
-1.24598e-07
0.00242312
-0.233365
0.0189799
8.17737e-05
-0.0186789
2.63925e-05
0.368661
-0.00962431
2.15102e-06
0.0660579
-2.0099
-0.0257115
-0.026371
0.000643111
2.69163e-06
-0.0894583
-1.65587e-06
0.347144
-0.0588759
2.15781e-06
9.13149e-05
0.146423
-0.00601635
-0.601503
4.15252e-06
-1.10941e-05
0.0633018
-0.0583506
-0.00528236
-4.86178e-05
5.55065e-05
-0.00633761
0.672702
-0.000931496
6.37765e-07
5.44105e-06
-7.56658e-07
9.55516e-07
0.018048
-3.20741e-06
0.152777
-0.0513275
2.63996e-06
0.000108586
2.41812e-06
-5.15595e-05
-0.0750233
0.4605
-5.24854e-05
-0.270039
1.87532e-06
-0.000310327
3.44489e-06
-8.14983e-07
-1.82846e-06
2.61122e-06
-0.0744355
2.13543e-06
-0.00266506
-4.72435e-08
-7.20831e-05
0.0155611
2.05212
-2.21147e-06
-0.864199
0.0160367
-0.484102
0.000761293
0.00105707
-0.176126
-0.000152109
-0.000660453
0.560256
0.544837
0.911155
-0.000435085
-0.0537343
8.81869e-06
0.00137839
-0.00294429
-0.537449
-3.9867e-06
-0.365939
1.34318e-06
2.31251e-06
0.812968
0.000459554
0.355845
0.000134709
-1.21804e-06
0.00406394
-1.04969e-06
-9.06747e-07
0.00047459
2.48897e-05
-0.102043
2.14899e-06
0.160271
0.825697
0.00846847
0.0174131
-4.09961e-06
-3.16452e-06
0.00360348
-3.24563e-07
-9.88297e-07
0.0061039
-9.17156e-06
1.16563e-06
-6.60925e-06
-1.12623e-06
-0.00523874
0.11612
0.0399992
-0.0873068
0.135461
1.43196e-06
0.139073
0.00058339
2.11672e-06
0.0508783
-0.365562
0.118989
4.72165e-06
-0.0342079
-0.0721552
0.736944
6.95574e-07
0.131605
0.000701669
-0.00016442
0.000776006
-1.95635e-06
-0.0537402
-0.0476305
-0.331468
2.43867e-07
2.32196e-06
-0.0990021
-2.64304e-06
-0.136353
0.00225261
0.494343
0.284099
-0.0742942
2.59792e-06
-2.87051e-06
-0.0109323
-0.000763196
0.000127949
0.022342
-0.00132848
5.66759e-06
-7.02243e-06
-0.739679
2.04893e-06
-0.396187
-0.196939
0.54439
0.0418771
5.08565e-06
5.80434e-06
2.97981e-06
-0.000650231
-0.0106949
2.27956e-07
-7.16054e-06
-7.03222e-07
-0.000928079
-2.6489e-06
-9.17696e-07
2.26246e-05
-0.00128556
-0.493702
-0.00116473
0.000714711
1.21628e-05
0.00068484
0.522735
0.000110393
-0.0251578
1.3285
0.00898001
-1.88572e-06
0.00264284
-3.90772e-07
4.39108e-07
4.56806e-06
-0.000510402
-0.00262086
-0.0783472
0.000552539
-0.0773992
2.15987e-06
3.76489e-07
-1.8441e-06
0.106381
-0.104972
-5.21558e-06
-0.00169292
-0.00134683
-0.0809682
8.81451e-07
0.513698
-0.00726639
-0.00219347
0.00576906
-0.00010107
0.00249966
-0.00160502
-0.0574964
-0.048973
-0.0463659
-0.078518
8.0601e-07
0.0326628
-2.36045e-06
4.93083e-05
0.000383147
6.45638e-06
-0.052722
0.000351893
-0.000348833
-0.011225
0.0268912
-0.217377
3.08851e-07
-0.000336306
-0.000143319
5.46285e-06
0.000717819
-0.143842
-0.285861
-1.07228
-1.98449e-06
-0.000386401
7.04378e-05
0.335529
-0.0722596
-0.0133007
4.76121e-06
2.21082e-05
1.09475
-0.000192879
0.382519
0.0843162
-0.0939205
-2.55724e-06
-0.547967
0.00107568
-0.00231933
-0.000215784
0.0233987
-0.0125125
0.00680347
-0.000995717
1.21066e-05
-0.00295271
3.97363e-06
0.00543704
-0.000384262
-0.0441717
0.00299283
0.000633178
0.0156592
2.1657e-05
0.0290139
0.0658935
-2.15322e-06
-0.183564
-0.0593418
-0.158871
-0.470656
-5.33316e-06
-3.49852e-06
-0.048494
0.396268
0.964336
-6.6473e-07
-2.1147e-06
-5.79519e-07
-0.0114112
0.000221343
1.34936e-05
-0.344857
-0.00241163
0.104724
-0.46206
-0.396723
-2.69069e-06
-0.244546
0.000436864
-1.54986e-06
0.00444025
1.22744
-5.63994e-06
2.29138e-07
3.38998
0.0015677
-0.000988207
-1.7133e-06
-0.338438
-1.7869e-06
0.000409914
-6.14961e-06
0.470611
-3.56327e-06
-0.00415798
-0.743328
-0.0656864
-4.34236e-05
-1.57596
-0.036137
0.718897
0.308121
-0.0385988
0.0177313
-1.36924e-06
1.0108
2.04195e-06
-2.05606e-07
5.80289e-06
0.0485975
2.00599e-06
0.0874484
9.25287e-07
-0.000560406
-0.324777
0.000108393
-0.0644649
-3.63062e-05
0.0138566
-1.55114e-06
-0.00138491
-0.905046
0.716441
6.51316e-06
-0.00172215
0.0188955
5.3657e-06
-1.33959e-06
-0.062107
0.00177621
0.000476123
0.000437954
-0.137008
-0.230436
-1.06438
-0.567331
0.0241698
-0.0502865
-0.00102015
0.439325
-0.0028073
-2.85954e-07
0.00991231
-7.06102e-07
2.49559e-06
-0.0129377
-0.0609871
2.00876e-05
0.553175
0.110165
-0.179909
-0.457544
-0.116091
2.06676e-06
-0.00849456
-0.0855097
0.000101296
-2.61763e-05
-0.0377878
-0.103204
0.796721
0.019603
0.00101273
0.078825
0.0104814
-0.00230257
-1.96571e-07
-2.74422e-06
0.00177437
-2.26483e-06
0.0360527
-2.31218e-05
9.6708e-05
1.09878e-05
0.291685
0.0647821
0.424442
2.94585e-06
-0.594618
-6.37882e-05
-0.000231605
-3.59632e-06
-8.00567e-07
-4.16028
-0.000155331
-0.067367
0.507422
-0.287832
-0.00142113
-2.54494e-06
0.00192229
1.96555e-06
0.0302907
2.167e-06
-8.12198e-05
3.96332e-06
7.33035e-06
0.0212422
-8.7656e-05
0.000224285
-9.24097e-05
-0.000363219
-0.0448041
-0.0990917
1.62315e-06
0.00136984
3.69425e-07
-0.390091
0.0064583
0.13068
-0.790363
0.00187528
0.00031327
4.45513e-06
-0.266311
3.42308e-06
-0.098384
-1.12189e-06
2.32068e-06
2.43553e-05
-0.101642
-0.000373624
-9.01456e-05
-0.00513004
-4.08756e-07
0.00634814
-0.0980543
0.82641
0.00204257
1.60005e-06
-0.0649837
-1.45927e-06
-2.21776e-07
0.0498027
0.0262257
8.06841e-07
-0.000531845
-0.193485
-0.546348
-3.82069e-05
0.000109604
0.00968064
5.96111e-05
-0.11457
0.217592
-0.0187769
-2.60608e-06
0.0127967
-2.47992e-06
0.109464
0.0191804
-3.85936e-05
0.0112021
0.759168
6.93323e-05
-0.032798
-1.6446
1.55214e-06
0.251718
0.010036
2.58758e-06
-4.64766
-4.59145e-06
3.39685e-06
-4.81724e-07
0.00938656
-0.2169
-0.0119847
3.83255e-05
0.000112223
-0.000137333
0.00897925
0.0848711
0.0563558
-0.0160723
0.000109836
0.0127665
0.00154857
0.684774
-0.00205786
0.000130946
-1.21822e-06
-0.00914142
-2.66095e-06
-0.204425
-0.000685438
-2.793e-06
-0.0244138
0.0307777
0.000568432
0.00406947
-3.06808e-06
-5.27673e-07
0.00440237
0.000927224
-0.129839
0.001602
-0.00537313
0.00517354
-0.00256418
-3.28247
-0.350455
0.0756535
2.41579e-06
-4.47049e-07
-0.0270272
0.598536
0.542207
0.0686281
3.01943e-06
-1.98454
0.0144713
1.81602e-06
0.000359853
3.73987e-07
-0.000863307
-0.000288249
-0.0509384
-1.42555
0.11492
9.99295e-05
0.42338
-0.109376
-1.90802e-06
0.0204939
1.02097
0.526336
-0.000484359
-0.00409946
-1.69563e-06
2.13317e-07
0.000154087
-4.38955e-06
0.113311
0.341852
-1.43651
-1.08062
8.99176e-05
0.000111834
0.00502223
-4.85164e-07
1.68414e-05
-2.79186e-06
-0.0204237
-1.43845e-06
0.0275791
0.0008285
0.00105888
-0.0354669
-0.0215734
-0.0152496
-0.380413
-0.00197542
-1.77438e-08
-0.00151865
-0.336212
-0.303231
0.000368874
-1.44248e-06
-1.98945e-06
0.00302118
0.000389369
0.00731341
0.108869
-0.000192881
-7.82633e-07
0.0126741
-0.0422969
-0.0771453
0.671177
-1.16852e-06
-0.000243358
3.92106e-06
0.176858
-5.38272e-06
0.0832553
-7.7792e-05
-0.000137893
0.00143516
1.55024e-05
-0.405954
-0.000827953
-0.000485422
0.904057
-0.123121
-3.04552e-05
0.000746099
1.38292e-06
-0.379933
0.755522
5.99835e-06
1.57961e-06
0.053307
1.06064e-06
-0.0801393
1.11519e-06
-0.003481
-0.00978068
0.141643
-0.000216293
-3.29246e-05
1.66444e-06
-0.00561482
-0.0191208
-1.68764e-06
-0.247818
-0.868785
1.03684
-2.26871
0.000250712
-0.121799
0.000537257
-0.00634746
-2.45681e-07
-0.0350995
-0.00550028
0.374171
0.595971
-0.990358
0.00067401
-0.0429194
-8.36943e-07
-0.0392027
0.0367818
-0.0671802
0.139786
-0.000102743
-3.26948
-0.457615
0.000300719
1.38498e-05
4.45623e-07
-0.0729127
4.62178e-05
-0.0064884
-2.95302e-06
1.09704e-05
-8.86418e-07
2.24655e-06
-0.0145078
0.0521391
0.000259812
1.11642
0.254428
0.000312382
1.56693e-06
1.9082e-06
0.00130815
0.0701148
-0.0526005
4.29491e-05
6.93936e-05
-0.0161216
-0.0025741
0.000921991
-0.46918
0.000435894
0.0842616
-0.000753307
-0.000307374
2.58401e-06
-5.23078e-07
0.000520959
-0.123344
-0.0500554
-0.0475883
-0.00135872
0.263202
-4.86739e-05
-0.000285876
2.49723e-06
-6.33911
0.270583
0.409961
-0.358323
-0.000135999
5.3645e-06
3.8738e-06
-9.90949e-07
-3.01774e-06
0.155133
0.0003853
0.0902707
0.000400418
0.15574
0.163982
0.0476089
0.00392025
0.000118736
1.11754
0.000979829
1.70779
-0.03233
1.13702e-06
-0.129826
-0.000237563
-0.903217
-0.44128
0.000423795
-0.194143
-0.0103433
4.33147e-06
-0.00336081
-5.85243e-06
-0.272462
-0.0557848
-0.000237365
-2.15678e-06
-0.0143269
-2.37071
0.00289888
-0.0829707
0.00704499
0.00189483
2.55303e-06
0.354757
0.0130991
0.00200367
-8.97499e-06
-0.0432276
0.221809
-2.33549e-07
-1.01895e-06
-0.000237417
-0.0485274
-0.0845924
1.82588e-06
-0.0691664
8.7855e-05
-3.18039e-06
-3.54311e-06
-0.73345
-0.0242193
-0.118696
0.521034
2.08931e-06
-9.62657e-05
-1.51211e-06
-0.112885
3.43043e-05
-0.780122
-4.15428e-05
0.58086
-6.43872e-06
8.6871e-07
0.00631325
0.69136
0.0573555
0.000709972
0.949595
4.3346e-05
5.141e-06
-8.93833e-07
0.00157247
0.00244509
-0.0010179
-0.000634748
-0.00632174
0.000362009
-0.00193372
0.022727
-2.9427
-2.38631e-06
-0.0676134
-0.0531541
0.000593283
-0.153164
-0.00472091
-0.306276
1.3187e-06
0.0114884
4.32308e-07
1.86731
-0.062961
0.0413876
0.0494802
3.03687e-05
0.00241671
1.07867e-05
-0.0449203
-4.3685e-06
2.2972e-06
-0.0719991
-0.00735582
0.787399
-0.821449
0.00452628
-0.000241696
1.60465e-07
0.272675
0.00140285
0.000155331
0.0157999
0.000119615
-9.1378e-05
5.83558e-07
1.07778
6.13117e-05
-0.0161221
-0.070615
0.00296745
0.0235495
0.00592586
0.177513
5.20436e-07
-1.00011
0.391217
2.83957e-06
2.40965e-06
-2.06698e-05
-4.38944e-05
0.00108293
-1.07455e-06
-0.0520269
0.00834424
-0.0164175
-0.471223
8.01919e-07
-4.92592e-05
3.1111e-06
-0.296674
3.94874e-06
3.76085e-06
0.114201
-0.000550968
1.12638
0.0417083
0.000417575
-1.40617e-05
6.25028e-05
5.08322e-05
-3.03935e-05
-0.0471216
4.11331e-06
-0.000174445
-1.03066
0.115065
-0.514231
8.96912e-05
0.623325
-0.395991
4.49294e-05
-0.0615348
-0.0258824
-5.42653e-08
0.000230817
1.7582e-06
-0.381338
0.736964
-0.00478472
2.30326e-06
9.79228e-05
-2.95726e-05
-3.23886e-06
-0.000114291
6.45223e-06
-0.131877
3.83872
0.0558694
1.12574e-06
0.000470506
0.000475819
-0.400511
-3.67338e-06
0.991809
-5.14426
-0.279148
0.507875
-0.149337
0.188464
2.85294e-05
0.145841
-0.0995647
-6.9009e-05
4.81763e-07
8.52252e-07
0.0354628
0.427542
0.802474
2.13232e-06
0.099573
6.20089e-06
0.030901
1.92614e-06
3.26659e-05
0.000125726
9.91364e-07
0.324433
-5.41392e-05
-0.356814
0.432125
1.01733
4.88832e-05
0.00223903
0.801158
-0.0343478
-4.59452e-06
-1.92093
2.94196e-06
1.34201e-06
1.50983e-06
0.00528234
-8.95646e-06
0.639479
0.00155075
-0.19044
-0.00135072
-2.77717
1.01866
-0.136058
2.43223e-07
0.00429978
0.00664362
0.315179
-3.47587e-06
-4.00637e-07
7.85561e-06
-0.777386
3.0563e-06
-0.0454744
0.441712
0.00136257
0.00247321
-2.82253e-06
0.0247431
-1.9199e-05
0.090698
-2.18406e-07
-0.400567
-0.00187798
-3.19121e-06
0.810715
0.917809
1.06276e-06
0.00736964
4.22347e-05
0.661769
-0.11939
0.493649
-0.191048
-3.31114e-05
0.00703779
0.333233
-1.72554e-05
0.0154287
3.18055e-05
0.00171477
-0.00177649
-7.27373
-0.118007
8.97988e-07
-0.0718855
8.77054e-05
0.000718543
-0.0443254
0.424391
-0.000404478
-0.0500445
-0.0217815
-3.94148e-07
-0.0974921
0.00119401
-0.00241993
-0.000117761
0.128051
2.51642e-07
2.32992
-0.150661
-0.0112214
-2.94383e-07
0.00155789
-0.047153
-0.000839869
0.244257
-0.000113522
0.000138541
0.00287838
0.0855633
-0.000469148
-0.0178828
-0.540321
0.595501
-8.60907e-06
0.0968804
1.23793
-0.379656
-3.13646e-09
0.000412222
-2.76061e-06
0.0260734
0.00758405
0.0370328
-0.0868251
3.79966e-05
-4.60538e-06
5.49023e-07
-0.190399
-0.629601
-0.358014
1.08542
-1.75741e-06
0.668174
-0.0149991
0.0065996
0.527029
-0.050892
-0.00089255
3.31587
0.000174901
-0.000216411
-0.55925
0.154269
0.000883286
-0.148261
-1.57576e-06
1.24869e-06
0.0146765
-0.108558
-0.0866023
-0.0845131
3.57253e-05
-4.58259e-05
2.60139e-05
0.0101149
0.920256
1.24796e-06
0.00416047
-0.247304
-7.31591e-07
3.23582e-06
-0.00268808
0.443314
9.72725e-06
-8.0111e-07
-8.0309e-05
4.63019e-06
-0.0534037
-4.2003e-05
1.5681e-06
6.5273e-05
-0.0143209
0.150986
-0.11453
0.672373
-1.70738e-07
-7.21539e-05
-0.0856417
-0.0167038
-0.000451595
-0.00178835
1.09286e-06
0.00149767
-3.12241e-05
0.00220688
-0.000245825
-2.55755e-07
-0.645521
0.000244536
4.51385e-06
-4.40569e-05
1.27255
0.563225
-0.0177509
-5.81154e-07
-1.2527e-06
0.013475
-0.294282
-0.000386329
-2.50851e-06
-1.77629e-06
-0.0485028
5.5425e-06
-4.32821e-07
-9.16315e-05
2.00975e-06
-0.068969
-0.238068
2.74889e-05
-9.84431e-05
-2.85102e-07
-6.16961e-06
-0.144523
0.0624971
-0.000185485
0.730796
-0.209524
-3.20294e-05
4.13356e-07
3.41433e-06
-3.59167e-06
-2.79488e-05
-8.59162e-05
0.00805195
-0.0459093
-6.2469e-06
-0.00360184
-0.0193652
-0.160125
3.41347e-06
4.6166e-06
-0.000193306
0.295702
-3.67268e-06
-0.185684
0.111193
0.0262408
0.000256279
-0.028794
-4.57548e-06
-0.208798
-3.41433e-06
-8.44701e-06
2.96036e-06
-3.37617e-06
-0.0129431
0.133722
-0.211076
0.000380206
-0.157228
-0.105691
-0.382455
-0.00012035
-0.0811555
0.742062
0.00250975
0.655843
-0.00942925
0.00612368
-0.0564121
2.29355e-05
3.85174e-06
0.147353
-1.54858e-06
-9.2241e-05
-0.124959
-0.0177272
0.315434
-1.47765
-5.99849e-09
0.00514009
1.86296e-06
-0.0941781
3.36196e-06
0.0516884
0.689391
-0.0127104
-0.64183
5.17847e-06
-8.58438e-08
0.000690749
1.04028
-0.064163
0.00461521
-0.469297
7.93144e-07
-0.683572
-0.0532777
-0.0419778
-2.3787e-06
5.95187e-06
2.02205e-05
1.52976e-05
3.29078e-06
-2.04744e-07
-0.000166211
-0.0655484
0.00127425
-0.0601478
0.015639
0.475968
0.0158638
-1.05621e-06
-3.02169e-06
-2.54333e-06
-4.30988e-06
2.61927e-05
0.107539
1.0017
-0.0677898
0.100785
0.000412273
0.902838
0.0254587
-0.00499629
-0.0221435
-3.3735e-06
-1.61697e-06
0.00835259
-3.20753e-06
1.12263e-06
0.327958
-0.06517
-0.943798
-1.18429e-06
4.21582e-06
-0.000197358
-0.000198178
1.08952
2.60886e-06
0.000108349
-0.327936
-2.18921e-06
-0.158224
-0.000346734
-0.24341
-9.22603e-06
0.0692913
1.04964
0.000201792
0.0020504
0.00669126
-0.0736838
-6.34521e-06
1.48898e-05
-1.11302e-06
0.000461863
-0.917661
2.28622e-06
-1.27673
-5.07014e-06
-5.41513e-06
-7.13398e-07
0.081222
-0.00188799
-0.00183782
0.268661
-2.05212e-06
0.00297598
-1.47542
0.00411204
4.00228e-06
4.62645e-05
-5.32234e-06
-0.00296124
-1.71793e-06
3.17725e-06
0.148494
0.047433
0.0265993
-2.09353
0.317451
0.456102
-0.00339925
0.122842
-0.00886234
-5.66957e-06
8.43489e-09
8.63466e-07
-3.20137e-06
0.0148843
0.0106724
-6.86254e-06
-0.64793
0.134027
-0.00100914
-2.5976e-05
1.48911e-06
0.111759
0.0110937
-0.0616801
-0.161577
-0.0619972
1.86272e-06
0.0353826
-0.00161953
0.0623966
-0.671193
2.65103e-06
0.00124188
0.973866
0.000108578
0.826993
-6.67872e-06
0.0253951
0.503689
0.0182657
-0.0036765
0.000238838
-0.0403455
0.00517638
0.0374778
0.0446058
-0.0780764
-0.00174213
0.194416
2.91636e-06
0.000273211
-0.00221091
-0.077678
-0.028413
-0.0753764
1.4174e-06
-0.00504052
0.0118967
-4.11562e-07
-0.0138568
9.64946e-07
0.0111632
-0.0137009
5.635e-07
-1.35637
0.434296
0.0712246
0.109697
0.626234
0.00655073
3.2961e-06
0.0222443
1.40683e-05
3.85786e-06
-0.00205062
-0.000239035
-0.031603
0.000427501
-5.10376e-06
0.000242002
-2.69258e-06
1.02244
-4.92404e-05
0.00214699
-0.106119
1.01753e-06
-0.0561996
0.00457241
2.47638e-05
-4.37648
-0.0564752
1.7837e-06
-0.0577309
-6.24551e-05
0.120747
0.014364
4.85015e-06
0.00809159
-2.96403e-05
0.0276821
-0.0561316
0.000473317
-0.414004
0.000261897
-1.67811e-06
-0.107715
-0.000421969
-1.29882e-06
-0.93865
0.00571183
5.31668e-07
4.18387e-06
-0.010132
-1.01348e-05
-0.008018
-0.110122
0.011109
-0.314177
0.00253783
-0.00107776
3.89185e-06
0.0402654
-0.12227
0.196465
-4.91859e-07
-5.59528e-06
0.00313855
5.71429e-05
-0.0692791
-1.52533e-06
-0.248624
-1.50049e-06
0.114686
-7.97915e-07
0.071346
-0.0313043
0.00914294
-0.0616784
0.518556
-0.0310966
-0.0597156
1.56312e-06
-0.479018
-0.725187
-0.0832989
-1.20575e-06
-0.0672372
-0.0627754
0.442396
-0.00499839
0.704652
-0.498362
0.051149
0.00316433
-0.189157
8.90906e-07
-0.00112549
0.00510764
4.79509e-07
0.0014893
0.604848
-0.172941
0.691429
0.296023
6.20084e-07
-1.67879e-06
-0.000341655
1.50207e-06
-0.905094
1.15007e-06
-3.20441e-07
0.0796879
-0.0107837
-0.00224422
0.000288796
-1.07878e-06
-0.00276462
0.724155
-0.0497321
0.925305
6.19794e-05
-0.0544264
2.88134e-06
3.19984e-06
0.000275847
-0.0409856
0.100618
0.112492
-0.0422615
5.76526e-05
-4.87578e-07
2.65248e-06
-1.70182e-05
-0.000410209
0.494337
-0.803936
-7.41145e-05
-0.0103923
-0.023963
-0.0671967
0.138693
7.9892e-07
-0.000258992
-0.152081
-3.45634e-07
0.00865328
8.74257e-05
0.000272337
1.70404
-0.0390487
2.53895e-06
0.00480674
-0.00061723
0.00798273
-0.89535
-1.9356
0.0677221
3.83658e-06
0.00394946
0.0813796
-0.00476992
0.00251571
0.0529886
0.11501
-0.077778
0.141441
6.27793e-07
0.229422
-4.07696e-06
7.85347e-06
3.20497e-06
0.000309655
-0.0317006
0.003432
-0.174356
0.83571
0.00141352
1.33001e-06
1.38386e-06
1.66843e-06
1.40808e-05
0.0015114
0.0815609
0.152898
0.00136533
0.0421546
-1.01317e-05
0.00376544
-6.73814e-07
0.0612606
0.0186835
2.4527e-06
-0.0123845
-0.00149392
0.47312
-0.0912427
-0.0083281
-0.950619
9.72554e-05
-0.359269
-0.0769698
-0.38996
0.0545423
1.23998e-05
-0.00322969
3.6795e-06
-0.00110287
0.639392
0.00098922
1.26345
-0.102161
0.743968
-0.002729
-0.774236
-0.0040419
-5.15797e-07
0.0056874
0.00778178
1.72813e-05
-0.00374273
-0.000203173
0.000264702
0.496784
-0.00997122
-5.86175e-05
0.000197076
0.000707919
5.07401e-05
9.33435e-06
-0.672229
0.00229954
-0.185758
-0.0753437
2.01751e-06
-0.0445436
-1.15816e-06
0.000132112
-3.41921e-05
-0.0543507
0.000696048
0.0761891
-0.0559108
-0.00292829
-0.0431766
0.00398892
-0.146649
0.00391064
-0.46036
-2.52487e-05
0.00358396
4.22375e-06
0.00878305
-0.130928
-0.000253431
-1.0152e-06
0.0002817
-0.000482115
-6.46689e-05
0.00319408
-0.00183206
5.04176e-06
0.000309009
-1.43693
-1.34801
1.14365
0.00161711
1.12842e-06
0.185184
0.00136608
-0.00360566
0.298592
0.00605221
0.504012
-3.21002e-07
1.10597e-06
0.000121842
-0.000130349
-4.61754e-08
-0.00785036
-0.112674
1.02251
0.000488783
-0.00772739
0.157022
-0.00038256
0.209637
-0.000294661
-0.0260048
0.467039
-0.0080128
-9.37438e-05
0.002563
0.000249841
-2.04807e-05
-0.294128
-0.0807935
0.00854393
9.07455e-08
0.00509963
-0.0459556
-0.0991875
1.85104e-06
0.000335847
3.06351e-06
0.000507352
0.936424
0.00029732
-0.000350114
4.8532e-07
-1.01202e-05
-0.886462
-0.0412936
7.39546e-07
0.119486
-0.0220727
1.54103e-06
-0.00217834
0.00886142
-0.0085645
0.00268184
2.44981e-06
0.000442161
-0.0257867
3.5924e-07
-1.2985e-06
0.037351
0.000902991
-0.0117853
-0.00159249
0.000559082
-0.0808595
-0.0225211
0.00724137
-1.41993e-06
0.062972
0.00078578
-0.000406453
0.245305
0.00226724
1.70581e-06
0.000655231
7.9046e-05
0.000435472
-3.02354e-06
1.92622
3.0154e-06
0.0113537
1.25044
-0.00409281
-2.01261e-06
0.507761
0.000351836
-1.44432
-0.0349452
-0.0763447
0.00601643
-0.000315445
-1.22722e-06
0.000787412
0.000426789
-8.43398e-07
-0.0633786
-0.364837
-0.000159337
0.304106
-0.00113323
0.00148493
-0.0844042
-0.000689456
-0.0228744
-0.29182
-0.550454
-0.562228
-0.189601
0.0126164
3.21572e-07
0.0152411
0.000729835
0.122322
0.28782
0.0500543
-1.94087
0.066933
-2.56949e-06
2.11561
-1.0415e-06
1.68465e-05
3.08945e-06
-0.0516741
-0.00707444
0.0137271
-1.52135e-06
-0.133879
0.000337268
-0.0321369
-1.20046e-05
0.00771472
-0.00142749
0.00850306
0.000416518
-0.00373485
0.000153326
-0.0863139
-0.252574
-1.67403e-06
-1.12271
0.12568
-0.158194
4.89432e-06
-0.000480369
-3.69021e-06
2.40375e-06
-0.0029541
-0.0564913
0.803221
0.0215223
-0.00208415
0.0322927
-0.000113205
1.01243
0.00125552
-1.30136
0.00024166
-5.33533e-05
-0.00513927
1.75545e-05
0.0415011
-0.0722509
-0.0764965
9.75212e-08
1.01121e-05
-0.0431228
0.00176596
0.000187237
-0.000264694
0.000433743
1.39989e-06
0.000144363
0.10151
-1.27995e-06
0.000101079
0.00778151
0.0129465