/*--------------------------------*- C++ -*----------------------------------*\
| =========                 |                                                 |
| \\      /  F ield         | OpenFOAM: The Open Source CFD Toolbox           |
|  \\    /   O peration     | Version:  v2012                                 |
|   \\  /    A nd           | Website:  www.openfoam.com                      |
|    \\/     M anipulation  |                                                 |
\*---------------------------------------------------------------------------*/
FoamFile
{
    version     2.0;
    format      ascii;
    class       surfaceScalarField;
    location    "400";
    object      ddtCorrDdt0(phi);
}
// * * * * * * * * * * * * * * * * * * * * * * * * * * * * * * * * * * * * * //

dimensions      [0 3 -2 0 0 0 0];
oriented        oriented;


internalField   nonuniform List<scalar> 
20537
(
0.000756748
-0.000284249
-0.000472486
-0.133859
0.130289
0.00357018
-0.005814
0.00286188
0.00295212
0.000757917
-0.000378781
-0.000379129
-0.00406046
0.000906152
0.0031543
0.0178004
-0.0257955
0.00799512
8.24417e-05
-2.36218e-05
-5.88326e-05
0.00353505
-0.00252235
-0.00101269
-8.63159e-05
5.38197e-05
3.25033e-05
0.0158539
-0.00841769
-0.00743618
0.000925862
0.00532676
-0.00625262
-0.0407082
-0.0238674
0.0645756
-0.00980086
0.00671511
0.00308579
-0.0217385
-0.0196866
0.0414252
7.0438e-05
-2.68326e-05
-4.36075e-05
-0.00221003
0.00122378
0.000986246
0.000178605
6.74908e-05
-0.000246094
0.00228926
-0.00201072
-0.000278537
-0.00427263
-0.0046041
0.00887674
-4.90337e-05
-3.72735e-05
0.000449315
0.000308597
-0.00415061
-0.0016634
-1.02344e-05
1.4803e-05
-4.5864e-06
-4.59924e-05
1.68936e-06
4.43167e-05
-1.4478e-05
4.23675e-06
0.00100951
0.00252554
0.000363853
-0.000212916
-0.000150935
-0.00155678
-0.000264688
0.000545741
0.000210996
0.000528349
-0.000456385
-7.19617e-05
0.0200202
-0.00221978
0.000303776
-0.00012517
-0.00490646
0.00776834
-0.0226561
-0.0182089
0.040865
-4.97631e-05
3.78667e-06
-0.00217404
0.00210214
7.18967e-05
0.001087
-0.00265522
0.00156819
0.0126694
-0.0122351
-0.000434309
0.0139507
0.00190321
-0.0700938
0.0474377
5.77644e-06
7.02452e-05
-7.601e-05
6.5581e-06
-2.25182e-05
1.59456e-05
0.0126045
-0.00774566
-0.00485887
-0.00555294
-0.00346162
0.00901456
-0.00275468
-0.00279826
-0.000295553
0.0183585
-0.0180629
-0.00717151
0.0189324
-0.0117609
0.0914075
-0.0361558
-0.0552517
0.000272328
9.15241e-05
0.0180415
-0.0271819
0.00914043
0.000966436
-0.00219832
0.00123188
-0.00276646
0.00306006
-0.000293599
0.00812889
-0.0156968
0.00756791
-7.50419e-05
4.58913e-05
2.91578e-05
0.000126429
-0.000102093
-2.43411e-05
2.32037e-05
-1.66126e-05
2.14765e-05
-5.26336e-06
-1.62225e-05
-0.0251206
-0.00104579
0.0261664
5.99661e-06
0.000522347
-7.25416e-06
9.75023e-05
-9.02486e-05
-0.000140656
0.0128101
0.0215207
0.00294207
-0.0244628
0.00339843
0.0141844
-0.0175829
-0.000119467
0.00372797
-0.0036085
-0.0430608
0.0487028
-0.00564196
5.41835e-05
0.0016414
-0.00169558
-0.00115386
0.00224084
-0.0063375
0.032147
-0.000858685
0.000330218
0.000528464
-0.00205533
0.00434459
0.000120085
-0.000281546
0.00016146
-0.000830152
0.0018996
-0.00106944
-0.111856
-0.0220029
-3.53018e-05
-3.97382e-05
4.66585e-05
-0.00010673
6.00643e-05
-5.40771e-05
7.20782e-05
-1.79866e-05
-0.00395479
-0.000195821
-0.0010607
-1.70474e-05
0.00107774
0.000754883
-0.00193286
0.00117796
-0.000115696
0.000102888
-8.14432e-05
0.000103326
-2.1885e-05
-0.0178549
0.0289555
-0.0111007
-6.35513e-05
-5.61672e-05
0.000119716
-0.0108956
-0.00498856
0.0158841
-0.0101266
0.0135251
0.0125272
-0.0532354
0.0122178
-0.00308906
-0.00912875
-0.0226447
-0.00334193
0.0259866
-0.000464751
0.000500727
-3.59747e-05
-0.000413865
0.000202365
0.000211508
-0.000743439
-0.00143062
0.00986335
0.00293321
-0.0127966
0.0215403
-0.00015665
0.000429894
-0.000273238
-0.000155581
-0.000309174
2.00006e-05
-2.61907e-05
6.17492e-06
-0.00214009
-0.00192037
0.00337533
-0.00750964
0.0041343
0.0367921
-0.0187506
-3.57486e-06
2.35946e-05
-0.0043185
-0.0133786
0.017697
0.000700492
-0.00140619
0.000705695
-4.86918e-05
-3.33514e-06
5.20372e-05
0.000235944
-0.000164738
-6.07129e-06
-7.11124e-07
6.75445e-06
-0.0069179
0.0209164
-0.0139985
0.000452449
0.00125249
-0.00170493
3.15981e-05
-1.77939e-05
-1.38122e-05
-0.000332632
0.00128711
-0.0106465
-0.0151491
-3.32747e-05
-3.69235e-08
3.33353e-05
-0.000415641
1.79049e-06
0.00166571
0.00819764
-4.839e-05
4.84171e-05
-4.11488e-06
-2.91461e-05
-0.0881579
0.126184
0.00745536
-0.00408004
2.36154e-06
-1.50396e-05
1.27087e-05
-7.25095e-05
7.49003e-05
-2.39147e-06
-3.42269e-05
9.32865e-05
-5.90595e-05
0.0104923
0.00211221
-1.63912e-05
0.000252339
-0.00242472
-0.00737616
0.102445
0.0117924
0.0796151
-0.00110543
0.000371505
0.000733937
0.121768
-0.109976
0.0016669
-0.00113498
-0.000531934
0.000452731
-3.42244e-06
0.00379373
0.00133558
-0.00512931
8.5329e-05
-7.95515e-05
4.51068e-05
1.46601e-05
-5.97554e-05
0.000341109
-0.000221028
-0.000107958
4.44018e-05
0.0240572
-5.53179e-05
6.99057e-05
-1.45686e-05
1.42458e-05
-1.18826e-05
0.00184043
-0.00115082
-0.000689606
0.0281757
-0.0135338
-0.0146419
0.0164985
-0.0322108
0.0157124
-0.0150208
0.0107022
8.19392e-05
4.45002e-05
0.000782683
0.000603325
-0.00138602
-2.02085e-05
7.2812e-06
1.28929e-05
8.51118e-05
-0.00010358
1.8459e-05
-0.017914
0.0144524
0.000411129
-0.000521127
0.000109994
-0.00571381
0.00950754
2.22428e-05
6.0189e-05
-0.0183565
0.0156018
7.53935e-05
-0.000737562
-7.34883e-05
9.81551e-05
-2.46611e-05
0.0109434
-0.0326819
8.55744e-06
1.29156e-05
0.000174252
-7.93288e-05
-9.49272e-05
-3.56929e-05
0.000120802
-6.63797e-05
2.8021e-05
3.83451e-05
7.71632e-05
0.000226557
-0.000303722
-0.00332916
0.000562698
0.00180381
-0.000837372
5.02602e-06
-8.17224e-06
3.16449e-06
4.47641e-06
0.000295444
-0.00029992
-0.00722202
-0.0178986
-3.86866e-06
4.89863e-05
-0.00135721
-0.00039803
0.00175524
-1.62091e-06
-2.53605e-05
2.6993e-05
0.00254202
-0.00213088
-0.000698586
-0.000160099
8.94793e-05
0.000363248
-0.0114725
-0.00137194
0.0128444
2.5927e-05
-0.00108664
2.11307e-05
-3.19005e-05
1.07742e-05
-3.2916e-05
-3.34725e-05
0.0346767
-0.0181782
4.92204e-05
-5.30861e-05
-0.087065
0.0509092
0.00121107
0.000455826
-0.000960046
0.000355359
0.000604686
-0.0102782
0.00600555
-3.39894e-05
8.72564e-06
2.52716e-05
6.66153e-05
-0.000368155
0.000301541
0.00101028
-0.00010409
-8.84422e-06
0.000112924
0.00262409
-0.0042875
-8.85339e-06
5.18445e-07
8.33236e-06
-1.53963e-05
1.53939e-05
4.68024e-09
-0.00139235
0.00144654
5.80639e-05
-9.22934e-05
-0.00112066
0.00535567
-0.00423499
-0.0215584
0.00166745
0.0198909
0.0249755
0.0172614
-0.00913253
0.000805796
-7.79299e-05
-0.000727872
0.000556336
-0.000900673
0.000344338
-0.00278082
0.0243015
0.000154842
-0.000195576
4.07366e-05
-9.10157e-05
0.000873701
0.0687966
-0.0215876
-0.047209
-0.000646825
-0.000313239
-4.82703e-05
-5.82109e-06
-0.000872613
-0.000232813
-0.01452
-0.0125189
0.0270389
-8.89178e-05
1.45811e-05
7.4328e-05
-0.000117595
3.16162e-05
8.59771e-05
0.00777216
-0.014071
0.00629881
-0.00011104
6.94895e-06
0.00660738
-0.0186809
0.0120735
0.000160339
5.75473e-05
-0.000217886
0.000636306
2.70715e-05
-0.000663388
-9.27575e-06
1.30131e-05
-3.74119e-06
-0.000110795
-0.000164208
0.00027499
-4.08651e-05
-7.82637e-06
0.0280816
-0.0690262
0.0409447
1.51653e-05
-4.92311e-06
-1.02424e-05
1.31057e-05
-3.53815e-05
2.2287e-05
-0.0036572
0.0165836
-0.0129264
0.0119152
0.00379371
-0.0157089
0.0129746
-0.0132701
-0.000119742
-2.45904e-06
0.000122203
0.000772969
-0.000136668
0.000247388
-8.7047e-05
4.05452e-05
-0.000121994
0.00165168
-0.00255218
0.000900498
0.00467672
-0.00149
-0.00318671
-0.00054464
0.000663743
-0.000119115
-9.34821e-06
9.21516e-06
1.50292e-07
-0.000163354
-0.000530763
0.000694116
-6.83728e-06
7.6569e-07
0.011935
-0.0160312
0.00409618
6.04167e-06
9.12466e-06
0.00339044
-0.00238092
0.0305944
-0.0296732
-0.000921169
-1.21277e-05
3.32545e-05
0.000390145
-0.000283211
-0.00102834
0.00131156
-0.00186199
-0.00534092
0.0072029
0.0151224
-0.00851499
-0.0184878
-0.024573
5.62712e-06
-2.58402e-05
-0.000113187
-4.41819e-06
-0.00289459
0.0229148
-0.0732775
0.0232467
0.0500308
6.4406e-06
-0.000115136
0.000108698
0.0139154
-0.00614324
8.63868e-06
-9.34906e-06
4.28195e-05
0.000359372
-0.000402197
0.00121217
-0.000511687
-0.0201016
-0.0501754
0.0702771
-5.80495e-05
-2.37286e-05
8.17718e-05
0.000313716
0.000141563
-0.000455284
0.00634662
-0.00303926
-0.00330737
-0.0145144
-0.058763
7.93149e-06
-0.0001353
0.000127378
-9.37447e-05
0.00146703
-0.000930157
-0.000536862
-0.0570099
0.0627545
-0.00574455
-0.0241783
0.00261992
0.000750661
-0.0019015
-0.00258236
-0.00228912
0.00487149
-4.65257e-05
-1.36721e-05
6.01911e-05
1.87311e-05
-0.000970484
0.00239764
-0.00142715
0.0408968
-0.0208939
-0.0200029
-0.000228042
0.00012943
9.86227e-05
0.00751131
0.004723
-0.0122343
-1.4033e-05
0.000168876
-0.000102552
0.000110481
-0.000346901
0.00019025
-0.00106282
0.00271448
0.00688413
-0.00032269
-0.00656143
0.00668881
-0.000342184
-2.13242e-05
0.0519245
-0.0276107
-0.0243138
0.00165227
-0.000897384
-0.00132481
-0.000885212
-3.94932e-05
5.41547e-05
0.00104468
-0.0188995
-0.00313439
0.00795903
-0.00482464
-0.00109762
0.00110336
-5.75181e-06
-0.0166129
0.0175388
0.000136691
-0.00013024
4.50556e-06
-5.3857e-06
8.90492e-07
-6.73266e-06
7.3882e-06
-6.49494e-07
0.000446277
0.00102075
0.0028802
0.0380166
0.019313
0.0172402
-0.0365532
-2.55485e-05
6.06603e-05
-3.51278e-05
-1.33365e-05
3.43503e-05
-2.10056e-05
0.0248381
0.0270864
0.000825127
-0.0190247
0.0181996
0.00122133
-0.00693514
0.000404105
-0.000398106
-6.0618e-05
5.3366e-05
-0.000514724
0.000991762
-0.000477039
-0.0183407
0.0191659
0.0120645
-0.00455322
-0.00114935
0.000853055
0.000296289
0.0638355
-0.0513083
6.93422e-05
-4.42808e-05
-2.50536e-05
0.000412716
-0.000369896
0.000244141
-0.000239665
-9.23978e-05
0.000159888
-0.00112639
0.00029896
0.000827419
-5.94998e-05
0.000103328
-4.38252e-05
-0.0191628
0.0122449
5.75344e-05
-0.000439207
0.000381667
2.64256e-05
-5.19715e-05
0.000859943
-0.000922387
6.24417e-05
0.000318117
0.000111779
-0.000140215
0.000544316
0.0144033
0.0137724
-0.000714291
-0.000435066
0.000208792
-0.000118328
-9.04731e-05
-0.00112417
0.00326199
-0.00213784
2.21754e-05
-3.78504e-05
1.56862e-05
5.85208e-05
0.000255191
0.00126721
-0.00225905
0.000991821
-0.0014489
0.000351248
-0.00127118
0.000131383
0.00113979
-9.12875e-05
-2.84548e-05
-8.63477e-05
-0.0013337
0.00142006
1.42961e-05
2.79953e-05
-4.22894e-05
0.000332122
-0.00291448
-6.98659e-05
0.00819441
-0.00812457
-9.39448e-06
1.62445e-05
-6.8392e-06
6.72178e-05
-5.75003e-05
-9.73444e-06
-0.0016462
0.000375047
0.000469755
-0.000633107
-0.000242251
0.000203608
3.86414e-05
1.81621e-05
-0.000100234
4.07326e-05
2.69815e-05
0.000181813
0.010277
-0.00495023
0.0269086
-0.0118284
0.0115097
0.0129497
-0.0244594
-0.00572681
0.000192145
0.00553466
0.000344502
-0.0014709
0.0159995
-0.0109634
-0.00503608
3.51374e-05
-0.000484226
0.00104056
0.00969041
-0.00846907
-0.0166787
0.0121981
0.00448053
0.00239126
0.00735585
-0.0097471
-0.00278054
0.000255986
0.00252457
0.0074604
-0.00379254
0.00171783
0.0020747
0.0279396
-0.00735501
-0.0205846
3.62002e-05
-0.00016894
0.000132737
2.03288e-05
-4.71675e-05
-0.00641917
0.00872905
-0.00230988
-0.0123745
0.00595535
0.0239527
-0.00844737
-0.0155053
4.75446e-05
-0.000289795
-0.00869333
0.0110846
0.0155848
-0.00364975
-6.39003e-05
3.09778e-05
0.021177
0.00676254
5.84059e-05
8.80352e-06
-3.0885e-05
4.51836e-05
1.90495e-06
6.72033e-06
2.33222e-05
8.27553e-06
-3.04385e-05
7.98889e-05
-4.94622e-05
0.000110327
-7.41248e-05
-0.000730546
0.000561608
0.000168953
0.000112596
-9.59981e-05
-1.65988e-05
0.000813211
4.67312e-05
-9.2951e-06
-2.85802e-05
3.78715e-05
0.00667014
0.0571653
0.00427979
-0.00435154
7.17486e-05
0.0657716
-0.0178615
-0.0187305
0.00725808
7.67383e-07
0.000111836
-0.00345527
0.0153704
0.000156182
-0.000518808
0.000362627
0.0324338
0.0333378
-2.24569e-05
-8.48978e-05
0.000107358
2.65163e-06
-1.76923e-05
-0.00134813
0.00356239
-0.00221426
-0.0215183
0.000461068
0.0210572
0.000104729
0.0220259
-0.00762261
-0.0137455
0.000788947
-0.00356949
0.0156275
-0.0169995
0.00085174
-0.0131718
0.0123201
0.0134431
-0.0125914
-0.00319314
0.00333771
-0.000144602
7.2928e-05
1.19448e-05
-8.48687e-05
3.51793e-05
-4.12586e-05
6.07742e-06
-0.00301024
-0.00271656
0.000819756
-0.000906101
0.0169331
-0.0366197
-0.000420975
0.000848319
-0.000427342
-0.000861053
0.000316406
-0.000226599
0.000316826
-9.02293e-05
-3.26361e-05
2.33256e-05
-5.33263e-06
-4.12004e-05
-0.00722087
-0.000171568
-9.57017e-05
0.000267269
0.00243698
0.0281574
0.00290019
0.00455517
0.00448443
-0.00583256
-0.000348975
0.000505158
1.6392e-05
-1.88471e-05
2.46827e-06
0.00234325
0.0136562
-2.72176e-05
2.13851e-05
5.84352e-06
-0.000330137
0.00155391
-0.00158399
-0.00160916
-6.47577e-05
-1.79609e-05
8.2728e-05
2.2118e-08
-4.24195e-05
6.88526e-05
2.75684e-05
-2.91784e-05
-0.00296994
0.00285048
0.00544153
0.00638564
-0.0118272
0.00305049
-0.00275982
-0.000290661
0.00224455
-0.00188123
-0.000363319
-0.000881251
-0.00506719
-0.00107671
0.00614389
-0.0415681
0.0270537
0.000620953
-5.66146e-05
-0.000564343
0.0138621
0.0100905
2.29718e-05
-0.000115367
-0.024244
0.0205868
-7.80531e-07
1.50258e-05
2.40452e-05
-6.64526e-05
1.99111e-07
-1.56043e-05
0.0182069
-0.0157202
-0.00248669
0.0642885
-0.0206798
-0.0436087
-0.000904421
-0.00513162
0.00603603
0.0010211
-0.00608828
0.00338261
0.028707
-0.0469159
-0.00694504
1.97949e-05
-0.0012739
0.000990695
7.50931e-05
-9.75536e-05
0.00966671
-0.0512347
1.37338e-05
-1.25321e-05
-1.20044e-06
-0.0228177
-0.0096506
0.0324683
-0.0634644
0.00599102
0.0574734
0.00365786
0.00249559
-0.00615345
-0.000712985
-0.000105173
0.000818155
-0.0010328
0.000385965
0.0162672
-0.0133347
-0.00293249
0.00290393
-0.0663683
0.022116
-0.0120049
9.9509e-08
-8.94058e-06
-0.000747168
0.00057035
0.000176817
-0.000721784
0.00409634
0.0027878
-2.5379e-05
2.69092e-05
-1.49574e-06
-0.000152946
0.000103234
4.97092e-05
-0.000496246
0.00302181
3.82519e-05
-0.00361327
-0.000493303
0.00410658
-0.0456381
-0.0173934
0.0630315
-1.12843e-05
1.92519e-06
-3.22671e-05
-2.52498e-05
-0.00122667
-0.0131973
0.014424
-0.00255377
0.00119655
-5.02084e-06
9.52687e-06
-0.0241641
0.00151938
8.3501e-05
-1.05641e-05
-0.00066303
4.10491e-05
-6.10155e-05
1.99562e-05
0.0075721
-0.00705873
-0.00051337
-0.000116725
-0.000173685
0.000290406
-1.46572e-05
-0.00120465
0.000171846
0.00382118
-0.00494537
6.42017e-05
-0.000120375
0.000873942
-0.000174358
-0.00069958
7.144e-06
-6.24693e-05
0.0062228
-0.000176458
-0.00604633
0.0135762
-0.0217403
0.00816406
5.09579e-05
-5.0974e-05
9.23874e-05
4.63821e-05
-0.000138767
-4.66985e-05
1.20466e-05
3.63763e-05
-0.0124561
-0.00325605
0.0157122
-6.42067e-05
0.000147153
-8.295e-05
0.0164907
-0.0195797
9.44199e-05
-0.000103259
-6.95079e-06
2.33359e-05
0.0263325
-0.0217823
-0.00455019
6.40012e-05
-0.000776989
0.000114353
-7.01416e-06
-0.000107339
-0.00301668
0.00923949
0.000377999
0.00024295
0.0584516
-0.0352049
-0.018346
0.00745038
-4.47362e-05
1.24603e-05
0.0313188
-0.0320494
-1.79705e-06
-8.30948e-05
-0.00429482
0.00213211
0.00216272
3.83131e-06
-7.26063e-05
6.87758e-05
-0.000110678
-0.00920527
0.00931592
3.22406e-06
9.2369e-06
-1.247e-05
-0.0147279
-0.000968905
0.0202475
-0.023098
0.00285057
-2.73062e-05
4.80378e-06
0.00192492
-0.00494159
-0.00884305
0.00432538
0.00451763
0.00065609
0.00273436
-0.0118555
0.00080242
0.0110531
-7.39011e-05
1.40394e-06
-0.00984077
-0.0320753
0.041916
-0.000104174
2.09303e-06
-2.14675e-05
5.54706e-05
-3.39992e-05
-4.52726e-05
-1.04553e-05
5.57348e-05
-6.91994e-05
2.68487e-05
4.23308e-05
-3.5317e-05
-0.000136252
-0.000885346
-0.00080777
0.00169312
-0.000906011
-0.00191064
0.00281667
0.00060204
0.0045057
-0.00510775
-0.00633291
1.70595e-05
-1.20193e-05
-0.00460746
0.0135071
-0.00889967
0.0241543
0.0401342
0.000357115
-0.000290498
-0.000204893
0.000500337
0.0294158
0.0290358
0.0838088
0.018636
-0.000513924
0.000403107
-7.33407e-05
1.29878e-05
6.03673e-05
-0.010022
0.00991134
1.25477e-05
-0.0313228
0.0168029
-0.00111231
0.00504653
-0.0031216
0.018096
0.0381017
-0.00183433
0.0181015
-0.0176528
-0.0393571
0.0497876
0.019009
-0.0247735
-0.00581447
0.030588
0.000314151
-0.000236989
-0.0322835
0.00750996
-0.000386132
0.000600965
-0.000214844
-1.05557e-05
1.37861e-05
-0.00496872
0.000918465
9.19171e-05
-0.000844259
0.000752338
7.54897e-05
-9.92255e-05
7.23691e-05
6.01239e-05
-0.000132494
-4.82174e-05
7.62226e-05
4.67472e-05
5.85002e-05
-0.000105258
0.00351361
-0.00463426
0.0023501
0.0036272
-0.00597729
0.0606748
-0.0640168
0.0242335
-0.0698716
-4.27443e-05
5.67654e-05
-1.40077e-05
-0.0135737
0.012347
5.82853e-05
-0.000765679
0.000707383
0.00884513
-0.027505
0.0186598
0.0677223
-0.043568
0.000175357
-2.58885e-06
-3.19775e-06
5.77674e-06
7.78745e-05
-0.00645506
0.0055011
0.000953952
0.00842593
-0.0130334
-0.00011352
3.41897e-05
-0.000410222
0.000879825
-0.000469619
0.0017057
-0.00174555
3.98409e-05
5.8645e-06
1.73373e-05
-0.00630545
0.0105996
-0.00429416
-0.0985265
0.0109524
0.0875741
-0.0217406
0.0132932
-0.000460324
-0.00275748
0.00321781
-0.00025883
0.00022351
0.000159504
1.51752e-05
-0.000174696
8.35342e-05
-5.5033e-05
-9.72962e-06
-0.0121504
0.0265668
-0.0144163
-0.000169069
0.00113673
0.000595924
-0.00173261
4.15684e-05
-0.000462541
-0.00913347
0.0233179
-1.06669e-05
6.08936e-05
5.2999e-05
-0.000113904
-0.0286321
2.39257e-05
-1.80595e-05
-9.10357e-05
0.000166531
-1.85047e-05
2.7242e-05
-1.16021e-05
-6.53136e-05
7.69038e-05
6.45173e-05
-0.000450666
0.00158789
-0.00330672
0.00432781
-1.07043e-07
2.40443e-05
0.0159356
0.00609031
0.0297572
-0.0513448
5.31245e-05
2.4751e-05
-7.78898e-05
-1.06843e-05
1.85282e-05
-7.84703e-06
-0.000279899
5.18472e-05
5.55073e-05
-0.0134072
-0.00811114
0.0356856
-0.0557872
0.0637672
-0.00966886
-0.021654
0.00764819
-0.017489
-0.000377133
-0.000152969
0.000530105
-0.000774729
0.000866642
-0.000597325
0.000624392
-0.00241294
-0.0013796
-0.000472175
0.000802391
-9.14019e-06
6.5615e-06
0.000394598
0.00190713
-0.00176751
-0.000139613
-0.00484003
0.00639318
-0.00155317
-0.0326345
0.0252795
0.000562041
-0.000972263
-0.000670556
0.000547168
0.00012339
-5.50888e-05
-1.84721e-05
7.35285e-05
0.00254185
-0.00249834
-4.3507e-05
0.000831039
-0.00110514
0.000274079
-0.0186847
0.00682923
0.00145815
0.000963084
-0.00242122
-3.35112e-05
0.000127927
-0.00245894
0.00265108
-3.18371e-06
-2.21839e-05
0.0001918
-0.000428728
0.000236928
0.00369825
-0.00460268
9.24176e-05
5.08249e-06
-3.77433e-05
0.000112831
0.00226766
0.00201213
0.000160701
-0.000120398
-4.03067e-05
0.00441977
0.0140302
0.00417666
0.00423403
0.000442686
0.00209523
0.000324869
-0.0024201
-0.000494184
0.00163091
1.34871e-05
-6.85791e-05
0.000644335
-0.0255979
0.0249536
-0.00310913
-0.025503
0.0158342
1.74098e-06
-4.25942e-05
-3.68892e-05
1.27784e-05
2.41278e-05
-0.00139111
0.00105849
-0.000550308
0.000663416
-0.000113122
0.00604104
0.00958643
0.000164273
-0.000282216
0.000117946
-0.00596957
-0.0120357
0.0180053
-0.0396954
0.0155313
-6.55104e-06
-2.06635e-05
0.000508498
0.000309569
-0.00017287
6.76501e-05
-7.98933e-05
1.22305e-05
-4.03362e-06
1.32806e-05
7.12426e-05
-8.2848e-05
0.00092037
-0.000216359
-0.000704009
0.00198238
0.000262176
0.00405176
0.00352033
2.31928e-05
-2.33165e-05
-0.0166212
0.00901797
0.00760327
-0.00393083
-0.0117952
-0.00482604
-3.12138e-05
-6.63651e-05
9.75499e-05
-2.64394e-06
-8.23925e-06
1.08871e-05
1.66468e-05
-5.29227e-06
-1.13633e-05
0.00655986
0.00313055
0.0196061
-0.0193841
-0.000222067
0.000147989
0.000260594
-0.000408572
-0.000155099
0.000201277
0.000108298
-1.52475e-05
-3.59841e-06
-1.21491e-05
-4.38263e-05
5.59602e-05
-2.10602e-05
6.68729e-05
-4.5823e-05
-0.000480039
0.00284997
-0.00236996
0.0194843
0.0198508
-0.0393351
6.04804e-05
0.00010022
-8.75944e-06
3.19406e-05
-7.10601e-05
1.8566e-06
-5.49222e-05
3.38502e-05
0.0323271
-0.0152144
-0.0171128
-0.0130599
0.0170402
-0.00398037
0.00121703
-0.0018703
0.00947482
-0.00760453
0.0362911
-0.0683664
6.45816e-05
-0.000102323
-0.00281141
0.00190542
0.022577
-0.000986898
0.0352168
-0.0590843
0.000121565
-1.82431e-05
-0.00302582
-0.00030352
0.00045152
0.000516413
-0.0192386
3.31253e-06
0.108128
9.69984e-06
4.03625e-06
0.000457031
-0.000422403
0.000596446
-0.000701621
-7.68707e-05
-9.3649e-05
0.000170543
0.000139756
0.000277526
-0.000417282
0.016232
-0.0253655
-5.4231e-05
3.27587e-05
-6.43789e-05
-0.0137323
0.0385704
-0.0178478
0.0404922
-0.0226444
0.00189988
-0.000441711
-0.00630267
0.0110257
-0.0237129
0.0105411
-2.34346e-05
6.29687e-05
-9.41821e-05
0.00809154
0.018241
0.00170245
3.23453e-06
-0.00829101
0.00642903
-6.51966e-05
0.000229467
3.25196e-05
-2.59209e-05
-6.59724e-06
-6.74844e-06
-2.6581e-05
3.33371e-05
-1.13373e-05
0.0321379
-0.0244897
-0.00241268
0.000158968
0.00225371
0.000234077
-0.000604441
0.000370368
-8.16717e-05
4.9481e-05
3.22004e-05
0.0268297
-0.0132535
0.000327984
0.000176442
-0.000504426
8.42961e-06
8.21843e-06
-0.00249633
-0.0102823
0.0127787
0.0369256
0.0258288
0.000290506
-9.94699e-05
-0.000191037
-5.12305e-06
0.00021156
-0.000151077
-6.82326e-06
0.00089453
-0.000887713
-0.00582502
-0.00294116
0.00876617
0.000657039
-0.00140049
-4.86326e-06
0.000835887
0.000812171
-0.00107795
0.000265791
-0.000101014
-0.00971455
-0.0145294
0.00527576
0.00825129
-0.0135271
0.0061738
-0.00251594
1.97018e-05
-0.000127523
0.000107821
0.00700499
0.00145664
-0.00320421
0.00174755
-0.00149313
0.00277944
-0.00128629
-0.000483459
-0.00217175
-5.22325e-06
-3.16663e-05
-8.89099e-05
-0.000302225
0.000185497
-5.06439e-05
6.41228e-05
0.0127701
-0.0152664
0.000605704
-0.00126669
0.000660989
0.00256149
-0.00512343
0.00181671
0.00579914
0.00215988
-6.75086e-05
-0.0346262
5.05806e-05
-2.70525e-06
-4.78946e-05
0.00479435
-1.29436e-05
8.92515e-06
5.46127e-05
-0.000122707
6.80937e-05
-8.83778e-05
3.37225e-05
5.46804e-05
-0.000190716
-0.000248497
-7.86552e-05
-2.15935e-05
1.51126e-05
6.46114e-06
-0.100941
0.00159386
0.0993472
-7.94828e-05
2.4451e-05
0.000851362
-0.000858193
-1.20762e-05
1.178e-06
1.08998e-05
0.000674439
0.000798136
-0.00147258
0.000936138
-0.00129848
0.000362331
0.0339813
-0.0016542
0.0231275
-0.00501147
-0.018116
6.75635e-06
3.90572e-05
-4.58239e-05
0.0098052
-0.0374159
0.00956887
-0.0114392
-0.000166752
0.000731002
-0.000574454
-0.000156531
0.000185838
0.000271189
-1.80499e-05
5.91007e-05
0.0053253
0.00177752
-0.00710286
-0.00854067
0.000795007
-0.0193126
0.0291178
9.08007e-05
0.000384784
-0.000475583
-5.48962e-05
-2.65662e-05
0.0706263
-0.00288002
-0.00534043
0.00822043
-0.00773263
-0.00275069
0.0104833
0.000585744
0.000267315
-0.00337016
0.00869547
-5.20181e-05
-2.1313e-05
-0.000343239
0.00101768
-0.00045955
-0.000235284
-0.00570395
-0.0262131
0.0319171
0.00201984
0.00333583
-0.0297543
0.000141666
6.98923e-05
-0.00227497
-0.00189253
0.000750548
0.00114199
-0.00120908
0.000738366
-0.000504276
-0.0217682
-0.00265688
0.024425
0.00572911
-0.00512707
-1.67941e-05
-6.26996e-05
0.0136802
0.00396002
-0.0176403
0.0186548
-0.0180105
-0.00912291
-0.0105054
0.0196283
-0.0464482
0.0286004
0.00200359
0.000678095
-0.00268169
0.00879316
-0.0433892
0.034596
0.00248738
-0.00288035
0.000392961
-6.86951e-05
0.00330505
-0.0063153
-0.0218058
0.02076
0.00869164
-8.62733e-05
-4.15273e-05
0.000127819
2.28501e-05
-2.26708e-05
-1.51845e-07
-0.00169739
0.00066905
-0.0266842
0.00420489
0.0224794
1.41334e-05
1.16782e-05
-2.5815e-05
-0.00420154
-0.00950017
0.0137017
3.13237e-06
2.93921e-05
6.4849e-05
-0.000127256
6.24021e-05
-0.000427226
0.000912153
-4.89979e-06
-0.000907267
-0.0209443
-0.00276859
6.97596e-05
-2.11548e-06
-4.56854e-05
1.4791e-05
0.00245473
-0.00827974
-0.0024468
0.00196676
-0.00107711
0.00167302
-0.00163212
0.00146594
0.000166177
0.0154359
-0.00248615
-0.0120273
-0.00971325
0.00400815
0.015598
0.00163241
-0.000379915
-5.83011e-05
0.000871516
-0.000125966
0.000101403
-9.75695e-05
-0.103326
-0.00853012
-0.000583795
0.000197785
0.000386009
-0.000113227
1.75235e-05
0.00637155
-0.00188711
0.00068822
-0.00447753
-0.0107889
-0.0238714
0.0147485
0.000809899
-0.000751617
-1.77598e-05
0.000106014
-8.82554e-05
0.000413063
-0.000399297
-1.37649e-05
7.80254e-05
-2.48988e-05
-0.000403105
0.000288424
-0.000148671
0.0134489
-0.0388978
0.0254488
6.08314e-05
-6.08317e-05
0.000290472
-0.000532488
0.000242011
-7.05242e-06
2.11669e-05
-0.000332727
0.00126886
-8.66367e-05
0.000104729
-1.80973e-05
-0.0142736
0.000370331
0.0139033
-0.000335564
9.88722e-05
0.000314192
0.00196517
0.000854706
-0.000486034
-0.000368674
-0.00906492
0.0020062
-2.50736e-05
3.71208e-05
-0.00160664
-0.067752
0.0027411
0.0163435
-0.0190846
-0.000155459
0.000300048
-0.000144583
-4.02287e-05
0.000952376
-2.10038e-06
0.000131531
0.0107947
0.0205241
-0.000145058
6.88587e-05
7.61967e-05
-0.000335838
0.000171628
0.00767864
-2.69609e-05
0.000878318
-0.0211065
0.0298996
0.00247148
0.00390007
-1.48384e-05
5.42673e-05
-3.94289e-05
0.000538553
-0.000248045
6.12685e-06
5.47141e-05
0.0866027
0.0395817
0.000135346
-0.000603042
0.00046768
8.1749e-05
-7.4636e-05
-7.12732e-06
0.000299891
-9.92878e-06
-0.000289963
-0.0158609
-0.0123571
0.0421144
-0.0217128
-0.00730987
0.0290227
-1.86581e-05
0.000106256
-8.75983e-05
1.26385e-05
-1.79027e-05
0.079667
-0.0356201
-0.0440469
0.000195179
0.00057779
0.00135536
-0.00411283
-0.000258759
0.000349562
-8.2328e-05
-0.000875762
0.000958083
0.0510438
-0.0402491
0.0152232
-0.0030821
-0.0121411
-0.00198059
8.80529e-05
-3.34663e-06
-1.82633e-05
0.00240963
7.7747e-05
-5.08672e-05
3.56663e-05
1.52047e-05
6.17988e-05
-4.72182e-05
-0.0154277
0.00305315
1.26456e-08
-1.52776e-05
0.0144501
-0.0267579
0.0123078
-0.0341078
0.0437746
0.000116348
-5.14964e-05
-0.000601329
4.35688e-05
-7.56692e-05
-0.000663968
0.000583864
8.00948e-05
-0.00524534
-0.00359772
-0.000232559
-0.00051461
-0.00164095
-0.0201272
2.07836e-05
-0.000107434
0.000661775
-9.14235e-05
-3.06417e-05
8.48918e-05
-4.3027e-05
-7.84133e-06
-1.15566e-05
0.000126338
-0.000114774
0.000128936
-1.25926e-05
0.000716882
-0.000129587
-0.000587302
-9.16584e-05
8.46331e-05
-0.00126387
0.000960357
7.82821e-05
-9.60477e-05
0.000328169
-0.00198459
0.0027444
0.00266314
-0.00540755
3.04104e-05
4.44984e-05
0.010036
-0.0221864
-0.0128629
0.00513025
-0.00429604
0.00319966
0.00109636
-0.000452562
0.00105826
0.000127002
0.000875754
-0.00100275
-1.42777e-05
-0.000475905
4.71766e-05
-0.0087392
0.00339829
0.0486657
-0.0665694
0.0123875
0.0541819
-0.00928249
-0.0107264
0.0200088
-0.00057837
0.00173412
-0.00115575
-0.00807952
3.3731e-05
-3.19905e-05
0.000445151
0.000409552
0.000226219
-0.0243697
-3.38454e-05
4.06022e-05
-0.013153
0.0247276
-0.0115746
0.000101712
-3.8756e-05
1.53711e-05
0.0419827
-0.0250496
-0.00184664
0.000931698
0.000914933
0.0017553
-0.0120335
0.000161265
2.40748e-05
-0.00738217
3.37509e-05
-2.31613e-05
-2.25278e-05
0.000595332
-0.000546479
-4.88474e-05
0.000123321
-1.75915e-06
-0.00218505
0.00170156
-6.77795e-05
-6.87001e-06
-0.00387912
0.00143231
-1.95573e-05
0.0152427
-0.0120821
0.00620868
0.00587341
0.0169094
0.0235829
8.34427e-05
-1.90705e-06
5.24862e-05
-0.00164249
-0.000616559
0.000100666
-5.39199e-05
-6.45476e-05
-0.00154085
2.50232e-05
0.00151583
1.32945e-05
-5.39017e-05
4.06131e-05
9.46577e-06
-3.56005e-05
2.61022e-05
-8.96363e-05
7.97302e-06
2.78973e-06
-1.218e-05
0.000792853
-0.0305554
0.0500397
0.0162662
0.00563569
-0.0027355
0.00112369
0.00222242
-0.0033461
8.69474e-05
-2.60603e-05
-0.105547
0.0713029
0.0342445
-0.000487987
-0.000182571
1.21041e-05
-0.0477688
0.015123
0.0326458
0.0232715
0.000406236
-0.0236778
0.0090398
0.0309874
-0.0400272
-8.8151e-05
-1.8577e-05
0.0124155
0.00651692
0.000640773
-0.0129979
-0.0031427
0.0105669
-0.00742416
1.55748e-05
9.28137e-06
-2.48728e-05
0.00754176
-0.00996649
-0.000588913
-0.000677784
3.58524e-05
0.000292129
0.000347845
0.000247479
3.82868e-06
-1.96774e-05
1.58593e-05
-0.0334948
0.0332052
0.000289581
0.0253827
-0.00672792
0.00478404
4.86752e-05
-0.000125532
4.05022e-05
7.94495e-05
-0.000119958
0.100862
0.0209062
-0.000103787
-4.12754e-05
-0.024865
0.00111774
0.0499261
0.126853
-0.122471
-0.00438149
-0.00918856
0.0040041
0.00518448
0.0360314
0.00301208
-0.0390435
1.70285e-05
5.84159e-06
1.85018e-06
9.45725e-05
-9.64203e-05
0.019362
-0.0147192
-0.00464288
-0.0058884
0.00571196
-0.000231381
-0.000153357
0.000384744
-0.00899786
-0.00171659
0.00113822
-1.1638e-05
2.49246e-05
-0.00085477
0.000772446
0.0851447
-0.066306
-0.0188387
-2.33023e-05
3.27507e-05
-0.00109795
-0.00166187
0.00443033
-0.000424842
-0.00400549
0.107314
-0.0207115
0.00256935
0.0033945
-0.00596388
2.40334e-05
-3.07783e-05
6.36281e-05
-2.77173e-05
-3.59088e-05
4.36987e-05
5.74077e-05
-0.000101096
0.00141107
-0.00651707
0.00510601
-0.091919
0.0649035
0.0270155
2.66422e-05
-1.10654e-05
-5.19902e-05
5.19813e-05
-9.82858e-05
0.000146964
-0.00182652
-0.000371803
1.68584e-06
-5.53966e-06
3.85332e-06
2.15399e-05
-0.000119806
9.18655e-05
-5.13236e-05
0.000909654
-0.000625638
-0.000284014
0.000453217
-0.00286586
-0.0063891
0.000476565
-0.00408983
-1.3978e-05
-7.43922e-05
-0.000451081
-0.000132702
-0.00910992
0.0151968
-0.00608689
3.68268e-05
4.07757e-05
0.0100011
0.0212552
-0.0116477
-0.00960751
-0.00150719
0.00131822
0.000189
1.47818e-06
3.93853e-05
-4.08289e-05
0.000125102
-0.00104749
9.51634e-05
-2.28009e-05
1.02139e-05
6.01901e-06
-7.48268e-05
0.000118526
0.001115
-0.000944307
-0.000170693
-0.000433582
-0.0012126
-0.0540191
0.0333393
-0.000247773
0.0171152
-5.41327e-05
-9.88752e-07
5.50958e-05
-6.9916e-06
1.53885e-07
-9.33848e-05
1.58044e-05
7.75765e-05
-0.0508502
-0.0546972
-0.00154551
0.102379
-0.100834
-1.18804e-05
3.71038e-06
0.000735905
0.00017375
0.0141155
-0.00867393
-0.000517897
0.00036008
0.000157808
4.27017e-06
4.66985e-05
0.00709961
0.113973
-0.121072
-0.000154817
0.00107517
0.0153408
-0.0191362
0.00379549
-0.00395268
0.0121469
-0.0081942
-0.000714946
5.97569e-06
0.000708942
-0.000761579
0.000302038
-0.000861785
-0.000679067
0.000753284
0.0132769
-3.1777e-05
-0.000733899
-0.00810304
0.0441345
0.0186838
-0.0312027
-1.76143e-05
0.00826374
0.00875872
-0.0170225
1.60663e-05
-1.4385e-05
-0.000246496
0.000311771
-4.25206e-06
-0.000307515
6.01075e-05
-0.000150726
9.06147e-05
0.000782272
-4.40688e-05