/*--------------------------------*- C++ -*----------------------------------*\
| =========                 |                                                 |
| \\      /  F ield         | OpenFOAM: The Open Source CFD Toolbox           |
|  \\    /   O peration     | Version:  v2012                                 |
|   \\  /    A nd           | Website:  www.openfoam.com                      |
|    \\/     M anipulation  |                                                 |
\*---------------------------------------------------------------------------*/
FoamFile
{
    version     2.0;
    format      ascii;
    class       volScalarField;
    location    "400";
    object      omega_0;
}
// * * * * * * * * * * * * * * * * * * * * * * * * * * * * * * * * * * * * * //

dimensions      [0 0 -1 0 0 0 0];


internalField   nonuniform List<scalar> 
13851
(
0.0233671
1.44098
0.0803807
0.0231172
0.0731817
0.0723415
0.0216029
0.0458983
0.0206186
0.112016
0.292237
2.05466
2.71676
3.08258
0.0213782
0.032575
0.0245922
0.0286984
1.00011
0.0206179
0.0228964
0.0771422
0.0213266
0.022029
0.0215556
0.0471601
0.0238723
18.9391
0.0231806
0.0240681
0.0766376
0.0249261
0.0770665
0.473818
0.021869
0.151499
0.0946778
0.168464
0.125278
0.498116
0.0212792
0.0197304
6.97334
0.28887
0.302308
3.94256
0.291033
0.707322
0.0240696
0.313863
0.0678666
0.127414
6.27003
0.0214521
0.0222461
0.0197322
0.0210486
7.14488
0.0238535
0.0216326
0.178432
3.30584
0.0517455
0.08613
0.325566
0.0248958
0.0484211
0.296616
0.0332354
0.0286192
8.21924
1.58558
1.43994
0.0217062
0.0208434
0.0208237
0.0726203
4.97626
0.0453062
7.44715
0.0218363
0.23301
0.0213392
3.92822
0.0722886
2.05778
0.055774
1.54946
0.0250066
0.0208019
0.151036
0.0631229
0.303724
0.027271
0.0247993
0.021777
0.0761133
2.94449
0.375714
0.0219163
4.30307
0.0476133
0.022162
0.0238165
0.0210593
0.023467
0.0518809
0.019642
3.07915
0.0588686
0.0221289
0.0208839
0.0284951
0.0225686
0.0219963
0.978719
2.92821
0.0196069
0.0225584
0.0226687
7.39037
0.023647
2.78076
0.598584
0.690237
0.0215308
0.704667
0.0464109
0.0227446
0.124687
0.0212598
0.0207008
6.23883
0.0213424
0.908763
0.0207754
0.0195907
1.4719
2.73614
2.1403
4.33149
0.0222319
0.0227546
0.0200377
0.0231019
0.282218
0.0706333
0.127475
0.0215887
0.320537
0.072123
0.0222978
3.42805
0.0210827
0.0227373
0.0230179
0.0209775
0.0229942
0.127246
0.0662131
0.0197443
0.027182
7.02362
0.0206892
0.027474
0.0198838
0.0803305
0.0335554
0.0226077
6.40808
6.87693
0.0203739
0.0209943
2.1392
0.0206852
0.685841
0.0449192
0.0226226
1.36407
0.0196518
0.0255941
2.07106
0.0213421
0.0817111
0.0196502
0.0214392
0.0250252
0.0216685
0.0850887
0.134283
0.286344
6.1336
0.0211849
0.0330843
2.92181
0.0226079
0.0223853
0.430934
0.0223981
0.0208506
0.0216145
4.14861
0.023646
0.0212342
0.0890298
0.0213536
2.16958
0.0247556
3.1191
0.0196571
3.32747
0.0220454
0.4097
0.0196139
0.019969
0.25226
0.065163
3.70107
0.0213395
3.04832
0.0249566
0.0218791
3.0437
0.122132
3.37186
0.021615
0.0290414
0.0213446
5.10477
0.0196128
0.0457349
0.121111
0.0203518
0.0210655
0.060692
0.0430843
2.17176
0.995376
0.0200258
0.0212454
0.0426978
0.419462
0.0202016
0.102475
0.0206913
3.15774
0.0488686
0.51303
0.0231005
0.025469
0.0281747
0.416204
0.0218659
0.023166
0.0493616
0.972023
0.109641
1.87379
23.7195
0.0214273
0.0199817
0.0275843
0.0953023
0.0204367
2.23223
0.0226065
0.0218252
0.026799
3.0704
0.0718387
0.0285196
0.0227354
0.102692
0.0429058
0.0317448
0.0207006
0.233764
0.0682677
3.69576
0.29721
0.0201622
0.0196224
0.021009
0.0477736
0.168135
0.612357
0.0207244
0.0214358
0.0795003
0.228063
0.136823
0.023555
0.0216422
0.0356836
0.230097
2.02361
0.0268353
1.92112
0.0207208
3.18716
0.0267558
0.0244622
3.63582
0.0215886
0.0388405
3.02288
0.0207022
0.0412467
0.0274342
0.0233343
2.85263
0.0270725
0.0218047
2.97549
0.0197743
0.0257234
0.0235087
3.74413
0.115576
0.0213455
0.0483645
0.0213829
10.4671
0.0315903
0.0212837
0.0212115
0.111612
0.0284771
0.0226885
0.0214399
0.0215633
0.0217672
0.298663
3.94856
5.56835
0.0323251
3.68711
2.29921
0.0212688
0.0337855
0.1414
0.133365
0.0576307
0.109309
1.16605
0.0254153
0.448529
3.0806
0.0213404
0.245507
0.251967
0.166134
0.0226931
0.0634658
5.2926
0.0210216
0.579093
0.0212025
0.0213885
0.0204494
0.0196401
0.020924
3.1492
0.365276
0.021341
0.0397312
0.0198223
1.79956
0.038796
0.548512
6.044
0.0213515
0.0669423
0.0276466
0.626174
0.0211924
0.0196347
0.0286299
4.03107
0.0212234
2.62243
0.126125
0.119292
6.00957
0.299791
0.299848
0.0295233
0.0207623
0.0222209
0.0308966
0.0481024
3.04483
0.0331977
3.44968
3.05046
0.0198338
0.021435
5.94912
4.80596
0.10607
2.92759
0.0314838
0.0283031
0.0218689
2.18238
0.0204741
0.0320697
0.0266507
0.0215428
0.0212185
0.0206783
0.0198737
0.083347
0.0518226
7.46836
0.029434
0.0506039
0.0335804
0.413209
0.0263281
0.169189
0.024199
0.263335
0.0195706
0.0206597
0.0216799
0.130151
0.479895
0.11935
0.0329932
10.4601
0.440294
0.0499458
0.0229398
0.0620224
0.0211712
0.422808
0.0210481
0.169351
0.426249
0.0719885
3.25615
0.0227945
0.160962
0.432384
3.39551
0.0195296
0.0293912
0.0461304
0.0700309
0.020441
0.0217761
0.067949
0.119371
0.0351099
1.74388
0.0215057
0.0212806
3.54733
0.0280847
0.0196108
1.49674
0.0207526
0.0233328
0.0205134
0.039464
0.0226346
0.0196404
0.022613
2.98951
0.0213494
0.0353401
0.0206492
0.032499
0.212265
0.0227667
0.0212346
0.0226533
0.0226717
0.56854
0.0217987
0.0634583
0.0213432
0.0216052
3.56885
3.43102
0.021378
0.0305062
0.0265009
0.419353
3.94414
0.0212915
0.372907
0.0212147
0.0747204
0.0215753
4.09028
0.0196692
6.47611
0.108509
0.0197449
0.0301824
3.82096
0.0472724
0.305965
0.0223143
0.379244
0.022808
0.0206302
0.0207062
0.0215508
3.87304
0.0600926
0.126778
0.994286
0.0621761
0.0197762
2.76563
0.480574
0.0257909
0.027385
0.420395
0.585224
3.36285
0.0224515
4.08137
4.08369
4.0206
0.0276572
0.0268886
0.763619
0.141649
0.99253
0.43502
0.464615
0.023167
0.634811
2.71562
0.0195754
0.0818958
0.0618839
4.22994
0.023283
0.0212193
0.020954
0.0212397
0.0819454
0.0390672
1.66304
1.68819
0.0206242
3.81703
3.21597
0.185041
0.465512
0.0349184
0.0195925
0.0206383
0.21164
2.80818
0.0228366
0.0864894
0.153288
0.0197181
0.0396574
0.706588
0.23063
0.106443
3.60798
2.67201
0.0212364
0.0215532
1.45789
3.01507
0.124759
0.0329738
0.0895592
0.0196534
0.0210969
0.194834
0.0197036
0.0232218
0.0196393
0.0207359
2.82733
0.0817295
0.0298262
0.0196922
2.63407
0.400015
0.0207482
0.0207795
0.0204792
0.0218414
4.06213
0.484985
0.457546
3.89098
0.382906
0.0314755
5.50294
3.30787
0.0261931
0.0338422
0.0195877
0.022596
0.0346349
2.99176
0.415341
0.0845348
0.028476
0.0205812
0.03225
0.0225154
0.301303
0.067275
0.0213327
0.033358
0.0204463
0.0266585
0.122337
0.0216105
0.0211507
0.0394534
0.0215833
0.0756042
0.151377
0.116997
0.032656
0.129765
0.0205688
0.0964208
0.0295076
3.52982
0.0219838
0.0218579
2.86161
0.0235664
5.87752
3.06849
3.67117
1.49981
0.0204738
2.09012
0.0201377
0.0207827
0.0196885
0.0207934
0.0222267
0.0300962
0.0374469
0.0196807
1.99088
0.147489
2.19668
0.0208882
0.0198308
0.0208006
0.132975
2.61391
0.0495925
0.0268715
0.0202163
0.0216838
0.0212916
0.0210232
0.145848
2.10009
0.0215607
0.0196707
0.021562
0.021018
0.251371
6.48437
0.0327695
3.11913
0.462967
0.0211324
0.122584
3.65061
0.0351287
2.20914
0.021819
0.0277641
0.0486821
0.0281343
0.384148
0.0213673
0.760709
0.0211034
0.0296448
3.05644
0.0209072
0.0229246
0.064554
0.0206389
0.0251573
0.0708716
2.2224
0.0654541
1.76049
0.305684
0.0196264
0.020867
3.35697
0.146674
0.0461364
3.09578
0.0205126
0.0239013
0.0195917
0.437518
0.443313
0.0253879
0.0218088
0.1857
0.0242215
0.0207407
4.03648
0.884044
2.92836
0.0197596
0.0215539
5.06602
8.61294
0.142616
0.0221996
3.2898
0.0213547
0.213067
0.141154
0.0780908
0.0247428
3.69287
0.0284013
0.0233757
0.134845
0.0217985
0.0233964
0.02279
0.0205518
3.70179
0.0316271
0.110095
0.0295968
0.100581
0.0206005
0.0751101
0.0222124
0.0295239
0.0198866
0.021098
0.021247
2.99238
0.0209441
0.0197235
0.72518
0.0215721
3.99218
0.021297
0.0225375
0.0660046
0.291415
0.359664
0.0207737
0.0890769
2.9675
0.0218335
3.16515
0.0291423
0.0205253
0.0208943
5.47729
0.0902012
0.0256299
0.0207527
0.0196531
0.457118
0.0886733
0.0639239
0.0264015
0.0276733
0.022049
0.022395
0.085411
0.440534
0.08269
0.272365
0.021534
0.076779
0.0786298
3.7752
0.0252795
2.1784
0.620873
0.021584
4.30473
0.0896722
2.7948
2.30116
2.93544
0.350818
0.0409814
0.0205402
0.0303529
7.53256
4.10649
0.0211417
0.0217009
0.062277
0.239346
0.0197687
6.65028
0.0204914
0.0213567
3.55285
4.98182
0.305294
0.0207782
0.0214006
6.53123
0.183259
0.114753
0.0236876
4.1926
0.204121
2.51468
0.0509347
0.0388847
0.0217992
0.0215672
1.33108
0.0479108
5.65044
0.0310718
0.0326951
3.73585
2.94943
3.50924
0.0214272
0.030082
0.0207362
0.0332341
0.0228539
2.18629
0.0241795
3.11771
0.0197682
0.0642068
0.0211133
0.168476
0.0323228
0.0294884
3.03248
0.0415862
0.042545
0.022138
0.0638766
0.684224
0.0793685
0.0233043
7.08284
0.0203491
2.42356
0.364956
0.0215959
3.30674
4.19905
3.65138
0.353037
0.0291243
0.0211231
2.97911
0.0240723
1.04216
3.118
0.020897
0.0225876
0.177335
0.376072
2.24175
0.0215221
0.0207037
1.44686
3.08365
0.109415
0.0251689
0.0229733
0.364396
3.78099
0.0818416
0.0197366
0.0421904
0.0206577
0.0229579
0.277695
0.0219641
0.181519
0.440049
0.0213637
0.0229361
0.0211535
0.0228201
5.91792
4.45218
0.0290147
2.1655
0.0211115
0.0291227
0.0210866
0.0206676
0.0215218
0.0213489
3.95855
0.021379
0.0486565
0.021431
0.025766
0.291033
7.34036
0.0224144
1.40268
0.0724209
0.892263
0.0323049
0.0327294
7.82965
0.0266911
0.040634
2.12249
0.980478
5.44658
0.0403507
0.317415
0.0218767
0.0402435
0.0485629
2.20161
0.0211285
2.16179
0.0208508
0.0209046
2.74505
0.0215301
2.28389
0.0250093
0.02072
0.0375901
0.0207347
0.0214097
0.0196202
0.0217692
0.225127
0.0209133
0.185438
3.73254
0.072332
2.20826
0.0215494
0.0224064
0.0264274
0.0212487
0.0207143
0.0743974
0.0218426
0.0207881
0.0218489
0.0215584
3.88648
2.02975
0.0578047
2.92871
0.131932
0.0210917
0.582608
0.0283593
0.0209074
0.37581
0.273586
0.536889
0.0209533
0.288098
0.389056
5.02834
0.0203472
2.70973
0.0306293
0.0239646
0.0188706
0.0205213
1.32975
0.092247
0.543656
0.0208501
0.0213005
0.708757
0.0216096
0.257029
0.355038
1.82365
1.34628
0.405855
0.0215515
0.0213046
0.0655165
0.0319047
0.0236151
0.133319
0.0416092
0.0218745
0.022857
2.17809
0.0208013
4.14745
2.18136
0.977975
0.226233
0.022442
0.0201525
0.0216834
0.317119
0.43814
0.0203593
0.0229677
0.0208253
0.072685
0.0198318
0.0207811
0.0219202
0.0321833
0.207081
0.0414903
0.0331588
0.0212611
0.0491503
2.35995
0.0221265
4.45457
1.18643
0.0765979
0.0199374
0.0425622
0.0212159
0.0212946
0.0216094
4.79503
0.115549
0.472818
0.0237095
0.233454
0.0212662
0.0211899
0.0215996
0.575776
1.11089
0.0197212
0.0318382
0.0556498
3.5262
0.0227526
1.7239
0.0211237
2.2137
0.0873404
3.21268
0.0864138
0.0748272
0.13426
3.12094
0.421305
4.2101
0.0210554
0.138451
0.0198184
0.0233839
0.0259724
0.0215873
3.16423
0.0292137
0.027243
0.35381
0.172436
0.628571
0.0213638
0.0235229
0.0258428
0.0202315
0.0323179
1.44411
0.513606
0.344367
0.0208986
0.0267628
0.0241618
0.712021
2.95181
0.0641422
0.0201359
0.0217942
3.85319
0.0458823
0.291326
2.66274
0.0366416
0.0199223
2.40116
0.0310832
0.0421244
0.0281613
3.22498
0.317422
0.119128
0.0977932
0.0222251
0.0298226
0.0213648
5.23038
0.0472871
3.26994
0.122115
0.0257851
0.137888
0.0226096
3.26171
0.156499
0.0208037
2.2116
2.99682
2.18837
3.00832
0.0216553
0.0213268
5.39751
2.44244
3.84575
0.0225444
0.0215579
0.0213551
3.80541
0.13897
0.0217501
0.436195
0.0929028
2.08359
2.35249
0.564129
0.021418
3.17807
0.0245081
0.0212187
0.133192
2.82001
0.0216079
0.0208412
10.4789
3.19686
0.0213714
0.0209011
2.16217
0.0206814
0.220272
0.0208717
0.596561
0.0213211
0.0498319
0.436144
2.97283
0.0223864
6.25355
0.440446
1.76242
2.17991
2.18983
0.0196969
0.0211491
0.773522
0.0227889
0.0213758
0.0202119
0.541109
0.0211153
0.135199
0.0208569
0.0233524
5.30565
0.072167
0.149699
0.0227535
0.0485364
0.0206976
0.0315207
1.9496
3.86357
0.02068
0.0618331
0.323312
0.0215526
0.0205295
2.98336
0.0337036
0.0345628
0.125694
2.16618
1.10571
1.3829
2.76795
0.032912
0.274066
0.457382
1.86286
0.0621505
0.0200575
0.122768
0.0211367
0.0209443
2.06799
3.01293
0.0230949
3.75563
0.0940071
4.15496
0.27595
0.0531221
0.0212019
0.113108
0.26163
0.0209341
0.0224807
3.07405
2.91762
1.56437
3.28473
0.037415
3.17594
3.16688
0.0312214
0.0217741
0.0210158
0.229534
0.0209858
0.16385
0.0222257
0.0220233
0.0233072
2.55153
3.65938
4.12664
0.021836
2.47208
0.0248984
0.0289112
0.0208297
0.0208057
7.5917
0.0267826
3.31146
1.35415
0.500519
0.11025
0.0214338
0.0399417
0.0215586
0.139532
0.0224178
0.022642
0.0217427
0.0222382
0.142435
0.0220771
0.0345305
0.0209869
0.0353079
0.222619
5.79086
0.0210258
0.0459115
0.0214789
0.221731
0.0213397
2.61263
0.365567
0.0309861
0.0235878
0.0225594
0.337401
0.0212263
0.167795
0.0214229
0.0208988
0.0222689
2.96377
0.0267243
0.0243914
0.0306913
0.0214338
0.0613515
2.93751
1.95467
0.0349355
0.0213747
0.178084
0.0201326
0.0209883
0.227405
3.09513
0.0211798
0.0296766
0.0891236
2.55392
0.0217929
0.02199
3.12919
0.0225106
0.243768
0.108733
3.7203
0.0213322
0.0210922
0.0212351
3.31552
0.127404
0.0413348
0.112883
3.87672
0.0223066
3.56404
0.476046
0.0215645
2.61909
0.0771936
0.0222718
7.91574
0.0215262
0.0211693
0.0204679
0.15938
0.252913
0.145332
0.0227088
0.0221942
0.0291389
0.351631
0.11101
3.60958
0.317286
0.0219586
0.130043
0.127008
4.08444
0.0837376
0.238009
0.0209984
0.0280753
0.0205366
0.877568
0.0353332
0.0212274
2.09449
0.225481
0.0320997
0.0263638
0.0196639
0.0213504
0.0566776
0.0338989
0.693693
0.0623775
0.0692927
0.0671088
0.110475
1.83681
0.57504
3.54043
0.0210378
0.0207967
0.246444
3.43337
4.28782
0.0566715
0.0221998
7.77643
0.318325
0.0209354
0.0259972
0.0206889
0.0395927
0.0651257
0.0484926
6.28422
0.132258
0.0225236
2.70119
7.13091
0.021412
0.102732
2.84093
3.78518
0.0237167
0.0715137
0.0196057
0.0229355
0.0209874
0.0250498
3.51038
3.76106
6.18117
5.41763
0.0225222
0.0331729
0.0567134
0.0209707
0.0216358
0.0205297
3.00318
0.020949
3.38158
0.0352969
0.0602339
0.13597
0.242005
4.5361
2.79351
0.039132
0.0198505
0.0162434
2.65691
1.90897
0.0245706
0.0207042
0.0205044
0.0639556
0.0300228
0.137491
1.30843
0.0224889
0.020486
0.116799
0.173992
6.32247
1.05044
0.0209353
0.0673299
0.0215027
3.6106
0.0199763
3.17404
0.0208633
0.0224093
0.0336073
0.0218105
0.252673
0.0294012
0.0449642
6.38529
2.91685
0.0249478
0.0293865
0.0211945
2.74165
4.69655
0.0216154
0.0200293
0.337289
0.0195575
3.77928
0.0213313
0.0358832
0.0740731
0.737181
0.0369608
0.0226717
0.0215813
0.0670235
3.12058
0.0211495
0.932765
4.04947
0.76039
1.4271
0.0323663
3.81866
0.0251494
0.235204
0.0212678
0.321437
0.316941
3.69444
3.75287
1.75407
0.0215425
0.0369438
0.0208312
9.02558
0.383638
3.00663
6.76479
0.0266423
1.20748
0.686212
0.0338626
0.022711
0.0215988
3.37275
0.0253583
0.0652514
0.0230874
0.0216079
0.0206754
0.0215126
2.91286
0.23389
0.0306436
3.86401
2.40492
0.0212242
0.0212994
0.0205129
0.0302157
3.14971
0.216045
0.0252715
0.0245743
1.1309
0.081925
0.0427779
7.03198
0.0297577
3.4186
0.0293318
0.0301305
0.0212764
0.02306
0.0655139
0.409704
0.325809
3.16595
0.0709352
3.81832
0.0259932
0.024263
0.0215437
6.71643
3.24371
0.453028
0.206365
0.0235018
0.0213804
0.0208929
0.0214187
0.0205449
4.63111
0.0289313
5.8709
0.0312525
2.63189
0.15513
3.15791
0.0345286
0.0255659
3.99078
0.0380874
1.45675
3.29574
0.02062
0.442421
0.02708
3.58553
4.60559
0.0337175
0.602788
0.514823
0.0227405
0.0533856
0.023773
3.30499
0.360259
0.0238364
0.0215769
0.31736
1.27212
0.124671
0.897927
0.121568
0.0295972
0.0210256
2.12023
3.10571
0.0911672
0.0298948
2.90998
2.5465
0.0208472
0.0214025
0.0240661
3.06086
2.99131
0.0213355
4.33712
0.021978
0.0210391
0.0215657
5.24323
0.253049
0.126564
4.30976
0.0228778
0.0226286
0.0209612
4.29165
0.0221086
3.92937
0.0236846
1.55363
0.0217813
0.0211368
0.118219
4.66557
0.353288
0.0351928
1.78618
0.0200001
0.0214903
0.0214127
0.0435781
0.0607239
0.0608066
0.0362332
3.18813
0.0242947
0.121186
0.118608
2.01968
0.0213859
3.43958
3.06235
0.0247875
0.37871
0.0620816
4.3199
0.0215812
0.0816568
0.0210513
1.06519
7.64432
0.092367
3.28704
0.0235175
0.0470079
0.0224132
3.95019
0.0199101
0.0206958
0.656442
0.10706
3.6408
2.00313
0.0604383
0.0283248
0.0204529
0.142177
0.0321347
0.0210093
0.140943
0.0197577
0.0413029
0.0213714
0.63423
0.0223322
0.280754
0.326776
0.0331587
0.0850979
0.0599091
3.65119
0.0212729
0.634999
1.58395
0.020585
0.0213498
0.0227811
0.0218062
0.0394874
0.0211195
0.514154
0.072276
0.167247
0.527841
0.0214696
0.0218339
0.0204447
2.94229
0.0215108
0.0212567
0.141597
0.0237915
1.28131
3.29473
0.084207
0.023981
0.0331575
0.0225784
0.0219625
0.0694426
0.0200902
0.0240156
5.99959
3.26235
0.798711
0.0225261
3.60402
0.987167
0.0218221
0.125293
3.06384
0.0213506
0.0234731
0.021309
2.94741
3.42433
0.616837
0.0200714
0.0239595
0.0231949
0.0215779
0.124552
0.0215248
0.334738
7.09344
3.44994
0.0205815
0.0237734
0.0234422
3.2479
0.0196566
3.64365
6.62307
0.275525
0.974662
5.51606
0.548801
0.0226869
0.599141
0.51366
0.0223451
0.0204357
0.0208559
3.25678
3.66092
3.78305
0.0212487
3.45461
0.0215626
0.137286
0.0204421
0.0230964
0.0222633
0.0205811
3.27756
0.0223516
2.25385
2.63839
3.64629
0.0476564
0.0490856
3.43595
3.08956
0.0217105
6.80238
0.020454
0.0196703
0.0212893
0.118013
0.0206575
5.81877
0.0304616
0.146202
0.0369258
6.3572
4.3758
0.113204
0.0205565
0.0602229
0.0847688
3.26723
0.0214139
0.0198113
0.0227853
2.44081
0.0215975
0.226698
5.87368
0.0400716
0.0613766
0.0214252
0.415321
0.0217572
3.19366
0.020137
4.22499
0.0307498
0.0215067
5.74851
3.71136
0.020172
0.0623318
0.0243336
3.67366
0.143226
0.132702
0.196427
0.0217629
0.0598819
3.16373
0.021037
0.105326
0.0230789
0.07379
0.0320136
7.96315
3.31807
0.0215207
3.47027
0.0223222
0.0425216
2.9468
5.69767
0.0347123
3.09631
0.232241
0.021587
0.278677
0.124769
0.0302805
0.0223437
2.66465
0.0201942
5.59872
0.185033
0.113999
0.0213445
0.0317583
3.30549
0.0435781
2.56144
0.0220256
0.0237231
0.0938213
2.73391
0.025791
3.10661
0.585212
5.41514
0.0215864
2.69249
1.08415
3.2063
0.0213925
0.01853
0.0212775
3.19392
0.0271935
0.421689
0.385773
0.0217968
0.0202578
0.0213649
3.20549
1.50925
4.23224
4.10001
0.0209495
3.77731
3.13926
0.128335
3.54055
3.13946
0.0344368
6.29323
0.0232688
0.0254119
2.7071
2.73373
0.0226346
3.99355
0.0217184
0.0213925
2.09425
3.32716
3.54287
8.69005
0.030401
0.0217963
0.0230848
3.26102
3.71713
0.0211621
0.0448325
0.450591
0.0214246
0.0215054
3.02281
3.6358
0.0229478
0.0214297
0.0222654
0.0225558
0.733002
0.021801
0.0210956
0.0254033
2.12616
3.88138
0.69352
2.82359
0.0215304
0.024586
2.92505
3.14044
0.027904
0.0988234
0.0213274
0.0355449
0.0226751
0.0233379
0.0716958
0.0210429
0.487943
0.0318243
0.0207939
0.0242805
1.53769
1.52022
3.63237
0.0214366
0.0245132
3.22797
0.518205
0.023879
0.0213242
0.021475
0.31392
0.0215176
0.0216276
0.0276716
0.021336
2.94002
0.0747053
0.0217506
0.0240812
0.0200113
0.0215203
1.50724
0.486158
0.0656439
3.58311
0.366064
0.0218451
0.0213034
0.0215015
0.0212394
0.0217277
0.0234647
0.0964159
2.9281
0.0225746
0.104821
3.54952
0.148047
0.0212107
0.0207278
0.0234365
1.99356
0.0211926
0.220554
0.10766
0.0406618
0.0220198
6.76615
0.0200375
0.29315
0.020263
0.0200599
0.021639
0.0207668
0.0374309
2.74941
0.0683124
0.0386089
2.3227
1.07609
0.910541
0.0315688
3.28205
3.75338
0.103812
1.81174
3.05378
0.10779
0.408379
0.0218192
0.020673
1.5339
0.0209969
0.0241293
2.14937
0.244142
1.66646
0.739686
0.0207412
0.015149
0.0214777
0.345185
0.0204184
0.235895
3.36492
2.95731
0.778467
0.021468
0.0202241
0.0673931
3.36587
2.96416
0.119857
0.170797
0.020856
0.446727
3.4767
0.0657978
0.023801
0.0214993
0.0199523
0.0232542
0.0214187
0.0212977
0.0239112
2.97055
0.0719349
3.28865
0.533073
0.21648
0.153075
0.0212595
0.0208456
0.0219259
0.0204304
0.0217807
0.51011
1.46665
0.915842
3.40921
0.0233251
4.12612
0.119154
3.13973
3.2277
0.0214786
0.0207585
0.347367
0.0214654
0.0201795
0.457985
2.95079
1.44498
0.0213888
0.0215067
0.0248447
0.0383765
0.826181
0.0204709
0.024078
0.47358
0.0204197
0.426174
0.0376615
2.12481
0.0217738
0.135092
2.99072
0.0344429
3.22379
0.103618
3.3426
0.0200089
0.02487
0.020811
0.0293465
4.88098
0.0214263
6.5863
0.021765
0.0214527
0.0214383
3.29785
0.042303
0.105805
0.569081
0.0204825
0.0433436
8.69509
0.0599524
0.0207174
0.0229746
0.0214679
0.0488978
0.0212667
0.0208456
3.45521
3.51387
3.17273
0.680481
0.790814
4.71098
0.0664879
3.55135
0.123446
0.0199552
0.0209642
0.0195786
0.0216102
3.29982
3.24756
0.0203272
6.02596
3.32451
0.0289105
0.0224878
0.0244342
2.54701
2.98832
2.9972
1.89735
2.98034
0.0195623
0.173138
0.095742
0.233636
2.79807
0.0213277
0.125886
6.54309
0.0317467
2.71553
0.0217911
0.260379
5.44166
3.0745
0.0707664
0.0309264
5.01201
0.125967
3.13329
3.1352
2.93006
0.107546
2.58136
0.0215221
0.0253655
0.0445173
4.12251
0.312628
3.42951
0.0218129
0.1182
0.0887587
0.022054
3.08463
0.0213482
0.126988
3.94804
0.0213573
1.99073
1.97175
3.15075
2.58604
0.319735
0.50513
0.0210615
3.33893
0.0216653
0.0208203
0.0400165
0.0238197
3.1151
0.0240076
0.0245678
0.024045
0.0207615
1.37799
0.0228518
0.111901
0.306698
0.0206056
3.5746
0.0954397
0.0226291
10.664
0.135261
0.0213308
0.144076
0.0220618
3.29356
0.538233
0.0203685
0.111201
0.0229002
3.42754
3.01476
0.0676517
1.09221
0.0255977
0.0214816
2.11706
0.0240255
0.0212806
1.50622
0.0394671
0.0208612
0.020782
0.128922
0.0227365
3.85395
0.173009
0.227219
4.37789
0.049638
0.0639789
0.021096
3.46868
6.21341
3.23642
0.0213995
0.020238
0.0676895
0.0299758
0.421744
0.0213062
0.484294
0.021198
2.11307
0.0216091
0.245165
0.174061
0.109356
3.50196
1.17354
3.03302
3.03356
0.0196897
0.203498
0.437835
4.57454
0.0209115
0.193686
5.86164
3.80267
0.110696
0.882291
0.613591
3.56138
0.0439625
0.185997
0.0205706
0.0451986
0.0404378
0.0213107
0.0663868
3.91785
0.408016
3.573
0.175119
0.0211517
0.0207962
0.0299102
0.0213198
0.603843
0.020503
0.0207626
3.71409
0.231833
0.0339654
0.0961281
0.0222427
0.0998085
4.32254
3.07788
4.36043
0.0252879
3.0478
0.022972
0.0203919
0.0231523
3.24569
0.228931
0.187106
0.239048
0.0223096
0.0208097
0.0213173
0.0218341
0.026375
3.97885
0.422802
0.0286562
3.1162
3.91511
0.534256
4.36106
0.0214184
0.0295907
0.992672
0.0214029
0.0174893
0.0269001
0.0239076
3.42722
3.09581
0.0204949
0.0383188
0.0294008
0.0749798
3.23999
2.08716
3.49353
0.021624
0.0788178
3.37323
0.078068
0.109985
0.513423
2.58613
3.63913
3.54051
0.0204747
2.57445
0.0203006
0.022991
0.0213265
0.0618191
3.61338
7.03669
0.546061
3.79912
0.0579603
0.0201362
0.020731
0.021507
0.0228603
0.0417882
3.58825
3.42637
0.0729779
0.753568
0.0216234
0.0570881
0.0206492
3.13096
0.0786327
0.0215314
0.156401
0.0955427
1.93433
3.64804
0.132794
5.45978
0.0246235
3.17635
0.186868
2.89125
0.374968
0.0228385
0.0571892
0.0214757
2.96783
4.86654
0.040529
3.40466
0.137382
2.53809
0.0686093
0.293003
0.0425742
0.0208107
0.115693
0.0667026
0.0240802
0.0584472
0.0305822
0.0323371
9.38077
0.144656
0.02313
0.0297762
0.0363825
0.0312909
0.0227293
2.41083
0.106333
0.282789
4.35631
0.0213826
3.1877
0.0214569
0.024269
0.0233959
3.14311
0.0369294
3.2183
4.25491
0.0617444
0.0916805
0.11442
1.98345
0.131793
1.153
0.0241156
0.0434369
0.0208782
3.20479
0.477832
0.0240307
0.0214325
0.0362664
0.0258976
0.0242555
0.0466993
0.0380579
0.0215958
0.0329107
4.76184
4.21779
0.0849492
0.0398208
0.0197894
2.1167
0.0321161
0.0609304
1.05534
0.0418069
1.81446
0.020206
0.0242121
0.0241828
0.0323702
0.0211955
3.31104
0.290277
1.83645
0.0359495
3.14764
0.2326
0.0254677
1.99597
0.062551
0.23622
3.79125
0.0481375
0.0240237
0.0386929
0.0682374
0.0245741
0.430028
3.7504
0.378418
0.0208881
0.234364
0.265696
1.72513
0.0212532
0.0424974
0.0210655
0.0301116
1.70809
0.0291032
0.0288317
0.0208707
0.0207224
2.26052
3.20221
0.02134
2.2327
0.238031
0.0201421
0.0313944
3.23881
0.111658
0.0963875
0.0213676
0.0271285
0.144989
0.0215507
0.0210331
2.15436
0.0290928
3.2769
0.0804888
0.0261076
3.59134
0.125267
0.142639
0.0209135
0.411418
0.0297018
0.0266085
1.58334
0.0392334
0.0215498
0.096701
0.0243444
0.0258891
0.0201114
0.965429
0.0213464
0.073041
1.39119
0.0959353
0.0207848
0.253759
0.0306176
3.46741
0.183282
3.52507
0.111951
3.06521
0.0206905
0.0713318
0.0252627
0.0211147
0.405589
0.246005
0.024766
1.05058
0.028083
0.0675256
3.56303
0.0258965
0.542228
1.05172
3.9443
2.13446
2.17457
0.0145571
0.0207253
0.0774759
0.0346138
0.885034
1.63123
3.10927
2.24367
3.23949
0.0206786
0.584499
0.0213964
0.0224071
0.021552
0.502697
0.165815
0.101556
0.0210157
7.28275
0.0273387
3.69194
0.0208386
0.0714143
0.0300848
0.0655442
0.0428614
0.0970839
0.0227898
0.172736
0.245792
0.0209379
4.39626
0.239177
0.136811
0.0228383
0.0296173
0.0214198
0.0210323
0.0603643
0.0431557
3.62111
0.235861
0.0794611
1.11128
0.0212
1.53393
0.0611688
2.35655
0.0297264
0.0301943
0.403943
0.0306646
0.0426518
1.00845
4.48319
0.0235281
0.0216372
3.01831
0.0313378
0.0236392
0.0274179
0.0294651
0.0204894
0.0262902
3.23273
0.0213112
0.0426879
3.19616
0.105272
0.0659466
2.09269
1.7965
3.39022
2.46786
1.16905
0.0586963
0.961726
0.0226845
0.0246228
0.0214851
0.0209737
7.99434
0.517405
0.0310669
0.0207063
1.07995
0.115447
0.0212919
0.0662054
0.0515452
0.0212117
0.0229963
1.65444
0.0263613
0.0360954
0.0363317
0.0213268
0.169
0.06022
0.0291812
0.645883
0.0921531
2.01522
2.18698
3.20576
0.0233648
4.90898
0.147156
0.144944
0.0734487
2.07681
0.0698437
0.0261455
0.0471637
0.062189
0.0233884
0.0889132
0.0210677
0.0212443
0.0200688
0.0244449
3.26988
0.020376
0.0971823
0.0243687
0.0237553
0.0241916
0.720269
0.0233979
0.067043
0.0215206
0.0242826
0.0248315
0.0206893
0.117523
0.0235133
0.0205239
0.0222517
0.0286146
0.0209241
1.76969
0.0271953
3.40556
0.12854
3.41971
0.057128
0.0957103
0.0250664
0.0394049
0.0372367
0.0248574
1.51563
2.97858
0.710009
0.0741672
0.0309002
0.021363
1.18116
0.0388527
3.18959
0.0215335
0.354642
0.137819
1.26734
1.14214
0.0200899
0.0214078
0.0203205
0.0284683
3.01693
0.0477508
0.487567
0.0256238
0.0286782
0.0209824
0.0218156
0.0332461
0.023679
0.0239147
0.020899
0.177926
0.258238
2.87893
0.024286
0.0961727
0.020673
0.0202557
0.09857
0.0219343
0.0241362
0.0603537
0.0241214
0.0765447
0.0214167
0.0308061
0.0215327
0.0244325
3.19901
0.0211136
0.0235744
0.0226154
0.023856
0.5484
0.021762
0.0471012
1.5135
0.0245121
0.0294298
0.022426
0.0231325
0.021785
0.144145
0.0214492
0.0270434
2.29076
0.0207926
0.0288697
0.0469901
0.063387
3.85498
0.0200658
0.0237281
0.0221247
0.0295947
0.128333
1.12863
6.47393
0.020239
0.0290912
0.0936404
0.0235037
0.407777
0.0199601
0.0215606
1.91603
0.0394177
0.0236257
0.020018
1.70397
0.122546
3.70884
0.0215622
2.06128
0.0199915
0.0205245
0.0235558
0.0733845
3.66439
0.0215182
0.0209009
0.321525
0.0214516
0.0232144
0.115033
3.78361
0.0214511
0.020462
0.0219482
0.0307879
0.131549
3.2274
0.0218669
0.0996962
0.0212065
0.0213432
0.487388
0.023212
0.0218435
0.0300707
0.176886
0.128942
0.0233173
0.0221013
2.56617
0.0395294
0.0223629
2.15563
3.6829
0.02147
0.0217308
0.0230881
0.0213573
0.0214621
0.0208095
0.0202013
0.0396894
0.0230639
0.0466747
0.0454993
2.4173
0.783559
0.0303957
0.0200495
0.0213514
0.022182
0.0231504
0.0390705
0.0286019
0.417112
0.0235981
0.0862579
0.0243607
3.71184
6.31045
0.0284343
0.0225779
0.126195
0.0237915
0.0284541
0.021385
0.0222851
0.0210665
0.278056
0.0501581
0.055917
0.100076
0.0231937
0.026518
0.0222528
3.26697
5.88982
0.364088
0.0268217
0.106863
0.0997137
2.96905
0.0219207
0.108967
0.0606332
0.0213928
0.02178
6.69519
0.0214995
0.0224542
0.0232406
0.944261
0.0214833
0.0217431
0.0253973
2.13496
0.0209187
0.0520662
1.15389
0.023596
0.0215034
0.0211316
0.0214154
0.0217593
0.0217171
0.0900485
0.0222659
0.0214879
0.0217269
0.0217407
0.0284268
0.021367
0.326862
0.021546
0.0217009
0.0386421
0.233334
0.0468883
3.93505
1.03869
3.3067
0.0366569
0.0207902
0.0415589
0.213574
0.0201813
0.431673
0.0234379
1.3075
0.0232873
0.0409807
0.0217441
0.0213806
0.10704
0.249361
1.928
0.315263
3.32235
0.0217142
0.0208703
2.43339
0.020151
0.0214948
3.15099
0.0210101
2.23487
0.0214355
0.163434
0.10029
0.0236946
0.678256
0.0320782
0.0711481
0.682854
0.600411
0.0809378
3.15743
0.555735
2.42041
0.0215443
4.79369
0.0214557
0.0213038
0.0209268
0.0219194
1.35669
0.0223832
4.148
0.0214956
0.0213629
0.0215552
1.10106
0.0216125
0.0206025
0.0577833
0.0252329
0.0267238
0.0250333
0.0282372
0.19357
2.40542
1.05571
1.07545
0.0915836
0.0223492
0.229199
0.0214425
0.0284082
0.0757463
2.71538
0.0500963
3.34628
0.0214658
0.773436
2.06684
0.138967
3.41844
0.319162
0.0234245
0.0213148
0.0240561
0.0214505
0.0212987
1.95307
1.78365
0.0210478
0.19715
0.021411
0.101546
0.0209661
0.220317
0.0283245
0.0233443
0.0205274
0.702612
1.12322
0.341651
0.0205846
0.0206568
0.0262162
0.0217908
0.0221786
0.12027
1.03514
0.0442229
0.752006
0.0452281
0.0217701
0.0347213
0.0820907
0.0218823
3.04441
0.0555504
0.430022
0.023181
0.0241579
0.0202528
0.0196488
0.0213624
0.0263039
0.020664
6.98184
0.0399855
0.953824
0.0212622
0.0475917
0.0214509
0.690536
0.0415886
0.0554054
3.05323
0.0257418
0.0213254
0.0247662
0.0217791
11.6463
0.0971354
0.0448754
0.0549902
3.38826
4.39977
0.105666
0.0503295
0.0213905
0.0230856
0.023212
0.166163
0.705864
0.0260495
0.0215474
0.581716
0.147789
0.0217564
0.0232307
0.0559085
0.0223126
0.0209364
0.0451825
0.0213942
0.0218393
0.020925
0.0235391
0.0220033
0.0542375
6.75399
0.0214538
0.123306
0.0923833
0.102729
0.0209155
0.0214636
0.13586
0.0256756
0.0214266
0.813495
0.0213323
0.0515463
0.0215858
0.0463451
1.94441
0.0564155
0.0225314
0.0642042
1.88683
0.554909
0.0214226
0.0344242
5.13125
0.0211557
0.0222359
0.0737014
11.1543
3.36177
0.0236997
0.0213362
0.125341
0.0211952
0.022255
0.0287708
0.021766
3.42689
0.0217659
0.140024
0.0214495
0.0214582
0.0766418
0.0213575
0.0215407
0.0289863
0.684136
0.0205576
0.118287
0.0218393
0.021101
0.0215354
0.0279854
0.0255201
0.0770712
0.0231421
0.0217442
0.0217996
0.0368736
0.0223575
3.35816
0.0219966
0.103051
0.0331612
0.022619
0.0274461
1.09639
0.0214967
0.0220197
0.0199828
0.0815127
0.465635
0.021529
0.0423745
0.0209181
0.0380632
0.0214187
0.309763
1.53232
0.0235441
0.0253491
0.0276255
0.0946877
0.0219269
0.0207451
0.0454303
0.021392
0.0219627
0.0213314
0.0214656
0.0213139