/*--------------------------------*- C++ -*----------------------------------*\
| =========                 |                                                 |
| \\      /  F ield         | OpenFOAM: The Open Source CFD Toolbox           |
|  \\    /   O peration     | Version:  v2012                                 |
|   \\  /    A nd           | Website:  www.openfoam.com                      |
|    \\/     M anipulation  |                                                 |
\*---------------------------------------------------------------------------*/
FoamFile
{
    version     2.0;
    format      ascii;
    class       volScalarField;
    location    "400";
    object      omega;
}
// * * * * * * * * * * * * * * * * * * * * * * * * * * * * * * * * * * * * * //

dimensions      [0 0 -1 0 0 0 0];


internalField   nonuniform List<scalar> 
13851
(
0.0233672
1.45176
0.0803329
0.0231167
0.0731785
0.0715244
0.0216028
0.0459082
0.0206186
0.111994
0.291934
2.06358
2.7187
3.10095
0.0213779
0.0325872
0.0245967
0.028693
1.00721
0.0206179
0.022896
0.0770448
0.0213267
0.022029
0.0215557
0.0471488
0.0238731
18.9415
0.0231808
0.0240677
0.0777169
0.0249305
0.077006
0.47182
0.021869
0.151662
0.0948706
0.168038
0.125117
0.496625
0.0212792
0.0197305
6.94051
0.28833
0.301488
3.94361
0.290666
0.705572
0.0240731
0.311734
0.0678536
0.127384
6.26555
0.0214521
0.0222469
0.0197322
0.0210485
7.12896
0.0238534
0.0216327
0.177093
3.33674
0.0522434
0.0861305
0.34804
0.0248947
0.0398724
0.296796
0.0332043
0.0286102
8.21625
1.57144
1.44895
0.021706
0.0208441
0.0208238
0.0725274
4.97645
0.0452461
7.44394
0.0218362
0.233119
0.0213393
3.93426
0.0722224
2.06674
0.0556647
1.54226
0.0250088
0.0208016
0.150834
0.0628285
0.30418
0.0272758
0.0248053
0.021777
0.0761215
2.94392
0.374638
0.0219163
4.28131
0.0475828
0.0221622
0.0238253
0.0210593
0.0235895
0.0518467
0.019642
3.06989
0.0579945
0.0221289
0.0208833
0.028345
0.0225686
0.0219963
0.985288
2.92744
0.0196069
0.0225584
0.0226674
7.35412
0.0236588
2.7823
0.605384
0.68852
0.0215147
0.703094
0.046436
0.0227441
0.124699
0.0212599
0.0207008
6.23605
0.0213424
0.920416
0.0207755
0.0195907
1.45511
2.75349
2.13646
4.31955
0.0222328
0.0227559
0.0200375
0.0231031
0.282094
0.0701813
0.127432
0.0215887
0.319705
0.0721978
0.0222974
3.44569
0.0210826
0.0227386
0.0230193
0.0209776
0.0229938
0.127195
0.0662098
0.0197442
0.0271839
6.98196
0.0206892
0.0274721
0.0198838
0.0798231
0.0335124
0.0226073
6.40838
6.87661
0.0203739
0.0209944
2.13502
0.0206852
0.683152
0.0449196
0.0226225
1.37229
0.0196518
0.0255969
2.05462
0.0213421
0.0815242
0.0196502
0.0214391
0.0250269
0.0216683
0.085031
0.134414
0.286267
6.13261
0.0211837
0.0331046
2.94356
0.0226068
0.0223858
0.433124
0.0223972
0.0208506
0.0216174
4.15024
0.0236461
0.0212342
0.0891385
0.0213537
2.16871
0.0247545
3.11813
0.019657
3.32841
0.0220455
0.412094
0.0196138
0.0199689
0.251744
0.06489
3.70497
0.0213395
3.04741
0.0249575
0.0218787
3.04272
0.122088
3.37385
0.021615
0.0290338
0.0213446
5.11682
0.0196128
0.045729
0.122061
0.0203518
0.0210652
0.0607408
0.0430496
2.17154
1.03545
0.0200256
0.0212454
0.0448084
0.419314
0.0202044
0.102564
0.0206913
3.15876
0.0488394
0.513589
0.0230994
0.0254713
0.0281641
0.416147
0.0218652
0.0231662
0.0493568
0.972203
0.109749
1.85914
23.6935
0.0214273
0.0199816
0.0275842
0.0956538
0.0204373
2.24067
0.0226046
0.0218245
0.0268045
3.06976
0.072786
0.0284958
0.0227353
0.105465
0.042858
0.03175
0.0207005
0.233843
0.0670865
3.69859
0.296658
0.0201646
0.0196224
0.0210089
0.0477347
0.160121
0.606762
0.0207245
0.0214358
0.0822061
0.22797
0.136615
0.0235542
0.0216423
0.03571
0.230087
2.03263
0.0268324
1.93126
0.0207208
3.18827
0.0267586
0.0244653
3.63835
0.0215886
0.0394852
3.02207
0.0207022
0.0413013
0.0274341
0.0233338
2.87333
0.027069
0.0218053
2.97398
0.0197743
0.0257264
0.023538
3.7462
0.115604
0.0213456
0.0483889
0.0213829
10.4351
0.0315331
0.0212837
0.0212115
0.111611
0.0284762
0.0226904
0.0214398
0.0215633
0.0217677
0.297954
3.90985
5.58334
0.0322924
3.68887
2.30543
0.0212686
0.0337829
0.141075
0.133006
0.0576
0.109511
1.1771
0.025424
0.438652
3.0805
0.0213402
0.245464
0.252262
0.165377
0.0226941
0.0634501
5.30508
0.0210217
0.569628
0.0212025
0.0213885
0.0204494
0.0196401
0.0209241
3.14941
0.364671
0.0213409
0.0397808
0.0198223
1.80782
0.0388211
0.541146
6.04716
0.0213514
0.0667849
0.0276406
0.619747
0.0211925
0.0196347
0.0286016
3.99887
0.0212235
2.63885
0.126074
0.119404
5.9936
0.299798
0.299952
0.0295459
0.0207623
0.0222211
0.0308737
0.0481629
3.06366
0.0332048
3.45171
3.04992
0.0198338
0.021435
5.94406
4.80349
0.106468
2.92597
0.0316032
0.0282967
0.0218689
2.19254
0.0204741
0.0320841
0.0266525
0.0215427
0.0212185
0.0206784
0.0198736
0.0833145
0.051854
7.44143
0.0294436
0.0506207
0.0336148
0.412971
0.0263268
0.167745
0.024201
0.262435
0.0195706
0.0206598
0.0216799
0.130863
0.479764
0.119478
0.0330474
10.4182
0.437734
0.0505702
0.022939
0.062054
0.0211713
0.421707
0.0210481
0.169718
0.427055
0.0719583
3.25522
0.0227944
0.159666
0.433552
3.37918
0.0195296
0.029388
0.0460916
0.0715703
0.0204409
0.0217759
0.0680286
0.119368
0.0351047
1.74858
0.0215057
0.0212806
3.55295
0.0280796
0.0196108
1.49132
0.0207526
0.0233327
0.0205134
0.0394423
0.0226339
0.0196404
0.0226131
2.98826
0.0213495
0.0352983
0.0206493
0.032514
0.210734
0.0227667
0.0212346
0.0226533
0.0226717
0.563732
0.0217989
0.0636334
0.0213432
0.0216052
3.58514
3.4301
0.0213781
0.030595
0.0265023
0.419067
3.95001
0.0212915
0.372401
0.0212148
0.0746511
0.0215752
4.10996
0.0196692
6.4805
0.108093
0.0197449
0.0302468
3.82112
0.0472703
0.305349
0.0223143
0.381693
0.0228092
0.0206302
0.0207062
0.0215508
3.87147
0.0600981
0.126837
0.989954
0.0621517
0.019776
2.76722
0.48065
0.0257956
0.0273833
0.419985
0.593108
3.3635
0.0224516
4.0998
4.08671
4.01654
0.027655
0.0269146
0.762682
0.140175
0.991767
0.437259
0.469111
0.0231659
0.642466
2.70809
0.0195755
0.0804208
0.0619203
4.22935
0.0232811
0.0212192
0.020954
0.0212397
0.0818737
0.0390358
1.65258
1.69227
0.0206242
3.81663
3.2153
0.17876
0.466188
0.0348673
0.0195925
0.0206384
0.211457
2.80937
0.0228384
0.0864651
0.153521
0.0197181
0.0396595
0.711417
0.2297
0.106355
3.60667
2.66268
0.0212364
0.0215531
1.44902
3.01433
0.124723
0.0330118
0.0880935
0.0196534
0.0210969
0.192779
0.0197037
0.0232209
0.0196393
0.0207358
2.82061
0.0817588
0.0298426
0.0196922
2.65099
0.401415
0.0207482
0.0207795
0.0204795
0.0218414
4.03618
0.486468
0.459696
3.87388
0.381445
0.0315133
5.5027
3.30681
0.0262034
0.0338376
0.0195877
0.0226026
0.0346287
2.99121
0.405072
0.0844786
0.0284862
0.0205812
0.032256
0.0225176
0.301094
0.0672766
0.0213327
0.0333571
0.0204463
0.0266628
0.122537
0.0216105
0.0211507
0.0394739
0.0215833
0.0755748
0.151766
0.116965
0.032665
0.129761
0.0205688
0.0957026
0.0294947
3.51321
0.021984
0.021858
2.85053
0.0235669
5.8679
3.06854
3.68172
1.49398
0.0204738
2.07715
0.0201426
0.0207827
0.0196886
0.0207934
0.0221079
0.0301072
0.0374271
0.0196807
2.001
0.147755
2.2021
0.0208882
0.0198308
0.0208006
0.132832
2.62581
0.0496213
0.0268838
0.0202237
0.0216838
0.0212917
0.0210233
0.147037
2.10502
0.0215607
0.0196707
0.0215619
0.0210181
0.250429
6.46362
0.0327747
3.12122
0.469845
0.0211325
0.122607
3.6185
0.035129
2.2163
0.0218195
0.0277576
0.0486811
0.0281412
0.386305
0.0213673
0.761114
0.0211034
0.0296798
3.05547
0.0209072
0.0229246
0.0628107
0.0206389
0.0251608
0.0690931
2.22297
0.0654441
1.77208
0.305338
0.0196264
0.0208671
3.36927
0.147092
0.0460913
3.0959
0.0205126
0.0239013
0.0195917
0.433125
0.430015
0.0253863
0.0218087
0.184208
0.0242159
0.0207407
4.03158
0.887264
2.92681
0.0197596
0.0215538
5.06596
8.64314
0.142494
0.0222007
3.28687
0.0213548
0.212054
0.141297
0.0781272
0.0247452
3.70324
0.0283846
0.0233631
0.13493
0.0217985
0.023397
0.0227891
0.0205518
3.70284
0.0316425
0.110076
0.0296225
0.0990846
0.0206005
0.0774402
0.0222123
0.0295306
0.0198867
0.0210981
0.0212471
2.9914
0.0209441
0.0197235
0.723653
0.021572
3.99184
0.021297
0.0225383
0.0660922
0.289306
0.359788
0.0207736
0.0899524
2.96869
0.0218331
3.16502
0.029158
0.0205253
0.0208125
5.45784
0.089811
0.0256284
0.0207528
0.0196531
0.457554
0.0886562
0.0641596
0.0264001
0.0273959
0.0220491
0.0223957
0.0855055
0.43874
0.082607
0.264614
0.021534
0.076704
0.0786004
3.77681
0.0252786
2.17162
0.621122
0.021584
4.30697
0.0892867
2.80229
2.30444
2.93363
0.35069
0.0409918
0.0205402
0.0303445
7.52851
4.112
0.0211417
0.0217009
0.0623199
0.239251
0.0197687
6.63119
0.0204914
0.0213567
3.55878
4.98176
0.305021
0.0207782
0.0214006
6.5376
0.183613
0.114667
0.0236875
4.21134
0.20297
2.51881
0.0508705
0.0388991
0.0217994
0.0215671
1.34059
0.0479189
5.64789
0.031185
0.0326667
3.73927
2.9608
3.50882
0.0214272
0.0301143
0.0207362
0.0332451
0.022854
2.19388
0.0241795
3.11832
0.0197682
0.0642767
0.0211133
0.168295
0.032366
0.0295164
3.03258
0.0415558
0.0425216
0.022138
0.063919
0.680315
0.079678
0.0233056
7.0825
0.0203496
2.43031
0.364793
0.0215959
3.30784
4.16602
3.65093
0.352612
0.0291383
0.0211231
2.9776
0.0240722
1.04764
3.11703
0.020897
0.0225891
0.179823
0.376016
2.23187
0.0215222
0.0207035
1.44793
3.08269
0.109323
0.0251681
0.0229743
0.364289
3.7919
0.0818242
0.0197366
0.04219
0.0206577
0.0229579
0.277993
0.021964
0.184782
0.439188
0.0213637
0.0229379
0.0211535
0.0228192
5.91665
4.45917
0.0290138
2.16114
0.0211115
0.0291176
0.0210867
0.0206675
0.0215217
0.0213489
3.95731
0.0213791
0.0486106
0.021431
0.0257649
0.29129
7.37419
0.0224144
1.388
0.0726785
0.884302
0.0323168
0.0327468
7.82673
0.0266883
0.0406233
2.13161
0.989129
5.46162
0.040342
0.316528
0.0218768
0.0402625
0.0485141
2.1929
0.0211285
2.15573
0.0208508
0.0209047
2.75869
0.0215376
2.28973
0.0250115
0.02072
0.0376594
0.0207347
0.0214097
0.0196284
0.0217697
0.223787
0.0209133
0.18784
3.7461
0.0724737
2.20865
0.0215493
0.0224063
0.0264871
0.0212487
0.0207143
0.0745141
0.0218425
0.0207881
0.0218488
0.0215583
3.88636
2.03181
0.0584839
2.9273
0.133893
0.0210918
0.584831
0.0283687
0.0209075
0.37664
0.267551
0.538793
0.0209533
0.287541
0.387896
5.04013
0.0203472
2.71185
0.0306409
0.0239615
0.0188838
0.0205212
1.32919
0.0914649
0.538189
0.0208501
0.0213006
0.707121
0.0216096
0.254703
0.355081
1.83154
1.35084
0.404618
0.0215515
0.0213046
0.0653377
0.0318909
0.0236178
0.133707
0.0415868
0.0218746
0.0228569
2.1659
0.0208013
4.14077
2.17801
0.986702
0.226645
0.0224421
0.0201526
0.0216834
0.317113
0.437969
0.0203593
0.0229676
0.0208253
0.0726694
0.0198317
0.0207811
0.0219206
0.0321634
0.198893
0.0414706
0.0331694
0.0212613
0.0491625
2.3685
0.0221285
4.45452
1.2085
0.0767441
0.0199374
0.0426001
0.0212159
0.0212946
0.0216095
4.79496
0.115513
0.471492
0.0237189
0.232178
0.0212662
0.0211899
0.0215996
0.577459
1.10916
0.0197211
0.0318104
0.0556292
3.52487
0.0227526
1.73214
0.0210043
2.21376
0.08744
3.21269
0.0864606
0.0748093
0.133311
3.12012
0.420524
4.20894
0.0210554
0.139222
0.0198183
0.0233846
0.0259782
0.0215874
3.16336
0.0292192
0.0272375
0.353629
0.172865
0.624949
0.0213638
0.0235172
0.0258404
0.0202316
0.032329
1.44187
0.508956
0.327108
0.0208985
0.0267563
0.0241631
0.717435
2.95061
0.063923
0.0201359
0.0217946
3.87113
0.0458791
0.298372
2.66413
0.0351529
0.0199223
2.39191
0.0311009
0.0420847
0.028158
3.22539
0.317218
0.119238
0.0977877
0.0222253
0.0297742
0.0213649
5.23007
0.0472828
3.26918
0.122186
0.0257953
0.138125
0.0226099
3.2622
0.157457
0.0208036
2.20859
2.99584
2.18579
3.00072
0.0216552
0.0213267
5.39668
2.44906
3.86154
0.0225444
0.0215579
0.0213551
3.80519
0.138979
0.0217504
0.430473
0.0928628
2.08533
2.34479
0.557575
0.021418
3.17395
0.024515
0.0212187
0.13329
2.84054
0.0216078
0.0208412
10.5349
3.1969
0.0213554
0.0209011
2.15658
0.0206814
0.220276
0.0208716
0.604259
0.021321
0.0497646
0.424465
2.97176
0.0223858
6.2276
0.439837
1.77426
2.18493
2.18927
0.0200031
0.021149
0.790429
0.0227889
0.0213757
0.020212
0.541844
0.0211153
0.136511
0.0208569
0.0233432
5.29998
0.072155
0.148668
0.0227528
0.0487637
0.0206976
0.0315002
1.93444
3.87483
0.0206801
0.0618086
0.323644
0.0215527
0.0205294
2.98233
0.0337329
0.0345707
0.125698
2.16393
1.10177
1.36542
2.7586
0.0333162
0.273248
0.457364
1.86979
0.0621025
0.0200575
0.122925
0.0211367
0.0209444
2.06793
3.01192
0.0230952
3.76395
0.0957614
4.15191
0.268426
0.0512734
0.0212019
0.112922
0.260203
0.0209358
0.0224804
3.07344
2.91593
1.57734
3.28506
0.0374315
3.17726
3.16708
0.0311839
0.0217741
0.0210158
0.229565
0.0209858
0.164725
0.0222253
0.0220249
0.0233073
2.55631
3.66046
4.13317
0.0218361
2.46228
0.0248973
0.0289075
0.0208296
0.0208057
7.52299
0.0267801
3.31034
1.36238
0.495735
0.110215
0.0214337
0.0399736
0.0215587
0.140071
0.0224179
0.0226407
0.0217428
0.0222383
0.142762
0.0220756
0.0345351
0.0209855
0.0353025
0.221835
5.78919
0.0210258
0.0459308
0.0214789
0.215353
0.0214459
2.61474
0.352963
0.0310149
0.0235931
0.0225595
0.332994
0.0212263
0.16617
0.0214229
0.0208988
0.0222693
2.96209
0.0267184
0.02439
0.0306068
0.0214338
0.0614539
2.9359
1.96806
0.0349693
0.0213747
0.177001
0.0201326
0.0209883
0.228229
3.09559
0.0211798
0.029668
0.0859971
2.54493
0.0217923
0.0219918
3.12935
0.0225115
0.241864
0.1125
3.71981
0.0213321
0.0213027
0.0212351
3.31737
0.127772
0.0413347
0.113067
3.88883
0.0223078
3.56348
0.450497
0.0215646
2.6231
0.0773576
0.0222718
7.83925
0.0215262
0.0211693
0.0204679
0.159589
0.24933
0.145183
0.0227094
0.0221962
0.0291366
0.351801
0.112534
3.61051
0.317026
0.0219604
0.13028
0.127041
4.09558
0.0837092
0.238015
0.0209983
0.0279187
0.0205366
0.874244
0.0353228
0.0212274
2.09416
0.226031
0.0321098
0.0264293
0.0196638
0.0213504
0.056752
0.0339147
0.691526
0.0623996
0.0692092
0.0671969
0.110441
1.78204
0.569182
3.54168
0.0210378
0.0207967
0.245993
3.44335
4.29671
0.0577953
0.0221998
7.74295
0.318585
0.0209354
0.0260035
0.0206889
0.0395813
0.065123
0.0476558
6.26112
0.134243
0.0225253
2.70834
7.12904
0.021412
0.103034
2.85782
3.79379
0.0237087
0.0714387
0.0196057
0.0229355
0.0209899
0.0250497
3.51226
3.76669
6.1591
5.40028
0.0225237
0.0331749
0.0567947
0.0209707
0.0216361
0.0205296
3.00285
0.0209489
3.38203
0.0353104
0.0602508
0.135465
0.241269
4.53581
2.78724
0.0391
0.0198505
0.0162192
2.65121
1.90392
0.0245768
0.0207042
0.0205043
0.0640022
0.0300287
0.137623
1.31049
0.0224857
0.020486
0.117033
0.173282
6.32116
1.06132
0.0209352
0.0673252
0.0215028
3.61353
0.0199762
3.17543
0.0208621
0.022407
0.0336309
0.0218108
0.245988
0.0293874
0.0449542
6.40006
2.91481
0.0249475
0.0293994
0.0211945
2.73526
4.70844
0.0216155
0.0200293
0.338176
0.0195576
3.77795
0.0213313
0.0358243
0.0739092
0.73973
0.0369565
0.0226712
0.0215814
0.0669237
3.12028
0.0211495
0.928724
4.03333
0.777389
1.38932
0.0323703
3.81661
0.0251587
0.235109
0.0212678
0.32087
0.316865
3.70066
3.76281
1.73945
0.0215535
0.0362326
0.0208312
9.02489
0.384232
3.00554
6.76636
0.0266405
1.15371
0.678622
0.0338674
0.0227112
0.0215988
3.37155
0.0253592
0.0651493
0.0230874
0.021608
0.0206754
0.0215127
2.91263
0.235011
0.0306477
3.88222
2.40911
0.0212295
0.0212994
0.0205129
0.0302375
3.15088
0.215343
0.0252722
0.0245755
1.13054
0.0818907
0.042791
7.02451
0.0297648
3.42
0.0293212
0.0301248
0.0212765
0.02306
0.0655213
0.40768
0.324997
3.16516
0.0709143
3.82162
0.0259924
0.0242583
0.0215438
6.61331
3.24833
0.459888
0.200477
0.0234993
0.0213805
0.0208929
0.0214187
0.0205449
4.63355
0.0289376
5.87159
0.0312593
2.63453
0.157767
3.15872
0.0345895
0.0255684
4.00906
0.0381035
1.48453
3.29522
0.02062
0.440253
0.0270758
3.57041
4.5984
0.0337248
0.599575
0.514619
0.0227406
0.0533297
0.0237729
3.30066
0.359344
0.0238326
0.0215768
0.31713
1.23298
0.124703
0.8965
0.121691
0.0296285
0.0210256
2.126
3.10595
0.0911945
0.0298972
2.9093
2.55021
0.0208472
0.0214025
0.0240625
3.06007
2.98992
0.0213355
4.33595
0.0219795
0.021039
0.0215656
5.23158
0.252625
0.124609
4.3183
0.0228779
0.022627
0.0209611
4.2901
0.0221092
3.91616
0.023684
1.56303
0.0217812
0.0211368
0.118332
4.67716
0.354233
0.0352051
1.80174
0.0200008
0.0214904
0.0214127
0.0436062
0.0607634
0.0607849
0.0362224
3.18803
0.0243002
0.121155
0.118962
1.96989
0.0213858
3.43845
3.06147
0.0247975
0.376241
0.0620047
4.31408
0.0215812
0.0818438
0.0210514
1.09597
7.64324
0.093059
3.28789
0.023518
0.0470449
0.0224134
3.94942
0.01991
0.0206958
0.655229
0.106947
3.65361
1.98957
0.0605197
0.028321
0.0204529
0.146772
0.0321575
0.0210118
0.141258
0.0197599
0.0412991
0.0213714
0.652152
0.0223332
0.280501
0.325625
0.033208
0.0856103
0.0600058
3.65414
0.0212729
0.618603
1.59072
0.0205851
0.0213498
0.0227808
0.0218055
0.0395058
0.0211194
0.513349
0.0724089
0.167015
0.520013
0.0214696
0.0218331
0.0204448
2.93744
0.0215108
0.0212568
0.14372
0.0237825
1.29963
3.29543
0.0842175
0.0239808
0.0331585
0.0225792
0.0219621
0.0686624
0.0200903
0.0240124
5.98334
3.26428
0.789526
0.0225276
3.61452
0.980639
0.0218229
0.12432
3.06341
0.0213506
0.0234769
0.0213091
2.94107
3.43653
0.616727
0.0200714
0.023961
0.0231944
0.0215779
0.124539
0.0215249
0.332548
7.16031
3.45087
0.0205815
0.0237813
0.02345
3.24182
0.0196565
3.65987
6.53963
0.270918
0.982787
5.5145
0.551709
0.0226873
0.601468
0.512002
0.0223439
0.0204357
0.0208559
3.25738
3.66798
3.79664
0.0212488
3.45624
0.0215627
0.137788
0.0204421
0.0230969
0.0222653
0.0205811
3.28318
0.0223509
2.24791
2.6457
3.66318
0.0476561
0.0491205
3.44931
3.08901
0.0217104
6.77078
0.0204541
0.0196703
0.0212893
0.118092
0.0206573
5.82914
0.0304877
0.143066
0.0369032
6.31253
4.39211
0.110809
0.0205565
0.0602935
0.0848826
3.27267
0.0214139
0.0198113
0.0227854
2.427
0.0215976
0.22596
5.88059
0.0400917
0.0614202
0.0214251
0.415722
0.0217568
3.1952
0.020137
4.2185
0.0307173
0.0215067
5.76151
3.72646
0.020172
0.0624538
0.0243344
3.6846
0.141255
0.141527
0.19327
0.0217623
0.0599974
3.16917
0.0210367
0.105573
0.0230794
0.0738059
0.0319829
7.84239
3.31607
0.0215207
3.46908
0.0223237
0.0425316
2.94605
5.70431
0.0347054
3.09546
0.231869
0.021587
0.27708
0.124789
0.0302405
0.0223417
2.66681
0.0201942
5.63842
0.182539
0.113834
0.0213445
0.0317841
3.3047
0.0435617
2.56554
0.0220238
0.0237253
0.0938639
2.73531
0.0257836
3.10634
0.576268
5.42474
0.0215862
2.69409
1.10453
3.20073
0.0213925
0.018537
0.0212775
3.19437
0.0273168
0.422281
0.384309
0.0217974
0.0202577
0.0213649
3.20275
1.49672
4.22512
4.11747
0.0209494
3.78806
3.13902
0.128431
3.54928
3.13862
0.0344219
6.35233
0.0232717
0.0254087
2.69753
2.73628
0.0226486
3.99028
0.0217184
0.0213925
2.09456
3.32531
3.54143
8.68862
0.0304017
0.0217956
0.0230852
3.26119
3.73229
0.0211621
0.0448996
0.446537
0.0214246
0.0215055
3.02276
3.64246
0.0229479
0.0214297
0.022264
0.0225559
0.732084
0.0218003
0.0210956
0.0254043
2.12583
3.88345
0.691602
2.8349
0.0215303
0.0245848
2.92364
3.14017
0.0278966
0.0988198
0.0213274
0.0355692
0.0226746
0.0233735
0.0717005
0.0210428
0.477235
0.0318283
0.020794
0.0242798
1.55861
1.52921
3.63205
0.0214366
0.0245132
3.2282
0.513344
0.0238732
0.0213242
0.0214749
0.313114
0.0215177
0.0216276
0.0276702
0.021336
2.93887
0.0708605
0.0217511
0.0240794
0.0200113
0.0215202
1.50471
0.487226
0.065641
3.59513
0.36255
0.0218446
0.0213034
0.0215015
0.0212394
0.0217272
0.0234633
0.0965486
2.92735
0.0225745
0.104759
3.54918
0.145405
0.0212108
0.0207278
0.0234332
1.99847
0.0211925
0.217531
0.109446
0.0410966
0.0220241
6.76562
0.0200374
0.289699
0.020263
0.0200597
0.0216391
0.0207668
0.0372135
2.75153
0.0650783
0.038616
2.31989
1.07436
0.90428
0.0315645
3.28067
3.76551
0.103849
1.82252
3.05363
0.107903
0.407406
0.0218196
0.0206731
1.53631
0.0209968
0.024128
2.14737
0.243836
1.67173
0.715439
0.0207412
0.0152378
0.0214777
0.34361
0.0204184
0.236738
3.37645
2.9571
0.767793
0.0214681
0.0202241
0.0674082
3.38304
2.9631
0.119944
0.163212
0.020856
0.435913
3.47583
0.0652111
0.0238009
0.0214994
0.0199527
0.0232545
0.0214188
0.0212977
0.0239085
2.96946
0.0719551
3.28766
0.533316
0.224925
0.153414
0.0212595
0.0208455
0.0219259
0.0204303
0.0217811
0.511889
1.48318
0.914663
3.41087
0.023332
4.14047
0.119518
3.13967
3.22735
0.0214785
0.0207585
0.347512
0.0214654
0.0201795
0.463464
2.94972
1.42923
0.0213888
0.0215068
0.0248414
0.0383736
0.844294
0.020471
0.0240798
0.467861
0.0204197
0.423566
0.0376557
2.12097
0.0217737
0.136352
3.00837
0.0344461
3.22384
0.103744
3.34137
0.0200088
0.0248703
0.020811
0.0293542
4.86645
0.0214263
6.56513
0.021765
0.0214526
0.0214382
3.29921
0.042271
0.105765
0.573448
0.0204825
0.0433918
8.66924
0.060021
0.0207175
0.0229754
0.0214679
0.0488526
0.0212666
0.0208457
3.45767
3.51466
3.17319
0.646555
0.795793
4.718
0.0664429
3.55338
0.123313
0.0199551
0.0209642
0.0195786
0.0216101
3.30007
3.24775
0.0203271
6.01585
3.32673
0.0288929
0.0224874
0.0244342
2.54888
2.9885
2.99618
1.8948
2.97932
0.0195623
0.17352
0.0957174
0.234748
2.7871
0.0213277
0.125911
6.55906
0.0317486
2.72947
0.021791
0.260785
5.44992
3.07482
0.0707153
0.0309306
5.01127
0.126068
3.13393
3.13597
2.92878
0.107522
2.58447
0.0215221
0.02537
0.0444817
4.12122
0.312181
3.42827
0.0218129
0.118106
0.0889542
0.022054
3.0844
0.0213482
0.127174
3.94779
0.0213574
1.96892
1.97887
3.15195
2.58783
0.330255
0.505274
0.0210616
3.3393
0.0216655
0.0208204
0.0399847
0.0238157
3.11459
0.0240147
0.0245677
0.0240491
0.0207614
1.39485
0.022851
0.111949
0.304941
0.0206057
3.57359
0.0955141
0.0226295
10.5886
0.133979
0.0213308
0.143085
0.0220607
3.2956
0.538455
0.0203686
0.111343
0.0228998
3.42801
3.01384
0.0676588
1.08537
0.0256022
0.0214815
2.11536
0.0240183
0.0212806
1.49077
0.0395611
0.0208612
0.0207821
0.128752
0.0227363
3.85378
0.172293
0.227387
4.3723
0.0496804
0.0639656
0.0210961
3.46935
6.21135
3.24007
0.0213995
0.0202379
0.0677431
0.0299767
0.4206
0.0213062
0.480145
0.0211979
2.11478
0.0216091
0.246328
0.173541
0.109496
3.50095
1.18148
3.0325
3.03257
0.0196898
0.195785
0.425894
4.57315
0.0209115
0.192526
5.86057
3.80967
0.110618
0.893917
0.605285
3.56222
0.0440115
0.182232
0.0205707
0.0451836
0.0405245
0.0213107
0.0663983
3.9274
0.405139
3.58461
0.179352
0.0211517
0.0207961
0.0299049
0.0213198
0.588544
0.020503
0.0207626
3.71542
0.231992
0.0339303
0.0961299
0.0222426
0.0997672
4.33431
3.07707
4.37533
0.0252892
3.04689
0.0229721
0.020392
0.023157
3.245
0.230571
0.188897
0.238423
0.0223104
0.0208097
0.0213173
0.0218338
0.0263686
3.98638
0.409999
0.0286546
3.11603
3.91467
0.533115
4.36363
0.0214185
0.0295861
0.990138
0.0214029
0.0176351
0.0269012
0.0239123
3.45516
3.09519
0.0204949
0.0384007
0.0293905
0.0751083
3.22571
2.0551
3.49464
0.0216241
0.0788846
3.3746
0.0779886
0.110032
0.514288
2.58805
3.63781
3.54285
0.0204747
2.57823
0.0203005
0.0229911
0.0213265
0.0618168
3.61286
7.0367
0.543168
3.81302
0.0579751
0.0201362
0.020731
0.0215071
0.0228606
0.0418133
3.58961
3.42892
0.0730095
0.754125
0.0216232
0.057154
0.0206492
3.13201
0.0789473
0.0215314
0.156158
0.0955236
1.94212
3.64654
0.132647
5.44433
0.0246251
3.17085
0.185665
2.88465
0.37586
0.0228387
0.05714
0.0214758
2.96781
4.87692
0.040545
3.42512
0.135973
2.55059
0.0685649
0.280503
0.0425081
0.0208107
0.115793
0.0668309
0.0240807
0.0583813
0.0305797
0.0323421
9.38723
0.14445
0.023129
0.0297798
0.0363926
0.0312917
0.0227294
2.39842
0.106377
0.27971
4.3554
0.0213827
3.18697
0.0214569
0.0242712
0.0233954
3.14223
0.0369415
3.21966
4.25433
0.0617006
0.0909563
0.114469
1.98113
0.131855
1.14559
0.0241152
0.0434979
0.0208783
3.20495
0.475647
0.0240264
0.0214325
0.0362712
0.0258892
0.0242545
0.0467535
0.038034
0.0215959
0.032916
4.73934
4.19427
0.105716
0.0398494
0.0197895
2.11975
0.032137
0.0608675
1.06
0.0419042
1.82283
0.020206
0.0242121
0.0241848
0.0323685
0.0211955
3.31096
0.288405
1.8531
0.0359584
3.14751
0.235013
0.0254619
1.99979
0.0625405
0.235769
3.79923
0.0480089
0.024022
0.0387406
0.068241
0.0245736
0.425006
3.74908
0.378552
0.0208881
0.234368
0.26496
1.72346
0.0212532
0.0425053
0.0210656
0.0301201
1.72348
0.0291081
0.0288257
0.0208707
0.0207222
2.24485
3.20151
0.02134
2.23457
0.237633
0.0201421
0.0313567
3.23897
0.111522
0.0964251
0.0213676
0.0271357
0.144572
0.0215507
0.0210331
2.15504
0.0291077
3.27672
0.0804539
0.0261169
3.59002
0.124895
0.142698
0.0209135
0.412489
0.0297128
0.0266017
1.58731
0.0392702
0.0215499
0.0967024
0.024346
0.0258962
0.0201113
0.996997
0.0213465
0.0732296
1.41168
0.0958762
0.0207848
0.262123
0.0306209
3.444
0.18276
3.5238
0.112036
3.06522
0.0206905
0.0713447
0.0252701
0.0211147
0.404569
0.241215
0.0247637
1.05543
0.0280622
0.0675471
3.56163
0.0258854
0.54184
1.04685
3.93527
2.12503
2.17138
0.01477
0.0207253
0.0777263
0.034626
0.886921
1.63609
3.11013
2.21086
3.24064
0.0206785
0.619916
0.0213964
0.0224074
0.021552
0.501755
0.165663
0.101774
0.0210157
7.28113
0.0273441
3.69139
0.0208384
0.0715387
0.0300594
0.0656807
0.0428683
0.097025
0.0227922
0.171285
0.24172
0.0209379
4.37688
0.240858
0.134191
0.0228384
0.02961
0.0214198
0.0210324
0.0603218
0.0422314
3.6344
0.236221
0.0794272
1.11173
0.0211981
1.55037
0.0611865
2.33404
0.0297305
0.0301935
0.403881
0.0306649
0.0433323
1.00721
4.4819
0.0235281
0.0216374
3.01759
0.031367
0.0236423
0.0274133
0.0294721
0.0204895
0.0262926
3.23444
0.0213112
0.0426891
3.1963
0.10548
0.0659584
2.0859
1.7901
3.39256
2.47584
1.19281
0.0587192
0.948091
0.0226838
0.02463
0.0214852
0.0209737
7.9845
0.517099
0.0310625
0.0207063
1.07453
0.115125
0.0212897
0.06499
0.0514505
0.0212117
0.0229959
1.65833
0.0263594
0.0361073
0.036352
0.0213278
0.169954
0.0602708
0.0291821
0.617459
0.0920243
1.98239
2.18441
3.20399
0.0233665
4.88706
0.146557
0.145729
0.0735734
2.06948
0.0699377
0.0261469
0.0470921
0.0622228
0.0233849
0.0890703
0.0210676
0.0212444
0.0200687
0.0244476
3.26959
0.0203761
0.0972797
0.024371
0.023757
0.0241917
0.728208
0.0233982
0.0671563
0.0215207
0.0242839
0.024831
0.0206894
0.117279
0.0235152
0.020524
0.0222497
0.0286059
0.0209233
1.77761
0.0271984
3.41658
0.134918
3.43193
0.0570458
0.095853
0.0258351
0.0394554
0.0374149
0.0248595
1.51814
2.97889
0.745605
0.0743314
0.0309139
0.0213681
1.1127
0.0388802
3.18941
0.0215328
0.349818
0.137883
1.28841
1.16204
0.0200899
0.0214078
0.0203205
0.0284468
3.01699
0.0477767
0.476987
0.0256238
0.0286764
0.0209824
0.0218163
0.0332311
0.0236827
0.0239144
0.0208988
0.177508
0.256171
2.87101
0.0242875
0.0975322
0.020673
0.0202557
0.0987544
0.0219329
0.0241401
0.0602978
0.0241235
0.0766294
0.0214167
0.0309428
0.0215327
0.0244316
3.1997
0.0211137
0.0235802
0.0226164
0.0238541
0.538446
0.0217625
0.047163
1.52207
0.0245107
0.0294358
0.0224244
0.0231324
0.0217847
0.143399
0.0214492
0.0270423
2.29268
0.0207926
0.0288695
0.0469599
0.0635025
3.87115
0.0200658
0.0237283
0.0221248
0.0295678
0.128412
1.12671
6.48355
0.0202389
0.0291092
0.0940687
0.0235036
0.409508
0.0199601
0.0215606
1.88198
0.0394139
0.0236257
0.020018
1.71233
0.123324
3.72235
0.0215622
2.0586
0.0199915
0.0205245
0.0235549
0.0732953
3.66395
0.0215182
0.0209009
0.31862
0.0214516
0.0232161
0.114662
3.79223
0.021451
0.020462
0.0219482
0.0307919
0.138599
3.22716
0.0218667
0.099734
0.0212065
0.0213432
0.447431
0.0232131
0.0218434
0.0300983
0.177807
0.128894
0.023314
0.0221008
2.57137
0.0394886
0.0223649
2.15653
3.69691
0.0214701
0.0217311
0.0230897
0.0213573
0.0214622
0.0208094
0.0202012
0.0396895
0.0230676
0.0466306
0.045559
2.4147
0.779782
0.0304025
0.0200495
0.0213515
0.0221795
0.023153
0.0390676
0.0286082
0.403717
0.0235963
0.0861867
0.0243603
3.68965
6.3068
0.0284278
0.0225779
0.126097
0.0237943
0.0284623
0.021385
0.022285
0.0210665
0.278698
0.050187
0.0556885
0.100017
0.0231929
0.0265262
0.0222528
3.26669
5.89213
0.36538
0.026818
0.104978
0.0998634
2.96771
0.0219192
0.110301
0.0606333
0.0213928
0.0217805
6.66306
0.0214996
0.0224542
0.023235
0.933838
0.0214834
0.0217432
0.0253953
2.13156
0.0209187
0.0520322
1.14738
0.0235927
0.0215034
0.0211315
0.0214154
0.0217592
0.0217168
0.0916143
0.0222659
0.0214879
0.021727
0.0217405
0.0284327
0.021367
0.326152
0.0215459
0.0217006
0.0386463
0.232119
0.0458349
3.94756
1.03134
3.30635
0.0367577
0.0207901
0.0416247
0.211315
0.0201812
0.431446
0.0234379
1.30042
0.0232874
0.0410386
0.0217438
0.0213806
0.10709
0.249902
1.93499
0.3154
3.32282
0.0217143
0.0208703
2.42834
0.020151
0.0214948
3.15068
0.0210101
2.22187
0.0214355
0.163627
0.100365
0.0236986
0.684363
0.0318989
0.0711869
0.665759
0.580325
0.0812093
3.16219
0.554479
2.43002
0.0215443
4.80554
0.0214558
0.0213038
0.0209268
0.0219195
1.35974
0.0223813
4.14526
0.0214956
0.0213629
0.0215552
1.09988
0.0216117
0.0205967
0.0578382
0.0252333
0.0267261
0.0250262
0.0282408
0.191424
2.40834
1.04726
1.07831
0.0915946
0.0223482
0.215384
0.0214425
0.0284037
0.0757265
2.71865
0.0500643
3.34573
0.0214659
0.769355
2.06161
0.138992
3.42068
0.319708
0.0234269
0.0213148
0.0240553
0.0214504
0.0212987
1.95419
1.79164
0.0210478
0.195093
0.021411
0.101699
0.0209661
0.219405
0.0283293
0.0233441
0.020521
0.70393
1.13467
0.341142
0.0205846
0.0206568
0.0262197
0.0217907
0.0221763
0.112358
1.02828
0.0442624
0.771773
0.04525
0.0217697
0.0347673
0.0814847
0.0218814
3.04364
0.0556441
0.429695
0.0231811
0.0241483
0.0202528
0.0196487
0.0213624
0.0263024
0.020664
6.94803
0.0399322
0.948447
0.0212622
0.0477333
0.0214508
0.689597
0.0416015
0.0553193
3.05334
0.0257396
0.0213254
0.0247651
0.0217794
11.5504
0.0975028
0.0447138
0.0549951
3.38779
4.4085
0.105602
0.050328
0.0213905
0.0230858
0.0232133
0.167262
0.69104
0.0260489
0.0215476
0.581365
0.146214
0.0217563
0.0232265
0.0558259
0.0223126
0.0209365
0.0450545
0.0213943
0.0218392
0.0209249
0.0235418
0.0220031
0.0541738
6.7056
0.0214538
0.123732
0.0923597
0.102738
0.0209154
0.0214636
0.133855
0.0256797
0.0214266
0.808895
0.0213323
0.0515721
0.0215859
0.0464409
1.94261
0.0564171
0.0225315
0.0642195
1.87964
0.531683
0.0214226
0.0344148
5.1458
0.0211557
0.022236
0.0738021
11.1296
3.36091
0.0236938
0.0213361
0.125882
0.0211952
0.0222545
0.0287808
0.021766
3.42639
0.0217657
0.142999
0.0214494
0.0214581
0.075694
0.0213575
0.0215407
0.0289878
0.67809
0.0205576
0.119089
0.0218403
0.021101
0.0215354
0.0279848
0.0255182
0.0770278
0.0231414
0.0217442
0.0217987
0.0368237
0.0223568
3.36024
0.021995
0.102969
0.0331814
0.0226189
0.0274525
1.11277
0.0214967
0.0220178
0.0199828
0.0816636
0.464241
0.021529
0.0423091
0.0209181
0.037979
0.0214187
0.310042
1.53558
0.0235427
0.0253401
0.0276339
0.0950896
0.0219269
0.0207451
0.0454016
0.021392
0.0219633
0.0213314