/*--------------------------------*- C++ -*----------------------------------*\
| =========                 |                                                 |
| \\      /  F ield         | OpenFOAM: The Open Source CFD Toolbox           |
|  \\    /   O peration     | Version:  v2012                                 |
|   \\  /    A nd           | Website:  www.openfoam.com                      |
|    \\/     M anipulation  |                                                 |
\*---------------------------------------------------------------------------*/
FoamFile
{
    version     2.0;
    format      ascii;
    class       surfaceScalarField;
    location    "400";
    object      phi_0;
}
// * * * * * * * * * * * * * * * * * * * * * * * * * * * * * * * * * * * * * //

dimensions      [0 3 -1 0 0 0 0];
oriented        oriented;


internalField   nonuniform List<scalar> 
20537
(
-0.376313
0.507831
-0.131518
-0.00954349
-0.221707
0.23125
-0.181978
0.154756
0.0272214
-0.0188187
-0.303017
0.321836
-0.14677
0.166546
-0.0197769
0.302024
-0.447474
0.14545
0.197331
0.201511
-0.398843
0.240995
-0.0897418
-0.151253
-0.455828
-0.0948485
0.550677
-0.0309571
0.191703
-0.160746
0.543993
-0.12411
-0.419883
0.0523513
-0.101497
0.0491459
0.0935586
0.0148766
-0.108435
-0.0138632
-0.00421123
0.0180744
0.675243
-0.544712
-0.130531
0.276142
-0.282562
0.00642037
-0.0468854
0.281067
-0.234181
0.436205
-0.247973
-0.188233
-0.148909
0.158927
-0.0100175
0.0832572
-0.539085
0.347167
-0.365985
-0.0851942
-0.0967835
-0.364912
0.58597
-0.221058
-0.691663
0.0986853
0.592978
-0.550838
0.185926
0.210865
0.0301297
-0.0864891
-0.180478
0.266967
-0.00990557
-0.00198531
0.00818234
-0.384495
0.22675
-0.350478
0.123729
0.431132
-0.129108
0.229069
-0.275955
-0.027758
0.182514
0.413669
-0.464417
0.0507478
-0.603251
-0.0884127
0.114776
-0.127947
0.0131713
-0.00437405
0.0911844
-0.0868104
0.21727
-0.122548
-0.0947221
0.123422
-0.154379
0.0097951
0.403874
0.0452821
0.336293
-0.381575
0.490171
-0.664899
0.174729
-0.00809785
0.00524483
0.00285302
0.365726
-0.525235
0.159509
0.516172
-0.150446
-0.0220257
-0.00468421
0.0267099
-0.521798
0.159462
0.362336
0.217162
-0.503559
0.286397
0.172427
-0.258916
0.281988
0.249581
-0.531569
0.164588
-0.0181654
-0.146423
0.151433
-0.0782614
-0.0731719
-0.00276554
-0.00572378
0.00848932
-0.733277
0.373583
0.359695
0.655195
-0.535936
-0.119259
0.663906
-0.173735
0.654125
-0.29644
-0.357685
0.00670229
-0.00426796
-0.00243434
-0.181818
0.408567
0.283325
0.0955487
-0.378873
0.0692999
0.14797
0.0702614
-0.0919356
0.0216742
-0.380157
0.277997
0.102159
-0.146695
0.12854
0.0181544
-0.123094
0.340758
-0.217664
-0.449118
0.147007
0.302111
0.0685983
-0.0729723
-0.556454
0.204945
-0.212463
0.215723
-0.00325996
0.194363
0.241842
0.0183715
-0.0225916
0.0042201
0.0898214
-0.0823266
-0.00749487
0.2042
-0.213744
-0.291644
-0.441634
0.281147
-0.584721
0.303574
-0.528918
0.433692
0.0952253
-0.135206
0.0500117
-0.0262521
0.00182425
0.0244279
-0.00399207
-0.172361
0.176353
0.0221857
-0.00196629
-0.171114
0.430749
-0.259635
0.466034
0.0156878
-0.481721
-0.43312
-0.0511308
0.48425
0.002219
0.0138293
-0.0160483
-0.305627
-0.07453
0.090544
-0.0381927
0.456172
-0.136241
-0.319932
-0.0491594
0.205129
-0.15597
-0.261082
0.321406
-0.0603238
-0.36017
-0.249078
0.609248
0.022512
0.0922635
-0.0797679
-0.329065
0.408833
-0.235644
-0.0910279
0.250224
-0.159196
-0.0289243
-0.232158
0.564463
-0.552615
-0.0118486
0.033972
-0.180742
0.0169704
0.0317255
-0.048696
-0.212221
0.494209
-0.0246619
0.589125
0.0325283
-0.0343479
0.00181959
0.177061
-0.172636
-0.00442525
0.076551
-0.381322
0.304771
0.266137
-0.016859
-0.457859
-0.0993367
0.557196
-0.469707
0.370763
0.0989442
-0.182491
0.177756
0.00473496
0.524907
-0.683097
0.15819
0.073049
0.00917286
-0.124535
-0.322939
-0.542048
-0.0194555
0.561504
0.27429
-0.63446
0.317565
-0.397333
-0.652506
0.652506
-0.0722792
-0.469769
0.382416
-0.123303
-0.0537564
0.0707268
0.0724013
-0.472627
0.400225
-0.574036
0.575932
-0.00189627
-0.192541
0.562451
-0.36991
-0.00698747
-0.00111038
0.235937
0.0301999
0.100512
-0.00695372
0.0779842
0.494306
-0.277144
-0.774842
0.346347
0.428495
0.186081
0.308225
0.156425
-0.187928
0.0315032
0.0324108
0.314756
0.179554
-0.0908562
-0.0886974
0.424632
-0.37935
0.556595
-0.162246
-0.394349
0.0237975
-0.00542599
-0.550772
0.117653
0.242698
-0.572203
0.606766
-0.0345625
0.556225
-0.483823
-0.0754821
0.0905344
-0.0150522
-0.03727
-0.01186
0.04913
-0.0571065
0.0435222
0.0135843
0.00575924
0.0267691
0.376449
0.278746
0.166629
-0.564756
0.398127
0.719382
-0.383768
-0.335614
0.409412
-0.0840238
-0.325389
-0.134154
-0.391081
-0.449506
0.621573
-0.172066
0.0515148
0.128039
-0.267278
0.464609
0.122689
0.393483
-0.00234648
0.129965
-0.422477
0.615414
-0.192937
0.0104717
-0.0243349
0.310604
0.343521
0.362449
-0.206828
-0.155621
0.302224
0.107188
-0.496983
0.188709
0.308274
0.232179
0.128164
-0.360343
0.0151479
0.136285
0.00231789
0.16227
-0.352448
-0.247847
0.600296
-0.077084
0.225333
-0.148249
0.00745125
-0.000748954
0.164809
0.391787
0.270466
-0.369907
0.0994408
0.641874
-0.230164
-0.41171
-0.690315
0.240809
0.00596387
-0.218427
-0.317501
0.349912
0.0505628
-0.0117621
-0.0388007
6.85275e-06
-0.026259
0.241171
-0.546218
0.305047
-0.175023
-0.32196
-0.0512926
-0.00581391
0.566351
-0.401542
-0.282051
-0.221508
0.184093
-0.0276681
0.535078
-0.508829
-0.0262492
-0.0216661
-0.127243
-0.520316
0.668016
-0.1477
-0.268097
0.055218
0.212879
0.0143393
-0.129943
-0.361465
0.491408
0.0571326
-0.153916
-0.363171
-0.235818
0.598988
-0.449749
0.616159
-0.166409
-0.175187
-0.273931
0.356111
-0.548652
-0.173141
0.158379
0.0147628
0.243828
-0.0156722
-0.228156
-0.316854
0.00729595
-0.0100615
0.266629
-0.544292
0.277663
0.18619
-0.208944
0.022754
0.0959987
-0.0257373
0.399068
-0.177765
-0.221303
0.542242
-0.375613
-0.193229
0.504832
-0.311603
0.459288
0.0757903
-0.428725
-0.100193
-0.303652
-0.471189
-0.0263439
0.0471027
-0.0207589
-0.581015
0.0842801
0.496735
-0.539042
0.146751
0.392291
-0.0350914
0.215312
-0.180221
-0.491444
0.361501
-0.0909909
-0.0134926
0.104484
0.148208
0.139258
-0.287465
0.0339034
-0.00300125
-0.0309022
0.128129
0.443456
-0.571585
-0.0142518
-0.0388116
0.0530633
-0.352185
0.428736
-0.496806
0.215982
0.280824
0.45269
-0.636164
0.183473
-0.720703
0.431244
0.289458
0.595215
-0.204705
-0.39051
-0.139006
0.381554
-0.242548
-0.0177427
-0.00428297
-0.108612
-0.409595
0.518207
0.0350969
-0.00119349
0.263618
-0.11541
0.193615
-0.364729
-0.000330945
0.0487256
-0.0483947
-0.070609
0.150201
-0.0795924
0.00169463
0.0382812
-0.0399758
-0.600373
0.581724
0.0186494
-0.0476928
-0.189198
0.236891
-0.526851
0.0689927
-0.0124157
0.00337722
0.00903846
0.673848
-0.221158
0.215865
-0.00500057
0.325205
-0.312131
-0.0130747
-0.285316
0.526486
0.54092
-0.155844
0.147543
0.00830126
-0.0538874
-0.254634
0.308521
0.00461659
-0.0956075
0.170447
-0.293541
0.280659
0.438723
-0.454577
-0.0844649
0.103913
0.327218
0.370328
-0.514248
0.143921
0.576119
0.0569234
-0.633042
-0.190571
0.155479
0.457318
-0.556655
0.0330451
0.00375747
-0.0368026
0.193862
-0.0168016
0.477986
-0.393629
-0.0843574
-0.39369
0.292047
0.101643
-0.222057
-0.122231
0.344288
0.654783
-0.381422
-0.273361
0.523629
-0.153301
-0.244755
-0.107086
0.351841
-0.0914651
-0.0321531
-0.119866
0.152019
0.377956
-0.212013
-0.165943
0.247566
-0.00373845
0.00745288
0.0830815
0.00788064
-0.0166561
0.0087755
-0.189049
-0.346558
0.535607
-0.440044
-0.441837
0.344022
0.0978144
0.469994
-0.181845
-0.288149
-0.631433
0.207791
0.423643
-0.14517
0.11601
0.0291608
0.187542
0.211525
-0.366026
0.121271
-0.205852
0.114824
0.0537158
-0.0540467
0.417863
0.143659
-0.561522
0.294798
0.359985
0.184684
0.538506
-0.196696
-0.341809
0.174692
-0.178684
0.250884
0.0252578
-0.534965
0.372719
0.580721
-0.114687
0.596518
-0.185611
-0.410908
-0.000244914
0.0401059
-0.039861
0.0727959
0.471197
0.0253306
0.550788
0.0800702
-0.558847
0.478777
-0.503625
0.60009
-0.0964645
-0.151781
0.119627
0.0756329
0.394361
0.438142
-0.152109
-0.286033
0.0342472
0.454251
-0.488498
-0.382615
0.497187
-0.114572
0.183728
0.354778
-0.629464
0.276315
0.353149
0.155095
-0.10358
0.149231
-0.331049
-0.104488
0.387813
-0.218929
0.215283
0.00364624
-0.395942
-0.233521
-0.0430861
-0.102084
0.0690773
0.170551
-0.239628
0.0721473
0.0183967
0.43447
-0.570677
0.136207
0.0392353
-0.00619023
0.105333
-0.182417
0.0790988
0.201968
-0.013628
-0.0325389
0.0461669
-0.140744
0.365174
-0.22443
-0.35169
-0.118017
-0.0445121
0.0387926
0.00571948
0.481921
-0.447674
-0.0162879
-0.144853
0.161141
0.224829
0.0253953
-0.222029
0.37126
0.024608
-0.061878
0.220829
-0.151752
0.385055
-0.360469
-0.0245853
0.0541224
-0.0618207
0.00769829
0.65241
-0.257965
-0.394445
0.0547737
-0.276831
0.737528
-0.368869
-0.368658
-0.0517141
0.0514692
0.125478
-0.0162196
-0.109259
-0.507642
0.39903
-0.191767
0.0479548
0.143812
-0.261789
0.489908
-0.228119
0.0257208
-0.0178401
-0.00297697
0.450701
-0.447724
-0.455974
0.644987
-0.189013
0.610181
-0.250544
-0.359636
0.124886
0.000591786
0.197613
-0.245305
-0.322286
0.0730606
0.249226
0.108044
-0.368377
0.227633
0.326115
0.05894
0.452189
-0.5763
0.0273419
0.00279117
-0.0574848
0.00534069
0.0521441
0.0827826
-0.376857
0.294074
0.0457763
-0.0594044
-0.0166928
-0.0925133
0.109206
0.3836
-0.0179303
0.204121
0.125729
0.0293662
0.552056
-0.348666
-0.20339
0.0511868
0.214134
-0.265321
0.000219289
0.115947
-0.116166
0.115841
-0.238455
0.518931
-0.280475
0.382828
-0.0860221
-0.296806
-0.00518028
-0.0368429
0.0420232
0.0394264
-0.584138
0.670894
-0.0702718
-0.600622
0.171622
0.499272
0.180181
-0.0642092
-0.115972
-0.109273
-0.213013
-0.200883
0.25207
-0.00229092
-0.0101248
-0.49368
0.318657
0.059101
0.323727
0.358913
0.251267
-0.500797
0.239007
-0.112998
0.570315
-0.0545385
0.579446
-0.183977
0.552851
-0.368874
0.0412713
-0.0464515
0.645745
-0.348811
-0.296933
0.314547
-0.441804
0.127256
0.177802
-0.19409
-0.655563
0.36004
0.295523
0.0858658
-0.0137185
-0.297706
0.229404
0.0683024
0.339914
-0.361343
0.0447727
0.00579009
-0.119731
0.434278
-0.234045
0.095039
-0.0300304
-0.196026
0.226057
-0.126028
0.465942
0.087333
-0.446846
0.359513
0.159614
-0.63224
0.209103
0.214021
-0.423124
-0.00369841
-0.0206466
0.024345
0.637258
-0.0460685
0.0706766
0.222991
-0.104973
0.105192
-0.0389346
0.0271726
-0.706945
0.178492
0.528453
-0.173998
-0.532947
-0.013422
-0.336507
0.349929
0.632196
-0.155002
-0.477194
0.514392
-0.5283
0.0139079
0.384366
-0.301584
-0.0877755
-0.103991
0.0122099
-0.0164212
-0.255271
0.215441
0.0398291
-0.0480028
0.0496975
0.0456852
-0.00776092
-0.0379242
-0.398099
-0.257463
0.232337
-0.421387
-0.0127121
0.00602354
-0.023418
0.0173945
0.0579724
0.267233
-0.0586942
0.00493776
0.449746
-0.240642
-0.213439
0.183409
0.50234
-0.535949
0.0336087
-0.125901
0.109208
-0.436437
0.517175
-0.080738
-0.106014
-0.176548
0.3667
-0.380122
-0.446756
0.34059
0.106166
0.0535701
0.0949934
0.386928
0.318905
0.322969
-0.123117
-0.0235774
0.245473
0.0577512
-0.303224
-0.0168225
-0.00730905
0.0241316
0.343568
0.0124023
-0.355971
-0.134536
-0.457005
0.0318268
0.425179
0.349057
0.174572
-0.327441
0.0915901
0.235851
0.145831
0.0343502
0.284707
-0.205608
0.171404
0.423811
0.122333
0.433891
0.496341
-0.401348
0.093518
-0.543267
0.132457
-0.172968
0.040511
0.135162
-0.465951
0.33079
0.134332
-0.12083
-0.0135016
-0.0585668
-0.398439
0.00889825
-0.176476
-0.287941
0.104482
0.139974
-0.0600351
-0.095809
0.444023
-0.35669
0.478716
-0.129659
0.660773
-0.500435
-0.160338
-0.144186
-0.0133806
0.157567
-0.206199
0.46227
-0.256071
0.0129956
0.165915
-0.178911
-0.0253078
-0.00317959
0.0284874
0.591736
-0.132448
-0.638705
0.227865
0.41084
-0.516055
0.309856
0.0400553
-0.0120496
0.306558
-0.669728
-0.226689
0.22207
0.00461885
0.0117321
0.552121
-0.134258
-0.487761
0.544285
-0.0565235
-0.401509
0.105315
0.296194
0.131238
0.0265887
-0.10485
0.0750605
-0.354742
0.279681
0.160883
-0.0948892
-0.0659938
-0.547562
-0.0528117
-0.562959
0.312415
0.00315583
0.0061825
-0.00933833
-0.0758052
0.346271
-0.458371
0.538442
0.122354
-0.171513
0.46414
0.168056
0.204813
-0.15743
-0.376818
0.534249
0.117107
0.189808
-0.306915
-0.12559
-0.242709
0.368299
-0.430719
0.460055
0.131682
-0.00838035
0.0625027
0.378592
-0.429723
0.202477
-0.197417
-0.00506023
-0.0793119
-0.492891
0.256248
-0.374735
0.118487
-0.625767
0.211553
0.414215
0.563633
-0.563633
0.517026
-0.156877
-0.360149
-0.553821
0.134603
0.517903
-0.269087
0.47924
-0.210152
0.259037
0.108782
-0.367819
0.338863
-0.475104
0.116034
-0.477498
-0.166671
0.669011
0.0331212
-0.0161134
-0.0170078
0.00167892
-0.0269867
0.141074
0.320812
-0.461886
0.393911
-0.137663
-0.283743
-0.0436983
-0.236247
-0.278001
0.0212203
-0.0190013
-0.364679
-0.19828
0.312707
0.333038
-0.075926
-0.37092
-0.152323
-0.00165061
0.153974
-0.33262
-0.0651514
0.397772
-0.0169504
0.0166525
0.000297847
-0.133207
0.545702
-0.412495
-0.00826098
0.0025372
-0.249157
0.23914
0.0100173
-0.21347
-0.451429
0.209447
0.184465
0.0482644
-0.00928065
-0.0389837
0.203732
0.0121335
-0.364941
0.458387
-0.0934463
-0.519197
-0.0548386
0.409825
-0.422262
0.0124373
-0.571731
0.0357956
-0.169574
0.578506
-0.408932
-0.579218
0.188077
0.39114
-0.447807
0.337659
0.110149
0.0278494
-0.0218259
-0.15771
0.157638
7.12469e-05
0.130107
-0.0202268
-0.10988
0.102065
-0.0942252
-0.0078399
0.0759269
0.327249
-0.679698
-0.0980489
-0.015005
0.113054
0.468047
-0.332886
-0.0567165
-0.211381
0.00578706
0.219546
-0.494497
0.258249
-0.348634
0.426618
-0.0663281
0.0520764
-0.515539
-0.00993328
0.525472
0.000928252
-0.0178786
0.0165361
0.00501533
-0.0313592
-0.149078
-0.143916
0.353363
0.495003
-0.254313
-0.453359
-0.185345
0.212012
0.165944
0.274064
-0.467294
-0.149717
-0.00658888
0.156306
0.352359
-0.12018
-0.1478
-0.00191685
0.0751597
-0.00356137
-0.0715984
-0.538044
0.404837
0.143159
-0.155392
0.00270115
-0.0237486
0.0210474
0.376686
-0.0846388
0.3329
0.171521
-0.504422
-0.353886
0.542595
0.335954
0.120675
-0.456629
-0.0188761
-0.154265
0.251252
0.0545833
-0.305836
0.057614
0.147515
0.0906974
0.0701857
-0.437606
0.596401
-0.158795
0.00914173
-0.00598591
0.000521216
-0.0286165
0.0280953
0.449861
-0.379387
-0.0704743
0.150189
0.317859
0.208441
0.580155
-0.478865
-0.10129
0.401493
0.47344
0.0761265
-0.549567
-0.107812
0.00976306
-0.224352
0.0175237
0.120368
-0.119575
-0.000792856
-0.0846226
0.102879
-0.0182563
0.211691
0.452214
-0.395922
0.445349
-0.0494269
-0.0801784
0.414119
-0.33394
-0.20036
0.136151
-0.144892
0.150392
-0.00549993
0.00305939
0.02479
-0.00302748
0.0743204
-0.0712929
0.348706
-0.107136
-0.33962
-0.0993819
0.183333
-0.0839512
0.00117309
-0.0985339
-0.00848788
0.107022
-0.119136
-0.136134
0.367512
-0.089515
-0.574855
0.313526
0.195466
-0.508992
-0.150775
0.695295
-0.483604
0.28382
0.0928656
0.181991
0.486025
-0.160981
-0.395342
0.556323
0.0802741
-0.00511435
0.162513
-0.477037
0.418471
0.295233
0.400063
0.0304
-0.0764685
0.318505
0.186327
0.63137
-0.18426
-0.447109
-0.416088
0.565011
-0.148923
-0.0922268
-0.539207
0.553818
-0.0266869
0.0229885
0.346942
0.131044
-0.149864
-0.0321892
0.0372045
0.417962
-0.00813657
-0.0484965
-0.163806
0.212303
-0.0183614
0.0210626
-0.0241048
0.0211035
0.150166
-0.388621
0.0227167
0.193006
0.0608143
0.519341
0.433875
-0.231703
0.0176747
0.214028
0.00281538
-0.0723696
0.0695543
-0.401591
0.315569
0.000992566
0.119375
-0.272837
0.03589
0.236947
0.0816131
-0.478511
0.396898
-0.312389
0.238503
0.0738862
0.130461
-0.526905
0.396443
0.0804046
-0.445345
0.135075
-0.145113
0.0100376
-0.370767
0.486801
-0.30008
-0.0767773
0.02285
-0.510611
0.146566
-0.225589
0.079023
0.118789
0.0155433
0.409749
-0.3142
0.104347
0.339675
-0.11709
-0.180616
0.0622106
-0.316608
0.254397
0.14767
0.164012
-0.0315546
0.0406793
-0.111288
-0.301564
0.0730538
0.22851
0.00998309
-0.108517
0.4712
-0.389587
0.0636336
-0.326658
0.263025
-0.384399
-0.0151464
-0.0170427
0.134781
-0.486966
-0.633926
0.29095
0.342976
-0.000312571
0.0733616
-0.20657
0.421676
-0.215107
-0.0184367
-0.0204979
0.0364607
-0.0386667
0.00220601
0.0231805
-0.0126115
-0.0105689
-0.0670342
0.189388
0.0812152
-0.517653
-0.0826391
-0.462067
0.487398
0.339388
-0.537093
0.197705
0.123012
0.42269
0.380641
-0.541622
-0.615637
0.274203
0.341434
-0.0292635
0.372832
-0.227719
0.344826
0.703074
-0.407841
-0.0940376
-0.0426476
0.136685
-0.00159078
0.0373179
-0.131356
0.16098
-0.543708
0.382729
0.138045
-0.558713
0.420669
0.628098
-0.145729
-0.482369
-0.00919545
0.134924
-0.0276099
-0.0714442
0.0990541
0.109472
-0.150842
0.0413702
-0.0592861
0.129062
-0.591129
-0.452984
-0.0829645
-0.135645
-0.454166
0.589811
-0.254945
0.425466
-0.170521
0.0636724
-0.0859229
0.0222505
0.0945989
-0.040661
-0.0539379
-0.252242
0.314453
0.240679
0.462395
-0.136189
-0.311619
-0.470445
0.2155
0.150777
-0.1372
-0.0135771
0.00168058
0.00854735
-0.0102279
-0.0615056
0.059218
-0.0666986
0.00748061
-0.390261
-0.0320012
0.456733
-0.352386
0.13597
-0.00586313
0.0194087
-0.196213
-0.000676285
-0.100821
0.116195
0.314554
-0.247473
0.150975
-0.0415033
0.356425
0.490046
-0.35037
0.145166
0.388728
0.272045
0.129784
0.0534681
0.0291537
-0.0323333
0.152752
-0.545749
0.392996
0.388659
-0.113663
-0.274996
0.267888
0.099624
-0.568197
0.398623
0.284287
-0.214083
0.397811
-0.0110882
-0.0181529
0.0292411
-0.00487372
0.139949
0.143759
-0.0277492
-0.388661
0.567153
-0.454172
0.560535
-0.399556
0.0241089
0.00901234
-0.0992853
0.0146627
-0.301899
0.248011
-0.00531594
0.0417766
0.16593
-0.586566
0.420635
-0.00860365
-0.483763
0.492367
-0.415711
0.42072
-0.00275813
0.0795951
0.00378249
-0.0833776
0.340032
-0.113223
-0.226809
-0.417285
0.0967966
0.320488
-0.20873
-0.417038
0.0714
0.218777
-0.290177
0.410707
0.217391
0.000898649
0.00759647
-0.00849511
0.0259413
-0.237954
0.032198
-0.0341025
0.00190446
0.43894
0.0882032
-0.340445
-0.000684857
0.0220571
-0.0213723
-0.0136588
-0.000148429
0.0138072
-0.0728251
0.0953372
-0.382538
0.512999
0.0623698
-0.0698301
0.00746026
-0.189272
0.602211
-0.430806
-0.00380932
0.153529
-0.149719
0.179319
-0.166324
-0.133261
0.319861
-0.1866
0.00543776
0.565723
-0.225831
-0.339892
-0.589788
0.372218
0.217571
-0.00995836
0.101143
-0.148295
-0.485631
-0.581015
-0.360829
0.235239
0.120224
0.350977
-0.00961387
0.0105125
-0.204948
0.0438374
0.16111
-0.118303
-0.355218
-0.12182
0.408069
-0.59368
-0.395254
-0.395928
0.566702
-0.0601028
-0.5066
0.229215
-0.407164
0.530177
-0.124885
-0.352047
0.476932
-0.615728
0.243959
0.371769
-0.00548496
0.0442775
-0.537863
-0.519834
0.0163847
0.503449
-0.176039
0.480088
-0.304049
-0.439328
0.332192
0.0239402
-0.024625
-0.546949
0.00343083
0.543518
0.526248
-0.379527
-0.146721
0.0820687
0.041352
-0.123421
0.018297
0.13248
-0.246452
0.51702
-0.270568
0.188502
0.340352
-0.528854
0.188933
-0.385629
-0.00102048
0.0602384
-0.106989
-0.054637
0.00184354
0.0527935
0.190471
-0.0606874
-0.500914
0.343484
0.569969
-0.40192
-0.168049
0.00589145
-0.000646618
-0.281416
0.470349
0.0950013
-0.327394
0.232393
-0.573252
-0.442419
-0.365866
-0.157315
-0.013507
0.170822
-0.142804
0.27258
-0.129776
-0.194144
0.364695
0.41195
0.15802
-0.497933
-0.0176054
0.388144
0.138105
0.0946326
0.0235072
-0.499726
0.316822
0.182904
0.00293771
0.155441
-0.325958
-0.298904
0.387107
-0.149385
0.106564
-0.136528
0.0299636
-0.00786667
0.118105
0.221927
-0.097368
0.0703339
0.0270341
0.00488504
0.0971801
-0.365874
-0.0734543
-0.0218411
0.00311967
0.0187214
0.314346
-0.250712
-0.0794998
0.0839838
-0.00448393
0.00957774
-0.0206659
-0.0186318
-0.0312911
0.0499229
0.600886
-0.248771
-0.352116
-0.220408
-0.00659899
0.227007
-0.380691
0.292706
0.09166
0.0110604
-0.0153284
-0.00801179
-0.530903
0.142282
0.388621
0.588055
-0.596458
0.00840326
-0.00308848
0.150631
-0.349265
0.553228
-0.203962
-0.41565
0.562953
-0.147303
-0.00897653
-0.00323923
0.0122158
-0.398395
0.564325
0.341924
-0.451888
0.109965
-0.00343137
0.0224648
-0.000486861
-0.021978
0.085963
-0.474624
0.480242
-0.140854
-0.496947
-0.00384956
-0.00358632
-0.0100725
0.0871107
-0.0234383
0.110301
-0.118789
-0.188522
-0.301658
0.49018
-0.0584318
0.0637725
-0.103595
-0.0967646
-0.107179
0.0795687
0.00895742
0.168798
0.176031
0.0017719
-0.0753943
0.068525
-0.401145
-0.0391883
0.243388
-0.00617615
0.147308
-0.141132
-0.0133163
-0.0101017
0.494715
-0.0449693
-0.00298511
0.000609419
0.0099031
-0.00334554
-0.0761543
0.0230913
-0.02257
0.318867
0.114728
-0.433595
0.200128
-0.020774
-0.179354
0.474446
0.156924
-0.0630606
0.275117
0.113542
0.0856816
-0.0759374
-0.00974417
0.654399
-0.654399
-0.0242339
-0.00757675
0.0318107
-0.539869
0.124219
0.124445
-0.0423759
-0.430119
0.534282
-0.104163
-0.127409
-0.0335462
0.160955
-0.167633
0.195667
0.00446025
-0.034973
0.0348777
-0.160628
0.12575
-0.154101
0.343908
-0.483752
0.618356
0.0644095
0.156091
0.35235
-0.0491908
-0.303159
-0.369499
0.109779
0.25972
-0.000648602
0.0231134
-0.372296
0.580087
0.629752
-0.317045
-0.437442
0.152203
0.28524
-0.0494055
0.0105939
-0.0100029
-0.00142161
0.0253618
0.418884
0.182002
0.0896795
0.405035
0.0198872
0.389346
-0.409234
-0.00238679
0.0345848
0.12435
0.530048
0.181058
-0.304361
0.000242036
-0.02887
0.0286279
0.384434
-0.559359
0.174926
0.0852881
0.195454
-0.280742
-0.103668
0.535517
-0.217012
-0.0969907
0.0646208
0.0323699
-0.269637
0.391896
-0.122259
0.217556
-0.513996
0.0418031
0.132487
-0.17429
0.00565828
0.0294386
0.12345
0.0269416
0.320228
-0.225227
0.479805
-0.152858
-0.326947
0.286426
0.343326
-0.00447968
-0.0100172
0.0144969
-0.0147738
0.121338
-0.53231
0.0124756
0.0338864
-0.254294
-0.564744
0.3941
0.170645
0.411962
-0.327682
-0.424047
0.595669
0.0212379
-0.474222
0.130838
-0.156465
0.0256273
0.261518
0.217198
0.450082
-0.108158
-0.104701
0.3788
-0.232665
-0.0201959
0.0155405
0.00465534
0.0502904
-0.00202597
-0.00956903
-0.21712
-0.0787428
-0.0186252
0.0457698
-0.475889
0.205423
0.0166469
-0.0766812
0.466028
-0.40432
-0.160424
-0.151394
0.429416
-0.278022
0.336151
0.11393
0.0222121
-0.00157546
-0.0206366
-0.147637
0.46845
0.108448
0.0425273
0.433019
-0.114152
-0.235804
-0.598046
0.00884123
0.00169018
-0.0105314
0.207386
0.368546
0.0851632
-0.184545
0.120891
-0.263695
0.0370378
-0.115426
0.0783885
-0.240531
0.0355828
0.197094
-0.00373618
-0.193358
-0.00519709
-0.198974
-0.0266156
-0.313437
0.0588029
0.0850053
-0.0914403
0.391517
-0.300076
-0.00436022
0.00335501
0.00100521
-0.136514
0.174867
-0.0383526
0.574878
0.418177
-0.283397
0.198974
-0.164097
-0.163678
-0.0266568
-0.315642
0.504144
0.0790728
-0.0450267
-0.0340461
0.409762
0.150773
-0.159275
0.00920845
0.00300147
-0.190948
0.611942
-0.420994
-0.116276
0.09461
-0.255492
-0.144748
-0.364095
-0.0962305
-0.490733
-0.00621433
-0.122846
0.510131
-0.387284
0.382586
-0.266391
0.0806727
-0.0906311
-0.408314
-0.151046
0.0646214
0.0224893
0.00810598
-0.0125857
0.239957
-0.035825
-0.204132
0.00999108
-0.028144
0.409115
-0.0217223
0.588425
0.226777
-0.595646
0.444789
-0.108836
-0.398758
0.13673
-0.11241
-0.0243193
-0.0985977
-0.230687
0.329285
0.338033
-0.514523
0.17649
-0.0929051
-0.32438
0.10766
-0.563634
0.0249155
0.0406529
0.053946
0.27782
-0.0574983
-0.00119584
-0.00786896
-0.0818272
0.0896962
0.433216
-0.11969
0.112489
0.286467
-0.398956
-0.100915
-0.171922
0.144537
-0.145776
0.484732
-0.338956
0.321733
-0.441193
0.11946
-0.51688
0.335957
0.180923
-0.420454
-0.164267
-0.364935
0.524397
0.320796
0.214721
-0.0032614
-0.0190434
0.0223048
0.40689
0.0944637
-0.501353
0.0152047
0.0853077
-0.211335
0.255172
-0.205874
0.277274
-0.574354
0.451507
0.423951
-0.594064
0.170114
-0.167723
0.0881411
0.0795817
0.255357
0.0589894
-0.421196
0.55507
-0.402318
0.35106
0.125505
-0.476565
-0.293947
0.480028
-0.290485
-0.146958
-0.150581
0.63636
-0.349934
-0.261159
-0.00570993
0.266869
-0.00433282
0.112287
-0.107954
0.361183
-0.394797
0.0336139
0.483716
0.104338
-0.0937404
0.445331
-0.351591
0.355672
-0.159523
-0.196148
-0.192782
-0.181954
-0.29907
0.0686513
0.230419
-0.131218
-0.189803
0.0532882
-0.340918
0.24232
0.333995
0.14581
0.043335
0.0573951
-0.10073
-0.147099
0.485132
-0.0283986
0.0210896
-0.110586
0.0956284
0.0149574
-0.128901
0.309959
0.128611
-0.122756
-0.00585594
0.453087
-0.46169
0.672911
-0.245014
-0.427897
0.125629
0.319052
-0.444681
0.310157
0.140157
-0.450314
-0.108964
-0.354388
0.463352
0.500838
-0.0939484
-0.496211
0.496211
0.168913
0.386157
0.120991
-0.139157
0.571421
-0.145076
-0.426345
0.555858
-0.386945
0.377481
-0.183866
0.208784
-0.199942
-0.00884209
-0.00893062
0.0885257
-0.0621843
0.329343
-0.254283
-0.143482
-0.472245
0.137029
-0.143205
0.138567
-0.0326773
-0.105889
-0.0876501
0.325183
-0.0153171
0.121512
-0.151182
0.02967
0.136589
-0.0293739
-0.107215
0.580405
-0.172933
-0.407472
-0.15128
0.00642619
0.473431
-0.14053
0.353725
0.291263
-0.324468
0.450096
0.022577
-0.0232832
0.000706248
0.0128219
0.112065
-0.164659
-0.301292
-0.0631325
0.393481
-0.363904
-0.132933
0.496837
-0.380455
-0.146397
-0.433322
0.124246
0.309076
-0.29132
0.403809
-0.392562
0.0975428
0.295019
-0.54131
0.293462
0.195318
0.0134655
0.310682
-0.0652086
-0.0228789
0.0220721
0.00080677
0.00981256
0.553821
0.239038
-0.204072
-0.0349655
-0.353565
-0.262072
0.0870598
-0.0175979
-0.0694619
0.176509
0.00164654
-0.178156
0.00525281
0.0567392
-0.061992
0.118222
-0.0235889
0.00583089
0.130899
0.0330119
0.131
-0.00160565
-0.0270109
0.408181
-0.0469984
0.0145736
0.0325291
-0.582759
0.176232
-0.199865
0.0236337
0.165246
0.406175
-0.0856794
0.220811
0.0280247
-0.248836
0.213869
-0.370586
0.156717
0.028294
-0.00237301
-0.025921
-0.0696981
0.26675
-0.197052
0.0288024
0.387589
-0.013045
0.132088
-0.119043
0.257732
-0.517002
0.39121
0.125791
-0.0802831
0.288105
-0.207822
-0.307367
0.656374
-0.260497
-0.395877
0.390551
-0.0978443
0.171864
-0.130061
-0.0542539
-0.389953
0.0123523
0.22655
-0.238903
-0.224298
0.488204
-0.263905
-0.242032
0.043059
0.271989
-0.460511
-0.428812
-0.0628345
0.0677723
0.121627
0.265854
0.407057
0.364986
-0.113072
-0.251914
-0.0203091
0.0212373
0.206276
-0.00254389
0.142733
-0.116037
-0.0266965
0.090644
0.014613
-0.105257
-0.495693
0.370716
0.124977
0.397593
0.182812
0.0879561
-0.0741805
-0.0137756
0.286861
0.10369
0.174759
-6.64057e-05
0.223008
-0.0527703
0.0044849
0.0482854
-0.109443
0.419601
0.0299427
-0.120799
0.0171779
0.312838
-0.330015
-0.379934
-0.00138848
-0.393996
0.201214
-0.453512
0.346455
0.107057
-0.00534611
0.00138432
0.00396179
-0.244148
0.0268724
-0.158901
0.592723
-0.433823
0.0831638
0.137648
-0.00349392
0.0973087
-0.0938148
0.123647
-0.305703
0.182056
-0.00580546
-0.0469648
-0.0228055
0.0874269
-0.502788
0.564103
-0.0613154
-0.205903
0.0615532
0.14435
0.0315192
-0.00236551
-0.139471
-0.0664319
-0.0782295
0.0704505
0.00777905
-0.502661
0.0432673
0.459394
0.340928
-0.434668
-0.0188204
-0.000279837
0.0191002
0.0286152
0.109951
-0.012315
0.000137059
0.012178
0.120959
-0.555674
0.434715
-0.0987357
0.436395
-0.105652
0.00380762
-0.0263777
-0.127295
0.05447
0.27582
0.106766
0.421055
-0.0993214
0.0133204
-0.170635
0.139925
-0.0370099
-0.102915
-0.0760749
-0.00882615
0.0849011
-0.412061
0.0654215
0.389081
-0.454502
-0.00689515
0.069265
0.208637
-0.00832718
-0.20031
0.203047
0.313979
0.088629
-0.108856
0.0245545
-0.142483
0.343994
-0.569881
0.411581
0.1583
-0.00246182
0.011303
-0.0493842
-0.219627
0.565973
-0.113605
0.55986
-0.446256
0.0546913
0.0243815
-0.527597
0.0248096
0.641673
-0.168233
-0.47325
0.248952
0.0238577
0.328597
-0.445054
0.116457
0.148066
-0.0396181
0.230859
-0.218507
-0.0600191
-0.104915
-0.236654
0.341569
0.00156093
-0.00736021
0.00579928
0.466939
-0.205421
0.139874
-0.0371081
-0.102766
0.101071
-0.105404
0.0735672
-0.490389
0.390342
0.100047
0.367273
0.132095
-0.499368
-0.0359083
0.157421
-0.205024
-0.358609
-0.0270933
0.41136
-0.215605
-0.301275
0.331848
-0.00793154
-0.0788789
-0.160119
-0.21414
-0.375648
0.00434951
-0.0221897
-0.176096
0.190017
-0.0139203
-0.0199374
0.366014
-0.218902
-0.147113
0.602557
-0.146924
-0.455634
0.560796
0.202347
-0.205332
-0.0759022
0.0728747
0.00765485
-0.0237682
0.206472
0.400293
0.00570211
0.151936
0.0998041
-0.481684
0.38188
-0.105015
-0.328852
0.433866
-0.162615
0.0302626
-0.0318682
-0.0198742
-0.18907
-0.292328
0.230822
0.112614
0.023356
-0.140195
-0.252367
-0.0721197
-0.0707766
-0.0948421
-0.395547
0.287846
-0.492551
-0.47483
-0.0543279
-0.206831
0.15212
-0.156994
0.539087
-0.401042
-0.00316043
-0.101594
0.104754
-0.490846
0.357603
0.133243
0.172204
-0.592658
-0.0539978
-0.034301
0.0882988
0.0291363
-0.0315093
-0.162299
-0.229785
0.392084
0.00293195
0.0180071
-0.3037
0.256779
0.0469204
0.0284986
-0.0241491
0.150457
0.299404
-0.0136498
0.384413
-0.342274
0.454821
-0.112547
-0.0483432
0.197273
-0.627038
0.429765
0.330158
-0.500467
0.170309
-0.326218
-0.039582
0.0453015
0.0429743
0.00295336
-0.0459277
0.00408829
0.234949
0.0543788
-0.0601843
0.0853861
-0.323361
0.237975
0.0349398
-0.0031036
-0.0318362
0.0457562
0.204714
-0.00236714
0.429971
-0.309012
-0.140968
-0.352268
0.493236
-0.380255
-0.501407
0.374422
0.126985
-0.057282
-0.0286409
0.606617
-0.438212
-0.168405
0.256737
0.0216928
-0.27843
-0.368869
0.133312
-0.104151
-0.00809921
0.0538755
0.00431714
0.0265775
-0.0308946
0.116981
-0.441398
0.324417
-0.0693374
0.0833779
-0.0140405
-0.225485
0.343591
0.251493
-0.327299
-0.205458
0.509033
-0.311536
-0.216062
-0.00292379
0.000489458
0.310025
-0.0741737
0.024682
-0.0244399
0.12576
-0.164948
0.304579
0.116475
0.113873
-0.00357232
0.398833
0.223602
0.257989
-0.0285857
-0.386945
0.235551
-0.00637819
0.0965896
-0.0902114
-0.275878
-0.232951
0.330885
-0.201583
-0.129302
0.436033
0.335475
0.279939
-0.0846062
0.0811123
-0.232595
-0.096133
0.328728
0.228086
-0.126033
-0.102053
-0.14436
0.474518
-0.00361731
-0.137142
0.0193422
-0.017904
-0.00143825
0.3256
-0.483403
0.157803
-0.132407
-0.0555218
-0.469566
0.0891114
0.356677
-0.088789
-0.172063
-0.411976
0.584039
-0.0247123
0.115356
-0.00217473
0.178406
-0.18458
-0.198824
-0.0851451
0.283969
0.121934
-0.468186
0.346252
-0.142035
0.487963
-0.345928
0.619622
0.324596
0.172591
0.396726
-0.533027
0.136301
0.162715
0.0255748
-0.0442067
0.247404
-0.218601
-0.275842
0.422849
0.554488
-0.236923
0.562959
-0.031727
-0.531232
0.133158
0.000640977
-0.00248357
-0.0550148
0.111081
0.195409
0.34072
-0.442007
0.101287
0.57482
-0.377547
0.426089
-0.149903
0.508899