/*--------------------------------*- C++ -*----------------------------------*\
| =========                 |                                                 |
| \\      /  F ield         | OpenFOAM: The Open Source CFD Toolbox           |
|  \\    /   O peration     | Version:  v2012                                 |
|   \\  /    A nd           | Website:  www.openfoam.com                      |
|    \\/     M anipulation  |                                                 |
\*---------------------------------------------------------------------------*/
FoamFile
{
    version     2.0;
    format      ascii;
    class       volScalarField;
    location    "300";
    object      ddt0(epsilon);
}
// * * * * * * * * * * * * * * * * * * * * * * * * * * * * * * * * * * * * * //

dimensions      [0 2 -4 0 0 0 0];


internalField   nonuniform List<scalar> 
14315
(
-9.4087e-09
6.53202e-07
-2.21547e-11
1.37864e-10
9.01583e-11
-1.19711e-10
-2.60913e-11
-2.80168e-11
-0.000118739
-8.72143e-11
3.42699e-11
-3.81748e-09
2.999e-06
4.59906e-10
-1.70994e-11
7.5e-11
-5.67102e-11
-0.000527394
4.82499e-12
-3.54752e-12
1.91916e-10
9.98871e-12
-4.04401e-12
7.84303e-11
-1.3027e-05
-3.35609e-10
-4.3311e-07
-9.34973e-11
-8.87657e-07
3.13557e-12
3.01867e-12
5.57848e-12
-3.17078e-05
9.16986e-10
-2.09139e-11
5.70653e-12
-8.99355e-12
-2.67322e-11
-3.87981e-12
-1.20723e-10
-0.000135849
-6.62474e-11
1.06574e-10
-5.35096e-09
2.73867e-10
-1.15297e-10
7.40289e-12
-3.34114e-11
-7.99782e-11
4.9162e-11
-1.21539e-11
-8.3131e-10
9.9161e-12
4.31121e-12
5.11021e-12
-3.28519e-11
4.17259e-06
-2.94772e-11
1.15086e-10
3.52147e-05
-6.58805e-12
-9.65455e-11
3.27298e-10
2.49544e-11
4.31389e-11
4.53532e-12
2.16396e-11
1.37384e-10
4.39351e-11
-4.77548e-12
2.38467e-11
4.62679e-12
-1.51429e-11
1.46301e-10
4.2055e-11
-2.53567e-11
2.96282e-12
-2.98815e-11
-5.78418e-12
-2.96239e-09
2.62225e-12
1.90794e-05
-8.07433e-11
8.03647e-13
2.07766e-12
0.0012438
-4.44287e-10
-9.34477e-12
9.28769e-12
-1.10388e-11
-1.81936e-10
0.0002291
6.98003e-06
3.90635e-11
-3.1211e-11
-2.39582e-12
3.99649e-12
1.73559e-11
-1.69645e-11
9.48495e-11
1.69401e-11
-6.29686e-09
-6.84727e-12
1.46139e-10
5.8506e-12
1.95682e-10
-1.34819e-10
-4.3593e-11
2.3855e-11
-2.75182e-10
-1.75962e-10
-7.90049e-10
1.35464e-11
3.53712e-08
2.79891e-12
-1.5795e-09
6.10379e-11
-1.54299e-11
6.1523e-05
3.92953e-06
-6.59593e-13
-7.90219e-11
9.01367e-12
4.20453e-10
4.59485e-08
7.20517e-12
1.23671e-05
-6.05744e-09
8.0083e-12
-1.58961e-12
-8.83226e-11
3.21934e-05
-2.69717e-05
1.10467e-06
-2.86592e-11
2.76152e-11
-0.000814485
4.17579e-08
2.86008e-05
-5.03976e-05
6.97229e-09
4.49359e-08
4.24932e-13
2.96087e-05
2.54929e-07
5.9051e-11
5.87212e-11
-3.22e-11
-3.76439e-10
-3.56361e-10
7.27068e-12
2.48856e-13
5.51716e-12
4.17564e-10
7.95853e-11
-3.9023e-11
1.09596e-10
-2.06562e-10
-6.30521e-05
3.47605e-09
-1.39568e-10
1.01835e-10
-2.17494e-06
-2.50716e-10
-1.72949e-12
0.000996655
-4.48713e-12
6.36707e-10
4.08576e-12
-2.31912e-10
6.41246e-05
0.000512301
-3.20694e-10
-3.18e-11
-2.68852e-05
-2.3726e-05
6.79552e-09
4.2065e-12
5.94569e-10
-1.29679e-08
-7.87682e-06
3.88885e-10
6.15504e-11
-1.25317e-11
2.89103e-10
2.80283e-05
-2.33998e-10
-2.11045e-10
7.71517e-12
-3.80589e-10
8.88466e-12
-3.85618e-05
-4.48884e-08
1.26884e-12
2.60788e-11
2.07593e-10
-7.90533e-07
-2.08732e-10
-4.40445e-11
-8.11117e-12
-1.28581e-05
1.24636e-10
1.97296e-09
1.07283e-11
1.92972e-10
-1.19367e-10
-1.67932e-11
-4.5788e-09
1.60002e-11
9.57599e-13
-1.27824e-12
1.2328e-10
-1.26707e-09
4.48829e-10
-4.58596e-05
-1.29225e-10
-6.83117e-09
-7.9816e-12
7.93167e-11
7.28419e-12
-4.68493e-06
-4.10718e-11
-9.17648e-06
-4.67456e-05
-5.20034e-11
1.0057e-10
4.23572e-11
-1.85825e-10
1.34079e-11
-2.22582e-10
2.19442e-10
-3.128e-05
-2.63094e-11
-2.84077e-09
1.36411e-10
1.26005e-10
-9.65084e-10
1.96155e-10
-1.77909e-10
-0.000591582
-0.000539306
-9.23912e-11
1.95444e-11
-3.15782e-05
-4.92532e-06
-1.43681e-10
-0.000203636
7.00973e-12
3.88064e-12
-4.73628e-12
8.57467e-11
-1.05987e-11
-0.000225372
-2.13369e-11
-1.6554e-11
0.00020828
-0.000168766
-3.11214e-10
1.36743e-06
-1.02322e-10
2.05107e-10
-6.15155e-12
-1.25988e-10
-0.00105745
1.63561e-10
9.84147e-09
4.79894e-10
-4.08039e-06
9.27507e-11
1.92711e-11
-1.05548e-07
2.40284e-11
-1.02171e-11
-6.93506e-11
7.44764e-12
-3.53471e-11
-3.70558e-08
-1.11424e-12
3.57827e-10
1.09391e-10
3.70817e-11
-2.5858e-10
-4.8406e-11
1.6825e-09
1.19148e-10
-8.09565e-05
-1.59443e-05
9.49543e-11
3.01311e-11
-4.97358e-11
4.31561e-09
-6.91064e-11
-1.38892e-11
3.38346e-08
5.78116e-12
-6.57435e-11
8.7874e-13
-1.84465e-06
-2.06595e-11
-6.43658e-06
3.98964e-10
2.39001e-11
-1.67661e-10
8.30924e-11
2.62764e-10
5.18908e-13
2.11341e-10
4.28241e-10
-2.23779e-10
-1.49056e-10
5.03481e-13
-2.21005e-12
2.68797e-11
-7.15177e-10
1.90818e-10
4.1537e-05
-2.26571e-06
3.73368e-10
6.59958e-12
-0.000559016
-5.35448e-11
2.49707e-10
4.60333e-07
-1.134e-11
-3.23394e-11
2.26258e-11
1.13111e-07
3.06462e-11
1.14781e-07
5.02629e-12
-0.000195037
-8.19257e-06
6.22902e-05
-2.01562e-07
7.42025e-05
2.60507e-13
-3.76266e-09
-1.23981e-10
-3.81785e-05
6.30732e-11
3.61559e-11
8.88379e-05
0.000447705
-1.26469e-11
6.5013e-13
-0.000630322
-2.1211e-06
-0.000118579
3.4956e-13
1.0614e-10
7.77397e-05
-3.78887e-06
2.79655e-11
-1.9303e-11
-1.39754e-09
5.59221e-09
-4.63057e-11
-6.07047e-05
2.73438e-05
1.00901e-11
-5.26333e-10
-2.25305e-06
-1.34519e-12
8.58786e-12
-8.62536e-13
4.09238e-11
-5.53739e-10
-1.44235e-10
1.09535e-10
-7.12493e-12
-8.63551e-09
0.000122736
-3.34898e-11
1.80534e-05
-1.34726e-11
-8.11603e-11
-7.45899e-08
3.64477e-05
1.69122e-10
-1.33889e-11
3.49161e-10
-1.50139e-10
-8.34525e-08
1.15405e-10
-6.20137e-12
3.72946e-10
-2.32757e-09
-3.81439e-11
-3.19983e-05
-3.66848e-09
3.67353e-06
-1.7794e-10
-2.56836e-11
-1.42786e-11
-2.33734e-11
-1.21673e-11
-6.4798e-12
6.67523e-12
-5.76607e-11
6.92461e-10
-1.53576e-11
1.6688e-10
-2.61506e-08
-1.41347e-10
7.65138e-05
-1.07968e-05
4.15213e-05
-7.22155e-10
5.38465e-10
-1.24508e-10
7.44779e-12
-1.64718e-11
-1.08923e-11
1.2026e-07
6.08291e-11
-1.91451e-10
-4.38357e-10
1.08503e-09
4.41288e-11
-3.28055e-06
1.64205e-08
-0.000143444
-1.80869e-09
-7.58004e-11
7.18443e-12
2.82261e-11
3.03918e-10
1.0573e-10
-2.17428e-07
-5.51583e-06
-4.22572e-06
-5.62436e-11
6.14035e-13
1.84798e-08
-4.08986e-09
4.00835e-12
-0.000129879
7.86663e-09
-2.8658e-10
-1.64292e-10
2.43155e-08
7.72903e-12
-5.33351e-11
-6.82839e-06
-3.37151e-05
-5.26063e-09
8.94397e-12
5.63852e-13
-1.29711e-12
9.44488e-11
5.22981e-10
-2.17259e-11
1.08547e-05
-3.30573e-06
6.74574e-12
1.39927e-05
7.47731e-13
2.18736e-10
2.32163e-10
3.19753e-10
-1.00084e-05
-1.05765e-11
3.63662e-09
9.71917e-05
1.20278e-08
5.45758e-13
-0.000894595
-0.000150809
5.97083e-10
-4.39056e-11
-6.92537e-09
-2.12404e-10
-3.31324e-11
1.59318e-10
5.30972e-11
8.09032e-11
-9.32529e-10
-5.80636e-06
-4.61534e-11
-3.58745e-11
6.93257e-10
2.91734e-11
-1.74471e-06
5.77141e-11
3.16541e-10
-1.14843e-06
-1.36208e-08
5.86721e-11
9.07686e-06
-1.76286e-11
-0.000132652
-3.83606e-11
-2.99567e-12
2.22315e-10
-3.98603e-05
3.32655e-10
6.23748e-08
2.77978e-12
2.19885e-11
-1.99495e-11
0.000104617
-1.83971e-11
-4.2358e-05
-8.28976e-12
2.1294e-07
-3.97495e-11
8.43443e-12
-8.67938e-14
9.53721e-11
1.70629e-11
1.61505e-08
-3.87687e-11
1.68404e-11
-1.01667e-06
2.33035e-11
1.7809e-10
-3.29173e-11
6.90873e-09
-3.67395e-12
6.14272e-08
-2.00044e-12
-3.00308e-07
9.94499e-08
-0.000659646
-9.33968e-07
-4.62656e-09
1.81663e-11
-3.34839e-09
-0.000177465
-3.55739e-11
9.85589e-11
-8.81394e-09
3.84113e-12
1.54837e-11
-2.32446e-11
-4.86919e-11
9.6145e-10
2.21772e-12
-0.00258077
4.01597e-14
-6.43493e-12
-7.92553e-05
-2.80914e-06
8.56921e-12
3.36774e-11
5.12869e-12
5.3431e-13
-1.28707e-10
-8.88873e-05
-1.52861e-11
6.71763e-11
1.7983e-10
-2.15435e-11
1.10443e-11
3.29336e-09
-5.50892e-11
-1.71657e-10
-7.14697e-10
1.12381e-10
5.28974e-11
1.03052e-10
-2.21098e-07
2.97265e-10
-2.91926e-05
6.22141e-05
-1.43531e-10
4.58726e-12
1.18338e-09
-7.50611e-06
3.7537e-10
3.64552e-11
3.42315e-12
1.15685e-09
-4.07177e-11
-2.76438e-06
-4.0099e-09
9.28311e-09
-1.01469e-10
4.68874e-08
-0.000287981
4.24802e-11
-4.96035e-06
2.36181e-08
1.37755e-09
6.42132e-13
-0.000220303
2.47528e-12
5.86393e-09
1.19243e-11
-2.45643e-06
-1.10481e-12
-2.66131e-11
-4.09368e-08
-0.000120524
-0.00016671
-1.02617e-06
-1.5555e-11
-6.8274e-11
4.58047e-05
2.47514e-11
1.99248e-05
-7.82984e-11
-1.05609e-10
1.43168e-10
-4.65253e-11
-1.84552e-13
-8.53197e-11
-6.07587e-09
2.77138e-11
-8.72837e-13
-3.11968e-09
-1.04617e-12
-1.16264e-09
-4.61001e-12
-9.74967e-13
-1.15189e-10
-1.85673e-11
-5.02829e-05
1.73645e-10
9.40729e-12
9.91548e-05
5.95458e-11
-5.00173e-07
0.000260892
2.80218e-10
1.11089e-12
-1.33381e-11
1.44311e-05
1.08708e-09
-2.83902e-11
-3.15522e-06
9.43979e-08
9.21043e-11
0.000376862
1.89448e-11
-1.16823e-10
-2.07033e-11
-3.08435e-06
2.32942e-11
5.50057e-13
-3.02769e-09
1.51497e-10
5.73862e-11
1.02075e-10
2.04309e-09
3.98597e-08
-5.03604e-11
3.9595e-10
-8.95992e-10
1.41728e-09
-7.40001e-09
2.7566e-10
-0.00103118
1.04535e-11
-3.76409e-09
3.09954e-12
-2.27512e-05
-1.81839e-11
1.00655e-09
5.57633e-11
1.02991e-05
1.54845e-11
-2.56297e-11
0.00045577
1.8903e-10
5.68215e-12
0.000286262
1.87684e-07
6.75631e-12
1.6393e-10
-7.42633e-09
1.79451e-07
8.21347e-05
-1.60496e-11
3.39688e-06
4.24815e-11
4.99231e-10
7.95329e-11
-2.07051e-05
-4.40495e-12
-1.31548e-11
-2.47576e-12
2.67115e-10
4.09396e-11
5.15155e-05
7.0302e-06
1.07151e-10
-4.89758e-11
4.90093e-11
-1.18539e-10
8.27748e-12
0.000131064
8.17363e-11
2.73581e-10
9.5553e-11
1.41809e-11
3.4708e-11
0.000351205
-6.92925e-09
-6.37347e-05
4.99814e-12
6.38274e-11
-3.44031e-12
-5.91749e-11
1.50265e-10
3.09284e-09
7.86389e-12
-1.85937e-11
-9.35856e-07
-3.3809e-07
-1.35857e-08
1.85982e-12
-8.88964e-12
-0.000625905
1.74096e-06
2.37198e-11
5.39491e-06
-2.02263e-11
2.83742e-10
-3.24029e-09
-4.05235e-10
3.29701e-10
0.00116801
4.49594e-05
-2.23927e-09
1.51961e-10
1.363e-11
-2.45295e-10
-4.78755e-09
-0.00104637
-3.33145e-11
-3.12012e-09
-5.04237e-06
-2.84603e-09
1.00451e-09
-0.000311404
-0.000542215
3.76174e-11
-2.46848e-11
-1.72732e-09
7.42789e-11
2.25259e-10
3.85501e-12
-1.83926e-10
0.000616661
3.92954e-11
1.78387e-10
-6.28465e-10
-7.07325e-06
5.98032e-11
2.20881e-10
5.61708e-08
2.4096e-10
-1.09171e-11
5.57898e-10
-0.000797834
1.27753e-05
-9.79019e-06
5.40103e-11
6.79934e-12
-0.000285833
1.34751e-05
-1.08209e-05
1.75198e-10
1.18402e-10
-2.90734e-05
1.5426e-12
-3.49289e-11
-2.50977e-09
7.45622e-05
3.72245e-11
-1.43694e-12
9.52656e-07
4.09446e-13
-9.05838e-11
5.59535e-11
-6.21481e-05
-4.86318e-12
2.17615e-11
0.00102987
-1.03701e-10
-6.36526e-07
6.66875e-12
1.12526e-10
-4.79068e-11
-3.86051e-12
8.37912e-05
4.15806e-05
-1.60678e-10
1.35751e-10
-1.04534e-13
-2.56015e-05
2.02175e-11
-3.16311e-11
-2.87523e-11
1.79601e-08
4.40493e-05
1.07895e-12
1.03323e-08
2.72827e-11
-1.27865e-11
-1.55545e-09
1.18731e-08
3.67028e-06
2.92908e-08
-5.99434e-12
-1.39642e-10
1.85272e-12
7.31423e-08
-4.398e-11
-6.47952e-10
-2.61272e-10
7.01676e-06
5.66134e-05
-6.12084e-11
-2.95598e-11
1.05555e-06
1.10667e-10
-1.79027e-11
2.02582e-10
-3.0778e-09
-0.00321789
-4.19997e-11
4.26563e-10
1.68387e-10
0.000245101
-1.25154e-10
-3.17237e-11
1.1601e-09
1.7163e-11
1.55745e-10
-1.43965e-10
1.25519e-10
1.18118e-07
-2.56639e-06
5.8307e-06
2.72134e-10
-2.86679e-11
-3.30444e-05
1.23092e-09
1.74545e-12
1.28704e-06
7.41522e-09
-2.64994e-11
6.49325e-12
2.84473e-10
1.25286e-12
-0.000334766
-2.0024e-10
4.5839e-12
1.96402e-10
-8.42431e-11
-2.40544e-09
3.20517e-10
1.04474e-10
-6.15451e-10
1.00354e-06
-7.63374e-11
-4.59215e-05
1.33795e-11
-2.23965e-09
-1.63202e-11
1.73927e-10
-1.71273e-09
-1.13239e-11
-1.88414e-11
-2.19696e-10
4.37373e-10
-1.76762e-05
9.85858e-08
1.26444e-08
-2.24565e-12
2.13822e-10
0.00327465
-4.02794e-11
1.08928e-13
-2.34442e-11
-1.33342e-11
1.41165e-05
-6.53861e-06
3.0848e-10
2.74566e-08
4.88225e-11
1.28841e-05
1.07871e-05
0.000176431
5.7014e-09
1.04374e-11
0.000576595
4.4031e-07
1.21084e-11
-6.42494e-12
2.63358e-11
-1.31963e-08
2.56424e-06
2.77834e-10
7.95868e-12
1.85783e-13
1.52214e-10
4.5805e-10
7.97068e-08
2.50544e-07
-9.79228e-12
-7.71607e-05
-1.20842e-09
0.000263671
-2.73003e-11
1.59819e-08
-2.46479e-12
-7.08628e-12
-1.29268e-09
5.84151e-11
-2.34231e-07
-1.20811e-10
3.43836e-10
7.29493e-11
-1.45047e-11
1.09689e-11
-3.90953e-05
-3.72853e-12
6.24328e-12
1.2442e-12
1.01694e-10
-3.21944e-11
4.99335e-10
2.00212e-10
5.85042e-07
2.73398e-12
1.5695e-10
2.43957e-11
4.89665e-11
-8.05494e-10
-6.67535e-11
-2.14696e-07
2.18681e-06
1.3951e-11
1.32519e-05
4.65164e-11
7.77727e-06
2.06872e-10
2.82581e-10
1.66338e-10
2.86889e-10
5.18344e-06
-6.15651e-08
-2.09668e-06
-5.13281e-05
-8.99449e-05
-2.96919e-10
1.27378e-08
8.24354e-11
1.05114e-05
4.62768e-06
1.47261e-11
-1.75396e-10
0.000806927
-5.76167e-12
-3.1158e-12
0.00122341
3.94368e-10
4.17774e-05
1.55218e-11
-2.10923e-05
5.13811e-07
-1.07734e-09
1.18142e-12
-3.982e-08
2.63903e-11
6.94818e-11
6.7174e-11
-4.855e-05
-9.20963e-12
-3.5852e-12
9.74532e-12
-0.00104546
2.65975e-10
2.36745e-12
1.52354e-10
-1.09018e-10
8.87084e-11
1.08907e-11
1.5477e-10
7.17721e-07
-1.11116e-05
-7.84056e-08
-2.24671e-11
-2.25808e-10
-7.44587e-10
1.94562e-05
-1.33753e-09
4.77454e-11
-1.20019e-09
1.43725e-11
7.84661e-11
-7.85267e-06
-1.73713e-10
4.12594e-11
-8.48732e-11
1.71715e-12
-1.59606e-05
8.68583e-11
-9.30796e-10
-1.58988e-11
5.41737e-06
6.37261e-12
3.31253e-09
0.000172251
1.40388e-12
1.80543e-09
-2.13486e-09
4.08762e-08
-1.88288e-09
2.34844e-12
6.64844e-07
2.69252e-12
3.32024e-11
-2.82163e-11
-1.13164e-11
1.74315e-10
-1.01693e-05
-1.85601e-09
-0.000869562
5.24741e-12
1.05565e-11
-2.94747e-05
-3.17381e-11
-3.62734e-10
4.65684e-11
2.10536e-09
-2.76518e-12
6.93734e-12
1.12262e-10
-7.24758e-12
3.23694e-05
-1.48973e-07
3.78001e-11
-2.99695e-05
-1.22395e-09
-6.92766e-12
3.03559e-11
2.24404e-09
6.12781e-10
-2.24291e-10
2.64652e-11
-1.64619e-10
1.80341e-09
0.00114473
-1.41541e-09
7.38217e-07
2.29353e-10
-5.05442e-10
6.17368e-06
-1.55973e-11
5.52495e-11
1.35616e-11
-4.19648e-11
3.12321e-09
4.70957e-11
9.73644e-11
7.74211e-09
2.6209e-09
-1.17857e-06
3.45406e-10
0.000302776
2.10724e-07
-0.000172114
1.90005e-10
2.53128e-09
-8.09362e-11
-1.61242e-11
8.30301e-08
-9.88879e-05
-0.000345227
-4.51615e-11
9.42926e-12
-3.32463e-08
1.0457e-10
-2.82625e-09
-3.90776e-11
-1.0626e-11
-4.55651e-11
-1.8654e-10
1.58035e-10
-1.95702e-11
-1.27371e-06
-7.53015e-05
-4.87455e-09
-1.55131e-08
1.07677e-11
-1.05609e-09
2.38281e-11
-7.77121e-11
9.10629e-11
6.48599e-08
-4.00118e-05
7.25874e-11
-0.000445537
-6.88453e-10
2.06364e-11
-3.14207e-05
2.8072e-08
-7.6576e-10
9.21836e-11
5.72486e-10
-1.59428e-11
-2.11527e-10
1.53944e-09
-7.7073e-11
-7.35443e-12
-0.000299471
-4.77878e-10
-2.06189e-06
1.30962e-12
8.69679e-09
-1.01225e-08
8.16526e-12
3.06994e-12
1.05117e-05
2.39814e-08
2.07827e-11
-3.72132e-12
2.39762e-13
-7.89302e-05
4.16649e-11
3.1714e-14
-1.57998e-05
0.000380739
1.39126e-11
-8.94595e-11
-6.43775e-11
-9.71457e-11
-7.43146e-10
-9.09974e-05
-1.51916e-10
4.51046e-11
-1.45904e-11
1.57464e-07
7.05749e-11
3.77955e-05
4.70666e-05
2.05818e-11
-4.07633e-12
5.94972e-08
-2.75476e-10
7.90982e-12
5.65291e-05
1.87672e-11
-8.42442e-11
5.07776e-09
-0.00136604
-1.93028e-11
1.88266e-06
1.26251e-11
8.5353e-12
1.97724e-12
0.000436587
-1.42378e-08
-1.87077e-10
-2.63399e-11
0.00033989
1.74339e-09
-5.37908e-12
-5.05675e-10
-3.3223e-08
-4.37859e-10
-4.64224e-06
4.06896e-12
1.08766e-10
-1.5383e-12
7.17277e-05
-4.45862e-11
2.1836e-12
5.9597e-11
2.77288e-11
4.71063e-12
-7.83484e-12
1.29667e-09
5.53158e-12
-1.23949e-11
-2.07205e-10
3.51631e-12
7.49842e-08
2.55273e-10
3.89628e-10
7.29668e-11
1.84594e-10
4.39259e-11
-1.97513e-10
2.16952e-11
-1.07907e-10
2.3472e-05
7.58531e-12
1.05099e-09
-4.29111e-05
3.0949e-11
0.000194161
3.17211e-12
-7.64447e-05
5.28633e-11
4.85762e-11
-5.24534e-10
-1.77081e-05
6.64301e-11
-2.36854e-11
-6.54681e-11
4.13455e-10
-8.59708e-11
1.14503e-09
-0.000168509
-1.87113e-06
1.21814e-09
6.1322e-10
5.8753e-12
1.5514e-11
-2.17997e-09
-2.41178e-10
-5.2379e-05
2.42676e-10
-1.25822e-05
-1.09088e-09
9.18292e-05
-3.18115e-11
-1.04177e-11
1.17727e-11
1.08675e-10
-9.00581e-12
6.28715e-12
8.20733e-11
-1.02602e-12
-9.34064e-12
1.38833e-05
-7.77932e-06
2.11543e-11
-1.19704e-12
1.50988e-10
-1.85607e-05
3.30599e-08
-8.92568e-10
-1.519e-10
-8.93608e-05
-3.58013e-11
4.96555e-11
-7.31365e-11
4.23128e-11
-1.86752e-10
-7.53005e-07
1.75393e-11
-1.42654e-10
-1.22145e-09
-2.41863e-11
-1.98103e-07
-2.065e-11
-0.000394129
-2.92447e-05
6.09585e-11
-2.94561e-11
-2.35199e-11
1.10684e-11
9.52626e-11
-1.7298e-10
-1.87247e-12
6.85567e-13
5.75631e-10
-2.1144e-06
-3.19739e-11
0.000891766
-6.75278e-11
5.92867e-13
-0.0024182
-3.63582e-08
-2.83209e-11
-2.60946e-13
-0.000131292
-1.25236e-09
1.28944e-10
-0.000117373
1.01411e-09
-2.94658e-11
-0.000107002
-1.85389e-09
1.80967e-11
3.81745e-11
4.22481e-05
-8.05139e-13
1.22619e-11
1.2715e-09
-5.55179e-05
-6.10988e-09
-8.2489e-10
3.13435e-11
-3.51932e-11
-2.37496e-09
-9.86222e-12
5.69681e-10
-2.97333e-10
-3.24386e-10
1.59986e-10
1.05456e-09
2.26693e-11
-5.00926e-10
1.03871e-06
3.14445e-10
1.23676e-05
-2.57136e-10
1.81947e-05
1.30842e-06
0.000262085
2.11466e-11
-3.39948e-11
2.6747e-10
7.82743e-11
-2.81457e-11
-9.72998e-11
-0.000419202
-9.04668e-09
-2.56603e-09
1.14967e-11
2.16284e-11
-7.69706e-09
1.60996e-05
-4.12919e-10
8.69414e-12
3.55207e-10
1.72742e-10
-0.000180816
2.28654e-07
4.10537e-10
3.65632e-05
-5.33465e-05
3.71435e-11
1.09989e-11
2.76576e-11
-1.10582e-11
-4.54343e-11
-1.98382e-05
3.7107e-10
-1.99479e-05
1.76794e-12
-9.7456e-12
2.61363e-11
3.71565e-12
4.11859e-12
6.04531e-11
-1.67371e-10
1.04328e-05
2.90493e-10
-4.9511e-08
-3.58001e-11
4.84765e-05
4.32214e-06
2.43374e-09
-3.63853e-05
-1.88912e-08
-2.13205e-11
-7.99833e-11
-1.11968e-05
2.6549e-12
1.33301e-10
-1.10943e-11
3.2446e-11
-2.11618e-10
6.92849e-12
9.1962e-11
-1.48842e-11
2.06879e-11
-4.5351e-11
4.50877e-08
2.6242e-10
5.23601e-12
-3.0024e-05
1.29557e-11
2.35383e-10
2.52409e-05
-4.75474e-10
-2.60592e-14
2.97611e-08
8.13853e-08
4.60349e-11
-0.000155812
-0.000104859
4.52572e-07
2.03567e-07
-3.95639e-11
-2.24192e-09
-1.20927e-09
-1.51717e-06
1.34169e-09
1.66167e-10
-6.75188e-07
3.2854e-10
-3.64899e-11
7.02914e-10
-3.24157e-10
-8.91111e-11
6.82212e-11
7.70393e-13
-8.89403e-12
2.09321e-10
-1.22794e-10
-1.30795e-09
1.51493e-10
-4.91813e-12
-8.20142e-10
6.97959e-11
-1.6054e-11
1.46563e-09
-5.16358e-06
8.11815e-09
4.89202e-09
2.74945e-11
8.61496e-12
-1.94835e-10
6.59721e-12
1.34401e-10
-7.93675e-12
1.12356e-05
1.12825e-11
1.49615e-09
2.88121e-11
6.08811e-05
-2.37477e-09
0.000803772
-2.08068e-12
-2.66763e-07
-3.77357e-11
5.92569e-11
-5.91621e-06
-5.33765e-11
-1.19804e-05
-9.9335e-12
1.36013e-10
-2.6273e-10
-2.35181e-11
1.81369e-10
1.25525e-09
5.73932e-11
3.664e-05
-9.68381e-11
-2.09047e-09
-7.90297e-12
-1.19563e-10
-7.70567e-05
-4.40962e-06
-5.41265e-06
9.02956e-11
4.37242e-08
-1.94109e-07
7.49673e-11
-5.14558e-11
2.59798e-10
-2.49635e-10
-1.58935e-12
-0.00156717
-1.02199e-06
-3.59065e-05
-3.2161e-11
9.8518e-11
6.01126e-10
8.08739e-10
1.36249e-10
-1.64761e-11
-7.82777e-10
9.6569e-09
7.61059e-11
-1.38469e-10
4.38014e-11
1.96399e-10
2.81316e-10
-1.05557e-10
1.34862e-05
7.29386e-07
-1.57321e-05
4.43678e-11
-1.36308e-11
-3.5636e-09
-2.7949e-10
4.77155e-11
-2.29231e-08
-1.19193e-10
3.67258e-07
-2.37952e-10
-1.41573e-06
-3.5126e-11
-4.41492e-12
-6.90764e-13
-1.76079e-10
4.1472e-11
3.95325e-12
-5.34598e-06
9.61991e-12
7.69742e-10
2.4388e-12
-9.61414e-11
-3.19854e-06
3.38772e-09
7.88229e-09
1.56029e-08
-0.000142831
-1.01051e-06
-6.26913e-08
-0.000217382
-8.8498e-09
3.1055e-09
1.62169e-10
1.09889e-10
1.25296e-11
4.48622e-11
-1.1502e-08
6.05551e-11
-6.75772e-07
-1.75299e-11
-9.97445e-10
-2.11619e-12
-2.01416e-10
7.92856e-11
6.73075e-12
-2.14049e-11
5.52108e-06
1.08593e-09
-2.50963e-11
6.83711e-11
5.59893e-10
-2.29455e-09
2.31445e-08
-6.26706e-08
-2.52352e-10
-4.43041e-11
3.20749e-13
-3.93894e-10
-9.51516e-06
-3.81864e-12
-1.67987e-08
8.44285e-11
9.48125e-11
-7.12542e-06
-5.37931e-11
-1.232e-07
2.28931e-08
1.3371e-10
-2.32146e-05
-2.54935e-11
-8.4501e-09
4.98181e-08
-2.22605e-05
-1.11634e-10
-3.88784e-12
1.40607e-11
4.86429e-05
-1.62189e-12
-6.11728e-05
9.55162e-10
-1.37627e-10
-1.30858e-10
-2.0377e-11
-0.000248251
-2.0701e-10
7.08493e-11
4.19744e-10
3.09468e-11
-3.04822e-11
6.67796e-11
-1.93558e-06
1.6628e-08
-1.53426e-06
-5.99415e-10
1.22767e-10
-3.2523e-10
-1.52112e-05
-4.01978e-05
-1.82351e-10
-1.32557e-10
-1.63503e-05
5.2824e-05
-1.73931e-11
4.30497e-13
-5.88418e-13
-5.73496e-11
5.41848e-11
-4.54225e-11
1.32541e-10
2.8435e-05
-4.2199e-10
-2.65468e-10
4.01016e-09
1.67242e-05
-2.57521e-11
-2.1817e-11
-0.00261644
0.00128063
-1.40229e-11
6.55441e-12
-6.76713e-08
-4.90015e-11
1.26959e-10
-1.72941e-10
2.40008e-09
7.95271e-11
4.21148e-05
2.56171e-10
4.44477e-12
1.70459e-08
8.35051e-05
1.98225e-05
4.83657e-11
-1.62956e-11
5.43288e-12
-2.96376e-10
2.59354e-12
4.21668e-09
-8.08081e-12
1.94373e-10
1.80618e-10
-0.000498459
-3.89968e-05
2.59961e-10
7.22232e-11
1.82746e-11
4.02173e-08
2.27205e-12
7.45332e-07
3.75486e-11
-5.24217e-11
9.99857e-11
9.00253e-11
-1.71115e-10
5.0511e-10
-6.86365e-12
-2.20814e-08
-4.18863e-06
-6.70094e-09
-1.03159e-12
1.87568e-09
-6.41949e-12
5.51445e-11
6.08304e-10
-1.37179e-10
-5.8224e-12
-3.33221e-11
8.55703e-11
4.86679e-12
1.96166e-07
1.71766e-11
-0.00024918
2.67319e-11
1.91385e-07
2.10557e-10
-7.90925e-12
4.01984e-06
1.28401e-10
-1.67943e-09
1.01502e-09
1.04622e-10
3.93534e-05
-0.000249848
-1.54593e-05
2.74072e-11
-0.00106579
4.91464e-11
6.00272e-11
-2.31508e-07
4.4194e-06
7.58272e-05
6.71488e-12
-5.49872e-10
-8.86725e-11
-1.07966e-11
-1.37372e-12
-6.7716e-11
3.17985e-11
-1.25368e-09
1.03033e-05
-6.02408e-10
7.35041e-07
-1.33743e-07
2.37775e-08
1.67595e-10
-1.39392e-10
9.82892e-10
1.90271e-05
1.89421e-10
1.24121e-11
-9.63315e-12
-5.10468e-12
-1.95788e-10
-2.3193e-11
2.20386e-11
3.10185e-12
2.05094e-05
1.12073e-09
-3.9143e-11
3.23649e-11
4.02563e-13
1.45163e-10
2.9639e-08
6.68383e-11
6.76952e-11
-9.57697e-05
-1.80403e-10
2.21858e-10
-1.17279e-10
-1.68916e-08
-4.00797e-06
-2.36654e-12
6.1627e-06
3.87079e-10
-2.80211e-06
-4.89395e-11
-7.41024e-12
-2.74801e-11
-1.0716e-10
0.00128669
-1.85586e-10
9.63887e-11
5.14782e-10
3.98727e-11
-4.06781e-06
4.50129e-10
-7.33407e-05
1.12744e-09
2.69116e-10
1.93244e-08
-0.000541589
-2.38556e-09
-2.70341e-11
-1.57154e-09
1.13812e-10
4.16959e-11
2.35151e-11
-1.11054e-09
-1.01951e-12
-6.91099e-12
4.50181e-11
-9.54369e-11
-2.47167e-12
-3.82542e-06
-2.78412e-10
8.91718e-11
3.76214e-11
8.08503e-09
-7.76367e-11
7.4616e-05
4.45267e-11
5.90043e-10
0.000274266
-3.84741e-11
-4.06664e-10
-5.61184e-05
7.74443e-11
-1.04889e-10
-3.04353e-11
1.12898e-10
3.77867e-11
-0.000119735
1.0498e-10
2.74042e-11
3.55579e-10
-1.35469e-09
2.67193e-10
-3.67907e-09
3.7805e-10
5.49486e-07
1.05059e-09
1.87634e-10
1.20919e-05
3.33251e-10
-2.99224e-10
-6.44429e-13
-3.55349e-11
6.84616e-10
4.35514e-05
-1.68905e-12
1.83047e-11
2.73377e-10
8.58735e-12
2.77592e-09
-3.89548e-10
-4.75614e-05
-1.43971e-05
1.1031e-05
3.75269e-07
1.27134e-10
1.37134e-09
-1.50599e-05
3.48243e-11
8.43888e-11
-5.08903e-11
-2.61844e-09
-1.9099e-05
4.14716e-11
1.59671e-07
-2.54502e-09
1.8342e-10
9.96203e-12
-2.28282e-11
-7.28088e-11
-4.48375e-08
8.51541e-11
1.6829e-09
1.43255e-10
-1.25026e-05
-3.96682e-10
4.56537e-05
3.03711e-12
-0.000636325
-3.6073e-11
-6.41061e-12
-8.52355e-12
2.30493e-10
0.000312323
0.000207184
-7.73095e-11
0.00134579
1.96698e-11
1.98625e-09
0.00069877
2.91456e-10
3.96805e-12
-1.25257e-11
1.97515e-10
-0.000678245
0.00111352
1.13498e-11
8.31139e-05
1.13656e-07
0.00124544
-4.55336e-10
3.89092e-11
0.00131182
1.50932e-10
-4.93861e-11
-1.48088e-10
6.87321e-11
2.56098e-10
4.60078e-10
-2.1204e-11
7.65237e-14
2.22909e-11
4.36254e-10
-1.3442e-10
2.0099e-05
-1.3443e-10
-6.91333e-12
-2.85123e-11
-1.77828e-08
-1.3278e-11
-0.000524819
-1.36842e-10
-1.07365e-11
1.36801e-05
1.44901e-10
-3.77451e-11
-1.81492e-10
6.70743e-11
5.21401e-11
-1.82677e-12
-2.17548e-10
-3.944e-06
5.01797e-11
1.31931e-09
-3.29068e-05
-0.000136447
2.23413e-11
4.68635e-12
-5.40668e-11
-1.00567e-05
-5.07783e-11
2.86632e-10
1.73421e-07
5.08447e-12
-1.42447e-10
-3.89293e-11
0.00150501
-3.22645e-10
-0.000488648
2.87239e-10
8.28552e-11
2.03719e-10
-5.07365e-13
-0.0004376
-2.80078e-10
4.96026e-06
-4.13651e-06
-7.87665e-05
-1.23938e-05
2.20307e-10
-4.37411e-11
3.63278e-09
5.53826e-05
4.2426e-10
0.000723738
1.8106e-10
-2.71271e-06
6.85029e-11
-3.95761e-12
-2.33839e-06
-7.43938e-09
-9.38521e-05
-3.49185e-11
-8.34947e-12
-1.30042e-05
7.21363e-12
-4.6482e-11
-1.18152e-09
-1.30832e-08
8.47844e-10
-1.5353e-11
6.37989e-11
-2.40108e-09
-7.68378e-05
2.69597e-10
-1.84582e-06
2.70123e-06
1.07826e-10
-1.21166e-10
1.98065e-06
0.00128768
-1.90359e-10
-7.55095e-12
3.16816e-10
3.76195e-09
-4.37422e-05
9.56532e-12
9.68442e-12
7.40313e-11
-4.18343e-09
-3.47956e-10
6.23682e-11
3.42615e-11
-6.47393e-11
-0.0014778
-1.23226e-11
-4.5666e-05
1.33757e-11
0.000181543
7.83393e-12
-0.000344059
-7.91748e-11
-1.31905e-10
3.36665e-10
3.29933e-05
-5.74402e-08
-3.26938e-05
3.32718e-07
-3.46275e-06
1.0962e-12
-3.58707e-09
-1.3781e-12
7.9841e-11
-0.000309536
-5.83091e-07
-4.29175e-12
5.75368e-11
1.54343e-11
-5.82109e-06
6.4977e-10
3.41152e-11
-1.07195e-10
9.48578e-10
2.37169e-11
-1.09153e-10
-6.80372e-12
6.38071e-10
-2.88735e-10
-8.91029e-11
1.85909e-10
-5.39263e-09
1.27941e-10
-2.66107e-11
1.79211e-10
2.20075e-11
-0.000115626
0.0014014
5.69827e-11
-2.72165e-12
-8.49366e-11
-1.48436e-11
-5.20678e-11
-0.00043973
-1.38678e-11
-1.42357e-05
0.00156019
-3.1815e-11
-2.164e-11
-8.99334e-11
-6.66852e-13
0.000340198
4.9009e-06
-6.57042e-11
-7.55952e-12
1.48649e-10
-1.59487e-10
-1.84101e-09
-7.6799e-13
-0.000152699
2.45466e-12
-5.61622e-11
0.000342394
-3.7667e-09
-7.79419e-11
6.69253e-13
-5.1879e-10
-1.23587e-12
-4.04673e-06
-3.77247e-07
-6.43395e-11
-1.58997e-11
-0.00100733
2.04368e-05
-3.77478e-06
-2.42456e-11
1.29409e-11
1.73485e-10
1.4125e-08
5.80549e-10
6.29978e-06
3.0215e-12
-3.59913e-10
-5.44758e-11
1.064e-10
-3.70408e-06
-1.76315e-10
-0.000733879
5.43225e-09
-7.46303e-05
3.1605e-10
5.26855e-11
0.000119958
-8.58544e-10
6.41081e-10
3.95132e-10
1.94855e-10
-2.44378e-10
-1.21722e-09
2.04539e-05
-3.83703e-11
-9.2561e-11
-3.02735e-08
1.57611e-10
-8.25881e-11
-2.57696e-11
-1.20209e-10
2.01453e-05
-0.000113817
9.38688e-08
-1.09429e-11
-7.6422e-11
-0.000152802
-4.38553e-11
1.28092e-09
2.11351e-11
2.63041e-07
-8.36361e-10
0.000291154
-5.6186e-09
3.07159e-06
-1.85511e-10
-2.07214e-10
-1.21799e-10
3.72953e-11
-1.33686e-10
2.70805e-05
6.34641e-05
2.91879e-10
1.13502e-08
5.36359e-12
-1.9523e-11
-1.27593e-05
3.22381e-12
0.00123928
-2.53653e-05
-1.85637e-09
0.00171437
2.32914e-10
-2.24292e-06
2.43366e-11
5.95403e-12
6.08979e-05
-3.32113e-11
3.04178e-11
2.16355e-06
-6.9433e-05
-1.68635e-10
-8.88791e-13
1.09186e-10
-2.18237e-05
5.22708e-11
-1.60108e-05
5.94179e-11
8.99678e-12
9.69309e-08
1.22263e-10
1.71131e-10
-2.86641e-09
1.22042e-10
2.60309e-10
2.0949e-06
1.53645e-08
2.79886e-10
-1.72043e-10
5.75878e-05
7.16806e-11
2.12712e-10
4.08827e-11
3.34594e-08
6.22747e-05
-1.78838e-05
1.57101e-10
-2.34591e-07
-9.33815e-05
-3.63835e-11
1.81205e-09
-3.99846e-10
-5.44821e-10
-4.87611e-11
7.00056e-09
-5.49865e-05
-1.91692e-05
-0.00178353
-4.11397e-05
-1.33061e-10
3.16901e-11
-2.36492e-10
1.50226e-11
-0.000118345
3.42886e-12
8.40323e-05
5.15757e-05
-3.13545e-11
4.94131e-11
-9.29935e-11
-4.38098e-11
-0.000192797
-4.82091e-12
-4.05582e-11
2.3357e-10
1.04915e-05
1.28456e-11
8.71266e-10
-4.35164e-10
-8.32854e-12
1.05541e-10
-2.41201e-09
-7.79349e-09
-3.93846e-12
5.65253e-10
-6.29366e-11
-0.000554526
5.87117e-12
-9.5487e-12
5.04249e-11
-5.18595e-10
-1.01959e-05
-5.63652e-12
-1.0314e-11
-2.22601e-11
-2.39656e-11
4.67289e-05
2.93678e-10
-3.59296e-11
-7.00297e-06
-2.35026e-12
-4.2912e-12
-2.12453e-11
-1.20673e-06
2.72391e-05
2.15435e-11
4.56409e-06
-1.21707e-05
-5.0837e-07
2.05883e-08
-0.00013096
3.66712e-07
-2.28197e-05
3.83705e-10
-1.36137e-10
-1.24844e-08
-1.38318e-11
-8.79507e-11
-3.87629e-05
7.30638e-05
-1.34286e-11
-4.78267e-10
-1.29415e-10
-4.23952e-11
-1.20617e-10
2.21819e-11
-3.99594e-11
-1.12468e-08
1.56538e-08
2.56697e-09
-0.000763387
1.3541e-08
-6.42371e-11
-2.58958e-11
-1.76243e-05
-9.90235e-11
-6.78922e-06
-3.20083e-08
1.35274e-11
2.03741e-10
-1.3294e-08
1.94666e-06
-1.48572e-11
2.95315e-10
-1.44743e-11
4.89096e-09
-1.88441e-08
7.56058e-11
0.00286406
1.92737e-09
-4.36871e-11
1.34417e-05
-6.23634e-05
-1.93396e-10
-2.49764e-12
-1.56251e-10
1.98823e-10
-3.5443e-09
-3.54158e-10
-2.20337e-06
-1.30509e-05
-5.27272e-10
1.29517e-12
4.32301e-06
4.81318e-09
2.85861e-08
-1.60246e-11
2.3036e-11
-1.062e-05
2.82876e-10
0.00101801
-5.14503e-05
-7.39601e-05
-1.36672e-08
-8.72857e-05
-4.69198e-11
4.39718e-10
-1.60687e-08
-3.19827e-07
2.30726e-10
-1.0654e-11
3.9767e-11
1.20494e-12
-1.74117e-05
2.21602e-10
-8.98468e-13
9.8662e-06
-6.27477e-11
-2.15326e-05
-1.86868e-08
3.09321e-11
-6.9821e-06
6.16319e-05
-0.000525587
-3.2742e-11
-3.23368e-11
-5.07358e-11
3.04858e-07
-1.19036e-05
3.42719e-08
2.11524e-11
5.49628e-10
-4.17607e-09
4.37247e-05
-3.85847e-10
-0.000122682
-1.32419e-10
-6.94634e-06
-2.50828e-09
1.34232e-05
-3.69419e-09
-3.28858e-11
8.65305e-11
-8.49868e-11
-1.8222e-12
-3.6031e-12
2.438e-10
4.17928e-11
-2.4366e-08
-1.60088e-07
5.45432e-11
-6.30409e-10
1.76145e-10
4.82563e-08
3.84084e-06
-6.68193e-11
-9.28434e-11
2.65545e-06
-6.1915e-11
4.88474e-05
-1.19124e-11
8.80268e-08
-6.49386e-09
-0.000315939
-7.58555e-11
-1.56383e-06
8.1903e-06
-2.52478e-09
1.28845e-10
-7.90325e-13
-4.18877e-10
-2.75508e-09
-1.1003e-10
2.74479e-09
6.66282e-08
-6.26246e-12
3.66957e-05
-4.56222e-11
0.000387741
-2.8133e-10
7.44577e-07
-6.83206e-05
2.72417e-10
-5.66068e-11
6.41182e-06
2.30761e-10
-9.50966e-13
5.56671e-11
3.11296e-11
2.11231e-09
7.1883e-12
6.12718e-09
-5.11469e-11
2.56349e-07
-0.000418183
2.78247e-11
-9.23514e-12
-2.85709e-10
-2.9679e-08
2.05092e-05
-4.13065e-11
2.93746e-10
4.9476e-11
1.46702e-08
2.06893e-10
-0.000342788
-0.000261084
2.97445e-08
-1.20216e-10
-3.07564e-09
-1.19184e-10
4.73687e-11
0.000111752
2.30555e-08
-1.46063e-11
0.000106309
-4.53138e-06
2.2288e-10
-1.09963e-10
8.30846e-09
3.07057e-10
-6.86836e-10
-4.75057e-05
-4.37154e-07