/*--------------------------------*- C++ -*----------------------------------*\
| =========                 |                                                 |
| \\      /  F ield         | OpenFOAM: The Open Source CFD Toolbox           |
|  \\    /   O peration     | Version:  v2012                                 |
|   \\  /    A nd           | Website:  www.openfoam.com                      |
|    \\/     M anipulation  |                                                 |
\*---------------------------------------------------------------------------*/
FoamFile
{
    version     2.0;
    format      ascii;
    class       volVectorField;
    location    "300";
    object      U;
}
// * * * * * * * * * * * * * * * * * * * * * * * * * * * * * * * * * * * * * //

dimensions      [0 1 -1 0 0 0 0];


internalField   nonuniform List<vector> 
14315
(
(1.03695 0.00154632 5.60317e-22)
(1.10124 -0.00625693 -2.5284e-20)
(1.03552 0.000154195 -1.74438e-22)
(1.04887 0.015437 -8.42245e-22)
(1.05053 0.0067211 -3.60982e-21)
(1.02983 0.00540584 -3.90692e-22)
(1.0375 0.000378588 -6.30447e-23)
(1.03913 -0.000712624 -3.09582e-22)
(0.986547 0.0638973 4.29233e-20)
(1.03618 0.00144888 0)
(1.03659 0.00133668 2.44264e-22)
(1.03317 -0.00053416 5.78224e-22)
(1.07965 -0.0215185 -3.602e-21)
(1.03246 0.0110126 -8.47589e-22)
(1.03752 0.000382199 0)
(1.03771 0.00162245 1.04518e-22)
(1.03138 0.00156465 1.0169e-21)
(0.821546 0.0686146 1.63897e-20)
(1.03505 0.000685108 3.07228e-22)
(1.03793 0.00151985 0)
(1.06715 0.0142673 0)
(1.03665 0.000121804 0)
(1.03687 -0.000258227 2.83185e-23)
(1.03654 0.00134544 -5.63251e-22)
(1.08373 0.0351824 -4.16086e-20)
(1.03396 0.0116821 4.24143e-22)
(1.09592 0.000734686 1.20537e-20)
(1.03623 0.00147686 -2.91424e-22)
(1.09579 -0.000743753 0)
(1.03464 0.000220626 0)
(1.06321 0.0355483 0)
(1.03517 0.000351586 -4.59738e-22)
(-0.0454216 0.021917 6.3552e-20)
(1.03645 0.00130859 1.71525e-22)
(1.04283 0.00187508 -3.21386e-21)
(1.03514 0.000335337 4.20002e-22)
(1.03457 0.000516298 2.7962e-22)
(1.0425 0.00205854 0)
(1.03625 -0.000139591 -4.08848e-23)
(1.04321 0.0115536 3.55629e-21)
(1.00007 0.0630787 -3.51733e-20)
(1.03655 0.00671928 2.70824e-22)
(1.04951 -0.00392829 7.57844e-21)
(1.08082 0.0385184 -1.79942e-20)
(1.0772 -0.000429418 1.09902e-20)
(1.05241 0.011726 0)
(1.03557 0.000165228 0)
(1.03631 0.00142544 9.63745e-22)
(1.03829 0.00109155 7.15588e-22)
(1.0492 -0.00351652 -2.93092e-21)
(1.0345 0.00049246 0)
(1.08315 0.0162519 -1.68003e-22)
(1.03678 0.000426626 2.0125e-22)
(1.03598 0.00096793 -6.46339e-22)
(1.03678 0.000439859 2.19679e-22)
(1.04346 0.00382398 0)
(1.02849 -0.0103222 -6.77846e-22)
(1.03648 0.00128577 0)
(1.03401 0.0112874 0)
(1.06875 0.033135 3.75505e-20)
(1.03592 0.000940469 5.48619e-22)
(1.05234 0.0111618 4.72171e-21)
(1.06169 0.0271248 0)
(1.03679 0.000750953 -1.44065e-22)
(1.03255 0.000845201 6.40181e-22)
(1.03322 0.000458388 0)
(1.03549 9.68529e-05 3.657e-22)
(1.06237 0.0353574 0)
(1.04247 0.00130262 0)
(1.03496 0.000313105 5.3703e-22)
(1.03657 0.000979756 -2.1395e-22)
(1.03697 0.000762049 0)
(1.03661 0.00086049 -2.05873e-22)
(1.04025 0.00255542 -3.82373e-22)
(1.0313 0.000561921 -6.94219e-22)
(1.03889 -0.0022568 -7.74888e-23)
(1.03692 0.000779721 0)
(1.05764 -0.000325274 6.33516e-21)
(1.03494 0.000307528 -4.32027e-22)
(1.08068 0.0439606 -1.61448e-20)
(1.03335 -3.32523e-05 -7.90288e-22)
(0.722457 -0.00435699 0)
(1.03813 0.000996707 -1.29926e-22)
(1.03708 0.000788263 0)
(1.03693 0.000430378 1.73181e-22)
(0.600532 -0.043874 -2.07564e-20)
(1.07651 -0.0016158 -9.07168e-23)
(1.03679 0.000889059 0)
(1.03673 0.000893922 0)
(1.03668 0.00102451 2.08703e-22)
(1.07261 0.0130788 -1.12139e-20)
(0.793338 0.069889 -3.45105e-20)
(1.07508 -0.0231099 0)
(1.02461 0.000933745 0)
(1.03399 -7.73791e-05 3.73121e-22)
(1.03405 -5.05906e-05 9.12791e-22)
(1.03694 0.000416881 1.4358e-22)
(1.03757 0.00031828 -4.37794e-23)
(1.03512 -0.000408774 0)
(1.03619 0.00682665 -6.35061e-23)
(1.0296 0.00731273 0)
(1.03479 0.00113618 -5.13202e-23)
(1.03603 -0.000311549 -8.1946e-23)
(1.05006 0.000207825 0)
(1.0369 0.000924153 0)
(1.03337 0.00134855 -7.25243e-22)
(1.0427 0.0117939 -1.78e-21)
(1.05952 0.0166554 -4.59542e-21)
(1.04553 0.00239424 4.77216e-22)
(1.07839 0.0195637 0)
(1.05381 -0.00513652 0)
(1.07306 0.0392618 -9.44397e-21)
(1.03661 -0.00262383 1.29195e-22)
(1.0903 0.00285677 2.94897e-20)
(1.03671 1.46778e-05 4.19721e-22)
(1.08189 0.0163934 1.6427e-22)
(1.04833 -0.00587818 -4.8687e-21)
(1.0428 0.00154921 1.98908e-21)
(1.00558 0.0352098 0)
(0.645575 -0.00129107 3.37731e-21)
(1.03637 0.00144299 -3.17782e-22)
(1.03147 0.00170817 -8.38309e-22)
(1.03497 0.000666374 -5.53672e-22)
(1.06679 0.000980462 -2.07982e-20)
(1.08304 0.0540723 -2.17642e-20)
(1.03426 0.000876651 -2.76433e-22)
(0.636469 -0.0238395 1.23483e-21)
(1.03632 0.00148088 -4.63733e-22)
(1.03589 0.00010426 0)
(1.02968 0.00779387 0)
(1.06861 0.0405177 0)
(1.06468 -0.00644024 0)
(0.727823 -0.0159528 -3.12492e-21)
(0.671475 0.00424012 3.84252e-22)
(1.03858 -0.00224214 -3.83916e-22)
(1.03583 0.000119395 0)
(0.829736 0.0679605 -3.09078e-21)
(1.08889 0.00230384 -1.4955e-20)
(1.08547 -0.0159293 0)
(0.731212 -0.0293281 0)
(1.07697 -0.00433195 2.29349e-20)
(1.08313 0.0552706 -3.36192e-21)
(1.03468 0.000233969 0)
(1.07167 -0.00696367 0)
(-0.0187953 0.0646797 7.30689e-20)
(1.03992 0.00248693 2.84612e-22)
(1.03657 -0.00241138 1.23968e-22)
(1.03653 0.00128659 3.03921e-22)
(1.07103 0.0282215 0)
(1.07771 0.0185344 0)
(1.02996 0.00720075 -1.95126e-21)
(1.03514 0.000153066 2.76386e-24)
(1.03736 0.000715566 1.29204e-22)
(1.03407 0.00034835 -1.13526e-22)
(1.03736 0.000349586 5.23241e-23)
(1.04517 0.00261085 -3.76878e-22)
(1.04748 0.00987482 -2.87826e-21)
(1.03695 -9.04476e-05 3.27507e-24)
(1.02912 -0.00936322 0)
(1.07956 0.0439277 3.36031e-21)
(1.05308 0.0151002 -5.69142e-21)
(1.03572 0.012429 2.26167e-23)
(-0.0368878 0.0249995 -4.71085e-20)
(1.07058 0.0301903 -1.39706e-20)
(1.03647 -0.000260071 0)
(0.55722 -0.0449262 -1.72081e-20)
(1.03571 -0.000187572 0)
(1.04776 0.0254397 -5.31832e-21)
(1.03578 -3.94962e-05 -2.001e-22)
(1.02944 0.00530022 0)
(0.998527 0.0326882 0)
(0.793444 0.067436 1.02731e-20)
(1.05183 -0.00877149 3.95331e-21)
(1.05474 0.00401114 0)
(1.10022 0.0490176 0)
(0.783881 -0.0125529 -2.48981e-21)
(1.03341 -0.000414231 0)
(1.03424 0.000845444 1.32104e-21)
(1.07479 0.00376821 1.14695e-20)
(1.08759 0.00895354 -2.06138e-20)
(-0.0408205 0.0204455 0)
(1.06622 9.30786e-05 6.41256e-21)
(1.02989 0.00682077 2.05048e-21)
(1.04562 -0.00748572 0)
(1.06618 0.0143477 -1.39544e-20)
(0.749246 -0.00444382 3.64857e-21)
(1.05458 -0.00535442 2.93732e-21)
(1.05519 -0.00461623 -6.01143e-21)
(1.0357 2.63636e-05 -2.98129e-22)
(1.07176 0.0277061 4.4425e-21)
(1.04016 -0.000781537 -4.39161e-22)
(0.723845 -0.0175718 0)
(1.10002 0.0146635 -1.88596e-20)
(1.03525 0.000150132 2.82565e-25)
(1.03748 0.000291585 0)
(1.04535 0.00106247 -4.20222e-21)
(0.679124 0.00209237 0)
(1.02902 0.00850352 -1.12161e-21)
(1.05339 0.0156632 6.77627e-21)
(1.06764 0.0402615 1.12518e-20)
(-0.0529726 0.0239108 -4.0589e-20)
(1.02759 0.00798882 2.05327e-22)
(1.03344 0.00121264 0)
(1.03966 0.00273987 -8.49263e-22)
(1.04905 0.014927 3.14834e-21)
(1.03479 0.000857762 9.82147e-22)
(1.04031 -0.000503793 8.33214e-22)
(1.08109 0.0397267 3.214e-20)
(1.03749 0.00038229 0)
(1.03539 0.000152371 8.85959e-24)
(1.03571 5.93782e-05 2.94866e-22)
(1.04046 0.00225067 6.13608e-22)
(1.08867 0.0238805 0)
(1.04755 0.0248089 1.14042e-21)
(-0.0421364 0.0214568 -5.54995e-20)
(1.05581 0.0147552 0)
(1.07705 0.0591492 0)
(1.02933 0.007906 0)
(1.03019 0.00665893 0)
(1.03399 3.81002e-06 1.94005e-22)
(1.08223 0.0617868 0)
(1.04304 0.00367256 -9.41857e-22)
(1.08448 0.0629397 0)
(0.75489 -0.0159984 3.39987e-21)
(1.05684 -0.000510034 -1.24652e-20)
(1.0504 0.0166365 0)
(1.04774 -0.00610876 2.82881e-21)
(1.06949 0.029937 6.40962e-21)
(1.03482 0.000627829 8.7301e-22)
(1.05059 0.0219749 0)
(1.04508 0.000717069 2.09158e-21)
(0.958119 -0.0226278 -1.78914e-20)
(1.03556 0.000215608 0)
(1.03673 0.000229607 -2.41144e-23)
(1.04857 0.00811837 -4.50715e-21)
(1.05552 0.00756978 0)
(1.07951 0.0382652 2.92673e-20)
(1.05 -0.00100334 -5.89014e-21)
(1.04084 -0.00403344 -1.08554e-21)
(0.859111 0.0702223 -1.09219e-20)
(0.3161 -0.0265456 3.28823e-20)
(1.06533 0.0286549 -5.58039e-21)
(1.03331 0.000481639 0)
(0.810287 -0.0126213 0)
(1.08107 0.0622519 0)
(1.03743 0.000501022 4.77898e-23)
(0.212967 -0.0213144 1.50034e-20)
(1.03753 0.000376744 0)
(1.03475 0.00060734 -6.60926e-22)
(1.03432 2.76761e-05 -7.4383e-22)
(1.04747 0.0104219 -3.20955e-21)
(1.03651 0.000980573 2.17144e-22)
(0.704442 0.0628957 -1.96211e-20)
(1.03471 0.000547124 5.55086e-22)
(1.03932 -0.000876732 5.5872e-23)
(0.943556 -0.0175913 -2.37967e-20)
(0.914098 0.0642306 0)
(1.07224 0.0523619 1.09907e-20)
(-0.0168892 0.0692337 0)
(1.03933 0.00265435 0)
(1.03492 -0.00538941 -1.32151e-22)
(1.04962 0.00801806 -6.4742e-21)
(1.05531 0.0150536 0)
(0.810516 0.0588543 3.97645e-20)
(1.05469 0.025899 1.0586e-20)
(1.08494 0.0449089 0)
(1.04422 -0.0102108 -1.77761e-21)
(-0.0482608 0.0237929 0)
(1.06586 0.0157061 -1.45538e-20)
(1.06224 0.0342415 0)
(1.02846 -0.00766294 -1.32978e-21)
(1.02413 0.0014365 0)
(1.03504 -0.000292781 7.01878e-22)
(1.0374 0.000475003 0)
(1.03349 3.57215e-05 -1.34323e-22)
(1.03753 0.000378409 6.27665e-23)
(1.09184 0.0380631 2.77994e-20)
(1.03501 0.000153124 -5.05102e-24)
(1.04632 0.0267115 4.36171e-23)
(1.06491 0.015766 6.4874e-21)
(1.03131 0.000569322 -7.36247e-22)
(1.07131 0.0295421 1.46235e-20)
(1.03784 0.000496037 -4.41784e-23)
(1.05826 0.0376449 0)
(1.05006 0.007011 6.83472e-21)
(0.957131 0.0640597 -2.07025e-20)
(1.07363 -0.017081 2.30681e-20)
(1.05672 0.0155314 2.07737e-21)
(1.03729 0.000359412 -1.29764e-22)
(1.03648 0.0010136 7.49901e-22)
(1.09088 0.0246963 1.85964e-20)
(1.02733 0.00819855 2.79015e-21)
(1.03429 0.000230163 -4.35897e-24)
(1.08393 0.0520691 0)
(1.0347 0.000221684 0)
(1.036 0.0128606 -2.64871e-22)
(1.03749 0.000403278 -1.95845e-23)
(-0.014009 0.0298507 0)
(1.03278 0.00811599 6.29326e-22)
(0.751466 -0.00375205 0)
(1.06655 -0.00203385 0)
(1.0326 0.0102232 4.70662e-22)
(1.03298 0.0112261 2.15167e-21)
(1.04847 -0.00486282 4.91878e-21)
(1.04928 0.0159644 0)
(1.03733 0.000741544 0)
(1.05041 -0.000296769 3.10865e-21)
(1.06703 -0.00104531 -1.6619e-20)
(1.05454 0.025172 -7.52331e-21)
(1.06185 0.0279235 1.96962e-21)
(1.03589 0.000249531 1.24351e-22)
(1.03586 0.000254657 2.07557e-22)
(1.06508 0.00444936 -1.3617e-20)
(1.07652 0.0188515 0)
(1.04422 -0.00815805 1.6605e-21)
(0.970076 0.0658755 3.59984e-20)
(0.626794 -0.000584874 1.42279e-21)
(1.0347 -0.00515714 3.53937e-22)
(1.0352 7.6829e-05 -7.16715e-23)
(0.852098 0.0670883 -2.98181e-20)
(1.03544 0.0175675 0)
(1.0356 0.00714517 5.66142e-22)
(1.05588 0.00436991 1.05254e-22)
(1.03258 0.00777831 0)
(1.03674 0.00102011 0)
(1.05803 0.0161206 0)
(1.07788 0.0597741 9.97865e-21)
(1.0325 0.000784821 -1.72733e-21)
(0.684173 0.00217962 -6.65301e-22)
(1.0375 0.000393702 1.5776e-23)
(0.860126 0.0666306 1.42322e-20)
(1.08102 0.063528 1.25729e-20)
(0.761772 0.0642974 3.4846e-20)
(1.08968 0.0609654 -4.31569e-21)
(1.03398 0.0192613 0)
(1.03649 -6.88464e-05 -2.87057e-23)
(1.03413 0.00147989 0)
(1.05138 0.0218045 0)
(1.09697 0.0505475 -5.06948e-21)
(1.04548 0.00193653 1.75343e-21)
(1.06141 0.0341189 0)
(1.04799 0.0242237 2.57598e-20)
(0.789241 0.0648789 -3.35418e-20)
(1.03542 -0.000426246 -2.41998e-23)
(1.03645 -3.34585e-05 -3.59657e-23)
(0.8424 0.0669497 2.05934e-20)
(-0.0375721 0.0314943 0)
(0.984476 0.0636765 -1.35155e-20)
(1.03437 0.000465273 0)
(1.04513 0.00159416 2.88307e-21)
(1.06435 0.0249201 3.50261e-20)
(1.08869 0.0612078 1.04331e-21)
(1.03285 0.000128566 7.96739e-22)
(1.03736 0.0003694 5.04004e-25)
(1.05838 0.0367089 -1.07658e-20)
(1.07763 -0.00297871 -9.43463e-23)
(1.06471 0.0282822 5.77205e-21)
(1.10849 0.0326008 -1.32782e-21)
(0.969383 -0.0187987 0)
(1.03752 0.000379891 -1.1918e-22)
(1.06393 0.0254851 0)
(-0.0400408 0.0322793 0)
(1.03612 0.000353781 0)
(1.03696 0.000915935 5.29271e-22)
(1.03613 0.000347387 0)
(1.05645 0.0151119 0)
(1.07578 0.0179026 0)
(1.04061 -0.00370962 0)
(1.05031 -0.00162762 6.67262e-21)
(1.03234 0.000758097 -8.89571e-22)
(1.09901 0.0134019 2.37848e-21)
(0.0211457 0.0372621 -1.32947e-20)
(1.06372 0.0169043 -7.2063e-21)
(0.955689 0.0664296 -2.24517e-20)
(1.03345 -8.04705e-05 -5.23452e-24)
(1.03755 0.00199711 7.06692e-23)
(1.02801 -0.00102289 0)
(-0.00154864 0.046415 0)
(1.06051 0.0379823 -5.41512e-22)
(1.03674 0.0011385 0)
(1.04497 -0.010242 -2.1186e-21)
(1.038 0.000600137 0)
(1.09232 0.0394853 -2.29667e-20)
(1.03406 -6.75403e-05 9.60893e-22)
(1.03732 0.000366479 6.21132e-23)
(1.07625 0.00754644 5.67468e-21)
(1.03401 0.00150466 0)
(1.05072 0.0010487 -4.71445e-21)
(1.02592 -0.00886277 0)
(1.07995 0.0407024 -1.8082e-20)
(1.10635 0.0387762 -7.83406e-21)
(1.05256 -0.00726487 4.50342e-21)
(1.03674 0.000805489 1.6829e-22)
(1.03513 -4.32755e-06 1.07857e-24)
(1.03837 -0.00260582 0)
(1.03336 3.10858e-06 2.44267e-23)
(1.03559 -0.000210601 -4.95401e-22)
(1.05558 0.00675637 3.02399e-21)
(1.03809 -0.00255475 0)
(1.03297 -0.00277061 0)
(1.03655 0.000866027 2.10398e-22)
(1.03327 0.00127352 7.05277e-22)
(1.04011 -0.0193395 6.80412e-22)
(1.05029 0.0225613 -4.64352e-21)
(1.03492 0.0217656 -4.33508e-20)
(1.08575 0.062699 0)
(0.913364 -0.0236816 -1.89009e-20)
(1.07313 0.0382187 -7.25757e-21)
(1.07392 0.00729889 5.14341e-21)
(1.05982 0.0375613 -6.84875e-21)
(1.03569 0.000313435 3.51101e-22)
(1.03776 0.00188123 2.48431e-22)
(1.03313 0.000282311 -4.09964e-22)
(-0.0156418 0.0562655 1.23538e-20)
(1.06884 0.0307569 -6.68114e-21)
(1.05602 -0.00479121 6.13184e-21)
(1.05256 -0.00833885 -4.3131e-21)
(1.07603 0.00318704 0)
(1.05019 0.000902086 0)
(0.759941 -0.00389522 3.09655e-22)
(1.03253 0.00136305 -8.12585e-23)
(1.01126 0.0626993 1.2497e-20)
(1.08088 0.044981 1.53643e-20)
(1.03307 0.0101722 2.03271e-22)
(1.03654 0.00014729 -5.6419e-24)
(1.06418 0.00400786 1.30477e-20)
(1.07293 0.00804706 -5.04593e-21)
(1.04079 0.00228842 0)
(1.03693 0.00147414 0)
(1.09915 -0.0049078 -6.95704e-21)
(1.07822 0.0660133 -1.16251e-20)
(1.03528 -0.000471339 9.13288e-22)
(1.03409 0.000984184 -1.60314e-22)
(1.07248 -0.0134734 0)
(1.03382 -0.000417439 -1.83911e-21)
(1.03566 0.000320782 -1.20939e-22)
(0.997885 0.0629131 8.05291e-22)
(1.08389 0.0455754 1.35895e-20)
(1.07271 0.0118324 -5.43795e-21)
(1.0291 0.00547778 0)
(1.09215 0.00901206 0)
(1.03486 0.000232799 -2.77446e-22)
(1.0279 0.0080938 -8.83595e-22)
(1.07992 0.0639369 0)
(1.11199 0.0307707 -1.57351e-20)
(1.08975 0.025244 -8.47088e-21)
(1.03484 0.00023497 4.24724e-22)
(1.03497 0.000243972 3.8162e-22)
(1.03647 -2.95491e-05 -3.0786e-22)
(1.03482 0.00124295 5.73556e-24)
(1.03449 -0.000615369 5.39853e-22)
(1.03408 0.00094228 7.23158e-22)
(0.684212 -0.00315826 0)
(0.717075 -0.00169835 0)
(1.03507 0.000247984 0)
(0.0238886 0.0148576 -7.42985e-20)
(1.03514 0.000150411 0)
(1.03634 0.00132994 -3.46871e-22)
(1.05739 0.00805829 -2.08257e-21)
(1.04174 -0.00989401 -1.96409e-21)
(0.830026 -0.00427244 -3.0825e-22)
(1.03502 6.88027e-05 -3.33835e-23)
(1.07138 0.0528291 -2.20163e-20)
(0.967992 0.02667 1.37888e-20)
(1.09078 0.00588968 2.00015e-20)
(1.03525 0.000150265 0)
(0.795634 0.0653283 -1.83529e-20)
(1.04911 0.0585898 3.68176e-20)
(1.03278 -0.00256518 -4.29745e-22)
(1.03677 0.00121858 0)
(1.0885 0.0136741 -1.09851e-20)
(1.05328 -0.00681659 2.31342e-21)
(1.04013 0.00409998 0)
(1.04907 0.00771483 3.24395e-21)
(1.0336 0.0004473 -7.23144e-22)
(1.05919 0.0174304 1.90453e-20)
(1.08019 0.0418556 2.59956e-20)
(0.76166 -0.0039873 8.62584e-23)
(1.04205 0.0104821 2.75037e-22)
(1.03674 0.00124895 3.13145e-22)
(1.03705 0.000496113 1.29879e-23)
(1.03212 0.00030792 0)
(0.667556 -0.00303617 2.35154e-21)
(1.04522 -0.00702986 0)
(1.04655 0.0274406 1.85747e-22)
(0.776995 -0.00351419 -3.1985e-22)
(1.08902 0.00827744 0)
(1.03779 0.000169101 -3.23983e-23)
(1.09837 -0.00822825 1.40925e-20)
(1.05407 0.00442737 0)
(1.04645 0.0578629 1.33922e-20)
(1.03243 -0.000239678 4.11068e-22)
(1.03482 0.000904441 0)
(1.04342 -0.00833464 0)
(1.11294 0.0260732 -6.98641e-21)
(1.07509 0.00813488 5.208e-21)
(1.08293 0.0516372 0)
(1.03914 -0.00044864 3.14145e-22)
(1.05488 0.0063708 -1.29166e-20)
(1.02659 0.000135191 2.21239e-21)
(0.0304399 0.0144764 2.82705e-20)
(1.03675 0.000975078 -2.05168e-22)
(0.238727 -0.0306356 0)
(1.03475 5.74403e-05 5.94503e-22)
(1.06096 -0.0208044 0)
(1.03633 0.000941323 2.45385e-22)
(1.03643 0.000133218 0)
(1.03672 -0.000224414 7.39331e-23)
(1.05763 0.0154924 -2.19811e-21)
(1.03674 0.000763338 -6.664e-22)
(1.07094 -0.0135574 -1.87894e-21)
(1.04378 0.00351053 0)
(1.05015 0.00772704 -6.6166e-23)
(0.54054 0.00699588 7.56564e-21)
(1.03549 0.00045005 9.74794e-22)
(1.07392 0.010184 1.17715e-20)
(1.0575 -0.00421193 -3.86919e-21)
(1.04064 -0.0203547 -6.54734e-22)
(1.03732 -7.46476e-05 -3.7842e-23)
(1.03239 0.00112577 0)
(1.03702 -8.06185e-05 2.92577e-23)
(0.843702 0.00270735 -6.90216e-24)
(1.03183 0.00123736 0)
(0.78542 0.0681249 -9.45797e-21)
(-0.0177961 0.0505593 -1.86791e-22)
(1.03259 -0.000549722 1.49613e-21)
(1.06236 0.0263406 0)
(1.07563 0.0432635 2.06464e-20)
(0.862324 0.0662104 -1.49237e-20)
(1.02744 8.36529e-06 7.51578e-22)
(1.04916 -0.00467818 6.3733e-23)
(1.03829 -0.00204714 1.26855e-22)
(1.03604 0.00714924 0)
(1.03418 0.000426642 0)
(1.03574 5.18842e-05 0)
(1.03794 0.000259343 1.11257e-22)
(1.05557 0.0310346 -1.22958e-20)
(1.03608 0.000259299 0)
(0.701706 0.0445857 5.59627e-20)
(1.03605 0.000262481 -1.56079e-22)
(1.03415 -0.000300959 -8.7777e-22)
(0.877088 0.0660715 7.33718e-21)
(-0.0392293 0.0363754 5.34912e-20)
(1.03714 0.000777992 0)
(1.03584 5.83373e-05 0)
(1.03708 0.000732302 0)
(1.0364 -7.08836e-05 2.32731e-22)
(1.0287 0.00521724 -1.88213e-21)
(0.962695 0.0639342 2.72435e-20)
(1.03579 2.52277e-05 0)
(1.03551 0.000380317 3.15913e-22)
(1.03498 0.00119918 3.13339e-22)
(1.03361 -9.27503e-05 -3.9764e-22)
(1.03229 0.000700198 1.31869e-21)
(1.08481 0.00872513 1.81421e-20)
(1.04285 4.93458e-05 0)
(1.03735 0.00235417 -1.40719e-23)
(1.06352 0.0246424 0)
(1.03784 -3.14871e-05 -8.48004e-23)
(1.03582 9.72901e-05 0)
(1.04505 0.0198808 -4.32888e-21)
(1.02871 -0.00129102 -5.54482e-23)
(1.07082 0.00790233 4.90757e-21)
(1.09396 0.0340215 2.40178e-20)
(1.08907 0.06069 0)
(1.03015 0.00257678 0)
(1.04564 0.00419918 3.36943e-21)
(1.03529 0.0013109 0)
(0.686337 -0.0127125 4.98268e-21)
(1.03414 -0.00494663 5.17462e-22)
(1.03374 0.000655048 -6.41524e-22)
(1.01712 0.000165924 -2.84769e-21)
(1.03364 -0.00504959 0)
(1.03739 0.000343381 -1.18104e-22)
(1.05437 -0.0235617 -3.04805e-21)
(1.03452 0.00106386 2.04029e-23)
(1.0368 0.00143768 0)
(1.03159 0.0111289 3.41909e-21)
(1.08897 0.000155489 0)
(0.845197 0.0666114 -1.55752e-20)
(1.04428 -0.00179526 2.69839e-21)
(1.10534 0.00935698 2.48639e-20)
(1.03487 -0.0150251 0)
(1.03896 0.000212003 2.20974e-24)
(1.03665 -9.24127e-05 0)
(0.805273 0.0680426 -7.85218e-21)
(1.0366 0.000257919 0)
(1.04296 -0.0026596 -1.04431e-22)
(1.03189 0.000558442 0)
(0.706957 -0.0014907 3.06638e-22)
(1.03739 0.000372561 0)
(1.03586 0.000213781 1.16863e-22)
(1.06902 0.0515843 0)
(0.901396 -0.0148297 -2.16544e-21)
(0.914122 0.063347 -2.75963e-20)
(-0.0223017 0.05477 0)
(1.0344 0.000175588 7.6647e-23)
(1.03741 0.000359861 0)
(1.0014 0.045497 4.16948e-20)
(1.06254 0.00425942 -1.47298e-20)
(0.981936 0.0660022 -2.56469e-21)
(1.02942 0.00835658 6.49971e-23)
(1.04015 -0.00379143 4.55725e-22)
(1.03662 0.00136274 1.80787e-22)
(1.03703 0.000282793 0)
(1.04246 0.000179275 7.55409e-22)
(1.03709 0.00227157 0)
(1.03307 -0.00228804 0)
(1.03213 0.00984697 -1.59468e-21)
(1.03663 4.11652e-05 1.28438e-22)
(1.08323 0.0292774 -1.94815e-22)
(1.03654 -1.9016e-05 -6.09375e-23)
(1.05508 0.031531 0)
(1.03713 0.000722907 0)
(1.03571 9.14172e-05 3.34033e-22)
(1.03587 0.0165963 -8.05038e-22)
(1.03569 -5.64338e-05 -8.05097e-23)
(0.243465 -0.0271891 0)
(1.04095 -0.0099292 -5.92198e-22)
(1.03673 0.0112433 -1.19065e-22)
(0.964854 0.0238886 -2.35051e-20)
(1.0355 0.000422086 -1.30723e-21)
(1.07821 0.0634707 2.82751e-21)
(0.558683 0.0294186 8.67045e-21)
(1.03456 -0.000699272 -2.23066e-21)
(1.03673 0.00116908 0)
(1.037 0.0116285 -1.07815e-22)
(1.08901 -0.0164383 0)
(1.05894 0.0381167 0)
(1.03532 -0.000111756 -5.33261e-22)
(-0.0406117 0.0369858 -5.75065e-20)
(1.08203 0.0538222 2.98311e-20)
(1.04562 0.0199843 3.02995e-21)
(0.403184 -0.0404111 0)
(1.03372 0.000635248 0)
(1.05713 -0.00598133 0)
(1.03475 -0.000141808 -8.93779e-23)
(1.05568 -0.0236481 3.88244e-21)
(1.04135 -0.00396176 0)
(1.0357 0.000243016 1.65988e-22)
(1.07927 0.0369934 -2.29493e-20)
(1.02998 0.00571248 -2.09401e-21)
(1.06128 0.00975068 -6.65096e-21)
(1.0443 -0.00615349 1.61024e-21)
(1.07228 0.0512949 -5.85416e-21)
(1.08729 -0.000439864 0)
(1.03723 0.00177845 2.69416e-22)
(1.04002 0.00992089 -4.52934e-22)
(1.03389 -0.00017202 0)
(1.037 0.00180717 -8.47152e-22)
(1.03894 0.00137184 -2.89479e-23)
(1.0433 -0.00342182 -9.95822e-22)
(0.851234 -0.0276224 -5.32625e-20)
(1.03184 0.000503572 3.02376e-22)
(1.07644 0.0425529 -2.92568e-20)
(1.03583 0.000142437 0)
(1.04289 -0.00682687 0)
(1.03994 -0.00346275 3.78569e-22)
(1.07796 0.0412004 7.65097e-21)
(1.03105 0.000610942 1.89069e-21)
(0.422886 -0.0128483 8.26493e-22)
(1.03425 0.000534444 8.10476e-22)
(1.0646 0.0169352 -8.13319e-21)
(0.101724 0.0067623 -6.22169e-20)
(1.05683 0.00761808 -4.35096e-22)
(1.03319 0.000278041 -4.10093e-22)
(0.0551626 0.0157417 0)
(1.05972 -0.021315 3.42796e-21)
(1.03414 0.00052535 0)
(1.03235 0.0106767 2.14263e-21)
(1.08747 0.0241777 -4.2002e-21)
(0.8452 0.00482034 -6.81435e-23)
(1.06017 0.0137946 0)
(1.0299 0.00245818 -6.9298e-22)
(0.903753 0.00612052 -8.81652e-23)
(1.03564 1.48002e-05 0)
(1.06558 -0.00431091 1.42775e-20)
(1.04899 0.0167608 0)
(0.677901 -0.016705 1.35662e-21)
(1.03569 0.000248072 3.12986e-22)
(1.03554 0.000260897 0)
(1.03539 6.36485e-05 -4.76466e-22)
(1.03479 6.06557e-05 4.65999e-22)
(1.06342 0.00466324 1.863e-20)
(1.08957 0.0133232 7.86787e-21)
(0.730798 -0.00476251 -3.62612e-21)
(1.04703 0.0090372 0)
(1.04029 0.00429568 0)
(1.03559 6.03686e-05 0)
(1.0363 0.0164185 4.21646e-23)
(1.03626 0.000141275 0)
(0.819591 0.0681614 0)
(1.04541 0.00497372 0)
(1.03596 -0.0051663 0)
(1.03889 -0.000336205 2.77481e-22)
(1.03324 0.000283695 2.93278e-24)
(1.03885 -7.15633e-05 -7.69896e-22)
(0.868705 -0.0319746 1.49232e-22)
(1.0887 0.0120999 0)
(1.10956 0.0281284 1.58438e-20)
(1.03454 0.000565824 6.413e-22)
(1.04655 0.00872672 1.96132e-21)
(1.03688 0.00105523 -3.99262e-22)
(1.04598 0.00386833 -1.78611e-21)
(1.04271 0.00394296 8.80281e-22)
(1.09198 0.0255972 0)
(1.03618 0.000134755 6.49634e-25)
(1.03214 0.00951623 1.04346e-21)
(-0.0232064 0.0564344 2.17434e-20)
(1.10567 0.0366984 0)
(1.03708 0.000782092 2.95762e-23)
(1.02854 0.00777295 1.4766e-21)
(1.03323 0.000303875 -8.70215e-22)
(0.854822 0.0666085 -3.41656e-20)
(1.0513 -0.0254647 5.63878e-21)
(1.03548 0.000441932 3.86558e-24)
(0.71128 -0.00502774 1.1094e-21)
(1.03565 -0.000443115 7.61012e-22)
(1.04057 0.000496675 -3.66217e-23)
(1.08404 0.0285635 0)
(1.04169 0.00725033 0)
(1.03207 0.0113955 -2.25501e-21)
(0.889787 -0.0138582 3.56106e-20)
(1.08995 0.0609763 8.24095e-21)
(1.03399 -0.0003059 2.04634e-21)
(1.04233 -0.0078825 0)
(1.03304 7.60436e-05 9.41478e-22)
(1.0346 -0.000214836 0)
(1.08009 0.0347534 -1.14969e-20)
(0.683336 0.0545008 -1.21968e-20)
(1.03651 0.001048 -3.88709e-22)
(1.08406 0.0272734 3.44756e-20)
(1.07857 0.0652402 1.6877e-20)
(1.08731 0.0108892 0)
(1.08879 0.0224985 2.64546e-20)
(0.698578 0.0643037 0)
(0.858838 0.0690217 1.17839e-20)
(1.03186 0.00149625 -5.01651e-23)
(1.05484 0.00564446 8.22064e-21)
(1.07495 0.039072 -1.07901e-20)
(1.03552 -0.00537091 -3.233e-22)
(1.03573 0.0040632 4.18689e-22)
(1.03597 0.000142426 0)
(1.06874 0.041628 -4.89441e-21)
(0.12623 0.00734772 -1.63356e-20)
(1.03552 0.000344291 0)
(1.04954 0.0145542 2.29751e-21)
(1.05304 -0.010557 5.69882e-21)
(0.66557 -0.0118207 -2.40573e-21)
(1.03736 0.00041208 -1.58392e-22)
(1.03884 -0.0112316 0)
(1.03266 0.00157086 -4.63797e-23)
(1.07075 0.00918544 0)
(1.03429 -0.000423305 0)
(1.03855 0.000689924 0)
(0.817825 0.065406 -1.13777e-20)
(1.08753 -0.01658 0)
(1.10797 0.00362025 3.62052e-20)
(1.04464 -0.000973566 -3.50824e-21)
(1.03753 0.00033439 1.01344e-24)
(0.0418216 0.00449388 -1.92729e-20)
(0.975604 0.00374787 -4.37041e-22)
(-0.0340378 0.0285491 0)
(1.06132 0.00890052 -3.46785e-21)
(1.07387 0.0114214 -6.1122e-21)
(0.956034 0.0613555 -3.54725e-20)
(1.03575 0.000279345 -1.18807e-22)
(1.03108 0.00173977 -9.99174e-22)
(1.07715 0.0500904 -2.28181e-20)
(1.01963 -0.00158139 2.08346e-21)
(1.04578 0.00471543 -3.85356e-21)
(1.03564 0.000277329 -3.92403e-22)
(1.05338 -0.0250639 -1.28089e-20)
(1.03641 0.000251815 1.24581e-22)
(1.03279 0.000724891 -3.66181e-22)
(1.03333 0.00038036 0)
(0.945946 0.0648269 1.26761e-20)
(1.03426 0.000170569 0)
(1.04399 0.0202976 9.80223e-22)
(0.905295 -0.0142444 -1.71373e-20)
(1.03435 0.0118797 -4.74217e-22)
(1.08748 0.0571013 -1.01969e-20)
(1.0343 0.000459221 0)
(1.04384 -0.00261613 -1.15652e-21)
(1.03269 0.00716163 -6.10907e-22)
(1.03421 0.00017098 0)
(1.07517 0.0155105 -1.85533e-20)
(0.987064 0.0455861 -9.60375e-21)
(1.03592 0.0173282 5.49588e-22)
(1.02834 0.00536763 0)
(1.0271 0.00692465 2.77014e-21)
(1.11099 0.00512407 -1.3143e-20)
(1.03092 0.00167583 9.57196e-22)
(1.03292 0.000737516 -3.4956e-22)
(1.06334 0.0263703 0)
(1.03149 0.00193825 0)
(0.980934 0.0429394 3.61361e-20)
(1.03639 0.00025643 -7.78372e-23)
(1.03421 0.00141883 -1.49281e-22)
(1.03159 0.00130989 0)
(1.03766 0.000280425 0)
(1.0739 0.039711 0)
(1.03701 0.0018755 2.96077e-22)
(1.04194 0.00131954 0)
(1.03518 -0.0142968 0)
(1.03423 0.000498679 0)
(1.03739 0.000471156 -4.96671e-23)
(1.03435 0.000522886 7.08956e-22)
(1.03564 0.00113201 -2.96077e-22)
(1.03548 0.00389162 -5.35935e-22)
(1.05217 -0.010522 -2.52049e-21)
(1.04231 0.0230632 1.55793e-21)
(1.04371 -0.000113312 0)
(1.01786 0.0416896 0)
(1.03691 0.000344803 0)
(1.05824 0.0197657 0)
(0.86203 0.00568499 2.03754e-22)
(1.04494 -0.00590732 0)
(1.0377 0.000253746 0)
(1.0657 0.00253231 -3.17972e-21)
(1.08341 0.0262826 -3.24106e-20)
(0.757996 0.0433165 -2.98962e-20)
(1.03635 -0.000989233 0)
(1.03743 -0.00562961 -1.4858e-22)
(1.05138 0.0159102 8.81533e-21)
(0.957247 -0.0289765 -1.97364e-21)
(1.05316 -0.0057757 -2.59984e-21)
(1.03595 -0.000845169 0)
(1.06861 -0.0054041 -8.45824e-21)
(1.03428 -9.53979e-05 -1.0111e-21)
(1.0561 0.00796039 4.07887e-21)
(1.05897 0.0159645 5.11341e-21)
(1.04804 0.00781138 7.43571e-21)
(1.05724 0.00295984 0)
(1.08795 0.0585657 -9.84457e-21)
(1.09228 0.0565797 -1.41561e-20)
(1.04879 0.00575371 0)
(1.03674 0.000386039 -1.43075e-22)
(-0.0276953 0.0166595 -3.04857e-20)
(1.07401 0.000722445 0)
(1.03628 -0.000173444 2.64954e-22)
(0.968411 0.0658626 -1.30614e-21)
(1.08366 0.0466291 -2.26981e-20)
(1.03685 -0.00196835 2.75444e-22)
(1.03623 0.000267417 0)
(1.06663 0.00203829 1.85153e-20)
(1.03575 -0.000201604 4.35152e-22)
(1.04606 2.35449e-05 0)
(1.02861 0.00827679 -1.4795e-21)
(1.03405 0.00046148 3.42693e-22)
(1.04325 -0.00391535 1.28827e-21)
(1.03461 0.000846765 -2.03551e-22)
(1.07037 -0.0117444 1.83886e-20)
(1.03292 -0.00213606 -1.04124e-21)
(1.0459 0.0281091 -1.81378e-22)
(1.03741 0.00128002 0)
(0.861829 0.00695424 0)
(1.03908 0.00288477 0)
(0.948976 0.0624175 3.16973e-22)
(1.03748 0.000741304 1.08273e-22)
(1.05764 0.0362682 -9.69971e-21)
(1.03442 0.000535258 7.1264e-22)
(1.03769 -0.000101333 -3.29144e-23)
(1.0757 0.0394995 0)
(1.04606 0.0090241 1.82297e-21)
(1.01888 6.33783e-05 -1.11097e-21)
(1.05372 0.024989 7.66273e-21)
(1.08331 0.0110067 -2.15405e-20)
(0.279118 -0.00496037 -3.66341e-21)
(1.03264 0.00153277 6.83596e-23)
(1.05218 0.0332363 0)
(1.03634 -0.000146451 0)
(1.03993 -0.00923713 -8.37242e-22)
(0.21301 0.0305524 -1.11128e-20)
(1.03876 0.00279244 0)
(1.03429 0.000100634 -2.63011e-23)
(1.03742 0.000492636 4.90524e-23)
(1.03288 0.00750569 1.44242e-21)
(1.04429 0.00162183 0)
(0.784565 -0.00448128 -7.07408e-22)
(1.07289 0.00944089 0)
(1.07396 0.0604979 1.8793e-20)
(1.03767 0.000183929 -7.36096e-23)
(-0.019456 0.0430767 -1.70039e-21)
(0.451648 -0.00666013 -2.81615e-21)
(1.07786 0.0633722 0)
(1.07546 -0.00456601 -1.69317e-20)
(1.03156 0.00120503 0)
(0.081325 0.0259426 4.2555e-20)
(1.04568 -0.00214549 0)
(1.03179 0.00137054 0)
(1.03613 0.00100147 6.58944e-22)
(1.05205 0.0158667 4.09706e-21)
(1.03423 0.00113905 -4.96873e-23)
(0.614003 -0.000970026 -3.78057e-21)
(1.03996 0.0141867 1.20241e-21)
(1.03688 -0.00217792 -2.05337e-22)
(1.03654 -8.19126e-05 -2.43282e-22)
(1.04305 -0.00780342 1.33449e-21)
(1.07181 0.00729622 -5.07454e-21)
(1.03935 0.000637348 2.80915e-22)
(1.09313 0.00205655 -2.92142e-20)
(1.03603 -0.000372696 6.46232e-23)
(0.929513 0.0644385 -2.90689e-20)
(1.0373 0.00130857 4.69251e-22)
(0.357615 -0.0392409 -4.61308e-21)
(1.03765 0.000134884 0)
(1.0861 0.0455631 -8.61349e-21)
(1.03485 -0.000258179 0)
(1.03578 0.000910151 2.12826e-22)
(1.03801 -0.0110974 0)
(1.05108 0.0165889 -5.07141e-21)
(1.04589 -0.000677703 1.1621e-22)
(1.03702 0.000181405 -5.71477e-23)
(1.04199 0.014282 -1.01614e-21)
(1.05777 -0.00517264 1.23432e-20)
(1.03387 0.000425385 -3.6851e-22)
(1.03738 0.000315258 -1.99146e-22)
(1.02621 -0.0306546 -2.50551e-20)
(1.03583 -0.000193185 0)
(1.03711 0.00067972 2.49875e-22)
(1.03735 0.000326971 -1.04603e-22)
(1.04431 0.000475325 0)
(1.03638 0.000973439 0)
(1.065 -0.00542844 1.27501e-20)
(1.02798 0.00510606 0)
(1.0792 0.0631077 -2.57591e-20)
(1.03501 0.000673996 -9.46936e-22)
(1.03787 0.000573827 0)
(1.03733 0.000362391 1.28369e-22)
(1.06873 0.0441236 -1.19736e-20)
(1.07268 0.0227999 0)
(1.03493 0.000748919 5.01538e-22)
(1.02842 -0.0057131 1.30764e-22)
(1.10512 0.0401831 2.84451e-20)
(1.0447 -0.0014941 -1.42715e-21)
(0.430002 -0.0163892 0)
(1.03576 0.000246405 -2.52746e-22)
(1.10039 0.0126561 1.3085e-20)
(1.05004 0.015903 0)
(1.03776 0.000570891 4.98211e-23)
(1.04751 0.00694864 1.17274e-21)
(1.05315 0.00906455 0)
(1.09205 0.0552594 1.79698e-20)
(1.03419 0.00217838 -4.20488e-22)
(0.579044 0.00150748 4.49692e-21)
(-0.00941881 0.0187316 -2.66589e-20)
(0.131199 -0.0141373 0)
(1.05857 0.0189727 0)
(1.03259 -0.000707478 8.8308e-22)
(1.04174 0.0138333 9.44857e-22)
(0.490542 -0.0135466 2.85028e-21)