/*--------------------------------*- C++ -*----------------------------------*\
| =========                 |                                                 |
| \\      /  F ield         | OpenFOAM: The Open Source CFD Toolbox           |
|  \\    /   O peration     | Version:  v2012                                 |
|   \\  /    A nd           | Website:  www.openfoam.com                      |
|    \\/     M anipulation  |                                                 |
\*---------------------------------------------------------------------------*/
FoamFile
{
    version     2.0;
    format      ascii;
    class       volScalarField;
    location    "200";
    object      ddt0(k);
}
// * * * * * * * * * * * * * * * * * * * * * * * * * * * * * * * * * * * * * //

dimensions      [0 2 -3 0 0 0 0];


internalField   nonuniform List<scalar> 
13851
(
-1.73629e-07
-3.82044e-08
-2.07468e-09
-0.000162796
-1.24613e-08
2.02436e-08
1.61473e-08
3.55158e-08
6.41391e-05
-1.92317e-08
1.03192e-07
7.18609e-09
-8.81347e-09
4.75694e-06
-7.93974e-09
7.65796e-08
7.06862e-05
4.07629e-08
-2.10353e-07
-1.12275e-07
9.11607e-08
4.95525e-08
-0.000187027
3.93569e-09
-3.81878e-05
3.79357e-08
5.95064e-05
-3.82251e-05
7.34785e-05
9.25611e-09
9.41988e-05
1.40812e-08
-2.26961e-07
2.34859e-05
-4.57744e-08
6.47539e-05
2.93004e-09
0.000153626
3.27754e-05
-2.27136e-08
-9.31037e-05
8.13836e-05
3.43181e-05
9.67622e-05
9.99438e-05
-6.18582e-08
3.14352e-09
-1.34598e-07
8.56156e-08
-2.54961e-08
-1.72847e-05
4.31607e-09
1.48101e-07
-2.93695e-09
2.95295e-05
-1.33704e-07
-3.14096e-07
-9.5946e-05
9.01654e-05
-4.44192e-05
2.38744e-08
2.08123e-05
1.57994e-08
5.81967e-08
-5.52705e-06
-8.06773e-06
-4.00475e-05
6.53778e-06
1.0415e-07
-0.00011078
0.000140599
-9.89157e-09
1.00263e-07
-3.89392e-05
3.11264e-08
-4.75143e-08
9.01815e-05
1.12833e-08
-6.95959e-06
8.60534e-10
5.76372e-09
3.42865e-06
-2.68865e-08
1.36764e-06
-4.09281e-05
0.000113804
5.42507e-08
2.99234e-05
-1.6127e-07
8.27221e-05
1.26438e-08
5.10214e-09
3.76579e-06
9.90622e-05
-3.8133e-05
-2.70179e-06
9.02075e-09
-1.87978e-07
-5.59904e-05
2.4366e-06
-3.24449e-07
4.75014e-07
-1.04535e-06
9.53095e-08
-6.78346e-08
-4.01027e-09
7.60831e-09
0.000141204
1.22899e-08
-4.18986e-08
-2.67584e-08
-1.42351e-07
-7.18873e-07
-1.63225e-08
-2.31866e-07
-9.30029e-09
-8.84696e-09
2.18896e-08
-0.000147584
-0.000126083
-2.92911e-06
4.46356e-08
1.5267e-07
-3.95939e-05
-3.61609e-08
8.71312e-05
-8.92002e-08
1.33794e-08
-4.19988e-05
2.30652e-09
4.71171e-08
3.13934e-08
0.000118912
2.67537e-05
9.90718e-08
-1.39817e-05
-3.1525e-05
0.000119838
3.44583e-07
-3.5598e-08
6.06777e-07
-5.03028e-09
2.72766e-08
-3.61328e-06
-0.000115228
1.30857e-08
-8.00556e-09
8.92555e-05
6.19253e-05
2.0984e-08
-3.2481e-07
-5.46074e-07
-1.54218e-08
2.70658e-07
5.91125e-08
3.37495e-09
4.0356e-08
4.93638e-05
-8.7318e-09
-7.86011e-09
-2.88618e-08
7.06697e-05
1.85292e-08
-1.24259e-07
5.92322e-06
9.3836e-05
9.68455e-05
-1.68327e-05
-1.97629e-08
-0.000235608
4.94286e-08
2.38401e-08
4.77573e-08
2.43267e-08
-5.09351e-05
2.51173e-05
-1.09336e-07
4.64856e-08
3.19941e-08
1.14993e-07
-6.44682e-07
9.06717e-05
1.64751e-08
-1.73489e-08
3.3983e-05
6.41524e-05
-2.4075e-07
-5.16422e-08
-3.54585e-08
8.61829e-08
-6.9471e-05
-2.31232e-09
1.35674e-06
3.01636e-08
1.72105e-08
1.17717e-07
-1.62425e-07
4.59153e-08
2.90176e-08
4.58169e-07
2.68297e-06
-0.000105316
-0.000110524
-1.08641e-08
-0.000174847
-9.66405e-05
7.29714e-08
-4.6818e-08
5.99232e-05
-1.05025e-08
-1.43577e-07
1.36787e-07
1.86768e-06
-3.39498e-08
-3.43551e-08
-3.02575e-08
-1.5732e-08
-6.16378e-07
-3.07587e-08
-3.52557e-05
-2.1863e-07
-2.46979e-08
-4.02226e-06
-3.08543e-05
-1.21832e-08
-3.84712e-08
-1.48599e-08
-3.42484e-06
1.87398e-08
-3.40736e-08
-0.000222241
-2.57436e-08
-1.60142e-09
6.1728e-08
-0.000107965
-1.27351e-08
-0.000140317
-0.000114073
2.07949e-06
6.00847e-08
7.66857e-05
-3.65364e-05
0.000104768
-2.69036e-08
1.61021e-08
7.87343e-06
-5.54619e-08
2.799e-08
-4.88568e-06
-1.78058e-08
3.67868e-05
-2.64944e-07
7.10796e-09
-2.27072e-08
-1.00483e-08
6.49025e-05
2.06247e-05
8.47915e-08
-7.22443e-05
-1.13686e-07
-2.22602e-07
1.2287e-06
-2.29131e-08
1.10725e-08
-3.21273e-07
5.03276e-08
-6.78331e-07
-4.44464e-08
7.1627e-06
1.20658e-07
-3.18472e-08
-2.03684e-08
8.69723e-05
-7.92707e-05
2.68587e-08
-1.50008e-07
-6.68673e-07
1.3608e-06
-1.53392e-07
3.07936e-08
7.28516e-05
-6.08022e-05
5.64106e-09
-4.63264e-09
8.18365e-05
4.17531e-09
3.73944e-08
-1.3284e-07
5.49352e-08
-2.93653e-08
1.20756e-07
1.42463e-08
-7.24503e-08
1.00148e-08
4.95832e-09
6.68416e-05
5.19038e-08
9.67441e-08
6.22795e-05
-3.65864e-05
-2.81579e-08
6.46744e-08
-4.16382e-05
-2.34396e-09
6.94761e-09
4.86685e-08
-7.87939e-06
0.000208274
-7.32527e-08
-4.17604e-08
-0.000224541
3.78142e-08
-3.1457e-08
-4.5251e-05
1.68748e-05
-3.3473e-08
9.83481e-06
9.23635e-05
0.000171614
3.04103e-07
-1.05984e-06
-2.80015e-05
-4.30979e-05
-4.8222e-05
1.12921e-08
8.06372e-05
-5.53508e-07
1.71726e-05
-0.000409178
6.73727e-08
9.77205e-09
-3.75239e-08
3.15486e-05
-8.61846e-07
-2.11186e-08
-5.16884e-09
6.19859e-09
0.000163644
-2.45761e-05
1.97515e-08
-3.03922e-05
-1.08993e-08
5.31844e-08
-7.6693e-09
-9.74851e-06
-6.58047e-07
1.97819e-07
-4.82867e-08
-1.58593e-08
3.7429e-05
7.17129e-09
9.27618e-07
-7.0437e-09
5.28695e-08
-9.41834e-09
-1.83038e-07
-2.3185e-07
2.27358e-06
2.16388e-06
3.08842e-08
0.000104604
4.21612e-05
-9.36322e-09
-0.000109848
1.531e-07
-3.00942e-08
3.28353e-05
-9.35633e-08
-6.1293e-05
-2.09974e-08
2.40834e-08
3.77974e-05
4.47675e-05
1.10919e-06
3.91086e-05
1.07971e-08
3.58404e-05
-1.00638e-05
-3.91938e-09
4.28953e-05
-1.13603e-08
-0.000122786
1.77365e-09
3.48566e-08
-1.78967e-07
-1.91324e-06
4.93276e-09
5.8186e-08
6.04259e-08
3.63834e-08
1.70283e-07
1.94246e-08
0.000113533
-2.32322e-08
-4.78486e-08
-0.000149316
3.43492e-08
2.89844e-05
-2.24735e-08
0.000199521
-1.08746e-08
3.28838e-08
-0.000174377
6.96314e-07
-9.86573e-09
1.81962e-05
-3.502e-05
5.81679e-05
2.53404e-08
2.17505e-06
-5.48569e-08
3.16258e-08
-9.88635e-09
3.82743e-05
3.41385e-05
1.91944e-05
-2.92798e-08
-3.09764e-07
1.47135e-05
-9.94274e-05
1.37932e-08
5.98689e-05
5.059e-07
-0.000261152
5.0985e-09
-0.000104867
2.37178e-09
4.70233e-09
2.21466e-05
1.55977e-05
-5.57731e-08
-3.78166e-08
-5.27183e-08
1.77665e-08
4.93051e-05
-3.07598e-09
-7.79619e-08
1.03434e-07
2.24886e-08
2.16884e-08
2.36377e-05
2.00435e-07
1.40164e-07
0.0001563
0.00011581
2.26512e-08
8.25182e-06
6.70416e-08
3.60439e-08
-1.02233e-08
-1.16345e-07
-8.11156e-09
2.21036e-08
-3.80334e-08
-3.03459e-06
5.33964e-08
0.000262672
2.42491e-08
-4.42271e-08
0.000105849
-2.65729e-08
1.11984e-08
6.24384e-08
9.00147e-08
-1.78732e-09
-0.000127424
0.000132151
1.93069e-08
-6.59196e-05
-3.98699e-08
1.62026e-09
7.48449e-06
3.55005e-05
4.68753e-08
-3.92341e-08
-3.88852e-05
1.29149e-07
-0.000164239
7.91595e-09
1.7108e-08
1.30609e-06
2.14552e-08
-4.13809e-05
2.73449e-05
3.37563e-05
-2.89592e-09
-6.53057e-07
8.58461e-08
6.84952e-05
-3.06536e-08
-1.49528e-07
-3.25732e-08
-4.25366e-08
-2.08973e-08
9.4432e-09
-2.75369e-08
-3.05094e-05
-1.41729e-06
0.000269074
-0.000136163
0.000142725
0.00010052
1.49392e-06
-1.00024e-09
-1.31461e-08
1.08132e-05
1.74009e-07
3.77013e-08
-6.06535e-09
-6.60156e-05
-1.09869e-08
5.09111e-08
-8.60339e-07
2.27456e-08
-8.84586e-08
-0.00019339
-9.25642e-08
-1.4186e-05
-9.60478e-05
1.85152e-07
-1.74393e-08
6.05376e-06
2.30529e-05
-6.96142e-08
0.000126173
-1.15194e-05
-4.78259e-10
0.000166375
-4.84181e-07
-1.99271e-07
-6.13831e-09
0.00016864
-6.41429e-05
-1.06694e-08
3.6429e-08
1.20494e-07
-4.67419e-08
7.86125e-05
-0.000126493
-7.22288e-08
1.32446e-08
2.43055e-08
3.35252e-08
-2.69446e-05
2.02075e-05
-1.92112e-09
9.84862e-05
7.76585e-08
1.05975e-07
-4.26346e-09
-7.65423e-08
7.73399e-09
-4.97091e-08
0.000153783
-9.09504e-07
0.000159878
1.53751e-08
2.24497e-07
9.80129e-05
-7.26592e-09
6.6099e-07
2.71282e-08
3.46166e-08
1.11308e-08
0.000121824
-6.85647e-05
2.56443e-08
4.5238e-05
-5.98436e-08
5.56529e-08
8.7084e-05
3.52559e-05
6.56317e-09
-1.83333e-08
-1.25565e-06
0.000147546
1.73977e-06
2.46365e-08
-0.000162527
-6.36496e-08
1.94614e-09
-0.000165215
-0.000143472
-2.3665e-06
-1.35481e-05
-4.62439e-07
5.99188e-05
1.17945e-08
0.000105118
-3.92257e-05
4.16081e-08
2.49104e-05
-0.000267163
-2.79469e-08
-2.08024e-08
3.97449e-08
-0.000138452
2.41828e-08
-3.04935e-05
2.60579e-09
1.48055e-08
3.25941e-09
3.83192e-08
1.30579e-08
-5.3049e-05
7.56536e-09
-5.84126e-07
-4.52373e-10
3.78847e-08
3.65088e-08
-8.53306e-08
2.27455e-08
0.000101349
-1.93363e-08
-1.60417e-05
1.76435e-08
-1.92371e-08
1.7385e-08
4.39204e-08
-3.53021e-08
7.09772e-08
-1.66257e-10
3.53743e-08
8.56636e-05
9.94519e-08
9.53879e-06
-4.21881e-09
5.88084e-08
4.42122e-05
0.000111759
3.67952e-07
-5.61298e-06
2.31741e-06
-1.27286e-06
-0.000256892
2.69705e-10
-0.000173674
-2.35404e-08
-1.91225e-08
-0.000168231
-2.81188e-05
-5.33551e-09
6.63906e-08
2.8351e-08
5.43033e-05
1.56085e-05
2.65304e-08
7.50278e-05
-1.50319e-05
-4.15592e-08
-2.962e-07
3.77758e-08
9.99711e-06
0.000193738
4.91595e-10
1.37843e-07
4.37462e-08
7.41155e-09
9.47265e-05
9.82702e-08
5.7386e-07
-2.98617e-08
-6.36923e-08
-5.6604e-08
1.14131e-08
3.96764e-09
5.81678e-08
4.64691e-09
-5.45795e-09
-3.13112e-08
-1.15021e-08
-8.19573e-09
-1.6346e-07
-0.000184134
-3.19828e-07
0.000215595
6.27399e-05
-1.89581e-07
7.27071e-06
-3.35559e-08
8.3724e-05
-1.13553e-07
5.01548e-08
-2.08001e-08
-4.65056e-07
-5.50636e-08
-4.14571e-08
1.88357e-07
6.06791e-08
3.37101e-05
-3.45e-08
-0.000112055
1.38537e-08
0.000197526
-3.29687e-06
-3.77571e-05
6.21631e-08
-7.39498e-10
-2.16552e-09
-3.92506e-05
-1.80571e-07
-4.7404e-08
2.5716e-05
2.72983e-08
-1.80779e-05
7.10686e-08
-5.91411e-07
-6.06643e-08
4.24864e-06
2.22245e-08
6.09093e-09
3.62986e-08
-4.23322e-09
8.81885e-05
-5.74757e-08
6.74984e-05
8.45628e-05
9.10011e-08
1.45006e-07
-6.09776e-05
-3.84602e-07
2.65879e-06
2.33751e-08
1.98346e-07
-1.20195e-08
-4.04111e-09
-1.21254e-08
3.82692e-09
7.87e-08
7.49486e-07
-2.91475e-08
-2.41118e-05
-2.86106e-08
5.87381e-05
3.02471e-09
-0.0001922
-4.67788e-08
-2.38586e-09
1.1067e-08
0.000108983
4.22456e-08
0.000297526
-0.000275756
-3.34118e-08
-3.20175e-08
-3.98887e-08
1.04476e-05
2.98945e-09
-1.01891e-08
9.13966e-05
-3.30945e-08
1.20245e-08
-2.88215e-08
-4.1332e-08
3.79953e-05
3.87872e-08
-5.85786e-08
3.20596e-07
3.2543e-05
-7.70935e-08
7.62827e-09
7.8749e-05
4.09513e-08
7.20717e-05
5.27425e-09
4.07189e-08
-7.98582e-07
-4.7086e-08
-2.6514e-07
2.08524e-07
-2.18448e-08
1.17357e-08
-1.74716e-09
6.44925e-08
1.04785e-08
2.99296e-08
-4.67791e-08
6.57053e-06
4.31477e-09
-2.5642e-06
-1.05555e-06
0.000273969
2.31151e-07
6.71627e-06
2.02365e-07
-5.11602e-08
-1.19059e-06
-3.25415e-08
4.20342e-08
0.000236433
3.46643e-05
-0.000153274
8.6844e-05
-5.4286e-08
-3.60874e-08
4.24252e-09
8.75209e-08
-7.54673e-08
-0.000228527
-4.93154e-08
4.02168e-05
5.50676e-08
-6.10152e-08
-7.80661e-10
5.33408e-09
7.89263e-05
-8.26762e-08
2.31636e-08
8.06731e-08
-2.74221e-07
1.49813e-06
-0.000115774
1.80351e-08
-2.14635e-09
3.36771e-05
6.35557e-10
-1.81814e-10
6.11585e-09
-8.16982e-05
3.18163e-08
6.19632e-05
-3.78909e-08
1.79333e-06
7.62716e-08
2.35406e-07
-6.53334e-08
2.02664e-07
-4.88244e-08
9.73479e-09
5.16439e-05
-2.49382e-09
2.28864e-05
5.31511e-08
0.000239691
3.06071e-05
-6.28682e-08
5.26442e-08
-0.000184434
0.000153347
7.52039e-08
-3.23913e-08
-6.34924e-09
1.97025e-05
2.31359e-09
-2.27568e-07
6.23533e-08
1.34078e-08
0.000291049
1.25867e-08
-1.02104e-07
6.20705e-09
-7.96453e-05
-8.67981e-05
-3.27125e-05
-3.57297e-08
1.16381e-05
-7.75215e-08
1.98435e-10
3.98691e-08
-2.33906e-09
-1.80675e-07
-0.000127022
0.000216993
-1.39123e-07
2.33254e-08
-8.33427e-08
2.49604e-07
-0.000222864
-5.98322e-07
3.74989e-06
-2.60877e-05
-4.90424e-08
-5.82688e-08
-2.11112e-08
8.09669e-08
-6.8202e-07
-8.73062e-09
1.38125e-08
0.000115859
1.22632e-05
-3.9844e-08
1.07111e-05
-1.67634e-08
5.47793e-08
2.07647e-08
-1.61528e-08
7.09112e-05
-5.16853e-09
0.000236367
-7.69968e-08
2.9163e-08
1.26406e-05
-8.29276e-06
4.48963e-05
-4.97992e-05
6.15927e-05
3.27189e-09
7.87842e-06
5.67263e-07
6.33538e-05
-9.6149e-08
-3.08569e-08
-6.71316e-05
-3.06968e-08
-3.86088e-08
6.01565e-08
-1.53801e-08
-6.72753e-05
-3.02628e-07
5.98024e-08
9.43028e-09
-4.32248e-06
1.6617e-07
-1.94831e-05
2.17e-08
-5.78572e-08
-0.000128517
6.27893e-09
1.14746e-05
-1.03329e-08
-3.98392e-08
-8.97181e-05
-2.93302e-08
5.5334e-06
1.88763e-08
-7.89385e-05
6.28598e-08
3.3227e-05
-2.13829e-09
-3.16915e-05
5.16229e-05
2.75924e-05
-5.57635e-08
-1.22459e-07
5.42289e-08
-6.76517e-09
1.79503e-08
-4.88311e-08
-4.50644e-05
-8.02644e-09
1.67731e-08
-6.75056e-08
1.28388e-08
-3.36472e-08
1.13487e-08
-6.04908e-08
-3.19475e-09
6.02049e-08
-0.000222644
4.02406e-05
-6.31566e-08
-2.46761e-09
-7.7809e-05
4.9286e-08
0.000169015
1.09058e-08
-6.37258e-08
-3.25343e-08
1.47971e-08
6.49531e-08
-1.22266e-07
5.53183e-08
-1.7211e-07
1.61847e-08
3.4577e-06
-2.85479e-08
3.16683e-05
-1.38019e-06
2.26179e-07
9.05396e-07
-5.38073e-08
1.54604e-05
-5.98583e-07
-1.56082e-07
-8.99042e-08
-1.2734e-09
0.000177935
-4.22694e-09
-9.40036e-07
4.17212e-05
-0.000118512
1.25656e-07
8.13748e-08
0.000118712
3.04412e-05
6.76808e-05
-2.19714e-09
-8.61845e-08
3.6836e-08
-7.84838e-08
-1.60603e-07
-5.65291e-05
1.48556e-06
2.96573e-08
2.94228e-07
5.78788e-07
2.75254e-08
-0.000240679
6.06125e-05
2.12179e-07
2.62537e-08
0.00011436
5.371e-08
1.74019e-08
3.34588e-05
1.05106e-08
-9.01394e-08
1.3051e-07
4.97265e-08
2.86393e-08
7.02748e-05
8.77808e-05
-3.86618e-08
8.87131e-05
3.09948e-08
-5.98369e-08
-6.56811e-05
-6.95373e-08
-8.48991e-06
-1.24579e-08
4.00434e-09
-3.2871e-08
-1.87656e-08
6.17116e-05
2.92141e-05
2.26571e-06
-6.66535e-05
-1.26724e-05
-7.96857e-09
-1.31678e-07
1.09265e-08
4.18534e-06
1.76127e-08
1.3251e-08
-2.04591e-08
-1.59798e-05
1.16429e-05
1.70769e-08
2.81657e-08
-5.60833e-08
-1.86234e-07
1.98531e-05
4.09055e-08
-3.5922e-09
-4.43599e-08
6.86665e-05
-6.48583e-08
-4.61673e-05
6.05642e-08
-8.23759e-09
-7.38333e-08
-6.97002e-08
2.3085e-09
4.09247e-08
5.91412e-05
9.90055e-05
-1.09774e-07
-1.00178e-07
-6.02458e-05
-2.25008e-08
-0.000145979
-7.24391e-05
-1.21446e-08
0.000111112
8.28115e-05
-5.95428e-06
1.00901e-08
-1.31001e-09
1.50796e-05
-4.25434e-08
9.55375e-09
-4.48893e-06
-2.60847e-06
-1.28445e-08
-8.18499e-05
5.11805e-09
0.000251439
5.81896e-05
-1.1377e-08
-5.54351e-09
4.41445e-08
7.20893e-06
1.21059e-08
-1.39574e-08
2.66623e-08
-3.59587e-08
5.80145e-08
-5.72864e-05
-5.5018e-08
0.000150434
3.86458e-05
-4.14671e-10
-9.81694e-09
1.30445e-08
1.20335e-08
3.00115e-05
1.63919e-05
-4.85282e-06
2.93261e-05
-4.98997e-08
-2.08141e-08
1.18723e-08
-1.9448e-08
1.39491e-06
1.21425e-08
7.18282e-08
4.67933e-08
-2.43331e-08
0.000251191
8.07466e-08
-7.01896e-06
-6.9634e-08
3.31029e-08
9.94888e-07
-9.85758e-08
-5.0301e-08
1.08412e-07
4.11852e-06
-5.36244e-05
-0.00024926
0.000112981
0.000235429
8.47935e-05
-2.76978e-05
2.07346e-08
1.86325e-07
-1.2614e-08
2.12884e-06
-7.96874e-09
-1.27737e-09
-3.09577e-07
1.71591e-08
4.15755e-08
-1.32433e-08
1.21977e-07
-1.49843e-09
4.29296e-08
-3.6719e-08
0.000220835
-1.91911e-08
-4.65521e-08
-6.90511e-08
1.41869e-08
-5.70358e-08
-3.75984e-08
1.5448e-06
2.07486e-08
5.56844e-05
-1.45988e-08
-1.463e-07
-2.55172e-05
4.18839e-05
3.24649e-05
0.000234528
-2.09612e-07
0.000181129
1.05155e-08
3.73224e-08
9.60846e-09
-3.25973e-09
9.24414e-10
7.88993e-05
2.37229e-08
-7.75744e-08
2.07166e-05
-5.09649e-09
2.95808e-08
-5.51918e-09
-1.34905e-07
-4.81313e-09
0.000206496
-9.24406e-09
2.56062e-07
5.09096e-08
1.23197e-08
5.63997e-08
-1.33174e-06
8.62641e-09
8.58534e-05
0.000132577
-2.84113e-07
4.05628e-05
1.71545e-08
8.5287e-05
2.82892e-05
-2.69309e-07
7.18197e-05
-7.18109e-09
7.76744e-07
-9.98871e-09
-6.72851e-08
-3.75191e-08
-1.10988e-07
5.13406e-08
2.34794e-07
-2.07122e-08
-4.02519e-08
4.03808e-11
-5.73018e-06
4.40172e-08
7.76578e-05
1.48614e-09
-2.20885e-08
3.61943e-08
-5.36069e-05
-1.79138e-05
1.15932e-08
1.86775e-07
-1.33786e-09
-1.6754e-08
-1.1683e-08
0.000224467
-5.28214e-08
1.8943e-08
-5.90033e-08
1.54839e-06
-6.42011e-08
-2.74611e-06
-4.41047e-09
9.42249e-08
3.64839e-08
-2.49491e-09
-3.91836e-08
3.81142e-08
0.000283374
-0.000147131
2.1947e-08
1.27662e-08
2.08974e-05
-4.13885e-08
7.46997e-08
-8.12769e-08
1.35284e-07
1.84692e-05
-5.22231e-09
-2.70407e-05
1.79714e-08
-1.83593e-08
3.16227e-07
-2.64635e-09
-1.9672e-06
2.89871e-05
-7.64211e-08
0.000284663
4.16928e-08
1.92825e-08
-2.33739e-07
-1.55825e-07
-1.76317e-07
1.05664e-08
1.39813e-08
-3.50776e-08
2.16247e-07
3.59138e-08
3.4235e-08
3.43352e-08
-3.32945e-08
-1.46687e-07
-7.86721e-08
9.25312e-05
-1.23303e-08
3.54278e-08
8.47986e-06
9.41556e-08
1.68412e-09
7.70289e-05
9.95967e-08
1.89256e-05
2.66955e-08
0.000121427
3.89747e-07
4.88991e-07
9.67109e-05
3.18909e-08
-0.000133338
-3.79022e-09
1.96367e-06
9.01507e-09
3.21994e-08
1.61456e-07
9.51833e-09
-4.10733e-08
-2.43748e-08
1.27693e-08
-6.3263e-08
1.45311e-07
-2.72776e-05
-1.10849e-05
-0.00019333
-8.96133e-09
-1.069e-06
-7.60884e-05
-0.000231925
1.26732e-07
5.78403e-08
-0.000238553
-2.10371e-08
-6.57185e-08
-6.2276e-05
0.000103423
5.89497e-08
-4.27398e-08
8.79402e-10
3.23366e-06
-6.38786e-08
-7.00179e-10
-8.53971e-05
4.46041e-09
-3.41874e-09
9.90515e-05
2.346e-08
3.11614e-06
4.37002e-05
3.71109e-08
5.6273e-08
3.30702e-08
-1.80414e-08
0.000128971
-2.56799e-05
5.40487e-05
7.77743e-08
-1.21285e-08
-6.56421e-05
8.51307e-08
2.03915e-06
3.59021e-07
-1.39742e-08
9.35746e-08
3.07298e-08
-0.000262723
-5.13332e-05
9.74532e-10
-5.1711e-08
-2.79947e-08
-3.88905e-05
7.49167e-08
1.7593e-08
2.13375e-06
3.53878e-08
3.11446e-05
4.54063e-08
4.80281e-09
2.11956e-08
-3.01525e-05
0.000169889
-5.13283e-08
0.000211187
6.05877e-08
1.64178e-08
-4.85487e-09
5.93364e-05
-3.20192e-08
-9.86874e-09
8.08899e-08
-1.68349e-08
-3.93915e-08
-1.48491e-08
5.38231e-10
6.83123e-09
8.90499e-09
5.9065e-06
1.04385e-07
-1.56739e-07
-2.80936e-08
2.01703e-08
4.63128e-07
4.633e-08
4.81246e-08
2.72716e-05
3.85722e-08
0.000126984
2.03813e-08
-5.4201e-05
7.21565e-06
1.35266e-07
-1.46278e-05
1.01349e-09
1.85601e-08
1.96427e-10
1.78216e-08
6.85322e-08
-4.47453e-08
6.91726e-08
2.5645e-08
-4.52693e-08
-3.51863e-08
-3.08617e-08
-8.47391e-07
-2.16779e-08
-3.05426e-08
3.24229e-07
-8.28189e-08
-3.1332e-08
-1.19299e-08
3.57871e-05
7.31054e-08
7.65846e-08
-1.89453e-08
-5.27701e-07
-1.28997e-05
-7.40064e-07
1.22394e-08
9.78539e-05
6.41496e-06
6.97673e-05
-1.35104e-08
1.22194e-05
-6.34548e-08
0.000368371
1.18294e-08
2.00744e-07
8.77071e-05
2.58971e-05
3.95749e-06
0.000107588
-1.77831e-08
-1.1481e-05
-1.78484e-09
-6.27738e-09
2.68086e-08
0.000145294
-0.00011612
1.08636e-08
-8.52161e-09
4.02379e-06
7.41393e-07
6.27774e-09
0.000148498
4.2784e-08
-7.35747e-10
-1.42564e-08
-2.05384e-09
7.63003e-08
-3.99186e-07
-1.03199e-08
3.54399e-08
2.57649e-06
6.08433e-08
7.62826e-08
-8.5136e-08
-5.76733e-05
2.49715e-05
5.75804e-09
1.50326e-05
2.36627e-08
-2.76309e-09
0.000150234
5.36521e-09
-3.32313e-08
-1.62709e-08
-7.22612e-05
-2.38197e-10
1.00212e-08
-5.64473e-08
5.28496e-05
1.55904e-09
2.00033e-08
-7.08531e-08
1.31703e-05
9.88646e-09
-2.16349e-09
-1.17402e-07
3.4525e-08
-4.58627e-06
5.37405e-08
-4.75324e-05
8.36893e-08
1.10547e-07
-7.59655e-08
1.80607e-07
-2.9668e-08
2.68719e-08
-2.01574e-09
8.16344e-05
-4.58456e-08
-3.35272e-05
4.80284e-08
-4.97794e-08
-4.10438e-08
-5.44423e-08
2.46327e-08
-0.000306124
-1.53232e-08
8.71131e-08
5.13225e-08
0.000183847
8.6203e-06
7.4502e-09
3.40447e-07
5.68435e-09
-2.21288e-08
-8.48143e-08
-8.72666e-08
0.000120657
1.15389e-08
1.93176e-05
-1.40168e-07
-1.04475e-08
8.96616e-09
-4.49991e-08
-1.56935e-07
1.28884e-05
-1.03835e-06
1.9057e-08
-6.11825e-08
7.1188e-05
6.32977e-08
-1.19727e-08
-2.35272e-08
3.65092e-08
1.57287e-08
-0.000255744
2.15525e-08
2.64528e-05
0.000222637
-0.000257288
-2.08597e-08
-1.17834e-07
-2.64986e-08
1.8684e-07
2.61893e-08
-2.19926e-08
8.6006e-08
1.50153e-08
7.70602e-10
-2.20885e-07
-8.39308e-09
-2.8434e-08
-3.96706e-08
8.49766e-05
-5.33321e-08
8.9599e-05
-2.7541e-08
-1.20471e-06
-1.1647e-09
-1.84961e-07
-5.39173e-07
-9.92183e-08
0.000208344
5.76054e-07
-1.47903e-07
1.995e-09
3.93075e-08
-9.48631e-09
-4.3158e-08
6.57721e-05
-3.21956e-10
-6.74758e-08
-3.19533e-06
0.000225484
-5.74825e-08
2.29353e-05
-1.31367e-05
-1.78438e-09
-7.06005e-08
-4.88324e-08
1.70724e-06
5.49617e-08
5.18403e-05
4.59726e-08
-0.000146091
3.53142e-08
-4.38855e-06
0.00025468
-7.16072e-08
0.000105809
4.68239e-08
-2.09815e-08
1.22359e-08
-5.65967e-05
4.60485e-08
-7.02086e-08
-1.56206e-09
-1.64722e-08
1.03242e-07
-1.12743e-08
3.52068e-08
2.80811e-05
1.98877e-07
-5.76576e-08
2.83105e-05
4.25081e-09
1.02678e-07
1.82964e-10
-1.85933e-09
0.000272024
1.52767e-08
7.00872e-08
-5.06837e-08
1.5619e-08
-5.97828e-08
2.06046e-08
-1.95154e-08
1.92791e-05
-1.31965e-07
1.51006e-08
7.54223e-05
4.99335e-08
-4.50045e-05
-1.50144e-09
8.95545e-05
7.38206e-08
1.12036e-09
2.99423e-09
4.2985e-05
5.85716e-05
-3.25295e-08
-7.75265e-07
3.13478e-07
-1.34531e-07
-7.1787e-09
7.41385e-05
9.31924e-09
5.16707e-09
-9.54837e-09
1.83047e-08
1.95038e-07
4.6318e-05
4.52694e-08
-5.20719e-08
-1.73e-08
-2.70052e-05
-1.9342e-06
7.3508e-10
6.40479e-08
-0.000206325
-1.40885e-08
0.000225145
0.000118541
5.07576e-06
9.4515e-09
-2.84072e-08
-3.37374e-09
8.69608e-06
-7.57198e-08
1.77641e-08
1.18773e-08
-8.14811e-08
2.93852e-05
-0.0001421
-2.3047e-08
-6.56728e-07
9.82615e-08
2.62154e-08
0.000104296
-2.79669e-08
3.04467e-08
2.30095e-07
-4.06262e-05
1.21436e-06
1.46346e-06
4.15671e-05
5.59241e-08
2.33486e-05
5.06272e-05
0.000295236
7.18795e-09
7.13432e-05
4.59725e-05
-4.38194e-05
-0.000128152
1.39127e-05
-4.86983e-09
5.13739e-08
-4.24726e-08
-1.99439e-07
6.84246e-08
-2.1303e-05
-7.69627e-08
-6.61685e-09
-5.01539e-05
-2.76861e-07
-2.88129e-08
6.0549e-08
-9.59576e-09
-6.87585e-06
-4.01234e-08
-0.000125695
-5.91961e-08
-9.96041e-08
0.000208433
-0.000135383
3.59685e-08
1.54784e-07
-3.64792e-08
7.50566e-08
-9.31002e-08
5.73562e-09
5.70164e-08
-4.3655e-08
9.19032e-07
-1.91929e-07
-3.42636e-07
-6.42579e-08
7.04995e-10
0.000181543
3.60012e-05
-4.6592e-07
-8.03094e-07
0.000134582
5.51587e-08
6.88463e-09
0.000279654
4.72296e-06
2.61637e-08
-2.84494e-08
3.86519e-08
-2.81016e-08
4.64137e-08
7.76011e-05
8.02034e-08
4.5746e-08
-2.01271e-08
-2.1446e-06
4.46321e-08
2.32111e-05
-9.43471e-06
-9.75789e-08
-9.01774e-09
-4.9375e-08
-3.93917e-08
3.44924e-08
6.54309e-10
1.27454e-08
-1.84657e-08
-3.48894e-08
2.93589e-08
-1.43049e-08
-4.18151e-08
-6.50528e-06
-7.24019e-09
4.37015e-05
6.08722e-05
-4.32613e-08
-5.59048e-06
1.50717e-06
2.07645e-07
-7.76104e-08
-6.48748e-08
3.30337e-08
-2.08386e-06
-7.22056e-08
1.31153e-07
-3.27546e-08
6.42059e-05
2.50751e-08
0.000274205
-8.37819e-08
-5.03309e-08
-9.13084e-09
7.9817e-09
-1.72604e-07
1.45158e-08
5.0866e-08
-0.000288546
-1.64886e-09
8.97105e-06
-9.49378e-06
-5.75079e-05
3.72963e-09
7.70659e-07
6.80951e-05
-8.68757e-06
1.22433e-05
-2.18509e-07
4.10978e-08
9.19661e-07
5.21864e-05
0.00026692
8.96487e-08
1.7883e-05
-2.70571e-10
3.98493e-08
2.30761e-08
-3.54324e-09
-2.60477e-07
-4.40993e-07
6.32714e-09
-4.90215e-06
-6.67626e-08
-0.000133934
9.54401e-05
0.000243144
0.000191489
-5.83154e-05
-7.25427e-08
2.22359e-07
-0.000320197
2.35998e-09
2.27932e-09
-4.08648e-08
-5.8112e-08
-1.95861e-06
5.75641e-05
2.95464e-09
-1.99701e-08
1.16479e-07
-6.23144e-08
2.54215e-07
3.27403e-09
0.000137919
-0.000139098
-3.67968e-08
9.65686e-08
4.08446e-05
3.34299e-08
2.4026e-08
-1.8724e-07
-4.38727e-05
-8.62173e-05
-5.19241e-08
-3.81522e-07
4.82811e-08
-4.59774e-05
-0.000203765
-2.83139e-08
-0.00027438
6.14076e-06
1.91698e-05
-6.16813e-08
-8.58108e-08
-1.74108e-08
-2.01771e-08
4.16234e-05
6.3383e-08
-3.60589e-07
1.68895e-05
2.79613e-05
5.80464e-08
4.742e-08
7.36903e-06
5.2018e-08
-0.000323211
0.000176156
-1.15689e-08
-3.38973e-08
-5.22995e-08
-4.70232e-08
0.000136055
-1.5016e-08
3.79605e-05
-5.05489e-08
-4.27786e-08
-5.08701e-08
-6.38569e-09
4.85543e-06
-3.91317e-08
-0.000226986
4.32659e-09
8.34567e-08
3.08584e-08
-1.2237e-07
1.05732e-09
2.04974e-05
0.000184778
-1.89899e-06
6.82249e-08
-6.2231e-08
-6.70102e-08
-5.44426e-08
-5.93118e-06
9.45318e-05
-0.000277743
3.67308e-08
0.000175884
-1.98319e-06
-6.62307e-05
6.77767e-09
-8.75337e-10
5.11307e-08
3.16421e-08
1.29439e-05
3.08606e-08
-1.15061e-08
1.88197e-05
-0.000119424
1.74613e-06
-4.46957e-05
-5.42131e-08
3.53699e-08
-6.43484e-09
-0.00013821
-7.30066e-08
-0.000123575
-6.24419e-09
0.000248261
2.41646e-09
2.16354e-08
-2.59542e-08
-1.6273e-08
2.88316e-08
4.42689e-08
5.30865e-05
-4.26146e-08
2.65724e-08
-4.99353e-08
4.82231e-05
-7.36215e-06
-1.19025e-08
0.000180633
-1.85566e-09
2.36301e-08
5.22844e-08
-2.37095e-08
-4.72207e-08
1.07596e-08
0.000150284
-1.82888e-07
-4.79077e-08
-1.0349e-07
6.6875e-06
-7.97859e-08
-4.27547e-09
0.000172632
-3.83937e-05
1.02196e-07
3.45496e-09
1.99662e-05
-1.30212e-07
1.35949e-06
7.30286e-08
2.86221e-08
-3.45031e-05
4.42e-05
1.66928e-07
-1.01841e-05
5.62431e-09
-1.47125e-08
2.44957e-09
0.000161984
2.27443e-06
7.56992e-08
-2.48896e-06
-5.9379e-08
9.9216e-05
1.42609e-07
3.70648e-06
6.3408e-06
-0.000243597
5.59969e-05
0.00010133
9.51795e-05
-1.48952e-08
-1.97727e-08
-1.06624e-07
8.69641e-08
-2.98685e-08
2.11631e-07
-3.62405e-08
-4.8817e-08
0.00011452
-9.83729e-09
3.35536e-09
-3.2472e-08
2.35442e-07
-6.5056e-08
1.73629e-08
-0.000105857
6.08093e-09
-4.26193e-08
-6.72204e-08
8.33283e-05
-6.1999e-09
-0.000104213
-1.70764e-07
-5.34759e-09
1.66414e-08
-8.81781e-09
-9.85402e-05
4.23089e-06
-2.96219e-08
-6.70846e-08
4.39795e-09
2.16319e-05
0.000134838
5.86307e-05
-5.72245e-08
-3.34503e-08
1.40479e-05
1.12353e-09
2.18634e-08
1.58447e-08
-1.18374e-06
-1.03323e-06
2.77468e-08
1.53711e-08
9.4517e-08
0.000244813
2.53016e-07
-1.62051e-07
-4.6674e-08
-8.58284e-09
-1.97729e-08
-1.75277e-06
4.52713e-08
1.79208e-07
5.68226e-05
0.000172865
-8.29935e-05
7.99726e-05
2.57344e-05
0.000169249
-0.000311657
-8.37959e-08
2.07435e-08
-0.000149994
-4.41829e-05
-0.000110786
2.04472e-08
6.1257e-08
8.25478e-09
-1.47983e-07
7.74535e-05
-0.000124569
-3.9692e-08
1.50147e-08
2.26384e-05
-7.38936e-08
-8.06622e-09
-5.12822e-06
-2.84575e-05
1.75966e-05
-1.80062e-08
9.66237e-06
0.000108423
3.93189e-06
5.10018e-08
-6.48294e-09
-6.36741e-09
-3.40597e-08
6.08e-08
2.69002e-08
-1.79387e-08
-2.13914e-08
-5.55918e-08
2.61952e-08
7.77113e-07
3.59529e-05
-3.5267e-09
-3.30884e-08
-6.24564e-05
7.95196e-08
-7.74662e-08
-0.000320999
-0.000391508
3.68933e-05
4.92783e-08
4.27786e-08
8.98884e-09
-5.03543e-08
-3.5302e-09
2.27511e-08
5.8897e-08
-4.03451e-08
-4.95152e-08
2.64657e-06
-5.98835e-08
2.0462e-09
5.06838e-05
9.56109e-05
-0.000120972
4.11448e-06
-4.63429e-08
-2.38185e-09
1.69665e-08
-2.26825e-09
-8.56912e-09
-0.000170824
1.21901e-07
-4.62288e-09
1.11433e-08
4.84089e-05
-9.08405e-05
2.05931e-08
-2.08143e-09
-4.43901e-08
2.53682e-09
-4.90587e-08
2.0418e-07
5.90467e-08
-3.68884e-08
-0.000119931
-4.60488e-08
-7.63389e-05
-5.19918e-08
-9.75625e-05
5.09247e-08
5.17844e-09
1.36367e-08
-7.97174e-08
7.26103e-08
-1.20296e-08
-2.20359e-08
1.57085e-08
-2.18507e-08
0.000183
-0.000274487
0.00029759
-7.38313e-08
-9.2809e-06
-2.55261e-08
5.0016e-09
4.16289e-08
-4.20962e-08
-4.50398e-08
1.94172e-05
-0.000231525
3.05859e-08
-3.64416e-07
8.89014e-05
-1.67848e-08
1.82362e-05
-6.65795e-05
8.28713e-07
-7.49337e-08
-4.86201e-08
0.000279195
-9.33597e-06
1.84381e-05
-6.465e-08
4.23824e-09
-6.09443e-08
5.57298e-08
0.00022512
3.78154e-09
5.42722e-08
3.02012e-05
-4.72861e-05
-1.98284e-08
1.72736e-07
0.000158578
1.64911e-08
0.000245201
3.35982e-07
-1.7819e-07
6.51472e-08
1.97598e-07
-6.56737e-07
0.000218677
-1.39207e-08
1.12472e-06
-3.17994e-08
9.71101e-08
-1.058e-07
4.98762e-06
-2.42098e-08
1.07238e-06
2.28697e-09
-5.67805e-08
9.40703e-07
1.18043e-07
-7.82471e-09
1.92037e-08
-5.73913e-08
-5.31239e-06
-3.5813e-08
2.16392e-08
-1.03297e-08
-7.83032e-09
9.74876e-08
-3.05712e-07
-4.56623e-09
-2.11682e-08
3.98667e-06
2.86238e-09
-3.43744e-07
-4.97735e-08
4.94547e-08
-4.63543e-09
-1.74206e-06
2.12193e-05
-6.6325e-08
2.14825e-05
2.75789e-05
-1.69759e-08
3.30275e-09
-0.000338594
-2.25443e-05
1.72137e-08
3.9061e-05
5.74385e-07
-1.45236e-08
-6.66813e-08
1.24963e-08
3.9926e-09
2.38268e-08
0.000144021
-0.000146732
3.11208e-06
5.81462e-06
6.20682e-05
-4.69435e-05
3.23141e-09
2.66411e-05
-2.59926e-08
7.93428e-05
-7.08294e-05
-3.12648e-08
7.55847e-08
3.27945e-05
-5.99104e-08
-4.43881e-08
6.10448e-06
0.000140814
9.30211e-09
8.87868e-08
-6.70599e-05
7.1775e-09
0.000104339
3.18884e-05
-4.34667e-08
7.52987e-05
4.14774e-05
-4.93635e-05
5.35476e-05
4.15835e-05
4.06708e-05
-9.05719e-08
-1.49782e-08
4.92637e-08
-3.20968e-08
1.92774e-07
4.44013e-08
2.90467e-07
5.00718e-05
5.83967e-06
5.37564e-08
3.47981e-06
5.71308e-05
5.96784e-06
1.27991e-06
-3.54759e-06
7.03411e-05
7.13883e-06
2.92722e-08
-4.64059e-08
0.000141539
1.92123e-09
-2.27507e-08
5.57896e-05
5.17363e-08
0.000181996
-2.28966e-08
-7.17281e-05
5.3168e-08
6.99225e-09
-0.000184262
-2.11165e-08
-3.5806e-08
2.9352e-05
-0.000334245
-8.60607e-05
3.95789e-09
2.73117e-08
4.38403e-09
-2.55818e-08
-2.27313e-07
-2.33009e-08
-3.96376e-09
-0.000261715
-8.2512e-08
5.85113e-08
4.79804e-05
2.23417e-08
-1.23386e-08
2.57912e-06
5.64077e-08
-4.54127e-08
2.17904e-08
-3.05146e-07
4.79806e-08
-6.0909e-08
7.37421e-05
-6.99573e-05
-4.74163e-10
5.9901e-08
-0.000102243
3.84674e-08
-5.69798e-08
4.19364e-08
6.4601e-08
-0.000144811
-7.12647e-08
-1.05159e-08
-9.41167e-06
4.91555e-09
8.19966e-05
3.44747e-08
-8.43969e-08
-2.01895e-07
5.9688e-05
3.74313e-08
0.000102436
9.36777e-05
-6.28448e-09
1.63558e-08
-1.57825e-07
6.07425e-08
7.5656e-05
2.73828e-08
-0.000124865
-2.56629e-07
4.89206e-08
4.06269e-08
2.12597e-06
-6.14245e-08
4.00081e-06
-5.14974e-08
-1.60826e-08
-2.0789e-08
-1.63145e-08
0.000119853
1.38765e-07
-4.25736e-09
3.81779e-09
-1.22784e-07
-1.43095e-08
-5.16511e-08
-3.97419e-06
-9.96245e-08
-2.4983e-07
2.29415e-09
-5.07638e-08
5.43248e-08
-5.15245e-09
-5.9614e-08
6.92024e-09
-7.06048e-08
-6.16957e-05
-3.47463e-08
7.47744e-08
8.4531e-09
-8.43166e-08
2.65573e-05
1.13087e-07
0.000299277
0.000180716
6.756e-05
-8.04426e-09
-3.23602e-08
4.37009e-09
-2.80394e-08
-4.58896e-08
-3.20772e-06
-5.59494e-08
-9.18466e-05
-1.88547e-08
0.00019333
-2.95736e-07
-4.27371e-08
-6.19469e-09
2.54873e-05
1.44614e-07
-7.25609e-08
3.2488e-07
1.33334e-06
2.99217e-08