/*--------------------------------*- C++ -*----------------------------------*\
| =========                 |                                                 |
| \\      /  F ield         | OpenFOAM: The Open Source CFD Toolbox           |
|  \\    /   O peration     | Version:  v2012                                 |
|   \\  /    A nd           | Website:  www.openfoam.com                      |
|    \\/     M anipulation  |                                                 |
\*---------------------------------------------------------------------------*/
FoamFile
{
    version     2.0;
    format      ascii;
    class       volScalarField;
    location    "200";
    object      epsilon;
}
// * * * * * * * * * * * * * * * * * * * * * * * * * * * * * * * * * * * * * //

dimensions      [0 2 -3 0 0 0 0];


internalField   nonuniform List<scalar> 
13851
(
4.434e-06
1.90382e-06
1.90113e-06
0.0756898
3.26089e-06
1.96673e-06
1.67397e-06
2.15483e-06
0.00995951
2.97435e-06
2.88805e-06
3.23687e-06
2.62195e-06
0.0106073
1.93314e-06
4.7424e-06
0.0327331
1.99374e-06
2.37477e-05
4.44552e-06
2.01724e-06
2.1712e-06
0.177826
4.11085e-06
0.00262698
2.23462e-06
0.000131783
0.00173479
0.00793648
2.12404e-06
0.0744233
1.67702e-06
4.33713e-06
0.0151279
2.29968e-06
0.00767403
4.16859e-06
0.0067428
0.0388359
2.38383e-06
0.0184644
0.00822425
0.0720022
0.00118413
0.00891176
2.38093e-06
1.64061e-06
4.35648e-06
2.09596e-06
2.6412e-06
0.0200227
2.61296e-06
4.6941e-06
1.75888e-06
0.00927931
2.39963e-06
4.41551e-06
0.0181326
0.000315202
0.0124419
3.26796e-06
4.09181e-05
3.28301e-06
2.10205e-06
5.07026e-05
6.13688e-05
0.0137256
5.86155e-06
2.24838e-06
0.0807508
0.054156
2.14147e-06
2.6109e-06
0.0130158
1.80512e-06
2.20188e-06
0.0326171
1.94874e-06
0.00212104
2.70065e-06
2.23774e-06
4.22738e-05
2.29551e-06
0.0103657
0.0121859
0.0671386
2.17021e-06
0.00917576
2.92077e-06
0.0768955
2.60353e-06
1.6878e-06
0.0459744
0.0617445
0.0278215
8.47176e-05
2.47153e-06
4.89141e-06
0.0172499
1.12751e-05
5.13133e-06
3.02628e-06
3.28116e-06
2.57923e-06
2.29322e-06
2.16215e-06
2.31757e-06
0.0587318
1.69107e-06
2.00114e-06
2.26662e-06
2.35947e-06
6.85234e-06
2.5959e-06
4.22416e-06
1.75349e-06
2.23661e-06
2.142e-06
0.0668947
0.0943767
3.05285e-05
2.02993e-06
2.29782e-06
0.0120956
1.19107e-05
1.8221e-05
2.47312e-06
2.83811e-06
0.0151932
2.05802e-06
2.18227e-06
2.08412e-06
0.00422262
0.0148324
2.88843e-06
0.0299585
5.3262e-06
0.062771
2.61473e-06
2.03037e-06
3.12796e-05
2.41872e-06
2.8959e-06
1.31335e-05
0.00268667
2.24539e-06
1.94169e-06
0.0651484
0.00796017
2.94411e-06
5.11187e-06
6.49178e-06
2.71014e-06
1.15349e-05
2.54687e-06
2.77899e-06
3.33375e-06
0.0374742
1.99133e-06
1.74129e-06
3.99433e-06
0.00782632
2.14313e-06
4.37943e-06
0.0102876
0.0102448
0.0104654
0.0194902
2.25615e-06
0.0159833
3.33314e-06
2.25054e-06
2.37827e-06
3.50767e-06
0.0290804
8.16715e-05
5.72331e-06
2.21486e-06
1.79482e-06
5.55127e-06
1.13172e-05
0.000812857
2.23069e-06
2.04084e-06
0.0644393
0.00794604
4.31746e-06
2.39882e-06
2.55886e-06
2.23416e-06
0.00138687
1.99237e-06
0.012487
1.95989e-06
2.24676e-06
4.79793e-06
4.16691e-06
1.84075e-06
2.01864e-06
6.243e-06
3.5988e-05
0.0236832
0.0191559
1.92527e-06
0.042305
0.0223174
2.4106e-06
1.98791e-06
0.0103637
1.99517e-06
4.72688e-06
2.30508e-06
4.16475e-05
3.95288e-06
2.30154e-06
2.19211e-06
2.65872e-06
9.44115e-06
1.9292e-06
0.0334802
2.20874e-06
4.46545e-06
0.0111504
0.0296149
2.38638e-06
1.9912e-06
4.10653e-06
9.75731e-06
2.95187e-06
2.28899e-06
0.148678
2.3938e-06
1.98801e-06
3.38607e-06
0.0186001
2.10631e-06
0.102053
0.0194591
9.31953e-06
4.04687e-06
0.00316017
0.0119386
0.00893619
4.58056e-06
1.96171e-06
2.42321e-05
7.98825e-06
1.79285e-06
7.42166e-05
2.27499e-06
0.00888789
4.75017e-06
2.35584e-06
1.88003e-06
4.96779e-06
0.00764278
0.00660325
2.23782e-06
1.95389e-05
2.9132e-06
7.26142e-06
1.13663e-05
1.87746e-06
2.14387e-06
4.90698e-06
2.63153e-06
3.1243e-06
3.52232e-06
0.00097538
3.23175e-06
2.67307e-06
2.39169e-06
0.0118555
0.0518792
2.07387e-06
2.01905e-06
1.1288e-05
1.13108e-05
3.70663e-06
2.12936e-06
0.0117306
0.0156765
1.91456e-06
1.89111e-06
0.0119044
2.23784e-06
3.33137e-06
3.82585e-06
2.69468e-06
2.07346e-06
3.94121e-06
2.91406e-06
2.90707e-06
1.9307e-06
3.30274e-06
0.0102671
2.04117e-06
2.37858e-06
0.00754388
0.0117313
2.59517e-06
4.52347e-06
0.0185315
2.40747e-06
2.58263e-06
2.07518e-06
0.011154
0.0607135
2.45922e-06
3.22334e-06
0.0147205
3.30087e-06
2.59332e-06
0.0176412
0.00083513
1.74521e-06
0.00806208
0.00184585
0.0584399
6.46823e-06
3.21211e-06
0.0322767
0.0131969
0.00144922
2.01064e-06
0.0407715
0.0218731
0.00197441
0.00131111
2.41012e-06
2.47522e-06
2.34589e-06
0.00855332
3.53589e-06
2.53987e-06
1.66104e-06
2.10929e-06
0.054542
0.027994
2.24008e-06
0.0281611
2.36251e-06
2.09718e-06
1.74108e-06
0.0118999
1.11389e-05
4.83792e-06
2.19657e-06
1.98553e-06
0.00711184
2.55304e-06
1.29967e-05
1.90811e-06
2.07631e-06
2.36965e-06
2.90026e-06
2.37622e-06
7.23775e-06
1.36421e-05
4.73772e-06
0.00304506
0.00725387
2.24206e-06
0.0187465
9.99197e-06
1.90003e-06
0.00109348
2.992e-06
0.016528
2.10368e-06
2.30276e-06
8.3869e-05
0.00300432
6.91572e-06
0.00782775
2.04427e-06
9.96684e-05
0.0498102
1.96334e-06
0.00795622
1.99894e-06
0.020801
1.89023e-06
1.82913e-06
4.8083e-06
2.28416e-05
2.77055e-06
1.92999e-06
2.82369e-06
1.80459e-06
2.40817e-06
2.07169e-06
0.0137404
2.59713e-06
1.99732e-06
0.0637391
1.98477e-06
0.0181929
1.91174e-06
0.0568821
2.00066e-06
2.17019e-06
0.0257167
1.26126e-05
2.16565e-06
0.00715205
0.0128879
0.00248041
2.62835e-06
6.97164e-06
2.02428e-06
2.29998e-06
2.07267e-06
0.0692937
0.0154827
0.00279928
1.97877e-06
4.92208e-06
3.78477e-05
0.0548824
1.77969e-06
0.0377993
3.44186e-05
0.245332
2.28736e-06
0.00203415
2.73858e-06
3.4357e-06
0.00991552
4.49796e-05
2.94517e-06
1.91231e-06
2.01223e-06
2.34522e-06
0.0144549
2.47221e-06
2.93934e-06
1.80428e-06
2.03093e-06
2.63457e-06
0.00245998
2.40441e-06
2.64943e-06
0.00664907
0.0134434
2.1827e-06
2.34428e-05
3.31431e-06
3.29704e-06
1.98502e-06
4.83046e-06
1.8924e-06
2.40223e-06
1.9626e-06
2.65471e-05
1.87476e-06
0.0605788
3.21579e-06
1.76752e-06
0.00908343
2.50655e-06
1.78213e-06
3.40326e-06
1.80833e-06
1.8216e-06
0.0031868
0.00743639
1.95925e-06
0.215227
1.97693e-06
3.12502e-06
0.0134785
8.57312e-05
2.56922e-06
2.54629e-06
0.0126451
2.56853e-06
0.0431334
2.59519e-06
2.07275e-06
7.22184e-06
1.85047e-06
0.0139162
6.42953e-05
0.00206771
2.31548e-06
6.77306e-06
2.59487e-06
0.00772796
1.91373e-06
4.14893e-06
2.01241e-06
2.197e-06
2.49986e-06
2.37819e-06
3.30844e-06
0.0472826
0.013224
0.0590644
0.0890131
0.00730866
0.0282426
1.27612e-05
2.35949e-06
3.81058e-06
0.0282266
2.99009e-06
2.42009e-06
2.39276e-06
0.0288389
1.87032e-06
2.43356e-06
5.8382e-06
2.22954e-06
2.97165e-06
0.0215882
2.51143e-06
0.0150375
0.00242032
2.67691e-06
1.81128e-06
3.05337e-05
0.00116068
2.0935e-06
0.0123374
0.0523875
1.73803e-06
0.0487168
2.20275e-05
4.44726e-06
2.31992e-06
0.00646259
0.0138518
1.73519e-06
2.22964e-05
2.27127e-06
2.5052e-06
0.00516587
0.0212952
2.08651e-06
1.88115e-06
2.98939e-06
2.08887e-06
0.0153656
0.0344715
1.80035e-06
0.0293595
2.41342e-06
2.26035e-06
2.16445e-06
1.73889e-06
1.7687e-06
2.2116e-06
0.0479043
1.92921e-05
0.0463311
1.87094e-06
2.89766e-06
0.0116733
3.6756e-06
6.90023e-06
1.79986e-06
1.81698e-06
1.97261e-06
0.00897914
0.0150178
1.94412e-06
0.0409728
1.75566e-06
2.52871e-06
0.00839661
0.00854805
2.33932e-06
2.60029e-06
3.35531e-06
0.0453931
1.52708e-05
2.07483e-06
0.0689438
1.73584e-06
1.87301e-06
0.15648
0.0251465
1.53186e-05
0.014595
7.02447e-06
0.00767154
2.06827e-06
0.000381055
0.000727746
3.21564e-06
0.0312363
0.027823
2.24777e-06
2.03836e-06
2.44643e-06
0.106825
3.75546e-06
0.111933
2.39507e-06
3.63596e-06
2.36885e-06
2.22742e-06
3.25937e-06
0.0278523
3.60123e-06
6.54682e-06
2.32943e-06
2.32052e-06
2.58397e-06
2.95788e-06
2.60179e-06
0.0292949
2.17765e-06
0.028537
2.08231e-06
2.35606e-06
1.92425e-06
2.39533e-06
1.97335e-06
3.656e-06
1.88446e-06
2.54654e-06
0.000299857
3.67954e-06
0.00705052
4.05174e-06
2.93569e-06
0.0415081
0.00988373
2.39445e-06
0.0817539
5.5964e-06
3.01291e-05
0.0282648
1.80728e-06
0.0270674
2.35769e-06
1.97496e-06
0.102716
0.000522531
1.89725e-06
3.55969e-06
1.83288e-06
0.0074576
0.0223773
2.19758e-06
6.6215e-06
0.0153833
4.09727e-06
4.03771e-06
2.25763e-06
0.00799792
0.00519951
2.58681e-06
4.86032e-06
1.87351e-06
2.92257e-06
0.000355933
4.94623e-06
9.89136e-06
1.77778e-06
3.55328e-06
3.08957e-06
2.0919e-06
2.4789e-06
2.25199e-06
3.63376e-06
2.36606e-06
3.9047e-06
2.13574e-06
2.1449e-06
1.08247e-05
0.0289521
2.35142e-05
0.0108602
0.00907515
4.70241e-06
0.00971871
2.53e-06
0.00564448
4.59188e-06
2.04541e-06
1.8692e-06
1.39474e-05
2.1353e-06
2.71766e-06
2.71483e-06
2.95164e-06
0.00813417
1.7742e-06
0.0190067
2.36599e-06
0.00582541
1.64885e-05
0.0186406
3.59017e-06
1.99698e-06
1.89184e-06
0.0181339
9.46954e-06
2.47614e-06
5.85958e-05
2.03835e-06
0.0201898
2.96376e-06
6.74585e-06
2.03876e-06
0.000133636
2.72877e-06
4.00702e-06
2.42484e-06
2.886e-06
0.00850974
2.94623e-06
0.000274981
0.0115799
3.6854e-06
0.0339379
0.0164625
7.07927e-06
3.7155e-05
2.39421e-06
3.68254e-06
2.69359e-06
1.97223e-06
1.93178e-06
3.52998e-06
2.51839e-06
6.36394e-06
3.3436e-06
0.00118195
2.19769e-06
0.0100792
4.27697e-06
0.0913254
2.26614e-06
4.21604e-06
3.45857e-06
0.0100579
1.97377e-06
0.00553439
0.0267159
2.00347e-06
2.41845e-06
1.71681e-06
0.0151652
2.28007e-06
1.87678e-06
0.000353215
3.69947e-06
2.42963e-06
1.88567e-06
1.92515e-06
0.00819563
2.05198e-06
2.02885e-06
3.96027e-05
0.0332114
2.39889e-06
2.26998e-06
0.00811695
1.97966e-06
0.00793882
3.78855e-06
1.86172e-06
0.00175248
2.59158e-06
4.16659e-06
3.76595e-06
2.17665e-06
3.91429e-06
4.27878e-06
2.64735e-06
2.05731e-06
3.9513e-06
1.76036e-06
4.30711e-05
2.88744e-06
2.53048e-05
0.0142915
0.00439187
3.68977e-06
0.0961025
2.66118e-06
3.66223e-06
6.91768e-06
2.40078e-06
1.92352e-06
0.0102164
0.00713301
0.0270132
0.00828863
2.17914e-06
2.2064e-06
4.64309e-06
2.27096e-06
2.18054e-06
0.178264
7.56312e-06
0.00810275
2.9753e-06
2.62872e-06
2.83478e-06
2.13706e-06
0.0108685
2.96903e-06
1.86485e-06
4.04962e-06
4.14817e-06
8.43062e-06
0.0196807
2.56438e-06
3.55676e-06
0.00902695
2.48544e-06
1.98656e-06
2.36426e-06
0.0283622
2.39507e-06
0.0410749
3.17125e-06
7.98808e-06
1.99866e-06
4.84644e-06
2.03812e-06
2.63261e-06
1.92684e-06
3.02646e-06
0.000207188
2.46904e-06
0.00619104
2.01795e-06
0.00494468
0.0131025
2.03868e-06
2.96683e-06
0.0765316
0.00767879
1.9459e-06
2.57177e-06
2.70604e-06
0.00807195
2.03888e-06
1.43842e-05
3.15429e-06
3.01565e-06
0.00473369
1.97204e-06
3.36018e-06
1.76606e-06
0.0167606
0.0620893
0.0163638
2.26266e-06
0.00970055
3.19984e-06
2.91578e-06
2.54885e-06
1.65225e-06
3.94625e-06
0.0187676
0.0110521
1.93226e-06
3.5819e-06
2.08597e-06
2.35062e-06
0.0976888
7.14352e-06
0.00986762
0.0334938
1.92938e-06
3.9283e-06
3.18557e-06
2.02012e-06
1.08905e-05
1.80328e-06
3.83755e-06
0.00362217
0.0213165
2.39008e-06
0.0419048
2.23977e-06
3.30299e-06
2.1388e-06
2.60741e-06
0.0272634
1.92017e-06
0.00173508
3.02418e-06
3.89358e-06
0.135713
0.142028
0.00735016
0.00101728
0.00490946
2.30605e-06
2.25648e-05
2.63664e-06
0.000371479
2.12765e-06
2.55324e-06
0.0175371
2.21575e-06
2.96891e-06
2.32956e-06
2.22563e-06
0.0275808
1.31912e-05
2.44902e-06
2.14423e-06
0.0109494
2.13369e-06
0.041681
2.39964e-06
2.53982e-06
0.0221393
3.31449e-06
4.19632e-05
2.164e-06
2.05136e-06
0.0801979
2.2076e-06
3.61533e-05
2.15021e-06
0.0176032
1.76633e-06
0.00688745
1.96574e-06
0.0111383
0.0243258
0.00775811
1.99243e-06
2.64654e-06
2.18212e-06
4.10268e-06
1.81214e-06
3.41026e-06
0.0144646
2.22497e-06
2.34703e-06
2.39524e-06
2.31196e-06
2.26728e-06
1.69997e-06
2.12552e-06
1.81978e-06
2.17363e-06
0.0280663
0.000172125
1.93009e-06
2.64908e-06
0.0172618
2.42678e-06
0.0550408
2.0153e-06
2.30146e-06
2.4637e-06
2.21452e-06
2.56722e-06
3.10159e-06
2.43565e-06
3.26277e-06
2.75928e-06
3.78711e-05
1.97503e-06
0.0318428
0.000356643
8.39068e-06
1.501e-05
1.93075e-06
0.0328736
5.42493e-06
3.90237e-06
2.1355e-06
2.44954e-06
0.058461
2.40573e-06
3.12364e-06
0.00104884
0.0579404
3.83305e-06
2.06017e-06
0.00907071
0.0007975
0.0054031
2.16492e-06
2.33131e-06
1.77973e-06
2.45978e-06
2.69982e-06
0.0145779
7.17969e-06
3.76403e-06
1.00678e-05
3.8855e-05
1.89743e-06
0.0269211
0.0393264
7.22477e-06
2.01378e-06
0.00887196
2.50176e-06
3.00967e-06
0.00916686
2.26542e-06
1.95204e-06
2.58384e-06
1.79471e-06
1.82577e-06
0.0108537
0.0843064
1.88915e-06
0.0106569
1.84161e-06
2.79558e-06
8.17896e-06
2.74165e-06
0.00469155
1.80769e-06
3.11859e-06
2.24089e-06
2.05056e-06
0.0122764
0.00754772
1.31815e-05
0.0153695
0.0407965
2.37328e-06
2.56707e-06
1.98652e-06
3.89291e-05
1.7874e-06
1.93219e-06
2.30546e-06
0.00217994
8.8645e-05
1.78371e-06
2.31105e-06
2.02554e-06
4.52455e-06
0.0491077
1.72047e-06
1.74828e-06
1.75367e-06
0.0021176
1.75367e-06
0.015682
2.26482e-06
3.6037e-06
1.94008e-06
2.54726e-06
2.18187e-06
6.99145e-06
0.0076819
0.00993907
2.39924e-06
3.12583e-06
0.015657
1.81564e-06
0.00266501
0.0133818
2.40411e-06
0.0309376
0.00832041
0.0865942
2.0167e-06
1.90838e-06
0.0100392
1.94037e-06
2.40995e-06
4.80474e-06
3.48916e-05
2.08425e-06
0.0657998
2.7869e-06
0.00930589
0.00273081
2.02317e-06
2.32258e-06
2.6022e-06
4.18179e-05
1.94374e-06
3.51371e-06
1.80767e-06
2.42842e-06
1.78889e-06
0.00826413
3.59721e-06
0.00808471
0.00818259
2.76796e-06
1.89811e-06
1.82564e-06
3.24188e-06
0.00698804
0.0158974
0.0325599
0.00625961
3.05963e-06
2.15202e-06
2.0861e-06
2.52342e-06
1.22013e-05
1.94153e-06
4.0732e-06
2.186e-06
2.36471e-06
0.00734413
1.998e-06
0.0120085
2.4411e-06
2.15514e-06
3.61921e-06
3.01191e-06
2.58749e-06
2.66725e-06
0.018612
0.0122087
0.2083
0.0308315
0.00993011
0.0103692
0.0109423
2.7085e-06
2.90987e-06
1.89307e-06
1.50674e-05
1.89297e-06
2.59554e-06
0.043137
1.77123e-06
1.99118e-06
2.97072e-06
1.06363e-05
1.91766e-06
1.85642e-06
2.23118e-06
0.00638039
2.38135e-06
2.4284e-06
3.25039e-06
2.46789e-06
3.60863e-06
2.47994e-06
1.24584e-05
2.40765e-06
0.0124969
2.97876e-06
2.53337e-06
0.0148768
0.0135634
0.00870725
0.00480779
3.29481e-06
0.00553466
2.3275e-06
3.5198e-06
2.16081e-06
3.19613e-06
1.74453e-06
0.0426414
1.86846e-06
3.05213e-06
0.00722319
1.83764e-06
2.22243e-06
2.35627e-06
7.34945e-06
4.15452e-06
0.00636652
1.88494e-06
9.80497e-06
3.42374e-06
1.94819e-06
1.93786e-06
9.24101e-06
2.616e-06
0.000184068
0.0576472
7.97822e-06
0.014516
2.76121e-06
0.027506
0.000124359
3.07079e-06
0.00288286
2.52937e-06
2.94723e-06
2.56488e-06
1.68968e-06
2.80129e-06
2.92904e-06
2.21687e-06
2.38076e-06
2.34434e-06
2.054e-06
3.28515e-06
4.81085e-06
1.85128e-06
0.0362044
3.42738e-06
1.9874e-06
1.81654e-06
0.0122476
0.000528884
3.51942e-06
7.41692e-06
2.35164e-06
1.74619e-06
3.52678e-06
0.00419919
2.01833e-06
4.15785e-06
3.42095e-06
6.49881e-06
2.63559e-06
0.000119202
2.48275e-06
5.4079e-06
2.08363e-06
2.32411e-06
2.38806e-06
2.05768e-06
0.00427665
0.0622069
2.08037e-06
2.99089e-06
0.0466274
2.3694e-06
2.0415e-06
2.7564e-06
3.83409e-06
0.00414105
1.65835e-06
0.0473312
1.95196e-06
3.64233e-06
5.55004e-06
2.55861e-06
2.87233e-06
0.00628346
2.07299e-06
0.00470765
2.78234e-06
4.112e-06
3.08388e-06
3.90451e-06
4.01717e-06
1.79422e-06
1.95591e-06
2.36803e-06
3.97298e-06
2.54762e-06
2.32405e-06
2.08133e-06
3.15576e-06
3.85245e-06
3.0825e-06
0.0036776
1.85972e-06
2.3947e-06
2.49336e-05
2.35681e-06
2.9529e-06
0.012537
4.03536e-06
0.031122
1.86502e-06
0.0116628
1.03914e-05
3.58965e-06
0.00904354
2.75911e-06
0.0195926
1.96786e-06
8.63182e-06
2.09246e-06
2.04674e-06
2.3906e-06
2.40085e-06
1.93743e-06
2.4823e-06
2.6814e-06
2.60048e-06
2.14413e-06
0.0476158
0.0207887
0.0397543
1.74766e-06
3.32494e-06
0.0149351
0.129642
3.64105e-06
1.84779e-06
0.0205351
1.93954e-06
2.20666e-06
0.00476495
0.00980939
1.80375e-06
1.94665e-06
2.24516e-06
4.38469e-05
4.22169e-06
2.47984e-06
0.00170959
2.50277e-06
2.10343e-06
0.034183
2.22884e-06
1.4078e-05
0.0147979
2.97991e-06
2.46653e-06
2.61422e-06
1.94261e-06
0.0330637
0.000607899
0.00970928
2.55015e-06
2.85483e-06
0.0176363
3.34796e-06
6.91352e-06
2.37834e-06
1.74901e-06
2.04572e-06
3.12915e-06
0.0272355
0.0379713
1.64423e-06
2.41709e-06
1.90791e-06
0.00530604
2.20813e-06
2.05888e-06
1.33854e-05
1.82776e-06
0.000133457
2.11716e-06
3.36134e-06
1.85148e-06
7.83005e-06
0.00699147
3.03959e-06
0.0012701
2.25131e-06
2.09199e-06
4.15699e-06
0.0467526
1.87223e-06
2.30387e-06
2.20887e-06
2.26952e-06
2.23754e-06
3.64106e-06
3.35385e-06
2.2645e-06
2.7827e-06
0.0496803
2.69202e-06
3.57435e-06
2.47706e-06
1.83975e-06
9.84668e-06
3.64349e-06
3.95451e-06
0.0106448
2.62836e-06
0.0101152
1.81283e-06
0.0175675
3.27141e-05
2.69316e-06
0.00148666
3.97621e-06
2.16456e-06
1.84572e-06
1.95631e-06
3.53181e-06
1.93771e-06
2.53784e-06
2.51829e-06
2.03862e-06
2.23633e-06
1.91095e-06
7.03401e-06
1.86366e-06
2.33232e-06
0.000426931
2.12977e-06
2.26637e-06
2.69505e-06
0.0073407
3.63283e-06
2.5594e-06
1.89204e-06
2.43111e-06
0.011334
6.76446e-06
1.84375e-06
0.00876567
9.36081e-05
0.0017217
3.13019e-06
4.38655e-05
2.5317e-06
0.000118383
1.92567e-06
2.3776e-06
0.00902361
0.00690822
3.14417e-05
0.00461316
3.40589e-06
0.0122065
2.5174e-06
2.56167e-06
2.24841e-06
0.00494459
0.019055
1.69289e-06
3.03745e-06
2.30944e-05
3.03363e-06
2.95935e-06
0.0388296
3.14181e-06
2.29899e-06
1.85684e-06
2.57863e-06
2.07644e-06
2.42691e-06
2.82587e-06
2.25073e-06
9.80771e-05
1.98502e-06
2.67914e-06
2.93443e-06
0.0169035
0.00697699
2.96489e-06
3.37027e-05
2.25313e-06
2.37072e-06
0.0104914
2.94933e-06
2.39029e-06
2.32781e-06
0.0183729
3.0122e-06
3.69495e-06
2.09979e-06
0.00517604
2.90553e-06
2.35972e-06
2.32068e-06
0.000374953
2.27197e-06
2.11013e-06
9.80486e-06
3.1723e-06
1.59532e-05
2.08321e-06
0.0131065
2.09782e-06
3.01515e-06
1.73917e-06
3.61898e-06
3.55182e-06
1.92789e-06
4.72003e-06
0.00790888
1.80358e-06
0.0118041
3.71512e-06
2.04923e-06
2.43676e-06
3.04378e-06
1.84538e-06
0.0237494
4.16172e-06
2.02425e-06
5.39856e-06
0.058096
0.000303184
1.76814e-06
2.40141e-06
2.35378e-06
3.21994e-06
2.68748e-06
3.29065e-06
0.00321743
3.75311e-06
9.2151e-05
3.62814e-06
2.09697e-06
1.85764e-06
2.02669e-06
3.63974e-06
3.04103e-05
3.51174e-06
2.65351e-06
2.21575e-06
0.0101057
3.73755e-06
1.73477e-06
1.92717e-06
3.41867e-06
3.26057e-06
0.259799
1.81152e-06
0.00621854
0.00475285
0.127564
1.87728e-06
2.33141e-06
2.16094e-06
2.56191e-06
1.93195e-06
1.79977e-06
1.11551e-05
3.9954e-06
2.15928e-06
3.10844e-06
1.77302e-06
1.79291e-06
1.96388e-06
0.0346621
3.0295e-06
0.00495965
3.25155e-06
5.375e-06
2.07501e-06
3.72837e-06
4.40409e-06
2.6575e-06
0.0112484
2.40363e-06
3.90034e-06
1.94874e-06
2.07155e-06
2.3375e-06
1.98478e-06
0.0078007
2.17048e-06
2.09469e-06
1.23399e-05
0.0107145
2.23876e-06
0.000161728
0.000360057
2.66396e-06
1.94481e-06
1.94235e-06
8.37665e-06
2.48814e-06
0.0237086
2.06446e-06
0.102207
2.35342e-06
8.50464e-06
0.0551753
2.19206e-06
0.00453161
2.16705e-06
1.9746e-06
2.23811e-06
0.0391904
2.10967e-06
3.51582e-06
2.63357e-06
4.91261e-06
2.11003e-06
2.99956e-06
3.51363e-06
0.0374897
4.04764e-06
2.23454e-06
0.0141793
2.26563e-06
2.66111e-06
2.82624e-06
2.15337e-06
0.00842894
1.986e-06
2.78156e-06
2.47482e-06
2.37679e-06
1.97719e-06
1.96685e-06
2.24077e-06
0.0133003
2.64231e-06
3.31408e-06
0.00822165
1.74628e-06
0.049172
1.66349e-06
0.0504753
2.21272e-06
2.27935e-06
2.34214e-06
0.00680935
0.0141677
2.27387e-06
4.87784e-06
2.3783e-06
2.41589e-06
3.38223e-06
0.00791844
3.49337e-06
2.54018e-06
1.88862e-06
1.84183e-06
3.72367e-06
0.0118422
2.39763e-06
1.93406e-06
2.24631e-06
0.000386145
0.00239187
2.0694e-06
2.56643e-06
0.0316003
2.31265e-06
0.00585355
0.00417424
1.80722e-05
2.42143e-06
2.01151e-06
3.18039e-06
0.00137823
1.69664e-06
1.81265e-06
2.3527e-06
2.32056e-06
0.00646444
0.121039
2.36942e-06
5.30821e-06
2.55396e-05
2.21255e-06
0.0114532
1.92554e-06
2.07924e-06
3.69469e-06
0.0347131
9.58447e-06
6.58272e-06
0.000626101
2.32166e-06
0.0436566
0.00780369
0.0544157
3.79019e-06
0.0251184
0.0881773
0.00287046
0.0512876
0.0103328
2.60122e-06
2.06147e-06
6.7426e-06
2.37727e-06
2.42894e-06
0.00128206
2.93101e-06
1.88214e-06
0.0118954
3.71351e-06
2.26354e-06
2.00096e-06
2.33945e-06
0.000420338
2.4923e-06
0.0577139
1.9064e-06
2.3766e-06
0.00313255
0.0250448
4.60174e-06
2.54948e-06
2.37071e-06
2.64437e-06
3.38287e-06
2.39843e-06
2.24348e-06
4.13713e-06
5.57194e-06
2.52854e-06
7.64683e-06
2.23158e-06
2.64044e-06
0.00728535
0.000176273
2.44057e-06
7.53995e-06
0.0348229
2.51932e-06
2.25494e-06
0.064628
3.063e-05
2.08017e-06
1.97168e-06
3.27781e-06
3.672e-06
1.78968e-06
0.00809584
3.56499e-06
2.45432e-06
3.89343e-06
5.41797e-06
2.22098e-06
0.000151448
0.0200693
2.35478e-06
3.02301e-06
2.12283e-06
3.75239e-06
1.99296e-06
2.23541e-06
2.0292e-06
2.35541e-06
2.566e-06
2.24687e-06
2.6073e-06
1.95278e-06
0.00119244
4.10471e-06
0.0140845
0.0310074
2.07415e-06
6.59995e-05
6.8656e-06
3.91215e-06
2.38096e-06
2.90444e-06
1.92227e-06
6.77769e-06
1.92159e-06
2.11326e-06
3.83218e-06
0.0244906
1.70591e-06
0.00484131
2.39668e-06
2.89265e-06
2.99117e-06
3.58483e-06
2.64437e-06
2.13096e-06
2.14849e-06
0.0139506
2.61214e-06
5.05151e-05
0.00314288
0.0125544
2.3102e-06
5.73003e-06
0.00448042
0.0031495
0.000718945
2.51479e-06
2.26329e-06
8.45263e-06
0.000538812
0.00335242
2.01196e-06
3.60712e-05
3.94512e-06
2.00922e-06
2.46007e-06
3.75581e-06
2.66947e-06
7.08107e-06
4.11421e-06
8.9439e-06
2.18975e-06
0.0221575
0.013966
0.0068868
0.00710758
0.0123734
2.64287e-06
3.51219e-06
0.0213503
2.0659e-06
2.07985e-06
2.04174e-06
6.55623e-06
0.0159287
0.0240419
2.34017e-06
1.76537e-06
2.15527e-06
2.41722e-06
0.0102098
3.08691e-06
0.00436976
0.0226762
3.72366e-06
3.66804e-06
0.00842647
2.44125e-06
1.73355e-06
3.02203e-06
0.0161735
0.0158321
1.96737e-06
7.65141e-06
4.05234e-06
0.0123115
0.0275688
1.66477e-06
0.154066
0.0429261
0.0103376
2.19402e-06
1.70665e-06
4.0052e-06
4.23261e-06
0.0138894
2.44251e-06
2.34189e-05
4.8967e-05
0.0232373
2.01658e-06
2.671e-06
8.27437e-05
2.24391e-06
0.0197635
0.0495496
1.93764e-06
1.87196e-06
1.88696e-06
4.4871e-06
0.0100744
1.76876e-06
0.00790479
2.28194e-06
1.94491e-06
2.38316e-06
2.77099e-06
1.84215e-05
2.1926e-06
0.100213
3.75817e-06
2.54217e-06
2.03285e-06
3.80837e-06
1.88558e-06
0.0129248
0.00231101
3.18454e-05
2.79025e-06
2.54183e-06
2.22936e-06
2.7449e-06
4.939e-05
0.0114101
0.026846
3.54895e-06
0.00493472
8.64808e-06
0.0346821
1.6921e-06
2.22732e-06
2.12088e-06
2.05742e-06
0.0125043
3.18242e-06
1.94765e-06
0.00602612
0.020437
0.00184622
0.0162795
2.23016e-06
2.11324e-06
1.95277e-06
0.0227676
2.22668e-06
0.0033246
1.92208e-06
0.00978412
1.67578e-06
2.90815e-06
1.94741e-06
2.40364e-06
2.36518e-06
2.42452e-06
0.00794003
1.90428e-06
2.44436e-06
2.22202e-06
0.00706547
0.00111794
2.77777e-06
0.0541651
2.15625e-06
1.84389e-06
1.79672e-06
2.06189e-06
2.60908e-06
2.87488e-06
0.00719325
4.83566e-06
1.73037e-06
2.93771e-06
4.03179e-05
2.07196e-06
1.91939e-06
0.00925066
0.000664046
1.06627e-05
1.63667e-06
0.00031576
3.49783e-06
7.12238e-06
1.80919e-06
7.00316e-06
0.00107369
0.00829275
2.56261e-06
0.0159301
2.55274e-06
2.26402e-06
2.30013e-06
0.0118048
6.78638e-06
3.64777e-06
4.72931e-06
3.99635e-06
0.00519105
3.4017e-06
4.30975e-05
2.06966e-05
0.0297493
0.00782129
0.00421815
0.0275512
2.27007e-06
2.40751e-06
3.29313e-06
2.05007e-06
1.79866e-06
6.12414e-06
2.23502e-06
2.41621e-06
0.0448041
2.596e-06
2.47849e-06
1.87589e-06
4.89277e-06
1.90024e-06
2.18504e-06
0.0244831
2.00898e-06
1.92547e-06
2.38764e-06
0.0382526
2.33709e-06
0.0180382
3.57847e-06
1.99839e-06
2.56057e-06
3.26036e-06
0.0545351
7.02774e-05
2.72893e-06
2.43369e-06
2.65961e-06
0.0102241
0.0642591
0.00746789
1.9617e-06
2.77189e-06
0.000195254
1.96912e-06
2.95976e-06
2.2555e-06
0.0155739
1.0073e-05
2.23461e-06
1.70799e-06
1.82097e-06
0.00975663
4.02609e-06
1.11192e-05
1.73004e-06
1.96198e-06
1.7543e-06
7.27037e-06
2.5599e-06
2.7916e-06
0.00758145
0.0491839
0.0163907
0.00774152
0.081639
0.0474403
0.022381
2.44236e-06
1.82321e-06
0.0142358
0.0184069
0.00262802
2.43897e-06
2.02264e-06
2.87234e-06
2.62913e-06
0.00371505
0.021062
2.30093e-06
2.90742e-06
6.56431e-05
2.99533e-06
2.1909e-06
0.0102292
0.000967047
4.08316e-05
2.67432e-06
0.0130885
0.00265579
3.90674e-05
1.8086e-06
2.0679e-06
2.6343e-06
2.47744e-06
2.11794e-06
2.18699e-06
2.16639e-06
1.91411e-06
1.89317e-06
2.24259e-06
1.2896e-05
0.00856219
2.35531e-06
1.91712e-06
0.0127393
9.33299e-06
3.35606e-06
0.000272565
0.00435764
0.0074208
2.17172e-06
2.0518e-06
1.94651e-06
2.10622e-06
2.32119e-06
2.05337e-06
2.51128e-06
1.84924e-06
1.96427e-06
1.96734e-05
3.93824e-06
2.12438e-06
0.00806219
0.0084406
0.0259984
7.80028e-05
3.35006e-06
1.67746e-06
2.9361e-06
1.99085e-06
1.96676e-06
0.0345067
2.89632e-06
4.15989e-06
2.05891e-06
0.00749624
0.0904287
2.47928e-06
2.23269e-06
2.14477e-06
2.40304e-06
2.01633e-06
2.58547e-06
1.98526e-06
2.15806e-06
0.0673596
1.88653e-06
0.0160767
2.20945e-06
0.0279247
2.05397e-06
2.74171e-06
2.29953e-06
2.97874e-06
4.78173e-06
2.38397e-06
2.53067e-06
2.04068e-06
2.53018e-06
0.0067349
0.156182
0.00708087
4.15951e-06
0.000296045
2.26913e-06
2.24536e-06
2.94887e-06
2.74185e-06
2.22793e-06
0.00607188
0.0189519
2.30889e-06
3.20395e-06
0.00826089
2.37372e-06
0.00933814
0.016591
1.27397e-05
2.20772e-06
4.37051e-06
0.00844964
0.000245616
0.0108441
2.50436e-06
2.14857e-06
2.22362e-06
1.91022e-06
0.0404816
2.23956e-06
2.1007e-06
7.05783e-05
0.0318096
2.15746e-06
2.47114e-06
0.0415231
2.18713e-06
0.0570095
2.51865e-06
3.03147e-06
2.15503e-06
8.65523e-06
2.99111e-06
0.00446907
2.22585e-06
0.000190621
2.04009e-06
4.00212e-06
2.4366e-06
1.96258e-05
2.46218e-06
7.78846e-06
2.80703e-06
2.20945e-06
1.83222e-05
1.81696e-06
2.07968e-06
3.05912e-06
2.1886e-06
0.000151184
1.91679e-06
2.10666e-06
2.33667e-06
2.47541e-06
2.50806e-06
8.20638e-06
2.0016e-06
2.08184e-06
5.67641e-06
1.71065e-06
4.83949e-06
3.05648e-06
1.91553e-06
2.32733e-06
0.11322
0.00611477
1.95217e-06
0.00616529
0.00890128
2.56033e-06
2.47e-06
0.00263779
0.0107887
2.38518e-06
0.00832952
3.06269e-05
1.78029e-06
2.61848e-06
1.80264e-06
1.91589e-06
2.44264e-06
0.0121187
0.000375195
2.32032e-05
6.42256e-05
0.00753429
0.0129989
1.74061e-06
0.00977396
2.92765e-06
0.00279065
0.0136109
3.30904e-06
3.2661e-06
0.0063501
2.66303e-06
3.24023e-06
3.4796e-05
0.0108735
9.03585e-06
1.79667e-06
0.0129392
3.33256e-06
0.00848143
0.0089651
3.73587e-06
0.000220073
0.00367992
0.0194021
0.00712874
0.00871118
0.00665473
2.49066e-06
2.41726e-06
2.40928e-06
2.3061e-06
3.21472e-06
8.96613e-06
3.0064e-06
0.00848306
2.53347e-05
3.30686e-06
1.61136e-05
0.00829509
2.268e-05
1.1377e-05
4.63129e-06
0.0342069
9.77134e-05
1.82577e-06
1.89072e-06
0.0034122
2.37687e-06
2.07709e-06
0.0474305
2.64558e-06
0.00387448
2.64482e-06
0.0177967
1.79692e-06
2.71779e-06
0.117698
2.37467e-06
2.5047e-06
0.0063336
0.0158165
0.00835809
1.78511e-06
1.8694e-06
2.352e-06
1.86079e-06
4.02096e-06
1.89964e-06
3.82054e-06
0.0142483
2.33242e-06
2.23873e-06
0.00719021
2.04881e-06
2.4496e-06
1.23173e-05
2.65748e-06
1.93433e-06
2.70147e-06
8.86714e-06
2.28646e-06
3.93618e-06
0.000285573
0.0129905
2.50394e-06
2.14158e-06
0.071431
1.85567e-06
2.6279e-06
1.77749e-06
2.14982e-06
0.0166132
2.29393e-06
2.4107e-06
0.0554805
2.54934e-06
0.00808871
3.43254e-06
1.94678e-06
3.84741e-06
0.00755769
2.20507e-06
0.000211366
0.000613894
1.82558e-06
2.03212e-06
2.41341e-05
2.19712e-06
0.0408668
2.37187e-06
0.054151
4.65941e-06
1.80115e-06
1.98085e-06
5.86915e-06
2.17765e-06
6.1689e-06
2.27527e-06
2.49389e-06
2.04756e-06
1.77629e-06
0.00470735
2.65945e-06
2.03102e-06
1.80721e-06
3.28998e-06
2.00585e-06
2.23903e-06
0.0104306
2.45059e-06
9.52081e-06
1.71567e-06
2.6242e-06
3.71759e-06
3.80945e-06
1.7494e-06
2.69653e-06
2.65658e-06
0.0161591
2.20292e-06
2.07016e-06
1.79608e-06
2.20043e-06
0.000123385
2.52083e-06
0.00720929
0.0072334
0.0473762
4.70485e-06
2.20323e-06
1.78479e-06
3.66739e-06
2.34442e-06
9.86565e-06
2.25848e-06
0.0162709
2.16933e-06
0.063
4.88329e-06
3.83258e-06
2.43142e-06
0.00618269
2.48088e-06
1.90899e-06
5.22253e-06
2.50426e-05
1.7957e-06
0.0146964
3.65035e-06
2.12406e-06
2.86771e-06
2.40012e-06
2.63555e-05
3.17772e-06
2.16822e-06
1.80663e-06
2.5714e-06
2.0447e-06
2.1135e-06
0.000385699
6.27581e-05
1.9773e-05
4.1791e-06
1.68905e-06
2.11558e-06
2.08214e-06
0.00734001
0.0194741
0.00877103
1.8527e-06
0.00253569
3.09665e-06
1.94478e-06
2.88725e-06
2.10829e-06
3.51129e-06
1.78307e-06
0.0450448
2.66474e-06
2.0198e-06
0.000131621
0.00386256
1.93716e-06
0.00197191
2.6585e-06
0.00937373
2.24023e-06
0.0274496
2.40324e-06
2.46128e-06
0.00867774
4.54948e-06
2.71736e-06
4.02126e-06
4.05069e-06
8.93457e-06
2.06488e-06
4.04174e-06
0.0419284
2.48472e-06
0.0105133
2.63128e-06
0.0750203
2.61258e-06
2.00846e-06
2.21521e-06
2.28267e-06
3.51546e-06
3.57331e-06
0.00812044
0.00593588
2.19295e-06
2.221e-06
6.30981e-06
2.21895e-06
2.27748e-06
1.8786e-06
0.00117158
1.84856e-06
0.0196756
0.0104005
7.0539e-06
3.85327e-06
6.74903e-06
1.32268e-05
5.02601e-06
1.69342e-06
0.0152091
2.55896e-06
1.6926e-06
2.5757e-06
0.00212801
2.07251e-06
2.64833e-06
0.00861322
2.71419e-06
6.54538e-06
9.20828e-06
1.80837e-06
0.0120276
1.71769e-06
0.0181168
2.15218e-06
0.00070636
2.13675e-06
5.96022e-06
0.184753
2.36894e-06
2.62273e-06
1.75749e-06
0.0080182
1.78483e-06
6.83385e-06
1.95052e-06
2.09892e-06
7.81207e-06
2.25123e-06
1.74002e-06
0.0630855
2.06373e-06
1.74705e-06
4.64148e-06
2.6304e-06
2.3021e-06
3.73026e-06
1.74183e-06
2.57994e-06
2.25962e-06
0.0118441
0.2369
1.0575e-05
0.0540117
2.10757e-06
1.75826e-06
0.0330655
0.0653851
2.48918e-06
0.0314282
0.00757361
0.00793542
0.00169898
2.06214e-06
0.00747816
0.00938568
0.180033
0.0016125
0.0200684
2.83711e-06
6.75892e-06
2.33057e-06
1.74852e-06
2.85674e-06
0.00572272
4.2251e-06
0.0822568
1.3227e-05
5.65279e-05
1.86449e-06
2.43729e-06
3.01685e-06
2.41866e-06
4.27341e-06
3.41283e-06
1.4027e-05
1.79733e-06
1.82658e-06
1.84974e-06
0.0395982
1.91185e-06
7.9607e-06
2.39257e-06
1.51512e-05
7.00678e-06
2.56469e-06
2.22625e-06
2.71164e-06
0.0174264
0.0122003
5.61793e-06
0.0148251
2.28437e-06
2.88615e-06
3.45189e-06
1.88861e-06
2.85372e-06
2.16327e-06
3.94419e-06
0.0109019
2.13267e-06
1.88037e-06
0.00164786
2.21301e-06
1.90133e-06
2.8351e-06
0.0432945
8.59763e-06
0.185406
0.00973017