/*--------------------------------*- C++ -*----------------------------------*\
| =========                 |                                                 |
| \\      /  F ield         | OpenFOAM: The Open Source CFD Toolbox           |
|  \\    /   O peration     | Version:  v2012                                 |
|   \\  /    A nd           | Website:  www.openfoam.com                      |
|    \\/     M anipulation  |                                                 |
\*---------------------------------------------------------------------------*/
FoamFile
{
    version     2.0;
    format      ascii;
    class       surfaceScalarField;
    location    "200";
    object      phi;
}
// * * * * * * * * * * * * * * * * * * * * * * * * * * * * * * * * * * * * * //

dimensions      [0 3 -1 0 0 0 0];
oriented        oriented;


internalField   nonuniform List<scalar> 
20580
(
-0.124713
0.00560345
0.11911
0.124649
-0.245244
0.120594
0.255125
-0.130476
0.00407265
-0.000185502
-0.00388715
0.583844
-0.619754
0.0359094
0.258595
-0.183433
-0.0751626
-0.296367
0.0446134
0.575418
-0.578236
0.00281816
-0.0320624
0.0287535
0.0033089
0.423383
-0.246459
-0.176924
0.141314
0.00576541
-0.147079
-0.518696
0.312626
0.206069
-0.207684
0.2856
-0.0779163
0.0253676
-0.0110998
-0.0142678
0.186909
-0.0351675
-0.151742
-0.111554
0.0996167
0.0119373
5.21027e-05
0.00141327
-0.00146537
-0.170498
0.354608
-0.18411
0.092983
-0.101725
0.0087418
-0.113818
-0.010895
0.0592365
-0.187068
0.127832
0.234027
-0.199327
-0.0347
0.0267924
-0.0584729
0.0316804
-0.584788
0.591839
-0.00705102
0.0781634
-0.0959466
0.0177832
0.00174205
0.112787
-0.114529
-0.0127691
-0.0672007
0.0799698
-0.0894634
0.0754813
0.0139821
-0.00912933
0.0406374
-0.0315081
0.483551
-0.323218
-0.160334
-0.0177718
0.00682623
0.0109456
-0.223466
-0.0729008
-0.112961
0.123115
-0.0101543
0.0483956
-0.0410452
-0.00735039
-0.153736
0.145472
0.00826443
-0.0309583
-0.00753811
0.0384964
-0.6152
0.0304118
0.000621092
-0.0684396
0.0678185
-0.0155265
0.0270756
-0.0115491
-0.129083
-0.162238
0.291321
-0.0263552
-0.00567722
0.0320324
-0.0422328
0.0331035
0.0086058
-0.0086058
0.0935138
0.00478095
-0.0982948
0.0385232
-0.0472639
0.00874075
0.449914
-0.277269
-0.172645
-0.535031
-0.0694297
-0.126784
0.0447797
0.0820046
-0.04853
-0.211875
0.260405
-0.299343
0.0916591
-0.0114638
0.0111445
0.00031927
0.145156
-0.285196
0.14004
-0.100771
-0.0107832
-0.0459994
-0.12631
0.172309
0.0234643
-0.00120849
-0.0222558
0.103833
-0.232915
0.00573815
-0.118699
-0.034129
0.00777379
-0.018648
0.0877056
-0.0690576
-0.0123869
0.0185566
-0.00616965
-0.354578
-0.164118
0.073523
-0.0862921
-0.218014
-0.197096
0.415111
-0.192539
0.144009
-0.0413004
0.0951793
-0.0538789
-0.0853619
0.0440615
-0.0157769
0.00339003
-0.0976784
0.0673385
0.353652
-0.247279
-0.106374
-0.00289682
0.000893356
0.00200346
-0.0105648
0.00186087
0.00870389
0.161857
-0.179409
0.0175528
-0.0332498
-0.221503
0.254753
0.0177093
0.000847299
0.176088
-0.0159823
-0.160105
0.221715
-0.213727
-0.00798813
0.000457826
-0.000405723
0.342022
-0.525267
0.183246
0.0948087
-0.0166453
0.44909
-0.216712
-0.232378
0.244305
0.109347
-0.102951
0.111778
-0.00882798
-0.025946
-0.12779
-0.0180939
0.0230273
-0.00493346
0.0186636
-0.000954344
-0.00650135
0.013025
-0.00652368
0.0683842
0.165643
0.0299599
-0.00516547
-0.0247944
0.230394
0.146427
-0.376822
-0.0135368
-0.00423502
0.268429
-0.123273
-0.30112
0.0776536
-0.00549573
0.00549573
-0.0105164
0.004015
0.0152638
-0.0232278
0.00796393
0.033866
0.0674078
-0.101274
0.146506
-0.351366
0.20486
-0.0905946
0.105157
-0.0145627
-0.0139019
0.014395
-0.000493152
0.00900128
0.0988722
-0.107873
-0.108614
0.0180198
0.126337
-0.0483599
-0.0779776
0.0852575
-0.123756
0.0384988
-0.168637
-0.0805199
0.249157
-0.468383
0.131593
0.33679
0.128643
-0.16709
0.0384471
-0.164695
-0.303687
-0.0086234
-0.00194135
-0.0734616
-0.227658
-0.336156
0.165658
-0.0135787
0.15435
-0.140771
0.336138
0.113776
-0.097634
0.109678
-0.0120436
0.0180521
0.106532
-0.124585
-0.112791
0.108837
0.00395422
0.162718
-0.208717
0.168567
-0.397682
0.229115
0.465397
0.110021
-0.00167425
0.0057469
-0.00858394
0.00568712
0.0666812
-0.104538
0.0378565
0.158444
-0.416973
0.258529
-0.275912
0.287836
-0.0119243
0.0179454
0.000888119
-0.0188336
0.0821301
-0.107272
0.0251422
0.0286702
-0.0697457
0.0410755
0.341782
-0.195276
0.0603887
0.0891446
-0.149533
0.028192
0.00469201
-0.032884
0.145514
0.014684
-0.160198
-0.199921
0.000594331
-0.129162
0.183282
-0.0541199
-0.0759607
0.0765817
0.0333679
0.0150277
0.00196052
0.139353
-0.00801642
0.023679
-0.0156626
-0.0505056
0.0100046
0.00302045
-0.0126312
0.127734
-0.115103
-0.161976
0.026109
0.135867
-0.101378
-0.00157281
0.252665
-0.23103
-0.0216356
-0.0665762
0.296971
-0.0827905
0.00298929
0.0798012
-0.00347777
-0.0668107
0.0702885
-0.0401986
0.231666
-0.191467
0.513967
-0.171945
-0.00369013
0.0388807
-0.0313032
-0.00757757
-0.0602476
0.120636
-0.0534302
-0.0551842
-0.105515
0.00788103
-0.100467
0.118519
0.0965806
-0.0929355
-0.00364507
-0.216075
-0.0217155
0.23779
0.128923
0.189002
-0.317925
0.309896
0.21393
-0.523825
-0.0232419
0.00771538
-0.18239
0.0873291
0.0950605
-0.0481739
0.206687
-0.158513
-0.416263
-0.164232
0.580495
0.0417601
-0.0367252
-0.00503491
0.15503
-0.0263873
-0.0387602
-0.0880241
0.0126431
0.0127245
-0.0441374
0.00591895
0.0382184
-0.0350767
-0.00906065
-0.00964293
-0.00182089
0.153773
-0.167352
0.0657941
-0.056392
-0.00940215
0.535005
-0.326968
-0.208038
0.437625
-0.269058
0.151062
-0.137672
-0.0133893
0.549912
-0.110295
-0.439617
0.0229871
-0.00772328
-0.072917
-0.0158351
0.0887521
0.092598
-0.10296
0.0103621
0.255856
0.181769
0.180332
-0.164749
-0.015583
0.107368
-0.0147697
0.0968269
-0.0146968
0.12738
0.0116622
-0.175669
0.164007
0.178728
-0.0332139
-0.0044815
0.0044815
0.0135807
0.0253
0.0936871
0.0294278
-0.0740941
-0.0597303
0.133824
0.229647
0.00652121
-0.236168
-0.134756
-0.240293
0.375049
-0.0714128
0.067935
-0.129304
-0.0530852
-0.0156839
0.00458417
0.128728
0.129867
-0.22711
0.186912
-0.0975999
0.111781
-0.014181
0.115261
-0.0215736
0.200667
0.102612
-0.303279
0.127833
-0.311796
0.183963
-0.0116425
-0.0742976
0.0859402
0.110871
-0.105367
-0.00550403
0.010311
-0.0262872
0.0159761
0.0376365
-0.0282789
-0.00935761
0.0177017
0.169208
-0.0100749
-0.0500948
0.0601697
-0.00947576
0.0197868
0.195791
-0.213655
0.0178638
0.11543
-0.133109
0.017679
0.0341145
-0.00926219
-0.0248523
0.199078
-0.00858925
-0.190489
-0.0985884
0.105086
-0.00649772
-0.243794
-0.0321178
0.00949351
-0.646353
0.396494
0.249859
-0.134385
0.156058
-0.0216732
-0.21363
0.180407
0.0332232
-0.247293
-0.0520499
-0.00348669
0.0799884
-0.0765017
-0.173679
-0.13864
0.312319
-0.00188254
0.0259557
-0.201772
0.457627
0.11491
-0.106573
-0.00833644
-0.0209122
0.00281836
0.0254903
-0.0195222
-0.00596807
0.0353628
-0.141381
0.106018
0.138285
-0.0228552
0.66847
-0.366491
-0.30198
-0.0321469
-0.0506436
0.171905
-0.455366
0.283461
0.0110865
0.00833256
0.00959609
-0.0179287
0.0858085
-0.159903
-0.0361521
0.235231
-0.480666
0.22201
0.00655408
0.0310825
0.227485
0.256066
0.0829165
-0.056124
0.0329771
-0.0254612
-0.00751587
-0.105181
0.114183
0.143159
-0.559423
-0.0497474
0.0869598
-0.0372123
-0.0179848
0.021442
-0.00345719
-0.00708676
0.04561
0.00102828
0.17463
-0.174163
-0.000466836
0.0658507
-0.0641039
-0.00174689
0.0809359
-0.0844226
0.0256527
0.154679
0.103427
-0.0360191
0.155101
-0.155788
0.000687269
0.00336885
-0.0202769
0.016908
-0.10303
0.110527
-0.00749732
-0.309202
0.645281
-0.336079
0.0572832
0.152322
-0.209606
0.00755749
0.0415484
0.000211718
-0.0196507
-0.00609439
0.0257451
-0.347205
0.21245
0.0532797
0.186339
0.154622
-0.340961
0.094583
-0.093678
-0.000904993
0.103116
-0.0974911
-0.00562496
-0.0974036
0.154687
0.141784
0.0132462
-0.122822
0.019792
-0.0929874
0.301951
-0.208964
0.0554638
0.0708736
-0.126862
0.0373618
0.0895006
0.0943595
-0.077158
-0.0172015
0.458804
-0.190702
-0.268103
-0.294177
0.0468846
0.121171
-0.0333104
0.041115
-0.00780457
0.00945936
0.000522645
-0.00998201
0.148479
-0.0150671
-0.133412
0.386528
-0.228084
0.0904027
0.00642413
-0.0933224
0.0972366
-0.00391423
-0.093498
0.113768
-0.0202703
0.153565
-0.011781
-0.0387524
0.00544196
-0.0157176
0.0154896
0.000228006
0.144355
-0.1919
0.0475453
-0.0979292
-0.0604933
0.158422
-0.087004
0.0904045
-0.00340048
0.181937
0.167604
-0.34954
0.226746
0.295815
-0.522561
-0.108544
0.0150461
-0.0158188
0.136759
-0.12094
-0.458738
0.229683
0.229055
0.492126
0.13152
-0.623645
0.404909
-0.233004
-0.56384
0.570529
-0.00668846
-0.0162272
-0.151426
0.167653
0.536642
-0.0278185
-0.00424385
-0.0884216
0.147658
0.150366
-0.287561
0.137196
0.0105901
0.0216516
-0.00370617
0.0584088
0.214655
-0.273064
0.00109135
-0.0125633
0.000296399
0.0122669
0.0718366
0.180829
-0.18334
0.241748
-0.208389
0.119968
0.0179406
-0.018475
0.000534408
0.0293321
0.0108093
-0.0401413
0.153313
-0.0266605
-0.126653
0.461497
0.122347
0.0621211
0.00367306
0.180427
0.138577
-0.143701
0.00512481
-0.0113862
-0.00117716
0.086304
-0.0815322
-0.00477179
-0.251817
0.203643
-0.0933553
0.00635131
0.00343388
0.0804177
-0.0838516
-0.00708066
0.01373
-0.0066493
0.103942
-0.00285643
-0.101085
0.0451409
-0.113152
0.0680107
-0.0262241
0.0182077
0.0227506
-0.00186724
-0.0208834
-0.027678
-0.0617853
0.313527
-0.185694
-4.96151e-05
0.00147362
-0.00142401
-0.0215355
0.0215355
0.00359568
-0.0338587
0.030263
-0.0405123
0.044108
0.145835
0.0499565
0.154618
-0.0272032
-0.127415
0.0241394
-0.158915
0.134775
0.0129864
0.0169735
0.0536214
-0.114802
0.0611804
-0.215814
-0.300527
0.516341
-0.105616
-0.429415
-0.0514964
0.178545
-0.127049
0.00378605
-0.0108667
0.0294168
0.369456
-0.187519
0.00226253
0.053436
0.112948
-0.166383
-0.17673
0.0475683
-0.0467968
0.253484
0.018554
-0.000613366
0.0919762
-0.00157353
0.0110101
-0.0125315
-0.201099
0.180295
-0.216447
-0.0413268
0.036506
0.0048208
0.247312
-0.0176644
0.0032582
-0.0617711
0.206126
-0.121476
-0.086913
0.142201
-0.0887652
0.332766
0.289199
-0.138834
0.108095
-0.126103
0.0180082
-0.0133132
0.112185
-0.109445
0.113772
-0.00432759
-0.0725268
-0.031647
-0.00967974
0.190457
0.0412088
0.00469815
-0.101589
0.0917736
0.00981573
-0.192465
0.429538
-0.237073
0.0890346
-0.0027306
-0.0998399
0.120421
-0.0205813
-0.0120649
-0.00183703
0.164605
-0.216101
-0.133527
0.00436862
-0.0870634
0.0684154
-0.0845473
0.072977
0.0115702
0.110736
-0.115881
0.00514507
0.0285045
-0.0240549
-0.00444961
0.285508
-0.235308
-0.0502002
0.0162545
-0.0891715
0.000283074
0.00832273
0.0183361
-0.179589
0.161253
0.0197028
-0.0163339
-0.0288502
-0.148153
0.177004
-0.037278
0.0101323
0.0271457
0.0817485
-0.179678
-0.0285746
-0.129852
0.110464
-0.109585
-0.000878964
0.0485596
-0.0864221
0.0378625
0.307571
-0.178648
0.232401
-0.151095
-0.0813062
0.0934416
-0.10926
0.0113386
-0.294405
-0.0236974
0.318103
-0.00754639
0.156025
-0.0444737
-0.00280046
0.0472742
-0.209869
0.176619
-0.0755429
-0.0575657
-0.00900509
0.0107167
-0.00171162
0.10286
-0.251393
0.148533
-0.0348256
0.107103
-0.072277
-0.151225
0.148627
0.00259797
-0.0132822
0.0426143
0.186785
-0.195374
0.129616
-0.127874
-0.072103
0.062028
-0.00415621
0.157821
-0.151365
-0.00645593
-0.0308424
0.0111917
0.000678816
-0.0894733
0.0397258
-0.279354
0.186366
0.110597
-0.00250274
0.150036
-0.175593
0.0255571
-0.124297
-0.00922924
0.415686
-0.206557
-0.209128
-0.0069153
0.0069153
-0.00721193
0.0449878
-0.0377759
-0.0810874
0.0858285
-0.00474118
-0.0554
0.235695
-0.012358
0.080842
-0.078558
-0.00228406
0.00970615
-0.000246785
0.481861
-0.212542
-0.269319
-0.00419871
0.00414909
-0.0988032
0.101147
-0.00234349
-0.0224273
-0.0159934
0.0384207
0.165437
-0.0103362
-0.014138
-0.0718898
0.0860278
-0.0403112
-0.237913
0.278224
0.567746
-0.017834
0.000177
0.0232873
0.0848917
-0.00639128
-0.0785004
0.145649
0.277734
-0.204732
-0.0405118
-0.132879
0.0573362
-0.156781
0.459206
-0.302425
-0.0493817
0.0421698
0.0333575
0.121261
-0.118816
0.0189762
-0.218771
0.216138
0.00263271
0.0121441
0.273364
-0.331131
0.251592
0.0795383
-0.0714275
-0.0131197
-0.0778841
-0.209677
-0.0302402
-0.30089
0.0165526
-0.0675259
0.0509734
-0.0489067
0.00443301
-0.166746
-0.0331755
0.0164155
-0.0881689
0.0717534
0.21668
-0.434695
0.51521
-0.219394
0.269276
-0.166416
0.00108257
0.12626
-0.141913
0.0156529
-0.326657
0.0299458
0.296712
-0.312171
0.211307
0.100865
-0.0404516
0.107133
-0.119372
0.293468
-0.174096
-0.0579584
0.0434141
0.0145443
-0.171051
-0.378865
0.549916
-0.15214
-0.0559426
0.208082
-0.0246696
-0.0225943
0.00192211
-0.0951653
0.0932432
0.429138
-0.606271
0.177133
0.49827
-0.200101
-0.298169
-0.19398
-0.0247913
0.31708
-0.123079
-0.194001
0.0791312
-0.100308
0.0211771
-0.0649716
0.0580682
0.00690337
0.187221
-0.0125906
-0.0129931
-0.0373014
0.0502945
0.213876
0.266651
-0.485878
0.219227
-0.0222441
0.0318289
-0.00958482
-0.0706479
-0.160527
0.0857651
0.0747616
-0.300259
0.272805
0.0274535
0.0236387
-0.128174
0.115543
0.0739351
-0.0260481
-0.047887
-0.237537
0.0688998
-0.165116
0.00065598
0.16446
-0.0153672
-0.192002
0.168288
0.0237135
-0.0285725
0.0267053
0.0869821
-0.00614008
-0.0856569
0.00456951
-0.234571
0.0819507
0.15262
-0.00157355
-0.159035
-0.150207
0.309242
0.0039122
-0.135274
-0.0159505
0.0399263
0.0753344
0.17484
-0.024804
0.209184
-0.11293
0.114852
0.123858
-0.446098
-0.173655
-0.00894369
0.00796411
0.000979585
0.00680483
-0.0290489
-0.0184018
-0.0395566
-0.00746112
-0.000688884
0.00815001
-0.048419
-0.00564574
0.00766722
-0.00202149
-0.000254523
0.151685
-0.0287674
-0.122918
0.577225
-0.30536
-0.271865
0.0571148
-0.0919403
0.148127
-0.394585
-0.373741
0.0793361
0.0194278
-0.140413
0.120985
-0.0173131
0.0255888
-0.00827573
-0.0584734
-0.183656
0.24213
0.206139
-0.229586
0.0234469
-0.142693
0.0950833
0.0476101
-0.143432
0.0106421
0.13279
0.396641
-0.181611
-0.21503
-0.0400776
-0.0278315
0.0679091
0.459964
-0.286199
-0.173765
0.0342273
-0.0295566
-0.00467066
0.0908553
-0.0117242
0.166262
0.282828
-0.295973
0.20431
0.0916637
0.0984377
-0.0973618
-0.00107592
0.0128273
-0.231253
0.0693673
-0.0895743
0.020207
-0.0363345
0.0934493
-0.143427
0.355751
-0.212325
0.0222052
-0.0144391
-0.00776614
-0.0069883
0.0999713
0.101953
-0.100554
-0.00139872
-0.0481125
-0.186458
-0.0107587
-0.0567672
0.0169026
-0.0026328
-0.0142698
-0.33665
0.193223
-0.00787411
-0.0762479
0.084122
0.368209
-0.17675
-0.191459
0.108598
-0.0626104
0.0705377
-0.0079273
-0.0203961
-0.0168819
0.187683
-0.165521
-0.0221617
0.141112
-0.0148524
0.231351
-0.405884
0.174532
0.11915
-0.118232
-0.000918132
0.0332143
-0.00502231
-0.0171586
0.0230944
-0.00593579
-0.256142
0.394221
-0.13808
0.000930744
-0.00151718
0.000586434
-0.350355
0.12093
-0.0092685
0.161376
-0.158685
-0.00269047
0.334557
0.147304
-0.0743904
-0.139337
-0.0165643
0.0205123
-0.0039481
0.109263
-0.0607035
0.00564094
0.201838
-0.260311
-0.174725
0.329347
-0.0302939
0.0377311
-0.00743721
0.144956
0.406341
-0.551297
-0.106265
-0.00645353
0.112718
-0.177406
0.240649
-0.0632436
0.177838
-0.164198
-0.0136398
0.185095
-0.0349008
-0.150194
-0.0392664
0.0463958
-0.00712941
-0.0140736
-0.00164399
0.087898
-0.223766
0.135868
0.0053005
-0.00501743
0.0864575
0.1791
-0.265557
0.000398245
0.123488
-0.123886
-0.0327031
-0.00952969
0.0231718
-0.0243803
0.281549
-0.315735
0.0341861
0.142916
-0.00883908
0.0940966
0.0187661
0.00174628
0.00783749
-0.0856007
0.0777632
-0.0140037
0.133153
0.0922552
-0.0183201
0.183646
-0.0222704
-0.0726625
0.154411
-0.0229974
0.03133
0.0620467
-0.00876123
-0.0532854
-0.0656072
0.125906
-0.0602987
0.0299845
0.00424278
-0.0760576
0.0910135
-0.0149559
0.00522936
0.0348341
-0.0400634
0.30839
-0.207094
-0.101296
0.0796966
0.00800899
0.0720161
-0.0861541
0.516041
-0.245455
-0.270586
-0.00440405
-0.00109168
0.0526173
-0.0155922
-0.0370251
0.165435
0.0167516
0.309948
-0.133973
-0.175975
-0.0520719
0.0390788
-0.114427
0.123002
-0.0085748
-0.0441717
0.0672705
-0.0230989
-0.261741
0.183857
0.603232
-0.0569505
-0.546281
-0.0978118
0.131839
-0.0340268
-0.125763
-0.0176699
-0.503008
0.331957
0.00567405
0.503149
0.100082
-0.09474
0.0186825
0.22372
-0.216508
-0.00721207
0.00636365
-0.130661
-0.254652
0.174132
0.210345
0.186296
-0.127944
-0.00982591
0.13777
0.000186624
0.00074412
0.167244
-0.144047
-0.0231964
0.00415675
0.0181654
-0.286178
0.482312
-0.196133
-0.417667
0.0163005
0.401366
0.00407423
-0.141747
-0.14677
-0.165402
-0.0951127
0.119167
-0.0240546
-0.260809
0.173279
0.0875297
-0.116901
-0.0436253
0.0835448
-0.00384817
0.325059
-0.558004
0.232946
-0.0211843
0.0240786
-0.00289435
0.311039
0.357431
-0.107877
0.0952797
0.0125975
0.00529525
5.25526e-06
-0.033856
-0.00548301
0.039339
0.0182333
0.0208592
-0.0650309
-0.057774
-0.0849193
0.0996025
-0.109771
0.010168
0.0435067
0.00911066
0.227764
-0.376834
0.14907
-0.061912
0.0218344
0.137087
-0.148526
0.166862
0.00053049
-0.00799161
0.00616919
0.0765126
-0.0826818
-0.349624
0.157158
-0.11881
0.0236977
-0.105296
0.305963
-0.0323094
0.0375388
0.00948106
-0.00117183
-0.00830923
0.015802
0.191868
-0.20767
0.055696
-0.041186
-0.00685339
0.0480394
0.618627
-0.333201
-0.285426
0.384629
0.233998
0.127224
-0.0144368
-0.0237018
0.00251754
-0.0584966
0.0682117
-0.00971509
-0.219815
0.0364752
0.114547
-0.104987
-0.00956007
0.158554
-0.277926
0.319075
-0.382807
0.0637323
0.0677012
-0.0825978
0.0148966
0.00496208
0.131411
-0.0962486
-0.0351627
0.163508
0.311217
-0.474725
-0.0608906
-0.0659717
0.0965436
0.0371296
-0.133673
0.0203727
-0.133118
0.112745
-0.267604
0.0859247
0.181679
-0.195797
-0.031314
-0.124666
0.0102394
-0.179737
0.0819248
-0.123291
0.0845305
0.0134438
0.148413
-0.122433
-0.0569764
-0.122993
0.0573856
-0.0947495
0.0687014
-0.0288254
-0.0728994
0.0386235
-0.0525613
0.0139378
-0.016706
0.0860733
-0.0747042
0.021274
0.0206298
0.00151852
-0.0221483
-0.0305903
-0.0997174
0.130308
0.00779579
-0.0704062
-0.0046205
0.152634
0.187017
-0.339651
0.103886
-0.176548
-0.112333
0.0835072
-0.01682
0.183948
-0.167128
0.219768
-0.43648
-0.451524
0.245968
0.205556
0.111066
-0.101251
-0.00981508
0.00360999
0.0248945
-0.203025
0.0508856
-0.0309363
0.00547509
0.189102
-0.47528
0.0105337
-0.0690303
-0.0452462
0.103011
-0.0577652
-0.0126026
0.00121643
-0.0814873
-0.037323
-0.0179654
0.20475
0.100331
0.154794
-0.0025748
-0.0100278
0.0690253
0.062386
-0.146746
0.116156
0.0063337
-0.313635
0.325779
-0.0918598
0.0962318
-0.00437194
0.00318867
-0.0633652
-0.0313748
0.180749
-0.0284969
-0.152253
0.102333
-0.106719
0.00438662
-0.252002
0.211691
-0.335314
-0.0304688
-0.183186
0.340518
-0.0214432
0.0404375
-0.00920018
-0.0312373
-0.412194
-0.151646
0.0832157
-0.0155145
0.0108211
-0.11581
0.0343224
-0.0174856
0.0249994
-0.00751386
0.00577554
0.00861951
-0.0938983
0.0305331
-0.00644739
0.10605
0.169682
-0.151449
0.13667
-0.237385
-0.0567923
0.0240314
0.336608
-0.36064
-0.000856139
-0.41681
0.392855
0.141616
-0.125293
-0.0163229
-0.0233649
-0.081902
0.105267
0.106331
-0.00978745
-0.00714368
0.082625
-0.245017
0.0140749
0.230942
0.00629594
0.486999
0.110016
-0.00138096
0.00119545
0.0129601
-0.141943
0.128982
0.0436502
0.443349
0.232922
0.246541
-0.479463
-0.0309528
0.0398675
-0.00891468
0.0313769
-0.214809
0.0293478
0.0300056
-0.0593534
0.0447218
-0.00121516
0.113438
0.0924195
-0.120553
0.0281334
-0.233146
-0.146756
0.379902
-3.57573e-05
-0.0410094
0.000368097
0.160073
-0.160441
0.0573599
-0.241016
0.000946998
0.342789
0.18128
-0.524069
0.0237008
-0.254731
-0.153454
-0.183164
0.336619
-0.0152571
0.143016
-0.127759
-0.0203667
0.0213893
-0.00102258
0.0300085
-0.190882
0.160873
-0.16986
0.17143
-0.00156937
-0.112703
0.0139001
-0.0234842
0.00632559
-0.176548
0.116818
0.0116393
0.139616
-0.151255
0.0404239
-0.00596686
-0.034457
-0.35563
0.379661
0.0328858
-0.328621
-0.192486
0.521107
0.0464066
0.247062
-0.0756784
-0.0131859
0.0888643
-0.0765483
0.114762
-0.038214
-0.0130361
-0.0997553
0.110744
-0.00873696
-0.102007
0.0158784
-0.539445
0.314998
0.224447
0.377354
0.219661
0.114375
-0.113977
0.232369
0.0760218
-0.119197
-0.420248
0.197716
-0.219236
0.0215205
0.105733
0.00265608
-0.108389
-0.398808
0.434176
-0.0353683
0.0981337
-0.104006
0.00587247
0.0152428
-0.0612897
0.0476928
0.0135969
-0.0030116
0.113756
0.00512663
0.0126223
-0.0177489
-0.00286825
0.130602
0.479458
0.118641
-0.111036
-0.00760528
-0.516315
0.236893
0.279422
0.13665
0.0957508
-0.01443
0.0530535
0.0366298
-0.000123763
0.000134675
-0.0431293
0.0371625
-0.177118
0.301417
-0.124299
-0.192535
0.208337
0.123729
-0.0772162
-0.0465124
0.224989
-0.207868
-0.0171215
-0.187055
-0.1925
0.379555
-0.0196179
-0.0388549
0.0937045
0.000878483
0.000935553
0.0194491
-0.0203847
-0.0186658
-0.114584
0.0380355
-0.347735
0.305791
0.0419435
0.00768929
-0.330907
0.0957721
-0.0597046
-0.0360675
-0.0801582
-0.0386579
0.248245
0.490314
0.136325
-0.626639
0.0306095
0.0782276
0.100535
-0.00214416
-0.0983913
-0.020804
-0.254709
0.0386337
-0.628495
0.362427
0.266069
-0.022649
0.00228237
-0.254711
-0.0128922
-0.0169113
-0.155309
0.17222
0.358411
-0.515192
-0.0201517
0.0267886
-0.00663691
-0.477269
0.168067
-0.00446951
-0.000547917
-0.282963
-0.121494
0.404457
0.00349859
-0.10868
0.174765
-0.151574
-0.0231913
0.136224
-0.0762297
-0.0599938
0.0108891
-0.313959
0.0924553
-0.259194
0.149926
0.109269
0.597044
-0.346694
-0.25035
-0.0146692
-0.0673482
0.0820174
0.0741384
-0.242098
0.16796
-0.0311621
0.0250677
-0.0477642
0.252638
-0.204874
-0.0868343
0.026627
0.0602073
-0.00684749
-0.0270624
0.0339099
0.0178622
-0.172299
0.154436
-0.159245
0.411438
-0.252192
-0.000846858
-0.00608853
0.00693539
-0.0499933
-0.00914304
0.0591363
0.222236
-0.134338
0.0919156
0.0228466
0.0442545
-0.28164
-0.0276707
0.000863469
0.0268073
0.323734
-0.1711
-0.0586638
-0.0536688
0.473741
-0.224811
-0.24893
0.42679
0.170254
0.0630512
-0.0337034
0.0109317
0.288882
0.209388
-0.180036
0.0537267
-0.00756507
-0.0221606
0.0297257
-0.0546061
0.0707182
-0.0161121
-0.0518944
0.0107085
-0.130845
-0.21636
-0.00326311
0.0238929
0.1157
0.343105
-0.606158
0.20735
-0.230013
0.208297
-0.403598
0.297982
0.286645
-0.550526
0.263881
0.050458
-0.0116141
-0.0388439
0.0546235
-0.0118678
-0.0427557
-0.274445
0.100766
-0.434842
0.534925
0.14046
0.0472231
0.0692962
0.266841
-0.000893889
4.70308e-05
0.00276039
-0.0127493
-0.0181638
-0.00806028
-0.177157
-0.0820374
-0.0859289
0.24909
0.266951
-0.0269023
-0.160166
0.066336
-0.111582
-0.140798
0.368562
0.186222
-0.514843
-0.0951827
0.0947662
0.000416504
0.00367884
0.00580221
0.118644
-0.0262249
-0.00306823
0.149675
-0.0232665
-0.126408
-0.410058
0.212961
0.154348
-0.00966991
-0.144678
0.116002
-0.0240862
-0.00251441
0.00217019
0.000344221
0.152131
-0.168358
0.0637681
0.00460357
-0.0683717
-0.114154
0.0339955
0.0616814
0.430444
0.0357101
0.00695441
-0.0426645
-0.00562174
0.0413319
0.00236401
0.0217825
-0.0241465
-0.0652436
-0.0575043
0.0663001
-0.00879581
-0.0987797
0.18073
0.0624241
0.00342662
-0.0167263
0.0822484
-0.0655221
-0.191501
0.174681
-0.58245
0.366636
-0.0488232
0.0490885
-0.000265351
-0.235534
0.222026
0.0135071
-0.4759
0.316655
0.0344153
0.247133
-0.21726
-0.0182735
0.00543706
-0.0999238
0.224251
-0.381413
0.157161
0.00808612
0.146262
-0.0168143
-0.00409796
-0.122166
-0.118296
0.240462
-0.000122418
0.00460391
0.0796763
-0.222555
0.142879
0.000614089
0.10417
-0.104784
0.00811131
0.0212533
-0.0293647
-0.289078
0.0767879
-0.0689504
-0.218432
0.115046
0.103387
0.173807
-0.155944
-0.0714153
0.0168092
-0.02299
-0.0912991
-0.00713017
0.0984293
0.149988
0.0263686
-0.0339337
-0.15804
0.317943
-0.159903
0.00254131
-0.0260903
0.023549
-0.0210204
-0.158568
0.0224291
-0.00417772
-0.0182514
0.00536983
-0.0054739
0.000104074
0.0242162
-0.0216749
-0.00189101
0.128566
-0.126675
-0.144001
-0.156508
0.300508
0.120424
-0.297542
-0.324316
0.657688
-0.333371
-0.170413
0.419507
-0.109505
-0.310002
-0.0238805
-0.159896
-0.0157729
0.0235769
-0.156211
0.132634
-0.055333
-0.121215
0.117852
-0.216632
-0.366515
0.23567
0.00393432
-0.187885
0.183951
-0.172061
0.168671
0.00338988
-0.147233
-0.14874
-0.121597
0.189981
0.0313554
0.00892456
-0.04028
-0.0106959
-0.07013
0.0808259
0.023277
0.163934
-0.187211
-0.134094
-0.00855643
0.142651
-0.0418179
-0.0070053
0.22984
0.00907581
0.00465415
-0.557736
0.202107
0.143789
-0.00333567
-0.140453
-0.135683
0.209821
-0.190466
0.353565
-0.163099
0.115134
-0.13909
0.0239561
-0.157866
0.424518
-0.148185
0.372436
-0.062725
0.107866
-0.0930238
0.282026
0.100327
0.00540606
-0.297576
0.150806
0.00440405
-0.000862811
-0.00354124
-0.0802186
0.0888411
-0.00862253
0.00740334
-0.0894029
0.0819995
0.0746858
-0.0825599
0.13333
-0.325245
0.191914
0.00560887
-0.108259
0.103894
0.00436553
0.528014
0.0118875
-0.023111
-0.206475
-0.00671259
0.0157884
0.210809
-0.209619
-0.0011891
-0.0682925
0.0672632
0.0217713
-0.0101706
0.00116548
-0.122194
0.0933125
0.0288813
0.123845
0.188419
-0.312265
-0.0463532
-0.0162482
0.0835115
0.0130334
-0.105272
-0.11316
0.321635
0.160677
-0.257521
0.385043
-0.127521
0.061232
0.0920813
0.255174
-0.306206
0.0510318
-0.000245176
0.0171478
0.00433235
0.278648
0.298578
-0.0409875
-0.0606018
-0.0965701
0.0180561
0.078514
-0.302507
0.149053
-0.0105756
0.041931
-0.00270712
-0.00176239
0.100702
-0.0069977
-0.213087
0.165323
0.00824165
0.0381542
0.14569
-0.161076
0.477549
-0.316473
0.0194947
-0.0185592
-0.132306
0.143945
0.374495
-0.258807
-0.115688
0.424302
-0.180875
-0.243427
-0.185674
0.169692
-0.160663
0.13916
0.021503
0.0269077
-0.0361699
-0.00157163
-0.0119652
0.01725
0.133323
-0.150573
0.0376121
-0.00467236
-0.0329397
0.0642265
-0.210426
0.146199
0.164946
0.158854
-0.3238
-0.0895768
0.0420478
0.047529
-0.236693
-0.214831
-0.00182129
-0.0823577
0.084179
-0.39694
0.591639
-0.245737
-0.345902
0.131735
0.0781375
-0.209872
-0.0812664
0.0102516
-0.0347541
0.0245025
-0.0241628
-0.00350792
-0.0795163
0.0882741
-0.00875777
-0.00246372
0.0143
-0.0118363
-0.013778
0.0540878
-0.0403097
0.122433
0.0292521
-0.092191
-0.208068
-0.149176
-0.1484
0.0204794
0.1367
0.49785
0.0361586
-0.534009
0.144661
-0.131701
0.0191303
-0.0283022
-0.0541446
-0.113539
0.542676
-0.0993916
0.140631
-0.0412393
-0.00416342
-0.0970301
0.104225
-0.00719484
-0.00307837
-0.00552744
0.122606
-0.0990359
0.433593
-0.165359
0.0927707
-0.0835549
-0.00921582
0.0210253
0.176691
-0.00529267
-0.0275913
0.0291928
-0.300586
-0.327909
0.140541
0.233954
0.441237
-0.271972
-0.169265
0.220127
-0.0397197
0.0905642
-0.0905906
2.63731e-05
-0.00587047
0.0407045
0.00599033
-0.0369431
0.057225
0.112457
0.313967
-0.471833
0.00649729
0.0897345
0.226468
0.0906126
0.0129759
-0.0848657
-0.0177609
0.0151281
0.134529
-0.115101
-0.00142713
-9.00455e-05
0.00773438
0.0112988
-0.00617217
0.0149211
0.113183
-0.128104
-0.0225248
0.174656
-0.0253235
0.0220604
0.183374
-0.160097
0.074403
0.0927273
-0.16713
0.0878639
0.0358647
-0.0116368
0.333205
-0.143739
-0.189467
0.0500425
0.0206758
0.325789
-0.160843
-0.0422883
-0.0103031
0.0525913
0.0071138
-0.374023
-0.183713
0.175607
0.147209
-0.0320746
0.0974378
0.000999869
0.176415
-0.138164
-0.038251
-0.344154
0.551371
-0.207217
0.026135
-0.203541
-0.175287
0.214999
-0.0397121
-0.115103
-0.116115
0.231218
0.0211984
0.051427
-0.0726254
0.279342
-0.45859
0.179248
0.00667625
-0.0566696
0.0235875
-0.0212234
0.17946
0.146329
-0.176557
0.154032
-0.0251284
-0.135534
-0.487857
0.242401
0.0393299
-0.00270013
-0.0179256
0.0068356
0.026327
0.0044132
-0.0307402
0.209367
0.243467
-0.452834
0.0287913
-0.209171
0.18038
0.0208063
0.169739
-0.190545
-0.22184
-0.0246434
0.246483
-0.0949556
0.0149777
0.0799779
0.0249896
0.380798
-0.598516
0.217719
-0.0110613
0.110308
-0.0992469
-0.133103
-0.0466337
-0.0715528
0.0163101
0.0552427
0.147863
0.00173972
0.0395011
-0.214788
-0.219619
0.0512266
0.168393
0.0921201
0.112293
-0.0116937
-0.100599
0.111916
-0.232676
0.367662
-0.134986
0.0163701
-0.0234837
0.00506738
0.0184164
-0.0496113
0.0271839
0.001418
-0.00706373
-0.0522833
0.00999503
0.00253536
0.0177997
0.00462943
0.366412
-0.19297
-0.173441
-0.338154
0.163429
0.180855
0.116525
-0.297379
-0.011026
-0.0745747
-0.107731
-0.0341819
-0.110344
-0.00765186
0.00689525
0.000756612
-0.316061
0.158021
0.184996
0.33627
-0.521266
0.379478
-0.0110008
-0.0778841
0.30061
0.213357
0.131513
-0.20665
0.075136
0.100126
0.0903314
0.072423
-0.0549054
-0.0175176
-0.111986
0.216431
-0.104445
-0.334585
-0.181731
-0.448033
0.257332
-0.142388
0.329165
-0.186778
0.185834
-0.620676
0.12324
-0.115216
-0.00802408
-0.0802251
-0.0147305
-0.0477846
0.122188
-0.0573811
0.00814281
0.0492383
-0.200494
0.346608
-0.146114
0.155037
0.00365766
-0.0367093
0.0298618
-0.0246354
0.000580539
0.072194
-0.0056385
-0.0665555
0.0667243
0.0413424
-0.108067
0.057453
0.0340524
0.425154
-0.129865
0.111005
0.0188608
0.0229551
-0.242574
-0.425188
0.142225
-0.182557
0.195263
-0.0127056
-0.0012335
0.11059
-0.279589
0.168999
0.110063
0.00223031
-0.0698656
0.0680443
0.294819
-0.192206
-0.302736
0.11227
-0.160838
0.12669
0.034148
-0.00333412
0.366492
0.205984
-0.572476
0.0274629
0.0449601
-0.124069
0.304924
0.0768388
-0.0878648
0.463459
-0.230537
-0.0973367
-0.177108
0.0711413
-0.0680863
-0.0267898
0.0948761
0.0565649
0.229035
0.0126178
-0.0798184
-0.00655431
-0.00206909
-0.0896318
-0.0440944
0.0106555
0.0334389
-0.344626
0.106714
-0.00123678
-0.00127764
-0.0797241
0.0629979
-0.394223
0.300167
0.0940559
-0.000253356
-0.0833015
0.0254716
-0.107345
0.0795408
0.0278045
-0.223491
-0.192685
-0.112586
0.305271
0.430639
-0.441189
0.0105502
0.308786
0.253625
-0.0479715
-0.205653
-0.139269
0.143608
-0.00433934
-0.109699
-0.0121697
0.121869
-0.182481
0.306326
-0.215655
0.432335
-0.106195
0.0318973
-0.241175
0.418296
-0.177121
-0.0643727
0.0439191
0.0204537
-0.177376
0.0177325
-0.00037653
0.0170059
-0.0166294
0.0679809
-0.0956589
0.250287
-0.473871
0.223583
0.0101117
0.244741
-0.531687
0.286946
0.185885
-0.0231675
0.114863
-0.12499
0.0101275
0.0825069
-0.0103128
0.126475
-0.128366
0.336124
-0.593515
0.257391
0.110655
-0.0211547
-0.0900949
0.0373865
0.0527084
0.104078
-0.103464
0.0193814
-0.0960999
0.0767185
0.134468
-0.103322
-0.0311455
0.0989638
-0.122329
-0.0804257
-0.0378058
0.126605
-0.005718
-0.120887
0.0796257
-0.191612
0.223875
0.191811
0.0630182
3.298e-05
0.00462817
-0.0429874
0.212652
-0.169664
-0.425459
0.264384
-0.0052336
-0.00168169
0.29335
0.198699
-0.492049
0.151163
-0.013909
-0.137254