/*--------------------------------*- C++ -*----------------------------------*\
| =========                 |                                                 |
| \\      /  F ield         | OpenFOAM: The Open Source CFD Toolbox           |
|  \\    /   O peration     | Version:  v2012                                 |
|   \\  /    A nd           | Website:  www.openfoam.com                      |
|    \\/     M anipulation  |                                                 |
\*---------------------------------------------------------------------------*/
FoamFile
{
    version     2.0;
    format      ascii;
    class       volVectorField;
    location    "200";
    object      U;
}
// * * * * * * * * * * * * * * * * * * * * * * * * * * * * * * * * * * * * * //

dimensions      [0 1 -1 0 0 0 0];


internalField   nonuniform List<vector> 
13851
(
(1.09823 0.0132594 -5.46295e-21)
(1.05635 -0.0215795 0)
(1.05526 -0.020838 0)
(-0.0732128 0.0097925 0)
(1.00176 -0.000418407 3.26112e-22)
(1.06325 -0.0314327 -1.41136e-20)
(1.05002 0.00508256 -2.18637e-20)
(1.01192 -0.000752951 0)
(0.572513 0.0182876 -2.81331e-20)
(0.992609 -0.00669936 1.09755e-20)
(1.12278 -0.063468 0)
(1.00107 -0.00712353 2.1442e-21)
(0.983955 -0.016937 3.84502e-21)
(0.429626 0.00507884 2.0538e-20)
(1.07832 -0.00197701 1.45037e-20)
(1.08606 0.0241367 0)
(-0.0350421 0.00956999 0)
(1.02902 -0.0171603 1.0198e-22)
(1.12409 0.0129572 0)
(1.09858 0.0126208 1.50192e-20)
(1.08457 -0.0059319 1.52521e-20)
(1.03408 -0.0730997 4.97299e-21)
(0.904081 -0.307765 9.83401e-20)
(1.00006 -0.000180078 0)
(1.16424 0.00976633 1.79925e-20)
(1.07918 0.0200612 -2.47387e-20)
(1.09651 0.0226046 -2.01323e-20)
(1.09887 0.0235075 2.23867e-20)
(0.642401 0.018416 5.3809e-21)
(1.0173 -0.0107762 0)
(0.245894 0.0325266 -1.11213e-19)
(1.05004 0.00457688 7.00684e-21)
(1.09562 0.0142289 -2.42499e-21)
(0.653153 0.0288309 5.88776e-22)
(1.09946 -0.0587185 -7.5267e-21)
(0.660519 0.0190118 0)
(1.00004 -0.000160828 0)
(1.22982 -0.0491863 -9.05031e-21)
(0.431471 0.0430421 7.90936e-20)
(1.00572 -0.0321261 7.01705e-21)
(0.559415 0.029596 2.56924e-20)
(0.667122 0.0197125 -5.34284e-21)
(-0.150128 -0.0016701 0)
(1.18623 -0.412164 0)
(0.680895 0.0216443 0)
(1.01215 -0.0191971 -8.02968e-22)
(1.01793 -0.000252376 -2.66227e-21)
(1.08716 0.0214045 -5.81079e-23)
(1.03739 -0.0460223 -7.82001e-21)
(0.983655 -0.0161319 0)
(0.19525 0.00934384 -6.5789e-20)
(0.977789 -0.0113845 7.59169e-21)
(1.08597 0.0238653 0)
(1.06422 0.00974443 9.92363e-21)
(0.455913 0.00595093 -3.20071e-20)
(1.00487 -0.0323682 -6.44346e-21)
(1.09628 0.0144001 0)
(0.535869 0.0277178 -3.35623e-20)
(1.08963 0.0238076 0)
(0.363133 0.00579902 9.72339e-21)
(1.00098 -0.00673382 -6.05611e-21)
(1.096 0.0222118 3.35163e-20)
(0.99623 -0.00258368 0)
(1.03783 -0.0477345 -5.47041e-21)
(0.936217 -0.423059 -3.90527e-24)
(0.920728 -0.447312 4.69705e-24)
(0.341217 0.00324145 6.37558e-21)
(0.723406 -0.121091 7.97457e-20)
(1.01697 -0.0329041 -6.95417e-22)
(0.0406984 0.0183136 1.25417e-19)
(0.146766 0.0366684 -1.15502e-19)
(1.09003 -0.00433393 2.42835e-22)
(0.994977 -0.0225509 -4.39504e-21)
(0.357622 0.00475244 0)
(1.06827 0.00677001 1.12763e-20)
(1.01851 -0.0605185 0)
(-0.010845 0.0128283 -5.74781e-20)
(1.01836 -0.00595325 -1.61512e-21)
(1.17149 0.00797704 1.60974e-20)
(1.00412 -0.0151808 8.78777e-21)
(1.01797 -0.0333752 0)
(1.18426 -0.0288905 -6.67745e-20)
(1.09751 -0.0602538 0)
(0.424814 0.00585991 -3.32351e-20)
(0.373572 0.00681059 -4.88337e-21)
(0.210909 0.0351252 0)
(1.03675 -0.0737824 -5.4941e-21)
(0.505844 0.00456923 1.36439e-22)
(0.993192 -0.0101897 3.97403e-22)
(0.251485 0.0337349 0)
(0.976721 -0.0107352 3.921e-21)
(1.05095 0.004238 2.81191e-20)
(0.080019 0.00520738 8.98769e-20)
(0.146559 0.0331176 1.24435e-19)
(0.381723 0.0319659 5.66052e-20)
(1.1493 -0.374588 -8.86196e-20)
(1.00813 -0.0205103 5.40007e-21)
(1.08675 0.0227235 0)
(0.264668 0.00796677 3.47712e-21)
(1.18712 -0.113511 6.08025e-20)
(1.08718 0.0225531 0)
(0.835476 -0.109644 -3.30457e-20)
(0.837594 -0.140767 -1.7567e-20)
(0.991585 -0.0241051 0)
(1.01508 -0.0189621 0)
(1.09291 -0.0121252 1.1161e-20)
(1.01449 -0.0187507 -4.89441e-22)
(0.176544 0.0367989 1.23056e-19)
(1.05091 0.0036528 -1.54636e-20)
(1.02829 -0.0166911 1.72722e-21)
(1.02815 -0.105352 1.27044e-21)
(1.01278 -0.0195218 0)
(1.13546 -0.00795089 0)
(1.1133 -0.0306331 0)
(1.09232 0.0165976 1.08203e-20)
(1.06351 0.0090112 -2.44243e-20)
(1.0122 -0.00716153 2.99312e-22)
(1.0123 -0.000880838 8.43396e-22)
(-0.119698 0.0089553 -1.81639e-20)
(0.12116 0.0130723 4.16674e-20)
(1.15182 -0.287511 7.27111e-20)
(1.02376 -0.0141668 -3.94721e-22)
(1.01306 -0.0334792 -1.14932e-21)
(0.456052 0.0152003 4.37788e-21)
(1.11323 0.0138689 -6.80334e-23)
(0.648987 -0.205173 0)
(1.00855 -0.0202666 -6.8711e-21)
(1.11139 -0.105331 0)
(0.559133 0.0255369 2.78696e-20)
(1.08487 6.58642e-05 -2.56157e-21)
(1.0316 -0.0748744 -5.26033e-22)
(1.07605 -0.0493376 0)
(1.24411 -0.0553447 7.43431e-20)
(0.641069 0.0278027 2.18244e-20)
(1.12499 -0.060776 0)
(0.370366 0.0357631 2.40545e-20)
(0.735946 -0.112965 5.90476e-20)
(0.187638 0.0347574 1.64973e-20)
(0.869019 -0.0816409 2.22572e-20)
(1.08287 0.00206642 1.77124e-20)
(1.18317 -0.0317462 6.04109e-20)
(0.979553 -0.0379939 0)
(0.992609 -0.0102999 0)
(0.785384 -0.30149 -1.81731e-20)
(1.13983 0.0179983 2.21451e-21)
(1.0075 -0.0598067 0)
(1.0182 -0.00558759 3.88635e-22)
(0.159339 0.032815 -6.2951e-20)
(0.553137 0.0137289 -1.19724e-20)
(1.11586 -0.105934 0)
(1.08735 0.0222733 0)
(1.13567 -0.0095663 -4.50078e-21)
(1.11545 -0.0295346 -2.38785e-20)
(1.11898 0.0108978 -3.79476e-20)
(0.977023 -0.0197816 0)
(0.986325 -0.00780813 0)
(1.00108 -0.00565764 -5.62874e-21)
(0.388598 0.0400229 -7.84974e-20)
(1.08152 0.000433715 0)
(1.05091 -0.00286418 -9.75406e-21)
(1.00012 -0.000417889 6.38828e-21)
(0.649436 0.018256 0)
(1.0914 -0.0116929 0)
(1.08731 0.0211235 -2.79065e-20)
(0.432658 0.00531567 -1.93669e-20)
(0.630461 0.0225903 5.63185e-21)
(0.638892 0.022947 0)
(0.206647 0.0115158 9.0176e-20)
(1.02817 -0.101262 -6.63167e-21)
(0.906898 0.0353565 0)
(1.00073 -0.00622089 -4.00731e-21)
(1.01215 -0.00681934 1.84515e-22)
(1.10095 -0.0133732 0)
(1.00091 -0.00037779 0)
(0.412377 0.0360857 -5.19554e-20)
(1.10113 0.0211814 -3.12141e-20)
(1.08916 0.0209725 -5.97732e-21)
(1.01265 -0.00680288 0)
(1.06743 0.00801042 0)
(1.08875 0.0209697 0)
(1.11196 0.0134943 -1.02057e-20)
(1.18131 -0.3908 3.8192e-20)
(1.03184 -0.0950011 -2.63738e-21)
(1.08382 0.000356753 0)
(-0.0887832 0.000849872 -4.11709e-20)
(0.558756 0.0134867 1.44553e-22)
(1.09535 0.0148867 -1.12193e-20)
(0.905515 -0.059784 -1.49122e-20)
(0.980805 -0.0203757 7.88381e-21)
(1.01579 -0.0143113 -1.17291e-22)
(1.15312 0.0152928 3.30493e-20)
(1.0818 -0.00022755 0)
(0.409784 0.00189541 -1.04035e-20)
(1.0642 -0.0299936 1.4547e-20)
(1.00886 -0.0580004 3.15446e-21)
(1.08637 0.0232844 0)
(1.09467 0.014709 0)
(1.03759 -0.0111537 -3.27154e-21)
(1.03341 -0.0237669 -4.88818e-21)
(0.7407 -0.154873 0)
(1.1877 -0.0382027 3.17359e-20)
(0.441302 0.0314819 -1.93124e-20)
(0.527407 0.030348 0)
(1.07749 -0.00135497 -2.73654e-20)
(1.03749 -0.693565 -8.42387e-20)
(0.411064 0.0295335 0)
(0.946953 -0.0187032 0)
(1.07982 0.00643152 -2.03896e-20)
(0.571545 0.0192477 -1.29069e-20)
(1.0595 -0.0368693 0)
(1.08578 0.0247726 -3.33839e-22)
(1.01251 -0.0328187 -1.55079e-21)
(1.18887 -0.0347654 -9.26788e-21)
(1.00009 -0.00178214 -3.39606e-22)
(1.1008 -0.0534675 -1.73666e-21)
(1.02187 -0.0664957 1.23029e-21)
(0.984717 -0.0151752 -6.03361e-21)
(1.10261 0.0163724 0)
(1.03669 -0.0175982 -5.61655e-21)
(0.161606 -0.587093 -8.66546e-20)
(1.01268 -0.00645058 -2.40377e-22)
(1.09992 0.0119757 0)
(0.407346 0.00303283 3.37101e-20)
(0.388256 0.0354405 3.13007e-20)
(0.91663 -0.0678039 0)
(1.07994 0.00694798 1.61562e-20)
(1.00002 -0.000889081 0)
(0.786532 -0.279627 1.83373e-20)
(1.00137 -0.0112113 0)
(1.09876 -0.054839 0)
(0.306751 -0.0304764 -4.34573e-20)
(0.910648 -0.0602486 -2.48129e-20)
(1.05931 -0.035368 0)
(0.996879 -0.000916025 9.01567e-22)
(0.516231 0.0293003 3.04931e-22)
(1.01787 -0.0106484 1.46393e-21)
(1.08802 -0.385301 0)
(0.513176 0.0293455 -3.1172e-20)
(1.17977 -0.112381 0)
(1.00008 -0.000398689 -7.41109e-21)
(1.29203 -0.199719 0)
(0.380329 0.007429 -3.73348e-20)
(0.699515 0.0227333 0)
(1.08565 0.0245173 0)
(1.07873 -0.0157333 0)
(0.751766 -0.336864 -4.31951e-20)
(1.10222 0.0156649 1.7693e-20)
(1.06741 0.00886248 0)
(1.14557 -0.354336 0)
(1.04387 -0.104694 7.40417e-21)
(0.471221 0.00455056 0)
(1.10901 0.00661146 -5.00709e-20)
(1.00896 -0.000791699 -1.243e-24)
(1.06352 -0.0157624 0)
(1.0868 0.0230707 -1.42865e-21)
(0.640835 0.0177248 0)
(0.545041 0.00743354 7.95142e-21)
(1.01541 -0.0137151 2.06588e-22)
(0.624571 -0.201769 0)
(0.99393 -0.0108895 2.08753e-20)
(1.09679 0.0174864 -4.23332e-20)
(1.11492 0.0125637 -1.96934e-21)
(1.06477 -0.0154107 0)
(1.0915 -0.00996737 -5.03367e-20)
(1.1103 0.00676949 5.14066e-20)
(0.999737 -0.0209536 -1.47038e-20)
(0.831484 -0.119182 3.85617e-20)
(1.08664 0.0199344 0)
(1.10714 0.0219025 -9.15674e-21)
(0.998163 -0.00719696 0)
(0.984618 -0.0143405 -7.63653e-22)
(0.91164 -0.0666346 1.65828e-20)
(0.639996 0.0248648 0)
(-0.205814 0.00876797 0)
(1.08662 -0.00351823 2.29458e-20)
(1.02456 -0.0145984 2.144e-21)
(1.11131 0.0144042 2.34384e-21)
(1.11685 0.0117716 5.55284e-20)
(1.09245 0.014913 -2.87329e-20)
(1.09041 -0.00955201 4.17128e-20)
(0.620407 0.0234012 0)
(0.293609 0.00668369 -1.29623e-20)
(1.06679 -0.0208934 0)
(1.07509 -0.00283003 -4.45156e-20)
(1.2297 -0.0741457 0)
(1.01676 -0.0182949 2.30814e-22)
(1.00119 -0.00536293 -2.90028e-21)
(1.09317 0.0149446 -6.28999e-21)
(1.11617 -0.076541 3.66137e-20)
(1.01899 -0.0108672 3.78304e-21)
(1.0001 -0.00175569 -5.28319e-21)
(1.00118 -0.0115426 0)
(1.00369 -0.000595271 -3.37289e-23)
(1.07704 -0.0105244 -6.46287e-20)
(1.00123 -0.00572167 8.4673e-21)
(0.581954 0.0193104 1.39994e-20)
(1.08564 -0.00527904 0)
(1.00969 -0.0271928 -2.74432e-21)
(0.64445 0.0170103 0)
(0.445881 0.0144134 0)
(0.978858 -0.0159108 0)
(1.09959 0.0126688 -1.21619e-20)
(0.230615 0.00833941 7.73766e-21)
(0.978661 -0.0400224 0)
(0.977674 -0.015362 0)
(1.08692 -0.00559766 0)
(0.403763 0.00510914 -2.42284e-21)
(0.68716 0.0347399 -4.03032e-20)
(1.10081 -0.00717693 3.22532e-20)
(1.00192 -0.000545896 -1.32381e-21)
(0.925558 0.0344346 0)
(1.00082 -0.00660496 0)
(1.10369 -0.00702442 3.20544e-20)
(0.241419 0.0105311 0)
(1.10677 0.0217111 4.70943e-20)
(1.04998 -0.00306379 7.19653e-21)
(1.25463 -0.0870128 -1.20291e-21)
(1.25108 -0.066679 0)
(0.23623 0.0377454 -9.31971e-20)
(1.13827 -0.0127048 0)
(0.806189 -0.0908003 -3.97704e-20)
(0.418548 0.0379688 4.86608e-22)
(0.490133 0.0195882 -8.79544e-23)
(1.10634 0.0227149 -2.40426e-20)
(1.03443 -0.0243684 5.23635e-21)
(-0.0370126 0.0206166 -7.62228e-20)
(0.321195 0.000985233 -4.46448e-22)
(0.504656 -0.489803 -9.41654e-20)
(0.542123 -0.485518 8.49831e-20)
(0.945589 -0.0197396 1.01518e-20)
(1.10259 -0.0107549 -3.88089e-20)
(0.959717 -0.10185 0)
(0.511684 0.00567974 2.88715e-20)
(0.813651 -0.135562 3.74157e-20)
(1.00687 -0.00174461 1.46429e-21)
(1.01767 -0.000343827 2.83616e-21)
(1.05679 -0.062877 -1.50393e-20)
(0.189595 0.0331121 1.26804e-19)
(0.230441 -0.590411 7.48728e-20)
(1.01677 -0.0176425 -6.30801e-22)
(0.372476 0.0336129 -5.68066e-20)
(0.950109 -0.100362 -1.52099e-20)
(1.07688 -0.0513565 -7.24786e-21)
(1.05119 -0.0022886 1.05686e-20)
(0.39463 0.00379519 -1.4523e-21)
(1.11029 0.0141326 0)
(1.08641 0.0235849 0)
(1.01987 -0.0648516 1.55948e-22)
(1.05746 -0.0348502 1.73516e-20)
(0.6834 0.019296 0)
(0.980737 -0.021757 -2.46534e-20)
(1.11841 0.0119236 -1.96085e-20)
(1.06583 -0.020054 0)
(1.08757 -0.00632883 0)
(0.945235 -0.102579 0)
(0.993377 -0.0108875 -1.42526e-20)
(1.01031 -0.0268439 2.73065e-21)
(1.1594 -0.0399798 0)
(1.19149 -0.1078 2.11183e-21)
(1.10744 0.00774489 -5.38974e-20)
(1.2529 -0.0631283 1.32671e-21)
(0.690516 0.0197688 5.45205e-21)
(1.00862 -0.0609474 0)
(0.498921 0.0284336 1.66631e-20)
(1.09855 0.0183731 -1.09108e-20)
(1.02335 -0.00808845 -2.14278e-22)
(1.09932 0.0226356 -3.95113e-20)
(1.09704 0.0074963 9.88697e-21)
(0.275376 0.00938016 -2.51018e-20)
(1.05509 -0.061198 0)
(1.0786 0.0231766 0)
(1.09369 0.0233434 0)
(1.20974 -0.0170484 5.44678e-20)
(1.16032 -0.0472108 8.09893e-23)
(0.506857 0.00409509 3.94865e-21)
(1.03715 -0.0326108 -4.5518e-21)
(1.10181 0.0215623 3.72558e-20)
(-0.171793 0.00522071 0)
(1.07574 -0.0229531 2.96634e-20)
(0.488659 0.0058785 3.91995e-20)
(1.0802 -0.0240797 -1.39906e-20)
(0.536884 0.0310976 -3.02331e-20)
(1.07444 -0.00337848 2.69263e-20)
(1.06875 0.0170565 1.47389e-20)
(1.11187 0.0048625 0)
(1.2022 -0.0834214 0)
(0.986386 -0.00858024 0)
(1.06496 -0.0242812 9.07687e-21)
(1.11983 -0.0778677 3.19352e-21)
(1.06831 0.00760257 0)
(1.01074 -0.0209356 0)
(1.08664 -0.00253762 -2.41479e-20)
(0.808394 0.0322857 7.35457e-22)
(0.995635 -0.0224913 -1.06445e-20)
(1.08039 0.00556826 0)
(-0.176754 0.00207088 2.37402e-19)
(1.05246 -0.0331045 -8.7805e-21)
(1.27887 -0.349853 -8.41435e-20)
(1.07445 0.0133218 -2.17354e-21)
(0.742515 0.0327219 0)
(1.06131 -0.0378523 1.49911e-20)
(1.07848 0.0197134 0)
(1.02614 -0.66983 1.0792e-19)
(1.11446 0.0132182 8.46624e-21)
(1.09333 -0.0149508 1.08507e-20)
(0.530874 0.00585363 3.05052e-23)
(0.363577 0.00480562 4.63104e-20)
(1.28341 -0.20553 0)
(0.999094 -0.021019 -5.98312e-21)
(1.15579 -0.0387977 0)
(1.08136 -0.0282102 -3.1384e-20)
(1.07857 0.0223917 0)
(1.02253 -0.0154304 -4.7135e-21)
(-0.119877 0.0038737 1.26267e-21)
(0.794422 0.032896 -1.31718e-20)
(1.18912 -0.00276862 -9.5587e-20)
(1.05713 -0.0334301 -1.65319e-20)
(1.11156 0.00572291 0)
(1.09729 0.0218889 -3.90326e-20)
(-0.183346 0.00954557 0)
(1.02105 -0.0036354 2.77401e-21)
(-0.0818845 0.0171419 -8.51343e-20)
(1.20271 -0.0706878 8.91969e-21)
(0.637683 -0.256621 1.60664e-21)
(1.04769 -0.106385 -9.31949e-21)
(1.11675 0.0220394 -4.64587e-20)
(0.9896 -0.0145983 1.27115e-20)
(1.00108 -0.000328563 -1.57201e-21)
(0.445003 0.00518986 3.72481e-20)
(1.09802 0.0216552 3.20576e-20)
(0.992037 -0.00716698 -6.32881e-21)
(1.05624 -0.0226257 3.79226e-21)
(1.08133 0.00549736 -5.43304e-21)
(1.01071 -0.00761367 -1.74068e-22)
(0.834586 0.0327558 0)
(1.10242 -0.00945789 8.39223e-21)
(1.09713 0.00694959 0)
(1.06078 -0.00560352 6.79222e-21)
(1.03766 -0.0317324 0)
(0.976428 -0.00630016 0)
(1.2171 -0.0217705 0)
(1.00874 -0.0265924 0)
(0.977328 -0.00540865 0)
(0.89937 0.0274887 7.88368e-21)
(0.828059 0.0309685 0)
(1.02894 -0.073191 0)
(1.09289 0.0229479 1.46906e-20)
(0.996398 -0.00213485 -1.00593e-21)
(1.00132 -0.00542207 -2.80542e-21)
(1.05414 -0.0337327 2.63243e-20)
(1.10851 0.00788215 5.74174e-20)
(1.07286 0.0150838 -2.00033e-20)
(1.01064 -0.0221354 0)
(1.04459 -0.0262884 9.3921e-21)
(1.14898 -0.276094 3.62194e-20)
(1.05065 -0.0171065 -1.24594e-20)
(0.78349 0.0251807 0)
(1.00121 -0.00667037 -3.0003e-21)
(1.06202 0.00207938 1.45449e-20)
(0.685799 0.0221003 1.01381e-20)
(0.95574 -0.140599 0)
(1.01666 -0.000840532 -6.30903e-22)
(1.00037 -0.00577764 -4.48202e-21)
(1.06041 -0.00625961 -3.44027e-21)
(1.03986 -0.0104972 0)
(1.28148 -0.259514 3.57964e-20)
(0.855124 0.0274027 -8.94505e-21)
(1.07936 -0.0147962 3.5057e-21)
(0.36771 -1.13468 0)
(1.05532 -0.0327081 -1.37964e-20)
(1.00022 -0.00902499 -5.23119e-21)
(0.57383 0.0235877 -1.43746e-20)
(1.09414 0.0231635 1.50022e-20)
(0.897898 -0.111799 0)
(0.996651 -0.0257269 0)
(0.478791 0.0181944 2.03179e-20)
(0.877969 -0.0862871 4.12696e-20)
(1.20122 -0.522827 -1.88483e-20)
(0.99104 -0.0233961 -1.03752e-20)
(1.07751 -0.0455582 0)
(1.16153 -0.0444204 0)
(1.07191 0.00518492 0)
(0.516556 0.0222566 1.28023e-20)
(1.09722 0.0220888 3.58908e-20)
(1.19848 -0.00631439 9.12158e-20)
(0.981789 -0.0599871 0)
(1.13797 -0.0107991 3.61685e-22)
(1.00069 -0.0220149 4.80703e-21)
(0.633818 0.0179941 0)
(1.07448 0.0127961 7.73064e-21)
(1.09425 0.0149773 0)
(1.08028 -0.0270289 2.53537e-20)
(1.02014 -0.0622581 3.34461e-22)
(0.961355 -0.137579 0)
(1.10103 -0.0116738 7.78712e-21)
(1.00155 -0.000496075 0)
(-0.178865 0.010055 0)
(0.553252 0.0220928 0)
(0.817886 0.0213809 3.5275e-20)
(-0.175787 -0.00331287 -2.08161e-20)
(0.866555 0.0278557 7.84582e-21)
(0.117583 0.0234688 -2.0428e-20)
(1.11641 0.0126579 -4.13069e-20)
(0.926831 -0.0705129 0)
(0.999725 -0.00241424 -8.89795e-21)
(1.26207 -0.350463 -5.15578e-20)
(0.992636 -0.00609603 -8.52306e-21)
(1.01048 -0.0203803 8.57044e-23)
(0.922287 -0.0857148 1.36421e-20)
(0.435626 0.0368167 3.10202e-20)
(1.05476 -0.0167354 -1.83771e-20)
(0.975667 -0.0341088 -7.72047e-23)
(1.09539 -0.22546 -1.37454e-21)
(1.09871 -0.0268343 0)
(0.990927 -0.00223921 9.40448e-22)
(0.971139 0.0337749 3.09665e-20)
(1.00704 -0.0197051 -4.20476e-21)
(0.588017 0.0264573 -1.35376e-20)
(1.27451 -0.247488 -1.2763e-19)
(1.00448 -0.0156858 0)
(1.05148 -0.0102952 -1.4834e-20)
(1.19498 -0.0528902 -3.76638e-20)
(1.10011 0.0227433 -5.07058e-21)
(1.01846 -0.0110714 2.0249e-22)
(1.17314 -0.0247744 0)
(1.19769 -0.312202 9.25368e-20)
(1.02711 -0.00401889 0)
(0.332744 0.0425092 1.83422e-20)
(1.12192 0.0125931 -2.44503e-21)
(1.10121 0.0112089 0)
(0.980456 -0.0585847 1.31565e-20)
(0.910691 0.0274217 -3.22871e-20)
(0.332892 0.00810658 1.62648e-20)
(1.02765 -0.00422287 -3.26966e-21)
(1.14199 0.00262818 6.133e-20)
(1.01502 -0.033141 -1.2324e-21)
(1.00742 -0.020166 2.07309e-21)
(0.939003 0.0281151 1.93135e-21)
(0.541989 0.0323352 3.58894e-20)
(1.08869 -0.0270992 0)
(1.07213 0.0152813 1.68473e-20)
(0.992088 -0.0050305 -1.1167e-20)
(1.07893 0.0155111 0)
(0.580382 0.026473 -1.00801e-22)
(0.390112 0.037955 5.38488e-20)
(1.03 -0.00695709 8.50566e-22)
(0.0181221 0.0179025 0)
(1.01033 -0.021621 0)
(1.01604 -0.0337224 7.75727e-22)
(1.09374 -0.0138752 1.45897e-21)
(1.06025 0.00568211 0)
(1.02128 -0.00341685 1.51861e-21)
(1.01622 -0.0607427 -8.44546e-22)
(0.355207 0.0416205 0)
(1.19645 -0.082488 -3.65382e-20)
(0.312362 0.0411014 0)
(1.05323 -0.0169885 -1.39562e-20)
(0.994114 -0.0114954 -1.17918e-22)
(0.652393 0.024235 -5.64628e-21)
(0.999549 -0.00343373 0)
(1.15348 -0.0334109 0)
(1.06384 -0.00206082 2.09432e-20)
(1.06913 0.00539635 -2.48991e-20)
(1.07927 -0.0183474 6.25503e-21)
(0.747243 0.0247559 0)
(0.303932 0.00838002 0)
(1.06356 -0.0270979 -1.50818e-20)
(-0.108569 0.0123831 0)
(1.04896 -0.00443957 3.4291e-21)
(1.10715 -0.0169638 0)
(0.674147 0.0205095 1.60259e-20)
(0.477764 0.00847885 9.48278e-22)
(1.00993 -0.0337718 -2.98146e-21)
(1.00008 -0.0219428 5.90425e-21)
(0.844893 -0.148727 0)
(0.329667 0.0409717 0)
(1.09039 0.0241874 -4.24657e-20)
(1.07831 0.0156345 0)
(1.16172 -0.477666 1.78505e-20)
(1.06037 0.00619958 0)
(1.07323 -0.00280236 0)
(0.469996 -0.0511921 -7.95633e-20)
(0.94776 0.0327005 4.38057e-20)
(1.12244 -0.275611 -3.78179e-20)
(0.575375 0.0255584 0)
(1.09298 0.0192199 -7.11918e-21)
(0.697586 0.0207605 -1.46006e-20)
(1.03389 -0.0315853 7.35358e-23)
(1.08556 0.0243341 0)
(1.13046 0.0198624 0)
(0.999925 -0.00785632 5.13012e-21)
(0.116455 0.00581695 -4.38718e-20)
(0.784992 0.0421992 1.74736e-20)
(1.03213 -0.0993477 5.85909e-21)
(1.08379 0.00154117 -1.83376e-20)
(1.00212 -0.0300541 2.68022e-22)
(0.522515 -0.876692 3.24868e-21)
(1.13089 -0.128997 0)
(0.953865 -0.179292 1.69962e-19)
(1.00819 -0.0270257 -3.44879e-21)
(1.00063 -0.000436974 0)
(0.923737 -0.0420355 0)
(1.09818 -0.0284772 7.29352e-21)
(1.00126 -0.00642225 0)
(0.403628 0.0350311 -5.28822e-20)
(1.00074 -0.000520269 2.32602e-21)
(1.09312 0.0189694 0)
(0.975937 -0.0575047 4.35602e-22)
(1.07925 0.0221991 -6.41348e-21)
(0.992357 -0.0237726 -1.08524e-20)
(0.990316 -0.00235239 -1.07783e-20)
(1.08554 -0.119707 0)
(0.0224475 0.0152664 1.31788e-19)
(1.09442 -0.0176479 -4.44419e-20)
(0.355536 0.0345164 6.6065e-21)
(1.07797 -0.0475905 3.68486e-21)
(1.01086 -0.00847621 -3.28887e-22)
(1.0256 -0.0101945 3.5287e-21)
(1.10244 -0.0141482 -1.99717e-21)
(1.04373 -0.0269898 1.52476e-21)
(1.12592 -0.0185176 5.93625e-20)
(1.05768 -0.0183043 -1.05698e-20)
(0.897367 -0.104753 0)
(1.0895 0.0239971 0)
(0.999452 -0.00320619 4.81471e-21)
(0.543651 0.00214679 0)
(1.00005 -0.00120798 5.43196e-21)
(1.08217 0.0243937 3.64184e-20)
(-0.0942566 0.0146885 0)
(0.667042 0.0225052 0)
(0.897993 -0.025299 2.64359e-20)
(1.08583 -0.231178 -1.48519e-19)
(1.08514 -0.227121 -4.74374e-20)
(1.21045 -0.148892 -3.76233e-20)
(0.762903 0.042955 0)
(1.03186 -0.00794756 -1.7282e-21)
(0.919294 0.0352315 1.28004e-20)
(0.955224 -0.104105 0)
(1.07736 -0.022936 -6.56054e-21)
(-0.124837 -0.00497902 1.43749e-19)
(1.16 0.011292 -3.93583e-21)
(1.02369 -0.00848495 -2.49925e-21)
(1.12548 -0.0199153 -5.58112e-20)
(1.03711 -0.0105125 -3.314e-21)
(0.674603 0.0191236 2.95994e-21)
(0.160768 0.0110727 -2.0449e-20)
(1.02018 -0.0347702 1.59497e-23)
(0.722728 -0.145584 -8.23209e-20)
(0.839129 0.0337412 2.56485e-20)
(0.999986 -0.00100338 -7.57819e-21)
(0.999981 -0.00135406 -5.60425e-21)
(1.07923 0.020541 3.08616e-20)
(0.526695 0.000563787 5.23973e-21)
(0.957656 0.0279373 -2.13915e-20)
(0.977833 -0.0141781 3.36252e-21)
(1.1139 0.0035284 3.36425e-21)
(1.04936 -0.0170075 6.01657e-21)
(0.989385 -0.00322767 0)
(1.08574 0.024358 4.1334e-21)
(1.11343 0.00454405 0)
(1.18211 -0.0997482 2.66966e-20)
(1.01998 -0.00308665 0)
(1.08687 0.0195719 2.35759e-20)
(0.931924 -0.186731 0)
(1.07709 0.019473 5.5322e-21)
(0.963908 -0.0166236 -3.16417e-20)
(1.00764 -0.0559341 4.90858e-22)
(1.12495 -0.130796 0)
(0.927453 -0.0428955 0)
(1.08691 0.0207059 -9.74219e-21)
(1.08883 -0.00373799 2.07415e-20)
(1.09021 -0.00545595 2.89632e-22)
(1.10837 -0.266696 5.44259e-20)
(1.20574 -0.537984 -6.81021e-20)
(1.12443 0.0119696 -2.74152e-22)
(0.828738 0.0288932 -7.09496e-23)
(1.1975 -0.0269373 0)
(1.08718 0.0220767 0)
(0.454572 0.0097675 1.85802e-20)
(1.03103 -0.144337 -9.37405e-21)
(0.921168 0.0278113 0)
(1.10089 0.0119703 0)
(1.02624 -0.0178423 0)
(1.07243 -0.00340321 -1.26613e-20)
(1.12305 0.010379 -5.96923e-20)
(1.04788 -0.0683061 -1.18027e-20)
(1.00418 -0.0146253 9.47232e-23)
(1.00459 -0.0138625 -3.79096e-21)
(1.08259 0.0234983 1.61852e-20)
(0.500138 0.00181366 1.3125e-20)
(1.06296 0.00181456 -1.52913e-20)
(0.485844 0.0277821 1.70729e-20)
(1.01069 -0.00878374 -3.76456e-22)
(0.939089 0.0280084 4.35894e-21)
(1.04758 -0.325137 0)
(0.219223 0.00739823 7.29943e-20)
(1.12656 -0.0222301 -2.87887e-20)
(1.06287 -0.0373612 -1.56607e-20)
(1.05573 -0.0197074 -1.00655e-20)
(0.228609 0.0097812 -2.65541e-20)
(1.18104 -0.0951875 -9.52981e-20)
(1.03043 -0.138437 9.2856e-21)
(1.09813 0.0219215 -7.276e-21)
(1.03667 -0.0301637 0)
(1.27861 -0.30747 0)
(1.08265 0.023886 -9.43963e-21)
(1.09359 0.018765 -1.30558e-20)
(1.08007 -0.034565 6.95308e-21)
(1.21558 -0.0566833 0)
(0.990221 -0.0149386 8.511e-21)
(1.00006 -0.00142012 3.46877e-22)
(0.949814 -0.0182962 2.8782e-20)
(0.988847 -0.0038869 -1.85537e-21)
(0.663673 0.0199851 0)
(1.0034 -0.000717132 0)
(1.08973 0.024422 0)
(0.631165 0.0235724 0)
(1.1288 -0.0226889 0)
(0.40953 0.0389999 0)
(0.274793 0.00871325 0)
(1.09409 0.0188779 0)
(1.21721 -0.142375 8.38271e-20)
(0.900713 -0.0318544 -2.14087e-20)
(0.998827 -0.000387858 -1.17866e-20)
(0.98565 -0.0136637 8.04046e-22)
(1.01739 -0.00598034 0)
(1.02499 -0.0102211 -4.53088e-21)
(1.00087 -0.000489305 -1.656e-21)
(1.10562 -0.0138475 0)
(1.13138 -0.00612002 -3.52529e-20)
(0.9302 -0.197746 0)
(1.10815 0.0222909 -4.50221e-20)
(1.02029 -0.0519583 -1.15264e-23)
(0.564844 0.0182831 -6.57862e-21)
(0.999983 -0.000127992 -3.70108e-21)
(0.00371823 0.00478573 -2.41646e-19)
(1.09313 -0.0648131 -6.57648e-21)
(0.99994 -0.000254138 -1.0581e-21)
(0.997491 -0.00110234 -6.92826e-21)
(0.658313 0.0228845 2.41489e-20)
(1.06394 -0.0326473 1.06964e-20)
(0.971654 0.0267684 9.94332e-21)
(0.79291 0.0394866 2.31784e-21)
(1.08193 0.00170528 0)
(1.09408 0.00235198 -1.00067e-20)
(1.02684 -0.0033204 -2.71919e-21)
(0.630188 0.0275937 -2.32166e-20)
(0.98979 -0.068537 0)
(1.05548 -0.0176569 1.93136e-20)
(1.08589 0.0242938 0)
(0.998858 -0.000795281 5.64116e-21)
(0.978571 -0.0365456 -4.52972e-21)
(1.0295 -0.0112744 0)
(1.07533 0.0115611 1.8348e-20)
(0.487861 0.00298363 2.57765e-20)
(1.07164 -0.045782 -2.01257e-20)
(1.08043 -0.0311878 -2.73557e-20)
(1.20885 -0.074478 0)
(0.353244 0.0362568 -5.47569e-20)
(0.902887 -0.0518116 -2.9268e-20)
(0.993104 -0.0881693 0)
(0.691307 0.0208119 -1.26238e-23)
(1.01705 -0.00580372 0)
(0.683238 0.020636 -1.02451e-20)
(1.00033 -0.00104903 -1.90517e-21)
(1.05111 -0.0160216 0)
(1.16855 0.00959931 -1.73076e-20)
(1.0865 0.0144498 4.9845e-20)
(1.09256 0.0161179 0)
(1.14051 -0.0555951 -5.62086e-20)
(1.09475 -0.0163392 6.19541e-21)
(0.999593 -0.000838457 -5.34485e-21)
(0.999991 -0.000134108 -7.82129e-21)
(1.10899 -0.0161878 0)
(1.03509 -0.03151 -3.2674e-21)
(0.999697 -0.000672341 -9.56481e-21)
(1.06273 0.00461291 0)
(1.21642 -0.10614 -8.41159e-20)
(1.00399 -0.00480998 -3.87993e-21)
(1.20565 -0.164532 7.23612e-20)
(1.28755 -0.334385 6.49494e-20)
(0.995592 0.0263615 8.51594e-21)
(1.13837 -0.0531508 3.5568e-20)
(0.303943 0.0187937 6.81522e-20)
(0.860612 -0.0847599 4.84468e-20)
(0.998709 -0.000670314 0)
(1.1628 -0.0542911 2.17577e-20)
(1.01022 -0.00913992 0)
(1.06541 -0.0229863 -2.03122e-21)
(0.852183 0.0301287 -9.44464e-21)
(0.696516 0.0193516 2.29704e-20)
(0.914208 0.0366182 9.4856e-21)
(0.716935 0.0224947 0)
(1.02317 -0.0349987 0)
(1.02006 -0.0341042 -1.60079e-23)
(1.00888 -0.241699 -4.75979e-21)
(1.00461 -0.0539609 -6.45533e-22)
(1.01845 -0.0163711 0)
(0.883158 -0.325505 9.77667e-20)
(1.09649 0.017945 1.50027e-20)
(0.485381 0.00694143 0)
(1.08233 0.0247625 -4.02043e-20)
(1.08712 0.0144582 -3.33933e-20)
(0.987686 -0.00549324 2.37181e-21)
(1.01711 -0.0111628 0)
(1.2874 -0.187847 4.66859e-20)
(1.09789 0.0062764 3.96763e-20)
(1.05258 -0.0160071 1.66434e-20)
(0.999835 -0.000151677 -2.12156e-21)
(1.09175 0.0166923 -1.38256e-20)
(1.14617 -0.0152281 -7.18972e-22)
(0.496913 0.028796 0)
(0.97712 -0.0181358 0)
(1.00077 -0.00291216 4.17695e-21)
(0.471398 0.00162982 -1.98175e-20)
(0.964847 -0.0154326 2.60296e-20)
(1.07971 -0.0212254 3.41243e-21)
(1.01039 -0.00720123 0)
(0.453644 0.0363127 0)
(1.00883 -0.000488519 -4.67416e-22)
(-0.0675855 0.0168769 0)
(0.995714 -0.0051694 1.15507e-20)
(1.17501 -0.118023 5.50823e-20)
(1.0831 -0.0091289 -1.69002e-20)
(0.987681 -0.249485 1.23333e-21)
(1.0812 -0.0333697 4.0545e-21)
(0.994408 -0.0217342 0)
(1.05602 -0.0245801 0)
(1.00283 -0.00346516 -6.94402e-23)
(1.09038 0.0244537 -7.62406e-21)
(0.96763 -0.02317 0)
(0.562509 0.00825921 -6.87274e-21)
(1.03829 -0.029533 -2.33401e-21)
(1.01455 0.0268447 -1.33634e-20)
(0.597342 0.0239335 0)
(1.07749 -0.0377713 -1.39397e-20)
(1.00335 -0.00250132 -1.7322e-21)
(-0.129382 -0.00179999 -6.29752e-20)
(0.855652 0.0272634 -4.51046e-21)
(1.06518 -0.027011 3.20118e-20)
(1.08605 0.015012 -3.38454e-20)
(0.985661 -0.0128669 0)
(0.512938 0.00402038 0)
(1.02693 -0.0183922 1.66228e-21)
(1.12417 0.00958539 0)
(0.999394 -0.0085651 5.85731e-21)
(1.00307 -0.00361009 1.86682e-21)
(0.993538 0.0280266 1.42319e-20)
(1.07976 -0.0172838 0)
(1.00043 -0.006201 0)
(1.06507 0.00961003 6.36988e-21)
(0.52706 0.0262629 0)
(0.808791 -0.822046 1.36667e-20)
(0.813739 0.0345225 -2.63206e-20)
(1.01471 -0.0137002 -2.0152e-22)
(0.467808 0.011213 -4.09204e-21)
(0.997972 -0.00760558 7.46068e-21)
(1.00382 -0.00454286 2.92227e-21)
(0.978275 -0.0205367 -9.1625e-21)
(1.01753 -0.000438377 0)
(0.999897 -0.00186982 -4.35866e-21)
(0.796077 0.0363332 2.07732e-20)
(0.840585 0.0302211 0)
(1.03707 -0.0184148 0)
(1.00077 -0.00070701 -4.05307e-21)
(1.08931 -0.0253536 1.75977e-20)
(1.01323 -0.0194503 -4.84544e-22)
(-0.0343695 -0.00519905 -5.57549e-20)
(1.16387 -0.0509665 -6.21936e-21)
(0.438736 0.00765771 -3.04856e-21)
(0.43192 0.0390452 -2.50427e-20)
(1.05571 -0.0253387 0)
(1.08705 0.0203576 0)
(0.999946 -0.00830612 5.44303e-21)
(1.08456 -0.00727344 -1.63076e-20)
(1.03838 -0.308877 4.0239e-21)
(1.03134 -0.00742232 6.97306e-21)
(1.00028 -0.00102874 5.30003e-22)
(1.28703 -0.178095 0)
(0.170215 0.0110081 -2.148e-20)
(1.09309 0.00254965 0)
(-0.0805563 0.00342201 4.90024e-20)
(1.08656 0.00795133 0)
(0.996497 -0.00284993 0)
(1.09229 -0.0321704 -2.21299e-20)
(1.08604 0.0153858 3.16017e-20)
(0.0392905 0.0109961 -7.4845e-21)
(1.07569 -0.011093 0)
(1.05862 0.0252228 -1.16949e-21)
(1.09887 0.00632593 -5.40496e-20)
(1.00018 -0.00196419 7.04726e-21)
(0.803357 -0.11667 0)
(0.706282 -0.0860466 0)
(0.511544 0.00572599 1.10805e-20)
(1.15915 0.0132335 4.56409e-21)
(0.945012 0.0277992 -1.29863e-20)
(0.984278 -0.0605043 3.45261e-21)
(0.774515 -0.348842 4.6608e-20)
(0.976786 -0.00394413 -8.80971e-21)
(1.10512 0.021488 -3.77057e-20)
(1.04681 -0.0658347 1.05387e-20)
(1.00672 -0.00140767 -1.09379e-21)
(0.791935 0.0356187 -3.03445e-20)
(1.01725 -0.0514134 2.04877e-21)
(1.00328 -0.00230096 0)
(1.01097 -0.0337814 3.18662e-21)
(1.01604 -0.0500708 -2.7621e-21)
(0.422706 0.0349147 0)
(1.12064 0.0110857 2.15863e-20)
(1.01003 -0.0126506 -6.72802e-22)
(1.09326 -0.0304451 0)
(0.41328 0.0051869 4.25229e-20)
(1.03102 -0.0466424 0)
(-0.0858629 0.00624759 7.19334e-20)
(0.964889 -0.037647 0)
(1.08822 0.0119418 1.85268e-20)
(0.516782 0.0324252 0)
(1.00108 -0.00592238 0)
(1.09228 0.0243136 1.9073e-21)
(1.05567 -0.0765565 4.71551e-21)
(1.07959 -0.0382497 0)
(0.743355 -0.862334 0)
(1.01915 -0.0507893 0)
(1.17602 -0.023969 3.75458e-20)
(1.07773 0.0199738 -1.48839e-20)
(0.560545 0.0286376 0)
(1.03872 -0.00637816 7.28018e-21)
(0.537195 0.0060753 -2.16686e-21)
(1.07496 -0.0244794 -5.7622e-21)
(0.425514 0.0106867 1.84055e-20)
(0.102249 0.0101584 -9.63667e-20)
(0.51918 0.00426011 2.10267e-20)
(1.08104 0.00330298 0)
(0.991917 -0.0204438 0)
(1.02269 -0.0359387 0)
(0.999973 -0.000967854 0)
(1.06799 0.0165249 1.31849e-20)
(0.997484 -0.00265978 7.35844e-21)
(0.527941 0.0232176 1.51048e-20)
(1.02837 -0.0930468 2.62491e-21)
(0.938854 -0.0772631 0)
(0.905349 -0.0486869 4.95899e-20)
(0.98592 -0.0592888 0)
(1.01437 -0.0132269 0)
(1.05619 0.00791143 0)
(1.05215 -0.0660778 -6.18496e-21)
(1.05131 -0.0111441 0)
(1.03771 -0.0765057 1.97807e-21)
(0.701703 0.0407351 0)
(1.09084 0.0247297 0)
(1.07312 -0.0191047 -1.11896e-20)
(1.09886 -0.107865 0)
(0.810924 0.0346619 1.51118e-20)
(0.976288 -0.036193 1.55598e-20)
(0.22181 0.0365 -2.45522e-20)
(1.01653 -0.00573569 1.36916e-21)
(1.03207 -0.112471 0)
(0.966089 -0.0220866 1.51366e-20)
(1.01915 -0.0235633 7.82776e-22)
(1.07443 -0.125182 3.2809e-20)
(1.00006 -0.00933375 3.11219e-21)