/*--------------------------------*- C++ -*----------------------------------*\
| =========                 |                                                 |
| \\      /  F ield         | OpenFOAM: The Open Source CFD Toolbox           |
|  \\    /   O peration     | Version:  v2012                                 |
|   \\  /    A nd           | Website:  www.openfoam.com                      |
|    \\/     M anipulation  |                                                 |
\*---------------------------------------------------------------------------*/
FoamFile
{
    version     2.0;
    format      ascii;
    class       volScalarField;
    location    "400";
    object      k;
}
// * * * * * * * * * * * * * * * * * * * * * * * * * * * * * * * * * * * * * //

dimensions      [0 2 -2 0 0 0 0];


internalField   nonuniform List<scalar> 
13308
(
0.000121288
9.93137e-05
0.000977269
9.82457e-05
0.000108912
9.61176e-05
0.000105412
0.000230633
0.000102449
0.000113024
0.000108947
0.0123797
0.000687359
0.000105183
0.000103355
0.000108662
9.1828e-05
9.63699e-05
0.000115753
9.62743e-05
0.000113728
9.41716e-05
9.37166e-05
0.00646122
0.000588427
9.41823e-05
0.00979322
9.45466e-05
0.00781432
9.51018e-05
0.0133643
0.0098908
0.00252061
0.00837215
0.000117686
9.83982e-05
9.33894e-05
0.000101408
9.89058e-05
9.93829e-05
0.00010242
9.61924e-05
0.000298267
0.000101928
0.00998619
0.00964739
9.64892e-05
0.0001294
9.79973e-05
0.000146322
0.0152192
9.9056e-05
9.55099e-05
0.00752697
9.61802e-05
9.61868e-05
9.49855e-05
0.000120789
0.000112722
0.000117768
9.19614e-05
0.000120995
9.74171e-05
9.95726e-05
9.39006e-05
9.19588e-05
9.88125e-05
0.00921478
0.0103411
9.65787e-05
0.000140387
9.72756e-05
9.1702e-05
9.31485e-05
9.57135e-05
0.000133483
0.00887148
0.000117256
0.00269259
9.70486e-05
9.183e-05
0.000113117
9.23511e-05
0.000120753
0.00998959
0.000112716
0.000115131
0.000113235
0.000113915
0.000114401
0.000113732
0.00762038
0.000119783
0.00013809
0.000106742
0.000114156
9.21178e-05
0.000195073
0.000102163
0.00010455
0.000105744
0.000128576
9.58942e-05
0.000100662
9.1755e-05
0.000123455
0.000245954
0.000117796
9.63604e-05
0.000905429
0.000133941
0.00989892
0.000113585
0.0076133
0.000105823
0.00260816
0.000111263
0.000107585
9.6869e-05
0.00013429
0.000106601
0.000128519
0.000130047
0.000112966
0.000223067
0.000108393
0.00969986
0.000121875
0.000145275
0.00189884
0.000271712
9.75088e-05
9.87784e-05
0.000105174
0.000129374
9.8594e-05
0.000102258
9.59649e-05
0.00089483
0.000100835
0.0015811
0.00839591
0.0086181
0.000107199
0.0128186
0.000287859
9.79172e-05
0.000104271
0.000124068
0.0079421
0.0066979
0.000102757
9.64049e-05
0.000101806
9.61769e-05
9.84232e-05
0.000125587
0.000102352
0.000212964
0.00827676
0.000126153
0.00925476
0.000107892
0.00010286
9.4427e-05
0.000246317
0.000105076
0.000912398
0.000446899
0.00012759
0.000202831
9.85749e-05
0.0117691
0.000697061
0.000101667
0.000144927
9.3205e-05
0.000226202
9.88558e-05
0.000102166
0.000121939
9.67689e-05
9.45629e-05
0.0119615
0.000105766
0.000101874
0.000129986
9.1961e-05
9.25511e-05
0.000107434
9.73081e-05
9.729e-05
0.000269557
0.00642905
0.000190395
0.000261226
0.000118854
0.000124742
9.17422e-05
0.000191775
0.00199422
0.000104437
0.000109165
9.65164e-05
0.000113711
0.000206121
0.000105437
9.82722e-05
0.000124764
9.6426e-05
0.000104487
0.00694764
0.000141464
0.00128754
0.000108462
0.000113858
9.12788e-05
0.000455238
9.49353e-05
9.48506e-05
0.000103504
0.000134675
0.000105632
0.000121644
0.000103117
0.000425059
0.000105128
0.000146412
0.0182711
0.000111365
9.72024e-05
0.000133589
0.000105095
9.29161e-05
0.000107802
0.000101878
9.21255e-05
9.18962e-05
9.71649e-05
0.000111344
0.000100224
0.000114104
0.000129531
0.000268666
0.00011733
0.000108271
0.00207273
9.9112e-05
0.000129432
0.000101241
0.000119602
0.000103252
0.000262853
0.000137402
0.00014364
0.000112322
9.60519e-05
0.000112005
0.00010673
0.000107568
0.000108813
9.13325e-05
9.45009e-05
9.1783e-05
0.00873895
9.91757e-05
0.00108721
0.000123492
0.00762957
0.000121465
9.48932e-05
0.000107954
0.000111364
0.000101659
0.000218717
0.000487658
9.21025e-05
0.000111267
0.000202664
9.48543e-05
0.000112568
0.000106657
0.000176029
0.000124559
0.000121814
0.000135426
0.000133375
0.000150765
9.26158e-05
9.63634e-05
0.00200785
0.00798055
0.00130426
0.00894772
0.000111495
9.31122e-05
9.89457e-05
0.000120003
0.00788817
0.000109842
0.00912093
9.65855e-05
0.000108333
0.000106266
0.000128618
0.000122104
0.000107205
0.000119086
0.000113034
0.000102529
9.99248e-05
0.000107015
0.0149839
0.00010651
0.000238004
0.00848024
0.000309468
9.64819e-05
0.000241202
0.000103085
0.000111219
0.00013037
9.63808e-05
9.26651e-05
0.000100676
0.000127823
9.65401e-05
0.000120876
9.91918e-05
0.00010808
0.000169189
0.000266849
0.000111712
0.000108307
0.000104676
0.0161915
0.000222383
0.000104269
9.4955e-05
9.72221e-05
0.00211756
0.000136019
0.000107751
0.00011159
9.91659e-05
0.000132843
0.000100143
0.000102163
0.000105768
0.0206421
9.66034e-05
0.00010215
0.000113316
9.8329e-05
0.000155489
0.000103206
0.00010882
0.00199629
0.000383655
0.000125212
0.000119116
9.65462e-05
0.0115733
0.000108195
0.000306323
9.71212e-05
0.000118027
0.00036679
0.000145424
0.000102762
0.000191653
0.00823904
0.000158599
0.000389161
0.000105843
0.000106015
0.000242893
0.000101303
0.000243199
9.83366e-05
0.000125863
0.000134054
0.000121323
0.000189436
0.000132893
0.000114167
9.48023e-05
0.000108354
9.50193e-05
0.0065358
0.00783691
9.88165e-05
0.000101866
0.0143274
9.87999e-05
0.000152234
0.000121227
0.000111656
0.000289479
0.00903109
0.000121279
0.000116018
0.000114049
0.000126403
9.90471e-05
9.50263e-05
0.000114853
0.000124963
0.00399049
0.000108194
0.000257108
0.00915366
0.00034906
0.000103797
0.00627657
9.71707e-05
0.000120223
0.000121201
0.000115787
9.70809e-05
9.53241e-05
0.000130496
0.000120575
9.86275e-05
0.0169046
0.000107175
0.000111026
0.00685398
0.00313104
0.00281406
0.000106692
0.00692387
0.00920813
0.000114495
0.00010686
0.000118689
9.29865e-05
9.58995e-05
9.65891e-05
0.000104863
0.000117407
0.000115964
0.000116831
0.000114956
9.54206e-05
0.00837012
0.000183151
0.000124621
0.000109482
0.000245999
0.000195418
0.000103879
0.000104812
9.63717e-05
0.000117118
0.0127782
9.87117e-05
9.68163e-05
0.000271542
0.000195103
9.74155e-05
0.000108693
9.51337e-05
0.000138709
9.64449e-05
9.94239e-05
9.92909e-05
0.0199902
9.65701e-05
9.99891e-05
0.000115203
9.97655e-05
0.000119621
0.000227758
0.000117595
0.000140988
0.000104386
0.000141682
0.000110074
0.000149193
0.000125181
0.000125321
0.000113529
0.000128814
9.85209e-05
0.0102257
0.00010206
0.00890891
9.47325e-05
0.000111571
9.8285e-05
0.0117436
9.66824e-05
0.000120362
9.66496e-05
0.000119408
0.000186401
0.000120201
0.000114738
0.000102296
0.000104445
0.012158
0.000114137
0.010379
0.000105097
0.00925194
0.000121747
0.000220085
9.93975e-05
0.00941353
0.000101929
0.0102173
0.00770849
0.00010449
9.93203e-05
0.00130152
0.00323384
0.00013259
0.000122314
9.98856e-05
0.000122367
0.00868137
9.67864e-05
0.000343223
0.000680742
0.0186509
0.00017952
0.000120344
0.0139385
0.00012032
0.000121823
0.00013651
0.00683735
0.000110651
0.000102516
9.91948e-05
0.000108255
0.000106227
0.000446687
0.000137526
0.000208818
0.00803515
0.0155651
9.91571e-05
0.000121842
0.000115868
0.000141082
0.0146632
0.000903674
0.000187651
0.000119135
0.000132869
0.000227998
0.000122227
0.000122979
9.20008e-05
0.000119722
9.63238e-05
0.000233733
9.14007e-05
0.000111303
0.000127103
0.000120241
0.000105694
0.000130797
0.000111106
0.000199327
0.000119416
0.000146026
0.000125986
0.00869975
0.000115227
0.000110632
0.00777776
0.000118938
0.0127529
9.85609e-05
0.000145962
0.00012657
9.92328e-05
0.000102503
0.000104385
0.00010759
9.66423e-05
0.000120156
0.000121952
9.79343e-05
0.000127373
0.000139856
0.000220258
9.77737e-05
9.59457e-05
0.000104752
0.000165247
9.86931e-05
0.000110841
9.84546e-05
0.000118096
9.69913e-05
0.00884587
0.00665069
0.000124124
0.000117821
9.9077e-05
0.000104947
9.85494e-05
0.00991784
0.000135961
0.000164684
9.65517e-05
0.000118196
9.1478e-05
0.000143778
0.00744387
0.0001039
0.00219648
9.8227e-05
0.000101546
0.0169165
0.000366867
0.0027039
0.000100671
0.000119544
0.00764158
0.00252466
0.000126255
0.00927837
0.000181792
0.00017029
0.000111534
0.00875227
9.75879e-05
0.000115806
0.00010274
0.000140055
0.000119185
0.000115705
0.000102107
0.000115161
0.00483468
0.0191156
0.0152954
0.000272247
0.000119905
0.000111028
0.000110119
0.000111065
0.000122961
0.000120609
0.000109907
0.000189895
9.54656e-05
0.00824209
9.26133e-05
0.00998993
0.000113335
9.29455e-05
9.21793e-05
0.00010687
0.000106098
0.000110828
9.73929e-05
9.84684e-05
0.0104611
0.000119422
0.000127634
0.000183647
0.000126215
0.000129989
0.00010187
0.00711993
0.000136177
0.00010708
0.000108593
0.00010871
0.000100666
0.000111228
0.000110707
9.49431e-05
0.0142052
0.0091211
0.00011415
0.0134313
0.000134526
9.38271e-05
0.00826889
0.000136268
0.000128738
9.63863e-05
0.000106187
9.18128e-05
9.88115e-05
0.00862138
0.000147027
0.00010185
0.000103396
0.00192153
9.20931e-05
0.000123603
0.000107656
0.000103856
0.000101164
0.00789016
0.000106698
0.000102927
0.017326
0.000374633
0.000119882
0.000103582
0.00254725
0.000100931
0.00816044
0.000108494
0.000115824
0.000103384
0.000101466
0.000123944
0.000129545
9.80484e-05
0.00034163
0.000134997
0.000103877
0.00806046
0.000103473
0.000101553
0.000112779
0.00862058
0.00013168
0.00018476
0.000110336
0.000134329
0.0198586
0.000146035
0.000143296
0.000116435
0.00914837
0.000136472
0.00667178
0.000106505
0.000162098
0.000217641
0.000107233
0.000110622
0.000106482
0.000134449
0.000110388
9.95503e-05
0.000103371
0.000152438
9.95917e-05
0.000340901
0.000122122
0.00682912
0.000115374
0.000174395
0.0036743
0.000141647
0.00208705
9.91079e-05
0.000137052
0.000100219
0.000162604
0.000106287
0.000103956
0.000107443
0.000129982
0.000104904
0.000108452
0.0171727
9.70327e-05
0.000369694
0.000138094
0.000112453
0.000135998
0.00810705
0.000104176
0.00611783
0.0133033
0.000149203
0.0124864
9.6887e-05
9.83645e-05
0.000114984
9.36996e-05
0.000115369
9.56105e-05
0.00839467
0.0171476
0.00821966
9.66426e-05
0.000122491
0.000111583
0.000111999
0.000109336
0.000386342
0.000106948
0.000107165
0.000111756
0.0118719
0.000142716
0.000120569
0.000136787
0.000103761
0.000121371
0.000129414
0.000207813
0.000117939
0.000100119
0.000115878
0.00376052
9.86488e-05
0.00763311
9.61289e-05
0.000557551
0.000115792
0.000107752
0.000102004
9.86691e-05
0.000116168
9.92734e-05
0.000104333
0.000206602
0.000180654
0.00804013
0.000122473
0.000107249
0.00010806
0.000110944
9.64557e-05
0.000119728
0.0001294
0.0188911
0.000110903
0.000117083
0.000112785
0.000101686
0.000107962
0.000100244
0.000115204
0.000118444
0.000109068
0.000109219
0.0199551
0.000100741
0.000110811
9.92845e-05
0.000113606
0.000105063
9.23103e-05
0.000125084
0.000103994
0.0121634
0.00251038
0.000109816
0.000115491
0.000111726
0.000138728
9.64675e-05
9.93966e-05
9.41275e-05
0.000123139
0.000111845
0.000137863
9.75686e-05
0.000250352
0.000111178
0.000109833
0.00694157
0.000106072
0.000109968
0.000131095
0.000111139
0.00831791
0.000101971
0.000146209
0.000105011
0.000127756
0.000202332
0.000100634
0.000104416
0.00646366
0.000113934
0.00011524
0.00010028
9.71643e-05
0.000119111
0.00170589
9.62566e-05
0.00835535
0.00300975
0.000118772
0.000214707
0.00010082
0.0118901
9.35825e-05
0.00179639
0.0143958
0.000121119
9.90786e-05
9.71731e-05
0.00010127
0.000110168
0.0130455
9.28678e-05
0.000148339
0.000116666
0.000102662
0.00020025
0.0069655
0.000135464
0.019262
0.000101552
0.000104691
0.00907954
9.38041e-05
0.00011973
0.000317303
0.000104192
9.6706e-05
0.000128224
0.00823377
0.000119667
0.0118428
0.0181033
0.000105541
0.000178625
0.000290383
0.000111384
0.000114627
0.000104461
0.000103625
0.000210452
0.000123319
0.000756052
0.000119279
0.000111236
0.000123864
0.0177544
0.000105458
0.000190984
0.00283982
0.00010816
0.00860551
0.00012047
0.0119441
0.000117022
0.00827595
0.000147893
0.000109004
0.000104914
0.00246935
0.000123477
0.000122066
0.000131384
0.000102303
0.00742096
9.6644e-05
9.84423e-05
0.000108096
0.00011882
0.000103372
9.75507e-05
0.00011631
0.000137206
0.00011423
0.000103196
0.000148539
0.000107912
0.00010934
0.000135102
0.000139297
0.000113921
0.000110928
9.70021e-05
0.000124074
0.00792285
0.000106255
0.000107871
0.000104379
0.00822826
0.000100193
0.00834482
9.21167e-05
0.000111975
0.000220645
9.41535e-05
0.00872204
9.20285e-05
9.77358e-05
0.00114889
0.000114708
0.000198814
0.000280393
0.00831351
0.000128305
0.000101045
0.00011058
0.000115191
0.000128909
0.000103674
0.000107779
0.000109281
0.000108544
0.000101845
0.000120554
0.000276813
0.001776
0.0161661
0.000103412
0.00777731
0.000102815
0.000114621
0.000161577
0.000132425
0.000149272
0.0147221
0.000146807
0.000104697
0.00830484
0.000132183
9.37195e-05
0.00248439
0.000106136
0.000121118
0.000104654
0.000102618
9.70117e-05
0.0125517
0.000176294
0.000166412
0.00112221
0.000628846
0.0106264
0.000100717
0.000521869
0.000131947
0.00681397
0.000104597
9.63192e-05
0.00010794
0.000210728
0.000108929
9.38672e-05
0.000111144
0.000114815
0.000108244
0.000123185
0.000216894
9.36662e-05
0.000148528
0.000148373
0.000105969
9.50981e-05
0.000106058
0.000102086
9.26968e-05
0.000108562
0.000109405
0.000132874
0.000106165
0.00119249
0.000100344
0.0147271
0.000105446
0.000106031
0.000164759
0.000127047
0.0203667
0.000116573
9.60477e-05
0.000109717
9.85934e-05
0.000202391
0.000115185
0.00010316
0.000110958
0.000122842
0.000110747
9.66954e-05
0.000106791
0.0120908
0.000111081
0.000113425
0.000112773
0.000105279
9.92741e-05
0.000116407
0.000112721
0.000108684
9.49456e-05
0.000563973
0.000118826
0.000106822
0.000113344
0.000179522
0.000122664
0.000101041
0.000235498
9.08605e-05
0.000116008
0.000104113
0.000110779
0.000109508
0.000113145
0.000107021
0.000106796
0.00880856
0.001028
9.39735e-05
0.000108342
0.000117115
9.55184e-05
0.0022514
0.000112508
9.37582e-05
9.45032e-05
0.000102754
0.000170873
0.000101393
0.000105041
0.000176988
0.000136308
0.014162
0.000128992
9.55162e-05
0.000110042
0.0126006
0.000106078
0.000114704
0.000105142
0.000117221
0.000109893
0.000108048
0.000207895
0.000126206
9.37903e-05
9.56842e-05
0.000100704
0.000145988
9.41711e-05
9.55219e-05
0.0189457
0.00011996
0.000103213
9.31394e-05
0.0109691
9.35858e-05
0.000125257
0.000114867
0.000110706
0.000100913
0.000120119
0.000104625
0.000217888
0.000102609
0.00010885
0.000120907
0.000102439
0.00842971
0.000105774
0.00987849
0.000218577
0.000110998
0.00898798
0.00014679
0.000108047
0.000107271
0.000101244
9.63135e-05
0.000113119
0.000196693
0.000135325
0.000115908
9.79655e-05
9.98842e-05
0.0101306
0.000170117
9.71298e-05
0.000123405
0.000107303
0.000103543
0.0183123
9.74996e-05
0.000116195
9.33078e-05
0.000105795
0.000108235
9.33829e-05
0.000146145
0.000957609
0.0173907
0.000107289
0.000111256
0.000107525
0.000122335
0.000116241
0.000133025
9.43222e-05
0.00797194
9.70108e-05
0.000220635
0.00205883
9.07742e-05
0.000111325
0.000103039
0.00011723
0.0143
0.000717373
0.000103422
0.000116458
0.000105459
0.00951252
0.00013616
0.000106438
9.39595e-05
0.00245638
0.0001089
0.000112707
0.000150472
0.000111876
0.0116737
0.000104397
0.000114665
0.000118634
0.000246337
0.000197921
0.000116946
0.00773448
0.000105058
0.000116447
0.000190084
0.000120804
0.000103734
0.000118895
0.000103385
0.000106941
0.000105951
0.00010984
0.000164782
0.00010294
0.00807963
0.000129265
0.000120937
0.00894091
9.70839e-05
0.000111178
0.000162423
0.000237632
0.000101096
9.24737e-05
0.019485
0.000102526
0.000110647
9.35909e-05
0.000108634
0.000106316
0.000107311
0.0126884
0.000147098
0.000139808
0.00011393
0.000110208
0.000102423
0.00568185
0.000142576
0.000103313
0.00012757
9.45045e-05
0.000145458
0.000124718
0.0100662
0.000104298
0.000113338
0.000107793
0.000112579
0.000147312
0.000107894
9.61142e-05
0.00014744
9.99561e-05
0.000142703
0.000279618
0.000185081
0.00012696
0.00172673
0.000120886
0.000105188
0.00498871
9.60052e-05
0.000111457
0.000133462
0.00820386
0.000251043
9.54924e-05
0.000114419
0.00766246
0.000218663
0.000103379
0.00805962
0.00872299
0.0186267
9.71704e-05
0.000110206
0.000146719
0.000105128
0.000104066
0.000115335
0.000135039
0.000111814
9.74846e-05
0.000108756
0.000271536
0.000137818
0.0161057
0.000101102
9.45664e-05
9.34872e-05
9.94095e-05
0.00011631
0.000101833
9.87811e-05
0.000109518
0.000214325
0.000116497
0.000116394
0.000106995
0.000105466
0.000113408
0.000184167
0.000142011
9.62486e-05
0.000117841
9.9194e-05
9.66949e-05
0.000116055
0.000114544
0.0100943
0.000105942
0.000111093
0.000145277
9.6059e-05
0.000119189
9.2658e-05
9.84331e-05
9.68564e-05
0.000113598
0.00281499
0.000100489
0.00102927
0.0199619
0.000323594
0.00852743
9.70017e-05
0.000112544
0.000193296
0.0145703
9.71907e-05
0.000148334
9.8663e-05
0.00011735
0.000106093
0.0169253
0.000100326
0.000117196
0.000129832
0.0134898
0.000110663
0.00216261
0.000187231
9.37521e-05
0.000104658
0.000110474
0.000105563
0.000105372
0.000817777
9.71532e-05
0.00011314
0.000133634
0.000110465
0.000124357
0.000111759
9.94788e-05
0.0165042
0.000108326
0.0111564
0.000105429
0.000110296
0.0157877
0.00909761
0.014891
0.000103572
0.000106308
0.000119953
0.0191485
0.00143384
0.000124135
0.000111921
0.00107498
0.00011492
0.00013433
0.000105288
9.65659e-05
0.000104259
0.000114073
9.39325e-05
0.000181573
0.000104578
9.85671e-05
0.000110753
0.000112636
0.000108579
0.000848227
0.000167741
0.000118221
0.0154356
0.000111794
0.000115366
0.000101317
0.000218721
9.48925e-05
9.47253e-05
0.0220232
0.000111113
9.67915e-05
0.00012296
0.000102654
0.00010583
0.000110509
0.000100729
0.0139481
0.000104431
0.000111011
0.000110881
0.00991523
0.00992591
0.000116916
9.81703e-05
0.000108561
0.009532
0.000127393
0.000106262
0.0127992
0.000147261
0.000182904
9.94999e-05
0.000147165
0.00012279
0.000119811
0.00640393
0.000217526
0.00011576
9.82716e-05
0.00162881
0.000116135
0.0104827
0.0168253
0.00794306
0.00010198
9.98683e-05
0.00010453
0.000101352
0.00911293
0.000111242
0.000153201
0.000100527
0.000114355
0.000130494
0.000124893
0.00896284
9.48134e-05
0.000106529
0.000105386
0.000115487
0.000112909
0.0101736
0.000102376
0.000105794
9.2838e-05
0.000143475
0.00869877
0.000100789
0.0093016
9.3799e-05
0.000139951
0.000107836
0.000105821
0.000122769
0.000108834
0.000105117
0.000103096
0.00011861
0.000114634
0.000132383
0.000150768
0.000103261
0.000109973
0.000111533
0.000101108
9.92867e-05
0.000145713
0.010371
0.000129501
0.000104552
0.000100251
0.000103353
0.0110225
0.000110954
0.00228993
0.00263383
0.000116855
0.000114676
0.000111172
0.000112002
0.00978839
0.000125354
0.00158045
9.91526e-05
9.09031e-05
0.000108766
0.000108045
9.97448e-05
0.000175288
0.000105383
0.00668861
0.00021899
0.000119811
0.0135115
0.000118506
0.000148396
0.00010207
0.00010226
0.000139915
0.000169529
0.000104312
0.00011167
0.000108542
9.97487e-05
0.012164
0.000110949
0.00010392
0.000112677
0.00010111
0.00464285
9.69879e-05
9.7175e-05
9.90411e-05
0.00010447
9.22573e-05
0.000105863
9.61575e-05
0.000102521
0.000105619
0.000102705
0.000117304
0.000910502
9.51689e-05
0.000111352
0.000286549
0.00012809
9.59456e-05
0.000148425
0.00010343
0.000103325
0.0205495
0.00013317
0.000100467
0.000104189
0.000170849
0.000121873
0.000103461
0.000104421
0.00010066
0.000105454
0.000110395
0.000126343
0.000242217
0.000130644
0.00697582
9.55873e-05
9.77631e-05
9.52548e-05
0.00909498
0.000125005
9.97841e-05
9.99862e-05
0.00019188
0.00014438
0.000115208
0.000105324
9.98126e-05
9.79244e-05
0.000131397
0.000113479
0.000128653
0.000278433
0.000111453
0.000101172
0.000124804
0.00953633
9.63168e-05
0.000101413
0.00013706
0.000115202
0.00165068
0.0115973
0.000118593
0.000113754
9.44074e-05
9.69522e-05
0.000111872
0.00871696
0.00901896
0.000108853
0.00010443
0.000102369
0.000260105
0.00013385
0.000190131
0.000207888
0.000107571
0.00029748
0.000106145
0.00132961
0.000137941
0.000140226
9.95272e-05
0.00014442
0.000122504
0.000142889
0.000101624
0.0098605
0.000105813
9.82387e-05
0.000148499
0.0182238
0.000104284
0.0142551
0.000115525
0.000117213
0.00012218
0.000111603
0.000103331
0.000111929
0.000198394
9.25529e-05
9.59079e-05
0.000115617
0.000116821
0.000144232
0.000101392
0.0115477
0.000100033
0.000109904
0.000119814
0.000137743
9.6695e-05
0.000110022
0.00915362
0.000102635
0.000107086
0.000103638
0.000186062
9.20095e-05
0.000103808
0.000151858
0.0125511
0.000103092
0.000116448
0.000128118
0.000158732
9.47251e-05
0.000111228
0.000110555
0.00202451
0.000181361
9.67798e-05
0.000114099
0.000128734
9.74671e-05
0.000166157
0.00011431
0.0080123
0.000131764
0.000101535
9.85964e-05
0.000105189
0.000110393
9.9823e-05
0.000108121
9.76888e-05
0.012312
0.00010284
0.000111399
0.000183342
0.000103118
0.000112308
0.000111166
0.000100508
0.00015469
0.000102599
0.000112868
0.000126581
0.000124467
0.000112894
0.000111822
0.0188956
0.00012698
0.000100794
0.000113266
0.000109506
0.000110291
0.00918137
0.000110059
9.67537e-05
0.000214165
0.000121386
0.000109993
0.000152316
0.000116715
0.000108032
0.00017027
0.000125882
0.00877934
0.000108475
0.000107206
0.000102391
0.00986544
9.09088e-05
0.000110863
0.00100426
0.000129794
0.000234502
0.000108416
0.000102187
0.0137302
0.0153002
0.0146509
0.000106977
0.000140934
0.000105569
0.000840935
9.86235e-05
0.0230504
0.000115443
0.000109155
0.000538589
0.000100537
0.00012413
0.000105537
0.000110976
0.000113341
0.000116973
0.000109808
0.000273872
0.000134471
0.000102898
0.000928168
0.000107743
0.000131839
0.00011534
0.000110323
0.000120067
0.000431035
0.000132478
0.000375945
0.000109816
0.000197266
0.00734416
9.47977e-05
0.0122173
9.72056e-05
9.43705e-05
0.000100854
0.00010725
0.000124739
9.97075e-05
0.000127699
0.000104049
0.00016697
0.000107129
0.000620305
9.74665e-05
0.00010551
0.00010473
0.000104217
0.000150882
0.0114728
0.000106053
0.000102622
0.000143078
9.07469e-05
0.000103554
9.7747e-05
0.00744338
0.000102775
0.000105815
0.000105199
0.000100645
0.0203856
0.0193444
0.000109292
0.0127189
0.0132883
0.00011004
0.00653814
0.000111774
9.48777e-05
0.00121824
0.000100067
0.00586979
0.000106951
0.000202505
0.000104301
0.000107615
0.00574121
0.00794866
0.00010645
0.000103057
0.000102002
0.000190685
0.000108079
0.00723033
9.80703e-05
0.0019506
0.00692793
0.000106294
0.00918898
0.000129979
0.0163714
0.000105919
9.95165e-05
0.000106884
9.51835e-05
0.00012587
0.0113
0.000112713
0.000106893
0.000108952
0.000108736
9.42792e-05
0.000123091
0.000226447
0.000105032
9.84036e-05
9.92289e-05
0.000102637
0.0154386
0.00011673
0.0219906
0.00037598
0.000100673
0.000112271
0.000121781
9.9082e-05
0.00725772
0.000102775
0.000120093
0.000130126
0.000101548
9.77319e-05
0.000185312
0.000103731
0.000102546
0.000124794
9.54997e-05
0.000112466
0.000111736
9.69624e-05
0.000116326
0.00011002
0.000184595
0.000146015
0.00741464
9.43616e-05
0.0138625
0.000104224
0.000199963
0.000100173
0.000105587
0.000155889
0.000108237
0.000499289
0.000644719
0.000124635
0.00012992
0.00019564
0.000125423
0.000110641
9.89038e-05
0.000237528
0.000105269
9.92469e-05
0.000113968
0.000110171
0.000136722
0.000103652
0.000107173
0.000108207
0.000109422
0.000125272
0.023519
0.000121318
0.000119603
0.000135338
9.36819e-05
9.08439e-05
0.00013646
0.000106826
0.000110629
0.000104402
9.4885e-05
0.000104683
0.000103178
0.000126068
0.000126913
0.0120178
0.000107549
0.0110423
0.000129169
9.58114e-05
0.00950231
0.000107853
0.00012685
9.84043e-05
9.89145e-05
9.90905e-05
0.000107163
0.000115915
0.00010127
0.000108616
0.000104858
0.010844
0.000100397
0.00766892
0.00694655
9.20233e-05
0.000104108
0.0128115
0.000149306
9.3473e-05
9.11106e-05
0.000103977
0.000106826
0.000125342
9.58278e-05
0.000231935
0.000110754
0.00010335
9.95857e-05
0.000132238
0.000130739
0.000162186
0.000109964
9.92971e-05
0.000102379
0.000116124
9.75514e-05
0.000130529
0.000149693
0.000101342
0.000102244
0.000150482
0.000142653
0.000117916
0.00010058
9.81865e-05
0.000111486
0.00163506
0.00010246
0.0123602
0.00014725
0.000102787
0.000141959
0.000124876
0.000105966
0.000163353
0.000144794
0.012007
0.000103415
0.000199646
0.000122404
0.000308665
0.000420629
0.010068
0.000143982
0.00011124
0.000100268
9.99279e-05
0.000162825
0.0153713
0.000678917
0.000103712
0.000160306
9.93323e-05
0.0140086
0.000111162
0.000161747
0.000124119
0.000100783
0.000138248
0.000105447
0.000103833
0.000114941
0.000123588
0.000105533
0.000113525
0.000110318
0.0173874
0.011804
9.51694e-05
0.000106523
0.000115037
0.000104675
9.69956e-05
0.000104299
0.000103105
0.000100051
0.000153116
9.35317e-05
9.50829e-05
0.000114941
0.000113461
0.000100962
9.9364e-05
0.000104771
0.000102931
0.0103798
0.000112817
9.91774e-05
9.45469e-05
0.000115394
0.000338197
9.65925e-05
0.000105228
0.000143997
0.000130749
0.000102256
0.0129681
0.000109661
0.000119234
0.000216852
0.000146947
0.000163382
9.57293e-05
9.87907e-05
9.7817e-05
0.00014389
0.000106945
0.0122504
0.00010323
0.000112518
0.000110488
0.000102506
0.000117239
0.000275349
0.000104502
0.000124276
0.000116796
0.000123677
0.000103377
0.000129485
9.87398e-05
9.69628e-05
0.000215039
0.00017698
0.0147798
0.000105697
0.000125347
0.000106973
0.0100583
0.000105342
0.000108675
0.000101607
9.66125e-05
0.0001702
0.000108728
0.0100135
9.39392e-05
0.000114354
0.000105282
9.83343e-05
0.000903687
9.81603e-05
0.000112066
9.71415e-05
0.000101527
9.99001e-05
0.000116513
0.000107532
0.000118831
0.000101419
9.7718e-05
9.54551e-05
9.48513e-05
0.00011608
0.000103938
0.00836346
0.000487897
0.000176321
0.00924156
0.000114595
0.00011097
0.000100334
0.000153237
0.00875002
9.83858e-05
0.00409199
0.000117312
0.000111872
0.00908189
0.019407
9.76458e-05
0.000108815
9.7277e-05
0.00913265
0.000100414
0.00010737
0.000204741
0.00219558
0.000625835
0.00213419
0.000101332
0.000110897
9.34081e-05
0.000145175
0.000150768
0.000110974
0.000103099
0.000102834
0.000212403
0.000111152
0.0129742
0.000103256
0.000110295
0.00921081
0.0108241
0.000126845
0.000116086
0.011572
0.000197081
0.000172068
0.000599008
0.00625003
9.94126e-05
0.000123841
0.000100693
0.000117008
0.000111975
0.000119099
0.000117633
0.0123664
0.000111047
0.000155681
9.78895e-05
0.000103223
0.0076562
0.00016231
0.010894
9.51075e-05
9.5018e-05
0.0100966
0.000853136
0.000241894
0.000127756
0.000114707
0.00010031
0.000135438
0.000101625
0.000122681
0.000118626
0.0125545
0.000105544
0.0207143
0.0152926
0.00014141
0.000100867
0.000119129
9.70145e-05
0.00133724
0.000200578
0.000106753
0.000106556
0.00013737
0.000197555
9.65494e-05
0.000131376
0.000126305
0.000102785
0.000104092
0.000146182
0.0111476
0.000137642
0.000133452
0.00776022
0.000111499
9.21882e-05
0.000104477
0.00792115
0.00247051
0.00803389
0.000110475
0.000122767
9.53988e-05
0.00015793
9.23538e-05
0.00805641
9.78391e-05
0.000102148
0.000131289
0.000121936
9.44034e-05
0.000115183
0.000104654
0.000112061
0.0147975
0.000122007
0.000113978
0.000110038
0.000141584
0.000116142
0.000109651
0.00812824
0.000149335
9.78918e-05
0.000158141
9.2563e-05
0.000119201
0.000155895
0.000165667
9.52284e-05
0.0164125
0.00105088
0.000111046
9.39374e-05
0.000118109
0.000139805
0.000110516
0.000136615
0.00015879
0.000122963
0.0101263
0.000124024
9.89152e-05
0.000112772
0.00012235
0.00826184
0.000111338
0.000381835
0.00010449
0.000370805
0.000182625
0.000105515
0.000102214
9.49194e-05
0.0141843
9.10449e-05
0.000115421
0.000118056
0.0001888
0.00878813
0.0173127
0.000129445
0.000104005
0.012168
0.000100828
0.000170746
0.00419541
0.000180674
0.00919941
0.000116035
0.000110261
0.000169436
9.80488e-05
0.000108464
0.000117435
0.00957948
9.8387e-05
0.000177749
0.000124782
0.000100517
0.00232886
0.000113358
0.000129086
9.54743e-05
9.25897e-05
0.000148551
0.0162813
0.0170006
0.000113438
9.82685e-05
0.000137979
0.000110013
0.000113739
0.000105894
0.000217791
0.0150089
0.000130329
0.000275442
0.000103673
0.0082691
0.00863125
0.000107253
0.000105696
0.000175808
0.000146341
0.00011167
0.000109975
0.000142513
0.00874935
0.000119502
0.000161351
0.0154617
9.33504e-05
0.00875779
0.00281324
0.00892368
0.000105755
0.000124734
0.000100952
9.57541e-05
0.000111425
0.000148441
9.82391e-05
0.000114827
0.000165569
0.000117568
0.0193784
0.000106912
0.000177489
0.000100466
9.45082e-05
0.000593138
0.000106564
0.0108825
0.000105762
0.000112235
0.000110983
0.000106745
0.00010746
0.000101559
0.00010269
0.0059531
0.000171459
0.000111073
0.000107101
0.000118034
0.0108778
0.000110735
0.0206518
0.000116543
0.000313701
0.000110178
0.000106768
0.000526019
0.000101954
9.59686e-05
9.91724e-05
0.000147212
0.00054077
9.72297e-05
0.000108996
0.00828775
0.000130599
0.00847277
0.0094575
0.000110544
0.000109503
0.0190373
0.0067763
0.000106229
0.00956784
0.000103975
0.000129479
0.000110878
0.0221127
0.000102448
0.000112315
0.00676433
0.000125344
0.000106942
9.85507e-05
9.71823e-05
0.00101667
0.0198609
9.9029e-05
9.99553e-05
0.00010627
9.90285e-05
0.00643238
9.92308e-05
0.000101067
0.00632583
0.000109967
9.68477e-05
0.000125262
9.76904e-05
9.45817e-05
0.000110254
0.000132598
0.000105341
0.000105878
0.00711967
0.000188964
0.000102981
0.00650128
0.000122775
9.55596e-05
0.00364619
0.000138892
0.000119036
0.00019915
0.00011698
0.000106047
0.00010507
0.000134467
0.000125303
9.69749e-05
9.94091e-05
9.95827e-05
0.00770231
0.000146478
0.000112236
0.000111433
0.00023829
0.000885914
0.000112368
0.00710291
0.00548323
0.000631272
9.69294e-05
0.000432454
0.00696422
0.000109138
0.0056077
0.000360512
0.000113688
0.00634275
9.95423e-05
0.000100926
0.00727685
0.000104459
0.000288809
0.000239661
0.00757407
9.50342e-05
0.000111237
0.000147361
0.000325198
0.000107875
0.000111256
0.0113193
0.000101871
0.000110648
9.72795e-05
0.000119015
0.000135817
0.000245106
9.81203e-05
0.000100274
0.000121845
0.000182556
0.000113747
0.000108749
0.000101268
0.000131168
0.000110005
9.31996e-05
0.0125157
9.42883e-05
0.000260002
0.000104754
0.000123095
0.000126757
9.84373e-05
9.1502e-05
9.89979e-05
0.000111903
0.000103579
0.000127357
0.000180658
0.000105187
9.80424e-05
0.00010959
9.78553e-05
0.000110151
0.000107838
0.000137199
0.0123903
0.000118245
9.47547e-05
9.068e-05
0.000186909
0.000146076
9.54067e-05
0.000108639
0.000112331
0.000482343
0.00837372
0.000110408