/*--------------------------------*- C++ -*----------------------------------*\
| =========                 |                                                 |
| \\      /  F ield         | OpenFOAM: The Open Source CFD Toolbox           |
|  \\    /   O peration     | Version:  v2012                                 |
|   \\  /    A nd           | Website:  www.openfoam.com                      |
|    \\/     M anipulation  |                                                 |
\*---------------------------------------------------------------------------*/
FoamFile
{
    version     2.0;
    format      ascii;
    class       volScalarField;
    location    "250";
    object      ddt0(k);
}
// * * * * * * * * * * * * * * * * * * * * * * * * * * * * * * * * * * * * * //

dimensions      [0 2 -3 0 0 0 0];


internalField   nonuniform List<scalar> 
13726
(
3.06455e-08
5.56071e-06
4.06003e-08
-3.05475e-08
5.96724e-06
5.48204e-09
9.81998e-09
1.43182e-08
-3.6033e-06
8.51114e-08
-5.03728e-06
-3.24104e-09
-2.45961e-09
2.15129e-05
-1.88167e-08
5.72318e-09
9.05264e-07
-2.03219e-08
-4.93911e-05
-0.000111033
-0.000543523
5.1419e-09
-3.62644e-08
1.07446e-08
3.49922e-10
-1.19663e-09
3.28536e-08
-3.12019e-09
-6.80209e-09
2.86179e-05
-0.0002359
1.21329e-08
5.95914e-05
-3.50043e-08
-9.19971e-05
-5.82582e-05
2.95063e-09
8.3526e-06
2.705e-08
7.80005e-09
-0.000151112
-7.94639e-05
2.70518e-09
-1.33283e-08
2.2081e-08
-2.84602e-08
0.000447577
-3.29256e-09
1.47256e-07
-4.50232e-10
4.67082e-05
3.6395e-10
2.07934e-06
-4.79353e-08
-2.22676e-08
1.65373e-08
5.35447e-07
2.58713e-06
7.80629e-08
-4.15032e-08
-8.18619e-05
1.14468e-08
-1.72869e-05
-2.71253e-09
7.86459e-06
4.40782e-09
-0.000603635
9.32611e-06
2.0325e-09
3.42592e-06
0.000438407
2.05922e-08
1.70853e-10
-1.55208e-08
-3.32355e-05
2.75522e-06
2.87294e-06
4.5225e-05
-1.31308e-05
-5.04833e-07
-2.41182e-05
1.1466e-07
-8.30194e-08
6.19696e-09
1.47792e-08
-1.57128e-05
-2.13251e-06
-3.43702e-08
-2.57128e-09
0.000148727
-7.37169e-08
8.68543e-07
-4.8541e-08
-2.78454e-08
-1.22638e-05
6.2108e-05
8.26512e-08
-2.42673e-09
3.86755e-08
-6.4262e-05
4.06502e-08
1.02283e-07
2.14447e-06
1.11884e-08
1.75129e-05
-2.78287e-06
-3.34562e-07
-1.18216e-08
-9.26384e-09
6.21764e-08
5.31284e-08
1.77162e-09
-0.000124992
6.95728e-05
4.45575e-05
1.6309e-09
0.00031131
8.14879e-05
1.96342e-06
1.69378e-08
1.38691e-05
-1.23226e-09
2.63611e-08
-4.59155e-05
-0.000152203
2.31993e-05
9.41612e-08
9.60997e-07
-8.30305e-09
-1.61654e-08
-6.51451e-05
-0.000213668
-3.80762e-09
1.95334e-07
2.9437e-05
3.48975e-06
7.36472e-06
-0.000133626
-8.35475e-05
-9.9395e-05
6.81459e-08
3.31612e-05
9.31903e-09
-2.66857e-09
6.77274e-09
-3.23311e-08
7.19455e-05
-7.54081e-08
-3.8965e-08
-3.06034e-05
2.913e-08
-1.29381e-08
2.40183e-07
-5.83813e-08
-4.75163e-09
-1.32334e-08
-1.53999e-07
9.96429e-06
-1.02506e-05
-2.47619e-10
1.00525e-09
-1.61782e-09
-1.60372e-05
4.35214e-05
1.62373e-09
2.40325e-05
-8.97689e-05
3.8672e-09
5.05406e-08
-3.01648e-09
-4.78111e-08
2.71618e-08
-3.0303e-05
-2.7285e-08
4.5102e-05
-6.05061e-06
-7.25693e-09
-0.000173319
-0.000170289
-4.45004e-09
-6.16691e-06
1.75338e-08
2.68766e-05
3.02879e-06
-3.27468e-09
-9.47554e-09
-1.55696e-09
6.34474e-08
-3.95826e-08
-4.88184e-08
8.71274e-05
0.000216117
2.97381e-05
3.06825e-05
9.09128e-09
3.67353e-09
3.45784e-09
-0.000244
0.000261225
1.32501e-08
-1.39097e-05
-0.00016336
2.52841e-05
3.25755e-08
7.0013e-09
4.62875e-09
-1.00912e-08
-1.11369e-05
-5.60744e-09
3.81916e-07
2.50499e-06
-1.50593e-05
2.48906e-05
-2.96763e-09
4.54588e-05
-8.67556e-06
1.28473e-08
-3.54876e-09
3.85846e-08
2.2115e-06
5.6193e-08
8.84887e-08
-7.96706e-05
-6.30968e-05
1.19674e-08
-0.000150019
-1.76339e-05
5.09369e-05
0.000160559
3.60379e-08
-2.71392e-05
-1.63546e-05
2.59598e-05
5.69933e-05
3.57459e-08
-9.60623e-10
-6.80914e-06
0.000122671
-0.000111203
-0.000148442
-1.06356e-08
1.27696e-08
-1.6484e-08
-1.66035e-05
-0.000133321
-4.29041e-05
7.56409e-08
-1.17287e-08
-2.33605e-09
1.14205e-06
-0.000120214
5.48172e-09
7.30809e-05
2.74796e-08
-5.31324e-08
1.08395e-05
2.0281e-08
2.12717e-05
3.16377e-05
3.37163e-08
3.10503e-05
-5.8865e-06
-6.64972e-08
-7.77568e-10
4.22526e-05
-0.000172775
1.25944e-08
-4.22652e-09
3.28827e-10
-1.14425e-07
-3.96898e-05
2.02241e-08
-2.97881e-05
4.04748e-08
-3.17725e-05
-7.01258e-05
-5.89279e-05
0.000417001
-4.09797e-08
1.41403e-08
-0.000158848
-2.77227e-08
-2.23376e-05
-4.1701e-08
2.7443e-05
-3.13864e-09
4.78301e-07
-0.000898403
4.68567e-08
3.45428e-09
1.97193e-05
-2.05648e-08
-4.3204e-09
2.91832e-05
-1.19662e-05
2.90953e-08
6.23791e-06
2.41716e-08
-0.000235181
2.15019e-09
0.000238125
-7.53767e-05
-2.74699e-07
-1.08416e-08
-1.96215e-08
3.04171e-06
4.63784e-05
-4.93482e-05
1.33733e-06
-5.33688e-08
-0.000235947
-0.000118666
-0.000207195
1.81774e-05
1.40621e-08
3.03082e-05
8.0481e-09
-1.59992e-05
-0.000139038
-1.59331e-05
-0.000442366
2.45899e-06
5.08944e-09
-1.9565e-08
3.07497e-05
9.14821e-09
3.82538e-08
-0.000181014
-2.37903e-08
-2.28422e-05
1.50337e-06
-2.71606e-06
-7.66497e-09
1.6129e-09
-1.28977e-07
2.51996e-08
-5.76523e-09
3.04152e-08
7.56729e-09
-1.35078e-07
-0.00151029
1.83177e-05
4.90485e-05
4.96242e-06
1.55426e-06
-4.01629e-07
4.19428e-09
1.09305e-08
3.36042e-05
-2.85703e-08
1.87181e-05
2.05263e-05
-2.78627e-05
6.41082e-08
-5.25909e-08
4.16331e-08
-1.37775e-08
3.9886e-05
9.73098e-08
5.27504e-08
1.22991e-09
-7.59566e-10
-8.06687e-05
-2.96037e-08
-7.63219e-08
-1.46386e-05
9.09309e-07
-4.44349e-08
-1.3532e-09
-1.33111e-07
8.79139e-06
-3.23798e-09
4.01879e-08
3.7672e-08
9.82157e-05
-8.02116e-10
8.16383e-09
0.000330878
5.93799e-08
-3.45974e-07
1.6806e-08
2.33003e-10
-1.14249e-08
2.47931e-05
0.00022767
-0.000185875
0.000146446
7.09675e-08
2.82535e-08
6.7354e-08
-1.64112e-08
2.76243e-08
1.83293e-08
7.29138e-09
2.03033e-09
-5.74293e-08
-4.26113e-05
2.03139e-05
-6.19987e-08
-4.50422e-09
-2.45332e-08
-5.3631e-10
-3.5777e-08
-1.0947e-07
-5.21452e-08
4.52372e-08
-5.50342e-08
7.01692e-08
-1.4867e-05
0.000432709
-7.56848e-06
-4.45196e-08
-0.000461679
-0.000333261
0.000118757
-6.40231e-08
-7.24304e-05
7.83079e-05
1.15619e-05
3.9438e-05
0.000173418
3.03554e-05
4.2062e-09
-3.7857e-07
-2.41665e-05
-2.48822e-09
-2.49112e-05
1.74152e-08
-1.03162e-08
-1.51794e-07
-0.00019255
-0.000142081
-1.37011e-05
-0.000122777
1.32436e-07
-1.38359e-08
-8.02994e-09
-5.32185e-09
-8.3425e-09
-5.71322e-07
1.18911e-09
-2.09127e-05
-1.29985e-08
0.000402388
7.45027e-06
1.94895e-09
-2.41869e-05
7.20481e-09
4.39969e-09
7.80406e-06
-6.04999e-09
2.38263e-05
2.08553e-05
-6.59144e-10
-2.88294e-05
2.27534e-09
-8.33714e-05
-2.93646e-05
6.68111e-09
-5.3316e-08
7.54855e-08
-2.75158e-05
-8.10133e-08
3.53498e-05
-3.9238e-05
1.2288e-07
-3.34631e-05
-1.90312e-05
-3.23455e-10
-0.000164319
1.43482e-07
1.1959e-08
-9.3036e-09
-1.63082e-08
-6.90109e-05
-6.09136e-09
-0.000171412
0.000187354
-1.05184e-05
5.69902e-08
0.000310777
2.29851e-10
-1.50096e-09
-1.31264e-05
3.05172e-09
-8.75694e-09
1.34487e-08
-5.66744e-09
-6.8868e-05
-7.44294e-05
-4.84177e-08
-1.9483e-06
3.23884e-07
-4.65352e-05
2.90451e-05
-2.46847e-08
1.03133e-07
6.77547e-05
3.0342e-05
1.09741e-08
-3.72283e-09
-0.000427857
2.26202e-07
-3.53847e-07
2.63519e-08
-1.7952e-08
-0.000103725
-2.77663e-06
3.32079e-09
2.77182e-08
3.69905e-08
-1.92425e-05
-3.46445e-09
7.07597e-08
-2.60974e-09
0.000132377
-2.95247e-06
2.98506e-08
-2.54747e-09
2.28039e-08
5.41894e-08
4.74716e-07
-2.31665e-05
0.000141346
2.34796e-07
-3.1713e-07
7.74082e-05
-1.15582e-06
8.21183e-09
0.000909128
5.07545e-08
7.73777e-08
5.10525e-05
-1.36614e-08
0.000388892
-6.74321e-08
1.40545e-07
-2.44044e-05
-4.60886e-08
5.66813e-08
-5.05715e-06
-3.26354e-09
-1.44579e-07
-4.21562e-08
-3.32e-06
-2.26647e-05
5.37234e-08
6.88679e-09
0.000290658
-5.80776e-09
-3.07662e-08
-0.000228375
1.58037e-08
5.41546e-05
5.72117e-08
-3.60094e-09
4.46841e-09
1.31929e-05
0.000463798
5.05031e-05
3.95924e-05
-3.2781e-08
-5.55297e-05
-3.72195e-08
-0.000135647
0.000211727
4.39731e-08
-8.83679e-10
-0.000128897
1.28109e-07
1.06364e-05
-8.69117e-09
6.68604e-09
-0.000154645
2.54513e-09
-1.92344e-05
-2.48044e-08
-1.49107e-08
-1.01898e-06
2.63353e-06
6.81926e-05
3.43359e-05
1.75086e-08
-1.83107e-08
-0.000168489
3.28807e-10
-6.26696e-05
0.000151957
-1.20665e-08
9.79179e-05
1.10673e-07
8.67189e-08
7.16486e-10
-3.10972e-10
-1.1988e-05
1.94933e-08
-8.3784e-05
-1.72094e-08
6.60292e-05
1.2881e-05
4.14689e-08
3.1321e-08
-1.28615e-08
-2.48877e-08
5.55692e-09
-1.2634e-05
-2.80225e-05
0.000506196
-3.69662e-08
0.000232676
4.9771e-05
-7.12914e-05
-5.06968e-08
-0.000232049
-2.23679e-05
-5.22603e-08
4.24751e-08
6.73549e-09
-5.80981e-05
1.0899e-07
3.84459e-09
1.22609e-07
-6.40275e-05
-0.000129517
-1.54612e-07
-1.32779e-09
-5.09551e-08
1.20791e-08
1.11349e-08
1.45495e-09
1.72277e-05
7.79449e-09
2.15977e-05
2.78392e-08
1.61009e-05
-6.9651e-08
-6.32192e-09
2.80055e-05
-4.42801e-06
2.63211e-08
0.000414301
-4.61046e-08
-9.50436e-08
-4.50681e-06
1.72564e-06
0.000149692
6.16735e-08
7.45553e-06
-1.2052e-05
-3.09061e-08
1.26015e-06
-4.61194e-08
-3.70308e-05
-1.1636e-08
0.000628727
-1.63928e-08
6.87386e-09
-3.43148e-08
9.79243e-05
-6.81924e-09
-1.68596e-08
2.00617e-08
-0.000109813
0.000439067
8.85675e-06
1.76377e-09
1.1378e-08
6.18111e-05
7.10278e-05
-8.20943e-09
-1.65987e-05
4.01574e-06
-0.000106883
7.87969e-06
4.79315e-06
-1.80752e-07
2.90248e-05
-3.00635e-09
1.45071e-08
4.52922e-05
1.66839e-08
-3.31004e-08
-8.6118e-06
4.90443e-05
4.1572e-09
-8.36475e-09
-3.81975e-08
-1.17e-08
0.000336497
3.97884e-08
-4.31094e-09
1.59069e-08
1.85961e-09
-1.36166e-08
-9.02676e-09
-8.1091e-09
9.4814e-09
-0.000134674
-8.32204e-09
-9.33133e-08
9.59144e-06
2.65638e-08
2.33087e-08
6.15467e-08
-1.53969e-10
-1.49614e-07
4.6818e-08
-1.886e-05
-1.32737e-08
4.19838e-08
-2.83205e-08
7.19028e-06
-3.14191e-05
8.33349e-08
-3.3468e-08
-2.93236e-08
4.75532e-08
-1.5049e-08
3.06827e-06
4.1955e-08
-9.71992e-09
-0.000150021
-0.00019478
0.000620115
-4.96963e-05
-8.29502e-09
2.81128e-05
4.79285e-09
-1.91554e-09
1.9024e-09
6.12267e-09
2.85115e-05
1.44314e-07
0.000286772
-5.84496e-08
0.000134663
-7.78169e-05
-9.59519e-05
3.49879e-05
6.30178e-08
-6.0735e-08
4.64941e-08
-3.9664e-08
1.03369e-06
-6.92691e-05
-8.9791e-05
2.59717e-07
-2.61813e-08
-1.41561e-08
-0.000142814
-2.66864e-08
5.81565e-10
-1.13276e-08
-2.39488e-08
-5.16965e-05
-9.17227e-07
-1.58978e-08
8.192e-09
-0.000208309
-2.00371e-05
3.31488e-08
-2.37559e-06
2.17161e-05
4.79695e-08
-0.000484885
2.58749e-05
6.76388e-05
5.63601e-10
-4.59769e-09
-1.6386e-05
-1.08403e-09
-1.16394e-05
7.95599e-09
-5.28578e-08
6.96802e-07
-5.51372e-09
9.35333e-08
-2.496e-05
-7.14209e-09
-4.68991e-09
4.56543e-08
-4.41664e-06
-5.18454e-09
-3.03419e-06
0.000377145
9.39619e-09
-5.92887e-09
-6.8157e-09
0.000299626
-1.87324e-09
-0.000236246
-0.000251951
-3.8235e-05
-5.44132e-05
-4.07831e-05
-0.000152694
-7.3294e-05
-1.06362e-08
5.69681e-08
0.000223767
-1.03711e-09
-7.53184e-05
8.49633e-05
0.000102491
-4.46382e-09
2.41425e-08
1.73699e-08
-0.000622517
9.25667e-09
8.22068e-05
-0.000456787
-0.000293644
-7.32908e-05
-2.30494e-05
1.16157e-05
-3.75373e-09
-0.000141118
-4.03671e-08
3.04958e-05
3.62873e-09
3.88448e-07
3.51307e-10
4.54661e-06
7.46646e-08
-1.66876e-07
-7.3676e-08
4.66697e-08
2.36699e-09
7.11474e-05
3.35059e-09
6.58734e-09
2.87767e-05
1.28146e-07
2.48212e-08
4.47512e-09
2.2096e-05
-1.56789e-08
2.22438e-08
1.07026e-07
-4.91605e-10
-6.73833e-09
8.74233e-09
4.83928e-05
1.8029e-09
-2.29446e-09
2.86451e-06
-6.91097e-05
-1.13324e-08
1.72134e-09
0.000346805
-1.99009e-05
-1.14294e-07
-1.70616e-09
7.09057e-05
7.37315e-05
-5.85441e-06
4.38665e-06
1.272e-05
-1.96673e-08
2.2875e-08
1.07065e-07
-1.79677e-09
-2.63008e-08
-3.69591e-06
9.32423e-08
-9.91289e-05
-6.8782e-10
3.53178e-07
1.5095e-08
-6.87753e-09
2.61318e-06
-1.78938e-05
7.6388e-09
-4.5303e-08
-5.93606e-07
-5.54182e-10
4.29418e-08
-4.03286e-09
-4.17263e-06
0.000166442
5.37125e-09
1.8307e-08
-3.9897e-08
4.77246e-09
3.27117e-05
5.38763e-08
5.83997e-09
1.07715e-05
3.40212e-08
-3.03279e-07
2.02908e-08
0.000229865
-0.000299262
-3.08419e-08
-6.12807e-08
7.11334e-07
0.000235368
-3.01859e-08
-4.70961e-06
-2.24325e-05
-0.000598422
-0.000143056
-0.000127562
-1.18487e-05
2.211e-05
0.00056072
-8.58448e-10
-1.59721e-09
3.43987e-05
-3.90963e-09
4.03656e-05
-6.145e-09
2.093e-07
3.93053e-05
-2.03081e-08
2.78651e-05
-1.60709e-05
-0.000301737
1.90747e-08
2.84755e-09
-4.63537e-09
-1.8509e-06
2.16295e-05
5.47093e-10
0.000486745
3.25857e-08
5.67442e-07
2.89382e-07
4.29019e-06
0.000530264
-2.33854e-08
0.00025704
-5.63135e-09
-4.30452e-09
-1.67203e-08
-0.000128492
-1.40903e-07
-5.92391e-08
-0.000494119
7.17964e-09
-0.00027672
-3.63419e-09
-0.000199031
2.00774e-05
7.25006e-05
4.75297e-10
2.05166e-09
1.36067e-07
2.07903e-08
-6.32685e-06
1.44939e-05
3.00249e-10
6.64158e-08
1.14887e-07
-3.25891e-05
-0.00012388
-2.86258e-09
-0.000197468
7.69843e-09
-1.24183e-09
0.00045201
-0.000474098
7.99267e-05
2.5786e-08
-7.47998e-05
1.22802e-07
-5.62834e-05
7.50085e-05
-4.1256e-05
9.07477e-05
-3.40557e-08
-0.000168603
1.19458e-05
0.000208492
4.07942e-05
-2.59623e-09
-0.000151372
8.70224e-08
-1.50843e-07
-7.98038e-09
-1.13098e-08
0.000506579
4.67422e-09
-4.16936e-06
5.61536e-05
1.91991e-05
3.22601e-05
3.14925e-05
-8.50176e-05
-0.000112088
-7.98667e-05
-5.13039e-09
-0.000150879
9.37846e-09
3.61462e-05
-1.5835e-05
-6.27176e-09
-4.28988e-06
-1.50779e-08
-4.78447e-09
-1.90796e-08
-9.88758e-09
-0.000148965
-0.000277539
7.87433e-09
-1.75101e-08
0.00117336
3.49462e-05
-3.44892e-08
1.98366e-07
-0.000260757
-3.33568e-10
-1.14239e-08
-8.96834e-09
-8.93165e-06
1.89941e-08
3.38913e-08
0.000504258
1.00646e-08
1.44492e-05
-5.75061e-05
4.57952e-09
0.000257573
4.40466e-08
9.28701e-05
3.78483e-05
8.2135e-05
4.28339e-08
-0.000679067
8.60009e-09
8.10887e-05
1.91246e-09
4.79111e-05
-9.86405e-09
-7.29774e-10
-5.12623e-07
-3.79611e-09
-2.48608e-08
-0.000240246
-4.34757e-08
-1.0783e-08
2.55556e-05
-1.37282e-08
-7.19027e-09
-0.000172183
-4.0664e-05
-3.60312e-09
3.09292e-07
-5.96072e-09
0.000181417
8.65253e-09
3.89796e-08
1.81033e-08
4.66819e-09
-3.88852e-09
-0.000283029
-6.17567e-06
3.21625e-09
2.19011e-05
-5.52511e-08
-7.43338e-05
2.92907e-08
6.10729e-09
-1.06185e-05
-1.08079e-05
-5.44897e-09
1.68705e-08
-7.85757e-06
-5.6461e-09
-3.08187e-07
-3.12573e-08
2.21449e-05
0.000950216
2.62782e-08
-4.51767e-07
0.000109387
1.61751e-08
-1.13711e-08
-0.000884084
-7.5756e-05
-3.20476e-07
-8.6388e-06
4.72739e-09
-0.000115776
1.4291e-05
-6.26846e-10
4.34401e-09
-0.000250122
-4.40171e-07
-1.22778e-08
-0.000195679
2.48382e-08
-3.46295e-08
-9.29998e-08
-2.83201e-09
-5.15198e-05
-0.000111518
1.73362e-08
2.82883e-05
-8.79753e-06
-3.68151e-09
1.08254e-07
-0.000133818
8.86686e-05
-7.86678e-05
-1.67382e-08
-7.19561e-08
-0.000135235
2.2655e-08
-4.71067e-08
-4.19982e-05
-9.16233e-09
-2.5331e-06
-2.7714e-08
7.25942e-09
0.00017535
-9.06474e-05
-0.00014786
-4.95682e-08
4.45176e-08
9.28207e-09
5.09252e-05
-0.000192094
-9.5687e-09
-5.13909e-07
4.15724e-05
-4.77964e-09
-5.34015e-09
-5.37893e-08
-6.47783e-08
-1.95965e-05
-1.10948e-08
-9.20413e-09
7.28169e-08
-1.29714e-08
-0.000664559
-0.000108642
0.000288451
-2.80891e-07
1.9759e-09
1.58529e-08
6.3326e-05
-3.5932e-06
-5.71812e-05
-1.29874e-07
1.26536e-06
9.09899e-08
-4.54047e-09
-6.4201e-10
4.9238e-05
-0.000177022
-2.84257e-08
3.45884e-05
-0.000292821
-5.74622e-09
4.79763e-05
4.21414e-05
3.39846e-05
0.000112652
2.06332e-09
-0.000253376
-3.0602e-05
-5.60814e-06
4.45466e-09
-2.03624e-08
-0.000134854
3.02035e-08
-6.09616e-08
-5.11663e-05
5.00553e-07
2.47169e-05
6.8513e-05
-4.08674e-07
-6.00891e-05
-0.000138976
-3.07629e-08
-0.000717166
-0.000123375
3.58693e-08
1.65096e-09
-2.84988e-05
-2.10053e-08
2.1058e-08
-4.38025e-09
-1.15425e-08
-0.000138795
1.34488e-08
-1.49243e-06
-0.000101372
-8.60073e-05
-5.53271e-08
-1.15687e-07
0.000229877
-1.48403e-09
-2.73095e-08
-2.76676e-08
-1.34235e-08
6.11196e-09
4.01306e-05
-3.49069e-09
-4.36179e-09
-9.89149e-06
-5.46147e-09
0.000267734
-3.3587e-09
-0.000231866
7.59001e-09
0.000354499
-0.00014184
-3.87086e-08
-0.000138413
-7.18095e-05
-3.53232e-09
3.05989e-08
-3.16174e-08
2.7314e-05
1.65347e-08
-0.000260789
-1.62775e-08
-4.96196e-09
0.000178354
2.56161e-05
1.33551e-08
1.26515e-08
1.10952e-09
9.26925e-08
-3.38411e-08
-7.66736e-08
4.70517e-08
-0.000295231
-0.000402602
1.02675e-08
-1.4599e-08
-0.000149365
3.20957e-05
-1.79147e-08
-3.9009e-09
-0.000142875
-3.44908e-06
0.000370649
1.12585e-07
5.53696e-08
-0.000302918
-1.49748e-07
9.18867e-05
-0.000211232
-1.86251e-09
-1.04133e-08
-4.60857e-05
-9.30398e-07
2.27546e-08
0.000183894
-0.000153268
-6.78563e-05
4.00194e-09
-8.60617e-08
9.20949e-07
-2.81351e-08
4.70657e-09
0.00058246
9.43631e-08
-5.39891e-10
0.000131167
4.38802e-09
5.82342e-09
-1.15541e-07
0.000301586
-6.22414e-09
-0.000222359
4.90106e-09
3.25441e-08
-5.72608e-09
-5.13873e-09
2.14359e-09
-0.000535457
0.000517971
2.92296e-08
-2.40739e-05
-5.01703e-09
5.08324e-09
0.000273529
0.00033358
-3.8837e-09
0.000425682
4.01274e-09
2.88773e-09
-3.58088e-08
1.48586e-06
-1.70774e-05
4.30182e-09
9.84677e-05
0.000123245
0.000108098
1.16458e-08
-0.000274326
3.69992e-05
6.54952e-08
-6.52766e-05
-1.00765e-08
2.63961e-09
-1.66851e-08
4.66459e-05
0.000436092
0.000397431
4.83081e-05
2.82157e-08
2.74876e-08
-1.87533e-08
-7.03134e-08
7.01968e-08
-1.30936e-08
-2.49298e-08
-3.25219e-08
-6.725e-06
-5.14973e-09
-7.86816e-09
4.28937e-09
-0.000169864
-1.82462e-08
1.34201e-08
4.37042e-09
4.03505e-05
-4.95779e-08
-3.00769e-09
-9.75027e-08
0.000282145
2.93586e-09
5.61423e-07
3.77685e-08
1.53006e-08
3.90511e-05
-0.000158995
1.60627e-08
-0.00020279
0.000325815
2.35098e-08
1.00571e-08
-3.54797e-08
2.94652e-09
3.43384e-07
-6.9253e-08
-4.44001e-08
3.70065e-05
-9.09699e-09
-1.89245e-08
-3.501e-08
-1.28684e-08
8.54945e-09
-7.28375e-09
6.70482e-09
-1.73591e-08
1.15182e-07
7.95521e-05
-6.47524e-05
-0.000118436
4.59228e-05
3.80972e-07
-2.84654e-09
1.34648e-07
-0.00025011
1.60931e-08
-1.77653e-05
2.27852e-06
1.74054e-05
1.64338e-08
2.17752e-06
4.96727e-08
-0.00021079
3.88757e-08
1.92579e-09
-1.19399e-08
5.47843e-08
2.57666e-06
1.05142e-07
0.000738959
4.24843e-05
-0.000121289
-3.16375e-08
-2.55061e-09
1.15967e-08
0.000369039
9.98341e-09
-1.37229e-08
0.000452101
1.89581e-08
-0.000146096
-8.05988e-09
8.34044e-08
-2.90182e-09
2.45734e-09
-1.76667e-05
8.14166e-09
-4.06945e-06
0.00023155
-9.59774e-06
-1.93054e-08
-2.0815e-08
4.94317e-05
1.59693e-05
-0.000366188
7.6554e-09
-4.1416e-07
0.000128473
-0.000178185
-5.1219e-06
-3.50044e-08
1.13433e-08
-2.58009e-09
-9.85206e-09
1.29135e-05
-1.18772e-07
-2.72812e-09
4.14347e-11
-7.11651e-05
1.15244e-05
-0.00015537
-3.41273e-07
0.000146297
3.60316e-08
1.27553e-08
-0.000307321
1.96183e-08
5.04435e-07
-1.66094e-07
-4.80513e-08
-1.22665e-09
5.33859e-05
3.39018e-05
5.12797e-05
1.21127e-07
0.000263506
1.30679e-08
-3.94135e-08
0.000269287
-3.81972e-09
2.09816e-08
0.000339415
-0.000403074
1.08266e-08
-3.82611e-05
1.46304e-09
8.59039e-05
-2.60249e-08
-0.000124992
4.54599e-08
5.17827e-08
0.000238148
5.27689e-05
3.49887e-05
1.33061e-07
-1.55833e-08
2.46172e-06
2.86044e-08
5.7217e-08
6.11832e-07
-0.000262384
-5.91013e-07
-1.72289e-08
-6.70873e-08
-4.3929e-08
2.06421e-07
-3.3267e-09
8.27372e-09
2.72867e-10
2.65537e-05
0.000172553
9.24985e-10
8.59801e-07
-4.35617e-08
-3.43186e-08
-9.89288e-08
-7.58239e-07
-6.99501e-09
0.00026712
-1.2563e-05
1.67793e-08
2.12957e-08
3.55049e-08
0.000153789
-1.32612e-07
-1.97325e-08
-3.1707e-09
4.13041e-09
4.74321e-09
-0.000202231
-2.12204e-05
-5.30489e-08
2.23792e-05
-4.7747e-08
-1.40381e-07
2.20346e-06
-1.90488e-07
7.53568e-05
-6.3763e-09
0.000388991
-1.03502e-05
-6.90636e-08
2.21716e-08
3.30784e-08
4.40843e-09
-2.9092e-09
0.00042528
2.07368e-06
-8.97313e-06
1.16398e-08
-2.3706e-09
2.6784e-05
0.000380235
-1.93299e-05
-0.000292618
5.15773e-07
-3.29371e-09
7.77521e-07
4.54529e-05
3.63849e-09
0.000129353
0.00012453
-2.85588e-09
-4.0803e-07
-1.05622e-09
4.47013e-10
2.08634e-08
3.54996e-08
-3.77385e-06
0.000125373
-1.58148e-08
-7.5467e-09
0.000104999
-3.61198e-05
-6.12014e-05
4.54361e-05
4.03129e-05
2.60679e-09
5.61399e-09
1.31235e-08
1.45217e-09
-5.34904e-09
-4.35515e-10
1.51544e-05
1.69435e-07
-2.2222e-08
0.000520113
2.07298e-09
-0.00107496
-4.97681e-08
6.06826e-05
7.95071e-05
-7.95369e-09
-5.75334e-09
6.22564e-05
3.59091e-05
-6.60792e-05
3.22727e-05
0.000760482
-3.41242e-05
-4.06925e-07
7.10139e-06
5.04935e-05
-8.13481e-10
5.68144e-09
-1.33383e-05
1.16505e-08
1.96035e-08
-3.33098e-09
2.68517e-08
-3.03607e-08
-0.00011629
6.94157e-10
2.8174e-08
4.5894e-08
4.03097e-08
-0.00055118
0.000100549
-2.53476e-08
0.000727767
-1.91521e-07
-0.000320951
-4.50304e-08
-9.49021e-05
-6.40267e-09
-2.76597e-05
-8.37214e-05
-4.82515e-08
8.65889e-08
-0.000182332
6.98908e-09
0.000308967
0.000101077
2.26204e-05
-9.45066e-08
-1.21815e-07
-3.29326e-09
6.58007e-05
7.27478e-05
4.37907e-05
6.20622e-09
-5.2611e-07
4.77112e-08
0.000394906
-1.26221e-06
-0.000174119
-6.71558e-05
-0.000249032
-0.000216296
8.06587e-05
2.02064e-09
2.61361e-06
-6.65822e-05
-3.69651e-05
-3.22401e-07
-5.74657e-08
-1.27445e-05
-2.93984e-09
1.34238e-08
-3.31841e-08
-7.52104e-08
-5.66079e-06
1.12504e-05
-6.37244e-09
-4.28542e-08
1.78446e-08
-1.17594e-06
8.50046e-05
-4.15056e-09
-1.12542e-05
-9.40606e-06
-2.95903e-05
-1.94127e-08
-5.45731e-08
-1.8202e-08
-1.12056e-05
0.000124738
6.784e-05
3.50785e-09
-8.09037e-09
-0.00096628
1.24475e-07
-0.000808073
-2.75049e-08
8.93659e-05
3.34271e-05
7.69788e-09
-2.22882e-08
3.33198e-05
8.19497e-09
-3.24706e-08
-1.47947e-05
-2.26321e-05
3.0947e-08
0.000156024
1.31752e-06
-3.84204e-06
5.54741e-05
4.41586e-05
-2.49943e-07
-6.05613e-05
1.67366e-05
3.30526e-05
-2.44867e-05
-2.08863e-06
-2.42328e-08
-7.14005e-07
-1.62764e-08
-6.21743e-09
-0.00039258
5.19151e-07
-5.37746e-06
1.268e-08
2.21138e-06
0.000744848
-1.14427e-08
1.30089e-08
-1.51066e-08
7.84883e-05
2.26621e-08
-0.000152159
2.05378e-06
-0.000133716
3.01036e-05
-2.87975e-09
2.33309e-06
7.76795e-05
0.00034298
-1.52681e-08
7.5415e-10
1.23409e-09
4.82002e-05
3.26031e-08
1.42633e-06
-5.00779e-08
-4.56598e-05
6.32272e-08
1.7194e-05
2.02136e-05
-0.000137941
8.48525e-06
7.94491e-07
-4.98549e-08
4.69106e-08
3.45936e-05
-7.75745e-08
-0.000173061
-2.72637e-08
-7.54713e-07
4.49344e-08
9.20501e-09
5.57768e-05
-1.49673e-08
-2.81938e-06
-6.60089e-06
0.00020423
-2.45636e-08
-6.81761e-05
8.83891e-08
7.65064e-05
4.66052e-05
-1.30573e-09
-4.52217e-09
-5.70731e-09
-0.000341053
0.000346556
7.59243e-05
-1.15955e-05
-3.5273e-09
8.47068e-08
-0.000172409
1.99483e-08
-0.000123457
-1.19304e-08
-0.000288023
-7.11641e-08
-2.68861e-07
1.56297e-08
-2.54918e-05
-0.000312127
-3.81896e-07
1.83591e-08
-1.67551e-09
-1.72524e-06
-2.32853e-08
-1.08287e-08
2.11718e-07
3.26317e-07
-6.09273e-07
-3.73773e-09
-2.17239e-09
-1.40165e-07
-0.000168583
-4.3004e-07
7.14419e-05
1.17803e-07
-4.99062e-08
-6.18499e-05
-8.3431e-05
-9.02255e-08
-7.81611e-06
-9.95742e-09
4.04037e-05
2.81314e-06
8.56767e-05
1.4335e-08
2.50333e-06
8.21549e-07
-1.89469e-08
7.2925e-05
4.41539e-09
2.34899e-08
2.51139e-08
-4.50673e-08
-1.18623e-05
-7.26077e-06
2.72215e-08
6.67327e-09
0.000503474
-3.2682e-08
1.0611e-08
-2.32251e-08
2.76924e-05
6.82122e-09
-4.74848e-09
-1.15098e-08
2.26724e-08
3.05093e-05
-4.0286e-08
5.27486e-05
-9.72923e-10
0.000256807
7.44771e-06
1.25713e-08
6.54758e-09
-0.000552144
1.7537e-09
2.53123e-08
-1.41487e-05
3.77919e-07
-2.37475e-07
-3.00704e-05
-1.39409e-08
-7.83505e-06
-5.21866e-09
-3.96475e-08
-6.91541e-09
-6.88192e-06
-3.11453e-09
2.75087e-05
9.378e-05
0.000448668
2.88405e-06
0.000268698
1.54052e-06
-3.35281e-05
-1.38397e-06
5.51624e-06
-3.71091e-08
-6.02013e-09
8.51536e-05
2.1755e-08
-1.72998e-05
8.20002e-05
-7.57097e-09
-6.89634e-07
0.000194537
3.64056e-09
8.88103e-10
-7.20686e-07
-6.11101e-05
-8.41416e-09
0.000218865
2.52616e-08
-2.22869e-08
-0.000128678
-0.000125276
8.94819e-09
-4.96672e-08
-4.99243e-08
9.00567e-05
-4.34944e-08
-2.27091e-05
-2.45226e-06
4.14838e-08
-9.85359e-10
3.60559e-08
8.95165e-05
-1.43082e-08
3.00036e-08
-5.11111e-05
9.20741e-09
7.97318e-09
0.000348155
-3.51178e-09
5.40863e-05
-3.02721e-08
4.51801e-09
-0.000131771
-4.03162e-08
2.63442e-06
1.8093e-05
0.000486763
-1.28439e-08
7.73298e-05
6.8222e-05
-2.7795e-08
7.58038e-10
0.000653058
1.00875e-05
-2.77922e-08
1.29048e-06
2.37829e-06
-2.86493e-09
5.5303e-05
-1.00404e-05
-0.000619533
9.08314e-05
9.27912e-08
8.20183e-09
3.33496e-08
8.28233e-09
5.55627e-05
5.39015e-08
-2.51416e-05
2.26327e-09
2.19374e-05
1.22687e-08
2.32889e-05
0.000327926
1.93203e-08
-0.000389411
-1.04176e-08
4.82135e-09
-9.42157e-06
0.000378601
1.49739e-08
9.53697e-09
-1.41445e-05
6.25769e-08
-4.85867e-08
-7.25816e-06
-0.000233587
-0.000187122
-1.97095e-05
-1.67064e-05
1.07554e-07
6.99406e-05
-8.56095e-05
-0.000136804
2.46097e-08
-2.48489e-05
5.00887e-09
4.13015e-09
1.87842e-06
-0.000646774
3.24678e-05
-6.25723e-09
1.14748e-08
1.00806e-07
-1.82793e-09
-2.40178e-09
-6.36116e-09
3.54341e-08
6.41693e-09
5.00047e-08
-0.000364064
0.000405951
1.10509e-06
3.01136e-09
6.202e-05
8.61275e-05
2.38182e-08
-5.84626e-06
-3.13738e-09
-1.63127e-08
-1.06189e-08
1.01144e-06
-2.61753e-05
1.07954e-07
3.67517e-06
-4.41982e-06
1.35104e-08
1.34185e-09
1.86115e-05
-2.82552e-08
1.75686e-06
-2.68703e-08
-1.37866e-05
-8.49579e-06
3.09191e-05
-4.42246e-08
-5.49863e-09
7.27571e-09
-4.96907e-08
1.67461e-09
-3.22326e-08
0.000393063
4.63614e-09
-1.90367e-05
-0.000168799
1.85494e-06
-7.0307e-07
2.75743e-05
-4.87811e-06
-3.17889e-09
-1.42973e-08
1.15833e-08
0.000779642
0.000462797
-9.77319e-08
1.57937e-05
3.77177e-09
-9.07941e-11
-0.00022753
4.5407e-05
5.75645e-09
8.01645e-07
-3.85651e-09
-7.33545e-08
7.62487e-10
-2.26013e-09
-6.27506e-06
-2.32759e-08
-2.10751e-08
1.11063e-07
-0.000154639
1.15293e-08
-2.68611e-05
1.52022e-05
-6.19736e-08
1.08572e-06
-1.91172e-09
1.33923e-08
3.4841e-08
-7.79887e-07
6.20862e-08
6.11376e-05
5.27232e-06
3.64478e-05
0.000113936
2.34996e-08
2.36697e-08
2.27928e-07
-0.000274935
5.40109e-05
-3.88125e-06
1.66624e-09
-0.000228148
-6.57106e-05
-0.000173434
4.32655e-05
-1.43682e-08
-4.23493e-08
-0.000764505
3.50913e-06
2.04765e-07
2.68204e-08
3.68567e-09
1.37595e-05
-1.62683e-09
4.31383e-08
-3.46058e-05
1.04217e-07
-2.15482e-08
3.64748e-05
3.0314e-09
-7.04649e-08
7.8202e-09
0.000850921
0.00051548
0.000437114
-0.000204328
-3.15211e-05
3.3164e-05
-0.000115631
-1.38033e-09
2.81974e-05
7.6714e-09
-0.000391387
-0.000125701
3.36373e-05
9.915e-06
3.50102e-05
1.26595e-07
1.04879e-05
-1.26291e-05
-2.17789e-07
-0.000294871
0.00013888
-1.16782e-05
-9.0205e-06
-2.1102e-05
2.74439e-05
9.21576e-08
-1.7172e-08
-5.45855e-10
-3.42044e-10
5.56976e-08
-8.93051e-06
2.48057e-08
-0.00014989
-4.38927e-08
-1.72976e-06
-3.16778e-07
-7.93852e-06
-5.27717e-08
-1.79641e-05
-2.32118e-05
5.6345e-08
-1.95116e-05
4.46456e-05
2.79179e-05
1.85439e-06
-0.000246171
-3.57863e-08
-1.56765e-08
-1.77938e-08
-9.50512e-05
-4.22642e-08
8.70569e-06
-1.38498e-07
-2.92788e-08
3.92971e-05
0.000113299
7.82106e-08
-2.20245e-09
-5.97337e-05
-1.04596e-08
-9.72987e-07
-1.89557e-05
1.11378e-08
0.00014028
-0.00029401
-3.65659e-09
1.28765e-07
3.77341e-05
0.000371304
-0.000198953
4.29298e-08
3.70879e-06
3.08199e-08
1.95971e-09
3.43335e-07
-7.16427e-09
1.02796e-05
3.68871e-05
2.86385e-06
7.34321e-06
-0.0004874
-2.52433e-07
3.52237e-08
-3.27805e-08
-1.44969e-05
-6.79548e-09
0.000490105
2.79919e-08
-3.88691e-07
5.76925e-05
3.31684e-05
3.40731e-05
-2.0946e-05
-0.000193712
-5.79826e-09
-2.52587e-06
0.000189327
-5.11333e-06
-4.33917e-09
4.85592e-09
2.18718e-05
5.05767e-09
-3.78925e-09
-5.11297e-07
-1.13187e-07
0.000141143
-8.14199e-09
-3.46941e-05
1.10374e-05
-1.63315e-05
-2.22931e-06
1.29479e-08
6.73508e-08
1.85357e-09
-2.83226e-09
0.000164311
2.996e-09
7.78451e-05
-3.09721e-06
1.29302e-09
3.8148e-09
-3.67657e-05
1.7824e-06
-1.15241e-07
-3.24961e-06
-6.26907e-10
1.33646e-05
-2.16696e-07
6.28077e-05
3.19448e-05
-0.00017925
2.93139e-05
-0.000140847
0.000651966
2.76317e-05
-4.03839e-05
1.85085e-09
-9.42122e-08
2.86452e-06
-4.89902e-05
-1.86416e-07
0.000305045
-0.000769694
-2.83491e-08
-1.04554e-07
0.000417199
-3.23954e-06
-7.70299e-06
0.000498595
-0.000133527
2.62336e-08
1.66087e-08
6.30954e-08
0.000611082
-4.75884e-07
-0.000107208
-1.64687e-09
0.000247945
8.07821e-05
1.51301e-08
5.09099e-08
6.59494e-05
-8.92429e-08
0.000655323
-2.68614e-08
-5.75468e-08
4.9602e-09
4.17042e-09
-5.24683e-09
-9.6928e-06
-2.38668e-08
-1.00645e-05
-4.43959e-09
2.16143e-05
-5.55199e-10
5.85246e-06
-6.08622e-08
-9.23071e-07
2.86862e-08
0.000813795
1.88967e-05
-0.000980983
0.000232206
-0.00010541
-9.75794e-06
3.56354e-06
0.000199671
-0.000183462
-6.00331e-05
-1.36444e-06
1.38626e-05
1.34665e-07
-1.34311e-08
6.16894e-06
-3.70939e-09
-1.45283e-08
0.000445162
0.000119167
-7.54445e-07
1.49109e-05
0.000447134
-2.89244e-09
4.68871e-08
2.49202e-05
-4.13387e-08
0.000110589
-1.49803e-05
-2.66659e-08
0.000661464
-2.40186e-05
5.38953e-08
8.44217e-06
-4.25206e-05
9.53652e-06
5.42684e-09
3.8473e-05
3.06687e-05
-1.63572e-08
3.57967e-05
2.54946e-06
8.58139e-07
0.000164501
-1.48806e-08
-0.000980939
-8.24616e-05
2.24116e-07
-2.17556e-05
1.27481e-08
-6.57847e-10
-6.49888e-07
-1.38724e-05
-1.36872e-05
0.000159625
3.42527e-05
-5.78436e-08
-1.46463e-08
0.000278676
3.01648e-05
-0.000166174
-3.22971e-09
-0.000243051
1.31598e-08
7.20166e-09
-8.58662e-05
6.39674e-06
-7.54553e-05
-3.58626e-07
-7.53461e-08
-3.59154e-08
6.43902e-05
1.50039e-06
-0.000799584
0.000134698
7.9587e-07
-8.26855e-05
-8.92584e-05
0.000255365
0.000311837
0.000242771
-0.000150619
-1.54566e-07
6.52473e-05
-2.17375e-08
9.24518e-07
-7.74812e-05
5.87618e-07
-1.30278e-08
-6.94463e-05
0.000269957
-0.000229679
-8.55027e-05
-5.04984e-08
7.55773e-05
3.08867e-05
4.60471e-05
4.2015e-08
3.41024e-05
2.32114e-05
-0.000151276
4.41503e-06
3.20458e-05
-9.8418e-08
1.46723e-09
5.66964e-08
-8.4686e-05
1.38242e-08
-1.86309e-09
1.57678e-07
4.3383e-05
-1.13669e-08
2.14683e-08
3.44881e-05
9.18691e-05
5.82848e-08
2.74928e-08
2.71843e-06
-2.30464e-09
-2.9209e-05
3.12831e-05
-1.11807e-08
4.89256e-05
5.88089e-09
-2.35997e-08
2.20591e-06
9.89195e-08
3.41563e-08
1.15188e-07
6.49327e-05
-0.000968703
3.38175e-05
4.23169e-09
-8.72188e-05
2.04556e-09
5.2846e-08
-1.23491e-05
3.29343e-05
-5.61737e-08
0.000105497
-5.63466e-05
-0.000100691
-5.59727e-08
9.41349e-06
2.48903e-05
-0.000318109
8.04799e-08
-5.75829e-05
-2.33674e-07
-2.03066e-09