/*--------------------------------*- C++ -*----------------------------------*\
| =========                 |                                                 |
| \\      /  F ield         | OpenFOAM: The Open Source CFD Toolbox           |
|  \\    /   O peration     | Version:  v2012                                 |
|   \\  /    A nd           | Website:  www.openfoam.com                      |
|    \\/     M anipulation  |                                                 |
\*---------------------------------------------------------------------------*/
FoamFile
{
    version     2.0;
    format      ascii;
    class       volScalarField;
    location    "250";
    object      epsilon;
}
// * * * * * * * * * * * * * * * * * * * * * * * * * * * * * * * * * * * * * //

dimensions      [0 2 -3 0 0 0 0];


internalField   nonuniform List<scalar> 
13726
(
9.05163e-07
0.00787759
1.56988e-06
1.06622e-06
5.5732e-06
8.60113e-07
9.4402e-07
9.74326e-07
5.80005e-06
2.08814e-06
5.72992e-06
5.30427e-07
6.71889e-07
0.00758482
1.05674e-06
8.7583e-07
5.07875e-06
1.31442e-06
0.0124172
1.99457e-05
0.0121298
4.50459e-07
1.2175e-06
1.5774e-06
4.93775e-07
4.22209e-07
1.64739e-06
4.20845e-07
4.97347e-07
0.0101964
0.0166919
4.32964e-07
0.0102745
1.53211e-06
5.85337e-05
0.00651433
1.67523e-06
0.00747452
1.10423e-06
1.26887e-06
0.000126683
4.21308e-05
1.66635e-06
1.05085e-06
9.28414e-07
1.37694e-06
7.37607e-05
5.10036e-07
2.54629e-06
5.71632e-07
0.00449835
5.11656e-07
7.3392e-07
1.30867e-06
1.61291e-06
2.02107e-06
6.52839e-07
8.13118e-07
1.84468e-06
1.60311e-06
0.0035281
1.04467e-06
0.0068035
4.47434e-07
0.00987245
4.31588e-07
0.0114653
0.00986585
5.17971e-07
5.72559e-06
6.35728e-05
9.6436e-07
1.00039e-06
1.67189e-06
0.0120855
0.00389402
5.86955e-06
0.00658683
0.0115245
3.12112e-06
5.4345e-06
2.38683e-06
3.21051e-06
8.06952e-07
1.10316e-06
0.00628262
3.71361e-06
1.49656e-06
6.15325e-07
0.0115946
1.42501e-06
5.80918e-06
1.38546e-06
1.60071e-06
0.00341918
0.00973569
1.91155e-06
5.29483e-07
1.16304e-06
0.000901917
1.43515e-06
2.10317e-06
1.12325e-06
6.94027e-07
2.68825e-06
5.0539e-06
3.19995e-06
7.90212e-07
1.27401e-06
1.89528e-06
2.55428e-06
6.78426e-07
0.0169051
0.00592165
0.00516267
1.12986e-06
0.000184869
0.0196049
1.11247e-06
1.57233e-06
0.0259436
9.77849e-07
1.54382e-06
0.0122089
0.0160541
0.00722568
1.16002e-06
7.17672e-07
6.79796e-07
1.16494e-06
0.00349957
0.00873978
1.16452e-06
2.49009e-06
0.00462299
5.46714e-06
0.00883333
0.000134063
0.000963757
0.00251851
2.78781e-06
0.00474692
8.54983e-07
5.06968e-07
8.62472e-07
1.68641e-06
0.011217
1.72369e-06
1.50393e-06
0.0118602
1.16574e-06
9.02062e-07
2.48829e-06
1.71762e-06
5.17082e-07
1.50099e-06
1.72016e-06
0.000154512
0.00327783
4.937e-07
6.05461e-07
7.06857e-07
0.00665724
0.00841539
4.23726e-07
3.20043e-06
0.0024633
9.41152e-07
1.43268e-06
6.0103e-07
1.12516e-06
1.48479e-06
0.000293978
1.58971e-06
0.00712882
5.0513e-05
5.16429e-07
0.0161617
0.0161604
8.1502e-07
0.0138374
1.56012e-06
0.0071484
0.00195495
5.11207e-07
8.52747e-07
8.15622e-07
1.42678e-06
1.2093e-06
1.73095e-06
0.0057811
3.05257e-05
0.00946411
0.009162
9.6059e-07
4.26922e-07
1.12055e-06
0.00486788
3.88186e-05
2.16682e-06
0.00934246
0.00014094
0.00878826
1.50326e-06
7.83881e-07
9.01562e-07
1.37242e-06
0.00353043
1.63193e-06
2.66557e-06
5.78383e-06
0.0036543
0.00968609
4.15448e-07
0.00723508
0.0115764
1.5756e-06
1.62853e-06
1.35081e-06
0.0115029
1.65797e-06
2.04514e-06
8.69431e-05
0.00663767
7.77139e-07
0.00526753
0.0123213
0.00739264
0.0102147
1.42517e-06
0.00459939
0.00825659
0.0133312
0.00694201
1.65305e-06
1.57071e-06
0.00294404
0.0199632
0.000232015
0.0107189
6.8901e-07
1.26504e-06
7.97193e-07
0.0102893
0.000171813
0.00973249
1.85464e-06
1.6373e-06
5.20559e-07
4.28576e-06
0.0167196
1.66273e-06
0.0107562
1.64718e-06
2.28193e-06
2.4719e-05
1.53881e-06
0.0140116
0.00810832
1.64095e-06
2.1568e-05
0.00281451
1.9321e-06
5.28612e-07
0.00431439
0.0175415
8.92828e-07
1.55679e-06
5.04692e-07
2.10822e-06
5.58164e-05
1.63502e-06
0.017634
1.48011e-06
0.00501598
0.0037894
0.0126175
0.000385283
1.60366e-06
4.37732e-07
0.00269159
1.60027e-06
0.00750531
1.62162e-06
0.00911296
8.69381e-07
0.00686895
0.000246328
1.65168e-06
4.32108e-07
0.00735336
1.62817e-06
4.15428e-07
0.00796021
0.00366967
1.68123e-06
5.22979e-06
9.11567e-07
0.0097489
6.34056e-07
0.000180244
0.00747744
3.07198e-06
1.33633e-06
6.4904e-07
0.00258962
0.00230227
0.0143158
0.00334552
1.81276e-06
0.0119306
1.11917e-05
0.0169634
0.0156237
1.01841e-06
0.000129667
7.8141e-07
0.00643238
0.0107905
0.00391853
0.00867156
1.20157e-05
1.56842e-06
9.72939e-07
1.69679e-06
1.64343e-06
1.32773e-06
0.00267433
1.56058e-06
0.00659373
1.05512e-06
0.00846355
1.1489e-06
1.63288e-06
3.23061e-06
1.49334e-06
1.10566e-06
1.8088e-06
9.08653e-07
2.69909e-06
0.000481395
0.00950181
0.0075362
0.00686994
0.00277191
3.17447e-06
1.66239e-06
2.03449e-06
3.57918e-05
1.14015e-06
0.00467013
0.00948399
0.0114061
4.4563e-07
1.48924e-06
1.43078e-06
9.89931e-07
0.00263065
1.67497e-06
1.65676e-06
1.26978e-06
2.02917e-06
0.000973377
9.9677e-07
1.87246e-06
0.0138642
0.0183738
1.20192e-06
9.39788e-07
9.91276e-07
1.18963e-05
6.60567e-07
4.44091e-07
1.34853e-06
0.000106724
9.42164e-07
4.87367e-07
0.016407
1.91919e-06
3.18739e-06
7.79463e-07
7.35876e-07
1.15756e-06
0.0077231
0.0162153
0.0171943
0.0127404
2.05305e-06
1.08634e-06
1.56533e-06
8.9073e-07
1.51254e-06
1.43164e-06
9.7423e-07
8.37007e-07
1.60943e-06
0.0108531
0.00767555
1.91417e-06
1.66876e-06
8.87806e-07
1.17325e-06
1.47824e-06
2.60686e-06
1.61417e-06
2.05823e-06
1.60261e-06
1.17608e-06
0.0145452
0.00041073
0.00305755
1.51256e-06
0.00953674
0.011723
3.6743e-05
1.37686e-06
0.00986015
0.00211144
0.00710802
0.00428999
0.0115175
8.86571e-05
4.17306e-07
3.29467e-06
0.0057067
7.14309e-07
0.00667457
1.14383e-06
1.48072e-06
2.77192e-06
0.0166686
0.0155363
0.010819
0.0150675
1.75833e-06
5.78432e-07
1.01134e-06
7.16184e-07
1.70149e-06
3.41376e-06
1.07824e-06
0.00461338
5.76364e-07
0.00903447
2.22724e-05
9.51484e-07
0.00436964
5.09209e-07
4.28536e-07
6.55854e-06
7.01746e-07
0.00465253
0.00433531
5.31399e-07
0.00601467
8.31668e-07
0.0109719
0.00552625
6.81437e-07
1.70633e-06
1.89459e-06
0.010327
1.85195e-06
0.0047139
6.12295e-06
1.76471e-06
0.0108207
0.00602413
8.17317e-07
0.0166556
2.33037e-06
6.7149e-07
9.00414e-07
8.98578e-07
0.0132337
5.10195e-07
0.000145463
4.86727e-05
0.00366405
1.76083e-06
0.000113319
6.11695e-07
4.22537e-07
0.00370611
4.1575e-07
6.97275e-07
7.65974e-07
9.01044e-07
0.00727672
0.0135377
1.50364e-06
3.72529e-06
7.53837e-07
0.00802216
0.00782446
1.49239e-06
1.66421e-06
0.0104792
0.0074329
1.41171e-06
6.33274e-07
0.00013793
7.19482e-07
2.9791e-06
1.36717e-06
1.11736e-06
0.00374778
0.00252132
6.03951e-07
1.1397e-06
1.61601e-06
0.00650844
6.76459e-07
1.97669e-06
4.2129e-07
0.00437193
4.61273e-06
1.26156e-06
1.48548e-06
1.6213e-06
1.17243e-06
2.76153e-06
0.0052148
0.000170992
2.95522e-06
3.34074e-06
0.00630234
3.16898e-06
4.16589e-07
0.000108904
2.57484e-06
2.10174e-06
0.00530435
1.59947e-06
0.0165389
1.14228e-06
4.83367e-07
0.00347442
1.91528e-06
1.66916e-06
0.00291533
6.51191e-07
6.0321e-07
1.59527e-06
6.64626e-06
0.00548785
1.89411e-06
9.58537e-07
2.4571e-05
1.45092e-06
1.27486e-06
0.000140723
9.34146e-07
0.00457483
1.62769e-06
1.21999e-06
7.90992e-07
0.00604758
0.00789659
0.00495527
0.000745183
1.12898e-06
0.00989231
1.38656e-06
0.0155162
1.32825e-05
1.74239e-06
1.19194e-06
0.00939971
2.30591e-06
0.0131279
5.14567e-07
6.01565e-07
0.0103809
1.37975e-06
0.00408837
1.2246e-06
1.71576e-06
3.0874e-06
3.42548e-06
0.00925397
0.00742232
9.33973e-07
7.93121e-07
0.000474089
1.35381e-06
0.0128128
0.000116091
5.15177e-07
0.00425097
9.8621e-07
2.43879e-06
9.08297e-07
1.69356e-06
0.0037655
1.26615e-06
0.0129225
1.51454e-06
3.24737e-05
0.00494335
1.45749e-06
1.43374e-06
1.11304e-06
9.43076e-07
8.33171e-07
0.00754344
0.0174944
0.000551208
1.44136e-06
0.000467303
0.00510301
0.013199
1.79745e-06
0.00267631
0.00477095
1.49343e-06
1.51031e-06
5.04545e-07
0.0107897
1.5553e-06
1.55163e-06
4.89024e-07
0.0099477
0.00986726
3.24572e-06
1.09759e-06
1.79854e-06
2.68507e-06
5.03775e-07
1.53825e-06
0.00575325
6.22766e-07
0.0111693
1.25274e-06
0.0069769
1.92957e-06
1.12231e-06
0.0105152
0.00823774
1.61033e-06
0.000354103
1.59898e-06
1.56492e-06
0.00284556
3.91264e-06
0.0126107
1.66833e-06
6.15323e-06
0.00363894
1.70376e-06
5.70579e-06
1.83299e-06
0.00948947
4.61176e-07
0.000505058
1.12286e-06
1.56429e-06
1.41012e-06
0.00454131
4.60208e-07
1.46837e-06
9.09161e-07
0.000474734
0.000357686
1.94127e-06
6.00063e-07
7.95534e-07
0.00590458
0.00603754
7.6067e-07
0.00616683
5.60421e-06
0.0103525
0.00406958
5.87987e-06
2.4906e-06
9.79721e-05
6.65546e-07
1.24782e-06
0.0117543
1.47847e-06
1.11834e-06
2.66062e-06
5.86929e-05
1.29242e-06
5.51266e-07
1.40226e-06
1.48927e-06
0.0170467
1.84393e-06
8.33688e-07
1.48189e-06
1.83115e-06
8.62767e-07
1.42035e-06
1.51681e-06
1.21023e-06
0.0176789
5.5144e-07
1.81882e-06
9.21307e-07
1.11584e-06
7.24091e-07
1.3421e-06
5.72839e-07
3.58532e-06
1.77037e-06
0.0080079
7.94822e-07
0.0103613
1.61711e-06
0.0116809
0.00616058
2.00557e-06
1.58457e-06
1.73852e-06
1.11235e-06
7.96299e-07
2.25348e-06
1.04533e-06
7.9769e-07
0.0171883
0.017486
5.26599e-05
0.00636934
6.63377e-07
0.00904497
6.02951e-07
6.73933e-07
5.09275e-07
1.63459e-06
0.00898526
2.20618e-06
0.0147333
1.84973e-06
5.41001e-05
0.0150731
0.000127889
3.68439e-05
1.81662e-06
1.6064e-06
1.1415e-06
1.36011e-06
9.26536e-07
0.0134533
0.0107669
2.55267e-06
1.22183e-06
8.73076e-07
0.016496
1.62038e-06
6.18097e-07
8.42216e-07
1.7051e-06
0.00685459
5.72162e-06
2.19428e-06
1.05089e-06
0.00261524
0.00406707
1.51611e-06
0.00266321
4.32697e-05
1.30148e-06
0.0139422
0.0083437
0.00912406
5.52828e-07
2.06511e-06
0.00595427
1.47105e-06
0.00336518
7.942e-07
2.56708e-06
8.38061e-07
7.10501e-07
3.52932e-06
0.00641361
1.34645e-06
7.88339e-07
1.42816e-06
1.53331e-06
9.7835e-07
0.00689841
0.000253634
6.965e-07
4.83805e-07
8.35237e-07
0.0113964
6.09864e-07
0.000786514
0.0111923
0.018617
0.00105938
0.00786006
0.0103639
0.0140325
1.41538e-06
1.14409e-06
0.0111429
6.43546e-07
0.00709009
0.00657558
0.00508344
5.49025e-07
1.33691e-06
1.46565e-06
0.000291164
4.32378e-07
0.0063032
0.000547579
0.000140794
0.00919585
7.20365e-06
0.00787791
8.16588e-07
0.0155517
1.59695e-06
0.0049475
1.46292e-06
4.08113e-06
8.7618e-07
1.62657e-05
1.66023e-06
2.72627e-06
1.49384e-06
1.13955e-06
5.34331e-07
0.0113715
6.77141e-07
1.41187e-06
0.00778733
8.50283e-07
1.39648e-06
7.98305e-07
0.00992784
7.98785e-07
8.90313e-07
2.03288e-06
5.49516e-07
1.42529e-06
7.22987e-07
0.00728524
1.4722e-06
4.9151e-07
5.51412e-06
0.000932322
8.95419e-07
8.53233e-07
0.00878926
0.00850345
2.57159e-06
8.64805e-07
0.0107824
0.00976367
0.00294484
5.69046e-06
0.00696674
1.59405e-06
9.19835e-07
1.51822e-06
4.87687e-07
1.10936e-06
0.00262503
1.9962e-06
0.00372328
5.35985e-07
3.03007e-06
7.78335e-07
1.86526e-06
0.00199679
0.0041203
9.68702e-07
1.60574e-06
2.83543e-06
6.15192e-07
7.11048e-07
5.36057e-07
0.0117264
0.00737627
1.62301e-06
7.21863e-07
1.49827e-06
8.6253e-07
0.0055393
1.45345e-06
1.13343e-06
0.00701622
1.79908e-06
3.7107e-06
1.34955e-06
0.0204482
0.000286323
1.59134e-06
1.55105e-06
0.00253776
0.000122445
1.58484e-06
0.0028992
0.00583681
0.00821377
0.0100695
0.0103886
0.003337
2.3357e-06
8.43552e-05
5.21485e-07
6.97431e-07
0.0110407
7.9681e-07
0.00469865
1.15209e-06
0.00279658
0.00774967
1.67785e-06
0.00864146
0.00954522
0.00236787
1.56617e-06
9.41131e-07
6.61664e-07
3.74555e-06
0.00791302
6.05923e-07
0.0117419
1.78792e-06
0.00322033
3.18384e-06
1.15449e-06
0.000234311
8.20104e-07
0.00021952
1.59028e-06
8.42937e-07
8.88398e-07
0.00901463
2.60327e-06
1.58258e-06
0.013623
1.37767e-06
0.000761318
1.47001e-06
0.000806293
0.0116699
0.0101899
1.01384e-06
5.23504e-07
2.20506e-06
1.14626e-06
0.0119528
0.00504774
5.06096e-07
1.48421e-06
3.41787e-06
0.0052969
2.02091e-05
1.18602e-06
0.000801808
9.51353e-07
1.12979e-06
0.0103666
0.00921886
0.00611061
1.34796e-06
0.0181545
2.29474e-06
0.00687512
3.11614e-06
0.00111003
0.00757365
1.81184e-06
0.000787236
0.00669341
0.0119504
0.00827073
1.11833e-06
0.0104276
3.35512e-06
2.04793e-06
9.9149e-07
9.49828e-07
0.000409484
9.76514e-07
0.0184501
0.00630454
0.00904097
0.00915587
0.00721598
0.0139651
0.011172
0.00955893
5.60892e-07
0.000416759
6.95068e-07
0.00740392
0.00399713
4.94204e-07
0.00281261
7.13114e-07
5.83437e-07
1.44607e-06
1.45864e-06
0.0176749
0.00237627
1.12561e-06
1.10105e-06
0.000184547
0.00740212
1.79625e-06
3.2747e-06
0.000684473
1.54389e-06
1.69564e-06
5.59893e-07
0.00331441
9.43981e-07
1.19616e-06
0.000311348
1.69251e-06
0.0166042
0.00755374
1.52853e-06
0.0105517
1.67998e-06
0.0109478
0.00753353
0.00709651
1.56425e-06
0.000207759
1.56065e-06
0.00966478
8.927e-07
4.78522e-06
8.75433e-07
6.65484e-07
0.00400996
1.36198e-06
1.22659e-06
0.000784635
1.90025e-06
6.06811e-07
0.00965612
9.88444e-07
8.44769e-07
0.000799801
0.0111398
1.23321e-06
0.00241643
1.17062e-06
0.0203872
1.45059e-06
1.45176e-06
1.18612e-06
5.24627e-07
1.28319e-06
0.000139178
0.00362988
6.03399e-07
0.00705178
1.81864e-06
0.00295737
6.78169e-07
5.25766e-07
5.90848e-06
2.20042e-05
9.72589e-07
1.57021e-06
0.00318635
1.16378e-06
3.75717e-06
1.61058e-06
0.00707701
0.000165638
2.14318e-06
3.08632e-06
0.0119455
4.18936e-07
6.03129e-07
4.1284e-05
0.0121519
2.13327e-06
0.00999531
1.54778e-06
0.0100779
0.00845542
7.20134e-07
1.22499e-06
0.00554558
3.32336e-06
1.63343e-06
0.000273896
1.80535e-06
1.62846e-06
2.34905e-06
1.54589e-06
2.3529e-05
2.22993e-05
1.13514e-06
0.0190608
0.00327836
6.29433e-07
3.30811e-06
0.00317295
0.00695735
5.21536e-05
7.61709e-07
1.81112e-06
0.0163139
1.31226e-06
1.05971e-06
0.0119147
1.17573e-06
0.00268121
9.96862e-07
7.87836e-07
0.0100814
9.52058e-06
0.000260143
2.80226e-06
1.67329e-06
6.88742e-07
0.0106995
0.000704514
1.2554e-06
5.14232e-06
0.00500722
6.47026e-07
1.22528e-06
1.59488e-06
1.72384e-06
0.0105615
8.47536e-07
5.37594e-07
2.25833e-06
7.56374e-07
0.00935226
0.0176087
0.0136857
3.24098e-06
4.49468e-07
1.30267e-06
0.00885391
5.89312e-06
0.00697373
2.16451e-06
1.92152e-06
1.66696e-06
1.64183e-06
1.48006e-06
3.55757e-05
0.0159369
1.48851e-06
0.00753995
0.0150363
4.88979e-07
0.00547547
0.00790186
0.00765791
0.000477206
4.18734e-07
0.00068593
2.0861e-05
0.00295194
8.38623e-07
1.83454e-06
0.0154874
1.44528e-06
1.36612e-06
0.0185825
2.57681e-06
0.005159
0.00913145
2.71398e-06
0.00714242
0.0101776
9.47992e-07
0.00927086
0.000259255
1.10264e-06
1.10153e-06
0.00669366
1.50009e-06
1.65461e-06
5.56286e-07
1.42846e-06
0.0155208
8.74464e-07
4.33148e-06
0.000175394
5.68625e-05
1.17206e-06
1.63882e-06
0.0115666
4.50676e-07
8.83244e-07
1.47544e-06
1.42886e-06
1.23392e-06
0.00649585
1.64878e-06
1.4302e-06
0.00360488
1.21786e-06
0.0145354
1.28312e-06
0.017099
1.28288e-06
0.0118139
0.000896916
1.14358e-06
0.00361624
4.34663e-05
1.68836e-06
1.09332e-06
8.23567e-07
0.00713587
6.89885e-07
0.000274702
9.59898e-07
1.1068e-06
2.74227e-05
0.00798498
6.90024e-07
1.66517e-06
5.43311e-07
1.37098e-06
1.53648e-06
2.04135e-06
4.50357e-07
0.0147227
0.000844314
8.93872e-07
9.35845e-07
0.0156675
0.00845841
1.5651e-06
4.88163e-07
0.0159338
0.00258282
0.0175017
2.00756e-06
1.55027e-06
0.000290791
2.12836e-06
0.00859523
0.0171316
8.98511e-07
1.28459e-06
0.00355518
3.15409e-06
8.74089e-07
0.0166434
0.00283565
0.0181309
5.31822e-07
1.95741e-06
1.72176e-06
1.07602e-06
1.57991e-06
0.000296321
2.02034e-06
6.75464e-07
0.00888643
1.45535e-06
5.29972e-07
2.04818e-06
0.000939918
9.41679e-07
0.0163541
1.40713e-06
1.46392e-06
1.47019e-06
1.57453e-06
7.69291e-07
0.0118544
0.0105381
9.87903e-07
0.00451236
7.58308e-07
1.07687e-06
0.00167522
0.0138976
5.1212e-07
0.011729
1.20929e-06
6.10156e-07
1.25506e-06
0.00693987
0.00382456
4.85539e-07
0.00869594
0.0116656
0.00508801
2.11291e-06
0.0154952
0.00762228
1.75095e-06
0.000474723
8.50645e-07
1.42458e-06
1.4111e-06
0.0133072
0.00848674
0.00607531
0.000474529
6.96912e-07
7.20761e-07
9.65919e-07
2.10919e-06
1.65737e-06
4.2711e-07
1.60859e-06
1.16843e-06
0.00386462
9.86736e-07
1.5553e-06
4.51205e-07
0.00282682
1.22347e-06
4.18555e-07
5.47332e-07
0.00503377
1.06445e-06
1.31599e-06
1.65219e-06
0.000140491
5.29974e-07
3.50333e-06
1.85217e-06
1.43852e-06
1.59927e-05
0.000415112
1.47516e-06
0.000198605
0.00898198
1.27323e-06
1.27067e-06
1.00591e-06
9.46004e-07
1.63295e-06
2.08517e-06
1.59397e-06
0.00749656
4.26211e-07
1.4018e-06
1.06187e-06
1.40711e-06
1.25947e-06
1.55907e-06
1.29919e-06
9.65217e-07
2.62658e-06
1.94189e-05
0.00303991
9.29005e-05
5.52885e-05
3.35968e-06
4.84089e-07
3.36606e-06
0.00620247
1.27736e-06
4.68058e-05
0.00203223
0.0070462
1.49115e-06
0.00395913
1.66086e-06
0.000711696
1.02714e-06
6.67195e-07
1.4813e-06
1.74992e-06
0.00280515
2.08537e-06
0.00776923
0.00681934
0.0179822
1.07006e-06
4.93891e-07
1.41091e-06
0.0166522
8.8641e-07
8.82885e-07
0.00650353
1.09567e-06
0.00940376
1.30437e-06
3.21614e-06
6.1451e-07
5.37702e-07
0.00391488
6.69448e-07
0.00277766
0.020211
2.99646e-05
1.01259e-06
1.73962e-06
0.0130744
0.00522703
0.00207857
1.05518e-06
3.42695e-06
0.0006885
0.0172127
0.0188315
9.81863e-07
1.47232e-06
6.73856e-07
9.47809e-07
1.44977e-06
2.60596e-06
4.83289e-07
1.57485e-06
0.0132174
0.00915035
0.000259936
2.56882e-06
2.93865e-05
7.1402e-07
6.8347e-07
1.72512e-05
1.65497e-06
3.40999e-06
2.2722e-06
1.78284e-06
5.5243e-07
0.00205009
0.00944321
0.00517499
8.49018e-07
0.00987674
1.08784e-06
1.78787e-06
0.000519623
4.15514e-07
1.64848e-06
0.00361331
0.00172633
1.80026e-06
2.40113e-05
1.20132e-06
0.00998091
1.06079e-06
0.000419101
1.31419e-06
1.81157e-06
0.00916644
0.00678172
0.00744115
8.42215e-07
8.13313e-07
4.89826e-06
1.77518e-06
1.74862e-06
4.96306e-06
0.00701548
7.74535e-07
9.60916e-07
2.15183e-06
1.4203e-06
1.57534e-06
1.80184e-06
1.44962e-06
8.77865e-07
0.00499018
0.000129199
1.2601e-06
5.50679e-07
1.71368e-06
1.07092e-06
2.57282e-06
4.83691e-06
1.04151e-06
0.00286731
0.00376355
4.37229e-07
1.56747e-06
1.64675e-06
0.0134275
2.28865e-06
8.0979e-07
8.82312e-07
4.39543e-07
1.32351e-06
0.0157918
1.32072e-05
1.73783e-06
0.00887937
1.42793e-06
1.17446e-06
9.31019e-07
2.35414e-06
0.0109556
4.47018e-07
0.0148424
0.00678511
1.67462e-06
1.32915e-06
1.76381e-06
1.58192e-06
1.3851e-06
0.0147914
4.96438e-06
0.00316596
1.52692e-06
6.68901e-07
0.00712794
0.0108652
0.00494131
0.00074048
2.74822e-06
7.12773e-07
0.00228532
0.00883088
4.91627e-07
0.0121508
0.0118539
8.51993e-07
3.80886e-06
1.41303e-06
6.60256e-07
1.13267e-06
4.53419e-07
1.80088e-05
0.00448691
9.31045e-07
4.51707e-07
0.0138466
4.77728e-05
0.000388783
0.00690467
0.00928049
1.60248e-06
1.78529e-06
1.26851e-06
4.65296e-07
8.52552e-07
4.31298e-07
0.00704346
2.51151e-06
9.99147e-07
0.00557318
4.74432e-07
5.73742e-05
1.0658e-06
0.00537551
0.000227823
1.5285e-06
1.00101e-06
0.0194737
0.00735545
0.00651508
0.0077941
6.97099e-05
0.0180798
2.64029e-06
0.000380205
0.00824929
8.02855e-07
1.06374e-06
0.00363008
6.90292e-07
1.43784e-06
7.96553e-07
9.29142e-07
1.91113e-06
0.0105928
1.22589e-06
9.12184e-07
2.28375e-06
1.64546e-06
0.0122622
0.000325834
1.01164e-06
0.000849991
3.00096e-06
0.000440111
1.03475e-06
0.00852282
2.07547e-06
0.0115086
0.0146117
1.68232e-06
1.5357e-06
0.000259831
1.77675e-06
0.0120005
0.000393546
0.0118298
2.01636e-06
2.03425e-06
7.91082e-07
0.00571275
0.000354178
0.0112452
5.22233e-07
2.72558e-06
1.75013e-06
0.00815941
0.00238449
0.000451381
0.000400997
0.000123959
0.0137586
0.0105312
8.0331e-07
5.47835e-06
0.012974
0.0144079
2.48326e-06
1.83976e-06
0.00705523
8.0345e-07
1.49775e-06
9.53179e-07
1.80276e-06
0.0030012
0.000309683
4.93175e-07
1.69567e-06
1.36111e-06
8.44995e-06
0.009821
1.65163e-06
0.00354477
0.00310277
0.00363984
1.00098e-06
1.48147e-06
9.6808e-07
0.00387398
8.45745e-05
0.00911926
5.81001e-07
1.43268e-06
0.000545249
1.66921e-06
0.00822356
1.41257e-06
0.00808269
0.00734555
1.52017e-06
2.01893e-06
0.00786948
1.10908e-06
1.59405e-06
0.00362347
2.24106e-05
1.10588e-06
0.00980068
5.45106e-06
0.00681404
0.00574878
0.00491207
2.56996e-06
0.00378625
0.000486258
0.00739146
0.00440313
0.010154
1.69977e-06
2.98448e-06
7.99951e-07
7.48793e-07
0.000978146
1.34046e-06
0.00275403
1.56332e-06
3.77511e-06
0.000163107
1.01584e-06
1.11603e-06
1.58912e-06
0.0143232
9.19173e-07
0.0103265
6.03425e-07
0.00977637
0.00804264
7.14256e-07
0.0022641
0.00992946
0.000280434
1.08913e-06
5.95422e-07
1.19778e-06
0.0105479
1.77591e-06
5.46621e-06
1.61932e-06
0.000177266
1.98246e-06
0.0070943
0.00522371
0.000447972
0.00181335
0.00219314
2.03212e-06
1.55453e-06
0.00472852
1.70127e-06
0.000906906
1.8909e-06
0.00250854
1.55688e-06
8.81758e-07
0.00874426
9.4074e-07
4.04486e-06
0.00737885
0.0173299
1.62057e-06
0.0144716
1.65839e-06
0.00950084
3.52518e-05
8.29597e-07
1.58453e-06
8.81765e-07
0.0141818
0.0115233
0.00950646
0.00351996
7.8378e-07
2.01552e-06
0.0167095
7.19841e-07
0.00895096
8.65814e-07
0.0159967
1.94045e-06
3.05086e-06
8.63731e-07
0.00469563
0.000439657
2.03157e-06
1.55213e-06
1.47861e-06
0.00381708
1.49387e-06
1.48208e-06
3.08098e-06
0.00226721
0.00231656
9.76474e-07
7.68082e-07
2.30584e-06
0.0158874
2.83717e-06
0.00660428
1.94749e-06
2.15401e-06
0.0151363
0.0143246
1.8289e-06
0.00700364
1.17416e-06
0.011355
0.00689649
0.00711764
8.85138e-07
5.46766e-06
0.00217644
9.93286e-07
0.00936626
1.55851e-06
7.147e-07
1.6485e-06
1.57783e-06
8.9794e-06
0.00316222
1.14989e-06
1.42945e-06
0.00701008
1.06804e-06
8.64125e-07
9.3807e-07
0.0085453
5.76242e-07
1.63103e-06
1.00827e-06
8.81256e-07
0.00758599
1.89552e-06
0.010015
5.93878e-07
0.00142955
0.00799773
1.64122e-06
5.179e-07
0.0111792
1.04649e-06
1.10535e-06
1.29587e-05
0.00221972
2.31598e-06
0.00516237
1.07082e-06
0.00321697
1.22798e-06
1.59552e-06
1.69583e-06
0.00288449
5.16589e-07
0.00199312
0.00778871
0.0138733
1.54496e-05
0.00282018
0.00222283
0.00489119
0.002719
0.00701226
1.35433e-06
1.56618e-06
0.010704
1.44322e-06
0.00520132
0.000218418
1.69015e-06
0.0105151
0.0140115
1.66812e-06
5.08717e-07
0.00769597
0.00622286
5.3984e-07
0.0119709
1.55419e-06
6.57446e-07
0.000880987
0.0153368
8.71495e-07
2.05892e-06
1.56565e-06
0.010435
1.49833e-06
0.00436577
0.000321437
1.80052e-06
5.10117e-07
1.78157e-06
0.0101007
5.87804e-07
9.5055e-07
0.00357959
5.73979e-07
1.75086e-06
0.0149655
9.51146e-07
0.00865462
1.38927e-06
1.47566e-06
0.0032606
1.62715e-06
0.00214079
0.00725764
0.011719
1.43845e-06
0.00659176
0.0106785
1.376e-06
6.61806e-07
0.00011661
1.67729e-06
1.34646e-06
3.90066e-06
0.00687071
1.35971e-06
0.0142373
0.00667417
0.00953169
0.00909537
1.54777e-06
1.14651e-06
1.13749e-06
5.54573e-07
0.00532582
1.54719e-06
0.00440875
1.09924e-06
0.00710997
8.54095e-07
8.72583e-06
0.000376617
1.64325e-06
0.00174917
2.72029e-06
2.21883e-06
0.00683247
0.00812094
1.50618e-06
1.06902e-06
0.00390055
1.5554e-06
2.5551e-06
0.00800083
0.0163272
0.0144577
0.00435389
0.00402831
1.9803e-06
0.019501
0.0148877
0.015518
1.35464e-06
0.000243668
1.44702e-06
1.06763e-06
0.00213199
0.00863179
0.00726229
6.22609e-07
6.3543e-07
1.78719e-06
5.89432e-07
9.55853e-07
1.72917e-06
9.22853e-07
4.42035e-07
8.3409e-07
0.0111389
0.0140765
0.00717292
1.47665e-06
0.00662836
0.0102958
1.85207e-06
8.13293e-05
4.5483e-07
1.29816e-06
1.14763e-06
3.76637e-06
0.00451989
2.40305e-06
8.67941e-07
0.00677854
1.36886e-06
4.95447e-07
0.00508036
1.58565e-06
0.00208467
1.21326e-06
0.0107083
0.00327747
0.00728395
1.47602e-06
1.43931e-06
7.95347e-07
1.75746e-06
6.93279e-07
1.38101e-06
0.0139107
1.81588e-06
0.00580185
1.57656e-05
4.5922e-06
3.36152e-06
0.00715093
0.00678697
7.51195e-07
1.2046e-06
1.68685e-06
4.83672e-05
0.00653593
1.61283e-06
0.00696824
1.03651e-06
6.82276e-07
2.3098e-05
0.0141356
6.35054e-07
2.16919e-06
1.62133e-06
1.5772e-06
6.11722e-07
7.85071e-07
0.0030506
1.62736e-06
1.47601e-06
2.00195e-06
0.000550975
1.09529e-06
0.00474907
0.0147412
1.67632e-06
3.26249e-06
7.2352e-07
1.77518e-06
2.0738e-06
1.53567e-06
1.37911e-06
0.0112436
0.00878411
0.00781881
0.0198802
1.39586e-06
1.46344e-06
3.38184e-06
0.00796685
0.00549539
0.00684404
5.60231e-07
0.000365062
0.00765415
0.00900605
0.0115302
1.00434e-06
1.41166e-06
0.00836555
0.000474591
1.24644e-06
8.84728e-07
1.51431e-06
0.0147302
5.46043e-07
1.51399e-06
0.0144691
2.32982e-06
1.60188e-06
0.00738638
2.02195e-06
1.8232e-06
2.02495e-06
0.0065324
0.00821165
0.0106462
0.015922
0.00488013
0.00762596
0.0176552
6.48811e-07
0.00480417
9.24564e-07
0.0134992
0.0101244
0.00774117
0.00692485
0.000582543
2.25981e-06
0.00513584
0.00395537
5.99824e-07
1.41233e-05
0.013361
0.00720731
0.000484665
0.0120872
0.000500134
2.07721e-06
2.15947e-06
6.33526e-07
4.9959e-07
2.20409e-06
0.00651075
1.67102e-06
0.0106472
1.07247e-06
6.63381e-06
1.31058e-06
2.99071e-06
1.38648e-06
0.00392343
0.0186464
1.81018e-06
0.00710662
8.60888e-06
0.00758414
0.00207634
0.0167203
1.39614e-06
1.05987e-06
1.89444e-06
0.0181293
2.94281e-06
0.00693429
1.72003e-06
9.95193e-07
8.94061e-06
0.0131479
1.84867e-06
7.74121e-07
0.0151184
1.80244e-06
0.00453027
0.000253771
1.34957e-06
0.000545788
0.012004
7.76663e-07
0.012176
0.00764855
0.00769121
0.00644298
2.02353e-06
0.0190329
2.23441e-06
1.8161e-06
4.65894e-06
6.25536e-07
9.661e-06
0.0074227
4.72954e-06
6.48282e-06
0.00653472
3.58425e-06
8.0445e-07
2.105e-06
5.69665e-06
1.13103e-06
0.00725312
9.84645e-07
4.0546e-06
0.0110682
0.00770823
0.00796055
0.0025036
0.0159424
1.13577e-06
5.14158e-06
0.0115884
0.013696
7.83858e-07
5.06575e-07
0.00705033
5.0218e-07
8.55095e-07
4.34628e-06
2.35918e-06
0.0201449
8.18827e-07
0.00580641
6.67528e-06
0.00437973
4.41446e-06
1.68465e-06
3.24825e-06
9.27759e-07
1.46279e-06
0.00868906
1.447e-06
0.0135294
0.00677918
9.59258e-07
1.53648e-06
0.00508157
5.20547e-06
2.94652e-06
6.72636e-06
2.15182e-06
0.00766155
4.552e-06
0.00917015
0.00723596
0.00317233
0.00791407
0.0101171
0.000962468
0.00731042
0.00647387
1.68678e-06
1.59882e-06
4.2764e-06
0.0112277
4.41638e-06
0.0138724
0.00651238
1.61408e-06
1.7086e-06
0.000121115
0.00274533
0.00494485
7.42275e-05
0.017889
1.74646e-06
1.57422e-06
1.54313e-06
0.000709289
2.67003e-06
0.00858717
1.12292e-06
0.016438
0.00978972
9.36342e-07
1.53595e-06
0.000225394
3.87772e-06
0.00680597
1.50797e-06
1.72732e-06
4.97915e-07
1.77521e-06
7.75209e-07
0.00769219
1.14436e-06
0.00402601
1.70387e-06
0.00818583
5.51296e-07
5.61983e-06
1.7147e-06
3.71895e-06
1.29258e-06
0.00631823
2.46531e-06
6.72971e-05
1.79631e-05
0.000310521
0.0186961
4.58464e-06
0.0146291
0.00982625
0.0130975
0.00247099
1.02345e-05
7.12214e-07
9.63272e-07
6.58073e-06
2.72224e-06
1.14588e-06
9.79767e-05
0.0121888
3.75099e-06
0.0100577
0.000263426
7.13887e-07
1.84128e-06
0.00860257
1.79834e-06
0.0194693
0.00405492
9.95288e-07
0.00799239
0.00638615
2.26299e-06
5.47789e-06
1.47288e-05
0.00698121
1.57174e-06
0.00745546
0.00811391
1.11332e-06
0.00777084
0.00305236
4.28347e-06
0.0129747
1.29003e-06
0.00625782
0.000270339
4.69068e-06
0.00503651
1.47777e-06
5.51389e-07
3.32982e-06
8.70252e-06
0.00617685
0.000585715
0.0073101
9.66757e-07
5.71493e-07
0.00877874
0.00512027
0.0161682
2.23131e-06
0.00572239
1.80202e-06
4.73572e-07
0.0137899
7.53998e-06
0.0134273
3.05048e-06
1.82474e-06
1.81883e-06
0.00944739
4.65584e-06
0.00495995
0.00649026
0.00460915
0.0148974
0.0145274
5.29144e-05
0.00647646
8.52133e-05
0.00960382
2.79295e-06
1.41779e-05
7.22512e-07
1.66813e-06
1.3404e-05
4.62251e-06
8.13915e-07
0.018295
0.0205619
0.0167437
1.74796e-05
1.78644e-06
0.00371455
1.16356e-05
0.00756287
1.75035e-06
0.00758701
4.46461e-05
1.75293e-05
5.67441e-06
0.00775135
3.36949e-06
5.29047e-07
1.66004e-06
0.00798898
2.27779e-06
6.49038e-07
3.02349e-06
1.17955e-05
1.61847e-06
1.56728e-06
0.00769099
0.0101069
1.86641e-06
1.80005e-06
3.2329e-06
1.19623e-06
0.0110009
0.00722186
1.17944e-06
0.0190916
5.02226e-07
1.61135e-06
0.00418652
1.77988e-06
1.81454e-06
2.33968e-06
0.00193562
0.00609454
0.00969456
1.63499e-06
0.0181533
1.59513e-06
1.77039e-06
9.33109e-06
0.00803164
2.36031e-06
0.00883001
0.000386809
0.000437139
2.89615e-06
0.00769352
0.00566008
0.000283085
2.23844e-06
0.0176993
3.24513e-06
1.70143e-06
7.18135e-06
2.5486e-06
4.93212e-07
3.12688e-06
3.22283e-06
1.20023e-06
2.16726e-06
2.71835e-06
1.80967e-06
4.93398e-06
6.96577e-07
7.96752e-07
0.000200233
1.09842e-06
2.94995e-06
0.000515815
1.58591e-06
8.02141e-07
1.84583e-06
0.0110838
0.013869
0.00211446
2.13035e-06
1.82967e-06
0.00624483
1.44596e-06
0.00452754
3.26318e-06
0.000453398
1.32701e-05
0.0190705
1.77693e-06
0.000615371
8.55089e-07
1.47274e-06
0.00830737
0.00804709
0.0185637
1.77554e-06
0.015347
0.00842499
0.0146774
4.8803e-06
2.57077e-06
1.14857e-06
0.00954588
4.76395e-05
1.86206e-06
6.78684e-07
1.98152e-05
0.0143323
5.88036e-07
0.00459124
2.38002e-06
1.45904e-06
1.64306e-06
1.54633e-06
0.0104611
0.00731619
0.00792643
1.31899e-06
1.14113e-06
2.7101e-06
1.14458e-06
0.0125202
5.68673e-07
0.0196504
2.25217e-06
0.0128536
2.59859e-06
0.00760271
0.00824776
0.00586793
0.00561708
0.0171356
7.93753e-07
0.000450213
1.73774e-06
7.17528e-07
0.00645024
2.02253e-06
7.20175e-07
8.09972e-07
1.6383e-06
0.000707991
0.00246695
1.5984e-06
1.58633e-06
1.74353e-06
2.5121e-06
1.57585e-06
0.00821473
0.00212398
1.52863e-06
1.7649e-06
0.00531313
0.00712297
2.59983e-06
0.00994984
0.00734829
0.000591764
0.00568147
1.76056e-06
1.50834e-06
0.0104157
1.41272e-06
1.48503e-06
0.0107572
6.53683e-07
2.45127e-06
1.9486e-06
1.3719e-06
0.0196204
1.79744e-06
2.04941e-06
1.06226e-06
7.13392e-07
1.79008e-06
0.00222711
5.93207e-07
1.91584e-06
1.80874e-06
0.00787449
6.66077e-07
1.72738e-06
2.96879e-06
1.43448e-06
2.28754e-06
0.0147211
0.011432
1.33053e-06
1.66822e-06
1.6206e-06
0.00855351
0.0150725
0.00410653
1.31242e-06
1.59598e-06
8.7403e-07
0.00504026
1.31917e-06
5.48076e-06
2.02932e-06
0.000203108
0.0204939
3.07589e-06
2.00328e-06
4.06223e-06
0.000693842
0.00536821
3.42961e-05
1.48364e-06
1.10853e-06
1.99168e-06
0.00357472
0.000214339
1.53202e-06
0.00545139
0.00210511
1.5984e-06
0.00208608
6.20517e-07
0.0208428
0.00568063
8.74858e-07
0.0156799
0.0150362
1.56801e-06
1.07346e-05
1.57405e-06
0.000516486
0.00282108
1.69994e-06
7.15202e-07
0.0106897
6.38371e-07
0.00179958
6.50802e-05
0.0147396
0.0107406
0.00265085
1.52673e-06
1.7802e-06
0.0100556
7.14055e-07
9.31701e-06
0.0098534
0.00187067
6.75317e-07
1.41325e-06
1.74735e-06
1.39018e-06
4.653e-06
0.0117889