/*--------------------------------*- C++ -*----------------------------------*\
| =========                 |                                                 |
| \\      /  F ield         | OpenFOAM: The Open Source CFD Toolbox           |
|  \\    /   O peration     | Version:  v2012                                 |
|   \\  /    A nd           | Website:  www.openfoam.com                      |
|    \\/     M anipulation  |                                                 |
\*---------------------------------------------------------------------------*/
FoamFile
{
    version     2.0;
    format      ascii;
    class       volScalarField;
    location    "250";
    object      k;
}
// * * * * * * * * * * * * * * * * * * * * * * * * * * * * * * * * * * * * * //

dimensions      [0 2 -2 0 0 0 0];


internalField   nonuniform List<scalar> 
13726
(
6.84919e-05
0.0300935
8.91139e-05
7.3634e-05
0.000215624
6.6103e-05
6.86588e-05
6.95952e-05
0.000221383
0.000108103
0.000219178
5.06555e-05
5.78185e-05
0.0523033
7.32811e-05
6.67174e-05
0.000205309
8.17139e-05
0.0718762
0.000409247
0.059688
4.63043e-05
7.80444e-05
8.93804e-05
4.85862e-05
4.48356e-05
9.33265e-05
4.47635e-05
4.87611e-05
0.025582
0.0779953
4.56583e-05
0.0643919
9.09336e-05
0.00133131
0.0533739
9.32979e-05
0.0323309
7.42479e-05
7.99209e-05
0.00143806
0.000991158
9.16643e-05
7.2283e-05
6.95377e-05
8.31616e-05
0.00261497
4.95383e-05
0.000125219
5.27594e-05
0.0414375
4.96273e-05
6.33266e-05
8.15483e-05
9.05511e-05
0.000107732
5.88448e-05
6.75688e-05
9.94389e-05
8.99964e-05
0.0401431
7.20509e-05
0.0364381
4.61354e-05
0.024639
4.54731e-05
0.0558638
0.060721
4.99768e-05
0.000219801
0.00228375
6.92498e-05
7.11276e-05
9.17896e-05
0.0708078
0.0428071
0.000223404
0.0571829
0.0686935
0.000145922
0.000260178
0.000119776
0.000148119
6.35736e-05
7.42291e-05
0.040869
0.000165156
8.67738e-05
5.53318e-05
0.0621298
8.42918e-05
0.000221355
8.33768e-05
9.02076e-05
0.0321526
0.0618513
0.000104304
5.06122e-05
7.61327e-05
0.0179513
8.49463e-05
0.00010876
7.35057e-05
5.80043e-05
0.000144566
0.000203241
0.000147766
6.22802e-05
8.0038e-05
0.00010357
0.000124757
5.73299e-05
0.0847724
0.0516845
0.050295
7.51751e-05
0.00356164
0.0890856
7.44629e-05
8.91592e-05
0.0115887
7.02513e-05
8.83483e-05
0.0710089
0.0829663
0.0363619
7.60659e-05
6.27575e-05
5.73878e-05
7.80947e-05
0.0400531
0.0465888
7.812e-05
0.000123303
0.0417465
0.000212867
0.0270415
0.00607764
0.0186443
0.0332735
0.000133962
0.0413265
6.47911e-05
4.93479e-05
6.63556e-05
9.36639e-05
0.0594492
9.37234e-05
8.70034e-05
0.0698403
7.62849e-05
6.81552e-05
0.000123335
9.34892e-05
4.99231e-05
8.82437e-05
9.41699e-05
0.00268126
0.0317918
4.8624e-05
5.46234e-05
5.9759e-05
0.0382577
0.0576812
4.49825e-05
0.000172609
0.033047
6.8564e-05
8.4841e-05
5.41044e-05
7.54442e-05
8.76437e-05
0.00483651
8.99149e-05
0.0599673
0.000769821
4.97961e-05
0.0745228
0.0830645
6.40435e-05
0.0776566
8.84493e-05
0.0392672
0.0184797
4.95489e-05
6.47614e-05
6.44333e-05
8.4651e-05
7.77588e-05
9.4538e-05
0.0490295
0.00110552
0.0274373
0.0281642
6.90167e-05
4.51689e-05
7.48731e-05
0.0338481
0.00139242
0.000113393
0.0254451
0.00602435
0.0287093
8.9774e-05
6.24763e-05
6.66323e-05
8.30325e-05
0.0360645
9.08705e-05
0.000129535
0.000221257
0.0336364
0.0265632
4.43941e-05
0.05997
0.0690054
8.93462e-05
9.08633e-05
8.30714e-05
0.0708611
9.19522e-05
0.000105585
0.00166658
0.054239
6.17114e-05
0.0369523
0.0193536
0.0611055
0.0600784
8.4572e-05
0.0418173
0.0281509
0.0762185
0.0577112
9.12684e-05
8.87219e-05
0.022285
0.088866
0.00547544
0.0694083
5.77694e-05
7.97223e-05
6.2594e-05
0.0617576
0.00317911
0.0519009
9.97802e-05
9.34073e-05
5.03997e-05
0.000184077
0.0844129
9.15467e-05
0.0639802
9.35138e-05
0.000117981
0.000386239
8.82111e-05
0.0782344
0.0567038
9.3222e-05
0.000484731
0.0230277
0.000103925
5.10254e-05
0.0412821
0.0843047
6.73533e-05
8.8306e-05
4.91453e-05
0.000112562
0.00154744
9.31604e-05
0.0863164
8.88734e-05
0.0441595
0.0407975
0.0723498
0.00690032
9.01129e-05
4.59256e-05
0.0337317
9.02108e-05
0.0236113
9.29557e-05
0.056865
6.63702e-05
0.0377875
0.00246159
9.35441e-05
4.5483e-05
0.0343683
9.30753e-05
4.44035e-05
0.0555787
0.0372988
9.25629e-05
0.000158107
6.7011e-05
0.0511063
5.55476e-05
0.00179594
0.0582186
0.000142554
8.15651e-05
5.8274e-05
0.012351
0.0207831
0.0789088
0.011949
9.74449e-05
0.061018
0.000346242
0.0792278
0.0182439
7.10468e-05
0.00353749
6.19368e-05
0.0400553
0.0686451
0.0394439
0.045542
0.00025353
8.87043e-05
7.11956e-05
0.000155767
9.35174e-05
8.12689e-05
0.0333662
8.8379e-05
0.0349323
7.03351e-05
0.0270086
7.91839e-05
9.34255e-05
0.000146601
8.63709e-05
7.73304e-05
9.81743e-05
6.74338e-05
0.000128979
0.00449209
0.0588906
0.0611497
0.0391129
0.0135076
0.000147361
9.80545e-05
0.000109885
0.000485079
7.51988e-05
0.044653
0.0588801
0.0677129
4.66276e-05
8.75605e-05
8.47394e-05
7.0043e-05
0.0237318
9.30457e-05
9.19253e-05
7.98383e-05
0.00010517
0.0190176
7.03251e-05
0.000101526
0.0776991
0.0876832
7.7492e-05
6.86039e-05
7.05591e-05
0.000231658
5.72993e-05
4.64752e-05
8.30153e-05
0.00117354
6.8818e-05
4.82752e-05
0.0690117
0.000104932
0.000148155
6.17936e-05
6.10549e-05
7.59351e-05
0.0535038
0.0702229
0.0844695
0.0748613
0.00010596
7.3569e-05
8.98343e-05
6.62413e-05
8.69726e-05
8.48659e-05
6.95956e-05
6.43276e-05
9.12509e-05
0.070003
0.0547448
0.000103619
9.21944e-05
6.61275e-05
7.69041e-05
8.6669e-05
0.000125942
9.03296e-05
0.000106203
9.10277e-05
7.65775e-05
0.0794517
0.0102169
0.0302005
8.79479e-05
0.0493603
0.0594992
0.000580194
8.30981e-05
0.067936
0.0284394
0.0356428
0.04049
0.0621638
0.00251155
4.44956e-05
0.000150302
0.0296358
5.97858e-05
0.0280049
7.5358e-05
8.60822e-05
0.000131348
0.0837905
0.0817769
0.0651752
0.0806607
9.51481e-05
5.33743e-05
7.07683e-05
5.98685e-05
9.44089e-05
0.000154085
7.32826e-05
0.02951
5.31833e-05
0.0427235
0.000401525
6.8684e-05
0.0423364
4.94316e-05
4.52952e-05
0.000266545
5.91197e-05
0.0441068
0.0459258
5.06826e-05
0.0483625
6.39965e-05
0.0678628
0.0457159
5.75438e-05
9.31984e-05
0.000101135
0.0684518
0.000100732
0.0458767
0.00028987
9.53506e-05
0.0658001
0.0396002
6.35686e-05
0.0841043
0.000117724
5.70174e-05
6.71413e-05
6.65477e-05
0.0741959
4.94727e-05
0.00360664
0.000830102
0.0408115
9.97993e-05
0.00407473
5.46017e-05
4.48646e-05
0.037799
4.44141e-05
5.88642e-05
6.22629e-05
6.72682e-05
0.0571113
0.0753041
8.76476e-05
0.000166633
6.01733e-05
0.0595521
0.0534387
8.82053e-05
9.26693e-05
0.0680918
0.0480771
8.3894e-05
5.61979e-05
0.00515309
5.90966e-05
0.000139669
8.36598e-05
7.42701e-05
0.0401731
0.022425
5.41862e-05
7.52224e-05
9.01015e-05
0.0376528
5.72771e-05
0.000107186
4.4796e-05
0.0328562
0.000194389
7.95433e-05
8.79519e-05
9.22751e-05
7.64787e-05
0.000132842
0.0354709
0.00468932
0.000139629
0.000150056
0.0566991
0.000148077
4.44515e-05
0.00136469
0.000125588
0.000108587
0.0506056
8.96418e-05
0.0685996
7.79527e-05
4.93331e-05
0.0389287
0.000103175
9.22499e-05
0.0308165
5.70262e-05
5.5508e-05
9.0315e-05
0.000244237
0.0371798
0.000101089
6.85758e-05
0.00101988
8.51015e-05
7.95327e-05
0.00553309
6.84652e-05
0.0408092
9.05281e-05
8.07489e-05
6.3231e-05
0.0546531
0.0381614
0.0486034
0.0162214
7.72312e-05
0.0672262
8.34677e-05
0.081027
0.000693313
9.91075e-05
7.71459e-05
0.0667593
0.000116102
0.0685007
4.97238e-05
5.40702e-05
0.0679857
8.36541e-05
0.0404966
8.08219e-05
9.46721e-05
0.000145275
0.000129664
0.0599348
0.0388908
6.85526e-05
6.22979e-05
0.0117271
8.21119e-05
0.0731413
0.00405852
4.97328e-05
0.0356398
7.04066e-05
0.000120689
6.74928e-05
9.2879e-05
0.0377569
7.96611e-05
0.0665865
8.74904e-05
0.000707111
0.0447179
8.79535e-05
8.45333e-05
7.45584e-05
6.82794e-05
6.49958e-05
0.0617156
0.086012
0.0094306
8.50049e-05
0.0111278
0.0497589
0.0743207
9.86073e-05
0.0324429
0.0317299
8.78328e-05
8.7135e-05
4.91721e-05
0.0698833
8.94612e-05
8.84842e-05
4.97679e-05
0.0609552
0.0680635
0.000148324
7.36313e-05
9.69471e-05
0.000130536
4.91387e-05
9.37762e-05
0.0530182
5.56916e-05
0.0677083
7.89264e-05
0.039752
0.000103973
7.44344e-05
0.0248747
0.027976
9.00317e-05
0.00866748
8.99217e-05
9.22102e-05
0.0294216
0.000171351
0.0745047
9.22471e-05
0.000246364
0.0365681
9.42655e-05
0.000219157
9.95857e-05
0.0678958
4.68814e-05
0.00903916
7.61633e-05
8.84801e-05
8.42609e-05
0.038527
4.6833e-05
8.56376e-05
6.69406e-05
0.01213
0.00896434
0.000101732
5.39577e-05
6.35015e-05
0.05316
0.0528356
6.1e-05
0.0547788
0.000223444
0.0691098
0.0418255
0.000223726
0.000123879
0.00186942
5.67594e-05
7.87532e-05
0.0710236
8.77956e-05
7.59849e-05
0.000101507
0.00117142
8.00822e-05
5.18031e-05
8.40047e-05
8.69478e-05
0.0714249
0.000103143
6.39735e-05
8.79525e-05
9.75068e-05
6.61488e-05
8.45132e-05
8.75497e-05
7.85438e-05
0.0854911
5.17994e-05
9.9397e-05
8.71597e-05
7.43449e-05
5.93833e-05
8.52873e-05
5.31741e-05
0.000158186
9.68954e-05
0.0636036
6.24085e-05
0.0631949
9.00471e-05
0.0697374
0.0495031
0.000107964
9.00568e-05
9.50232e-05
7.42341e-05
6.25043e-05
0.000111781
7.33656e-05
6.25007e-05
0.0850301
0.083768
0.000869914
0.0521467
5.77304e-05
0.027454
5.40935e-05
5.75299e-05
4.94297e-05
9.09157e-05
0.0277242
0.000112442
0.0638646
0.000100151
0.000734189
0.0805039
0.00608496
0.000767269
0.000102065
9.06736e-05
7.53209e-05
8.25565e-05
6.58619e-05
0.074825
0.0699425
0.000125619
7.81549e-05
6.53692e-05
0.0839095
9.05205e-05
5.48918e-05
6.43559e-05
9.31904e-05
0.0544313
0.000219522
0.000114791
7.35356e-05
0.0323857
0.0390089
8.73121e-05
0.0282141
0.000589527
8.0594e-05
0.0671455
0.058517
0.0603203
5.23347e-05
0.000111961
0.0535371
8.56925e-05
0.0247009
6.34947e-05
0.000126566
6.3137e-05
6.00456e-05
0.000167233
0.0336194
8.18568e-05
6.22519e-05
8.47112e-05
7.83463e-05
6.93277e-05
0.0472242
0.00474227
5.81023e-05
4.80494e-05
6.40334e-05
0.0521284
5.45281e-05
0.0147962
0.0574727
0.0869272
0.0200216
0.0586347
0.0661645
0.0767055
8.43912e-05
7.53845e-05
0.0608823
5.60028e-05
0.056783
0.0581202
0.037496
5.14646e-05
8.21605e-05
8.56334e-05
0.00290329
4.56271e-05
0.0568215
0.00543711
0.00594764
0.0607006
0.000274141
0.0562663
6.49398e-05
0.0818105
9.27231e-05
0.0470249
8.60424e-05
0.000170748
6.57668e-05
0.000366157
9.29991e-05
0.000129711
8.81063e-05
7.52273e-05
5.09866e-05
0.0477183
5.7571e-05
8.4085e-05
0.0433568
6.61518e-05
8.38595e-05
6.34951e-05
0.0256014
6.25853e-05
6.77154e-05
0.000110087
5.14212e-05
8.75157e-05
5.92961e-05
0.0504293
8.58119e-05
4.85635e-05
0.000161939
0.0184503
6.63864e-05
6.57247e-05
0.0509635
0.0282782
0.000124789
6.50318e-05
0.0669313
0.0624833
0.029844
0.000219635
0.0423859
8.93913e-05
6.91387e-05
9.3015e-05
4.83088e-05
7.57473e-05
0.0219037
0.000107576
0.0387639
5.09981e-05
0.000143649
6.1801e-05
0.000101801
0.0191693
0.0281531
6.89594e-05
9.0135e-05
0.000136871
5.53378e-05
5.87681e-05
5.09783e-05
0.069755
0.0339319
9.44244e-05
5.93201e-05
8.83162e-05
6.4954e-05
0.0518639
8.62557e-05
7.48188e-05
0.0366186
9.92111e-05
0.000164436
8.25391e-05
0.0872763
0.00908109
8.97549e-05
8.8102e-05
0.0158034
0.00353773
8.91292e-05
0.0307011
0.0371632
0.0411346
0.0688258
0.0647891
0.0264149
0.00013228
0.00102617
5.07031e-05
5.85999e-05
0.0673817
6.24308e-05
0.0477756
7.60644e-05
0.0149287
0.050712
9.34847e-05
0.0660779
0.0255126
0.0286453
8.93279e-05
6.84515e-05
5.65785e-05
0.000166365
0.0310361
5.43461e-05
0.050369
9.75662e-05
0.0131241
0.000144363
9.18547e-05
0.00628388
6.33385e-05
0.00582297
9.24925e-05
6.43952e-05
6.61077e-05
0.0585015
0.000125628
8.91828e-05
0.0658902
8.3177e-05
0.0139657
8.57434e-05
0.0157244
0.0699155
0.0643452
7.19757e-05
5.02735e-05
0.00011227
7.54793e-05
0.0706979
0.0441127
4.98548e-05
9.15403e-05
0.000151816
0.045308
0.000468164
7.67503e-05
0.015705
6.89136e-05
7.48205e-05
0.0448939
0.0453448
0.055755
8.25152e-05
0.0867396
0.000115604
0.0576986
0.000246771
0.0205761
0.0625054
9.73054e-05
0.0160973
0.0580423
0.0673397
0.0566127
7.45776e-05
0.0684036
0.000149867
0.000110682
7.14943e-05
6.83565e-05
0.0100115
6.93448e-05
0.0877672
0.0471035
0.0268796
0.0573875
0.0414788
0.0768674
0.0525646
0.0586868
5.23134e-05
0.0117729
5.80384e-05
0.0426009
0.0261277
4.86321e-05
0.0295282
5.88865e-05
5.3173e-05
8.51323e-05
8.53292e-05
0.0851896
0.0288463
7.47072e-05
7.46777e-05
0.00180013
0.0403084
9.71479e-05
0.000149862
0.0136737
8.78594e-05
9.41034e-05
5.22425e-05
0.0211528
6.98883e-05
7.71213e-05
0.00788599
9.28821e-05
0.0156214
0.0578143
8.7707e-05
0.0579907
9.2553e-05
0.069585
0.0445675
0.060475
8.89017e-05
0.00547431
9.4519e-05
0.0629375
6.69036e-05
0.000407739
6.54495e-05
5.67469e-05
0.0421367
8.29148e-05
7.79948e-05
0.0147516
0.000102969
5.48662e-05
0.060122
7.00588e-05
6.48371e-05
0.0161153
0.0705824
7.99668e-05
0.0173411
7.60864e-05
0.0887216
8.56621e-05
8.54494e-05
7.69524e-05
5.03526e-05
7.99305e-05
0.00361256
0.0408826
5.41912e-05
0.0417248
9.80855e-05
0.0353427
5.73216e-05
5.05796e-05
0.000195485
0.000655954
6.91906e-05
8.90349e-05
0.0327517
7.59049e-05
0.000163249
8.98656e-05
0.0391142
0.0017317
0.000111138
0.00014649
0.0701362
4.45889e-05
5.4691e-05
0.000615439
0.0566129
0.000118662
0.0605128
8.80992e-05
0.0677929
0.0654325
5.94459e-05
7.90498e-05
0.0364732
0.000150003
9.08437e-05
0.0092127
9.9956e-05
9.06991e-05
0.000120381
8.80614e-05
0.000611633
0.000479454
7.48634e-05
0.0885499
0.0336906
5.59812e-05
0.000148819
0.0250516
0.0599291
0.00124582
6.22051e-05
9.76894e-05
0.0835308
8.09745e-05
7.36442e-05
0.0696716
7.62559e-05
0.0284951
7.02602e-05
6.21778e-05
0.0432731
0.000349459
0.00915455
0.000133658
9.22494e-05
5.77518e-05
0.0661662
0.0146523
7.95176e-05
0.000155242
0.0480542
5.65373e-05
7.91086e-05
9.03804e-05
9.4509e-05
0.0632964
6.50103e-05
5.089e-05
0.000115242
6.1959e-05
0.0464742
0.0859325
0.0606805
0.000146719
4.62567e-05
8.04873e-05
0.0580041
0.000224021
0.0552404
0.000113241
0.000104664
9.28682e-05
9.08173e-05
8.73493e-05
0.000551636
0.0821991
8.69396e-05
0.0388166
0.0746922
4.83574e-05
0.05175
0.0520006
0.0360805
0.0110739
4.4596e-05
0.0137448
0.000474728
0.0304998
6.50869e-05
0.00010048
0.0814335
8.52435e-05
8.27288e-05
0.086502
0.000129733
0.0490013
0.0595815
0.00013201
0.0590223
0.068843
6.82808e-05
0.0466727
0.00915566
7.38536e-05
7.47765e-05
0.0521927
8.6837e-05
9.16384e-05
5.24277e-05
8.44295e-05
0.0807771
6.54227e-05
0.000182682
0.00451736
0.00122556
7.62992e-05
9.43438e-05
0.0650805
4.63436e-05
6.59102e-05
8.66277e-05
8.45927e-05
8.01353e-05
0.0570846
9.09947e-05
8.44647e-05
0.0211853
7.77018e-05
0.0639074
8.05819e-05
0.0832178
8.10526e-05
0.0530922
0.0172307
7.53103e-05
0.0380805
0.000971966
9.39699e-05
7.3887e-05
6.34559e-05
0.0420062
5.79023e-05
0.00918741
6.87558e-05
7.61645e-05
0.000515058
0.0463959
5.78895e-05
9.32527e-05
5.1646e-05
8.67127e-05
8.76916e-05
0.000105869
4.69705e-05
0.0730954
0.0112605
6.70435e-05
6.80042e-05
0.0820655
0.0312311
8.85087e-05
4.83212e-05
0.0826885
0.0238573
0.0723008
0.00010426
9.09012e-05
0.00895653
0.000111746
0.0658906
0.0837
6.81414e-05
7.99096e-05
0.0376844
0.000148684
6.56695e-05
0.0727924
0.0351895
0.0869007
5.07568e-05
0.000107023
0.000100932
7.39794e-05
8.93363e-05
0.00737642
0.000105836
5.77246e-05
0.0430417
8.52931e-05
5.08001e-05
0.000108718
0.00972925
6.83495e-05
0.0824457
8.39599e-05
8.66762e-05
8.63659e-05
8.96588e-05
6.1342e-05
0.0585967
0.0466193
6.97725e-05
0.0436896
6.092e-05
7.29615e-05
0.0239035
0.0599801
4.96949e-05
0.0515354
7.83075e-05
5.44948e-05
7.89367e-05
0.0590999
0.0351153
4.81349e-05
0.0660389
0.07186
0.0386256
0.00010987
0.0724566
0.0448023
9.49514e-05
0.0114714
6.48999e-05
8.4511e-05
8.38954e-05
0.0762673
0.0400289
0.0291304
0.0115014
5.8116e-05
5.92195e-05
6.89437e-05
0.00010841
9.2629e-05
4.50416e-05
8.98106e-05
7.61785e-05
0.0408524
6.96449e-05
8.82323e-05
4.6339e-05
0.0349629
7.79454e-05
4.45752e-05
5.18824e-05
0.0496822
7.26554e-05
8.23429e-05
9.4777e-05
0.00452458
5.07701e-05
0.000154741
0.000101678
8.72037e-05
0.000400414
0.0116638
8.7082e-05
0.00714379
0.0430211
8.05521e-05
7.94647e-05
7.05624e-05
6.88645e-05
9.77026e-05
0.00010744
8.95684e-05
0.0434707
4.49994e-05
8.57149e-05
7.4082e-05
8.39331e-05
7.90527e-05
8.83364e-05
8.21295e-05
6.89777e-05
0.000129009
0.000481039
0.0355802
0.0019637
0.000724341
0.000149879
4.80971e-05
0.000153321
0.0407655
7.97572e-05
0.000927599
0.0201055
0.0435218
8.63219e-05
0.0406192
9.19013e-05
0.0147394
7.13813e-05
5.70906e-05
8.61203e-05
9.50412e-05
0.0124282
0.000120707
0.0362049
0.0585833
0.0848447
7.28721e-05
4.90634e-05
8.6761e-05
0.0677738
6.59748e-05
6.5987e-05
0.0386048
7.35344e-05
0.0588664
8.24551e-05
0.000146691
5.524e-05
5.12068e-05
0.0383339
5.69259e-05
0.0284959
0.0862385
0.000616127
7.06712e-05
9.47136e-05
0.075534
0.0402518
0.0171894
7.21095e-05
0.000154816
0.0108027
0.0847191
0.0858325
6.96654e-05
8.57389e-05
5.80728e-05
6.83051e-05
0.000101272
0.000126104
4.80625e-05
8.97233e-05
0.074708
0.0673765
0.0090861
0.000127142
0.00123443
5.88984e-05
5.75978e-05
0.000420262
9.16318e-05
0.000151816
0.000118399
9.66835e-05
5.22064e-05
0.0206305
0.0652326
0.0503502
6.61096e-05
0.0571255
7.32509e-05
9.78437e-05
0.00555029
4.43922e-05
9.10018e-05
0.0249015
0.0212648
9.76024e-05
0.000559318
7.79627e-05
0.0640928
7.32026e-05
0.0117534
8.10695e-05
0.000100741
0.0506339
0.0503669
0.039977
6.56949e-05
6.3041e-05
0.00019657
9.83277e-05
9.47573e-05
0.000198632
0.0321012
6.62933e-05
6.9379e-05
0.000112955
8.644e-05
9.57921e-05
9.81944e-05
8.567e-05
6.5753e-05
0.0472862
0.0024875
7.97249e-05
5.44379e-05
9.83065e-05
7.29755e-05
0.000125015
0.000194406
7.16219e-05
0.0204099
0.0370571
4.59178e-05
8.85704e-05
9.1543e-05
0.0764895
0.000117993
6.29136e-05
6.58388e-05
4.57245e-05
8.15964e-05
0.072868
0.000332247
9.4359e-05
0.0278665
8.65546e-05
7.98068e-05
7.78143e-05
0.000119437
0.0677476
4.61242e-05
0.0626104
0.0383382
9.6837e-05
8.20456e-05
9.69408e-05
8.96143e-05
8.50229e-05
0.061606
0.000199492
0.0229096
8.74065e-05
5.71747e-05
0.0401347
0.0494722
0.0255105
0.0133845
0.000136444
5.94407e-05
0.0180215
0.0605076
4.84717e-05
0.0730299
0.0720037
6.51215e-05
0.000167437
8.39356e-05
5.6825e-05
7.48411e-05
4.71949e-05
0.000363186
0.0346152
6.78007e-05
4.63831e-05
0.0776997
0.0008006
0.0114082
0.0586125
0.0638046
9.36127e-05
9.70463e-05
8.01246e-05
4.71304e-05
6.45465e-05
4.52629e-05
0.0439884
0.000123953
7.05299e-05
0.0344162
4.75896e-05
0.000835986
7.28186e-05
0.0511645
0.00274578
8.81397e-05
7.13941e-05
0.0876736
0.0442802
0.0541816
0.0453703
0.0030188
0.0870858
0.00013226
0.0112875
0.054335
6.30665e-05
7.24401e-05
0.0364469
5.7817e-05
8.52908e-05
6.28707e-05
6.75442e-05
0.000105189
0.0660088
7.97976e-05
6.86976e-05
0.000115579
9.22223e-05
0.0592644
0.0104282
7.18493e-05
0.00798079
0.000138893
0.0110972
7.31354e-05
0.0529232
0.000107389
0.0682382
0.0796278
9.34189e-05
9.02981e-05
0.00914994
9.80753e-05
0.0545199
0.00471205
0.0706358
0.00010499
0.000108092
6.25462e-05
0.0533077
0.0109419
0.0708951
5.03518e-05
0.000132709
9.50153e-05
0.0471022
0.0214396
0.0119509
0.0114741
0.00133768
0.0637632
0.0660624
6.263e-05
0.000223548
0.0734521
0.0791459
0.00012387
9.8853e-05
0.0340704
6.31685e-05
8.67115e-05
6.84452e-05
9.72304e-05
0.0302586
0.0100424
4.85864e-05
9.38517e-05
8.2903e-05
0.000201353
0.0638137
9.10785e-05
0.0364066
0.0262825
0.0412686
7.05871e-05
8.6245e-05
6.89444e-05
0.0381274
0.00168213
0.0599783
5.30558e-05
8.46093e-05
0.0050668
9.27772e-05
0.0422423
8.40814e-05
0.0643754
0.0396097
8.71962e-05
0.000107345
0.0346243
7.45497e-05
8.93883e-05
0.0285486
0.000424426
7.45146e-05
0.0579335
0.000209858
0.0390732
0.0533873
0.048444
0.000126896
0.0372413
0.011274
0.0384155
0.040363
0.0619049
9.29129e-05
0.000141333
6.25035e-05
6.05016e-05
0.0126904
8.58163e-05
0.0250565
8.85012e-05
0.000166079
0.00168649
7.18978e-05
7.48662e-05
8.92495e-05
0.0785619
6.73286e-05
0.0692117
5.76128e-05
0.0611112
0.0482297
5.93143e-05
0.0155743
0.0633808
0.00516095
7.33848e-05
5.37125e-05
7.70211e-05
0.0653893
9.88495e-05
0.000211595
9.04199e-05
0.00743391
0.000104657
0.0370083
0.0494654
0.011999
0.0185775
0.0198182
0.000105844
8.85839e-05
0.0472688
9.37059e-05
0.0169729
0.000105305
0.0180359
8.87381e-05
6.57931e-05
0.0588443
6.79806e-05
0.000191263
0.0545564
0.0690033
9.02148e-05
0.0779377
9.23757e-05
0.0617947
0.000745093
6.45964e-05
8.95297e-05
6.57322e-05
0.0663187
0.0489356
0.0627305
0.0358864
6.22657e-05
0.000105873
0.0841405
5.91701e-05
0.0657643
6.50611e-05
0.0748812
0.000104557
0.000141351
6.521e-05
0.0408423
0.0110132
0.000115719
8.96884e-05
8.59826e-05
0.0135225
8.66443e-05
8.66587e-05
0.000143341
0.0193232
0.0218457
6.94602e-05
6.13425e-05
0.000118643
0.0822557
0.000136143
0.0557269
0.00010321
0.000110013
0.0800708
0.0778464
0.000102106
0.0349144
7.62896e-05
0.0688808
0.0430553
0.0606151
6.59033e-05
0.000214752
0.0213179
7.11717e-05
0.0618926
8.89766e-05
5.89349e-05
9.15741e-05
8.9087e-05
0.000229412
0.0329907
7.54169e-05
8.46496e-05
0.0339929
7.43515e-05
6.50003e-05
6.81649e-05
0.0296202
5.28035e-05
9.16745e-05
7.05403e-05
6.5751e-05
0.035113
0.000102582
0.0629231
5.3678e-05
0.020613
0.057482
9.12804e-05
5.01459e-05
0.0538746
7.24696e-05
7.45115e-05
0.000300968
0.0209928
0.000118068
0.0441253
7.35084e-05
0.0336501
8.006e-05
8.97576e-05
9.27422e-05
0.0248028
4.99331e-05
0.0289667
0.0385508
0.0584302
0.000404337
0.023542
0.0173716
0.0456291
0.0171547
0.0356551
8.6396e-05
8.93091e-05
0.0669
8.49756e-05
0.0432815
0.0082182
9.33783e-05
0.0225929
0.0628017
9.16418e-05
4.94151e-05
0.0300378
0.0530323
5.10061e-05
0.0667188
8.89878e-05
5.63695e-05
0.0171687
0.0812957
6.53211e-05
0.000109477
8.87347e-05
0.0659717
8.68197e-05
0.0387495
0.00327166
9.77482e-05
4.95764e-05
9.95765e-05
0.0647741
5.38995e-05
7.04673e-05
0.0367593
5.26882e-05
9.70768e-05
0.0613318
6.86908e-05
0.0581254
8.31495e-05
8.63842e-05
0.0337963
9.06073e-05
0.0162246
0.0350989
0.0509219
8.47753e-05
0.0580868
0.0688764
8.30266e-05
5.68805e-05
0.00403784
0.000104041
8.19254e-05
0.000170552
0.0419588
8.3958e-05
0.0786576
0.0409736
0.0485091
0.0664428
8.92831e-05
7.53297e-05
7.49908e-05
5.16228e-05
0.0501382
8.83129e-05
0.0410711
7.37476e-05
0.0380778
6.46041e-05
0.000286564
0.00938293
9.10581e-05
0.0214624
0.000130905
0.000113592
0.0372812
0.0476458
8.84647e-05
7.26018e-05
0.0393672
8.9398e-05
0.000118078
0.0491971
0.0820539
0.0729632
0.042749
0.0403191
0.000107142
0.0881965
0.0802986
0.081373
8.3833e-05
0.00898285
8.73601e-05
7.27452e-05
0.0179576
0.0445849
0.0439692
5.50344e-05
5.57731e-05
9.94383e-05
5.34432e-05
6.85002e-05
9.98701e-05
6.93091e-05
4.58714e-05
6.55379e-05
0.053001
0.0583145
0.0334131
8.60044e-05
0.0564074
0.0652478
9.95047e-05
0.00118845
4.65801e-05
8.03269e-05
7.58014e-05
0.000165635
0.0434458
0.000119578
6.82791e-05
0.0423771
8.44035e-05
4.8747e-05
0.048207
8.94618e-05
0.0208269
7.76105e-05
0.0645461
0.0340577
0.0386942
8.60989e-05
8.47796e-05
6.2342e-05
9.69852e-05
5.79504e-05
8.31726e-05
0.0593279
0.000102373
0.0228972
0.000578386
0.000192297
0.000152083
0.0428477
0.0412193
6.05817e-05
8.11723e-05
9.26041e-05
0.00245561
0.0392917
9.12403e-05
0.0406162
7.21336e-05
5.86606e-05
0.00084845
0.0784892
5.57464e-05
0.000118102
9.66272e-05
8.91069e-05
5.46064e-05
6.30679e-05
0.0321066
9.03878e-05
8.59054e-05
0.000105163
0.00565643
7.41665e-05
0.0416912
0.0792896
9.70951e-05
0.000149881
5.96171e-05
9.84848e-05
0.000107468
8.46926e-05
8.30256e-05
0.0687231
0.0474545
0.0469971
0.0882335
8.35533e-05
8.54847e-05
0.000153506
0.0396658
0.0518271
0.0378625
5.19635e-05
0.00657716
0.0614591
0.04395
0.0696698
7.16507e-05
8.52518e-05
0.0422662
0.0126785
8.26648e-05
6.58662e-05
8.7644e-05
0.0794681
5.12335e-05
8.71937e-05
0.0792966
0.000117841
9.15908e-05
0.045069
0.000105271
9.93845e-05
0.000107256
0.0315027
0.0385895
0.0475427
0.0814302
0.0459325
0.0413735
0.0858721
5.70929e-05
0.0482103
6.75452e-05
0.0634137
0.0683388
0.0356344
0.0386154
0.014533
0.000114481
0.0486468
0.0396997
5.50801e-05
0.000391142
0.0764868
0.0329032
0.0127788
0.0710049
0.00502452
0.000107838
0.000111434
5.52995e-05
4.90988e-05
0.000113326
0.0438843
9.33568e-05
0.0679636
7.40168e-05
0.00024614
8.05147e-05
0.00019734
8.30976e-05
0.037815
0.087555
0.000100324
0.0538732
0.000289696
0.0343364
0.0195219
0.0826534
8.38666e-05
7.32449e-05
0.000103752
0.0858577
0.000137026
0.0424927
9.40816e-05
7.02911e-05
0.000302997
0.0759834
0.000101704
6.13865e-05
0.0802662
9.83532e-05
0.0466659
0.00905685
8.20212e-05
0.0137882
0.0565914
6.20034e-05
0.071742
0.0455383
0.0377781
0.0363096
0.000105829
0.0871079
0.00011386
9.81508e-05
0.000189381
5.50877e-05
0.000305698
0.0436006
0.000191605
0.000241379
0.0362168
0.000158541
6.27159e-05
0.000108413
0.000239804
7.55953e-05
0.0353421
6.96565e-05
0.000172538
0.0679184
0.0371963
0.0480576
0.0304313
0.0817516
7.49237e-05
0.00020623
0.0663523
0.0553498
6.22934e-05
4.95434e-05
0.0408647
4.9329e-05
6.52612e-05
0.000183173
0.000119389
0.0897744
6.44107e-05
0.0480393
0.00024843
0.0430364
0.000185082
9.33323e-05
0.00014916
6.74562e-05
8.62692e-05
0.0521102
8.50797e-05
0.077004
0.044559
6.87887e-05
8.90801e-05
0.046903
0.000210863
0.000137774
0.000267003
0.000110079
0.0624348
0.000186064
0.0615993
0.0431248
0.0327459
0.0463495
0.0660521
0.00876825
0.0366389
0.0411214
9.25848e-05
9.0727e-05
0.000183271
0.0702545
0.000185875
0.060652
0.0355419
9.21966e-05
9.37557e-05
0.00379423
0.0288435
0.0434438
0.00252667
0.08423
9.63184e-05
9.06087e-05
8.89387e-05
0.0118928
0.000133849
0.0647386
7.51971e-05
0.0660297
0.0643361
6.78581e-05
8.88657e-05
0.00859821
0.00016962
0.0328497
8.73779e-05
9.40584e-05
4.91206e-05
9.86529e-05
6.14282e-05
0.056631
7.52902e-05
0.0400188
9.32454e-05
0.0483422
5.20085e-05
0.000224449
9.85595e-05
0.000164377
8.01644e-05
0.0303809
0.0001213
0.000833253
0.000442722
0.00331928
0.0850575
0.000193131
0.0651647
0.0417632
0.0745475
0.0194825
0.000320277
5.99755e-05
6.87948e-05
0.000248749
0.000129095
7.57372e-05
0.00295834
0.0729893
0.000163351
0.0620387
0.00689226
5.93486e-05
9.80332e-05
0.0524812
9.83633e-05
0.0857324
0.0405779
7.02025e-05
0.0374028
0.0499303
0.000115273
0.000211041
0.000420744
0.0436753
8.87451e-05
0.0617518
0.049113
7.45351e-05
0.0461979
0.0114124
0.000179135
0.0753585
8.00877e-05
0.0338169
0.00917927
0.00019004
0.0282432
8.59137e-05
5.15811e-05
0.000150432
0.000289039
0.0432606
0.0142468
0.0416611
6.95546e-05
5.29119e-05
0.0517513
0.0487425
0.0831015
0.000113899
0.027405
9.96555e-05
4.75472e-05
0.076528
0.000266481
0.0754946
0.000141095
9.74408e-05
0.000101228
0.0632343
0.000189434
0.0237819
0.0406464
0.0474426
0.0795092
0.0785501
0.00217146
0.0400139
0.00257216
0.0612319
0.000132683
0.000375472
5.92463e-05
9.29691e-05
0.000360504
0.000188496
6.31003e-05
0.0846485
0.0862938
0.0830815
0.000403885
9.998e-05
0.0257704
0.00034915
0.0600916
9.63219e-05
0.0392463
0.0010992
0.000458617
0.000218996
0.0443838
0.000153249
5.09883e-05
9.18946e-05
0.0625985
0.00011551
5.60084e-05
0.00014143
0.000479341
9.00785e-05
8.86556e-05
0.0444876
0.0653615
0.00010281
9.94107e-05
0.000133183
7.82215e-05
0.0652035
0.0406215
7.64256e-05
0.085436
4.9331e-05
9.19038e-05
0.0436142
9.93288e-05
9.82412e-05
0.000117943
0.0276834
0.0326555
0.0583512
9.12349e-05
0.086223
8.95713e-05
9.65291e-05
0.000233747
0.0328764
0.000123089
0.0657492
0.0114149
0.0120167
0.000134913
0.0312163
0.0525519
0.00913711
0.000113847
0.0863912
0.000149221
9.9209e-05
0.000253372
0.000123304
4.87391e-05
0.000142518
0.000147266
7.72064e-05
0.000111568
0.000134913
0.00010048
0.000197587
5.80938e-05
6.36524e-05
0.00700176
7.37393e-05
0.000138142
0.0049123
8.99846e-05
6.26565e-05
0.000101256
0.046057
0.0774002
0.0156861
0.00011021
0.000100131
0.0562321
8.49395e-05
0.0439981
0.000149729
0.0122743
0.000359072
0.0875815
9.66246e-05
0.00658544
6.4633e-05
8.7209e-05
0.064992
0.0486806
0.0876313
9.81844e-05
0.0806632
0.0464606
0.0785226
0.00019584
0.000127527
7.53854e-05
0.0679515
0.00188543
0.000102467
5.75463e-05
0.00041814
0.0784004
5.34131e-05
0.0440127
0.000119668
8.53893e-05
9.07875e-05
8.86424e-05
0.0653386
0.0426102
0.0496012
8.12275e-05
7.52006e-05
0.000129927
7.52714e-05
0.0741641
5.27631e-05
0.0866352
0.000115715
0.0736221
0.000135238
0.0352144
0.0648637
0.0313085
0.0532777
0.0850437
6.22343e-05
0.00450059
9.63179e-05
5.93395e-05
0.0393915
0.000105067
5.99017e-05
6.33661e-05
9.51638e-05
0.0151317
0.0204028
8.95071e-05
8.91783e-05
9.63631e-05
0.000124055
8.98012e-05
0.0327155
0.0191091
8.74461e-05
9.64662e-05
0.0515813
0.0345057
0.000125017
0.0647793
0.0376377
0.0145339
0.0367411
9.6955e-05
8.79936e-05
0.0663855
8.41437e-05
8.64151e-05
0.0484814
5.62417e-05
0.000122619
0.000105092
8.26716e-05
0.0893381
9.89868e-05
0.000107142
7.25534e-05
5.91424e-05
9.67977e-05
0.0223925
5.42474e-05
0.000103877
9.70479e-05
0.0633664
5.6967e-05
9.41446e-05
0.000137201
8.46523e-05
0.000115576
0.0665155
0.0531258
8.18484e-05
9.20027e-05
9.13817e-05
0.0649215
0.0792736
0.0409088
8.12182e-05
9.05966e-05
6.54325e-05
0.0499871
8.13979e-05
0.000225582
0.000105896
0.00732092
0.0893388
0.000146525
0.000104827
0.000173068
0.0154591
0.0256605
0.000360749
8.66895e-05
7.43497e-05
0.000103736
0.0239209
0.00780359
8.88179e-05
0.0463596
0.0205622
9.16299e-05
0.0173426
5.4829e-05
0.0874041
0.0302436
6.55121e-05
0.0820529
0.0804787
9.08108e-05
0.000324686
8.98095e-05
0.012385
0.0264275
9.29273e-05
6.00482e-05
0.0693465
5.55513e-05
0.0158787
0.00157673
0.0789515
0.0581236
0.0273263
8.7986e-05
9.69954e-05
0.0247844
5.88976e-05
0.000310526
0.0685566
0.0274284
5.74896e-05
8.59929e-05
9.81839e-05
8.34138e-05
0.000189195
0.0689478
8.9629e-05
8.26162e-05
0.0336169
0.0451513
0.000143315
9.30255e-05
0.0862637
0.0853473
8.74263e-05
0.000112013
8.72055e-05
0.00994187
0.0710019
6.36277e-05
0.0200225
0.0810743
0.0485551
0.000152833
9.71518e-05
0.0444247
0.000104121
0.000108439
0.080457
8.99426e-05
0.0403235
0.074441
0.000119161
0.0123892
0.000191257
0.000102056
0.0178906
9.43359e-05
9.20168e-05
0.00732688
8.70728e-05
9.85402e-05
0.000136439
4.73624e-05
8.52927e-05
6.75676e-05
8.6736e-05
0.0673616
7.19539e-05
0.0472272
0.000124562
7.85885e-05
7.65135e-05
0.0431235
0.0591373
0.000149995
8.87681e-05
0.0780523
9.12702e-05
9.71156e-05
8.24922e-05
0.0604705
0.0329746
6.8107e-05
9.24157e-05
0.000309003
0.000314489
0.000113715
8.47433e-05
0.0607418
5.88678e-05
7.33915e-05
0.029077
0.0431741
0.000210436
0.00144918
0.03691
4.97551e-05
0.0124243
0.0589018