/*--------------------------------*- C++ -*----------------------------------*\
| =========                 |                                                 |
| \\      /  F ield         | OpenFOAM: The Open Source CFD Toolbox           |
|  \\    /   O peration     | Version:  v2012                                 |
|   \\  /    A nd           | Website:  www.openfoam.com                      |
|    \\/     M anipulation  |                                                 |
\*---------------------------------------------------------------------------*/
FoamFile
{
    version     2.0;
    format      ascii;
    class       volScalarField;
    location    "50";
    object      epsilon_0;
}
// * * * * * * * * * * * * * * * * * * * * * * * * * * * * * * * * * * * * * //

dimensions      [0 2 -3 0 0 0 0];


internalField   nonuniform List<scalar> 
14033
(
5.48961e-06
0.00381749
8.23572e-07
1.04779e-06
7.51778e-07
1.35422e-06
0.000204194
1.28046e-06
1.04404e-06
0.00184173
6.31086e-07
1.77827e-06
1.32146e-06
1.32035e-06
7.4789e-07
1.62404e-06
1.49468e-06
0.0138513
1.16705e-06
1.57488e-06
1.60059e-06
1.78088e-06
1.93928e-06
7.51623e-07
5.31318e-07
1.16045e-06
2.30038e-06
2.29478e-06
3.64446e-06
4.36338e-06
1.4808e-06
1.2733e-06
2.77332e-06
1.55508e-06
0.000153122
8.7347e-07
0.0020631
0.00176548
7.624e-07
1.41816e-06
0.00934497
1.60561e-06
7.55012e-07
7.70969e-07
4.39718e-07
7.49714e-07
0.00336822
1.3431e-06
2.54307e-06
0.00175694
1.3698e-06
9.05728e-07
0.00278622
0.00136771
1.50051e-06
1.32985e-06
7.14116e-06
0.00748335
1.56847e-06
1.47586e-06
6.07613e-07
0.00180536
1.6726e-06
7.56286e-07
7.78467e-07
7.48078e-07
5.36787e-06
2.10282e-06
7.92675e-07
1.39976e-06
8.16371e-07
1.50282e-06
0.00333891
1.58294e-06
1.65503e-06
7.50697e-07
1.45127e-06
1.40135e-06
0.00363918
3.69769e-06
7.8284e-07
0.00407003
0.00332686
1.01934e-06
7.57698e-07
1.48869e-06
1.18038e-06
0.00147949
0.00358833
1.58249e-06
1.23847e-06
7.82141e-07
1.04234e-06
0.000616083
7.9839e-07
4.18144e-07
1.37524e-06
8.58143e-07
0.00220254
1.06662e-06
7.47347e-07
1.33709e-06
7.88255e-07
9.68687e-07
0.0034271
2.44901e-06
0.00355679
1.02073e-06
2.05655e-06
8.52383e-07
0.00323888
1.16343e-06
7.67605e-07
0.000235198
1.39141e-06
1.46182e-06
4.41079e-06
7.6869e-07
0.000327946
2.77825e-06
1.21244e-06
1.6835e-06
0.00319137
1.19308e-06
0.000712451
1.03562e-06
7.47368e-07
0.000189301
0.00414467
1.3809e-06
0.00330748
7.66355e-07
7.55225e-07
0.00253457
0.00329463
1.40497e-06
2.39629e-06
8.03432e-07
1.38705e-06
1.03505e-06
1.49545e-06
0.000242975
1.83219e-06
1.61496e-06
3.90712e-06
4.77413e-07
1.20901e-06
1.70261e-06
0.00202652
0.000437336
0.000175768
1.49158e-06
8.21757e-07
1.2804e-06
1.32684e-06
0.00278561
9.7001e-07
7.79054e-07
9.66989e-07
7.47998e-07
1.26847e-06
2.30306e-06
0.0022849
8.56514e-07
1.57409e-06
1.26985e-06
1.47928e-06
1.66667e-06
0.0156982
1.22462e-06
1.62358e-06
2.39943e-06
1.7768e-06
0.0200829
7.50685e-07
1.22882e-06
2.83094e-06
0.00473665
1.76424e-06
1.61808e-06
2.72248e-06
0.005751
1.48387e-06
7.64311e-07
8.60106e-07
0.00351387
0.00261016
1.41083e-06
0.0146213
0.00343159
1.92083e-05
1.47389e-06
1.25477e-06
1.41807e-06
0.000651702
0.00542263
1.66316e-06
0.00384731
1.03314e-06
8.7528e-07
1.1287e-06
1.47449e-06
7.93095e-07
2.74459e-06
1.48399e-06
7.96136e-07
1.67662e-06
9.57522e-06
1.61214e-06
0.000276012
0.0052921
7.96165e-06
5.47722e-05
0.000502364
7.55983e-07
1.26254e-06
9.43878e-07
0.000185846
9.14009e-07
1.64942e-06
1.61316e-06
7.52822e-07
7.52145e-07
1.18664e-06
1.36711e-06
7.05154e-07
1.87905e-06
1.48235e-06
1.02886e-06
7.67337e-07
7.49148e-07
2.38177e-06
1.49483e-06
7.73988e-07
0.000202652
0.00254533
2.55823e-06
7.59143e-07
1.00334e-06
8.97512e-07
0.0032613
1.40661e-06
1.10317e-06
7.59517e-07
1.48162e-06
7.58705e-07
0.0040744
0.0172631
1.16609e-06
7.90484e-07
1.34647e-06
0.00547659
7.66714e-07
7.74544e-05
1.01757e-06
0.000804806
8.90449e-07
1.21747e-06
7.67388e-07
5.48433e-05
7.7126e-07
0.014933
0.000263804
1.65742e-06
1.5062e-06
0.000139157
1.48669e-06
3.56832e-06
0.000133303
0.00372003
1.58052e-06
0.00254045
7.71889e-07
1.59642e-06
0.000178856
9.99402e-07
7.49418e-07
2.29406e-06
1.1583e-06
0.000290898
2.60141e-06
8.67627e-07
2.19745e-06
1.6334e-06
0.0110254
0.000690928
0.00339513
7.67968e-07
0.00689434
2.98964e-05
1.04213e-06
1.75387e-06
1.79808e-06
3.19559e-05
1.23995e-06
7.67767e-07
7.55479e-07
1.01368e-06
7.59481e-07
1.11356e-06
7.54135e-07
0.000139096
0.000806589
1.56245e-06
1.59845e-06
5.78133e-05
1.51212e-06
7.55503e-07
0.00402415
1.46166e-06
2.23317e-06
8.86141e-07
2.48185e-06
1.84431e-06
5.26591e-06
5.85138e-05
1.26277e-06
1.46553e-06
1.32205e-06
0.00608741
0.00371538
2.2676e-06
1.44418e-06
6.01835e-07
1.58028e-05
0.00171592
1.56553e-06
7.91075e-07
0.00344746
1.68695e-06
1.33038e-06
0.0020758
0.00234404
1.57436e-06
7.53144e-07
0.00242799
2.42686e-06
1.10722e-06
0.00268573
1.53158e-06
0.00469682
1.89118e-06
8.78396e-07
1.52569e-06
0.00018406
5.82851e-07
1.68656e-06
1.32294e-06
0.00688698
0.000226384
7.56606e-07
1.33684e-06
0.00356985
1.70089e-06
1.11902e-06
7.60638e-07
1.51907e-06
0.00245355
6.99842e-07
9.71849e-07
1.12511e-06
8.09413e-06
0.00321316
1.16522e-06
1.49783e-06
1.70045e-06
8.37042e-06
7.61495e-07
1.44607e-06
7.54028e-07
7.21219e-07
7.56008e-07
1.38011e-06
1.37662e-06
2.22467e-06
0.00166855
1.46351e-06
1.6352e-06
0.00110766
7.50004e-07
7.75804e-07
1.49857e-06
1.22441e-06
0.000256288
0.00181983
1.18242e-06
0.00323089
7.58693e-07
1.63003e-06
1.94948e-06
7.55873e-07
0.00442311
1.60956e-06
1.25545e-06
0.000277577
0.00248045
1.65155e-06
0.00762768
2.15178e-06
1.47838e-06
0.00044827
1.21575e-06
7.49484e-07
7.92692e-07
1.36842e-06
1.36359e-06
1.45674e-06
7.62339e-07
1.2314e-06
0.00109859
0.00275286
4.38949e-06
8.41133e-07
0.00851462
7.21694e-07
1.30035e-06
7.27816e-07
1.53396e-06
1.23855e-06
0.00355625
1.5062e-06
0.000206143
1.66067e-06
1.52433e-06
1.1057e-06
1.47927e-06
1.4684e-06
7.47539e-07
1.5967e-06
1.18631e-06
1.24524e-06
1.41998e-06
1.46638e-06
1.30164e-06
7.32112e-07
1.1146e-06
1.42512e-06
1.31751e-06
2.27178e-06
0.000167161
6.02311e-05
7.5916e-07
1.33015e-06
8.56152e-07
1.17131e-06
8.42483e-07
1.68596e-06
0.00194748
0.000161782
1.05232e-06
0.00413051
7.70529e-07
8.74934e-07
3.43947e-06
1.35253e-06
6.19018e-06
7.73752e-06
1.17864e-06
7.49313e-07
1.59957e-06
1.41457e-06
0.00325837
0.000203444
6.45517e-06
7.50522e-07
1.1795e-06
0.000660386
9.58373e-07
7.6777e-07
0.000243578
1.42629e-06
1.59912e-06
9.26611e-07
1.56788e-06
6.20371e-07
0.00580175
1.15196e-06
5.99594e-06
1.24907e-06
0.000608244
8.95514e-07
0.00386323
1.56894e-06
0.00787837
0.00349354
7.57023e-07
0.00676969
7.83994e-07
2.02213e-06
8.53556e-07
1.50862e-06
0.00685961
0.00397029
1.76387e-06
9.27027e-07
1.4694e-06
2.41725e-06
0.00149
1.48253e-06
2.28942e-06
1.52882e-06
1.20603e-06
6.24852e-06
7.69342e-07
2.05135e-06
7.46959e-07
1.05508e-06
0.0014763
1.18057e-06
2.05322e-06
7.49389e-07
9.80192e-07
0.00393854
7.67369e-07
1.15928e-06
1.41033e-06
1.72104e-06
7.50691e-07
0.000753935
0.000388362
7.46433e-07
0.000294472
7.46826e-07
1.20934e-06
9.99594e-07
1.44379e-06
1.38143e-06
1.54629e-06
1.50268e-06
1.24987e-06
1.46638e-06
1.17333e-06
0.00251922
9.80058e-07
9.2785e-07
1.22983e-06
9.00913e-07
1.2812e-06
1.25954e-06
2.9268e-06
1.69225e-06
0.000172153
7.54932e-07
1.00177e-06
0.000291201
1.5115e-06
6.93501e-05
7.49882e-07
8.50932e-05
1.32919e-06
7.84734e-07
0.00395356
7.54922e-07
7.49713e-07
1.25676e-06
2.50181e-06
9.753e-07
1.47121e-06
1.6575e-06
0.00243864
1.5145e-06
0.00354709
1.57906e-06
1.62394e-06
1.57892e-06
1.62127e-06
2.73309e-07
1.41115e-06
1.51008e-06
1.04713e-06
0.000336017
0.00262069
0.000941588
1.27829e-06
0.00481983
1.07886e-06
0.0109311
0.0037723
1.62806e-06
0.00251593
1.58034e-06
1.38691e-06
7.58514e-07
7.49272e-07
7.56011e-07
3.33166e-06
1.35593e-06
2.40357e-06
7.48891e-07
1.14599e-06
0.00405316
1.60697e-06
8.49497e-07
1.9193e-06
1.24195e-06
1.0718e-06
7.66431e-07
0.00224008
8.84232e-07
1.3757e-06
1.38208e-06
7.5564e-07
1.32151e-06
0.000739035
1.62127e-06
0.0215685
0.00206772
0.00298243
1.95252e-06
0.000291386
1.21771e-06
1.26415e-06
1.36038e-06
9.06952e-07
0.000619778
7.47715e-07
7.83543e-07
1.16135e-06
0.00306112
0.00620823
0.00500668
1.01873e-06
1.19321e-06
1.62131e-06
7.60132e-07
1.66274e-06
0.00027844
1.67902e-06
1.68705e-06
1.71214e-06
7.50327e-07
8.01324e-07
7.51516e-07
3.63269e-06
1.39507e-06
0.000146286
7.49403e-07
1.38099e-06
2.31076e-06
7.54128e-07
2.02118e-06
1.30882e-06
6.48931e-07
0.000717352
2.45466e-06
0.00316824
1.98334e-06
1.07839e-06
8.64636e-07
7.65132e-07
1.64667e-06
1.63221e-06
1.57095e-06
1.15291e-06
1.32321e-06
2.61902e-05
7.76817e-07
1.27008e-06
0.00253933
7.47214e-07
7.56591e-07
7.68492e-07
0.000105711
0.0035928
1.58939e-06
0.00060743
8.05989e-07
9.98105e-05
7.80112e-07
7.70106e-07
8.06053e-07
0.012149
4.95877e-06
1.3892e-06
1.11971e-06
1.37909e-06
1.08593e-06
7.47111e-05
1.85907e-06
1.58623e-06
0.000549162
2.02414e-06
7.48346e-07
0.000266115
0.00023735
7.77082e-07
1.58331e-06
0.00193392
2.39761e-06
7.46179e-07
0.00411098
1.44358e-06
0.00236167
1.58822e-06
1.46567e-06
0.00220566
0.0055257
4.87328e-06
7.82018e-07
7.48766e-07
0.0144014
1.53748e-06
1.91206e-06
1.43251e-06
1.59047e-06
1.32833e-06
1.36733e-06
0.000169337
1.35504e-06
1.31321e-06
3.0644e-05
1.3519e-06
9.05837e-07
7.8087e-07
0.00047475
1.51152e-06
1.44286e-06
1.26288e-06
8.24728e-07
1.60022e-06
8.02481e-07
2.58775e-06
1.7072e-06
7.77916e-07
0.00195538
8.75779e-07
2.74517e-06
1.67462e-06
7.66147e-07
1.42939e-06
1.03272e-06
3.87901e-06
8.14844e-07
1.49503e-06
1.62274e-06
1.46232e-06
0.000429354
1.19489e-06
0.00282253
1.61045e-06
0.00230868
1.54021e-06
8.03284e-07
0.00207663
0.00444563
1.21225e-06
7.47619e-07
7.47274e-07
0.00421562
0.00041394
1.65012e-06
7.66455e-07
1.1956e-06
1.3974e-06
1.66046e-06
0.00631755
7.80742e-07
1.44947e-06
0.00399765
0.00246105
7.48832e-07
1.99182e-06
4.27253e-06
1.38501e-06
7.68864e-07
1.55738e-06
0.00303633
1.05222e-06
1.42851e-06
1.8078e-06
1.03863e-06
7.60108e-07
1.46789e-06
0.000275462
1.10371e-06
1.567e-06
4.19798e-06
1.28113e-05
6.86312e-07
1.12815e-06
1.59703e-06
1.46298e-06
0.0054847
1.16905e-06
1.07907e-06
7.51411e-07
0.00266514
7.60362e-07
1.25751e-06
1.14224e-06
0.00222179
2.29203e-06
8.02086e-07
2.4526e-06
0.00214871
1.28182e-06
2.63068e-06
0.0190947
3.24803e-06
3.77742e-06
1.88878e-06
0.00558214
1.61946e-06
5.25311e-06
2.31145e-06
0.0252218
1.24929e-06
0.00288954
1.35207e-06
1.39204e-06
1.46369e-06
1.2378e-06
1.17028e-06
1.77642e-06
1.34487e-06
7.60407e-07
1.24354e-06
1.74624e-06
0.00226582
1.97623e-06
1.74954e-06
8.05151e-07
7.82575e-07
1.42357e-06
0.000205962
1.48509e-06
1.57741e-06
7.47076e-07
1.43063e-06
2.37487e-06
7.52651e-07
1.46749e-06
0.00514183
8.8502e-07
8.55824e-07
1.81866e-06
0.00412485
7.79253e-07
0.00251282
7.51613e-07
1.1691e-06
7.61163e-07
1.05799e-06
0.00213084
1.78754e-06
1.5717e-06
1.4816e-06
7.70295e-07
1.16303e-06
7.53152e-07
1.45711e-06
7.84216e-07
1.17139e-06
0.00343249
7.48232e-07
1.27575e-06
1.32255e-06
1.34581e-06
7.52875e-07
2.05915e-06
1.23756e-06
0.000258979
1.6193e-06
1.95341e-06
1.22558e-06
7.87435e-07
1.29481e-06
2.03763e-06
1.44646e-06
0.00219827
1.48619e-06
7.50399e-07
1.53168e-06
0.00447219
1.60705e-06
1.51667e-06
3.29482e-06
0.00257882
0.001792
3.06379e-06
1.2392e-06
1.5834e-06
0.00295745
1.6932e-06
1.63061e-06
0.00660141
1.40586e-06
7.61177e-07
7.50219e-07
1.59853e-06
1.38454e-06
1.58655e-06
1.40272e-06
1.32394e-06
1.59994e-06
1.32734e-06
1.18319e-06
1.41154e-06
0.00262274
7.50443e-07
1.06468e-06
0.00392451
0.00540454
8.2222e-07
1.4938e-06
7.53321e-07
0.000520189
0.00362901
1.41646e-06
1.54457e-06
1.32675e-06
7.93038e-07
7.6936e-07
1.38415e-06
1.44956e-06
1.54517e-06
8.17091e-07
9.194e-07
0.000726298
1.23304e-06
7.58947e-07
5.947e-05
1.71231e-06
1.4762e-06
0.000215732
3.88178e-06
1.74744e-06
7.75938e-07
7.83339e-07
1.53121e-06
9.5039e-07
1.45905e-06
0.00188463
1.06131e-06
3.33272e-06
8.90297e-07
7.78607e-07
7.59947e-07
7.60659e-07
9.02521e-07
2.53784e-06
2.14077e-06
0.00494716
1.62043e-06
1.47825e-06
0.000404735
7.55757e-07
1.38082e-06
2.2198e-06
1.39101e-06
4.14709e-05
1.67359e-06
7.8302e-07
1.41242e-06
7.78269e-07
0.00111121
1.21366e-06
8.1256e-07
0.00225146
7.73813e-07
0.00550875
7.54535e-07
1.16593e-06
1.13538e-06
7.6934e-07
0.00379015
0.00234925
1.46643e-06
9.00757e-07
2.03344e-06
8.65724e-07
7.68905e-07
7.922e-07
7.57672e-07
1.06273e-06
0.000489835
0.000590736
1.88622e-06
0.0199158
0.000903079
1.49386e-06
1.63251e-06
7.47986e-07
1.26711e-06
1.55348e-06
1.47542e-06
1.70185e-06
1.55106e-06
1.36847e-06
0.000330136
1.14948e-06
8.85066e-07
9.01884e-07
8.79863e-07
7.69233e-07
1.16972e-06
1.90489e-06
0.00546827
1.12299e-06
7.78876e-07
7.8813e-07
1.15509e-06
1.25112e-06
7.49577e-07
1.33047e-06
0.00194865
0.000681016
9.91606e-07
7.71339e-07
0.000521061
3.72091e-06
3.93575e-06
1.77649e-06
1.38619e-06
7.78827e-07
1.57613e-06
7.48667e-07
1.29291e-06
0.0114277
7.85971e-07
1.58531e-06
2.27199e-06
2.13005e-06
0.00355007
0.00116731
1.44544e-06
7.6059e-07
1.60624e-06
1.48664e-06
6.02963e-07
3.96161e-06
9.07514e-07
2.83879e-06
1.0693e-06
7.79589e-07
0.000998305
0.00190205
7.56087e-07
1.52708e-06
1.49898e-06
2.06417e-06
7.54787e-07
1.4575e-06
7.77946e-07
1.45502e-06
2.31858e-06
1.64851e-06
0.000530317
1.61763e-06
1.02028e-06
7.52155e-07
1.23336e-06
0.00356183
3.29409e-06
1.58653e-06
2.43113e-06
3.47094e-06
2.53442e-06
1.61877e-06
6.95676e-06
7.75805e-07
1.16358e-06
1.35991e-06
1.33181e-06
1.45766e-06
7.55771e-07
7.50417e-07
1.32778e-06
0.0046522
0.00354163
0.00774435
1.30618e-06
8.73863e-07
0.0193212
1.55922e-06
1.46921e-06
1.48001e-06
1.40791e-06
1.44502e-06
1.59453e-06
1.86699e-06
1.26954e-06
1.90755e-06
0.00228078
1.61646e-06
1.2997e-06
1.44041e-06
1.30769e-06
2.62288e-06
1.50408e-06
1.17692e-06
9.32544e-07
1.6033e-06
1.9834e-06
1.31115e-06
6.5647e-07
7.54936e-07
1.16765e-06
0.00298728
1.38286e-06
1.11895e-06
7.60317e-07
0.000249024
7.91096e-07
2.50385e-06
0.00222347
1.27884e-06
1.2693e-06
1.11491e-06
1.99789e-06
7.96801e-07
0.000118232
1.63716e-06
2.12098e-06
1.62127e-06
7.85003e-06
2.13714e-06
0.000362417
1.5268e-06
1.15641e-06
1.50095e-06
0.000558716
7.87534e-07
1.26125e-06
1.03378e-06
7.51414e-07
7.47088e-07
0.000213545
7.34456e-07
0.00229095
7.81343e-07
7.4574e-07
0.00254253
7.5096e-07
1.10825e-06
0.00309163
1.32774e-06
7.51578e-07
1.49004e-06
0.00253451
1.09979e-06
7.76518e-07
0.00103024
7.45506e-07
2.31109e-06
0.000171681
0.00372512
1.57607e-06
1.45787e-06
7.76084e-07
1.59623e-06
7.68116e-07
7.76012e-07
0.00448212
7.76672e-07
7.51391e-07
0.000114454
1.06232e-06
0.000323238
7.76054e-07
1.07343e-06
7.50855e-07
1.11904e-06
1.25798e-06
0.00228676
7.58789e-07
7.5755e-07
8.22169e-07
0.00018387
0.000494446
7.48715e-07
1.62976e-06
8.24786e-07
7.14908e-05
1.57659e-06
7.50557e-07
7.74889e-07
3.05527e-05
0.00344065
2.35238e-06
1.52203e-06
1.66165e-06
1.68207e-06
8.64773e-07
8.674e-07
7.55735e-07
2.12743e-06
7.83633e-07
1.66987e-06
7.65378e-07
1.6241e-06
7.98078e-07
1.44973e-06
1.64098e-06
7.60331e-07
9.36971e-07
1.14727e-06
0.000271286
7.04205e-07
7.90782e-07
0.00366845
1.23672e-06
4.55378e-06
7.7361e-07
0.00353303
7.55325e-07
0.00209931
7.68806e-07
7.82541e-07
1.16258e-06
0.00241093
8.58563e-07
9.77458e-05
9.09118e-07
9.15281e-07
0.000733249
7.48695e-07
7.59777e-07
1.158e-06
1.7687e-06
2.0907e-05
3.56236e-06
0.000848965
1.37425e-06
1.43896e-06
1.62249e-06
0.00978018
0.002346
0.00133895
0.000273786
1.30693e-06
0.015467
1.20604e-06
8.73315e-07
7.48904e-07
5.27768e-05
1.02413e-06
1.43018e-06
0.000117992
0.00275193
1.43005e-06
8.05313e-07
7.73967e-07
1.37419e-06
1.47771e-06
9.21922e-07
7.59063e-07
7.48757e-07
7.7236e-07
1.66361e-06
8.11935e-07
0.0024607
7.48157e-07
1.281e-06
7.67816e-07
1.45097e-06
1.51802e-06
7.56556e-07
1.47226e-06
0.00073975
7.60071e-07
0.000300031
0.000717311
1.48242e-06
1.25502e-06
2.52595e-05
1.31762e-06
0.00671766
0.00247515
1.47939e-06
4.87583e-06
1.58675e-06
1.55295e-06
0.000991236
1.36478e-06
1.17941e-06
1.83796e-06
8.57787e-07
0.00185315
1.24949e-05
1.37886e-06
1.54559e-06
7.66218e-07
7.5981e-07
7.56389e-07
1.75396e-06
0.00242568
7.5948e-07
1.15312e-06
0.000181349
7.70761e-07
1.64996e-06
2.51761e-06
1.54252e-06
0.000630564
7.51278e-07
0.00168195
1.29428e-06
5.22419e-06
0.00210487
0.00199867
2.73711e-06
1.36886e-06
0.00121618
8.58901e-07
7.83103e-07
7.399e-06
1.63724e-06
0.0138395
7.80955e-07
0.0154866
0.000264434
1.24297e-06
3.70053e-06
4.83285e-06
1.72994e-06
5.12044e-06
7.69278e-07
7.58712e-07
7.57964e-07
0.000462692
7.53437e-07
1.57798e-06
3.54823e-05
7.59202e-07
0.00533547
2.60677e-06
4.49656e-06
1.54836e-06
1.48165e-06
7.4702e-07
7.56368e-07
1.25125e-06
1.67549e-06
2.01439e-06
7.47856e-07
1.38977e-06
0.00100176
7.4708e-07
0.000512899
0.00304435
1.3084e-06
0.00477982
1.38743e-06
0.000600685
7.48384e-07
7.55367e-07
1.36206e-06
0.0138128
7.71722e-07
8.44133e-07
1.6552e-06
0.000199118
1.54931e-06
0.00538444
7.82294e-07
1.97439e-06
1.90524e-06
1.69741e-06
1.4648e-06
0.000667583
0.00305974
1.58217e-06
0.00352351
7.91165e-07
3.55908e-06
0.0107274
0.00759702
1.60287e-06
1.95358e-06
7.64261e-07
1.53343e-06
7.566e-07
9.86346e-06
7.69469e-07
7.54038e-07
0.00188195
1.35628e-06
1.22101e-06
8.97402e-07
1.30312e-06
1.36233e-06
7.7964e-07
0.00259577
0.00207897
0.000541539
1.67318e-06
1.57762e-06
1.16071e-06
7.80492e-07
3.91682e-06
7.55808e-07
1.49704e-06
8.72656e-07
7.78503e-07
7.63557e-07
1.19824e-06
1.41391e-06
1.57059e-06
7.62812e-07
1.98252e-06
1.65866e-06
0.000889041
1.60884e-06
0.00168441
2.34027e-06
6.03553e-06
1.84669e-06
0.000569475
7.54491e-07
0.000313012
1.66471e-06
6.43109e-06
7.54795e-07
1.30003e-06
8.75017e-07
7.56288e-07
1.10193e-06
7.67869e-07
0.00184926
8.1167e-07
0.0138614
0.00680003
2.26086e-06
1.66174e-06
0.00713085
9.51053e-07
4.01591e-06
1.8849e-06
0.000212543
8.73289e-07
1.45437e-06
1.13883e-06
2.75866e-06
7.7587e-07
3.41219e-06
7.51668e-07
1.84803e-05
7.54458e-07
2.24413e-05
0.0035779
1.52921e-06
7.79842e-07
0.00240942
1.59096e-06
0.0199087
1.80486e-06
1.49614e-06
1.35815e-06
1.36955e-06
7.52497e-07
0.00348663
0.000683035
7.87441e-07
0.00155956
1.50704e-06
1.12493e-06
9.06554e-07
1.3223e-06
7.78304e-07
1.39464e-06
0.0119404
1.36787e-06
1.52735e-06
8.78207e-07
9.5998e-07
1.69117e-06
0.000820149
0.00374901
1.39857e-06
7.79614e-07
0.00422845
3.09875e-05
1.51913e-06
0.00363169
1.66846e-06
0.0019538
0.000282118
1.71296e-06
0.000880344
7.4754e-07
1.24466e-06
1.43582e-06
1.42847e-06
0.00294977
0.0015767
1.5504e-06
0.00565848
7.51411e-07
1.32273e-06
0.000662117
9.821e-07
1.62841e-06
1.38561e-06
0.000534759
1.64324e-05
1.59192e-06
1.49355e-06
0.00227363
0.00484429
1.56873e-06
1.86141e-06
7.75619e-07
7.50844e-07
1.72168e-06
1.5344e-06
1.30661e-06
2.88943e-06
1.53534e-06
2.60692e-06
1.24963e-06
1.42457e-06
2.69833e-06
1.33911e-06
1.52113e-06
0.0145925
3.96471e-06
2.72488e-06
9.96824e-07
1.09123e-06
3.01227e-06
1.31019e-06
1.50933e-06
7.70503e-07
1.53472e-06
1.54923e-06
1.29101e-06
9.84013e-05
7.51363e-07
1.05809e-06
9.6459e-07
0.00469292
7.47139e-07
1.53904e-06
1.73594e-06
7.47115e-07
7.61382e-07
2.8397e-06
1.55511e-06
5.77499e-06
1.57863e-06
1.83646e-06
1.4688e-06
0.00143627
0.0017125
7.4907e-07
0.00322263
1.39271e-06
1.49351e-06
0.0038673
9.93373e-07
0.000266156
4.24875e-06
1.11529e-06
2.77425e-06
1.67163e-06
1.13241e-06
7.8136e-07
7.62289e-07
7.47315e-07
1.58336e-06
9.92768e-07
3.4745e-06
1.24591e-06
0.00348121
1.34236e-06
0.000154722
2.75017e-06
3.29458e-06
1.51335e-06
5.73172e-06
7.80682e-07
0.0033948
0.00422987
1.24303e-06
0.00332375
9.8159e-07
0.000658707
0.0220622
1.68451e-06
1.21285e-06
1.41799e-06
5.07245e-07
1.2898e-06
0.00350464
1.46557e-06
8.55138e-07
2.57596e-05
1.23447e-06
7.46776e-07
0.00347276
7.48897e-07
7.58962e-07
1.05199e-06
1.22696e-06
1.47482e-06
1.38749e-06
1.51061e-06
0.000193828
1.209e-06
0.00372292
0.00119844
1.01641e-06
0.0024262
1.48351e-06
3.802e-06
0.00141737
9.60193e-07
1.53773e-06
0.0035216
0.00378762
0.00336756
0.00151558
7.70833e-07
7.60919e-07
1.1914e-06
2.17686e-06
1.21457e-06
3.58802e-06
1.29928e-06
1.44749e-06
7.72855e-07
0.00390951
1.58105e-06
0.00253234
1.63797e-06
0.00169875
1.03302e-06
1.75491e-06
1.48521e-06
1.51234e-06
7.59349e-07
0.00300654
1.21594e-06
1.17508e-06
0.00384409
1.6221e-06
1.42504e-06
7.57234e-07
1.61605e-06
0.00126088
0.00148592
9.13139e-07
0.00321362
1.32872e-06
1.37439e-06
1.40003e-06
1.00445e-06
0.00311965
5.27213e-06
1.02471e-06
0.000250404
3.59004e-06
1.63043e-06
0.00218094
0.000189021
0.00197731
1.63776e-06
9.4634e-07
1.21743e-06
7.49469e-07
8.10837e-07
0.00123172
0.000689069
1.60707e-06
2.259e-06
1.28363e-06
5.37192e-07
0.0039187
1.36214e-06
0.000208535
0.00061171
9.16049e-07
0.00211997
7.84016e-07
0.000449736
1.46489e-06
1.78322e-06
0.000789017
0.00371246
8.53586e-07
0.000426856
8.06773e-07
1.22297e-06
1.73439e-06
1.38517e-06
0.0016182
1.28391e-06
1.57806e-06
6.88783e-05
1.718e-06
7.53387e-07
1.78697e-06
1.12621e-05
9.17561e-05
1.73907e-06
1.39249e-06
4.22828e-05
2.23112e-06
1.77168e-06
1.50758e-06
3.2556e-06
2.20669e-06
1.86717e-06
7.67997e-07
2.83421e-06
5.52364e-06
1.48173e-06
2.70642e-06
9.01161e-07
8.91025e-07
0.00154657
1.07404e-06
1.57025e-06
0.00701194
0.00149725
7.62073e-07
0.000718706
0.00055374
0.00403921
7.74748e-07
1.11123e-06
1.65832e-06
2.04086e-06
6.87268e-07
8.66915e-07
0.00337802
1.30997e-06
7.68522e-07
1.47678e-06
1.52347e-06
0.00398959
7.99754e-07
1.71754e-06
3.46085e-05
1.82728e-06
1.22716e-06
0.0155559
1.23355e-06
1.19927e-06
0.00408128
9.15405e-07
0.00307006
1.23857e-06
1.54108e-06
7.53464e-07
8.61982e-07
1.61009e-05
8.61761e-07
0.000169737
1.91133e-06
0.00258883
7.65386e-07
1.77478e-06
0.00378843
7.75919e-07
1.54421e-06
7.48765e-07
1.53664e-06
1.46606e-06
1.3938e-06
1.39864e-06
0.00106761
4.52586e-05
0.005461
9.83091e-07
1.5577e-06
0.00042174
1.06689e-06
9.85809e-07
1.49265e-06
1.36744e-06
9.87879e-07
7.48579e-07
1.52833e-06
1.22818e-06
0.00389807
8.43195e-07
1.62595e-06
7.39855e-07
0.00365361
0.00322209
8.57243e-06
1.33926e-06
9.4197e-07
1.51055e-06
0.00136577
1.09719e-06
0.00477898
7.25532e-07
1.39648e-06
1.34176e-06
1.05745e-06
7.47998e-07
1.10983e-06
0.00582795
5.4168e-06
8.28192e-07
0.00160587
1.36947e-06
0.00350803
7.68678e-07
0.0217636
0.00172525
1.57916e-06
7.48777e-07
1.42761e-06
0.000327279
8.2876e-07
1.59132e-06
7.4783e-07
1.31645e-06
2.42017e-05
1.54054e-06
0.00369929
3.1946e-06
7.53002e-07
1.36833e-06
1.42254e-06
5.32627e-05
1.16331e-06
1.51702e-06
7.19511e-06
1.74468e-06
1.32074e-06
0.000801057
1.6166e-06
1.72423e-06
1.40498e-06
1.40428e-06
2.60284e-05
8.95084e-07
2.5786e-05
1.25777e-06
1.69258e-06
0.00125664
0.000529976
1.56704e-06
1.60675e-06
1.59177e-06
1.6016e-06
7.91124e-07
7.56357e-07
2.82075e-05
3.68155e-06
8.30144e-07
1.47071e-06
7.471e-07
2.38656e-05
0.0057436
0.00557977
1.21896e-06
0.00366453
1.34981e-05
2.09649e-06
7.75549e-07
3.6259e-06
0.000305948
1.34332e-05
1.24269e-06
1.09228e-06
2.12275e-06
7.48429e-07
7.94046e-07
7.67258e-07
0.00109047
2.76142e-06
8.50285e-07
0.00147901
1.57091e-06
1.02215e-06
1.62387e-06
1.5726e-06
8.68181e-07
1.6823e-06
0.00370632
1.46435e-06
1.76154e-06
1.26591e-06
7.47436e-07
7.69681e-07
0.00180482
8.27479e-07
8.86797e-07
1.06229e-06
8.29674e-07
1.34979e-06
7.4769e-07
1.23053e-06
5.13168e-06
9.52446e-07
1.29756e-06
7.79057e-07
7.54202e-07
1.79743e-06
1.2874e-06
1.15022e-06
3.17341e-06
1.36223e-06
9.51821e-07
1.3757e-06
0.00287502
7.80361e-07
9.89064e-07
0.00250681
1.64721e-06
2.17157e-05
1.69369e-06
7.69657e-07
1.35869e-06
1.54364e-06
1.53862e-06
1.37502e-06
0.00268538
9.13561e-05
1.61777e-06
1.56944e-06
2.297e-06
1.25652e-06
1.53182e-06
1.09629e-06
1.36498e-06
0.0103236
7.78764e-07
2.70294e-06
1.43715e-06
8.17745e-07
7.92948e-07
8.89446e-07
2.43569e-05
1.32465e-06
8.24055e-07
0.00212396
0.00177618
9.37356e-07
1.62605e-06
1.00585e-06
7.55767e-07
7.83574e-07
7.48444e-07
9.47145e-07
9.66958e-07
1.23e-06
9.13392e-07
7.57627e-07
7.52553e-07
1.76326e-06
0.00356322
0.00362871
6.69623e-07
0.00308762
2.36666e-05
8.26711e-07
0.00236713
7.53711e-07
1.91995e-06
0.0018324
0.00233864
1.33079e-06
0.00328575
0.000483238
3.7286e-06
0.00568956
1.60136e-05
1.58066e-06
9.36979e-07
1.0798e-06
5.93878e-06
0.00397841
0.00361454
1.24173e-06
7.60626e-07
0.00446573
0.0142514
7.94226e-07
1.47082e-06
1.32571e-06
1.46027e-06
1.44237e-06
0.000201501
8.20408e-05
2.26094e-06
1.67277e-06
0.00166533
1.4761e-06
0.00220692
1.84705e-06
3.03435e-05
1.63092e-06
3.09464e-06
1.52082e-06
0.00193894
1.53954e-06
8.65129e-07
9.07036e-07
7.73884e-07
4.3119e-06
9.05477e-07
1.42313e-06
1.45864e-06
1.53274e-06
1.20785e-06
1.49834e-06
8.37793e-07
1.31908e-06
5.52547e-05
2.15282e-06
0.0137919
7.97891e-07
1.37826e-06
1.4735e-06
1.43418e-06
5.84318e-07
7.96442e-07
3.09758e-06
7.45734e-07
1.50571e-06
1.2063e-06
7.69877e-07
0.00288713
1.3346e-06
1.20324e-06
7.79541e-07
1.36729e-06
1.38002e-06
1.05891e-06
1.43357e-06
7.71758e-07
1.44447e-06
1.50079e-06
1.5045e-06
0.000137628
0.00498586
1.35296e-06
0.00153056
7.73595e-07
1.24486e-06
2.26015e-06
0.000219308
1.20313e-06
0.00391214
8.34183e-07
0.000171573
1.4752e-06
0.00041594
6.50964e-07
1.22422e-06
0.00151721
8.69467e-07
3.39119e-05
7.62348e-07
1.05923e-06
1.61794e-06
1.43833e-06
1.10638e-06
0.00177345
1.4882e-06
1.75777e-06
0.00203237
8.55509e-07
1.14481e-06
1.43815e-06
0.000122428
1.23604e-06
1.78969e-06
1.71513e-06
2.08216e-06
1.26293e-06
7.76553e-07
0.0187605
1.26373e-06
0.0010422
3.75458e-06
3.14742e-07
1.42669e-06
1.76516e-06
1.5449e-06
1.28716e-06
2.38309e-06
2.63553e-06
7.50276e-07
1.28429e-06
0.000192914
1.63501e-06
1.39514e-06
7.48076e-07
7.62464e-07
1.58415e-06
5.8428e-07
0.000443607
1.11513e-06
0.0111998
1.39128e-06
1.13347e-06
0.00387931
9.78823e-07
0.00221228
1.60542e-06
0.00159614
1.0876e-06
0.0143071
1.4968e-06
1.26939e-06
0.00238885
1.31449e-06
0.00245116
1.23693e-06
1.91816e-06
0.00816516
1.22498e-06
1.1267e-06
3.15826e-05
1.59368e-06
7.6154e-07
1.62894e-06
0.0019081
0.00118142
0.00211459
7.95745e-07
2.13103e-06
1.57266e-06
1.16538e-06
1.39448e-06
1.46213e-06
1.05163e-06
1.34138e-06
0.0017207
1.31806e-06
1.48082e-06
0.00139112
0.00368123
7.46037e-07
1.45159e-06
1.51955e-06
3.14581e-06
0.00236561
1.43478e-06
0.0025309
0.00799263
1.43743e-06
1.47381e-06
8.82861e-07
1.59858e-06
6.64961e-07
0.0034069
1.15271e-06
1.91086e-06
1.79309e-06
1.7771e-06
1.36672e-06
1.37266e-06
1.50667e-06
1.56957e-06
0.00138803
0.000593728
1.02641e-06
7.5344e-07
0.00476207
7.73955e-07
7.92017e-07
1.44046e-06
1.26835e-06
0.00197278
1.22971e-06
0.00193115
7.73033e-07
1.27601e-06
4.08902e-05
1.10959e-06
1.33195e-06
1.43981e-06
1.43285e-06
1.56187e-06
5.49403e-07
0.00313572
0.00584779
1.40932e-06
1.92884e-06
0.0031645
8.05105e-07
1.56079e-06
1.6443e-06
0.00083061
1.72962e-06
0.0031231
1.28531e-06
1.30607e-06
1.49961e-06
1.09804e-06
0.0034941
0.00214182
1.5629e-06
0.00158086
3.17969e-05
0.0016801
0.00072393
1.02454e-06
7.60361e-07
1.42744e-06
7.7872e-07
1.02221e-06
1.01842e-06
1.5508e-06
0.00223379
0.00287852
1.44559e-06
2.16926e-06
1.37677e-06
0.00203338
1.83905e-06
0.00267108
1.278e-06
1.65184e-06
7.48574e-07
0.00112616
1.26257e-06
1.56016e-06
7.60262e-07
5.81241e-07
7.4604e-05
1.90378e-06
0.0031242
1.41829e-06
0.000165193
1.52185e-06
7.59093e-07
1.59765e-06
1.16087e-06
1.15494e-06
0.00343244
7.5109e-07
1.1056e-06
0.00921207
0.00398321
1.49447e-06
9.57581e-07
1.54787e-06
0.000755115
1.63709e-06
1.58692e-06
0.000181608
1.29831e-06
0.0019503
2.48234e-06
0.00192592
0.00144031
0.00241602
1.01737e-06
4.30061e-06
1.15529e-06
0.00305571
1.75384e-06
3.24602e-06
0.00293007
0.000145128
1.95029e-06
0.00335552
0.00331041
1.8996e-06
0.00329723
1.43834e-06
1.28854e-06
6.6601e-06
1.76415e-06
1.73392e-06
1.54008e-06
1.25661e-06
1.14677e-06
1.59261e-06
7.38223e-07
0.0031195
5.34847e-05
7.75271e-07
1.73981e-06
7.57484e-07
8.86374e-07
1.18225e-06
1.45505e-06
1.44915e-06
1.45795e-06
8.93837e-06
7.58236e-07
2.10652e-06
9.61789e-07
1.08415e-06
1.56408e-06
1.74273e-06
5.38437e-05
1.86109e-06
0.00291251
9.38669e-07
0.00322713
0.000982578
1.62492e-06
0.000547597
2.71132e-06
1.75352e-05
1.15532e-06
0.00398152
1.33134e-06
2.06026e-06
0.00292807
1.09775e-06
5.39922e-07
0.000165442
1.14141e-06
0.000866654
1.54378e-06
1.31358e-06
2.24678e-06
9.31008e-07
8.71315e-06
1.28169e-06
1.74395e-06
0.00563232
1.46607e-06
0.00303691
1.84851e-06
0.0040858
2.08136e-06
3.75987e-05
1.97049e-06
1.04265e-06
7.56162e-07
8.82155e-07
1.46833e-06
1.29872e-06
1.77345e-06
1.20164e-06
0.00285458
1.67499e-06
1.59444e-06
8.50363e-07
1.49446e-06
1.53159e-06
9.75664e-07
0.000192204
1.78247e-06
1.39233e-06
1.9756e-06
0.00135633
1.55701e-06
1.43694e-06
2.02282e-06
0.00332151
0.0112977
0.00028012
7.74382e-07
1.44e-06
1.58235e-06
0.00338602
1.16383e-06
0.00289227
7.87876e-07
1.79663e-06
1.43336e-06
1.52139e-06
9.65522e-07
1.61582e-06
2.1402e-06
1.26288e-06
1.02598e-06
9.39666e-07
2.04284e-06
0.000514224
1.88538e-06
8.40078e-07
0.00316523
2.29962e-06
8.30507e-07
7.56797e-07
1.94638e-06
0.00568343
0.00172533
1.31808e-06
0.0203521
2.66385e-06
2.44155e-06
7.32416e-07
1.38839e-06
1.87253e-06
1.50237e-06
1.28734e-06
2.08511e-06
0.000732644
9.88149e-07
1.14178e-06
2.69427e-06
0.00128905
2.1167e-06
0.00545897
9.30706e-07
1.01924e-06
1.56595e-06
7.46437e-07
3.0857e-06
1.40835e-06
0.00314831
7.47409e-07
0.000270758
1.16051e-06
9.74762e-07
1.37237e-06
1.55415e-06
0.00321941
1.93225e-06
0.00380947
0.00466641
1.59965e-06
1.68469e-06
8.84732e-05
0.000332046
7.53514e-07
3.37422e-06
1.59607e-06
0.00617173
0.00168048
2.03648e-06
1.44492e-06
0.00207783
0.00100557
0.0213732
7.49315e-07
1.45743e-06
2.29025e-06
0.0013263
1.58845e-06
7.8134e-07
0.0037759
1.93376e-06
0.00315284
1.29671e-06
2.45184e-06
2.40338e-05
5.3327e-06
1.17939e-06
5.34245e-06
0.00300396
0.00344125
1.49893e-06
4.28199e-06
1.27571e-06
1.50911e-06
1.46173e-06
1.4644e-06
1.31603e-06
2.00792e-06
2.18861e-06
2.08306e-06
2.31515e-06
2.45133e-06
2.69955e-06
1.60095e-06
2.16307e-06
4.84501e-05
1.87616e-06
0.00385227
1.64235e-05
1.46646e-06
9.14179e-07
1.56883e-06
1.46053e-06
1.2538e-06
0.00191614
0.00139775
2.01829e-06
7.39805e-07
0.00310077
2.05996e-06
1.81605e-06
2.27907e-05
0.00168081
2.24731e-06
0.00326674
1.15694e-06
1.49e-06
1.43949e-06
1.46861e-06
0.000339491
1.6253e-06
7.72624e-07
1.6677e-06
1.49164e-06
2.34357e-06
1.22704e-06
0.00196863
0.00310193
0.0035396
1.38031e-06
1.56903e-06