/*--------------------------------*- C++ -*----------------------------------*\
| =========                 |                                                 |
| \\      /  F ield         | OpenFOAM: The Open Source CFD Toolbox           |
|  \\    /   O peration     | Version:  v2012                                 |
|   \\  /    A nd           | Website:  www.openfoam.com                      |
|    \\/     M anipulation  |                                                 |
\*---------------------------------------------------------------------------*/
FoamFile
{
    version     2.0;
    format      ascii;
    class       volScalarField;
    location    "50";
    object      k;
}
// * * * * * * * * * * * * * * * * * * * * * * * * * * * * * * * * * * * * * //

dimensions      [0 2 -2 0 0 0 0];


internalField   nonuniform List<scalar> 
14033
(
0.000287839
0.0305326
6.42303e-05
7.18041e-05
6.0584e-05
8.20763e-05
0.0051821
8.21868e-05
7.16679e-05
0.0114793
7.08717e-05
9.62603e-05
8.11423e-05
8.10868e-05
6.03422e-05
9.06077e-05
8.6444e-05
0.0495356
7.5996e-05
8.8836e-05
8.98057e-05
9.63174e-05
0.000104011
6.05736e-05
7.04734e-05
7.57717e-05
0.000116797
0.00011529
0.000237833
0.000182928
8.62314e-05
8.08943e-05
0.000133673
8.9837e-05
0.00173898
6.58701e-05
0.0128786
0.0111963
6.12537e-05
8.41245e-05
0.0338024
8.99117e-05
6.15492e-05
6.17612e-05
6.87029e-05
6.15582e-05
0.0172236
8.17245e-05
0.000126118
0.0112877
8.25663e-05
6.682e-05
0.0121018
0.00958102
8.66216e-05
8.14e-05
0.000309112
0.0293826
9.03592e-05
8.60601e-05
6.34611e-05
0.0115857
9.36609e-05
6.14519e-05
6.18203e-05
6.03521e-05
0.000255263
0.000108853
5.81854e-05
8.37812e-05
6.31027e-05
8.66454e-05
0.0170232
8.90497e-05
9.13959e-05
6.05181e-05
8.50912e-05
8.38972e-05
0.018724
0.000161821
5.99945e-05
0.0192598
0.0122493
7.08247e-05
6.09218e-05
8.62632e-05
7.66086e-05
0.0102256
0.0180933
8.90479e-05
7.85e-05
5.97702e-05
7.19906e-05
0.00493994
5.86566e-05
0.000308312
8.27458e-05
6.58666e-05
0.0132523
7.25254e-05
6.03076e-05
8.15331e-05
5.94637e-05
6.91916e-05
0.0173598
0.000121825
0.0180545
7.08627e-05
0.000107173
6.57542e-05
0.0169022
7.91123e-05
6.15139e-05
0.0052807
8.90389e-05
8.54046e-05
0.000185131
6.16577e-05
0.0031777
0.000133763
7.74606e-05
9.30671e-05
0.0126166
7.70077e-05
0.00554748
7.16275e-05
6.03061e-05
0.0045438
0.0130672
8.29237e-05
0.0169147
6.14231e-05
6.0813e-05
0.0146071
0.0170419
8.39116e-05
0.000119092
6.29935e-05
8.31188e-05
7.26144e-05
8.70046e-05
0.00248621
9.90348e-05
9.0396e-05
0.000222217
6.80741e-05
7.73499e-05
9.42276e-05
0.012672
0.00423971
0.00181936
8.68483e-05
6.33712e-05
8.69044e-05
8.12077e-05
0.0134026
6.93068e-05
6.20644e-05
6.9115e-05
6.03466e-05
7.97132e-05
0.000117028
0.0135543
6.46331e-05
8.91557e-05
7.94357e-05
8.64293e-05
9.21257e-05
0.0257886
7.79045e-05
9.06094e-05
0.000119266
9.61947e-05
0.00851029
6.0517e-05
7.80275e-05
0.00013508
0.0108414
9.57999e-05
9.04723e-05
0.00014567
0.0102496
8.62603e-05
6.032e-05
6.603e-05
0.0178506
0.014865
8.38498e-05
0.0268729
0.0175724
0.000491082
8.61932e-05
8.4971e-05
8.40773e-05
0.00520955
0.0238361
9.32503e-05
0.0132251
7.12739e-05
6.67306e-05
7.47245e-05
8.61827e-05
6.27699e-05
0.000150983
8.66108e-05
6.28081e-05
9.27937e-05
0.000345358
9.00965e-05
0.00602229
0.011379
0.000315129
0.000920563
0.00421501
6.08529e-05
7.95122e-05
6.80471e-05
0.00480909
6.76565e-05
9.38075e-05
9.01181e-05
6.06214e-05
6.0618e-05
7.67983e-05
8.24553e-05
5.99886e-05
0.000101677
8.64087e-05
7.11211e-05
6.15276e-05
6.04171e-05
0.000119294
8.64006e-05
6.19856e-05
0.00509339
0.0147108
0.000126586
6.1023e-05
7.01878e-05
6.62453e-05
0.0148622
8.39927e-05
7.37902e-05
6.10441e-05
8.6404e-05
6.1015e-05
0.019452
0.00814021
7.60659e-05
5.47044e-05
8.17895e-05
0.010661
6.15113e-05
0.00120571
7.07077e-05
0.012018
6.59694e-05
7.76837e-05
6.15412e-05
0.000945493
6.17497e-05
0.0489677
0.00567678
9.41655e-05
8.69034e-05
0.00382653
8.61492e-05
0.000157393
0.00368859
0.013754
8.89837e-05
0.0147465
6.1816e-05
9.04795e-05
0.00206718
7.00498e-05
6.0431e-05
0.000115271
7.58153e-05
0.00306173
0.000127124
6.50571e-05
0.000143643
9.07917e-05
0.0228225
0.00621052
0.0171446
6.15898e-05
0.0278448
0.000655134
7.28073e-05
9.54788e-05
9.76829e-05
0.000596964
7.83947e-05
6.08759e-05
6.08822e-05
7.05724e-05
6.11216e-05
7.42737e-05
6.06407e-05
0.00182873
0.0120423
8.84749e-05
9.21185e-05
0.00197943
8.69131e-05
6.05985e-05
0.0193743
8.54375e-05
0.000113285
6.57941e-05
0.000124044
9.94648e-05
0.000253512
0.00194396
7.95189e-05
8.65496e-05
8.15657e-05
0.0101133
0.0305955
0.000115242
8.5279e-05
6.3718e-05
0.000298301
0.0115104
8.85684e-05
5.96475e-05
0.017674
9.40365e-05
8.18551e-05
0.0153747
0.0124997
8.91652e-05
6.06758e-05
0.0141885
0.000120199
7.40563e-05
0.0152667
8.7553e-05
0.0116804
0.000101569
6.54883e-05
8.73735e-05
0.00428441
6.69763e-05
9.2768e-05
8.10767e-05
0.0271921
0.00552109
6.10428e-05
8.15414e-05
0.0180325
9.46655e-05
7.4367e-05
6.11425e-05
8.71037e-05
0.0132345
5.99551e-05
6.92867e-05
7.45809e-05
0.000511731
0.0139994
7.62984e-05
8.66557e-05
9.64821e-05
0.000504789
6.11976e-05
8.50222e-05
6.06631e-05
6.17638e-05
6.07884e-05
8.86391e-05
8.27838e-05
0.000113009
0.0126722
8.55496e-05
9.06268e-05
0.00854441
6.04735e-05
6.18437e-05
0.000101681
7.7916e-05
0.00566672
0.0120444
7.64498e-05
0.017013
6.10391e-05
9.07314e-05
0.000103022
6.11455e-05
0.0115839
8.98873e-05
7.92756e-05
0.00585439
0.0187124
0.000149912
0.00988455
0.000112112
8.58959e-05
0.00782421
7.7634e-05
6.04421e-05
6.31314e-05
0.000121179
8.23481e-05
8.6405e-05
6.1252e-05
7.81491e-05
0.00755953
0.0141371
0.000184481
6.50439e-05
0.0327636
5.99644e-05
8.03985e-05
0.000165857
8.75571e-05
7.83538e-05
0.0126703
8.74521e-05
0.00471211
9.20879e-05
8.72912e-05
7.392e-05
8.59275e-05
8.68915e-05
6.03209e-05
9.06022e-05
7.68148e-05
8.58744e-05
8.41727e-05
8.5892e-05
8.03869e-05
0.000163535
7.4202e-05
8.4434e-05
8.09015e-05
0.000114588
0.00470426
0.000965072
6.10762e-05
8.13219e-05
6.58758e-05
7.65662e-05
6.41678e-05
9.27332e-05
0.0120272
0.00461453
7.19722e-05
0.0196694
6.01806e-05
6.67137e-05
0.00143018
8.73817e-05
0.000268592
0.00150885
7.63517e-05
6.04333e-05
9.02576e-05
8.40183e-05
0.0168362
0.00213396
0.000283025
6.05062e-05
7.63652e-05
0.00587297
6.9031e-05
6.15776e-05
0.00247148
8.44923e-05
9.07131e-05
6.7414e-05
8.85542e-05
6.89644e-05
0.0100228
7.56213e-05
0.000256051
7.90511e-05
0.0051039
6.6315e-05
0.0189568
8.8592e-05
0.0303368
0.0177385
6.0621e-05
0.0149651
6.20346e-05
0.000105877
6.45364e-05
8.68353e-05
0.0152035
0.014798
9.57869e-05
6.74188e-05
8.57185e-05
0.000119751
0.012888
8.62414e-05
0.000259783
8.74047e-05
8.15799e-05
0.000280774
6.16763e-05
0.000108307
6.02797e-05
7.20869e-05
0.0108318
7.64132e-05
0.00010779
6.04321e-05
6.93893e-05
0.0191612
6.14915e-05
7.58629e-05
8.40559e-05
9.49323e-05
6.05178e-05
0.0106231
0.00537242
6.02451e-05
0.00618488
6.02652e-05
7.74193e-05
7.02455e-05
8.49548e-05
8.32615e-05
8.791e-05
8.66621e-05
7.87661e-05
8.59857e-05
7.63613e-05
0.0129764
6.9383e-05
6.90336e-05
7.81378e-05
6.64211e-05
7.97446e-05
7.90414e-05
0.000138511
9.57913e-05
0.00206639
6.07911e-05
7.03519e-05
0.006151
8.70529e-05
0.000715747
6.04929e-05
0.00127902
8.18877e-05
6.25181e-05
0.0138623
6.07921e-05
6.03878e-05
3.58667e-05
0.00012471
6.92086e-05
8.60461e-05
9.19149e-05
0.0143387
8.81911e-05
0.0178858
8.94845e-05
9.02488e-05
8.92316e-05
9.01186e-05
0.000127554
8.41022e-05
8.68967e-05
7.17825e-05
0.0032119
0.0142144
0.00693564
7.96487e-05
0.017166
7.29085e-05
0.0203764
0.0151985
9.04227e-05
0.0146282
8.92753e-05
8.32503e-05
6.10019e-05
6.0428e-05
6.08512e-05
0.000152016
8.22301e-05
0.000120891
6.04042e-05
7.54561e-05
0.0305171
8.98116e-05
6.54193e-05
0.000103222
7.85469e-05
7.26371e-05
6.15181e-05
0.0123866
6.70463e-05
8.30486e-05
8.29271e-05
6.11502e-05
8.16334e-05
0.0100286
9.03507e-05
0.0136978
0.0132274
0.0157886
0.000103312
0.00617054
4.91585e-05
4.04446e-05
8.23578e-05
6.66475e-05
0.0084703
6.03285e-05
6.25336e-05
7.57995e-05
0.011991
0.0100811
0.0107079
7.07934e-05
7.70067e-05
9.03566e-05
6.05056e-05
9.19531e-05
0.00595605
9.4467e-05
9.57661e-05
9.37492e-05
6.04818e-05
5.71628e-05
6.05491e-05
0.000159615
8.34795e-05
0.00182681
6.04313e-05
8.30532e-05
0.000117512
6.07327e-05
0.000106616
8.06264e-05
6.18614e-05
0.00537638
0.000121637
0.0168742
0.000104403
7.29756e-05
6.49521e-05
6.46645e-05
9.1189e-05
9.35947e-05
8.86987e-05
7.56987e-05
8.1863e-05
0.000491176
6.19038e-05
7.93754e-05
0.0123847
6.02993e-05
6.08919e-05
6.20491e-05
0.00137586
0.0165832
8.92384e-05
0.00496622
6.54192e-05
0.00128406
6.22806e-05
6.17153e-05
6.49879e-05
0.0479919
0.000214184
8.32935e-05
7.43842e-05
8.28362e-05
7.31485e-05
0.00110575
0.000100357
8.91011e-05
0.00448585
0.000126175
6.03694e-05
0.00586189
0.00264041
6.19535e-05
8.89954e-05
0.0110698
0.000119621
6.02506e-05
0.0195877
8.69641e-05
0.0138526
9.0152e-05
9.26322e-05
0.0132505
0.0102598
0.000201939
6.21129e-05
6.03963e-05
0.0312471
9.02148e-05
0.000101795
8.45617e-05
8.93818e-05
8.12958e-05
8.24523e-05
0.00250164
8.26555e-05
8.14445e-05
0.000668222
8.19802e-05
6.67182e-05
6.21776e-05
0.00404815
8.76341e-05
8.51986e-05
7.9407e-05
6.34023e-05
8.97858e-05
5.30185e-05
0.000127912
9.35625e-05
6.19814e-05
0.0127942
6.652e-05
0.000134178
9.23814e-05
6.00605e-05
8.43868e-05
7.12962e-05
0.000168457
6.49244e-05
8.79974e-05
9.02176e-05
8.64623e-05
0.0041094
7.68659e-05
0.0120157
9.25612e-05
0.0136785
8.79104e-05
5.51318e-05
0.0116016
0.0106576
7.75447e-05
6.32492e-05
6.03032e-05
0.0118165
0.00391799
9.41488e-05
6.19776e-05
7.69143e-05
8.34902e-05
9.36918e-05
0.00996616
6.21516e-05
8.72799e-05
0.0192641
0.0144514
6.03985e-05
0.000111918
0.000256543
8.34627e-05
6.19135e-05
8.82445e-05
0.015967
7.20245e-05
8.44449e-05
9.83273e-05
7.14738e-05
6.1109e-05
8.60021e-05
0.00592455
7.56066e-05
8.9116e-05
0.000199334
0.000302686
5.71811e-05
7.472e-05
8.95764e-05
8.5472e-05
0.00986871
7.9489e-05
7.29025e-05
6.0563e-05
0.0151797
6.1122e-05
5.47964e-05
7.7204e-05
0.0128928
0.000126726
6.41224e-05
0.000119792
0.0131804
7.99147e-05
0.000128444
0.0403135
0.000148039
0.000170271
0.000101505
0.0105978
9.02833e-05
0.000213842
0.000114197
0.0154929
7.86937e-05
0.0127988
8.25622e-05
8.33216e-05
8.55573e-05
7.84082e-05
7.6097e-05
9.69954e-05
8.1897e-05
6.07962e-05
7.85541e-05
9.71455e-05
0.0146011
0.000103946
0.000456381
6.34356e-05
6.24004e-05
8.42139e-05
0.00488385
8.76687e-05
8.93998e-05
6.02885e-05
8.45865e-05
0.000126875
6.0645e-05
8.7831e-05
0.0158072
6.58036e-05
6.57137e-05
0.000100768
0.00999815
6.21998e-05
0.0144694
6.058e-05
7.63491e-05
6.11781e-05
7.22886e-05
0.0127134
9.73558e-05
8.92794e-05
8.60478e-05
6.15885e-05
7.58599e-05
6.06765e-05
8.53588e-05
6.20199e-05
7.62652e-05
0.0118491
6.03587e-05
7.97255e-05
8.1111e-05
8.19246e-05
6.06548e-05
0.000106993
7.83542e-05
0.00529718
9.00811e-05
0.000104531
7.79954e-05
6.2712e-05
8.02201e-05
0.000107975
8.5042e-05
0.0125345
8.62144e-05
6.04861e-05
8.74921e-05
0.0169605
8.97537e-05
8.76765e-05
0.000151324
0.0142359
0.0104782
0.000201464
7.83634e-05
8.99138e-05
0.015546
9.38917e-05
9.07954e-05
0.00984989
8.36994e-05
6.1179e-05
6.04877e-05
8.95075e-05
8.30422e-05
8.94159e-05
8.35989e-05
8.11878e-05
9.06534e-05
8.12069e-05
7.68486e-05
8.38439e-05
0.0147605
6.0501e-05
7.24632e-05
0.0190717
0.0111915
6.68886e-05
8.63741e-05
6.06807e-05
0.00509625
0.0182866
8.42419e-05
8.78796e-05
8.12445e-05
6.35063e-05
6.16764e-05
8.33542e-05
8.54475e-05
8.94204e-05
6.68271e-05
6.7131e-05
0.0103734
7.82564e-05
6.10387e-05
0.000953558
0.000111555
8.58851e-05
0.00445332
0.000168331
9.75349e-05
6.20704e-05
6.36125e-05
8.99114e-05
6.83335e-05
8.53516e-05
0.018954
7.23434e-05
0.000150811
6.60113e-05
6.22011e-05
6.11022e-05
6.11462e-05
6.64701e-05
0.000125411
0.000111064
0.0115113
9.02981e-05
8.62698e-05
0.00381427
6.29108e-05
8.33792e-05
0.000115046
8.36599e-05
0.000843442
9.28344e-05
6.22087e-05
8.39395e-05
6.22441e-05
0.0080175
7.75815e-05
6.51459e-05
0.0120695
6.16997e-05
0.0107101
6.07608e-05
7.92621e-05
7.79822e-05
6.16032e-05
0.0187129
0.0138895
8.55901e-05
6.6379e-05
0.000106012
6.49987e-05
6.15735e-05
6.20204e-05
6.09586e-05
7.23301e-05
0.00518699
0.00796906
0.000115688
0.0432496
0.00680173
8.63609e-05
9.05465e-05
6.03463e-05
7.92763e-05
8.81918e-05
8.5802e-05
9.47978e-05
8.80527e-05
8.27609e-05
0.00363049
7.57979e-05
6.59151e-05
6.65135e-05
6.56788e-05
6.16458e-05
7.60815e-05
0.000101326
0.0103696
7.4524e-05
6.22077e-05
6.18632e-05
7.88427e-05
7.87522e-05
6.0446e-05
8.20629e-05
0.0115508
0.00568644
6.9801e-05
6.17551e-05
0.00874158
0.000162392
0.000170161
9.70224e-05
8.30917e-05
6.20301e-05
8.88499e-05
6.03893e-05
8.03323e-05
0.0297806
6.17604e-05
8.93665e-05
0.000116279
0.000110923
0.0180471
0.0104209
8.49895e-05
6.11302e-05
9.05058e-05
8.61582e-05
0.000176007
0.00017087
6.67184e-05
0.00013506
7.2567e-05
6.20726e-05
0.00731561
0.0113666
6.08633e-05
8.79516e-05
8.65269e-05
0.000108911
6.06011e-05
8.55635e-05
6.21517e-05
8.54983e-05
0.000156727
9.12168e-05
0.00426479
9.07921e-05
7.08036e-05
6.05947e-05
7.82663e-05
0.011377
0.000169912
8.95884e-05
0.00012222
0.000155545
0.000208533
9.0773e-05
0.00028988
6.20307e-05
7.58301e-05
8.22584e-05
8.17974e-05
8.53137e-05
6.08387e-05
6.04989e-05
8.12597e-05
0.010691
0.0175279
0.0295302
8.12471e-05
6.53108e-05
0.0445325
9.00813e-05
8.59456e-05
8.64103e-05
8.37343e-05
8.54655e-05
9.06176e-05
9.98423e-05
8.02959e-05
0.000101407
0.0134683
9.06694e-05
8.05177e-05
8.48415e-05
8.06359e-05
0.000336609
8.68485e-05
7.66174e-05
6.76286e-05
9.04596e-05
0.000105834
8.08014e-05
5.61752e-05
6.07874e-05
7.59522e-05
0.0160747
8.33353e-05
7.43403e-05
6.11202e-05
0.00357989
6.253e-05
0.000124156
0.0134276
7.99808e-05
7.94993e-05
7.44424e-05
0.000106306
6.68923e-05
0.00158821
9.43237e-05
0.00010976
9.04858e-05
0.000310006
0.000110871
0.00354489
8.87322e-05
7.60339e-05
8.65761e-05
0.00478245
6.27002e-05
8.08748e-05
7.13023e-05
6.05635e-05
6.02911e-05
0.00248482
6.19185e-05
0.0128187
6.23889e-05
6.02052e-05
0.0143537
6.0534e-05
7.42029e-05
0.0166005
8.17239e-05
6.05731e-05
8.6244e-05
0.0145818
7.36261e-05
6.36314e-05
0.00724961
6.01905e-05
0.000117248
0.00405797
0.0160063
8.9653e-05
8.56425e-05
6.20827e-05
9.01455e-05
6.1567e-05
6.21052e-05
0.0107401
6.21285e-05
6.05634e-05
0.00287061
7.2431e-05
0.0058361
6.21107e-05
7.27043e-05
6.05241e-05
7.44045e-05
7.89664e-05
0.0129683
6.10352e-05
6.09494e-05
6.34757e-05
0.00194113
0.00438538
6.03744e-05
9.03902e-05
6.33006e-05
0.00114362
9.13988e-05
6.05069e-05
6.20372e-05
0.00204655
0.0117435
0.000119605
8.84385e-05
9.18661e-05
9.31515e-05
6.49676e-05
6.5162e-05
6.08349e-05
0.000503894
6.23071e-05
9.52173e-05
6.14293e-05
9.10198e-05
6.22471e-05
8.55978e-05
9.38549e-05
6.11538e-05
6.77575e-05
7.55592e-05
0.0038418
9.1121e-05
6.26254e-05
0.018291
7.87109e-05
0.000212628
6.17769e-05
0.0176024
6.08162e-05
0.0130925
6.16342e-05
6.21748e-05
7.61225e-05
0.0134675
6.47356e-05
0.00130534
6.67656e-05
6.76203e-05
0.0071
6.0388e-05
6.11392e-05
7.56459e-05
9.74889e-05
0.00199775
0.000470624
0.00784936
8.29596e-05
8.52477e-05
9.05003e-05
0.0109827
0.0146493
0.00844613
0.00281202
8.07282e-05
0.0500996
7.73153e-05
6.54238e-05
6.0405e-05
0.00143347
7.13487e-05
8.45887e-05
0.00131054
0.0206568
8.48862e-05
6.25279e-05
5.98958e-05
8.28436e-05
8.97671e-05
6.73941e-05
6.10499e-05
6.0395e-05
6.18671e-05
9.17881e-05
6.28261e-05
0.0144322
6.03536e-05
8.00698e-05
6.1559e-05
8.50439e-05
8.77644e-05
6.0849e-05
8.6195e-05
0.010542
6.11093e-05
0.00531627
0.00676256
8.60989e-05
7.96889e-05
0.00231177
8.0985e-05
0.0257738
0.0137931
0.000673513
0.000225288
9.02973e-05
9.034e-05
0.00932629
8.248e-05
7.6399e-05
9.8662e-05
6.47141e-05
0.0119759
0.000414673
8.33863e-05
8.79065e-05
6.1472e-05
6.10925e-05
6.08737e-05
9.60542e-05
0.0182129
6.10746e-05
7.71064e-05
0.00492611
6.17716e-05
9.30452e-05
0.00012585
8.7975e-05
0.0106531
6.05559e-05
0.0100302
8.01996e-05
0.000216019
0.0128401
0.0127264
0.000131851
8.26114e-05
0.00824096
6.47613e-05
6.24642e-05
0.000305984
9.27204e-05
0.0301603
6.2292e-05
0.0342596
0.00509391
7.84725e-05
0.000165603
0.000922156
9.55261e-05
0.000218787
6.16877e-05
6.10239e-05
6.09886e-05
0.00403482
6.04831e-05
8.94829e-05
0.00139133
6.10452e-05
0.010044
0.000126942
0.000872975
8.97494e-05
8.59893e-05
6.10021e-05
6.08808e-05
7.87457e-05
9.23432e-05
0.000107552
6.03382e-05
8.32989e-05
0.0131495
6.02846e-05
0.00866799
0.0162703
8.07029e-05
0.0181943
8.35978e-05
0.0100356
6.03707e-05
6.08172e-05
8.23039e-05
0.046741
6.1738e-05
6.52428e-05
9.67573e-05
0.00231155
8.85848e-05
0.0229374
6.24272e-05
0.000105586
0.000102007
9.31479e-05
8.64735e-05
0.0109963
0.0225383
8.89782e-05
0.0178926
6.31076e-05
0.000372021
0.0249131
0.0105263
9.09248e-05
0.000103059
6.13689e-05
8.81731e-05
6.08955e-05
0.000376966
6.16472e-05
6.0727e-05
0.0120242
8.24295e-05
7.80879e-05
6.62737e-05
8.04298e-05
8.26012e-05
6.22766e-05
0.0149254
0.0133414
0.00952234
9.22715e-05
8.90138e-05
7.57505e-05
6.16033e-05
0.000174866
6.08431e-05
8.6642e-05
6.5258e-05
6.22475e-05
6.13236e-05
7.89468e-05
8.39777e-05
8.86913e-05
6.12706e-05
0.000104139
9.76867e-05
0.011765
9.06565e-05
0.0111538
0.000119376
0.000279248
9.95285e-05
0.00544973
6.07552e-05
0.00323097
9.20086e-05
0.000270598
6.07798e-05
8.05367e-05
6.66583e-05
6.08759e-05
7.3756e-05
6.15707e-05
0.0191126
6.59705e-05
0.045569
0.0133689
0.000115741
9.17737e-05
0.0101704
6.8303e-05
0.000178723
0.000101386
0.00491523
6.53393e-05
8.55301e-05
7.50567e-05
0.000133985
6.19517e-05
0.000154158
6.05806e-05
0.000478793
6.07606e-05
0.000571472
0.018008
8.75047e-05
6.22978e-05
0.01219
8.92392e-05
0.033561
9.81205e-05
8.6429e-05
8.22484e-05
8.31518e-05
6.06291e-05
0.0177164
0.00947758
6.25999e-05
0.00967369
9.10317e-05
7.45486e-05
8.02146e-05
8.10472e-05
6.21889e-05
8.33444e-05
0.040772
8.26629e-05
8.78319e-05
6.5541e-05
6.90687e-05
9.55871e-05
0.0113834
0.0124258
8.35457e-05
6.1744e-05
0.0134881
0.000650163
8.71185e-05
0.018274
9.19292e-05
0.0128433
0.00295723
9.58416e-05
0.00666551
6.03162e-05
7.85434e-05
8.5068e-05
8.44289e-05
0.0160421
0.00947276
8.81163e-05
0.0112156
6.05613e-05
8.10827e-05
0.00546666
6.94809e-05
9.05309e-05
8.36092e-05
0.00738023
0.000340471
8.97315e-05
8.63788e-05
0.0135948
0.0137733
8.85898e-05
0.000101255
6.1467e-05
6.05003e-05
9.52274e-05
8.76576e-05
8.07256e-05
0.00037956
8.77637e-05
0.000126896
7.87202e-05
8.47163e-05
0.000131581
8.20519e-05
8.83131e-05
0.0503689
0.000727275
0.000131312
6.99751e-05
0.000554412
0.000142549
8.06499e-05
8.68723e-05
6.17639e-05
8.76039e-05
8.85429e-05
8.01012e-05
0.00278463
6.05613e-05
7.22618e-05
6.87571e-05
0.0115667
6.02915e-05
8.92245e-05
9.61854e-05
6.02896e-05
6.11738e-05
0.000136537
8.87848e-05
0.000256811
9.0028e-05
9.94091e-05
8.56456e-05
0.0097484
0.0106685
6.04127e-05
0.0136612
8.34281e-05
8.64065e-05
0.0189069
6.98732e-05
0.00544509
0.000178707
7.42906e-05
0.000140981
9.32579e-05
7.4831e-05
6.1689e-05
6.12393e-05
6.02982e-05
8.90689e-05
6.99676e-05
0.000155562
7.86233e-05
0.0164904
8.16834e-05
0.00445563
0.000133301
0.000620583
8.69895e-05
0.000267549
6.22749e-05
0.0135601
0.0139351
7.89166e-05
0.0173465
6.93877e-05
0.00671464
0.016567
9.41487e-05
3.89578e-05
8.40619e-05
5.16306e-05
8.00514e-05
0.0119816
8.57436e-05
6.46536e-05
0.000567227
7.81974e-05
6.02652e-05
0.0177993
6.0405e-05
6.10479e-05
7.19436e-05
7.79839e-05
8.96359e-05
8.40451e-05
8.70175e-05
0.00506234
7.74398e-05
0.015791
0.00772478
7.11039e-05
0.0180213
8.60965e-05
0.000168918
0.0183598
6.86133e-05
8.77395e-05
0.0134642
0.0157453
0.0173909
0.0137103
6.17937e-05
6.11598e-05
7.67681e-05
0.000113897
7.78718e-05
0.000157879
8.03081e-05
8.49384e-05
6.19086e-05
0.0157211
8.91192e-05
0.012866
9.0936e-05
0.0115004
7.12684e-05
9.5868e-05
8.61363e-05
8.69532e-05
6.10637e-05
0.0157017
7.76725e-05
7.62558e-05
0.0189143
9.02494e-05
8.44071e-05
6.09343e-05
9.03816e-05
0.00810295
0.00924359
6.68936e-05
0.0122816
8.1651e-05
8.2682e-05
8.34992e-05
7.03819e-05
0.016819
0.000217326
7.09675e-05
0.00263332
0.000156252
9.05671e-05
0.0134345
0.00219788
0.0128366
9.25598e-05
6.81175e-05
7.7715e-05
6.04406e-05
6.29104e-05
0.00863461
0.0051132
8.97137e-05
0.000114095
8.28365e-05
6.65438e-05
0.0150851
8.25668e-05
0.00522431
0.00523308
6.70222e-05
0.0159226
6.19331e-05
0.00816845
8.57925e-05
9.69545e-05
0.00574222
0.0183101
6.45832e-05
0.00376372
6.33209e-05
0.000142578
9.52258e-05
8.36797e-05
0.0194229
7.99432e-05
9.43243e-05
0.00188889
9.6804e-05
6.06893e-05
9.73526e-05
0.000380958
0.00238731
9.62938e-05
8.34164e-05
0.00169895
0.000113794
9.65332e-05
8.83722e-05
0.000148247
0.000112988
9.98376e-05
6.15755e-05
0.000136031
0.000250806
8.61788e-05
0.000131048
6.64951e-05
6.61332e-05
0.0103588
7.2724e-05
8.97969e-05
0.0101421
0.0104612
6.12292e-05
0.00608158
0.0094428
0.0132012
6.17568e-05
7.40731e-05
9.27461e-05
0.00059085
5.93079e-05
6.50897e-05
0.0174827
8.15269e-05
6.16096e-05
8.60742e-05
8.72452e-05
0.0144678
5.43555e-05
9.38824e-05
0.00111674
9.83214e-05
7.83051e-05
0.0326479
7.81808e-05
8.06896e-05
0.0195643
6.7009e-05
0.0227293
7.83816e-05
8.79021e-05
6.06944e-05
6.48554e-05
0.000973582
6.48751e-05
0.00421036
0.000103182
0.0145961
6.13911e-05
9.64385e-05
0.016827
6.20835e-05
8.83354e-05
6.03734e-05
8.76835e-05
8.57352e-05
8.3296e-05
8.36999e-05
0.00725708
0.00138518
0.010069
6.94527e-05
8.82566e-05
0.00753776
7.24768e-05
6.95594e-05
8.63772e-05
8.25371e-05
6.96743e-05
6.03843e-05
8.73957e-05
7.80851e-05
0.0168317
6.41373e-05
9.38817e-05
6.01073e-05
0.0123263
0.0119344
0.00033199
8.17319e-05
6.95257e-05
8.68528e-05
0.0118062
7.35308e-05
0.0106571
6.08226e-05
8.34923e-05
8.16863e-05
7.21995e-05
6.03462e-05
7.40287e-05
0.0160746
0.000698831
6.34785e-05
0.0101406
8.28725e-05
0.0169989
6.16497e-05
0.0324025
0.0103483
9.01407e-05
6.03975e-05
8.4403e-05
0.00313969
6.69656e-05
8.95336e-05
6.0321e-05
8.17125e-05
0.000851079
8.78252e-05
0.0184378
0.000129235
6.06625e-05
8.27268e-05
8.42481e-05
0.000891486
5.53617e-05
8.70622e-05
0.000298896
9.55499e-05
8.1387e-05
0.00640733
9.00846e-05
9.48787e-05
8.36635e-05
8.36231e-05
0.000701521
6.62016e-05
0.000746688
7.99354e-05
9.43679e-05
0.0114775
0.00469469
8.85873e-05
9.00856e-05
8.94963e-05
8.95501e-05
6.31475e-05
6.08793e-05
0.000967437
0.00016561
6.60185e-05
8.56684e-05
6.02891e-05
0.000835371
0.0171649
0.0148581
7.76948e-05
0.0158051
0.000541631
0.000108509
6.17497e-05
0.00016164
0.00577375
0.00184248
7.95212e-05
7.34088e-05
0.000109974
6.03742e-05
6.32404e-05
6.19361e-05
0.00724681
0.000121888
6.44366e-05
0.00933404
8.90226e-05
7.08658e-05
9.02318e-05
8.86949e-05
6.54019e-05
9.36942e-05
0.0152489
8.54729e-05
9.55535e-05
8.01227e-05
6.0307e-05
6.17166e-05
0.010655
6.4441e-05
6.58562e-05
7.24271e-05
6.61958e-05
8.21813e-05
6.03271e-05
7.81058e-05
0.000217943
6.83401e-05
8.03136e-05
6.2015e-05
6.0735e-05
0.000101247
8.01338e-05
7.55966e-05
0.000147309
8.25171e-05
6.82873e-05
8.27519e-05
0.0147926
6.23281e-05
6.96573e-05
0.0142713
9.22844e-05
0.000756327
9.42572e-05
6.17403e-05
8.22554e-05
8.78939e-05
8.77642e-05
8.28783e-05
0.0146219
0.00236507
9.25188e-05
8.94371e-05
0.000118368
7.90763e-05
8.80121e-05
7.35563e-05
8.29978e-05
0.0106111
6.2132e-05
0.000131492
8.47766e-05
6.54207e-05
5.75839e-05
6.59948e-05
0.000846447
8.13069e-05
6.44207e-05
0.0127466
0.0115601
6.77607e-05
9.02548e-05
7.0478e-05
6.08418e-05
6.2386e-05
6.03761e-05
6.81261e-05
0.000668053
7.8468e-05
6.89717e-05
6.09451e-05
6.06336e-05
9.62895e-05
0.0151739
0.0119998
5.85492e-05
0.0161108
0.00057279
6.61187e-05
0.0129359
6.07079e-05
0.000101802
0.011434
0.0134869
8.13578e-05
0.013619
0.00504619
0.000170355
0.0117606
0.000549694
8.89828e-05
4.59792e-05
7.29344e-05
0.000344815
0.0192464
0.0181786
7.85422e-05
6.11355e-05
0.0128084
0.0289597
6.28244e-05
8.5839e-05
8.16088e-05
8.55523e-05
8.48892e-05
0.00528233
0.00126197
0.000114184
9.25235e-05
0.0109214
8.601e-05
0.0133398
0.000100785
0.000643956
9.24352e-05
0.000143566
8.76543e-05
0.0123427
8.77584e-05
6.53509e-05
6.70725e-05
6.19258e-05
0.000181664
6.6521e-05
8.42608e-05
8.53132e-05
8.87741e-05
7.76246e-05
8.71763e-05
6.81487e-05
8.13857e-05
0.00164763
9.92448e-05
0.0326869
6.63778e-05
8.32339e-05
8.57931e-05
8.53051e-05
3.78038e-05
6.29659e-05
0.000143591
6.01984e-05
8.68603e-05
7.74417e-05
6.16187e-05
0.0153488
8.14343e-05
7.71629e-05
6.22566e-05
8.25288e-05
8.29394e-05
7.21813e-05
8.54386e-05
6.16631e-05
8.51603e-05
8.67554e-05
8.66796e-05
0.00376924
0.0104486
8.20257e-05
0.0105983
6.19327e-05
7.8564e-05
0.000114764
0.0023118
7.71566e-05
0.0291814
6.48804e-05
0.00478834
8.58009e-05
0.00767234
5.5728e-05
0.000747694
0.00989992
6.51388e-05
0.000695138
6.12475e-05
7.21999e-05
9.01227e-05
8.53065e-05
7.39142e-05
0.0116211
8.63875e-05
9.57739e-05
0.0128419
6.4634e-05
7.51817e-05
8.47588e-05
0.00335804
7.82503e-05
9.65819e-05
9.94862e-05
0.000117149
7.93002e-05
6.19652e-05
0.0230508
7.92951e-05
0.00742168
0.00016502
2.70109e-05
8.50041e-05
9.66473e-05
8.79197e-05
8.01801e-05
0.000121
0.000128789
6.04894e-05
8.31818e-05
0.00501751
9.18434e-05
8.34588e-05
6.03501e-05
6.1256e-05
8.90913e-05
5.4873e-05
0.00755756
7.42121e-05
0.02847
8.4661e-05
7.66692e-05
0.0189799
6.92917e-05
0.0122016
9.13291e-05
0.010244
7.32555e-05
0.032149
8.64614e-05
7.94948e-05
0.0141864
8.0801e-05
0.0143156
7.85659e-05
0.000103859
0.0314885
7.7892e-05
7.62555e-05
0.00062431
8.94454e-05
6.11995e-05
9.03884e-05
0.0158801
0.00855887
0.013575
6.21843e-05
0.00011964
8.90846e-05
7.59161e-05
8.33259e-05
8.54141e-05
7.19301e-05
8.21922e-05
0.0115756
8.09642e-05
8.59725e-05
0.00921328
0.0167988
6.02175e-05
8.64157e-05
8.85211e-05
0.000146396
0.0140655
8.45749e-05
0.0134915
0.014248
8.47932e-05
8.58292e-05
6.56624e-05
8.95776e-05
5.61752e-05
0.0125641
7.56055e-05
0.000104773
9.77479e-05
9.84495e-05
8.24524e-05
8.26235e-05
8.67417e-05
9.10777e-05
0.00882243
0.00571185
7.10305e-05
6.06931e-05
0.0113958
6.19783e-05
6.20174e-05
8.48144e-05
7.96212e-05
0.0126319
7.80506e-05
0.0118526
6.22286e-05
7.95998e-05
0.000787548
7.40567e-05
8.30251e-05
8.50527e-05
8.51537e-05
8.91662e-05
0.000251342
0.0162084
0.0105972
8.39677e-05
0.000102033
0.0141607
6.41311e-05
8.89193e-05
9.2098e-05
0.00682881
9.59977e-05
0.016587
7.98977e-05
8.05275e-05
8.65455e-05
7.36362e-05
0.0176006
0.0130702
8.84103e-05
0.0104483
0.000824461
0.0104374
0.00529492
7.10024e-05
6.11274e-05
8.48738e-05
6.22728e-05
7.08958e-05
7.10509e-05
8.80935e-05
0.012979
0.0119953
8.49668e-05
0.000111517
8.35966e-05
0.0122793
9.9106e-05
0.0149015
7.96601e-05
9.12657e-05
0.000577891
0.00765095
0.00012119
9.03445e-05
6.11222e-05
6.66767e-05
0.00101841
0.000101965
0.015383
8.40744e-05
0.00457623
8.87183e-05
6.10539e-05
8.94603e-05
7.57662e-05
7.55948e-05
0.0177189
6.05439e-05
7.38957e-05
0.0196535
0.0192744
8.65177e-05
6.89297e-05
8.81058e-05
0.0060283
9.07662e-05
9.0403e-05
0.00483667
8.02697e-05
0.0128877
0.00012291
0.0124266
0.00984506
0.0182261
7.07365e-05
0.000191899
7.55968e-05
0.015827
9.57908e-05
0.000149389
0.0137173
0.00164721
0.000104007
0.0125541
0.0172855
0.000103195
0.0172037
8.5531e-05
8.00298e-05
0.000291511
9.80238e-05
9.51778e-05
8.95075e-05
7.90699e-05
7.52942e-05
9.08134e-05
6.03717e-05
0.0141087
0.000738232
6.19256e-05
9.48941e-05
6.09521e-05
6.60869e-05
7.6843e-05
8.54192e-05
8.59624e-05
8.53675e-05
0.000695732
6.09988e-05
0.000110013
6.89084e-05
7.3122e-05
8.95012e-05
9.57015e-05
0.0009444
0.00010225
0.0159568
6.77825e-05
0.017015
0.0073382
9.08338e-05
0.00450266
0.000132478
0.000339843
7.55868e-05
0.0150275
8.13549e-05
0.000107255
0.0159091
7.36009e-05
6.44569e-05
0.00442649
7.51043e-05
0.00613123
8.83145e-05
8.0814e-05
0.000116052
7.05571e-05
0.000327069
7.97486e-05
9.51808e-05
0.0239184
8.56038e-05
0.0164594
9.9929e-05
0.0122519
0.000110235
0.000683913
0.000106087
7.17413e-05
6.08617e-05
6.56831e-05
8.56607e-05
8.03087e-05
9.66563e-05
7.71054e-05
0.0212682
9.227e-05
8.94434e-05
6.44289e-05
8.64225e-05
8.90461e-05
6.91706e-05
0.00210579
0.000119557
8.35076e-05
0.000103837
0.00842895
8.86467e-05
8.46385e-05
0.00010597
0.0140933
0.0282018
0.00269594
6.14221e-05
8.47184e-05
8.89756e-05
0.0175369
7.59152e-05
0.0136256
6.18384e-05
9.7976e-05
8.49364e-05
8.72302e-05
6.88149e-05
9.00112e-05
0.00011195
7.94021e-05
7.1011e-05
6.78633e-05
0.00010903
0.00458304
0.000102796
6.40513e-05
0.0168209
0.000115925
6.28049e-05
6.09055e-05
0.000105254
0.0100571
0.0118871
8.09019e-05
0.0268071
0.000129575
0.000122832
6.11702e-05
8.31338e-05
0.000101613
8.66687e-05
8.01105e-05
0.000194655
0.00562379
6.98507e-05
7.50883e-05
0.000134569
0.00856195
0.000111131
0.0113819
6.75368e-05
7.08192e-05
8.85115e-05
6.02424e-05
0.000216309
8.3806e-05
0.0167522
6.0305e-05
0.00280434
7.57274e-05
6.93615e-05
8.26451e-05
8.85382e-05
0.0141161
0.000102187
0.0159605
0.0115818
8.95364e-05
9.29723e-05
0.00102063
0.00352959
6.21639e-05
0.000152385
8.943e-05
0.0196487
0.0114458
0.000108076
8.55648e-05
0.0119453
0.00685022
0.0332935
6.04231e-05
8.53173e-05
0.000115799
0.00920494
9.03344e-05
5.96528e-05
0.0140597
0.000102516
0.0165777
8.08654e-05
0.000121583
0.00113584
0.000187016
7.64061e-05
0.000226672
0.0162448
0.014037
8.65225e-05
0.000181195
8.19547e-05
8.73489e-05
8.54599e-05
8.55643e-05
8.25182e-05
0.000105227
0.000111858
0.000108001
0.000116468
0.000121446
0.000129887
8.97573e-05
0.000110308
0.0007117
0.00010039
0.0157013
0.000329539
8.68734e-05
6.6887e-05
8.89354e-05
8.5348e-05
8.03796e-05
0.0115325
0.00987257
0.000107394
6.15782e-05
0.016629
0.000108117
0.000100088
0.000557954
0.0106057
0.000115471
0.0141256
7.56069e-05
8.63086e-05
8.54318e-05
8.65147e-05
0.00720278
9.02145e-05
6.15593e-05
9.30258e-05
8.6296e-05
0.000117806
7.7969e-05
0.0124759
0.0166664
0.0176719
8.31168e-05
9.06103e-05
0.00460348
8.6517e-05
7.23029e-05
8.15762e-05
9.26551e-05
8.51274e-05
0.0162078
0.0125949
8.52976e-05
0.0001546
7.74208e-05
6.85001e-05
0.000141347
8.63017e-05
0.0140456
8.84402e-05
0.000106951
8.55261e-05
0.000110566
6.34406e-05
0.000102187
0.00509692
0.0184172
0.0138125
6.09129e-05
0.000144867
0.0172828
0.000110594
0.000124071
0.0154654
0.0158746
0.0137287
0.000102125
8.10998e-05
0.0160216
9.93505e-05
9.59811e-05
0.0171021
4.98232e-05
0.010798
0.00811122
0.0177889
0.00635732
8.95364e-05
0.00043719
0.0294431
0.0125638
6.08202e-05
0.00126341
0.0148845