/*--------------------------------*- C++ -*----------------------------------*\
| =========                 |                                                 |
| \\      /  F ield         | OpenFOAM: The Open Source CFD Toolbox           |
|  \\    /   O peration     | Version:  v2012                                 |
|   \\  /    A nd           | Website:  www.openfoam.com                      |
|    \\/     M anipulation  |                                                 |
\*---------------------------------------------------------------------------*/
FoamFile
{
    version     2.0;
    format      ascii;
    class       volScalarField;
    location    "50";
    object      nut;
}
// * * * * * * * * * * * * * * * * * * * * * * * * * * * * * * * * * * * * * //

dimensions      [0 2 -1 0 0 0 0];


internalField   nonuniform List<scalar> 
14033
(
0.0013648
0.0219985
0.000450992
0.00044286
0.000439563
0.0004477
0.0117957
0.000475292
0.000442764
0.00629739
0.000712726
0.000468965
0.000448419
0.000448181
0.000438353
0.00045496
0.000449949
0.0159482
0.000445384
0.000450995
0.000453488
0.000468831
0.000502053
0.000439504
0.000836819
0.000445278
0.000533707
0.000521288
0.00139703
0.000690174
0.000451935
0.000463016
0.000579871
0.00046712
0.00177716
0.000447216
0.00723468
0.00625654
0.000443073
0.000449121
0.0110698
0.000453139
0.000451715
0.000445504
0.000973354
0.000455053
0.00792673
0.000447548
0.000562897
0.00652599
0.000447912
0.000443652
0.00471627
0.00604852
0.000450043
0.000448424
0.00120398
0.0102471
0.000468534
0.000451649
0.000595925
0.00669088
0.000472027
0.000449507
0.000441962
0.000438408
0.00109656
0.000507134
0.000384473
0.000451316
0.000438978
0.000449599
0.00781127
0.000450861
0.00045425
0.000439251
0.000449016
0.000452052
0.00857255
0.000637338
0.000413929
0.00806542
0.00403989
0.000442889
0.00044102
0.000449871
0.000447481
0.00637039
0.0082109
0.000450971
0.00044781
0.000411232
0.000447504
0.00356459
0.000387878
0.056442
0.000448083
0.00045513
0.00717627
0.000443824
0.000438147
0.000447456
0.000403767
0.000444808
0.00791424
0.000545412
0.0082482
0.000442759
0.000502659
0.000456665
0.00793837
0.00048427
0.000443833
0.0107861
0.000512896
0.000449068
0.00069932
0.000445216
0.0027708
0.000579622
0.000445393
0.000463044
0.00449306
0.000447347
0.00388732
0.000445875
0.000438132
0.00995482
0.00370786
0.000448161
0.00778527
0.000443227
0.000440849
0.00757589
0.00793367
0.000451042
0.000532678
0.000444655
0.000448276
0.000458502
0.000455573
0.00228923
0.000481778
0.000455388
0.00113764
0.000880584
0.000445381
0.00046933
0.00713062
0.00364181
0.0016751
0.000455113
0.000439827
0.000530998
0.000447325
0.00580311
0.000445728
0.000445243
0.000444603
0.000438353
0.000450849
0.000535192
0.0072357
0.000438956
0.000454479
0.000447221
0.000454479
0.000458308
0.00380535
0.000446032
0.000455109
0.000533544
0.000468712
0.000324608
0.000439243
0.000445912
0.000580087
0.00223322
0.000468183
0.000455276
0.000700915
0.00164399
0.000451307
0.000428658
0.000456375
0.0081614
0.00761787
0.000448511
0.00445973
0.00809863
0.00113061
0.00045365
0.0005178
0.000448645
0.00374774
0.00941294
0.000470556
0.00409153
0.000442528
0.000458019
0.000445238
0.000453355
0.000447254
0.00074645
0.000454943
0.000446098
0.000462214
0.00112084
0.00045316
0.0118399
0.00220202
0.00112232
0.00139197
0.00318275
0.000441039
0.000450684
0.000441514
0.0111706
0.000450852
0.000480225
0.000453091
0.00043949
0.000439835
0.000447332
0.000447585
0.00045909
0.000495156
0.000453319
0.000442468
0.000444225
0.000438706
0.000537746
0.000449454
0.000446906
0.0114961
0.00765061
0.000563724
0.000441658
0.000441896
0.000440064
0.00610188
0.000451388
0.000444218
0.000441734
0.000453494
0.000441806
0.00835834
0.000345487
0.000446571
0.000340803
0.000447142
0.00186778
0.000444335
0.00168868
0.000442194
0.0161226
0.000439866
0.00044611
0.000444362
0.00147024
0.000445117
0.0144905
0.0110819
0.00048157
0.000451267
0.00948028
0.000449287
0.000624793
0.00918984
0.00457674
0.00045088
0.00770279
0.000445742
0.000461533
0.00215107
0.000441893
0.00043875
0.000521283
0.000446617
0.00290623
0.000559095
0.000439028
0.000844329
0.000454192
0.00428723
0.00494185
0.00779193
0.000444733
0.00999007
0.00129279
0.000457804
0.000467802
0.000477607
0.00100648
0.000446078
0.000434612
0.000441759
0.000442194
0.000442955
0.000445858
0.000439055
0.00217699
0.0161312
0.000450898
0.000477858
0.00612317
0.000449604
0.000437623
0.00839518
0.000449466
0.000517202
0.000439644
0.000557958
0.00048278
0.00109896
0.00581927
0.000450668
0.000460028
0.000452897
0.00151214
0.0226391
0.000527102
0.000453224
0.000606711
0.000482018
0.00695987
0.000450964
0.000404763
0.00815484
0.000471773
0.000453259
0.0102903
0.00599918
0.000454498
0.000440076
0.00746148
0.000535793
0.00044579
0.00780963
0.000450451
0.00261428
0.000490944
0.000439406
0.000450335
0.00890019
0.000690415
0.00045924
0.000447194
0.00973225
0.0120379
0.000443431
0.00044763
0.00819803
0.000474185
0.0004448
0.000442501
0.000449518
0.0064225
0.000462125
0.000444572
0.000444943
0.00292334
0.00549455
0.000449641
0.000451206
0.000492881
0.00274579
0.00044276
0.000449901
0.000439525
0.000476055
0.000440191
0.000512424
0.000448034
0.000516651
0.00868188
0.000450075
0.000452046
0.00592696
0.000439008
0.000443842
0.000574103
0.000446237
0.0112399
0.00718627
0.00044486
0.00806268
0.000442124
0.000454525
0.000489988
0.00044534
0.00273041
0.000451785
0.000450537
0.0111619
0.0128073
0.00122628
0.00115272
0.000525697
0.000449161
0.0125739
0.000446171
0.000438899
0.000452663
0.000962569
0.000447576
0.000461255
0.00044309
0.000446365
0.00468139
0.00653341
0.000697784
0.00045282
0.0112406
0.00044843
0.00044738
0.00338528
0.000449792
0.000446118
0.00406715
0.00045699
0.0101137
0.00045958
0.000449889
0.000444762
0.000449222
0.000462766
0.000438247
0.000462707
0.000447649
0.000532772
0.00044906
0.000452791
0.000446808
0.00327316
0.000444584
0.000450222
0.000447097
0.000520165
0.0119006
0.00139406
0.00044239
0.000447463
0.000456362
0.000450455
0.000439841
0.00045906
0.00668421
0.0118408
0.000443021
0.00843013
0.000423061
0.000457967
0.0523882
0.000508127
0.00104928
0.0267274
0.000445146
0.000438847
0.000458359
0.000449125
0.0078294
0.00201911
0.00111665
0.000439175
0.000444973
0.00470526
0.000447491
0.00044468
0.00225885
0.000450471
0.000463139
0.000441412
0.000450139
0.00068502
0.00155814
0.000446777
0.000984006
0.000450281
0.00385981
0.000441979
0.00837202
0.000450221
0.0105338
0.00810611
0.000437027
0.00295626
0.00044189
0.000498927
0.000439174
0.000449835
0.00301335
0.00497892
0.000468155
0.000441276
0.000450042
0.000533915
0.00983364
0.000451514
0.00305263
0.000449737
0.000496271
0.0011359
0.000445104
0.000514639
0.000437985
0.000443269
0.00715171
0.000445133
0.000509285
0.000438731
0.000442096
0.00839004
0.00044369
0.0004468
0.000450875
0.000471276
0.000439261
0.0134651
0.00651583
0.00043778
0.0117149
0.000437858
0.000446058
0.000444283
0.0004499
0.000451646
0.000449804
0.000449808
0.000446741
0.000453784
0.000447268
0.00601304
0.000442076
0.000462378
0.000446807
0.000440735
0.000446712
0.000446414
0.000589956
0.000488115
0.00223347
0.000440705
0.000444658
0.0117107
0.000451231
0.000646592
0.000439486
0.00172984
0.000454019
0.000448441
0.0043745
0.000440716
0.000438078
9.22813e-05
0.000559471
0.000442002
0.000452926
0.000458734
0.00758668
0.000462211
0.00811688
0.000456393
0.000451394
0.000453861
0.000450839
0.00545978
0.00045111
0.000450038
0.000442868
0.00276277
0.00693887
0.00459759
0.000446654
0.00555176
0.00044344
0.00341652
0.00551117
0.000451987
0.00765371
0.000453898
0.000449744
0.000441804
0.000438811
0.000440962
0.000624222
0.000448814
0.000547233
0.00043865
0.000447144
0.020761
0.000451752
0.000453563
0.000499777
0.000447095
0.000443045
0.000444507
0.00616457
0.000457681
0.00045121
0.000447816
0.000445639
0.000453829
0.0121947
0.000453156
0.000783184
0.00762965
0.0075223
0.000491992
0.0117705
0.000178723
0.0001168
0.000448737
0.000440783
0.0103361
0.00043826
0.000449314
0.000445259
0.00422187
0.00147327
0.00206107
0.00044276
0.000447286
0.000453205
0.000433579
0.000457674
0.0114688
0.000478386
0.00048937
0.000461994
0.00043893
0.000367068
0.000439209
0.000631172
0.000449579
0.00206156
0.000438702
0.000449535
0.000537824
0.000440344
0.000506149
0.000447009
0.000530466
0.00362659
0.000542477
0.00808849
0.000494623
0.000444447
0.000439136
0.000492845
0.000454486
0.000483107
0.000450727
0.000447325
0.000455799
0.000758519
0.000444116
0.000446462
0.00543224
0.000438155
0.000441238
0.000451044
0.00162551
0.00689648
0.000450937
0.0036541
0.000478042
0.00148487
0.000447729
0.000445332
0.00047173
0.0170525
0.000831771
0.000449469
0.000444731
0.000447806
0.000443455
0.00148198
0.000487521
0.000450438
0.00329767
0.000722457
0.000438479
0.0116174
0.00265079
0.00044469
0.000450214
0.00570301
0.000537128
0.000438029
0.00839997
0.000471342
0.00731216
0.000460565
0.000528475
0.00716332
0.00171445
0.000753099
0.000444209
0.000438613
0.00611916
0.00047644
0.000487753
0.000449255
0.000452081
0.000447786
0.000447479
0.00322206
0.000453757
0.00045459
0.00131194
0.000447421
0.000442271
0.000445748
0.00310655
0.000457282
0.000452781
0.000449363
0.000438642
0.000453393
0.000315286
0.000569018
0.000461489
0.000444627
0.00754821
0.000454849
0.000590061
0.00045867
0.000423738
0.000448382
0.000442987
0.000658411
0.000465712
0.000466177
0.000451416
0.000460104
0.0035642
0.000445023
0.00459925
0.000478872
0.00729214
0.000451588
0.000340585
0.00583373
0.00229936
0.00044643
0.000481813
0.000438188
0.00298099
0.00335197
0.000483542
0.000451187
0.000445321
0.000448947
0.000475819
0.00141495
0.000445439
0.000472261
0.00835494
0.00763608
0.000438651
0.000566988
0.00147126
0.000452653
0.000448827
0.000450008
0.00755666
0.000443705
0.00044927
0.000481325
0.000442665
0.000442281
0.000453487
0.0114789
0.000466229
0.000456124
0.000851903
0.000641718
0.000429205
0.000445399
0.000452188
0.00044942
0.00159801
0.000486513
0.000443276
0.000439507
0.00778066
0.000442284
0.000215166
0.000469731
0.00673261
0.000630859
0.00046169
0.000526559
0.00727721
0.000448406
0.000564424
0.00769306
0.000607245
0.000690784
0.000490947
0.00181081
0.000452991
0.000783449
0.000507765
0.000856952
0.000446125
0.00510158
0.000453728
0.000448855
0.000450098
0.00044701
0.000445337
0.000476646
0.000448848
0.000437633
0.0004466
0.000486418
0.00846016
0.000492062
0.0111039
0.00044996
0.000447991
0.000448372
0.0109746
0.000465793
0.000456007
0.000438027
0.000450107
0.000610052
0.000439952
0.000472941
0.00438596
0.000440336
0.000454296
0.000502217
0.00218285
0.000447008
0.00749808
0.000439645
0.000448743
0.000442694
0.00044453
0.00683294
0.000477211
0.00045643
0.000449769
0.000443315
0.000445323
0.00044011
0.000450037
0.000441556
0.000446884
0.00368507
0.000438344
0.000448407
0.000447701
0.000448837
0.000439923
0.000500347
0.000446478
0.0102025
0.000451007
0.000503418
0.000446725
0.000449642
0.000447304
0.000514928
0.000449991
0.00643225
0.000450122
0.000438979
0.000449792
0.00579518
0.000451147
0.000456165
0.000625484
0.00707133
0.00551439
0.00119164
0.000445992
0.000459525
0.00735445
0.00046858
0.000455006
0.00132269
0.000448487
0.0004427
0.000439097
0.000451066
0.000448264
0.000453543
0.000448406
0.00044808
0.000462292
0.000447142
0.000449225
0.000448221
0.00747505
0.000439152
0.000443874
0.00834151
0.00208574
0.000489998
0.000449474
0.000440045
0.00434473
0.00829328
0.000450915
0.000450001
0.000447754
0.00045818
0.000445076
0.000451762
0.000453323
0.000465762
0.00049222
0.000441147
0.013307
0.000446998
0.000442007
0.00137562
0.000658064
0.00044971
0.00820625
0.000656956
0.000490033
0.000447027
0.000465152
0.000475164
0.000442189
0.000449361
0.017119
0.000443813
0.000614189
0.000440497
0.000447419
0.000442332
0.000442499
0.000440595
0.000557762
0.000518582
0.00241064
0.00045287
0.000453115
0.00323842
0.000471421
0.00045312
0.000536635
0.000452834
0.00154448
0.000463456
0.000445023
0.000448964
0.000448195
0.00520723
0.000446336
0.000470198
0.00582143
0.000442942
0.00187403
0.000440589
0.000485028
0.000482125
0.000444106
0.00831526
0.0073898
0.000449602
0.000440264
0.000497419
0.000439216
0.000443925
0.000436965
0.000441607
0.000443059
0.00499952
0.00948065
0.000643062
0.00847263
0.00461052
0.000449331
0.000451986
0.00043834
0.000446389
0.000450602
0.000449075
0.000475242
0.00044988
0.000450459
0.00353902
0.000449837
0.000441824
0.000441478
0.000441242
0.000444733
0.000445366
0.00048509
0.00176975
0.000445103
0.000447413
0.000437049
0.00048441
0.000446139
0.000438821
0.000455524
0.00616204
0.00428511
0.000442208
0.000445149
0.0134182
0.000637836
0.00066211
0.000476894
0.000448265
0.000444829
0.000450778
0.000438542
0.000449217
0.00700489
0.000436811
0.000453396
0.000535582
0.000519865
0.00825707
0.00818289
0.000449752
0.00044229
0.000458969
0.000449393
0.0046468
0.00066328
0.00044144
0.000578308
0.000443225
0.000445052
0.0048252
0.00611325
0.000441111
0.000455899
0.000449518
0.000517162
0.000438004
0.000452076
0.000447111
0.000452159
0.000957883
0.000454257
0.00308681
0.000458628
0.000442211
0.000439528
0.000446993
0.00327007
0.000787999
0.000455306
0.000552984
0.00062734
0.00154271
0.000458113
0.00108705
0.000446472
0.000444761
0.000447809
0.00045214
0.000449391
0.000440844
0.000439137
0.000447576
0.0022111
0.00780731
0.0102239
0.000454825
0.00043931
0.00926526
0.000468422
0.000452484
0.000454055
0.000448203
0.000454944
0.000463493
0.000480543
0.000457122
0.000485186
0.00715643
0.000457724
0.000448934
0.000449753
0.0004475
0.00399172
0.000451334
0.000448902
0.000441401
0.000459344
0.000508234
0.000448157
0.000432956
0.000440667
0.000444641
0.00778463
0.000451977
0.000444507
0.00044238
0.00450012
0.000444986
0.000554077
0.00729732
0.000450199
0.000448131
0.000447341
0.000509064
0.000506204
0.00192054
0.000489144
0.00051122
0.000454513
0.00110176
0.000517655
0.00311014
0.000464135
0.000449934
0.000449437
0.00369302
0.000449349
0.000466729
0.000442606
0.000439454
0.000438074
0.00261108
0.000469967
0.00645533
0.000448505
0.000437604
0.00729139
0.000439269
0.00044714
0.00802222
0.000452706
0.000439532
0.000449266
0.00754894
0.000443603
0.000470237
0.00459105
0.000437529
0.000535349
0.00854321
0.0061963
0.000458987
0.000452794
0.000447055
0.000458178
0.000444319
0.00044747
0.00231612
0.000447359
0.000439551
0.00640526
0.000444462
0.00953584
0.000447584
0.000443193
0.000439201
0.000445241
0.000446124
0.00661888
0.000442005
0.000441462
0.000441084
0.00177508
0.00351153
0.000438333
0.000451196
0.000437192
0.00164593
0.000476944
0.000439112
0.000447184
0.0133927
0.00360726
0.000547352
0.00046251
0.000457104
0.000464277
0.000439276
0.000440551
0.000440849
0.0103739
0.00044608
0.000488744
0.000443811
0.000459096
0.000436898
0.00045487
0.000483206
0.000442829
0.000440981
0.000447866
0.00475986
0.00105226
0.000446496
0.00820817
0.000450875
0.000893588
0.000444142
0.00789303
0.000440888
0.0073496
0.000444762
0.000444813
0.000448585
0.00677062
0.000439304
0.00156883
0.000441289
0.000449732
0.00604388
0.000438493
0.000442942
0.000444738
0.000483604
0.0212151
0.00570017
0.00632569
0.00045072
0.000454532
0.000454316
0.00110941
0.00823771
0.00479527
0.00250165
0.000448786
0.0146291
0.000446077
0.000441094
0.00043866
0.00342236
0.000447363
0.000450271
0.00128912
0.0141003
0.000453492
0.000436873
0.00041715
0.000449482
0.000490735
0.000443401
0.000442081
0.000438575
0.000446073
0.000455788
0.000437462
0.00761658
0.000438312
0.000450434
0.000444293
0.000448614
0.000456676
0.000440541
0.000454173
0.0134272
0.000442349
0.00846285
0.00556057
0.000450063
0.000455428
0.0207757
0.000447984
0.00905377
0.00691771
0.0278377
0.000937022
0.00046248
0.000473025
0.00773304
0.00044862
0.000445401
0.00047666
0.000439401
0.00696719
0.00123811
0.000453842
0.000449976
0.000444067
0.000442245
0.000440998
0.000473425
0.012454
0.00044208
0.000464034
0.012056
0.0004456
0.000472247
0.000566145
0.000451576
0.0161892
0.000439538
0.00538349
0.000447259
0.000803914
0.0070565
0.00729485
0.000571632
0.000448708
0.00502548
0.000439479
0.00044853
0.0011388
0.000472612
0.00593347
0.000447382
0.00684186
0.00874076
0.000445876
0.000666921
0.0162784
0.000474737
0.000841331
0.000445384
0.000441811
0.000441791
0.00316695
0.000437085
0.000456691
0.00495272
0.00044187
0.0017016
0.000556349
0.0154744
0.00046824
0.000449133
0.000448234
0.000441201
0.000446018
0.000458052
0.000517482
0.000438318
0.000449343
0.0155028
0.000437954
0.0132734
0.00782582
0.000448006
0.00624069
0.00045333
0.0150499
0.000438482
0.00044083
0.000447598
0.0142564
0.000444682
0.000454051
0.000508107
0.00237894
0.000455848
0.00893444
0.000448483
0.000508171
0.000491529
0.000460047
0.000459445
0.016308
0.0150975
0.000450356
0.00817742
0.000453159
0.00354752
0.00528732
0.00131245
0.000464213
0.000489304
0.000443704
0.000456301
0.00044128
0.00130581
0.000444674
0.000440288
0.00691406
0.000450873
0.000449469
0.000440489
0.000446778
0.000450742
0.000447863
0.00772303
0.00772155
0.0151208
0.000457972
0.000452015
0.000444928
0.000437701
0.000702586
0.000440968
0.000451303
0.000439202
0.000447942
0.000443328
0.000468136
0.0004489
0.000450756
0.000443071
0.000492321
0.000517078
0.0139454
0.000459754
0.00664952
0.00054801
0.00116332
0.000482775
0.00462209
0.000440512
0.00300161
0.000457682
0.00102467
0.000440661
0.000449027
0.000457161
0.000441174
0.000444307
0.000444499
0.0177159
0.0004828
0.0135155
0.00235477
0.000533257
0.000456156
0.0013055
0.000441484
0.000715826
0.000490801
0.0102293
0.000439979
0.000452696
0.00044521
0.000585657
0.000445272
0.00062682
0.000439591
0.00111689
0.000440578
0.00130966
0.00815747
0.000450648
0.000448036
0.00554343
0.000450502
0.00510049
0.000480085
0.000449354
0.000448276
0.000454358
0.000439785
0.00810201
0.0118312
0.000448048
0.00540032
0.000494971
0.000444627
0.00064377
0.000447082
0.00044734
0.000448263
0.0125362
0.000449593
0.000454579
0.000440223
0.000447251
0.000486337
0.0141823
0.00370658
0.000449163
0.000440212
0.0038723
0.00123274
0.000449644
0.00827569
0.000455861
0.00761198
0.00277579
0.000482646
0.00454319
0.00043815
0.000446079
0.000453608
0.000449112
0.00785165
0.00512235
0.000450724
0.00200074
0.000439425
0.000447331
0.00406792
0.000442402
0.000452978
0.000454047
0.00900441
0.000630778
0.000455214
0.000449606
0.00731492
0.00350112
0.000450251
0.000495702
0.000438506
0.000438916
0.000474039
0.000450694
0.000448865
0.00455008
0.000451507
0.000555915
0.000446306
0.000453414
0.000577443
0.000452477
0.000461469
0.0156198
0.0119947
0.000569511
0.000442097
0.0251999
0.000607103
0.000446803
0.000450009
0.000445711
0.000450047
0.000455444
0.000447293
0.00714038
0.000439495
0.000444159
0.000441098
0.00256576
0.000438034
0.000465572
0.000479645
0.000438018
0.000442519
0.000590821
0.000456201
0.00102818
0.000462088
0.000484296
0.00044946
0.00595541
0.00598123
0.000438643
0.00521206
0.000449784
0.00044991
0.00831937
0.000442335
0.00998425
0.000676462
0.00044537
0.0006444
0.000468248
0.000445043
0.000438427
0.000443011
0.000438006
0.000450935
0.000443802
0.000626835
0.000446537
0.00703036
0.000447345
0.0115398
0.000581471
0.0105601
0.000450024
0.00112443
0.00044731
0.00487482
0.0041241
0.000450934
0.00814778
0.000441445
0.00604025
0.00111996
0.000473585
0.000112841
0.000448506
0.000475833
0.000447157
0.00368659
0.000451483
0.000439936
0.001129
0.0004458
0.000437853
0.00821058
0.000438661
0.000442108
0.000442807
0.000446089
0.00049028
0.000458152
0.000451132
0.0119339
0.000446416
0.00602816
0.00448143
0.000447672
0.0121907
0.000449697
0.000675435
0.0213076
0.000441269
0.000450559
0.00463306
0.00589093
0.00808301
0.0110732
0.000445981
0.000442702
0.000445193
0.000536345
0.000449352
0.000625206
0.000446746
0.000448573
0.000446471
0.00568976
0.000452104
0.00588882
0.000454365
0.00702239
0.000442518
0.000471342
0.000449601
0.000449952
0.000442091
0.00738006
0.000446542
0.000445371
0.0084956
0.000451909
0.000449958
0.000441448
0.000454933
0.00468676
0.00517526
0.00044103
0.00422417
0.000451577
0.000447666
0.000448194
0.000443847
0.00808215
0.000806281
0.00044234
0.00249215
0.000604582
0.000452782
0.007447
0.00230011
0.00751311
0.000470815
0.000441269
0.000446482
0.000438819
0.0004393
0.005448
0.0034149
0.000450736
0.000518634
0.000481151
0.000739639
0.0052264
0.000450432
0.0117407
0.00404295
0.000441327
0.0108302
0.000440428
0.0131902
0.000452205
0.000474433
0.00376121
0.00812788
0.000439794
0.0031194
0.000447451
0.00152299
0.000470544
0.000454956
0.0209607
0.000447993
0.000506838
0.0046041
0.000491021
0.000440147
0.00047733
0.00115944
0.00552904
0.000479858
0.00044973
0.00625899
0.000522345
0.000473382
0.000466218
0.000607546
0.000520667
0.000480452
0.000444506
0.000587584
0.00102521
0.000451103
0.000571097
0.000441592
0.00044178
0.00624549
0.00044318
0.000462173
0.00132026
0.00659459
0.00044294
0.004553
0.0144713
0.00388514
0.000443298
0.000444386
0.000466839
0.0156852
0.000461686
0.000439836
0.00814329
0.000456646
0.000444713
0.000451518
0.00044967
0.00472514
0.000332157
0.000461853
0.00320877
0.000476143
0.000449708
0.00618595
0.00044595
0.000488707
0.00844087
0.000441458
0.0152362
0.000446423
0.000451249
0.000440115
0.000439179
0.00522795
0.000439548
0.00942179
0.00050131
0.00740626
0.000443233
0.000471634
0.00672671
0.000447222
0.000454783
0.000438279
0.000450305
0.000451244
0.000448012
0.000450803
0.00443974
0.00376584
0.0016708
0.000441601
0.000450041
0.012046
0.000443119
0.000441736
0.000449867
0.000448366
0.000442263
0.00043855
0.000449792
0.000446802
0.00654123
0.000439094
0.000487608
0.000439541
0.0037427
0.00398172
0.00115705
0.000448914
0.000461974
0.000449448
0.00895617
0.000443502
0.00213883
0.000459499
0.000449262
0.000447574
0.00044366
0.000438313
0.000444412
0.0039936
0.00810045
0.000437857
0.0057628
0.000451343
0.00741353
0.000445115
0.00434287
0.00558645
0.000463091
0.000438626
0.000449107
0.00271071
0.000487094
0.000453373
0.000438067
0.000456458
0.00265403
0.000450616
0.00827084
0.000468501
0.000439989
0.000450135
0.000449056
0.00135222
0.000237285
0.000449687
0.00112334
0.000470962
0.000451373
0.00462147
0.000451793
0.000469872
0.000448378
0.000448169
0.00167738
0.000440681
0.00188212
0.000457263
0.000473521
0.00931426
0.00375026
0.000450716
0.000454576
0.000452866
0.000450632
0.000453796
0.000441185
0.00296092
0.000670393
0.000472701
0.00044912
0.000438026
0.00261835
0.00462156
0.00355017
0.000445696
0.00613512
0.00192718
0.00050541
0.000442647
0.000648514
0.00967456
0.0238354
0.000458031
0.000444022
0.000512767
0.000438494
0.000453456
0.000450162
0.0043345
0.0004837
0.000439486
0.0053015
0.000454038
0.000442179
0.000451244
0.000450217
0.000443421
0.000469641
0.00564658
0.000449013
0.00046649
0.000456452
0.000438064
0.000445592
0.00566142
0.000451795
0.000440165
0.000444428
0.000475572
0.000450315
0.000438232
0.000446188
0.000833021
0.000441307
0.000447393
0.000444423
0.0004403
0.00051298
0.000448911
0.000447163
0.000615392
0.000449862
0.000440927
0.000447997
0.00684977
0.000448198
0.000441521
0.00731192
0.000465319
0.00236381
0.000472105
0.000445915
0.000448176
0.000450418
0.000450553
0.000449586
0.00716546
0.00540622
0.000476252
0.000458707
0.00054606
0.000447886
0.000455115
0.000444178
0.000454192
0.000981447
0.000446141
0.0005757
0.000450081
0.000471062
0.000376061
0.000440707
0.00263343
0.000449153
0.000453293
0.00688409
0.00677218
0.000440836
0.00045087
0.00044445
0.00044098
0.000447047
0.000438573
0.000441009
0.0380323
0.000450544
0.000468636
0.000441432
0.000439858
0.000473242
0.00581563
0.00357136
0.000461837
0.00756563
0.00124761
0.000475963
0.00637039
0.00044021
0.000485811
0.0064206
0.00699982
0.000447641
0.00508041
0.00464137
0.000700494
0.00218868
0.00169829
0.000450832
0.000202637
0.000443366
0.0017921
0.00838001
0.00822843
0.000447119
0.00044236
0.00330631
0.00534362
0.000447463
0.000450871
0.000452128
0.0004511
0.000449643
0.0123544
0.00174754
0.000518996
0.000460584
0.0064463
0.000451051
0.0072558
0.000494932
0.00123057
0.000471526
0.000599422
0.000454686
0.00707157
0.000450227
0.00044431
0.000446385
0.000446027
0.000688812
0.000439816
0.000449002
0.000449091
0.000462771
0.000448989
0.000456494
0.000499079
0.000451919
0.0044329
0.000417294
0.00699445
0.000496679
0.000452381
0.00044957
0.000456653
0.000221279
0.000448139
0.000599056
0.000437507
0.000450966
0.000447445
0.000443952
0.00734353
0.000447205
0.000445356
0.000447659
0.000448325
0.000448621
0.000442826
0.000458275
0.000443587
0.000451867
0.000451355
0.000449455
0.00931229
0.00197066
0.000447567
0.00661977
0.00044627
0.000446239
0.000524461
0.00219283
0.000445328
0.0196153
0.000454138
0.0119816
0.000449139
0.0125571
0.000429872
0.0407361
0.00581323
0.000439214
0.00128316
0.000443036
0.000442923
0.000451799
0.000455358
0.000444422
0.00685713
0.000451322
0.000469655
0.00730581
0.000439478
0.000444362
0.000449578
0.00835822
0.000445845
0.000469089
0.000519053
0.000594823
0.000448139
0.000445169
0.00253883
0.000447797
0.00475628
0.000652748
0.000208873
0.000455816
0.00047625
0.000450315
0.000449517
0.000552901
0.000566416
0.000439081
0.000485025
0.0117724
0.000464325
0.000449332
0.000438322
0.000443086
0.000450934
0.000465707
0.011723
0.000444494
0.00653251
0.000463602
0.000466755
0.00835773
0.000441467
0.00605703
0.000467612
0.00591665
0.000444071
0.00657805
0.000449495
0.000448048
0.00758079
0.000447011
0.00752297
0.000449124
0.000506111
0.0108378
0.000445759
0.000464506
0.00111443
0.000451813
0.000442765
0.000451396
0.0117302
0.00559059
0.00786111
0.000437311
0.000605788
0.000454167
0.000445082
0.000448112
0.00044908
0.00044279
0.000453254
0.00702233
0.0004476
0.000449224
0.00549126
0.0068994
0.000437601
0.000462996
0.000464108
0.000613114
0.00752551
0.000448683
0.006489
0.00226911
0.000450171
0.000449855
0.000439522
0.000451761
0.000427503
0.0041701
0.000446301
0.000517073
0.000479572
0.000490897
0.000447682
0.000447594
0.00044945
0.00047532
0.0050468
0.00477007
0.000442402
0.000440256
0.00245433
0.000446818
0.00043705
0.000449449
0.000449849
0.00728473
0.000445855
0.00654661
0.000450983
0.000446905
0.00136928
0.000444848
0.000465768
0.000452188
0.000455462
0.000458144
0.0102422
0.00754019
0.00172835
0.000450255
0.000485767
0.00570306
0.000459928
0.00045592
0.000464258
0.00498213
0.000479518
0.00792844
0.000446992
0.000446849
0.000449526
0.000444436
0.00797947
0.00718043
0.000450105
0.00621482
0.00186843
0.00583551
0.00348568
0.000442858
0.000442601
0.000454188
0.00044834
0.000442532
0.000446124
0.000450374
0.0067868
0.00448929
0.000449463
0.000515955
0.00045681
0.00667323
0.000480676
0.00748176
0.00044688
0.00045383
0.0396598
0.00467788
0.00105094
0.00047089
0.000442587
0.000692938
0.00123393
0.000491499
0.00681689
0.000448546
0.0114383
0.000465501
0.000442118
0.000450837
0.000445053
0.000445312
0.00819362
0.000439469
0.000444508
0.00377885
0.00839425
0.00045078
0.000446551
0.000451353
0.00433864
0.000452923
0.000463514
0.0116474
0.000446648
0.00767968
0.000547711
0.00722008
0.006059
0.0125595
0.000442643
0.000770651
0.000445203
0.00737777
0.000470872
0.000618737
0.00577948
0.00167362
0.000499189
0.0042272
0.00812313
0.000504545
0.00807859
0.000457747
0.00044735
0.00114832
0.000490244
0.000470198
0.000468222
0.000447779
0.000444925
0.000466063
0.000444611
0.00574291
0.000910635
0.000445389
0.000465823
0.000441574
0.000443454
0.000449512
0.000451311
0.000458929
0.000449868
0.00480574
0.000441817
0.000517072
0.000444337
0.000443862
0.000460946
0.000472981
0.00149043
0.00050565
0.00786788
0.000440509
0.008074
0.00493436
0.000456994
0.00333189
0.000582547
0.000588114
0.00044507
0.00510476
0.000447428
0.000502525
0.00777922
0.000444124
0.000696204
0.0106891
0.000444763
0.00390401
0.000454696
0.000447463
0.000539468
0.000481032
0.00110485
0.000446587
0.000467531
0.00899293
0.000449858
0.00802835
0.000486186
0.00330652
0.000525454
0.00112656
0.000514042
0.000444268
0.000441012
0.000440161
0.000449762
0.000446944
0.000474114
0.000445284
0.0144427
0.000457458
0.000451578
0.000439364
0.000449793
0.000465968
0.000441357
0.00207614
0.000722719
0.000450766
0.000491207
0.0047146
0.000454233
0.000448682
0.00049964
0.00538192
0.00645119
0.00233485
0.000438595
0.000448574
0.000450278
0.00817444
0.000445667
0.00577688
0.000436841
0.000480864
0.000452982
0.000450129
0.000441412
0.000451278
0.000527011
0.000449314
0.000442338
0.000441106
0.000523732
0.0036781
0.000504459
0.000439497
0.00804512
0.00052603
0.000427575
0.00044133
0.000512292
0.00160163
0.00735927
0.000446907
0.00316982
0.000567251
0.000556144
0.000460441
0.000448007
0.000496249
0.000449976
0.00044867
0.00163252
0.00388488
0.00044439
0.000444436
0.000604649
0.00511795
0.000525091
0.00213581
0.000441083
0.000442861
0.00045026
0.000437721
0.00141067
0.000448831
0.00802243
0.00043805
0.00261381
0.000444734
0.000444215
0.000447922
0.000453954
0.00557048
0.000486362
0.00606452
0.00258709
0.000451043
0.000461774
0.00102204
0.00328592
0.000462224
0.000619369
0.000450983
0.00563784
0.00703228
0.000516186
0.000456031
0.00618059
0.00420003
0.0046684
0.000438639
0.0004495
0.000526952
0.00575122
0.000462352
0.00040998
0.0047117
0.000489138
0.0078449
0.000453857
0.000542624
0.00478526
0.000583957
0.000445493
0.000865516
0.0079062
0.00515319
0.000449484
0.000690048
0.000473982
0.000455027
0.000449677
0.000449956
0.000465661
0.000496314
0.000514528
0.000503956
0.000527327
0.000541503
0.000562441
0.000452899
0.000506214
0.000939105
0.000483455
0.00575972
0.000588525
0.000463173
0.000440447
0.000453751
0.000448865
0.00046377
0.00624659
0.00615898
0.000514282
0.000462095
0.00802596
0.000510696
0.00049651
0.00123606
0.0060224
0.000533962
0.00549721
0.000444685
0.000449949
0.000456325
0.000458695
0.0137539
0.000450674
0.000441584
0.000467013
0.000449326
0.000532965
0.000445893
0.00705309
0.00805914
0.00794092
0.000450445
0.000470985
0.00322825
0.000450758
0.000443667
0.000447257
0.000477412
0.000449359
0.00791653
0.00443261
0.000448948
0.000625713
0.000447548
0.000442596
0.00059513
0.00045289
0.00524735
0.000450831
0.000507491
0.000449761
0.000509045
0.000437585
0.000502443
0.00353398
0.00809773
0.00708153
0.000440996
0.000598864
0.00812679
0.00051811
0.000559114
0.00751054