/*--------------------------------*- C++ -*----------------------------------*\
| =========                 |                                                 |
| \\      /  F ield         | OpenFOAM: The Open Source CFD Toolbox           |
|  \\    /   O peration     | Version:  v2012                                 |
|   \\  /    A nd           | Website:  www.openfoam.com                      |
|    \\/     M anipulation  |                                                 |
\*---------------------------------------------------------------------------*/
FoamFile
{
    version     2.0;
    format      ascii;
    class       surfaceScalarField;
    location    "50";
    object      phi;
}
// * * * * * * * * * * * * * * * * * * * * * * * * * * * * * * * * * * * * * //

dimensions      [0 3 -1 0 0 0 0];
oriented        oriented;


internalField   nonuniform List<scalar> 
20823
(
0.131718
0.0231094
-0.154828
0.236238
-0.13525
-0.100988
0.668722
-0.092974
-0.575748
0.600588
-0.119324
-0.481264
0.609223
-0.0551154
-0.554108
0.505447
-0.375959
-0.129488
-0.499407
0.379901
0.286594
0.0946954
-0.381289
0.548828
0.0517599
0.182471
-0.0271323
-0.155338
0.636914
-0.567822
-0.0690919
-0.148376
0.149735
-0.001359
0.208231
-0.339456
0.131225
-0.133144
0.341375
-0.720775
0.417466
0.303309
0.139875
-0.215435
0.0755602
-0.31861
0.204004
0.114605
-0.00681938
0.0618513
-0.0550319
0.354649
0.00340701
-0.358056
-0.188561
0.311697
-0.123135
-0.10783
0.195816
-0.0879866
-0.0104186
-0.137957
-0.021014
0.134347
-0.113333
0.0417551
0.567468
0.488876
0.148038
-0.0931501
0.447799
0.118722
-0.118378
-0.000344415
0.119436
0.105187
-0.125992
0.0208045
0.0171211
0.0880826
0.148187
-0.199271
0.051084
0.387729
-0.101136
0.125293
-0.0949419
-0.0303509
-0.0192135
0.155928
-0.136714
-0.132786
0.205663
-0.0728773
-0.537814
-0.0718204
0.609635
-0.0905428
0.0678696
0.0226732
0.179959
0.00251118
-0.252046
0.688899
-0.436853
-0.0497365
0.301354
-0.251618
0.0941085
-0.122482
0.028374
-0.224409
0.116579
0.792347
-0.40573
-0.386617
0.699044
-0.261488
-0.437556
0.754479
-0.337423
-0.417056
0.355188
0.437159
0.0518691
-0.0481256
-0.00374346
0.408356
0.0970907
-0.153595
0.089828
0.0637669
0.118243
-0.0710476
-0.0471958
-0.136332
-0.220467
0.3568
-0.00412357
-0.526052
0.530175
-0.0972162
0.0389608
0.0582554
0.125861
-0.0854894
-0.0403713
-0.194211
-0.124399
-0.238777
-0.100679
0.0635317
-0.0948155
0.0312838
0.0794325
-0.163792
0.0843596
0.127837
-0.14705
-0.0564172
0.204604
-0.629004
0.495453
0.133551
0.033871
0.0843725
-0.107617
-0.0396515
0.147269
-0.406807
-0.18159
0.588397
0.402485
-0.64822
0.245735
-0.475868
-0.0949525
0.570821
-0.0344503
0.166169
-0.0548993
0.103149
-0.0482494
0.601418
-0.490648
-0.110771
0.0425596
-0.240503
0.197943
0.460509
-0.665181
0.204672
-0.635945
0.273702
0.362243
0.053681
-0.00181195
0.166732
0.167247
-0.333979
0.179254
0.0330741
0.608778
-0.172169
-0.436609
-0.0892697
-0.276646
0.365916
0.216739
-0.174179
-0.120385
0.14385
-0.090686
0.0986997
-0.00801371
-0.772269
0.357381
0.414889
-0.12602
0.00563595
-0.0550839
-0.0421324
-0.334697
-0.15139
0.486087
0.04061
-0.534557
0.493947
0.463252
-0.666312
0.20306
-0.438969
0.332419
0.10655
0.0410161
0.0848446
-0.00663343
0.0469058
-0.0402723
0.0671587
-0.25572
0.49147
-0.620537
0.129068
-0.417081
0.578315
-0.300672
-0.277643
0.0100902
0.056045
-0.0661351
0.461768
0.139651
0.0862631
-0.339831
0.253568
-0.303608
0.167276
-0.0120912
0.680813
0.0103748
0.0706595
-0.0810343
-0.134766
-0.38244
0.517206
0.0707282
-0.546597
0.49152
-0.0831639
0.670569
-0.208801
0.086006
0.347456
-0.433462
-0.00751537
0.0537642
-0.0462489
0.0862706
0.0331113
-0.119382
-0.0507828
0.0441494
-0.465398
0.130701
0.0706059
-0.125505
-0.707142
0.504675
0.202467
-0.00457177
-0.0457118
0.0502836
-0.595083
0.0374124
0.55767
-0.405103
0.445713
0.194536
0.266574
-0.461109
-0.595083
-0.373471
0.284202
0.0954594
-0.021231
-0.0742284
-0.119144
0.546693
-0.42755
-0.0776229
0.0877131
0.0242205
0.101072
0.616452
-0.506065
-0.110388
0.117888
-0.147542
0.0296538
-0.00228948
-0.00266273
0.00495221
0.423544
-0.25988
-0.163664
0.000182192
0.0770385
-0.0772207
0.231142
0.347173
-0.518168
0.653728
-0.13556
0.463948
-0.269412
0.00341104
0.0300653
-0.0334764
-0.490469
0.298078
0.192391
0.0415826
0.0120985
-0.481561
-0.106953
0.588514
-0.328709
-0.255907
0.584616
0.0568321
0.0192896
-0.0761217
0.0514358
-0.00985329
0.0651929
-0.24496
0.179767
0.115423
-0.102464
-0.0129586
0.569708
-0.167223
-0.316987
-0.173481
-0.49063
0.175717
0.314913
0.0720532
0.101379
-0.173432
-0.010309
0.0773283
-0.0670193
-0.0125519
-0.115257
0.127809
-0.222829
0.167869
0.0549595
0.131181
-0.0259939
0.326997
0.427482
0.610062
0.00639036
0.0119729
0.125243
-0.137216
-0.0566718
-0.112152
0.210044
-0.0978915
0.343557
-0.257294
0.207802
-0.135749
0.575909
-0.1154
0.295735
0.0919941
0.354288
0.137232
0.00356104
0.0391776
-0.0427387
0.0176731
0.317533
-0.335206
-0.274573
-0.353945
0.628518
-0.385588
0.403261
-0.329547
-0.274336
0.603883
0.238766
0.0877833
-0.326549
0.112972
0.0057505
-0.0655729
0.0735524
-0.00797951
0.519717
-0.480972
-0.0387452
-0.163811
-0.0335337
0.197345
-0.255473
-0.332226
0.587699
-0.0862444
-0.123469
0.209713
-0.0234989
-0.127316
0.150814
0.0337448
0.0125706
-0.0463154
-0.0348662
-0.312744
0.34761
0.170619
-0.0307445
0.0969098
0.018513
0.110543
0.0391916
0.0316293
-0.00644438
-0.0251849
0.436621
0.172157
-0.360746
0.325879
-0.077117
-0.0214601
0.0985771
-0.0325757
0.000305297
0.0322704
0.137291
-0.026748
-0.0748623
-0.147966
-0.126456
-0.0491128
0.175569
-0.0343534
0.00177762
0.0476414
-0.214284
0.166642
-0.0842298
-0.397243
0.481473
-0.509247
-0.197895
0.0534845
-0.0488882
-0.00459628
0.069815
-0.0109049
-0.0589101
-0.48886
0.329532
0.159328
0.0387956
-0.046166
0.0073704
-0.0523727
0.0448573
-0.0917035
0.00352485
0.0881787
-0.136011
0.234695
-0.0986841
0.383893
-0.0881576
-0.186071
-0.302789
0.0752444
-0.0849445
0.00970003
-0.09495
-0.0545913
0.149541
0.0485741
-0.156192
0.0396966
-0.0020571
-0.0376395
0.324844
0.223984
-0.633193
0.13133
0.501863
0.0521356
0.339095
-0.391231
-0.225937
0.0899258
-0.476115
0.495855
-0.0197393
-0.160906
0.121557
0.0935929
0.144261
-0.0263736
-0.00583821
0.0693699
-0.128875
-0.0955339
0.424391
-0.55235
0.12796
-0.0277112
0.0311223
-0.0447158
-0.0500997
-0.0730977
0.0790287
-0.00593098
0.0833531
-0.00810865
0.593091
-0.206247
-0.386844
0.324212
-0.0854465
-0.257378
0.63632
-0.378941
-0.573114
0.0762052
0.496909
-0.619795
0.0819809
0.179596
-0.0356485
-0.143947
-0.216379
0.0875041
-0.0482779
0.434934
-0.386656
0.428465
-0.476743
0.198827
0.224716
0.151778
-0.472997
0.321219
-0.675252
0.469225
0.206027
-0.133944
0.11293
0.142917
0.0767107
-0.219628
0.507789
-0.182945
-0.752602
0.289806
0.462796
-0.639759
0.47694
0.162819
-0.0162694
0.10254
0.308489
0.122286
-0.430776
-0.499396
0.380252
-0.187887
-0.385227
-0.00350636
0.0733213
-0.0737754
-0.0798194
0.739882
-0.321598
-0.418285
0.386515
-0.504089
0.117574
0.549213
-0.531559
-0.0176541
0.0050081
-0.17531
0.428446
0.18603
-0.614476
0.154207
-0.635768
-0.0830197
0.333745
0.406138
0.0393582
-0.0515507
0.0121925
0.0097722
0.0218571
0.410693
-0.307427
-0.103266
-0.486682
0.622837
-0.136156
-0.0580377
-0.36581
0.423848
-0.033704
0.0339232
-0.00021926
0.639179
-0.489241
-0.149938
0.00582372
-0.0789214
0.359726
0.148064
-0.273479
0.244772
0.028707
0.503058
0.0461548
-0.429566
0.138262
0.291304
-0.543499
0.673815
-0.130316
-0.130003
0.0254378
0.104565
0.565927
-0.50882
-0.0571075
0.0747572
-0.0815766
0.447661
0.0250777
-0.472739
0.00674197
0.172854
-0.240946
0.0575085
0.183438
0.618996
-0.54279
-0.147185
0.455675
-0.088662
-0.00202398
0.0669491
0.552047
0.0047099
0.0349867
-0.0680553
0.234787
0.0638203
-0.0670865
0.00326617
0.185668
0.513376
0.0802391
0.0923509
-0.17259
0.116412
-0.0466667
-0.0697451
0.51114
-0.124625
-0.302678
-0.337081
0.0219757
0.0974605
0.125905
0.284788
-0.116718
0.0266778
0.0900402
0.10835
-0.0752389
0.576277
-0.441613
-0.134665
0.290994
-0.186499
-0.104495
0.131217
-0.220518
0.0893016
-0.0179611
0.0567567
0.0853536
-0.197506
0.00563863
0.0956803
0.130766
-0.0513331
-0.0922937
0.000590155
-0.259488
-0.115636
-0.0168035
0.132439
0.116867
-0.129419
-0.17247
0.039684
0.0921914
-0.382263
0.290071
-0.0562429
-0.432567
0.48881
-0.0218084
0.432043
-0.410234
-0.144363
-0.453897
0.397654
0.41183
-0.240531
-0.171299
0.413125
0.109826
0.0121102
-0.121936
-0.2166
-0.167771
-0.0973928
0.265164
0.165275
-0.250189
0.0849145
0.614945
-0.547996
-0.264663
0.384888
-0.120225
-0.462957
0.378727
0.048333
-0.00897481
-0.107944
-0.19847
0.306413
0.106615
0.0130208
-0.119636
0.630541
-0.127483
-0.128957
-0.00690645
0.135864
-0.138758
0.0235012
-0.0836973
-0.0422945
0.0536054
0.56134
0.567348
-0.0758785
0.259855
-0.175362
-0.0844926
-0.323266
0.145033
0.178234
-0.0310617
0.0368113
-0.00574961
0.0801023
0.156136
0.0907
-0.106969
-0.0526961
-0.17955
0.232246
-0.142478
-0.486526
0.320742
-0.0493013
-0.27144
0.115379
-0.0743631
-0.253609
0.0858376
0.192787
0.477783
-0.0453119
-0.00706083
0.105917
-0.177549
0.0716317
-0.199347
-0.123919
-0.113825
0.150668
-0.0674689
-0.0115468
0.0790157
-0.00948201
-0.154329
-0.536236
-0.0101214
0.546358
-0.0688702
0.00329734
-0.110767
0.00830287
0.247213
0.164618
-0.0696464
0.0643869
0.00525941
0.173771
-0.26918
0.0954094
-0.0326906
-0.00101341
0.120652
-0.109811
-0.0108417
0.145392
0.485149
-0.113227
0.286998
-0.417025
0.538128
-0.121104
-0.138694
0.62757
-0.056706
-0.0590584
0.115764
0.334515
0.114818
-0.449333
0.132462
-0.0383536
-0.0959309
-0.403476
0.0454512
0.386591
0.319377
0.0236984
-0.343075
0.0425338
0.00437194
0.170081
-0.0641641
-0.334523
-0.0689635
0.403487
-0.609413
0.357367
-0.385782
0.121119
-0.0599151
-0.00635023
0.0662653
-0.482465
-0.299582
0.0618877
-0.396411
0.588456
-0.534851
0.00271862
0.108805
0.233728
-0.342533
0.550295
-0.0870427
0.128144
0.126238
-0.254382
0.0483569
0.540099
0.0911799
0.501583
-0.592763
0.238415
-0.0353991
-0.203016
-0.0563383
0.45434
-0.398002
-0.603632
0.465009
0.138624
-0.458133
0.401795
0.579111
-0.579111
-0.0171057
0.315184
0.101249
0.00536602
-0.16148
0.0476543
-0.00387258
0.177512
-0.173639
0.134507
0.149953
-0.070052
-0.0872253
0.157277
0.415391
0.204115
-0.619506
-0.693023
0.521757
0.171266
-0.191115
0.284656
-0.0935407
-0.307974
-0.121591
0.124993
-0.542018
0.0362038
0.0791754
0.292411
-0.424513
0.132102
0.0461574
-0.0507292
-0.674603
0.353006
0.204093
-0.0728764
-0.0842247
-0.0325624
0.116787
-0.417506
-0.0333251
0.00226343
0.267128
-0.220554
-0.0465743
0.189551
0.134661
0.444679
0.00298174
-0.114913
0.20902
-0.114496
-0.0945241
0.0464906
-0.0367184
-0.0218885
0.131621
-0.109733
0.104817
-0.405051
0.300234
-0.423472
0.323972
0.0994999
0.416004
-0.277742
0.451168
-0.611549
0.160382
0.462444
-0.623385
0.16094
0.0637515
-0.254867
0.43689
-0.285112
-0.191943
0.263161
-0.0712182
0.546438
0.142462
-0.443533
0.135559
-0.0648332
0.0650154
-0.0495104
0.0530715
0.0944781
0.000981328
0.523839
0.123241
-0.64708
-0.104924
-0.0588679
-0.134407
0.249107
-0.38925
0.140143
0.618814
-0.570457
0.330783
-0.0335889
-0.297194
-0.268554
0.00550657
-0.234542
0.108952
0.12559
-0.358095
-0.0820051
0.4401
-0.0634312
-0.0820754
0.145507
-0.310009
-0.325936
0.533804
-0.105358
-0.268655
0.0312785
-0.223221
-0.300399
-0.420376
0.0557462
-0.166623
0.110877
-0.240142
0.27141
0.112483
0.260638
-0.310375
-0.0834068
-0.138901
0.222308
-0.438188
0.309015
0.129172
0.0354177
0.583396
-0.335625
0.429629
-0.0940046
0.0495783
-0.224073
0.174495
0.431373
-0.0968577
-0.0951801
0.17689
-0.08171
0.64552
-0.353306
-0.292214
-0.0795457
-0.050457
-0.403586
-0.271017
0.403859
-0.084483
-0.599515
0.570719
0.0287958
0.36483
-0.256025
0.544482
-0.548606
-0.167019
0.110313
0.00473197
-0.0721009
0.0673689
0.338746
0.306774
0.336881
0.151137
-0.488017
0.0486803
-0.00255763
0.634461
-0.487801
-0.14666
-0.419964
-0.213229
-0.300987
0.447011
-0.146024
-0.631583
0.631583
-0.0927101
0.0935224
-0.000812366
0.115974
-0.416961
0.0826091
0.257916
-0.340525
-0.186182
-0.00638069
0.164481
-0.1581
0.278454
0.0229002
0.00572402
-0.123515
0.136467
-0.0129518
-0.0715559
0.0635617
0.00799425
0.546403
-0.131011
0.443562
-0.151152
0.0880522
-0.158104
-0.599646
0.0735938
0.110997
-0.600238
-0.0912801
-0.177264
0.226842
0.13518
-0.0794333
-0.0761806
0.439257
-0.363076
0.262103
-0.455086
0.192983
-0.532404
0.00882574
0.0376649
-0.420682
0.126946
0.293736
0.000986762
-0.0725427
0.282584
-0.0930326
0.113021
-0.0863429
-0.575436
0.432789
0.142647
-0.0447163
-0.0057343
0.0504506
0.463125
-0.201022
0.0375122
0.00817263
0.136259
-0.543065
0.0767827
-0.0378218
0.394033
-0.465854
-0.0353316
0.105937
0.506379
0.0133383
0.21864
0.123958
-0.342598
0.0588254
0.0179572
0.072877
-0.0524456
-0.0204314
0.0216552
0.365471
-0.441651
0.218722
-0.222595
-0.0887913
0.327035
-0.0584205
-0.268614
0.211919
-0.164277
0.264967
0.0557748
-0.0549987
-0.116815
0.388225
-0.0891852
-0.401547
0.596776
-0.195229
0.100037
-0.121926
-0.537197
0.0190296
-0.466286
0.33152
0.0537168
-0.140942
0.377379
-0.29477
-0.0786837
-0.0450146
0.123698
-0.443194
-0.124454
0.567647
-0.563416
0.370949
0.192467
-0.041477
0.0494692
-0.00799225
-0.418858
-0.294776
0.0729288
-0.233256
0.160328
-0.122562
0.134534
-0.621301
0.201044
0.420257
-0.310553
0.340013
-0.02946
-0.309203
0.463641
-0.154438
-0.0695093
0.469272
-0.399762
0.451079
-0.559744
0.108665
-0.486804
0.417295
0.156052
0.259953
0.0959028
-0.440761
0.344858
-0.0181883
0.256603
0.235568
0.00373276
-0.2393
-0.16715
-0.289391
0.456541
0.343072
-0.124432
0.388147
-0.157438
-0.230708
-0.134352
-0.0850151
0.219367
-0.069716
0.402135
-5.20133e-05
-0.059863
0.332574
-0.459777
0.127204
-0.0757094
0.599548
-0.382701
0.263971
0.118731
-0.400669
-0.108498
0.509167
0.612763
-0.588394
-0.0243695
-0.535976
0.280503
0.0163867
-0.0935036
0.237303
-0.159805
-0.0774987
0.026347
0.0900648
-0.607652
0.0714158
-0.345387
0.44129
0.539016
-0.0879368
-0.0537104
-0.187236
0.338914
-0.245667
-0.0932474
0.0403732
-0.461824
0.421451
-0.0818335
0.0715245
0.35971
-0.214678
-0.601708
0.465872
0.135836
-0.00437171
0.034437
0.23478
-0.563489
-0.41776
0.284054
-0.395158
0.111104
-0.103896
-0.0250615
-0.125437
0.458011
-0.220901
0.137495
-0.159285
0.0958535
0.069909
-0.0060887
0.11016
-0.215981
0.105821
-0.00635437
-0.00662985
0.164022
-0.157392
0.0951936
0.191529
-0.286722
-0.198753
0.0419675
0.156785
0.175362
0.338507
0.113457
0.0955628
-0.172031
-0.39261
0.498843
-0.161963
0.0717992
0.00552913
-0.00343487
-0.049412
0.0528468
0.0969748
-0.0709159
-0.0260589
0.0767878
0.0230871
0.0497899
0.548775
-0.324015
-0.22476
-0.0124211
0.032632
-0.0370037
-0.125654
0.260162
-0.00716394
-0.0599225
-0.170605
-0.0281475
0.189083
-0.304798
0.115715
0.0120105
0.44233
0.584883
-0.133715
0.439938
0.132761
-0.572699
0.0161908
-0.115442
0.0992511
-0.0503383
0.264757
-0.214419
0.0249595
-0.0987349
0.670643
-0.508015
-0.162628
-0.406416
0.130567
0.275849
-0.175723
0.0404728
0.180962
0.0861666
-0.325314
-0.261616
0.586929
-0.167784
-0.0479755
0.215759
0.278027
0.0607929
-0.33882
0.244905
0.30387
0.531784
0.0149091
0.0467908
-0.0634167
0.0166258
0.193812
-0.519126
-0.060133
0.295701
0.162663
-0.494995
0.332332
-0.441886
0.132546
0.227165
0.395747
-0.0862496
-0.309498
0.129316
0.0917535
-0.22107
-0.0201071
-0.00599033
0.0260974
0.0791316
-0.100562
0.0214307
0.0414633
0.00409887
-0.0455622
-0.0704791
-0.0349765
0.105456
0.447238
0.0917775
0.367924
-0.0838699
0.3349
0.0643204
-0.399221
0.220562
-0.270901
-0.541696
0.141026
0.292617
0.10313
0.208012
0.445716
-0.139263
-0.392304
0.299154
0.0646096
-0.0550461
-0.00956357
-0.00427275
-0.0232142
0.0274869
-0.0260588
-0.00829454
-0.636511
0.478342
0.158169
-0.273329
0.0134489
-0.0870626
0.454712
0.14332
-0.598033
-0.152371
0.128872
0.575235
-0.127997
-0.147161
-0.0383087
0.18547
0.151545
0.0857588
0.0974908
-0.138486
0.0409948
-0.632154
0.174593
0.457561
0.123486
-0.614134
-0.414927
-0.217227
0.0393213
0.0593783
0.238754
0.01244
-0.251194
0.151347
0.0580319
-0.209379
0.458427
0.0542463
-0.512674
0.296225
-0.107142
0.116899
-0.0919399
-0.152315
0.592253
0.0458974
-0.124581
-0.201495
-0.236693
0.618939
0.0592553
0.00856578
-0.0678211
0.0512073
0.0457932
-0.0970005
-0.00577685
0.0519343
-0.105811
-0.498481
0.116041
0.0953052
-0.659071
0.174058
0.485013
-0.0454283
0.183906
-0.138477
-0.0606157
0.225891
-0.132029
0.299276
-0.27947
0.234286
-0.332201
0.0979148
0.252216
0.0866982
-0.591439
0.55176
0.0396785
0.149867
-0.483652
0.333785
-0.0788641
0.0113952
0.0267401
0.442532
0.385121
0.20797
-0.150712
0.522509
-0.371797
-0.0832041
0.234551
0.00448015
-0.00357076
-0.199081
-0.134898
0.0763118
0.00704131
0.454085
-0.63807
0.183985
0.1026
0.103063
0.46565
-0.615536
0.149887
-0.511486
0.360774
0.622892
-0.168807
-0.00953768
0.071389
-0.218401
0.111654
0.106747
-0.0753527
0.314107
-0.404588
-0.310334
0.0112337
0.407032
-0.418266
-0.0235922
0.133418
0.0565933
-0.224377
-0.0307599
0.274334
-0.243574
-0.00790597
0.125898
0.165096
-0.575913
0.246366
0.549384
-0.00953478
-0.113981
-0.403217
-0.280314
0.249554
-0.0158508
0.0626416
-0.0454787
0.096686
-0.435084
-0.00287038
-0.216256
0.257408
-0.0411518
-0.0120381
-0.0983165
0.178556
-0.12513
0.346242
-0.221111
-0.0663884
0.0711204
0.0332203
-0.00335286
-0.0298674
-0.0842736
0.0630426
0.28573
-0.602212
0.316482
0.498474
-0.000706449
0.00480421
-0.00409776
0.295725
-0.105743
-0.189982
0.0820815
-0.117058
0.338204
-0.244941
-0.0932624
-0.224683
0.0933458
0.131338
0.37236
-0.195341
-0.177019
0.49466
-0.18798
-0.30668
-0.441746
0.256862
0.184884
0.244554
-0.197644
-0.0469093
0.321331
-0.0870443
0.00568107
0.0838053
-0.0894864
0.378852
-0.636788
0.45865
0.178138
-0.295995
0.637323
-0.341327
-0.00926964
0.0855814
-0.068116
-0.166426
0.180838
-0.233535
-0.347017
-0.273521
-0.311401
-0.35378
0.189466
0.00634994
-0.625375
-0.105314
-0.069424
0.174738
-0.0206572
0.118148
0.163134
-0.459129
0.100797
-0.0216658
0.576485
-0.539073
-0.154427
0.0290192
-0.156335
0.197391
0.437071
0.421179
-0.176658
-0.244521
-0.25588
-0.380631
0.0966052
-0.0875724
-0.00903281
0.175595
-0.622601
0.447006
0.207444
-0.199032
-0.00841157
0.284734
-0.18954
0.175654
0.0842003
-0.160453
0.218485
0.195101
-0.409714
0.214613
0.0645576
-0.132333
-0.117857
0.0746102
-0.0158203
-0.0587898
-0.156291
0.253506
-0.0972145
0.480359
0.00162825
0.0581712
0.0340427
-0.0353824
0.00133965
-0.156207
-0.237845
0.394052
-0.46168
0.129765
-0.560355
0.430591
-0.0318937
0.027621
-0.108798
0.120908
0.271575
-0.12003
0.183607
0.290331
-0.473938
-0.229412
0.191428
0.0888754
-0.280304
0.0177962
-0.164957
0.0307812
0.00243905
-0.600751
0.493798
-0.332076
0.206946
0.00685602
0.0664026
-0.528426
0.433473
-0.164034
0.244042
-0.0800087
-0.0748637
-0.304805
0.100359
0.204446
0.45701
-0.273403
0.303692
-0.470842
-0.00321514
0.0483205
-0.0451054
0.358672
0.158534
0.0865858
-0.121476
0.0124371
0.109039
0.360024
0.138819
-0.51676
0.60794
0.100343
-0.128833
-0.423518
-0.744594
0.292094
0.4525
-0.0844169
0.195282
-0.110865
0.0168359
-0.100533
-0.104944
-0.617325
0.190453
0.426873
0.354635
-0.3025
-0.0873917
-0.137292
0.203375
-0.311318
-0.000699936
0.0347427
0.0461192
0.532992
-0.312781
-0.429614
-0.194936
0.62455
-0.0503567
0.444023
-0.584829
0.140807
-0.0602578
-0.437762
-0.306833
0.0715534
-0.0611786
-0.00697031
-0.107525
-0.635794
0.190459
0.445336
-0.171285
0.0761051
-0.00788551
0.0785451
0.3427
-0.273579
-0.0691214
0.0868901
-0.00553127
0.0305206
-0.0249893
-0.0759807
-0.00892076
0.0849014
0.110754
-0.0945636
0.11133
0.00932182
0.0245725
0.0122388
-0.132541
0.224295
0.0920309
0.102692
0.0741979
-0.00312553
-0.0169816
0.476081
-0.157785
-0.318296
-0.0122344
0.051412
0.203124
0.0414296
-0.0935121
0.28494
0.286101
-0.10859
-0.104674
0.10091
-0.390611
0.289701
0.125161
-0.0122602
-0.1129
-0.0141871
0.210552
-0.196365
0.591705
-0.136993
0.27433
0.113816
-0.131345
0.194959
-0.0636141
-0.149112
0.0945205
-0.127564
0.0433396
0.127729
-0.502147
0.374418
0.369032
-0.655377
0.286345
-0.416052
0.568777
-0.152725
0.288858
0.132321
0.0618507
-0.419946
0.238722
0.131115
-0.137745
-0.416076
0.0463123
0.193819
-0.240132
0.133338
-0.140308
-0.40669
0.598532
-0.191841
0.0406055
-0.256861
-0.0704067
-0.420639
0.5434
-0.122761
-0.215411
-0.384104
0.285983
-0.157839
0.00454746
0.000661602
-0.00520906
0.606816
-0.140944
-0.0375172
-0.0386046
0.356506
-0.562753
-0.376987
0.284487
0.0924995
-0.568544
0.0626888
0.505855
0.45576
-0.097088
0.0697121
-0.0812589
0.127271
-0.0104037
-0.199417
0.115
0.194541
-0.319925
0.125384
-0.126254
0.521489
-0.395235
0.268111
-0.264704
-0.584061
0.17737
0.167116
0.118986
-0.254187
-0.377143
0.00284384
-0.0567336
0.515161
0.241132
0.101569
0.236152
0.136208
0.226566
-0.240753
-0.602772
0.4609
0.141873
-0.0664394
0.0978714
-0.031432
-0.169202
-0.110658
-0.312813
0.505925
-0.330563
0.126647
0.00769973
0.368819
-0.104848
-0.651247
0.328128
-0.112182
0.361289
-0.163019
0.0762362
0.0867824
0.145869
-0.181268
-0.00592201
0.0774754
0.236696
-0.279054
0.0423576
-0.511398
0.20872
-0.470788
0.31374
0.157048
-0.00222504
-0.00152688
0.00375192
0.296114
-0.110806
-0.185308
0.100027
0.0902847
-0.190312
-0.028225
-0.0872168
0.0537397
-0.0675547
0.013815
-0.0115067
-0.050294
0.0618007
-0.108406
-0.0179464
0.126352
0.145038
0.331043
0.0824521
-0.180769
0.0471139
-0.00565058
0.15628
-0.0310365
-0.108616
-0.106819
-0.0321754
0.00611658
0.302584
0.0269477
-0.022106
-0.18468
0.0970337
0.0980572
-0.286565
0.188508
0.206778
-0.0624007
-0.144378
0.588445
-0.227959
-0.360486
0.2259
-0.359044
-0.0742719
0.28881
-0.39855
0.10974
0.275442
0.0851054
-0.360548
0.418817
-0.129959
0.0345201
-0.045425
0.442343
0.10406
0.471203
-0.030825
-0.440378
0.00475294
0.0237643
0.00502254
-0.0287868
0.183362
0.43953
-0.253447
0.401866
-0.14842
0.513983
-0.0297519
-0.484231
0.216813
-0.349829
0.133016
-0.00808608
0.050706
-0.0426199
-0.077293
-0.155963
-0.167096
0.022613
0.219453
-0.242066
-0.472751
-0.163044
-0.622627
0.22108
0.190977
-0.187245
-0.251397
0.071847
0.227194
-0.0712666
-0.582855
0.440037
0.142818
0.473632
-0.0343751
-0.0172512
-0.293302
0.0723315
0.226579
-0.29891
0.138413
-0.556088
0.417675
-0.076489
-0.00834267
0.0848316
0.353691
-0.222853
-0.130837
0.303785
-0.109245
-0.0800089
-0.343317
0.423326
0.0135059
0.0830993
-0.159871
0.216464
0.602285
-0.179223
-0.423062
-0.462475
0.128454
0.16727
0.20468
-0.462059
0.116174
-0.327825
0.211652
0.0163698
-0.160605
0.144236
0.0995894
0.371613
-0.0833855
0.00740487
-0.529385
0.108746
-0.130128
0.595778
-0.431787
0.570199
0.625328
-0.123745
0.39871
-0.507208
0.121706
-0.0974853
0.13158
-0.00586711
-0.125713
0.0348412
-0.0322688
-0.00257245
-0.223074
0.0905331
-0.144191
0.165721
-0.077669
-0.465169
0.283578
-0.267954
0.0815058
0.186448
-0.085214
0.165348
-0.0801336
-0.170158
-0.134646
-0.0812103
0.0345436
-0.116848
-0.0275728
0.144421
-0.161765
0.447495
-0.0944668
0.355105
0.120063
0.429004
-0.549067
-0.0989885
0.0814343
0.0175542
0.207497
-0.363704
-0.432142
-0.0610059
0.116907
0.393459
-0.510366
0.00215067
0.123743
-0.550846
0.427103
-0.437771
0.0403808
0.591202
0.629631
-0.231101
-0.39853
0.0445888
-0.0503231
0.105315
-0.265723
-0.265836
0.0456784
-0.112118
0.0991801
-0.519374
0.420194
0.196805
0.432826
-0.398014
-0.115499
0.513513
-0.432345
-0.526682
0.366819
0.159863
0.00314357
-0.163597
0.123283
-0.432486
0.131543
0.222148
-0.0221426
0.0508583
0.0461165
-0.282764
0.174416
-0.0208752
-0.50755
0.492535
-0.342668
-0.21186
-0.0769674
0.288827
-0.257578
0.40045
-0.142872
-0.000314441
0.124966
-0.124651
0.173735
-0.21735
0.287863
-0.0705126
0.110651
0.0993934
-0.368015
0.112743
0.255273
0.388555
-0.513718
0.125163
-0.570708
0.207378
0.36333
0.512776
-0.124221
0.607691
-0.450399
-0.157292
-0.291394
-0.131911
0.0993489
-0.0344355
0.00111037
0.400983
0.219838
-0.481326
0.607393
-0.0165793
-0.590814
-0.591202
0.28549
0.107845
-0.393335
0.574634
-0.420891
-0.153743
-0.199656
0.0753565
-0.0326456
-0.0427108
-0.1252
0.103836
0.0213639
-0.391002
-0.172414
0.0254037
0.540523
0.385823
-9.84374e-05
-0.0885635
0.0951128
-0.0187102
-0.0764026
0.0130689
0.112092
-0.205551
-0.390665
0.507572
0.189079
-0.321108
0.139137
0.435497
-0.271553
0.294561
-0.0230073
0.00279519
0.447023
0.16037
0.153239
0.0535391
-0.117949
0.111043
0.00933595
0.109842
-0.119178
-0.044622
-0.00616087
0.226242
0.100793
0.243639
-0.261828
0.547463
-0.508404
-0.0390589
0.147856
-0.154237
-0.218842
-0.127928
0.346769
0.112727
-0.207251
0.00754041
-0.230068
-0.340641
0.0819735
0.0211661
-0.10314
-0.281777
0.183285
-0.457858
-0.0805255
-0.018463
0.0504035
0.024953
-0.444692
0.590452
-0.14576
-0.0924811
0.197495
-0.105014
-0.092939
0.455182
-0.0906474
-0.0723713
0.590303
-0.454044
0.150865
-0.175892
0.0250277
-0.452716
-0.16282
0.236834
-0.0859694
0.129333
-0.367738
0.238405
0.133826
-0.0101134
0.0693688
-0.120523
-0.0436054
0.164128
-0.365855
-0.119824
0.485679
0.578308
-0.101368
-0.241902
0.314234
0.049074
-0.0402483
0.211469
-0.0998151
-0.198647
0.154782
0.0438657
-0.0140677
-0.0995062
0.0807961
0.0227756
-0.00141314
-0.119109
-0.0722231
-0.0120871
0.0843102
-0.567083
0.157066
0.410018
-0.34793
-0.109403
0.457334
-0.0423549
-0.333604
-0.215231
-0.0557712
0.271003
0.319548
-0.420308
0.552204
-0.131897
0.49757
-0.055227
-0.220988
0.243601
-0.00188745
0.0352666
-0.0333792
0.0534252
-0.0148333
-0.0385919
-0.0643422
-0.0581403
0.0903164
0.231014
0.12655
0.412724
-0.539274
0.0117149
0.225448
-0.106309
-0.119138
0.0841118
-0.223013
-0.222153
0.304894
0.113923
-0.218138
0.15998
0.0581588
0.0651561
-0.173738
0.108581
0.0131019
-0.117489
0.104387
-0.277533
-0.0263875
0.30392
-0.118809
0.0617935
0.0128167
0.133578
-0.134991
0.0484966
-0.279022
0.230525
-0.0430104
0.28665
-0.179404
-0.209846
0.356655
-0.26955
-0.0871053
0.179663
-0.122155
-0.101545
0.159864
0.476456
-0.208436
0.0881252
0.120311
-0.16744
0.0767929
0.231926
0.109449
-0.433963
-0.447883
0.595871
-0.147988
0.0956319
0.0540307
-0.0499319
0.253777
-0.0627997
-0.309492
0.423318
-0.113826
-0.00777083
-0.54298
0.550751
-0.199323
-0.242423
-0.496923
-0.0281432
0.525066
0.00590925
0.115797
-0.0192408
-0.0749837
-0.19726
0.272243
0.329754
-0.0886219
0.409856
-0.15572
-0.254136
-0.0674028
-0.408797
-0.0792878
0.0849689
-0.108087
0.234325
0.200372
-0.09768
-0.122627
0.198187
0.086428
-0.0719327
-0.0144953
0.0865654
0.194754
-0.0921542
-0.120885
0.231044
-0.255137
-0.112878
0.131441
-0.0278597
-0.0973398
0.436317
0.171214
-0.607531
0.0334793
-0.492647
0.459168
0.481955
-0.121931
0.550002
-0.560124
-0.574735
0.108608
-0.117118
0.582127
-0.0541999
0.050765
0.451765
-0.603718
0.151953
0.121451
0.435246
-0.556696
-0.0111297
0.0648694
-0.125954
-0.436481
0.562435
0.132222
0.277634
0.0480972
-0.053874
0.00339086
-0.202738
-0.409162
0.610206
-0.43934
0.292154
0.0621916
0.144258
0.370923
-0.515181
0.628333
-0.0682767
0.0779767
-0.43945
0.560901
-0.112469
0.420037
0.118091
0.00225512
0.185352
-0.1029
0.227118
-0.0907791
-0.136338
0.414807
0.148623
-0.56343
0.176547
-0.0120662
-0.463517
0.614104
-0.150587
0.505292
-0.385228
0.0358766
-0.0340115
-0.00186514
0.571881
-0.157074
0.155268
0.536738
-0.116701
-0.169116
0.434998
-0.265882
0.0341351
0.295002
-0.329138
0.277001
-0.512452
0.235452
-0.522644
0.220594
0.30205
0.123044
-0.566238
-0.0189348
0.37357
0.502359
-0.220082
-0.282277
-0.047355
0.0555001
-0.00814509
-0.648618
0.262914
0.385704
0.597143
-0.421034
-0.176109
-0.443015
-0.109218
0.552233
-0.352391
0.207477
0.144913
0.124457
-0.0206217
0.433165
0.075618
-0.508783
0.0637768
0.352744
-0.208049
0.562918
-0.354869
0.00253972
-0.170049
0.237004
-0.0669546
0.42705
-0.553005
-0.222395
0.323974
-0.441661
0.117687
0.0387389
-0.0379494
-0.000789422
-0.154638
-0.11097
-0.105011
0.0273007
0.130919
-0.158219
0.0243878
-0.141236
0.5246
-0.42542
-0.388642
0.510426
-0.121784
0.44715
0.149993
-0.352527
0.262013
0.0905141
-0.344875
-0.0907323
0.435608
-0.220487
-0.124431
-0.444815
0.569245
0.0863495
-0.129955
-0.511
0.112986
-0.158172
-0.0599664
0.139242
-0.135684
-0.30745
0.443135
-0.157087
0.480101
-0.323014
-0.248787
0.379353
0.264317
-0.564233
0.219514
0.344718
-0.518985
0.392731
0.0523252
-0.00773641
-0.351787
0.250928
0.100859
-0.0114816
-0.0973611
0.108843
0.632754
0.0470708
-0.522535
0.514764
0.073663
-0.0815485
-0.574891
0.45046
0.0820342
-0.42691
0.401925
-0.117438
0.0598221
-0.0354372
-0.0243848
0.485855
-0.0126449
0.0798259
-0.0671809
-0.572892
0.342825
-0.327701
-0.30062
0.114037
0.186583
-0.13388
0.56093
-0.424267
0.288582
-0.177724
0.561277
-0.383553
-0.0112566
0.113143
-0.101886
0.439948
0.337693
-0.435323
0.0976293
-0.247617
0.357952
-0.110335
-0.277483
-0.0786219
0.238601
0.0814663
-0.0434918
0.0375014
-0.095395
-0.0678746
0.0563679
-0.135578
0.0700911
0.207583
-0.277674
-0.0233098
-0.0277733
0.0510831
0.363548
0.124135
-0.469082
0.613874
-0.144792
-0.132881
-0.396122
0.529004
-0.430112
-0.0904724
0.520584
-0.177761
0.0978906
-0.171482
0.0687771
-0.181669
0.238481
-0.0568127
-0.352959
-0.158041
-0.604918
0.0958088
0.200417
-0.218818
0.288325
-0.0695065
-0.343538
-0.29325
-0.288958
-0.35966
-0.434817
0.57248
-0.137663
0.431486
0.140395
-0.188472
0.0571722
0.1313
0.150935
-0.503895
-0.00550721
0.0676988
0.425196
-0.559076
0.183954
-0.258937
0.414122
0.193569
0.135111
-0.390026
0.254915
-0.079252
0.179279
-0.131982
0.507617
-0.375635
0.124698
-0.313769
0.296518
0.563087
-0.421577
-0.14151
0.321734
-0.123586
0.253948
-0.0172525
0.0701829
0.243686
-0.313869
0.336352
-0.0973068
0.323207
0.0801753
-0.0853144
0.00513917
0.0124671
-0.567347
0.414712
0.152635
-0.0137675
-0.0930362
0.106804
0.184652
-0.119496
-0.234541
0.0644919
-0.199828
-0.215736
0.269135
-0.0533994
0.288439
0.109167
-0.397606
0.0144506
0.104254
-0.118705
-0.134615
-0.425642
0.560257
0.0124637
0.079315
-0.0917787
0.0753367
-0.0836794
-0.264289
0.0855945
0.178694
-0.479598
0.312502
-0.137442
0.438585
0.124503
-0.503779
0.371797
-0.128778
0.116518
-0.108903
0.12712
-0.547428
-0.719231
0.269333
0.449898
0.415237
-0.385668
0.589996
-0.15851
0.0724918
0.0850071
-0.157499
-0.0177102
-0.107508
0.125218
-0.223784
0.0674931
0.0442055
-0.434587
0.390381
-0.421081
-0.00662319
-0.0514357
0.0580589
0.257938
-0.37012
0.00642792
0.0744859
-0.0809138
0.0812307
-0.0115186
0.0861267