/*--------------------------------*- C++ -*----------------------------------*\
| =========                 |                                                 |
| \\      /  F ield         | OpenFOAM: The Open Source CFD Toolbox           |
|  \\    /   O peration     | Version:  v2012                                 |
|   \\  /    A nd           | Website:  www.openfoam.com                      |
|    \\/     M anipulation  |                                                 |
\*---------------------------------------------------------------------------*/
FoamFile
{
    version     2.0;
    format      ascii;
    class       volVectorField;
    location    "50";
    object      U_0;
}
// * * * * * * * * * * * * * * * * * * * * * * * * * * * * * * * * * * * * * //

dimensions      [0 1 -1 0 0 0 0];


internalField   nonuniform List<vector> 
14033
(
(1.03297 -0.0166022 0)
(0.652079 0.0315886 -3.50332e-21)
(1.02373 -7.49806e-05 0)
(1.01899 -0.000361723 -5.28145e-22)
(1.01156 -0.0043789 0)
(1.02096 0.000243657 -5.87914e-22)
(0.871813 0.0680472 9.67335e-22)
(1.00376 0.0150674 -7.87605e-22)
(1.019 -0.00033511 1.13002e-21)
(0.927657 -0.112619 -1.15718e-20)
(1.03166 -0.00147375 0)
(1.05568 0.00592203 0)
(1.02463 -0.00448927 3.08599e-23)
(1.02451 -0.00427432 6.81416e-23)
(1.01139 -0.00280917 2.34641e-24)
(1.04379 0.00272274 0)
(1.02879 0.000533595 -8.686e-22)
(0.438227 0.0619381 0)
(1.02098 -0.00190891 0)
(1.03072 0.00383871 2.05558e-21)
(1.04049 0.00259567 3.12978e-21)
(1.05532 0.00630822 5.42287e-21)
(1.04939 -0.0208195 -1.14832e-20)
(1.01133 -0.0044443 7.30241e-25)
(1.03179 -0.00246517 0)
(1.02089 -0.00177565 0)
(1.06337 -0.0154782 -2.94324e-22)
(1.06369 0.00871971 -1.17966e-20)
(1.05197 -0.0416252 4.16031e-21)
(1.06919 0.0117871 0)
(1.03377 -0.00617959 -1.50398e-21)
(1.00771 0.0142859 7.2188e-22)
(1.06916 -0.0148462 0)
(1.03452 -0.0212477 1.98872e-21)
(1.04731 -0.00458562 1.14765e-21)
(1.01964 -0.000356388 1.11035e-22)
(0.941004 -0.0598287 -1.46289e-20)
(0.89052 -0.12686 1.32023e-20)
(1.01353 -0.00634534 -9.08021e-24)
(1.02716 -0.00176623 2.38506e-21)
(0.709718 0.0489302 -1.89691e-21)
(1.04005 0.00287145 -4.88669e-21)
(1.02683 0.00324062 0)
(1.01975 -0.000663725 5.29307e-23)
(1.03029 0.00179818 -1.06783e-22)
(1.02684 0.00282326 0)
(0.832913 0.0111603 1.07652e-20)
(1.02099 0.000124016 2.69403e-22)
(1.06032 -0.0239961 1.78768e-20)
(0.981418 -0.047253 1.18198e-20)
(1.02357 -0.000516401 2.35383e-22)
(1.01945 -0.00014067 0)
(0.778019 -0.13036 -1.92322e-20)
(0.934574 -0.0715696 9.63592e-21)
(1.02898 0.000767228 1.03165e-21)
(1.02485 -0.00448539 0)
(1.07493 0.00880245 -2.50307e-20)
(0.744054 -0.0126616 1.89267e-20)
(1.03494 -0.0216649 -1.80529e-21)
(1.03329 -0.00609689 -1.40428e-21)
(1.02884 -0.00404471 -1.00891e-23)
(0.974109 -0.05143 -3.42635e-20)
(1.04528 -0.0161814 2.89993e-21)
(1.02651 0.00386236 -1.66409e-23)
(1.0198 -0.000273257 0)
(1.02481 0.00194922 -2.42859e-22)
(1.03532 -0.0157255 0)
(1.06418 -0.000569609 -2.39421e-20)
(1.02702 -0.0029138 1.26213e-22)
(1.02727 -0.00850631 -6.65159e-22)
(1.01946 0.00014 4.07115e-23)
(1.01752 0.000453691 7.35775e-24)
(0.826249 0.0112545 -6.76197e-21)
(1.02903 0.00451184 0)
(1.04155 0.00699656 -6.46148e-21)
(1.02366 2.79809e-05 7.06278e-23)
(1.02111 0.00157662 1.09536e-22)
(1.02711 -0.00901392 -1.23062e-21)
(0.570879 -0.0941683 0)
(1.06939 0.00952858 -9.24185e-21)
(1.02726 0.00234879 -1.10678e-24)
(0.633177 -0.0938667 -6.08735e-21)
(0.7894 -0.118172 -4.6588e-20)
(1.02025 -0.000363157 -7.89217e-22)
(1.02317 -0.000392645 0)
(1.01832 0.000139426 -4.74553e-22)
(1.01906 -0.00404788 0)
(0.9198 -0.0706316 -5.93093e-21)
(0.843892 0.0112875 1.06836e-20)
(1.03039 0.00412281 -3.91933e-21)
(1.01959 -0.00018146 1.33664e-21)
(1.02723 0.00270974 0)
(1.02394 -0.00554915 0)
(1.06169 0.000542719 -1.93767e-22)
(1.02666 -0.00320164 -2.43885e-22)
(1.07866 0.0122974 0)
(1.02382 -0.000571458 0)
(1.02259 2.58889e-05 8.20869e-23)
(0.873666 -0.082079 0)
(1.01883 -0.000101336 7.88677e-22)
(1.02496 0.00207855 3.31022e-22)
(1.0208 9.10778e-05 -1.72932e-22)
(1.02611 -0.00291055 8.50482e-23)
(1.0173 0.0010466 0)
(0.827494 0.0114834 1.12234e-20)
(1.06816 -0.00478029 -1.24213e-20)
(0.864551 0.0110971 0)
(1.02033 -0.000441397 0)
(1.06345 -0.000246181 1.25619e-22)
(1.01962 0.000446784 -2.83019e-22)
(0.848653 0.00859279 0)
(1.01897 0.000115743 0)
(1.02382 -0.000359277 -2.07364e-22)
(0.968027 0.0442321 0)
(1.01186 0.00013074 0)
(1.02087 0.00159113 1.4544e-22)
(1.0721 0.00739073 1.89577e-20)
(1.01149 -0.007042 9.09007e-24)
(1.07281 0.000399438 -4.27347e-20)
(1.06822 -0.015594 0)
(1.01812 -7.35627e-05 0)
(1.05178 -0.000875738 2.75716e-21)
(-0.0133361 0.0882085 3.06991e-20)
(1.02014 -0.00436496 -3.0737e-21)
(1.05875 -0.00625125 -1.39741e-20)
(1.02254 -0.00629802 0)
(1.02325 0.00177704 -2.48596e-22)
(0.979803 0.0425163 5.43824e-22)
(0.697455 0.0202311 1.1651e-20)
(1.02133 0.000481944 0)
(0.828388 0.0113601 6.03146e-21)
(1.02313 -7.38965e-05 8.9373e-23)
(1.01096 -0.00597602 -2.14013e-25)
(0.944687 -0.011756 -2.58413e-21)
(0.842306 0.00942274 0)
(1.0279 -0.00796693 -8.6549e-22)
(1.065 0.00732244 1.01896e-20)
(1.01968 -0.000174775 0)
(1.02141 0.00056523 -3.67148e-22)
(1.02137 -0.00920606 3.63667e-23)
(1.03544 -0.0122832 0)
(1.07564 0.00320424 1.60693e-20)
(1.05811 -0.00566359 -4.98085e-21)
(1.0444 0.000781837 0)
(1.04931 -0.0396495 5.87006e-21)
(1.03024 0.00142866 2.8351e-22)
(1.0181 -7.17416e-05 -3.90772e-22)
(1.05189 -0.00928549 0)
(0.949369 -0.0544718 4.84318e-20)
(1.03825 -0.0840725 4.27938e-21)
(1.08764 0.0219887 -1.06596e-21)
(1.03503 -0.0118603 1.51799e-21)
(1.01971 0.0001486 -3.13898e-22)
(1.01119 0.0180845 2.18202e-21)
(1.02082 -2.31402e-05 3.26223e-22)
(0.823603 -0.00302887 1.832e-20)
(1.01493 0.00270441 1.57644e-22)
(1.02201 0.00217358 6.77674e-22)
(1.01604 0.00253665 -1.2297e-21)
(1.01162 -0.00342539 0)
(1.02343 -0.0060252 0)
(1.06346 -0.0168081 -1.16185e-20)
(0.964443 -0.0185127 4.55102e-21)
(1.01966 0.000866276 0)
(1.042 -0.0031748 1.82339e-21)
(1.01913 5.36163e-05 0)
(1.03388 -0.0116134 1.55329e-21)
(1.04876 0.00313653 0)
(0.415761 -0.156828 3.43509e-20)
(1.02171 -0.00196748 -6.05471e-22)
(1.04415 0.00230855 3.02445e-22)
(1.0655 0.00681372 -1.32265e-20)
(1.05549 0.00513411 -6.12353e-21)
(0.454873 0.0236855 -2.8122e-22)
(1.02365 1.28159e-05 -7.17301e-23)
(1.02163 -0.00184948 5.65053e-22)
(1.07063 -0.00671473 9.08903e-21)
(0.731685 0.0213738 -1.16844e-20)
(1.05502 0.00473091 0)
(1.0444 0.00133192 -4.28369e-21)
(1.03759 -0.0186576 -1.53833e-22)
(0.710008 0.0225005 -5.63199e-21)
(1.03335 -0.00474289 2.47449e-21)
(1.0236 0.00549148 4.66902e-22)
(1.01968 0.000269887 -2.17035e-22)
(0.848271 0.010441 1.04716e-20)
(0.89608 -0.0234327 0)
(1.0213 0.000889296 0)
(0.391047 -0.174984 0)
(0.847932 0.0105963 -1.15134e-20)
(1.08233 -0.0237084 -1.14178e-20)
(1.03355 -0.0104869 2.67854e-21)
(1.0146 0.0167933 -1.58963e-21)
(1.02138 0.000980923 -1.98503e-22)
(1.06127 -0.00956087 0)
(0.847868 0.0489065 4.73394e-22)
(1.0455 -0.0153845 0)
(0.716571 0.0181088 -1.40217e-20)
(1.01897 -0.000265551 -1.00381e-21)
(1.02103 0.00062316 6.28353e-22)
(1.02038 -0.00145764 -5.91017e-22)
(1.03364 -0.00986997 -5.36098e-23)
(1.01979 0.000113962 -6.16572e-22)
(1.03579 -0.0191501 0)
(1.03431 -0.0120644 1.44634e-21)
(1.01971 -4.77406e-05 4.68047e-22)
(1.05123 -0.00118521 2.57665e-21)
(1.07602 0.00870399 3.46373e-20)
(1.04022 0.00354012 2.8033e-21)
(1.07117 0.0461318 0)
(0.678707 0.0216261 -2.05113e-20)
(1.07461 0.00947147 0)
(1.08322 -4.93169e-05 0)
(1.06893 -0.0109356 0)
(1.01339 -0.0054377 7.01203e-24)
(1.0232 -0.00612238 3.23818e-23)
(1.01883 -1.48225e-05 1.20828e-21)
(1.02833 0.0382159 -1.21334e-21)
(1.01849 -0.000366214 6.5198e-22)
(1.03507 -0.0267052 -7.77002e-22)
(1.03979 0.00384551 5.05673e-21)
(1.02356 0.00471674 0)
(1.02337 0.00457629 -4.91437e-22)
(1.01983 -0.00408284 1.97912e-22)
(1.01928 0.000555814 -9.4005e-22)
(1.02559 -0.00313449 0)
(1.04924 -0.0198953 -2.3194e-21)
(1.03441 -0.00906405 -2.86957e-21)
(1.01888 -0.000228984 1.02219e-21)
(1.02845 -0.00621721 1.62348e-23)
(1.02161 0.000458006 -2.79688e-22)
(1.06739 -0.00569391 1.35616e-20)
(1.02014 0.00198932 0)
(1.0114 -0.00741623 1.27942e-23)
(1.01656 0.0427294 2.80648e-21)
(0.906314 -0.0274524 2.01921e-20)
(1.06139 -0.0231725 1.14891e-20)
(1.02737 -0.00478747 -1.7249e-23)
(1.01882 -6.99936e-05 2.92888e-22)
(1.01976 0.000735736 -3.9389e-23)
(-0.0261283 0.076222 1.40421e-20)
(1.02782 -0.00842312 1.76606e-21)
(1.01867 -8.12157e-05 -9.05366e-22)
(1.02265 -5.4954e-05 -9.95282e-23)
(1.03429 -0.00965861 0)
(1.02749 -0.00531705 9.11805e-23)
(0.822171 0.0139879 -2.48166e-20)
(0.529237 0.0123837 2.73914e-20)
(1.0196 -0.00294333 -1.56477e-21)
(1.02894 -0.00215397 -3.72849e-22)
(1.01968 0.00040953 5.45832e-22)
(0.678455 0.0199704 1.09408e-21)
(1.02732 -0.00811933 -1.15424e-22)
(1.08194 0.00104104 -1.46208e-20)
(1.01888 -0.000160259 -1.07935e-21)
(0.752616 0.125098 4.38817e-23)
(1.01986 0.000807596 -1.03818e-21)
(1.02179 -0.00255894 0)
(1.02653 -0.00955671 0)
(1.05208 -0.0475942 0)
(1.01342 -0.000642351 -3.29315e-23)
(0.526023 0.0538326 0)
(0.93529 0.0299097 -1.82156e-22)
(1.03426 -0.0278164 -6.95757e-22)
(1.03414 -0.00279185 1.17836e-21)
(1.03005 0.0249823 -1.23372e-21)
(1.01999 0.00184307 -1.13986e-22)
(1.06876 0.00982925 0)
(1.03653 0.019398 9.72986e-22)
(0.72593 0.0179088 2.07062e-20)
(1.02936 0.00431771 -1.13793e-21)
(0.925668 -0.0223429 2.1985e-20)
(1.01936 -0.00089634 0)
(1.04424 -0.0115688 -9.22619e-23)
(1.06949 -0.0410086 -1.76548e-20)
(1.01876 -3.89544e-05 0)
(1.0216 0.00065197 3.28117e-22)
(1.06411 0.00823043 3.09754e-20)
(1.01935 -0.00258508 -7.93544e-22)
(1.03274 -0.053439 0)
(1.06922 -0.00525514 6.95647e-21)
(1.01962 0.000827506 -4.92991e-22)
(0.963703 -0.000665646 8.91829e-21)
(1.04252 0.00417254 0)
(0.449343 -0.176371 1.04924e-20)
(1.02551 -0.0809602 0)
(0.820149 0.0117515 -3.71082e-20)
(1.02732 -0.00925022 0)
(0.655653 -0.0106406 0)
(1.0834 -0.0223039 2.48146e-20)
(1.02333 -0.0085648 -1.26496e-21)
(1.05491 0.0035875 1.5208e-20)
(1.05736 -0.00518918 -1.43707e-20)
(1.05239 -0.00823347 -9.9758e-23)
(1.02166 -0.00170039 0)
(1.02663 -2.9843e-05 -6.76525e-23)
(1.02361 0.00485871 0)
(1.01881 -0.000129369 1.05378e-21)
(1.02643 5.19255e-05 0)
(1.01964 -0.000101541 0)
(1.02358 0.00492204 0)
(1.01408 -0.0257294 0)
(0.752798 0.0980036 0)
(1.03105 0.00313309 0)
(1.02353 -0.0287103 2.25477e-22)
(1.03388 0.0115921 2.48878e-22)
(1.02302 0.00250753 0)
(1.02355 0.00521391 0)
(0.836928 0.0128166 1.60495e-20)
(1.02739 -8.58729e-06 1.25195e-21)
(1.06449 0.00595505 1.25039e-20)
(1.01981 0.000822616 5.14779e-22)
(1.05619 -0.0254751 1.41314e-20)
(1.05885 -0.00515906 -1.82961e-21)
(1.0554 -0.0407894 1.60325e-20)
(1.03653 0.00754082 0)
(1.01884 -1.47636e-05 -1.56862e-21)
(1.02441 -0.0179336 -1.2047e-21)
(1.02161 -0.00479253 -1.33811e-21)
(0.67486 0.0164334 0)
(0.648346 0.0592424 9.75108e-21)
(1.06638 -0.00550635 2.50368e-20)
(1.03038 -0.0107717 2.47055e-21)
(1.02949 -0.00337157 -4.48085e-22)
(1.05325 0.0414007 0)
(0.880995 -0.0782109 0)
(1.03144 0.00327898 1.69587e-21)
(1.02575 -0.00290684 1.1642e-22)
(0.854414 0.0104681 -1.08929e-20)
(1.04767 -0.0145261 0)
(1.0212 -0.00507079 8.24757e-22)
(0.655145 -0.14335 2.63943e-21)
(0.771193 -0.136389 2.02005e-20)
(1.04194 -0.00270192 -5.81097e-22)
(1.01504 -0.00277284 -9.56033e-24)
(0.951927 -0.0161161 -1.45939e-21)
(1.06521 0.00797793 -1.39973e-20)
(1.01994 0.000129368 -9.52086e-22)
(0.916975 -0.012656 0)
(1.02853 0.00240042 -2.73906e-21)
(0.693978 0.0206117 -1.93643e-20)
(1.05761 -0.0116737 7.34628e-21)
(1.01989 0.000875326 0)
(1.0282 0.00227056 2.45337e-21)
(1.06626 0.0108088 -1.55465e-21)
(1.03085 -0.00264675 -1.47713e-22)
(1.05015 0.0043002 1.12934e-20)
(1.02043 3.51902e-05 2.1432e-22)
(0.780055 0.0471283 0)
(0.868634 0.036473 2.38713e-23)
(1.0235 0.00496986 0)
(1.02353 -0.00137563 0)
(0.840618 0.0110326 -9.66135e-22)
(1.04767 -0.0154465 6.66424e-21)
(1.02052 -0.00131044 8.65046e-22)
(1.01349 -0.00603492 0)
(1.02329 0.00264999 0)
(0.860088 -0.0445632 0)
(1.02598 -0.00337978 7.67738e-23)
(1.01627 0.000985983 1.39229e-21)
(1.0205 -0.00139592 0)
(1.03346 0.00371973 5.5349e-22)
(-0.015941 0.0806128 1.32839e-20)
(1.01504 -0.00237509 -1.35836e-21)
(1.01806 0.00020237 9.91283e-22)
(0.995985 -0.010702 5.07203e-21)
(1.03421 0.00135451 -2.84534e-22)
(1.00865 -0.0111038 0)
(1.02958 -0.00261499 0)
(1.02652 0.00103735 0)
(1.02508 -0.00217688 -2.22965e-23)
(1.02647 0.00103961 -6.76365e-23)
(1.01164 -2.13198e-05 1.05702e-22)
(1.02146 0.000373246 0)
(1.06423 0.00527323 -1.25254e-20)
(0.709876 -0.144524 -2.72069e-21)
(1.0304 -0.00185167 1.52552e-21)
(1.03503 0.00711963 0)
(0.968458 0.0159283 2.7765e-24)
(1.0188 -0.00214936 -2.35871e-23)
(1.02974 -0.00752397 0)
(1.03201 0.0302165 -3.42745e-21)
(1.02192 -0.00259633 3.50844e-22)
(1.0669 0.0256731 1.37536e-21)
(0.86493 -0.0758665 -3.30353e-21)
(1.01914 -0.000372464 -1.54353e-22)
(0.86783 0.00715971 0)
(1.02667 -0.00469501 -4.41098e-23)
(1.04296 0.00366946 -1.70894e-21)
(1.06114 0.00238216 -8.95101e-21)
(1.02339 0.00491383 -4.55274e-22)
(0.700401 0.0188176 0)
(1.03437 0.00553547 2.63048e-21)
(1.02303 -0.00650751 -1.0523e-21)
(0.943445 0.0430067 0)
(0.605742 -0.141382 0)
(1.05541 -0.0202275 -1.37735e-21)
(0.708809 0.00283654 2.25166e-20)
(1.04749 -0.0239696 -9.24196e-21)
(1.02052 0.00179646 0)
(0.906358 0.0142669 0)
(1.02178 -0.00271055 0)
(1.02329 0.00162166 -2.10625e-22)
(1.0263 -0.0166627 -7.86014e-23)
(1.02737 0.0254081 3.53789e-21)
(1.01945 0.000537221 5.16935e-22)
(1.02023 -0.0170839 6.18388e-23)
(1.01319 -0.00629557 9.28619e-24)
(1.02207 -0.00276388 -1.03614e-21)
(1.04333 -0.00600049 -2.56368e-22)
(0.838747 -0.00567884 -5.23462e-22)
(1.07219 0.00660049 -9.47425e-21)
(1.02286 0.000442076 7.51341e-22)
(0.732072 0.0196233 -9.40469e-21)
(1.02534 -0.00260122 0)
(1.02358 -0.00287972 -9.21076e-23)
(1.03299 0.000591801 4.83959e-22)
(1.02333 0.00303308 2.02995e-23)
(1.02173 -0.00182025 0)
(-0.019477 0.0882679 -5.43987e-20)
(1.03562 -0.0134866 -1.69103e-21)
(0.949636 0.0391971 0)
(1.04962 -3.70072e-05 3.78724e-21)
(1.01736 0.000442083 0)
(1.01898 -6.43757e-05 7.4995e-22)
(1.02078 0.00180221 0)
(1.02045 -0.0183466 -1.82123e-23)
(1.01154 -0.00302911 -1.2114e-23)
(1.04366 -0.0127428 0)
(1.01947 -0.00435025 0)
(1.01937 0.018282 1.24186e-21)
(1.02691 -0.00153335 3.5926e-22)
(1.03292 -0.00847322 2.30059e-21)
(1.02219 -0.00110335 -5.99598e-23)
(1.03306 -0.000709177 -4.14505e-22)
(1.02056 -0.0012533 0)
(1.0295 -0.0057302 -1.35121e-21)
(1.02027 9.90319e-06 0)
(1.04557 -0.0216973 3.53327e-21)
(0.921015 0.0537399 -8.87157e-22)
(1.05692 -0.0460277 -1.0974e-20)
(1.02664 -0.00421966 -4.4742e-23)
(1.02328 -0.00135244 0)
(1.02086 -0.000304736 0)
(1.01382 -0.00241709 -2.65691e-21)
(1.01956 7.89299e-05 6.48501e-22)
(1.0497 0.00465391 -3.95098e-21)
(0.98866 -0.0238999 0)
(0.919656 0.0351387 -1.99211e-21)
(1.01996 -0.000640242 7.89513e-22)
(0.829189 0.0135674 0)
(1.0252 -0.00176053 4.82437e-23)
(1.02 0.000414172 -3.06807e-22)
(0.94513 -0.0139565 1.12028e-21)
(1.0122 -0.000119192 8.25796e-23)
(1.07727 -0.0239967 0)
(0.940913 -0.0244581 -6.46266e-22)
(1.01993 -0.000708286 7.29859e-22)
(1.01113 -0.00233204 0)
(1.04538 -0.00629303 -9.26892e-21)
(1.02705 -0.00192827 -1.77576e-21)
(0.836264 0.00971178 -3.2859e-21)
(1.02978 -0.0481757 0)
(1.07324 0.0101606 -8.22744e-21)
(1.0186 -0.00210747 6.69661e-23)
(1.01904 -0.00034803 0)
(0.99489 0.00725852 -1.7761e-22)
(1.01837 -0.000239466 -2.10655e-22)
(1.02799 -0.00773816 1.01328e-22)
(1.0416 -0.0523229 0)
(1.02959 -0.00612354 0)
(1.04378 -0.0132892 -6.03369e-21)
(1.02073 0.00143751 -1.68926e-21)
(1.0194 0.00303465 3.60443e-22)
(1.03202 -0.000904852 0)
(0.754185 -0.000594784 0)
(1.01871 -0.00217134 0)
(1.07234 0.0103556 1.36417e-20)
(1.02272 -0.00651922 -2.17293e-23)
(1.01337 -0.0579155 0)
(1.02341 0.00246336 3.43337e-22)
(0.849295 0.0123914 4.90046e-21)
(1.01921 0.00284315 0)
(0.778243 0.0556906 -5.39034e-22)
(0.840016 0.0114276 1.14684e-20)
(1.02613 0.0038243 9.28724e-23)
(0.692135 -0.143252 1.8882e-21)
(1.02 -0.00026346 -1.45415e-21)
(1.06279 -0.00101887 5.84885e-21)
(1.01973 0.000900684 3.1587e-22)
(1.02551 0.00221228 1.72313e-21)
(0.65157 -0.155233 4.63235e-20)
(0.643297 -0.153633 8.22526e-21)
(1.05532 0.00402928 -1.71229e-20)
(1.02068 0.00125405 -4.05954e-22)
(1.03017 -0.00165745 0)
(1.06476 0.00840864 -6.78193e-21)
(0.936022 -0.0645139 -2.80744e-21)
(1.03353 -0.00519931 0)
(1.06704 0.0373912 2.67752e-22)
(1.02314 0.00290628 0)
(1.02196 0.0158503 -2.44457e-21)
(1.07922 -0.0228953 0)
(1.00003 -0.0157141 -8.41782e-24)
(1.04775 -0.0230584 0)
(1.02332 0.00169218 1.56924e-22)
(1.01839 -7.39903e-05 4.72502e-22)
(0.933051 0.0214139 -8.73555e-22)
(1.01981 -0.0006726 0)
(1.05892 -0.0166324 1.38919e-20)
(1.02315 -0.00256172 0)
(1.01845 1.08761e-05 1.45678e-21)
(0.843643 0.012536 0)
(1.02829 -0.00541805 -1.60627e-22)
(1.0189 -0.00265128 1.6336e-21)
(1.02843 -0.00741225 0)
(1.05255 -0.00981515 0)
(1.02359 -0.000171934 -6.04341e-23)
(0.842004 0.118986 5.73857e-21)
(1.01138 -0.138488 -1.25131e-20)
(1.02568 0.00198651 1.52766e-22)
(0.984262 0.0875558 0)
(1.02547 0.00194305 -1.81746e-22)
(1.02163 -0.0026392 4.26424e-22)
(1.01937 -0.00194466 0)
(1.02922 -0.00264067 0)
(1.02554 -0.00863215 0)
(1.01921 0.00247658 0)
(1.02519 0.00211434 -1.13198e-21)
(1.02248 -0.00295224 0)
(1.0327 -0.0112972 0)
(1.01913 -0.00352301 3.87296e-22)
(0.850808 -0.0391539 0)
(1.02019 0.000152429 -9.2264e-22)
(1.02146 0.000472261 -7.1126e-22)
(1.02208 -0.00354298 -1.17567e-22)
(1.02137 0.00160306 1.07884e-21)
(1.01871 4.18338e-05 -1.46572e-21)
(1.01866 4.06823e-05 -8.9217e-22)
(1.07141 -0.00584308 -3.00129e-20)
(1.03267 -0.0308088 -1.0775e-21)
(1.06502 -0.0440814 7.93539e-21)
(1.0151 -0.00278591 0)
(1.01905 -0.00265341 0)
(1.0002 0.0807047 0)
(1.03429 -0.0022907 0)
(1.09487 -0.0128502 0)
(1.0263 0.00138082 -1.09011e-23)
(1.08087 0.00303889 -1.49188e-20)
(1.02141 -0.00404045 1.27209e-21)
(1.02381 -0.0172017 0)
(0.709675 0.0195019 -1.42718e-20)
(1.01123 -0.00573522 6.28694e-24)
(1.02643 0.00141379 7.7428e-23)
(1.04466 0.00780672 0)
(1.05799 -0.0256106 -2.33963e-20)
(1.02018 0.000227196 1.05743e-23)
(1.03334 -0.00888766 0)
(1.04909 0.000275051 0)
(0.937639 -0.0256669 -3.97153e-20)
(1.03198 -0.0194004 2.36137e-21)
(0.838972 0.0116437 9.85414e-22)
(1.0434 -0.00521873 -4.16532e-21)
(1.02911 0.00638442 -2.09695e-21)
(1.04113 -0.00141925 0)
(1.0166 0.00191607 -1.05101e-21)
(1.05669 -0.0241878 -3.76863e-21)
(1.02837 -0.00784319 0)
(1.01798 7.62876e-05 1.16096e-21)
(1.01988 -0.000581744 -1.59362e-21)
(1.07229 0.00233541 0)
(0.964886 0.00970706 0)
(1.03905 -0.0376147 -5.49132e-22)
(1.01861 2.12748e-05 1.82964e-21)
(0.594667 -0.152603 -7.26553e-21)
(1.01988 -0.000747301 -8.27756e-22)
(0.496009 -0.168603 -3.33294e-20)
(0.726219 0.0181854 0)
(1.03451 0.0067402 0)
(0.934145 -0.0198211 1.96289e-20)
(1.04113 -0.00108111 0)
(1.02724 -0.00579303 -1.05051e-21)
(1.02647 0.000595181 1.21009e-23)
(1.02329 0.001447 2.81596e-22)
(1.02393 4.67807e-05 0)
(1.05961 -0.0315001 -1.00129e-20)
(1.02597 -0.00443079 0)
(1.06154 -0.0215109 5.28822e-21)
(1.02368 1.50912e-05 7.88624e-23)
(1.01799 -0.00152631 0)
(0.6902 0.0256843 0)
(1.03417 0.00525008 0)
(1.02358 -0.000439323 0)
(1.02191 -0.0418891 3.55544e-22)
(1.02241 -0.00374012 0)
(1.01984 -0.000719778 7.35495e-22)
(1.01124 -0.00685117 -1.2554e-24)
(0.990098 0.0130682 0)
(1.0225 -0.000293169 0)
(1.0253 -0.00822392 1.98595e-22)
(1.01906 0.000660763 0)
(1.02648 0.000541389 5.27603e-26)
(1.022 -0.00376023 0)
(0.893985 0.00337011 -6.15718e-21)
(1.03955 0.00483147 -4.87841e-21)
(0.466307 -0.00695884 -1.18743e-20)
(0.805859 -0.079307 1.32766e-21)
(0.846421 0.00393414 -4.01961e-20)
(1.0615 -0.00143175 0)
(1.02179 0.0858663 3.21774e-22)
(1.04197 0.0042706 -3.96681e-22)
(1.03954 0.0178017 0)
(1.02596 -0.00415427 0)
(1.02137 0.00171831 -1.3225e-21)
(0.891371 -0.0586281 -5.3023e-21)
(1.02324 0.00177261 0)
(1.02495 -0.0162528 0)
(1.0209 -0.0016909 9.33312e-22)
(0.824272 -0.030525 -1.48055e-20)
(0.695585 0.0250292 -1.78951e-20)
(0.723497 0.022279 5.00173e-21)
(1.01861 -8.6075e-05 0)
(1.0204 -0.00419123 2.13515e-21)
(1.03996 0.00445535 2.72555e-21)
(1.02619 -0.00144295 1.37628e-23)
(1.0482 0.00331914 -1.36822e-20)
(1.03431 0.0712617 3.03296e-23)
(1.04085 -0.0201055 0)
(1.03092 -0.0321068 6.82483e-23)
(1.05183 0.00516204 2.05784e-20)
(1.02071 -0.00121674 -7.74486e-23)
(1.02766 -0.00304079 0)
(1.02094 -0.00113543 0)
(1.06953 0.00901273 1.11209e-20)
(1.02771 -0.00525615 -7.35898e-22)
(0.916794 -0.0811721 0)
(1.01446 -0.00384711 3.06025e-24)
(1.02698 -0.00552269 6.56978e-23)
(1.0604 -0.0207756 -2.16628e-20)
(1.02382 1.14303e-05 -2.92415e-23)
(1.05856 -0.015958 -1.80386e-20)
(1.02226 -0.00101335 2.11629e-22)
(1.02813 -0.00377755 1.15063e-22)
(1.053 0.0124543 -8.03807e-21)
(1.06722 0.00288048 8.36642e-21)
(0.880562 0.0058605 0)
(1.06209 -0.000809589 -5.77604e-21)
(1.01903 -6.08635e-05 -8.62884e-22)
(1.01969 0.000865071 2.94577e-22)
(1.02559 -0.000595886 8.19146e-24)
(1.04236 0.00608531 -3.58021e-21)
(1.02227 -0.030873 -2.72963e-22)
(1.02865 0.00420661 0)
(1.0181 -0.00215434 0)
(1.023 -0.00261567 -7.89804e-22)
(1.09712 -0.0333583 -1.87192e-21)
(1.02305 -0.000441165 -9.24015e-23)
(1.01882 -2.39332e-05 4.13705e-24)
(0.767438 -0.140546 -3.61309e-20)
(1.02587 0.00167021 -1.4135e-22)
(1.01314 -0.00543677 -1.44541e-23)
(1.02647 -0.00143922 -1.99606e-22)
(0.92856 -0.0699729 0)
(-0.0283361 0.067257 0)
(1.02901 0.00485258 -1.56123e-21)
(1.06314 -0.0127539 0)
(1.03265 0.00116813 -7.89443e-23)
(1.05696 -0.00902252 2.85461e-22)
(1.01939 -0.0171803 0)
(1.0262 -0.00143543 6.44727e-24)
(1.03313 -0.000802608 2.48015e-23)
(0.418273 0.0823904 0)
(1.06471 -0.0303172 5.30277e-21)
(1.02736 -0.00507212 5.16709e-22)
(1.02056 -0.00132565 -8.33991e-22)
(1.01924 0.000652612 -4.94474e-22)
(1.01978 -0.000711931 6.61157e-22)
(1.02232 -0.0220523 5.09638e-22)
(1.02376 -0.0387778 -2.60865e-22)
(1.0229 0.00425984 1.42888e-23)
(1.06675 -0.00769133 2.98723e-20)
(0.965535 0.00950602 -4.83704e-21)
(1.01174 -0.00369561 0)
(1.07398 0.0238726 0)
(1.02658 -0.0517559 9.3145e-21)
(1.02951 -0.00644267 0)
(1.0232 0.00434113 -3.22797e-22)
(1.0037 0.0124077 0)
(1.06668 0.00256117 -7.9141e-21)
(1.02613 0.00171971 0)
(0.82043 0.013447 0)
(1.0163 0.00516403 8.44413e-22)
(0.96027 -0.014122 -5.20361e-21)
(1.04353 -0.0113627 -2.20014e-21)
(0.985666 -0.0227166 0)
(0.967692 -0.0234526 1.99393e-20)
(0.708546 0.0205842 -3.81957e-20)
(1.07264 0.00779712 0)
(1.01988 0.0010486 -1.05978e-21)
(1.02366 3.81125e-05 0)
(0.0439018 0.00196046 4.44386e-21)
(1.0079 -0.0171129 -1.61249e-21)
(1.06081 -0.00119268 -1.01058e-20)
(1.02765 -0.00153446 -1.19526e-21)
(1.03652 0.00325231 -3.91241e-21)
(1.02422 -0.00253045 2.26828e-23)
(1.01978 0.000587084 8.40377e-22)
(0.94295 -0.184913 -3.86894e-21)
(1.02071 -0.00742927 6.68186e-22)
(1.02352 -0.00337293 0)
(1.08443 -0.0187066 -2.50507e-20)
(1.01949 0.000428873 -1.00681e-21)
(1.01959 -9.00033e-05 -6.86138e-22)
(1.01916 0.00188611 1.62854e-22)
(1.0703 -0.0142688 0)
(1.03629 -0.0132567 -6.40221e-21)
(1.03046 -0.0100427 0)
(1.01927 -0.000261531 9.92949e-23)
(1.01941 9.60076e-05 -1.67792e-21)
(1.04043 0.00219148 0)
(1.02975 -0.00214261 5.32367e-22)
(1.04006 -0.0199452 3.23531e-21)
(1.05142 0.00488972 -1.1156e-20)
(1.01937 0.00204815 0)
(0.826793 -0.0693303 -1.31169e-21)
(1.02297 0.000318515 2.52897e-22)
(1.03888 -0.0202245 0)
(1.04922 0.00360258 3.728e-21)
(1.02538 -0.00145849 2.00554e-23)
(1.0229 0.00094123 0)
(1.01865 -0.000105793 -7.28834e-24)
(1.07429 -0.00150911 -1.0769e-20)
(1.03 -0.000102135 -7.46238e-23)
(1.0195 -0.0210001 -2.82585e-23)
(1.02957 0.00632073 1.09338e-21)
(1.02314 -0.0176114 0)
(0.87039 -0.0887398 -1.06846e-20)
(1.01929 -0.000396272 6.02442e-22)
(0.835852 -0.036097 0)
(1.02548 -0.0290243 0)
(0.88746 -0.0610822 9.67322e-21)
(1.03549 -0.000546352 0)
(1.02874 -0.00265608 1.19907e-22)
(0.999131 0.0136975 0)
(0.751165 0.0173687 -2.65047e-20)
(1.02167 -0.00307311 -8.88245e-22)
(1.02525 -0.00112402 6.08382e-24)
(1.022 -0.000465567 7.01576e-23)
(0.719149 0.0212235 5.02703e-21)
(0.992002 -0.0267657 -7.57179e-22)
(1.02901 -0.0304871 5.76521e-22)
(1.02599 -0.00167292 -6.10331e-24)
(1.01917 -0.000369121 -1.41236e-22)
(1.02661 -0.00249204 1.27001e-22)
(1.04085 -0.0196169 0)
(0.690544 0.0211753 1.03476e-20)
(1.0239 -8.76707e-05 9.79484e-23)
(0.992219 -0.0192428 -1.12629e-21)
(0.829325 0.0130132 2.66161e-21)
(0.928444 -0.0287182 4.09886e-20)
(1.02435 0.00185949 5.35115e-23)
(1.02251 -0.0497836 0)
(1.06823 0.0217773 -2.7592e-22)
(1.02403 -0.0098804 -3.64607e-22)
(1.02583 -0.00163007 2.4927e-23)
(1.01892 0.00245296 0)
(0.842953 0.00549306 1.4073e-20)
(1.01886 -8.49466e-05 4.90899e-22)
(1.02751 -0.00174072 -5.12518e-22)
(1.05639 -0.00971593 0)
(1.01988 -0.000502578 -6.90142e-22)
(1.00816 -0.0114271 -9.84787e-24)
(1.0329 -0.0106253 0)
(1.06137 0.0727184 -2.92813e-21)
(1.01517 -6.97157e-05 8.40765e-22)
(1.04223 -0.00613706 1.35598e-20)
(1.05584 -0.0386559 -2.6007e-20)
(1.06279 -0.0243401 1.06633e-20)
(1.03845 -0.00304466 3.28488e-22)
(1.02026 -0.00141397 7.12137e-22)
(1.03669 0.00369776 -4.27319e-21)
(1.02716 0.000266389 -5.16159e-22)
(0.735598 0.0178807 2.64051e-20)
(1.01812 -4.9241e-05 1.17749e-23)
(1.01984 -0.000734205 1.72744e-21)
(1.02347 0.000783985 0)
(0.923988 -0.0113158 0)
(1.02325 0.00345538 2.46938e-22)
(1.03896 0.0133523 0)
(1.01438 0.000118735 1.03935e-22)
(0.854992 -0.0864942 0)
(1.05026 -0.0198966 0)
(1.02822 -0.00111654 3.41087e-23)
(1.0457 -0.020527 3.24318e-21)
(0.879605 -0.0841261 2.7044e-20)
(1.02316 -0.00516498 0)
(1.06952 -0.00642931 -2.31363e-20)
(0.22358 -0.165608 0)
(1.06994 0.00584555 -1.03854e-20)
(1.06049 -0.0335405 -1.1638e-20)
(1.0575 -0.0125754 -4.29179e-21)
(0.681758 0.0150134 0)
(1.03898 0.00464024 4.80156e-21)
(1.06963 0.0121976 0)
(1.04646 -0.0235725 -3.16385e-21)
(0.341966 0.00892853 0)
(1.01882 -0.000111867 -5.58083e-22)
(0.81747 -0.00369504 0)
(1.02048 -0.00681428 -2.86267e-22)
(1.02635 -0.00239819 0)
(1.03034 -0.00221881 4.323e-23)
(1.02227 -0.00358114 -3.10756e-22)
(1.02097 -0.00169758 -1.34253e-21)
(1.05588 -0.00719742 1.52443e-20)
(1.02542 -0.00507696 3.93023e-22)
(1.0266 -0.00179127 0)
(1.02234 -0.00294853 0)
(1.04154 -0.0206614 -6.04396e-21)
(0.902695 0.0361694 7.9624e-22)
(1.06164 0.00304854 1.91335e-20)
(1.01881 0.0163623 4.49638e-22)
(1.02408 -0.000300593 0)
(1.02273 0.00366606 -3.3352e-22)
(1.02288 0.000788752 -1.32786e-22)
(0.936647 0.0283662 1.96056e-21)
(1.01894 -0.0197114 0)
(1.04295 -0.00497037 0)
(1.02528 0.00218206 -6.67001e-23)
(1.02979 -0.00508988 1.20354e-21)
(1.04873 -0.0211927 0)
(1.02388 -0.000586143 9.57605e-23)
(1.01366 0.00568603 1.06539e-21)
(0.610897 -0.1661 1.6629e-20)
(1.02121 0.0013196 0)
(1.02183 -0.000395954 7.04887e-23)
(0.990763 -0.00879735 -3.49507e-21)
(-0.0126099 0.0988922 -3.95293e-20)
(1.02266 -0.0166591 0)
(0.947263 -0.0102179 -2.21721e-20)
(1.01338 -0.00507986 0)
(1.01656 -0.00332956 1.96544e-21)
(1.01248 -0.00597517 1.06388e-24)
(1.01902 -7.52013e-05 0)
(0.798172 -0.120381 -3.52811e-20)
(1.05665 -0.00572072 1.36631e-20)
(1.0428 -0.00633674 -7.32276e-21)
(1.02818 0.000335663 -2.52315e-21)
(1.02183 0.00123176 -2.75161e-22)
(1.02097 -0.00196496 7.04653e-22)
(1.02403 -0.000377403 -7.49992e-23)
(1.03008 -0.00235253 0)
(1.01976 -0.00032222 3.36127e-22)
(1.01955 -0.00331341 1.20933e-21)
(-0.0156778 0.0935693 -3.50288e-20)
(1.01423 -0.00371533 0)
(1.02301 -0.00515966 0)
(1.02405 -0.00257058 -2.61619e-23)
(1.02544 -0.00487554 -2.31221e-22)
(1.02409 -0.0025928 2.55769e-23)
(1.06278 0.00406356 3.66544e-21)
(1.02219 -0.00278151 0)
(0.917659 -0.00318268 0)
(1.01681 0.00206305 0)
(1.04858 -0.0212303 1.13122e-20)
(1.02198 -0.00335434 -2.2584e-22)
(0.996681 -0.0142229 -6.18108e-25)
(1.0234 -0.00275574 1.09557e-22)
(1.04435 -0.0225855 0)
(1.02985 -0.00282873 -2.80968e-21)
(0.836854 -0.0997 -1.5376e-20)
(1.02984 -0.000391506 0)
(1.0218 0.000617633 0)
(1.01896 0.00210484 -6.06703e-22)
(0.00188726 0.0622185 -2.02712e-20)
(1.02932 0.00559938 -2.04807e-21)
(1.03762 -0.0111147 2.80795e-21)
(1.06133 -0.0298612 0)
(0.867352 -0.0257646 -2.61391e-20)
(1.00984 0.0119565 0)
(1.04444 -0.0377542 1.73195e-20)
(1.01882 -0.000144549 1.16505e-21)
(1.04348 -0.0105041 -5.00987e-21)
(0.840253 0.00398647 4.00606e-20)
(1.0511 -0.00946533 -2.36716e-21)
(1.04395 0.00327468 4.68716e-21)
(0.692121 0.0228104 0)
(1.02143 0.00079037 0)
(1.01282 -0.00591012 -5.1179e-24)
(1.0236 -4.00194e-06 0)
(1.02941 0.00512129 9.49293e-22)
(1.02423 -0.000468424 5.60197e-22)
(1.04042 0.000458451 0)
(1.01826 0.000180478 0)
(1.02456 -0.00405219 -6.75919e-23)
(1.04429 -0.0121162 5.23215e-21)
(1.02211 -0.000573066 3.70354e-22)
(1.01701 -0.00493014 -1.0664e-21)
(1.02262 0.000712698 6.49421e-23)
(0.880101 -0.0217893 0)
(1.01843 -0.00214764 4.32576e-24)
(1.02071 -0.000828858 0)
(0.83588 0.0127283 2.61198e-21)
(0.667812 0.0196963 7.83244e-21)
(1.03482 -0.00208036 5.49967e-23)
(1.02281 0.00212822 0)
(1.01148 -0.00495493 1.89705e-24)
(0.958307 -0.159679 0)
(0.866539 0.0110877 0)
(1.02887 -0.00728973 1.22414e-21)
(1.0188 0.00225922 7.16529e-22)
(1.02401 -0.00204937 0)
(1.02732 -0.0010799 -1.49959e-23)
(1.00055 -0.0161139 1.50818e-23)
(1.02537 -0.00891086 0)
(1.03086 -0.0111301 -4.17482e-21)
(1.03361 -0.0209028 -7.52342e-22)
(1.02585 0.000825057 -1.43491e-23)
(1.02101 0.00167513 2.15173e-21)
(0.797439 0.164977 2.08387e-21)
(1.02219 -0.00386715 3.1462e-22)
(1.02233 -0.0010315 6.29812e-23)
(1.08375 -0.00239476 3.48104e-21)
(0.977106 -0.0362512 0)
(1.02783 0.000315816 6.72535e-23)
(0.934918 0.108979 2.27e-22)
(1.07497 -0.0024274 5.48156e-21)
(1.02191 -0.0357382 2.6969e-22)
(1.01701 -0.0160124 0)
(1.03066 0.00161247 5.59515e-23)
(1.00708 -0.0147216 3.00377e-21)
(1.01909 -5.2407e-06 2.80127e-22)
(1.02651 0.000394079 -8.66405e-22)
(0.648522 0.165213 2.86109e-21)
(1.0207 -0.000817506 0)
(1.07008 0.0066029 -1.34899e-20)
(1.02128 0.0013833 0)
(1.01864 -0.0165155 0)
(1.02245 -0.00108437 -6.07589e-23)
(1.00857 -0.0106625 0)
(1.02115 0.00142505 0)
(1.06687 -0.0149474 0)
(1.06102 -0.0165284 1.82637e-20)
(0.688001 0.0201426 -4.03856e-21)
(1.03857 0.0050214 0)
(1.03395 -0.0087006 3.00826e-21)
(1.01989 0.00338787 6.71073e-22)
(1.02667 0.00419162 -3.58854e-23)
(1.02287 -0.00997428 -1.00295e-22)