/*--------------------------------*- C++ -*----------------------------------*\
| =========                 |                                                 |
| \\      /  F ield         | OpenFOAM: The Open Source CFD Toolbox           |
|  \\    /   O peration     | Version:  v2012                                 |
|   \\  /    A nd           | Website:  www.openfoam.com                      |
|    \\/     M anipulation  |                                                 |
\*---------------------------------------------------------------------------*/
FoamFile
{
    version     2.0;
    format      ascii;
    class       volScalarField;
    location    "350";
    object      omega_0;
}
// * * * * * * * * * * * * * * * * * * * * * * * * * * * * * * * * * * * * * //

dimensions      [0 0 -1 0 0 0 0];


internalField   nonuniform List<scalar> 
13917
(
5.13654
0.0425942
0.212768
0.0221547
0.0289066
0.0419152
0.0263734
0.0963417
0.0251361
8.93521
0.0822799
0.0217251
0.0242993
1.79253
0.0288621
7.71479
0.0217929
0.0645792
0.101463
8.59839
0.0326891
0.0216891
0.0408439
0.021682
0.0231383
0.0349002
1.87455
11.4805
0.0466432
0.0198385
10.2745
0.0593596
0.0221883
2.96817
0.0213839
0.102798
0.0239517
0.0236043
0.0264587
0.0387036
0.0218883
0.021581
0.0237066
0.0974594
0.0954129
0.122647
0.0312043
4.37064
0.358779
0.0213883
0.0216917
0.108275
15.2003
0.0216371
0.0217167
0.10728
3.82026
0.0404788
0.0214672
0.104958
3.31001
0.0273323
0.0208701
0.0229566
3.07398
0.0586245
0.0528545
0.106321
0.0867651
5.57961
2.89857
3.10453
0.0216943
0.0215015
0.0338665
0.0235937
0.0245423
0.021368
0.0234063
0.0222542
0.0221869
0.0218942
0.0216804
2.84878
0.0211021
1.42985
0.0570383
0.0214923
0.0375623
0.0216447
0.0206072
0.0238581
0.646493
0.0210626
0.022163
0.0521074
2.1059
0.0221631
0.0213337
0.138575
0.0213616
0.021226
0.0222549
0.0213471
0.0243574
2.26713
3.75631
0.0141135
0.0215654
2.15578
0.0214332
2.91539
0.0463277
4.12253
3.08213
0.0239858
0.0955164
0.0207382
0.160397
0.0216275
0.0217077
0.0210235
0.0585953
0.0829328
4.99636
3.03085
0.0227856
0.0355855
0.0211035
0.0850762
0.0309151
0.184342
3.60763
0.0239655
0.069563
2.1475
2.74346
4.66461
0.0371726
0.0233287
1.06554
0.0210969
2.28843
0.0211625
0.0216274
0.0127861
2.85809
0.739819
4.65772
0.0216814
0.0345198
0.0210353
0.0216087
0.021636
2.06909
0.0223856
0.021231
3.62475
0.0214701
0.0209186
0.0211158
2.89567
0.026079
1.07911
4.38924
0.910456
23.2032
4.17627
0.0195286
0.0392456
0.0218201
3.41592
0.0250508
2.73653
0.0660464
0.0211883
0.0221543
0.122682
0.0303988
0.0266084
0.023651
0.0217368
0.0216931
0.180603
0.166399
0.195265
0.0216636
0.19288
0.0199079
0.69244
0.0672735
0.0883195
0.136388
4.89582
0.0210676
4.7271
0.0255652
3.65762
0.0213161
0.0221731
0.0291718
5.43361
6.70805
0.0235762
0.372948
0.0350774
0.0354341
0.0211016
0.118532
0.0222046
0.0208502
0.0370021
0.0398384
4.55644
0.0676846
0.0365145
2.91269
0.0224564
0.0203241
0.0203148
4.11305
0.148927
0.074097
0.0213579
0.0211702
2.11258
6.61311
0.0202775
0.0202645
0.0219528
0.0203372
0.0203296
3.27073
5.36116
0.0218465
0.0195949
0.0686914
3.32029
0.0215054
0.0213465
1.0408
2.21318
0.23077
2.90441
0.092693
0.0211705
4.46265
0.0708779
0.0428656
0.0663477
0.0233447
5.33385
0.0216359
0.0410047
0.0603374
0.0219526
0.0220748
0.0229105
0.0274881
0.0214631
3.58714
0.328187
0.0210156
0.0202645
0.0225623
0.0202713
0.0216419
0.0240815
0.0354578
0.0211039
3.97193
3.37845
0.0214734
0.025271
0.115004
0.020213
0.157291
3.2534
0.0202222
4.23699
0.0213533
2.88059
0.0213689
0.026544
0.0220231
0.0211265
0.141761
0.0225266
1.41569
0.0279926
0.286705
0.00645773
0.243292
4.97999
0.0210488
0.0472406
0.0277683
0.0243003
0.0282303
0.0233515
0.0211456
0.0221779
0.122494
0.316208
0.0396718
0.023216
0.0213235
3.64971
7.99303
0.0210275
0.0170668
0.0243064
0.0590024
0.11383
3.06686
2.63289
0.0835032
0.14876
0.0248649
2.62591
0.1092
0.200858
0.0239712
0.0282049
1.3542
0.0220655
0.0462172
0.0865721
0.0217402
3.4084
0.021095
0.0391426
0.0204268
18.5491
0.0207829
0.0372276
0.0359273
0.0731158
0.0214474
0.067768
1.8549
0.0220634
0.0220776
2.87092
1.89276
2.637
1.73326
0.0202027
0.0218103
2.31939
0.146938
0.0202157
0.0286434
0.021653
0.0586573
0.0382495
0.103597
0.0960029
0.133437
0.0376052
3.26507
0.0211428
0.0220642
0.0300102
0.161083
0.0216911
6.76915
0.0375536
0.300575
0.0217644
0.126421
0.0166889
0.970865
0.0212661
0.141386
0.206653
0.0379798
0.0214928
2.06563
0.0208784
4.41159
0.130151
0.021205
0.789199
0.0223846
0.295576
0.0206742
6.84859
0.292836
0.0234492
2.1405
0.110543
0.0229826
2.9133
0.187272
0.0230413
0.14628
0.021717
0.118012
0.195031
0.0210855
0.0256696
0.0231896
0.0211154
0.0209215
0.0211904
2.85535
0.333543
0.0219004
0.0212549
0.0215331
0.0466737
0.10463
0.0202773
0.0195365
0.110379
0.122787
0.021152
0.023299
2.43586
1.51873
0.108592
0.107391
1.98361
0.0207723
0.0202244
0.0299004
0.0209166
0.02028
0.0219166
0.0202406
0.0206973
4.54463
0.0217673
0.0410691
3.65365
0.0466611
0.0208708
0.0215896
2.89881
0.0293923
6.82754
0.0203946
0.0213348
0.0210732
0.0203524
0.0237817
0.0225882
2.39818
0.017846
2.49357
0.0213285
0.0333609
0.0236802
0.0221156
0.0891287
2.60873
0.0216222
1.44573
0.020904
0.0211493
0.0214791
0.0223951
0.0208107
0.0219576
3.59343
3.15645
0.0207921
0.301979
0.110205
0.0218031
0.0505914
0.0661957
3.33222
0.0264752
2.47928
0.289672
0.293174
0.022591
0.041773
0.0377208
0.0231851
2.5358
0.0207376
0.0215905
0.0221559
0.0253712
0.0320637
0.148847
0.0487033
0.0274183
0.0260106
0.0626711
0.0564011
0.0218904
1.73951
0.0347437
0.0279491
3.93977
0.0210942
0.0586862
0.127174
0.020816
3.42906
0.0212755
0.0203445
0.0476128
0.0203704
0.0221814
0.119534
3.7984
1.90064
0.0211137
0.0223252
0.0215758
2.17603
0.747348
0.0217986
0.0216794
0.0210947
0.0546217
0.533995
0.0211632
0.0215182
0.0220536
0.0210982
0.0267477
0.0279625
0.0209587
0.0491246
0.0208026
0.021573
0.0230503
2.9733
0.0203159
0.0234852
0.0214426
0.0325055
0.0587556
0.0663233
0.0630163
0.266633
0.0227911
0.0621067
3.63288
4.78497
3.3871
0.0209575
0.0214353
0.0221218
0.0214009
3.11644
0.0202373
0.302701
0.0255299
3.40424
0.167102
0.023747
5.43151
0.0207847
0.0556821
0.0219402
0.0224264
3.44003
0.0202883
0.183305
0.0212499
0.0226084
0.0214868
0.147155
0.0267592
0.0202581
0.098681
0.0496651
0.430919
2.63717
3.7536
3.57832
0.0203158
6.11723
0.0204045
2.8668
0.710593
0.022625
0.0265793
0.0212418
0.0341037
0.0234822
0.0203092
0.0219612
0.0240434
2.17803
0.0211611
0.0548923
0.0215548
0.0202455
0.021301
0.178626
2.80865
8.07359
0.0625908
0.0278143
1.42146
3.18625
0.020697
2.61042
0.0238483
0.0877356
0.0213955
1.63646
0.0210784
0.0282907
0.0216484
0.476803
0.0352767
3.04777
0.0210142
0.0342335
0.0213486
0.0214753
3.11293
1.40713
0.0215421
0.111901
0.0213369
0.0221675
0.0212826
2.93904
0.0211657
0.0281904
0.0202285
0.0214418
0.163894
0.0211749
0.102296
0.0220134
0.0208013
3.19436
0.0563028
0.0217406
15.8969
0.175673
0.0930232
0.131084
0.0207672
0.0300182
3.12718
0.200757
0.0289913
0.0239036
0.0321882
0.0218373
0.0211845
0.138882
0.062487
0.0247481
4.16072
0.0358911
0.122004
1.11642
0.348454
0.0357154
0.13199
3.7808
0.0211474
0.0254579
0.171054
0.0208096
0.0212139
0.0212947
0.0279499
0.0222196
5.36447
0.0329808
0.021014
0.0811693
0.0209197
2.98243
0.0213693
0.0211037
3.68568
0.0560665
0.369014
0.0217446
0.0231692
0.0210746
0.0220527
0.0278101
0.0211131
5.5639
0.0297376
0.31498
0.365677
0.00854441
3.78243
0.0223411
0.0218956
0.0214145
3.14079
2.08664
0.0259344
5.51107
0.66821
0.0207948
0.0210638
0.0238483
2.28265
0.355218
0.0359046
0.0220167
0.0235224
0.0909009
0.0242302
0.100335
0.0332219
0.0220895
0.0222767
0.0219361
0.0275778
0.0262338
0.218459
0.0246912
0.0249559
5.38389
0.0193262
0.545379
0.0236404
0.0351561
0.0254385
0.188031
0.0216798
0.0531895
2.79863
0.234165
0.0214249
0.0246603
0.0229817
0.0213265
0.0216371
0.0375465
0.018655
0.212154
0.104727
0.0207424
0.256718
0.0251516
0.0254083
0.117197
0.0218885
0.0553002
2.13959
0.0202609
0.0562282
0.0786009
0.0326986
0.0210136
0.0208375
0.021175
7.25523
0.0221408
0.0214877
0.0382298
0.0211378
0.0209139
0.101697
1.85853
0.0167201
1.52407
0.0525596
2.39508
0.0216424
0.0250031
0.48193
0.0227442
0.081572
0.0215313
0.0211968
0.0217209
0.0251292
0.0733153
0.0210058
0.0778345
0.0218889
0.69986
0.0236408
0.026313
0.0204615
0.0657496
0.0271032
2.80519
0.00488938
0.0218901
3.05605
0.022353
3.81169
0.0232738
0.803536
0.0236693
0.0208919
0.0214121
3.28012
0.0274364
0.0951494
1.41929
0.021319
0.0330148
0.0195795
0.0308406
0.556069
0.019604
4.61251
0.023542
0.892845
0.0915745
0.179465
0.0203927
0.0211462
0.103318
0.0207599
0.0216017
0.0228403
0.0213931
0.0382743
0.0203783
0.928653
0.022103
5.80108
3.91758
0.103145
2.64723
1.51312
7.20226
0.0551813
0.0207311
0.0221536
0.0215386
0.0223518
0.0210986
0.0277076
0.0211987
0.104652
0.0216425
0.510177
0.022073
0.0296788
0.0909048
0.0209962
0.0409291
0.0223621
0.0223117
0.0255865
0.0208683
3.90606
0.0663763
0.126803
0.0210262
0.0214932
0.0219083
0.0219967
3.95285
0.0207533
0.84827
0.0210653
0.292728
0.0261983
0.021176
0.0547289
0.0261356
0.0207653
0.361952
2.60689
0.0240267
0.0685056
0.0207405
0.368933
0.0215035
0.0219685
3.66964
0.0214346
0.0222213
0.0792959
4.01351
0.0237096
0.247932
1.4892
0.0214191
0.0230068
0.0214414
1.52734
0.0214642
0.105006
0.0216411
3.49958
0.0267138
1.26552
0.0212501
0.0201135
0.293364
0.0228036
0.0195816
3.59333
0.0227898
0.0209052
0.162094
0.0211673
0.0221791
0.0618623
0.0229125
3.1089
0.0392158
0.0653457
0.115316
0.0234504
3.37673
0.0223049
0.0589118
0.0213755
3.52183
0.291586
0.0218035
0.0210085
0.0222029
0.0218011
0.0201365
0.0207217
0.0210757
0.0214065
0.0282892
0.0202466
0.0226246
0.061545
4.79882
2.83975
0.074668
0.021902
0.295176
0.0211591
0.245942
0.569582
23.5132
0.0203078
0.0207428
0.0215826
0.0215498
0.0202898
0.0209802
0.0212263
0.0368521
0.0209139
12.0551
0.0734122
0.0209346
3.30939
0.0213859
0.0211982
0.018816
2.8889
0.0637063
0.0211028
0.360288
0.0211992
0.0212049
0.263332
0.022293
1.87062
0.0222971
1.06328
0.0208779
0.0210709
0.0295837
0.0727844
0.0226999
3.01442
0.0436752
0.0227327
0.0232638
0.0214906
0.0208177
0.081168
0.0323321
0.0245627
3.04624
10.8402
0.0590715
0.0852888
0.0210191
3.16996
0.0210247
2.41525
0.056966
0.0258116
0.0225286
1.85701
1.79725
0.112165
0.0176588
0.684526
0.0205577
0.0212035
0.0333876
0.0220355
0.0216154
0.22787
4.16021
0.0211039
0.0267122
3.36736
0.0211077
0.0202257
0.280255
2.90323
0.0222658
0.0205266
0.0260227
0.0215711
0.0211594
0.0394527
0.0256448
0.0215223
0.358063
0.0165592
0.0627095
0.565414
0.0403827
3.43953
0.0217744
0.0220241
0.187366
4.00313
0.278911
0.0216912
0.0306277
0.0219394
0.022319
0.0241222
2.79849
0.0214666
0.0222879
0.0473816
0.0211323
0.234504
0.0630667
0.103591
0.0531558
0.418392
0.363476
2.39111
3.04629
0.0236106
0.394106
0.0202434
0.0534184
0.0708738
0.562196
0.0242511
0.0223314
0.0250821
0.10716
0.0229386
3.26686
0.0334258
0.082385
2.60062
0.0210808
0.0877378
0.0232077
0.0215927
0.0281936
0.0469402
0.0202035
0.0206948
0.0225802
0.741385
0.0209019
0.0228357
0.0234271
0.0222841
0.0215003
0.0927559
0.0611525
0.0222549
0.0209895
0.250644
0.168779
0.038999
3.47104
0.0217998
0.0214358
1.84204
0.0214747
0.0230243
3.07554
3.32182
0.0282704
0.0548603
0.0260535
8.12291
1.42151
0.0309214
2.75395
0.0211158
0.0692765
4.26478
0.170735
0.554094
1.09716
0.0206598
0.0215239
0.0241294
0.0215233
0.0216202
0.229952
0.0214185
0.0409019
0.0204785
0.051604
3.02097
0.0229763
2.293
1.42676
0.0214352
0.067347
0.0261309
0.0226421
0.0213244
3.24199
0.0598491
3.69174
0.0267221
4.01435
0.080759
0.0231749
0.161989
0.0336795
0.0108291
0.0211898
0.16151
0.0213311
0.0250837
0.0344647
0.0253763
0.0219758
0.0491346
0.845045
0.0211292
0.173635
1.08736
0.021606
0.021137
0.0128767
0.22133
0.356276
0.0208321
0.0290001
0.0295937
0.143773
6.79354
0.0215831
0.0207947
0.020653
0.0214962
0.0244192
0.0236771
0.145926
0.0220846
0.0240004
0.116196
0.0314966
0.0730906
2.89246
3.96652
0.0217749
0.0214485
0.0208039
0.0225257
0.0623812
3.87428
0.079885
0.0960922
0.0288003
0.0443088
0.0233739
0.0380645
0.0248306
0.0939584
0.0210641
0.552024
0.0481165
0.0207417
0.0217257
2.89824
0.0443069
0.100155
4.78583
0.117469
0.0210732
0.130191
0.0232082
0.0211348
2.64048
0.345103
0.0210751
0.0283213
0.0903059
0.0321742
0.0221686
0.0203619
0.0211518
0.0208437
0.0213233
0.0286313
0.0501139
4.2546
0.0330399
0.0252825
0.0299304
0.0788116
0.0209551
0.0322207
0.113508
0.181776
4.053
0.0227286
0.0203438
3.40623
0.0208756
0.274721
0.0227192
0.041732
0.0218427
0.0209361
0.269741
0.0257557
0.0226642
0.0214822
1.50811
0.117165
3.22861
0.0217557
0.0215035
1.04422
0.0209685
0.0207612
0.13092
0.388457
0.0261622
0.0317433
0.0221129
0.8565
0.0212338
0.0240657
0.0219743
0.0203277
0.179823
0.0212279
0.0208237
0.245081
0.0527196
0.854976
0.178453
0.0211761
0.0289759
0.0209195
0.0210345
0.0233879
0.0222187
0.0215869
0.168116
0.0215701
0.064547
0.026651
0.0126427
0.0215884
0.0182666
0.0211397
3.29842
0.0202585
0.1207
0.0582253
0.0227119
0.0460863
0.0315295
0.0292167
0.0214847
0.0327192
0.0209132
0.0207373
0.297257
0.0371264
0.0353912
0.0211944
0.0212539
0.0206474
0.0779975
0.0211337
2.89624
0.0413294
0.0211528
0.0212949
0.020592
0.0419743
0.0247284
1.67414
0.0275988
0.234561
0.0157548
0.088016
0.0237371
2.8611
0.020472
0.0202153
0.0244814
0.235333
0.0206186
2.87129
0.0215558
0.0212619
0.13431
0.14338
7.87305
0.0993213
0.0252122
0.145009
0.0364344
0.0206794
2.87816
0.0213951
0.0211919
0.279728
0.0205265
2.88321
0.0662395
0.0210474
0.0214179
0.0207184
3.73708
0.0214486
0.0203576
0.0636568
0.0211815
0.02089
0.022949
0.0206966
0.0402726
0.0216761
0.024108
0.0206854
0.323307
0.0530728
0.0207085
0.0207208
0.0222025
0.0212703
0.023586
0.0218069
0.0212843
0.0216967
0.0212811
0.0223884
0.0214747
0.0633082
0.0205876
0.0656903
0.0216018
0.0487594
0.0208018
0.0215672
0.0211201
0.0203216
0.0348877
0.0261191
0.0247633
1.18889
0.0783684
3.49977
2.87524
0.0695291
2.7545
0.0215569
0.0214536
1.79757
2.36807
0.0206754
3.25183
0.020679
0.104882
0.773623
0.0235007
0.0699105
1.51269
2.09749
0.0211876
0.041397
0.0209513
0.423278
0.0238914
3.05347
7.26675
0.0216746
0.0207756
0.225826
0.0218616
1.92394
0.260099
0.0229882
0.0209245
0.225011
3.23593
0.0206785
0.0302541
0.0218417
1.19247
0.125294
0.0215168
0.0208305
0.0894034
0.0209952
0.0214416
0.0220425
0.0207114
1.34824
0.0293272
0.0275967
3.12303
0.0213287
0.0602953
0.0216877
0.211729
0.0510238
0.420068
0.0207723
0.0268147
0.0207973
0.0215114
0.0235448
0.021457
2.43436
0.0225091
0.0207469
0.0211391
0.289063
0.020925
0.405516
2.27323
0.248966
0.0214831
0.0208906
0.0212318
0.0924791
0.0217478
1.19547
0.021297
2.00202
0.0228614
0.0224218
0.255656
0.0215678
0.0216192
3.30044
0.0939857
2.86029
0.0218453
3.38398
1.43725
0.0215143
3.07423
0.0216541
0.0252967
4.3308
0.0234086
0.0385008
3.82598
0.0288351
0.0566862
0.0215744
0.453018
0.0214209
0.46719
0.0212368
4.27667
0.0214411
0.0214594
0.023387
0.688124
0.0209218
0.0611872
0.0671507
1.40798
0.0212419
0.0280585
3.44028
0.0877555
0.191238
0.0685604
0.0207993
0.0954326
2.02183
0.0238458
1.65504
0.0201416
0.129475
6.43498
0.0209597
6.61367
0.0213083
3.2646
0.868472
0.0235141
0.0236561
0.500089
0.469292
0.0214628
0.0226339
0.0207223
0.0215347
3.08375
0.0595988
0.264848
0.0216115
0.0267514
2.91161
0.022417
0.309547
0.157342
0.0211247
0.0213758
0.163712
2.36988
0.417403
0.745796
0.15799
0.0369802
0.363416
3.36613
3.64974
0.503331
0.0209072
0.0669077
0.0413715
0.0670081
0.0214215
0.025455
0.056328
0.712389
0.42114
0.021279
0.987103
3.10529
0.0397471
0.0214187
0.0214236
0.116826
0.0209251
3.68006
0.0273577
0.0229117
0.19158
0.137177
0.0206988
0.0341254
0.0285768
0.0214494
3.70746
0.0255556
3.85402
0.0209573
2.95574
0.141557
0.167066
0.0203212
0.0257162
0.0293918
1.88573
0.102536
0.0572204
3.10105
2.09544
0.0196259
0.0252023
0.0224906
0.106429
6.63744
0.0206585
0.0206617
0.0225527
0.127224
2.00056
0.0210057
0.0488676
0.182491
0.0209119
0.080901
0.0237366
3.81303
0.0270916
0.411798
1.37878
0.0273365
0.0243096
1.45484
0.0211295
0.0429377
3.36326
0.0244231
0.110664
0.0299987
0.0509644
2.31212
3.34107
0.0215551
1.11156
2.10986
0.0205324
0.113646
0.0566085
0.111376
2.32577
0.269163
0.714291
0.0945114
3.66061
0.0261196
0.0581725
0.0204135
0.0217175
0.0214955
0.0209027
0.261362
1.05202
0.0201974
0.0456374
0.155729
0.021114
0.470675
3.06217
0.0199586
0.0217005
0.0205979
0.0224406
0.0402267
0.0214165
4.10384
0.0284067
0.0627006
0.0256906
0.0648214
0.240596
0.0333979
0.718848
0.0214453
0.0225594
0.020166
0.0209014
3.46383
0.0830824
0.0276107
3.88147
0.0216873
0.0220042
0.0303897
0.0207107
0.0210914
0.0803263
0.0248873
3.28143
0.832009
2.6217
0.0216063
2.27819
0.0212471
0.243398
0.0206765
0.119512
1.89796
0.0212733
0.158918
3.41084
0.0304306
0.0222124
0.0208059
0.0268413
2.56562
0.0206875
0.0217626
0.0222909
0.0237438
0.159966
0.022623
0.0251481
0.0210764
0.0223154
1.69435
0.0324156
0.0236887
0.105334
0.0910702
3.13061
1.15873
0.0230512
0.0223868
3.30002
0.0214356
0.0548476
0.0216314
3.08318
0.0220963
0.0219029
0.0314074
2.84408
0.0213803
0.0207687
0.0204565
0.118556
11.9957
0.104706
0.0214695
0.023682
0.0209094
3.18501
0.021202
1.82211
0.0509986
0.0216746
0.147739
0.0340601
0.195995
0.0220153
0.0207271
0.0291562
0.038393
0.140324
0.0216998
0.0218913
0.0219443
2.84534
0.0215588
0.0223479
3.30414
0.0229108
0.02568
0.0241468
0.021064
0.0212277
0.709214
0.0232191
1.4266
0.282127
0.0199872
1.64114
0.0218394
0.0921466
0.0466545
0.0224145
0.0203702
0.0199604
0.0214061
1.06876
0.0425413
3.34669
3.17817
0.0209314
0.0199641
0.0366692
0.241069
0.0214025
0.377669
3.36322
2.87492
0.0211347
0.0227654
0.0219688
0.0308409
3.42052
0.0227205
0.0214839
0.0290796
4.06918
0.021649
0.0228535
0.0228574
0.103066
0.568459
0.020495
2.89104
0.0290751
0.021408
2.54323
0.0491571
1.58489
1.10812
0.0302778
0.0257354
0.0224977
0.0261958
0.0220528
0.0613012
0.0449764
0.0212755
0.0240091
0.234965
1.19402
0.0206713
0.0977558
2.22768
1.8788
0.0213929
0.0215368
0.3115
1.99951
0.0868064
0.0211293
2.17896
0.0575489
0.0200507
4.27817
0.0264186
0.021681
0.135578
0.021393
0.0376246
0.0208606
0.0198741
0.0215403
0.0204511
3.069
0.0202726
0.0210088
0.0665275
0.0245608
0.0242413
0.114869
0.0214865
0.0214714
0.0227212
0.0223151
0.236
0.231475
0.109626
1.12354
0.0385903
0.619167
0.04214
2.90137
1.92161
3.01977
0.020874
0.029117
0.0214222
0.0215164
0.0209545
0.02236
0.165159
0.0515236
0.0358305
0.0210903
0.021384
0.0496881
0.0217426
0.0218556
0.0214946
3.25222
0.0297959
8.34845
0.021596
0.289927
0.0219526
0.0218282
0.0220972
0.0391559
0.0210401
0.0730344
2.89314
0.0393116
3.4826
0.712322
0.0230602
0.0266686
0.349428
0.100394
0.0203795
0.0209094
0.0199815
3.07372
0.0198517
0.0798876
0.0643819
0.0662377
1.74653
0.979611
0.0550355
3.77102
0.0206937
0.0203767
0.315037
0.93385
0.0214025
0.0215778
1.07077
0.0208892
0.197202
0.0227671
0.0210067
0.024902
0.0215072
0.0622955
2.89408
3.1276
0.0243073
0.0213761
0.0863705
0.0224562
0.0733436
0.0208861
0.119337
0.0793107
0.0218445
0.0216267
0.0200349
0.125931
0.0202567
0.161036
1.71609
0.0286038
2.66334
0.0628804
0.0977741
3.19269
0.0212624
3.04805
0.0222578
3.28799
0.264705
3.31622
3.13323
0.0219537
0.0497403
0.271246
0.0214212
3.89067
0.0214564
0.0214922
0.0252877
0.0220379
0.0291198
0.26541
0.141082
4.11334
0.0253073
0.0376915
0.0224178
0.0218059
0.0216508
0.121978
0.0744629
2.33014
0.0429004
0.0202469
0.0207353
0.0219991
0.185833
0.0238916
0.0223317
0.0245549
0.115819
0.0297943
0.0386389
0.0381673
2.93348
0.0281609
0.0307766
0.0214084
0.0253793
0.125221
0.0510014
0.0438598
0.0207055
2.54482
0.0313427
0.0211028
0.0430813
2.84818
0.416127
0.0310733
0.0208836
3.30584
0.0219042
0.0209209
0.0202922
0.173104
1.92557
0.0230529
2.06667
2.98178
0.0242792
0.0404992
0.0557652
3.83107
0.0292347
3.377
0.0219333
0.0626914
0.0112342
3.52242
0.0315052
0.0208192
2.94665
0.0215283
0.0222395
1.25614
1.11678
0.0834427
0.0990592
0.0239722
0.0225252
2.29488
0.021109
0.0211769
0.0215623
0.0419944
0.021388
0.0311131
0.0244578
0.303885
0.305102
0.0221066
3.7509
0.0241666
2.9055
3.37842
0.0215386
0.0217097
0.0249122
2.11998
0.167618
0.0585667
2.85691
3.15317
2.06937
0.0226644
0.671038
3.64367
0.0198397
0.723163
0.0215723
0.0213056
0.0215777
0.0223865
0.021204
0.0311827
3.13513
0.0322859
0.295822
4.88521
0.259785
2.47355
3.18614
0.0283372
3.58296
0.0933025
0.064469
0.0206373
0.0214686
0.0601271
3.86901
0.0225153
2.80301
3.03075
0.0209128
0.0215818
0.0216401
0.097374
0.0219865
0.0629219
2.98273
0.0206473
0.0213994
0.0208926
0.0221908
0.0866305
2.95239
0.0337104
1.7835
0.0995062
0.0211514
0.264681
0.131164
0.0215814
0.136637
0.248036
2.29374
0.130378
3.34136
0.0213488
1.55139
2.93792
0.132636
2.64301
0.0209462
0.0230764
0.023557
0.0231299
3.0996
0.0593093
0.0216826
0.026441
0.324163
3.00609
0.0224521
0.0173278
3.63252
3.15343
0.0216949
0.0269608
0.0942453
0.0213159
0.021406
1.49489
0.0211058
0.212718
0.272496
3.15881
0.0210227
0.0826701
0.130686
0.0210743
0.0201107
1.64375
0.741283
0.0219066
0.0339642
0.143661
0.175649
3.4795
1.63936
0.0251045
0.25941
0.35547
0.033018
0.0211006
0.072298
0.0204071
0.0201944
3.31275
0.0356243
0.0831903
0.0239576
0.0270578
0.020926
0.020448
0.0220619
0.0222532
2.43324
0.0237724
0.970179
5.46861
0.0421132
0.0604741
2.53928
3.43212
2.45311
0.0210672
0.0243437
0.0337206
0.0248739
0.185565
0.342149
0.022047
1.18525
3.17726
0.0258143
0.0792358
0.0638365
0.0871078
0.0959554
0.0225749
0.106875
0.117801
0.132149
0.149363
0.100233
0.0724452
0.0266958
0.0209902
0.0310609
0.0781119
0.0210616
0.187157
3.68568
0.197933
2.89702
0.0200665
0.0206921
0.0729799
2.92683
0.0221838
0.0236489
0.0571982
3.65514
1.09071
0.0214562
0.0303073
0.0246877
4.17756
0.312897
0.0237618
0.260882
2.98088
0.0876924
3.26505
0.0847106
0.359309
3.60727
0.0195362
3.62657
3.06893
0.02236
0.0649306
0.0908679
0.0253588
0.0208601
2.10138
0.38651
0.0208332
0.0208824
2.29674
0.10291
0.0740437
0.0216951
0.220955
0.115428
3.00743
3.56118
0.021562
0.0213693
0.0221358
0.022758
3.31573
1.11354
2.97327
0.0724307
0.265838
0.575137
0.0227309
0.020885
3.03843
0.0209011
3.48156
0.020978
3.25892
0.0224139
0.0222828
0.69595
0.0214745
0.0982075
0.416445
0.0239464
0.0233732
0.0225077
0.162189
3.28524
0.130016
2.93164
0.0239288
0.022515
0.026916
0.0704513
3.7964
3.74125
0.0916702
0.184124
0.109628
2.72919
0.0195805
0.0208637
0.0206634
0.0206533
0.117769
0.0659805
0.409192
0.0390471
0.133669
0.0210921
0.315617
2.01218
4.43158
0.0214588
0.0226497
0.0198903
2.91407
0.0584666
0.645775
0.118164
0.105612
0.256997
0.0200083
0.0344234
0.125763
0.117321
0.101678
0.0214797
0.117871
0.0219394
0.0218325
0.123643
1.14756
0.148274
0.0217492
0.082782
0.177176
2.409
5.09989
3.31448
3.19581
0.0209892
0.0552018
0.0215498
0.123644
0.0211404
0.102787
0.0230189
0.0440088
0.263731
0.447772
0.0233246
0.202811
3.04217
0.106349
0.023333
1.32723
0.0963219
0.0221791
0.0221789
3.13043
0.0277719
0.121014
0.121103
0.404551
4.23094
0.0231493
3.00883
2.88914
1.1146
1.98554
0.0302657
0.0938426
0.0844949
3.26009
0.0843283
0.0220714
0.630323
0.065842
0.286678
0.0266537
4.40802
0.171143
0.526787
0.0255236
0.724985
0.0237805
3.12125
0.12835
1.85715
7.3136
0.0209301
0.0198681
3.04559
3.57324
0.0381187
0.0219947
0.0406205
0.0309112
3.00544
0.0679889
3.09481
0.0253513
3.15288
0.114932
0.871136
0.0220278
0.0897984
3.81638
0.0237579
0.0754853
0.0200573
0.0239279
0.021604
0.259651
0.0211678
0.0216035
3.55885
1.99746
0.0206122
3.6958
0.0222361
0.0214621
0.0212885
0.0208943
0.0217176
0.13124
3.47152
0.020613
1.89839
0.0591773
0.0436331
1.55089
0.0751643
0.0249416
0.0302607
0.0212878
0.26328
0.0296512
3.73778
0.0243106
2.87638
0.34359
0.0643127
0.137917
3.22456
0.0207737
3.52158
0.0514743
0.0559199
0.0413626
0.0211425
0.0602198
0.162268
0.0215646
0.0575797
0.0213974
3.2281
0.127687
2.286
0.156671
0.15081
3.50914
0.0215387
0.0211398
0.0536836
0.0227335
0.0217088
0.0217377
0.0263718
0.0210654
0.0211871
0.0224954
0.0400951
0.0230018
0.0263727
0.0227801
0.0374184
0.0906594
0.0233026
3.306
0.0230762
0.0212394
0.0824247
0.0388553
0.0227687
0.0210529
1.94559
0.0231646
3.1147
0.0234123
0.100947
0.0212931
0.0213734
0.280741
3.70736
0.0619893
0.0329489
0.0201473
3.02854
0.0216258
0.0211515
0.0668913
0.0236793
0.134794
3.01778
0.0861648
1.9877
0.0400616
4.3024
0.0214493
0.0215994
0.0605899
0.258274
0.051741
0.0895395
3.50944
0.0265871
0.0215511
0.0270609
0.212977
0.0503613
0.0215844
0.0908289
0.0875175
0.0565196
0.0217186
0.0216183
0.169568
0.0577755
0.113231
0.60035
0.023546
0.060302
0.0216932
0.0408647
1.76679
0.0216574
0.142734
0.0362611
0.0758459
0.753575
0.0215297
0.0213309
0.0212413
3.53537
0.175537
0.0232469
0.114886
0.100376
0.0216704
0.0213783
0.193031
3.64721
0.189768
3.07444
0.141654
0.0291766
0.113073
0.111169
0.0289962
0.680483
0.0789496
0.705835
0.0215041
0.0883362
0.123061
0.0222764
1.82853
0.0382357
0.101406
0.0262635
0.13896
0.0210707
3.81676
0.0241034
0.0207634
0.0209208
0.0207326
0.022491
0.022321
0.0208633
0.0237339
0.021577
0.0222219
0.260578
0.068743
0.0221019
0.0577472
0.0242101
0.0140908
0.0204065
0.0415498
0.0274283
1.52807
0.0215482
0.0215675
0.0671551
0.208276
0.0215737
0.0215266
0.103838
0.0233031
0.086728
0.0549624
0.0215236
4.53473
0.0234666
0.0222124
0.086037
3.81984
0.0221548
0.0537869
0.0208444
0.0252023
0.0213169
0.0262786
0.0211735
0.0215833
0.0450175
0.0540483
12.9775
0.0479154
0.0214825
0.0274655
3.27897
0.0496543
0.162547
0.088702
0.0216133
0.0515817
0.268068
0.159068
1.5502
0.0252787
3.29283
0.354213
0.0289206
0.0216783
0.0748325
0.0221766
0.0510921
2.98652
0.0215224
0.692305
0.0217502
2.8376
0.0499464
0.0222838
0.0544461
2.89799
0.52052
0.0235657
0.0656254
0.0293227
0.0205864
1.1363
0.0205014
0.0318717
0.0210829
0.0247667
3.01213
0.0631335
0.0205444
0.0286815
0.126256
0.0215127
0.0218522
0.0274954
0.025146
0.0214324
0.023456
0.0243051
0.0219681
0.0210725
0.0545455
0.0939314
0.159301
0.0210212
0.0508947
2.97194
4.08597
0.0212794
0.0215568
0.0247132
0.0802319
0.0221022
0.0210447
0.0211989
0.020858
0.0258337
0.0267976
0.0243055
0.0585995
0.023106
0.0204225
0.0231024
0.0550992
0.0442936
0.0994558
0.0221046
0.0275943
3.16136
0.0285959
0.0242988
4.04903
3.13576
0.0905902
0.059698
0.150908
0.0213229
0.338539
0.0267401
4.43858
0.0214036
0.0212214
0.147393
0.0207508
0.270921
2.29328
0.0219419
12.0594
0.0298943
0.0307114
0.0261405
0.0711343
0.0283723
0.0257632
1.55056
0.0208613
0.0238726
3.47738
0.0228362
0.0214159
0.029396
3.09786
0.0221322
0.0221388
3.10389
0.0234945
0.0260183
0.0515422
0.0202879
9.65833
0.0237405
0.0222555
0.116415
0.0526668
3.02895
0.0232109
0.137089
0.0321765
0.0815566
2.26322
0.0215159
0.0314242
0.0828633
0.0221008
0.253099
0.0221603
0.0229647
2.94106
0.0223327
0.03886
0.0805406
0.720197
0.0288795
0.0260122
0.0222293
0.02359
0.0811823
0.024115
0.0295473
0.0731651
0.0480301
0.0216214
3.33093
0.0358929
0.0204317
0.0226841
0.021231
0.020748
0.020283
0.0215383
0.0214848
0.0289115
0.0235859
0.0440305
0.0202036
0.0203872
0.0111255
0.0706832
0.0207299
0.0310931
0.0649152
0.028055
0.0293083
0.0213752
0.0230053
0.023921
0.0359208
0.0283543
0.0241586
2.78902
0.0216751
1.67321
0.0243961
0.0808626
0.103368
0.0215031
0.0527922
0.0300887
3.07156
2.9286
0.0249557
0.0217044
0.0233237
0.0287214
0.04384
0.0215415
0.066987
0.0501336
0.0112902
0.0572855
0.052234
0.0621972
0.0280606
0.189301
0.087286
0.0269376
0.513149
0.0230915
0.114682
0.0223559
0.0212511
0.0737549
0.0754587
0.0213888
0.05124
0.0214335
0.0216262
0.0214303
0.0219743
0.0214569
0.0213997
0.0213846
0.0221248
0.149936
0.0222925
0.0213443
0.0223745
0.0224213
0.164072
2.87087
0.0622678
0.023814
3.25354
0.0214159
0.0213557
0.705565
0.0310482
0.0219956
0.0221699
0.0216184
0.180619
0.0217289
0.0251228
0.0222339
0.0321736
3.6273
0.0214441
0.0584147
0.0575945
0.0247262
0.0430407
0.0206538
0.0216588
0.0642275
1.68977
0.0230545
0.0342142
0.490918
0.0807
0.0207935
2.18903
0.0225574
0.0196202
0.0619601
3.44878
0.0214143
0.0207093
0.0229039
0.0283685
0.0321944
0.0214149
0.0223051
0.0380537
0.021654
0.0278609
0.0252968
1.41918
0.0204202
2.85579
0.139343
0.0421584
0.0212938
0.083896
0.0210073
0.0231884
0.0215451
0.0519703
0.0201688
0.0201516
0.0403621
0.0598748
0.0963699
0.0218591
0.0200666
0.0230252
0.0207893
2.84974
0.0232096
0.0226329
0.0220642
0.0589814
0.0436889
0.0232954
0.022965
0.0410577
0.0216302
0.0214973
0.0231861
0.0220639
1.76605
0.0211483
0.031204
0.0219348
0.0215035
0.0464855
0.0825881
2.92543
0.0214289
0.058856
0.416146
2.95902
3.22273
0.0286806
0.0214861
0.0241463
0.0290636
2.28788
0.0218153
0.0247641
0.0265169
0.0297752
0.0202273
0.0481153
0.0427202
0.913249
0.022031
0.0216538
0.0890477
1.07265
0.0201058
0.0241916
0.0318312
0.0199591
0.0223839
0.0421199
0.0197877
0.0214405
0.0216815
0.0240601
0.0724431
0.0354944
0.0223873
0.0205835
0.022106
0.162537
0.0198361
0.0208164
0.0253817
0.0780823
0.0251625
4.26432
0.0240723
0.0214272
0.0215095
0.0228856
0.0212008
0.0318221
0.0503852
0.0208714
0.0209998
0.0219617
0.0212907
0.0220169
0.0447181
2.58193
0.022576
0.0889386
0.0233302
0.021302
0.239894
0.0232623
3.47548
0.0217557
0.0217087
0.0207176
0.0214645
0.0224454
0.0294089
0.0412663
2.09297
0.0277695
0.0490963
0.0217314
0.0382525
0.021427
0.0231739
0.0319431
2.48907
3.04421
0.0217986
3.19918
0.653408
0.039555
1.89553
0.0198087
0.0214027
0.0216318
0.0227527
2.75319
0.0207501
0.0644351
0.14753
0.0223143
0.0773007
0.0199536
0.03057
0.347769
0.746983
0.021773
0.284315
0.108109
0.137356
0.0257413
3.44372
0.0224592
1.92795
0.0994431
0.0204065
0.0415278
0.030144
0.0233719
0.410081
0.0295914
0.0209136
0.0207681
0.10077
0.0216994
0.058618
0.021546
0.0198073
0.0230262
0.0312385
0.0215231
0.0760887
0.0266514
0.0238121
0.0198632
0.0214682
0.518292
0.0808432
0.149749
0.0325974
0.0246444
0.0280423
0.0254226
0.0214033
0.0225675
0.0327419
0.0229683
0.0238693
0.0203843
0.0254655
2.90556
0.0219379
0.110273
0.130221
0.021528
0.0216346
0.0202443
0.0277883
0.0356958
0.0200817
0.0251167
0.0228209
0.0219024
0.0210994
0.0219992
0.0212319
0.02157
0.251434
0.0218557
0.0265585
0.0214456
0.155784
0.660773
0.0214324
0.301689
0.0215871
0.0236413
0.0288323
0.342666
0.0282697
0.0209978
0.0213069
0.0365885
0.0407399
0.140194
0.0226252
0.0475761
0.118121
0.0219098
0.0214572
0.843327
0.0498274
0.0302721
0.02165
0.0228827
0.0225502