/*--------------------------------*- C++ -*----------------------------------*\
| =========                 |                                                 |
| \\      /  F ield         | OpenFOAM: The Open Source CFD Toolbox           |
|  \\    /   O peration     | Version:  v2012                                 |
|   \\  /    A nd           | Website:  www.openfoam.com                      |
|    \\/     M anipulation  |                                                 |
\*---------------------------------------------------------------------------*/
FoamFile
{
    version     2.0;
    format      ascii;
    class       volScalarField;
    location    "250";
    object      ddt0(k);
}
// * * * * * * * * * * * * * * * * * * * * * * * * * * * * * * * * * * * * * //

dimensions      [0 2 -3 0 0 0 0];


internalField   nonuniform List<scalar> 
13749
(
5.31005e-10
1.97301e-06
-1.03208e-08
-5.60554e-07
-1.03767e-06
-2.51838e-07
-3.20989e-06
1.70426e-07
-1.00579e-08
-6.79782e-07
6.04804e-07
1.06722e-09
8.74496e-07
6.31765e-05
0.000275777
1.42795e-07
-3.37128e-08
9.05697e-06
1.51346e-09
1.22529e-09
-2.04009e-05
0.000211415
0.00293937
-8.01884e-07
-1.24549e-06
4.51858e-07
-1.54172e-06
-4.07493e-07
-3.46475e-09
3.27263e-08
0.000135483
-1.06178e-05
3.57829e-07
2.26829e-07
-7.05496e-09
3.73924e-09
-1.52278e-08
7.12585e-08
2.99321e-07
7.04567e-07
-2.11327e-06
4.96438e-05
-1.20905e-07
-1.24989e-06
4.49792e-06
5.22547e-07
-1.38325e-08
1.20523e-06
-9.24227e-09
2.85652e-05
-1.51908e-07
-2.13799e-05
9.02439e-07
1.16052e-05
-1.59302e-06
-7.10222e-09
-3.69166e-07
5.37587e-07
4.0375e-08
0.00363708
-4.67756e-08
-4.62133e-07
-9.71961e-05
3.46756e-09
-3.97898e-08
-5.61809e-08
8.03456e-08
-1.57926e-09
-7.64441e-08
7.90403e-08
-3.13107e-06
-1.10205e-11
-0.0157313
2.85806e-08
5.07175e-07
-6.33043e-06
-1.54614e-07
8.02849e-08
3.79709e-07
5.25559e-11
-2.03934e-09
4.62726e-07
-5.40289e-07
-2.66005e-09
-4.70078e-07
-1.4293e-06
0.000283387
-1.01619e-05
-3.24185e-08
2.3381e-06
-3.68524e-11
6.44252e-05
2.49268e-07
0.136884
-1.6646e-05
-9.29119e-07
7.2445e-07
-2.15954e-09
1.33056e-10
1.40931e-07
9.25984e-05
5.18981e-09
-2.6286e-07
0.000110835
-2.25508e-10
0.000112063
-9.60896e-07
-4.27058e-08
-1.20331e-07
5.54076e-09
-2.01897e-09
-1.50355e-07
-9.74744e-07
-0.000202604
0.000106217
1.32318e-07
6.92003e-10
-1.29613e-06
-5.19097e-07
3.33888e-08
1.48821e-07
1.33599e-11
-1.01059e-09
7.75226e-09
1.0031e-06
-1.46966e-05
1.84032e-06
-0.000340512
-2.31331e-07
-0.0024001
1.35685e-06
-0.000251526
1.07447e-05
-0.000160706
4.49584e-07
-4.81929e-08
-1.77011e-06
1.71586e-08
-4.2278e-10
1.7772e-05
7.90565e-07
-6.24524e-07
4.13436e-07
-1.30557e-05
-7.86369e-11
1.30742e-05
1.15042e-06
3.43975e-07
7.26637e-08
3.04513e-06
-8.95968e-11
4.19737e-07
4.12212e-05
0.000479739
4.29435e-08
-3.24659e-05
-3.42178e-07
1.61752e-08
2.54608e-06
2.62605e-08
-0.00220152
4.7012e-11
-8.77248e-05
-3.3116e-07
2.98913e-09
-2.20204e-08
-6.82246e-05
-6.185e-09
2.63238e-07
7.89693e-07
3.19519e-07
5.35708e-09
7.13417e-09
-3.01381e-07
1.90142e-07
-1.60509e-06
-1.35252e-06
1.92467e-07
-0.000309092
-0.000104029
-3.50472e-11
3.75178e-07
-1.08867e-06
-1.21926e-05
0.00161609
-3.07624e-09
2.68276e-05
2.01393e-08
-0.0111397
-1.18789e-07
-1.11659e-06
0.000513977
-2.43302e-07
-4.35976e-06
8.28238e-05
-2.14144e-06
1.71346e-06
7.47156e-07
-1.80706e-10
-6.63908e-07
-2.43538e-08
1.01227e-06
-1.18444e-06
1.5193e-08
-3.31603e-05
-3.25948e-08
-1.66247e-08
-8.70896e-06
-0.000694515
1.00239e-06
2.67754e-07
-0.000693259
4.43053e-05
-1.03912e-06
-1.2894e-06
3.43839e-06
-2.51221e-06
-2.58447e-07
-4.31691e-05
-1.17219e-08
0.00857759
9.40777e-10
-5.36305e-06
-0.00169674
2.09335e-07
0.00103241
-2.38759e-08
1.37143e-06
-2.39621e-06
-0.00147022
-1.10807e-08
-2.12813e-12
-4.61471e-11
-9.70008e-11
-0.000233301
3.36503e-07
-2.72601e-06
0.000354374
1.84997e-09
-2.95651e-08
5.63946e-07
0.00132569
-0.00546513
-3.04e-06
-2.32119e-06
0.000157321
-4.66693e-08
-1.88392e-05
6.58217e-07
2.94136e-09
1.5653e-05
-1.93153e-07
-2.43514e-11
3.92224e-07
6.16539e-07
1.50216e-07
9.72158e-09
-8.74535e-05
-6.7491e-07
-1.63579e-05
3.77357e-09
2.33117e-07
3.96539e-07
-4.89725e-08
-5.69105e-08
-1.81223e-06
5.35376e-05
-2.623e-07
2.24788e-07
1.17949e-06
-3.32975e-09
4.43952e-05
6.40006e-07
-9.26973e-05
-2.2002e-07
2.21997e-05
8.11461e-06
5.43111e-07
1.06883e-06
-2.91988e-07
-4.23236e-08
3.57981e-10
7.34677e-05
-9.40189e-05
-3.4449e-07
2.29464e-08
-6.12567e-07
4.68243e-08
-0.0019672
-1.26234e-06
-4.681e-05
-1.80602e-08
-3.64643e-05
4.83636e-07
-6.17117e-05
-0.000849912
1.25914e-09
9.65293e-10
-3.0693e-07
4.97449e-10
-6.27224e-09
-3.04485e-08
-5.74483e-08
1.1664e-05
1.98683e-07
4.61796e-09
-2.72779e-08
-4.14677e-09
2.76062e-08
-1.14054e-06
3.5142e-05
-2.71525e-07
2.2971e-07
-0.000124515
-3.77225e-09
-6.67205e-07
-2.70561e-07
-0.000270643
1.59222e-08
5.97665e-07
-1.00239e-05
3.83207e-05
-1.08279e-06
1.20286e-11
2.04229e-05
8.31247e-11
-1.15554e-08
-3.05929e-09
-9.56446e-10
8.78053e-08
-4.12064e-09
2.53521e-09
1.0572e-08
-9.32194e-07
2.64449e-07
6.43781e-08
3.30237e-09
-1.62973e-06
2.39735e-08
-3.77952e-07
2.10348e-10
0.000100605
7.96328e-08
0.000146582
3.7798e-06
-6.29723e-08
1.2287e-07
-1.0796e-07
-3.76202e-08
-1.21156e-08
-5.32889e-08
-1.08207e-08
-0.000142962
0.00527687
-8.98195e-08
-1.07342e-08
9.39258e-07
0.000164138
1.44741e-06
6.6909e-06
-1.09961e-08
-4.49158e-11
-3.00806e-08
-9.36732e-05
2.36954e-06
4.12724e-08
4.92524e-07
0.000109649
6.53468e-05
-2.38678e-09
-9.85518e-05
-7.04168e-07
-1.62139e-07
8.28591e-11
-5.33449e-09
3.15483e-08
-2.73547e-06
-1.37511e-05
-1.23356e-05
-2.28956e-07
2.21011e-10
5.32005e-09
0.000212741
-1.52642e-07
2.48572e-10
3.08079e-10
-2.22872e-05
-7.41939e-08
4.0986e-08
1.58967e-07
2.32709e-05
9.25712e-05
-4.41847e-05
9.83317e-09
3.86401e-08
0.000666785
0.000155956
-8.95486e-05
-5.7028e-06
-0.0008493
8.84259e-11
1.16923e-06
2.69618e-11
-8.01758e-06
-1.4471e-08
-4.08659e-07
0.00734158
-4.62567e-06
2.87585e-06
-9.37786e-08
6.35625e-08
-7.10897e-07
-1.13456e-05
-0.000151558
-2.55458e-06
-3.45643e-10
-0.000259113
-0.000233965
4.32851e-07
3.15388e-08
1.07968e-07
9.19412e-08
0.00506375
1.29547e-07
-0.000125435
5.32062e-09
3.72655e-07
-0.00113896
6.73633e-05
-1.66243e-06
-5.6292e-05
7.95252e-11
-1.76657e-08
-5.78911e-07
-0.000105636
-3.95585e-08
-1.38545e-07
-1.6855e-07
2.32708e-09
-5.28435e-05
-1.65391e-08
-5.6965e-09
-5.28766e-10
-6.5813e-07
-4.06486e-07
-5.96325e-09
-1.71248e-09
8.52753e-07
3.35911e-06
-6.98921e-06
-0.000860119
6.4291e-07
-0.00128228
-1.78676e-08
-0.000219554
-8.45622e-09
-7.20785e-07
6.54355e-07
0.000925595
-6.38404e-10
-7.0789e-11
5.38598e-10
3.91835e-07
0.000126051
3.24151e-07
4.48622e-07
-3.2161e-06
6.0871e-05
-0.000485677
-9.42547e-08
-0.00117243
1.82553e-09
-2.4572e-05
1.10632e-05
-6.55583e-08
5.42248e-08
-2.39055e-06
1.70978e-06
1.05037e-08
-5.55089e-08
-5.30044e-07
1.81084e-08
-1.06472e-08
-3.6718e-05
4.71383e-05
0.00123232
-0.000114999
-0.000106297
1.02686e-07
-1.08437e-06
-1.37988e-07
5.12361e-08
2.96456e-10
-6.13683e-09
-7.30949e-09
2.15747e-07
-0.000118828
-5.18256e-08
-0.000330121
-6.92176e-09
7.23589e-08
0.000609817
3.01871e-07
-0.00047287
-1.77413e-07
7.23725e-05
-1.25212e-06
-7.60035e-06
1.85831e-08
1.67146e-10
9.26846e-11
-4.71217e-08
1.8291e-08
3.56089e-05
3.93658e-07
-0.000110172
-3.45022e-07
0.000211414
-2.65561e-07
-1.79992e-09
0.000806194
0.00267877
-5.24037e-08
-2.40377e-06
3.86775e-08
3.32754e-08
-6.51533e-10
-1.58065e-07
3.49342e-07
-3.44388e-06
4.28312e-09
-2.47749e-05
3.91957e-07
7.03258e-07
6.77616e-07
1.15831e-06
2.60293e-09
-0.000389624
-5.34921e-05
-0.000230638
-0.000411773
0.000103529
-2.44348e-06
-9.59686e-06
2.23883e-05
4.06259e-07
-7.10096e-08
-0.00011197
0.000114603
0.00268801
-1.61817e-07
-7.99736e-08
-4.28519e-08
5.57377e-07
-1.80534e-06
-1.37844e-07
7.38948e-09
3.97441e-07
5.24336e-08
0.000106184
-0.00035257
-1.01612e-09
2.64693e-09
-0.000246116
-1.12881e-07
0.000109687
-2.73171e-09
-5.53231e-10
-8.95285e-08
2.35715e-05
1.60131e-10
0.000236502
-0.000109487
4.55511e-11
-5.53172e-08
-4.45025e-08
-0.000152922
6.28796e-05
2.24083e-06
3.60099e-07
-2.59699e-07
3.78955e-06
3.57706e-05
9.26665e-07
8.7158e-07
-6.96303e-10
0.00602197
-0.00169731
5.29599e-09
2.59195e-09
-8.00166e-07
1.87574e-07
-6.42347e-07
-7.78732e-07
0.000524204
-0.00069857
5.63946e-08
3.30794e-05
-0.000168571
1.27693e-07
3.14583e-07
0.00113301
5.04081e-05
-2.88055e-05
5.00451e-05
1.35287e-07
-4.83108e-08
-0.000199582
3.0465e-05
-1.02581e-09
2.21191e-08
-6.93013e-08
-1.80582e-10
-0.000112507
1.17572e-06
1.83041e-06
-6.32684e-07
1.05158e-06
3.04465e-10
5.13059e-07
1.99962e-05
-6.16254e-08
2.57883e-05
3.23314e-08
-4.26296e-06
0.00011479
-3.24468e-10
0.000421733
-2.35463e-07
-3.5179e-08
-0.00176759
1.43614e-08
1.68512e-06
-5.59227e-08
-8.18641e-07
-1.2908e-09
4.39781e-07
8.28715e-08
-4.49921e-05
-8.86135e-08
1.33828e-08
-6.31221e-09
-6.35827e-08
2.85613e-05
4.55464e-07
1.11431e-07
1.08739e-06
-1.39714e-08
-3.15374e-06
9.38507e-05
6.53109e-09
-8.95943e-07
4.52307e-07
-8.51511e-09
-4.15795e-11
-1.70006e-07
0.000266684
-2.21091e-05
4.73367e-07
-2.91479e-10
2.18283e-08
-6.75651e-06
-8.83806e-11
-2.14995e-05
1.81279e-10
7.15139e-05
8.89381e-08
1.23272e-07
3.8432e-10
2.03751e-08
-0.00029994
4.64343e-06
0.000152025
-3.76315e-09
-4.96939e-08
4.07034e-05
-1.54274e-07
-2.18854e-07
-8.43457e-05
-2.53722e-07
1.20054e-05
-4.00767e-11
-0.0134594
-9.0562e-07
8.41799e-09
1.36289e-09
-2.61234e-06
-4.7342e-06
-4.7378e-09
2.29093e-05
2.71784e-05
8.65053e-07
2.04105e-07
5.98553e-08
5.40225e-09
-0.000102958
-4.53465e-07
6.65813e-10
3.52223e-07
5.98227e-08
5.53368e-07
-1.28379e-08
5.26514e-08
-5.22184e-08
-1.89083e-09
-2.52161e-07
1.10839e-06
-6.84825e-05
1.35376e-07
-3.66776e-06
-3.72264e-07
-8.21322e-08
-1.5769e-05
1.2266e-06
6.01986e-07
0.000847633
2.32875e-06
-4.75242e-10
4.66833e-05
8.40573e-07
-1.65466e-07
1.23399e-06
-6.06499e-08
1.20576e-05
5.84443e-11
-4.1849e-06
7.19812e-05
2.83058e-08
-3.03538e-07
6.61269e-06
5.32595e-08
-0.000134041
2.07856e-05
-0.000490613
-0.00257084
7.49808e-06
-2.88915e-08
-2.29622e-07
1.11815e-07
-8.36496e-08
-4.51179e-05
-2.87257e-09
-1.03699e-06
-3.51382e-09
-0.000162796
-3.29124e-09
-1.21184e-07
-3.25302e-08
4.57383e-07
-1.19e-07
0.000245204
-5.30777e-06
1.95158e-08
-3.55348e-09
3.47846e-06
0.0337396
-1.34912e-07
1.41878e-08
2.55617e-08
1.38746e-06
-2.04899e-08
-0.000806317
1.60282e-09
-3.81751e-07
0.000692912
-0.00027504
-3.75334e-11
-1.2549e-07
8.30998e-11
8.46148e-07
-0.00390888
-9.57845e-05
0.000223736
3.17134e-07
2.38045e-07
0.000202949
-6.72286e-08
-8.90871e-07
7.20529e-06
-9.54173e-07
4.23661e-08
-7.87828e-07
0.000801382
-2.87871e-10
0.00288202
1.68239e-07
0.000103365
1.4396e-08
8.35387e-05
1.89604e-05
-0.00021515
-3.71875e-06
-1.80313e-06
-7.06748e-07
7.47514e-05
3.83407e-08
1.23644e-06
-2.59302e-09
5.19703e-05
-6.12251e-09
0.00440689
7.21011e-06
-1.29234e-06
-4.56505e-08
-8.36896e-08
0.000247312
3.80011e-08
9.66066e-10
1.07308e-08
-0.000731937
1.56557e-06
-4.18151e-06
2.99793e-06
8.86265e-05
1.33506e-07
1.40779e-05
-2.40246e-06
-0.0261118
4.8184e-07
-2.97852e-06
-1.80461e-07
-0.000173802
6.20225e-10
7.58929e-07
1.54045e-06
1.05465e-08
0.000155211
-0.000258972
-8.04609e-05
0.000223847
1.61905e-05
-0.000791446
-6.06502e-08
0.000532161
7.15817e-11
-0.000531849
3.66495e-05
-1.73716e-08
2.3945e-06
-6.86556e-06
1.02266e-05
-1.11341e-10
1.1344e-06
-9.51975e-06
-1.07827e-08
-1.99739e-07
1.21245e-09
6.04737e-09
-2.79558e-10
-5.15933e-05
-9.40386e-11
-5.30162e-08
-7.19623e-06
9.49152e-09
5.37662e-07
1.69352e-08
1.13017e-06
-1.3281e-09
5.45295e-06
2.17763e-10
4.71402e-06
-0.000105352
5.22081e-06
-4.73041e-06
-3.85263e-07
0.000122409
1.28557e-05
7.6649e-05
1.0339e-06
-8.2523e-10
8.34502e-05
4.66023e-07
-1.68628e-05
5.13337e-07
-0.000130718
-0.00108472
3.24373e-07
-3.42448e-12
7.1841e-08
-8.21427e-06
-6.35827e-07
0.000263883
-4.6171e-07
7.03135e-05
5.67047e-07
-3.66121e-06
-0.000311255
-4.8861e-09
0.000269854
-2.2164e-05
2.03676e-09
-1.79512e-07
-0.000207018
2.32165e-07
-5.86511e-06
-2.12325e-05
6.09589e-10
9.85358e-07
5.70677e-07
-3.63215e-07
-7.21709e-08
1.37788e-09
1.38752e-11
-9.875e-07
-0.000156706
-7.04391e-08
4.94858e-09
2.74397e-07
-0.000668478
2.68754e-06
-1.35278e-09
2.55511e-08
-6.06779e-08
-1.89435e-09
-9.23197e-08
-1.16945e-06
-1.73182e-07
5.17566e-06
0.000887088
-4.7048e-07
9.90813e-06
-1.44702e-07
2.31345e-10
1.15361e-07
-0.00132416
1.99126e-06
-1.84681e-06
-0.000432776
-4.6933e-11
3.28398e-05
7.41936e-07
-1.15271e-06
-2.7041e-09
-2.64569e-05
1.68355e-07
-7.0426e-10
2.53445e-07
2.08471e-07
-9.75873e-08
5.56303e-07
9.79155e-07
5.05774e-10
0.000388811
-2.9594e-11
4.43321e-05
9.48726e-06
1.50167e-09
0.000214915
-3.12619e-10
3.30251e-08
1.06764e-07
-5.41851e-13
1.50225e-07
-3.75916e-09
7.04812e-08
1.11329e-08
9.11076e-10
1.38556e-07
2.4377e-06
-0.000107411
-4.86276e-08
-1.57778e-05
-6.4067e-13
7.9344e-08
1.3936e-07
-2.04972e-07
6.49845e-06
5.81865e-05
-0.000101785
5.4397e-08
2.27384e-08
0.000101081
4.13015e-08
-9.39804e-10
-1.99563e-06
2.71792e-09
6.59761e-08
4.27344e-05
3.83917e-06
-1.52237e-09
3.2074e-06
-8.14483e-05
-1.15556e-07
9.02936e-06
-3.24217e-08
0.000122377
9.56284e-07
-1.97114e-07
8.24864e-07
-0.00303064
-5.35115e-09
-8.755e-05
-7.09824e-07
5.20334e-08
2.82563e-06
-3.43655e-10
-9.49414e-09
-7.29459e-09
-8.3401e-10
-5.13336e-07
-0.000240624
2.30226e-08
4.92392e-05
0.000211226
1.75035e-09
1.46868e-05
-0.00040883
1.5094e-06
3.43547e-07
3.59653e-05
-2.03711e-06
-0.000100494
5.50717e-06
-1.14535e-07
-1.86298e-05
-6.41882e-10
1.96916e-05
-1.89068e-07
0.000445024
-1.71082e-09
-0.000235314
1.57588e-08
-0.000118595
3.02177e-05
-7.81727e-05
3.8957e-09
5.48691e-06
-0.000266723
5.09827e-08
-5.6531e-08
-4.8114e-07
0.00185732
-2.05538e-07
-2.02015e-06
1.78596e-11
-1.86468e-06
8.47238e-10
-3.67599e-07
1.93097e-07
5.15349e-09
-8.90998e-05
1.18297e-07
-6.98866e-06
-1.14463e-06
-2.73381e-09
-3.06102e-05
-3.23635e-08
-2.74683e-08
-6.71135e-05
2.47915e-08
-1.28836e-08
7.53563e-08
-0.000261245
-6.05608e-08
-0.000316893
-1.87247e-09
-8.36518e-08
-4.10692e-09
-2.00304e-07
-7.48196e-12
-2.67956e-05
-2.20232e-06
-1.11306e-06
-5.65782e-08
-2.86446e-09
-3.88101e-11
-5.66503e-08
1.23273e-08
6.38127e-07
-2.1598e-05
1.02028e-08
7.56085e-08
7.05288e-05
-3.44555e-07
-3.95973e-07
1.78423e-08
-0.000104184
-8.7892e-07
-1.96479e-08
-7.3941e-06
-2.87998e-10
-5.08991e-08
-4.7122e-06
1.02624e-06
1.47168e-07
4.643e-08
-4.57831e-10
3.92983e-07
-3.94296e-07
9.14813e-08
1.59233e-07
-0.000314875
-2.83558e-06
-1.76972e-06
-1.68025e-08
1.16678e-05
-1.31963e-07
-3.7327e-08
-0.000105574
-4.0003e-10
-6.50759e-07
0.00025658
-7.92521e-05
9.97837e-06
3.59866e-08
2.14223e-06
-9.00251e-07
4.85625e-07
-1.75399e-08
1.57323e-06
1.6275e-09
-1.10522e-08
0.000192638
-2.22214e-10
-4.93187e-11
2.96252e-06
-2.94505e-07
-3.69841e-07
2.21761e-08
-0.0159276
-7.7587e-06
-2.64743e-07
-0.00389255
-7.16602e-06
9.7604e-10
-4.19192e-07
2.80028e-07
-8.77529e-08
-0.0148566
0.000272091
-5.50415e-08
0.00166379
-3.10748e-07
3.064e-05
-3.35252e-09
1.55562e-05
-1.68197e-11
5.45686e-06
5.86695e-09
-4.37746e-09
-2.80703e-05
-3.32004e-09
-9.83235e-09
-1.34236e-09
4.96514e-05
0.00012241
-3.10652e-06
-2.62132e-10
1.41961e-07
4.83123e-09
7.61842e-05
1.92451e-10
6.42552e-09
1.80916e-07
-2.38509e-08
1.24757e-08
6.96999e-06
-9.83301e-10
4.07743e-12
2.56065e-07
5.41415e-07
2.45397e-08
-2.89546e-07
6.35141e-09
6.59898e-08
1.64513e-08
2.30815e-07
3.20668e-08
1.07146e-07
-0.000137776
1.31706e-07
0.00559524
-1.91687e-08
4.65897e-07
-4.40765e-09
1.06424e-08
8.19848e-08
-1.32345e-06
5.19644e-07
-1.64804e-10
1.93041e-08
-0.000583364
0.000149851
5.57318e-08
-9.70806e-07
2.44883e-08
-8.6045e-07
2.44972e-05
5.35728e-07
-0.00062662
-1.39101e-08
1.90512e-08
2.43308e-08
-9.58811e-10
0.000170041
6.08096e-08
-9.29141e-10
5.08805e-12
-3.28602e-09
1.5892e-08
-1.59541e-06
-2.40341e-10
1.96001e-05
4.33606e-09
2.64773e-07
-0.000807007
4.36038e-12
9.53106e-10
-1.03576e-10
-1.49237e-07
-7.28301e-06
0.000199778
7.4034e-08
-0.000427123
-1.55981e-06
-3.86012e-08
3.64211e-07
-3.3898e-10
7.30411e-08
-1.48476e-07
-0.00114595
-1.13532e-07
3.16598e-08
-1.64943e-06
6.86081e-06
4.00142e-10
0.000121026
0.00262557
7.13103e-07
-2.60236e-08
-1.74022e-05
-3.60125e-07
-4.24571e-09
0.00171499
8.79238e-10
-3.2023e-08
8.74782e-07
1.12818e-06
5.59063e-08
1.80246e-10
-3.05408e-09
-6.2786e-08
0.00709853
1.36075e-06
-0.000456694
3.47052e-07
2.18518e-08
-1.93058e-09
-1.80403e-07
-3.58492e-06
-0.000138357
1.50387e-06
-1.61018e-06
9.29714e-06
-4.96778e-08
-2.4804e-09
7.43237e-05
-7.62156e-06
-0.000967549
3.05056e-08
-6.59406e-05
1.03139e-05
-1.83688e-05
-4.48301e-10
-8.79765e-08
-4.67791e-07
-1.11422e-10
-4.26113e-08
-1.95105e-05
-1.84935e-06
3.38371e-06
-3.10621e-07
-2.95583e-09
-0.00135606
-5.04204e-10
3.09094e-07
-1.28727e-06
-6.68065e-09
3.20738e-12
5.6605e-11
0.00026058
1.60152e-07
8.78491e-10
-0.0122858
1.67182e-07
-7.76542e-08
1.39121e-08
-7.48196e-07
-1.28693e-08
1.33979e-08
1.20224e-09
-9.88557e-08
-1.28431e-09
0.00456944
-6.66994e-07
9.23831e-05
-4.04932e-08
-5.53215e-08
-0.000102351
1.87417e-09
-6.28114e-06
-1.45385e-06
0.000128512
-8.53155e-05
2.06632e-07
4.49343e-09
2.46076e-08
7.30968e-07
-3.60459e-09
6.3198e-08
0.00278448
-6.41553e-08
8.69248e-08
-3.27467e-10
-5.78365e-09
1.11317e-11
-1.39557e-07
1.58585e-06
6.59998e-08
-5.7458e-08
2.44515e-09
-6.85797e-10
1.87e-11
2.00147e-06
-0.00136638
-2.25537e-09
-6.44589e-08
-1.05808e-07
-6.67326e-09
4.30315e-05
-0.000120625
2.53504e-08
-6.13621e-05
0.000654278
-1.77918e-07
-1.44719e-09
1.4086e-06
1.15911e-09
-2.08333e-05
-0.000108549
-4.51443e-08
1.21643e-06
-5.83178e-09
-7.03075e-09
4.95199e-09
7.37412e-05
4.04864e-06
-2.59364e-10
-1.74012e-06
3.1498e-05
8.78215e-07
-6.84416e-09
0.000596261
-1.42119e-06
6.75421e-10
-0.00012302
1.37565e-07
-3.0749e-06
1.1009e-11
7.62652e-08
1.20842e-06
4.06367e-07
4.18695e-10
-4.28717e-07
0.00200199
-3.44548e-10
6.40125e-08
-1.40662e-07
5.39151e-07
-1.70269e-10
8.40341e-08
-1.77687e-07
-4.12274e-06
-1.19109e-06
-9.48005e-06
1.66877e-07
-5.62141e-06
-1.89399e-08
-3.68725e-07
-8.24526e-05
0.00217531
2.39264e-09
-4.5304e-10
-0.000490556
2.65687e-07
1.01789e-06
6.30929e-07
7.63988e-08
-4.7827e-08
-5.57118e-08
-2.1119e-10
0.000162364
2.84589e-11
-4.58712e-07
-0.000515336
-2.39945e-10
0.00153868
2.69084e-08
-0.000283261
1.92088e-07
4.30642e-07
4.67171e-08
-4.91442e-09
-2.22384e-09
2.05769e-09
6.73078e-07
-7.84883e-05
2.68041e-05
0.000580492
-8.92488e-11
1.40364e-06
3.28081e-09
0.00105864
-8.24314e-09
-0.000199738
-3.6665e-05
3.80932e-07
-1.41281e-05
-6.99917e-10
-1.85525e-09
-2.10815e-10
1.1549e-09
6.12135e-06
-3.50626e-06
-3.29058e-08
-9.18358e-07
-1.31963e-09
-1.75822e-10
-1.80641e-07
-2.8348e-05
-3.25185e-07
-9.90468e-08
-2.65546e-05
2.63615e-09
3.77625e-05
0.000433273
-6.12623e-09
1.66284e-06
-4.62519e-08
4.34929e-05
1.73859e-06
-8.73014e-06
-1.68765e-09
-1.06919e-11
-3.11299e-08
1.12052e-10
3.40333e-07
-0.000297983
2.37683e-07
-1.05134e-07
-3.82026e-08
1.37045e-06
-5.51097e-08
2.19193e-11
3.80667e-11
-4.98812e-06
1.40459e-09
-8.63798e-07
3.80615e-08
2.82522e-06
2.2291e-08
-8.83155e-08
-5.07226e-08
-0.00035583
2.92745e-09
-2.79089e-10
-4.53985e-05
-3.56069e-08
-0.000459555
-3.15926e-05
8.6274e-08
-6.14881e-12
-3.89814e-07
-1.87573e-05
-0.000471631
-5.01968e-08
-3.41543e-06
1.16162e-10
-5.35266e-08
-0.000238393
-2.90791e-06
-0.00491257
-2.51326e-05
8.79297e-09
1.61464e-08
-1.51764e-06
5.76525e-07
0.000175464
3.33779e-07
-2.49602e-10
-0.00189082
2.20902e-09
-5.66693e-10
2.94336e-09
-1.6817e-05
-7.87452e-09
1.20812e-09
1.37715e-05
1.8061e-07
1.11587e-06
-1.29662e-08
-9.91151e-05
-1.24533e-08
1.26411e-05
-8.88432e-05
1.1968e-05
-2.30344e-09
1.40755e-11
-7.00414e-05
4.58267e-09
7.55603e-07
-8.48307e-13
-3.43296e-11
-5.16604e-07
4.37576e-07
6.34341e-07
-0.000207331
8.28634e-05
-1.68768e-12
-2.88503e-07
8.17019e-09
-0.000528544
-8.94121e-07
3.28132e-05
-1.72873e-06
-1.86678e-09
1.5483e-05
-0.00103788
-0.00129128
-5.46793e-11
-1.55048e-07
-2.99806e-10
-6.49244e-05
3.84418e-09
-0.0047305
3.6872e-07
-0.000138609
2.58299e-07
1.64164e-05
-5.11119e-06
-1.00638e-05
5.02705e-07
-2.31513e-08
-6.6894e-08
8.04843e-06
-3.56006e-08
-1.11157e-11
-5.77124e-06
6.57216e-07
0.00310924
-1.42083e-08
-3.57636e-07
5.38478e-07
-1.83188e-05
0.0293136
0.00242392
1.01866e-06
-3.81892e-05
5.4386e-06
6.0895e-12
-1.00684e-05
6.14873e-06
0.00047902
0.000114656
-0.000175743
-9.22423e-10
3.9961e-06
3.01408e-09
-9.14814e-06
7.14164e-11
-3.42171e-09
3.29248e-06
5.8173e-05
5.05055e-10
7.78086e-07
3.8251e-06
-1.38052e-06
7.69898e-08
-5.56253e-12
7.62447e-11
4.41839e-06
3.74544e-07
9.88852e-07
-4.31638e-06
7.66458e-05
-7.74691e-13
3.00337e-11
-1.40277e-06
-2.26037e-06
9.78197e-10
8.96097e-07
-2.22102e-08
-2.13896e-05
3.3263e-06
2.93332e-06
-5.21032e-10
-2.49224e-08
3.07736e-05
1.66991e-05
-1.07757e-07
-1.12033e-06
1.13832e-06
2.98243e-12
3.51945e-07
2.88633e-07
7.71135e-10
-5.30538e-08
1.19913e-07
-3.4767e-06
-5.39886e-05
-1.10306e-09
0.000745823
1.65304e-09
-0.000215047
3.85233e-10
4.39531e-07
0.000470636
1.87251e-10
8.25164e-08
8.82009e-08
1.54718e-05
-6.22011e-05
-1.33832e-07
2.56952e-08
5.21742e-07
-6.54442e-08
4.48749e-09
-1.02374e-10
3.43315e-10
-3.86663e-07
-0.000289211
0.000125916
0.000340365
-8.77298e-10
7.62554e-07
-0.00286877
-1.3036e-11
-3.92469e-10
-7.78307e-05
6.6661e-11
0.00015426
-1.73944e-10
-0.000101486
1.00932e-06
7.99569e-11
1.00195e-05
1.49246e-07
0.000550288
-7.92353e-05
1.0289e-08
9.08822e-07
1.88003e-09
5.92959e-07
-3.10254e-07
-6.90815e-09
5.43469e-05
0.000227506
-1.24211e-09
3.67364e-09
-4.29016e-08
-2.26684e-05
-3.6455e-10
-1.19615e-08
3.10262e-10
5.53779e-10
0.000201537
-1.03147e-07
-8.30154e-07
2.24574e-08
6.41988e-07
0.000403933
5.38744e-11
8.08813e-07
3.61702e-05
-1.12904e-07
-3.92033e-06
-8.85404e-05
-2.22865e-08
-3.55328e-08
2.38689e-08
0.00154219
4.27644e-09
-1.87327e-07
-4.24365e-06
-1.44342e-08
3.92277e-06
0.000196502
0.000661002
-9.31609e-05
-0.000147303
-1.55207e-05
-5.2438e-09
9.88946e-05
5.6128e-07
2.16274e-05
2.21179e-07
0.000150612
4.96003e-09
-0.00139943
1.11053e-05
-6.73721e-07
-9.59193e-08
-9.88252e-07
0.00012407
-0.000650189
2.02964e-05
-6.94426e-07
-4.04131e-08
3.46512e-07
9.69606e-07
-5.84874e-05
-3.31492e-08
-2.34499e-08
-3.02024e-08
-1.44862e-06
2.82563e-09
-6.04447e-09
-0.00824669
-9.34172e-07
-2.33072e-07
4.563e-09
7.00634e-05
-1.52333e-07
-1.14956e-07
0.000270433
2.28961e-07
8.85743e-10
-1.48521e-09
6.43566e-06
3.84261e-05
1.35409e-06
7.59964e-09
-2.6258e-07
0.000510307
7.70826e-10
-2.33965e-07
-6.25095e-08
1.07221e-07
-1.8284e-05
-3.2176e-08
1.03264e-05
-0.00125525
0.000111156
-5.87108e-07
1.48172e-08
-7.57047e-08
-1.26162e-06
-0.000120496
-0.000349868
0.000898612
-3.75656e-06
-0.000217917
0.000188715
-1.16157e-10
-0.000247767
7.47227e-07
1.26088e-06
-0.000167739
1.48671e-12
-7.23827e-06
1.52424e-08
-0.00395276
7.36044e-10
-3.88164e-07
-1.38776e-06
-8.56651e-05
-1.0824e-08
0.000187447
5.79276e-06
6.02844e-07
2.07142e-06
-6.88574e-05
-4.68987e-07
3.33972e-07
3.54146e-08
-3.38502e-05
1.54226e-06
-2.49418e-09
6.56265e-05
9.55646e-08
1.39993e-05
-0.000199119
0.000464347
3.9153e-07
2.73697e-09
1.05323e-05
8.3389e-06
0.000106316
2.4208e-08
-0.0209998
-3.35155e-10
-1.83445e-08
8.61624e-08
-7.34727e-05
2.97702e-07
8.35558e-05
-1.52596e-06
5.07132e-05
-4.2066e-09
-0.000257598
-4.69946e-06
-1.06947e-10
-4.03261e-08
-0.000245628
-4.05198e-08
4.87006e-08
1.60475e-07
-7.34938e-05
-2.23168e-05
9.47238e-10
-4.22148e-09
-1.52194e-10
1.33936e-11
-0.000212728
-0.000145721
-0.000127237
-9.98303e-07
-5.05982e-07
9.37151e-05
-3.40814e-06
0.000798477
4.02134e-09
8.42973e-10
7.15097e-08
-2.56194e-06
5.37868e-11
1.28945e-11
-3.41786e-09
1.48843e-09
-1.00512e-10
-6.42516e-08
1.48884e-08
1.74296e-06
1.0799e-09
-3.03591e-06
0.00853118
-0.00224484
8.34337e-07
1.76346e-07
4.73892e-09
4.68522e-09
8.97279e-07
1.86619e-05
-1.36853e-08
-7.41217e-05
0.000143387
-3.05507e-06
-0.0146602
-7.91506e-05
3.8451e-05
-0.000196699
2.0304e-07
3.015e-05
0.000222464
-0.000221395
5.97103e-08
2.67851e-09
-0.000376547
-1.23831e-08
-0.000471077
0.00249384
4.18429e-06
7.13659e-09
9.20117e-05
-6.71453e-07
-1.95875e-05
1.06905e-06
-4.1276e-10
7.63131e-06
-1.15805e-06
2.86843e-08
-7.90624e-05
7.92411e-07
3.16185e-08
-1.16476e-06
-4.45506e-08
-2.68898e-07
4.97464e-07
-5.35275e-07
-8.7902e-06
3.86329e-07
-8.01095e-10
-2.27828e-07
-9.84753e-09
1.24149e-06
-7.33496e-08
-1.84774e-06
-0.00033803
-0.000248873
-3.21832e-08
-0.00120409
-3.53614e-08
9.98238e-10
-2.76206e-06
-1.75837e-07
0.000645652
-8.0372e-05
3.1107e-05
8.74211e-07
-8.61911e-07
7.7721e-05
1.01471e-06
-0.000578129
-4.87479e-07
3.31864e-07
-2.25299e-10
-1.84372e-05
1.34682e-10
-0.000189298
-0.000894071
3.97188e-07
-1.63636e-09
3.6857e-06
3.63735e-06
8.67738e-05
-0.00176642
-5.69126e-05
-1.52825e-06
1.71701e-06
3.32628e-05
-6.62007e-05
-7.60978e-07
1.02251e-07
1.00582e-06
9.50363e-07
-1.06917e-07
8.23789e-10
-1.55769e-06
3.22366e-09
9.4008e-10
0.000332788
2.19189e-10
8.63331e-05
4.84764e-05
-6.22924e-05
-4.41769e-09
0.00023118
-0.000145222
5.67445e-10
-0.0012869
0.00274689
-0.000386484
0.00141979
1.35857e-07
-3.43978e-06
1.86104e-08
-1.71985e-06
8.36959e-07
-1.28206e-09
-9.39236e-08
-7.05722e-07
-0.000975392
8.55105e-07
-8.16704e-08
1.37742e-08
5.962e-05
7.6312e-08
1.55693e-08
-7.79083e-07
5.7006e-07
-0.000103643
0.000345724
2.62874e-07
-1.23788e-06
1.28077e-07
-1.2931e-06
-0.000172971
3.38157e-08
7.2669e-07
4.24666e-07
-0.00127639
1.35141e-07
0.000295951
-3.37295e-11
-7.34631e-08
8.66628e-07
9.02651e-05
0.000217369
8.58884e-09
-1.87208e-05
-0.000137601
-2.33977e-07
-8.2802e-07
-6.07639e-07
-0.000338345
-8.7917e-07
2.1079e-10
5.41359e-06
0.00017511
3.06652e-06
-0.000268838
5.37266e-06
1.0638e-05
-8.64285e-07
-4.60158e-05
2.90388e-10
2.80438e-06
2.10936e-07
2.76766e-05
3.93359e-05
-5.9021e-10
0.000383519
-0.00113344
-3.26975e-07
-1.04171e-07
-0.00488781
-2.25055e-10
4.32644e-05
2.94722e-10
-7.90118e-05
-0.000104601
7.95049e-06
7.28106e-09
-1.26977e-11
-1.00297e-05
-1.22076e-06
-9.31297e-07
-2.53825e-06
1.25196e-06
-3.58771e-07
-2.10293e-07
-6.28995e-08
-4.10673e-08
6.05212e-11
1.72199e-07
-3.94304e-08
1.49789e-05
-5.53136e-05
2.43657e-07
3.79729e-08
-2.28709e-06
0.000112373
4.05757e-08
0.000176478
2.88526e-07
6.19177e-11
-9.26798e-07
1.0154e-06
5.22281e-07
-9.89947e-07
3.38928e-07
-1.29651e-06
-1.61271e-10
3.87286e-05
8.56907e-07
-6.4189e-07
-1.5065e-05
0.000465576
-3.8085e-08
1.32349e-05
4.9111e-05
1.09422e-05
-1.93699e-06
1.53337e-07
-4.95398e-07
3.9694e-09
1.12674e-06
5.13262e-09
-6.513e-08
9.53786e-05
-1.18263e-06
-2.96957e-08
1.17238e-06
8.69054e-05
-8.40614e-07
-2.75375e-08
9.85253e-07
0.00102368
5.03392e-05
-7.94451e-09
4.17198e-08
-0.000111496
4.63039e-06
0.000507919
-0.00279833
-5.96894e-09
-0.000148476
1.52965e-07
1.20858e-05
-2.43921e-08
-4.22169e-05
1.3715e-06
-1.32233e-09
-1.9519e-08
-0.000336464
-1.22876e-05
5.38687e-06
5.62386e-05
-1.85874e-08
1.92647e-06
3.10515e-07
-0.0023113
0.000788692
5.09286e-05
0.000513835
6.73828e-08
-1.05519e-05
5.06029e-10
2.05997e-09
0.000602191
-1.4321e-06
0.0687239
-0.00133516
-1.61724e-06
-4.98569e-07
-0.000493823
0.000558878
-2.45819e-09
2.41917e-05
-7.20114e-08
2.59818e-09
4.28235e-05
-4.43767e-07
-0.000125692
-4.28942e-07
-2.69343e-07
5.47646e-08
-0.0025332
2.17612e-09
4.67216e-10
9.87691e-07
-1.60108e-09
-3.3032e-08
9.81323e-07
-6.83288e-09
-1.3036e-07
-5.08486e-05
-5.10924e-05
4.02621e-07
-1.40096e-07
3.52917e-05
9.86417e-07
-1.30481e-09
-0.00350609
-2.31434e-07
-6.35418e-07
1.34774e-08
-4.17149e-08
1.50434e-05
-1.59354e-08
-2.61568e-08
0.00121594
-6.27664e-08
-0.00195296
-8.73275e-05
-5.09866e-05
0.000814157
-6.0226e-11
-4.34923e-07
-1.4236e-05
-6.66749e-09
0.000178839
-6.48196e-06
-4.95851e-05
0.00218571
-8.26463e-07
3.94547e-06
-2.73592e-05
-7.90927e-09
3.45178e-07
0.000118467
-3.92121e-05
4.98285e-07
3.05074e-07
-2.86904e-08
-8.09476e-07
2.91158e-05
2.33479e-07
-7.29273e-05
3.12786e-05
4.57047e-07
2.14854e-07
-2.45429e-06
-3.82155e-07
-3.31533e-09
-1.89334e-06
-6.42269e-11
-2.72442e-08
2.64928e-07
-7.15932e-09
-7.67875e-07
-4.06874e-07
6.44801e-07
9.59694e-09
1.08075e-06
-1.02332e-05
-4.79779e-08
-0.000239625
-1.92028e-06
-0.000356257
-7.2812e-09
6.82474e-09
-0.001458
-0.00369383
1.16135e-06
0.0486241
-7.34664e-08
-2.09843e-05
7.32408e-05
-0.000427765
1.65447e-10
-2.22465e-06
1.62634e-10
-1.38469e-05
-1.24656e-08
-1.42474e-08
4.91527e-07
-2.19807e-05
-0.000452681
3.70053e-07
4.48139e-08
0.00265177
-2.93539e-05
7.14124e-05
-4.9782e-05
5.73384e-08
-2.80771e-08
-4.81253e-05
-3.69539e-07
9.62252e-07
0.000261639
-2.39504e-11
-1.27488e-07
-6.35944e-10
-3.23659e-08
0.000443802
-0.000664587
-0.00068135
-2.46499e-06
-5.23984e-05
6.00986e-07
-7.50291e-07
0.00046056
-1.2904e-08
7.55188e-08
-2.39671e-07
0.000124045
6.95534e-06
-2.1519e-05
-1.09903e-06
0.000362819
5.73562e-08
-8.38005e-05
-2.56067e-05
0.000370154
7.50131e-08
0.000644495
4.62176e-07
1.57182e-07
-4.55754e-07
1.88758e-07
7.1543e-08
-3.80757e-06
-2.09027e-06
1.17886e-06
-8.25504e-07
-1.28411e-07
0.000444794
-0.000371681
-0.00231364
-7.46692e-05
0.00109097
-8.20301e-05
3.64572e-07
7.68706e-10
-6.56019e-09
2.76811e-10
-3.555e-06
-3.56076e-06
-1.33882e-06
3.24337e-07
-2.36725e-09
-2.9685e-07
-0.000167038
8.17196e-07
-1.0362e-05
-7.1679e-05
3.40448e-10
-2.9924e-07
4.74924e-06
-4.4689e-07
-0.000384789
-2.02993e-06
-0.000170894
2.38901e-08
2.24309e-08
9.65747e-07
-6.82581e-05
1.42997e-07
-0.000290047
5.03143e-05
-0.000377951
0.000367628
-3.11835e-07
2.07127e-05
-1.12187e-05
0.000117071
-2.76533e-07
-2.29676e-08
4.09291e-06
1.43084e-05
2.52132e-09
3.62548e-07
5.85525e-07
1.26433e-06
-0.000133968
-1.23408e-06
-1.08066e-07
-2.45504e-06
-0.000115604
0.00014427
2.26716e-07
-0.000511454
9.46662e-06
4.05301e-07
-0.000740171
-6.77762e-07
-9.12238e-07
-4.90462e-07
1.17925e-06
-1.43171e-05
7.19851e-06
1.88701e-06
5.1361e-05
-4.56994e-09
1.974e-05
9.24071e-07
-2.53278e-08
-5.85217e-09
2.49995e-09
0.000145392
2.55998e-07
1.84809e-06
-0.000283085
5.28083e-07
-1.50552e-06
-1.74829e-08
2.21013e-09
7.87844e-09
-0.00113538
-1.27117e-08
1.76864e-06
-5.55779e-07
7.14707e-05
8.23871e-10
0.000113659
-5.77748e-07
-0.00353524
-2.72694e-07
-8.42015e-05
-2.49824e-06
-6.69332e-06
-1.51517e-06
7.42629e-07
3.69415e-09
9.94007e-09
-3.27412e-06