/*--------------------------------*- C++ -*----------------------------------*\
| =========                 |                                                 |
| \\      /  F ield         | OpenFOAM: The Open Source CFD Toolbox           |
|  \\    /   O peration     | Version:  v2012                                 |
|   \\  /    A nd           | Website:  www.openfoam.com                      |
|    \\/     M anipulation  |                                                 |
\*---------------------------------------------------------------------------*/
FoamFile
{
    version     2.0;
    format      ascii;
    class       volVectorField;
    location    "100";
    object      ddt0(U);
}
// * * * * * * * * * * * * * * * * * * * * * * * * * * * * * * * * * * * * * //

dimensions      [0 1 -2 0 0 0 0];


internalField   nonuniform List<vector> 
14479
(
(0.00609451 0.0208903 0)
(0.0168056 0.00747672 -1.19377e-20)
(0.00424884 0.0042563 -3.00711e-21)
(-0.0185118 -0.00457564 7.73581e-22)
(-0.00463436 -0.0633926 0)
(-0.0187799 -0.0030865 1.14566e-21)
(0.000105695 0.000409849 -1.55751e-21)
(-0.000357909 0.000334995 -6.98141e-21)
(0.000972676 0.000520991 0)
(0.025321 0.0118449 0)
(0.00996828 -0.0662644 1.83042e-20)
(-0.0182973 -0.00453281 3.60379e-21)
(-0.0134169 -0.00346107 -1.23056e-20)
(-0.0131387 -0.00319439 7.53812e-21)
(-0.00822884 -0.00219703 0)
(0.0189758 -0.0306329 2.79627e-20)
(0.0136359 0.0225938 -2.8352e-20)
(-0.030897 -0.00576251 4.3882e-21)
(0.0447398 0.00740645 -3.063e-20)
(-0.0140569 0.0142094 5.9226e-20)
(0.000491376 -0.000319236 0)
(0.00380917 0.00389994 1.20932e-20)
(0.0427263 0.0104859 -1.25651e-20)
(0.0328044 0.0256442 4.27893e-20)
(0.00203057 -0.0044369 1.65097e-21)
(0.0022071 -0.00899179 -8.85525e-21)
(-0.00804651 -0.00161521 6.87562e-20)
(0.0254189 0.0112896 -1.10686e-21)
(0.00694074 0.0109106 6.33758e-20)
(-0.00789165 -0.00226074 3.71847e-22)
(0.0207569 -0.00384779 1.86521e-20)
(-0.0169081 -0.00151211 0)
(0.0399812 0.00828555 3.71634e-20)
(-0.00023617 0.000492352 8.21433e-21)
(-0.000556258 0.00517865 0)
(-0.00170588 3.36867e-05 1.04179e-21)
(0.000139601 -0.00158705 8.72265e-22)
(0.0192378 -0.00724642 -4.67761e-22)
(0.00440514 0.00214989 3.44432e-22)
(-0.0295529 -0.0980637 0)
(-0.00877949 -0.00175088 1.5808e-21)
(0.00415538 0.00116194 0)
(-0.00164511 0.00701153 1.03546e-20)
(0.00243798 0.00584347 0)
(0.058267 0.00254648 -1.89405e-20)
(0.00311541 0.0121131 0)
(-0.00345634 -0.000796199 0)
(0.0181875 0.00322605 2.04866e-21)
(-0.000817382 0.00393565 -1.38825e-20)
(0.00750638 -0.00348898 3.71289e-19)
(0.00077116 -9.37625e-05 0)
(0.0893863 0.00847137 -1.17474e-20)
(0.0242111 -0.0852902 0)
(0.0135084 0.0508097 -2.20111e-21)
(-0.000898235 0.00788937 1.3779e-20)
(0.000966055 -0.00184664 7.4023e-23)
(0.0169444 -0.0220221 -1.25672e-21)
(0.0171624 0.00885637 0)
(-0.00176136 6.09511e-05 0)
(0.00612561 0.0164633 0)
(0.00293021 0.00317286 -4.54637e-21)
(-0.000700549 0.00302804 0)
(-0.0249292 0.00710961 -1.654e-20)
(0.0222975 0.0310439 -2.88442e-21)
(0.114302 -0.0015498 -6.91489e-21)
(0.00742673 0.00111772 0)
(-2.3681e-05 0.00594636 0)
(0.00234023 -0.0119991 -4.18245e-21)
(0.0268992 -0.0252458 4.66733e-21)
(0.106558 0.00685378 0)
(0.0183147 0.00775764 2.1905e-21)
(-0.0142522 0.0175547 0)
(-0.0118456 -0.00558111 2.87102e-20)
(-0.0104702 -0.0206802 -3.63307e-21)
(0.00044818 -0.000311728 0)
(0.00204314 0.00739451 -1.58329e-21)
(0.0173957 0.0087474 -1.23821e-21)
(-0.0115792 -0.00499957 -2.14692e-21)
(0.0161385 0.0179998 2.12574e-20)
(0.0176837 0.00775639 -2.67639e-21)
(-0.00385689 -0.0375877 0)
(4.91457e-05 -4.39071e-05 7.3721e-22)
(-0.00153655 0.0110109 -6.7179e-23)
(-0.0108396 0.0165425 0)
(-0.00299611 0.00238902 1.058e-20)
(0.000695941 0.0128549 0)
(-0.0258666 0.0176248 -3.94497e-19)
(0.000662664 -0.000590227 7.00306e-23)
(0.0172273 0.00815775 2.4078e-21)
(0.00127322 -0.000839579 -9.91906e-22)
(0.0225561 0.0105786 8.75771e-22)
(0.00786988 0.00165945 1.68283e-21)
(-0.00961624 -0.000824664 0)
(-0.00968944 -0.0105531 4.84609e-21)
(-0.00535902 0.00791616 -6.0509e-22)
(0.038233 0.00966319 9.47075e-21)
(-0.00215147 0.00292113 6.41569e-21)
(0.0219462 0.0101742 5.42317e-21)
(-0.000892897 0.0061903 0)
(0.0256187 0.0148413 2.38346e-21)
(0.018153 -0.0037409 0)
(0.0172606 0.00984044 0)
(0.0102117 0.0260142 0)
(0.00017172 4.80964e-05 0)
(-0.00220264 0.00773551 4.59443e-21)
(-0.00149436 0.000134344 3.03871e-21)
(0.113708 0.00399436 6.70492e-21)
(-0.00996438 -0.00616561 -2.24983e-20)
(0.016361 -0.0466192 -4.02254e-22)
(-0.00864885 -0.00188084 -2.73303e-21)
(-0.0014272 0.00964013 6.46131e-21)
(-0.00033138 -0.00707948 0)
(-0.0113202 0.0170763 2.79715e-20)
(0.01284 0.0363908 2.93232e-19)
(0.0162362 0.028389 0)
(0.00593547 0.00172277 -1.31023e-20)
(0.0017489 0.00663102 0)
(0.0329742 -0.0217814 -2.31436e-19)
(-0.00260093 0.000190258 1.35451e-22)
(-0.0240594 0.0114935 -6.24585e-21)
(-0.00040236 0.00463622 7.26644e-21)
(0.000293766 -0.000489629 0)
(-0.0170767 -0.0013747 0)
(0.00324277 0.00176068 -2.49211e-21)
(-0.0175895 0.00147642 5.85937e-21)
(-0.00174112 0.00118154 7.84164e-21)
(-0.00198652 0.00501342 1.27821e-20)
(0.0012674 -0.00320797 3.70689e-21)
(-0.00191475 0.00108641 0)
(0.0162656 0.00823741 0)
(-0.00192925 0.00195502 6.56611e-21)
(0.018325 0.0306972 -3.12738e-20)
(-0.00708237 -0.0283206 0)
(-0.00160384 0.0013319 -1.04006e-20)
(-0.00180487 0.0159169 -7.04329e-21)
(0.0319208 0.0291367 -2.51668e-21)
(0.0398468 0.0109968 2.95869e-20)
(-0.000472968 -0.0113944 -4.97137e-21)
(0.0895784 0.00852937 2.62417e-22)
(-0.0188412 -0.00422675 -1.35187e-20)
(-0.000545611 0.00200179 1.49005e-20)
(-0.0191079 -0.00338958 -1.00654e-20)
(-0.00167647 0.0121099 0)
(-0.124396 0.407919 -2.14468e-19)
(0.0243693 0.0232659 6.89812e-20)
(-0.00346339 0.00176856 -1.74297e-20)
(-0.0048208 0.0132477 0)
(0.00108017 0.000420546 1.03234e-20)
(0.00933019 0.0327877 0)
(0.00399749 0.00373697 -1.37095e-21)
(0.0343304 0.00916234 -1.8663e-20)
(0.00315384 0.00247995 4.69432e-21)
(0.000494821 -0.000170247 4.19468e-22)
(0.0060093 0.0115132 -1.92534e-20)
(0.0184151 0.0315625 0)
(-0.00633127 0.00510193 4.03899e-21)
(0.0247393 0.00799102 -1.07627e-21)
(-0.000158893 -0.000412686 -7.72955e-21)
(0.0510401 0.0265728 -5.03523e-21)
(0.0205687 0.0171767 -1.23235e-20)
(0.02501 0.00747423 3.91494e-21)
(0.0443795 0.00501527 -2.1098e-20)
(0.0235778 0.0160903 -1.00116e-20)
(-0.0220452 0.00829699 1.08713e-20)
(0.0160813 0.0164831 -4.70866e-21)
(0.0185629 0.00309135 -1.49096e-21)
(-0.0023961 0.000901087 4.29226e-21)
(-0.00280613 0.0190399 0)
(0.000884528 -0.000364842 0)
(-0.00226337 0.00293699 6.04939e-21)
(-0.00192254 0.00252034 -1.58222e-20)
(-0.00145205 0.0120408 0)
(0.000441786 -0.00272727 6.84062e-22)
(-0.0180437 0.0129669 2.95104e-19)
(0.00125228 -0.000621273 -6.26893e-22)
(-0.0226701 0.0305471 -8.53695e-21)
(0.000526441 -0.000573551 6.91847e-24)
(-0.00150182 0.00450223 -5.31643e-21)
(-0.0134808 -0.0315895 0)
(0.00401477 0.00107512 -3.54436e-23)
(0.143549 0.491748 3.68469e-20)
(0.000398891 -0.000185406 0)
(0.00233462 -0.00196184 0)
(-0.00958055 -0.000688219 -4.27106e-21)
(0.000658303 -0.00132253 0)
(0.0137686 -0.0410561 -1.92729e-21)
(0.00545929 0.0130687 3.23872e-21)
(-0.00065257 -0.00240823 3.01452e-21)
(0.137891 0.25534 1.18506e-19)
(0.43003 -0.801802 6.40009e-19)
(0.000121198 -0.000518982 -7.99454e-23)
(0.0246145 0.0181252 1.22624e-21)
(-0.000144917 0.00861911 0)
(-1.06682e-05 2.61087e-05 1.88031e-21)
(-0.0189882 -0.0035221 -2.46087e-20)
(0.0187131 0.0165886 1.41978e-20)
(-0.0463164 -0.0727564 -1.63374e-19)
(0.0299441 0.0209859 3.88914e-21)
(-0.002078 -0.00015761 -3.50643e-22)
(0.00125505 -0.000842825 9.10693e-22)
(0.00473151 0.00279947 1.0287e-20)
(0.0167551 0.027451 1.33875e-20)
(0.126967 0.00733532 -8.70078e-21)
(0.0275642 0.0274176 -1.25568e-21)
(-0.0190057 -0.00346006 1.96235e-20)
(0.00341933 0.00263113 5.77427e-22)
(0.000455741 0.00210442 0)
(-0.015012 0.019044 -1.29521e-20)
(-0.00248884 0.00511959 0)
(0.0201456 -0.0114435 4.7107e-20)
(-0.0146825 0.00508906 9.86908e-21)
(0.030936 0.00761169 0)
(0.00128608 -0.0011035 0)
(0.00466984 -0.00305851 4.84472e-21)
(0.00160456 0.000635605 -1.96306e-21)
(0.000928961 0.0180671 1.68261e-20)
(0.0272283 0.0134194 8.95905e-23)
(-0.00385091 -0.00138638 0)
(3.98306e-05 -0.0016883 0)
(0.0091273 -0.0039477 4.73009e-22)
(-0.00118162 -0.0836158 0)
(-0.00362108 0.00590973 -9.62367e-22)
(0.0224378 0.0212019 0)
(-0.00374755 0.00987461 -1.6351e-20)
(-0.0136618 -0.0227085 -1.58004e-20)
(-0.0189388 -0.0023421 0)
(0.00334347 0.0019693 -1.3381e-21)
(0.000207216 0.00482962 0)
(-0.0258164 -0.00777458 0)
(0.000675477 -0.000812612 -1.96503e-22)
(0.00218375 -0.000985826 2.17062e-23)
(6.80265e-05 -0.00017842 1.5081e-21)
(0.0035013 -0.0261715 0)
(-0.0117033 -0.00280082 -1.31475e-21)
(-0.000234843 -0.00802193 -5.87263e-21)
(0.00093223 -0.00929026 2.88319e-22)
(0.0250811 -0.0550219 -2.74274e-21)
(0.0392026 -0.00695581 4.46344e-22)
(0.000196633 -0.00202432 -1.81903e-21)
(0.00236147 0.00280752 5.19007e-21)
(-0.0189796 -0.00220499 -6.66473e-21)
(0.0101705 0.0180076 6.35685e-21)
(-0.000999822 0.00530048 -7.33906e-21)
(0.000419425 -0.00526241 1.59584e-20)
(0.030465 0.0103968 -3.14063e-21)
(-0.0138902 0.00549279 -9.40232e-21)
(-0.000531912 0.000954971 0)
(0.000384132 -0.000245911 0)
(0.0177147 0.00248016 3.67052e-20)
(0.01673 0.00616456 -1.518e-21)
(-0.000189645 1.55577e-05 6.90458e-21)
(-0.000762075 0.0208988 4.02442e-21)
(0.000183034 -2.19482e-06 -1.071e-22)
(-0.00187757 0.0011558 -4.12646e-21)
(0.0162153 0.00693774 2.13708e-22)
(0.016875 0.0281195 -1.20096e-20)
(0.000273092 -0.00190629 1.14115e-21)
(0.00629226 0.00418505 -8.51577e-20)
(0.00103344 -0.000515086 0)
(0.0322573 0.0269134 -5.12453e-20)
(0.00109389 -0.0320867 -3.25008e-21)
(0.0460711 0.00236422 4.89429e-21)
(-0.0189453 -0.003544 2.41941e-20)
(-0.00166259 0.0177614 8.79292e-21)
(0.000574485 -0.00143251 0)
(0.00729577 0.0161322 1.44756e-20)
(0.000410148 -0.00147583 0)
(0.0216156 0.0210689 2.96885e-21)
(-0.0184383 -0.00562096 -1.75697e-20)
(0.0278454 -0.0229178 3.98247e-21)
(-0.00352328 0.0138456 0)
(-0.000368264 -0.000542956 -4.96325e-21)
(0.0042512 0.000967694 0)
(0.00131199 -0.00230865 0)
(0.00197073 -0.00980708 1.71079e-21)
(0.00174483 0.000940562 1.65951e-21)
(-0.00868581 -0.0079357 2.97269e-21)
(-0.00123857 0.00444516 -8.41122e-21)
(0.00316386 0.00322013 9.86286e-21)
(-0.00661631 0.00862108 -2.90727e-23)
(0.00353001 0.000662178 -1.53549e-21)
(0.00490847 0.00310477 0)
(0.0256896 0.00754563 0)
(-0.00666799 -0.0378036 0)
(5.52143e-05 0.00061636 -4.04055e-22)
(2.51577e-05 -0.00172636 -1.73203e-21)
(0.0239317 0.00696276 -4.18912e-21)
(0.00041694 -0.00162048 4.20975e-21)
(-0.00302261 -0.0127948 -5.79513e-21)
(-0.0189817 -0.00330008 -1.82177e-20)
(0.0016286 -0.0124314 -3.69126e-20)
(-0.0375574 -0.00665438 1.91207e-20)
(0.0418059 -0.0699677 -8.38125e-23)
(-0.0189439 -0.00313826 -5.34035e-21)
(0.000341375 -0.00257543 0)
(0.00980346 0.0194164 6.88316e-21)
(0.00249046 0.0011489 0)
(0.0241205 0.0242476 1.14807e-20)
(-0.00233181 0.000831475 6.73019e-23)
(0.0057504 -0.0190738 -4.67554e-21)
(0.000771522 -0.000315744 1.65526e-21)
(-0.0102193 0.00208324 -1.74348e-20)
(-0.000661191 0.00243453 -1.45554e-23)
(-0.0103305 0.0165407 -3.44881e-20)
(0.00417079 -0.0221887 -6.24815e-21)
(-0.00898488 -0.00188428 -9.40995e-22)
(0.0519394 0.0267882 -4.46667e-21)
(0.0189839 -0.00957767 0)
(0.000105769 -0.000230901 -1.38166e-20)
(-0.00291923 0.00245188 5.68775e-21)
(-0.00326899 0.00639911 0)
(0.0705275 0.078468 0)
(-0.0213917 -0.0969275 5.08947e-21)
(0.000969634 0.00152249 -4.64318e-22)
(-0.00163235 0.00908202 -6.29839e-22)
(-9.1631e-05 -0.000435896 1.24021e-21)
(-0.0186572 -0.00428626 7.96845e-21)
(0.0104923 -0.0859191 0)
(0.000594716 -0.000671081 -4.04717e-23)
(0.000177882 -1.94622e-05 -4.43125e-21)
(0.00168284 0.00295611 0)
(2.35285e-05 -0.00176603 2.45834e-21)
(0.0014568 -0.00336131 -2.36671e-23)
(-0.00592234 0.00548038 0)
(0.00853815 0.026217 0)
(-0.0116919 0.0013053 2.06951e-21)
(0.047519 0.0066464 0)
(0.0756851 0.0863851 0)
(-0.00279042 0.00283863 0)
(0.000390838 0.00217416 8.20435e-22)
(-0.00457583 0.00565791 0)
(-0.00547492 0.00510428 0)
(0.0293266 0.0221274 -1.81246e-21)
(-0.0114652 -0.0028856 4.90813e-21)
(0.00901887 0.0166398 6.75595e-21)
(6.68215e-05 3.35923e-05 0)
(0.00239937 0.0106987 0)
(0.0118723 0.00389865 1.84949e-20)
(-0.0547841 0.190247 1.29972e-19)
(0.0161431 0.00541189 1.02081e-21)
(0.0458511 0.00466497 0)
(-8.45059e-05 0.0130117 0)
(-0.0188269 -0.00315808 1.37834e-20)
(-7.63669e-05 0.0010958 0)
(-0.0185052 -0.00543935 1.09136e-20)
(-0.00245871 0.00104354 -2.86054e-21)
(0.00746641 0.00228912 0)
(0.0253257 0.0182517 4.76208e-21)
(-0.0022614 0.00149303 6.26798e-21)
(0.0195497 0.0105972 -3.51462e-20)
(-0.00954977 -0.00999102 -4.8742e-21)
(0.00434509 0.00285549 0)
(0.00422929 0.00227261 -1.21941e-21)
(0.000831631 -0.000687395 0)
(0.00213249 0.00101609 0)
(0.000415993 -0.000568037 -1.34805e-21)
(2.92367e-05 0.00167846 4.86477e-21)
(-0.00209356 0.00601468 -7.58056e-21)
(-0.0024524 0.00728485 0)
(0.000628809 -0.00012637 -6.11586e-22)
(5.79188e-05 -0.00114348 -5.34042e-22)
(-0.0178511 -0.00041665 0)
(-0.0133172 0.000122678 -1.33513e-20)
(0.000910932 0.00416019 0)
(0.00327782 0.00291651 -6.81506e-21)
(-0.0020018 0.00761785 0)
(-0.000542184 -0.0149875 -2.43411e-20)
(-0.0108797 -0.00266259 2.37468e-21)
(-0.00248612 0.00258508 -2.48812e-21)
(0.0200708 -0.0228386 8.23165e-21)
(-0.00487914 0.0217506 0)
(0.0127287 0.000728659 1.51392e-21)
(0.000112072 0.0154619 1.03994e-20)
(-0.134487 0.277416 0)
(-0.00916545 -0.0177495 3.74766e-21)
(0.0570313 0.00404744 5.3103e-21)
(-0.0128928 0.0199423 -6.42689e-20)
(-0.00525711 -0.0135797 1.68728e-20)
(0.00463025 0.018517 -1.30588e-20)
(0.00227279 0.00464003 -7.38082e-22)
(0.00100412 0.000904977 0)
(-0.00514234 0.0069821 -6.15612e-21)
(0.00348332 -0.05187 -1.47305e-20)
(-0.00592769 0.0174425 0)
(0.00829849 -0.000128752 0)
(0.0135649 0.0138865 -2.54989e-20)
(0.000278319 -0.00031334 3.03916e-22)
(0.0230544 0.0352746 9.88731e-20)
(0.000116827 -0.00202088 -2.27289e-21)
(0.00934602 0.0255787 7.31803e-22)
(0.0102374 -0.0016959 7.29328e-20)
(-0.00329552 0.0120303 8.91472e-21)
(-0.00158661 -0.00667044 -2.98515e-20)
(-0.00848063 -0.00170107 -1.55284e-21)
(0.113769 0.00698542 -2.57878e-20)
(0.0314315 0.00770787 -3.52936e-21)
(-0.258233 -0.528537 -1.34925e-20)
(-0.0456749 0.0458981 0)
(0.000224096 0.00122904 -8.38642e-22)
(4.50498e-05 -0.000176416 1.00975e-21)
(0.0475125 0.00617987 2.06573e-20)
(0.00396201 0.000878802 -7.89067e-22)
(-0.0177747 -0.00621387 9.84284e-21)
(0.00126865 0.0132337 4.56157e-21)
(-0.00284184 0.00243178 -6.87146e-21)
(-0.00299758 0.00308387 -1.1866e-20)
(-0.00405696 -0.00155885 1.22075e-20)
(-0.0104602 0.00173992 1.37539e-20)
(-0.0292555 0.057041 0)
(-0.000135065 0.00206757 0)
(0.0254893 0.0126087 0)
(0.0190265 0.00698377 -9.04606e-22)
(0.000204546 -0.00148574 4.91016e-22)
(6.29421e-05 -0.000244956 -6.7536e-22)
(-0.273634 -0.102476 -5.60067e-19)
(-0.000112874 0.000397898 -3.43478e-21)
(-0.0101607 -0.0303906 5.44316e-20)
(-0.00362286 -0.0927692 0)
(5.46389e-05 -6.0519e-05 -7.27133e-22)
(0.0115715 -0.0273037 1.75986e-21)
(0.00279778 0.00208997 -3.93068e-21)
(-0.00220855 -0.00573161 1.47004e-20)
(0.107081 0.0119439 9.35341e-21)
(-2.82285e-05 0.0331338 -9.0669e-21)
(0.0416 0.00689418 0)
(-0.00886938 0.00507355 5.14457e-21)
(-0.00253664 0.00639978 6.96833e-21)
(0.000600633 -0.000279588 3.76954e-22)
(-0.00722945 0.0271075 1.4195e-20)
(0.0618968 -0.0391501 -3.23427e-20)
(0.00495801 0.0491346 0)
(0.0128056 0.0250444 -9.57375e-20)
(0.00094694 0.00142446 -3.31728e-21)
(0.00119092 0.00724265 -2.03815e-20)
(-0.000383383 0.0051856 -3.00295e-21)
(0.0146424 0.0185006 0)
(-0.00835194 0.00555847 4.91934e-20)
(0.0320842 -0.000653525 0)
(-0.0233697 -0.00545242 -2.48818e-21)
(0.0214224 -0.0226385 -1.28656e-18)
(0.00396543 0.00068648 -3.38448e-21)
(0.0259005 0.0128196 0)
(-0.0160396 -0.00433055 0)
(0.000476866 -0.000305409 -3.40215e-22)
(0.0206956 0.0191217 0)
(0.00416852 0.00395173 0)
(0.013605 -0.00610079 -5.90657e-19)
(-0.0179748 -0.00629848 -8.53387e-21)
(7.62817e-05 0.00507117 -8.50123e-21)
(0.00121206 0.00163975 1.89696e-21)
(-1.28565e-06 -0.00158557 0)
(-0.202743 -0.335237 1.47002e-20)
(0.00359733 0.0224166 7.68603e-21)
(0.00624337 0.0202538 -3.30246e-21)
(9.47661e-05 -0.000307797 -1.14068e-21)
(0.00523321 0.0154292 1.10398e-20)
(-0.000286564 0.00211309 0)
(0.00136645 0.0206587 0)
(0.0208301 -0.0169021 6.16474e-21)
(-0.0173098 0.00153416 0)
(-0.00299672 0.00841222 -1.23203e-20)
(0.00106474 -0.00226997 8.89092e-22)
(0.0574619 0.0258841 -3.45438e-21)
(0.0145604 0.0485212 -7.32003e-21)
(0.100767 0.0131709 -3.3491e-21)
(-0.00849222 -0.0018434 -9.45833e-23)
(0.00300726 0.00767265 0)
(-0.0109322 -0.00699843 0)
(-0.0121063 -0.00302367 -1.38582e-21)
(-0.00197935 0.001191 3.70337e-23)
(-0.00148323 0.000198228 -4.66251e-21)
(0.000188592 1.13527e-05 -8.76973e-22)
(-0.0107285 -0.00299197 0)
(0.00172177 0.00985001 1.23504e-20)
(-0.0189941 -0.00317685 1.60657e-20)
(-0.00575809 -0.00960635 4.07334e-20)
(-0.0168111 0.00120037 3.09065e-21)
(-0.0087333 -0.00189012 0)
(0.000878533 0.0142385 -3.11233e-20)
(0.0145547 -0.0184657 9.77018e-20)
(0.00411446 -0.000953087 0)
(-0.00314629 -0.0138427 6.98872e-21)
(-0.00884587 0.0138217 5.81198e-21)
(0.0500572 0.0950854 4.80441e-20)
(0.00280854 5.69435e-05 -2.36328e-20)
(-0.014415 -0.0592174 0)
(2.32554e-05 0.00212964 1.49548e-21)
(0.0244771 -0.025629 -3.58189e-21)
(-0.33288 0.742728 -1.44743e-20)
(0.0309301 0.0095008 0)
(0.0211297 0.00130598 5.10122e-22)
(0.000271385 -0.00134678 -1.50601e-20)
(3.867e-05 0.000340921 0)
(0.0261944 0.0143789 -1.524e-21)
(-0.00335816 -0.000686037 7.71227e-21)
(-0.000496451 0.0022298 5.18904e-21)
(0.00821822 -0.00633683 -1.47639e-19)
(-0.0191875 -0.00351469 7.0821e-21)
(-0.00430027 0.0202067 7.75363e-21)
(0.00672715 0.00818899 -1.66557e-20)
(-0.000810111 0.0143655 2.45524e-22)
(0.000857976 0.0278367 -4.82416e-22)
(0.00547117 -0.000808877 1.4183e-21)
(0.0005478 -0.0019388 -1.99778e-22)
(-0.0161701 -0.0048394 -5.93895e-21)
(0.00418596 0.00342741 0)
(0.0350897 0.0110526 -1.7827e-20)
(-0.00326567 0.0104035 0)
(-0.00110896 0.00473071 1.78994e-20)
(-0.0120695 -0.00489707 3.54819e-21)
(-0.000981875 0.0153322 -1.05441e-20)
(0.00111466 0.0162024 0)
(-0.00656919 0.00740898 0)
(-0.00317327 0.000612091 9.13611e-21)
(-0.000836773 0.00203752 3.6309e-21)
(0.000396029 -0.000827301 3.32731e-23)
(7.9636e-05 -0.000918275 -2.70511e-23)
(0.000820873 -0.00107892 -9.82195e-22)
(0.0178564 0.00292073 5.68005e-22)
(0.010699 -0.0467555 0)
(0.0449212 0.0274785 -6.93673e-21)
(-0.0179038 0.000308575 0)
(0.055521 0.026107 9.02968e-21)
(-0.00046667 0.00291009 6.79287e-21)
(0.0308527 0.0087807 0)
(0.0151193 0.0186893 0)
(-0.00206998 0.00161744 3.41024e-21)
(-0.00385295 0.00508572 0)
(0.110543 0.0038011 8.51304e-21)
(-0.0128458 -0.00626888 -8.43208e-21)
(0.00020209 -0.00126551 0)
(0.000787766 -0.0136492 0)
(0.117744 0.00677487 5.838e-21)
(0.0208749 -0.0137618 -6.93708e-21)
(-0.00987336 0.0164282 -1.82533e-20)
(-0.0154484 0.00994659 0)
(0.0341845 0.0319175 5.06977e-20)
(-0.00621841 5.4638e-05 2.29731e-20)
(0.0504402 -0.0407255 0)
(0.0116586 -0.00773321 2.13012e-20)
(-0.0189586 -0.00321321 -1.18701e-20)
(0.00220531 -0.0153937 -1.802e-20)
(-0.00646428 0.0170395 7.77763e-20)
(0.0186547 0.00329968 4.29492e-22)
(0.000727976 0.00188513 -9.33035e-22)
(8.46545e-05 -0.00184246 -2.74176e-21)
(0.0495016 0.00540839 0)
(2.93658e-06 -0.00160098 -4.79242e-21)
(0.000530124 0.00216283 0)
(-0.0054258 0.0126693 3.66103e-20)
(-0.000701222 0.0131431 1.78886e-20)
(0.0235747 0.0143983 -3.02058e-20)
(-9.87891e-05 0.00104314 5.65686e-21)
(4.91935e-05 -0.00177512 5.16519e-21)
(0.00715813 0.0121767 -4.76623e-20)
(0.00183259 -0.00113419 -1.30616e-21)
(0.0110554 0.00483952 7.55259e-22)
(-0.00910118 -0.00195494 2.31196e-21)
(-0.0191709 -0.00313889 1.64608e-20)
(-0.0089563 -0.00191081 -1.01569e-21)
(0.0084267 0.00279228 -1.58775e-20)
(-0.0131762 0.00402667 1.13112e-20)
(-0.00183837 -0.00953993 -7.37334e-20)
(0.0310718 -0.000679974 0)
(-0.000605956 0.00174777 9.95103e-21)
(0.0113241 0.0031967 1.84911e-20)
(0.00352913 -0.0727463 2.91711e-21)
(-0.000381556 0.00119678 -5.41389e-21)
(-0.000873175 0.00345651 -6.06386e-21)
(0.000772163 0.00495287 -6.7073e-21)
(0.00128589 -0.00531957 0)
(-0.000348753 0.00144701 -9.54191e-21)
(0.0288264 -0.000482747 9.56823e-21)
(0.217209 -0.145889 1.63605e-19)
(0.00322302 0.00373382 1.98768e-20)
(-0.0188759 -0.00368889 7.46182e-21)
(0.082976 -0.000629142 2.4206e-21)
(-0.00247382 0.00200446 0)
(0.00914556 -0.00175912 -2.86647e-20)
(0.016659 -0.00777082 1.29853e-22)
(-0.0162265 -0.00448184 0)
(-0.00221012 0.000923958 -1.42988e-20)
(0.0189099 0.000894387 0)
(-0.00471185 0.00734672 -1.99685e-21)
(0.0037479 -0.0168538 -8.54606e-21)
(-0.000702023 0.00184886 -6.1068e-21)
(-0.0005429 0.00116067 -6.26307e-21)
(0.0235879 0.0190504 0)
(-0.00197237 0.00271472 0)
(0.018834 0.00343001 4.04531e-22)
(-0.01552 -0.0140197 5.30424e-21)
(2.84228e-05 -0.000227528 0)
(0.000646877 -0.00143613 0)
(0.028235 -0.0249248 -3.72261e-21)
(-0.0162439 -0.00357067 0)
(0.125645 0.0029662 0)
(0.000133685 0.000142296 -1.34998e-21)
(0.000194573 -0.00102194 0)
(0.00192399 -0.000485436 -6.19828e-21)
(0.000726845 -0.0020852 -2.45244e-21)
(0.0107546 0.0195902 0)
(0.000619308 -0.000856505 1.12185e-20)
(-0.0599754 0.0694859 -1.05133e-20)
(0.0359821 0.0282431 3.07261e-21)
(0.015879 0.0348429 -1.75749e-21)
(-0.00169798 0.001187 4.71744e-21)
(-0.016332 -0.00374963 4.55083e-21)
(-0.0136186 0.00400245 -8.70632e-21)
(0.00197795 -0.00237709 6.49464e-22)
(0.00333212 -0.0360612 -6.94332e-22)
(0.000942566 -0.00200241 0)
(-0.0187325 -0.00178077 1.34383e-20)
(0.0144387 0.016024 0)
(0.00104305 -0.000823344 -1.80153e-21)
(0.000436787 -0.00118779 -8.48785e-23)
(0.000779814 -0.00161157 4.87654e-22)
(-0.00170043 0.0030845 0)
(-0.186903 -0.15493 -1.13726e-20)
(0.0262582 0.0148184 1.2894e-20)
(0.00121784 -0.00175302 4.67238e-22)
(-0.000772957 0.00121998 3.73858e-21)
(-0.00669174 -0.00413296 9.33349e-21)
(-0.00873483 0.00706395 -1.56869e-20)
(0.00306759 0.00236854 1.65855e-20)
(0.00865689 0.0191166 -6.64738e-21)
(0.0180149 0.00304482 -4.61861e-22)
(-0.000387189 0.00139314 0)
(0.000370978 -0.000269796 3.61427e-22)
(-0.00503618 0.00735281 -4.91238e-20)
(0.0264176 0.0174271 -4.32899e-21)
(0.00557228 0.0308395 2.1798e-20)
(-0.00315881 0.00910437 0)
(2.44804e-05 -0.000183098 -1.08146e-21)
(0.0293442 0.0162639 -2.15728e-21)
(0.00540499 -0.00118133 -1.33227e-21)
(4.78833e-05 0.000647653 -1.3547e-21)
(-0.00075714 0.00117121 0)
(0.0874953 7.48603e-06 -2.83062e-21)
(0.0196138 -0.0272837 -3.56642e-22)
(0.000416964 -0.00162289 1.23738e-21)
(-0.00917982 -0.0353214 0)
(0.00958222 0.0191489 0)
(0.000361777 0.000814386 8.46597e-22)
(0.107228 0.00332587 0)
(-0.00595614 -4.74795e-06 -2.01743e-20)
(-0.00250471 0.00120362 3.65517e-21)
(0.00444701 -0.00131924 6.8446e-21)
(0.00192805 0.00298041 0)
(-0.00276079 0.00822859 8.27635e-21)
(0.00274639 -0.0164858 1.00226e-21)
(0.024683 -0.010674 3.05967e-21)
(-0.0265259 0.0305651 -3.41676e-19)
(0.00038518 -0.00149179 8.21154e-22)
(-0.0187242 -0.0019885 -7.4517e-21)
(0.0184103 0.0070306 -1.03156e-21)
(0.000273279 -0.00912894 7.18449e-21)
(-0.0025059 0.00967696 -2.5328e-21)
(0.0166209 -0.00937707 0)
(0.000130645 -0.00195543 1.74063e-21)
(-0.00206133 0.00422893 0)
(-0.0370407 -0.00618296 -1.82752e-20)
(9.25721e-05 -1.82248e-05 2.58517e-21)
(-0.000743768 0.00192707 6.55754e-21)
(0.0166707 0.0185464 2.25543e-21)
(-0.00605099 -0.0118609 -4.13397e-21)
(0.000927895 0.00203548 1.66315e-20)
(0.00236128 -0.000345103 0)
(-0.137818 -0.550113 1.15477e-20)
(0.0327236 0.00438329 0)
(0.000339258 -0.000239972 1.04202e-21)
(0.000156004 0.000158137 0)
(-0.00106883 0.0014052 0)
(-0.0136451 0.000135087 1.08761e-20)
(-0.00836405 -0.00205797 0)
(0.0282685 -0.329358 -3.30366e-19)
(-0.15296 0.347332 -6.7035e-19)
(-0.00280543 0.00670359 -3.054e-21)
(-0.0141949 0.0315421 0)
(-0.0101408 -0.000900592 2.49982e-21)
(-0.00921369 0.0168433 6.32153e-21)
(0.000448688 0.00235095 8.92726e-22)
(-0.00400612 0.00836416 -1.34627e-21)
(0.0153562 0.00229439 0)
(0.00100825 -0.000268099 5.71281e-22)
(0.0155977 0.0027807 0)
(0.0033752 0.00365833 0)
(-0.00659553 0.00923528 -3.83862e-21)
(0.0166714 0.00427102 0)
(-0.0108045 -0.0869337 -1.39726e-20)
(0.116931 0.00482759 -1.65045e-20)
(0.000999683 -0.000471214 0)
(0.00943592 0.00286986 0)
(0.0136925 0.0236457 -4.36173e-21)
(0.0880153 -0.00406399 0)
(-7.11507e-05 0.000832839 3.73408e-21)
(0.032029 0.00154507 0)
(-0.000215518 0.00634935 -2.66845e-21)
(0.0179871 -0.00810888 -2.68269e-21)
(-0.00989239 0.0385591 3.82093e-21)
(0.0256745 0.0209012 -4.26629e-21)
(-0.00218264 0.0104051 -4.05022e-21)
(-0.0158659 -0.000591266 -2.55439e-20)
(0.0471311 0.0271474 -2.38303e-21)
(0.000262081 0.00117951 4.57357e-21)
(0.00324918 0.0218611 0)
(0.0439051 0.00586164 0)
(0.0211067 0.00347226 1.95507e-18)
(0.0375063 0.00458998 1.84573e-20)
(-0.0020735 0.00366479 -6.73497e-21)
(0.0194078 -0.0433797 0)
(0.000472212 -5.47863e-05 -1.64427e-21)
(0.0014373 -0.0106605 -5.88022e-22)
(0.0199574 0.00566123 1.64949e-21)
(0.0166298 0.0105967 2.26036e-21)
(0.0170061 0.00964272 2.83864e-21)
(-0.00165969 0.00219164 0)
(0.00158714 -0.0051535 -2.12239e-21)
(0.0161477 0.00975404 -5.07147e-21)
(-0.000850351 0.00320683 4.6795e-21)
(-0.00219792 0.0315334 0)
(0.0131791 0.170388 0)
(-0.0184059 -0.00312352 3.7013e-21)
(0.0020737 -0.00334593 1.9037e-21)
(0.0104694 0.0204476 0)
(0.104913 0.0103834 3.98963e-21)
(-0.0014983 -0.0039317 -6.33119e-21)
(-0.00379197 0.000261875 -1.34927e-20)
(0.0259258 0.0129352 8.24091e-22)
(0.0147391 -0.00580458 4.25442e-22)
(0.000135234 0.000361988 7.64798e-23)
(-0.00148692 0.00141413 0)
(-0.00807076 -0.00736971 0)
(-0.00011947 5.44955e-05 4.05755e-22)
(0.00038587 0.00112244 -2.51674e-21)
(-0.00100957 0.000721525 0)
(-0.00214646 0.00243126 -6.87049e-21)
(0.000456054 0.00861902 0)
(0.0199434 0.0319042 -5.62494e-20)
(0.00240672 0.00298312 1.33931e-21)
(0.000468966 -0.000527932 -2.51612e-22)
(0.00123298 -0.000250303 0)
(0.000122861 0.000847066 1.15271e-20)
(-1.55803e-05 -0.000280038 -8.00741e-22)
(5.61503e-05 -0.00033572 2.41146e-21)
(0.00164697 -0.00160406 -3.04381e-21)
(0.000842089 0.000524617 -3.58828e-22)
(-0.00402153 0.0326403 1.8571e-22)
(-0.0082935 -0.00183032 1.66198e-21)
(-0.0171476 0.00116861 -1.22477e-20)
(-0.0191425 -0.0033036 -3.89173e-21)
(-0.0317958 -0.0847129 -7.55101e-21)
(0.0100569 -0.0298786 -1.64632e-22)
(0.00148966 0.00324543 2.22316e-21)
(0.00135248 0.00399198 0)
(-0.0444714 -0.0627844 -6.12638e-19)
(-0.0103259 -0.000776832 0)
(-0.00246151 0.00500628 2.44689e-20)
(-0.00371138 0.00272542 -9.39253e-21)
(-0.00230937 0.013962 2.84677e-21)
(-0.00264806 0.00362759 1.00088e-20)
(0.0237692 0.0158817 -1.0685e-20)
(-0.0110846 0.0128247 3.11587e-21)
(-0.00321797 0.000330383 -2.15198e-21)
(-0.00162386 0.0108606 0)
(0.00105611 7.00158e-05 0)
(0.0240083 -0.0234596 0)
(0.000146865 -0.000862978 -5.52421e-22)
(-0.00332898 0.00257208 1.11631e-20)
(0.0166127 0.00900683 -1.58993e-22)
(0.00704706 0.0288442 1.36e-21)
(-0.012167 -0.0218655 5.48187e-20)
(0.00618637 0.00277816 0)
(0.00717061 0.00155993 0)
(0.0040696 0.0307234 0)
(0.00135719 -0.000922653 -8.14092e-21)
(0.000588834 0.000646281 1.9119e-21)
(-0.000167413 -0.000565757 8.1878e-22)
(-0.0191352 -0.00303162 -1.69773e-20)
(0.00535834 -0.00931472 2.22555e-21)
(0.016067 0.0119797 2.63909e-22)
(0.0350722 0.00203462 0)
(0.00112128 -0.00170616 -1.5059e-22)
(0.0554087 0.0852549 0)
(-0.00500551 0.0321249 1.10513e-21)
(0.000104011 0.000391992 1.00079e-21)
(0.00459707 0.0103834 2.06856e-20)
(-0.0113031 -0.00549286 2.02333e-21)
(-0.00738785 0.0169899 4.17634e-21)
(0.002386 0.00339475 -2.28866e-21)
(-0.000384224 0.0143443 4.28424e-21)
(0.000304872 -0.000395639 0)
(0.0141952 0.000559009 -6.91352e-20)
(0.000536276 0.00083127 0)
(0.028518 0.00066736 0)
(0.0421122 0.00318601 0)
(0.250725 -0.298943 -4.33444e-19)
(-0.0090098 -0.00278371 -5.27272e-23)
(0.017726 0.0117052 -2.09629e-20)
(0.0331437 0.0837235 1.05905e-20)
(0.0318811 0.020799 7.63665e-21)
(0.0310707 0.0108753 1.37341e-20)
(0.0211663 -0.0172226 -5.87762e-20)
(-7.93224e-05 0.014344 0)
(0.00838975 0.0232933 -8.49676e-21)
(-0.000430709 0.0019665 -7.79729e-21)
(0.00657275 0.00624043 1.64381e-21)
(0.102262 0.013376 0)
(4.88349e-05 0.00032192 -6.07835e-23)
(0.00589499 0.000235207 0)
(-0.0131945 -0.00867988 0)
(-0.00873793 -0.00323177 3.67446e-22)
(0.03572 0.00495404 -1.92849e-20)
(-0.000587324 0.0140858 0)
(0.000981719 0.0295787 9.04008e-21)
(-0.0182968 -0.00308313 -3.60674e-21)
(0.0277959 0.0131221 1.52108e-21)
(-0.00132707 -0.0334198 -9.21789e-21)
(-0.0082861 -0.00197934 -4.59042e-23)
(0.00627714 0.0396908 -4.57988e-20)
(0.0194792 -0.000434874 -5.2402e-20)
(-0.000191251 -0.00257633 -1.43614e-21)
(-0.0187167 -0.00309557 0)
(0.00314037 0.000436381 -1.3347e-20)
(0.022823 0.00170397 -1.49156e-21)
(0.00240438 0.0127399 -1.3005e-21)
(-0.0118707 0.00124633 8.67353e-22)
(-0.004046 0.0198806 0)
(0.000139881 0.00267352 2.80157e-21)
(-0.000839493 0.0133098 -1.13542e-21)
(0.00110956 0.000969097 -1.67003e-21)
(0.000615508 0.0220813 2.04004e-20)
(0.0325791 0.0023617 0)
(0.0407127 0.00755641 1.06625e-19)
(0.0395368 0.00363513 1.06286e-20)
(-0.0177662 0.001037 -6.05879e-21)
(0.00149701 0.0210172 -9.72716e-21)
(0.00151038 -0.00280002 -2.08033e-22)
(-0.000116865 -0.00473238 0)
(0.0259654 0.0163909 0)
(0.0984024 0.155412 8.13608e-20)
(0.0121936 0.00583553 -4.85377e-22)
(-0.00285978 0.00196761 7.48955e-21)
(0.00498078 -0.0240399 2.349e-19)
(0.00910621 0.0217274 1.9419e-20)
(0.00171202 0.00109457 0)
(0.00410064 0.00315433 1.40735e-21)
(0.0227471 -0.00621113 5.50985e-21)
(-0.0168797 0.0229166 0)
(8.12634e-05 0.000252052 -5.10948e-21)
(0.00750623 0.00826934 -1.83251e-20)
(0.12347 0.00318826 3.09963e-20)
(0.00228985 0.0318861 -2.56581e-21)
(-0.0173501 0.124907 9.53421e-20)
(-0.0081654 -0.00173975 0)
(-0.0126178 -0.00591157 1.05137e-20)
(0.0014814 -0.00211379 4.87781e-21)
(0.027936 0.00912145 9.55749e-21)
(-0.00264238 0.00869695 -9.16446e-21)
(0.000269194 0.000505748 1.5216e-21)
(0.00657538 0.0209896 -6.82079e-21)
(-0.00197627 0.00214557 1.26204e-20)