/*--------------------------------*- C++ -*----------------------------------*\
| =========                 |                                                 |
| \\      /  F ield         | OpenFOAM: The Open Source CFD Toolbox           |
|  \\    /   O peration     | Version:  v2012                                 |
|   \\  /    A nd           | Website:  www.openfoam.com                      |
|    \\/     M anipulation  |                                                 |
\*---------------------------------------------------------------------------*/
FoamFile
{
    version     2.0;
    format      ascii;
    class       volScalarField;
    location    "100";
    object      ddt0(omega);
}
// * * * * * * * * * * * * * * * * * * * * * * * * * * * * * * * * * * * * * //

dimensions      [0 0 -2 0 0 0 0];


internalField   nonuniform List<scalar> 
14479
(
-0.0202252
0.00973698
0.000245196
-0.0219326
-0.0163336
-0.00888243
-5.65387e-06
-1.70293e-05
0.000241437
0.0204562
-0.0546476
-0.023036
0.00448612
0.0829081
-0.00170528
-1.17602
0.530211
0.560227
0.422572
0.00253563
4.77684e-06
-8.13867e-05
-0.653294
0.246977
0.000443071
0.0143171
0.00677961
0.0214501
0.467006
0.00130739
-0.188467
-0.0426121
0.419008
-1.88439e-05
-0.000299886
-1.53449e-05
-5.27941e-06
-0.0592821
0.000826041
-0.351409
0.00348096
9.9987e-05
0.00346334
-3.81211e-05
-1.56775
0.00645472
0.0576876
-0.180317
-0.000467211
-0.00834638
1.2607e-06
0.427356
0.00109478
0.0696
-0.000276959
-5.70411e-05
0.0546638
-0.00163485
-3.74603e-05
-0.0363578
-7.08218e-05
-2.48295e-05
0.500735
-0.0575066
-0.0358488
0.0202732
0.00127625
0.000348879
-0.0018138
0.350735
0.014681
-0.0261036
0.188242
0.0159316
5.58519e-06
9.57335e-05
0.00723575
-0.0141215
0.289146
0.0109103
-0.324548
-2.13125e-07
-0.0010284
-0.0115724
-0.000156587
0.00652782
-0.0156739
1.49222e-05
0.00438725
-2.68715e-05
0.0102145
0.00995298
-0.0826087
0.0691464
-0.00124113
0.412904
-0.00014729
0.0100624
5.123e-05
-0.0057849
-0.221166
-0.00528838
0.0267112
-3.96103e-06
-0.00110678
-3.96669e-05
0.00772051
0.205663
0.0580954
0.000671589
-0.00121235
0.000103858
0.269769
0.0101071
-0.00401076
0.000131287
-0.000265456
-0.19009
0.00109343
-0.0100736
-0.000205554
9.87214e-06
-0.0406004
0.000307258
-0.00571004
-2.48132e-05
0.000535213
1.91178e-05
-9.02544e-06
-0.00131166
-5.33559e-05
-0.588276
-0.125655
-2.57473e-05
0.00415068
-0.0294676
-1.52304
8.51156e-05
0.421237
-0.0224791
6.08404e-06
0.0887893
-4.80393e-05
-1.47089
-0.0615813
-0.000171343
0.0827081
0.000319201
-0.0106405
-0.000404338
0.405616
0.000143146
-2.01867e-06
-0.258267
0.185518
-0.000213395
0.0277774
-3.35566e-07
0.23308
0.31344
0.0271518
0.376702
0.335098
-0.0155169
-0.011878
-0.0845147
-3.68404e-05
0.342285
-6.94465e-06
-6.61022e-05
-1.20632e-05
0.00553049
1.32038e-05
0.00431254
-1.95216e-05
0.355244
-1.52084e-05
0.000187702
0.0178618
-9.2326e-05
-2.86018
4.72397e-07
8.98421e-05
-0.0928182
9.34917e-06
0.0187466
0.000100076
-0.000158214
-1.70834
-5.11001
2.22245e-06
-0.00526089
0.000831482
-1.50778e-06
0.0668611
0.312036
-0.815267
0.0199739
-0.00251474
-3.87208e-05
-0.00101046
-0.163546
0.093175
-0.119396
0.00937128
-0.000367491
0.000300917
-0.0202896
-0.000375479
-0.0346257
0.0531056
0.00815892
-0.000357341
-0.00158067
1.33859e-05
-0.0746268
0.00162557
0.0466446
-3.14481e-07
0.0183834
0.722489
-0.0326407
0.00129975
-0.000967623
0.552356
-0.0289877
-0.000276391
-0.000109162
-0.0330174
-1.51089e-06
0.000246765
1.14745e-06
-0.000841253
0.0902062
0.000948148
0.000119635
0.077414
0.0436926
8.22789e-06
-0.000691545
-0.0276428
0.0154874
0.000110681
-0.00842004
0.00662342
0.0761747
-9.17363e-05
-6.48154e-05
-0.0463904
-0.026814
-1.18074e-05
-0.0279856
9.26588e-07
-2.54112e-05
-0.0316249
0.113937
1.10945e-05
-0.0658658
0.0025201
0.17869
-0.0713837
0.302253
0.00943725
0.0019778
8.28625e-06
0.00373536
1.25293e-05
-0.00103073
0.0202848
0.00255579
0.111589
-2.08817e-06
-0.073535
8.91047e-05
0.000232528
-0.257793
0.20736
-0.000393337
-0.0520319
-0.0114711
-0.0738727
-0.0451429
0.0255137
-0.443566
1.78998e-06
6.93239e-06
-0.274285
0.000206574
0.118789
0.0146898
-6.27334
0.0126349
0.0580839
0.0517818
3.40171e-05
0.00835643
-0.000220397
0.00740011
-4.46904e-05
-0.00315451
6.31059e-06
-0.0447198
-5.01241e-05
-0.0154303
0.0262369
0.0486544
0.293462
-0.220957
0.000970666
0.00122708
-0.0306419
0.008709
-0.123871
-7.37907e-05
-0.000796289
-3.36925e-06
-0.0235248
-0.00286349
-1.28028e-05
-2.69288e-06
-0.000480381
2.17208e-06
0.000151007
0.831738
-0.0384816
-0.41819
0.418114
0.0094563
-0.0543548
5.53188e-05
-0.000978299
0.0117891
0.0289602
0.0380226
0.0164743
-5.32215e-06
0.00168937
-0.0798834
-1.00424
0.0179389
0.410366
0.000850741
-0.0191121
-1.35728e-05
0.0282059
-5.35338e-05
-0.00673886
-0.00413376
-2.92679e-05
0.0213973
0.0548083
-0.0510194
0.000408955
2.70007e-06
-0.198148
4.58593e-06
1.38608e-05
-0.0332042
-0.00119146
-6.26576e-05
-0.000172423
0.0685704
-0.0495936
-7.40944e-05
-0.0557635
-0.00241188
0.00967053
0.041043
-0.0587494
0.0776677
-0.011287
0.349524
-0.00176275
-6.18448
0.0297962
0.271249
-0.00355656
0.00433726
1.22897
-0.000137492
0.000250358
-0.000720825
-0.0778976
0.00457568
0.328898
-0.102723
2.08824e-06
-0.034052
2.92148e-06
0.0587262
0.000301353
-0.00333539
1.92449
0.0560655
0.304179
0.00640555
2.53173
1011.62
-8.04683e-05
8.28114e-07
0.354766
-0.0962627
0.0196371
-0.00296864
0.0744238
0.00121317
0.0418956
-0.0469925
-0.0299627
-2.06537e-05
0.0138011
0.0187299
-1.51436e-05
1.30561e-06
8.93691
-1.25973e-05
-0.301513
-0.233622
4.08113e-08
0.0189919
-0.000203449
0.00430047
0.391983
0.0423869
0.413058
-0.0137589
-0.0310751
-3.31975e-06
-0.00498733
6.55924
-0.320435
-0.124925
0.0391879
-0.000210734
-0.0102283
-0.00594385
-0.0213397
0.00586789
-0.374699
-0.221961
-0.0492
0.0120348
-0.0170267
-3.16701e-06
-0.0497194
-0.00169361
0.0176918
0.0290906
-0.0017307
-0.000479205
1.20994e-06
2.34023
0.0200636
0.0455342
1.10038e-07
-0.246377
-1.73929e-05
-0.0422743
0.0576568
-0.0137555
-0.00047135
-2.96999e-05
0.306865
-0.145772
0.40368
0.0460621
-0.000880799
0.191153
0.0563276
-1.19707e-05
-2.28312e-05
1.74364e-08
0.00667441
0.259691
0.0567139
0.837025
-0.0224905
0.0279809
-0.00122172
-0.156292
0.000605826
0.132465
-0.0169122
-0.0370092
0.00107949
-0.0626651
-5.42651e-05
0.0134168
11.5108
0.00649475
0.134557
7.82707e-06
-1.10458e-05
-0.00400353
0.081492
8.4552e-06
0.00242153
-0.0242035
-0.0413969
0.00197812
-0.00150001
-0.0126179
-0.000449819
3.39155e-05
-0.0202162
0.255226
0.400854
-0.00475564
-0.000368721
-0.0152088
-0.0134068
-0.00838617
-0.00161519
-0.116981
-6.60249e-05
6.17867e-06
4.2908e-06
3.54469e-06
-0.328464
0.0331767
0.268256
-0.0199075
0.305095
0.0825773
0.00831183
-0.00758049
-0.000155014
-0.00155311
0.255385
-0.0119974
7.24247e-07
-0.0439567
0.329064
0.0711027
-0.0112824
0.00372555
-0.123007
-0.137463
-2.7758
0.309676
0.0674569
0.204795
-0.00295332
-0.0814594
-4.45712e-05
3.84047e-06
0.412122
-5.45523e-08
-0.000469218
-0.00423501
0.0016415
0.358249
-2.07888e-05
4.23195e-06
1.16817
-0.000157145
-0.151951
0.0326631
-0.025563
0.0226603
0.0137397
-0.0211109
0.000613861
0.00744391
-6.53968e-05
-0.0731414
-0.000769144
-5.13916e-05
8.76864e-05
-0.000727757
0.00278922
-4.07608e-05
0.0119884
-2.93338
-0.000184754
-0.0271437
-0.850191
-5.58704e-05
-0.000498707
-0.0235539
-0.0157396
-9.13197e-05
0.0017831
-0.000498671
0.175665
-5.62195e-05
-2.90412e-05
-0.0045979
-0.0585539
-0.0538986
-0.00230369
1.50129e-06
-8.18984e-06
0.00497183
0.113027
0.0658517
-7.08784e-06
8.7513e-06
-0.000165691
-4.62497e-05
0.231878
1.20271e-05
-10.4578
0.235748
1.08936
-4.55033e-05
-0.000824237
-0.0180469
0.000157753
0.00843451
8.56445e-05
-0.0284254
0.00290712
-1.30747e-05
2.17037e-06
1.07493e-05
-0.0547994
0.793856
0.351606
2.04773e-05
-3.33521e-05
-0.000701514
0.00061714
0.00174579
0.217105
-0.199382
-4.67496e-05
8.03817e-06
-0.00125805
-0.00406479
-0.00414026
-0.000771282
1.6795e-06
0.463073
0.00138821
2.66578e-07
-1.51259e-05
-0.653452
1.22165
5.68428e-06
-0.322033
-0.355433
-2.7591e-05
0.307747
-0.1317
-5.13248e-05
-0.0010825
-0.000263384
-0.000491676
0.165704
0.0514852
-0.0280754
3.1503e-05
-0.0296668
0.0132945
0.181431
0.23406
0.00420982
7.04644e-06
0.00196171
-0.0914517
-4.67875e-06
1.33158e-05
-0.00794261
0.102478
0.00115993
-0.000137261
1.1292
0.397612
-4.1587e-06
-5.12152e-06
-0.00222575
-0.0476967
-0.00201591
20.0357
2.27369
0.244034
-0.00433962
-0.0695966
-0.00876028
-0.000211918
0.000542148
0.0507767
2.87108e-06
0.036906
0.00120196
-0.00624942
-0.0863524
0.0158239
0.155964
7.90182e-05
0.00148376
0.100286
-0.583991
0.0508013
0.379309
0.262193
0.281534
-0.00520636
-0.0564228
-0.0121384
0.136371
0.211908
-2.83788e-05
1.29657
0.414793
-0.237435
0.400906
0.0015199
1.26289
-9.16899e-06
0.000155793
0.0231493
-0.046187
8.16289e-05
-0.000144778
0.000139902
-0.0490431
-0.0551285
0.0294581
-0.643183
0.0784495
-0.000489727
0.210364
-0.519556
-0.000118597
0.356812
0.00859139
0.325404
-1.75758e-05
-0.000677864
0.0556263
4.98891e-08
-3.31044e-05
-2.23567e-05
-3.23376e-05
-0.00470057
0.00785832
-0.000933815
4.25845e-06
-2.07366e-05
-6.62878e-06
1.38597e-06
-2.96886e-07
-0.000303369
0.0728728
-1.14646
0.00207307
-0.0192007
-0.0262813
-0.291931
0.014081
-3.61618e-05
-0.000160788
-0.0123433
-0.0857674
0.000639816
-0.0540156
0.00316501
0.000558119
0.0284203
-0.00143642
-0.150107
-0.0110689
3.61883e-05
0.0823454
5.87903e-06
-0.0574601
-0.00153715
0.0451608
0.013493
-0.0332404
5.52181e-06
-0.0236435
-2.9026e-05
-0.24362
0.0677601
-0.0277055
-0.0002331
-0.0440741
0.372395
-7.71335e-06
-0.960885
-1.07441
-8.02622e-06
-0.00115828
-0.0115859
-0.0430001
0.000349684
0.19058
3.66428e-06
-0.167134
-0.190854
0.0138637
0.333425
8.45207
0.00287377
0.450885
-0.168011
0.0293245
0.390927
0.000613965
-0.00340648
0.035183
-2.74169e-05
-0.0274864
0.402674
-7.97406e-06
0.0343058
0.102286
0.00292254
0.400906
-4.58781e-06
-0.0115547
0.0344682
0.00375774
0.0221025
0.0355094
-0.00485782
-0.0217054
0.00137302
0.0304724
-0.00114116
0.0243366
-0.00341977
0.739328
0.0133535
-0.000466989
-0.0204997
-3.1395e-05
0.00340912
0.395127
1.04158
0.40247
-0.00958594
-0.0679821
0.0718325
0.000510071
-0.00541163
-0.418597
-0.0871242
-0.000100772
-0.00022582
0.054384
-0.20209
0.00108553
0.288558
0.0809167
-7.0296e-06
-0.00608922
-0.0856091
0.0365241
0.026517
0.0471697
-0.0138515
1.2183e-05
0.013362
-0.00236323
-1.23039e-05
-0.000285387
-8.02308e-05
2.40076e-05
0.00017137
-0.00777663
-0.000833145
-0.00539164
-0.000150599
-7.24504e-06
-2.51242e-05
-1.28123e-05
0.0410053
-0.0221584
0.299882
0.0011138
-0.0179349
0.354746
0.0116512
0.386389
0.064815
0.016924
-0.212533
0.801223
-0.027451
0.00564008
-8.10094e-05
3.02794e-05
-4.63706e-05
0.0123652
-0.0162994
-6.88729e-05
0.0128517
-0.000415289
-0.0104135
0.0855131
-8.25964e-05
5.08796e-08
-0.00345003
-0.173161
0.026082
-0.00169259
0.00799953
-2.046e-06
0.0381815
-0.000173731
-0.000546593
9.92269e-06
0.000323938
-0.00854514
0.0190944
0.134592
-0.0533631
0.408209
5.17445e-06
0.0851194
0.0163402
-5.44413e-05
3.73826e-06
0.204542
0.350385
-0.173724
-0.00245706
-1.64147
0.0109789
-0.599269
-3.04934e-06
3.08379e-06
0.104957
-0.0171131
-0.0202738
-0.00386663
0.00285293
-1.0278
-0.00415947
-1.33335e-05
0.0773152
-0.0178052
0.360774
0.404345
0.0303849
0.779098
-0.000162566
0.753763
2.8459e-08
-0.00514967
-3.504e-06
-0.000273539
-0.00518054
0.0108005
-0.138323
5.81332e-06
0.385305
0.000569605
-0.0110274
0.368748
0.0154047
0.000584659
-0.0279281
0.011275
3.29499e-10
0.000110389
6.17007e-06
0.32227
-1.70819e-05
8.09481e-09
-0.147311
-0.276418
0.356522
0.00416134
-5.91258e-06
-9.24308e-05
-10.0529
-0.14436
0.243836
1.57932e-07
-0.736299
-0.0190642
-0.00200057
-1.63448e-05
0.00259726
-1.06628
0.00234298
-0.042088
-0.00119566
-0.000658927
-0.0322717
-0.00149497
-0.182926
-0.0111657
5.15035e-06
0.0118619
2.22161e-06
-0.000187062
0.0466656
-0.0430571
1.12606e-05
-0.771729
0.000190601
-0.000587259
-5.30852e-05
-0.000100676
-0.0541878
4.56959e-06
0.226255
-0.00090623
0.0207296
-4.6334e-06
-0.00532134
0.127211
-6.83579e-07
0.00905707
-0.00165013
0.00608511
0.0106525
0.189909
-0.00231434
-0.10333
-0.000110638
0.0238085
0.242972
0.017595
3.88459e-06
2.48557e-05
0.0247119
1.09049e-05
0.147738
0.0815012
0.027108
-0.00603573
0.0792249
0.103619
0.323773
7.02405e-05
-0.00173317
-0.0360074
-0.00140121
3.02046e-06
-0.000302902
-0.441632
-0.00798011
0.0348601
-0.000903525
-0.0204051
-0.427238
0.255506
-0.149265
0.0251653
-1.93631e-05
-0.0587829
0.0119616
0.245242
-0.0567819
-0.000473785
-0.00829021
-0.0180917
-0.00243974
0.540331
0.0550674
-1.10394
0.457598
2.82434e-05
0.140237
1.99659e-05
-3.98348e-07
-0.00158406
1.95866e-05
0.407681
0.0783628
-0.0688542
-0.0536166
0.394639
-0.0283829
-0.0208239
-0.099124
-0.00572288
0.0117354
-0.174281
0.104233
0.864262
-1.29425e-05
-2.21126e-06
0.00532359
-0.000175488
0.0102398
1.28127e-05
-0.00614497
-0.000262087
0.077848
0.00280757
0.0112344
-2.20911e-06
0.0110708
0.151318
0.146988
1.3882e-06
-3.77221e-05
0.0582061
-0.418234
3.20176e-05
-0.00459909
0.00143503
0.181613
0.0709077
-0.000756896
-9.64582e-07
0.0266775
0.0453551
1.26698e-05
0.00289056
-0.483849
0.12438
0.00166844
-0.011599
-0.210001
-3.98333e-05
3.24724e-08
0.0688749
0.0498215
0.062696
7.74161e-07
0.101367
-0.00274822
-0.0232423
-1.21724
3.35939e-05
-5.50096e-05
2.41039
0.00540817
-0.011985
-0.0193137
0.000215148
4.18133e-07
0.00170419
0.0143839
-0.000222453
-0.00686778
-0.0523882
0.000673078
0.150215
0.336078
0.16336
1.65416e-07
0.00841507
-0.243221
-0.00387511
-0.00650657
-0.0109226
0.0521355
-0.023159
-0.00329596
-0.000129333
-1.36792
-2.78061e-05
-0.000217478
-0.130863
4.62757e-06
0.233613
-0.000181716
5.30006e-06
-0.363363
0.0290526
0.0624398
0.0730227
-1.59874
-0.00036785
0.013245
1.55609e-06
0.00316634
-1.77571e-05
0.394861
-0.0416474
-0.00860067
0.00250335
-0.00984159
-0.100765
0.0882446
-2.81548e-05
0.00107746
-0.000748466
-0.0175986
2.83665e-06
2.49144e-05
-0.000292582
0.0456768
-1.24565
0.145453
-0.0581139
-0.343881
0.00713598
-0.000157841
-0.00236389
0.000372514
0.343358
0.402531
-0.0201586
-2.72526e-05
0.00321013
-6.46873e-05
-1.49041e-05
-2.64783e-05
-2.1798e-05
-5.711e-06
0.293282
-1.33873
-0.00915965
-0.0586984
0.0252196
-0.000125654
0.00148351
-0.0294592
-4.3372e-06
-0.00168429
0.388137
6.04308e-06
-1.41459e-05
-0.00353052
-0.0394515
-3.31199e-06
-0.0224794
-0.554964
-2.48154e-06
-1.99899e-06
0.0205868
-0.870499
-0.929941
0.0181078
5.29832e-07
0.121765
-0.00133319
-1.38988e-05
0.0472824
-4.89534e-05
-0.26651
-0.139186
-0.0123166
0.0262341
0.365478
-0.00390888
-1.64057e-05
-0.676597
0.190715
-0.000524074
-0.130052
-0.000613905
-0.00173149
0.376116
-4.00314e-05
1.12084e-06
-0.0091029
-0.102677
0.16137
0.0233292
-3.14696e-05
0.0446776
3.86275
-0.487374
1.7654
-0.00819224
-6.25334e-05
0.100558
-0.000484922
-0.0118248
-0.00133297
-2.16387e-05
0.053875
-0.00850406
4.16448e-06
0.0178183
0.411441
0.225434
0.0322662
0.000867238
2.34139e-06
0.0905255
-0.00514189
0.206258
0.08406
-0.0087163
0.361935
4.22464e-05
0.0203941
0.0478916
-0.519285
0.00873538
-0.040288
0.0189537
-9.15732
-1.99034e-05
-2.85877e-05
-0.0610883
-0.0106443
0.00067737
0.00417975
-0.431766
-3.11173e-05
-3.75589e-09
0.0507055
0.000958456
1.19374
-0.605288
0.000263712
0.3123
0.0197909
-0.00335154
-0.0409889
-1.62777e-05
-0.0200951
0.015326
0.0112246
-0.0212941
-0.050369
-1.21401e-05
-0.0238348
0.215816
0.000885064
-0.015242
-9.4049e-05
0.0070861
0.00446353
0.0854767
0.000110083
-4.28811e-06
-0.0145095
-0.0693084
6.8748e-06
0.201613
-0.0213162
0.0395317
-0.0154046
0.0971516
-16.2443
-0.943
0.356658
1.7514e-06
2.15012e-07
-0.434468
-0.000132165
0.396568
-0.0185234
1.04859e-06
-0.0177434
-3.29785e-05
5.1014e-06
0.0982069
-0.0187259
-0.061609
-0.000240333
-0.0021703
-2.43215e-06
-0.0262028
-0.000104539
-0.0033497
0.357737
-5.98277e-05
-0.0227282
-0.974307
0.167677
-0.0665717
0.195703
-0.00414478
-1.3685e-05
0.40522
-0.00786386
-0.686651
0.00105116
-0.135865
6.63249e-06
0.252306
0.018451
-0.0347872
-0.0469798
-0.0146306
5.01757
-3.57067e-05
0.33943
0.44381
-0.0172431
6.89134e-06
-0.000281575
0.0240328
-0.458229
-0.807741
-0.0782463
0.000310045
-0.0834156
0.000826201
0.00230748
-0.0138794
0.00307949
-9.82653e-05
-0.000133795
-1.05514
-0.92543
-0.010982
0.403882
-0.0221412
-0.0484235
0.00981099
-0.000857024
-0.0022578
-1.53377
-0.0348059
0.143751
-0.00871841
-0.0753736
1.32596e-06
-0.478483
-0.0166048
-0.00452402
-2.23204e-06
-0.0241376
-0.592092
0.00253383
-1.31907e-05
-0.00288808
-0.0159264
0.00490644
-0.272911
0.00402361
0.00095055
-0.0450143
1.63626
0.00154395
-4.64965
-0.00507715
0.414629
-0.173154
-0.00127966
-0.0574372
0.463505
-0.00701988
0.389719
1.64071e-07
0.403663
0.00935015
0.0192372
-1.14157e-05
0.000385727
-0.0113367
4.18009e-05
-0.0548771
0.00945078
-0.205523
-0.00233052
0.00155569
0.029927
-0.00132918
-0.000114193
-1.78469e-05
-2.61344e-05
0.00417757
-0.205398
-0.32936
-0.00512406
-0.00093142
-0.00284576
0.023788
-0.303073
-2.93486
-0.0130115
9.09629e-06
0.000451923
0.237618
-0.140512
0.0276174
-0.0300721
-6.1692e-05
0.0949907
0.225518
0.00901707
2.33066e-09
-3.89497e-06
0.000235669
0.00208053
-0.00752176
-4.03177e-05
0.0455763
-0.000173823
-3.68202e-05
-6.81023e-05
0.0241707
-1.11212e-05
-0.0422176
4.0491e-05
0.000229357
-0.0308314
1.13032e-06
-0.0576564
-0.0170816
-0.0345548
0.666363
-0.00250988
-0.0322536
-0.0283466
-0.0164752
0.0303718
-0.0448357
0.194139
0.033467
0.00202471
0.0184147
0.176365
-0.00978529
0.413127
-0.0172994
-0.0238836
-0.0488083
-0.239808
0.0976261
0.0226908
-0.00537781
3.01395
0.0118365
-0.00672078
-0.495158
0.0073278
-3.37271e-06
-0.0357382
9.95803e-05
0.0105245
-0.00173784
0.000706906
0.00317763
0.626715
0.000319602
0.413494
-6.59314e-06
-0.0289962
0.0696566
-3.8916e-05
-1.4793
0.352774
-0.305857
0.059153
0.000185188
0.0168303
0.0261127
1.1196e-07
-1.66584
0.012353
-5.41351e-05
-3.12796
-0.224344
-0.0806714
-0.189678
-0.00789113
0.00764115
-1.43607
0.0419752
-0.0350156
0.382396
0.00140099
5.80989e-06
0.000135272
-0.0288468
0.119071
0.000601805
-0.0296572
2.5464e-06
1.15768
0.0187896
0.249936
0.0321406
-0.00319823
0.0196704
0.0108572
-0.809575
-0.273912
0.00808639
-0.0111688
0.0207391
-6.00972e-05
0.00680562
0.302723
0.020175
0.0548993
0.0146914
-0.00137011
0.0216001
0.038765
1.57522
-0.0207322
0.00141376
0.289017
1.16006e-06
6.38941e-06
-0.000338195
-0.000106685
1.32761
-1.42615
-5.85855e-05
0.0449447
0.0191465
-0.0214772
-0.00086443
-0.000282225
-0.165052
-0.000106732
1.66159e-06
-6.80326e-05
0.187715
0.0132796
-0.0131651
-0.00273185
0.0510004
-0.209243
-1.47745
-2.19911e-06
-2.16339e-05
-4.61634e-05
0.0216691
-0.00161588
0.548711
-7.6187e-05
-0.0016594
0.163464
0.000219908
2.44984e-06
-0.00150611
-0.0362411
-0.0173055
-0.0312769
0.539747
7.03346e-07
-0.188042
-0.00110098
0.000352451
0.0330704
-0.000561141
0.000201055
-0.0576761
-1.56427e-05
9.53059e-08
-0.0800215
0.180338
-0.013298
0.0272404
0.0120266
0.00814634
0.145
0.0173926
-0.0142615
1.02197e-05
0.353776
-2.09829e-05
-1.78375e-05
-4.2623
0.11491
-9.4432e-06
0.0409773
0.393125
-0.110385
-1.27311e-05
-0.0421612
-5.56661
0.0103271
0.015426
-0.0314816
-8.15909e-06
0.0330647
-0.00722038
-0.0256969
-0.493942
-1.97932e-05
0.090587
-0.00140315
4.6183e-06
0.000303848
-2.6392e-06
0.175154
1.93317
-7.10717e-05
0.0231451
0.254509
-0.000832841
-0.000236062
-0.0306987
-1.72535e-05
0.0225945
-0.455044
-0.00295784
-0.0098797
-2.29421e-06
0.488022
-3.24873e-06
-0.015804
-0.00069746
0.262858
-0.536762
0.0665407
0.0259464
-0.267878
-0.116806
0.0551136
-1.64426e-05
0.129796
0.0889206
0.0125924
-0.000566425
-13.8002
-0.0666114
0.0453261
-0.208291
6.24169e-06
1.01363e-07
0.00677956
1.77791
1.06969e-07
0.0228608
4.83954e-05
-0.0657831
-0.000121298
-0.0170708
-0.0040604
-3.9264e-05
-3.7848e-05
0.0213283
0.380815
-0.00958036
0.0555544
-0.0469071
-0.0720858
3.40378
-0.00958989
-2.9007e-05
-0.00323209
-0.000227812
-0.681335
-1.6611
-0.0104727
-0.0150216
-1.37805
-0.0087613
0.192224
0.0295011
0.233456
-1.21595e-05
-0.000287611
0.000419213
0.0572987
-0.012406
-4.54838e-05
0.0256048
3.89894e-06
-0.00746419
-0.0668883
-0.000384066
0.0587434
0.326262
-0.00384998
-0.0292417
0.0028898
-0.176027
-0.00198507
0.0109082
-0.104751
0.199484
-0.177442
0.00838939
1.83991e-06
4.12361e-07
0.00123682
-0.266218
0.164006
-0.0545993
2.13164e-06
-0.000135324
-5.70831e-06
0.0385525
-0.532147
-0.000155746
0.0220626
-0.211619
0.130998
-0.000290876
-0.902857
-0.105266
-3.58034e-05
0.269821
-0.0131399
4.09481e-06
8.6864e-06
-0.00112258
-5.39169e-05
0.265859
0.000189753
-2.40982e-05
-1.4014e-05
0.00265721
-6.70011e-06
-3.14591e-05
-0.0114466
0.000271178
-0.0134377
0.335826
0.00046684
2.27506
-0.0221027
-0.278249
0.000714401
-0.029996
1.22854
0.00219095
0.354183
7.6344e-08
0.00547364
0.0200008
-5.7768e-06
0.0262783
0.00242991
-0.167254
0.0339719
-0.000985742
0.0007097
-0.0328364
0.0122919
0.00143524
0.00161538
-1.42056
-0.000755996
0.0665125
-0.0232353
-0.0586657
-1.36532
3.6787e-06
-0.000591301
-1.76265e-05
-0.216929
-6.59826e-05
0.021196
0.0133561
1.23192
0.265423
-0.0267305
-0.000675935
0.0253608
0.260365
3.88181e-05
0.0123356
0.00119987
0.211623
-0.283526
-0.000582231
0.000146555
-1.30894
-0.0152443
0.0134606
-0.0272052
-0.0343602
1.05094e-06
-0.00180803
0.125681
-0.264789
0.00648216
0.0013236
-0.000665792
-0.00829893
5.67585e-05
-0.0163495
1.5595
-0.0318207
-0.000520329
-3.48966e-06
-0.00482086
0.48402
-0.15632
-0.0479828
0.0153713
1.98669
0.118338
-3.75893e-05
-1.26017
-0.0327489
-0.0747763
-0.00897454
-0.391025
9.1991e-08
-0.00316784
0.181202
-0.0327689
-0.21712
-0.0416227
-0.0384517
0.0273463
-0.0611993
0.000110498
3.7401
0.0827354
-0.136307
-0.929243
0.00078737
1.32367
-9.59467e-05
-0.000231331
0.000389397
-0.00322694
0.000786386
-0.00808886
-0.000755304
0.118561
6.25282e-05
0.300766
-0.000288786
6.48669e-06
-0.000948857
0.00290436
0.0484589
-1.72592e-05
0.00923734
-0.0191635
-0.0776039
-0.000467991
-0.00760563
0.025275
-5.03484e-05
-0.0179168
-4.2288e-05
-0.00213803
2.28834
-0.302991
0.00979763
0.0242734
0.331628
1.96613e-05
-0.0372606
-2.55156e-05
-0.00235068
0.0244569
-0.0137903
-0.000109831
-0.63786
-0.0519236
8.39011e-05
0.00372155
-7.40998e-05
0.415066
-5.32237e-05
-1.46266
0.00575633
-0.00260986
0.0236795
1.47816e-05
3.21657e-06
-8.08531
-0.0159199
-0.00507613
-0.0330001
0.0238529
1.2917e-06
0.0106945
0.0252207
0.0143377
0.000105169
-0.180584
0.00492158
-1.31605e-05
0.00829094
0.014983
-0.018326
0.327797
-6.2735e-05
0.0020879
0.0828661
0.323875
-0.00444509
0.0520081
-0.000330552
-0.00335913
-0.00315171
2.70221e-06
-0.0025967
-0.000117193
0.00888651
-0.0367501
0.402193
0.083499
0.0100204
0.0748438
-1.04159e-07
-0.000456961
-0.0162728
-6.45463e-06
0.209191
0.0209941
0.19104
-0.000267422
0.134904
-1.6789e-05
-0.0153702
0.00946293
-0.0301151
-0.00742883
0.0265947
-0.125731
0.0699108
0.000762152
3.31108e-06
-0.0116495
-0.000584399
2.24669e-08
2.03262e-06
3.37356
-0.273729
-0.00460228
0.00718427
3.27265e-06
-0.0190755
0.00288175
-0.0192297
0.0144227
-0.243107
-0.00187143
0.0165049
0.405299
0.00933647
0.0476822
-0.0282031
0.018761
0.00691815
-0.000666399
0.151903
0.399807
0.00551709
0.00341528
-3.00151e-05
-0.346024
0.195312
0.0458243
2.18287e-05
0.0687286
0.0231114
-0.0214637
0.0652742
0.0357813
0.000952453
0.00786205
-0.033023
0.00456002
-0.000105883
0.310728
0.000438076
-0.347266
-0.048454
-0.0124218
-0.0273049
-6.16726e-05
-0.00165224
-0.0014552
-0.0492365
0.00263818
0.0825627
-2.45473e-05
-0.270676
-0.275976
-8.59487e-05
-1.92221e-06
-0.169542
-0.000651469
4.27387e-05
0.335285
0.0293957
0.00906435
-2.83497e-05
-0.0289528
0.000158415
6.85542e-06
0.000185633
-0.0360336
-0.0313445
-0.03051
9.36619e-05
0.127352
-7.99529e-08
0.121805
-0.0887969
3.53349e-06
0.00240806
-0.0045623
-3.58047
0.00142146
-0.0286617
-0.283108
0.000297163
0.165116
-1.39474e-05
0.000276861
-9.70046e-06
-8.41282e-07
-3.75617e-05
-4.33884e-05
-1.50113
-0.0513919
-0.100803
0.0187028
-0.00298232
-0.0831495
-3.17376
-0.0560306
-0.258975
-1.70439e-05
0.367608
-0.0101095
-0.886205
-0.000492005
-0.563699
0.000159187
-0.00542323
-0.000444063
-0.128507
1.15353e-06
-0.00126505
0.447208
0.000475276
-0.0386726
-0.04153
0.0275525
0.00013921
-3.26578e-05
0.346395
-0.000821721
1.22838
-4.61427e-05
0.000229136
0.0277084
0.00393108
0.0150291
-1.10646e-05
-0.00103018
0.405028
2.84485e-06
-1.05528e-05
-0.4618
0.40361
-0.0409562
-0.000238386
0.0132486
-1.03156e-06
0.178047
-0.010037
0.000349526
0.013279
-0.67158
0.00555512
0.0225128
0.0176987
-3.26314e-05
-0.00100419
2.8114e-07
-0.0405388
7.31473e-07
0.00124555
1.81492e-07
0.0514434
6.80281e-07
-2.72273e-06
0.00020551
0.064171
-0.00161528
-0.000226143
0.0157156
-0.187398
-0.0134001
-0.00348893
0.000179311
-0.0010666
-2.76021e-06
0.00625077
-0.0298431
-0.0266187
-10.61
0.0166162
-0.000120172
0.010389
-8.87865e-06
0.369245
-0.00345393
0.00833465
0.000190951
-0.512138
2.69286e-06
-0.0021731
0.0107124
-0.00599803
-0.000637744
0.0277942
-0.000351721
0.000125378
-0.0885648
0.00274591
0.0196852
0.00300415
-0.161768
0.000525215
-0.091239
-0.000952291
-0.217951
-0.00162555
-1.95112
-0.245012
0.0221017
0.000455627
-0.000685709
-0.0427101
0.713841
0.0847966
-0.000248216
-0.00208751
0.0696317
0.0132806
-1.76457e-05
0.0088133
-0.000130598
-2.34413e-05
-0.100747
0.00665905
-0.0250975
0.0133546
0.0103214
-1.15892e-05
-0.0276351
0.0195038
0.128994
-0.0191841
-0.000617711
8.56414e-06
-3.63107e-05
-0.292749
0.32363
0.00202672
0.109544
0.00324758
-6.3661e-05
-0.00424115
-0.0955069
-0.0427666
-6.9531e-05
-1.59067
1.02473e-06
-0.137932
-0.956458
1.67898
-0.000660019
-0.0101944
0.0202475
0.34963
0.117081
0.183785
-0.0171464
-1.86132e-05
0.00019747
0.00981587
-7.61886e-06
0.00331266
-0.141192
6.77561
3.98477e-06
-4.74077e-05
0.0576586
-0.0121324
3.95226
6.82901e-05
0.0012153
-4.31289e-05
0.0508314
-0.147462
0.101455
-2.58553e-05
3.77425e-05
-0.0272861
-0.409882
0.0538143
1.24909
0.131793
-0.0452507
0.36372
-1.99728e-05
-0.018739
-0.00272908
2.56351e-06
-1.87332e-06
2.33519
1.00725
-4.84505e-05
1.54742e-05
0.39126
0.000270665
-0.254764
-7.14186e-05
-0.000103935
-0.521272
0.00790109
-0.000140656
-0.0114037
0.569515
-5.89179e-06
0.00248354
-0.00688902
0.0234137
-0.00661847
4.76828
5.52172e-05
0.47415
0.151761
-0.0563424
-0.000338422
0.0403334
0.000198808
-0.043707
-3.95438e-05
0.709458
-0.982203
0.000149918
-0.384229
0.394784
0.00251743
1.31894e-06
0.000140826
3.67981
0.430766
0.0620835
-0.0263586
-0.164105
-0.0055144
-0.0623626
3.36582e-05
0.132255
2.07463
-0.00504131
0.00994644
0.681364
2.55515
-0.00197347
-1.44913
-0.00968957
0.188548
1.38414
-0.962164
0.863801
-0.0435382
4.02541e-05
-0.0035086
0.00403151
0.0460575
1.12773e-05
9.95508e-05
0.262978
-3.2302e-08
-0.0263569
0.00446738
0.338805
-3.86215
-0.00490453
-0.847885
0.43264
-1.0468e-05
-2.43916e-07
-0.00629861
-0.454082
-0.0352075
0.116774
0.0601661
0.0231908
-0.000516592
-0.0480647
-0.0366714
-0.0570148
0.00181813
0.0162499
0.013971
-1.5255
2.00564e-05
0.0140158
0.033465
0.00164232
-7.07807e-05
0.423049
0.0102209
-1.68939e-05
-7.91159e-06
-0.000216239
-4.22936e-05
-0.498639
0.00676068
0.000855739
0.0880701
0.359661
1.65385e-05
-0.873816
0.000528733
0.000775357
-3.82254
4.64882e-07
-0.000228732
-0.0122303
0.0167621
-0.00390915
0.000200695
-0.000148245
0.160649
0.0189648
0.404512
0.0868397
0.00151468
-0.00129314
-6.04731e-06
0.297759
0.00034293
0.0166875
1.30567e-06
-0.370615
-0.0239904
0.00197583
-0.00321729
0.0258686
0.00102259
-0.0792057
-1.12037e-05
-0.305397
0.192086
-0.000225543
6.27163e-06
-0.00652965
-3.73763e-06
-0.0356368
0.0118109
-8.51698e-06
-2.3803e-05
0.406367
-0.362115
-0.00302807
-3.35694e-05
-1.2934
-0.000138965
0.887649
0.000468727
0.00147552
0.000362745
-0.00684767
1.43693e-05
0.175348
-3.85625e-05
0.0289401
0.000585893
3.39167e-05
-0.03306
0.0170998
-0.000147367
0.385375
0.000855995
-0.0301311
-7.2003e-06
-0.0101986
0.415413
0.0405244
0.166392
1.07e-06
-0.0175319
0.0230374
-0.551293
-5.19484
2.4544e-05
-0.0342464
-0.124225
-0.00914177
0.109026
0.000705124
0.00620573
-0.0324756
-1.55747e-05
-0.00148698
0.0911722
-0.0788585
-4.63176e-05
0.0278401
0.312604
9.93794e-05
-0.026687
-0.0665752
0.234255
-0.29478
0.000906326
0.01385
0.000592144
-3.11974e-05
0.886166
-0.0113407
0.00253794
6.81755e-05
-0.00193055
0.00272272
-0.00010324
7.03767e-05
0.0086133
0.00362354
-7.62046e-06
-0.000323858
3.46636e-05
3.20983
-0.0332143
-0.0021102
-4.16062e-05
-0.00692328
0.359721
-0.00176915
-5.98921e-05
-3.66762e-05
1.02765
-9.30334e-07
-0.280034
-0.000143429
-0.0172474
-9.49265e-06
-0.0133075
-0.0911175
0.000535655
0.113655
-0.00112258
0.00888926
1.10416
-4.40197e-06
-9.07859e-07
1.22719e-05
0.0341595
0.00876745
0.159103
0.0607526
-0.20044
-1.50141e-05
0.000418623
0.615487
0.0532713
-0.0828703
0.00734595
-1.77928
-7.70567e-05
-0.252679
-7.03893e-06
-0.361566
-0.0154445
0.00557417
0.00044215
0.00136973
2.21591e-06
0.141684
-0.619993
0.000280175
0.0393644
0.0307701
-0.0472159
-2.48954
-5.69761e-05
0.00712589
5.81167e-07
-0.217428
-0.00124223
-0.000707556
-1.10425
0.00350768
-3.69884e-05
-0.000725751
-6.37478e-05
0.0853581
-0.000297436
-0.000377231
0.030996
2.56993e-06
-0.000431089
0.00168456
-0.00142417
0.0289881
-0.000134051
0.0100718
0.000460601
0.0208406
4.32025e-05
-1.39484e-05
0.35574
-0.113968
0.386468
-3.12126
0.924597
0.0041255
-1.37994e-06
0.00391009
0.0335464
0.19737
-1.03508
0.00044966
-0.0290045
0.00177997
0.000197564
2.70468e-05
-0.0394446
-0.0514199
0.00519139
-0.0621185
-0.000109765
0.022744
0.00203997
0.00405945
-0.000321545
-0.126014
0.218463
0.0506646
-0.00163674
-1.27189e-05
0.00233416
-0.000626421
-0.0199076
0.0590983
0.0065562
4.30378e-05
-0.0387389
-0.0476621
-3.43677e-05
0.245027
0.00521508
0.0193037
-0.0446004
-0.000801228
0.147292
0.0012244
0.0175251
0.331009
-0.0226909
-0.00876537
-0.79254
-0.00249914
-0.000286174
9.41695e-07
3.91742e-07
-0.174472
0.00675497
-0.000262181
-0.0257537
0.0910766
0.0121812
-0.00938037
-0.000506827
-4.26621e-05
-0.000540618
-0.0211857
0.0822841
-0.0556204
0.0327503
3.17654
5.72804e-06
-7.29929e-05
0.330097
7.2093e-05
-1.41909e-05
0.000291089
0.40403
6.88213
-0.000285752
0.038203
-1.69135e-05
0.00027727
0.00262421
0.142884
-0.0287928
-0.0891755
-0.332085
0.132557
-0.973169
0.136905
-0.00635563
-8.82002e-06
1.87833e-06