/*--------------------------------*- C++ -*----------------------------------*\
| =========                 |                                                 |
| \\      /  F ield         | OpenFOAM: The Open Source CFD Toolbox           |
|  \\    /   O peration     | Version:  v2012                                 |
|   \\  /    A nd           | Website:  www.openfoam.com                      |
|    \\/     M anipulation  |                                                 |
\*---------------------------------------------------------------------------*/
FoamFile
{
    version     2.0;
    format      ascii;
    class       volScalarField;
    location    "100";
    object      p;
}
// * * * * * * * * * * * * * * * * * * * * * * * * * * * * * * * * * * * * * //

dimensions      [0 2 -2 0 0 0 0];


internalField   nonuniform List<scalar> 
14479
(
-0.179638
-0.0403286
-0.066304
-0.427861
-0.0320662
-0.415189
0.0408821
-0.0267568
-0.00481196
-0.388048
-0.0136395
-0.428664
-0.440453
-0.440925
-0.447661
-0.454141
-0.346517
0.100625
-0.381333
-0.267916
0.00126419
-0.00414713
-0.450845
-0.316091
-0.00341699
0.287761
0.0658675
-0.390119
-0.372574
-0.447199
-0.0153083
-0.40454
-0.374887
-0.02853
-0.0704164
-0.043967
0.0641572
-0.45409
-0.0515103
0.154598
-0.448261
-0.0479193
0.177066
-0.0933878
-0.450265
-0.245584
-0.451433
-0.418865
-0.0617213
0.297872
0.00499289
-0.349578
-0.213496
-0.279507
-0.0615758
0.0685397
-0.177796
-0.36543
-0.0439377
-0.276844
-0.0588711
-0.0484972
0.465366
-0.269245
-0.339927
-0.368449
-0.147149
0.160156
-0.442356
-0.364357
-0.397765
-0.277812
-0.425779
-0.445453
0.00254733
-0.000736056
-0.393501
-0.44253
-0.354404
-0.397519
-0.440605
0.00423703
-0.150228
-0.276653
-0.0767953
-0.239226
-0.309267
0.0197566
-0.394187
0.0114394
-0.374205
-0.368314
-0.384033
-0.441541
-0.15288
-0.373728
-0.0751751
-0.374032
-0.13478
-0.370741
-0.0128554
-0.364451
-0.279887
-0.0152336
-0.138458
-0.04288
-0.344256
-0.427834
-0.184859
-0.448117
-0.128693
-0.0708637
0.0200122
-0.284441
0.0587878
0.0943349
0.00100937
0.457426
0.118178
-0.294888
-0.0686734
0.0162455
-0.404781
-0.0937673
-0.403556
-0.052452
-0.112143
0.0829572
-0.0509854
-0.366401
-0.0583494
-0.338796
-0.44886
-0.0531012
-0.252832
-0.157614
0.134855
0.0915521
-0.353428
-0.425908
-0.0578063
-0.420553
-0.0971863
0.314711
-0.259324
-0.0742871
-0.371576
-0.035223
-0.161024
-0.0204943
-0.376156
-0.069782
0.00112474
-0.32595
-0.340248
-0.161924
-0.400402
0.0556189
-0.352294
-0.357515
-0.401096
-0.410916
-0.359404
-0.303778
-0.36198
-0.4187
-0.0533935
0.0211076
0.00653267
-0.0770215
-0.0628003
-0.238072
0.068262
-0.290149
0.0475548
-0.15667
0.0236087
-0.0843379
0.0451226
0.0511847
0.113768
0.0025924
0.114216
-0.384724
0.0147063
-0.0737652
0.170415
0.15992
0.105385
0.287182
0.0183279
-0.370021
-0.138475
0.0407464
-0.42235
-0.357976
0.13037
-0.374
-0.115737
0.0471818
0.0977275
-0.334297
-0.34632
-0.293932
-0.421271
0.0995599
0.0884504
-0.284706
-0.0841478
-0.0840134
-0.395199
-0.399812
0.0732428
0.159978
0.00052521
-0.289281
-0.379019
-0.451174
0.0648309
-0.154075
0.0224985
-0.375448
-0.36628
-0.163204
0.394398
-0.415868
-0.0130479
-0.0663745
0.246676
0.0207064
0.0906097
0.0181678
-0.0277752
-0.443068
0.153413
0.100431
-0.182984
0.4338
0.0672465
-0.00327326
-0.41486
-0.28007
-0.134262
0.286298
-0.392591
-0.395291
-0.0531641
0.0114105
-0.0267615
-0.375166
-0.0256368
-0.27319
-0.0073549
-0.0515635
-0.375704
-0.328219
0.0582598
-0.361468
0.29867
-0.321093
-0.439842
-0.41693
-0.423023
-0.254686
0.032947
-0.0472197
0.0343577
-0.365728
-0.428714
-0.442297
-0.371224
0.0851815
-0.370035
0.109251
0.0470511
-0.369434
-0.431013
-0.0683237
-0.369111
-0.375944
-0.370684
-0.368447
-0.4002
-0.441832
0.016415
0.0663987
0.55171
0.10867
-0.443552
-0.418875
0.0599427
0.102454
-0.144554
-0.415937
0.0657539
-0.16076
0.0351344
0.307364
-0.0544093
0.0359602
0.00254391
-0.385687
-0.0534302
-0.200031
-0.152848
-0.447637
-0.344872
-0.288562
-0.0955632
-0.109435
-0.374671
0.00599264
-0.160554
-0.0363339
-0.00580778
0.0557783
-0.426744
-0.0356415
0.0230166
-0.0132499
0.0734266
0.0709072
0.0879396
-0.377597
-0.330608
0.0962248
-0.383644
-0.0154708
-0.374302
-0.0212521
-0.166749
-0.20438
-0.372849
-0.443494
-0.334286
-0.0170551
0.0317833
-0.28739
0.14925
-0.195301
-0.38919
-0.142945
-0.417032
-0.0271115
-0.427923
-0.0560557
-0.3681
-0.371137
-0.0568201
-0.203246
-0.442122
-0.368737
-0.0578676
0.00813912
-0.369371
0.00707885
-0.0398822
-0.371549
-0.111787
0.00908057
0.00519266
-0.413211
-0.393298
0.00334705
-0.368952
-0.153897
0.314097
-0.444363
-0.373794
-0.442456
-0.290857
-0.414818
-0.244811
-0.163899
-0.451329
-0.412055
-0.270225
0.176158
-0.3924
0.0371038
-0.0357706
-0.156671
-0.0278512
0.318078
-0.417731
-0.249665
0.00609019
-0.325472
0.0732517
-0.290019
-0.207661
-0.170698
-0.0202299
-0.448822
-0.34996
-0.399957
0.0575292
-0.170262
-0.019153
0.00889726
-0.413719
-0.370273
-0.431416
-0.14256
-0.448714
-0.106598
-0.451129
-0.386603
0.288061
-0.0393332
-0.381857
-0.40034
0.0152052
0.00898282
0.532531
-0.0236925
-0.0102419
-0.208188
0.00483788
-0.0724643
-0.0865274
-0.0314917
-0.331731
-0.280834
-0.383951
-0.0260589
-0.371832
0.00553905
0.0281719
0.0118687
-0.433448
-0.258224
-0.452448
-0.0591233
-0.0342726
-0.357469
-0.197344
-0.417425
0.0980828
-0.329508
-0.370478
-0.381364
-0.43566
0.00450821
-0.282969
-0.117888
0.270611
-0.430174
-0.12612
-0.0715526
0.0700563
0.0754505
-0.281433
-0.276167
0.041778
-0.320273
-0.0484588
-0.276271
-0.448144
-0.4022
-0.130174
0.0782011
-0.341189
-0.177866
-0.33366
-0.448978
-0.0807857
-0.42953
-0.442603
-0.0518572
-0.0426961
-0.00636389
-0.444388
-0.381905
-0.419574
0.395027
-0.401302
-0.448388
0.165503
-0.336286
-0.0170426
-0.444104
-0.225924
0.284447
-0.103827
0.278618
-0.0352963
-0.441418
0.222
-0.393954
-0.445405
0.0216241
-0.0224991
-0.371979
-0.451442
-0.0585822
-0.17991
-0.42193
-0.300325
-0.118017
0.154361
-0.302539
-0.104621
0.066061
-0.435202
-0.377492
-0.370679
-0.169538
-0.069618
-0.441917
-0.0348068
-0.239501
-0.152564
-0.374384
-0.0427118
0.016629
0.0168837
0.0342976
-0.420879
-0.264588
-0.345006
-0.405815
-0.342476
-0.447747
-0.396255
-0.359573
-0.059195
-0.127662
-0.367825
-0.440713
0.0643083
-0.272995
-0.331793
-0.448585
-0.198117
-0.272088
-0.1705
-0.378481
0.0282187
-0.428102
-0.417763
-0.440822
-0.174991
-0.417154
-0.0370397
0.0743999
-0.387714
0.0706809
-0.0627464
-0.176709
-0.170287
-0.179401
-0.0353422
0.0729583
-0.372655
0.0342228
-0.394761
-0.447401
-0.419911
-0.44788
-0.0470693
-0.389733
0.194791
-0.419369
-0.0522833
-0.32313
0.14656
-0.041354
-0.0592475
-0.132684
0.194496
-0.0364678
-0.417795
0.539606
-0.0997757
-0.423615
-0.348161
-0.0601653
0.104777
-0.298888
-0.434978
-0.0614543
-0.124861
-0.124193
-0.442159
-0.0501191
-0.0383657
-0.367758
-0.373892
-0.416185
0.300096
0.0103972
0.0414862
-0.436207
-0.435224
-0.33888
-0.0160571
0.0648853
0.0658374
0.0777009
-0.356159
0.0306983
-0.0739422
-0.350016
-0.443571
-0.0520499
-0.434901
-0.390387
0.0956616
-0.131328
0.0644361
-0.412853
-0.0809061
0.0107914
0.0242471
0.0412971
-0.373326
0.330572
-0.361397
0.064048
-0.0387903
-0.206795
-0.170747
-0.114344
-0.357841
-0.420659
-0.0367357
0.0101632
-0.148504
-0.373088
-0.215068
-0.154807
0.0111517
-0.342335
-0.0657141
0.0117044
-0.0396245
-0.34899
-0.416892
0.0591376
-0.438487
-0.333558
0.0126516
-0.369497
-0.378214
-0.0604334
0.0548399
0.0286957
-0.159533
-0.444687
-0.445847
-0.308226
0.00912633
-0.413718
-0.399306
-0.441704
-0.383493
-0.0267817
0.079858
-0.106823
0.103177
-0.0165334
-0.0602442
-0.361478
-0.443394
-0.0983191
0.0312888
0.166266
-0.399257
0.00371887
-0.0156129
-0.0280733
-0.39396
-0.447415
-0.248092
0.325951
-0.391979
0.16424
-0.385374
-0.222713
-0.0175392
-0.127552
-0.373329
0.0103023
-0.374186
-0.096824
-0.375387
-0.405092
0.152761
-0.360228
0.0613023
-0.0739627
-0.353507
-0.355943
-0.452419
-0.415618
-0.392912
-0.434166
0.0177095
-0.330641
-0.370547
-0.415269
-0.354253
-0.0237313
-0.386685
-0.386663
-0.332685
-0.39733
-0.104101
-0.432533
0.00196107
0.142134
-0.405423
-0.377994
-0.390689
-0.0609514
0.085544
-0.37761
-0.372283
-0.288585
0.0820885
-0.410234
0.0676445
-0.355442
-0.35635
0.118451
-0.00708962
-0.378388
-0.427803
-0.0165988
-0.00840883
-0.453907
0.0196072
-0.0209582
-0.0388979
-0.0598376
0.234942
0.315109
0.0581837
0.0172843
0.0162603
-0.0410732
0.0420924
0.0203446
0.11952
-0.446183
-0.316425
-0.447864
-0.402285
-0.42097
-0.165226
-0.0277781
0.00717572
-0.0259506
0.24068
-0.386176
-0.115839
-0.375449
0.232204
-0.128111
-0.33571
0.22446
-0.374165
-0.369665
-0.0156612
-0.439952
0.017177
-0.375042
-0.39189
-0.287247
0.307381
-0.368085
-0.368364
-0.173875
0.0150908
-0.370015
-0.445725
-0.418944
0.112772
-0.380269
-0.416634
0.0641258
-0.0820333
-0.315832
-0.0190995
-0.0599778
-0.442558
-0.300537
-0.0610406
-0.37001
0.00601471
-0.0120372
-0.370291
-0.414366
-0.415978
-0.303921
-0.44943
-0.339987
-0.0128006
-0.285229
-0.371536
0.250824
-0.237735
-0.270017
-0.0525425
-0.366038
-0.330819
-0.020214
-0.369854
-0.452972
-0.449706
-0.392936
-0.0108159
-0.0414057
-0.410833
-0.379678
0.211116
-0.449267
-0.198498
-0.0294277
0.139293
-0.414048
0.153743
-0.414252
0.23096
-0.383395
-0.283683
0.10947
-0.140569
-0.0173555
-0.249954
-0.413765
-0.431077
-0.410974
-0.404827
-0.286439
-0.447025
0.127154
-0.372658
-0.143051
-0.394623
-0.0623249
0.158503
-0.2666
-0.369571
-0.0214422
-0.431451
0.451959
-0.0178849
-0.213314
-0.358758
-0.283281
0.465591
-0.449479
-0.441219
0.0828119
-0.39525
-0.122
-0.0192211
-0.182281
-0.0629
0.0518443
-0.0551961
-0.388069
-0.139607
-0.371315
-0.0620858
-0.0172957
-0.0194858
-0.0293561
-0.452022
-0.366377
-0.341008
-0.378266
-0.366048
-0.365405
-0.165877
-0.367319
-0.443261
-0.381281
-0.369804
-0.346354
-0.36638
0.111896
0.07551
-0.0163732
0.0190305
0.0339954
-0.260128
-0.0581568
-0.223704
-0.195017
0.205292
-0.415287
-0.0615278
0.0111514
-0.2481
-0.405796
-0.3866
-0.150091
-0.450057
-0.0123717
-0.27765
0.0330896
-0.022507
0.0291358
-0.0681634
-0.175283
-0.343221
-0.351747
-0.369563
-0.332221
0.00677055
0.0678217
-0.450225
-0.0547548
0.068816
-0.433194
-0.41121
-0.374923
0.0457533
0.197006
-0.379855
-0.293418
-0.0144971
0.0720325
-0.445584
-0.335248
-0.434638
0.109034
-0.389305
-0.354965
-0.251625
-0.0499757
-0.284995
-0.364867
-0.333957
-0.357531
-0.385
0.322218
0.0713158
-0.0743976
0.00626175
0.198752
-0.0146253
-0.119188
-0.441543
-0.388535
-0.294912
0.0179597
-0.357342
-0.130815
-0.36207
-0.364265
-0.171114
-0.025042
-0.10206
-0.39505
0.00145134
0.0968479
-0.0612275
-0.339177
-0.0389765
0.0053271
-0.342224
-0.369633
0.198533
-0.210484
-0.0163416
-0.0312819
-0.16986
-0.375343
-0.35146
0.00870127
-0.323407
-0.365912
-0.132817
-0.0280549
0.146309
-0.432444
-0.245351
-0.39811
0.0495603
-0.446913
-0.283576
-0.169297
0.0182609
-0.264364
0.0535663
0.455777
0.0622532
-0.0353537
-0.369381
-0.368689
0.0252622
-0.292752
-0.0132935
-0.131228
0.0204993
-0.0583265
-0.370195
0.0436736
-0.390094
-0.163348
-0.406723
-0.00630849
-0.232925
-0.372055
0.00596067
0.0215125
-0.367514
-0.402486
0.301928
-0.441112
0.121339
-0.0468916
-0.0519788
-0.112536
-0.387134
0.272173
0.0539168
0.0203707
-0.402398
0.0076503
-0.443438
0.0266795
-0.261255
-0.17826
-0.451302
0.101682
-0.361156
-0.0134552
0.120215
-0.151887
-0.159053
-0.0397848
-0.253173
-0.33588
-0.235644
-0.452226
-0.0862465
-0.434633
-0.00791376
0.297589
-0.323996
-0.339274
0.024313
-0.276128
-0.189262
-0.352392
-0.369472
-0.108152
-0.444842
-0.361092
0.294589
-0.365159
-0.452173
0.55309
0.457316
0.0803491
-0.234448
0.0432025
0.0333703
0.159878
0.023461
-0.391016
-0.397714
-0.390704
-0.376675
-0.343274
0.408293
-0.386181
-0.331687
-0.124575
-0.049876
-0.432834
-0.388173
-0.431587
0.0251563
0.0224168
-0.356678
-0.0921035
0.243144
0.0235641
-0.260254
0.035898
-0.446476
-0.0367235
-0.308242
0.0298333
-0.390334
-0.273157
-0.443435
0.0187087
-0.0245744
-0.276159
-0.031295
-0.0121248
0.223039
-0.102346
-0.154975
-0.35464
-0.107318
-0.0144186
-0.202437
-0.448153
0.0430704
-0.00184678
-0.340979
-0.343067
-0.446682
-0.0847697
-0.423382
-0.0487088
0.00829627
-0.452408
-0.19763
-0.267857
0.0666979
0.379959
-0.365538
-0.387801
-0.343383
0.0162344
-0.0549682
-0.178145
-0.375836
-0.274648
-0.388268
-0.234656
0.0187578
0.125519
-0.451433
-0.0682114
-0.36188
-0.302268
-0.0512726
-0.433598
0.053003
-0.413798
0.0108835
-0.135158
-0.177472
0.191725
-0.370255
-0.39273
-0.448654
-0.0904207
0.306828
-0.0686394
-0.318868
0.00998283
-0.160413
0.39457
0.00710684
0.259591
-0.0138276
-0.0534601
-0.197826
-0.397677
-0.398197
-0.451556
0.405665
-0.134761
-0.202413
0.0483304
0.0473799
-0.0350195
-0.34851
-0.0588508
-0.128509
-0.0787286
-0.205937
-0.383292
-0.284525
-0.0392863
-0.446137
-0.444794
-0.361337
0.00669238
-0.0256685
-0.0787478
-0.434704
-0.315391
-0.371596
0.380238
0.0732687
-0.28301
-0.0556676
-0.154472
-0.0197081
-0.423059
-0.00369321
-0.434012
-0.0239426
0.150909
0.0449158
-0.0255893
-0.053832
-0.0328806
-0.0149274
0.469518
-0.338534
0.281307
-0.372704
-0.425404
-0.108873
-0.148025
0.1026
-0.0547859
0.166044
0.463687
0.0317927
-0.0188591
-0.140563
-0.398108
0.00369019
-0.391369
0.199569
0.0247664
0.00484052
-0.415157
-0.44384
0.546284
-0.0314895
0.0701723
-0.30838
-0.0641235
-0.0173248
-0.365473
0.0350596
-0.335792
-0.0491453
-0.399268
-0.198595
-0.339641
-0.143545
-0.0468294
-0.313961
-0.42694
0.0968745
0.501416
-0.248024
-0.149546
-0.368554
-0.0718602
0.0694324
-0.443115
-0.451048
-0.435005
-0.416104
-0.0376936
-0.17592
0.262766
-0.00680783
-0.372111
-0.0354338
-0.0558771
-0.118427
-0.159612
-0.122172
-0.0988473
-0.0544409
-0.450626
-0.0538635
0.0716186
-0.442385
0.487914
0.394304
-0.435184
-0.111875
0.027925
-0.444093
0.00406398
-0.358369
-0.278533
-0.406984
0.453422
0.0143896
-0.139537
-0.445129
-0.454399
-0.0326296
-0.368184
-0.385329
-0.0337643
-0.0246695
-0.0497217
-0.28071
-0.359618
-0.450144
-0.403823
0.0817111
-0.0369595
0.00389049
-0.355242
-0.28936
-0.365055
-0.338382
-0.0303281
-0.34242
0.307226
-0.239995
-0.368281
0.0397034
-0.318247
-0.108366
-0.212294
-0.176244
-0.286403
-0.0394563
-0.366388
-0.411242
-0.361919
-0.0902645
0.0245427
-0.00309806
-0.133245
-0.44668
0.0492977
0.0598319
-0.0980435
0.0994983
0.0157642
0.416346
-0.166928
-0.451714
-0.363735
-0.442233
0.157072
-0.352345
0.360785
-0.0490361
0.000592945
-0.337738
-0.015284
-0.395522
-0.385416
-0.000286595
-0.134219
-0.0397394
0.0333889
-0.371827
0.351912
-0.379459
-0.0696802
-0.246998
0.0510649
-0.424565
-0.059506
-0.139117
-0.366215
-0.0728317
-0.387146
-0.323278
-0.0677735
-0.38913
-0.355957
-0.0257154
-0.0276456
-0.401118
-0.125146
-0.417948
0.108253
-0.370868
0.0210128
-0.39029
-0.414067
-0.241104
-0.384841
-0.400336
-0.314418
-0.0257077
-0.363738
-0.336589
-0.404788
0.0124979
0.0982916
-0.160643
-0.329755
-0.315119
0.0164566
-0.00873084
0.357185
-0.0884492
0.0668684
-0.373871
0.059834
0.0308945
-0.449429
-0.328227
-0.447805
-0.158043
0.444268
-0.183633
-0.376611
0.100873
-0.147383
0.156591
-0.00516285
-0.150025
-0.0785217
-0.389594
-0.214169
0.00844452
0.0885575
-0.406624
-0.240938
0.00228292
-0.424797
-0.28109
-0.104012
-0.0339671
-0.375879
-0.373911
-0.290578
0.479517
0.305285
-0.102143
-0.382662
-0.307229
-0.384332
-0.398963
-0.364656
-0.405653
-0.443771
-0.0501102
-0.329433
-0.351996
-0.207911
-0.343471
0.0100768
-0.394591
-0.448395
-0.40441
0.0447397
-0.0966057
-0.13391
0.0321129
-0.37157
-0.213495
-0.00216859
-0.145677
-0.0776126
-0.432752
0.122632
-0.0576242
-0.0258586
-0.0232349
-0.0150014
-0.369907
0.343099
0.0332398
-0.137541
-0.119948
-0.370805
-0.369986
0.0154469
0.0358648
0.0161289
-0.0888363
-0.353578
-0.0710063
-0.370578
-0.376936
0.0361178
0.442869
-0.350211
-0.356346
0.00543235
0.0224542
0.0769948
-0.243499
-0.364131
-0.0525944
-0.268715
0.138255
-0.0381773
-0.0550457
-0.406316
0.0448642
-0.368507
-0.048115
-0.0707848
-0.382878
0.00148086
-0.38681
-0.392894
-0.280146
0.0990891
-0.0652285
-0.368238
0.508757
-0.363843
-0.359383
-0.384146
-0.412839
-0.450677
-0.449283
-0.275518
-0.086873
-0.263996
-0.335338
-0.294968
-0.273337
-0.393909
0.100055
-0.446012
-0.273339
-0.365206
0.0246232
-0.0317414
-0.426657
0.0884333
-0.394534
0.0349936
0.429788
0.0185406
-0.404764
-0.376571
-0.0385554
-0.390631
-0.324598
-0.037438
-0.341643
-0.00136513
0.142227
-0.44497
-0.0299307
-0.461709
-0.0465259
0.145048
-0.367044
0.0184803
0.254446
-0.452224
0.0142655
-0.332395
-0.278886
0.0986964
-0.106405
0.420926
-0.380751
-0.402457
-0.188243
-0.408452
-0.326298
-0.306267
-0.427948
-0.342745
0.0887446
0.0227892
0.0770538
-0.367224
-0.445178
0.16214
-0.367768
0.0591825
-0.375264
-0.43148
-0.353662
-0.357737
-0.108339
-0.44179
-0.201791
-0.0297963
0.0353575
-0.375966
-0.0190295
-0.357401
-0.137695
0.211823
-0.343252
0.166885
-0.35492
-0.179428
0.197149
-0.408943
-0.367554
-0.426481
-0.127036
0.205913
0.522587
0.0214552
0.0422332
-0.131588
0.0285063
-0.445216
-0.418426
-0.0562682
-0.425655
-0.386403
-0.171427
0.151702
0.141049
-0.320713
0.0670578
0.0781823
0.0687851
-0.385168
-0.370332
-0.36578
-0.130148
-0.399803
-0.369224
-0.3169
0.00158435
-0.0400342
-0.0378552
0.338815
0.24151
0.1826
0.226493
-0.101892
0.0075658
0.0234317
0.0671127
-0.0981058
-0.227712
-0.114633
-0.370535
0.506626
0.00692864
-0.370784
-0.175453
-0.251661
0.0157998
-0.176623
-0.0718838
-0.369948
-0.0414243
0.00953569
-0.387659
-0.436064
-0.20433
-0.450973
-0.109024
-0.450348
-0.308754
-0.370571
-0.365378
0.0149398
-0.420221
-0.0289573
0.025411
-0.46055
-0.35769
0.0592573
-0.35918
-0.342581
-0.214837
0.0627179
-0.309627
-0.00263606
-0.0270106
-0.449025
-0.371577
-0.00779985
-0.40995
-0.067859
-0.367366
0.03069
0.0805009
-0.451632
-0.1055
0.0364819
-0.0545907
0.0167352
0.321364
0.0028785
-0.033546
-0.293965
0.0858589
-0.00789819
0.117576
-0.375094
-0.0391479
-0.450717
0.025637
-0.117819
-0.199126
-0.00417588
-0.433354
0.0276703
-0.213889
0.119979
-0.333857
0.394296
-0.364618
-0.194255
-0.403376
0.0976123
-0.435483
-0.0341182
-0.37101
-0.254139
-0.407075
0.0308935
0.0539839
-0.389365
-0.413513
-0.17523
0.0126827
0.00764279
-0.270395
0.370133
0.00907196
-0.450847
0.0808162
-0.381581
0.161993
-0.364507
0.211814
-0.0518816
-0.0279608
-0.402805
-0.360348
-0.364604
-0.4498
-0.368426
-0.370934
0.00932507
0.28902
-0.0240559
-0.108852
0.140933
-0.420472
-0.326611
-0.229633
0.0205121
0.0149935
-0.367388
0.455241
-0.426598
-0.387949
-0.0428524
-0.0289896
-0.174358
-0.117751
-0.363809
0.0324626
-0.40248
0.0605944
-0.44179
-0.37181
-0.0948633
-0.367475
-0.329398
-0.443358
-0.410788
0.0622873
-0.190417
0.0969077
-0.189682
-0.209903
-0.436106
-0.323089
-0.264055
0.0247096
-0.00384007
0.0941796
0.0440626
-0.454097
-0.0696713
0.00139906
-0.0609185
0.00967849
-0.43565
-0.138205
0.0703777
-0.256833
-0.369267
-0.369091
0.240732
-0.00138449
-0.379797
0.0689035
-0.396872
0.0115652
0.0212941
0.0228024
-0.11022
-0.0551197
-0.342999
0.0755012
-0.0921231
0.0750045
0.217319
0.0397792
0.000336908
-0.444495
0.0693363
-0.363481
-0.409281
0.102274
0.0322521
-0.382307
-0.369713
-0.130797
-0.367744
-0.0774497
-0.389689
-0.0299905
0.00604408
-0.292037
-0.451679
0.0495819
-0.276237
0.14406
-0.316054
-0.180129
-0.149136
0.0465887
0.0914333
0.333058
-0.275839
-0.112617
-0.319293
0.109681
-0.368803
-0.417547
-0.371882
-6.04954e-05
0.0602433
-0.108144
0.0597808
-0.369381
-0.0330436
-0.260659
-0.212204
-0.0724855
-0.423074
-0.376703
-0.0838231
-0.404484
-0.0817487
-0.0160895
-0.450391
-0.302839
0.50383
-0.36923
0.00930393
0.0632243
-0.332707
-0.435675
-0.447223
-0.42282
-0.367875
0.0689329
-0.358092
-0.3871
-0.333026
-0.374422
-0.104014
-0.103087
-0.073239
-0.0242457
-0.281006
-0.0687396
-0.283306
0.0936147
0.0273413
-0.428668
-0.366995
-0.315026
-0.381821
-0.0540829
-0.312764
-0.384091
-0.030601
-0.382834
-0.371111
-0.381466
-0.18055
0.0944998
0.0584651
-0.193346
-0.437292
-0.374555
-0.241475
-0.219621
-0.391439
-0.42902
-0.368714
0.0387134
-0.424769
0.0904779
0.433917
-0.0772948
0.165491
-0.249501
0.0268863
0.0728819
-0.0153984
0.277154
-0.0144355
0.111157
-0.256081
-0.0785281
0.0620966
-0.39556
0.0999582
-0.0277191
-0.0864186
-0.180386
-0.441587
-0.0259811
-0.446267
-0.386946
-0.225982
0.0512349
-0.440964
-0.400579
-0.0514047
-0.130396
-0.034264
-0.100302
0.0714008
-0.233562
-0.380175
-0.413188
-0.41442
0.0677237
0.102359
-0.0535616
0.100344
-0.407897
-0.439927
-0.0692679
-0.319357
-0.202961
0.0181113
-0.305176
-0.0497774
-0.350946
-0.0699505
-0.0473515
-0.415311
0.11376
-0.414534
0.0532787
0.0682628
-0.0272115
-0.191176
-0.447917
-0.405428
-0.412167
-0.00642778
0.300134
0.303308
-0.111545
0.157392
0.0105445
-0.00897144
0.023309
-0.102412
-0.210498
-0.435278
-0.351593
0.022439
0.056683
-0.444929
-0.34055
-0.123087
-0.368626
-0.0727446
0.0735526
0.0480472
0.0628979
-0.131293
0.00609223
-0.392452
0.257304
-0.396222
-0.424069
-0.372405
-0.368947
-0.00700035
0.141651
-0.186591
0.0522331
0.219947
-0.38655
-0.432148
0.110847
0.523128
-0.0256215
-0.299316
-0.447183
-0.408668
-0.365192
-0.451217
-0.369633
-0.050415
0.00318468
0.0348621
-0.439447
-0.104685
0.00539669
0.0359202
0.182876
0.0207098
-0.265067
-0.37917
0.0682943
-0.364576
0.226135
-0.368239
-0.424898
-0.352327
0.119101
-0.157641
-0.392767
-0.110444
-0.30385
-0.271886
-0.0721621
-0.0321982
0.102157
0.102939
-0.331987
-0.371803
-0.178952
-0.0531025
0.0553867
-0.447465
-0.450938
-0.0273248
-0.403847
-0.413491
-0.384042
-0.369257
-0.368836
-0.127362
-0.45046
-0.384302
-0.402593
0.0383748
-0.356603
-0.0227993
-0.259759
-0.39264
-0.426638
-0.379814
-0.0300841
0.184903
-0.145844
-0.372233
-0.151418
-0.446497
-0.0883647
-0.319188
-0.456078
0.0666365
0.0170678
-0.170563
0.0132191
-0.0706777
-0.421395
-0.434126
-0.101469
-0.0433384
-0.369108
-0.0114167
0.0619458
0.0798307
-0.405411
-0.369434
-0.411578
0.0261979
-0.404829
0.0398258
-0.360223
0.492895
0.0673594
0.213981
0.0168549
-0.378013
0.101606
-0.14508
0.0350821
0.00769549
-0.0123371
-0.0268275
6.41547e-05
-0.000548127
0.0651006
-0.0526126
-0.0733854
0.370163
-0.368562
0.383516
-0.108497
-0.287428
0.103155
-0.0138353
-0.392259
0.0953474
0.0384148
-0.418932
-0.273736
-0.33558
-0.105762
-0.347667
0.0403779
0.0207323
-0.104337
-0.379671
0.00407119
-0.446247
-0.432943
0.11441
0.298958
-0.396006
-0.17493
0.202828
0.076291
-0.405104
-0.0429527
0.363557
-0.0358245
-0.0226748
-0.45112
-0.415279
-0.393992
0.0757114
0.116883
-0.405571
0.0601417
-0.00265315
0.0816906
-0.391058
-0.382654
0.00257264
-0.00570508
0.0664633
-0.354574
0.022996
0.0817163
-0.389579
-0.359079
-0.0987013
-0.412169
0.079521
-0.0221138
-0.0678276
0.00545842
-0.385781
0.000376772
-0.0283609
0.00502139
-0.296231
0.0081518
0.0628781
0.111328
0.0943404
-0.133282
-0.0955003
-0.155903
-0.177489
-0.0748321
-0.448269
-0.369003
-0.122509
0.0568159
0.294661
-0.296953
-0.233434
-0.00211129
-0.450996
0.0914497
-0.45279
0.000531893
-0.402623
-0.446208
-0.37342
-0.0241142
0.535369
0.0317434
0.00759463
0.0505484
-0.164422
-0.167811
-0.410918
0.000791556
-0.0433034
-0.286687
-0.411013
-0.170418
-0.228379
0.0949836
-0.0874647
0.513165
0.148468
0.436084
0.0622074
-0.209337
0.488966
-0.295644
0.151933
0.0265251
-0.395903
0.336789
-0.391616
0.0526958
-0.223297
-0.0641916
-0.103899
-0.0459107
0.281424
0.106847
0.0922744
-0.224162
-0.23278
-0.422955
-0.362477
-0.0481108
-0.0914005
-0.409724
-0.396763
-0.360745
-0.419264
0.0275192
0.0253556
-0.050557
0.0781732
0.353037
0.0633757
-0.440675
-0.371563
0.0540317
-0.119642
-0.383512
-0.368438
0.0784574
-0.429169
-0.00286212
-0.376055
-0.35911
-0.410045
-0.150567
-0.128753
-0.412183
0.117603
-0.372824
-0.357931
-0.430499
0.00121761
-0.101462
-0.152587
-0.0423865
0.0306089
-0.369271
0.0506235
0.0605491
-0.0527223
-0.252884
-0.444589
0.0342214
-0.152655
-0.387914
-0.0573731
-0.375618
0.176
-0.403318
-0.0535426
0.136018
-0.415449
-0.0670278
-0.409315
0.231127
-0.315703
-0.368944
-0.346015
-0.0520589
-0.426162
-0.15818
0.00323382
-0.0059364
-0.157967
0.150585
-0.0483761
0.0357613
-0.411348
0.0731889
0.384732
-0.0502298
0.0848441
0.403216
-0.452103
0.0318538
-0.438285
-0.214284
-0.00539783
-0.0411642
-0.307268
-0.282405
-0.280268
-0.214715
-0.045437
0.502112
-0.415834
0.0738584
0.0628063
-0.382011
-0.00289273
-0.167624
-0.0638158
0.401259
-0.326394
0.0904639
-0.0078954
-0.358468
-0.0449069
0.0134441
0.176989
-0.057922
-0.367421
-0.36847
-0.271702
-0.157556
-0.43652
-0.419058
-0.0485169
-0.448247
-0.117841
-0.259812
-0.371195
0.351868
0.0320099
-0.367755
-0.329844
-0.119006
-0.434899
-0.438207
-0.426029
0.538041
0.545403
0.0601409
-0.16611
-0.367553
-0.373876
0.0659952
0.0901736
-0.398667
0.0257997
-0.408814
-0.389134
-0.338109
-0.361548
-0.0171919
0.501244
-0.370426
-0.0338598
0.0137304
-0.196456
-0.345691
-0.399224
-0.368894
0.530345
-0.413875
-0.149195
-0.370023
-0.395201
-0.376168
0.248889
0.274924
-0.368028
0.0142971
0.0925092
-0.400317
-0.286528
0.0931719
-0.0125454
-0.37833
-0.416594
0.0575949
-0.0244784
-0.0663805
0.0844228
0.424567
-0.373192
0.211706
-0.359459
-0.321612
0.0677373
0.309447
-0.10641
0.113273
-0.0451834
0.0571584
0.124785
-0.438139
-0.207989
-0.280879
-0.00461092
-0.0120905
-0.367637
-0.151228
-0.387885
-0.443318
-0.410375
-0.365455
-0.0466509
-0.344637
0.0559476
-0.368806
0.0677643
0.0384888
-0.38317
0.0417892
-0.360618
-0.390625
-0.0470395
0.327826
-0.0329712
-0.369699
0.473217
0.193182
0.0218501
-0.0596324
0.0378538
-0.409823
-0.101067
0.00307318
-0.0421234
-0.330573
0.362186
-0.161218
-0.047359
-0.0716349
-0.0412542
0.530072
0.0294093
0.0901682
0.133612
0.191653
0.0550084
0.151709
-0.0421899
-0.399025
-0.0306198
-0.0568794
0.430475
-0.401909
0.0607515
-0.333381
-0.101375
-0.131538
0.0692541
-0.324749
-0.115191
-0.28678
-0.355129
-0.000629723
-0.318695
-0.326065
-0.323697
-0.0122457
0.022724
0.284066
0.518034
0.319073
-0.371208
0.190177
0.300759
-0.441863
-0.0462772
0.0297534
0.459605
-0.383374
0.0542257
0.256336
0.487717
0.107818
-0.417245
-0.370671
-0.37237
-0.361826
0.0981667
-0.451191
-0.0681086
0.103373
-0.292204
-0.263583
0.266897
-0.026942
-0.164805
-0.195199
0.0768858
0.0921793
0.019272
-0.0996328
0.00468778
-0.0953132
0.0764799
0.113304
-0.372695
-0.202306
-0.0509935
-0.250204
0.483711
-0.153206
-0.0640027
-0.0344177
-0.152871
-0.0463864
0.547778
-0.0659292
0.207468
-0.0168265
-0.251593
0.128575
-0.14935
-0.129519
-0.121234
-0.37615
0.0846948
0.0152562
0.065268
-0.0614163
-0.399874
-0.450843
0.507873
-0.263365
0.219664
-0.0245474
-0.00668331
0.471232
-0.451623
-0.378202
0.295268
0.0210241
-0.0113617
0.262281
-0.0228064
0.442422
0.275706
-0.367968
0.0697356
0.070845
0.00218289
0.033404
-0.332859
-0.145345
-0.408074
-0.385196
-0.383293
0.177063
-0.0228739
-0.0418803
0.00753714
-0.369565
-0.118702
-0.274383
0.118055
0.233252
-0.0492741
0.103163
-0.0508412
-0.443961
0.10389
-0.0157512
-0.451432
-0.00440043
-0.165886
-0.255657
-0.09064
-0.301642
0.0854804
0.276494
-0.0977838
0.289589
0.089286
-0.011758
0.461213
0.442236
-0.402877
0.0188418
0.517503
-0.382011
0.0239245
-0.449859
-0.291742
-0.378931
0.242257
-0.0444685
0.28334
-0.11266
-0.0020396
-0.0604072
-0.406353
-0.297627
0.0240554
-0.380989
-0.0988689
-0.409939
-0.101519
0.0761028
0.109294
0.0452278
0.488212
-0.37111
0.137494
-0.0169964
-0.148489
-0.0817543
-0.435779
0.293609
-0.0110479
0.00480723
-0.117391
-0.262872
-0.0671814
-0.42498
-0.416023
-0.174891
-0.395294
0.131701
-0.435981
0.154206
0.265376
-0.424605
-0.242705
-0.120988
-0.16221
-0.269688
-0.093499
0.00472274
0.0019019
0.401987
-0.377235
-0.155075
-0.418796
-0.444268
-0.0395456
0.228597
-0.085806
-0.0359373
0.0653498
-0.00986052
0.452929
-0.0363847
-0.451262
-0.194369
0.0547444
0.0198699
-0.33961
-0.0665509
-0.0422857
-0.0131373
0.128397
-0.0258146
-0.0730575
-0.311813
-0.0398846
-0.0544131
0.212422
0.0858378
-0.367069
-0.248985
-0.419571
0.238554
0.31723
-0.442211
-0.407965
-0.023132
0.0697402
-0.0770926
0.0334686
-0.381031
-0.200932
0.0665523
0.0915733
-0.00362846
0.0130705
0.0808173
0.0372409
-0.0359174
0.271946
0.347289
-0.146496
0.00419124
-0.00214292
-0.438994
0.00258915
0.0557889
-0.0528062
0.016916
-0.0116517
-0.40589
0.0378741
-0.358532
0.188767
0.401461
-0.448597
-0.0441725
-0.0686778
-0.000931192
-0.0123827
0.423882
-0.271673
-0.195905
-0.0144928
0.0155011
-0.0596375
0.0113842
-0.438774
0.193182
-0.428481
0.0105053
-0.376921
-0.0399608
0.155332
0.416631
0.00267787
-0.224752
-0.408685
0.0374315
-0.113809
0.0424213
0.0464028
0.0527016
0.0884306
-0.373858
-0.0228829
-0.190756
-0.201338
-0.326142
0.0462492
0.519033
0.216658
0.0816312
-0.22576
-0.241443
-0.298168
-0.0260298
-0.335438
0.0109137
-0.448151
-0.0277841
-0.0917445
-0.367913
0.436864
-0.417535
0.0601938
0.491278
-0.371783
-0.382194
-0.117233
-0.0983029
-0.405449
-0.264676
-0.43842
0.0606349
-0.264919
0.445774
0.239049
-0.0889007
-0.0824359
-0.254098
0.00512924
0.149498
-0.447369
0.0686671
-0.029081
-0.267031
-0.122106
0.0475923
0.0964045
-0.0733814
-0.356488
-0.214551
-0.370813
-0.137809
0.0712432
-0.140746
-0.136665
-0.3708
0.0656277
-0.442691
0.152845
0.304293
0.293612
-0.407793
-0.401233
0.0097563
0.26229
-0.385821
0.289831
-0.123823
0.0282831
-0.246656
-0.255716
0.0950293
-0.00778178
0.3426
-0.0714467
-0.108921
0.0331959
0.0672925
0.0609864
0.0910906
0.0109747
-0.386299
0.0449558
-0.313151
-0.403763
-0.405716
0.0293271
-0.167302
-0.0305988
-0.341816
0.284402
0.262211
-0.0468718
0.110592
-0.0796727
-0.442861
-0.417946
0.00709299
-0.277408
0.0517495
-0.363206
-0.45214
-0.369235
-0.452491
0.412128
-0.330199
0.224947
0.0423445
0.0907703
-0.0579986
-0.397064
-0.0342779
0.0707298
0.0942666
0.163794
-0.125073
0.0699783
-0.326098
-0.0275053
-0.24607
-0.249272
-0.398388
-0.453382
-0.449605
0.0628841
0.434122
-0.434884
0.272229
-0.048052
-0.109502
-0.420506
-0.0619118
-0.0170639
0.198544
-0.069335
-0.0746421
-0.107468
-0.269208
0.211488
-0.321413
0.124727
-0.165532
-0.451466
-0.0669093
0.11281
0.138734
0.105379
-0.0153677
-0.366899
0.107968
-0.07707
-0.349908
0.0568907
0.113862
-0.0581836
0.251194
0.0646196
-0.115734
-0.241064
-0.371885
-0.380403
-0.0641739
-0.195212
-0.359129
-0.370556
-0.39461
0.0555018
-0.385888
0.0626067
-0.280168
-0.397678
-0.448843
-0.404113
0.0221742
-0.207221
0.170542
-0.0583778
-0.450861
-0.393893
-0.451356
-0.427743
-0.0422501
-0.452594
-0.337056
-0.334783
0.0567943
-0.333983
-0.446583
0.105873