/*--------------------------------*- C++ -*----------------------------------*\
| =========                 |                                                 |
| \\      /  F ield         | OpenFOAM: The Open Source CFD Toolbox           |
|  \\    /   O peration     | Version:  v2012                                 |
|   \\  /    A nd           | Website:  www.openfoam.com                      |
|    \\/     M anipulation  |                                                 |
\*---------------------------------------------------------------------------*/
FoamFile
{
    version     2.0;
    format      ascii;
    class       volScalarField;
    location    "300";
    object      ddt0(epsilon);
}
// * * * * * * * * * * * * * * * * * * * * * * * * * * * * * * * * * * * * * //

dimensions      [0 2 -4 0 0 0 0];


internalField   nonuniform List<scalar> 
13726
(
-1.1008e-09
2.6941e-10
-5.73246e-05
-0.00104954
3.41924e-10
0.000794741
0.000116325
1.02262e-09
7.68932e-10
0.00038201
0.000606256
0.000753632
-7.00999e-07
-3.03116e-10
-7.54356e-09
4.28461e-10
-1.46538e-07
-0.00314586
0.000768436
9.26569e-10
7.71185e-10
7.07767e-10
7.04486e-12
-8.52805e-08
5.1371e-07
-0.00057822
-6.01086e-10
-3.89434e-10
1.04814e-09
-1.06773e-10
8.30479e-10
3.4203e-10
-0.000125689
2.59453e-10
3.97875e-11
2.78357e-08
2.80078e-10
3.64583e-10
-4.89289e-11
-0.00113087
-1.52201e-10
5.53465e-10
8.71558e-09
-6.83803e-10
-1.09943e-09
-2.30345e-10
9.14466e-10
1.15757e-07
-2.57378e-10
-3.94644e-10
6.03678e-09
-5.74884e-07
9.94708e-10
-5.5763e-10
-2.23555e-10
3.03789e-10
8.24081e-10
5.49179e-10
-2.06165e-10
1.58063e-09
-2.21223e-10
-4.36476e-10
1.72551e-10
-2.48392e-08
6.23813e-10
1.54252e-10
3.17664e-11
-2.75389e-10
2.76331e-10
-2.50073e-10
-6.0285e-10
0.000338273
-4.36841e-10
9.04009e-08
1.20256e-10
-2.5286e-10
1.0525e-09
-0.000130703
-1.95058e-07
1.05286e-07
-0.000202959
-0.00139674
-5.68375e-10
5.8778e-10
1.05e-09
5.34919e-05
-4.10704e-10
-0.000216918
-2.28853e-06
-2.7382e-10
2.1977e-10
-3.58208e-10
1.01269e-09
5.02512e-10
3.33218e-10
4.44853e-06
2.74309e-10
-9.7966e-11
-3.19205e-06
8.86716e-05
9.11552e-11
0.000349532
9.56018e-10
1.21087e-09
5.42862e-10
-2.63132e-11
0.000937734
-2.09756e-10
-6.80396e-12
2.44362e-10
9.86369e-10
-9.44714e-10
1.11668e-09
-3.25008e-10
6.77843e-10
7.33432e-09
9.53017e-13
0.000912353
7.83504e-12
0.000310126
4.69595e-10
0.00015671
3.71193e-09
1.51508e-10
-1.53186e-10
-2.74005e-10
4.15528e-10
-5.09138e-06
-1.14367e-09
0.000145615
-4.07342e-10
-2.88759e-06
-7.75102e-09
-2.67591e-10
-9.93553e-11
1.56112e-09
-3.73094e-07
6.94281e-10
-9.53935e-10
4.31616e-10
2.66494e-10
1.42968e-10
4.61527e-05
-1.27676e-09
0.000312568
2.4901e-10
-2.19399e-08
-5.16307e-11
4.4261e-10
-1.46276e-10
1.03077e-09
-2.76487e-10
-9.73389e-11
-1.14707e-05
1.38779e-10
-2.49189e-10
2.39843e-10
9.5093e-10
-1.63978e-12
0.000293898
-3.04672e-10
9.46631e-10
0.000119551
-0.00096683
-2.07797e-10
4.67174e-11
-2.68781e-10
-2.11608e-11
-8.96076e-11
3.51232e-09
-1.632e-09
-4.15869e-10
1.04886e-10
-1.96066e-10
-1.31278e-10
-1.01316e-09
-0.00112402
0.00350291
4.95708e-10
-3.92433e-05
-1.24625e-10
7.71212e-10
0.000291176
0.000791378
-0.00176011
-1.77153e-10
0.000955317
3.89937e-10
0.0012029
3.60152e-10
-1.17134e-09
-1.24733e-09
6.51624e-10
1.99881e-09
0.000813421
1.17061e-10
-1.03141e-10
0.000271486
-3.37814e-10
-2.84318e-10
-2.11909e-10
7.77301e-10
1.22848e-09
3.05024e-10
1.14388e-09
5.65326e-10
-9.43372e-07
6.28261e-05
1.11268e-10
0.000784183
9.08298e-10
-0.000897657
-1.44859e-10
3.22981e-10
1.04776e-09
0.000416038
7.37163e-10
-4.48683e-09
9.99277e-06
-2.80242e-05
-1.93981e-10
-1.64216e-09
-8.88367e-11
-9.65197e-10
0.000819416
-1.39137e-09
-8.85523e-10
8.88351e-05
-1.15747e-09
-2.67406e-09
0.000236551
-0.000261873
-0.000531459
-0.000123253
1.86296e-09
0.00148428
-3.25922e-12
-1.23999e-09
3.02387e-10
-0.000136999
1.01412e-10
5.09329e-10
1.07726e-09
1.51085e-08
-3.72628e-05
2.77927e-09
5.87038e-10
-1.80378e-09
6.35041e-09
-8.68183e-10
-8.57761e-08
0.000243229
1.06064e-10
-2.14931e-10
6.06392e-10
-0.00205266
-9.47307e-10
-8.46139e-10
-0.00143723
-1.85862e-09
0.000450409
7.46073e-10
-7.59197e-10
-6.37082e-12
-1.27703e-09
0.000727403
-1.86675e-11
4.40066e-10
-1.02172e-09
1.33819e-07
-7.75749e-10
6.15431e-10
9.09991e-08
-8.27581e-07
-1.90875e-09
-3.43132e-11
8.09281e-10
3.46506e-10
-8.3011e-08
-8.58499e-11
7.74233e-10
-1.9893e-10
-4.42188e-11
3.16772e-07
-7.732e-10
-1.14608e-08
-1.31042e-09
5.88435e-10
-3.1994e-05
-0.00479591
-1.23761e-07
-4.57906e-10
-0.00628744
9.34184e-10
5.98986e-11
0.000909754
9.36279e-12
7.14331e-05
5.834e-10
-0.00153995
1.11357e-10
-0.00110837
-1.75871e-10
-0.000449288
-5.29692e-10
1.10019e-09
2.40491e-10
2.50206e-11
1.23515e-10
-5.43036e-10
2.77646e-11
-3.60059e-10
0.000871046
-5.19083e-10
-0.00119327
0.000194698
3.42388e-10
0.000189922
6.99074e-10
-0.00177743
-2.09296e-09
1.17291e-10
0.000349201
5.86861e-10
4.61235e-10
3.26283e-11
0.000288829
0.000888407
-0.00117919
-2.08654e-10
-5.55062e-10
-6.18516e-10
0.000992387
-6.47267e-10
-5.47975e-10
4.89247e-09
9.85183e-10
-3.93184e-10
1.9217e-09
0.00123911
2.70844e-09
-2.04372e-10
7.84585e-08
-4.11847e-06
4.50543e-10
-0.00237954
-2.37553e-10
0.000663973
-6.14026e-10
-1.01454e-09
-8.93704e-10
0.000215681
6.00789e-10
1.03648e-09
4.08411e-10
1.25792e-10
-2.4216e-09
-2.74007e-05
0.00111812
6.78897e-10
1.01798e-09
1.1841e-09
-0.000554179
2.87194e-07
-3.18542e-09
-6.70706e-10
0.000281492
-2.0581e-10
2.44023e-10
-0.000104562
4.23443e-10
-6.29115e-09
7.66718e-11
1.86808e-10
-1.74052e-10
-0.000234502
-2.19001e-10
-0.00225755
7.59792e-10
0.00169666
1.96706e-10
-3.0227e-06
1.83672e-09
-7.00708e-10
9.78886e-08
-1.48027e-10
-0.000422399
0.000977026
-6.71339e-10
-8.03408e-10
2.12071e-09
-1.5512e-09
-4.07914e-10
1.24527e-10
1.50045e-11
-1.93728e-11
0.000572331
-0.000887387
-2.81374e-10
8.85171e-10
-3.92477e-08
-4.92342e-10
-1.65612e-10
1.58079e-10
4.24312e-10
-0.00031175
-7.57171e-05
3.04517e-08
-1.88391e-09
4.44908e-10
-0.000435435
2.9999e-10
1.21639e-09
-4.99581e-10
-2.45522e-09
7.79685e-09
-6.49449e-06
1.0702e-09
3.5774e-10
5.54e-10
-1.09824e-09
8.45867e-11
-3.4512e-10
8.40266e-11
2.5503e-09
-8.24258e-10
8.32713e-11
3.89418e-11
0.00128984
3.10358e-10
-3.03723e-10
7.69272e-11
4.91756e-10
-4.9268e-11
0.0011806
-2.50159e-09
-2.18946e-09
5.89827e-10
0.000280027
0.00150421
-1.02144e-09
-8.97884e-10
-8.93544e-10
1.22658e-05
1.27704e-10
5.99679e-10
1.51505e-07
-0.000175634
1.06768e-09
1.15266e-05
-1.66283e-09
0.000642351
0.00383246
5.32081e-10
-4.55198e-10
-1.28234e-06
6.92146e-10
-3.97682e-10
1.01486e-10
-3.86319e-10
-1.09939e-10
-6.16445e-11
0.0023851
-1.70001e-10
3.3618e-09
0.000240966
4.06356e-11
2.38657e-07
9.49693e-11
0.00150437
-1.58243e-09
-2.40501e-10
-1.09561e-06
-0.00114367
9.61227e-08
2.55503e-07
-8.58263e-07
-1.59185e-09
-1.96739e-11
3.68593e-10
-7.74951e-11
4.57489e-10
9.41633e-10
0.00122622
9.30416e-10
1.95486e-10
-6.72972e-11
0.000669218
-1.7003e-07
3.94401e-05
-0.000472422
-1.01789e-09
-4.11921e-10
-0.0043338
-3.00094e-09
3.87199e-10
-1.55238e-10
9.59074e-09
-3.15321e-10
5.64279e-10
0.00014078
-1.25063e-10
1.89836e-10
1.68237e-11
4.3929e-10
0.000242366
5.63864e-10
5.89654e-10
9.13552e-10
-9.23907e-05
-8.55302e-10
-8.63977e-10
-1.66866e-11
-1.52326e-09
6.20098e-10
4.63497e-10
-8.13825e-11
4.49987e-10
-0.00116872
9.82015e-10
-4.81164e-10
-4.55411e-10
-0.0002516
-1.025e-09
-1.3177e-09
3.69236e-06
-8.52523e-10
-4.7311e-09
4.03075e-08
9.62463e-10
4.9274e-05
2.2878e-10
1.1938e-09
-0.000362639
0.000823402
0.000965031
0.000679352
1.48333e-11
1.88968e-10
1.42456e-09
-2.1865e-09
-0.000564021
0.000778682
5.12135e-11
-5.27673e-11
1.69806e-10
-6.58651e-10
-2.10152e-10
-2.12624e-10
0.000208118
1.5666e-10
-0.000213838
-2.72474e-10
-1.76856e-09
6.89422e-10
6.98878e-11
-1.82336e-10
3.02213e-05
-3.52984e-10
-2.41766e-09
-8.22477e-11
0.000963235
-2.44916e-10
6.25387e-08
-1.54608e-10
-0.000121947
3.00191e-10
6.6053e-10
8.30485e-05
-0.00138477
-2.7821e-10
1.22051e-07
-5.75636e-10
7.29441e-11
-1.72954e-09
-2.57826e-09
-0.000124209
-3.16713e-10
-5.35601e-10
-2.22532e-11
4.83564e-10
-2.20518e-09
0.000455549
-6.11445e-10
-1.29748e-10
2.17183e-09
-1.29188e-12
-2.91288e-10
0.00330103
8.00904e-08
0.00238567
4.56534e-10
7.05643e-11
-0.00158181
4.91535e-10
-2.46331e-12
8.87575e-10
-1.98222e-10
0.000424119
5.11932e-10
0.000161428
1.22956e-12
5.41058e-10
2.64172e-11
-6.18289e-05
-0.000326034
1.11474e-10
6.54603e-10
-7.10634e-06
-2.93626e-10
3.2136e-10
2.531e-10
-1.93091e-10
-1.7179e-10
-1.57365e-10
-7.75144e-11
7.76126e-11
5.18313e-13
-4.69344e-08
-9.90874e-11
2.13538e-09
-1.59705e-10
1.29814e-09
5.42142e-08
0.000245179
-0.00256804
-2.93075e-11
-6.2748e-10
2.3492e-10
6.0761e-10
7.03744e-11
7.94512e-10
-4.89086e-05
5.16424e-10
-0.000738674
-1.2672e-06
-2.19327e-09
2.86844e-10
2.1392e-09
-0.000419945
-1.07909e-10
-1.18925e-09
8.21006e-10
7.35241e-10
1.15286e-09
6.93812e-09
-8.05416e-10
-1.27865e-08
-3.31923e-05
1.03947e-09
9.65009e-10
-2.93986e-10
-3.5009e-05
-7.68459e-11
0.000394958
0.00191456
-4.55615e-10
-0.000492534
-0.00133689
2.66041e-10
1.31653e-11
-1.03898e-10
5.21102e-11
2.58951e-11
-2.42814e-10
5.47002e-06
-1.02566e-05
1.07253e-09
-1.03959e-07
3.62922e-10
0.000201339
-2.57827e-09
-0.000344055
6.87239e-11
1.10804e-05
-1.27431e-09
2.34751e-09
-3.95805e-10
1.66677e-09
5.91255e-05
3.49649e-10
1.70827e-11
1.72237e-10
3.83092e-09
3.90389e-08
1.19456e-09
7.12417e-08
0.000859448
0.000420365
-5.75708e-09
5.96695e-10
-5.8749e-11
-0.000240008
-5.78161e-10
3.24948e-10
-2.8311e-10
2.84219e-11
4.12162e-11
-1.80288e-10
-2.32406e-10
-0.00253065
-5.57415e-06
-8.94634e-11
1.43566e-09
2.6663e-10
2.04244e-10
-3.6877e-10
0.000383044
2.23069e-10
-2.43923e-10
0.000145692
6.09375e-10
-4.76336e-10
2.86116e-10
0.000366942
4.14e-10
-1.17801e-05
1.24582e-11
-1.2735e-10
1.00561e-09
5.34676e-10
-0.000241347
0.000385148
7.40804e-10
-9.09518e-11
-1.61764e-10
3.79803e-10
-3.75306e-10
-3.87758e-10
4.03131e-10
0.000114923
9.50808e-11
3.78644e-10
2.38272e-10
0.000146198
0.000583868
-1.09182e-09
-3.83924e-10
2.8623e-10
5.49594e-08
-8.81145e-05
-4.25721e-10
-3.77396e-10
-7.57839e-12
-0.000209256
3.89825e-05
8.82098e-08
-1.67425e-10
-8.2287e-10
0.000186541
3.72976e-11
1.32689e-11
8.95394e-10
-2.11329e-10
8.11427e-11
0.000163744
-4.36273e-10
6.51112e-11
-1.47922e-10
8.12446e-11
-7.61625e-10
2.74688e-10
0.000257413
4.64928e-10
-2.74505e-10
8.07048e-10
6.57617e-10
-1.03017e-09
-0.000202215
-3.38018e-10
-8.53238e-06
7.38255e-11
-6.05406e-10
-7.47417e-10
4.74814e-10
-7.91576e-10
6.8775e-10
-0.00620911
-3.2069e-10
2.8671e-06
-3.81322e-10
3.27628e-08
4.69566e-10
2.58197e-11
-0.00143591
-6.56449e-10
3.45743e-10
-2.1856e-10
-1.76682e-10
-0.00181333
-0.000569612
6.56913e-10
-1.00172e-09
0.00066773
-2.64428e-11
1.45413e-09
1.76507e-10
1.69055e-05
4.00951e-10
3.52403e-10
3.85382e-10
0.000113691
1.23689e-09
-6.13048e-11
1.48171e-09
-2.98499e-10
7.80699e-10
-1.34943e-06
-1.45504e-09
3.75422e-09
-3.27818e-10
-2.65585e-09
1.60013e-10
0.00169216
6.81134e-11
-1.27354e-09
3.81108e-10
-7.18304e-11
1.06099e-09
2.99693e-10
-2.84145e-10
2.92143e-10
-5.80901e-05
-1.30273e-09
2.22348e-10
-2.43392e-08
-1.43844e-07
2.65214e-09
-2.75919e-10
-0.00484569
1.43213e-09
4.00167e-10
2.7636e-11
-3.96426e-10
-1.14413e-10
-3.34858e-12
2.42139e-09
-7.23838e-09
-6.18717e-10
1.89102e-11
-2.36441e-10
0.00105627
-1.26326e-08
2.10902e-05
-9.52485e-11
2.89413e-11
8.90132e-10
-0.000712648
2.07842e-10
1.75833e-10
5.98534e-10
-0.00375437
-0.000139604
-1.00729e-07
1.79307e-07
1.9386e-10
-4.16301e-10
4.17109e-10
0.00279488
0.00198501
-6.89953e-10
-3.30261e-11
-1.55526e-10
-8.31037e-09
9.43602e-12
-3.8321e-10
-3.99892e-10
0.00105539
2.75953e-08
1.3677e-10
-4.49704e-10
1.8986e-10
0.000760474
9.34505e-10
2.54725e-05
-5.10167e-10
1.84948e-09
9.09413e-10
2.2794e-09
2.72114e-10
-4.4386e-10
-6.34433e-10
-1.22744e-09
-0.000212004
-0.00113496
-8.23014e-10
-4.74115e-10
-1.58476e-09
-1.0783e-09
-2.48732e-06
3.70914e-09
0.000944047
-2.23389e-10
2.69033e-10
-4.0382e-10
1.21394e-10
-1.9343e-09
-2.36106e-10
1.58539e-09
1.90122e-09
0.00103393
-0.000778592
-1.31867e-10
-3.23595e-11
3.1866e-10
-3.23546e-10
-1.29102e-09
-3.21021e-10
-2.96246e-10
0.000407132
4.91559e-09
-3.79419e-11
-4.12551e-12
-2.95926e-10
1.04883e-10
-9.07087e-05
0.000374473
3.85651e-12
-2.55659e-08
2.67959e-10
2.0434e-09
2.94624e-09
-0.000559824
3.86528e-10
-1.6682e-06
1.33819e-10
-2.41281e-10
9.71081e-11
-2.23183e-11
3.11929e-11
3.44437e-10
-2.29975e-09
0.000295833
-5.44838e-11
-1.37495e-10
-3.24883e-10
5.25674e-10
-1.62271e-09
-4.8312e-10
0.000897037
-3.12147e-10
3.12906e-10
-1.81324e-10
0.00240513
-1.17087e-09
-0.000263648
0.000352007
1.06038e-09
-6.5022e-10
-7.0976e-09
1.895e-10
-3.65123e-10
1.90713e-10
7.14375e-10
-1.00613e-09
-4.16723e-10
-5.84096e-10
5.64395e-11
-3.38885e-10
8.5096e-11
7.93924e-10
4.25942e-10
4.34648e-10
9.42742e-11
1.49091e-11
4.35967e-10
0.00136435
-6.42418e-10
-3.9407e-10
-4.40837e-10
2.78061e-10
-1.10661e-09
-0.000387173
-2.83876e-11
0.0010496
-1.07384e-09
7.29013e-08
0.000641614
-7.25152e-11
1.34909e-09
8.29782e-10
2.89497e-10
1.33979e-09
-4.48425e-10
-9.00953e-11
5.5717e-10
2.98072e-11
-1.34664e-09
-6.94531e-10
-3.56668e-10
-4.85568e-10
-4.34143e-10
-2.82482e-10
-0.000606736
1.7916e-05
-6.53629e-10
5.09571e-10
5.0298e-11
4.54476e-10
-3.47442e-10
0.000430296
0.00162419
0.00031036
1.38865e-10
-0.000137896
-1.48248e-10
-1.93431e-09
-4.16306e-07
1.88157e-08
-3.51848e-10
6.34584e-10
1.17431e-09
-0.00126717
5.80041e-11
9.90244e-11
-1.64472e-08
2.23962e-10
5.99332e-10
-3.07378e-10
-0.000544751
-0.0034527
-0.00226765
2.39526e-10
-2.23984e-10
-0.000111241
0.001499
-9.72453e-10
-0.000270394
1.17307e-09
2.94077e-05
1.35647e-09
3.46539e-08
2.03905e-10
1.25859e-05
2.02496e-10
-9.25238e-11
-0.000271765
7.78864e-11
-0.00054644
-9.89188e-10
2.93511e-10
2.45872e-05
0.000231442
-1.89518e-10
1.45106e-09
5.72337e-10
-2.69787e-10
1.00639e-07
9.17951e-12
-2.05151e-11
-2.31857e-10
-1.6461e-10
-3.57499e-09
-3.86869e-10
-3.56619e-10
-2.54029e-05
-4.32975e-10
0.000590113
3.86702e-11
-3.53305e-11
-4.42214e-10
2.75696e-10
5.40727e-10
-3.53417e-07
-2.14846e-10
0.00134045
1.82093e-10
-8.66552e-10
1.18941e-06
-3.96748e-05
6.5619e-06
1.54603e-10
2.25664e-10
-6.92202e-05
-0.000374047
9.91659e-11
0.00158289
0.000337446
-0.000917305
-5.86608e-10
-7.0366e-10
-0.000386127
0.000154197
-2.05434e-10
9.34562e-10
-1.24872e-09
-8.2309e-11
-1.14999e-10
-1.60523e-10
2.54109e-11
-2.16903e-10
0.00302684
-2.41798e-10
4.33195e-09
-2.8236e-09
2.15916e-10
-5.74882e-10
3.8888e-11
2.29258e-08
-7.10789e-09
7.01998e-10
-3.09562e-10
-1.08527e-10
5.20981e-10
-2.57623e-09
2.24305e-11
0.000301487
-4.99345e-10
-0.000431315
6.35311e-05
4.00714e-10
-1.17383e-11
9.82687e-09
-1.65459e-10
-3.22679e-10
5.50622e-10
2.84866e-10
-4.74123e-05
2.9214e-10
-6.73041e-10
3.84714e-10
1.33932e-07
-3.02463e-10
1.71542e-09
-4.37155e-10
1.69874e-10
2.41966e-10
-5.82431e-10
-1.79485e-09
-1.70081e-10
-3.20616e-05
3.67351e-11
-8.71877e-10
-1.45237e-10
-0.0066006
-3.57805e-09
-2.14754e-09
7.01228e-13
0.000225261
5.58663e-10
-4.20699e-06
5.54844e-10
1.29229e-10
3.27618e-05
-0.000323561
0.00145563
-0.000728404
1.78519e-11
1.0605e-09
-1.27772e-10
-4.20653e-11
3.0838e-10
1.65082e-09
-6.11771e-10
4.96352e-10
2.27816e-09
3.10538e-11
-0.000260381
-0.00144748
5.60685e-10
-1.45411e-05
-1.02205e-09
2.63538e-10
-4.8499e-10
4.1111e-10
-1.98398e-10
0.000397975
0.000868335
7.33284e-10
-5.58475e-10
0.000276098
-2.57471e-10
4.65931e-11
-5.55678e-10
5.53552e-10
-1.60502e-09
-2.93507e-11
7.58545e-09
1.38084e-07
1.42092e-09
-1.10398e-09
-7.56085e-05
6.41579e-09
0.000817762
0.00026903
-5.36929e-10
-4.60897e-09
-1.6401e-05
-4.62299e-06
-8.43719e-10
2.57902e-10
1.26807e-05
0.000865183
-3.0922e-09
-5.64755e-10
6.58632e-11
4.02817e-10
1.53492e-09
3.66229e-09
1.34715e-10
3.40938e-10
1.00229e-07
-3.3524e-10
-0.000606055
-4.48116e-11
6.69059e-12
-0.000322301
-7.03624e-10
-0.0015658
0.000263738
0.0001902
4.79379e-06
-7.88508e-10
5.47534e-09
8.78058e-11
-1.4969e-09
-1.05625e-10
-0.000631832
-1.94163e-10
-1.82212e-10
1.23354e-09
1.35519e-10
8.06632e-10
-5.02198e-05
-4.06917e-09
-8.73956e-10
-5.14207e-09
2.44514e-11
-1.20028e-10
2.17865e-09
3.50449e-07
-2.89524e-10
-2.01351e-10
-0.000404468
0.00154896
5.10811e-11
-1.02474e-09
1.09371e-09
-1.13363e-10
1.92255e-10
-1.26226e-09
-9.23005e-10
2.78718e-10
-1.51817e-10
5.88863e-09
0.00023922
6.48018e-10
3.36188e-10
-5.22732e-06
1.44633e-10
-5.61111e-11
2.57523e-09
1.25311e-10
2.73575e-09
5.30537e-11
3.84689e-11
-0.000802441
-6.29704e-11
1.54284e-09
0.00157176
-2.32711e-10
0.00119252
6.15923e-07
-1.98052e-07
-0.000839544
6.4922e-09
0.00110915
1.0635e-09
7.07371e-10
9.33946e-10
7.7289e-10
0.000307643
7.90171e-11
1.70846e-10
-2.89891e-10
-3.93558e-09
-2.23207e-09
0.000413844
-1.16897e-09
-4.0809e-10
-4.79107e-10
2.1765e-10
3.1415e-10
-4.21508e-10
1.2627e-10
3.39665e-10
-0.00116469
-0.000518937
0.000311173
1.15198e-05
6.79134e-10
-6.12894e-06
-2.50923e-07
1.17448e-09
-6.15169e-09
-5.82941e-10
-2.33663e-10
-1.58218e-05
0.00233586
-0.000292365
2.25649e-09
7.57111e-10
-9.83076e-05
-9.53329e-05
4.65709e-11
-2.5858e-10
1.92468e-09
-2.66804e-10
-1.16775e-09
-3.83918e-11
-7.43238e-09
0.000124515
-1.35507e-09
2.22894e-07
9.98103e-10
-5.77213e-10
6.32224e-08
5.37692e-10
1.47815e-07
1.9399e-11
-2.49944e-10
-4.12017e-10
-3.18661e-10
-6.72905e-10
4.84872e-05
-1.40884e-09
-3.99426e-10
3.49641e-10
-9.76049e-10
-7.44148e-11
-2.98363e-10
4.96956e-10
0.000215608
-0.00176343
2.9269e-09
8.38554e-09
-1.56978e-11
0.000136995
3.98919e-10
4.92935e-08
-3.19325e-10
3.95158e-10
-1.82582e-09
-0.000140676
9.6158e-11
2.58989e-10
4.1755e-11
4.84617e-07
-1.02993e-10
-2.17348e-08
-2.88257e-10
-1.13312e-08
-4.88307e-10
-0.00671757
0.00163484
0.000139564
-1.28419e-10
0.00590873
-1.5493e-10
0.000535259
4.52163e-11
1.68192e-08
0.00271754
-0.000866455
4.15206e-09
4.19161e-10
-2.85796e-07
7.04008e-10
1.41689e-08
-2.05917e-10
-9.36751e-10
-0.000586661
6.12226e-10
-0.000309006
-0.000201321
-5.61141e-10
1.74526e-07
4.55544e-10
-1.3496e-10
2.42963e-10
3.28134e-10
0.00119548
1.9147e-10
3.7695e-09
0.000478805
-2.08497e-07
-3.60584e-05
3.0822e-09
0.00146663
-9.10654e-11
4.76679e-10
-4.5527e-10
-1.34313e-11
-1.23425e-08
-0.000577698
1.61925e-10
-0.000131356
-3.37112e-07
1.11411e-09
8.09453e-11
-4.85019e-10
-0.000800289
-1.98747e-10
0.000921422
-5.7955e-10
-1.41056e-09
1.93873e-11
-5.62819e-10
-2.09258e-11
-2.13419e-10
7.06055e-10
-8.93454e-11
-4.98392e-10
-5.15996e-11
-4.6895e-08
3.67897e-05
-5.83432e-09
1.89387e-09
2.43766e-06
-2.58049e-10
-0.000146839
4.50041e-10
0.00121274
-0.000223854
-1.59713e-09
-3.33864e-05
-6.58537e-08
1.42696e-09
2.42391e-10
0.000323178
1.06508e-10
1.94897e-06
0.00179534
3.46998e-10
-2.34959e-10
2.78869e-10
0.0011923
-3.5059e-05
8.73182e-10
7.19534e-10
3.63471e-10
-1.37887e-06
-4.64587e-11
-2.02458e-11
-0.000379644
3.03722e-11
-0.000733669
0.000128497
-4.53749e-05
-2.58718e-10
-5.35873e-05
7.5643e-10
-4.4272e-10
0.000644419
-8.90961e-10
4.38423e-05
2.32646e-10
-0.000361944
0.000130216
1.49464e-10
5.77373e-05
-1.17653e-10
2.73379e-05
-2.62256e-10
0.000375845
1.36933e-10
-0.000449734
-6.5815e-10
0.00027962
-0.000302215
-5.27569e-10
-6.3164e-10
0.000364658
4.05465e-10
-3.39814e-08
-0.00121467
-6.73254e-10
1.11188e-10
1.21619e-08
-0.00177485
-2.92961e-11
-5.90635e-10
-3.06243e-10
-0.000851329
-2.59782e-10
4.11341e-10
0.00151174
1.25198e-10
-2.47842e-10
6.33203e-10
-2.46e-10
7.57254e-10
3.989e-10
-3.50305e-10
-5.34442e-10
1.16502e-07
-8.87856e-07
4.65879e-10
1.6029e-10
-1.06661e-09
-1.99147e-09
5.87977e-10
6.01401e-10
-3.76329e-10
0.00381569
-1.71303e-10
-6.85241e-09
1.94876e-10
-0.000400996
-6.42877e-10
5.77109e-10
2.00476e-09
-1.82422e-09
-2.3157e-10
6.55676e-11
6.96387e-10
0.00108547
2.77584e-05
-2.50457e-09
-9.58281e-10
-6.68531e-10
-1.53605e-09
-3.38064e-05
-0.000477874
-2.12565e-10
1.64477e-09
-6.54051e-10
-0.000890544
-2.00964e-10
5.11605e-10
-2.1825e-06
-1.21995e-05
1.53176e-09
-0.000568434
8.39251e-09
0.000479941
0.000213954
-2.77462e-06
2.71608e-10
0.000257388
-7.4232e-10
1.8146e-10
-1.04574e-10
-9.73534e-12
0.000132542
1.32795e-07
1.79922e-09
1.65583e-08
1.484e-08
-2.01717e-09
-1.17968e-09
-0.000480888
-4.48314e-06
-5.1275e-10
-5.463e-10
-1.07149e-09
-3.12476e-10
1.26321e-11
-3.55731e-10
2.1107e-09
1.58756e-09
2.91164e-09
-7.10633e-06
-4.72595e-05
-1.21764e-10
-8.85976e-11
4.04344e-10
4.03827e-10
0.00218404
4.01518e-10
3.34664e-10
-0.000365453
-0.00090285
-5.09814e-09
-0.000851588
-2.69457e-05
8.55371e-10
-0.00136842
-4.77065e-12
0.00126951
-5.61352e-10
-2.18476e-10
-0.000657483
3.67038e-11
-2.38593e-10
-2.0641e-06
0.000208832
0.00587707
-2.43562e-11
-1.32796e-10
7.04666e-05
-9.52927e-10
2.12611e-06
1.07335e-09
2.02157e-08
-0.000383348
0.000774535
0.000678494
-4.26338e-11
-7.25359e-05
-0.000586546
1.76756e-06
8.21027e-11
2.10163e-10
5.29837e-10
1.97753e-10
7.71427e-05
-0.000324689
-1.23915e-05
-7.42863e-10
-9.35632e-10
-1.90308e-10
4.5568e-11
0.000444176
-2.26935e-10
-0.000574021
0.000594644
1.02128e-09
-5.78851e-11
-0.000740792
1.85209e-08
-5.62128e-05
1.62161e-09
3.01567e-11
1.13636e-05
6.69726e-09
4.12658e-11
7.03592e-11
2.31329e-09
-6.85348e-12
-0.000233082
-2.89299e-07
-1.99071e-10
1.32242e-07
-5.23932e-10
-3.1383e-10
-7.11268e-10
2.45483e-10
-8.68745e-10
4.09209e-11
0.00142976
0.000109174
1.67479e-09
6.90944e-10
-0.00032868
5.76739e-10
2.48636e-09
0.000112868
-1.00161e-09
-0.000949447
2.61593e-08
2.05543e-11
0.000223652
1.41334e-10
-3.47096e-10
-1.24361e-06
-0.00051682
-5.50499e-11
1.29379e-09
0.00156731
-1.72359e-09
0.00134045
-2.04799e-07
2.63756e-07
-1.46448e-10
7.33688e-10
1.18132e-09
9.16833e-11
5.18903e-12
-2.45605e-10
-5.03428e-10
-1.31982e-10
1.59224e-10
7.52945e-05
2.53185e-10
1.57836e-10
0.000199981
-0.000453601
0.000599053
-1.63748e-09
9.49241e-10
5.38323e-11
1.12363e-10
-2.00762e-05
0.00231745
4.37236e-10
-5.31041e-07
0.00032766
0.00012443
1.30757e-09
5.27709e-10
-2.64946e-09
0.00153854
0.000164577
6.36231e-10
1.6773e-10
-6.72338e-10
-5.23585e-10
6.19484e-10
9.22322e-10
4.12254e-10
1.53498e-09
-5.51741e-11
-3.9484e-10
-3.35177e-10
9.55704e-09
-8.73947e-08
-2.2118e-12
-1.39371e-09
-0.00035342
-4.23125e-10
2.12577e-10
-5.40951e-05
-0.000473192
-4.91658e-06
-6.65818e-11
6.12784e-10
-3.05016e-06
0.000100132
-3.32861e-07
-6.30517e-10
-3.88977e-10
-2.76563e-10
-7.52701e-05
-0.000627516
9.16243e-05
-2.86175e-09
0.000164672
-7.78826e-10
1.97037e-10
-7.5851e-10
-2.13857e-10
-1.35009e-10
0.000423761
3.19585e-11
3.44266e-10
-1.11685e-10
-3.598e-07
-1.12712e-10
3.24809e-10
5.73334e-10
-1.92672e-10
9.84835e-10
4.40967e-10
1.58493e-11
8.52454e-05
-7.65197e-08
0.000207677
1.19253e-09
-1.01422e-10
-1.09571e-09
1.81045e-10
3.93527e-11
3.84697e-05
-1.22924e-07
-0.000268889
-0.000535124
1.12311e-10
-9.33715e-11
4.07553e-10
4.62679e-10
4.67035e-06
-0.000594418
1.98725e-09
-1.53472e-09
1.15629e-10
6.5283e-11
0.0003903
-0.000371803
1.7029e-10
4.65528e-09
9.22333e-11
-2.75845e-07
-0.00309644
-2.19243e-10
-0.00011596
0.000205764
3.67861e-10
-8.89033e-11
-2.5273e-10
4.4707e-10
-0.000444744
2.09483e-05
2.44327e-10
3.73861e-09
0.000508294
-1.37379e-07
-5.75412e-10
-0.000315596
0.000147741
-0.000858544
-7.01961e-10
-3.78206e-09
0.000212507
-0.000350953
0.000389445
-9.62404e-05
5.3596e-10
-8.28455e-10
8.31936e-11
1.31658e-10
-4.87454e-06
8.98027e-11
-6.86066e-11
8.135e-11
1.26202e-09
6.4616e-05
-2.68204e-10
-8.83733e-11
0.00031122
0.000144968
-0.000328985
-2.30161e-09
-4.99947e-07
-1.53491e-05
-0.00051854
1.67937e-10
-0.00178924
0.0020696
0.000590033
-9.29616e-11
2.30438e-11
2.5059e-09
-0.000540096
6.38364e-10
0.000288206
-1.1289e-10
-3.81371e-10
-9.73024e-05
-1.75275e-09
4.04843e-08
1.63842e-05
6.89852e-09
1.31791e-09
2.02537e-07
-7.99693e-10
-7.11186e-06
-2.48802e-10
1.71859e-09
5.07187e-08
-3.80183e-10
-1.18421e-09
-1.83495e-10
3.39265e-05
-3.38986e-10
-1.61763e-10
1.37316e-09
0.000201746
1.02738e-05
0.000573355
-0.000219567
-9.18453e-07
-0.000397447
-1.32403e-09
4.0238e-10
-8.54597e-10
-2.78029e-10
0.00255956
3.49628e-11
1.14709e-09
-3.61694e-10
-0.000282423
5.96781e-11
-0.00137297
1.23365e-09
-1.6827e-08
-1.17165e-09
-1.15615e-12
-1.71976e-10
-3.76025e-10
-1.32096e-05
0.00100211
-0.000552947
-2.50117e-10
8.79439e-05
1.87314e-11
0.000643417
1.3567e-10
4.46813e-10
1.10189e-09
0.000351091
2.09159e-10
2.26817e-08
-7.44427e-10
1.66605e-09
1.15764e-09
-5.28206e-10
5.50971e-10
-0.000387703
-5.94203e-07
-0.000127531
-4.21505e-10
-3.25206e-10
0.000131348
3.42269e-11
-0.000346402
3.54075e-10
-5.13823e-10
1.40519e-05
0.000257919
-2.01973e-10
0.000646238
0.000246218
-0.00058785
2.78886e-10
-2.2257e-10
-2.50396e-10
-3.09617e-10
-3.56934e-10
-3.41855e-09
5.4486e-11
0.000133438
0.000750812
1.23261e-09
-0.000219512
1.44382e-11
-6.73172e-10
-3.18865e-09
-8.24778e-11
8.92816e-11
-1.92115e-10
1.99917e-09
1.28074e-07
0.0010655
-0.000609357
-1.50249e-11
-2.77333e-10
-2.32043e-10
-6.348e-10
0.000347443
0.000980426
-1.22429e-10
-0.000384591
0.000624411
-2.54103e-09
7.57871e-10
1.29576e-10
8.61029e-10
6.68913e-10
2.34739e-11
1.19183e-10
-9.03892e-10
3.01259e-09
2.61863e-07
3.3754e-10
0.000108213
-7.79272e-10
0.000433281
8.01135e-05
-2.98705e-10
-2.86744e-10
0.000484084
-1.38874e-09
1.43355e-10
1.23112e-09
1.94333e-10
-8.07234e-10
-1.6104e-10
-4.07551e-10
1.10429e-09
-0.000199092
-8.28513e-10
0.000130131
-6.36337e-11
-5.49115e-10
-0.000311977
-3.97539e-10
0.000206032
8.76278e-10
-1.44624e-09
-4.83333e-10
-3.65405e-10
1.01605e-05
1.97313e-10
1.47129e-10
-6.28434e-10
-7.12509e-10
-0.000263417
-9.24686e-10
-6.46665e-11
-1.37972e-10
-5.89143e-10
-0.000325982
-9.55866e-12
4.08439e-12
-1.92819e-10
-3.86265e-10
-3.30547e-09
-0.00485922
-0.000259036
-6.31927e-10
-2.14173e-10
-1.41892e-09
-2.48322e-10
-5.26547e-10
-7.92751e-10
-0.00108778
-2.50745e-10
0.000267014
-1.08807e-10
4.10988e-10
2.15467e-10
3.55229e-10
-9.07976e-11
9.44316e-10
-4.59558e-10
-7.02685e-05
4.28215e-07
0.00193256
7.40322e-12
-2.27323e-07
7.82162e-10
-0.000761112
-4.5541e-10
-9.23123e-10
-8.22396e-11
4.62121e-10
-2.12881e-09
2.16964e-10
1.40639e-10
-6.37083e-07
-0.00024728
-3.3251e-10
-0.00052699
-0.000326319
-5.75124e-10
8.58182e-10
-1.30079e-10
0.000224684
-9.45337e-10
-3.70842e-09
-1.0922e-09
-9.04051e-06
9.37321e-05
-3.37725e-10
-1.77644e-10
0.000929652
-0.000598706
-3.93638e-10
-0.00019646
7.52757e-05
0.000784505
-1.06236e-09
8.04103e-10
-4.42106e-11
2.52634e-07
5.63144e-10
-0.00850119
-2.14195e-10
5.14001e-10
-1.1664e-10
-0.000234876
-0.000328681
-1.82525e-10
-0.000328707
-0.000704638
-1.94873e-08
1.65636e-09
7.13351e-10
0.000335172
2.39663e-08
0.000411249
1.95355e-09
-2.08936e-10
0.000287084
-4.67898e-10
-1.12037e-09
0.000984538
-3.06245e-10
1.44814e-10
-6.72061e-07
1.35842e-08
1.11767e-09
6.25077e-09
0.000104002
8.85519e-10
-5.42154e-10
-9.87958e-11
0.000381832
-4.58871e-11
-2.02968e-11
1.93076e-09
-5.74837e-05
-1.19595e-07
-2.99376e-10
4.4026e-09
-5.72748e-10
1.24978e-11
-4.17018e-11
3.69276e-10
-0.00103837
8.69325e-11
5.95384e-10
1.65508e-10
7.30365e-06
4.27464e-10
0.00286302
-3.6864e-09
-0.000428381
1.00148e-11
-1.82224e-05
0.000147917
1.73332e-09
1.05647e-10
-1.5187e-09
0.00121244
0.00261673
-5.74813e-10
-2.39307e-10
1.03031e-09
0.000275359
-3.66715e-09
0.000192977
-1.2962e-10
2.13726e-09
7.88443e-11
-4.40474e-10
2.1589e-08
4.76563e-10
-2.65625e-09
1.02924e-09
-1.54383e-09
-0.000313262
-4.8414e-10
-3.84128e-10
-7.28266e-11
1.16301e-10
-2.41534e-05
1.2576e-09
-1.01137e-08
4.52645e-10
-2.60985e-09
-1.38551e-10
-2.62758e-10
3.53941e-10
-1.02274e-10
0.00072799
-1.09587e-05
-0.000974215
-1.85758e-10
1.48982e-10
-2.15636e-10
-4.63345e-09
7.01815e-10
0.000147732
3.81119e-10
-1.29656e-06
-7.22342e-11
-5.71033e-10
-2.48775e-07
3.01591e-10
-3.2473e-10
-7.31819e-11
4.1972e-11
-5.10155e-10
0.000225419
-4.19808e-10
-8.72586e-07
-3.51531e-10
-2.1005e-10
-8.85427e-07
6.3097e-11
2.17319e-09
3.74597e-11
-1.91675e-09
-3.08759e-10
-6.51963e-10
-0.000759046
-4.29093e-11
0.0001725
-0.000876296
3.57425e-10
1.3182e-09
7.17457e-12
-3.99702e-10
0.000384908
-9.6192e-10
2.34322e-05
-0.00033789
2.70325e-10
3.0865e-10
-1.41665e-12
-9.89164e-05
7.78005e-05
-3.96105e-10
9.98669e-11
1.54815e-10
1.42302e-09
-7.19221e-10
2.15837e-11
-0.000553209
-3.7719e-07
6.86273e-10
1.83948e-07
-1.58714e-10
-8.54325e-10
-3.56095e-10
4.41588e-10
-2.49867e-10
-2.22866e-10
-9.06496e-11
2.5714e-10
-9.38089e-10
-1.17754e-10
0.000474996
-2.44722e-10
3.05722e-09
-4.58805e-10
1.03404e-10
-7.79478e-12
-5.43215e-09
-3.36507e-10
-7.16842e-07
2.28199e-10
0.000572533
-1.71571e-10
-5.71272e-10
7.75696e-11
1.41715e-09
1.55711e-09
-3.55151e-10
6.17386e-10
-3.30042e-09
-3.61276e-10
-2.15398e-10
7.18905e-05
-0.00042014
0.000518326
-0.000139715
-4.51405e-12
0.00517878
2.94909e-05
-1.5716e-10
-2.10785e-10
3.21957e-05
0.000133878
3.69576e-11
-0.000667852
-0.00030928
0.000496173
-0.00140085
4.20805e-06
2.60885e-10
0.00189785
0.000713487
1.05755e-09
-1.9267e-09
-0.00143034
6.23373e-10
-6.26621e-10
1.83452e-09
8.04774e-11
6.53737e-10
-1.41912e-10
-3.26127e-06
-6.85397e-10
9.65857e-10
1.02384e-06
5.3231e-08
0.000246401
1.69294e-05
-0.000313439
-4.32671e-10
-2.51278e-10
3.03475e-09
6.91676e-09
6.1355e-06
3.07425e-10
2.33035e-10
0.00029051
-1.60465e-09
-0.000811414
0.000371866
2.19457e-10
0.000353073
1.36286e-09
-0.000329028
0.00120737
1.145e-11
-5.20076e-10
-4.27138e-10
-1.73789e-09
-1.48007e-09
-0.000514837
1.05038e-10
-5.4321e-10
-1.26116e-09
-1.12971e-09
0.000407279
5.8065e-11
-6.64514e-07
2.56034e-10
3.73553e-06
4.08518e-06
1.19347e-09
9.8729e-06
7.25193e-05
0.000939108
2.77436e-05
-0.000180285
8.76722e-10
0.00904876
1.16873e-09
5.90464e-10
1.94078e-08
-5.90875e-10
0.00210736
-0.000467463
1.03789e-05
4.99301e-11
-1.03626e-10
0.000247772
2.13322e-09
1.04408e-08
2.6709e-10
-6.9475e-05
1.61713e-09
-8.16384e-11
-5.53043e-11
1.92361e-09
4.93135e-05
1.81216e-09
-0.000418116
1.00046e-11
3.37994e-07
3.47129e-07
-0.00214332
4.65462e-10
0.00108834
0.000212013
-1.62142e-05
0.00251442
-7.95372e-08
0.000136403
1.89331e-08
2.06428e-07
1.52639e-10
5.62288e-07
0.00575128
2.6445e-10
1.20624e-10
4.31837e-06
0.00362268
-3.58965e-06
-1.54052e-09
1.36116e-09
0.000256069
-2.49325e-10
-1.40327e-10
-1.21512e-09
-0.000429268
7.01076e-10
2.43626e-09
3.14739e-10
1.53208e-10
2.02702e-10
-0.000345718
1.87433e-06
-2.89619e-05
-8.00132e-05
-3.10147e-06
-3.58789e-13
-1.34897e-10