/*--------------------------------*- C++ -*----------------------------------*\
| =========                 |                                                 |
| \\      /  F ield         | OpenFOAM: The Open Source CFD Toolbox           |
|  \\    /   O peration     | Version:  v2012                                 |
|   \\  /    A nd           | Website:  www.openfoam.com                      |
|    \\/     M anipulation  |                                                 |
\*---------------------------------------------------------------------------*/
FoamFile
{
    version     2.0;
    format      ascii;
    class       volScalarField;
    location    "300";
    object      epsilon_0;
}
// * * * * * * * * * * * * * * * * * * * * * * * * * * * * * * * * * * * * * //

dimensions      [0 2 -3 0 0 0 0];


internalField   nonuniform List<scalar> 
13726
(
3.58544e-06
1.71051e-06
0.00579744
0.00617465
2.7113e-06
0.0225193
3.62007e-05
1.80508e-06
2.36151e-06
0.0062011
0.000650319
0.0251578
3.85572e-06
1.87207e-06
2.77213e-06
1.67864e-06
2.43481e-06
0.0755562
0.000723682
2.35917e-06
3.02396e-06
2.46709e-06
2.16497e-06
3.30719e-06
3.15622e-06
0.00435567
2.22697e-06
2.21836e-06
1.85934e-06
2.16224e-06
1.79694e-06
2.36489e-06
0.0122986
2.02597e-06
1.85836e-06
3.05162e-06
2.74664e-06
3.1364e-06
2.34943e-06
0.0827723
2.14692e-06
1.78814e-06
1.89734e-06
2.85475e-06
2.02606e-06
2.42026e-06
1.70345e-06
3.33697e-06
2.08359e-06
1.92528e-06
2.04175e-06
3.63309e-06
1.84698e-06
3.6425e-06
1.89863e-06
2.7928e-06
3.16607e-06
2.48166e-06
2.60147e-06
2.59895e-06
2.60752e-06
1.87904e-06
2.18643e-06
3.18389e-06
2.9892e-06
2.17731e-06
3.8164e-06
2.06587e-06
2.03005e-06
2.09315e-06
3.08752e-06
0.0070572
1.93033e-06
2.50443e-06
1.98083e-06
2.05228e-06
2.23468e-06
0.0277033
2.85784e-06
3.01141e-06
0.0309652
0.0116254
1.93213e-06
3.01583e-06
1.81074e-06
0.000321979
2.05575e-06
0.0123766
5.84431e-06
1.74633e-06
2.3073e-06
2.69811e-06
1.83046e-06
2.3383e-06
3.99664e-06
1.06756e-05
2.67866e-06
2.16337e-06
6.56815e-06
5.44845e-05
2.18025e-06
0.00670118
1.80899e-06
2.4719e-06
1.7928e-06
1.86832e-06
0.021588
2.34486e-06
2.02834e-06
1.67367e-06
3.22251e-06
2.0327e-06
3.36471e-06
1.87512e-06
2.3661e-06
2.85611e-06
3.64698e-06
0.00365767
2.18823e-06
6.68793e-05
2.85273e-06
2.42883e-05
2.07166e-06
1.98419e-06
2.76167e-06
2.6145e-06
1.87702e-06
0.00300109
1.93883e-06
0.0291277
3.24353e-06
5.96277e-06
3.16538e-06
1.7323e-06
1.96712e-06
3.24536e-06
3.34243e-06
1.88593e-06
2.52872e-06
1.89122e-06
1.96279e-06
2.90075e-06
8.45111e-06
2.98311e-06
0.000179523
2.08142e-06
2.20845e-06
1.86862e-06
2.91913e-06
1.68158e-06
2.41594e-06
3.39709e-06
2.40147e-06
1.02396e-05
2.8728e-06
2.29389e-06
2.44236e-06
1.83585e-06
2.36654e-06
0.00577247
1.74181e-06
2.36015e-06
0.000140445
0.00482066
1.84963e-06
1.84478e-06
2.27253e-06
2.48806e-06
2.14234e-06
2.68806e-06
2.87383e-06
2.10864e-06
1.82957e-06
1.8901e-06
1.75614e-06
2.08109e-06
0.0887172
0.0209861
2.22564e-06
0.00303474
2.16519e-06
2.42264e-06
0.00310526
0.00341245
0.0066466
1.913e-06
0.0185542
1.96772e-06
0.00845468
2.31236e-06
1.95833e-06
1.94451e-06
2.39595e-06
2.71985e-06
0.0193382
2.46162e-06
1.68379e-06
0.00588853
2.05791e-06
1.86652e-06
2.04559e-06
3.21658e-06
2.22614e-06
2.22852e-06
2.68082e-06
2.23212e-06
4.30728e-06
3.46737e-05
2.87875e-06
0.0180499
2.6036e-06
0.00539623
1.85528e-06
1.74818e-06
3.24051e-06
0.000204116
2.1399e-06
1.96206e-06
8.3868e-06
2.12179e-05
1.89367e-06
2.89861e-06
2.33347e-06
2.0113e-06
0.00896649
2.08681e-06
1.85347e-06
9.99078e-05
2.50561e-06
2.49255e-06
0.0027523
0.00733177
0.00938753
0.0077798
2.47855e-06
0.0213661
4.03865e-06
2.39516e-06
2.31989e-06
0.0145546
4.11238e-06
1.80529e-06
4.09992e-06
2.94342e-06
0.00821803
3.58426e-06
2.12506e-06
2.82571e-06
2.06775e-06
2.01639e-06
2.44029e-06
0.0058511
3.03058e-06
1.75122e-06
3.06716e-06
0.00382388
2.68763e-06
1.9478e-06
0.00560146
2.89465e-06
0.00284326
2.7772e-06
2.32249e-06
1.97347e-06
3.14298e-06
0.00588381
1.77179e-06
1.82521e-06
2.3678e-06
2.75797e-06
2.33322e-06
4.14816e-06
2.78168e-06
4.54695e-06
2.17997e-06
1.85281e-06
3.04977e-06
1.90287e-06
3.50665e-06
2.13182e-06
2.77945e-06
1.84329e-06
1.97862e-06
2.78605e-06
2.44234e-06
2.22623e-06
2.39148e-06
1.97997e-06
1.43071e-05
0.0655258
2.56795e-06
1.91394e-06
0.0354898
1.84693e-06
1.85651e-06
0.00603473
3.7698e-06
3.49761e-05
1.89396e-06
0.00615878
1.79081e-06
0.0119904
1.83819e-06
0.0104774
2.30074e-06
1.82022e-06
2.89369e-06
3.39429e-06
2.2387e-06
1.66264e-06
2.43908e-06
2.12342e-06
0.0197008
1.9408e-06
0.0111128
0.00270074
1.71969e-06
0.000313446
3.95364e-06
0.00737857
2.87333e-06
2.23455e-06
0.00933835
1.98798e-06
2.43392e-06
2.30077e-06
0.00259388
0.0260976
0.0125397
2.52867e-06
2.32193e-06
1.82829e-06
0.00766568
2.44048e-06
2.30297e-06
2.04287e-06
1.95722e-06
2.12056e-06
2.46806e-06
0.00648498
2.53898e-06
2.84314e-06
9.27045e-06
7.95943e-06
1.79753e-06
0.0608038
2.47e-06
0.00577843
1.97636e-06
2.50142e-06
2.59144e-06
0.00299203
1.85581e-06
3.03962e-06
2.2214e-06
1.85048e-06
2.51844e-06
1.20085e-05
0.00787719
2.28001e-06
1.86152e-06
1.81959e-06
0.00045568
3.61632e-06
3.26683e-06
2.69067e-06
0.000719485
2.10798e-06
2.19359e-06
2.47207e-05
2.35171e-06
2.06465e-06
1.78164e-06
1.79282e-06
2.54953e-06
0.0038519
1.69365e-06
0.00237561
2.0663e-06
0.00790539
2.44281e-06
0.00356628
1.86433e-06
2.45685e-06
2.48049e-06
1.88085e-06
0.00667505
0.01866
2.00386e-06
3.32919e-06
2.56403e-06
2.5151e-06
3.37187e-06
1.76679e-06
1.8449e-06
2.39941e-06
0.0218289
0.000228823
1.91805e-06
1.71222e-06
3.46925e-06
1.6756e-06
1.84416e-06
2.02796e-06
1.89503e-06
0.000371393
0.00473454
2.23901e-06
1.92239e-06
2.00705e-06
0.0123231
1.71578e-06
3.34962e-06
2.10568e-06
2.47376e-06
3.20235e-06
2.42476e-05
2.38744e-06
1.85749e-06
2.43902e-06
2.35331e-06
1.80194e-06
1.66369e-06
4.055e-06
2.46677e-06
2.40408e-06
2.11823e-06
2.34214e-06
0.0222559
1.8675e-06
2.33219e-06
1.86097e-06
1.78061e-06
2.2388e-06
0.0049773
4.10359e-06
2.56124e-06
3.56054e-06
0.0058888
0.00816382
2.39471e-06
2.0792e-06
2.59186e-06
0.00164759
2.19747e-06
1.90264e-06
3.54503e-06
0.0143201
1.72303e-06
1.66044e-05
2.10522e-06
0.000910747
0.0340021
2.36306e-06
2.45917e-06
3.8064e-06
2.05102e-06
1.99137e-06
1.71484e-06
1.90822e-06
2.63212e-06
2.20678e-06
0.00918546
2.33523e-06
3.75154e-06
0.0102851
3.06601e-06
3.14918e-06
2.72594e-06
0.00735298
3.01765e-06
1.80197e-06
4.23545e-06
0.00609617
3.00561e-06
2.57533e-06
3.57738e-06
2.04321e-06
1.85105e-06
1.89608e-06
1.82355e-06
2.72951e-06
1.97729e-06
0.0231504
2.07527e-06
2.04129e-06
1.70013e-06
0.00887059
7.63704e-06
1.82118e-05
0.00427307
3.5877e-06
2.10706e-06
0.037558
2.58725e-06
2.20534e-06
1.83139e-06
3.11656e-06
1.85161e-06
2.08539e-06
0.000185354
2.91412e-06
2.18903e-06
1.90693e-06
2.63874e-06
0.0019254
2.19281e-06
1.74651e-06
1.82711e-06
0.0053675
1.92039e-06
1.70313e-06
2.04365e-06
3.31197e-06
2.75827e-06
2.0215e-06
1.96689e-06
2.47047e-06
0.0118516
2.79551e-06
1.93817e-06
1.83677e-06
0.00371598
2.791e-06
2.57498e-06
9.56796e-06
2.70695e-06
2.38824e-06
5.94452e-06
2.35242e-06
1.16212e-05
2.07046e-06
1.84891e-06
0.00736602
0.00837668
0.022817
0.0261839
4.11823e-06
1.78708e-06
3.33655e-06
2.97224e-06
0.000741195
0.022993
1.83448e-06
4.1726e-06
2.15878e-06
2.6441e-06
1.72901e-06
2.43239e-06
0.00214805
2.10279e-06
0.000317666
1.90825e-06
1.99131e-06
2.54739e-06
1.72088e-06
2.181e-06
0.00577323
3.43308e-06
2.54569e-06
1.64548e-06
0.0194051
2.09869e-06
3.2126e-06
2.31763e-06
0.0284855
2.04225e-06
1.86601e-06
0.0011229
0.0121361
2.13552e-06
7.94919e-06
2.18877e-06
1.79776e-06
1.99167e-06
2.50472e-06
0.00302543
2.667e-06
1.88519e-06
3.45052e-06
1.85767e-06
2.53484e-06
0.00295212
1.70532e-06
1.74017e-06
2.63303e-06
3.6124e-06
1.98662e-06
0.0153789
2.51139e-06
0.0757269
2.0076e-06
1.77083e-06
0.000549975
2.0121e-06
2.32921e-06
2.28296e-06
2.20973e-06
0.00587413
3.67139e-06
0.00246528
3.69816e-06
2.28947e-06
1.64018e-06
0.00781152
0.0793005
2.12586e-06
2.78023e-06
4.91054e-05
4.14927e-06
2.04518e-06
2.00528e-06
2.9583e-06
2.54713e-06
4.04642e-06
1.88023e-06
4.00285e-06
1.76169e-06
2.72796e-06
2.28348e-06
2.68682e-06
1.86446e-06
3.25237e-06
2.97045e-06
0.0240202
0.0743303
1.8354e-06
2.89044e-06
1.82191e-06
1.78795e-06
1.82434e-06
2.03525e-06
0.02892
2.14344e-06
0.0100028
8.65598e-06
2.53678e-06
1.86963e-06
2.47973e-06
0.0125408
4.21431e-06
2.53775e-06
4.03533e-06
2.39732e-06
2.71236e-06
2.82038e-06
1.84562e-06
2.22053e-06
1.40154e-05
3.67474e-06
2.63329e-06
2.67119e-06
3.39353e-05
2.19808e-06
0.0164208
0.000995689
3.62934e-06
0.000100384
0.00716817
1.77624e-06
1.79195e-06
2.11654e-06
2.24146e-06
1.84341e-06
2.29175e-06
0.00307071
0.0249122
1.82919e-06
3.23166e-06
1.78799e-06
0.00229663
3.07085e-06
0.00425153
2.11905e-06
1.07023e-05
2.97164e-06
2.56386e-06
1.68074e-06
2.74529e-06
1.56144e-05
1.7327e-06
2.11003e-06
2.167e-06
3.41479e-06
3.05649e-06
2.65106e-06
3.38868e-06
0.0184134
0.0183184
2.08463e-06
2.85145e-06
2.67827e-06
0.032044
2.36021e-06
1.76631e-06
3.38331e-06
1.87033e-06
2.2925e-06
2.41003e-06
2.2441e-06
0.00477263
1.40615e-05
3.29441e-06
2.35444e-06
2.29089e-06
1.91632e-06
1.95308e-06
0.00285325
2.32277e-06
2.65985e-06
0.00766539
3.12494e-06
3.40662e-06
1.77185e-06
0.00484875
4.08616e-06
9.0886e-06
2.05014e-06
1.81328e-06
1.84775e-06
2.86691e-06
8.169e-05
0.0320871
2.06095e-06
1.68831e-06
3.30492e-06
1.7772e-06
2.28839e-06
2.19835e-06
2.09377e-06
1.72209e-05
2.45808e-06
2.47575e-06
1.77946e-06
0.0399242
0.000137485
2.28113e-06
2.22033e-06
2.83705e-06
1.88782e-06
0.00878047
1.93621e-06
1.93804e-06
1.80106e-06
0.0397002
1.79534e-05
2.55559e-06
2.44983e-06
2.99627e-06
0.00301674
2.41758e-06
4.00417e-06
2.41386e-06
1.88602e-06
2.50166e-06
0.0076572
1.93928e-06
4.2745e-06
1.79118e-06
2.0959e-06
2.09698e-06
2.54996e-06
0.00173122
1.65149e-06
1.79036e-06
1.85645e-06
3.08467e-06
2.55735e-06
0.00331215
1.79183e-06
6.76187e-06
1.83984e-06
2.37676e-06
3.4239e-06
2.69569e-06
2.2766e-06
2.0466e-06
0.0619674
1.95494e-06
7.1387e-06
1.88347e-06
2.13134e-06
2.0053e-06
2.52151e-06
0.00293513
2.30051e-06
1.80899e-06
2.70048e-06
1.87171e-06
0.000394324
0.00993627
3.46312e-06
2.54828e-06
0.0181205
2.04223e-06
2.40338e-06
2.22995e-06
1.12312e-05
1.89762e-06
4.15452e-06
1.88509e-06
3.67888e-05
2.86673e-06
4.1066e-06
2.38453e-06
2.19652e-06
3.0279e-06
1.15658e-05
3.9916e-06
4.04154e-06
2.18807e-06
3.1135e-06
2.35404e-06
0.00756979
1.86272e-06
2.55083e-06
1.83685e-06
1.85496e-06
2.8743e-06
3.48728e-06
3.19012e-06
2.53638e-06
1.75435e-05
4.14869e-06
2.34191e-06
2.25725e-06
3.47414e-06
2.4723e-06
1.83655e-06
0.0864935
2.64709e-06
2.10917e-06
3.11658e-06
1.67605e-06
2.77899e-06
4.1259e-06
2.85113e-06
2.06308e-06
2.11552e-06
2.01276e-06
2.27185e-06
0.0221325
2.08891e-06
5.28325e-06
1.84774e-06
2.00629e-06
2.24477e-06
0.000889629
2.22532e-06
3.06672e-06
2.21351e-06
0.001911
0.00301432
2.75036e-06
3.69315e-06
2.23524e-06
2.57566e-06
2.66095e-06
0.0127408
0.00776137
2.43995e-06
2.80326e-06
1.77539e-06
2.86934e-06
1.86713e-06
1.66591e-06
1.76856e-06
0.00734871
2.1206e-06
2.24899e-06
3.08609e-06
2.17715e-06
0.00624575
3.22084e-06
1.76987e-05
1.8773e-06
2.64754e-06
1.72758e-06
2.4972e-06
4.10853e-06
2.27702e-06
1.86835e-06
2.34658e-06
0.00323015
0.0107713
2.39683e-06
2.08328e-06
2.35372e-06
2.39888e-06
9.30357e-06
1.94537e-06
0.0185065
2.10815e-06
2.68558e-06
2.29699e-06
1.85509e-06
2.71174e-06
1.66569e-06
2.14596e-06
2.555e-06
0.0194227
0.00653232
3.41465e-06
1.86715e-06
1.96353e-06
2.36297e-06
2.09652e-06
1.84491e-06
2.49623e-06
0.00872739
3.09894e-06
4.27315e-06
1.74732e-06
2.29884e-06
1.63289e-06
0.00963157
0.00634931
2.29469e-06
2.1687e-06
1.65952e-06
2.16869e-06
3.11474e-06
0.00571972
1.67703e-06
4.6413e-06
2.67878e-06
4.16432e-06
1.89017e-06
1.93196e-06
2.31369e-06
3.03743e-06
3.51365e-06
0.00583935
1.84297e-06
1.87261e-06
4.21459e-06
1.81759e-06
3.14285e-06
1.95017e-06
0.00926744
4.0988e-06
1.81721e-06
1.78425e-06
0.0123022
2.97702e-06
0.00362496
0.005371
2.16109e-06
2.39521e-06
2.39936e-06
1.98647e-06
3.19473e-06
2.26053e-06
2.34923e-06
2.10041e-06
2.089e-06
2.26338e-06
2.60565e-06
1.72529e-06
2.03832e-06
2.66065e-06
3.94132e-06
2.00166e-06
2.32855e-06
2.74103e-06
1.71004e-06
0.0852306
1.86638e-06
2.40052e-06
2.35227e-06
1.80835e-06
2.39388e-06
0.00342989
4.04341e-06
0.0040469
3.06072e-06
3.19539e-06
0.00318152
1.64177e-06
2.36474e-06
2.54689e-06
2.5952e-06
3.10004e-06
1.72392e-06
2.36537e-06
2.1231e-06
4.11252e-06
2.53688e-06
2.3749e-06
1.64894e-06
1.91265e-06
3.90187e-06
1.96456e-06
0.00720664
2.48366e-05
2.30381e-06
2.57274e-06
2.86776e-06
2.21171e-06
2.08343e-06
0.0165752
0.00736678
0.000622396
2.02584e-06
0.00134012
2.01983e-06
2.45112e-06
1.10151e-05
2.1266e-06
2.42758e-06
1.70186e-06
2.43097e-06
0.00706519
1.67508e-06
1.8297e-06
2.29411e-06
2.10033e-06
2.12005e-06
2.08881e-06
0.00558078
0.0844368
0.00390197
3.63572e-06
1.83542e-06
0.000203963
0.0321285
2.5222e-06
0.00373811
2.33521e-06
3.34106e-05
2.353e-06
2.46171e-06
2.74739e-06
0.00343412
1.81542e-06
2.24167e-06
0.00346833
2.55243e-06
0.00491591
2.58104e-06
1.77492e-06
1.05381e-05
0.00195135
2.17365e-06
2.75236e-06
2.05979e-06
2.28061e-06
3.04348e-06
1.86383e-06
2.099e-06
1.83647e-06
2.34604e-06
2.48196e-06
2.45767e-06
1.87626e-06
2.13184e-05
2.84552e-06
0.0241804
3.94377e-06
2.14098e-06
2.09169e-06
1.84767e-06
1.78174e-06
2.89103e-06
1.65638e-06
0.00758601
2.16246e-06
1.94668e-06
4.1145e-06
2.80864e-05
7.98706e-06
2.31471e-06
1.75759e-06
2.81959e-05
0.0389852
2.71655e-06
0.00635732
0.0163114
0.00106528
2.23946e-06
2.61244e-06
0.00593694
0.00197058
2.42485e-06
2.68185e-06
2.61797e-06
2.05035e-06
1.81439e-06
2.10221e-06
1.73063e-06
2.20869e-06
0.00153241
1.65427e-06
3.04904e-06
2.58746e-06
1.7495e-06
2.22468e-06
4.0506e-06
2.11377e-06
2.17596e-06
2.04693e-06
2.10788e-06
1.8244e-06
4.14653e-06
2.57595e-06
1.98594e-06
0.00571254
1.89397e-06
0.00395978
0.00402262
2.03706e-06
3.02811e-06
2.40355e-06
2.24789e-06
1.91141e-06
1.78137e-06
2.86973e-06
0.000144357
2.1842e-06
1.92392e-06
2.22199e-06
8.51126e-06
2.26986e-06
1.86525e-06
1.88429e-06
1.88207e-06
1.79692e-06
3.12207e-06
2.542e-06
2.43812e-06
0.00870645
1.85201e-06
2.73937e-06
1.83483e-06
0.0459404
2.59184e-06
3.18971e-06
2.48144e-06
0.00226059
2.11046e-06
6.42977e-06
1.83582e-06
2.77781e-06
2.66252e-05
6.90705e-05
0.0199434
0.0117289
2.17172e-06
2.25477e-06
3.07744e-06
2.45599e-06
3.28532e-06
1.85555e-06
2.54118e-06
1.76098e-06
2.84995e-06
1.89978e-06
0.00298727
0.0177749
2.31573e-06
1.50078e-05
1.83144e-06
2.2306e-06
2.92363e-06
2.19746e-06
2.10182e-06
0.00314652
0.0203632
2.61602e-06
2.45042e-06
0.00100653
2.582e-06
2.28922e-06
2.06914e-06
2.17825e-06
2.73271e-06
1.80997e-06
3.58684e-06
3.26015e-06
2.66985e-06
2.81275e-06
2.62201e-05
2.00288e-06
0.0212722
0.0020744
3.99604e-06
2.10378e-06
2.08048e-05
1.57548e-05
2.29269e-06
2.28114e-06
6.98434e-06
0.00666385
2.85093e-06
3.80756e-06
3.36385e-06
2.04454e-06
2.88265e-06
2.08828e-06
4.11861e-06
1.68157e-06
6.75518e-06
1.91296e-06
0.0103832
2.14148e-06
4.26276e-06
0.00366749
1.9993e-06
0.000181764
0.00263619
0.00403881
4.91367e-06
2.45434e-06
1.97484e-06
2.12524e-06
3.16784e-06
3.5612e-06
0.00533632
2.13469e-06
1.8262e-06
2.35687e-06
3.4815e-06
1.75714e-06
0.015531
2.85563e-06
2.38187e-06
3.21574e-06
1.82597e-06
2.12876e-06
2.35429e-06
2.71464e-06
1.87037e-06
1.7648e-06
0.00417579
0.033188
1.66931e-06
2.47356e-06
2.76647e-06
2.31781e-06
3.82877e-06
2.89302e-06
2.3078e-06
2.92749e-06
1.86028e-06
3.5514e-06
0.000682749
1.68385e-06
2.59036e-06
6.03862e-06
1.98464e-06
3.01945e-06
1.9625e-06
3.5829e-06
2.59591e-06
3.61324e-06
1.91453e-06
0.00994743
1.83282e-06
3.40184e-06
0.00648305
2.32863e-06
0.012833
3.31417e-06
3.92163e-06
0.00561179
3.06408e-06
0.016177
3.73076e-06
3.6561e-06
1.87279e-06
3.21995e-06
0.00533895
1.89534e-06
2.94212e-06
2.15272e-06
3.72346e-06
2.64762e-06
0.0172522
1.94799e-06
1.89318e-06
1.90695e-06
2.18945e-06
2.56775e-06
2.14658e-06
2.24934e-06
1.8022e-06
0.0109178
0.00920029
0.00264339
4.80852e-05
2.3345e-06
9.34975e-06
6.46638e-06
2.73159e-06
2.08083e-06
2.44742e-06
2.3283e-06
8.98065e-06
0.0189208
0.00388199
2.70905e-06
2.45455e-06
3.26337e-05
4.53721e-05
2.05171e-06
1.78703e-06
2.15272e-06
2.12283e-06
2.40335e-06
1.68369e-06
3.19025e-06
0.00284517
2.04766e-06
2.54695e-06
2.6201e-06
2.52639e-06
2.47674e-06
1.81625e-06
9.89296e-06
1.79874e-06
2.32118e-06
2.4308e-06
2.31685e-06
1.71406e-06
1.03762e-05
2.07631e-06
1.94612e-06
3.76046e-06
2.97321e-06
2.14791e-06
1.74022e-06
3.09015e-06
0.00029007
0.0476527
2.16048e-06
2.16743e-06
1.86601e-06
0.00297365
2.07255e-06
2.40964e-06
1.73694e-06
2.42501e-06
2.48551e-06
0.000187812
2.10853e-06
2.31401e-06
2.31551e-06
3.61713e-06
2.3872e-06
2.24929e-06
2.45484e-06
2.92179e-06
1.94279e-06
0.0291211
0.0174942
0.000127206
1.86221e-06
0.0154402
1.91678e-06
0.0172374
3.1455e-06
2.82579e-06
0.052192
0.00618655
3.45231e-06
2.06776e-06
3.00838e-06
1.98266e-06
2.27139e-06
2.17377e-06
1.8581e-06
0.0110006
2.22158e-06
0.0301732
0.00224414
1.92121e-06
4.19347e-06
1.82495e-06
2.09511e-06
1.73353e-06
1.69864e-06
0.010905
2.41562e-06
3.07817e-06
0.00445436
3.60222e-06
1.19659e-05
2.65117e-06
0.00704187
1.87531e-06
1.78205e-06
2.04791e-06
1.8009e-06
2.0788e-06
0.00788232
2.38121e-06
8.45515e-05
5.06779e-06
2.32569e-06
1.76589e-06
2.48479e-06
0.0119031
2.12249e-06
0.0164584
2.06888e-06
3.6659e-06
2.5435e-06
1.74748e-06
4.21671e-06
2.31202e-06
2.3957e-06
1.95779e-06
2.09731e-06
2.02438e-06
2.29883e-06
0.00294231
2.72032e-06
2.54162e-06
4.73953e-06
3.52784e-06
0.00254578
2.18827e-06
0.0199813
0.00130454
2.04787e-06
1.26754e-05
4.91379e-06
2.6957e-06
2.20471e-06
0.0172274
3.31522e-06
7.32889e-06
0.0271262
2.148e-06
1.74453e-06
1.86667e-06
0.00657059
1.06193e-05
3.5347e-06
3.42319e-06
2.00341e-06
5.31926e-06
3.11593e-06
1.87885e-06
0.0134207
3.87168e-06
0.0110028
0.00284813
0.0157
2.13885e-06
0.00259417
2.01021e-06
1.99634e-06
0.00622835
2.54966e-06
0.00902034
2.05447e-06
0.0134183
0.0512137
2.30996e-06
1.22915e-05
2.44837e-06
0.00819499
3.0765e-06
0.00571135
2.46875e-06
0.0100644
2.32287e-06
0.00701569
0.000859766
2.08528e-06
3.62277e-06
0.00272558
1.77605e-06
2.84599e-06
0.00612538
1.69176e-06
2.32473e-06
3.02709e-06
0.00183758
2.53017e-06
2.46419e-06
1.83237e-06
0.0101771
1.65917e-06
1.92399e-06
0.0342698
1.70447e-06
2.86689e-06
2.38196e-06
2.13339e-06
2.2969e-06
3.03509e-06
2.7571e-06
2.49336e-06
2.63153e-06
4.52375e-06
2.38596e-06
1.89123e-06
2.29763e-06
2.08498e-06
1.81397e-06
2.43025e-06
1.8796e-06
0.0201452
2.30078e-06
3.22708e-06
1.77143e-06
0.0104722
1.80378e-06
2.19468e-06
1.86728e-06
2.2387e-06
1.78106e-06
1.67139e-06
2.15224e-06
0.0245016
3.52855e-05
2.68186e-06
2.89431e-06
2.12574e-06
2.40509e-06
5.12756e-05
0.00634763
2.36485e-06
2.70039e-06
3.71237e-06
0.011163
3.66713e-06
1.69391e-06
5.1176e-06
3.41369e-05
2.96909e-06
0.00770467
2.26065e-06
0.00642888
0.00887802
4.65176e-06
2.39003e-06
0.00715202
1.69313e-06
1.74676e-06
3.085e-06
1.77854e-06
0.0172155
3.26188e-06
3.19874e-06
2.06965e-06
2.51409e-06
2.50567e-06
2.1295e-06
0.00671427
5.46837e-06
1.92301e-06
1.71591e-06
3.44584e-06
2.2964e-06
3.09226e-06
2.08672e-06
2.12981e-06
2.68599e-06
1.86129e-06
0.014854
0.0144804
2.19759e-06
1.76675e-06
2.70068e-06
1.9995e-06
0.00403846
2.32488e-06
2.09359e-06
0.00392336
0.000300834
2.05117e-06
0.000455536
1.01305e-05
2.68203e-06
0.000343654
2.03975e-06
0.00776593
1.9324e-06
1.74367e-06
0.009399
2.70659e-06
1.7385e-06
0.00139903
0.00258361
0.0416941
1.95484e-06
2.31278e-06
0.00830503
2.3899e-06
4.20734e-06
2.80572e-06
4.21227e-06
0.0312601
0.00719669
0.00689374
2.49415e-06
0.0047438
0.00701491
7.5572e-06
2.20674e-06
2.10665e-06
2.45663e-06
2.5097e-06
0.00459076
0.00385598
1.51782e-05
1.69962e-06
2.72855e-06
1.87238e-06
2.34385e-06
0.00577596
1.97869e-06
0.00648729
0.0178395
1.7418e-06
2.32635e-06
0.00502989
2.53524e-06
1.84912e-05
2.53874e-06
2.66392e-06
7.39525e-06
2.7219e-06
1.70492e-06
3.09123e-06
3.11964e-06
2.38303e-06
0.0390505
4.20025e-06
1.86158e-06
2.57401e-06
1.95723e-06
1.98985e-06
2.33099e-06
2.93804e-06
2.6043e-06
2.44976e-06
0.00711079
0.0556836
3.24796e-06
3.54626e-06
0.00429884
1.68853e-06
2.38524e-06
0.0081979
2.45031e-06
0.0105038
2.82916e-06
4.14245e-06
0.0413543
1.88758e-06
4.2129e-06
4.14607e-06
0.005791
1.75995e-06
2.31226e-06
0.00498316
2.2161e-06
0.00808446
3.43268e-06
5.60449e-06
2.12235e-06
2.33764e-06
2.67698e-06
1.90987e-06
4.16395e-06
2.25745e-06
2.91005e-06
2.27197e-06
1.69426e-06
0.0279126
1.85335e-06
1.77211e-06
0.00325475
0.000701754
0.00669171
2.574e-06
1.87586e-06
2.30564e-06
2.03296e-06
1.83231e-05
0.000604787
2.34324e-06
7.43366e-06
0.0169344
0.0103478
2.67109e-06
1.64694e-06
2.41159e-06
0.00558181
0.00424736
1.99643e-06
1.65831e-06
1.91272e-06
1.91178e-06
2.09794e-06
2.80473e-06
2.32782e-06
1.93966e-06
4.1004e-06
2.52891e-06
2.61915e-06
2.45716e-06
3.39634e-06
1.90682e-06
2.53535e-06
0.00272169
1.91597e-06
3.07995e-06
2.1771e-05
0.00520349
7.12389e-06
1.83886e-06
1.91857e-06
5.04407e-06
0.00206139
3.3816e-06
2.47017e-06
1.91711e-06
1.74889e-06
0.00316412
0.00864271
0.00368386
2.36488e-06
0.0156962
2.69904e-06
2.03373e-06
2.55419e-06
2.28763e-06
1.83609e-06
0.0248857
1.90556e-06
2.25725e-06
2.27506e-06
4.27455e-06
2.0825e-06
1.78323e-06
2.26882e-06
2.16498e-06
2.69447e-06
3.17634e-06
4.22704e-06
0.00822772
2.78907e-06
0.00215882
3.14692e-06
2.06417e-06
1.75073e-06
2.2048e-06
3.11544e-06
2.03972e-05
3.12142e-06
0.00617829
0.00576274
1.69395e-06
1.679e-06
1.70225e-06
1.9712e-06
5.06534e-06
0.0111356
2.63506e-06
2.48748e-06
1.85028e-06
1.79128e-06
0.00503753
0.00231005
2.21029e-06
2.71202e-06
2.17942e-06
3.23054e-06
0.108765
2.56511e-06
0.00580759
0.00523637
1.76687e-06
1.7377e-06
2.49408e-06
1.79043e-06
0.00541683
1.03413e-05
4.22769e-06
2.65091e-06
0.00704538
3.28047e-06
2.62391e-06
0.0112185
0.00549609
0.000822861
3.29228e-06
2.39655e-06
0.0396645
0.0050487
0.00741614
0.00339903
2.89343e-06
1.93491e-06
2.10077e-06
1.8842e-06
5.54124e-06
1.66272e-06
2.46083e-06
2.43535e-06
2.66471e-06
0.0551431
3.0465e-06
1.95104e-06
0.00422748
0.00438545
0.00479023
3.1946e-06
3.1892e-06
8.59194e-06
0.0106036
4.16159e-06
0.00271024
0.0295881
0.00759141
1.89269e-06
4.13706e-06
2.48642e-06
0.00963963
2.68551e-06
0.00563266
1.72303e-06
1.78669e-06
0.00317642
2.37215e-06
2.43415e-06
0.00455683
2.16205e-06
4.03103e-06
3.61128e-06
2.39356e-06
6.37809e-06
1.8708e-06
3.23394e-06
6.57917e-06
1.85323e-06
2.16926e-06
2.2353e-06
0.00295517
2.51071e-06
1.93904e-06
2.46155e-06
0.00556114
1.17765e-05
0.00845238
0.0412976
3.88777e-06
0.00306055
2.54216e-06
2.02753e-06
2.47032e-06
3.0518e-06
0.00810261
4.15794e-06
2.46341e-06
1.9476e-06
0.0043158
2.12314e-06
0.00612501
1.95024e-06
2.39095e-06
2.45843e-06
2.9231e-06
1.86883e-06
2.0906e-06
7.56969e-06
0.0251356
0.0111987
1.92157e-06
0.00501603
2.05331e-06
0.00709048
1.74857e-06
1.79652e-06
2.59504e-06
0.00712304
1.95809e-06
2.11702e-06
3.19479e-06
3.37158e-06
3.2824e-06
1.94338e-06
1.97596e-06
0.00282384
3.88064e-06
0.00285791
2.08855e-06
1.92399e-06
0.00314985
2.32336e-06
0.032629
1.99886e-06
1.92563e-06
7.44884e-06
0.00180747
1.75506e-06
0.00346248
0.00749771
0.010038
2.26506e-06
1.83462e-06
2.74114e-06
2.09537e-06
2.75654e-06
2.51551e-06
2.20386e-06
0.00289896
0.00673087
2.34502e-06
9.26494e-05
4.16248e-06
2.92695e-06
2.95568e-06
2.09136e-06
1.89925e-06
2.17284e-06
3.41991e-06
2.5894e-06
0.0201433
0.0104333
1.85908e-06
2.14407e-06
1.93427e-06
2.28401e-06
0.00410418
0.0154053
2.23814e-06
0.0131932
0.00636179
3.00673e-06
2.92312e-06
1.65982e-06
1.76668e-06
2.0186e-06
1.92026e-06
1.86109e-06
2.80004e-06
3.22138e-06
3.5261e-06
2.23944e-06
0.00318551
2.20402e-06
0.00677107
0.00219928
1.90079e-06
2.05061e-06
0.00745246
2.16139e-06
1.65476e-06
1.84013e-06
2.19734e-06
2.55755e-06
3.26356e-06
1.85904e-06
1.99141e-06
0.00707426
2.98816e-06
0.00168472
2.30119e-06
3.16089e-06
0.00126488
2.13912e-06
0.00317455
2.3294e-06
2.52483e-06
1.6853e-06
2.55988e-06
0.00331629
2.11411e-06
2.15201e-06
2.37984e-06
1.83994e-06
0.0299253
2.53924e-06
1.75995e-06
2.19331e-06
2.14185e-06
0.0031197
1.82168e-06
2.0308e-06
2.17346e-06
2.31876e-06
2.49274e-06
0.0203934
0.00453704
2.35988e-06
1.98089e-06
3.14813e-06
1.91238e-06
1.95169e-06
2.44388e-06
0.000189496
2.19916e-06
0.00779335
1.75039e-06
1.77037e-06
1.7702e-06
2.19142e-06
3.41672e-06
2.39839e-06
2.07014e-06
4.88497e-05
3.41655e-06
0.0458504
2.11398e-06
3.27933e-06
2.39356e-06
0.000468604
2.06053e-06
2.38681e-06
2.12352e-06
1.75666e-06
2.86545e-06
1.93372e-06
2.10653e-06
3.70595e-06
0.00247579
3.35058e-06
0.0102362
0.00190665
1.94183e-06
2.16928e-06
4.22325e-06
0.00338247
1.86075e-06
2.77777e-06
2.33185e-06
1.39997e-05
0.00262308
2.16715e-06
1.90579e-06
0.013766
0.00420207
2.98396e-06
0.00938854
0.00313531
0.000205566
2.70448e-06
2.40627e-06
3.45243e-06
6.62724e-06
2.0076e-06
0.04255
1.94307e-06
1.98792e-06
1.88234e-06
0.00463832
0.0026694
1.94848e-06
0.0137874
0.00272899
2.38686e-06
3.22731e-06
2.02181e-06
0.00013293
2.45933e-06
0.00559741
2.23806e-06
4.15952e-06
0.00295022
1.85412e-06
2.27661e-06
0.00657296
1.89689e-06
2.37613e-06
2.12608e-05
2.40929e-06
1.99491e-06
2.36005e-06
0.0152842
1.98315e-06
3.49529e-06
1.81861e-06
0.00583647
1.76714e-06
3.36946e-06
2.55234e-06
0.00688894
3.21966e-06
2.18281e-06
2.01314e-06
2.3127e-06
1.89507e-06
2.0461e-06
2.46672e-06
0.0124734
2.22755e-06
2.12754e-06
1.8708e-06
1.09019e-05
2.41993e-06
0.0137122
2.25167e-06
0.00245497
2.3651e-06
1.38926e-05
0.00648365
2.6454e-06
1.8544e-06
3.3163e-06
0.0077956
0.10942
1.93822e-06
3.29003e-06
3.19937e-06
0.00610011
2.1953e-06
0.000103353
2.33731e-06
3.55428e-06
2.02159e-06
2.89514e-06
2.45209e-06
2.35863e-06
2.12226e-06
2.28808e-06
2.14206e-06
0.00421794
1.97873e-06
2.50944e-06
1.99486e-06
1.73755e-06
1.85487e-05
2.94972e-06
2.02754e-06
2.53805e-06
1.94525e-06
1.92846e-06
2.5327e-06
1.985e-06
1.70123e-06
0.0174192
0.00274551
0.0121614
1.72636e-06
1.95164e-06
1.98211e-06
1.88236e-06
2.40332e-06
0.00255209
1.88625e-06
4.61419e-06
1.83264e-06
1.85768e-06
3.64225e-06
1.77989e-06
1.74814e-06
1.8945e-06
1.76561e-06
2.07744e-06
0.0037261
2.0802e-06
4.08302e-06
1.95848e-06
4.11141e-06
4.74917e-06
1.92078e-06
2.60338e-06
4.16721e-06
2.57823e-06
1.94666e-06
1.94626e-06
0.00433265
2.27816e-06
0.00789018
0.0101102
1.77578e-06
2.07244e-06
3.07226e-06
1.96329e-06
0.017599
2.27626e-06
1.29774e-05
0.0104102
1.90148e-06
1.9678e-06
1.81747e-06
0.0033764
3.367e-05
2.35926e-06
3.61852e-06
1.76208e-06
2.78196e-06
2.58737e-06
1.82523e-06
0.00210175
3.11457e-06
2.2492e-06
1.01506e-05
2.29193e-06
2.51838e-06
1.96258e-06
2.24129e-06
2.3169e-06
2.05502e-06
1.7521e-06
1.76714e-06
2.68435e-06
1.96576e-06
0.0055045
2.13166e-06
2.28455e-06
1.74763e-06
1.80954e-06
3.51334e-06
2.72428e-06
2.11141e-06
3.57115e-06
1.82352e-06
0.00395344
1.851e-06
2.08488e-06
2.874e-06
2.55262e-06
2.38327e-06
3.66805e-06
2.31685e-06
2.3943e-06
1.93832e-06
1.8611e-06
0.00238605
0.00383426
0.00445882
0.000154977
1.76294e-06
0.0146375
0.00842615
1.98242e-06
2.5645e-06
2.10174e-05
0.00188259
1.99052e-06
0.0132077
0.000846882
0.00480067
0.00383232
1.08266e-05
1.79939e-06
0.0192402
0.000292718
2.63579e-06
2.37112e-06
0.0131426
2.87273e-06
2.31121e-06
2.57281e-06
1.78084e-06
2.87227e-06
2.04829e-06
1.73481e-05
2.54427e-06
2.57671e-06
4.08751e-06
2.48482e-06
0.00176621
8.17573e-06
3.8687e-05
3.50517e-06
2.58224e-06
2.64766e-06
2.79697e-06
1.24052e-05
2.19248e-06
2.03135e-06
0.00782052
2.71124e-06
0.000438285
0.00636775
1.81596e-06
0.00603632
2.92944e-06
0.00365517
0.0255769
1.90139e-06
2.69562e-06
2.07702e-06
2.70464e-06
2.23411e-06
0.0111964
2.20148e-06
2.28876e-06
1.87542e-06
2.4249e-06
0.00353529
2.19045e-06
3.37399e-06
3.64851e-06
0.0149863
1.52182e-05
1.84642e-06
8.57407e-06
0.0440222
0.00814085
1.57256e-05
0.0098221
2.02227e-06
0.0382265
2.45986e-06
1.82623e-06
6.01645e-06
2.30612e-06
0.015256
0.00736298
9.62119e-06
4.27835e-06
2.26405e-06
0.00157117
2.38548e-06
2.23176e-06
1.95608e-06
0.00278827
2.41158e-06
3.29108e-06
3.65266e-06
3.18558e-06
0.0124711
3.02138e-06
0.0105759
1.93901e-06
3.43143e-06
6.29814e-06
0.00330163
2.32632e-06
0.042742
0.000446345
7.53649e-06
0.00862499
6.22425e-06
3.45009e-05
2.81225e-06
6.58512e-06
2.26251e-06
4.36506e-06
0.0251741
2.22629e-06
1.7406e-06
4.53776e-06
0.0169701
5.33124e-06
3.02859e-06
2.51309e-06
0.00519657
2.10213e-06
2.42729e-06
2.21886e-06
0.0135323
1.79563e-06
2.7846e-06
1.88276e-06
1.94531e-06
2.15985e-06
0.0033057
4.94658e-06
1.01165e-05
0.00232779
1.34583e-05
3.3378e-06
1.77142e-06
2.36912e-06
3.24416e-06
6.47245e-06
2.16237e-06
1.94355e-06
0.0017309
1.92436e-06
0.00882843
2.2372e-06
0.026078
2.82976e-06
2.25952e-06
1.74949e-06
3.18523e-05
3.47845e-06
2.34048e-06
1.81745e-06
3.0382e-06
5.38861e-05
4.16024e-06
3.02192e-05
2.33484e-06
1.77754e-06
2.99503e-06
0.0339101
2.88609e-06
1.90673e-06
0.000235363
2.1124e-06
3.21107e-06
0.00944854
0.00868258
2.24157e-06
1.90782e-06
2.28272e-06
2.02936e-06
0.000325325
1.73884e-06
1.81065e-06
2.22732e-06
6.80205e-06
1.96232e-06
1.77114e-06
1.45086e-05
2.50402e-06
0.108777
1.12953e-05
0.000641293
4.96111e-06
2.16337e-06
3.49899e-06
2.11331e-06
2.72267e-06
2.00878e-06
1.99608e-06
0.0115389
2.56982e-06
2.57347e-06
2.75682e-06
3.97106e-05
2.59015e-06
0.00546776
0.0120388
2.38455e-06
0.000882265
0.0387342
1.75885e-06
3.16909e-06
2.36358e-05
1.89726e-06
1.96033e-06
2.58928e-06
4.27338e-06
1.76183e-06
1.71268e-06
3.07235e-06
2.05431e-06
2.09999e-06
3.54746e-06
6.21107e-05
0.00614631
1.76658e-06
0.00320219
0.00949495
2.61908e-06
0.0169711
1.74817e-06
0.00407639
2.06822e-06
2.10162e-06
2.31858e-06
2.7491e-06
2.59501e-06
0.000214086
2.63695e-06
2.26293e-06
2.51049e-05
2.29619e-06
0.00165934
2.36787e-06
3.41932e-06
2.15776e-06
2.0908e-06
1.81993e-06
1.70132e-06
1.95309e-06
2.3195e-06
0.00479689
4.13827e-06
1.91457e-06
2.40437e-06
3.63039e-06
2.67451e-06
3.51442e-06
0.00585555
0.000155047
0.0231793
7.47524e-06
1.88256e-06
2.40397e-06
3.21031e-06
1.76286e-06
6.59821e-06
2.33349e-06
2.32977e-06
0.00377878
0.00155026
2.39058e-05
5.49561e-06
3.35569e-06
3.31058e-06
5.58825e-06
0.0338049
1.91102e-06
2.34503e-06
2.18537e-06
0.0684198
0.0098271
3.18681e-06
2.23803e-06
1.96429e-06
2.47431e-06
2.48813e-06
2.0849e-06
2.09626e-06
1.77643e-06
0.00362181
0.0277512