/*--------------------------------*- C++ -*----------------------------------*\
| =========                 |                                                 |
| \\      /  F ield         | OpenFOAM: The Open Source CFD Toolbox           |
|  \\    /   O peration     | Version:  v2012                                 |
|   \\  /    A nd           | Website:  www.openfoam.com                      |
|    \\/     M anipulation  |                                                 |
\*---------------------------------------------------------------------------*/
FoamFile
{
    version     2.0;
    format      ascii;
    class       volVectorField;
    location    "300";
    object      U_0;
}
// * * * * * * * * * * * * * * * * * * * * * * * * * * * * * * * * * * * * * //

dimensions      [0 1 -1 0 0 0 0];


internalField   nonuniform List<vector> 
13726
(
(0.999238 0.00101436 -1.53515e-22)
(1.04787 0.0396513 4.25007e-21)
(0.757147 0.068977 9.61943e-21)
(0.715703 0.0607479 6.64204e-21)
(1.00314 0.00484609 2.61122e-20)
(0.58634 0.0319463 -8.1012e-22)
(1.06767 0.126542 0)
(1.06182 0.0505656 3.54582e-21)
(0.90103 0.0354045 -1.01828e-19)
(0.863812 0.0612492 -7.75422e-22)
(1.03664 0.0780558 0)
(0.453183 0.0270631 1.78121e-21)
(1.03312 0.0756216 -5.7332e-22)
(1.04626 0.0589314 -6.73585e-22)
(1.0304 0.0785796 -1.95102e-22)
(1.04896 0.0350466 1.26227e-21)
(1.03957 0.0707835 0)
(0.593197 0.0120781 1.67875e-20)
(1.03293 0.0772763 0)
(0.96367 0.0201842 -9.64389e-21)
(0.864833 0.118883 1.61832e-20)
(0.982985 0.0146861 -9.43764e-21)
(1.0082 0.0169363 6.15055e-21)
(1.02875 0.0995902 1.09866e-22)
(1.03163 0.0802501 -1.73548e-22)
(0.748817 0.0603928 0)
(0.979946 0.037574 -3.19363e-20)
(0.981563 0.0375122 2.49076e-20)
(1.05566 0.0564769 7.98406e-21)
(0.998378 0.0820703 2.46766e-20)
(1.06189 0.0500081 -3.42646e-21)
(0.931188 0.00705078 0)
(0.846314 0.0535649 -9.11873e-22)
(1.03188 0.0677271 1.14005e-22)
(1.03925 0.0574714 0)
(1.03102 0.0803984 1.79921e-23)
(1.00286 0.00458613 -7.27454e-21)
(0.992551 -0.00519078 -1.29618e-20)
(0.905615 0.0352019 2.86925e-20)
(0.625999 0.0141837 -1.78818e-20)
(0.999531 0.0806296 -8.01037e-21)
(1.04024 0.0481041 0)
(1.06313 0.0553484 7.59737e-21)
(1.00166 0.00452885 -6.95629e-21)
(1.00801 0.0390318 4.64452e-23)
(1.00503 0.00928634 0)
(1.04785 0.038846 -4.71217e-21)
(1.0644 0.0698434 1.97855e-20)
(0.995713 0.0612414 0)
(1.02393 0.0579964 -5.04355e-21)
(1.06796 0.057408 3.68038e-22)
(1.03312 0.0754251 0)
(1.0559 0.0555834 -1.0876e-20)
(0.999357 0.000852985 1.86767e-20)
(1.03661 0.0604703 0)
(0.995891 0.00682961 0)
(0.993162 -0.00519713 1.05332e-20)
(0.983236 0.0137678 -8.03828e-21)
(0.996109 0.010706 0)
(0.98053 0.0054588 -2.18857e-20)
(1.00469 0.000785328 1.34513e-20)
(1.01886 0.0148833 1.40267e-21)
(0.971327 0.0551073 -1.35383e-20)
(1.0271 0.0994032 0)
(0.879778 0.129423 3.70189e-20)
(1.00826 0.0163422 -6.26671e-21)
(1.00021 0.000157646 -1.18698e-20)
(1.00138 0.0647319 1.35323e-20)
(1.0313 0.0677259 5.89884e-22)
(0.994502 0.0621029 0)
(0.991109 -0.00760469 0)
(0.732522 0.0652175 -1.28849e-21)
(1.02346 0.0587839 5.54392e-21)
(1.03658 0.0718642 -8.14413e-22)
(1.02705 0.0658708 -6.25903e-22)
(1.00226 0.0621427 0)
(1.00703 0.0146971 1.56032e-21)
(0.713498 0.0341007 -3.0449e-21)
(1.03089 0.0785783 0)
(1.02953 0.0873509 0)
(0.664659 0.0298298 2.30913e-21)
(0.580415 0.0459047 -8.4552e-22)
(1.01724 0.0349677 1.53426e-20)
(0.994712 0.00222794 7.66875e-21)
(1.06057 0.0515199 -1.9436e-20)
(1.0514 0.0786467 -7.86409e-21)
(1.00254 0.0638293 -9.76251e-21)
(0.837455 0.0530808 0)
(1.07428 0.0688329 -2.00401e-20)
(1.04467 0.0440199 0)
(0.952537 0.0294352 -5.00709e-20)
(0.978459 -0.00398485 3.95859e-20)
(1.0243 0.0270247 0)
(0.987084 0.0221694 1.98241e-20)
(0.999849 0.000149317 0)
(1.05655 0.0747746 0)
(0.977307 -0.00435389 -3.69157e-20)
(0.996389 0.0823028 1.01719e-20)
(1.05756 0.0735103 1.4125e-20)
(1.05059 0.0913719 0)
(0.973201 0.0555929 -1.39201e-20)
(0.838435 0.059932 1.90146e-21)
(1.06133 0.0513699 1.01264e-20)
(0.990189 0.0150444 0)
(1.04004 0.0489506 0)
(1.02999 0.0531586 0)
(0.56051 0.0309309 -1.11337e-21)
(0.988119 0.0222938 7.98528e-21)
(1.01391 0.00136913 0)
(1.04973 0.0347539 0)
(1.00028 0.00309407 1.95975e-20)
(1.00716 0.0398307 8.22313e-21)
(1.00025 0.00235323 -2.67928e-20)
(1.04555 0.0589138 0)
(0.9657 0.0203986 7.89446e-21)
(1.03009 0.0811899 -4.30863e-22)
(1.00036 0.000201199 -9.32679e-21)
(0.794226 0.0660934 0)
(0.976336 0.0480096 0)
(1.07516 0.126487 0)
(0.869605 0.110995 -3.46327e-20)
(1.06279 0.130748 3.64441e-21)
(1.06873 0.0576421 -7.92471e-21)
(1.02632 0.0658684 -1.56849e-21)
(1.00285 0.00431527 0)
(1.00494 0.000611404 -1.36781e-20)
(1.02223 0.0361516 -7.20383e-21)
(0.917129 0.0693222 0)
(1.01675 0.0357458 -8.56918e-21)
(0.72883 0.0355587 0)
(1.00045 0.00286809 1.37201e-20)
(1.07463 0.0682747 2.61798e-20)
(0.994597 -0.00130251 7.71938e-21)
(1.04639 0.0428444 0)
(1.02787 0.0648198 -1.01008e-21)
(1.00031 0.00294572 -1.50176e-20)
(1.01427 0.126578 -3.91444e-21)
(1.02133 0.0361156 -3.96266e-21)
(1.00114 0.0108047 -3.5406e-22)
(1.02434 0.0502768 -5.1989e-21)
(1.0155 0.0273798 -1.04962e-20)
(1.0017 0.00427988 0)
(1.04317 0.0757153 -3.70974e-22)
(0.994405 0.00251625 9.15086e-21)
(1.05645 0.0783482 4.09248e-21)
(1.00966 0.0235663 1.3367e-20)
(1.04367 0.0680944 -5.00064e-21)
(1.03798 0.0582641 1.22299e-21)
(0.886096 0.126399 -5.96165e-20)
(1.04549 0.0336035 -2.16805e-21)
(1.02165 0.0877212 1.11193e-21)
(1.00031 0.00223575 1.35376e-20)
(0.977573 0.106985 2.66434e-20)
(1.04286 0.0757018 5.47009e-21)
(1.00195 0.00426217 1.43335e-20)
(0.948999 0.0851968 1.31074e-20)
(0.889874 0.064492 3.94308e-20)
(1.02389 0.0265116 -2.55671e-21)
(0.979845 0.104765 -8.65923e-21)
(0.842313 0.060922 2.0198e-21)
(1.04546 0.0438794 1.26379e-21)
(0.929112 0.00918016 -3.34277e-20)
(1.039 0.076814 -2.79425e-22)
(0.734034 0.0608935 -2.73701e-21)
(1.03316 0.0528954 0)
(1.02504 0.0345069 4.75673e-21)
(1.00813 0.00812541 0)
(0.996065 0.0137438 1.03445e-20)
(0.989547 0.0758458 1.79236e-20)
(1.00315 0.00514829 -2.23403e-20)
(0.990907 0.00202007 0)
(1.00842 0.0769698 -6.303e-21)
(1.03664 0.0525355 -3.17714e-22)
(1.03625 0.0598531 4.67784e-22)
(1.04361 0.0450469 -5.14328e-21)
(0.997863 0.0463052 0)
(0.501813 0.000807643 2.54839e-20)
(1.12631 0.261719 -4.60745e-20)
(0.99382 0.0285332 0)
(0.912469 0.0691884 0)
(0.994886 0.0816328 -1.93244e-20)
(1.02065 0.0882996 0)
(0.820092 0.06632 -9.28598e-21)
(0.806981 0.0664933 0)
(0.705778 0.057724 -4.53014e-21)
(1.02542 0.0571987 0)
(0.537462 0.0327044 -1.52707e-21)
(1.01341 0.047201 0)
(0.630655 0.0528408 -4.50251e-22)
(0.999919 0.0192699 3.19069e-20)
(1.04591 0.062846 -6.47176e-21)
(1.01661 0.028303 0)
(1.00167 0.0140263 2.41099e-20)
(0.982351 -0.000747352 -1.63648e-20)
(0.796599 0.0438162 -1.61472e-21)
(0.883621 0.0656415 -5.17555e-20)
(1.04539 0.0342419 0)
(0.793625 0.0585701 0)
(1.01056 0.0248035 7.14528e-21)
(1.02967 0.0524039 0)
(1.00337 0.0615229 -6.64776e-21)
(1.00055 0.00296874 -8.56988e-21)
(1.00754 0.0147982 -7.44389e-21)
(0.968152 0.0434593 -2.08559e-20)
(0.981949 0.00159326 0)
(0.969813 0.0420931 0)
(1.07434 0.0670374 -3.28464e-21)
(1.04747 0.0908067 1.97967e-21)
(0.998491 0.00589013 -2.01241e-20)
(0.835197 0.0484043 1.41598e-21)
(0.995674 0.010534 1.08377e-20)
(0.735629 0.061761 -1.46958e-20)
(1.03279 0.0537157 0)
(1.02814 0.0222731 -3.22997e-21)
(0.999774 0.00308743 -1.96812e-20)
(1.05651 0.0782155 -8.27813e-21)
(1.03363 0.0699697 -3.21209e-24)
(1.0158 0.0266479 0)
(1.03624 0.0762312 0)
(1.06468 0.07487 1.03327e-21)
(1.01868 0.016551 0)
(0.991252 0.00166773 -9.98078e-21)
(0.978805 0.101618 -8.91621e-21)
(1.00918 0.0406105 7.81613e-22)
(0.623693 0.0514422 -3.60402e-21)
(0.998259 0.0452115 -5.04406e-21)
(1.02259 0.0260562 0)
(1.03874 0.0767185 1.4451e-21)
(1.00092 0.0111416 -1.86954e-21)
(1.00976 0.100988 -2.43982e-21)
(0.853378 0.0662675 -2.60568e-21)
(0.882063 0.0619141 2.09839e-21)
(0.854307 0.0575067 1.72071e-22)
(0.857619 0.0600951 -1.15607e-21)
(0.869154 0.0407089 4.65017e-20)
(1.09992 0.172177 1.26382e-20)
(1.00006 5.67042e-05 1.23559e-20)
(0.884282 0.0266737 5.0695e-20)
(0.99924 0.0192027 -2.59239e-20)
(0.573883 0.0391751 -7.97438e-22)
(0.999969 0.000293355 1.29289e-20)
(1.05533 0.0527739 4.3147e-21)
(0.999896 -0.00124819 -5.19321e-22)
(1.02861 0.0876148 0)
(0.8267 0.05716 -9.64195e-23)
(0.870819 0.151625 4.22911e-20)
(1.03381 0.069437 0)
(0.998751 0.00651723 -5.06135e-21)
(1.06091 0.0612117 0)
(1.00907 0.0393337 1.21133e-20)
(1.03915 0.0708744 0)
(0.816456 0.0603999 2.12948e-21)
(0.994569 0.0018071 1.47366e-20)
(1.04445 0.0448777 1.07355e-21)
(0.99078 -0.00715739 -1.35697e-21)
(1.06677 0.0920544 5.05454e-22)
(1.00294 0.00560696 0)
(1.04617 0.0622853 6.22945e-21)
(0.727741 0.0597537 0)
(0.998216 0.0057617 1.30066e-20)
(0.830668 0.0660528 -2.39853e-20)
(0.999046 0.00712407 1.21256e-20)
(0.988393 0.0233882 -2.99197e-20)
(1.01536 0.0259995 3.72705e-22)
(0.99412 -0.00131781 1.03106e-20)
(0.698959 0.0562262 -5.24745e-21)
(1.03241 0.0352007 3.45729e-21)
(1.05243 0.0548379 3.59328e-21)
(1.00144 0.100001 -1.43692e-20)
(1.02887 0.0831334 6.56036e-22)
(1.00184 0.0973058 -7.45502e-21)
(0.999905 -0.000941795 -2.9617e-23)
(1.02878 0.0837501 9.21357e-22)
(1.05692 0.0728651 -3.25865e-23)
(1.04389 0.0675828 4.00556e-21)
(1.02414 0.0346587 2.75627e-21)
(0.870275 0.125961 3.6862e-20)
(1.02219 0.0488378 0)
(1.07356 0.0667194 0)
(0.989954 0.0737092 1.49953e-20)
(0.996245 0.00714932 0)
(1.02295 0.0253663 0)
(1.02755 0.0655304 6.23635e-22)
(1.03231 0.0749132 0)
(1.01708 0.0928413 0)
(1.06756 0.0610413 1.30153e-20)
(0.887365 0.023876 -4.59585e-23)
(1.02315 0.0654236 -3.43741e-21)
(1.03694 0.076546 -1.50359e-21)
(0.705432 0.0243334 -1.43799e-23)
(1.03566 0.0724589 6.55082e-22)
(1.03165 0.0609906 0)
(0.858664 0.0502451 0)
(1.02305 0.0266756 7.11559e-21)
(1.03998 0.0574951 1.15534e-22)
(0.759412 0.0674838 0)
(1.00026 0.000131067 6.81223e-21)
(1.03565 0.0764692 0)
(1.02086 0.0369673 0)
(0.715916 0.0625753 7.71052e-22)
(1.04761 0.0520017 -4.6616e-21)
(0.587671 0.0462268 -2.91022e-22)
(1.0344 0.0519739 0)
(0.819225 0.0550057 -5.95986e-22)
(1.00014 0.0958935 1.71716e-20)
(1.05937 0.0526903 -1.66959e-20)
(1.00193 0.00397595 -1.30112e-20)
(0.998188 0.000832095 0)
(1.01329 0.085509 0)
(1.02857 0.0148996 0)
(1.01901 0.0906056 0)
(1.00584 0.078301 0)
(0.7805 0.0430808 8.87575e-22)
(1.0217 0.058928 5.82652e-21)
(0.595362 0.0463398 0)
(0.865771 0.066318 -7.91602e-21)
(1.03964 0.0350354 7.21682e-22)
(1.05143 0.0788104 0)
(0.999782 0.000197593 8.18331e-21)
(0.686125 0.0614949 0)
(0.984567 -0.00963471 -3.5855e-20)
(1.01476 0.0852759 3.61541e-21)
(0.616312 0.0505338 -1.4252e-21)
(1.0235 0.0661615 -3.50365e-21)
(1.00506 0.00882849 0)
(0.953553 0.0311362 3.66442e-20)
(0.845612 0.0665957 1.00373e-20)
(0.424185 0.0263418 -2.35469e-22)
(0.579954 0.0465437 1.173e-21)
(1.00178 0.0103508 -1.176e-20)
(0.989483 0.0235135 1.81911e-20)
(1.02619 0.0334242 -2.61727e-21)
(0.724581 0.0663335 0)
(0.995712 0.0155637 -3.28166e-22)
(0.945048 0.0845599 -1.20614e-20)
(1.06025 0.0608597 -3.79649e-21)
(1.01586 0.0282842 7.07799e-21)
(1.00752 0.0781943 0)
(0.870628 0.0347482 4.63007e-20)
(0.753542 0.0629905 0)
(0.965811 -0.00403288 0)
(0.998468 0.0063668 5.62976e-21)
(0.950773 0.234603 2.92161e-20)
(1.05749 0.0742354 7.60579e-21)
(1.05476 0.0522551 4.08016e-21)
(0.992917 0.152532 -5.01029e-20)
(1.00474 0.00809688 -2.28561e-21)
(0.712831 0.0554909 6.08374e-21)
(1.01473 0.0273541 6.21987e-21)
(0.995396 0.0135267 0)
(0.980996 0.00622501 -2.17911e-20)
(0.836323 0.0666491 1.68323e-20)
(1.02667 0.0440763 0)
(0.992039 -0.00182559 0)
(0.994207 0.0292527 0)
(1.04062 0.0571307 4.0634e-21)
(1.00941 0.103327 0)
(1.03401 0.0763729 9.56703e-22)
(0.647564 0.0529423 -5.40546e-22)
(1.00411 0.0164938 1.14677e-20)
(1.0549 0.0566755 3.18862e-21)
(1.06021 0.0526425 1.87265e-20)
(1.06188 0.0956492 7.23535e-21)
(1.03103 0.102374 9.65742e-22)
(0.999899 0.002991 1.36709e-20)
(0.98296 0.00185775 -1.15491e-21)
(1.02824 0.0742735 0)
(1.01081 0.0771227 6.70823e-22)
(0.967629 0.0652562 2.1685e-21)
(1.04252 0.0767385 0)
(0.966648 0.0219654 -2.80638e-22)
(1.04872 0.0647868 6.09494e-21)
(1.03174 0.0350122 -1.20481e-21)
(1.0469 0.0520154 4.84891e-21)
(0.96589 -0.00545102 0)
(0.87231 0.0656178 0)
(1.02842 0.0168021 -2.82773e-21)
(1.06998 0.0950037 0)
(1.04923 0.0646131 0)
(0.641409 0.0531676 5.92921e-22)
(1.02041 0.090171 1.25002e-21)
(0.790416 0.0654508 7.2942e-21)
(1.05794 0.056121 6.32681e-21)
(1.00472 0.00851721 0)
(1.03617 0.0717955 0)
(1.03666 0.0591398 -3.50117e-22)
(0.908124 0.06414 0)
(0.801285 0.0442752 -3.87189e-22)
(1.01012 0.0408303 -7.90502e-21)
(1.0003 0.00252341 7.83053e-21)
(0.980833 0.00790414 0)
(1.00162 0.0108148 0)
(0.833837 0.123109 0)
(1.04252 0.0461535 -3.99876e-21)
(1.04085 0.0565404 -4.20762e-21)
(0.959184 0.105617 0)
(0.854963 0.0495304 3.10008e-21)
(1.0694 0.109599 0)
(1.025 0.0580296 0)
(1.05385 0.042321 4.22408e-22)
(1.02916 0.102462 -4.17002e-22)
(1.02787 0.0140582 0)
(1.03411 0.0528303 0)
(1.00544 0.0483708 -5.79068e-21)
(1.02317 0.0489741 0)
(1.0612 0.0951611 0)
(0.829178 0.0622682 2.75644e-21)
(1.04624 0.0677314 0)
(1.06371 0.0559797 -1.60874e-20)
(1.0104 0.0600111 9.0828e-21)
(0.693433 0.0461933 0)
(1.04037 0.0348376 1.12081e-21)
(0.871218 0.142353 -8.50444e-20)
(0.99402 0.048574 1.54861e-20)
(1.01248 0.0981536 -7.14887e-21)
(0.999775 0.00332814 1.32675e-20)
(1.03453 0.0764704 0)
(1.00212 0.0138555 -1.65395e-20)
(1.02616 0.0434216 1.36007e-21)
(0.996953 0.0153141 -4.95224e-21)
(1.00309 0.0143229 -2.68439e-21)
(1.04433 0.0525759 2.3573e-21)
(1.02841 0.0142481 0)
(0.999949 0.000408207 1.70283e-20)
(0.867095 0.0239841 0)
(0.976575 0.0184695 -1.13044e-20)
(0.988326 0.0599499 -1.81541e-20)
(0.907688 0.0397447 7.74341e-22)
(0.472865 0.0298871 -2.82537e-21)
(1.01794 0.00935084 9.60013e-21)
(0.954074 0.0958395 9.45363e-22)
(1.0195 0.0148989 4.23315e-21)
(1.04829 0.0508793 8.56481e-21)
(1.00999 0.00108021 -9.56484e-21)
(0.781569 0.0671877 -3.66993e-21)
(0.999873 -0.00043832 0)
(0.984069 0.00961753 1.78818e-20)
(0.999098 0.000963472 0)
(0.81867 0.0598425 -2.05155e-21)
(0.636656 0.052898 -5.07061e-22)
(0.975454 0.0189583 0)
(0.998693 0.046902 -7.35506e-21)
(0.983983 0.00806652 0)
(0.999057 0.0728779 -1.22392e-20)
(0.974301 0.0476501 0)
(1.01996 0.0369786 -8.42615e-21)
(1.06452 0.0703258 -5.57895e-21)
(0.588706 0.039498 4.35028e-22)
(1.05218 0.043584 -7.82695e-21)
(1.05752 0.0753705 0)
(1.00285 0.0333168 -1.66962e-21)
(1.08547 0.112537 -2.66318e-22)
(1.10717 0.256233 0)
(1.00253 0.014441 1.25178e-20)
(1.01873 0.0923461 -3.8973e-22)
(1.03374 0.0752394 -1.04137e-21)
(1.00673 0.036368 1.22946e-20)
(1.01121 0.0422609 6.2737e-21)
(1.05313 0.0424516 4.27379e-21)
(1.03134 0.0603267 -1.09228e-21)
(0.995143 0.00971434 0)
(1.00973 0.00140241 0)
(1.11562 0.159134 -3.43263e-20)
(0.912028 0.0398863 6.18008e-20)
(0.826277 0.131421 0)
(0.893165 0.0582947 0)
(1.00126 0.00309085 0)
(1.03094 0.0844965 0)
(1.00369 0.000976067 0)
(0.656615 0.0535325 1.33947e-21)
(0.99197 -0.00135842 -4.14667e-21)
(1.01974 0.00894279 5.16414e-21)
(1.05734 0.072235 -6.55593e-21)
(0.709564 0.0628271 -4.57738e-21)
(1.0307 0.0811424 -7.1681e-23)
(1.03431 0.0730054 2.8112e-22)
(1.03379 0.0750319 1.37629e-21)
(1.00619 0.0393605 8.41095e-21)
(1.03775 0.0562124 -9.53175e-22)
(1.06225 0.0556243 0)
(1.02156 0.0159142 -6.20438e-21)
(0.99941 0.00772526 -2.02954e-22)
(1.01238 0.0468109 0)
(0.463098 0.0307401 0)
(1.00256 0.0377601 8.55984e-21)
(1.03029 0.0684562 0)
(1.02792 0.0165233 0)
(0.924079 0.0612632 0)
(0.868759 0.225116 -1.33408e-20)
(1.03426 0.076433 0)
(0.766966 0.0610483 3.78427e-21)
(0.998272 -0.00123423 2.12159e-20)
(1.00994 0.0766962 2.33039e-21)
(0.816475 0.0416399 0)
(1.01814 0.0978909 -4.62825e-21)
(0.973908 0.0453562 0)
(1.0314 0.0466241 -2.80287e-21)
(0.993909 -0.000973342 5.31229e-21)
(1.01787 0.00703052 -1.02973e-20)
(1.00305 0.0368567 -8.1067e-21)
(1.06042 0.101611 3.84867e-22)
(0.895051 0.130984 3.57945e-20)
(0.969471 0.0635359 1.23416e-20)
(1.01955 0.0360563 6.58531e-21)
(0.99566 0.00987018 -8.90495e-21)
(0.971348 0.0678756 0)
(1.00561 0.0199321 0)
(1.02817 0.0228403 3.9339e-21)
(1.05818 0.0536683 6.31589e-21)
(0.694422 0.0596214 5.27676e-21)
(1.01815 0.0350444 -1.21678e-20)
(1.04362 0.0359161 1.19829e-21)
(1.01401 0.00041837 7.75058e-21)
(0.999891 0.00271762 2.06659e-21)
(0.995404 0.00692738 -9.14989e-21)
(1.00637 0.0477313 -3.00151e-21)
(1.01508 0.000747233 9.09243e-21)
(0.996149 0.0143664 -1.16009e-20)
(0.584432 0.0456932 -2.16813e-22)
(0.996707 0.00695272 0)
(1.02258 0.0590703 -6.39553e-21)
(1.02094 0.0160212 -6.82711e-21)
(0.894972 0.0674073 0)
(0.99874 0.00698284 -6.45743e-21)
(0.983475 0.00889865 1.97056e-20)
(1.06323 0.0741957 0)
(0.98059 -0.00286039 0)
(1.03973 0.0703397 1.40901e-21)
(0.869161 0.209842 2.26568e-20)
(0.917087 0.0100666 2.79618e-20)
(1.04122 0.0762936 0)
(1.00985 0.0245664 0)
(1.02246 0.0247515 0)
(0.88029 0.0614961 4.50235e-23)
(0.639875 0.051674 2.88542e-21)
(0.520201 0.0290702 3.49144e-21)
(0.441832 0.0270971 0)
(1.00001 0.000349839 1.64714e-20)
(1.04812 0.0515552 -9.9356e-21)
(0.999981 0.00261648 1.05616e-21)
(0.993947 0.00257843 0)
(1.03311 0.0777684 0)
(0.574027 0.0305205 0)
(1.04203 0.0557609 1.11531e-21)
(0.999998 0.000266384 -1.4979e-20)
(1.01036 0.00852732 0)
(0.998222 0.00948898 -1.52341e-20)
(1.04656 0.0422708 3.37559e-21)
(0.965055 0.00965022 -2.03583e-20)
(0.955992 0.0681068 -9.57847e-21)
(1.00883 0.0224792 8.4758e-21)
(1.06524 0.101286 4.92749e-21)
(1.03626 0.06116 4.99174e-22)
(1.0427 0.064402 -3.02507e-21)
(0.96745 -0.00273227 -2.66852e-20)
(1.05288 0.0434551 3.38073e-21)
(0.977122 0.0497336 1.96714e-20)
(0.692834 0.0607086 -3.02367e-22)
(0.998403 0.000948085 1.33652e-21)
(0.983694 0.010472 -1.82642e-20)
(1.04225 0.0262469 1.60398e-21)
(0.559012 0.0325674 9.44805e-23)
(0.995052 0.0493642 -1.82248e-21)
(1.06494 0.069061 -1.21985e-20)
(0.953443 0.0932939 0)
(0.700909 0.0328869 3.67101e-21)
(1.03092 0.0684957 -5.67492e-22)
(1.02274 0.0337319 -7.55365e-21)
(1.01673 0.0737117 1.61999e-21)
(0.569913 0.045211 -3.27794e-22)
(1.00526 0.0797652 -5.82704e-21)
(0.941273 0.227358 -2.22899e-20)
(0.995763 0.0315023 -1.80646e-20)
(1.04398 0.0519513 6.7391e-22)
(1.04219 0.0645196 0)
(1.01194 0.100263 7.09196e-21)
(0.925719 0.0698851 1.10974e-20)
(0.996944 0.00941529 -1.70587e-20)
(1.01903 0.0161548 0)
(1.00026 0.00200805 1.50482e-20)
(1.01814 0.00892363 -4.31285e-21)
(0.982587 0.0104939 -2.05076e-20)
(0.825039 0.0663317 0)
(1.0435 0.0367743 1.81881e-21)
(1.03458 0.0333239 1.31181e-21)
(0.991438 0.0092542 0)
(1.00046 0.000238166 -1.53846e-20)
(1.01183 0.0402004 2.86141e-21)
(1.0949 0.143924 3.65227e-20)
(1.03576 0.0721261 -6.31051e-23)
(0.787121 0.045942 4.43811e-20)
(1.01058 0.0608273 0)
(1.04951 0.0498771 0)
(1.03707 0.0782195 1.41317e-21)
(1.00886 0.0583373 0)
(0.975419 0.100439 0)
(0.978807 0.0303335 0)
(0.984601 0.0371935 0)
(0.866334 0.0618102 1.68311e-21)
(0.999563 0.00106786 2.84684e-22)
(0.927335 0.067337 0)
(1.00032 0.000132873 1.38189e-20)
(0.977875 0.0295782 0)
(1.04214 0.025608 -1.79355e-21)
(0.856357 0.0594893 6.33222e-22)
(0.713333 0.0309265 -1.56523e-20)
(0.994262 0.0755299 1.11001e-20)
(0.997037 0.00724256 9.1947e-22)
(1.06407 0.0763626 1.37229e-20)
(0.999915 -0.000537179 3.01627e-20)
(1.01647 0.0709198 1.64445e-22)
(1.00975 0.0576255 -3.3208e-21)
(1.00174 0.00348741 1.79477e-20)
(0.971349 0.00211237 -9.70977e-21)
(0.999859 -5.33314e-05 0)
(1.02253 0.0387151 6.1362e-21)
(1.00003 0.00055049 -1.46808e-20)
(1.04336 0.045987 3.85418e-21)
(1.03027 0.0780138 -7.78139e-23)
(1.00822 0.00694026 -3.4797e-21)
(0.981623 0.000661681 -9.39425e-21)
(1.03082 0.0533397 0)
(0.993959 -0.0105538 -2.33025e-20)
(1.03077 0.0797743 -4.90837e-23)
(0.810343 0.0442144 -6.57386e-21)
(0.513667 0.00346629 0)
(1.0358 0.0525777 1.10149e-22)
(1.00213 0.00365208 -3.58469e-21)
(1.02681 0.034069 -2.69829e-21)
(1.03954 0.0474722 -1.67426e-21)
(1.04318 0.0549208 0)
(1.02065 0.0698945 0)
(0.415346 0.0215171 0)
(1.0108 0.00869962 0)
(0.636418 0.0469656 4.01966e-22)
(1.05662 0.0741966 -7.56347e-21)
(0.96709 -0.00182469 2.16878e-20)
(1.01776 0.00842428 -1.25562e-20)
(0.990937 0.014801 0)
(0.715283 0.0468734 -2.12166e-22)
(0.999965 -0.000277516 1.27218e-20)
(0.970053 0.00171436 4.71637e-22)
(0.999759 -0.00204278 0)
(1.00537 0.00960917 -2.1715e-20)
(0.982494 2.51804e-05 2.57284e-20)
(1.02647 0.0902408 -3.96e-22)
(1.0205 0.0154795 0)
(1.06834 0.0607561 0)
(1.03509 0.0775186 -8.91318e-22)
(0.999467 0.000894669 -2.63419e-20)
(1.00349 0.00576729 -1.93254e-21)
(0.994888 0.00894488 0)
(1.06403 0.0756842 -1.74436e-20)
(0.984005 0.0387105 0)
(0.872022 0.0503101 -5.59935e-21)
(1.02973 0.0775366 2.87257e-22)
(0.998523 -0.00121937 -1.01647e-20)
(1.04451 0.0776944 2.91902e-21)
(0.679336 0.0607546 5.76827e-21)
(1.04925 0.0506784 1.30983e-21)
(1.0322 0.0384915 -1.33554e-21)
(1.00822 0.02227 -8.04735e-21)
(0.95201 0.0585884 2.31719e-20)
(1.01935 0.000213111 0)
(1.00796 0.0076246 -3.75112e-21)
(0.906201 0.0679667 0)
(0.773518 0.0401084 0)
(1.05901 0.0536696 6.74904e-21)
(1.01296 0.123596 -5.63526e-21)
(1.05511 0.0513947 -8.81386e-21)
(0.945033 0.0678152 4.03526e-21)
(0.996616 0.00288884 1.43633e-20)
(0.784958 0.0611841 5.93452e-22)
(0.994022 0.0734357 0)
(1.06239 0.074306 8.53359e-21)
(0.993616 0.00233993 0)
(0.96489 -0.0115971 0)
(1.04505 0.0329937 0)
(0.999084 0.00757547 0)
(1.05634 0.129178 -3.7181e-21)
(1.03856 0.0361259 6.41945e-22)
(0.989552 0.0611618 1.06855e-20)
(0.987794 0.0415222 1.72166e-20)
(1.01217 0.130011 3.60229e-21)
(1.06617 0.0679294 1.06282e-21)
(0.982956 0.00414607 0)
(0.986896 0.147837 -9.76286e-21)
(0.556367 0.0330211 1.5668e-21)
(0.831157 0.0461371 3.39513e-21)
(1.05018 0.0646613 6.38805e-21)
(0.90174 0.126701 -2.92129e-20)
(0.99513 0.00859795 0)
(0.633334 0.0297797 0)
(1.00638 0.00900576 1.00389e-20)
(1.06283 0.0469482 6.24235e-21)
(0.999977 0.00239912 -1.06676e-21)
(1.01766 0.000418802 0)
(1.02801 0.0761668 1.22821e-21)
(0.978979 0.0180203 2.40638e-20)
(0.949917 0.0630789 4.83947e-22)
(1.06492 0.0914725 -1.69203e-20)
(1.03971 0.183721 0)
(0.997717 0.00135286 7.76552e-21)
(0.923395 0.0102216 4.28211e-20)
(1.02746 0.0764162 0)
(1.01859 0.0360156 1.26708e-20)
(1.01998 0.0597313 -3.82967e-22)
(0.836634 0.0660407 0)
(1.0041 0.0145108 -1.26255e-20)
(0.979787 -0.0010918 0)
(0.834641 0.0585411 0)
(0.996712 0.0022771 2.32706e-20)
(0.998403 0.00121 2.5505e-21)
(1.04225 0.0469897 3.44269e-21)
(0.890101 0.0636287 1.91892e-21)
(0.999868 -0.000592644 -2.85052e-20)
(1.04636 0.0753105 0)
(1.0133 0.00122827 -4.88806e-21)
(1.022 0.0164192 1.3913e-20)
(1.05666 0.055459 3.20157e-21)
(0.986296 -0.00435756 3.53653e-20)
(1.05817 0.10447 0)
(1.06605 0.161103 -1.36043e-20)
(1.00577 0.0359885 0)
(1.03813 0.0286607 2.98318e-22)
(0.997944 0.00128193 -1.74132e-20)
(1.04138 0.0471463 2.07762e-21)
(1.00302 0.0175956 0)
(0.995106 0.0307397 0)
(1.00898 0.0233214 0)
(1.04098 0.0763592 -2.57709e-21)
(0.959471 0.000912099 0)
(0.959157 -0.000940316 0)
(1.05451 0.0507544 0)
(0.535242 0.0232754 -2.01177e-20)
(1.08 0.129938 6.56686e-21)
(0.989504 0.0264566 0)
(0.983804 0.0359302 2.81295e-20)
(0.864717 0.101791 -1.63363e-20)
(1.06848 0.0520498 6.57747e-21)
(0.79819 0.0547603 0)
(1.04726 0.0616973 4.85431e-21)
(1.039 0.062874 -2.25496e-21)
(1.03376 0.0437712 6.87692e-22)
(0.455731 0.0162439 0)
(1.03461 0.0766737 0)
(1.03654 0.0722777 -1.21252e-21)
(0.958042 0.110571 0)
(1.00158 0.0032705 1.81973e-20)
(0.839443 0.0665421 0)
(0.978943 0.0172302 7.93621e-21)
(1.00008 8.8036e-05 0)
(0.984536 0.0179744 4.08856e-20)
(1.01858 0.0153778 -1.78123e-21)
(1.00589 0.000870017 0)
(0.827973 0.0579381 1.14109e-21)
(1.03842 0.0628328 1.84585e-21)
(0.999988 -0.000155026 -1.31153e-20)
(1.02277 0.0157751 -2.88406e-21)
(1.01186 0.00205554 6.20573e-22)
(0.997133 0.044264 -1.76832e-20)
(0.963123 -0.0112904 0)
(0.984523 0.0680722 1.02793e-21)
(1.03464 0.0202284 0)
(1.0339 0.0433019 1.3941e-21)
(1.02362 0.0337002 -1.35591e-21)
(1.00139 0.00265886 -1.85949e-21)
(0.992046 0.0116588 0)
(0.938273 0.0690474 -7.23264e-22)
(1.0202 0.00897616 -2.95711e-21)
(1.03888 0.0755532 -4.39795e-21)
(1.04173 0.056462 0)
(1.00608 0.00874331 0)
(0.998617 0.00129192 0)
(0.979809 -0.00247646 0)
(0.990659 0.0264835 1.78559e-20)
(1.02025 0.070775 1.17142e-21)
(0.72592 0.0273107 2.38499e-20)
(1.02912 0.0639957 -2.61552e-21)
(1.06104 0.0735939 -8.21339e-21)
(1.04436 0.0595465 0)
(1.05273 0.0648078 -6.16661e-21)
(1.01165 0.0623362 7.61227e-21)
(0.99529 0.0128182 1.04495e-20)
(1.07426 0.0954236 -3.26185e-21)
(0.997371 0.0960464 1.29117e-20)
(1.03581 0.0478765 2.08429e-22)
(0.999468 0.00819242 2.07787e-22)
(1.02872 0.0522872 -3.41149e-21)
(1.07638 0.109102 0)
(0.665007 0.0482699 0)
(0.999907 0.0020776 -1.06976e-21)
(0.969524 -2.4484e-05 2.95718e-20)
(0.584048 0.0353819 -1.53048e-21)
(1.00359 0.0597052 -8.87128e-22)
(1.02351 0.0846152 4.44122e-21)
(0.960474 0.0769199 2.54367e-20)
(1.03341 0.0763787 1.34721e-21)
(1.02342 0.0501617 5.39214e-21)
(0.999997 0.000291476 -1.12375e-20)
(1.02493 0.0495716 8.30859e-21)
(1.04366 0.077296 -3.05689e-21)
(0.985588 -0.00591391 2.57238e-20)
(0.999924 -3.59048e-05 3.03201e-20)
(1.02341 0.0834531 -3.76771e-21)
(0.983439 0.0839527 -8.66144e-21)
(1.00141 0.00330097 -1.469e-20)
(0.778715 0.229134 9.41091e-20)
(0.999664 -0.00222619 0)
(0.999786 -0.000541862 0)
(0.985347 0.0828926 5.88116e-21)
(1.02675 0.0975254 0)
(0.968605 0.0219523 -1.72214e-20)
(0.64553 0.0533383 -3.40465e-22)
(1.03642 0.0570534 0)
(0.991807 0.0120831 0)
(1.0257 0.0350938 -5.38124e-21)
(1.03813 0.0568217 -2.153e-21)
(0.993771 0.0042977 0)
(0.997316 -0.00291615 0)
(0.995449 -0.000233769 -1.43698e-20)
(0.988211 0.0121835 -9.12082e-21)
(1.03575 0.0774566 0)
(0.999912 -0.000793295 1.39395e-20)
(1.00414 0.0139013 1.98211e-20)
(1.0457 0.0679455 0)
(1.05253 0.0717178 -4.67631e-21)
(0.864881 0.0296304 5.41171e-20)
(1.02532 0.0335784 0)
(0.888893 0.114476 9.48802e-20)
(0.997393 0.00962937 3.25062e-20)
(1.03461 0.0688761 -2.61929e-22)
(0.998765 0.00360938 0)
(1.0282 0.015128 -2.36787e-21)
(1.00317 0.000801065 0)
(1.00003 5.66175e-05 6.94082e-24)
(0.985616 -0.00484908 -2.94473e-20)
(1.0548 0.0631476 0)
(1.01035 0.0167403 8.18365e-21)
(1.01427 0.0010283 4.04353e-21)
(0.945688 0.0435643 1.7181e-20)
(0.526439 0.0303841 1.48379e-21)
(1.05464 0.0635252 0)
(1.04304 0.0753968 -3.47526e-21)
(1.02853 0.046234 0)
(1.01406 0.0149644 -4.6806e-21)
(0.990872 0.0293305 1.12681e-20)
(1.03049 0.0775803 1.73804e-21)
(0.963219 0.0769355 0)
(0.994942 0.00144873 -1.34574e-22)
(0.971986 0.0450024 5.93655e-21)
(1.08525 0.107375 1.76482e-20)
(0.927684 0.0702085 5.18544e-21)
(1.03251 0.0746732 -4.72833e-22)
(1.0522 0.0721954 -5.99085e-23)
(0.954429 0.0575326 -4.01717e-20)
(0.966279 -0.0101613 -2.80524e-20)
(0.982588 0.00331738 1.97962e-20)
(1.13008 0.285728 6.35713e-20)
(0.729084 0.0630075 -6.31158e-21)
(0.963496 0.00888321 3.44303e-20)
(1.00325 0.000577964 0)
(1.0204 0.00849515 9.72805e-21)
(1.02677 0.091583 5.17204e-22)
(1.03875 0.0583185 -1.01106e-21)
(1.02784 0.0134764 0)
(1.02085 0.00854122 -5.51361e-21)
(0.951494 0.0633934 3.67336e-22)
(1.05325 0.0647248 -9.0487e-22)
(1.01082 0.0874318 1.17084e-20)
(0.996471 0.00260719 -7.2891e-21)
(0.986713 0.0407543 0)
(0.703279 0.0552516 0)
(0.993438 -0.0106776 4.66003e-20)
(1.04379 0.0860564 -2.91704e-21)
(1.02122 0.029823 3.70292e-21)
(0.992128 0.00917487 -2.94791e-21)
(1.03938 0.0359956 -1.50102e-21)
(0.980746 0.0123032 -3.46963e-20)
(1.00002 0.000375001 2.15216e-20)
(0.946691 0.0409482 -6.088e-20)
(1.02186 0.0296452 0)
(0.994259 0.0202495 0)
(0.913032 0.0690642 2.58648e-21)
(0.595699 0.0469117 -1.50835e-22)
(0.991652 0.0183488 -1.4e-22)
(1.01001 0.0740215 -7.46384e-21)
(0.993417 0.0200912 1.06954e-20)
(0.946814 0.00508604 3.36517e-22)
(1.03307 0.0763341 -1.55993e-21)
(1.06826 0.054373 -2.11576e-20)
(0.783982 0.0447254 0)
(1.01079 0.0156418 5.17323e-21)
(0.980571 -0.000651371 0)
(1.00608 0.0127551 0)
(1.01798 0.00796752 1.48329e-20)
(1.00289 0.00524286 7.56525e-21)
(1.02732 0.0131261 1.00418e-21)
(0.991498 0.0415298 1.34159e-20)
(0.988449 0.0114681 2.77198e-20)
(0.532061 0.0326308 0)
(0.684001 0.0557581 6.14511e-21)
(0.999893 0.00229783 1.08729e-21)
(1.03679 0.057719 6.32055e-22)
(1.01425 0.0468569 0)
(0.913909 0.000188838 0)
(1.00386 0.0328945 3.65461e-22)
(1.02917 0.0464769 2.20429e-22)
(1.00441 0.00779326 1.13176e-20)
(0.633732 0.0508968 1.71552e-21)
(1.00026 0.00382393 -4.66598e-21)
(0.999996 -0.000211055 -1.07557e-22)
(1.03411 0.0327093 -3.01695e-21)
(0.950913 0.0876667 0)
(1.02539 0.00856022 1.87069e-21)
(0.608228 0.0501737 0)
(0.84084 0.060044 -3.43113e-21)
(1.00913 0.00104807 0)
(1.05406 0.0653155 -4.14147e-21)
(1.03411 0.0206108 0)
(0.998532 0.0307161 0)
(0.992077 -0.00552051 2.22469e-20)
(0.703354 0.0579027 -5.14741e-21)
(1.02363 0.00803337 -3.61593e-21)
(1.04391 0.0745751 3.49451e-21)
(1.00358 0.0042791 0)
(0.999991 0.000261611 -2.15311e-20)
(1.02833 0.0556623 9.57638e-22)
(1.01609 0.000992945 4.26628e-21)
(1.00862 0.0009508 0)
(0.998798 0.0041636 5.4823e-21)
(0.997473 -0.00310045 -3.44635e-21)
(0.783819 0.0586146 2.99541e-22)
(1.03822 0.0554891 1.45834e-21)
(1.0234 0.038705 -2.06255e-21)
(0.999954 -0.000371191 1.31512e-20)
(1.05378 0.0539142 1.32052e-20)
(0.996573 0.00199402 -1.87538e-20)
(1.02098 0.0598876 -9.2072e-21)
(0.919206 0.0600425 0)
(0.999874 -0.00107537 -1.35907e-20)
(1.05205 0.0542154 0)
(1.02333 0.0157517 3.12302e-21)
(1.12369 0.192767 0)
(0.987992 -0.010593 -1.42098e-21)
(0.892158 0.0666284 -4.00445e-21)
(0.866357 0.0623254 -2.02083e-21)
(0.998302 0.0317335 0)
(0.944698 0.00417982 -5.68747e-20)
(0.92977 -0.0158376 3.34754e-20)
(1.01348 0.0588024 0)
(0.993666 -0.00457437 -5.00438e-22)
(1.00659 0.0142191 -1.13598e-20)
(0.916535 0.0125165 -3.33646e-20)
(1.00264 0.0340546 8.77654e-21)
(1.00327 0.0349431 0)
(1.0066 0.0137143 2.58635e-21)
(0.983544 0.00730114 2.54504e-21)
(1.04141 0.0385297 -4.20842e-22)
(1.00481 0.0595666 0)
(0.99779 0.00930185 -1.54713e-20)
(1.00003 0.000716421 -1.59409e-20)
(1.01178 0.0615218 -6.16086e-21)
(0.930116 0.0784212 -1.57784e-20)
(1.00244 0.00550826 0)
(1.03276 0.0248437 3.0998e-21)
(0.684191 0.0302293 -2.28938e-20)
(1.01763 0.00744121 2.35232e-21)
(0.991659 0.017789 -1.549e-20)
(1.00702 0.00678606 7.70483e-21)