/*--------------------------------*- C++ -*----------------------------------*\
| =========                 |                                                 |
| \\      /  F ield         | OpenFOAM: The Open Source CFD Toolbox           |
|  \\    /   O peration     | Version:  v2012                                 |
|   \\  /    A nd           | Website:  www.openfoam.com                      |
|    \\/     M anipulation  |                                                 |
\*---------------------------------------------------------------------------*/
FoamFile
{
    version     2.0;
    format      ascii;
    class       volVectorField;
    location    "350";
    object      U_0;
}
// * * * * * * * * * * * * * * * * * * * * * * * * * * * * * * * * * * * * * //

dimensions      [0 1 -1 0 0 0 0];


internalField   nonuniform List<vector> 
13749
(
(1.01437 0.000897125 -1.65666e-21)
(1.06718 -0.0047597 -2.12343e-20)
(0.98577 -0.00421341 0)
(1.03891 0.0713699 -6.83218e-21)
(0.995095 0.0600982 0)
(1.10073 0.0468528 4.22066e-20)
(0.957055 0.232923 1.41888e-20)
(1.04326 0.00360468 0)
(0.992761 0.0106356 7.56986e-22)
(1.0399 0.0729839 6.63059e-21)
(1.06601 -0.00206795 0)
(1.00124 0.00596518 9.93947e-21)
(1.06748 0.086427 -3.70514e-21)
(0.954787 -0.0195851 0)
(0.637136 -0.0196429 0)
(1.0506 0.00201507 -9.23341e-21)
(0.990199 0.0220687 -7.9695e-21)
(1.07387 -0.00948083 0)
(1.00278 0.00465632 6.75877e-21)
(0.996978 0.00144142 -2.09474e-21)
(-0.141627 -0.0160906 -7.33054e-20)
(0.595408 -0.0176754 3.57115e-21)
(1.03526 -0.0214668 -4.08688e-21)
(1.0657 -0.00272301 0)
(0.992145 0.0595256 0)
(1.07895 0.0265605 4.62367e-20)
(1.07574 0.0310274 1.63246e-20)
(1.06634 0.061136 -2.49589e-20)
(1.01873 0.00545098 8.0027e-22)
(0.969231 0.0295486 -2.11697e-21)
(1.12865 0.293376 3.81187e-21)
(0.292677 -0.00254664 0)
(0.914534 0.0647375 -1.84028e-20)
(1.06347 -0.000787765 2.06839e-20)
(1.01433 0.0133695 3.17926e-22)
(1.01718 0.00516511 0)
(0.98422 -0.00229218 1.03275e-20)
(0.996133 0.0264674 -9.88564e-21)
(1.05346 0.0270485 -1.037e-20)
(1.06873 0.00359032 1.83451e-20)
(1.10016 0.0493767 -4.97572e-20)
(-0.0895289 -0.00724209 4.27667e-20)
(0.936249 0.0356202 0)
(0.916757 0.00222925 0)
(1.07391 -0.00969912 -3.54639e-22)
(1.06284 0.0471862 0)
(1.00069 0.00603912 0)
(1.09469 0.00929427 2.14745e-20)
(1.02376 0.0145566 0)
(-0.234063 -0.00645233 -1.05849e-19)
(1.06574 -0.00266025 3.43563e-21)
(-0.12851 -0.0165597 6.74438e-20)
(1.06935 0.0038146 -2.11638e-20)
(1.09604 -0.0232504 2.13343e-20)
(1.0119 0.10107 0)
(1.02299 0.0148861 -2.2997e-23)
(1.07298 0.0756734 -3.61497e-23)
(0.917459 0.055959 0)
(1.01729 0.0165982 2.69483e-21)
(1.08568 -0.0325269 -2.61272e-20)
(1.00578 0.0243788 4.03559e-21)
(1.03904 0.0441516 0)
(0.338687 -0.000660996 0)
(1.00109 0.00542934 -1.04722e-20)
(1.03415 0.0310187 -3.6826e-21)
(0.94187 0.0236953 6.94566e-21)
(0.992745 0.0109887 -6.15267e-22)
(0.996722 0.0257368 0)
(1.05359 0.00104371 2.24649e-20)
(1.06184 0.0458479 0)
(0.65662 0.00202663 -2.02551e-20)
(1.00954 0.00158452 3.87424e-21)
(1.1043 -0.0301114 -2.13832e-20)
(1.02535 0.0195896 -6.77374e-22)
(1.06735 -0.000731128 -5.00592e-21)
(1.08876 0.19935 -7.90905e-21)
(1.05193 0.00699768 0)
(1.01727 0.0171333 0)
(1.07318 0.0758248 1.84771e-20)
(1.00007 0.00066518 0)
(1.01751 0.00567287 5.9965e-22)
(0.984695 0.0561338 -1.25656e-20)
(1.06589 -0.00299354 3.91201e-21)
(1.01908 0.00581798 -4.69145e-22)
(1.0986 0.0707193 -1.72015e-20)
(1.06501 0.207612 1.86847e-20)
(0.980582 -0.0343029 1.41964e-20)
(1.10588 -0.0115379 1.29817e-20)
(1.01385 0.0127093 -3.5699e-22)
(1.09211 0.00753486 -4.17504e-22)
(1.00994 0.00882029 1.64987e-21)
(1.10061 -0.0248719 0)
(1.04093 0.0358796 0)
(1.23469 0.0743864 0)
(0.731496 0.338493 0)
(1.07818 0.00107955 1.62576e-20)
(1.06015 0.0110473 0)
(0.995346 -0.00214743 -8.62588e-21)
(1.00964 0.00169275 0)
(0.945029 0.0221933 1.1223e-20)
(0.0324777 -0.016622 6.73917e-20)
(1.01673 0.00559291 0)
(1.05384 0.010869 6.8287e-21)
(0.494529 -0.0185724 -1.92444e-21)
(0.999769 -0.000850106 -2.41149e-21)
(0.526208 -0.0199443 1.97038e-21)
(1.10037 0.0134592 0)
(0.99527 0.011977 1.26671e-20)
(1.09129 0.00805757 2.70397e-22)
(0.99653 0.00662618 1.07581e-20)
(1.00119 0.00605694 -9.63882e-21)
(0.930553 0.0366832 -1.11494e-20)
(1.10255 0.0145084 -1.69581e-20)
(0.0272344 0.0522594 7.31196e-20)
(-0.044074 -0.0179507 -1.05964e-20)
(1.03611 0.0165064 1.02736e-20)
(1.01642 0.00495743 -1.67669e-21)
(1.00669 0.0983759 -1.79037e-21)
(0.968504 -0.0113121 0)
(1.01887 0.0153166 -1.4808e-21)
(1.04291 0.00409609 -1.49096e-21)
(1.00018 0.00017481 -3.12169e-21)
(1.01564 0.000938545 1.05971e-21)
(1.01959 0.00394185 -6.60394e-23)
(0.98912 0.0562702 -2.66972e-21)
(0.669175 0.00157624 2.02992e-20)
(1.10005 0.0459261 0)
(0.539624 -0.0337065 -1.89317e-20)
(1.06404 0.0204965 4.8623e-21)
(1.10383 -0.0305443 3.96493e-20)
(1.05497 0.0629888 1.80361e-20)
(0.917933 -0.0250661 -1.04662e-20)
(0.913581 -0.0361832 -3.5641e-22)
(1.09795 -0.0217835 1.05715e-20)
(1.08014 0.0624959 -3.29714e-20)
(0.95416 0.011124 4.96371e-20)
(1.06712 -0.000486794 0)
(1.02378 0.0136192 -5.01008e-22)
(1.04352 0.0145247 1.29955e-23)
(-0.284931 -0.00973599 0)
(0.843354 0.047335 6.06491e-20)
(1.06876 0.012333 2.4168e-22)
(1.059 0.0252441 7.06137e-21)
(0.120749 -0.0286027 8.25033e-20)
(1.0107 0.00201946 1.45483e-21)
(-0.288869 -0.00719371 0)
(1.06875 0.0669278 1.46457e-20)
(0.997018 0.14342 -4.79712e-21)
(0.969469 -0.000460353 2.04371e-20)
(1.07244 -0.00405348 1.9866e-20)
(1.01031 0.00213959 0)
(1.06245 -0.00097074 0)
(0.582442 -0.0229591 -1.05905e-20)
(1.13576 -0.0228909 -6.60804e-20)
(1.05487 0.00292047 0)
(0.123361 -0.0116427 0)
(1.06876 0.0660445 1.621e-22)
(1.07689 0.0829136 0)
(1.06741 -0.00530744 1.90459e-20)
(1.00003 0.0130182 1.93884e-20)
(0.345101 0.129195 2.22541e-20)
(1.00367 0.00165978 -3.16321e-21)
(-0.197129 -0.0118311 1.52197e-19)
(0.91549 0.0621246 2.17752e-20)
(0.99747 0.00287562 -1.29198e-22)
(1.00094 0.0196747 -2.15635e-20)
(1.10647 -0.0100597 2.37068e-20)
(0.986658 -0.0047204 0)
(0.968935 0.0300056 -3.17986e-20)
(1.06742 0.0856114 -8.84338e-21)
(1.06006 0.026755 0)
(0.996369 0.00730608 0)
(1.02412 0.0141277 0)
(1.06403 0.0065172 0)
(0.958625 0.0141755 5.79315e-21)
(0.959673 0.241099 0)
(1.09877 0.21441 1.19545e-20)
(1.05476 0.0029397 -6.20563e-21)
(0.493083 -0.0306766 3.5575e-20)
(0.42097 -0.0354803 7.00577e-21)
(0.99988 -0.00064158 2.16292e-21)
(1.06311 -0.00113309 -8.01656e-21)
(1.06134 0.014014 -1.27152e-20)
(0.816797 0.324085 -1.07029e-20)
(1.09798 -0.0243194 -3.61745e-20)
(0.955776 0.0140359 0)
(0.102318 -0.0272561 -1.41085e-19)
(1.02241 0.050206 -1.13198e-21)
(1.25361 0.141215 1.00896e-19)
(1.00647 0.0248756 -1.4124e-21)
(1.06226 0.0150293 2.37684e-20)
(1.0266 -0.0210255 2.5833e-20)
(1.04676 0.0051306 5.8073e-21)
(1.12455 0.0558697 -7.82033e-20)
(0.0871896 -0.0281195 2.23545e-20)
(1.07667 0.193166 -2.88637e-20)
(1.09751 0.0412949 2.07505e-20)
(-0.163136 0.0131347 0)
(1.01534 0.00061037 0)
(1.06413 0.020921 9.21997e-21)
(1.023 0.00734987 0)
(1.06546 -0.00253455 1.54582e-20)
(1.0761 0.0826946 3.50827e-23)
(0.943721 0.0479688 2.26662e-21)
(0.424524 0.00466517 4.70838e-21)
(1.04228 0.021736 -4.17448e-21)
(1.0157 0.0153679 -1.97272e-21)
(1.12565 0.0510595 6.7699e-20)
(1.0921 -0.0229308 0)
(1.11235 0.0258911 0)
(1.03707 0.0168257 -8.4108e-21)
(1.00447 -0.0199363 1.96487e-21)
(-0.179129 -0.00806758 -6.15639e-20)
(0.837555 0.312675 6.84085e-21)
(1.07744 0.0282175 -1.5998e-20)
(1.12 0.039754 5.47992e-20)
(0.480893 0.00924183 0)
(1.06525 -0.000899687 0)
(0.412415 0.00562127 -1.29579e-20)
(1.01829 0.00585306 0)
(1.18936 0.304989 -1.1869e-19)
(0.947588 0.0456573 0)
(1.09856 -0.0231143 -5.7428e-20)
(1.07276 -0.0361716 0)
(0.944076 0.105963 1.39549e-20)
(1.10925 -0.0275797 0)
(1.04312 0.0232762 0)
(0.830772 0.0577834 -6.87565e-20)
(0.468832 0.00863778 0)
(1.02823 -0.0187442 7.41873e-21)
(0.990041 1.48667e-05 2.57838e-20)
(0.999996 1.59451e-05 -8.89636e-21)
(1.00026 0.000139881 0)
(1.00082 0.00574112 0)
(0.746284 -0.00339149 1.70145e-20)
(0.98859 0.0594974 1.32843e-20)
(0.982061 0.20328 -6.24686e-21)
(1.09425 -0.0226302 3.23786e-20)
(0.997351 0.0010999 1.88226e-21)
(0.991111 0.0209027 0)
(0.995772 0.0652717 -2.19702e-21)
(1.01698 -0.0367338 0)
(1.06557 -0.0118215 -6.85755e-21)
(1.08596 -0.0037599 1.1251e-20)
(1.10547 0.0664534 -5.66019e-20)
(0.13382 -0.0330329 -1.66419e-22)
(0.983381 0.054504 2.84969e-20)
(0.406152 0.00723748 6.11726e-22)
(1.06219 0.0427864 4.56207e-21)
(0.992727 0.00421836 5.76238e-22)
(-0.219822 -0.00953786 -5.26368e-20)
(0.953447 0.00831441 -4.56048e-20)
(1.00711 0.000791052 -4.28689e-21)
(1.04143 0.0372905 2.88902e-21)
(0.839444 0.0952487 0)
(1.06793 0.0135724 1.36234e-20)
(0.99491 0.0110531 -1.2436e-20)
(-0.222465 -0.0105271 -9.95282e-20)
(1.06439 0.197438 -1.04711e-20)
(0.176519 0.0450241 0)
(1.02428 0.0075504 -7.69375e-22)
(0.912857 0.102798 8.8854e-21)
(1.09387 0.00893 2.23544e-20)
(1.03176 0.0457437 -1.95691e-21)
(0.969384 0.00444721 2.45075e-20)
(1.06678 -0.000834089 -2.73822e-21)
(1.08433 -0.0209098 -5.38439e-20)
(1.08034 0.0288109 -2.61508e-20)
(0.878988 0.187585 3.24163e-20)
(0.83462 0.0757281 1.52445e-19)
(1.0171 0.00170954 2.01424e-21)
(-0.0892171 -0.0174092 6.82207e-21)
(1.06784 -0.00281106 -1.93529e-20)
(0.0848249 -0.0256715 0)
(1.02199 0.048052 -1.23442e-23)
(0.197721 -0.00958219 9.23379e-21)
(-0.206801 -0.00930865 -4.18888e-21)
(1.0636 0.00359098 1.68065e-20)
(0.835059 0.0806833 -5.26322e-20)
(1.06339 0.00739506 -1.09939e-20)
(1.00111 0.0191664 9.24687e-21)
(1.02272 0.0183013 1.06448e-23)
(1.17586 -0.00383077 -1.3703e-20)
(-0.173672 -0.0153736 -8.28623e-21)
(1.07033 0.0120248 -2.61821e-20)
(0.968129 -0.00326591 -2.25768e-20)
(1.08698 0.049754 -2.88385e-20)
(1.01797 0.0162744 0)
(1.2452 0.151754 -4.41003e-20)
(0.998433 0.0578201 0)
(1.06907 -0.0129162 -6.6511e-21)
(1.02188 0.015329 0)
(0.405862 0.00666499 1.84534e-20)
(1.06588 -0.00210254 -6.69699e-21)
(0.722214 -0.00138283 0)
(1.09051 -0.0221463 -1.07537e-20)
(0.99438 -0.0013838 2.06318e-20)
(1.01573 0.00310247 0)
(1.04954 0.0223706 -1.77866e-20)
(1.01423 0.00081039 2.21392e-21)
(1.05268 0.00771428 -6.71918e-21)
(1.01398 0.0123861 -2.94135e-21)
(1.06212 -0.00161595 0)
(-0.236917 -0.010128 4.94297e-20)
(1.06251 -0.00128516 0)
(1.02483 0.00744688 -3.22038e-22)
(1.0337 0.0126638 -2.09571e-21)
(0.997626 0.00295855 -8.19624e-21)
(1.04457 0.00696077 0)
(1.06459 0.00509241 0)
(-0.103047 -0.0151258 0)
(1.09991 0.0536498 -1.67663e-20)
(1.0316 0.0353298 0)
(0.286085 -0.0268682 7.71995e-21)
(1.0169 0.00134067 -1.30091e-21)
(0.996057 0.0578724 0)
(1.05468 0.0113755 8.21391e-21)
(0.719491 -0.00498086 3.6129e-21)
(1.01963 0.0147944 0)
(1.05621 0.00591565 7.9877e-21)
(1.12238 -0.00668938 0)
(0.0845213 -0.00319668 4.13146e-20)
(1.07818 0.00858296 -2.7345e-22)
(0.999997 0.000170816 0)
(-0.279342 -0.00680431 9.76576e-20)
(0.999921 0.000103061 -8.34355e-21)
(1.01355 0.0117824 2.75038e-21)
(1.02312 0.00954482 0)
(0.994272 0.0151713 0)
(0.967841 0.00167018 2.14419e-20)
(1.0229 0.00949493 0)
(1.0011 0.0053532 1.13009e-20)
(1.02 0.00395663 -3.92765e-23)
(1.06853 0.0607351 -1.27424e-20)
(1.03009 0.0378622 1.11602e-21)
(1.04262 0.0147827 0)
(1.02441 0.0192031 6.38385e-22)
(1.07546 0.0311442 0)
(0.994088 0.0146564 -3.49648e-22)
(0.939465 0.112653 -1.86775e-20)
(0.994287 -0.00406553 -1.26541e-20)
(1.11511 0.314901 -4.37852e-21)
(1.02987 0.0467773 1.38911e-21)
(1.066 0.00236671 -3.53018e-21)
(1.11217 0.0253754 -2.62275e-20)
(1.04403 0.014314 -5.2169e-21)
(1.05556 0.00659112 0)
(0.963008 0.0103846 3.134e-20)
(1.01831 0.0210538 2.55306e-21)
(0.994619 0.0130303 -7.11981e-21)
(1.00466 0.0297237 7.17376e-21)
(1.00437 0.0305756 0)
(-0.0850592 0.00832199 -2.23508e-21)
(0.485845 0.232406 7.6544e-20)
(1.04125 0.0415864 -1.25634e-21)
(1.01088 0.0208356 4.23414e-21)
(1.0994 0.0803051 3.57073e-20)
(1.06447 0.00133217 0)
(1.0577 0.13019 -1.73406e-20)
(1.11329 0.353272 8.88828e-20)
(0.99093 -0.000531738 0)
(0.999988 -2.52248e-06 8.10766e-21)
(1.02109 0.0158112 0)
(-0.199511 -0.0137399 0)
(0.820121 0.0438731 0)
(1.00106 0.0137332 -5.1168e-23)
(1.00246 0.145795 0)
(-0.0619344 -0.0117525 -1.31548e-20)
(0.619316 -0.0234174 0)
(0.995163 0.000154898 1.9803e-20)
(0.751974 -0.00123352 0)
(1.06862 0.0125013 1.41485e-20)
(0.908146 0.0801238 7.8805e-20)
(1.00007 0.000556651 -6.67118e-21)
(1.00081 0.013821 -4.46762e-21)
(1.04261 0.0327056 0)
(1.04818 0.135728 8.33585e-21)
(-0.151036 0.0179395 0)
(1.14144 0.0468761 2.00641e-20)
(1.06094 0.0125626 0)
(0.99949 -0.000864787 6.55591e-21)
(0.994913 -0.00302874 0)
(0.588936 -0.0206234 -2.20465e-20)
(0.963394 0.0100801 -2.88724e-20)
(0.999908 0.000151633 9.99759e-21)
(1.01216 0.0001434 1.73017e-21)
(0.268917 0.000148729 -5.70465e-21)
(1.00314 0.0250294 -8.5445e-21)
(1.00035 0.0123805 -1.91381e-20)
(1.05371 0.0106072 0)
(1.08262 -0.0100272 0)
(1.1026 -0.02134 -3.05354e-20)
(0.0615512 -0.0262044 0)
(1.00758 0.0295321 -5.97357e-21)
(0.960923 0.049382 7.64156e-21)
(1.186 0.252412 6.88655e-20)
(0.0939442 0.056162 1.35475e-19)
(1.12753 0.291995 1.63429e-21)
(1.07728 -0.00390855 1.04125e-20)
(1.11021 -0.0276975 0)
(1.00403 0.00160919 -7.17488e-21)
(1.10034 0.0733689 0)
(1.00211 0.000555148 0)
(1.06543 -0.00319609 0)
(1.04381 0.00727694 5.21452e-21)
(1.06975 0.0106665 8.46598e-21)
(1.06713 -0.00728595 7.40252e-20)
(1.07878 -0.00405835 4.05622e-20)
(1.06545 -0.00226967 9.82262e-21)
(1.01893 0.0219342 0)
(1.05036 0.0199664 -7.99333e-21)
(1.05888 0.00874479 -8.33792e-21)
(1.07656 -0.00389253 -1.26685e-20)
(0.4481 -0.0350826 0)
(1.04244 0.133672 2.24755e-21)
(0.99962 0.000230953 -1.53119e-20)
(0.707654 -0.00491943 0)
(0.737012 -0.00400969 -1.1421e-20)
(1.06279 -0.000645096 0)
(1.07933 0.000809168 -1.8481e-20)
(0.995879 0.0147856 8.16079e-21)
(1.09987 0.058495 0)
(1.24173 0.172286 0)
(1.053 0.0104929 -1.39054e-20)
(1.08484 -0.0214901 1.09568e-20)
(1.00364 0.0056209 7.89835e-21)
(0.881119 0.18022 -5.71735e-20)
(0.804982 0.328136 0)
(0.205989 -0.00491917 -3.01634e-20)
(0.940039 0.244854 3.50555e-21)
(1.09389 -0.0124419 -2.02019e-20)
(1.00003 0.000489746 -7.08906e-21)
(1.08528 -0.0025527 -2.52455e-20)
(1.05418 0.127604 9.76834e-21)
(1.12884 -0.0176672 0)
(1.06269 0.0433173 5.32731e-21)
(1.04398 0.0335918 -6.34839e-21)
(1.03344 0.0333981 4.0644e-21)
(0.994947 0.0266251 -6.19777e-21)
(0.334713 -0.0424654 -1.24843e-20)
(0.99321 0.0104949 0)
(0.97568 0.0171477 -4.04875e-20)
(1.00001 0.00046304 -8.7287e-21)
(1.06163 0.0134995 8.3775e-23)
(1.04318 0.0711917 9.70343e-21)
(1.02373 0.00800452 0)
(1.00491 0.00549597 -1.04848e-20)
(0.823838 0.310453 -8.93392e-21)
(1.09945 0.00941703 -2.62565e-20)
(1.1429 0.038652 1.56028e-22)
(1.16763 -0.00709977 -1.3953e-20)
(0.950089 0.0255122 2.76071e-20)
(1.21288 0.339549 0)
(1.02341 0.0179305 1.84734e-22)
(0.131723 -0.0229521 5.55175e-20)
(1.07476 0.0211544 1.66883e-20)
(1.0428 0.0696343 -9.24192e-21)
(1.06545 0.0709503 -1.22321e-20)
(0.984623 -0.00768294 4.36849e-20)
(0.995606 -0.00033263 2.26659e-23)
(1.0017 0.000946175 5.59444e-21)
(1.00001 0.000276866 -8.18898e-21)
(1.05274 0.0101746 6.7094e-21)
(-0.0470396 -0.0132666 -1.25363e-20)
(1.05274 0.0283371 1.09983e-20)
(1.05971 -0.00183292 -1.0978e-20)
(1.06895 -0.00598469 0)
(1.17128 0.131932 0)
(0.148086 0.075741 -1.76468e-19)
(0.918588 -0.000453859 2.00387e-20)
(1.06446 -0.0113211 -1.02955e-21)
(1.00424 0.00590841 3.42967e-21)
(1.16381 0.131248 0)
(0.0701571 -0.0140293 0)
(1.00344 0.0241495 -2.19016e-22)
(0.996402 0.0144523 0)
(1.07126 -0.00380422 0)
(1.10458 0.0775697 -2.06505e-20)
(0.99281 0.00448941 0)
(0.977328 0.0176235 2.46914e-20)
(1.06608 0.0627228 2.21429e-20)
(1.04402 0.00553993 4.51786e-21)
(1.02392 0.00942775 1.13051e-21)
(0.393089 0.00476125 -7.81841e-21)
(0.169963 -0.00559774 -1.02812e-20)
(1.18634 0.252979 4.43219e-20)
(-0.195332 -0.0133012 0)
(0.334235 0.000787954 -1.68879e-22)
(1.00644 0.0701504 0)
(1.05885 0.00852564 0)
(1.04926 0.0205689 0)
(1.0441 0.00547994 -1.72713e-20)
(1.00215 0.00162659 0)
(1.06794 0.00306251 5.26281e-21)
(1.02375 0.00922832 0)
(1.02693 0.0438516 1.32921e-21)
(0.0434043 -0.0233368 0)
(1.03313 0.0329617 -3.72943e-21)
(-0.0420028 0.0113773 0)
(1.01085 0.0203292 0)
(0.968094 0.00669722 1.3237e-20)
(1.01645 -0.022044 1.58601e-20)
(1.05502 0.00601229 6.83634e-21)
(1.10282 -0.0250091 2.66433e-20)
(1.03308 0.0298562 6.58413e-21)
(0.217217 -0.00459126 3.55027e-20)
(1.06665 -0.00233332 -2.35681e-20)
(1.06547 -0.00328542 0)
(0.997565 0.0257196 -1.05569e-20)
(1.01148 0.000392284 -1.11194e-21)
(0.99989 0.000217071 -7.07272e-21)
(1.04132 0.0204872 0)
(1.01514 0.0155766 4.42754e-22)
(0.119671 -0.0016697 -1.08444e-21)
(1.05668 0.00653211 4.50604e-21)
(-0.220403 -0.0121497 0)
(0.906704 0.0817386 -3.04306e-20)
(1.0534 0.0025298 2.50096e-20)
(1.06494 -0.00114021 1.06436e-20)
(1.00284 0.00492504 -6.95105e-21)
(1.0457 -8.64053e-06 2.6005e-20)
(1.19489 0.33004 2.89463e-20)
(0.989353 0.0349535 1.66428e-20)
(1.06682 -0.00238429 -8.97231e-23)
(0.973719 0.0342809 0)
(1.0331 0.00679954 -1.35349e-21)
(0.99878 0.00755884 1.00307e-20)
(1.07364 0.0324623 -1.55626e-20)
(1.02639 0.0426434 0)
(1.12582 0.0616248 -3.11262e-20)
(1.00528 0.0314152 0)
(0.768498 0.30343 1.07976e-19)
(0.996007 0.142933 -1.48536e-21)
(1.05968 -0.00165183 3.40017e-21)
(1.06233 0.00465047 -1.52269e-20)
(1.10063 0.0513452 1.90127e-20)
(0.985411 -0.00277621 -1.19849e-20)
(1.05362 0.00135083 -1.824e-20)
(0.402673 0.00437496 8.53839e-21)
(0.706344 -0.00312603 1.20853e-20)
(1.06325 -0.0160873 2.13446e-20)
(1.24723 0.165142 -7.61735e-20)
(1.06928 -0.00691804 0)
(1.06892 -0.0132713 2.03847e-21)
(-0.213464 -0.00700364 9.85914e-20)
(1.06618 -0.00201728 0)
(0.974721 0.077959 1.13517e-20)
(0.413702 -0.000640344 -5.55609e-21)
(-0.043226 -0.0154156 3.60289e-20)
(1.06212 0.000120282 1.61688e-20)
(1.06563 -0.00220312 3.19799e-23)
(0.956619 0.00699019 0)
(0.275155 -0.00220263 -6.39776e-21)
(1.06793 -0.000343093 -2.39876e-20)
(1.07737 0.00992587 -1.55569e-20)
(1.05077 0.0219837 9.76561e-21)
(0.998542 0.00700496 1.53924e-22)
(1.06843 0.00313247 0)
(1.05048 0.00407848 -6.83218e-21)
(0.0147085 -0.016576 5.5895e-20)
(0.971456 -0.0194052 -7.74982e-21)
(1.01601 0.0036193 -8.14753e-22)
(1.0257 0.00762505 0)
(1.06527 0.00188423 -7.67828e-21)
(0.958741 0.00419061 -1.72696e-20)
(0.270279 -0.0409295 -1.23372e-20)
(0.994826 -0.000801165 -2.09091e-20)
(0.991263 -0.00595 8.32826e-22)
(1.02093 0.03344 1.69003e-21)
(1.12109 -0.00255225 -2.86548e-20)
(0.999596 -0.000918871 -7.84167e-21)
(1.15643 0.0171604 1.89014e-20)
(0.407759 -0.00166584 7.57665e-21)
(1.00182 0.000475677 -7.9579e-21)
(1.04387 0.019151 0)
(1.03303 0.0128421 -3.17551e-21)
(0.39859 -0.0334606 -7.34273e-21)
(0.0295977 -0.0134165 1.39769e-20)
(1.07475 0.0502008 2.7103e-20)
(0.930069 0.113907 -9.51203e-21)
(1.04434 0.0344802 6.47075e-21)
(1.06547 -0.00215023 -1.02175e-20)
(-0.216637 -0.00152599 1.29735e-19)
(0.925109 0.0614419 2.21928e-20)
(0.98791 0.0781186 0)
(0.999966 0.000364705 0)
(0.568068 0.665111 1.28453e-19)
(1.04165 -0.015816 1.73723e-20)
(1.00392 0.00567233 4.08583e-21)
(1.0465 0.0684842 -1.24288e-20)
(1.06476 0.0231324 -2.04608e-20)
(1.0507 0.00933655 0)
(1.00484 0.0721712 0)
(0.961562 0.0486694 -2.50311e-20)
(0.95283 -0.0236744 2.287e-20)
(1.04991 -0.00606542 1.35095e-20)
(1.01658 0.0174789 -3.10223e-21)
(-0.246629 -0.00808301 -1.35532e-19)
(0.0674815 -0.0221456 6.14827e-20)
(1.05537 0.00384362 0)
(1.05529 0.00398323 4.18325e-21)
(1.03573 -0.00240248 8.15988e-21)
(1.08414 -0.0113977 -1.37027e-20)
(0.108198 -0.0116684 0)
(-0.176781 0.00300692 0)
(1.05327 0.0289523 0)
(1.07316 0.0230244 1.49567e-20)
(0.427028 -0.033622 0)
(-0.222215 -0.00671398 0)
(0.999942 0.000359213 4.87405e-21)
(1.0029 0.0193268 -6.09314e-21)
(1.05412 0.0139763 1.29186e-20)
(1.01017 0.00865295 -6.79198e-22)
(0.442368 -0.00391827 -1.04313e-20)
(1.0654 -0.00246135 -1.95938e-20)
(1.07465 0.0500815 -2.08297e-20)
(1.00149 0.100712 0)
(0.998693 0.0978605 0)
(0.997451 0.0191216 8.19233e-21)
(1.06208 0.0483117 0)
(1.0437 0.264288 1.03202e-20)
(0.996296 0.013572 -2.17642e-20)
(1.09979 -0.0215006 2.25746e-20)
(1.02195 0.0329941 -8.25688e-22)
(0.900322 0.409371 -1.87069e-20)
(0.134042 -0.00991519 -5.87727e-20)
(0.999616 -0.0010113 0)
(1.21293 0.243563 8.92704e-21)
(1.04687 0.00542849 1.80307e-21)
(0.995195 0.0141678 0)
(1.03032 -0.00355068 4.00242e-21)
(1.02505 0.0125993 -5.97934e-22)
(0.828817 0.0637205 -1.08913e-19)
(1.00633 0.0121271 -5.87462e-21)
(1.05626 0.00809819 1.4057e-20)
(1.0029 0.00372516 0)
(1.05455 0.00506021 -3.23239e-21)
(1.04131 0.0155782 -7.8413e-21)
(1.02498 -0.00272278 -4.30405e-21)
(1.01976 0.020268 0)
(1.0213 0.0100592 5.05993e-23)
(0.993567 0.0130355 0)
(1.00774 0.0158003 0)
(0.0679294 -0.00799823 -6.48585e-20)
(1.12955 0.0193712 0)
(1.06183 0.00533059 1.96907e-20)
(1.12857 0.01745 0)
(0.989912 0.036277 5.67389e-21)
(-0.167705 -0.0104458 -1.47717e-20)
(0.640004 -0.0234237 -3.89717e-21)
(1.01665 0.000795598 9.94847e-22)
(1.06409 0.0044267 -1.14146e-20)
(1.06563 -0.00246673 -7.56111e-21)
(1.02604 0.0070544 1.58022e-21)
(1.00184 0.000971072 -5.79541e-21)
(1.07461 0.0205194 -2.419e-20)
(1.15077 0.014183 3.08512e-20)
(0.120604 -0.00893498 0)
(1.07178 -0.00397177 0)
(0.999951 0.000778291 -5.1611e-21)
(1.03417 0.0317903 0)
(1.1265 0.0577961 1.03382e-19)
(0.999797 -0.000325309 -1.12203e-20)
(1.09507 -0.0130482 -9.40072e-21)
(1.00198 0.00173914 0)
(0.00524793 -0.0132869 -6.9823e-20)
(1.00608 0.0510809 0)
(1.00601 0.0147307 6.39295e-21)
(0.998167 0.00146609 0)
(1.0227 0.0186261 0)
(0.790575 -0.00404216 6.12348e-21)
(1.08432 -0.00411208 0)
(1.10068 -0.0229894 -2.40713e-20)
(1.02393 0.00830176 0)
(1.05081 0.00452533 5.96512e-21)
(1.18291 0.0909514 -1.24675e-21)
(0.946678 0.0278669 -1.47077e-20)
(1.05251 0.0303424 -1.58064e-20)
(0.360135 0.00370134 3.01946e-22)
(0.456858 0.00810933 -5.32753e-21)
(1.07327 -0.00938589 -2.49368e-20)
(1.00449 0.00205902 2.59302e-21)
(1.18118 0.302496 1.6406e-19)
(0.857682 0.0412621 1.42505e-20)
(0.981208 -0.000818016 3.27313e-21)
(1.02402 0.00639158 1.11851e-22)
(1.07742 0.212869 3.79439e-20)
(1.115 0.0298843 -1.4405e-20)
(1.01796 0.00535373 -1.32975e-21)
(0.0536864 -0.0134559 2.81415e-20)
(-0.225493 -0.0064435 1.21986e-19)
(1.08362 0.0613334 8.19477e-21)
(1.00265 0.0480405 -1.14795e-20)
(1.02471 0.0172082 3.47616e-22)
(1.02179 0.0105022 -7.20215e-23)
(0.46826 -0.00648656 7.8345e-21)
(1.03134 0.140353 2.87532e-21)
(1.01476 0.00067659 0)
(0.944277 0.105015 2.53372e-20)
(1.01576 0.0210919 -3.18251e-22)
(1.06302 0.0405049 0)
(1.02337 0.00707904 7.06841e-22)
(0.991359 0.0557217 0)
(1.04611 0.0671759 1.25945e-20)
(0.999898 0.000709055 0)
(1.05139 0.00588195 1.01325e-20)
(1.00082 0.136061 7.14584e-21)
(0.996778 -0.0287374 -3.54416e-20)
(1.06575 -0.00216172 -2.06401e-20)
(1.15964 0.13482 1.73088e-20)
(1.06209 -0.00184358 0)
(1.10102 0.0568689 1.82196e-20)
(0.09799 -0.00855617 5.21269e-21)
(1.06566 0.0706988 -3.14719e-21)
(1.05518 0.00568407 -7.0313e-21)
(1.14283 -0.0232918 9.30356e-20)
(0.141667 -0.00806021 0)
(0.995733 -0.000423537 -1.96441e-20)
(-0.0737281 -0.00922513 8.2854e-22)
(1.07033 0.0510191 -4.28809e-20)
(0.971626 0.0720967 -1.89381e-20)
(0.893153 0.0636968 -2.50317e-20)
(1.00381 0.0257557 8.30347e-21)
(-0.145198 0.0206535 5.93197e-20)
(1.00662 0.000894277 4.93384e-21)
(1.06578 -0.00311954 -1.57443e-20)
(-0.0696027 -0.00679665 0)
(1.00219 0.0282119 8.30746e-21)
(0.980667 0.0517638 -1.87481e-20)
(1.10857 0.00187948 -3.35239e-20)
(1.01057 0.0178918 0)
(1.17658 0.0711741 -4.6987e-20)
(1.04445 0.261471 -8.5687e-21)
(1.06153 -0.000128921 3.3087e-21)
(1.2063 0.254561 -1.01697e-20)
(1.08387 -0.00346097 0)
(1.02313 0.0076413 0)
(1.05531 0.0957226 -1.25395e-20)
(1.04226 0.0318931 1.37476e-21)
(1.01913 0.0345523 -5.48157e-22)
(0.981912 -0.0185734 1.18158e-20)
(0.980172 -0.00280301 -1.81634e-21)
(1.06394 0.00628342 -1.24399e-20)
(1.00025 0.0132287 0)
(1.11245 0.315611 0)
(1.01634 0.000910584 0)
(0.969305 0.00429598 -2.35393e-20)
(1.00383 0.0287192 7.5748e-21)
(0.940327 0.0965717 -2.17315e-20)
(0.847481 0.0402539 1.60675e-20)
(0.656155 -0.018949 3.60119e-21)
(1.07074 -0.003594 0)
(1.00885 0.0300404 -3.47417e-21)
(1.00455 0.00554018 2.49647e-21)
(1.07318 -0.00439547 -2.92315e-20)
(1.23306 0.0775871 0)
(1.04239 0.0200179 0)
(1.00656 0.0155382 1.05751e-20)
(1.0141 0.014984 -9.00194e-22)
(1.07257 0.0502757 2.15095e-20)
(1.01926 0.0167278 1.83718e-21)
(1.01405 -0.00401835 0)
(0.999796 0.000987743 -1.10564e-20)
(1.06465 -0.000205087 -1.09624e-20)
(1.10475 -0.0241938 -1.0177e-21)
(0.710373 -0.00623707 1.4013e-20)
(0.999917 -0.000595473 0)
(1.00675 0.0125314 6.16668e-21)
(0.999153 0.00163099 5.0998e-21)
(0.998037 0.0682028 2.37661e-21)
(1.24006 0.11853 -1.0033e-19)
(0.315815 0.00205987 0)
(0.621465 -0.0185944 0)
(1.09243 -0.00382254 0)
(0.911825 0.0953168 0)
(0.572029 -0.0197158 1.26952e-20)
(0.996892 0.0195401 0)
(0.999861 0.060017 -8.23407e-21)
(1.07603 -0.00921658 3.33908e-21)
(1.05653 0.00828657 0)
(1.02981 0.0371697 -2.32971e-21)
(1.06038 0.00185571 0)
(1.04003 -0.0176222 0)
(1.04375 0.00794071 1.07498e-20)
(0.966508 0.00180046 8.88076e-20)
(1.0501 0.00843113 0)
(0.102776 -0.00775147 6.82288e-20)
(0.996697 0.00826061 0)
(-0.011094 -0.0137052 -3.44042e-20)
(0.117318 -0.00532739 0)
(0.720534 -0.00321335 -1.7455e-20)
(0.544867 0.00962767 -1.25264e-20)
(1.07002 -0.00733931 0)
(1.06713 0.00256775 -1.03397e-20)
(0.0289133 -0.0104089 -1.03556e-19)
(1.0147 0.0148086 8.54647e-22)
(0.986166 0.0823104 0)
(0.996233 0.00394965 -3.66453e-21)
(1.16303 0.182495 0)
(1.00514 0.00579004 3.68222e-21)
(1.08153 0.547194 -8.45097e-20)
(0.74003 0.193821 2.22e-20)
(0.982896 0.13289 -1.21776e-20)
(1.00282 0.023502 -6.62836e-21)
(0.992082 0.032383 0)
(0.606643 -0.0195081 2.2816e-20)
(0.992189 0.0658979 0)
(0.977685 0.0733326 -6.82128e-21)
(1.00299 0.00866462 0)
(0.950797 -0.0230112 -4.33427e-21)
(1.18419 0.103777 0)
(1.0694 -0.0062555 0)
(1.1212 0.0449653 6.51965e-20)
(-0.0733299 -0.0149904 -4.63053e-22)
(1.02272 0.0319064 -1.48602e-22)
(0.0289293 -0.0106349 -3.87532e-20)
(1.07017 -0.00735788 -1.1859e-20)
(1.23201 0.0737076 0)
(1.06105 0.0120686 0)
(1.1242 0.051314 -8.49805e-20)
(0.953848 0.0278308 1.48428e-21)
(1.15973 0.0218528 -6.40671e-20)
(1.00256 0.00434487 0)
(1.06011 0.0108985 4.57367e-21)
(0.818032 0.0456068 0)
(1.00696 0.00769882 0)
(0.622992 -0.0223019 4.18688e-21)
(0.694069 -0.00609684 -2.26143e-20)
(0.31612 -0.00038401 -2.69716e-21)
(0.5927 -0.0187136 -1.85006e-20)
(1.0753 -0.0091354 0)
(1.03759 -0.00963947 0)
(0.966145 0.0129141 0)
(1.11902 0.342632 -9.30541e-20)
(1.00468 0.00217113 -7.88779e-21)
(1.19722 0.0133848 3.08575e-20)
(1.16417 0.0267294 -6.45366e-20)
(1.0549 0.065392 -1.76118e-20)
(1.11416 -0.0126717 7.49186e-22)
(0.844607 0.277272 -2.84191e-20)
(1.17161 0.164671 -3.51699e-20)
(0.990223 0.00286686 0)
(0.985301 0.210852 7.50845e-21)
(-0.0217237 0.000800481 0)
(0.996421 0.00774075 0)
(1.05515 0.0198162 5.49278e-21)
(1.00433 0.00479042 -2.80105e-21)
(1.00052 0.00542671 0)
(1.00303 0.00406041 4.67395e-22)
(0.79988 -0.000981273 -4.53279e-21)
(0.999696 -0.000376171 2.53058e-20)
(1.02052 0.0189009 8.69122e-22)
(1.07804 -0.00409394 -3.30194e-20)
(0.995726 -0.00396127 9.17977e-21)
(1.06322 0.00418952 -1.97809e-21)
(1.01009 0.0196262 3.87353e-21)
(0.889293 0.0517126 4.22426e-20)
(1.04298 0.00815797 -2.56672e-21)
(0.762802 0.28656 6.69853e-21)
(0.998579 0.00236393 7.27782e-21)
(0.71531 0.124828 1.01465e-19)
(0.291015 -0.0456067 3.40128e-20)
(1.1215 0.043747 -6.70848e-20)
(1.06632 -0.00133164 0)
(1.07141 0.0110784 -1.70637e-22)
(0.855244 0.425377 1.01164e-21)
(1.10606 0.00099548 4.31889e-20)
(0.768415 0.000736096 4.53517e-21)
(0.893993 0.170225 0)
(0.997993 0.00273263 1.27767e-20)
(0.181075 -0.0091448 0)
(0.950513 0.0285441 -2.66015e-20)
(0.0834469 -0.00898384 1.17042e-20)
(1.05153 0.0681041 -6.82106e-21)
(1.16373 0.0281673 0)
(1.22769 0.0712636 -7.14049e-20)
(1.09083 -0.00300266 0)
(0.999979 -4.42174e-05 -1.20868e-21)
(1.05195 0.0047143 2.74181e-21)
(0.532766 0.00605863 8.00371e-21)
(1.05538 0.0187171 -2.29133e-20)
(1.06702 0.00279243 -6.98273e-21)
(1.06092 0.0236253 7.75469e-21)
(1.06697 -0.0121014 1.19255e-20)
(1.06743 -0.00058228 1.64504e-20)
(1.06857 -0.006935 4.23296e-21)
(0.963927 -0.0232454 -1.69614e-20)
(1.00924 0.00732172 -7.97049e-21)
(0.675636 -0.0182234 1.20063e-20)
(1.06174 -0.00472199 1.20589e-20)
(1.00336 0.010847 8.87381e-21)
(1.0354 0.0187025 -4.52403e-21)
(0.47731 -0.0352522 1.26375e-20)
(1.02391 0.0318881 1.01475e-21)
(1.11747 0.0345495 1.45186e-20)
(0.0348527 -0.000712746 -2.11502e-21)
(0.997926 0.00110858 1.28779e-22)
(1.06578 -0.00323039 0)
(1.02323 0.0914193 -4.29845e-22)
(1.06243 -0.00226059 -1.7248e-20)
(1.03451 0.01832 0)
(1.00313 0.0110569 3.74146e-21)
(1 0.000144253 0)
(1.11498 0.0291662 2.97808e-20)
(0.711631 -0.0108306 0)
(1.00603 0.0168613 8.97668e-21)
(1.00711 0.00807292 0)
(0.927847 0.0198758 5.47787e-21)
(1.2161 0.0666591 5.85093e-20)
(1.09836 0.0766606 -3.51597e-20)
(0.995127 -0.00205523 1.56037e-20)
(1.01855 0.0171355 1.52017e-23)
(1.02036 0.020901 0)
(0.999927 0.000476379 0)
(0.996816 0.0133072 1.35462e-20)
(0.977702 0.124764 3.99947e-21)
(0.965861 0.0604259 1.20604e-20)
(0.74718 0.186145 -7.85395e-20)
(1.2037 0.173862 2.89406e-21)
(1.06273 -0.00289433 1.74307e-20)
(1.0733 -0.00768195 -3.56483e-21)
(0.960954 0.000463423 1.24976e-22)
(0.99954 0.000187744 1.49379e-20)
(1.03762 0.0146438 1.62851e-21)
(1.1885 0.00994269 0)
(0.894304 0.00206958 -1.89072e-20)
(1.10355 0.0157553 8.91564e-21)
(1.06355 -0.000731412 -2.27222e-20)
(1.00003 0.000439626 7.79411e-21)
(1.17067 0.169273 3.81279e-20)
(1.06808 0.0140251 0)
(1.06539 -0.00241686 0)
(0.996664 0.00392227 6.67657e-21)
(1.1121 -0.0127559 5.57107e-20)
(0.969457 0.041941 9.49585e-21)
(0.999849 0.000324689 -1.32011e-20)
(0.965793 0.0170398 1.37624e-20)
(1.01727 0.000799669 6.39915e-22)
(1.06541 -0.00274145 -1.34022e-20)
(1.0772 0.0216072 -4.63839e-21)
(0.897686 0.165904 2.84688e-20)
(1.00284 0.00424498 -4.59175e-21)
(0.729544 -0.0193572 -2.03692e-20)
(1.00005 0.000234075 0)
(0.110143 -0.000303376 -1.34508e-20)
(0.121766 -0.00965572 -3.57211e-20)
(0.999199 0.0044972 0)
(0.174897 -0.0366375 0)
(1.00847 0.000942108 0)
(1.01025 0.0168961 0)
(0.993045 0.0313965 -8.31309e-21)
(1.00001 0.000187657 0)