/*--------------------------------*- C++ -*----------------------------------*\
| =========                 |                                                 |
| \\      /  F ield         | OpenFOAM: The Open Source CFD Toolbox           |
|  \\    /   O peration     | Version:  v2012                                 |
|   \\  /    A nd           | Website:  www.openfoam.com                      |
|    \\/     M anipulation  |                                                 |
\*---------------------------------------------------------------------------*/
FoamFile
{
    version     2.0;
    format      ascii;
    class       volVectorField;
    location    "50";
    object      ddt0(U);
}
// * * * * * * * * * * * * * * * * * * * * * * * * * * * * * * * * * * * * * //

dimensions      [0 1 -2 0 0 0 0];


internalField   nonuniform List<vector> 
14315
(
(-0.0158583 -0.0104372 -3.03513e-19)
(-0.0159446 -0.0115053 0)
(0.00263189 -0.00300665 4.10202e-20)
(-0.0271018 0.0638177 -1.07458e-19)
(-0.0276847 0.0830312 -7.43869e-20)
(-0.00155766 -0.00684692 1.62793e-19)
(-0.00109664 -0.00710684 -6.52507e-20)
(0.000188074 -0.00353726 0)
(0.00468791 -0.0175854 2.46712e-19)
(0.000676947 -0.00404168 -6.44662e-20)
(0.0230493 0.0571878 -1.99813e-19)
(0.00249106 0.000559819 4.77699e-20)
(-0.0172949 -0.013399 1.90285e-19)
(6.48818e-05 -0.000145554 -3.04418e-20)
(0.00057615 0.000216131 1.75293e-19)
(-8.29023e-05 1.25809e-05 -4.74568e-20)
(-0.00234052 -0.00234996 -7.11384e-20)
(-0.000297942 0.000449336 7.75396e-20)
(0.015846 -0.0161303 0)
(0.0105342 -0.0077908 0)
(-0.000594246 0.000643358 -1.42751e-22)
(-0.0024389 0.00317931 0)
(-0.00121737 0.0207021 2.05106e-20)
(0.00227753 0.000571186 -4.87923e-20)
(0.0224134 -0.10544 4.08271e-19)
(-0.0156056 -0.0107972 -1.08554e-20)
(-0.000226682 0.00100049 0)
(-0.000814311 -0.00724243 6.57555e-20)
(-0.0029056 -0.00918758 1.86836e-19)
(0.0008058 -0.00991292 -3.90439e-19)
(0.000663791 -0.00409974 -4.59789e-20)
(-0.000253919 0.000268334 -9.48073e-20)
(0.00012791 -0.00011574 -6.45112e-20)
(-0.00506614 0.00501635 -7.97101e-20)
(-0.00206121 0.0016875 1.39842e-19)
(-0.00157078 9.2826e-05 1.38319e-19)
(-0.0186212 -0.0454995 -4.3747e-19)
(-0.00230763 -0.00689808 8.60983e-20)
(-0.0103128 0.0146538 -1.89962e-19)
(0.0603042 0.0579562 9.00765e-21)
(0.00307828 0.000554809 1.26431e-19)
(-0.0203386 -0.0173749 -8.81335e-19)
(-0.000808401 0.000495357 2.13379e-21)
(-3.8107e-05 -7.70687e-05 -7.03756e-20)
(-0.00982902 0.00619346 -1.55708e-20)
(0.0177108 -0.0799536 -2.76528e-19)
(-0.00668518 -0.00257788 -6.09174e-20)
(-0.000620583 -4.9695e-05 0)
(-0.000768181 -1.7814e-05 0)
(-0.000222506 -0.000161483 -5.60694e-20)
(-0.000486239 -0.000405427 1.46427e-19)
(-0.0217886 0.0158759 4.87772e-20)
(0.000936647 0.000260575 0)
(0.000500786 0.000180251 0)
(0.00119061 -0.00773995 -1.66518e-21)
(-0.00158594 0.000321428 -1.86958e-19)
(0.0827796 -0.0283888 -5.66224e-19)
(-0.00617231 -0.00832421 -3.86718e-20)
(-0.000786898 -0.000228107 2.36772e-20)
(0.00228535 0.00669837 -1.31681e-19)
(-0.00727103 -0.00488645 8.94438e-20)
(-0.0174157 -0.0141032 5.57277e-20)
(-0.00205027 0.00141358 0)
(-0.000151227 -0.000618518 -4.07982e-20)
(-0.0152517 -0.00107121 8.71057e-21)
(0.016549 0.0383804 -4.22301e-19)
(-0.0115571 -0.00595344 -4.46111e-20)
(-0.000254059 0.000330044 3.29394e-20)
(-0.000252837 0.00172435 -3.74061e-20)
(0.00113223 -0.00657767 1.92629e-20)
(0.000526609 0.000117811 -1.18796e-19)
(0.0036273 0.00798487 0)
(-0.00228492 0.00150399 -1.39902e-19)
(-0.00579364 -0.00694784 -1.90104e-19)
(-0.000929644 0.000700622 0)
(0.00808406 0.0126612 0)
(-0.00425848 -0.0126037 -8.12723e-20)
(0.00364992 0.00037274 1.80836e-20)
(-0.00658946 0.0169319 -1.25183e-20)
(0.000890434 -0.00220505 4.53889e-20)
(-0.000213716 -6.11617e-05 0)
(-0.0175191 0.00670522 -2.27085e-19)
(-0.00222402 0.0155874 1.39799e-19)
(0.00398261 6.04773e-05 1.57601e-20)
(-0.000224012 0.000399606 0)
(-0.00098297 0.00307395 3.9919e-20)
(0.00795513 0.0177883 0)
(0.00382613 -0.000231834 0)
(0.000687023 0.000174996 -1.84747e-19)
(-0.0128088 -0.0222838 8.20433e-21)
(-0.00154936 -0.0109704 7.47903e-20)
(0.000575786 -0.0419083 -6.16959e-21)
(-0.000163654 -4.56553e-05 0)
(0.000688512 -0.00342999 -2.55431e-20)
(0.00801068 0.00119709 -1.01028e-19)
(0.00534143 0.00231618 -4.12507e-20)
(-0.0025698 9.83198e-05 0)
(-0.000485853 0.000114278 0)
(0.00799098 0.000762814 -2.95353e-20)
(0.00552561 -0.0115884 -7.93094e-20)
(0.000188596 0.000322448 -3.60779e-20)
(-0.000950302 -9.45273e-05 0)
(-0.00201743 0.00108549 6.50798e-20)
(-0.000238453 -9.77499e-05 3.08701e-20)
(0.00931865 -0.060821 0)
(-0.00477935 0.0238884 8.49433e-19)
(-0.00152788 0.000433374 0)
(0.000919834 0.00163148 -2.83227e-21)
(0.00117907 0.0150447 0)
(-0.0103168 -0.0300725 -2.75742e-20)
(0.00526998 0.00216858 2.28384e-20)
(0.000115693 0.00369081 -3.48969e-22)
(-0.00146032 0.000550147 0)
(-0.000115344 0.000620966 -1.59153e-20)
(-0.00107695 0.00125504 0)
(0.00700211 7.61062e-05 9.83675e-20)
(-0.000295368 0.000869315 2.22175e-20)
(0.00088183 0.000179024 1.81649e-19)
(-0.00245374 -0.000874576 1.21492e-19)
(0.00842578 0.000588816 5.5216e-20)
(-0.000747326 0.000803347 -3.71852e-22)
(0.00118942 -0.00460026 0)
(-0.000286393 -0.000135088 2.19346e-20)
(0.00722069 0.00109759 0)
(0.0100699 0.0175887 -7.23128e-20)
(-9.45014e-05 -4.02992e-05 3.98116e-20)
(0.0431265 0.0932423 -4.70129e-19)
(-0.000215549 -9.25081e-05 3.23696e-20)
(8.19451e-05 -0.000593734 5.74216e-20)
(0.00895495 0.0287064 1.34029e-19)
(-0.00447289 -0.00185883 -1.03498e-20)
(-0.000130044 0.000410673 -4.74171e-20)
(0.0615038 0.109091 -4.59124e-19)
(0.00763144 -0.000824286 0)
(-0.000253687 -0.0125456 1.74626e-19)
(-0.000397553 0.000950425 -5.24585e-20)
(8.92855e-05 0.00116369 -2.59124e-20)
(-0.0117625 -0.0132354 1.09421e-20)
(0.000539778 -0.00204548 -4.29738e-22)
(-0.000473897 0.00045569 0)
(-0.0106607 -0.0128706 6.06635e-21)
(0.00897748 0.0011368 -1.58891e-19)
(-0.000304497 0.000469372 0)
(-0.000532172 0.000144612 -3.04897e-20)
(-0.0140253 0.0084745 0)
(-0.00619605 -0.0015698 3.68669e-20)
(-0.00300624 -0.00749335 9.12506e-20)
(-0.0015879 -0.00129712 -1.38164e-19)
(-0.00104219 -0.00319194 3.07427e-19)
(-0.00245215 0.00956199 0)
(0.000755194 0.0110373 1.28194e-19)
(-0.00061561 -4.22455e-05 1.67656e-20)
(-0.00131159 0.00389359 -3.78651e-20)
(-0.000985505 -0.00537676 6.25276e-19)
(0.016841 0.0642679 6.9091e-21)
(0.000827896 0.000184711 -1.69421e-19)
(-0.00173024 0.00303221 7.78597e-20)
(-9.88676e-05 5.91029e-06 0)
(-0.00221422 -0.00308903 -1.48239e-19)
(-0.0125547 -0.012825 2.2087e-20)
(4.84691e-05 0.00131753 5.0596e-23)
(-0.000939477 -0.000612277 -1.28184e-19)
(0.000731977 -0.00523628 0)
(0.00396098 0.000855828 -1.04948e-19)
(-0.0045919 -0.00149523 0)
(0.000899509 0.00179628 0)
(-0.00151487 -0.000387221 -5.39301e-20)
(-0.0164012 0.0177947 0)
(0.00129113 -0.00822788 -2.11164e-19)
(-0.000313925 0.00031543 0)
(0.00198475 -0.00836455 -5.72732e-20)
(-6.65088e-05 1.02576e-05 1.33443e-21)
(0.0032394 -0.000405935 -1.04703e-20)
(-0.000212704 0.0017504 7.13783e-20)
(0.00301449 -0.0116166 8.54278e-20)
(0.0663091 -0.00282872 4.52942e-19)
(-0.000112811 -2.36565e-05 6.73563e-21)
(-0.00229142 0.00234929 0)
(-0.00269831 0.00365436 -3.1594e-20)
(-0.00397617 -0.00175017 3.05446e-21)
(0.0158625 0.0379415 -6.77087e-20)
(-0.00345604 -0.0109562 0)
(-0.000229166 -6.22558e-05 -4.11877e-20)
(0.0033731 0.00582977 -4.1561e-20)
(-0.00782927 0.0222063 2.25527e-21)
(-0.00459025 0.00407599 -1.20157e-20)
(0.0783798 -0.0466066 1.06964e-19)
(-0.012375 -0.0089766 1.92269e-20)
(-0.00230538 0.00103826 1.7399e-20)
(-0.00838129 -0.00105565 0)
(-0.00104546 0.00829038 5.3836e-20)
(-0.00760988 0.0135867 -1.54764e-19)
(0.00913421 0.000236004 -9.29864e-20)
(-0.0352896 0.00994705 9.64272e-19)
(2.42209e-05 -0.000484255 -1.99546e-20)
(0.00315231 -0.00414508 0)
(-0.00423531 0.00785085 5.82331e-20)
(6.5436e-05 -0.00206876 -8.0639e-20)
(-0.000219576 0.000334222 -3.03279e-20)
(0.0135279 0.0691176 -1.89842e-19)
(0.0083657 0.00119465 -3.2685e-20)
(0.00528815 0.00410538 -1.11157e-19)
(0.00420959 0.000813365 1.94058e-19)
(0.00900378 0.000121628 7.82982e-20)
(-0.000320345 0.000636577 -2.10061e-20)
(0.00189495 -0.0177304 2.2475e-20)
(-0.00711798 0.00152085 0)
(-0.00608234 0.00386538 0)
(-0.000120536 5.51406e-05 -2.08108e-20)
(0.00870734 0.00168973 -7.79201e-20)
(0.00353162 -0.0233079 -9.14737e-19)
(-0.000461312 -0.000445134 -2.96293e-20)
(0.00902987 0.00114039 1.32674e-19)
(-0.00286674 -0.0254884 -1.01101e-19)
(-0.00524542 -0.00505788 0)
(-0.00240386 -0.0019219 0)
(0.00339367 0.00225162 -1.14764e-20)
(0.00766924 0.00078427 0)
(-0.00482797 -0.00464542 3.6711e-20)
(-0.0152252 0.0379864 -7.31597e-19)
(-0.00249503 -0.00770281 1.30537e-19)
(-0.000966747 -0.00122468 -4.65933e-20)
(-0.00858711 -0.0178439 4.33473e-21)
(-0.00330641 0.0127448 -1.77043e-20)
(-0.0164784 -0.0139377 -4.62533e-20)
(-0.00148627 -0.00307579 -1.38359e-20)
(-0.000104876 -2.06163e-05 0)
(0.00219046 0.00587311 4.87215e-20)
(-0.00221802 0.00124485 2.39997e-20)
(-0.00105498 0.00535022 -2.39963e-19)
(-7.99561e-05 -1.44599e-05 0)
(-0.0046641 0.00250065 -8.31262e-20)
(0.00561633 -0.0111418 9.40299e-20)
(-8.45915e-06 2.43281e-05 -7.32695e-20)
(-0.000111145 0.000902859 0)
(0.0179653 -0.0553126 -4.63717e-20)
(0.000573276 -0.00618704 -9.51754e-21)
(-0.00629565 0.0138244 0)
(-0.00206089 0.00213497 6.67418e-20)
(0.000997615 0.00368858 0)
(0.00200334 -0.00465538 3.59711e-20)
(-0.00319703 -0.000396338 -3.54103e-20)
(0.106724 0.00868763 2.58367e-19)
(0.0101562 0.000949335 -8.83161e-21)
(-0.028436 -0.258053 7.894e-20)
(-0.027691 0.0449575 -4.86315e-21)
(-0.0038724 0.00463356 -8.22004e-20)
(-2.10485e-05 1.32083e-05 -6.57708e-20)
(0.000514083 0.00384439 0)
(0.00532188 0.00496604 -6.61901e-20)
(-8.65741e-05 -0.000191749 0)
(-0.000209954 -0.000143414 -3.02759e-20)
(-0.000275788 -0.000291966 1.70488e-19)
(-0.0331696 0.0198925 -3.40409e-19)
(-0.000522791 0.00188356 -5.13459e-20)
(0.0039669 0.00164098 0)
(-0.00658102 -0.00482421 -1.03375e-19)
(-0.00188029 -0.0175143 1.04337e-22)
(-0.000996427 0.000223311 3.96853e-20)
(0.0114129 -0.0134094 -6.28218e-20)
(0.0861308 0.101911 2.32074e-19)
(0.00173226 -0.00249087 2.27512e-20)
(0.00732417 0.00119222 -2.15572e-21)
(0.00619832 0.00454152 0)
(-0.0269451 -0.0187499 7.43736e-20)
(-0.0010887 -0.00420624 1.39223e-19)
(0.00516666 -0.0337304 2.40432e-19)
(-0.000970788 -0.009195 -9.88017e-20)
(-7.21955e-05 -0.00137601 -4.41782e-20)
(-0.000388129 0.000374062 0)
(-0.0137792 -0.0120141 2.18132e-20)
(0.000284969 -0.007357 0)
(-0.00993327 -0.000285842 0)
(0.00655824 -3.64939e-05 -1.15174e-19)
(0.00747339 0.0262448 0)
(-0.00206512 0.00286644 0)
(0.0086863 0.000680311 -5.63633e-20)
(-0.00168633 0.00755845 0)
(-0.000955208 0.00021509 0)
(0.000600713 0.060128 -7.34471e-20)
(0.00364735 -0.00213197 -3.8701e-20)
(-0.000932262 -0.000647927 7.67872e-20)
(0.00195549 0.00396496 0)
(-0.0194124 0.00570537 -2.41183e-19)
(0.000971333 8.71509e-05 0)
(0.00359526 0.000807167 0)
(-0.00230455 0.0019852 0)
(-0.00123029 0.000459436 -6.36547e-22)
(0.00763346 -0.000699405 0)
(-0.026355 -0.00472191 0)
(-0.00512563 -0.0104072 -5.75931e-20)
(0.00480266 -0.000400166 1.44625e-19)
(0.009303 0.000576151 -8.43772e-20)
(-0.000992952 0.000259457 1.60855e-20)
(-0.00783167 -0.00955223 1.37987e-21)
(-0.00546152 0.0170713 -2.62905e-20)
(0.00133248 0.00179417 2.53954e-20)
(0.00308652 -0.03794 8.73454e-20)
(-0.000418435 0.000842552 -7.20079e-20)
(-0.000404414 -0.000132327 0)
(-0.00132868 -0.0136681 2.12193e-20)
(0.00443597 3.00367e-05 9.67381e-20)
(-0.00249828 0.000354639 1.2013e-19)
(-0.0127043 -0.0113449 1.24017e-20)
(-0.000206482 -0.00132565 2.46393e-20)
(-0.000258928 0.000549932 -7.44596e-21)
(-0.00468064 -0.00160661 0)
(-0.00246378 0.00280626 -8.20147e-21)
(-0.00021799 0.000264672 -6.118e-20)
(0.000174393 -0.000673044 -2.91434e-22)
(0.00157757 -0.000642673 0)
(-0.000171468 -0.000294223 0)
(-0.0017834 -0.00203832 -1.01876e-19)
(0.00419726 0.00234604 -2.65032e-20)
(-0.0353803 -0.00195929 -4.7715e-20)
(-0.00435349 0.0198338 1.36624e-18)
(0.000131211 -0.000678297 2.81018e-20)
(0.00295418 -0.00482987 -1.77967e-22)
(-0.00241857 0.0104666 0)
(-7.13444e-05 2.02818e-05 0)
(0.00823626 0.00108445 1.65154e-19)
(-0.00595883 -0.00182799 -1.04139e-20)
(0.00850123 0.00181475 7.1292e-20)
(-0.00202996 0.0083304 9.56722e-20)
(-0.0293189 -0.0123323 -1.68303e-19)
(0.000120117 -0.000261859 4.18671e-20)
(0.00134443 0.001951 -4.36232e-20)
(-0.00318278 0.0182598 0)
(-0.00278221 -0.0529268 -1.14263e-20)
(-2.37161e-05 -0.000414364 4.25802e-20)
(0.00258147 -0.00575092 3.71403e-20)
(0.00195689 -0.00183173 6.90057e-21)
(0.000310503 0.00110417 7.47684e-20)
(-0.00192179 0.00195336 -7.28406e-20)
(0.00342062 -0.00580195 0)
(-0.000122133 0.000268767 0)
(0.00923539 0.00057414 6.32023e-20)
(-0.000342622 -0.000318744 -1.14131e-19)
(3.80576e-05 -0.000287067 -8.08389e-21)
(0.00629515 -0.0014049 -4.59654e-20)
(-0.000230664 -0.00111977 -7.05165e-20)
(0.000322159 -0.00429337 2.61758e-20)
(-0.000228102 -5.11159e-05 -6.55335e-20)
(-2.27462e-05 1.50893e-05 4.08231e-20)
(-0.00166682 0.00536913 -9.73195e-20)
(-5.35695e-05 1.06737e-05 -4.753e-20)
(-0.000111739 -0.000112213 -2.4018e-20)
(0.000962738 0.150358 0)
(-0.00685346 -0.0137433 -4.52674e-20)
(0.00627682 0.00221295 4.61232e-20)
(-7.46224e-05 -0.000479959 -1.88425e-20)
(0.000265436 0.00212426 -6.6448e-21)
(-0.00456999 -0.000723666 0)
(0.00973107 0.000643311 6.19443e-20)
(-0.022561 0.0107392 -5.28136e-19)
(-0.000922542 0.00145114 0)
(-0.00117965 0.00019809 0)
(-9.83102e-05 -4.90449e-05 0)
(-0.000229487 0.000208018 -3.65265e-20)
(-0.000492784 0.000431893 -2.61338e-20)
(0.00131897 0.00589637 5.23538e-20)
(-0.026188 -0.0188336 0)
(-0.00112218 -0.00266683 -2.81258e-22)
(-0.0252335 -0.0182807 -9.98222e-20)
(-0.00286777 0.00585862 -2.3767e-20)
(-0.00133591 0.000423294 8.49731e-20)
(-0.000110611 -0.00014765 3.37165e-20)
(0.0101029 0.000957902 -1.4871e-20)
(0.00193268 0.00376436 -3.34441e-20)
(-0.00383437 -0.0106801 -5.80606e-22)
(-0.0391332 -0.0199713 -3.13286e-19)
(0.00112256 0.0029607 0)
(-0.000145152 -0.000228568 2.71914e-20)
(-0.00291502 0.00315412 0)
(0.00153067 -0.00204848 1.34089e-20)
(0.0242468 0.000662597 -1.37105e-20)
(0.00129373 0.00913862 0)
(-7.71327e-05 -1.4936e-05 0)
(-0.000783274 0.00153401 0)
(-0.00224849 -0.00847856 2.66401e-19)
(1.59711e-05 0.000147287 1.1892e-19)
(0.00276433 0.00320907 0)
(-8.14554e-05 2.60723e-05 4.87612e-20)
(0.00186114 -0.00839159 8.94877e-20)
(-0.00925191 0.0675289 0)
(0.00387711 -0.00395018 0)
(-0.00376433 -0.0265762 1.45932e-19)
(0.00430127 0.00192714 -3.07183e-21)
(0.0036415 -0.00450629 1.62199e-20)
(-0.0277303 -0.0182761 3.26339e-20)
(-0.00631019 0.00676239 -4.86312e-20)
(0.0038463 0.000686951 0)
(-9.91673e-06 -0.000436895 1.46695e-20)
(-0.00455819 0.00515199 8.63927e-20)
(0.0044913 0.00219034 -1.15687e-20)
(0.006258 -0.000789991 4.63625e-20)
(-0.0159526 -0.0183084 5.31903e-20)
(3.47617e-05 0.000186149 1.07851e-20)
(0.000100874 -0.00535728 1.32539e-18)
(-0.0096797 -0.00240043 -1.62232e-20)
(-0.00304513 0.0016044 1.32995e-19)
(-0.00198316 0.00237413 7.59038e-20)
(-0.00014571 -0.00125402 2.55302e-20)
(-0.000925689 -1.79818e-05 4.04183e-21)
(0.00420143 -0.00377663 7.86493e-20)
(0.00233062 -0.0177949 0)
(0.0092492 0.000727327 -2.00741e-20)
(-0.00545431 0.00188422 0)
(-0.0264501 -0.0191246 0)
(-0.0122267 0.0174138 0)
(-0.000244245 0.000118236 4.78536e-20)
(0.00830615 0.00130363 6.95783e-23)
(0.000752364 0.000341483 1.70488e-19)
(-0.0016198 0.0119987 2.08801e-19)
(-0.000190682 -0.000546108 0)
(-0.000156284 -0.000354684 0)
(-0.0134834 -0.0135231 -1.05889e-19)
(-0.000921968 0.000186411 6.90013e-20)
(-0.000177355 0.000152815 0)
(-0.00390396 -0.184061 1.63296e-19)
(-0.000714409 -0.00141786 0)
(-0.00485913 0.00304988 -3.95215e-20)
(-0.010964 -0.0101785 0)
(-0.0013741 -0.000615762 -1.09683e-19)
(0.00030847 -7.35065e-05 -1.89198e-21)
(-0.000445332 8.33626e-05 -1.04875e-19)
(-0.00221855 -0.00118396 -1.04135e-19)
(-0.000343835 -0.0453892 3.58556e-18)
(0.00151129 -0.0214439 1.0184e-19)
(0.00145974 -0.00640528 -5.78714e-20)
(-0.00171131 -0.000358767 -1.26844e-19)
(-0.0114789 -0.0126319 0)
(0.00034791 0.000617129 -1.88006e-20)
(-0.000852933 -0.00326161 1.86778e-19)
(-0.0265831 -0.0184796 0)
(-0.00159142 -0.00141194 3.9584e-20)
(-0.00879163 0.00477014 3.35231e-19)
(0.00885538 0.00159413 5.66615e-20)
(-0.0111619 0.0230577 -1.04447e-19)
(-0.000204454 0.000782662 7.67429e-20)
(-0.021302 0.0166621 5.83875e-19)
(-0.000579449 -0.000183045 0)
(0.00216888 -0.00198278 0)
(-0.000629907 -0.00106658 2.09794e-20)
(-0.00234513 0.000219344 1.64979e-19)
(-0.00831508 -0.00480227 -1.51982e-19)
(-0.0062702 -0.0578037 0)
(-0.000509433 0.000141168 1.20546e-19)
(-5.58955e-05 -0.000320469 0)
(0.00202206 0.00122642 1.4298e-20)
(0.0186557 0.155516 0)
(0.00934192 0.00106859 -4.0033e-20)
(-0.000202534 -0.00136625 3.98795e-21)
(-0.00256949 -0.000938219 6.47988e-20)
(-0.00168637 -0.00100997 -1.00088e-19)
(0.00751771 0.00140045 1.13978e-19)
(-0.0025975 0.0165089 0)
(-0.000624638 0.000271064 0)
(0.00806737 0.00148262 -1.6523e-20)
(-0.00901399 -0.00748927 0)
(-0.000994598 0.00287154 -4.58206e-20)
(-0.0178039 -0.01504 6.50726e-20)
(0.000659239 0.000221969 4.26739e-20)
(-0.0123561 0.0180663 6.99028e-20)
(0.00380759 -0.00372534 -1.03415e-19)
(-0.00460961 0.00294662 3.96252e-20)
(-8.01113e-05 0.000138108 0)
(-0.00286799 -0.00344534 -1.80112e-20)
(-0.00210261 -0.00527294 -1.09918e-19)
(-0.00424364 -0.0015417 0)
(-0.00195722 -0.0017839 4.25851e-20)
(0.00238154 -0.00538971 0)
(0.00619894 0.00210185 -5.20895e-20)
(-0.00738942 -1.06847e-05 -5.44527e-20)
(0.00856936 0.0010832 -1.93804e-20)
(-0.0032387 0.00758232 -7.19827e-20)
(5.1737e-05 -0.0001924 0)
(-0.00446481 -0.00107617 -4.4224e-20)
(0.00583862 0.00225428 4.32763e-20)
(0.00919258 0.00111943 0)
(-0.00585363 -0.00649906 3.81479e-20)
(-0.00179287 -0.00499922 4.19994e-19)
(-0.00168555 0.00877256 0)
(-0.000267157 -0.000344918 -1.23905e-20)
(-0.000840946 0.000152629 0)
(0.0269007 0.0666286 1.73714e-19)
(-0.000152342 -2.1192e-05 0)
(0.00654732 -0.00154179 6.08054e-20)
(0.00109152 0.00449899 -6.38234e-20)
(-0.00951668 0.0266569 0)
(-0.00021884 0.000124946 -1.43105e-22)
(-0.00254247 0.014619 4.51244e-20)
(-0.00275351 0.00257933 -6.12176e-20)
(-0.0181126 0.0688187 0)
(-0.0277311 -0.0179218 0)
(-0.00570476 -0.00159352 -9.82067e-21)
(-4.73326e-05 0.000219396 -2.36913e-20)
(-0.0136731 0.0124664 0)
(-0.0047174 -0.00688908 0)
(-0.0104403 -0.012856 0)
(-0.0226984 -0.0106545 -2.72374e-20)
(0.00263891 -0.00320751 -2.88541e-20)
(0.00477946 0.0009656 -1.28579e-19)
(-0.0027037 0.00323077 1.18938e-19)
(0.000108685 0.000170774 3.63668e-21)
(-0.000297891 -0.000765546 0)
(0.00794733 -0.00501834 0)
(-0.00399016 -0.0195564 -1.78863e-21)
(0.00297827 0.00747162 0)
(2.56861e-05 -0.000515056 -9.10384e-20)
(-0.0159102 -0.0141532 4.20975e-20)
(0.00294176 -0.00211481 0)
(0.000617829 -0.00308538 -3.59593e-20)
(-0.0019409 0.00106999 0)
(-0.00576817 -0.0166746 -2.95939e-20)
(0.00130111 -0.000726835 -1.26035e-20)
(-0.00385477 -0.0366256 0)
(0.00658534 -0.00100275 -4.89878e-20)
(-0.00104047 0.00489966 4.1451e-20)
(0.0073045 -0.0740001 -2.84193e-19)
(0.00449502 0.00100706 -4.74165e-20)
(5.84529e-05 -0.00211063 1.6237e-20)
(0.000791775 -0.00175231 -6.45875e-20)
(0.00813961 0.031927 -7.05771e-20)
(0.00891215 0.0280093 -3.37736e-20)
(0.00576679 0.0021351 4.77787e-20)
(-0.00268521 -0.000118076 -7.44153e-20)
(-0.000101748 0.000192757 9.35155e-21)
(-0.00258692 0.0054342 0)
(0.000179482 -0.00121601 0)
(-0.000738465 0.000845997 -2.01683e-20)
(-0.0119936 -0.017093 0)
(-0.000120124 0.000122966 1.06293e-19)
(5.11914e-05 -0.000530847 -6.63697e-20)
(0.00279197 0.00297076 7.15645e-20)
(0.00081748 0.00024346 2.6859e-20)
(-0.0011289 0.000494333 4.29651e-20)
(0.00446103 0.000956551 -9.7261e-21)
(-0.00649625 -0.00635488 4.33601e-19)
(-1.79981e-05 0.000257006 -5.35561e-20)
(-0.000932548 0.000202873 0)
(0.00149992 -0.00259114 1.47276e-20)
(0.00824123 -0.000526762 3.47071e-20)
(-0.0243529 -0.0180821 -1.39915e-20)
(0.00107396 -0.00642959 9.16847e-20)
(0.00262343 -0.0108651 4.44144e-20)
(-0.000586813 0.00372037 -8.68872e-20)
(-0.0161174 0.0151783 0)
(-0.00460809 -0.0440699 1.37672e-19)
(0.00947628 0.000567753 6.77792e-20)
(-0.00110195 -0.000381411 5.88649e-20)
(-0.00355562 0.0074469 5.88831e-20)
(-0.00927937 -0.00719897 0)
(0.0133937 -0.00377577 -8.527e-19)
(-0.0108582 -0.0131813 0)
(0.00146507 -0.000179276 0)
(-0.0133656 -0.0217829 -1.00617e-19)
(0.00012125 0.000865127 1.13131e-19)
(0.00030346 -0.000136903 0)
(-0.00819908 0.0207247 1.42157e-19)
(0.00220674 -0.00177409 0)
(-0.00141875 -9.71312e-05 -7.53348e-20)
(-0.0043864 -0.00129593 0)
(-0.00835814 -0.0194398 -1.15986e-19)
(-0.0119885 -0.00459606 1.51461e-19)
(-0.0141901 0.00425078 -1.34783e-20)
(-6.03572e-05 0.000818118 -7.62507e-21)
(-0.0001584 0.000395609 0)
(0.00502477 0.00359187 1.47218e-20)
(0.000142667 0.000525596 0)
(-0.00359423 0.00342042 1.07462e-19)
(-0.0002545 -0.000386074 6.78999e-20)
(0.00489177 0.00101299 1.3998e-19)
(-0.00883682 -0.0182303 0)
(-0.000600499 0.000380732 -3.32758e-21)
(0.000122796 1.09016e-05 -3.29089e-22)
(0.0004156 -0.00161287 -5.95785e-20)
(-7.1083e-05 0.000478912 0)
(-5.22237 2.30522 -1.43801e-18)
(0.000108825 -0.000131477 0)
(-0.00244173 0.00179561 1.16305e-19)
(0.00222646 0.0235313 0)
(-0.000308169 0.000195965 0)
(0.00575637 0.00189933 1.2514e-19)
(-0.000185827 0.000317417 3.14798e-20)
(-0.00241905 -0.000361221 1.34984e-19)
(0.000233283 -3.05398e-06 -4.24176e-20)
(-0.000577109 0.00361191 -1.76401e-20)
(-0.0062731 -0.000151776 -1.6514e-19)
(-0.000395076 -0.0019277 -9.04559e-20)
(-0.000594189 -0.000421344 -2.1789e-20)
(-0.000449455 0.000335179 1.81922e-20)
(-0.0188454 0.0234667 7.06538e-20)
(0.00199976 -0.00127442 -2.37524e-20)
(-0.0144264 -0.00211229 -2.22789e-20)
(-0.00026095 -0.000161419 0)
(-0.00547986 0.00447406 3.88952e-20)
(-0.00177544 0.0103717 2.56936e-20)
(-0.0138177 -0.0119742 0)
(0.00836259 -0.00022694 -4.03425e-20)
(-0.00287144 -0.00861502 3.81531e-20)
(-0.0181693 -0.0126768 0)
(-0.00111243 0.000374085 -8.24635e-20)
(-0.0188623 0.00284857 0)
(-0.00163602 0.00400059 3.30978e-20)
(-3.13578e-05 0.000280308 -2.42094e-20)
(0.00497835 -0.0070083 1.12677e-19)
(0.000472881 0.00181606 4.6007e-20)
(-0.0251267 0.0391732 5.84201e-20)
(0.541929 0.84104 5.3042e-20)
(-0.00121977 -0.000202242 6.25001e-20)
(-0.017398 -0.0126211 4.81489e-20)
(0.00850093 -0.000333673 -3.30533e-20)
(8.31562e-05 -0.00011827 -3.39106e-20)
(-0.115907 -0.435399 3.73469e-19)
(-0.00734845 0.0184028 -5.31412e-20)
(-0.0132005 0.0270684 9.33628e-21)
(-0.004642 0.00632073 3.66411e-19)
(0.000175006 -0.00111721 -5.30638e-20)
(-0.000261166 4.2645e-05 3.92803e-20)
(-0.00821507 -0.00823354 2.85498e-20)
(-0.00219791 -0.0184302 -3.15312e-19)
(0.00472383 0.00546699 7.82865e-20)
(-0.0149795 -0.00370873 2.48967e-20)
(-0.00272796 -0.00192579 1.4143e-21)
(0.000423949 -0.00012665 -7.3038e-20)
(0.000296565 -5.50653e-05 -7.52724e-21)
(0.00399331 -0.00286124 0)
(-0.00312004 -0.00403622 0)
(0.00818445 0.0019612 0)
(0.000115683 -8.67837e-05 -3.14973e-20)
(-0.0085734 -0.0182738 1.03674e-19)
(-0.000264575 0.000968416 -9.0733e-20)
(0.000111815 -9.58651e-05 -2.51254e-21)
(-0.00487698 -0.00130817 -1.05338e-20)
(-1.71807e-05 -3.24339e-05 4.86242e-20)
(-0.00581799 -0.00124198 -3.43491e-20)
(0.0010281 -0.0154139 -8.73055e-20)
(-0.00283626 0.0060008 -2.42283e-20)
(-0.000709239 -0.00186506 8.01797e-20)
(-0.00106035 0.00331439 -4.78797e-20)
(0.00179832 -0.00148656 -1.57816e-19)
(-0.00522248 0.0126608 -2.71838e-19)
(-0.000982807 0.000216831 0)
(-0.0133148 -0.0143775 7.41789e-21)
(-0.00166469 -0.000378159 2.60087e-20)
(-0.000137649 -0.00552356 2.08054e-19)
(-0.00510675 -0.00858819 -1.25531e-20)
(0.000119789 0.000420473 0)
(-0.00207136 -0.0119397 5.09196e-20)
(0.0158404 -0.0280597 -2.50961e-19)
(0.00669623 0.00332692 0)
(0.006517 -0.00198951 0)
(0.00251551 0.000548401 -1.89378e-20)
(-0.00976037 -0.0167106 0)
(-0.0134837 -0.0109232 -1.36759e-19)
(-0.00429182 0.0156127 0)
(-0.000180878 0.00241648 0)
(-0.00276102 0.0239989 -4.88629e-20)
(-0.00964045 -0.00769116 -2.63357e-20)
(-3.24454e-05 -0.000685873 0)
(-0.0017346 -0.000400091 9.36655e-21)
(-0.0186458 -0.0119526 4.72812e-19)
(0.000309082 -0.00206431 0)
(-0.000366351 -0.0150786 1.12543e-19)
(-0.00340341 0.00346315 -1.27753e-19)
(-9.25205e-05 1.67665e-05 1.14085e-19)
(-0.00104316 -0.015056 0)
(0.00883206 0.00156464 2.24487e-20)
(-0.00172428 -0.000931449 -1.35048e-19)
(0.000985406 0.000223549 0)
(0.000307705 -0.000280209 -2.73223e-20)
(-0.0165022 -0.0113518 2.46328e-19)
(0.000355616 -0.00112223 0)
(0.00191866 -0.00916204 -1.46767e-20)
(-0.000184946 -0.00043773 6.93612e-20)
(0.0830464 0.0367689 2.4386e-19)
(-8.90994e-05 0.00364187 1.62845e-20)
(-0.000141109 8.44099e-05 -5.00722e-20)
(-0.842247 0.0703487 5.83703e-19)
(-0.000103739 -7.2436e-05 7.96227e-20)
(2.97353e-05 0.000188581 0)
(0.0226014 0.0487692 -1.08364e-19)
(-0.000547713 0.00021637 0)
(-0.00339567 0.0012508 -1.18868e-19)
(-0.000396416 0.00057145 5.82817e-20)
(-0.0255718 -0.0179621 -1.41926e-20)
(0.0104567 -0.00154823 -5.255e-20)
(-0.104482 -0.0389038 5.65613e-19)
(-0.000142544 -0.000711885 9.66037e-20)
(3.08346e-05 0.00156804 -3.41482e-20)
(0.000228781 -0.000149541 0)
(-0.000811713 -0.00119951 -1.30131e-19)
(0.00203107 -0.0095599 3.64626e-20)
(-0.000487241 -0.000739051 1.40046e-19)
(-0.03407 -0.013602 2.07864e-19)
(-0.00352544 0.00399873 8.14482e-20)
(-0.0106552 0.00899631 0)
(-0.00360555 0.00873984 0)
(-0.0027868 -0.00129031 0)
(0.00011564 1.27094e-05 3.80224e-20)
(-0.00469087 -0.000690859 1.2373e-20)
(-0.000102143 -1.64405e-05 5.20642e-20)
(-0.0133586 -0.0465842 0)
(0.00484488 -0.0115971 3.25362e-18)
(-0.00411135 0.0250022 0)
(0.0100996 0.000926411 1.32177e-19)
(0.0139892 -0.0572689 1.17813e-19)
(0.00867299 -0.01173 5.89149e-20)
(0.00296974 -0.00324693 4.28432e-20)
(-0.01501 -0.0190233 -1.57343e-19)
(0.00321731 0.000420558 4.65605e-20)
(-0.0132954 0.0211528 1.85553e-19)
(0.00012462 -0.000247059 4.47368e-20)
(-0.000101892 0.000471983 9.08846e-20)
(-9.7767e-05 0.00103195 -4.39677e-20)
(0.000449233 -0.00584516 -9.26132e-22)
(-0.00361414 0.000767729 0)
(-0.00169296 0.0106205 -6.02912e-20)
(-0.00350411 -0.00307935 1.17839e-19)
(-0.0056404 0.0304059 2.54919e-20)
(0.00380436 0.00148123 0)
(0.000105217 -0.000188678 1.02938e-19)
(0.000429081 0.00391321 0)
(-0.0221662 0.00152185 -2.91027e-19)
(-0.000733972 -0.00260246 0)
(0.00840575 -0.00261094 4.77213e-21)
(-0.0120435 0.0275675 -7.49129e-19)
(-0.000157799 0.00340439 4.90253e-20)
(-1.77333 0.458891 0)
(-0.000216019 -0.000169597 0)
(-3.15147e-05 0.000247197 -7.56613e-21)
(-0.00312514 0.00444633 6.85317e-20)
(-0.00215742 0.000569847 -2.00393e-20)
(-0.00252475 -0.00169388 -5.96538e-21)
(0.0344678 0.0574873 4.04702e-19)
(-0.000306757 0.000735429 0)
(0.00932816 0.000680629 1.1164e-20)
(-0.0185749 -0.0623619 0)
(-0.000770875 0.00241793 5.50656e-20)
(-0.00195975 0.00733806 0)
(-4.86309e-05 6.79241e-06 -3.08488e-20)
(-0.000450398 0.00103402 6.02677e-20)
(-0.00102336 -0.0103161 1.81252e-20)
(-2.03874e-05 0.000127157 -3.49148e-20)
(1.59871e-05 -0.000439967 2.05737e-20)
(-0.00222042 -0.0026525 2.77231e-20)
(-0.10939 -0.0606523 -3.34063e-19)
(-0.00209867 0.000502486 0)
(-0.00266772 0.00378449 -1.13726e-19)
(-0.0165695 -0.021576 1.03227e-19)
(-0.0119633 -0.0869601 7.35006e-20)
(-0.00423665 0.00449988 0)
(-0.000598014 -1.12767e-05 1.59045e-20)
(-0.00310549 0.00375793 -1.56962e-19)
(-0.000458942 0.000374816 2.74687e-20)
(-4.41212e-06 0.000899939 2.78426e-20)
(-0.0286148 -0.0187754 1.20368e-20)
(-0.00174654 0.00963243 7.26317e-20)
(-0.00119505 0.00038485 -2.27201e-20)
(-0.000217164 -6.13045e-05 0)
(0.00100187 -0.00203537 3.94266e-20)
(-0.000102477 0.000125869 1.23842e-20)
(0.0563464 0.0999203 0)
(0.00379161 0.00226893 -5.05265e-20)
(-1.84795e-05 0.000153264 -2.96196e-20)
(0.0028881 0.000374932 -5.16103e-20)
(0.000383118 -0.000663142 0)
(0.000975538 -0.0211909 0)
(-0.0739825 -0.0885012 4.04884e-21)
(0.00267226 0.00395024 6.03261e-22)
(-0.0019136 -0.0117033 -1.01433e-19)
(-0.00151229 -0.0080125 -6.3243e-20)
(-0.0373711 -0.00377219 0)
(0.00881382 0.000418013 4.46817e-20)
(0.0779955 -0.101299 0)
(-0.000211127 0.000157175 1.77715e-20)
(0.0121254 0.010114 2.1337e-19)
(-0.000625673 0.000639952 1.01984e-19)
(-0.000565042 0.000574502 -8.84738e-20)
(-0.026454 -0.0183481 -1.11064e-20)
(-0.0038264 -0.00343093 -1.63883e-19)
(-0.0162063 -0.0847764 6.19634e-19)
(-0.0129486 -0.0117837 -3.46483e-20)
(0.00382074 0.0037582 5.4771e-20)
(-0.0034815 -0.00651736 1.34654e-20)
(-0.00405715 0.00939024 -1.35047e-19)
(-0.0078327 0.0483884 0)
(-0.000242617 -0.000223458 3.44532e-20)
(-0.00619472 -0.00448969 -8.91638e-20)
(-0.000272535 0.000197651 1.19047e-20)
(0.00903151 0.0107512 2.32017e-19)
(0.00136494 -0.0149158 -7.89645e-20)
(-0.00509862 0.00446661 4.33463e-20)
(-0.000148156 8.1902e-05 1.67956e-20)
(0.000283247 -0.00112961 0)
(-0.00301501 0.00678187 2.11046e-20)
(0.00261763 -0.000795515 -1.11353e-19)
(-0.00164124 0.00864417 -1.52544e-20)
(-0.00734436 0.00313988 -9.39407e-20)
(-0.00839262 -1.67175e-05 2.0104e-19)
(0.00845982 -0.000343221 4.68339e-20)
(0.00893487 0.000509683 0)
(-0.000204388 -0.00241419 -1.15701e-19)
(0.00226681 0.00376913 -1.50657e-22)
(-9.80149e-05 2.45616e-05 1.25687e-20)
(-0.00147654 -0.00376799 0)
(0.000254951 0.00760381 7.73955e-20)
(0.0114195 -0.0304849 0)
(-0.000573381 -1.15875e-05 0)
(-0.000127914 2.58452e-05 -7.58108e-21)
(0.000377881 0.00165321 0)
(-0.0101344 -0.0217089 0)
(-0.00181825 0.00257345 7.48233e-20)
(0.00861734 0.000448438 4.64756e-20)
(-0.00150514 -0.016858 1.05302e-19)
(-0.000808015 -0.00796967 3.60385e-20)
(0.000162697 -0.00614142 3.28267e-20)
(0.00714332 -0.0122973 4.31325e-19)
(-0.000202393 0.00134309 -1.72934e-20)
(-0.000503292 -0.00267665 2.37457e-20)
(0.00140136 -0.00273197 -3.43463e-20)
(-0.00645511 0.0142108 -7.57554e-20)
(0.00045211 -0.00328587 0)
(1.63309e-05 0.00247883 5.39315e-22)
(0.00747742 -0.00992712 -2.73606e-19)
(-0.00138536 -0.00609433 -9.71267e-20)
(-0.00539624 0.000635959 5.38917e-20)
(-0.000122691 -3.52413e-05 3.90465e-22)
(-0.000827913 0.00266784 -7.8555e-21)
(-0.00251398 0.00420738 0)
(0.00588534 -0.000483165 0)
(0.00423347 0.00168212 0)