/*--------------------------------*- C++ -*----------------------------------*\
| =========                 |                                                 |
| \\      /  F ield         | OpenFOAM: The Open Source CFD Toolbox           |
|  \\    /   O peration     | Version:  v2012                                 |
|   \\  /    A nd           | Website:  www.openfoam.com                      |
|    \\/     M anipulation  |                                                 |
\*---------------------------------------------------------------------------*/
FoamFile
{
    version     2.0;
    format      ascii;
    class       surfaceScalarField;
    location    "50";
    object      phi;
}
// * * * * * * * * * * * * * * * * * * * * * * * * * * * * * * * * * * * * * //

dimensions      [0 3 -1 0 0 0 0];
oriented        oriented;


internalField   nonuniform List<scalar> 
21222
(
0.0374003
-0.0717047
0.0343044
0.013418
-0.00194283
-0.0114752
-0.232024
0.212422
0.0196017
0.197277
-0.100978
-0.0962989
0.0453223
-0.125114
0.079792
0.313605
-0.275972
-0.0376326
0.00609612
-0.00140346
-0.00469266
0.0363952
0.127141
-0.163536
0.0787512
0.106067
-0.184818
-0.0201548
-0.262864
0.283019
-0.0985599
0.0487337
0.0498263
0.018573
-0.0109594
-0.00761352
0.044085
-0.00668474
0.437466
-0.588358
0.150892
-0.0139775
0.0153384
-0.0013609
-0.0246855
0.530524
-0.505838
-0.156328
0.192724
-0.331693
-0.0920987
0.423792
-0.134188
0.189917
-0.0557295
-0.18585
0.0516621
0.341939
0.0944817
-0.436421
-0.00676584
0.00415647
0.00260937
-0.160555
0.199239
-0.0386836
0.00859342
0.00997954
-0.0881299
0.148128
-0.0599981
0.0129253
0.000492784
0.385492
-0.454411
0.0689186
0.00625127
-0.000155146
-0.0962333
-0.01246
0.108693
0.155956
-0.188521
0.0325646
0.268123
-0.272829
0.00470585
-0.0827016
-0.323752
0.406454
0.548316
-0.396207
-0.15211
-0.0409103
0.0105555
0.0303547
0.00692984
-0.00787715
0.000947302
0.00942645
-0.00759103
-0.00183542
0.0386278
-0.0189829
-0.0196449
0.0358976
-0.180039
0.144142
-0.0872194
0.140938
-0.0537186
-0.10583
-0.00608586
0.111916
-0.0180518
0.0180518
-0.00733969
0.0110345
-0.00369485
-0.0814134
0.244929
-0.163515
-0.578258
-0.0102679
0.588525
-0.196145
-0.0352151
0.23136
0.0536631
-0.141793
-0.0993244
0.0398233
0.0595011
-0.0134846
-0.000175247
0.0136598
-0.0135109
2.6351e-05
0.20398
-0.535672
-0.0101952
0.0125314
-0.00233618
0.104035
0.0932421
-0.000890063
0.0149627
-0.0140726
0.0170803
-0.0105718
-0.00650858
0.19675
0.0933883
-0.290139
0.00745062
0.00197583
0.0282352
-0.0318956
0.00366042
-0.177827
0.0149991
0.162828
0.466121
-0.158833
-0.307288
0.0265922
-0.258616
-0.0485828
0.155587
-0.107004
0.0368571
-0.0457763
0.00891923
-0.00989159
0.00627118
0.00362041
-0.279834
-0.185986
0.46582
0.0475639
0.108163
-0.155727
0.0301417
0.011364
-0.0415057
-0.0341588
0.0501565
-0.0159978
-0.513245
0.0653888
0.447856
-0.476604
0.19677
0.281937
-0.0851868
0.00838601
0.00869434
0.0429337
-0.181371
0.138437
0.00648769
0.000442153
-0.00290517
-0.00254289
0.00544806
-0.241469
-0.121085
0.362554
0.00254915
-0.00152259
-0.00102656
0.0100848
0.20026
-0.210345
0.0201312
-0.0153482
-0.00478307
-0.228915
0.03277
-0.0796042
-0.386648
0.312716
-0.523347
0.210631
0.00114145
0.00208132
0.194502
-0.151569
0.0140664
0.00606486
0.31302
-0.423684
0.110664
-0.390456
0.115115
0.275341
0.00861265
-0.0060635
-0.018474
0.0199809
-0.00150692
-0.0156161
0.00163869
-0.0343942
-0.0641657
0.194778
-0.240973
0.0461949
-0.131735
0.0892196
0.0425152
0.504193
-0.191477
0.105552
0.232117
-0.337668
-0.0164975
0.0176972
-0.00119976
0.0161621
-0.0150961
-0.00106601
-0.244693
0.16328
-0.011405
0.0133232
-0.00191819
0.00121495
0.00818909
-0.00940404
0.0862955
-0.04717
-0.0391255
0.0284505
-0.541695
-0.013042
0.0133493
-0.000307239
-0.00244098
0.269281
0.258016
-0.527296
0.0454588
0.0408366
-0.142761
0.0555414
-0.0091073
-0.00085532
0.00996262
-0.0129946
0.0143292
-0.00133465
0.226847
-0.243736
0.0168888
-0.152834
-0.0244388
0.177273
0.000836106
0.015326
-0.0577179
0.262774
-0.205056
-0.00980701
0.00069971
-0.286976
-0.096787
0.383763
-0.267163
0.393085
-0.125922
-0.0214293
3.35495e-05
0.0213958
-0.447469
0.160493
-0.0143519
0.0151658
-0.000813903
0.0079149
-0.00925084
0.00133594
0.0211805
-0.0211805
0.153319
-0.100887
-0.0524315
0.227435
-0.273916
0.0464812
-0.536389
0.116472
0.419917
-0.0151411
0.0177684
-0.00262722
-0.113091
0.0168581
-0.573598
-0.00465912
0.0159775
-0.0437641
0.0277866
-0.139491
0.519392
-0.379901
0.115089
0.286255
-0.401344
-0.0611546
-0.0705802
0.0170758
-0.0146512
-0.00242462
-0.00153888
0.00469511
-0.00315623
-0.0798955
0.070393
0.00950246
-0.0129148
0.0165084
-0.00359362
0.000892992
0.155063
0.134113
0.23913
-0.373243
0.176817
-0.29819
0.121373
-0.0144746
0.0150188
-0.000544157
-0.373094
0.00153856
0.371556
-0.352399
0.11093
-0.0157295
0.00125485
-0.0148107
0.0176788
-0.00286807
-0.22412
0.166402
-0.0122848
0.000879755
-0.181828
0.0289939
0.017228
-0.0135241
-0.00370388
-0.143581
-0.0125085
0.15609
0.0381297
-0.0603066
0.0221769
-0.216362
-0.0337628
0.250125
-0.106598
0.0254579
0.0811406
-0.0244652
-0.212795
0.23726
-0.0132237
0.0132237
-0.327168
0.258199
0.0689688
-0.289556
0.0731944
0.117714
-0.0723915
-0.0155333
0.0011814
0.174224
0.0629076
-0.237132
0.371879
-0.396565
0.248941
0.0646639
-0.0140714
0.000869036
0.0132024
0.243373
0.222747
-0.011688
0.00149276
0.0534525
-0.0429266
-0.0105259
-0.0159613
0.0168625
-0.000901188
-0.0497645
-0.181592
0.231356
-0.0130149
2.02708e-05
-0.0174083
0.0209382
-0.00352989
-0.0122608
0.088121
-0.0758602
0.00348826
-0.00639343
0.00481452
-0.00635341
-0.077743
0.0581676
0.0195754
-0.597456
0.589541
0.00791535
-0.0179298
-0.000544123
0.245697
-0.265852
-0.261669
0.218542
0.0431263
0.0274178
0.01121
-0.424726
-0.0616564
0.486382
-0.00805375
0.00508203
0.00297172
0.00108978
0.000109031
-0.00119881
0.0163577
0.000718147
0.0826856
0.0437099
-0.126395
0.235501
-0.225416
-0.0946032
-0.441786
0.111273
-0.00580864
-0.105464
-0.215836
0.224956
-0.00911914
-0.122546
0.176058
-0.0535119
0.020758
-0.126588
-0.00841627
-0.136113
0.144529
-0.00688218
0.00597376
0.000908416
0.0898017
0.0162397
-0.106041
-0.205279
0.0447239
-0.0367535
-0.0648615
0.101615
-0.0131526
0.0162289
-0.00307636
-0.0149899
0.0076502
-0.208536
0.478035
-0.269499
0.00161058
-0.00903853
0.00742795
-0.142225
0.0936417
0.187803
0.19256
-0.380363
-0.271625
0.425978
-0.154353
0.0794987
-0.0605595
-0.0189392
0.0187531
-0.0171548
-0.0015983
0.20733
-0.232088
0.0247583
-0.0184304
0.00246909
0.00272547
-0.015878
0.259801
-0.382152
0.122351
0.17722
-0.172427
-0.00479332
-0.11754
0.165104
-0.0465982
0.211147
-0.164549
0.618563
-0.387012
-0.231551
0.013689
-0.0170577
0.0033687
0.147476
-0.162147
0.0146712
-0.452756
0.341567
0.111189
-0.0176701
0.00285935
-0.195363
0.154068
0.0412945
0.00130013
0.00913413
-0.0104343
0.00804227
-0.00926409
0.00122182
0.0194259
-0.0240029
0.00457704
0.00922107
-0.00800612
0.0107107
-0.0094106
0.0256408
-0.17337
0.147729
-0.0492474
0.256577
0.218964
0.007883
-0.00546873
0.183201
-0.177732
0.0172434
-0.190088
0.172844
0.0434156
-0.00655851
-0.236063
0.284243
-0.0481797
-0.59132
0.59132
0.113727
-0.00245436
-0.000394486
-0.00978543
-0.0153251
0.0251105
-0.0657036
-0.525617
0.210092
-0.259856
-0.00127318
-0.105325
-0.137748
-0.5
0.637748
0.172289
-0.00535091
0.0487377
-0.0433868
0.19842
-0.234694
0.0362737
0.157678
-0.204276
0.00646942
-0.00719486
0.000725438
0.00950432
-3.55184e-05
-0.0094688
-0.247181
0.352732
0.208652
-0.253672
0.0450206
-0.0443445
0.0339432
0.0104013
-0.0180136
-8.12754e-05
0.0180948
-0.0501126
-0.048113
0.0982255
-0.0710704
0.0588096
0.0192747
0.00529674
-0.0245715
-0.603433
0.14007
0.463364
0.00894216
0.000562162
0.121322
-0.0239525
-0.0973691
0.397913
-0.437331
0.0394185
0.385753
6.34065e-05
0.0016607
-0.0017241
-0.0167702
-0.00311396
0.0198842
0.180741
0.0517747
-0.232515
-0.000384485
-0.00142284
0.00180733
-0.165484
0.243338
-0.077854
0.00216539
0.175055
-0.00963047
0.000206234
0.00942423
-0.18795
-0.00372372
-0.0569521
-0.0229434
0.269228
-0.0417923
-0.0166091
0.001468
0.0781875
0.0431341
0.0832555
-0.0765646
-0.00669085
-0.231698
0.0662139
-0.0235672
0.119942
-0.0963745
-0.0400378
0.248689
-0.0453264
-0.345129
-0.01259
0.013979
-0.001389
0.0126003
6.34971e-05
-0.0126638
0.308337
-0.269532
-0.0388049
-0.0188542
0.108656
-0.0195062
-0.00192315
-0.139687
0.197721
-0.0580349
-0.0144787
0.0202794
-0.00580066
0.00551659
0.0156639
-0.0304946
0.0115402
-0.00010376
-0.0114364
0.0930738
0.0376094
-0.130683
0.238604
0.0295188
-0.153071
0.322998
-0.169927
0.00955346
-0.00974657
0.000193112
0.00117105
0.11462
-0.381783
-0.0144584
-0.00140861
0.0158671
-0.00178257
0.00832766
-0.00928189
0.000954229
-0.01695
0.0040352
-0.00526986
0.000929802
-0.0335235
-0.228145
-0.00126057
0.00832798
-0.00706741
0.0127436
-0.015929
0.00318533
0.0105077
0.00103247
-0.044976
0.153139
-0.0518578
0.206297
-0.154439
-0.0139232
0.000908359
-0.0108843
-0.184479
-0.376174
0.306599
0.0695752
-0.4574
0.185775
0.236817
-0.0420385
0.00692786
-0.00818843
-0.0116144
0.0497441
-0.000615375
0.00753214
-0.00691676
0.0753069
-0.197853
-0.0470245
0.360045
0.0183695
-0.0149653
-0.00340423
-0.00168381
-0.350496
-0.18603
0.536526
-0.151848
0.386822
-0.234975
0.00195366
0.00173291
-0.00368657
0.077227
0.350882
-0.428109
0.00984394
-0.00180168
-0.0139834
0.0145861
-0.000602741
-0.0700158
-0.0620497
0.132066
-0.107041
0.0986248
0.403191
-0.288102
-0.191516
-0.0401822
-0.342827
0.137751
0.205075
-0.0209849
-0.576471
0.00225562
0.136806
-0.117347
-0.0194599
0.0148542
-0.00116523
0.0558513
-0.250195
0.194344
-0.096802
0.0560313
0.0407708
0.215988
-0.424523
-0.0127997
-0.00112352
-0.109422
-0.0333392
0.0451045
0.246065
0.0264818
-0.217997
-0.0185431
0.0184076
0.000135517
-0.692038
0.500291
0.191747
-0.00140773
0.00719493
-0.00558435
-0.518743
0.237313
0.28143
0.0155834
-0.00283976
-0.00301655
0.00307996
0.00148632
0.00101708
-0.0025034
-0.00595859
0.00522286
0.000735729
-0.234993
0.422797
0.0478024
-0.0656157
0.0178133
-0.221731
0.572591
-0.35086
0.016357
-0.61979
0.0035947
-0.0323771
0.0287824
0.0689132
-0.528748
0.459835
-0.409948
-0.0273831
0.0616367
0.00396048
-0.0655972
0.0134866
-0.157068
0.0147504
-0.0139674
-0.000782989
0.449781
-0.633777
0.183997
-0.0501089
0.226926
-0.0179785
0.0121224
0.00585614
-0.0174865
0.0186634
-0.00117695
-0.0362919
0.0358882
0.000403772
-0.398584
0.156077
0.242507
0.403863
-0.144062
0.356491
0.240523
-0.315297
0.499715
-0.184419
-0.012031
-0.000559083
-0.0168338
-0.0824905
0.085725
-0.00246951
-0.0125042
-0.0809326
0.00436791
0.0199886
-0.0258767
0.00588808
-0.00147935
-0.508456
0.368965
-0.0178486
-0.00016502
-0.000119281
0.00967274
-0.228099
-0.0447302
-0.0742407
0.153874
-0.0796334
-0.0201262
-0.307041
0.429413
0.188816
-0.618229
-0.0205766
0.00609786
-0.0169219
-0.0016212
0.123944
-0.147511
-0.10012
-0.242706
-0.336921
-0.181822
-0.174272
-0.224311
-0.00550819
-0.00452878
0.010037
0.00971078
-0.0133308
0.00362003
0.0434999
0.151002
-0.441207
0.510121
-0.0166463
-0.0610967
-0.0847992
-0.0350591
0.119858
0.0019508
-0.00199891
4.81103e-05
-0.166386
0.160917
-0.0012957
0.000911215
0.000634115
0.00131669
-0.0906451
0.116648
-0.026003
-0.368022
0.18643
0.00240403
0.00314702
-0.0375255
-0.00338471
0.00109184
-0.0150752
-0.00555095
0.00498991
0.000561038
0.0935485
-0.156797
0.0632488
0.0169341
0.432847
-0.151165
-0.0925713
0.0105801
0.00289437
-0.23027
0.160939
-0.0643866
-0.0965526
-0.115584
-0.29168
0.407264
-0.00163733
-0.0114047
0.00139351
-0.000759398
0.168963
-0.170824
0.00186044
-0.0133597
-0.00196236
0.0153221
0.109099
0.0277075
0.00158739
0.0841376
-0.0216847
0.00396075
0.0177239
-0.220221
0.450786
-0.230565
0.00926023
0.000933088
-0.0101933
-0.0137064
0.0128163
0.114196
-0.166054
-0.19312
0.459246
-0.266126
-0.408643
0.48587
-0.149193
0.136685
0.0102548
-0.0103807
0.000125887
0.118455
-0.468952
0.05597
-0.106083
0.243714
0.0646233
0.0110044
-0.00767365
-0.00333078
0.0315559
-0.140977
0.0627612
0.098178
-0.500507
-0.191531
-0.0124657
0.000180903
-0.00134919
-0.129773
0.172592
-0.0428185
0.189722
-0.227994
0.0382724
0.0343474
-0.26169
0.0111136
-0.0105645
-0.000549047
0.00094735
0.446347
-0.144101
0.222852
-0.11882
0.028175
-0.297056
0.16377
0.133286
-0.137045
0.190015
-0.0529706
0.0158342
-0.0151532
-0.000681021
0.131986
-0.0418041
-0.090182
-0.312977
-0.0631971
-0.0290692
0.012299
0.236826
0.183243
-0.420069
-0.0132135
0.0171491
-0.0039356
-0.134665
0.181476
-0.145578
0.0164793
0.137256
-0.153735
0.0383932
-0.123192
-0.0120649
-0.000400814
0.509946
-0.317253
-0.192693
-0.206749
0.223992
0.0657437
-0.00410701
0.0123538
-0.0165713
0.0042175
-0.183113
-0.275608
0.458721
0.20703
-0.226281
0.0192509
-0.251337
0.0982656
0.0167581
-0.00178981
-0.0149683
-0.0542727
0.101182
-0.0469089
-0.0114328
0.0117706
-0.000337737
-0.000760755
0.010021
-0.160363
-0.0214653
-0.352501
0.276634
0.0758668
-0.00151587
0.027535
-0.0260191
-0.013032
-0.00258417
-0.18533
0.0482856
3.04145e-05
0.0013631
-0.0190798
0.0695939
-0.0505141
0.0133089
-0.00359813
-0.179966
0.0196034
-0.0190909
0.226121
0.0037183
-0.0316082
0.262996
-0.231388
-0.136852
0.184456
-0.0476037
0.0152256
-0.000475249
0.177418
-0.216757
0.0393384
-0.0170508
-0.000103948
-0.233613
0.128758
0.104855
0.563506
-0.409753
-0.153753
-0.305796
0.243511
0.062285
0.0162073
-0.000981649
-0.00531625
0.182216
-0.017658
-0.164558
0.00545277
2.47736e-05
-0.00547754
0.0373139
-0.174166
0.0136486
-0.0158758
0.00222715
-0.0012377
0.0114925
-0.0747959
0.157481
0.645459
-0.278583
-0.366876
-0.00599485
3.62554e-05
0.0657696
-0.202917
0.137148
0.180632
-0.154991
0.212037
-0.432258
-0.118241
0.0639681
0.0171123
-0.257175
0.240063
-0.13132
0.0613038
-0.158323
0.164026
-0.00570285
0.00388241
0.0133456
0.442911
0.127122
-0.570033
-0.0539789
0.198712
-0.144733
0.000952816
0.00449995
-0.012167
-0.00356247
0.0513675
-0.000576243
-0.00846228
0.0162047
-0.0175791
0.0013744
-0.00127784
0.21137
0.528781
0.193301
-0.386421
-0.00667077
0.00445524
0.00221553
-0.161601
0.0275505
0.134051
-0.00489877
-0.134788
0.287607
0.0186234
-0.0201392
0.0665038
-0.329368
-0.210061
0.303324
-0.0932628
0.195434
0.116194
-0.311628
-0.00346349
0.00370487
-0.00175122
0.109548
-0.067131
-0.0424172
-0.000328084
0.0497861
-0.0461914
-0.199234
0.116414
0.0828201
0.0158257
0.000379083
-0.21397
-0.0830855
0.299685
-0.135915
-0.104334
-0.00875737
0.0450245
-0.110872
0.0658478
0.00111118
-0.0339814
0.279678
0.00586751
0.437043
0.160292
-0.187248
0.0269564
0.0255272
-0.398622
-0.057286
0.294112
0.0306614
0.151554
0.136177
0.330104
-0.466281
-0.121119
0.445167
-0.324048
0.0807199
-0.10659
0.02587
0.00213384
0.247608
-0.0668669
-0.00260472
-0.12826
0.168634
-0.0403739
-0.618645
0.450734
0.167911
0.000877254
-0.293607
0.0796368
0.0153026
-0.0143642
-0.000938378
0.111455
-0.124111
0.0126559
-0.303277
0.0932155
0.173162
-0.215741
0.0425789
-0.279358
0.243152
0.0362058
-0.0861996
0.151287
-0.0650871
-0.168445
0.0386716
-0.0177323
0.00024579
0.166277
0.137047
0.245772
-0.24705
-0.00147111
-0.00417258
0.00564369
-0.0140324
0.00852425
0.00360355
-0.0157705
-0.0577598
0.0885982
-0.0308384
-0.10818
0.00384616
0.0775785
-0.334763
0.257184
-0.335714
0.259958
0.0757556
0.201178
0.00519411
0.00664698
-0.00725114
0.000604162
-0.0176667
0.00270146
-0.116827
-0.0447736
0.144525
-0.0514511
-0.125214
0.167835
-0.0426206
0.0336012
0.351891
-0.345384
-0.273261
-0.24
0.216413
0.0235873
-0.226873
0.326192
-0.0993181
0.0273774
0.0152407
-0.0426182
-0.142194
0.523111
-0.380917
-0.00153581
-0.0160433
0.162013
-0.17216
0.0101477
-0.0114561
0.0124421
-0.000985953
-0.584361
0.584361
-0.214656
0.190707
0.0239487
0.29128
-0.373981
0.0374413
0.0160352
-0.0534764
-0.120156
0.557622
-0.0215692
0.0170063
0.00456294
-0.0528487
0.143251
-0.0904023
-0.305035
-0.149376
-0.0964809
0.0604331
0.0360478
-0.501327
-0.242655
-0.036703
0.509949
-0.555269
0.0453199
-0.216542
0.156617
-0.130792
-0.0258252
-0.281426
0.246321
0.0351052
0.016116
-0.00246734
0.444988
-0.350506
-0.157764
0.0715641
0.158797
-0.190798
0.0320016
0.151108
-0.159065
0.00795661
0.32663
0.173085
-0.0402619
0.0508175
-0.143867
0.0157428
0.128124
0.0119849
-0.0170088
0.0152783
0.00173049
0.0201921
-0.222446
0.202254
-0.0584573
0.0946129
-0.0361555
0.00837299
-0.00960674
0.00123375
-0.00804067
-0.00174476
0.30879
-0.142513
-0.410591
0.537713
0.00531677
0.00187815
0.220282
-0.319704
0.099422
0.158812
0.027294
-0.186106
0.0450514
-0.0197625
-0.0252889
-0.0182516
0.000843302
0.140602
0.00784692
-0.148449
-0.0149659
0.0144917
0.000474175
-0.19539
-0.392968
-0.0217894
-0.0413119
0.0631013
0.095298
-0.15693
0.0616324
-0.00665544
-0.0375484
-0.00696151
0.0445099
-0.482598
0.299485
0.13776
-0.48873
0.350969
0.151291
0.0107216
-0.0233477
0.242294
-0.276275
-0.156053
0.0308387
-0.0136787
0.0175243
-0.00384555
0.126061
-0.422427
0.474314
-0.159267
-0.315047
0.00147402
-0.000972943
-0.000501072
0.0138447
-0.051393
-0.0135005
0.0145878
-0.00108722
-0.16788
0.496882
-0.329001
-0.101385
0.16526
-0.0638743
-0.42184
0.0850308
0.336809
0.282985
0.265331
-0.0137843
0.121204
-0.531795
0.00487323
-0.0183974
-0.0449722
-0.00611164
0.0261003
0.141278
-0.376272
-0.266429
-0.0364588
0.302888
0.207077
-0.0339146
0.241686
-0.185834
0.0111756
-0.0110468
-0.000128785
-0.0014981
-0.0164874
0.0179855
-0.0157157
-0.00253596
-0.240142
0.215677
0.194279
-0.221191
0.0269117
0.350032
0.240515
-0.590547
-0.2669
0.0388011
0.0487983
-0.0186566
-0.0182934
-0.0077209
0.00584362
0.00187728
0.188935
-0.0301383
-0.132714
-0.0208568
-0.0321741
0.0530309
-0.0433957
-0.172441
-0.23657
0.231687
0.00488318
-0.163529
0.0352691
-0.00378
0.00230888
-0.326788
0.0999146
-0.261881
0.025311
-0.100517
0.04206
0.00611237
-0.0132788
0.0071664
0.105106
0.0594546
-0.16456
0.0102196
0.000784801
-0.0374064
0.503799
-0.466393
0.230237
-0.0777584
-0.152479
-0.00122349
-0.0426675
0.216891
-0.000570642
0.220622
0.253693
0.0397896
-0.309236
-0.0264778
0.00388621
-0.339359
-0.113397
-0.0127223
-0.0313249
0.0440472
-0.00879595
0.00825366
0.000542294
0.620444
-0.257025
-0.363419
0.0653862
-0.0279449
0.416892
0.203553
-0.391983
0.330327
-0.0946774
0.0465645
0.00189039
0.0372453
0.202334
-0.239579
0.0118378
-0.000310745
-0.0115271
-0.00736542
0.0032634
-0.0063636
0.0031002
0.0337147
-0.00547951
-0.457127
0.337425
0.119702
-0.0580456
-0.186647
-0.167877
-0.387133
0.277947
0.109186
0.21181
-0.191617
-0.339208
-0.0479249
-0.0412865
-0.0555155
-0.0232532
0.016373
0.0068802
0.18643
-0.237052
0.0506216
0.0360571
0.209737
-0.245794
-0.0736532
0.293935
-0.29571
0.408485
-0.112774
-0.0120859
-0.00589269
-0.549541
0.54977
-0.000228881
-0.139136
0.0862877
0.0712064
-0.19808
0.0171462
-0.000972646
-0.0161735
0.0416584
-0.0529071
0.0112487
0.160868
-0.002191
-0.158677
-0.00239397
0.00386798
-0.107248
0.00383882
0.103409
-0.00577696
-0.0122748
-0.140023
-0.0458268
-0.516363
-0.0401989
-0.381641
-0.273769
0.266228
0.00754146
-0.167391
-0.0104361
-0.0437874
-0.262009
-0.185263
0.215074
-0.0298108
-0.230893
-0.0117618
0.162902
0.0673347
-0.00554872
0.0079511
-0.00240238
-0.474765
0.306885
-0.126007
-0.107606
0.178156
-0.117515
-0.0606412
-0.102099
0.334216
0.220383
-0.153345
-0.0670386
-0.0289207
-0.144449
-0.27763
0.0692806
0.20835
0.0243842
0.0206672
0.40959
-0.535471
0.316272
0.219198
-0.00397846
-0.00571173
0.0049561
0.000755637
0.00347681
-0.0171555
0.018371
-0.0373539
-0.238101
0.372213
0.00222367
-0.133387
0.101355
0.0320327
0.156623
-0.394724
-0.00226197
0.00925884
-0.00699687
-0.64706
0.426717
0.220344
-0.505614
0.181862
0.199164
-0.205922
0.00675773
0.173025
-0.0148991
0.0182025
-0.00330338
-0.278392
0.207989
0.0704023
-0.0234994
-0.0208451
0.061471
-0.251559
-0.00420357
-0.151111
0.0768702
-0.0911634
-0.108071
0.202942
-0.123169
-0.0797726
-0.013385
-0.000125939
0.0374374
-0.01006
0.00252294
-0.0925427
-0.00667274
0.0922883
-0.0856156
-0.00483498
-0.103781
0.108616
-0.000908904
0.449235
0.196224
-0.00241248
0.0175214
-0.0151089
-0.00103626
0.012767
-0.0117307
-0.0454421
0.101412
0.0208323
-0.00140642
-0.545555
0.399679
0.145876
0.00713509
0.0109167
0.143452
0.125776
-0.0165769
-0.051593
0.0388707
0.00997162
-0.00988169
-8.99381e-05
0.0527335
-0.288796
-0.349896
0.276242
0.0001022
-0.0217869
-0.0160902
0.0165607
-0.000470436
0.0705952
-0.0624142
-0.504026
0.282296
0.0636519
-0.119313
0.0556613
-0.00605469
0.00184831
0.00420638
-0.0054661
-0.000588585
0.0704675
-0.0735894
0.00312193
-0.261913
0.0310204
-0.024928
0.0292022
-0.0339928
0.00479062
0.00952498
-0.00916094
-0.000364035
-0.0320021
0.00192541
-0.00128395
-0.114917
-0.0184705
-0.439951
0.318833
0.113136
-0.38884
-0.0260396
0.414879
-0.158125
-0.0420962
0.200222
-0.070216
0.175322
-0.0271537
0.0324504
0.270854
0.183204
-0.454058
-0.160994
0.223902
-0.203989
0.241235
0.00732268
-0.00558977
-0.00398149
-0.135913
0.0288716
0.000336657
-0.0178102
0.00171995
0.0943332
-0.323371
0.229038
-0.000890405
-0.00143363
0.00232404
-0.314372
-0.221099
-0.257986
0.267584
-0.00959795
0.226794
-0.0244601
-0.0645848
0.0474088
0.017176
-0.0131443
-0.000240683
0.30905
0.309513
-0.0115742
0.0126284
-0.00105419
-0.159224
0.130556
0.0286682
0.00647036
-0.00693811
0.000467748
0.0363075
-0.0890551
0.127448
0.000326026
0.00263169
-0.00295771
-0.166403
0.107177
0.0592257
-0.0052078
-0.00882464
-0.16802
-0.314578
-0.0894978
-0.258669
-0.0941181
0.0892831
-0.0250384
-0.0956274
0.308332
-0.212705
-0.273012
-0.000757382
-0.190393
0.0322674
-0.194224
-0.00458921
0.198814
-0.00479772
-0.00287593
-0.408488
0.112778
-0.264548
0.28166
-0.00196028
0.00429919
-0.00233891
0.0191662
-0.00165661
-0.0175096
-0.00815509
0.00260637
0.066908
0.0115799
-0.0784878
0.210112
-0.253997
0.0438855
0.0169956
-0.0352398
-0.363741
0.501501
0.000417765
-0.0161335
0.153985
-0.034326
-0.119659
0.0133794
-0.0125767
-0.000802665
-0.00421384
-0.00350706
0.00135366
-0.0901479
-0.00678174
0.0969297
0.000727943
0.00155754
-0.00228548
-0.157291
0.131228
0.0260632
0.0285498
-0.0627086
-0.0058952
0.000429097
-0.15937
0.163209
-0.410473
-0.0863694
0.496842
-0.138068
-0.288733
0.426802
-0.0475083
0.0439541
0.00355419
-0.00128985
-0.0647051
-0.123816
0.00143042
0.0119188
0.0552139
0.143498
0.000202373
-0.00730804
0.00710567
-0.0218985
0.037876
-0.243219
0.224212
0.0190072
0.0322933
0.0178632
-0.0963593
0.0950861
0.0215782
-0.00383661
-0.0177416
0.108465
0.04552
-0.215387
0.118449
0.0969378
-0.207171
0.243228
-0.505099
0.367351
0.163859
-0.151128
-0.0127308
-0.197799
-0.021836
0.219635
0.095051
0.0582679
-0.166372
0.591266
-0.26604
-0.325226
-0.0553239
-0.294572
-0.00159283
0.00485623
0.241063
0.15344
-0.394504
-0.471667
-0.0836017
-0.0693559
-0.421236
0.490592
0.0319603
0.131898
0.242374
0.00949753
-0.251872
-0.0385219
0.13207
0.00321618
-0.243216
-0.0127679
0.0121125
0.000655416
-0.168339
-0.109291
-0.510907
0.368713
0.149184
0.243901
0.0285555
-0.0504539
0.244756
0.103648
-0.348404
-0.0117933
-0.192381
0.429612
-0.237231
0.00128166
0.00625047
0.431356
-0.307216
-0.12414
0.015671
-0.00117928
0.0187406
-0.0190538
0.000313179
-0.654859
0.149759
-0.0544025
0.0390774
0.0186869
0.0740223
-0.0227304
-0.0512919
0.000225053
0.218419
-0.241246
0.0228272
-0.154774
0.0372343
-0.0689595
-0.0119731
0.0191848
-0.000444143
-0.0953044
0.374759
-0.279455
-0.0437726
0.0408692
-0.141757
-0.251531
-0.0298947
-0.00214715
-0.00121973
0.00336688
-0.0496759
-0.534685
-0.0131674
0.000399499
-0.0139086
0.0142483
-0.000339725
0.0120232
0.008915
-0.0613241
-0.00144418
-0.0262078
0.027652
-0.000870498
-0.396791
0.0574322
0.000576756
0.0126469
-0.250062
0.406685
-0.346131
0.0989501
-0.0149958
0.0169081
-0.00191225
0.0205382
0.0028839
-0.0234221
0.294446
-0.0533828
-0.171477
0.0429545
0.128522
0.0541962
-0.0676329
0.0134367
-0.136449
-0.0789378
-0.00745546
0.00718087
0.000274584
0.378377
-0.0717779
-0.0186217
0.0329391
-0.443412
0.0190894
0.0343631
-0.0593417
-0.0540809
0.041344
-0.115561
-0.23778
-0.417078
-0.00378836
0.0329906
0.0129988
-0.218705
0.205706
-0.0915345
0.0981283
-0.00659379
0.033675
0.124797
-0.158472
-0.425412
0.268893
0.156519
-0.038373
-0.00539105
0.10899
-0.120617
0.0116271
0.00173997
0.00937361
0.00340361
-0.0949381
0.289162
0.142194
-0.0741607
0.0052012
0.0256234
0.224217
-0.24984
0.266824
-0.322148
0.121133
-0.0203209
-0.100812
-0.0181575
-0.0342036
0.0523611
0.000146208
-0.00772991
-0.00558317
0.0133131
0.0103308
0.0703891
-0.158054
0.00692646
0.0636721
0.00207155
0.0093889
-0.00327653
0.00732205
-0.0132532
0.00593112
-0.0416047
-0.025346
0.0543975
-0.0290515
-0.250707
0.0379123
0.538596
-0.189729
-0.348867
-0.433647
0.295579
0.149227
-0.179649
0.0304223
0.0134306
-0.0134306
-0.00690766
0.00711003
0.538848
-0.00245697
0.000909778
0.00154719
-0.00315792
-0.0845111
0.087669
-0.522477
0.297676
0.224801
-0.0621621
0.0477429
0.0144192
-0.0315808
-0.0256482
0.0225343
0.0777575
-0.0590989
-0.0186586
0.138737
-0.159288
0.0205516
0.071595
-0.0782677
0.0104196
-0.0533462
0.622485
-0.368789
-0.253696
0.00190235
-0.00179332
0.332272
-0.161345
-0.09123
0.252575
-0.0317765
-0.0710632
0.0783508
-0.0265414
-0.0518095
0.218129
-0.23653
0.0184014
0.413147
0.159444
-0.0157415
0.0193032
-0.00356171
-0.373341
0.278037
-0.00491637
0.00276922
-0.350854
0.241695
0.109159
-0.0122222
0.0129022
-0.00067998
0.133939
-0.133046
-0.318395
-0.107017
-0.000724493
0.00402137
-0.0174847
0.0134633
0.0111627
-0.012199
0.0130248
-0.000174383
-0.0128504
0.00275499
0.0481383
0.0569182
-0.105057
0.0821724
-0.0279762
-0.0111112
-0.102097
0.122855
-0.177389
0.239059
-0.06167
0.00992168
0.00338723
0.0146239
-0.0272924
-0.0628556
-0.152563
0.0568764
0.0956862
-0.231854
0.326187
0.00605882
-0.0520946
0.154873
-0.102778
0.00215327
0.245882
0.257165
-0.0702267
-0.186938
0.0202477
-0.0134065
-0.00684116
0.00166192
0.0150962
-0.000193169
-0.0415642
-0.0121352
0.0118025
0.000332643
-0.018022
-0.0465628
0.00722099
0.0670766
-0.0742976
0.039866
-0.00592279
0.000677514
0.0879411
-0.142112
0.0541707
0.152998
0.023418
-0.176416
-0.0480598
-0.21884
0.148811
-0.460295
0.311484
0.114509
0.0884324
0.00548753
0.0147601
0.000989472
-0.0019818
0.000992324
-0.27188
-0.000110166
0.00675714
0.0119237
-0.000145858
-0.0117778
-0.493826
0.131273
0.362553
-0.14849
-0.0127998
0.161289
0.0092871
-0.0110769
-0.365151
-0.001354
-0.0036932
0.144942
0.294424
-0.439366
-0.375785
0.265582
0.110203
0.107651
-0.110809
0.180135
-0.218041
0.0379061
-0.0545889
-0.00143075
0.0114202
-0.00998948
0.44366
-0.481066
-0.0171857
-0.15024
0.0884541
0.0617863
-0.0894115
-0.322674
0.412086
0.656139
-0.318432
-0.337707
0.191602
-0.125833
-0.121284
-0.045119
-0.138695
0.409549
-0.0003214
0.120961
0.000172064
-0.0349586
0.24535
-0.210391
0.00803551
-0.0684079
0.0603724
-0.0121066
-7.0611e-05
0.0121772
-0.0420641
0.225462
0.187353
-0.412815
0.0699821
0.0501348
-0.120117
0.14978
0.236035
-0.385815
0.207429
-0.0148661
-0.00218476
0.200543
0.149621
-0.181964
0.0323429
-0.00100944
-0.372593
0.283182
-0.00383284
-0.00522835
0.00906118
0.00988945
-0.00976177
-0.000127679
0.116649
-0.046667
0.020958
0.435529
-0.456487
0.0172721
-0.165762
0.0307848
-0.018688
-0.0120968
0.461599
-0.540468
0.078869
0.0208426
-0.224832
-0.00190835
0.0152077
-0.0140759
-0.00113172
-0.143001
0.0587789
0.0842221
-0.0596256
0.0414681
0.000262029
0.00109767
0.0264373
0.146067
0.0345647
0.0507634
0.0188305
-0.0550757
0.0075674
-0.0136657
-0.000774154
0.0144399
-0.0539281
0.0382277
0.0157004
-0.251949
0.277572
0.00668293
0.0122517
-0.0189346
0.217351
-0.100434
-0.116916
0.0053409
0.0652543
0.125278
0.0636572
0.0110223
-0.210439
0.0541102
0.00585323
0.00667816
-0.0571864
-0.0573222
0.114509
0.343912
0.115334
0.176229
-0.207837
-0.257144
-0.261937
0.519081
-0.0712879
0.116312
-0.100113
-0.00769183
0.0074683
0.000223521
0.0117933
-0.0207926
0.00673598
0.0140567
0.201818
-0.383096
0.181278
0.0135149
-0.0155532
0.00203837
-0.000702394
-0.408896
-0.0107714
0.0106818
8.95961e-05
-0.207534
0.19872
0.0088146
-0.00320812
-0.0119274
0.0151356
0.232233
-0.219235
0.00931326
-0.000372284
-0.00894098
-0.00669543
0.000800228
-0.36046
-0.0363309
-0.0179222
-0.00113158
0.445257
-0.224636
0.000306868
-0.180597
0.232371
0.047146
0.0854646
-0.132611
0.0344962
-0.092256
-0.102471
0.297905
-0.102849
0.103732
-0.000883147
-0.0638838
0.159182
-0.130442
0.0413869
0.0103647
0.0955168
0.121834
-0.0284984
0.0226201
0.00587831
0.0131032
-0.00318155
-0.021877
-0.151957
0.173834
0.0415997
0.0903865
0.146479
-0.132993
-0.000457212
0.0166801
-0.00316524
0.002092
0.00241535
0.00139306
-0.00380841
-0.110778
0.00792933
0.190229
-0.0137528
-0.0181428
0.00978033
-0.0174318
0.0097019
0.332525
-0.254946
0.0444762
-0.257313
0.212837
0.0372616
-0.0318991
-0.00536249
0.00198253
-0.0548897
0.203638
-0.299265
0.015704
-0.0070025
-0.00870149
0.0598693
-0.0469362
-0.0129332
0.142726
-0.0644688
-0.0782575
-0.0162665
0.0152938
-0.0826325
0.0917719
-0.00913938
0.0640585
-0.00206331
-0.0619952
0.574331
-0.262494
-0.311838
0.0531729
0.072747
-0.12592
0.000521841
0.376068
-0.183508
0.0686474
-0.0463564
-0.022291
0.165105
0.420295
-0.5854
-0.0159691
0.0135566
-0.0261985
0.0374472
0.361256
-0.504187
0.142931
0.0141383
0.0231233
0.135309
0.027353
-0.162662
-0.230974
0.516282
-0.285308
-0.0185542
-0.0459454
0.0300198
0.0159257
0.074129
0.253491
-0.273737
0.0202458
-0.0248249
0.00985471
0.00584929
-0.0204254
-0.0852544
-0.0324151
0.11767
-0.0331362
0.562564
-0.411705
-0.150858
0.299679
-0.514655
0.214976
0.397444
0.00794663
0.0107168
-0.0453183
0.312143
0.000922029
0.260794
-0.259256
-0.0907317
-0.0201406
0.213554
-0.15834
0.00649263
-0.00712508
0.000632446
0.0483332
0.105541
0.258106
-0.213629
-0.475042
0.0862023
0.243602
-0.0246374
-0.0725777
0.0841576
0.0851283
0.013
-0.15836
0.431391
-0.273031
-0.0137894
0.0154891
-0.00169968
0.119297
0.0423138
-0.161611
-0.305699
-0.151701
0.016738
-0.0150761
-0.00524213
-0.0183581
0.0236002
-0.015389
0.00281272
-0.614492
0.349793
0.264699
-0.0322666
0.0307685
0.0105423
-0.010884
0.000341632
0.0642683
-0.126595
0.0623264
0.0172737
-0.0132523
0.00424823
0.0880401
0.0843646
-0.350794
0.0389536
-0.060743
-0.27664
-0.0991448
0.0384778
-0.0908338
-0.0521673
0.368116
0.0270001
-0.129097
-0.0405956
-0.208193
-0.337362
-0.00836062
-0.00269045
0.0110511
0.043223
0.000794826
-0.0004688
0.18505