/*--------------------------------*- C++ -*----------------------------------*\
| =========                 |                                                 |
| \\      /  F ield         | OpenFOAM: The Open Source CFD Toolbox           |
|  \\    /   O peration     | Version:  v2012                                 |
|   \\  /    A nd           | Website:  www.openfoam.com                      |
|    \\/     M anipulation  |                                                 |
\*---------------------------------------------------------------------------*/
FoamFile
{
    version     2.0;
    format      ascii;
    class       surfaceScalarField;
    location    "250";
    object      ddtCorrDdt0(phi);
}
// * * * * * * * * * * * * * * * * * * * * * * * * * * * * * * * * * * * * * //

dimensions      [0 3 -2 0 0 0 0];
oriented        oriented;


internalField   nonuniform List<scalar> 
21458
(
0.00298126
0.000465646
-0.00344687
0.000917947
0.000324994
-0.00124298
-5.77324e-05
-0.00064906
0.000706753
-0.000524952
0.00120135
-0.00067639
-0.00598116
0.00729751
-0.00131634
-0.00120561
0.00014596
0.00105966
-7.80101e-05
0.000107726
-2.97299e-05
8.09251e-05
-0.000119141
3.82277e-05
0.000877744
-0.000968538
9.07882e-05
0.00237697
-0.00446253
0.00208555
-0.00981873
0.00621554
0.00360319
-0.00110929
0.000584354
-0.000299722
-0.000211837
0.000511549
-0.000443892
0.000144167
-0.000383077
0.0001741
0.000208961
0.00042708
0.000518634
-0.000945665
-0.00136739
0.0017465
-0.000379115
0.00461501
-0.00215629
-0.00245874
-0.00372484
0.00397015
-0.000245304
-8.57713e-05
0.000280339
-0.000194563
-0.000771067
0.000299269
0.000471808
-0.000774052
0.00120118
0.00174932
-0.00432377
0.00257443
0.000662401
0.000215345
7.45028e-05
0.000462249
-0.000536739
0.00285561
0.000461526
-0.00331715
0.00471107
-0.00233412
-0.00377188
0.00102996
0.00274194
-2.17388e-05
-0.000361326
-0.000816946
-0.00115781
0.00197475
-0.00153396
0.00203459
-0.000500622
0.00182898
0.00278601
9.37834e-05
-0.000104025
1.0221e-05
0.000724557
-0.000168176
-0.000556355
-3.77615e-05
-3.92428e-06
4.16385e-05
-0.000145394
0.000178478
-3.3066e-05
0.000281343
0.000237323
-0.000859998
-0.000271488
0.00113147
-0.0154386
0.00661052
0.00882808
-8.98364e-05
0.000350128
-0.000260242
-7.49051e-05
-0.000785116
-0.000667813
-4.05959e-05
0.000708416
-0.00223978
0.00266566
-0.000425879
-0.00310996
0.00233593
0.00310163
-0.00496887
0.00186729
0.000317901
-0.000317904
-0.00297747
-0.00577033
0.00874783
-0.0011942
0.000256962
0.000937262
0.00217947
-0.00169476
-0.000484729
0.00032139
-0.000302296
-1.91087e-05
-0.000196371
-0.000788906
0.000985266
0.00234541
0.00367511
-0.00602053
-0.00304273
0.00169572
0.00134707
-0.000575673
-0.000618498
-8.94833e-05
3.62967e-06
8.58535e-05
-0.000457254
0.00105309
-0.000595823
0.00206357
-0.00265861
0.000595028
1.67306e-05
-5.45208e-05
0.0024917
-0.000258
-0.00223369
0.00098465
-0.000900119
-8.45475e-05
-4.77375e-06
-8.41772e-05
8.89639e-05
-0.0031409
0.00283351
0.000307376
0.00100107
0.000307084
-0.00130821
-0.0127443
0.00892086
0.00382342
-0.00156036
0.00223187
-0.000671524
0.000573085
-0.000765017
0.000191936
-0.00085089
0.000678716
0.000172176
-0.003214
0.00381673
-0.000602759
-0.002698
0.00129213
0.00140585
0.000322485
-0.00568378
0.00536128
0.00478258
-0.00235865
-0.00242391
-0.0025443
0.0015915
0.000952786
-0.000610302
-0.00116125
0.00177155
-0.000214181
0.000128394
0.000350361
0.000312048
-0.00806658
0.00298029
0.00508628
0.000551244
-0.000309505
-0.000241741
-0.00252041
0.00316453
-0.000644165
0.00471437
-0.0043919
-0.00157939
0.00419136
-0.00261198
-8.74634e-05
4.20517e-05
4.541e-05
-0.000179693
-0.000361094
0.00054079
0.00234775
0.00243484
-0.000626039
0.000648176
-2.21449e-05
0.00162002
0.00148163
-0.0059747
0.00707947
-0.00110477
-0.000252521
-0.000135922
0.000388416
-0.00335221
-0.000302187
0.000895473
-0.000593275
-0.00409162
0.00216422
0.0019274
-0.00226967
0.000709313
-0.00249788
0.0026699
-0.000172051
9.96794e-05
-0.000988468
0.000888773
-0.000162792
0.000605243
-0.000442418
-0.00156149
0.00348739
-0.00192588
0.000188107
-0.000161176
-2.69283e-05
-0.00281233
-0.00127929
-1.91775e-05
0.000316608
-0.000297389
-0.00140656
0.00479605
-0.00338951
0.00280296
-0.00361991
0.00282888
-0.000765317
0.00345623
-0.000964528
-5.11514e-05
6.24974e-05
-1.13485e-05
-9.69796e-05
7.78152e-05
8.70778e-06
-3.64655e-05
2.77479e-05
-0.0040281
-0.00871615
-0.000962511
-0.00158179
-0.00334881
0.00289157
-0.000295647
0.00020582
-0.000369772
-8.197e-05
0.00045174
0.00146729
-0.00149466
2.74227e-05
-0.000219931
0.00129925
-0.00107933
-7.82059e-05
-0.00296451
0.00193516
0.000920451
-0.000129485
-0.000143826
0.000273336
-0.000462788
0.000813165
-0.00144949
-0.00169142
0.00154759
0.000619816
-0.00216741
0.000352892
-0.00592035
0.00556746
0.000330818
0.000393712
3.31969e-05
0.000136697
-0.000169896
-0.00236141
0.000827443
-0.000701224
0.000613494
8.77266e-05
0.00269313
-0.00181244
-0.000880705
-0.000143342
0.000111859
3.14897e-05
0.000744734
-0.000739524
-5.19148e-06
7.62058e-05
-0.000268266
0.000192094
0.000102032
-2.74077e-05
-7.46344e-05
-0.00142133
-0.0012373
-0.000191012
7.29225e-05
0.00011811
0.000215373
-0.000218057
2.69803e-06
-0.00218969
-6.92643e-05
3.48901e-06
6.58101e-05
0.00121535
0.000772794
-0.00198816
-0.00935741
0.00322032
0.00613709
0.00828955
-0.0133071
0.00501753
-0.000741038
0.000675819
6.52235e-05
-0.00086482
0.000668437
-0.000664939
0.0011842
-0.00051923
-0.000273316
-5.33877e-05
0.000326716
-0.00149309
0.00174371
-0.000250638
-0.000428794
-0.00181098
-0.00540894
0.0050466
0.000362329
-0.0026052
0.00360627
-0.00023089
-0.000395127
7.39609e-05
-0.00261963
0.00254567
0.000134583
-0.000188526
5.39336e-05
0.00196158
-0.000559512
-0.00140203
-0.000685609
0.000935302
-0.000249675
0.00156351
-0.00312501
0.000302219
-0.00035996
0.000301846
-2.1515e-05
0.000859919
-0.002341
0.00148109
0.00197087
-0.00333828
0.00134638
-0.00113268
0.00401426
-0.00317879
-0.000835466
-0.000184088
-9.37702e-05
0.000277844
-0.00575158
0.00647854
-0.000726987
-0.00303411
0.000513712
0.0040775
-6.32878e-05
-0.00419075
0.00201017
0.00218056
0.0031379
-0.00303594
-0.000101928
-0.0056218
0.00379119
-0.00103644
-0.00275475
-0.00766203
0.00468458
0.000203296
-4.69781e-05
-0.000156301
-6.68056e-05
-0.000153127
0.00029819
2.32085e-05
0.000270553
-8.24285e-05
-3.07862e-05
-3.31347e-05
6.39116e-05
0.00277158
-0.00115156
-0.000547894
0.000458398
-0.000211553
-0.00570879
-0.000348155
-0.000423299
0.000771429
0.0023214
-0.000542302
-0.00177908
-0.000281878
0.000384739
-0.00010288
-2.61963e-05
0.000131902
-0.000105698
-0.0019882
-0.00321176
0.00519997
0.0002363
5.06905e-05
-0.000286988
-0.00857608
0.0168656
-0.000120097
-9.40711e-05
0.000858322
0.000689277
-0.00247919
-1.87024e-05
0.000137664
-0.000247885
0.00011023
0.00263643
-0.00314005
0.000503643
0.00100552
-0.00167333
0.00126352
-0.000954686
-0.000308835
0.00604261
-0.00829646
0.00225385
0.00720926
-0.0126182
0.000277265
1.42758e-05
-0.000291541
0.00442486
0.000774149
-0.00519898
-9.96292e-05
0.000265843
-0.000166201
-0.000159952
8.19452e-05
0.00152193
-0.00170357
0.000181645
0.000103794
-0.00726446
0.00291929
0.00197427
-0.00489356
-0.0011642
0.000428489
0.000735685
-0.000321114
-2.70422e-05
-0.001876
0.00174655
-0.00175486
0.00197021
0.00214642
-0.00274272
0.000596315
0.000188388
-0.000130092
-5.8306e-05
2.8846e-05
0.000327874
-0.000276319
-5.15439e-05
-0.000497977
-0.000243024
0.00544933
-0.00393317
-0.00151615
-0.000166051
0.00013983
-0.00249702
0.00513345
-0.00149068
0.00290411
-0.00141344
0.00575726
-0.00532015
-0.000437057
0.000460744
7.76292e-07
-0.000461521
0.00036213
-0.00121302
0.00015738
-0.000323918
0.000166535
0.000296486
-0.00215299
0.00185651
0.000636759
-0.00523856
0.00460179
-0.000233854
5.25034e-05
0.000181352
4.96177e-05
-0.000195002
0.00173677
-0.000183757
-0.00155301
0.00501938
-0.00478537
-0.00023404
0.00223226
-0.00306192
0.000829655
-0.00478459
-0.000578994
0.00536358
5.38399e-05
0.000661111
-0.000714978
0.00367466
-0.00110207
-0.00257259
0.00145963
-0.00166468
0.000205047
0.000129662
3.60393e-05
-0.000165698
9.63848e-05
0.00137091
-0.000439119
0.000581609
-4.54597e-05
-0.000207066
-0.000313417
0.000335294
-2.18789e-05
-0.000254577
-0.000124878
0.000379428
0.000956067
-0.00210195
0.0011459
-0.000330798
0.00030083
2.99549e-05
-0.000338503
0.00102
-0.000681497
0.00177886
-0.00145096
-0.0018121
0.00286524
0.00182303
-0.00220484
0.000381802
2.98153e-05
0.000148439
-0.000178244
-0.00154089
0.00019848
0.0013424
0.0019894
-0.000529782
0.000556778
0.00274323
-0.0033
0.000161397
-0.000261023
-0.000651
0.000725501
0.00576146
-0.00586682
0.000105368
0.00165043
-0.00314115
0.000407941
-0.000319645
-8.82714e-05
-0.000276947
-2.52163e-05
-0.000817587
0.000913658
-9.60739e-05
-0.00156868
-0.000498038
0.00206671
-2.45707e-05
0.000105497
0.00151227
-0.00406931
0.00255703
-3.97557e-05
-1.87522e-05
5.84974e-05
-7.42154e-05
-6.91396e-05
-0.00014218
-0.00142651
0.00113625
0.00392723
-0.00506352
-0.000424332
0.000169558
0.000254819
-0.00472036
0.000948478
0.000709549
-0.000247291
-0.000880918
0.00263022
0.00255725
0.0016341
-0.00225737
0.00419823
-0.00194085
-0.00123057
-0.000473001
0.00089246
0.000322892
-0.000290078
5.59566e-05
0.000234107
-0.00249251
-0.000648968
0.00314149
-0.000183489
-0.000106634
-0.000930744
-0.00385385
0.000622019
-0.00131426
0.000692244
-0.0043639
0.00114987
-0.00284766
0.00292158
0.0002061
-0.000129878
0.00233118
0.000155682
-0.00248686
-0.000551631
0.000626821
7.27443e-05
0.000163563
0.00272206
-0.00286818
0.000146124
0.00211192
-0.000591451
-0.00152043
-0.00021361
2.12339e-05
0.000192392
0.00288761
-0.00281412
-7.35121e-05
-0.000351259
0.00282997
-0.00247871
-0.00222889
0.0025301
-0.000301225
-0.00259279
0.00243896
0.000153826
0.00367754
0.000399979
0.000280761
-0.00289274
-0.000122831
-3.48505e-05
0.000157685
0.000240361
-0.000210537
-0.000155006
0.000175107
-2.01108e-05
-0.000177293
-0.000374338
-9.0939e-05
0.00126374
-0.00117284
-0.00149738
0.00094943
0.000547966
-0.000574427
0.00156487
0.00030295
-0.000220584
-0.0123749
0.00301745
-0.000280271
-0.000925322
-0.000191586
-0.000356306
0.00369836
0.00126696
-0.000960491
-0.000306463
0.000353437
0.00380233
-0.00415576
0.000134628
6.86545e-05
-0.00140158
0.000307182
0.00109442
-0.000175101
0.000332485
-0.00204664
0.00282467
-0.000778032
-0.000156483
0.000291171
-0.00013467
0.00102967
-0.00210892
0.00107925
-0.000476698
0.000292944
-5.67896e-05
1.99457e-05
3.68666e-05
-0.00574477
0.00439093
0.00135384
-0.000120113
0.000308505
-0.000627269
0.000112607
0.000514684
-0.000310544
0.000187243
0.000123282
0.00305888
-0.000826631
-0.00781249
-0.00200623
0.0094848
3.70071e-06
-0.00948848
0.000154884
-4.34343e-05
-0.000111412
-0.00233321
0.00079234
-0.000354892
0.000170802
0.000536422
-0.00927764
4.85425e-05
0.0092291
-0.000134345
-0.000147555
-1.74898e-05
-3.06476e-05
4.8137e-05
-0.000195256
0.000656003
-0.00013903
-5.63092e-05
0.000195359
0.000516812
-0.000830224
0.000607833
-0.00126223
0.00065439
-0.0015877
-0.00144136
0.00302908
-0.00131461
0.000441447
0.00087315
0.00377246
-0.00144119
-0.00233125
-0.0121477
0.0061665
0.00290662
-0.00288576
-2.08558e-05
0.000350212
-0.000173047
-0.00017718
0.00184693
-0.000500526
-0.00198184
0.00177323
0.000208609
-0.00338792
0.00630722
-0.00020795
-0.000122839
0.00112538
-0.00271308
6.05211e-05
1.21618e-05
-7.26816e-05
0.00279228
-0.00111294
-0.00167932
-0.00102482
-0.000566807
0.00159167
-0.0105444
0.000622319
-4.27939e-05
-0.000579516
0.00121892
0.00223676
-0.00345565
-0.000247668
0.000820756
-0.00123451
0.000954248
0.000115989
-2.22064e-05
0.00152833
-0.000906315
0.000180252
-0.000136347
-4.39281e-05
0.00181034
-0.00231051
0.000500173
-0.00100151
0.00542636
0.00011233
6.79154e-05
-0.00177411
0.00239643
0.000778445
-0.000678776
0.000258819
-0.00285161
0.000375651
0.000608991
0.000363613
-0.000155825
-0.000207783
0.00269799
2.40637e-05
0.000162008
-6.44731e-05
-9.75356e-05
5.84384e-05
0.000370935
-0.000429377
-0.00255872
0.0030192
-0.000460509
-0.000290682
0.00103543
0.000801548
-0.00116643
0.000364907
0.00105312
-0.000507597
-0.000545505
-0.00297881
0.00169328
0.00128551
-0.00311323
0.00255278
0.000560432
0.000590327
1.23234e-05
0.00287529
1.02807e-05
0.000166547
-0.000176832
-0.000796126
0.000915021
-0.000118893
-0.000114976
0.000261239
-0.000146251
0.00318156
-0.000274936
0.00161088
-0.00281893
0.00120801
0.00397752
-0.00538655
0.001409
0.000530659
0.00209567
-0.00262632
-0.00040003
-0.000471547
0.00087158
0.000112112
-0.0160801
0.015968
-0.000144753
0.000995785
-0.000851026
-0.00479567
0.00253828
-0.00137708
0.00326648
-0.00484436
0.00157789
-0.00420937
-0.000446434
0.00465578
0.00104387
0.0002231
0.000159292
-2.47219e-05
3.23274e-05
-0.000195108
-0.00593211
0.000678842
-0.000325406
-0.00157216
0.00210281
0.00366302
0.000324924
-0.00398794
7.54584e-05
-1.19194e-06
-7.4241e-05
-0.00035033
0.000207833
0.000142491
2.04197e-05
2.32311e-05
-4.36539e-05
-0.00257274
0.00608204
-0.00350931
0.00113344
0.00123152
-0.00236497
-6.30138e-05
-9.68774e-05
0.000159864
-0.00604765
0.00220268
0.00384497
7.487e-05
-0.000126553
5.16907e-05
0.00131062
0.000835795
0.00487025
0.000886986
-0.0208911
0.00178143
0.0191097
-0.00131085
0.000335798
0.000975035
-0.00016729
0.000517474
-5.75955e-05
0.000148879
-9.13059e-05
-0.00195814
-0.00223261
0.00251825
-0.00018708
0.000199888
-0.00114068
0.000940785
-0.00111788
-8.49361e-05
0.00120281
-0.000976978
0.00050339
0.000473578
-0.000285049
-2.54416e-05
-9.27308e-05
-0.000141127
-0.00268192
0.00063529
0.0013872
0.000792266
-1.82017e-05
7.66542e-05
0.00309821
0.00096498
-0.0040632
0.00149477
-0.00595227
0.0044575
-5.6159e-05
0.00019383
-0.000165414
0.000107818
-0.00447653
0.00323562
0.00124089
9.97992e-05
-2.30589e-06
-9.74741e-05
0.000441553
-0.00648921
-0.00294763
0.00529305
-8.9366e-06
-7.85297e-05
0.00190014
0.0001729
-0.00207302
0.000207536
-0.000202876
-4.6616e-06
0.00134187
-0.000423919
0.000285208
-0.00569954
0.00541433
-0.0032119
0.00118338
0.00202849
0.00161617
0.000329865
-0.000585436
0.000255571
0.000500149
-0.000368223
0.000103857
0.000264378
0.00425535
-0.00146308
-0.00272372
0.00203173
0.000691977
0.00269807
0.00263113
-0.0053292
0.00105782
0.000245318
4.42313e-06
-0.000249782
-0.00052485
0.00107352
-0.000548656
-0.00216713
0.00249699
0.00140654
0.00110185
-0.00250839
0.00106076
-3.10988e-05
-0.00337857
0.000500692
-0.000276213
-0.0010384
0.000996724
0.0013005
-0.00229721
0.000289365
-0.00276193
0.00586014
0.000742616
-0.000771522
2.89152e-05
-7.63693e-05
-0.00029186
-0.00110302
-0.00102323
-0.000140974
-0.000519721
0.000498621
2.10766e-05
-0.00111437
-4.32423e-05
-0.000326526
-0.000475096
0.000287927
0.000187182
-0.000120146
0.000551019
-0.00617538
-0.0147157
-0.00215031
0.00351069
-0.00136038
-0.00277776
0.00333453
3.17163e-05
7.17879e-05
-0.000103501
0.00155842
-0.000698497
-0.000132675
0.000127904
0.00226437
-0.00075209
-0.000359376
-0.00139621
0.00175558
0.000899149
0.00179399
0.000540416
-0.000490007
-5.03793e-05
0.000123989
0.000610581
-0.000734573
-0.0055169
0.000544594
0.00497227
0.0111408
-0.00165596
0.00377249
-0.00348731
0.000153185
-7.83165e-05
9.7439e-05
0.000110074
0.0011494
4.01989e-05
0.000260623
2.7802e-05
1.44085e-05
-5.68203e-06
-6.3105e-05
2.33411e-05
-0.000260013
0.000145048
0.00151584
-0.00322837
0.00171252
0.000246331
0.00389919
-0.000224529
-0.0027208
0.00195692
0.000763902
-8.22683e-05
0.000133349
-5.10603e-05
0.00411808
-0.000851605
0.00224249
-0.00124577
-0.00019014
-0.000495462
-0.00127298
0.00118204
-0.00349868
0.000591664
0.00290703
-0.00513578
0.00271665
0.00241914
-0.000658146
0.000851535
-0.000193388
0.000867478
-0.000258178
0.00011066
0.000147516
0.00100351
0.00281321
0.000351196
0.000681401
-0.00103263
0.000285048
0.00547644
-0.000969045
0.00154448
-0.000575451
-7.2279e-05
-9.01032e-05
0.000162365
1.90153e-05
8.07611e-05
-0.00459229
0.00318571
0.000287184
3.07162e-05
8.84081e-05
-0.000148071
5.96702e-05
0.00383867
-0.000857408
0.00108904
-0.000928889
-0.000160163
0.000624964
-0.00325813
0.00263316
-8.14523e-05
0.000166653
-8.51879e-05
0.00125296
1.05604e-05
-0.00179427
0.00241923
0.000393844
-0.000546794
0.000152951
-5.45428e-05
-0.000137048
0.000111665
0.000844454
-0.00095613
0.000958143
-0.000350312
-0.00199426
0.0034574
-0.0014631
-0.000250303
0.000187285
0.000117205
0.000257679
0.000293572
-0.00121107
-0.000801047
0.000401004
-0.00038303
0.000988279
0.000368385
-0.00268888
0.00232049
6.24037e-05
-8.41947e-05
2.18021e-05
-2.41565e-05
5.7373e-05
0.000172935
-0.000295757
4.64364e-05
-0.000308463
0.000262002
-0.00863568
0.00885731
-0.00022158
-0.00099246
0.00638825
-0.00539576
-0.00192006
-0.00382469
0.0019112
-0.00282156
0.000910399
-0.00112597
-0.000315232
-0.000661739
-0.00503509
-0.00178343
0.00318998
-0.000148746
1.7792e-05
0.000130951
-0.000313652
0.000854078
0.00147714
0.00101487
-0.00249203
-0.000116095
-0.000576811
0.000692912
0.000129069
0.000261105
-0.000390186
0.00217709
-0.00316956
0.00114378
0.00348172
-0.00462553
-0.00142699
0.00106761
-0.000363035
-0.00174587
0.000878298
0.00309186
-0.00403977
0.000339989
0.00369979
0.00168131
0.000588163
-0.00226948
0.00378455
-0.00650827
0.000418559
-0.00241646
0.0019979
-0.000285071
0.000122186
0.00149063
-0.00161278
0.00129847
0.00114095
-0.00243942
0.00491467
-0.00699262
0.00207794
-3.36254e-05
4.44333e-05
0.00360234
-0.00238341
0.000226995
-0.00134425
0.000819386
0.00120513
9.33544e-05
0.000322466
-1.63144e-05
-0.000306128
0.000353687
0.00196772
-0.000120769
9.83237e-05
2.24642e-05
0.000119457
-9.62289e-05
0.00415584
-0.00312589
-0.000359724
-0.000600757
0.00161591
-0.00355172
0.0019358
-7.46725e-05
1.78792e-05
-0.00131086
0.00109316
0.00021766
0.000107611
-8.76632e-05
-0.00123855
-0.001254
-0.00303549
0.00246704
0.000568425
-0.00133905
0.00090883
0.000430228
-0.0032678
0.000251462
-0.00120473
-0.00118674
0.0034464
-0.00225966
-1.10282e-05
7.34328e-05
-0.000184904
7.94263e-05
-0.000847975
-0.000491086
-0.00012217
1.40888e-06
-0.00268532
0.00266056
2.48027e-05
-0.00192805
-0.0025485
-0.000215574
0.000609377
-0.00108007
0.000903624
0.00017643
-0.00748576
0.00724053
0.000245241
-0.00013793
0.000200744
-6.28204e-05
-0.00252656
0.00165879
0.000867739
0.00457109
-0.00261945
-0.00195164
0.00085429
0.000119103
-7.77051e-05
-4.13841e-05
-0.000471431
-0.00081358
0.00128505
0.0018343
-0.000402173
-0.00143214
0.00048037
0.00123541
-0.00171575
0.000167276
-9.50145e-06
-5.10782e-05
6.05663e-05
0.00495521
-0.00418106
0.00262754
0.000554028
-0.00120331
0.00611795
-0.000172298
0.000881837
-0.000139996
9.8295e-05
4.16994e-05
-0.000303583
0.000118969
0.000184612
0.000789581
-0.00607278
0.00528318
0.000362964
0.00025708
-0.000620041
-0.000658596
0.00237373
-0.00171513
-4.2111e-05
-5.63484e-05
9.84468e-05
0.000369437
-0.000273512
-0.000225967
0.000499457
0.000145141
-2.11697e-05
-0.00327729
0.00280341
0.00047387
-0.000149377
1.18211e-06
0.000148179
-0.000969478
-0.000341365
-0.00406547
0.00509159
-0.00102609
0.000426757
0.00227131
4.2603e-05
0.000844444
-0.000481467
-0.000974854
-0.00206064
0.000382896
-0.000352756
-3.01561e-05
-0.00349062
0.00146847
0.00202218
0.000421506
1.76342e-06
-0.000423271
-0.00169792
0.00225546
-0.000557535
-0.00114951
0.000955552
0.000194015
-0.00047323
0.000542405
-6.9168e-05
-0.000243812
0.000109428
4.04861e-06
-0.000307627
0.00281985
-0.000192315
0.00374972
-0.011572
0.00782227
0.00347923
-0.00282694
-0.000652269
0.000147449
-0.000201978
2.6375e-05
-3.58621e-05
0.000388036
-0.00236988
0.000212408
-8.53231e-05
3.85087e-06
-0.000330146
-0.00294714
-0.00190131
-5.02046e-05
-0.000207991
-4.75646e-05
0.000166259
-0.000118692
-0.000128905
-0.00025409
0.00453362
-0.00553513
-0.00191432
0.00129565
0.000618679
-0.000454864
0.000275175
-4.25645e-05
-9.74406e-05
-0.00599294
0.00235523
0.00363773
-0.000261505
0.000580453
-0.000318915
-0.000168433
0.000120866
9.13534e-05
-5.77633e-05
-3.35812e-05
-0.00533902
-0.00214671
0.00151582
-0.00488857
0.00337274
-0.000169923
-0.0002544
0.00427557
-0.00399481
-0.000593898
0.00207499
-0.000264187
9.57626e-05
-0.000941191
0.00241834
0.00242686
-0.000745553
-0.000186888
4.8944e-05
-0.00137948
0.00177882
-0.000399361
0.000250067
6.57204e-06
-0.00025666
0.000176215
-1.94097e-05
-0.000156814
-0.000722856
0.00120322
0.00210765
-0.000701251
-0.00140639
0.00416901
0.00291048
-0.000233418
0.000399683
0.000291483
-0.00418902
0.00168928
-0.0030064
0.00131713
-0.00184496
0.00336082
-0.00501364
-0.00426399
-0.000192659
0.000351658
-0.000158996
-0.000202939
-8.21504e-05
0.000287854
1.50936e-05
9.36461e-06
-3.93068e-05
-0.000108763
-0.00322197
0.00341021
-0.000188236
0.000830549
0.000433164
-3.57859e-05
-0.000591497
5.01106e-05
0.000199931
0.00322947
0.00178806
0.000490391
-0.00248456
0.00199416
0.000184941
-0.00012605
-5.88895e-05
-6.2405e-05
2.0281e-05
0.000109361
-0.000783211
0.000673887
-0.00146793
-0.0016453
-5.99094e-05
0.000234003
-0.0197453
0.0168517
0.00289358
-0.00014076
0.00518735
-0.0037096
0.00229492
0.00141467
0.000591378
0.00243309
-0.00302446
-0.00253796
5.87486e-05
-0.00180871
-0.00168997
-8.46191e-05
-8.26875e-05
0.00112549
0.000708823
-0.000678886
-0.00112963
0.00180852
-0.000311107
-0.000162113
-0.00117693
-0.000158305
-0.000542934
-0.00241852
0.00206726
-0.00322289
0.00890833
-0.00568544
0.00293134
-0.00139706
-0.00130093
0.000488194
-6.66977e-05
-0.00141102
0.00316436
0.000353634
-0.00351802
-0.00690347
-0.00164508
0.00854852
0.000290814
-4.55118e-05
-0.00339301
0.00213538
0.00125762
-0.00210246
-0.00160714
-0.00128579
0.00248387
-0.00119809
-0.00489904
-0.000848308
0.00574736
-0.00204457
-0.0039484
0.00269584
-0.00260054
-9.53253e-05
0.00139337
0.00129569
-0.00268907
-3.82588e-05
-0.00571334
-0.000160894
0.000182568
-2.16846e-05
-5.35276e-05
0.00216115
0.00095017
0.00329062
-0.0028002
5.09578e-05
-0.000253808
0.0057914
-0.000293146
-3.65797e-05
0.000329719
0.000720476
-6.59549e-05
-0.000654522
-0.00542737
0.00256175
0.00286561
-0.00147367
-0.000876956
0.00235062
-0.00667981
0.00188441
0.00479539
-0.000337294
0.000292977
4.43229e-05
-0.000643434
0.00014545
-0.00161586
-0.00264775
0.00286602
-0.000218261
0.00433784
-0.000360327
0.00164713
-0.00994359
-0.00088537
0.00015929
0.000726073
0.000434379
-0.000707916
-0.0035496
0.00120331
0.00234631
0.00189465
-0.0011266
-0.000768037
-8.21346e-05
-0.000758737
0.000840873
-0.0024166
-3.88526e-05
0.00245545
-0.00220638
-0.0029948
0.00520118
0.00249807
-0.00207953
-0.000164506
4.81592e-05
0.000116395
-4.3563e-06
-0.00232884
-6.075e-05
-7.37703e-05
0.000134553
-0.000272822
-0.000157446
0.000430251
8.26226e-05
-4.72963e-05
-3.53265e-05
9.82423e-05
-6.89136e-06
7.73844e-05
-0.000268387
0.00217577
-0.000706235
-0.00146953
-0.0015896
0.000793476
-0.00108707
-0.000292413
0.000269944
7.31767e-06
0.00074773
-0.000146179
-0.000601568
8.33378e-05
-9.43461e-05
-0.000128229
-4.69167e-05
-0.000225903
-0.000255436
0.0001733
0.000578035
-0.00089327
0.00294795
0.00210032
-0.0050483
-0.000355555
-0.00182164
-0.000221835
-0.00453435
0.000494569
-0.00298022
0.000878278
0.000293949
-0.000212021
-0.000323948
0.000535985
0.00163882
0.000536952
-0.00228913
-0.000248807
-0.000158814
0.000630568
-0.000471728
0.00308417
-0.00269446
-0.00038971
-0.000923417
0.0002258
0.000697614
0.00147372
-0.000348197
0.00236514
0.000144327
-0.00250946
-2.42036e-05
0.00103037
-0.00100617
-0.00206342
0.0024318
0.000269065
0.00242676
4.50596e-05
0.000347926
-0.000393008
0.000635191
-0.00333558
0.00270033
-2.58405e-06
-0.000233074
0.000235662
0.000198409
-0.00369952
-0.00472304
-0.00147378
-0.000220964
-0.00247882
0.00230308
0.000175739
-0.000459334
-0.00330829
0.00377396
0.000457376
0.000290361
-0.00268911
0.00275687
-6.77763e-05
-0.000145165
0.000723191
0.00137148
-0.00027833
0.000716722
0.000141596
-0.00105286
-0.00192234
0.00297519
-0.00138283
-0.000321728
0.000469182
0.00307543
-0.0042057
0.00113029
-0.0044187
0.00736666
-0.000136436
2.07887e-05
0.00011568
-0.000997261
0.00157769
-0.000578515
0.000269022
-0.00332834
0.00689775
-0.00356939
-0.000273411
0.000286531
0.00304484
-0.00333138
-4.49477e-05
0.000120413
-0.000885947
0.00368891
-0.000187085
-0.00250203
-0.0018208
-0.000864508
0.00224008
-0.0139016
-0.0058437
0.000363714
-0.0001145
-0.00024921
-0.000486313
-0.00227175
0.00275806
-0.00375706
-0.00400136
0.00775843
-0.000739957
-0.00133359
0.00207352
0.00149315
0.000529822
-0.00203791
0.00150808
0.000670225
-0.00147125
0.00401755
-0.000831242
-0.00318634
0.000198054
9.312e-05
-0.00187014
0.00245007
-0.000579955
0.00152664
-0.00679336
0.00526673
-7.62156e-05
-6.02243e-05
0.00141926
0.000656626
-0.00207589
-0.000309382
0.000248636
0.000162802
0.000200906
-0.0012266
0.00346337
0.00139271
-0.00139707
-0.00186003
-0.000975064
8.97058e-05
0.00539708
-0.00476033
0.00168843
-0.00583802
0.00414958
0.000136195
1.69848e-05
0.00120699
-0.00164145
0.000434405
0.000343194
-0.00116078
0.000488077
0.000232404
0.00207358
-0.00192765
0.000541597
-0.000880102
0.000202435
-0.00015379
-4.86584e-05
-0.000947603
0.000351924
0.000488949
-0.000840875
0.00112593
0.000319678
0.000397037
0.00440746
-0.000147628
-0.0042598
-3.95667e-05
-0.00105933
-0.00390952
-0.00187107
0.00265288
-0.00078181
0.000296686
0.00590883
-0.00620548
0.00103201
-0.00290306
0.0008033
-0.00261573
-0.00120822
0.00150472
-0.00101257
0.000742365
0.000270204
-0.000439905
-7.30833e-06
0.000447222
-0.00603821
0.00106933
0.00496889
-0.00209709
-0.000254595
0.00235171
0.00380929
-0.00219339
-0.000151859
3.83062e-06
0.000148018
0.00124423
-0.000652855
0.00208333
0.00193424
-0.00233993
-0.000528254
0.000817601
0.000117682
-0.00259729
0.00131148
-0.00132674
-0.000352891
0.00167964
-6.91882e-05
8.99827e-05
-0.0016312
0.00276462
0.000497581
0.00397047
-0.00278711
0.000346619
-0.00179611
0.00015963
-2.34408e-05
-0.000498863
0.000382766
-0.000598899
-4.44923e-05
0.00506435
-0.00474911
-0.00031523
-0.000377807
0.00033456
0.000227767
-0.000180853
-4.68748e-05
0.00218442
-0.000423426
-0.00176095
8.83125e-05
-0.000157518
-5.31847e-05
0.000210689
-0.00103666
0.00123217
-0.000195454
-0.00495379
0.00074987
0.00420392
8.35882e-05
-0.000180543
-0.00364526
-0.00239296
-0.000276699
-6.05898e-05
-0.000125538
0.00015582
-7.32137e-05
-2.12939e-05
6.23871e-05
-4.10895e-05
0.000184875
-0.000214542
2.9644e-05
0.00243797
-0.00206475
-0.000373236
0.00582484
-0.00528021
-0.00539386
0.000155289
0.000828865
0.0016091
0.002307
-0.000802461
0.000131822
0.000670653
-0.0022136
0.00335541
-0.00114175
0.000680657
-0.00367752
0.00565178
0.00268125
9.70837e-05
-0.00277835
-0.00239891
0.000528764
-0.000996318
-0.00257532
0.00357164
6.77756e-05
7.7353e-05
0.000791715
-0.000585573
-0.000206156
-0.000423868
0.000277705
-0.0013641
-0.000624096
-0.000625884
0.0014912
-0.000865309
8.81077e-05
-1.51799e-05
0.00200809
-0.00360174
-0.0022171
0.00342408
0.00329465
-0.00160621
-0.00158543
0.000123033
4.09489e-05
9.76453e-05
-0.000138595
-0.00225007
0.00119075
0.00418247
-0.00740536
0.00202397
-0.00248762
0.000463626
-0.000448743
8.76524e-05
-4.67788e-05
0.000209582
-2.37195e-05
6.23079e-06
0.000732933
0.00013493
-8.48158e-05
-0.00040299
0.00019102
-0.000209096
5.97023e-05
0.000726607
-0.000904155
0.000177559
0.00128706
0.00255163
-0.00134201
-0.00140071
0.00328748
-0.000123113
0.00269097
-0.00254024
-0.000150728
-0.00417289
0.000409707
-0.000305845
0.00277645
-0.0059882
-0.000358063
0.000311273
-1.72496e-06
0.000485249
-4.37468e-05
0.0036034
-0.0019141
0.00274653
-0.000538675
-0.00220786
-0.00189777
0.00251207
-0.000614305
-0.00168691
0.000538989
0.00114788
0.00414585
-0.00379464
-0.0049683
0.00301887
0.00775777
-0.0107767
4.12957e-05
2.11973e-05
0.000149257
5.71488e-05
-0.00121422
0.00115708
0.00344092
5.18115e-05
0.000899592
-0.000951419
-0.00187827
-0.000648287
-0.000905621
0.00635556
-0.00544996
0.000337064
-0.002888
0.000637921
7.99338e-05
-0.000107359
-0.00306194
0.000630127
0.00243181
-0.00251165
0.00222787
0.000283749
0.00288275
-0.00173899
-0.0013411
0.00175611
-0.000415005
-0.000797553
0.00282151
-0.00408485
0.00783457
0.00151899
-0.00123118
-0.000287842
-0.000850033
-0.000413866
0.00126391
2.34344e-05
-2.26937e-05
-7.39252e-07
0.000824121
-0.000465216
-0.000358897
-4.19942e-05
0.000344129
-0.000502959
-0.00357433
0.00494876
0.000118682
-0.00506745
6.36484e-05
-0.000183768
-9.87673e-06
-0.00196539
0.000624324
0.000983726
0.000569231
-0.00245338
0.00326261
-0.000809157
-0.00114652
0.000344062
-0.000928369
0.000380843
0.000547547
-0.00400691
0.00243569
0.00157125
0.000395839
0.00466851
0.000116744
-5.41813e-05
-6.25763e-05
0.000435884
-5.29977e-05
4.42484e-05
-0.000911041
0.00673585
-3.34022e-05
-7.84478e-05
0.000111849
-5.61986e-06
5.61795e-06
0.000636829
0.000133686
-0.000770483
-0.00292142
0.000581491
0.0073711
-0.0046764
-0.0026947
-0.00399091
0.00207658
3.91385e-05
-2.69711e-05
-0.000197858
0.00016031
3.75326e-05
0.00155221
-0.00144009
-0.00250276
0.000604992
0.000113579
0.00636494
0.000126987
-6.07688e-05
-6.62312e-05
-0.00935902
0.00660246
0.00275653
-0.00244398
-6.76738e-05
-0.000454398
-0.0010849
0.00153934
-5.48914e-05
-6.42372e-05
0.0015389
0.0014641
-0.00300299
-0.00216146
0.00245815
0.0023744
-0.000507089
-0.000835926
0.00231679
-0.00148087
9.19178e-05
-0.000315068
0.000293351
0.0030907
0.000509297
-0.000186824
0.0043985
0.00062089
0.000292921
-0.000918818
0.000158668
-0.000554629
0.000395998
0.00198632
-0.00163972
-0.000103603
-0.000218114
-0.00151863
0.00162803
-0.000551051
0.0019703
-0.00252934
0.00261824
-8.89038e-05
-7.38304e-05
0.000333904
-0.000260083
-0.00601053
0.00902942
0.00164785
-0.00102539
-0.00062247
-0.00148792
0.00103347
-0.000354927
-6.89412e-05
3.68738e-05
0.00261534
-2.31382e-05
-0.00259222
-0.000854688
0.00104426
-0.000189594
0.00131445
-0.00295512
0.00164069
0.000230045
-0.00291421
-0.00251317
2.62986e-05
-0.000236163
0.000209904
0.000228597
0.000441616
0.00137062
5.17516e-05
-0.00142237
-6.85451e-06
0.000168865
-0.000643699
0.00437622
0.00553238
-0.000662085
0.000720421
0.000539901
-0.00126031
0.0013576
0.000828922
-0.00011929
-0.000709634
-0.0020761
0.00143433
0.000641765
6.98929e-05
-0.000389546
0.000854772
-0.00154485
0.000690066
-0.00204587
0.00336035
-0.000152371
0.000611963
-0.000453279
0.000768207
0.000191135
-0.000959338