/*--------------------------------*- C++ -*----------------------------------*\
| =========                 |                                                 |
| \\      /  F ield         | OpenFOAM: The Open Source CFD Toolbox           |
|  \\    /   O peration     | Version:  v2012                                 |
|   \\  /    A nd           | Website:  www.openfoam.com                      |
|    \\/     M anipulation  |                                                 |
\*---------------------------------------------------------------------------*/
FoamFile
{
    version     2.0;
    format      ascii;
    class       volScalarField;
    location    "250";
    object      omega_0;
}
// * * * * * * * * * * * * * * * * * * * * * * * * * * * * * * * * * * * * * //

dimensions      [0 0 -1 0 0 0 0];


internalField   nonuniform List<scalar> 
14479
(
0.0583984
0.0410806
0.0279789
1.36429
0.225911
3.384
0.0222673
0.0218912
0.0225443
1.96291
0.1177
1.3751
2.61573
4.10941
1.30601
6.66275
2.53976
17.1983
2.2531
0.114365
0.0220679
0.0239002
5.24577
0.254272
0.0226925
0.065087
0.056939
1.96878
1.67593
1.27657
19.0591
2.1421
2.13363
0.0219768
0.0234534
0.0223302
0.0221411
3.60581
0.0273374
0.194933
1.27032
0.0271711
0.0311258
0.0262991
9.78013
0.0961134
6.99877
8.05363
0.0238602
0.0834747
0.022142
3.04603
0.304047
0.151377
0.0237989
0.022405
0.0870405
1.61114
0.0234145
0.139903
0.0281303
0.0224855
0.448815
0.156478
2.72063
1.88488
0.0373672
0.0301015
5.74103
3.79438
2.81751
0.133419
1.3502
7.79958
0.0220704
0.0224875
2.71126
1.44871
1.93303
2.84264
10.8856
0.022167
0.0352225
0.128697
0.0237339
0.0875661
0.169815
0.0221372
2.82527
0.0222428
1.86227
1.81811
5.45666
1.22557
0.0360432
2.11823
0.0234214
1.87981
0.0316753
1.83693
16.2951
1.60899
0.147104
0.0219681
0.0325498
0.0232042
2.96854
1.39263
0.0956673
1.29666
0.0311505
0.0243106
5.09197
0.150505
0.0559024
0.0264404
0.0223788
0.353419
0.0241502
0.148091
0.0233666
0.0221306
2.00401
0.0325216
1.43252
0.0221301
0.0272846
0.0223905
0.0220326
1.60057
0.0224054
5.17462
8.85817
0.0221871
0.0974925
0.11509
0.600389
0.0228908
3.05664
1.41979
0.0228727
3.30865
0.026794
0.292998
0.148816
0.0235709
1.49505
0.0226407
0.0486497
0.024156
2.04643
0.0279555
0.0220765
0.285545
1.38323
0.0419947
2.01338
0.0222711
2.88878
1.999
1.99816
3.56564
2.00623
0.163776
1.69577
5.62882
0.0221075
7.05644
0.0221491
0.0235233
0.022605
0.0844287
0.0224163
0.141894
0.0223315
0.254865
0.022137
0.0240804
0.106872
0.0236219
0.755438
0.0220647
0.0240587
3.84757
0.0221053
0.0777198
0.0306965
0.0267567
0.429445
0.395241
0.0221223
1.96618
0.0332557
0.0222732
2.85352
1.94331
0.40313
2.43654
0.0343884
0.0222814
0.0259612
4.23434
4.01399
0.316297
2.17644
0.0250206
0.0229013
0.148076
0.0241227
0.0884196
1.39669
2.05658
0.0241469
0.029566
0.0221567
0.16168
1.92304
2.34735
0.0221509
0.043667
0.359973
1.44916
2.05978
0.0395428
1.96254
1.73476
0.0243724
0.024128
0.070924
0.022137
0.0234653
0.0222404
0.0367683
3.94358
0.0265076
0.0245787
0.0838402
2.24787
0.022151
0.0230338
1.68179
0.145173
0.0324558
0.0697817
2.02235
1.40195
0.0226065
0.0222963
19.9692
2.1395
0.0218212
0.133218
0.0220935
0.022082
2.22853
0.295009
0.0221577
0.653144
0.0651546
0.2648
11.3301
4.49021
2.09134
0.0971942
0.0221552
0.0390474
0.0221539
2.00428
1.24358
5.51047
1.53109
0.0224373
2.86146
0.0230852
0.0237648
6.60637
1.42017
0.0232358
1.76124
1.39268
3.30396
1.75539
1.97564
11.9014
0.0221868
0.0221514
3.21508
0.0227972
1.39172
2.89794
1.23958
8.15139
0.1069
3.94728
0.0223901
0.0471986
0.0226079
0.0612357
0.0221605
0.0337527
0.022161
1.72319
0.0224966
0.0531263
0.0439627
3.31852
2.81541
0.314347
0.0259403
0.0272925
1.43183
0.11669
0.172311
0.0226987
0.0232469
0.0222613
1.41088
0.0525193
0.0221417
0.0220584
0.0240159
0.022131
0.0235823
4.9316
0.692365
10.3356
2.3372
0.181626
1.78885
0.0223377
0.0430122
0.0615163
2.4811
2.90675
1.52777
0.0221351
0.0302467
0.139134
0.199758
0.0625458
2.37907
0.0368712
2.99022
0.0219814
1.25348
0.0222409
1.79485
2.01101
0.0222641
0.064834
1.21782
1.81575
0.0283039
0.0221818
4.40929
0.0220885
0.0223551
1.45126
0.027075
0.0223913
0.0223556
1.3743
2.02019
0.0223689
1.82825
0.0357804
0.065504
2.96509
1.87688
3.71928
0.20664
1.90568
0.0931636
3.47266
4.44529
5.01801
0.11754
0.0522449
5.14948
0.0226533
0.0226441
0.0368934
0.154955
0.0673281
1.81697
0.126402
0.0220919
0.298948
0.0221274
0.17489
0.0706279
0.0415881
2.5653
3.61969
3.70135
2.09617
1.03295
4.32559
0.0223227
0.0221738
3.99462
3.28381
1.21912
0.0375973
1.60175
0.0270378
2.28362
1.78564
0.0807496
0.0222838
1.93659
2.86092
0.0221086
0.0221647
2.37145
0.0219776
0.853872
0.324759
0.0221793
0.0344223
0.0305529
0.0409184
3.40197
0.162799
2.18528
0.0394986
1.43575
0.0221038
0.0295409
1.06286
15.5112
0.142655
1.59751
0.0247416
0.0393713
1.72784
0.0524297
2.09465
9.35034
0.318261
2.83296
1.91951
1.88197
0.0220972
0.141073
0.0344743
0.0679632
1.22413
0.0303762
0.0261875
0.0221348
1.20249
0.159031
0.146678
0.0222915
0.290431
0.0225264
0.139345
3.48789
1.4465
0.0310535
0.0224896
2.92812
0.216538
3.30038
2.89407
0.0297541
1.36254
3.38414
0.0220716
0.0224297
0.0220169
2.25485
1.58319
3.08984
1.68805
1.49333
2.65581
0.0530982
0.329819
0.0238836
1.44405
0.0674547
0.231261
0.0268329
0.0747748
0.0223042
5.16058
0.710974
2.0454
3.66197
0.0221684
0.0219821
1.84459
5.27962
0.0228566
0.0567417
1.58432
0.255866
0.0303453
0.0268203
0.285398
0.0317827
0.0223336
1.566
3.70242
2.07374
0.0416843
0.0233473
1.5049
0.0395855
0.0854944
0.035852
3.70131
0.0222339
0.0221286
0.02218
0.0221684
10.4131
0.16241
2.74035
1.48792
2.84618
1.7516
2.03393
1.73248
0.0224989
0.0309769
4.06127
1.31861
0.0221528
0.185442
3.5431
3.16693
0.0530147
0.117247
0.277428
7.33943
0.989467
2.24529
3.6964
1.91437
0.0444564
5.79568
0.0226974
0.0221278
2.44178
0.0221279
0.0250868
0.0447679
0.0419788
0.337119
0.0220562
0.0221286
1.75822
0.0225119
5.32594
2.81338
1.66541
2.47434
0.0397045
1.45028
0.0306318
2.05502
0.02253
0.282744
0.0529955
0.0222028
0.0229299
0.0321408
0.0313241
0.0220751
1.95932
3.9491
0.0308861
1.604
0.742398
0.0224522
0.0304159
0.190263
1.80561
0.0225217
0.0586922
0.029326
1.99487
0.022489
0.0220505
1.9776
1.84735
5.14389
0.0636486
0.0221813
0.0222165
7.02905
4.75071
3.96149
0.0219869
0.0221555
0.0258301
0.0223726
1.8753
0.0221472
5.7948
2.61075
12.971
0.0221439
2.63008
1.44164
0.0233509
0.0747173
0.0230069
1.65395
0.0498065
0.0221226
0.0221476
0.0222106
1.7785
0.3212
2.00959
0.0223357
0.0220715
0.0605635
0.0436839
0.0300921
1.82539
7.62384
0.0223464
0.0221006
0.034724
2.00174
0.0666635
0.0365516
0.0221843
0.393328
0.0474127
0.022112
0.0219409
1.22841
11.6044
0.0221574
13.046
0.27311
0.0221062
3.95251
5.00734
0.022455
0.0257325
0.022865
0.0382289
1.86471
3.99135
0.170226
0.0221095
1.70729
2.93571
10.1084
1.53083
0.0477042
0.0222208
0.0270825
9.98339
0.0219218
0.0228753
1.77278
1.29647
0.0263964
0.0229107
0.462814
2.12862
0.0220693
0.0219837
0.0295546
1.96393
1.30943
3.76366
0.261216
1.51147
0.0351201
5.49911
0.0674712
0.0222589
0.0299743
2.09195
0.0221284
2.16718
0.0322512
1.39476
4.99494
0.0520705
4.09727
0.0228073
0.0484718
2.01848
0.650003
2.56325
2.79526
1.53999
2.85314
0.0287461
0.357376
1.40133
1.36474
2.85788
0.0221665
4.48262
2.27027
0.321123
2.22929
0.0266108
12.4417
0.0220916
0.0260445
2.90857
2.20863
2.6122
0.0228283
0.0227834
2.23627
1.77673
0.191702
0.46137
5.96472
0.0258678
1.89009
4.7165
0.0239132
4.92626
1.88873
2.34003
0.0220377
0.0231239
2.55622
0.0222688
0.0221488
0.0219283
0.022468
0.0616472
0.0708729
0.025882
0.0221094
0.0222668
0.0221662
0.0222809
0.022276
0.0236433
1.66442
2.51136
1.27701
1.47489
1.65825
0.246721
0.0334076
0.0223423
0.0251142
0.0663538
3.96384
0.0280368
1.8007
0.0384941
0.0303222
0.420458
0.0371059
5.07935
1.40681
0.0222683
4.57223
0.0221241
1.86662
2.71119
0.173951
0.0928135
1.77136
1.8544
0.0577109
0.0222511
6.94427
1.48067
1.73737
0.0236766
2.27417
3.14566
0.0222992
24.711
1.87242
0.0219783
0.0452969
1.36334
0.265513
0.0277529
1.59966
0.0220873
11.7664
4.75419
1.95227
4.02253
8.06785
1.28449
0.862266
0.28568
0.161235
2.00698
0.0599959
0.0835253
0.124933
0.0224657
1.49649
3.37851
0.0219783
2.08538
3.13247
1.27604
2.14854
0.0232849
0.0386553
4.95869
1.93288
0.0865949
2.5758
0.0582241
21.9774
0.0256571
4.02108
0.0259259
2.05691
0.0381368
15.7159
0.176956
0.0238071
0.0624336
0.0222537
0.101526
2.49677
23.91
2.73823
1.44164
0.156715
1.52816
0.0256605
1.91906
0.695574
4.06314
0.0225977
0.0352723
0.120458
4.70737
0.0236459
3.17361
0.317058
0.0219777
0.075104
4.43659
0.164789
0.351231
3.64801
1.36124
0.0227268
1.97621
0.0294458
0.0220338
0.0620143
0.0225946
0.0295745
0.0244082
2.51188
0.0327904
1.88812
0.0229341
0.0219768
0.0221413
0.0222093
2.00572
1.51573
2.97812
1.90225
1.51556
3.76843
0.0589259
2.04685
3.39437
2.45446
4.55232
0.512004
1.48063
0.039958
0.022328
0.0225873
0.0222596
0.103383
0.105965
0.0224168
0.0730507
0.057672
0.0839949
1.36523
0.0225148
0.022247
0.0950632
6.42339
1.40072
0.0351091
1.2576
0.0220347
0.145718
0.0228186
0.0251044
0.0221509
0.0252019
0.0555028
4.07954
2.09617
1.75965
3.29884
0.0221036
0.110358
1.24918
0.0221765
0.0221522
11.3358
1.87814
7.26965
0.0255509
0.772017
1.90693
0.883885
0.0219562
0.0221325
2.32195
0.268275
1.39302
0.0313416
2.06301
0.841163
0.0969556
0.0219986
0.588209
1.48539
3.44983
3.22032
1.40315
0.432855
0.0248854
20.1816
0.0222614
0.033805
0.0219501
0.0284654
6.12309
1.95546
0.336196
0.0221324
3.39302
0.0305836
1.72738
2.02382
0.0641816
0.0236796
0.0708926
1.99266
0.0221075
0.0234877
0.0225526
3.07913
0.0220221
0.0222734
3.88303
7.3648
0.287037
0.0628807
0.022284
0.0223299
8.09234
5.65419
2.96564
0.0222431
0.319369
1.47263
0.0321861
0.0218677
0.0336717
25.4234
0.0943944
1.83109
0.0260331
1.29768
0.143764
0.0420822
0.358654
0.10546
0.0221719
0.313469
0.0222775
0.0298529
1.96871
2.03531
0.0221576
0.90612
0.0225961
0.0320075
0.0222401
0.0248824
1.76002
0.0223738
1.50062
0.0395407
3.024
0.0220347
0.0768612
2.05506
0.0220802
0.0285121
2.03867
2.12183
0.0590294
1.81638
0.0530697
20.4752
0.0226291
0.0386991
1.52609
0.0674017
0.0221671
0.0224695
1.96373
0.0221038
4.52468
8.28834
0.118555
0.0546739
4.57942
7.56274
1.94249
0.0222661
0.0495896
0.0839955
0.0381014
0.0221465
0.104065
4.25589
0.0817094
1.96388
0.0243504
1.51059
8.87954
0.302184
0.385372
2.87742
0.0222097
0.153298
0.0619575
3.09598
1.8196
0.0277339
1.78115
1.49817
0.0567708
0.858305
2.81017
5.52342
0.546011
0.0224724
0.343126
0.022211
0.0221602
0.0275417
0.0221581
2.57824
2.97629
4.1646
1.80985
2.59988
2.33498
1.43291
3.8871
0.0724515
0.0416953
14.0026
2.96555
12.201
0.0222242
0.0222765
1.77397
0.0261247
0.04045
0.0221471
0.108555
0.0228107
1.77443
0.0343126
0.244212
0.0331825
1.96754
0.271615
1.58393
0.0222515
0.0242711
0.138966
0.509583
0.0226893
0.0372974
0.0397508
0.227355
1.98627
0.0268214
0.0220318
0.0582424
3.36527
0.0221977
0.0513115
4.74628
3.86918
1.2726
0.039209
8.68545
0.0219856
0.0222398
2.8904
0.190196
0.130905
0.0221469
0.106908
1.66592
1.44564
5.21467
0.0224314
0.0222198
3.22028
1.40215
0.132659
1.43874
0.0808539
0.0222349
0.0266784
2.4294
0.0230305
1.80766
0.301754
0.0241769
1.28576
0.366219
1.37537
0.0222574
0.0398094
0.831445
0.0327883
1.85796
1.42656
3.60012
0.0408685
0.0579465
0.0261443
1.77202
0.0221665
0.0378345
0.126496
0.0220924
0.207999
0.0243027
0.0222673
0.684356
2.10669
2.94599
7.30331
0.781805
0.0313822
0.0649864
0.022173
0.0300407
0.0219228
3.22142
0.223282
0.0407832
0.0371636
0.0577366
7.07966
0.159952
0.0220428
1.2708
2.05619
1.49856
0.0221648
0.0222142
0.0238056
7.63722
3.73599
1.55279
0.337479
9.30839
0.132084
0.0227748
0.0360685
0.0303021
2.15718
3.21369
1.37437
0.023909
0.0350659
0.0231876
0.0219842
0.0221676
0.0220363
0.0220324
1.52222
1.43835
0.0530479
1.85122
1.29182
0.0270105
0.0368537
8.81352
0.0223225
0.0274022
1.97121
0.0221535
0.0220396
0.0367827
1.74439
0.0220706
5.95823
0.277257
0.0221592
0.0220753
2.83422
17.9151
2.18303
0.0307986
0.0221294
0.391852
0.0321187
0.0220385
1.52444
0.0224068
3.74638
0.159723
1.44258
0.0575358
2.52026
0.0376155
0.0218142
1.93847
1.35736
0.0233476
2.84296
0.0999085
0.034626
1.98318
0.023254
0.0221401
1.33128
5.46617
1.32187
2.07202
0.0219424
0.0774258
0.652925
1.31445
2.5701
0.0369701
0.0280805
0.0886184
0.03811
0.0402848
0.0303226
0.0222126
3.08599
0.0323162
0.0221303
2.61155
0.819183
0.418081
1.19569
0.0294113
0.0222626
3.79966
0.051349
2.89853
0.146144
1.444
0.451924
0.0225202
0.0399564
4.30718
7.51075
0.031374
1.76423
1.94676
2.77805
0.0219759
0.0220112
0.138685
1.6933
1.75801
3.37659
13.3854
0.0219459
0.0221603
1.91519
0.158364
1.4407
0.459928
0.0240579
2.58546
0.0632468
0.0920792
1.82027
0.0222139
0.265508
0.0388517
0.0650579
0.0626084
0.151767
0.0221243
1.49821
5.54466
2.00305
0.0645529
0.0224556
0.0363201
0.0418681
1.78694
0.0232678
0.0221492
0.0415113
7.5102
0.0221112
0.426552
0.0533899
2.08401
1.53158
1.26236
0.745614
0.579378
1.28172
0.0227408
0.0220967
0.462724
0.0226373
2.08531
2.42421
0.0220794
0.0434923
0.0222808
0.0221506
1.96941
0.0944848
2.30493
0.0231566
0.0933696
0.0221694
1.53013
0.0224946
0.0362851
1.96551
0.0234246
1.45048
0.317273
0.176486
4.3375
1.84011
0.03175
0.0220885
3.82603
0.0519362
13.3195
0.0264719
3.54338
0.0221773
1.53303
3.00197
0.11942
1.76421
1.45106
0.886738
0.0239537
1.94798
0.610792
1.4714
0.0221152
0.0234001
0.0638292
0.355464
2.89659
0.131506
0.0245025
0.0911513
0.0262457
0.0351875
1.39233
0.0516336
0.022441
1.33064
0.307798
6.31833
0.0654541
1.87508
0.0668924
1.69872
0.0545966
0.0346238
0.0292139
1.1361
0.0635055
21.1888
2.61039
0.121118
0.0221321
12.9926
1.47402
0.0835767
0.022088
1.47735
0.569976
0.0322745
0.0220551
2.04691
1.39258
0.168221
0.788945
0.095774
0.0266473
1.6922
0.549459
2.05973
10.4138
1.6287
3.41688
12.3326
0.03121
4.16286
2.95777
0.0619915
2.52921
0.0222573
2.72009
2.06342
3.01117
0.0221621
0.0257656
0.0615087
0.0237715
1.76453
0.0655314
0.417696
0.0338606
0.143749
1.20286
0.0244313
0.0224409
0.021974
0.0235789
0.0469399
5.14411
3.11929
0.0348683
0.0368524
0.0286804
4.82588
6.88168
3.05431
0.136626
0.022126
0.0313124
3.01288
0.204874
2.4211
1.44189
0.0224681
0.248338
2.54051
1.76873
0.0222691
0.0221482
0.0239384
0.0910472
1.57192
0.022069
0.130166
0.0247864
0.0221098
0.0226647
1.95338
0.0221809
1.95278
0.0226344
0.0250209
2.34279
0.0220593
5.61145
1.44451
0.155192
5.87096
0.0331932
1.82509
1.50714
1.51823
1.62817
1.70583
1.39427
2.31882
1.29842
0.14536
22.1092
0.109716
3.11941
0.229626
0.126982
4.6603
9.94477
2.19591
0.136982
1.66885
3.32928
16.4487
1.93451
11.8074
6.32495
0.0221517
0.511117
0.0224965
3.27935
1.39656
0.0249225
2.09906
0.635918
0.0253126
3.09087
0.0220676
0.0812586
1.25455
0.0227086
25.9818
23.307
0.345249
2.54107
0.0229382
0.0601952
2.115
0.0222471
1.1582
0.128953
0.023262
3.43265
0.222595
2.72831
6.4547
0.170581
3.47327
2.04371
0.201699
8.33307
2.59011
0.0553848
0.0221666
0.0238148
1.46598
3.10124
0.0275784
1.45604
0.0222492
3.25715
1.20921
1.98606
1.87999
0.026381
2.58988
0.0551684
12.5024
1.61214
1.86706
0.0387207
1.81731
0.0326153
0.0676919
2.59711
0.119516
2.04549
0.0933112
0.0321248
3.02169
2.45042
12.4718
0.0521356
0.040519
1.53796
0.0222713
0.0223571
0.0306862
0.0224235
12.7892
12.9341
0.0222744
1.27944
2.09409
0.0601488
0.0287612
0.0245649
0.210119
0.0247847
0.0222193
0.0222647
2.87744
1.77438
1.53877
0.0314203
1.39043
4.36302
3.91232
0.0220599
0.0218433
0.0220843
0.0857761
0.0541602
2.474
0.0645846
0.0300441
0.284939
0.0228826
0.0221539
0.0255119
0.100291
0.0729122
1.43695
1.11651
0.0221574
5.20338
0.043058
0.0983458
0.100143
0.0437683
0.02567
1.8221
0.0222977
0.0222509
4.02667
14.1102
0.0567986
1.35478
0.0515917
1.47166
0.21346
1.78468
1.52765
0.0221248
2.453
0.0219726
0.0221748
2.46074
2.53044
0.0222066
1.63857
3.21066
0.112937
0.022253
1.02156
2.12628
0.0947462
1.24439
1.43521
0.0220424
1.39249
0.043222
1.50226
13.0398
0.0222107
5.4385
0.0323597
0.0222485
0.0246
0.022112
0.28518
1.01035
0.0222861
0.173831
0.277596
0.0387691
0.0251305
1.43991
0.0218194
1.38878
12.0726
0.0389573
0.0552107
0.0220448
17.5574
0.0221631
0.0623876
0.0245189
3.6676
0.85945
1.55985
0.0538854
7.91364
15.7336
1.20251
0.0218369
4.48446
0.131753
3.30428
0.0236341
3.42671
3.12831
1.38515
0.108291
0.0221156
0.0222324
0.127307
1.28563
0.0222565
1.30608
0.0227212
2.24121
0.0274059
1.44481
0.0723035
0.0220428
0.0228595
2.89751
3.55576
1.57327
3.58101
1.81749
2.07654
0.80991
0.0500877
0.022148
0.026528
0.0259353
11.5958
1.36386
0.0732749
0.0304406
5.20437
1.42291
1.24912
2.51764
1.50163
0.0219269
0.0241478
0.0433506
0.0824587
1.55907
0.0224103
2.71347
0.0221609
2.08796
1.81857
0.0253872
1.51516
3.53918
1.2797
1.62896
0.0343736
0.131686
0.0253446
0.0537657
0.101839
1.4967
0.285744
0.244101
0.022191
0.0220229
0.0408945
10.9283
4.83214
0.180312
0.0220638
0.0225478
0.0222354
6.00428
0.569074
0.0247555
0.106202
4.71743
4.44758
0.040388
16.257
3.82471
0.0222095
1.54628
0.0962982
0.0221306
0.0224638
0.028066
0.0222102
2.68132
0.0231237
0.0251753
0.0223073
0.0353277
0.0222231
0.0227714
1.66733
0.0238846
1.56519
1.79105
0.0244949
2.90577
1.42356
7.72859
0.0311138
1.46945
22.9215
2.15096
21.9369
0.0222597
0.150531
1.5969
0.0221747
0.150644
0.0265897
0.488911
0.0771515
0.0358276
0.0528956
8.18679
0.0884161
0.142197
0.0278373
2.42742
0.0380697
1.50246
1.62367
1.83886
18.3506
0.0222726
0.0290119
0.0222071
4.40104
0.0223364
0.108989
0.0708672
21.0163
3.76521
1.42068
0.0241296
1.96708
22.5481
0.0232083
1.79275
0.254776
2.25554
6.74053
0.0249626
0.0234895
4.71448
1.29524
2.28142
1.62795
1.68196
0.0221323
1.76191
3.0321
4.43393
1.84313
0.0265456
0.0305466
0.0433547
0.0229262
0.140126
15.2582
0.139048
0.0304709
0.0221573
6.71884
2.22556
0.254204
2.36698
0.040638
1.18051
4.27497
0.0222319
6.3626
1.44683
2.54142
0.0641692
18.6561
0.0221928
0.0506365
1.44187
1.45423
0.29248
0.10141
1.64381
7.89188
2.05084
0.0227628
18.9183
6.40658
0.348448
18.7945
0.0308451
0.933474
0.0224635
0.0285826
0.0225245
0.0623395
0.0230215
0.0476363
0.106068
0.171248
0.0236748
1.62301
0.0305956
0.0222015
0.0243931
0.0480242
5.22945
0.0221372
1.24179
2.5186
0.10922
0.0284406
1.27052
1.39478
0.0222303
0.0525765
0.0222279
0.0258378
2.41075
0.67437
1.99123
2.00337
1.79777
0.0222041
8.50527
0.0224152
0.0363286
2.89437
1.33927
0.023151
0.421799
0.0938239
0.0227539
0.235632
0.0223921
3.17564
0.0231195
9.86261
2.12025
0.0279347
2.6528
0.0222569
0.0221484
1.99504
0.0507977
1.41713
1.64867
1.96285
0.0220325
0.0582448
0.0574899
0.0367674
0.0321538
14.4974
0.0461847
0.0222951
0.0370037
0.0685941
1.35424
3.6608
0.022273
0.0516165
1.30814
3.13489
0.0538165
1.4947
0.0235658
0.029377
0.0563324
0.0221563
0.0316405
0.0222203
1.99797
0.0692501
2.18542
3.08984
1.81732
1.83412
0.0220326
0.0263845
0.0500664
0.0221714
0.339537
1.98281
1.38272
0.0257737
1.24456
0.0221476
0.242724
1.24505
1.61785
1.5602
1.75573
3.26372
18.2221
0.0252344
0.0221487
1.30254
0.0272628
0.0222434
0.0221597
3.59338
0.683292
0.117197
1.98462
0.0221602
1.447
0.0563346
1.82893
2.22406
4.42202
0.027603
0.0584608
2.49471
0.0533187
0.320847
0.170443
0.0338858
0.125115
0.0296833
7.44214
3.36301
1.8027
0.0481842
0.0220948
14.1937
2.48806
1.37689
0.0222203
1.38649
1.9699
1.42804
2.6031
1.86936
0.0303719
1.54132
2.43827
2.17368
0.0227276
3.83595
0.0229378
0.485203
1.93991
7.86492
2.18517
0.0222624
0.0341325
0.0760087
1.67181
0.0369854
1.69684
0.0245349
0.317229
5.40008
0.0224074
0.0221986
0.117501
0.0249471
0.0232449
3.54452
2.97039
0.0494365
0.0227613
1.42641
0.0236385
0.0221578
0.02318
1.73294
1.44244
1.68316
0.0229445
6.07479
0.0222611
2.62842
2.86981
0.0222472
0.0425161
0.031076
6.31711
0.0505199
0.0837207
8.65213
0.0230171
4.84974
0.0219856
0.0228954
0.0220836
0.022147
0.0224167
0.0234576
0.725173
1.95983
0.287648
0.0366995
0.143802
10.2643
0.378916
4.52166
8.04577
0.0222431
2.47714
0.115726
4.47564
0.0284995
4.48351
0.0238496
0.0885764
0.0282366
5.73333
0.0221052
1.29535
18.1712
0.0239587
0.0741336
4.63798
0.0484964
0.032899
0.0222971
4.53421
0.0243811
0.503802
0.0222689
0.0231388
1.31087
2.1753
2.58392
0.0223168
0.0254314
2.75408
0.0221562
0.0220669
12.2649
3.07262
1.61395
0.0222424
0.0352793
0.0221486
1.91304
0.0489797
0.0231486
2.54249
0.688265
0.0484439
1.94107
0.0863919
0.0221663
0.0274457
0.0222027
1.63852
0.0220898
0.0235598
0.022191
0.178844
0.0221732
0.0221381
0.0234391
6.50536
0.0346758
0.0253713
0.0542966
0.126963
0.0437906
1.36512
2.09011
0.0285713
0.0221801
0.0578614
0.25214
0.0984839
8.14483
1.32569
0.0231984
1.4464
0.0220906
1.96253
1.83805
1.83519
0.0230505
1.45782
0.022153
0.0281022
0.0483741
0.0542148
0.0398791
2.68554
0.0237583
0.02506
0.14209
2.57911
0.0465614
0.074538
8.01947
0.0262077
0.70403
0.032498
1.2211
0.0293588
0.777102
0.402116
0.239433
0.0312057
0.0235438
1.82206
2.18297
2.93882
0.0235477
0.0706302
20.3731
0.0486796
0.0219696
0.0546884
0.0235743
0.0233583
0.130442
0.0773583
1.56433
2.11324
14.248
0.0250808
3.31847
2.65904
2.67842
2.3269
0.0235621
0.0221548
0.0224395
10.1746
0.62895
0.0343224
4.45606
1.79939
0.0235643
0.0471964
4.58772
1.66668
0.0226761
15.2541
0.022056
4.80125
0.213623
16.433
0.035875
0.0542116
2.9667
0.243923
2.13121
2.86189
1.29034
0.0235606
0.0261457
0.0564381
0.0222895
0.0368972
3.27923
1.77754
0.022262
0.022083
0.138068
1.5238
0.722453
0.0361374
2.41888
0.0240253
2.62285
0.232067
1.39022
0.0224567
0.0246886
2.77528
16.771
3.00092
2.07376
0.241852
1.66504
3.50568
0.0220457
1.37724
0.0394311
0.0220742
0.022032
1.06487
0.288034
0.0219989
0.0221958
3.45562
0.0230587
0.241913
0.0225891
0.0222768
0.279417
2.09744
0.0225052
1.99659
0.601685
0.0220458
0.0396984
0.217314
0.144582
0.125441
2.07065
0.0241003
1.03514
1.36109
0.251679
0.023863
1.41256
0.0229276
0.0939546
0.0238083
0.577847
4.5955
0.0224356
0.285747
2.15811
0.0302787
0.0221214
0.0333898
15.8421
2.25059
1.77334
0.123111
0.461197
7.17962
4.89313
0.022594
2.02864
0.814758
0.115123
1.79102
0.30541
1.02423
1.71748
4.6988
0.0393948
1.41121
15.1024
15.3815
1.89254
2.63953
0.0242694
0.0425371
1.69666
2.56963
0.0222032
0.0223012
5.09331
0.0222615
1.56045
2.02799
2.7863
3.4822
0.0312865
0.628579
2.31701
0.0219591
0.022257
0.0503421
0.321518
1.64547
1.55126
1.33442
2.01387
0.0348789
1.6632
1.64223
1.87843
0.0599589
0.0510006
1.73862
5.22013
0.0227422
1.40238
0.159672
0.0496076
0.0222009
2.47832
1.98752
0.0222185
0.0221895
0.0229133
0.0222758
0.903112
1.82588
0.0353787
2.49069
0.373317
0.0222159
1.548
0.0272863
0.0252993
15.8589
0.0221721
0.025422
1.28864
0.0621873
0.154731
0.0227805
0.0223776
1.60215
0.0543553
2.88222
1.27319
2.50935
1.64693
0.0218082
3.1344
0.0235126
1.73387
0.0221422
15.8307
1.43517
0.025055
1.865
2.08555
0.0240518
0.221184
0.0219557
6.75429
0.395939
0.0314671
0.0221428
0.057274
0.0222727
2.60236
0.0465287
0.0220965
0.022266
3.29194
0.285472
0.0405808
0.0219773
12.7096
0.0269224
1.42181
0.0238026
0.0261808
0.0256894
0.0527321
0.0222822
0.244776
0.0252776
2.06184
0.0250256
0.0241352
0.704421
2.97761
0.0232908
3.34348
0.026012
0.0455012
0.0221298
2.84371
0.655076
0.182284
1.85821
0.0220735
0.193436
1.18918
4.56275
1.04781
0.0221516
2.18358
1.34502
0.0620444
2.63556
0.0301873
0.0596548
10.0333
0.0218379
0.0249082
0.988836
2.92534
0.0225877
0.0571928
1.33445
0.0236171
1.69811
1.96913
2.83254
1.11216
0.0246344
1.52941
0.025445
0.0234093
0.483692
0.112356
0.0600494
0.0229828
0.0402149
0.053569
0.0223055
0.0224216
0.0294632
0.0359399
0.0221519
0.0251597
0.0223403
0.268269
1.44861
0.0564178
0.0219985
0.0944636
1.63526
0.0379015
0.0227899
0.0222127
0.934022
0.0218038
4.4155
0.0229252
0.0516559
0.0220293
0.0974399
0.0808163
0.0350944
0.0821964
0.0290197
1.8794
6.3691
0.0221378
0.0221539
0.0226831
1.39252
1.51321
1.56974
0.155035
0.228444
0.0219796
0.0226752
0.441439
2.7005
2.67469
0.0539063
1.88872
0.0221891
0.3366
0.0220354
0.308196
0.0593878
2.16145
0.0236535
0.0486018
0.0220672
0.240893
4.31171
0.0338504
1.38912
2.63929
1.75103
0.464199
0.0282934
0.0296183
0.0221614
4.58945
0.028425
0.146051
0.507348
0.0375282
0.0222046
0.0249314
0.0223808
3.96039
0.0257549
0.0232364
1.888
0.0221075
0.0399698
0.103964
0.0250575
0.261711
0.022298
0.0532932
0.0293587
0.112076
0.0222919
0.0222244
0.163751
0.24602
1.99719
0.504444
0.986755
1.95546
0.0221838
1.6986
0.209438
2.66827
0.329653
0.0240448
0.0615916
0.0278994
0.0227756
0.0226257
1.92777
0.189298
0.0367077
2.10391
0.0257652
2.97175
0.0328104
0.0541957
0.0236868
8.17257
2.11183
2.86961
0.0252672
0.0220496
0.0370172
0.0239471
1.50078
0.196346
0.0286503
0.0222452
0.139417
0.110119
0.0228955
3.98989
3.40952
0.0472752
1.87379
0.0483483
1.29576
0.0286847
0.0600636
2.09726
0.130136
0.0409802
0.55732
0.113058
0.0259592
0.0221101
0.0221142
0.1822
1.94067
0.0365456
4.04581
1.26653
0.116466
0.054322
0.0244727
0.0222163
0.0241149
0.0957768
0.267792
0.075132
1.65035
1.56358
0.0221784
0.0225042
3.41797
0.0230154
0.0219376
0.0224831
0.254857
1.67302
0.0233051
0.304652
0.0220133
0.0236674
0.0560007
8.27242
1.4807
0.120879
10.6681
0.266358
3.29429
5.0968
1.43904
0.0220311
0.022132
0.0237665
0.0448705
2.38484
2.68165
1.42856
0.0359769
0.0224884
0.0229617
0.0516306
5.96111
0.0221926
0.0552343
0.0990587
0.0370307
0.0222707
0.0342087
1.74685
0.0230114
0.0226446
0.0222756
0.0222828
0.0221759
2.0992
0.0489891
2.00218
0.0461639
0.227796
1.24453
4.51745
0.0230151
12.0992
0.934636
0.511522
0.130457
0.0954123
0.0229966
0.0447917
8.086
0.022355
9.49882
0.0558512
10.1611
0.0226393
1.87414
0.0267435
0.0804981
0.232406
0.0220653
0.0685718
2.12296
0.701267
0.401557
0.0249385
0.0221655
0.683822
0.0232584
2.70388
0.0243684
0.0559362
0.541418
0.269044
0.0221527
1.03733
0.377563
0.0223964
0.0725443
0.0854185
0.235791
0.0224045
3.16353
0.0301107
1.82187
0.0221244
0.0249841
1.41271
0.250333
26.9455
0.0221574
1.46026
1.4808
2.38672
0.028223
0.0399226
3.05775
3.52072
1.24903
0.0221587
0.117209
0.338546
0.0388889
0.0249964
23.6838
0.0994218
0.0220867
0.0267788
1.86287
0.0222349
0.0220541
0.169519
2.90857
0.0221561
0.0812149
0.0235108
2.1447
0.474707
2.98904
0.0575601
0.0221302
0.0434381
0.0388615
2.33415
0.0894428
5.31108
0.0267056
0.0660358
0.0607652
5.03787
4.20554
0.0221689
0.0589097
1.96212
0.0549966
0.0297572
0.0250705
1.21648
0.107337
0.0243536
0.0266904
1.74219
0.0233148
0.0400641
0.0221597
0.0281596
0.0221603
0.0243675
0.597351
2.0557
0.0276298
0.183571
2.63539
1.43017
0.022178
0.0415803
0.0220408
3.24919
0.049864
0.056166
0.0218491
0.0249629
0.0237742
1.73245
2.51365
0.0220991
0.864733
0.0232546
1.58511
1.51434
6.5339
2.24543
0.171855
3.49957
0.478628
0.0231947
0.0241095
0.023126
11.4526
12.8292
0.0221379
4.84035
0.0493875
0.0291569
9.31599
4.15419
0.0221398
0.290283
0.0993614
3.86769
16.1602
5.64568
0.0222035
0.18639
1.26857
0.056068
0.0219508
0.0279356
1.36829
12.5127
0.0222057
0.0355847
0.023203
0.0236539
0.0276453
0.123667
0.724088
0.558147
0.0317026
0.0464367
1.44307
0.0391322
0.0818529
0.0247405
0.023007
0.111214
4.15413
0.0235027
18.7275
0.516275
0.0222773
0.0317796
0.0226242
0.0518081
0.0221929
0.0282697
0.0820306
1.40468
3.42965
16.6483
0.0587414
1.95305
1.81472
1.82912
0.022754
1.41786
1.15634
0.138436
4.35634
1.27408
1.78071
0.0221274
0.104929
0.0493184
0.0231703
2.31298
4.29432
1.68479
11.2638
0.073329
2.0866
3.6522
0.264265
0.0221588
3.22197
2.07505
0.024949
0.025484
2.47619
5.85706
0.0238323
0.0243163
0.0221297
0.0541079
0.0222553
2.12783
2.09172
0.0222876
1.65307
0.0380701
0.025917
2.01797
0.102649
0.0278766
0.0326512
2.58972
1.58286
0.0222553
0.0225482
8.36661
0.0245469
0.459776
2.10427
1.95128
2.07177
1.58724
1.61211
0.0234188
0.105562
0.0217555
0.0625779
0.0226278
12.4523
10.2778
1.5755
4.85894
0.0315704
0.0843609
1.41742
0.0496565
3.45234
0.0255812
3.4603
1.4695
0.0230456
1.61132
0.430534
2.09659
0.0908119
1.98541
0.0261653
0.0230709
3.77473
4.13026
2.31042
0.0236752
11.7443
0.345037
1.49688
0.0707285
0.022816
0.24144
0.0307941
5.67702
2.95056
2.32964
6.6841
5.95923
1.57375
0.0220348
0.0278702
0.497075
0.49065
0.0236581
0.0222355
0.0358938
2.00822
0.0294488
0.0238614
5.05166
0.0333985
0.024349
1.13843
6.9083
0.0266009
1.2435
0.027282
2.1681
1.1601
1.51587
0.0222193
14.161
0.0333876
0.0221621
0.0219781
10.9149
0.0504323
0.0221772
0.539644
0.630067
0.0536663
1.47929
0.0335676
0.0492532
3.85631
0.0256995
2.02127
0.0234335
0.0226916
6.3321
0.0236454
10.1573
0.0244907
1.60401
0.0420607
2.05347
3.87457
2.66658
0.0259065
0.11752
3.15394
0.249282
0.0223142
9.62937
0.0248229
0.0527151
0.0356927
0.0682536
12.0996
5.50815
0.739757
1.3307
0.0235481
0.0480303
0.0239264
0.0441004
0.0275157
0.0295136
0.0221252
0.0248634
1.75403
2.05853
2.21981
0.0246813
14.3483
0.0949565
0.0220216
1.07094
0.0226878
0.0219463
0.234862
0.0918089
1.71104
0.106808
0.120869
0.0233823
0.0306223
0.0226245
0.0874126
1.38902
1.47832
0.0222109
0.0252617
3.57219
0.0236425
0.0227059
0.0222367
0.224228
0.0549023
9.51584
1.51596
0.433554
0.0221744
0.166302
0.0221887
0.0234242
0.117341
0.689163
1.34245
1.43946
2.35448
0.0330646
0.0356512
6.10528
0.0230854
2.74499
5.39433
0.0221921
11.5888
0.0221881
0.126219
0.0222743
0.0371465
1.47226
0.0521152
0.0253725
2.15132
0.0341746
1.41051
0.0261947
1.16539
0.0275272
1.83088
0.353188
0.027778
0.0868057
0.0223764
0.0222498
9.08349
0.0308336
0.214444
0.027734
2.71267
0.0977534
0.0352733
0.0224593
0.0279845
0.36643
0.0239442
2.04711
0.675275
2.07482
0.272144
0.0221577
0.199207
0.768779
2.75596
3.0602
0.507434
2.04428
0.0310144
1.28014
6.34393
14.8375
0.0878164
0.099742
2.01622
0.0262869
0.029516
0.0283122
0.0222056
0.0235614
0.0222885
0.0460614
0.0230845
1.97268
0.228642
1.59713
0.0370886
15.9664
0.0222882
0.0427663
7.97145
5.59451
0.0222569
7.77556
0.201733
0.0222893
0.144755
0.0299688
0.104962
0.16169
2.0996
0.0416395
0.0222898
0.834568
0.0355886
0.0222899
0.0221156
5.91202
0.0553817
0.0233031
12.135
1.59186
0.124485
0.0918028
0.0346783
1.94789
0.476712
4.19019
1.28483
0.0326905
4.14455
0.188776
1.67731
0.0698776
3.51454
1.65399
1.26587
1.54508
1.46243
0.128664
3.77884
0.169355
1.80965
0.0219932
0.028445
3.1393
0.18946
0.0232132
0.12919
1.94641
2.98595
1.63121
0.032979
0.250652
0.0286553
6.04916
0.0347842
1.52815
0.0291269
4.55613
3.7013
0.0420829
0.0222658
0.0275271
1.90595
2.93293
10.8439
0.0221431
0.0286123
2.72615
0.0268583
2.82968
0.270858
0.0311036
15.3071
2.35825
1.89192
0.0409485
1.95353
0.0226435
2.52786