/*--------------------------------*- C++ -*----------------------------------*\
| =========                 |                                                 |
| \\      /  F ield         | OpenFOAM: The Open Source CFD Toolbox           |
|  \\    /   O peration     | Version:  v2012                                 |
|   \\  /    A nd           | Website:  www.openfoam.com                      |
|    \\/     M anipulation  |                                                 |
\*---------------------------------------------------------------------------*/
FoamFile
{
    version     2.0;
    format      ascii;
    class       volVectorField;
    location    "250";
    object      U;
}
// * * * * * * * * * * * * * * * * * * * * * * * * * * * * * * * * * * * * * //

dimensions      [0 1 -1 0 0 0 0];


internalField   nonuniform List<vector> 
14479
(
(1.21631 -0.182453 0)
(1.0585 -0.252183 -1.99913e-20)
(1.10212 -0.134737 -2.9958e-20)
(-0.185008 -0.0463071 9.77905e-21)
(0.965298 -0.500535 0)
(-0.240947 -0.051361 1.38877e-20)
(1.00006 -0.00455972 -4.93154e-21)
(1.03414 -0.00595556 -1.84786e-20)
(1.03482 -0.0674254 0)
(-0.383754 -0.101872 0)
(0.963416 -0.447436 6.91318e-21)
(-0.187455 -0.0449468 4.74104e-20)
(-0.187714 -0.036106 -1.5968e-19)
(-0.187374 -0.0356178 1.62825e-19)
(-0.140786 -0.0316829 0)
(-0.108596 -0.0140796 -7.25254e-20)
(1.34057 -0.258772 9.34471e-20)
(0.540808 0.0913886 6.158e-21)
(0.174541 -0.105708 -2.75518e-19)
(1.34403 0.0667489 1.28437e-19)
(1.01345 -0.0219346 0)
(1.0398 -0.115016 6.68162e-21)
(-0.128821 -0.0180485 4.21609e-20)
(1.3103 -0.274103 1.25864e-19)
(1.03411 -0.0673386 4.18563e-21)
(0.732162 0.0824016 6.00253e-20)
(0.931317 -0.326967 -3.20273e-20)
(-0.381186 -0.104214 7.67233e-20)
(1.28917 -0.358668 2.86456e-20)
(-0.136854 -0.0313694 1.74108e-20)
(0.505223 0.0328353 5.13006e-21)
(-0.26685 -0.0723342 0)
(0.152374 -0.105256 3.28755e-19)
(1.03725 -0.0120733 2.57247e-20)
(1.09717 -0.0431583 0)
(1.05074 -6.7126e-05 4.96219e-21)
(0.993379 -0.0214043 7.14889e-21)
(-0.131828 -0.0194259 1.28897e-21)
(1.08558 -0.143128 8.84109e-22)
(0.847162 0.240601 0)
(-0.135837 -0.0308863 1.4903e-19)
(1.08223 -0.144217 0)
(0.867377 -0.106011 3.60276e-20)
(1.12996 -0.0858919 0)
(-0.0801653 -0.0225474 4.61118e-20)
(1.31829 -0.132438 0)
(-0.14883 -0.0272777 0)
(-0.524379 -0.121657 -1.4738e-19)
(1.09225 -0.0659891 2.46851e-20)
(0.71199 0.104266 -1.36845e-19)
(1.01708 -0.0388182 0)
(0.459867 -0.11792 -1.29208e-19)
(1.13544 -0.492455 0)
(1.30717 -0.22619 -9.29627e-20)
(1.09178 -0.0640212 -2.73238e-20)
(0.98418 -0.0521256 2.52201e-22)
(1.17184 -0.306681 -1.01626e-19)
(-0.365094 -0.0746723 0)
(1.05059 -0.000196459 0)
(1.34123 -0.18449 0)
(1.09296 -0.143784 -5.86411e-21)
(1.06842 -0.0332902 0)
(0.4038 -0.170926 1.27869e-19)
(1.2535 -0.298511 4.75213e-20)
(1.45367 0.142917 -2.40146e-19)
(-0.420081 -0.064211 0)
(1.19286 -0.0959942 0)
(0.887528 -0.104424 -4.33816e-20)
(0.300909 -0.0611481 7.65022e-20)
(0.55537 -0.11468 0)
(-0.457898 -0.120516 -3.11907e-19)
(1.36931 0.0539312 0)
(-0.0548991 -0.0558711 2.13299e-19)
(0.153723 -0.0650525 -8.99397e-20)
(1.01231 -0.0220944 0)
(1.03079 -0.066141 -5.29445e-21)
(-0.449444 -0.106279 2.11209e-19)
(-0.160207 -0.0368811 -4.58393e-20)
(0.0893607 -0.126254 2.58653e-19)
(-0.451927 -0.113902 2.50423e-19)
(0.401832 -0.131158 0)
(1.00235 -0.00294423 5.46883e-22)
(1.19644 -0.0377695 -3.09469e-20)
(1.36327 0.0647191 0)
(1.10055 0.00107053 3.15681e-20)
(1.31077 -0.120075 0)
(1.37909 0.126722 -1.38561e-19)
(1.00893 -0.033555 -3.67513e-21)
(-0.447163 -0.105954 -2.44394e-19)
(1.01763 -0.0543964 8.92612e-22)
(-0.423413 -0.0756241 7.75872e-20)
(-0.418163 -0.0652702 4.51015e-20)
(-0.357253 -0.0706471 0)
(-0.0984374 -0.0391108 6.42446e-20)
(1.19503 0.00145365 6.06437e-20)
(0.159933 -0.119368 9.18806e-20)
(1.10006 -0.015842 1.48232e-20)
(-0.428262 -0.0737301 -1.24752e-19)
(1.17794 -0.0364694 0)
(-0.290259 -0.0750963 -6.00661e-20)
(0.602977 0.0484334 0)
(-0.352205 -0.0761102 0)
(1.34124 -0.182563 0)
(1.02122 -0.00479985 0)
(1.18285 -0.042602 6.39416e-20)
(1.04989 -0.000913252 1.56757e-20)
(1.45145 0.156989 1.97164e-19)
(-0.0455206 -0.0548008 -1.73288e-19)
(1.17181 -0.317749 -3.82044e-21)
(-0.139354 -0.0312148 -2.39499e-19)
(1.17072 -0.0623986 2.13592e-20)
(1.10231 -0.0659609 0)
(0.932932 0.0857193 1.71023e-20)
(1.3133 -0.227382 1.21914e-19)
(0.940856 -0.318615 0)
(0.949549 -0.126497 -6.01821e-20)
(1.02887 -0.0685724 0)
(0.416668 -0.180886 1.70984e-19)
(0.936803 -0.0701306 1.24555e-21)
(1.36669 0.102428 -1.27184e-19)
(1.0951 -0.0399774 1.40197e-20)
(1.0048 -0.0184588 0)
(-0.261133 -0.0738818 0)
(1.12966 -0.144872 -2.36465e-20)
(-0.177214 -0.0881448 6.91714e-20)
(1.06638 -0.00796106 2.32604e-20)
(1.14759 -0.0306112 3.41244e-20)
(0.975842 -0.0431068 3.66643e-20)
(1.06335 -0.00432363 0)
(-0.367562 -0.0742188 0)
(1.07536 -0.0105033 1.78363e-20)
(1.20334 -0.188358 -1.90245e-19)
(0.199246 -0.074342 0)
(1.06754 -0.00994256 -2.98982e-20)
(1.34404 -0.0872647 -1.13924e-19)
(1.13394 -0.37094 -4.84653e-21)
(0.709849 -0.591319 1.73721e-20)
(0.96489 -0.0570171 6.09531e-21)
(0.474574 -0.119032 -1.62907e-21)
(-0.189028 -0.048254 -1.72242e-19)
(1.08076 -0.0369882 3.49159e-20)
(-0.213549 -0.030899 -1.17319e-19)
(1.1344 -0.0834399 0)
(0.620246 0.305736 3.91115e-20)
(1.24922 -0.286856 8.54326e-20)
(1.09717 0.003234 -5.1491e-20)
(-0.0926949 -0.121 0)
(1.05993 -0.0561354 1.80216e-20)
(1.19238 -0.181244 0)
(1.05534 -0.110758 -2.34775e-21)
(0.144874 -0.118451 -1.76051e-19)
(1.10452 -0.137997 3.34001e-20)
(1.01399 -0.0241358 6.30436e-22)
(1.33314 -0.260989 -6.66647e-20)
(1.35016 -0.258735 0)
(1.19706 0.0426119 1.52441e-20)
(-0.387356 -0.118452 9.23714e-20)
(0.9999 -0.00379992 -3.06906e-20)
(0.499614 -0.00279523 -1.17813e-19)
(0.114508 -0.127478 -1.54154e-19)
(-0.378601 -0.115807 -2.69319e-19)
(0.256273 -0.0641287 -1.28299e-19)
(0.124829 -0.127203 -1.17762e-19)
(1.3817 0.120903 1.67164e-19)
(-0.23784 -0.0842686 1.44639e-19)
(-0.522554 -0.126667 1.3616e-19)
(1.06647 0.00085023 1.45546e-20)
(0.886773 0.0761934 0)
(1.01636 -0.0367232 0)
(1.10216 -0.0188292 1.42785e-20)
(1.08146 -0.00897978 -4.20225e-20)
(1.31039 -0.115672 0)
(0.983979 -0.0523138 2.22293e-20)
(1.36713 0.10233 1.64653e-19)
(0.997055 -0.0524609 1.49071e-20)
(1.08259 -0.492922 -3.41793e-20)
(1.00656 -0.0311805 9.1704e-22)
(1.11155 -0.0159311 -1.26235e-20)
(0.915436 -0.437682 0)
(0.99231 -0.105837 1.57093e-20)
(0.653975 -0.677837 7.03209e-21)
(1.01181 -0.0199789 0)
(0.941517 -0.0735845 0)
(-0.354616 -0.0712897 -5.82994e-20)
(1.00711 -0.0227673 0)
(1.06081 -0.3562 -2.92699e-20)
(0.87641 -0.101335 -2.96409e-20)
(0.893732 -0.07002 2.99032e-20)
(0.75783 -0.58637 5.02677e-20)
(0.70694 0.262442 -7.82027e-20)
(1.00516 -0.0217091 -2.58536e-21)
(-0.186835 -0.0667652 4.77257e-20)
(1.18325 -0.0530152 0)
(1.00011 -0.00412436 9.92728e-21)
(-0.214272 -0.0299373 -2.99511e-19)
(0.101386 -0.127184 1.68051e-19)
(0.730087 -0.558019 -5.30163e-20)
(0.0593593 -0.0208331 1.76681e-19)
(1.15464 -0.134681 -7.3954e-21)
(0.997359 -0.0511024 -1.37802e-20)
(0.948727 -0.119542 4.79819e-20)
(1.30324 -0.206027 -1.64114e-19)
(0.717308 -0.122548 -7.31789e-20)
(1.23669 -0.386508 4.36618e-20)
(-0.218531 -0.0319068 2.3376e-19)
(0.948293 -0.115324 1.77217e-20)
(0.968175 -0.0599532 0)
(1.39009 0.0522351 -1.73716e-19)
(1.11127 -0.0155196 0)
(1.06619 -0.363064 3.26988e-20)
(-0.117515 -0.100617 1.01066e-19)
(-0.201416 -0.0471832 0)
(0.973085 -0.107309 0)
(0.888303 -0.102414 5.92974e-20)
(1.0203 -0.0387314 -3.00559e-21)
(1.36232 -0.178166 1.08069e-19)
(-0.28741 -0.0756651 -2.68532e-20)
(-0.15446 -0.0291935 0)
(0.993421 -0.0200598 0)
(1.18444 -0.184795 7.13124e-20)
(0.870144 -0.576087 0)
(-0.307575 -0.0965305 -1.74329e-20)
(-0.110589 -0.0663465 0)
(1.21222 -0.0297163 -7.91632e-20)
(0.255773 -0.519917 9.46518e-20)
(-0.219747 -0.0708647 0)
(1.04918 -0.114447 -1.57802e-21)
(1.09777 -0.069456 0)
(0.776234 0.143409 0)
(1.00828 -0.0338742 3.53219e-21)
(0.961041 -0.0815105 -2.68955e-20)
(1.00047 -0.00519103 -1.68207e-21)
(1.0537 -0.21971 0)
(-0.183251 -0.0344637 -2.94312e-20)
(0.89991 -0.0645721 -5.43359e-20)
(0.948088 -0.111079 2.48519e-20)
(1.17249 -0.311007 -2.36066e-21)
(0.247873 -0.446552 -1.0053e-21)
(0.993146 -0.0186789 -1.54062e-20)
(1.03647 -0.0884615 -5.18301e-21)
(-0.215581 -0.0722278 -8.60562e-20)
(1.36042 -0.160927 5.789e-20)
(1.17742 -0.0581312 -2.90913e-20)
(0.730226 0.088882 -1.34361e-19)
(-0.228289 -0.0602146 4.66088e-20)
(-0.101543 -0.102009 -9.10632e-20)
(1.07376 -0.0331557 0)
(1.01822 -0.0554326 0)
(0.14927 -0.00549099 7.556e-21)
(-0.425345 -0.0615011 -2.56124e-19)
(1.03288 -0.00453176 1.83647e-20)
(1.37184 -0.120145 4.37219e-20)
(1.01277 -0.00240348 -2.67843e-22)
(1.06472 -0.00637127 -1.28026e-20)
(-0.422527 -0.0610651 2.16137e-19)
(1.34362 -0.257042 -3.46235e-20)
(0.994473 -0.0257456 1.40543e-20)
(1.29218 -0.366438 9.80204e-20)
(0.721753 0.055796 0)
(1.31645 -0.268863 -1.35662e-19)
(0.476692 -0.13899 -4.86134e-20)
(0.348709 -0.0713457 3.01236e-20)
(-0.216322 -0.0316464 2.96468e-19)
(1.34308 -0.0906082 1.39507e-19)
(1.00295 -0.0292395 0)
(1.07259 -0.226745 2.90305e-20)
(1.00213 -0.0271285 0)
(-0.128214 -0.0704574 8.96912e-20)
(-0.130578 -0.0534117 -1.87578e-19)
(0.258881 -0.0556798 7.7733e-20)
(-0.0707134 -0.122385 0)
(0.974199 -0.0417666 -4.76003e-20)
(-0.419444 -0.0656036 0)
(0.95258 -0.0414662 0)
(0.995707 -0.106866 5.62969e-21)
(-0.422175 -0.074414 4.25972e-20)
(-0.0416858 -0.0510308 2.39876e-20)
(1.09378 -0.0354888 -1.60454e-20)
(-0.399164 -0.0781467 2.14696e-19)
(-0.224397 -0.107626 2.93752e-22)
(-0.415088 -0.0644535 -4.2331e-20)
(-0.405947 -0.0747579 0)
(-0.362871 -0.109303 0)
(0.470597 -0.147762 0)
(1.00203 -0.00966003 -7.25769e-22)
(0.994052 -0.017029 -1.50916e-20)
(0.122228 -0.0590318 -1.36945e-19)
(0.951925 -0.0446776 3.22479e-20)
(-0.0679353 -0.0355999 -8.38213e-20)
(-0.22449 -0.0353455 -2.19082e-19)
(0.947501 0.111221 -3.87309e-20)
(0.714597 0.117511 3.0312e-20)
(1.12548 -0.355372 -6.11914e-23)
(-0.227677 -0.0451841 -5.83911e-20)
(0.98582 -0.0485743 0)
(1.19309 -0.179579 3.1843e-20)
(1.00577 -0.0698269 0)
(0.709297 -0.06798 -3.1635e-20)
(1.06808 0.000346447 9.87901e-23)
(0.993547 -0.216005 9.46647e-21)
(1.01819 -0.036135 2.58899e-21)
(-0.306389 -0.0855043 -2.67029e-19)
(1.07348 -0.0308656 -1.23842e-23)
(1.25262 -0.00830982 -1.28458e-19)
(1.18497 -0.182354 -1.00919e-19)
(-0.172615 -0.0322563 -5.89446e-20)
(0.435688 -0.0472035 -1.2651e-19)
(1.23578 -0.378882 0)
(1.12886 -0.0321593 -2.59146e-20)
(1.14454 -0.024772 1.73508e-20)
(-0.303613 -0.0974353 0)
(0.946609 -0.451322 0)
(1.10784 -0.42467 4.15203e-21)
(1.06196 -0.0602647 -1.6991e-20)
(1.03992 -0.0904853 8.01716e-22)
(0.999832 -0.00437682 8.59687e-21)
(-0.191476 -0.0461882 1.01096e-19)
(1.04078 -0.301742 0)
(1.00633 -0.0307822 1.77916e-21)
(1.01886 -0.00314672 -1.18992e-20)
(0.973556 -0.105607 0)
(0.99304 -0.015184 1.99273e-20)
(0.962899 -0.0870318 3.05842e-20)
(-0.37207 -0.0580932 0)
(1.37346 -0.238057 0)
(0.668731 0.102013 1.593e-21)
(0.185075 -0.102068 0)
(0.947638 -0.494325 0)
(-0.366989 -0.0848247 0)
(1.04266 -0.0513612 4.50959e-21)
(1.20398 0.0405147 0)
(1.25922 0.0184986 0)
(0.0890033 -0.0208625 -8.01811e-20)
(-0.181851 -0.0344074 1.02742e-19)
(1.37004 -0.233438 4.08375e-20)
(1.0229 -0.00292658 0)
(1.00204 -0.19107 0)
(1.32434 -0.216603 7.34735e-21)
(0.852883 0.273968 4.69264e-20)
(1.21897 -0.219896 -2.19993e-20)
(0.176599 -0.0944566 0)
(1.18746 -0.103337 0)
(-0.234334 -0.0432416 1.55337e-19)
(1.03586 -0.0125757 0)
(-0.126164 -0.054795 1.14369e-19)
(1.07037 -0.00086231 -9.49205e-21)
(-0.415938 -0.0670507 0)
(-0.170487 -0.0630442 1.75229e-19)
(1.07144 -0.00195931 2.06775e-20)
(1.22852 -0.207388 -4.69902e-20)
(-0.103647 -0.038579 -7.10948e-20)
(-0.407345 -0.0750601 0)
(1.09389 -0.139602 -7.41524e-21)
(1.01627 -0.0400291 0)
(-0.422999 -0.0744046 0)
(1.00814 -0.0181149 2.33935e-22)
(1.05782 -0.0356842 1.54384e-20)
(-0.317734 -0.0941206 -1.40446e-19)
(1.14778 -0.0301726 0)
(1.02298 -0.0686214 3.9015e-22)
(1.02596 -0.0698637 5.01912e-23)
(-0.10413 -0.0814451 0)
(-0.298328 -0.0765336 -1.78794e-19)
(1.02764 -0.066602 0)
(-0.403166 -0.0767643 -1.41326e-19)
(1.20145 -0.0455713 0)
(0.689089 -0.100389 -3.95705e-20)
(-0.180236 -0.0339724 5.95123e-20)
(-0.373111 -0.083402 -4.6223e-20)
(0.116486 -0.035985 1.31167e-19)
(1.42389 -0.0955904 0)
(0.0479624 -0.0675688 1.05238e-20)
(1.33088 -0.0791275 1.2574e-19)
(0.740337 -0.937673 0)
(-0.0137534 -0.040788 2.28488e-19)
(0.440543 -0.0845797 2.94609e-20)
(1.35159 0.0570851 -1.30949e-19)
(0.830678 -0.275525 -2.90458e-20)
(1.25304 -0.3446 5.74339e-20)
(1.00519 -0.0719775 1.15916e-20)
(1.05999 -0.0557218 0)
(1.1998 -0.00250841 -2.32399e-20)
(0.983195 -0.441226 -7.13176e-21)
(0.69439 -0.0250617 0)
(0.0346464 -0.0667142 0)
(1.24724 -0.271723 -6.08594e-20)
(1.00728 -0.0148881 8.67163e-23)
(1.29493 -0.300271 -8.66738e-20)
(0.990259 -0.0181756 -1.86897e-20)
(1.37881 -0.158839 1.30344e-20)
(1.23789 -0.201532 1.4994e-20)
(1.22344 -0.0493934 4.28773e-20)
(1.03422 0.178411 -6.16374e-21)
(-0.169316 -0.0312728 -9.19248e-20)
(0.620401 -0.118253 -2.36993e-19)
(-0.173838 -0.0380583 1.81425e-19)
(0.668029 -0.733663 -9.78937e-21)
(0.471291 -1.2072 0)
(1.04071 -0.0486981 -3.924e-21)
(1.00197 -0.00645131 -1.27038e-21)
(0.307411 -0.0697928 1.21915e-19)
(-0.41742 -0.0652754 -2.07326e-20)
(-0.128802 -0.0506397 1.06017e-19)
(1.18416 -0.126429 3.2763e-20)
(-0.0878155 -0.0269924 -2.59755e-19)
(1.14111 -0.0196526 -3.135e-20)
(-0.154699 -0.0296251 -1.2875e-19)
(-0.309281 -0.084227 2.16482e-19)
(0.722137 0.129959 0)
(1.05714 -0.0342908 0)
(-0.387515 -0.094575 0)
(-0.464969 -0.131739 1.16646e-19)
(1.00716 -0.0246882 8.93589e-22)
(1.00233 -0.00761075 8.11044e-22)
(0.070795 0.200784 1.88695e-19)
(1.0316 -0.0107684 -1.0458e-20)
(1.03864 0.185835 1.22405e-20)
(1.13593 -0.480017 0)
(1.00178 -0.00286814 -5.39487e-22)
(1.10007 -0.194923 5.80751e-21)
(1.12221 -0.140509 -3.72755e-20)
(1.05286 -0.246243 2.09787e-20)
(0.771044 -0.0716675 1.39998e-19)
(1.39558 -0.107119 -1.02625e-19)
(0.157902 -0.103907 0)
(1.05267 -0.232744 6.70509e-21)
(-0.308733 -0.0963888 1.32271e-19)
(1.0127 -0.0264715 1.86603e-22)
(1.00543 -0.187923 -6.3834e-21)
(1.00011 0.344471 -7.92602e-21)
(0.534044 -0.227536 0)
(1.25149 -0.283951 -1.12491e-19)
(-0.157343 -0.0246616 7.6199e-21)
(1.09236 -0.0895336 3.97014e-20)
(1.05779 -0.236214 -3.61124e-21)
(-0.190046 -0.088752 0)
(1.25041 -0.00423729 1.47573e-19)
(-0.145028 -0.00287994 0)
(0.675938 0.100046 -1.88804e-21)
(1.30348 -0.289754 -1.20523e-19)
(-0.417641 -0.0645788 -8.82509e-20)
(-0.379147 -0.0920153 0)
(-0.191364 -0.0394162 0)
(1.01299 -0.0265626 -1.68396e-22)
(1.31807 -0.215268 0)
(1.15614 -0.140485 0)
(0.750258 0.108713 -5.42765e-20)
(-0.123776 -0.051412 -9.19791e-20)
(1.16738 -0.0581917 -2.82796e-20)
(1.10675 -0.108533 -1.57547e-20)
(0.99452 -0.0127547 0)
(0.675899 -0.708583 1.08899e-20)
(1.37513 -0.13804 1.28381e-19)
(1.35959 -0.148916 -2.50712e-20)
(1.00015 -0.00210346 -5.9215e-21)
(1.32495 -0.260033 3.63675e-20)
(1.06897 -0.0358006 0)
(1.37504 -0.127533 0)
(0.0658083 -0.0337221 1.7632e-19)
(-0.187545 -0.0879535 0)
(1.16726 0.00661392 -2.35331e-20)
(0.977772 -0.0492045 8.62732e-21)
(0.53886 -0.0435554 -1.24993e-19)
(1.12465 -0.434657 -2.50672e-20)
(0.716548 -0.0806138 -5.19211e-20)
(-0.168041 -0.0315182 1.03487e-19)
(1.11641 -0.140121 0)
(-0.0522335 -0.0527384 0)
(-0.18398 -0.0347936 -2.88001e-20)
(1.06475 -0.00608221 -1.26524e-22)
(1.04977 -0.000820907 -2.55153e-20)
(1.01184 -0.00223295 -2.11568e-21)
(-0.176376 -0.0344694 0)
(0.00925973 -0.11598 1.21834e-19)
(-0.215268 -0.0359553 1.81773e-19)
(0.32275 -0.48256 -2.35953e-19)
(-0.211336 -0.0854964 3.80967e-20)
(-0.170145 -0.0317447 0)
(0.843453 -0.261627 2.97758e-20)
(1.31301 -0.288217 1.51796e-19)
(1.05234 -0.108826 0)
(-0.0605872 -0.0362218 9.99807e-20)
(1.27631 0.0478678 4.78993e-20)
(0.624058 -0.405194 -1.58886e-19)
(1.1396 -0.048322 -4.87669e-20)
(0.743533 0.116073 0)
(1.05374 -0.0381117 5.55093e-21)
(0.2482 -0.0521382 -8.18764e-20)
(0.743143 0.36751 4.17263e-20)
(-0.211135 -0.0539742 0)
(0.0354642 -0.0296413 1.05889e-19)
(1.00221 -0.0141249 -6.95358e-21)
(1.03049 -0.0111173 0)
(-0.301891 -0.076035 -6.39244e-20)
(-0.151127 -0.0270107 -5.82256e-20)
(1.081 -0.0336551 1.18903e-20)
(1.21637 -0.183147 -2.24148e-20)
(-0.199221 -0.0550882 9.17281e-20)
(1.45732 -0.103045 8.16681e-20)
(1.15883 -0.088685 -5.92408e-20)
(0.898246 -0.0739475 1.81061e-21)
(1.45825 -0.103623 -5.46656e-21)
(1.14238 -0.130435 -2.39787e-20)
(0.986293 -0.048158 -2.15843e-20)
(-0.184036 -0.0408188 -8.49195e-20)
(-0.384325 -0.0583518 0)
(0.152861 -0.12202 -1.77017e-19)
(1.22254 -0.0471162 0)
(1.09558 -0.0376306 3.34346e-20)
(-0.164415 -0.037239 7.23579e-20)
(1.06116 -0.222455 -1.3179e-20)
(1.32154 -0.0688176 0)
(1.1939 0.00100181 0)
(-0.398485 -0.0770028 1.68874e-19)
(1.0587 -0.0259687 1.0152e-20)
(1.00508 -0.0198301 -1.00629e-21)
(1.00203 -0.0108138 -1.18068e-22)
(1.0028 -0.0339041 -1.85549e-21)
(-0.535961 -0.114927 -4.4766e-20)
(1.2392 -0.318684 0)
(0.371816 -0.0514537 -1.72468e-19)
(-0.199504 -0.083668 0)
(0.469436 -0.0497768 2.70071e-19)
(-0.0801652 -0.0259476 2.6656e-19)
(-0.219892 -0.0549157 0)
(-0.196802 -0.0877392 0)
(1.07717 -0.0132595 9.15672e-21)
(1.16486 0.00877082 0)
(0.581564 -0.112721 6.13166e-20)
(-0.152859 -0.0390657 -1.53539e-19)
(0.995173 -0.0158621 0)
(1.24962 -0.311888 0)
(0.764389 -0.0940825 7.53911e-20)
(0.0436988 -0.0320925 -1.99424e-19)
(1.25422 -0.00953625 -6.02029e-20)
(1.34549 0.0712158 0)
(1.10471 -0.466821 -4.30196e-20)
(-0.380766 -0.0737507 3.56257e-19)
(0.984088 0.323965 0)
(0.0602901 -0.0498051 1.61361e-19)
(-0.220926 -0.0386436 -1.42266e-19)
(-0.00555386 -0.0390787 -1.92448e-19)
(1.21661 0.0258708 -2.65397e-20)
(-0.510919 -0.132414 -4.08945e-20)
(1.06219 -0.0597768 2.15961e-22)
(0.989736 -0.0185538 -2.16324e-20)
(0.194903 -0.0973806 0)
(0.994014 -0.0131272 -3.71782e-20)
(1.09645 -0.0890222 0)
(1.21669 0.0225381 5.25736e-20)
(1.22198 -0.0636351 -1.01957e-19)
(1.10037 -0.50471 3.06558e-20)
(1.04736 -0.0195929 1.64119e-20)
(0.989738 -0.0199663 4.14738e-20)
(1.29253 -0.36322 -3.35196e-20)
(1.00602 -0.0697341 9.6826e-21)
(-0.358954 -0.0653943 -9.17723e-20)
(-0.172984 -0.0324945 1.47889e-19)
(-0.205903 -0.0594511 2.11457e-19)
(-0.171267 -0.0322137 -9.89729e-20)
(1.06763 -0.240945 -2.9262e-20)
(-0.226643 -0.0943956 1.57123e-19)
(0.8563 -0.0413164 2.47152e-20)
(-0.167558 -0.0118085 0)
(1.07278 -0.0315926 2.42152e-20)
(1.33705 -0.252931 6.45478e-20)
(0.861865 -0.273507 -1.29129e-20)
(1.05688 -0.025858 -1.50789e-20)
(1.08194 -0.0360749 -1.38923e-20)
(1.17639 -0.0605142 -3.14466e-20)
(0.855494 -0.039863 0)
(1.04874 -0.0198428 -2.77287e-20)
(-0.228542 -0.0393875 -9.3813e-20)
(0.103532 0.1965 2.38769e-21)
(1.13701 -0.132603 7.8789e-20)
(-0.210524 -0.045878 9.64008e-20)
(1.47033 0.19717 6.74357e-20)
(1.07735 -0.00441305 0)
(0.934437 -0.167581 7.57881e-20)
(1.30576 -0.254888 1.32981e-21)
(-0.191008 -0.0399705 0)
(1.07929 -0.00641447 -3.92038e-20)
(1.13769 -0.262433 0)
(1.16111 -0.00512745 -2.02365e-20)
(-0.00638721 -0.0358374 -1.01934e-19)
(1.07008 -0.0333722 -1.48995e-20)
(1.05037 -0.017679 -1.79725e-20)
(-0.168114 -0.0678258 0)
(-0.375349 -0.0842309 0)
(-0.506894 -0.137161 -4.39572e-20)
(0.719263 0.0565173 -1.98975e-20)
(1.00189 -0.00721674 0)
(1.00012 -0.041842 0)
(0.447925 -0.0912053 -7.23547e-20)
(-0.198431 -0.0369341 0)
(0.767919 -0.118639 0)
(1.02345 -0.0104479 -3.95101e-21)
(0.994592 -0.0176732 0)
(0.976565 -0.132607 2.97688e-20)
(0.978888 -0.043031 -2.4438e-20)
(0.0462277 -0.125293 0)
(1.0034 -0.0294031 -1.01694e-20)
(0.575835 -0.958825 5.00719e-21)
(0.28353 -0.0649361 7.13686e-20)
(0.275505 -0.12716 -6.2404e-20)
(1.06598 -0.00827233 1.35467e-20)
(-0.199003 -0.0377071 6.45353e-20)
(-0.21752 -0.094859 -1.20149e-19)
(0.956826 -0.0771365 3.26459e-20)
(1.12399 -0.319716 1.17258e-20)
(0.983016 -0.0791964 0)
(-0.217916 -0.0760577 1.74121e-19)
(1.098 -0.262142 0)
(1.01358 -0.0371395 -2.24154e-21)
(1.00547 -0.0282 -7.91067e-21)
(1.00022 -0.0416347 -5.29227e-21)
(-0.373575 -0.0849092 0)
(0.521566 -0.419994 -9.74448e-20)
(0.132039 -0.126128 1.42077e-19)
(0.988051 -0.0453399 -4.53086e-21)
(1.05112 -0.0196318 1.07848e-20)
(1.26327 0.0125232 3.83709e-20)
(1.20693 0.0436444 -5.94878e-20)
(1.15417 -0.091159 6.02986e-20)
(0.0319438 -0.125047 -8.54359e-20)
(-0.539387 -0.116867 3.4728e-20)
(1.05574 -0.0380264 0)
(1.00996 -0.0259856 -5.52543e-22)
(1.18853 0.00417361 9.14258e-20)
(-0.186119 -0.0628009 -1.68127e-19)
(1.27403 -0.126552 1.04957e-19)
(1.20147 -0.0295967 0)
(1.00186 -0.00701909 2.84048e-21)
(1.2883 -0.357515 7.15974e-20)
(1.08156 -0.26268 -1.28137e-21)
(1.00936 -0.0256984 2.37038e-22)
(1.04921 -0.00994059 0)
(1.47906 0.185164 -1.14013e-19)
(1.08461 -0.38377 -5.2664e-21)
(0.994446 -0.0253952 8.92089e-21)
(0.610298 -0.208022 0)
(1.33824 -0.26575 0)
(1.00846 -0.0255888 -2.57353e-21)
(0.543664 -0.110289 0)
(-0.382932 -0.0739684 -3.2427e-19)
(1.07741 -0.00431444 1.14261e-20)
(0.98609 -0.139833 -1.02996e-20)
(1.01058 -0.0836188 0)
(1.20711 -0.0225939 3.5681e-20)
(-0.0187878 -0.0358432 1.42147e-20)
(0.0820118 -0.0349965 1.79375e-19)
(1.37303 0.131206 -1.07463e-19)
(1.0108 -0.0256831 -6.83577e-22)
(-0.222226 -0.0746708 -9.73516e-20)
(-0.458649 -0.123567 1.50904e-19)
(0.398297 -0.109141 8.77134e-20)
(-0.0165518 -0.115527 -2.50016e-20)
(1.03589 -0.294468 0)
(0.981915 -0.0267897 2.12642e-20)
(1.14149 -0.0196166 0)
(0.685512 0.113283 -2.87269e-20)
(1.02285 -0.00407915 7.26825e-21)
(1.08203 -0.0319328 1.43387e-20)
(-0.198831 -0.0836277 4.92706e-20)
(-0.0823871 -0.0366695 -5.81163e-20)
(1.13185 -0.0377861 3.20726e-20)
(1.00846 -0.0876637 0)
(0.626069 -0.609229 -3.37279e-21)
(0.119322 -0.0872836 0)
(1.01031 -0.0180827 8.82548e-22)
(1.02286 -0.00988994 0)
(1.06137 -0.169622 0)
(-0.293608 -0.0764229 1.52846e-19)
(-0.140674 -0.0314384 0)
(0.869503 -0.893792 4.92981e-20)
(0.635167 0.278528 1.14037e-19)
(-0.00968633 -0.104975 -2.46036e-20)
(0.868762 -0.170316 0)
(-0.352087 -0.0702022 3.32395e-20)
(1.27491 0.0484168 5.03065e-20)
(1.03845 -0.0491738 4.03862e-21)
(1.16479 -0.00224414 -5.94867e-21)
(-0.424264 -0.060265 0)
(1.01363 -0.036834 1.05357e-21)
(-0.422266 -0.0600049 0)
(1.13281 -0.148794 0)
(-0.211492 -0.10933 -6.12451e-20)
(-0.415145 -0.0947586 0)
(0.856773 -0.273537 3.76231e-20)
(0.636399 -0.118315 -1.1718e-19)
(0.986423 -0.0781592 0)
(1.09009 -0.262081 0)
(0.0164566 -0.10228 -8.25318e-20)
(1.45556 0.218353 0)
(-0.157979 -0.0253337 -7.77341e-21)
(0.15352 -0.0600013 0)
(0.0035443 -0.103622 -2.14898e-20)
(0.117133 -0.050171 -2.05802e-20)
(1.01642 -0.186635 -1.74003e-21)
(1.27919 -0.345743 8.64493e-20)
(-0.234851 -0.107701 -7.29992e-20)
(-0.079324 -0.0789209 -2.07233e-19)
(0.466759 0.000930432 -7.02573e-20)
(1.04005 -0.0347305 1.57296e-20)
(1.26249 -0.346101 0)
(0.166386 -0.0996172 0)
(1.30321 -0.293631 1.62396e-19)
(0.13702 -0.0891901 1.45171e-19)
(1.13765 -0.0155133 -1.49623e-20)
(0.880105 -0.293482 0)
(1.0145 -0.0265685 -1.97633e-21)
(0.911321 -0.0875007 -3.83675e-22)
(-0.4744 -0.1467 -2.07359e-19)
(-0.426772 -0.0644635 -1.66837e-19)
(-0.443476 -0.0955424 5.51663e-20)
(1.08252 -0.0258723 0)
(0.969021 -0.0588813 -2.00326e-20)
(-0.423139 -0.0625772 2.86192e-19)
(-0.378105 -0.0842255 8.86828e-20)
(1.41458 -0.109176 0)
(0.772649 -0.615227 0)
(-0.239805 -0.0675717 4.1454e-20)
(0.975817 -0.131833 -1.34162e-20)
(0.0381055 -0.122932 0)
(0.786505 -0.133898 2.95531e-20)
(0.938741 -0.0616362 -4.92613e-20)
(0.969878 0.0998631 -5.97542e-21)
(-0.376803 -0.0871685 6.8644e-20)
(0.0734318 -0.0514822 -2.12366e-22)
(1.02827 -0.0232098 5.87057e-21)
(1.04202 -0.0881748 0)
(-0.131757 -0.0168631 0)
(1.00038 -0.0034617 3.23596e-22)
(1.03679 -0.0334775 -8.21702e-21)
(1.04813 -0.00908832 0)
(1.07728 -0.00901621 -1.92476e-20)
(0.768254 -0.25589 0)
(0.695253 -0.0832563 -1.06598e-19)
(0.982875 -0.144359 -1.17158e-20)
(1.00604 -0.0220699 -2.55625e-21)
(1.01507 -0.0549229 0)
(1.05596 -0.0239683 3.25866e-20)
(1.0001 -0.0029295 -1.95872e-20)
(1.00017 -0.00227567 2.23475e-21)
(0.937393 -0.0679345 -3.12763e-20)
(-0.0805477 -0.0264849 -1.437e-20)
(1.49896 0.00653536 3.31055e-21)
(-0.136459 -0.0311477 1.0942e-19)
(-0.201772 -0.0859307 -1.54457e-19)
(-0.207144 -0.0557005 -5.04466e-20)
(1.11096 -0.453199 4.3234e-20)
(1.05471 -0.209073 -1.92508e-21)
(1.02478 -0.067301 2.76722e-22)
(1.06095 -0.12145 0)
(0.754287 -0.251749 -8.72794e-20)
(-0.348969 -0.070249 0)
(1.15184 -0.0127473 7.3714e-20)
(-0.360888 -0.085454 -1.73384e-19)
(0.809464 -0.0141884 -7.80273e-20)
(1.16491 0.000865562 4.44412e-20)
(1.27738 -0.367358 2.13389e-19)
(0.820367 -0.00342698 1.08376e-19)
(-0.401526 -0.0756063 -3.60935e-20)
(-0.231516 -0.108148 0)
(1.03621 -0.0468325 0)
(0.213455 -0.0455553 0)
(1.00695 -0.0261422 -3.74677e-21)
(-0.36703 -0.0843183 1.97332e-19)
(-0.441099 -0.0965986 3.14989e-20)
(1.37773 -0.161801 2.5619e-20)
(0.692711 0.146787 2.44783e-19)
(-0.411504 -0.0706798 0)
(-0.418382 -0.0659858 0)
(1.20732 -0.190739 0)
(1.01554 -0.0557339 2.55404e-21)
(-0.419684 -0.075253 3.96335e-20)
(-0.0879633 -0.0267709 3.07993e-20)
(-0.213661 -0.0595131 -2.36329e-19)
(0.941369 -0.0762251 -4.19557e-20)
(-0.428963 -0.0678481 -2.11805e-19)
(0.191518 -0.0604099 0)
(0.988105 -0.0451385 1.49233e-20)
(0.218084 0.116232 0)
(1.50469 0.0190355 4.20138e-20)
(1.02696 -0.0117555 2.97809e-21)
(1.07679 -0.258533 1.71251e-20)
(-0.153372 -0.0370783 4.27614e-20)
(1.46445 -0.0850579 7.76505e-21)
(1.09601 -0.136285 -1.55005e-20)
(-0.024634 -0.123716 5.01581e-20)
(1.00789 -0.0163683 0)
(0.80356 0.0756826 -2.28836e-20)
(-0.419059 -0.0756953 0)
(-0.243777 -0.0503031 0)
(0.295069 -0.066906 0)
(0.941523 -0.892313 -6.57117e-20)
(-0.137819 -0.031312 -4.42517e-20)
(1.34528 -0.263096 -6.87925e-20)
(0.900651 -0.569836 -2.97861e-21)
(1.2641 -0.298805 -6.28026e-20)
(0.135274 -0.121428 1.34434e-19)
(0.750806 -0.224207 -4.98915e-20)
(1.32051 -0.0663549 0)
(1.32833 -0.178369 -4.40862e-20)
(1.07188 -0.0279773 -1.8986e-20)
(-0.363878 -0.0813272 3.8106e-20)
(0.783917 -0.0578509 0)
(1.02805 -0.0123166 -1.81049e-22)
(-0.421287 -0.0632611 0)
(-0.124498 -0.0153568 0)
(-0.137563 -0.0309393 -5.37645e-20)
(0.132654 -0.0946295 -1.5367e-19)
(1.04417 -0.0912851 0)
(1.06724 -0.225937 1.40725e-20)
(-0.244046 -0.0659225 -4.02851e-20)
(-0.291535 -0.0770417 1.03682e-19)
(0.752282 -0.373212 1.35079e-20)
(-0.167223 -0.0312796 1.50586e-20)
(1.24354 -0.158208 -9.69182e-20)
(0.167028 -0.00371809 -1.08744e-20)
(0.912357 -0.0887466 -5.67532e-20)
(-0.240338 -0.0532394 0)
(0.901877 -0.0575245 -8.93551e-20)
(-0.391884 -0.114292 1.7484e-19)
(0.812737 -0.00532094 9.70167e-22)
(-0.322414 -0.053954 -1.77667e-19)
(1.4038 -0.0965562 0)
(0.944554 -0.0761474 3.95198e-20)
(1.15354 -0.2606 -4.26573e-21)
(1.03797 -0.0468483 -7.14723e-21)
(1.3269 -0.115623 -4.13304e-21)
(0.132156 -0.0693041 0)
(0.312981 -0.201089 -2.90331e-19)
(0.168892 -0.0695518 7.40939e-20)
(-0.18102 -0.0867642 -7.20724e-20)
(1.35558 -0.184427 -6.10221e-20)
(-0.0812702 -0.0276736 -6.94204e-21)
(0.922864 -0.0985812 0)
(-0.233859 -0.069787 0)
(1.01938 -0.609917 -9.13055e-20)
(-0.379478 -0.0713844 9.29087e-20)
(1.07996 0.000504291 2.24835e-20)
(0.876629 -0.166793 6.66554e-20)
(1.32163 -0.187323 8.91166e-20)
(-0.422342 -0.0749464 0)
(1.05545 -0.10789 2.41428e-21)
(0.152036 -0.049501 3.96616e-20)
(0.457532 0.0561025 0)
(1.02558 -0.0112535 -1.51003e-20)
(1.23927 -0.216653 -8.24167e-20)
(0.699051 -0.123025 2.13265e-19)
(1.39624 -0.111337 -2.58851e-20)
(0.424163 -0.123333 -6.53735e-20)
(-0.166907 -0.0309943 0)
(-0.156378 -0.0387859 1.91399e-19)
(0.971769 -0.0603344 4.84969e-20)
(-0.27971 -0.0753806 1.15852e-19)
(1.16242 -0.0590269 -2.50756e-20)
(1.03002 -0.021365 5.81953e-21)
(1.21011 -0.213282 -4.09709e-20)
(1.08141 -0.00891638 3.43429e-20)
(0.986336 -0.172279 -1.27879e-20)
(1.08787 -0.0955004 1.83126e-20)
(-0.439067 -0.0866591 0)
(1.1839 -0.0446578 -7.72658e-20)
(-0.259507 -0.0724051 -4.84205e-20)
(1.08439 -0.0297333 0)
(1.02486 -0.0112103 8.97166e-21)
(1.03543 -0.0342733 3.93898e-21)
(1.04663 -0.0363011 1.00816e-20)
(-0.152868 -0.0262565 -1.19042e-19)
(-0.370296 -0.0787431 -1.44395e-19)
(0.581239 -0.0323335 2.56727e-19)
(-0.301259 -0.0773416 9.6151e-20)
(-0.36798 -0.0784726 7.22153e-20)
(0.532196 -0.111788 -6.53429e-20)
(1.1805 -0.244045 0)
(0.147179 -0.123826 0)
(0.0492965 -0.029498 -2.2134e-19)
(0.0641723 -0.0152173 -3.74493e-20)
(-0.418276 -0.0691282 -7.92016e-20)
(1.28671 -0.360125 -8.44429e-20)
(-0.356035 -0.0835491 0)
(0.912625 -0.224455 -2.82414e-20)
(0.980852 -0.045617 0)
(1.04307 -0.0648339 8.28465e-21)
(1.01294 -0.0533252 0)
(0.931732 -0.421699 0)
(1.35837 -0.0262136 -1.37645e-19)
(1.07531 -0.0107487 0)
(1.25508 0.0783511 0)
(1.23949 -0.163738 1.00824e-21)
(0.774655 -0.324723 0)
(-0.0974123 -0.0791242 6.3571e-21)
(1.07929 -0.0065264 0)
(1.00035 -0.00327693 2.63737e-21)
(1.32856 -0.125751 -1.29488e-19)
(-0.390424 -0.0825862 0)
(-0.147695 -0.108144 -1.31902e-19)
(1.19615 -0.0375968 -3.38478e-20)
(-0.13279 -0.0308452 0)
(1.01815 -0.00191283 1.22706e-20)
(1.36344 -0.148387 -1.57281e-19)
(1.00694 -0.0815714 0)
(1.05811 -0.114733 0)
(1.00376 -0.0284323 2.68998e-21)
(1.10194 -0.101017 -2.39432e-20)
(1.21375 -0.171785 1.8956e-20)
(0.760301 -0.122577 2.81045e-21)
(0.0517973 -0.100825 0)
(-0.394992 -0.0796458 -1.93237e-19)
(0.733338 -0.0669365 -1.25034e-19)
(1.01177 -0.0263953 0)
(0.894819 -0.415732 0)
(-0.127714 -0.0304433 0)
(1.06867 -0.000383087 -7.71965e-21)
(0.995882 -0.0112145 -1.56126e-20)
(0.624703 -0.17851 0)
(0.0498947 -0.0731722 0)
(-0.397807 -0.0733774 -2.4182e-19)
(0.993827 -0.140173 -7.02777e-21)
(0.711605 0.442458 4.00495e-20)
(-0.385554 -0.0898621 0)
(1.16766 -0.555467 -1.50897e-20)
(1.02066 -0.00509458 0)
(0.99239 -0.0153347 -3.75267e-23)
(0.000969447 -0.0314226 0)
(1.34563 -0.262243 -3.67204e-20)
(-0.176154 -0.042255 1.09395e-22)
(0.926422 -0.177365 -4.19408e-20)
(-0.190557 -0.0524529 0)
(1.4652 0.207814 7.16851e-20)
(1.33303 -0.10054 1.89985e-19)
(1.06187 -0.00568256 -1.87481e-20)
(1.19874 -0.4755 4.62974e-20)
(-0.281756 -0.093236 1.24121e-19)
(0.716972 -0.0999787 -3.10993e-19)
(0.473058 -0.116433 7.11547e-20)
(-0.144183 -0.109482 5.79753e-20)
(0.513162 -0.446823 1.00172e-21)
(0.972468 -0.119141 1.2173e-20)
(0.0685776 0.0312593 0)
(1.00023 -0.000650693 0)