/*--------------------------------*- C++ -*----------------------------------*\
| =========                 |                                                 |
| \\      /  F ield         | OpenFOAM: The Open Source CFD Toolbox           |
|  \\    /   O peration     | Version:  v2012                                 |
|   \\  /    A nd           | Website:  www.openfoam.com                      |
|    \\/     M anipulation  |                                                 |
\*---------------------------------------------------------------------------*/
FoamFile
{
    version     2.0;
    format      ascii;
    class       volScalarField;
    location    "350";
    object      k_0;
}
// * * * * * * * * * * * * * * * * * * * * * * * * * * * * * * * * * * * * * //

dimensions      [0 2 -2 0 0 0 0];


internalField   nonuniform List<scalar> 
13726
(
0.000175057
0.0210972
0.000157251
0.000166335
0.000209778
0.00016559
0.000159573
0.000157467
0.00021412
0.000180721
0.000210164
0.000148778
0.000151122
0.0418784
0.000165637
0.00015903
0.000215624
0.000164632
0.0552131
0.000679793
0.0648564
0.000134593
0.000157772
0.000157543
0.000137513
0.00014136
0.000173214
0.000141403
0.000136956
0.0154456
0.0771771
0.000147402
0.0511863
0.000181884
0.00171871
0.0424333
0.00016705
0.0232691
0.000158183
0.000160279
0.00117035
0.00136348
0.000150353
0.000156309
0.000173255
0.000156502
0.0043708
0.000145998
0.000192756
0.000146638
0.0503731
0.000146384
0.000120975
0.00016457
0.000158992
0.000171155
0.000132381
0.000117488
0.000173864
0.0001559
0.0431688
0.000156168
0.0305139
0.0001343
0.0161959
0.000145223
0.0619986
0.0450513
0.000147272
0.000216591
0.00424662
0.000157229
0.000156863
0.000152798
0.054608
0.0459442
0.000218249
0.0605954
0.0528092
0.00020452
0.000199177
0.000191701
0.000206189
0.00015485
0.000158736
0.0338587
0.000212919
0.000155485
0.000150542
0.0667982
0.00014451
0.00021237
0.000156137
0.000159014
0.0276872
0.0488921
0.000188471
0.000148726
0.000156485
0.0201446
0.000156592
0.000181927
0.000106972
0.00014269
8.14617e-05
0.000214264
0.000205729
0.000152963
0.000160095
0.000187688
0.000190284
0.000142747
0.0709945
0.0572681
0.0531718
0.000159153
0.00722541
0.07729
9.90502e-05
0.000156614
0.00754768
0.000157917
0.000157255
0.054209
0.0697179
0.0264759
0.000157052
0.000125561
0.000142752
0.0001748
0.0429771
0.0544775
0.000175144
0.000192281
0.038967
0.000209404
0.01849
0.00606457
0.0205236
0.0346781
0.000198685
0.0399471
0.000153187
0.000145069
0.000167425
0.00016716
0.0646312
0.000157884
0.000155649
0.0534796
0.000157562
0.000157734
0.000193359
0.000157488
0.000146745
0.000169203
0.000162914
0.00262667
0.0273616
0.000139769
0.000148441
0.00015368
0.0319337
0.0461177
0.000143404
0.00024859
0.0341119
0.00016005
0.000155753
0.00014689
0.000148919
0.000168101
0.00489815
0.000159546
0.0629664
0.00171585
0.000144593
0.0752813
0.0720284
0.000156964
0.0668358
0.000151276
0.0290074
0.0185958
0.000144832
0.000152657
0.000155483
0.000155548
0.000157601
0.000163565
0.055582
0.00247515
0.0168727
0.0178368
0.000156514
0.000144004
0.000159052
0.0415881
0.0027229
0.000168479
0.0187149
0.00602909
0.0194331
0.000179909
0.000155132
0.000153341
0.000156792
0.0296741
0.000156593
0.000196784
0.000212229
0.0284944
0.0174809
0.000133864
0.063716
0.0533418
0.000158135
0.000151743
0.000165789
0.068652
0.000159203
0.000175463
0.00282322
0.0433358
0.000151666
0.044984
0.0179962
0.0640525
0.0649795
0.000154779
0.0330808
0.0217255
0.0650095
0.0625423
0.000153233
0.00014875
0.0234998
0.0790209
0.00764418
0.0688302
0.000142593
0.000159251
0.000153197
0.0449027
0.00536988
0.0588009
0.000174343
0.000176107
0.00014708
0.000210951
0.0698602
0.000153207
0.0676287
0.000174619
0.000196666
0.000361968
0.000157525
0.0689843
0.0450405
0.000173748
0.00133923
0.0237799
0.000183112
0.000147508
0.0492336
0.0773074
0.000158275
0.00014903
0.00013892
0.000197652
0.00332903
0.000174653
0.0699346
0.000179197
0.0347051
0.0453925
0.0551122
0.0113504
0.000156713
0.000147972
0.0358185
0.000159635
0.0259692
0.000176303
0.0423303
0.000157245
0.0291925
0.00675214
0.000174007
0.000144837
0.0247279
0.000176243
0.0001368
0.0441932
0.0305235
0.000158499
0.000485904
0.000153112
0.058138
0.000146891
0.00713373
0.0473923
0.000198187
0.000147575
0.000136916
0.0125723
0.023772
0.0675127
0.0128013
0.000167228
0.0657571
0.000710125
0.0776807
0.0100726
0.000155517
0.00586359
0.000153151
0.0333886
0.0693479
0.0316264
0.0536082
0.000199713
0.000151546
0.000173395
0.000176123
0.000175474
0.000147469
0.035479
0.000146267
0.0304278
9.78379e-05
0.0184942
0.000159737
0.000177189
0.000195585
0.000146449
0.000160639
0.000172247
0.000160877
0.000191209
0.0119608
0.0435821
0.0650456
0.0302081
0.0147178
0.000205609
0.00017142
0.000196785
0.000526274
0.000151983
0.038753
0.0439693
0.0510112
0.000152818
0.000166877
0.000155009
0.000155597
0.027731
0.000164204
0.000159606
0.00015894
0.000175462
0.0206989
0.00015607
0.000180873
0.0660024
0.0725019
0.000156923
0.000161179
0.000161768
0.00020983
0.000151391
0.000151947
0.000165891
0.00393347
0.000162048
0.000138054
0.0716659
0.000190384
0.000206815
0.000152145
0.000152241
0.000156193
0.042749
0.0726448
0.0756835
0.065823
0.000175844
0.000157748
0.000165726
0.000153584
0.000146388
0.000157168
0.000157008
0.00015044
0.000166551
0.0642985
0.0432638
0.000185299
0.000154272
0.000153813
0.000153849
0.000160955
0.000189248
0.000156159
0.000176098
0.0001665
0.000156105
0.0712538
0.0125608
0.0265259
0.000163507
0.0566542
0.0645794
0.000263591
0.000155746
0.0693663
0.033508
0.0263272
0.049573
0.0667314
0.00503455
0.000133626
0.000201943
0.0280545
0.000159766
0.0275581
0.000153423
0.000151935
0.000192735
0.0742146
0.0689817
0.0487564
0.0675052
0.000162388
0.00015495
0.000154939
0.000159854
0.000169491
0.000203019
0.000157575
0.0275998
0.000154097
0.0535153
0.000613737
0.000156351
0.0335769
0.000140458
0.000145
0.000239927
0.000158552
0.0390364
0.0482227
0.000148333
0.037837
0.000147983
0.0694125
0.0358783
0.000147752
0.000157392
0.000174965
0.0601201
0.00017993
0.0487124
4.71523e-05
0.000162247
0.068639
0.033026
0.000151545
0.0721697
0.000191087
0.000143413
0.000161163
0.000153678
0.0561713
0.000143683
0.00560978
0.00133241
0.0449354
0.000189635
0.00477465
0.000151451
0.000142199
0.0305066
0.000136346
0.00015803
0.000154021
0.00016185
0.0461136
0.0574072
0.000163491
0.000214038
0.000144532
0.0481942
0.0428626
0.000171487
0.000164233
0.0572544
0.0378926
0.000144347
0.000151115
0.00538329
0.000151078
0.00019775
0.000167106
0.000143644
0.0450747
0.0231015
0.000150513
0.000152942
0.000152968
0.0319292
0.000147685
0.000192316
0.000142363
0.040415
0.000216247
0.000158192
0.000171289
0.000172407
0.000156565
0.000197541
0.0305047
0.00722277
0.000200769
0.000197509
0.0543187
0.000208459
0.00013396
0.00388535
0.000190484
0.000180698
0.0542718
0.000153342
0.0711997
0.000179994
0.000150017
0.0442036
0.000182668
0.000159013
0.0261198
0.000150855
0.000147037
0.000162032
0.000217841
0.0314964
0.000174417
0.000142166
0.00178268
0.000146458
0.000147211
0.00569061
0.000161776
0.0511374
0.000153062
0.000179391
0.000154978
0.048216
0.0498908
0.0495657
0.0183342
0.000177391
0.0584862
0.000156891
0.0748359
0.00112145
0.000189563
0.000156761
0.0596411
0.00018652
0.071429
0.000144964
0.000149963
0.0694817
0.000155788
0.0322704
0.000179457
0.000168021
0.000205703
0.000164246
0.0479827
0.0278725
0.00016246
0.000150434
0.0121725
0.000147253
0.0560512
0.00475411
0.000144028
0.0418136
0.000161574
0.000188884
0.000161473
0.000157805
0.0311754
0.000157876
0.0700168
0.000157224
0.000404149
0.0474829
0.000177756
0.00014443
0.000158339
0.000154687
0.000159023
0.0554409
0.0690577
0.0133383
0.000153799
0.012153
0.0530067
0.056817
0.00017761
0.0353795
0.0286164
0.000167666
0.00015446
0.000142784
0.0644196
0.000164909
0.000150688
0.0001483
0.065824
0.0619292
0.000199648
0.000144021
0.000167184
0.000198592
0.000142208
0.000178965
0.0471101
0.000161501
0.0530304
0.000151737
0.0300918
0.000184261
0.000143471
0.0147427
0.0193369
0.000153287
0.0103632
0.00015598
0.000182934
0.0253102
0.00020929
0.0654353
0.000159349
0.000136549
0.0303126
0.000168164
0.000214928
0.000176986
0.0677273
0.00013702
0.0137544
0.000171344
0.000145182
0.000157518
0.045328
0.000137012
0.000146574
0.000153449
0.0125075
0.0114608
0.000107579
0.000149009
0.000164564
0.0573039
0.0579993
0.000151649
0.0463712
0.000210055
0.063484
0.0476092
0.000218079
0.000195996
0.0044195
0.000143693
0.000151673
0.0692954
0.000171616
0.000171305
8.08472e-05
0.00319116
0.000147016
0.000151764
0.000157291
0.000160078
0.0731399
0.000193422
0.000146153
0.000172353
0.000154324
0.00015809
0.000157189
0.00015691
0.000158584
0.0758151
0.000151347
0.000178826
0.000123559
0.000152238
0.000148929
0.000182597
0.000150036
0.00020031
0.0001719
0.0580304
0.000151259
0.0472037
0.000148364
0.0548597
0.0387257
0.000192187
0.000162301
0.000166122
0.000151614
0.000152083
0.000136724
0.000164546
0.000151681
0.0737155
0.0777104
0.00237515
0.0411373
0.000152011
0.0176518
0.000149551
0.000150227
0.000143107
0.000156141
0.0178357
0.000184042
0.0683938
0.000177221
0.00120994
0.0729017
0.00607176
0.00220179
0.000191685
0.000162427
0.000154652
0.000155485
0.00012271
0.0565486
0.0655306
0.000194539
0.000157444
0.00014423
0.0704504
0.000156594
0.000151758
0.000152784
0.000157801
0.0431807
0.000211829
0.000194681
0.000163208
0.0350368
0.0311872
0.000154825
0.0249264
0.000582202
0.000153847
0.0704001
0.0465184
0.0488495
0.000149252
0.000199581
0.0449409
0.00014638
0.0249701
0.000164776
0.000196323
0.000123999
0.000153242
0.000210046
0.029971
0.000147445
0.000153338
0.000156387
9.51874e-05
0.000142175
0.0552588
0.00805951
0.000142328
0.000135588
0.000152589
0.0600656
0.000146455
0.0139752
0.0630324
0.0772578
0.0211733
0.0471123
0.0690341
0.0583099
0.000157466
0.000154237
0.065504
0.000146577
0.046053
0.0563871
0.0456493
0.000143683
0.00016065
0.000151058
0.00766045
0.000146856
0.0556964
0.00811758
0.00586679
0.0665412
0.00011952
0.044442
0.000170653
0.0680875
0.000179697
0.0470921
0.000159493
0.000230301
0.000154662
0.000803291
0.00016811
0.000191849
0.000170085
0.000153826
0.000151362
0.056982
0.000147988
0.000154203
0.030306
0.000168287
0.000151355
0.000154594
0.0166858
0.000152423
0.000171693
0.000198941
0.000141544
0.000180439
0.000146969
0.0585649
0.000150744
0.000140627
0.000211768
0.0203263
0.000152847
0.000164408
0.057882
0.0234811
0.000187712
0.000144062
0.0543075
0.0503094
0.0261878
0.000213633
0.0330756
0.00014853
0.000176367
0.000189648
0.000139698
0.000163484
0.0229879
0.000191058
0.0449512
0.000149885
0.000207904
0.000152602
0.000183304
0.0194054
0.0268359
0.000142379
0.000156485
0.000203112
0.000161602
0.000145498
0.000149414
0.054461
0.0462773
0.000185348
0.000149243
0.00017082
0.000143663
0.0478129
0.000164904
0.000143611
0.0272791
0.000180505
0.000210601
0.000160005
0.0806948
0.00929719
0.000156718
0.000146405
0.0176796
0.00638354
0.000148796
0.0260848
0.0316685
0.0510533
0.0667356
0.0682701
0.025684
0.000181148
0.00302347
0.000147467
0.000150674
0.0532298
0.000150933
0.0505399
0.000151856
0.016857
0.0400653
0.000167725
0.0639915
0.019319
0.0318913
0.000160389
0.000151631
0.000142275
0.00021374
0.0215887
0.000151654
0.0589138
0.000172881
0.0146891
0.000195035
0.000109203
0.00862717
0.000148755
0.00850781
0.000179864
0.000147175
0.00015268
0.0647084
0.000190286
0.000153773
0.0694683
0.000150062
0.0143575
0.000150112
0.0155121
0.0556958
0.0518399
0.00016012
0.000147641
0.000183483
0.000154934
0.0555801
0.047784
0.000147449
0.000190601
0.000197212
0.0355509
0.00248373
0.000153617
0.015184
0.000159693
0.000151853
0.0549676
0.0544136
0.0541396
0.000160624
0.0752692
0.000185853
0.0484664
0.000317804
0.0217034
0.0612019
0.000166804
0.0161127
0.0516671
0.0697311
0.0453123
0.00014706
0.0691576
0.000195802
0.000197447
0.000148981
0.00015048
0.0120679
0.000150955
0.0731623
0.0557221
0.0178621
0.0430254
0.0307693
0.0593925
0.0601496
0.0642398
0.000152561
0.0120038
0.000141794
0.0311881
0.0259314
0.000142079
0.0253578
0.000147666
0.000149071
0.000154152
0.000145846
0.0763791
0.0315337
0.000152354
0.000164828
0.00468857
0.0291228
0.000168606
0.000200919
0.0134229
0.000144952
0.00016891
0.00015246
0.0230096
0.000164118
0.000153697
0.0100658
0.000158409
0.00775528
0.0465491
0.00014963
0.0632349
0.000159011
0.0590517
0.0327069
0.058205
0.000156299
0.00651216
0.000176938
0.0512579
0.000161513
0.00175397
0.000144707
0.000142849
0.0470276
0.000159449
0.000145226
0.0145889
0.000184256
0.000158823
0.0452749
0.000156611
0.00015938
0.0161859
0.0666787
0.000172597
0.0192526
0.000143794
0.0801036
0.000159514
0.000155849
0.000156246
0.000144013
0.000151846
0.00497414
0.0446356
0.000150989
0.0317024
0.000170051
0.0404237
0.000143355
0.000151304
0.000205747
0.00153452
0.000150396
0.000155626
0.0274374
0.000147986
0.000200038
0.000148036
0.0291293
0.00660133
0.000186622
0.00020792
0.070367
0.000134107
0.000158537
0.000784541
0.0630934
0.00019183
0.0440867
0.000151847
0.0695025
0.0622981
0.000149366
0.00016701
0.044925
0.000199476
0.000155674
0.00914221
0.000183451
0.000155596
0.000197539
0.000152018
0.00084451
0.00140508
0.000143328
0.075487
0.027909
0.000150036
0.000198273
0.0312156
0.0595275
0.00170398
0.000165938
0.00016947
0.0693112
0.000153912
0.000123694
0.0526173
0.00014357
0.0249843
0.000154993
0.000152325
0.0536802
0.000470245
0.00906339
0.000195345
0.000158031
0.000140257
0.052603
0.0148965
0.000152336
0.000178629
0.0477578
0.000149259
0.000167746
0.00016239
0.000165502
0.0463798
0.000160226
0.00014611
0.0001894
0.000165392
0.0550815
0.0736563
0.0660501
0.000197476
0.000136051
0.000147244
0.0465332
0.000215426
0.0440425
0.00019285
0.000159091
0.000165206
0.000150891
0.000167358
0.00069323
0.0742064
0.000160723
0.0271875
0.0754675
0.000141217
0.0549136
0.0413181
0.0249511
0.0131175
0.00013735
0.0132575
0.000360303
0.02597
0.000163336
0.000181971
0.0729271
0.000155543
0.000155799
0.0777547
0.000205688
0.0459016
0.0480207
0.000200018
0.0500702
0.0679865
0.00014867
0.0547739
0.00908507
0.000151466
0.000165599
0.0409047
0.000154956
0.000157862
0.000156368
0.000146275
0.0753722
0.000145676
0.000209332
0.00713423
0.00115643
0.000153765
0.000181617
0.0682945
0.000137207
0.000152177
0.000161483
0.00015376
0.00017334
0.0599292
0.000150659
0.000146569
0.0231179
0.000145116
0.0683199
0.000153857
0.0773061
0.000167717
0.0608883
0.0174242
0.000152556
0.0442419
0.00101966
0.000169203
0.000158519
0.000149392
0.0316172
0.000147996
0.00917888
0.00015067
0.000167476
0.00219728
0.032761
0.000147702
0.000169141
0.000153828
0.000184912
0.000146311
0.000176979
0.000153368
0.0745578
0.0126107
0.000162312
0.000154506
0.0704095
0.0203681
0.000146002
0.000140637
0.0687753
0.0238157
0.0735945
0.000174353
0.000178346
0.00931797
0.00019179
0.0664102
0.0768118
0.000159066
0.00014736
0.0455203
0.000209732
0.000154284
0.0743234
0.0371857
0.0747102
0.000144702
0.000194846
0.000164484
0.000158708
0.000155471
0.00926057
0.000180214
0.000149442
0.0533333
0.000147261
0.000151595
0.000189357
0.0109409
0.000156637
0.0759834
0.00015395
0.000165706
0.000160672
0.000160998
0.000151482
0.0639245
0.0563715
0.00015068
0.0347961
0.000151154
0.000145143
0.024606
0.0657036
0.000147304
0.0599354
0.000164239
0.000150761
0.000146202
0.0524657
0.0292417
0.000135804
0.0674865
0.0623346
0.0469504
0.000185794
0.0739963
0.0325975
0.000162856
0.0120061
0.000151416
0.000154112
0.000145914
0.0656861
0.0515553
0.0420734
0.0124012
0.00014157
0.000147395
0.000150244
0.000179442
0.000166085
0.00013517
0.000148623
0.000153294
0.0465778
0.000142451
0.000146094
0.000134457
0.0368897
0.000151055
0.000136325
0.000154339
0.0505873
0.000155079
0.00015971
0.000181654
0.00584979
0.000151102
0.000198846
0.000185234
0.000177039
0.000253078
0.0118155
0.000165942
0.00758419
0.0535131
0.000166577
0.000146736
0.000154774
0.000161295
0.000181386
0.000178292
0.000153764
0.0316906
0.000135512
0.000174668
0.000170505
0.000153321
0.000146594
0.000145718
0.00017273
0.000152073
0.000209861
0.00116292
0.0411969
0.00191965
0.00217592
0.000196104
0.000140364
0.00020434
0.0491437
0.000152119
0.00202457
0.020068
0.0339099
0.000146547
0.047414
0.000158199
0.0150384
0.00015579
0.000151937
0.000151641
0.000163641
0.0129439
0.000167544
0.0483532
0.0615024
0.0778678
0.000155591
0.000146912
0.000179442
0.0704344
0.000151818
0.000153948
0.0474659
0.000143962
0.0645587
0.000173763
0.000199577
0.000149641
0.000152018
0.030726
0.000143003
0.0254664
0.0806177
0.00129393
0.000151187
0.000163295
0.064488
0.0416053
0.02202
0.000145309
0.000203005
0.0108274
0.0750832
0.0790226
0.000153772
0.000145738
0.000151312
0.000149844
0.000110025
0.000188882
0.000139797
0.00016174
0.0580255
0.0667138
0.00924398
0.000197132
0.00219011
0.00014612
0.000148164
0.000288425
0.000157262
0.00019702
0.00020224
0.000168493
0.000155916
0.0249937
0.0696304
0.0507758
0.000168302
0.0627495
0.000143855
0.000174426
0.0061301
0.000133743
0.000149533
0.0338166
0.0241566
0.000170714
0.000569556
0.000163433
0.0523688
0.000163991
0.012098
0.000155448
0.000186515
0.0575632
0.0589099
0.0286271
0.000165453
0.000148602
0.00020631
0.000179886
0.000161
0.000212134
0.04468
0.000107003
0.000160701
0.000193279
0.000175429
0.000187683
0.000173999
0.000159925
0.000153815
0.046466
0.00552073
0.000161752
0.000136989
0.000190145
0.000156872
0.000189408
0.00020532
0.00014546
0.0286114
0.0310991
0.000148679
0.000145542
0.000158708
0.0699899
0.000195608
0.000147946
0.000151305
0.000135804
0.000159136
0.0743583
0.000216442
0.000160364
0.0187791
0.000174917
0.000185215
9.85765e-05
0.000193877
0.0553128
0.000135155
0.0674042
0.0312377
0.000189112
0.000160993
0.000173065
0.000153514
0.000173393
0.0664684
0.000209217
0.0239718
0.000146454
0.000152439
0.0298241
0.0583486
0.0259125
0.0129747
0.000209815
0.000157648
0.0196717
0.0484408
0.000137025
0.0625816
0.0611244
0.00015931
0.000208451
0.000146149
0.000152547
0.000146191
0.000154455
0.000125669
0.0423715
0.000153987
0.000138271
0.0701581
0.000611862
0.0118932
0.0621577
0.0690037
0.000183624
0.000170046
0.000162546
0.000140918
0.000143096
0.000135014
0.034657
0.000191883
0.000157827
0.0434612
0.00013963
0.00135584
0.000156776
0.0495627
0.00276942
0.000152424
0.000166137
0.078984
0.0331162
0.0435189
0.0323999
0.00392703
0.0725556
0.000208823
0.0115998
0.0432869
0.000157715
0.000145497
0.0295258
0.000139948
0.000159578
0.000158184
0.000148798
0.000193093
0.0688006
0.000173375
0.000174816
0.000187332
0.000165864
0.0647414
0.0109018
0.000166622
0.0146279
0.000195396
0.0108041
0.000163215
0.0598113
0.000179398
0.0516674
0.0677874
0.000165938
0.000177105
0.0091944
0.000177969
0.0619077
0.00607471
0.0567259
0.000176926
0.000188656
0.000157297
0.0509648
0.011353
0.0635943
0.000150638
0.00020093
0.000163319
0.0546641
0.0223372
0.0122165
0.011678
0.0047273
0.0680168
0.053834
0.000147772
0.000240093
0.0558046
0.0691399
0.000196141
0.000170982
0.0270241
0.000158495
0.000154383
0.00014935
0.000167989
0.0259329
0.0106084
0.000141521
0.000165896
0.000159966
0.0001931
0.0520431
0.000149951
0.0296573
0.0254242
0.0441312
0.000157798
0.000154873
0.000144279
0.0319311
0.00432296
0.0485381
0.000148546
0.000149724
0.0121114
0.00016359
0.0512622
0.000153555
0.0635233
0.0287138
0.000147998
0.000169171
0.023347
0.000149878
0.00014791
0.0266975
0.000654413
0.000161056
0.0633969
0.000230846
0.03117
0.0502237
0.0496732
0.000197561
0.0471697
0.0134497
0.027632
0.0321483
0.0457994
0.000156692
0.000203921
0.000147087
0.00015051
0.0146683
0.000108186
0.0245475
0.00014836
0.00020743
0.00662307
0.000165888
0.00016133
0.000147595
0.0724253
0.000153286
0.0673742
0.000134674
0.0661149
0.0347051
0.000155861
0.01684
0.0512945
0.0101218
0.000151717
0.000148793
0.000146636
0.0516195
0.000183016
0.000225132
0.000155714
0.0078277
0.00017986
0.0273651
0.0452982
0.0123551
0.0219698
0.0208695
0.000178138
0.000156481
0.0492413
0.000164292
0.0169716
0.000176541
0.0200742
0.000157576
0.000150354
0.0473576
0.000148482
0.000225801
0.0428967
0.0711758
0.000151046
0.0592303
0.000162857
0.05019
0.00211078
0.000162424
0.00015636
0.000145869
0.0698091
0.0578738
0.0508539
0.0291481
0.00015699
0.000180564
0.0729331
0.000146301
0.0587214
0.000143388
0.0755498
0.000185678
0.000198005
0.000153444
0.0325803
0.0109808
0.000198681
0.000168236
0.00014986
0.0157071
0.000154754
0.000159572
0.000198985
0.0207312
0.0223631
0.00015368
0.000151851
0.000196145
0.0734224
0.000201576
0.060817
0.000177819
0.000180601
0.0747222
0.0599802
0.000190624
0.0271079
0.000148114
0.0552363
0.0347064
0.0608685
0.00015092
0.000158148
0.0215962
0.000166575
0.0501401
0.000159248
0.000147297
0.000158537
0.000153475
0.000233077
0.0274465
0.000147299
0.000154337
0.0468919
0.000171191
0.000142971
0.000156009
0.0200758
0.000148331
0.000165084
0.000151609
0.000149278
0.0248528
0.00018273
0.0493166
0.000149156
0.021018
0.0454986
0.000158056
0.000150395
0.0606385
0.000161581
0.000161648
4.85267e-05
0.0216376
0.000192821
0.0347262
0.000163689
0.0277697
0.000174203
0.000155387
0.000156381
0.0246255
0.000147548
0.0317336
0.0498269
0.0644535
0.000202741
0.0289813
0.0188768
0.0360983
0.0194421
0.0266322
0.000188629
0.000159845
0.0548185
0.000152115
0.0512831
0.00880695
0.000163794
0.0136637
0.0675279
0.000152634
0.000144169
0.0213826
0.0425697
0.000146617
0.0694375
0.000160527
0.000142073
0.0170787
0.0711383
0.00014509
0.00019113
0.000153819
0.0541333
0.000155912
0.0312943
0.00355278
0.000171583
0.000146705
0.000185977
0.0530465
0.000156641
0.000176404
0.0459063
0.000147819
0.000176593
0.0662595
0.000156851
0.0468552
0.000144286
0.000158442
0.0410315
0.000154647
0.0173258
0.0255859
0.0594093
0.000150261
0.0554117
0.0585754
0.000154975
0.00015251
0.00622208
3.05235e-05
0.000150136
0.00020904
0.0335939
0.000161585
0.0711782
0.0337095
0.0560988
0.0693099
0.000165741
0.000146796
0.000145831
0.000141135
0.054391
0.000156074
0.0325606
0.000150807
0.0281447
0.000143498
0.000196138
0.0120825
0.000154085
0.0233335
0.00019432
0.000188003
0.0299202
0.0551301
0.000170045
0.000145229
0.0317826
0.000164429
0.000133878
0.0565857
0.076455
0.0745052
0.0342206
0.0322996
0.000191537
0.0784245
0.0698498
0.0736414
0.000171551
0.00897002
0.00017652
0.000154729
0.0191851
0.0528227
0.0331744
0.000150301
0.000153456
0.000184264
0.000148941
0.000144381
0.000173361
0.000174414
0.000137897
0.000169781
0.060235
0.0642305
0.0246399
0.000152202
0.0609816
0.0533237
0.000172291
0.00239735
0.000140542
0.000146336
0.000159282
0.000207726
0.0344422
0.000188265
0.000116701
0.034568
0.000172809
0.000140965
0.0441243
0.000155153
0.0207987
0.000151411
0.048046
0.0280321
0.0281184
0.000154608
0.000149316
0.000150088
0.000175352
0.000138858
0.000155307
0.0651883
0.000174393
0.0247125
0.000675983
0.000216096
0.000201784
0.0324438
0.0335052
0.000150968
0.000178873
0.000157273
0.00325729
0.0479882
0.000165539
0.0309851
0.000161294
0.000152984
0.000966716
0.070344
0.000152926
0.000168318
0.000179862
0.000153962
0.000151908
0.000164445
0.0268567
0.000150835
0.000148384
0.000180013
0.00735939
0.000161356
0.0330678
0.0738914
0.000189685
0.000202885
0.000154025
0.000180666
0.0001794
0.000144745
0.000153504
0.0558493
0.0550492
0.034244
0.079368
0.000153326
0.000145391
0.000201862
0.0503773
0.0492989
0.0298133
0.000143283
0.00825584
0.0533979
0.0537534
0.0562974
0.000167034
0.000159294
0.0516743
0.0135536
0.00015271
0.00014992
0.000159659
0.0733904
0.000140903
0.000154288
0.0698551
0.00019151
0.000171665
0.033877
0.000163558
0.000178083
0.000167649
0.0444834
0.0505059
0.0571455
0.0759407
0.0365105
0.0290299
0.0744305
0.000151395
0.0497653
0.000153796
0.0676645
0.0692135
0.0242106
0.0293463
0.0152813
0.000185922
0.0418023
0.0323053
0.000152773
0.000118576
0.0686018
0.0255379
0.013667
0.0553406
0.0061944
0.000181766
0.000186299
0.000142604
0.000143412
0.000188522
0.0357741
0.000168197
0.0692887
0.000167429
0.000215993
0.000152617
3.52456e-05
0.000144575
0.0304589
0.0760854
0.000184532
0.0423135
0.000195706
0.0243327
0.0201822
0.0769197
0.00015766
0.000164381
0.000171701
0.0770715
0.00019491
0.0335929
0.00016236
0.000156563
0.000207166
0.0666261
0.000185875
0.000142074
0.0741496
0.000174734
0.0488946
0.00960119
0.000150718
0.014407
0.0629007
0.000157293
0.0572676
0.0332743
0.0494716
0.0458755
0.000179254
0.078419
0.000186392
0.000170728
0.000203655
0.000148355
0.000205403
0.0321174
0.000208419
0.00022053
0.0459101
0.00020274
0.000149893
0.000180055
0.000292639
0.000163705
0.0480164
0.000151005
0.00020535
0.0548071
0.0254114
0.034881
0.0364275
0.0754426
0.000146656
0.00021658
0.0690541
0.0622722
0.000157604
0.000149996
0.0308413
0.000149746
0.000159611
0.000209438
0.000193924
0.0783205
0.000158361
0.0375908
0.000219342
0.0347055
0.000209983
0.000164694
0.000201397
0.000144255
0.000161533
0.058927
0.000152512
0.067681
0.0362919
0.000152321
0.000167135
0.0371851
0.00021863
0.000196294
0.000197011
0.000181138
0.0573167
0.000204316
0.0496153
0.0323572
0.0397873
0.0329974
0.0692419
0.0150075
0.026444
0.0494991
0.000156819
0.000164794
0.000211085
0.0684978
0.000211106
0.0661738
0.0454988
0.000172558
0.000161718
0.00521778
0.0253737
0.0502634
0.00380204
0.0781732
0.000173043
0.0001701
0.000163449
0.0157801
0.000208981
0.0574464
0.000162791
0.0692516
0.052343
0.00014898
0.000165669
0.00888097
0.000206507
0.0458025
0.000159154
0.000160592
0.000149872
0.000181986
0.000142498
0.0447553
0.000151561
0.0329301
0.000152429
0.0342294
0.000153521
0.000216364
0.000190616
0.0002059
0.000145917
0.0432931
0.000135677
0.00249645
0.000485722
0.00344604
0.0791739
0.000215163
0.0692724
0.0525972
0.0585884
0.0212431
0.000215362
0.000152399
0.000144535
0.000142992
0.000189279
0.000159538
0.00520277
0.0679017
0.000202873
0.0467461
0.00944066
0.000149909
0.000166061
0.0593355
0.000175494
0.0799866
0.0327155
0.000155005
0.0494766
0.0390674
0.000189202
0.000231247
0.000177827
0.0347982
0.000148056
0.0573976
0.0355216
0.000157715
0.0334869
0.0114683
0.000205233
0.068548
0.000146579
0.0442544
0.00961824
0.000208775
0.0271945
0.000146163
0.000147143
0.00020071
0.0002068
0.0351674
0.0149695
0.0306107
0.000160808
0.00015363
0.0585598
0.0465986
0.071346
0.000187052
0.0404914
0.00018223
0.000139101
0.0597054
0.000215156
0.0590796
0.000195861
0.000165189
0.000187789
0.0511391
0.000205852
0.0372106
0.0490687
0.0494231
0.0615624
0.0609641
0.00365616
0.0485125
0.00465643
0.0664303
0.000194672
0.000160329
0.000144703
0.000118716
0.0001415
0.00020516
0.000149646
0.0786551
0.0808187
0.076432
0.000378035
0.000187236
0.0345101
0.000197538
0.0653878
0.00017233
0.0273577
0.00154318
0.000372649
0.000216308
0.031502
0.000203587
0.000147533
0.000158638
0.0545487
0.000187434
0.000142241
0.000198533
0.0011555
0.000147792
0.000150993
0.031898
0.053482
0.000188549
0.00018099
0.000147891
0.000160072
0.0478635
0.0299357
0.000147673
0.0796355
0.000150128
0.000171705
0.0475626
0.000185013
0.000171852
0.000190649
0.0318226
0.0436514
0.0638441
0.000159096
0.0765312
0.000153135
0.000169765
0.000193351
0.0218928
0.000204596
0.0689902
0.0116968
0.0132854
0.000191492
0.0221588
0.0475226
0.00920839
0.000186186
0.0715473
0.000202871
0.00017616
0.000220282
0.000186541
0.00014328
0.000194641
0.000198892
0.000150834
0.000185299
0.000208233
0.000185576
0.000205861
0.00013882
0.000165845
0.00759386
0.000151896
0.000196395
0.00985426
0.000161118
0.000150247
0.000183883
0.0558392
0.0716415
0.0165632
0.000185017
0.000180783
0.0529831
0.00014575
0.0352604
0.000203464
0.0133693
0.000143873
0.0779472
0.000169206
0.00729309
0.000142832
0.00016801
0.0659309
0.0560624
0.0751638
0.000179325
0.0624076
0.0541705
0.0745939
0.000206629
0.000198002
0.000148289
0.064271
0.00303738
0.000187675
0.000150844
0.00110725
0.0729201
0.000149285
0.049218
0.000192148
0.00014996
0.00014767
0.000159268
0.0523304
0.031503
0.0570192
0.000155763
0.000150947
0.000193621
0.000147729
0.0671144
0.000153349
0.0799315
0.000170848
0.0573921
0.000203997
0.0474099
0.0624639
0.0429989
0.0537083
0.0729215
0.000146903
0.00910683
0.000174788
0.000153793
0.0480095
0.000175873
0.000158618
0.000158013
0.000186587
0.0158361
0.0255943
0.000147382
0.00014817
0.000174385
0.000181294
0.000156535
0.0214007
0.0201214
0.000147747
0.000169909
0.052381
0.0254313
0.000188049
0.0687544
0.0271443
0.0154059
0.0452914
0.000174431
0.000165334
0.0546176
0.000154889
0.000155678
0.0578448
0.000142461
0.000171635
0.000186404
0.000147002
0.0768319
0.000179407
0.000167115
0.000154235
0.000153126
0.000167952
0.0221975
0.000148802
0.000185907
0.000165868
0.0591148
0.000150786
0.000161312
0.000192034
0.000148835
0.000186917
0.0700651
0.0607299
0.000160176
0.000157026
0.000164829
0.0684219
0.0754565
0.0332634
0.000159027
0.000163844
0.000149107
0.0512045
0.000158093
0.000252586
0.000178145
0.00789201
0.0798364
0.000209171
0.000177287
0.000206933
0.0176905
0.0389202
0.000271806
0.000159012
0.000157176
0.000174077
0.0334209
0.00885084
0.000166411
0.0531477
0.0208844
0.000172335
0.018413
0.000148171
0.0809827
0.0425223
0.000151145
0.0714395
0.0722153
0.000172963
0.000701852
0.000163284
0.0141951
0.0250949
0.000156969
0.000152361
0.0608593
0.000142838
0.0197109
0.002131
0.0607162
0.0635503
0.0240455
0.000159074
0.00017035
0.0159563
0.000145011
0.000209335
0.0677863
0.0311287
0.000152767
0.000174488
0.000184146
0.000153601
0.000209349
0.0701602
0.000159771
0.000155076
0.0220179
0.0509795
0.000199807
0.000163688
0.0795152
0.0784505
0.000158748
0.00019963
0.000164325
0.00974158
0.0643347
0.000158715
0.0226794
0.0701586
0.0547273
0.000204912
0.000165177
0.049538
0.000174539
0.00018
0.0707602
0.000147489
0.0280589
0.0752083
0.000185327
0.0134745
0.000206792
0.000184122
0.0227255
0.00016235
0.000162742
0.00766702
0.000153945
0.000185462
0.000201682
0.000143232
0.000159949
0.000144656
0.000158023
0.0556541
0.000145594
0.0341088
0.000189489
0.000146068
0.000146883
0.0508203
0.0647601
0.000196404
0.000157263
0.0682448
0.00015864
0.000169229
0.000146616
0.065092
0.0231086
0.000161063
0.000165301
0.000388535
0.000191357
0.000187673
0.00014545
0.0488845
0.000152897
0.000150638
0.0419397
0.0493871
0.000218676
0.00141283
0.0463005
0.000149464
0.0170906
0.053905
0.0088119
0.00016002
0.0247969
0.000158543
0.0487077