/*--------------------------------*- C++ -*----------------------------------*\
| =========                 |                                                 |
| \\      /  F ield         | OpenFOAM: The Open Source CFD Toolbox           |
|  \\    /   O peration     | Version:  v2012                                 |
|   \\  /    A nd           | Website:  www.openfoam.com                      |
|    \\/     M anipulation  |                                                 |
\*---------------------------------------------------------------------------*/
FoamFile
{
    version     2.0;
    format      ascii;
    class       volScalarField;
    location    "350";
    object      nut;
}
// * * * * * * * * * * * * * * * * * * * * * * * * * * * * * * * * * * * * * //

dimensions      [0 2 -1 0 0 0 0];


internalField   nonuniform List<scalar> 
13726
(
0.00500374
0.00650012
0.00350091
0.00592378
0.00122598
0.00558906
0.00648636
0.00670959
0.00133323
0.00136381
0.000925644
0.00678339
0.0064557
0.0327309
0.00598403
0.00639143
0.00121107
0.00622442
0.0326509
0.00110267
0.0240116
0.00681263
0.00679402
0.00342269
0.00674678
0.00694466
0.00309402
0.00694384
0.00676708
0.00286208
0.0230785
0.00666985
0.0324858
0.0045487
0.00636091
0.038337
0.00219189
0.00840444
0.00675541
0.00661574
0.0014045
0.00488571
0.00670178
0.00684584
0.00495387
0.00679379
0.0137651
0.00692079
0.00148459
0.00649989
0.0324685
0.00690688
0.00432352
0.00623162
0.00227664
0.00589035
0.00488025
0.00383078
0.00158755
0.00356723
0.0424315
0.00684959
0.0145193
0.00682051
0.0029941
0.00685286
0.0229488
0.0289151
0.00686815
0.00136193
0.0130905
0.00672296
0.00643978
0.00416154
0.0326478
0.0407769
0.00152221
0.0453536
0.0322951
0.00199964
0.00061131
0.00174975
0.00216695
0.00643642
0.00671554
0.0246732
0.00202281
0.00386353
0.0064539
0.0266028
0.0067866
0.00155636
0.00610424
0.00214746
0.0296787
0.0316236
0.00228541
0.00678449
0.00686478
0.0321195
0.00486828
0.00151687
0.00305041
0.00686997
0.000946386
0.00133235
0.00146648
0.00684778
0.00660023
0.00231641
0.00107596
0.00687857
0.0320858
0.0419006
0.0445884
0.00669322
0.0120701
0.0252694
0.00289081
0.00326994
0.000335167
0.00640253
0.00353787
0.0323981
0.0319875
0.0118063
0.006835
0.00437606
0.00687786
0.00510309
0.0423173
0.0218847
0.00503818
0.00137286
0.0259554
0.00138258
0.00454213
0.026631
0.0315682
0.039621
0.00149143
0.024895
0.00689649
0.00694307
0.00544412
0.00194204
0.0252647
0.0021726
0.00426342
0.0323461
0.00680978
0.00642464
0.00163639
0.00211662
0.00689431
0.00376663
0.00191187
0.00641583
0.0296211
0.00666642
0.00648011
0.00639821
0.0176683
0.035609
0.00692651
0.00221521
0.0396804
0.00643176
0.00443908
0.00652567
0.00425986
0.00361284
0.0081878
0.00271929
0.0456849
0.00512191
0.00695207
0.0240156
0.0299379
0.00638611
0.0338941
0.00689764
0.0146721
0.0154292
0.00694828
0.00691655
0.00640288
0.00512462
0.0068031
0.00205791
0.0384636
0.00940088
0.0038706
0.00437695
0.00676984
0.00690982
0.00669875
0.02109
0.0103103
0.0023713
0.00317725
0.0259035
0.00535727
0.00474017
0.00643138
0.00691452
0.0050596
0.0274776
0.00292126
0.00145947
0.00140391
0.0305876
0.00384236
0.0068028
0.0454676
0.0324762
0.00294922
0.00663566
0.00609957
0.0321403
0.00242855
0.00105181
0.00784848
0.038447
0.00690573
0.0231517
0.00115065
0.045661
0.0302795
0.0054652
0.0352459
0.00468532
0.0334749
0.0444075
0.00509233
0.00684536
0.016911
0.0271032
0.0164392
0.029596
0.00686947
0.00669133
0.00683756
0.028301
0.0107605
0.02394
0.00152092
0.00209565
0.00654221
0.00162603
0.032616
0.00346809
0.0308984
0.00224548
0.00259115
0.00186251
0.00353644
0.0313208
0.0363969
0.0025705
0.0051534
0.0188387
0.00149861
0.00652842
0.0336613
0.028116
0.0064124
0.00685327
0.00670177
0.00317102
0.00922833
0.00273871
0.0322521
0.00481033
0.0361458
0.0419777
0.0324674
0.0171023
0.00322078
0.00662306
0.0391949
0.00234697
0.00393795
0.00317622
0.0273587
0.00643175
0.013684
0.00362146
0.00228076
0.00687944
0.00995836
0.00247296
0.00685246
0.0355424
0.0282393
0.00229809
0.00437348
0.00692919
0.0232551
0.00656335
0.00354622
0.0387466
0.00107086
0.00684623
0.00492397
0.00411239
0.0146392
0.033493
0.00292699
0.00167356
0.0257435
0.000783179
0.0248154
0.000921485
0.00687411
0.0138431
0.00682682
0.0221989
0.0345111
0.0317108
0.0211898
0.00125675
0.00689754
0.00490187
0.00297057
0.00223509
0.00684441
0.0392492
0.00678164
0.0161506
0.00324621
0.00443574
0.00642508
0.00308503
0.00129844
0.00679498
0.00633866
0.00186297
0.0063001
0.00100565
0.00547929
0.028091
0.0453666
0.0150814
0.0048512
0.00201945
0.00633032
0.00325643
0.00178921
0.00696776
0.0301695
0.0283845
0.0314789
0.00615483
0.0032103
0.00522186
0.00685218
0.0171547
0.00170496
0.00240016
0.00670501
0.0011292
0.0328869
0.00683094
0.0017881
0.0341053
0.0317645
0.00683939
0.00630053
0.00630576
0.00215941
0.00643176
0.00622577
0.0060876
0.00227388
0.00620199
0.00672322
0.0218775
0.00314728
0.00221129
0.00688546
0.00649128
0.00687852
0.0338019
0.022071
0.0280455
0.0351426
0.00138766
0.00677609
0.0021762
0.00689728
0.00679206
0.00538553
0.00675068
0.00652147
0.0016393
0.0361905
0.0363797
0.00203881
0.00654842
0.00688576
0.00645707
0.00373821
0.00132559
0.00278573
0.00108881
0.00198022
0.0068821
0.0323427
0.0260397
0.0284276
0.00318102
0.0222829
0.0253629
0.000153402
0.00588876
0.0396195
0.0332826
0.0115234
0.0331632
0.0279962
0.0122371
0.00681655
0.00149283
0.0159547
0.00590324
0.0120642
0.00696622
0.00691628
0.000901994
0.0310106
0.033218
0.0306526
0.0334453
0.00176842
0.00612573
0.006897
0.00590561
0.00198846
0.00153555
0.00678554
0.0198876
0.00623986
0.0188929
0.00211843
0.00677754
0.0341916
0.0066487
0.00686139
0.00106999
0.0060394
0.0292946
0.042982
0.00682004
0.0369701
0.0065783
0.0320184
0.0363033
0.00696281
0.00235943
0.00154544
0.0370638
0.00199386
0.0355063
0.000943811
0.00144404
0.0337809
0.0248875
0.00652439
0.0325004
0.00146774
0.00689912
0.00625318
0.00689749
0.0324406
0.00695155
0.012811
0.00113702
0.0390318
0.00382631
0.0190584
0.0067197
0.00694367
0.0303216
0.00683683
0.00614568
0.00640458
0.00617004
0.0386921
0.0326551
0.00304903
0.00194969
0.00490773
0.0385691
0.0326482
0.00294308
0.00222882
0.0371467
0.0241288
0.00678927
0.00643757
0.0219215
0.00518273
0.00129818
0.00454021
0.00679003
0.0417451
0.0194915
0.00678193
0.0069696
0.00400969
0.0187445
0.0069646
0.00345858
0.00694105
0.0217857
0.00157774
0.00675764
0.0037831
0.00254066
0.00686213
0.00144989
0.0244958
0.0161221
0.00200641
0.00119687
0.042183
0.00219693
0.00681828
0.00241456
0.00177547
0.00130308
0.0444239
0.00442434
0.0204841
0.00455127
0.00571086
0.0377154
0.00161368
0.00212791
0.0259778
0.00645678
0.00538653
0.00274012
0.00130094
0.025257
0.00141188
0.00682016
0.00863824
0.00680124
0.00684635
0.023286
0.00622582
0.0318144
0.00437349
0.00461116
0.00639188
0.038578
0.0176883
0.0386357
0.0336152
0.00470153
0.0374929
0.00385983
0.0302763
0.00639102
0.00385547
0.00684793
0.0368615
0.00117568
0.0254628
0.00694703
0.00681691
0.0352009
0.0063868
0.0329516
0.00463078
0.00175193
0.00228892
0.00238028
0.031741
0.0134475
0.00614911
0.00695769
0.0280703
0.00683531
0.0326826
0.0191177
0.00695137
0.0263697
0.0063211
0.00103646
0.00622959
0.0024422
0.0273069
0.0067732
0.0247184
0.00335335
0.000843396
0.0307105
0.00496804
0.00679123
0.00674574
0.00687445
0.00635222
0.0406405
0.0323281
0.0185898
0.00636384
0.0264431
0.0444427
0.0326858
0.00192832
0.0365446
0.0219498
0.0034573
0.00483402
0.0069446
0.0363004
0.00302701
0.00661059
0.00562445
0.0323263
0.0377051
0.00147178
0.006816
0.00147469
0.00162525
0.00693604
0.00619481
0.0377868
0.00572112
0.0326134
0.00695128
0.0155587
0.00178815
0.00679191
0.00256182
0.00481397
0.00432119
0.0225649
0.0033576
0.00445626
0.0231476
0.00158683
0.0352388
0.0023917
0.00130156
0.0264776
0.0019452
0.00118924
0.00157325
0.0359447
0.00682799
0.018405
0.00544578
0.00677857
0.00399923
0.0292172
0.00682696
0.00680232
0.00691352
0.0300229
0.023469
0.00197995
0.00687657
0.00554343
0.0442122
0.0428656
0.00689553
0.0380136
0.00149911
0.0370212
0.0362897
0.00152591
0.00173758
0.0100127
0.00690706
0.00695251
0.033428
0.00499475
0.00544999
0.00166464
0.00849231
0.00683867
0.00653215
0.00386288
0.00368064
0.024028
0.00355898
0.00664276
0.00420519
0.00645474
0.00639387
0.00481334
0.00303528
0.00630005
0.0298734
0.00658515
0.00165283
0.00354299
0.00697486
0.00696349
0.00434834
0.00656434
0.00138843
0.00177241
0.0409742
0.0069339
0.0300411
0.00683003
0.0329947
0.0373694
0.00257739
0.00244197
0.00187395
0.00696918
0.00689993
0.00284444
0.00480315
0.00692066
0.0298469
0.0267389
0.00166357
0.0381384
0.00645267
0.00376642
0.00684887
0.00649521
0.00694614
0.00284397
0.00405851
0.00118742
0.0214941
0.00148465
0.00116145
0.0294654
0.0269431
0.0065732
0.00365327
0.00249521
0.00693829
0.0063518
0.00383228
0.0324314
0.0364132
0.00165299
0.00681358
0.00685242
0.0313175
0.00266622
0.00669887
0.00690372
0.00231035
0.0384233
0.0012878
0.0024128
0.00631763
0.0364688
0.0337417
0.00476068
0.0257921
0.00195482
0.00693493
0.0239249
0.0372501
0.0343875
0.0065213
0.00312095
0.0374649
0.00679623
0.018844
0.00548035
0.00166249
0.00440999
0.00647553
0.00193827
0.0165983
0.00684111
0.00681874
0.00440623
0.00260809
0.00684364
0.0292183
0.0135158
0.0068578
0.00680591
0.00690894
0.021143
0.00654977
0.023122
0.0221804
0.0279962
0.0346703
0.0385328
0.0360108
0.0326209
0.00464153
0.00695159
0.0277893
0.006579
0.0386918
0.0431514
0.024562
0.00658239
0.00653794
0.00690915
0.00402043
0.00672888
0.0432102
0.00517955
0.0248438
0.0356452
0.00093888
0.0349031
0.00502675
0.0332222
0.00381316
0.0341063
0.00345496
0.00221879
0.00682843
0.00398615
0.0020814
0.00110637
0.004345
0.00695985
0.00650303
0.0181576
0.00653966
0.00617525
0.0159206
0.00496997
0.00657747
0.00641297
0.0033338
0.00688712
0.00519117
0.00319597
0.006657
0.00464975
0.00695759
0.0316964
0.00690262
0.00662963
0.00245183
0.0325304
0.00693143
0.00572099
0.0258795
0.00470708
0.00136103
0.00685034
0.0336985
0.0327371
0.0280974
0.0012323
0.0185434
0.006837
0.00503155
0.00375417
0.00665941
0.00629414
0.0180162
0.00253469
0.0392787
0.00670205
0.00226914
0.00685585
0.00181867
0.0164052
0.0203581
0.00681628
0.00315785
0.00218875
0.00572323
0.00693341
0.00674203
0.0328104
0.014844
0.00423865
0.00695697
0.00322099
0.00683746
0.0376726
0.00346698
0.00679183
0.0124459
0.00204117
0.00204251
0.00657628
0.0253298
0.0279978
0.00329742
0.00678701
0.00821729
0.0145235
0.00684454
0.0265261
0.0230933
0.0190999
0.0387641
0.0345408
0.0217525
0.00292837
0.00192278
0.00650194
0.00647725
0.032804
0.00694791
0.0441292
0.00651589
0.00649291
0.0262794
0.00218476
0.0423986
0.00278732
0.031376
0.00283177
0.00654544
0.00687143
0.00195424
0.00707113
0.0066895
0.0193971
0.00164506
0.00405905
0.000838119
0.00292189
0.0185208
0.00696636
0.0183925
0.00300874
0.00662955
0.00693548
0.0337641
0.000988727
0.00442282
0.0254607
0.0066532
0.0232095
0.00688992
0.0262682
0.0333296
0.0330678
0.00637035
0.00685234
0.00172926
0.00692876
0.0330616
0.0291897
0.00650638
0.00376673
0.000877928
0.0364755
0.00241123
0.00696382
0.0257371
0.00647982
0.00696894
0.0178395
0.0202749
0.042345
0.00488079
0.0293338
0.00158368
0.0387443
0.00398369
0.0351742
0.0439021
0.00175799
0.0282474
0.0400958
0.0289787
0.0348024
0.00668036
0.0357774
0.000743229
0.00319536
0.00444443
0.00697394
0.0250827
0.00697594
0.031674
0.0325241
0.00425981
0.0279195
0.0166466
0.0329562
0.0208454
0.0314807
0.0064449
0.0305453
0.00683889
0.0171485
0.0180647
0.00693752
0.0241965
0.00696457
0.00685339
0.00647641
0.00678168
0.0278239
0.0311309
0.00697221
0.00615995
0.00267003
0.0148381
0.00175688
0.00126921
0.0233155
0.00677992
0.00206367
0.006454
0.0135485
0.00486189
0.00695977
0.021658
0.00229432
0.000481088
0.0386449
0.00668463
0.0269664
0.0022967
0.0367333
0.0187998
0.0432296
0.00322269
0.0188064
0.00616189
0.0349952
0.00619731
0.00186167
0.00686596
0.00688705
0.0376184
0.00589355
0.00679989
0.0240919
0.00210348
0.00588012
0.0292797
0.00678843
0.00635637
0.0283485
0.0258829
0.00542649
0.0109813
0.00678513
0.0248966
0.00384628
0.00521407
0.00687418
0.00653929
0.00694902
0.0152474
0.0399025
0.00673927
0.0174512
0.00150621
0.0366082
0.00689515
0.00648089
0.00145198
0.00639797
0.00696989
0.00336348
0.0296824
0.00688547
0.00118842
0.00682223
0.0147099
0.00327797
0.00186745
0.00226476
0.0301306
0.00681825
0.0058781
0.000854154
0.0230101
0.00281064
0.0279438
0.0061019
0.038841
0.042089
0.00652118
0.00601737
0.0218465
0.00122184
0.00266167
0.0281553
0.00223919
0.00324361
0.00218642
0.00689983
0.0034652
0.00147133
0.00680171
0.0281967
0.0300777
0.00647348
0.00105263
0.0162183
0.0444543
0.00580019
0.00531657
0.00162813
0.0328249
0.00692857
0.00367216
0.0318911
0.00678784
0.0255964
0.00688833
0.00687986
0.0171387
0.000602537
0.0287706
0.00122638
0.00242123
0.00681732
0.0328173
0.0265745
0.00650509
0.00199567
0.0357136
0.00647749
0.00594042
0.00260718
0.00181928
0.02921
0.00625582
0.00693739
0.00130857
0.00540536
0.0207866
0.0308718
0.0201906
0.00124931
0.00675242
0.00684285
0.0313856
0.00154724
0.0385215
0.00152187
0.00311348
0.00217826
0.00688048
0.00322832
0.000882992
0.0293334
0.00356203
0.0124912
0.027022
0.00692445
0.0446179
0.0275592
0.0101348
0.0253302
0.00686811
0.0230907
0.00233737
0.0237809
0.00582407
0.00229557
0.0314862
0.00478113
0.00668388
0.0269954
0.00260102
0.035143
0.0322943
0.00188085
0.0389925
0.0328433
0.0069445
0.0203476
0.0288732
0.00696983
0.00607808
0.0378019
0.00448282
0.00241038
0.00601104
0.0067998
0.0289115
0.00689133
0.00184602
0.0152745
0.00485117
0.00696064
0.00301598
0.0284354
0.00670811
0.00694977
0.00339705
0.00614809
0.00534724
0.0455432
0.00687761
0.00680707
0.0125823
0.0067981
0.0209122
0.00644917
0.0268726
0.00595776
0.0212687
0.0295135
0.00697143
0.0387025
0.00420352
0.00195472
0.00672821
0.00697241
0.0175188
0.0069638
0.028335
0.00697349
0.00628364
0.00188267
0.0184823
0.0069653
0.00228157
0.0061972
0.00416429
0.00678662
0.00134118
0.00611191
0.0247991
0.0142359
0.00610541
0.00688109
0.0319679
0.00620793
0.00677084
0.00691227
0.0330135
0.021605
0.0241399
0.00107026
0.00347114
0.0273173
0.00191614
0.043697
0.0280214
0.00640153
0.00684874
0.0350868
0.00221224
0.00684772
0.0237351
0.0403985
0.0309151
0.00653408
0.00339436
0.00336027
0.00635713
0.00347618
0.020057
0.00138048
0.0064953
0.0193595
0.00677115
0.00645122
0.0018446
0.00783973
0.0067481
0.0292027
0.00651745
0.00372028
0.00315889
0.00248264
0.00691094
0.0246309
0.0188788
0.00697285
0.0340874
0.00691568
0.00674929
0.0279072
0.0215734
0.00685645
0.0203227
0.00628778
0.00676906
0.00682361
0.0401931
0.0316432
0.00680016
0.0438479
0.036047
0.0264532
0.00160322
0.0235744
0.0186361
0.00155828
0.0268399
0.00651228
0.00564247
0.00679132
0.0344271
0.0179015
0.0135542
0.0277845
0.00682917
0.00696179
0.00696978
0.00117766
0.00219366
0.00681635
0.00683747
0.00696714
0.0369932
0.0068269
0.00677598
0.0068217
0.0402265
0.00694536
0.00683675
0.00616654
0.040819
0.00691124
0.00624961
0.00342785
0.0199182
0.00652911
0.00137142
0.00314442
0.00503457
0.000782204
0.0299648
0.00346976
0.0270701
0.0191747
0.00606074
0.00683514
0.00690162
0.00629343
0.00354535
0.00125272
0.00404761
0.0176819
0.00682035
0.00525725
0.00534219
0.00691181
0.00683332
0.00676887
0.00544831
0.00697268
0.00259411
0.00163695
0.0361613
0.00624268
0.00170865
0.00105222
0.00690827
0.00179239
0.0242529
0.00694995
0.00673405
0.0177691
0.0196212
0.00679873
0.0356658
0.00232826
0.0267381
0.00686095
0.00676621
0.00691468
0.00197219
0.00384794
0.00266819
0.0160028
0.0456544
0.027747
0.00689164
0.00652309
0.00477764
0.0214887
0.00696215
0.00687431
0.0206444
0.00679261
0.0323786
0.00534251
0.00145456
0.00647429
0.00641631
0.0331314
0.00688895
0.0269441
0.0238909
0.00498339
0.00697534
0.00184256
0.0346591
0.0222363
0.0120539
0.00683668
0.00113222
0.0141545
0.0300847
0.0265259
0.00693242
0.00677579
0.00645847
0.00696538
0.00249511
0.00111105
0.00689366
0.00253245
0.0330463
0.0419906
0.0295085
0.0020643
0.00883882
0.00694555
0.00696255
0.000752268
0.00278789
0.00161422
0.00286968
0.00179991
0.00603405
0.018407
0.0398981
0.0405712
0.00495652
0.0284863
0.00679003
0.00169238
0.00497301
0.00681731
0.0068552
0.0157928
0.0237021
0.00147148
0.00374844
0.00635854
0.0345496
0.00618318
0.030664
0.00688324
0.00332739
0.0242844
0.0346617
0.0142343
0.00491389
0.00696655
0.00108994
0.00214416
0.00227021
0.000808894
0.0141089
0.0039499
0.00638317
0.0024781
0.00518959
0.00359858
0.00155275
0.00420822
0.00688121
0.033841
0.0110596
0.00650196
0.00505845
0.00387485
0.00682302
0.00131477
0.00110473
0.00684403
0.0135465
0.025567
0.00653928
0.00676174
0.00281159
0.0316063
0.0027501
0.00695691
0.00696905
0.00681819
0.0060955
0.0249331
0.0015306
0.00208095
0.00496271
0.00524916
0.00429156
0.00329901
0.00184553
0.0340416
0.00678501
0.0213373
0.0155152
0.0039471
0.00526063
0.0021842
0.00651792
0.00539878
0.021755
0.00117764
0.0166637
0.00679158
0.00673142
0.0155704
0.0204556
0.014093
0.0211815
0.00240565
0.00624254
0.0127092
0.0371035
0.00676281
0.0351398
0.0357684
0.0063735
0.0015507
0.00679845
0.00670156
0.00684533
0.00601202
0.00100855
0.0238973
0.00690203
0.00686914
0.0306077
0.00241365
0.0308946
0.0454562
0.0391291
0.00435966
0.00154318
0.00643776
0.00692885
0.00682118
0.00681621
0.0204519
0.0014118
0.00670698
0.0193221
0.00689498
0.00121942
0.00682785
0.0388142
0.00399145
0.00657134
0.00579105
0.0258563
0.0192557
0.0383835
0.0181725
0.016
0.0313978
0.00252081
0.0305017
0.0291373
0.00644397
0.00684009
0.0318445
0.00681883
0.00508665
0.00637588
0.0069515
0.00352584
0.0348467
0.00534635
0.00507635
0.00097573
0.00227185
0.0220399
0.0309327
0.00574546
0.00742199
0.00124388
0.0248433
0.00461287
0.0291925
0.00140793
0.0317405
0.0337154
0.00175347
0.00493241
0.0294213
0.00185921
0.021925
0.00697499
0.0335797
0.00131238
0.00168264
0.00645934
0.0401129
0.0308017
0.0360538
0.00656231
0.0020303
0.00179467
0.0240132
0.0184494
0.0301572
0.0295479
0.00254114
0.0215334
0.033928
0.00695611
0.00148439
0.0324803
0.0339055
0.00189405
0.00155082
0.0100316
0.00635178
0.00495769
0.00695758
0.00164001
0.0224361
0.0304707
0.00692813
0.00177204
0.0053238
0.00141978
0.0354826
0.00686415
0.0284712
0.0228142
0.0426372
0.00671155
0.00480644
0.00682625
0.026318
0.0090679
0.0335797
0.00687993
0.00688614
0.00568845
0.00215127
0.0196488
0.0069093
0.0438368
0.0143936
0.00683206
0.00592721
0.0088427
0.00656775
0.00682078
0.0235514
0.00174267
0.00653322
0.0295882
0.00164382
0.0156538
0.0395377
0.0392978
0.00179245
0.0330257
0.0258819
0.0131987
0.0346372
0.0292026
0.0025147
0.00187787
0.00694333
0.00693511
0.0162007
0.00311593
0.0226922
0.00683621
0.00192533
0.00323417
0.00585363
0.00651338
0.00681329
0.0322103
0.00692502
0.0381506
0.00480192
0.0332618
0.0205717
0.00647262
0.00875725
0.033272
0.0153733
0.00697329
0.00688501
0.00684484
0.0324449
0.00228913
0.00164255
0.00319057
0.0289103
0.00159675
0.0127144
0.0352604
0.0305448
0.016085
0.0165158
0.00129043
0.00315299
0.0389694
0.00215988
0.0277216
0.00565193
0.0117733
0.00343922
0.00697429
0.034946
0.00694263
0.0025759
0.0374856
0.0214442
0.00688516
0.0325993
0.00209454
0.0339092
0.00700614
0.00593636
0.00341575
0.00689422
0.0214508
0.0187401
0.0360034
0.0310455
0.00648189
0.00132293
0.0297141
0.0069466
0.0388406
0.00682603
0.0227149
0.00193026
0.00119406
0.00688801
0.0345862
0.0252527
0.00284004
0.00285352
0.00688351
0.00395802
0.00435778
0.00338178
0.00153599
0.0151831
0.0195359
0.00693448
0.00688921
0.00213685
0.0305673
0.00205918
0.0437767
0.00195333
0.00125618
0.0293049
0.0328921
0.00371304
0.0108341
0.00688686
0.0334204
0.0207886
0.0449258
0.00697504
0.00134428
0.0192784
0.0057256
0.0355525
0.00295204
0.00696238
0.00231924
0.00474268
0.00263128
0.0290664
0.00687046
0.00617613
0.0160831
0.00528056
0.0068148
0.00678823
0.00577244
0.00688755
0.00216647
0.00697665
0.00696582
0.0102302
0.00171167
0.0316145
0.00686047
0.0238272
0.0376922
0.00255186
0.00658564
0.0201659
0.00641072
0.00647377
0.000276395
0.0185196
0.0019518
0.0359948
0.0062333
0.0285151
0.00526234
0.00350926
0.00253811
0.0215164
0.00684584
0.0369529
0.0181457
0.0207067
0.000712504
0.0162839
0.0118609
0.0357692
0.00969041
0.0115258
0.00403152
0.00311375
0.0343065
0.00692351
0.0291957
0.029635
0.00190702
0.00181691
0.022564
0.00370687
0.00695045
0.00656076
0.0381177
0.00692577
0.0303644
0.0026721
0.0068683
0.0288137
0.0312091
0.00687707
0.00231344
0.00463774
0.0346215
0.00484717
0.033633
0.00405723
0.00185121
0.00688648
0.00330208
0.0349937
0.00599835
0.00489115
0.0337043
0.00690862
0.00217414
0.0216537
0.00673679
0.0342681
0.00679485
0.00430472
0.0340268
0.00323196
0.0102956
0.0108752
0.0198577
0.00689759
0.0424515
0.0369858
0.00687183
0.00670942
0.0172803
0.000339313
0.00690802
0.001689
0.0190751
0.00625618
0.0302119
0.0206637
0.0215257
0.0428765
0.00320559
0.00685829
0.00683479
0.00667983
0.0438114
0.00349423
0.0348299
0.00695989
0.0136674
0.00683489
0.00100912
0.0245614
0.00372583
0.0228827
0.00142583
0.00158531
0.0137407
0.0247255
0.00320479
0.00683117
0.0305372
0.00292596
0.00314056
0.0270004
0.0277942
0.0239123
0.0330521
0.0318875
0.00306647
0.0270888
0.0335659
0.0296724
0.00557639
0.0292423
0.00509859
0.00692614
0.0133846
0.0205488
0.0192637
0.00682129
0.00656513
0.00248728
0.00686939
0.00683358
0.00587102
0.00500192
0.0068655
0.00505646
0.0214416
0.0210739
0.00940886
0.00691493
0.0443736
0.0342258
0.00154667
0.0046382
0.00692593
0.00682058
0.0066891
0.00202075
0.0345446
0.0010064
0.00363194
0.021455
0.00545648
0.00662661
0.0338924
0.00359981
0.0187602
0.00695229
0.0302938
0.0294836
0.0137098
0.00479502
0.00687581
0.00696659
0.00191499
0.00682592
0.00580381
0.0214813
0.00577065
0.00903027
0.00449014
0.00172636
0.00138956
0.0183934
0.0192377
0.00692033
0.00424832
0.00257625
0.0135759
0.021256
0.00231109
0.016471
0.00643066
0.00642803
0.00583113
0.0323708
0.00661585
0.00266985
0.00600882
0.00417019
0.00667227
0.00547952
0.0267987
0.00688246
0.00684766
0.00123736
0.005558
0.00649526
0.0350912
0.0303564
0.00388312
0.00141667
0.00668041
0.00212556
0.00120558
0.00379778
0.00692275
0.0338477
0.0225395
0.0203102
0.0281799
0.00692454
0.00677068
0.00158557
0.0185922
0.0386607
0.0140907
0.00661801
0.0145749
0.0394759
0.0197656
0.0336978
0.00567382
0.00626638
0.0195949
0.031586
0.00387961
0.00697342
0.00324705
0.0315038
0.00667325
0.00512139
0.0325099
0.00136856
0.00257449
0.0200595
0.00607273
0.00183499
0.00595669
0.0147788
0.0172561
0.0194284
0.0285439
0.0354709
0.0145304
0.0293419
0.00646772
0.0403207
0.00690743
0.0223814
0.037138
0.00950086
0.0145108
0.0327695
0.00150727
0.0341073
0.0296985
0.005497
0.000561365
0.0301895
0.00892454
0.0311719
0.0329045
0.00623258
0.00126056
0.00158313
0.00689346
0.00654856
0.00166256
0.0273621
0.0023068
0.0362995
0.00580963
0.00136306
0.00438219
0.000302973
0.00678825
0.0332059
0.0266714
0.00232368
0.0378282
0.00130059
0.00973407
0.0166211
0.0270282
0.00520998
0.0061277
0.00589816
0.0275387
0.00109513
0.0191076
0.00219029
0.00679654
0.000802194
0.0348928
0.00290616
0.00681899
0.0302134
0.00167114
0.041283
0.0301428
0.00692005
0.0326756
0.0223092
0.00643321
0.0334976
0.0193748
0.0177798
0.0186229
0.0014187
0.0263354
0.00153485
0.00145567
0.00109943
0.00692969
0.00129889
0.0181669
0.00149263
0.00145884
0.0183379
0.00130659
0.00697099
0.00126869
0.00123849
0.00629746
0.01673
0.00697512
0.00137277
0.0335421
0.0108119
0.0208735
0.0316536
0.0301805
0.00685659
0.00142352
0.0298706
0.0197556
0.0064091
0.00658375
0.0165544
0.00660767
0.00635137
0.00184628
0.00175125
0.0268504
0.00638335
0.0371904
0.00140457
0.0324761
0.00160799
0.00155589
0.00133762
0.00683662
0.00329679
0.0275321
0.00692225
0.031624
0.025693
0.00697019
0.00296179
0.0361681
0.00158104
0.0012801
0.00100433
0.00148728
0.0414776
0.00124086
0.0366335
0.0183985
0.0331157
0.0187651
0.03709
0.00770794
0.0118669
0.0236154
0.00279901
0.00229901
0.00180256
0.0323603
0.00168335
0.0228992
0.0178884
0.00242076
0.00189172
0.0177344
0.0267215
0.0306516
0.0139888
0.0263186
0.00178748
0.00283177
0.0030534
0.0203666
0.00248442
0.0392108
0.00637862
0.0215929
0.0366946
0.00695284
0.00266795
0.0296968
0.00120659
0.0154618
0.00304389
0.00201097
0.00657193
0.00218854
0.00682724
0.038019
0.00696484
0.0288372
0.00657559
0.0199313
0.00625168
0.00152756
0.00381812
0.00155894
0.00680967
0.0141612
0.00214652
0.00191152
0.00117892
0.00317624
0.0252936
0.00173951
0.0214405
0.0165139
0.0332809
0.0144365
0.000943044
0.00510966
0.00683584
0.00132791
0.00115725
0.00667276
0.0153554
0.0346703
0.00152431
0.0299953
0.0202951
0.00650367
0.0014166
0.0283268
0.00179468
0.0248048
0.0311427
0.00688751
0.0166366
0.0370778
0.00133231
0.00164232
0.000767713
0.0206582
0.00682728
0.0419944
0.0214234
0.00678987
0.0194784
0.00273009
0.00148536
0.0326041
0.00682809
0.0171328
0.0301157
0.00131308
0.0167017
0.00678953
0.00691598
0.00127357
0.000992803
0.0292153
0.0330103
0.0165003
0.00637648
0.00631266
0.0267805
0.0352783
0.032804
0.00133979
0.0128525
0.0021946
0.00687914
0.0331314
0.00136152
0.0332006
0.00110962
0.00150729
0.00345179
0.0371324
0.00140754
0.0115107
0.0229705
0.0422577
0.0329091
0.0329922
0.0116765
0.0222862
0.012213
0.034232
0.00143848
0.000810917
0.00691259
0.00263152
0.000778602
0.00122071
0.00697302
0.0259396
0.0235127
0.0294457
0.000743361
0.00335731
0.0163962
0.00107643
0.0442287
0.00189059
0.0127185
0.00613302
0.000836874
0.0015564
0.0172031
0.00159631
0.00652325
0.00233941
0.0393268
0.00110083
0.00687713
0.00134475
0.00127631
0.00681486
0.00689394
0.0176893
0.0361823
0.00356606
0.00214666
0.00258512
0.00624916
0.029854
0.015718
0.00687467
0.0248704
0.00654614
0.00211359
0.0383128
0.00325718
0.00156773
0.00148482
0.0354672
0.0166741
0.0305242
0.00280915
0.0288815
0.0052444
0.00185654
0.00221146
0.0073754
0.00272123
0.0436364
0.0305083
0.0312755
0.00123786
0.0074234
0.0377958
0.0275412
0.00136819
0.0321188
0.00141796
0.00588042
0.00140802
0.00119666
0.00654177
0.00125175
0.00142038
0.00694482
0.00157677
0.00244743
0.00304264
0.00102561
0.00682784
0.00539252
0.0263919
0.00697308
0.00140708
0.00553291
0.00269601
0.00696479
0.0028745
0.0174929
0.0336657
0.009567
0.00142398
0.00208318
0.0412453
0.00677984
0.0336273
0.00143805
0.0313724
0.00085483
0.0276429
0.00167223
0.00549653
0.00680972
0.00341467
0.0443941
0.0262003
0.0313302
0.00196131
0.0328167
0.0225573
0.0319464
0.00117762
0.00221252
0.00689614
0.0383753
0.0118266
0.00294986
0.00686326
0.0012967
0.0309384
0.00684428
0.0340047
0.00164369
0.00688851
0.00680891
0.00296856
0.0329434
0.0174797
0.0277792
0.00686429
0.0069555
0.00105436
0.00688261
0.0348977
0.00633583
0.026395
0.0022766
0.0330953
0.00245296
0.0154475
0.042792
0.0162074
0.0432946
0.0322063
0.00694171
0.00519854
0.00203055
0.00669464
0.0216477
0.00156513
0.00612241
0.00642228
0.00414797
0.0291017
0.0139559
0.00680672
0.00682851
0.00189176
0.00275416
0.00639442
0.00706737
0.0155841
0.00682452
0.00190831
0.0428552
0.0104176
0.00113198
0.0366275
0.0126755
0.0324591
0.0216489
0.00193393
0.00301346
0.0357169
0.00559297
0.00436869
0.0199764
0.00688065
0.00190276
0.00236277
0.00682628
0.0289392
0.00217464
0.00597062
0.00694083
0.00674387
0.00173732
0.0207563
0.00646364
0.00216725
0.00152058
0.0419662
0.00685169
0.0019535
0.00114862
0.00686448
0.00101717
0.0218195
0.0202793
0.00581103
0.00259168
0.00232445
0.0442344
0.0302531
0.0304213
0.00645858
0.00249542
0.00696545
0.0424119
0.00665827
0.00117939
0.00137512
0.0277254
0.0261164
0.00224489
0.00140335
0.00128231
0.0332965
0.012179
0.00112339
0.00375811
0.00681918
0.00134997
0.0147983
0.0295423
0.00301753
0.0362498
0.0183079
0.00264973
0.0125326
0.00693402
0.0243087
0.015813
0.0069712
0.0287769
0.0316186
0.00361158
0.00427409
0.00231245
0.0289321
0.0245064
0.00262388
0.00642327
0.036782
0.00689716
0.0109763
0.00779654
0.0328214
0.0223872
0.0218311
0.00303225
0.00185847
0.0030408
0.00692244
0.000907425
0.0344794
0.0361135
0.00671029
0.0052962
0.00302426
0.00691675
0.00155021
0.0283663
0.00300159
0.00589551
0.00763581
0.0410562
0.00116619
0.00201381
0.0260867
0.0272722
0.00392711
0.00300535
0.00346411
0.0134351
0.0359056
0.00635999
0.00754809
0.0333627
0.0395992
0.00183493
0.00168873
0.0423617
0.00151476
0.00127128
0.0302923
0.00680779
0.0135367
0.0253432
0.00115562
0.0308959
0.00151185
0.00204862
0.0117018
0.00204298
0.00229644
0.0288601
0.00527396
0.00306876
0.00184177
0.00694738
0.00441396
0.00684911
0.00368605
0.0353013
0.00684576
0.0200442
0.00116011
0.00682201
0.00685397
0.030875
0.0207975
0.0013104
0.00350561
0.0342288
0.00230738
0.00163515
0.00681742
0.0282777
0.00852238
0.00637421
0.00235899
0.00326343
0.00109654
0.00288793
0.00677546
0.0360962
0.00675677
0.00695915
0.0153892
0.0337907
0.00159444
0.00725665
0.0191241
0.00667113
0.0249978
0.0411416
0.0121934
0.00276976
0.0243146
0.00310074
0.0384737
0.00302312
0.00300392
0.0311344
0.00273342
0.00199021
0.0445179
0.0245116
0.00687182
0.00313706
0.00401042
0.0295302
0.0356974
0.00951134
0.00694645
0.00696945
0.0356013
0.00674034
0.00298811
0.00686246
0.00682543
0.0231994
0.0375424
0.0358638
0.00225404
0.0387978
0.00202343
0.00639211
0.0295421
0.0015539
0.0162628
0.00682648
0.0024392
0.00599349
0.00420017
0.0440204
0.0162775
0.00135993
0.0278508
0.00253033
0.005966
0.00145973
0.0330109
0.00613483
0.00696441
0.040744
0.0367798
0.043648
0.0321342
0.00696635
0.00288001
0.00141524
0.00470268
0.00685103
0.00655662
0.00299077
0.00652066
0.00325056
0.0365786
0.00367
0.0208743
0.00688548
0.0315064
0.00358376
0.035601
0.00134292
0.0069718
0.0425249
0.00695543
0.00222767
0.00255952
0.00257309
0.00591243
0.0441052
0.0148879
0.00562446
0.00600331
0.00977952
0.00692755
0.0263236
0.00281439
0.00810105
0.0412612
0.00479221
0.0223458
0.0375384
0.00302247
0.0394173
0.00374144
0.00647621
0.00252886
0.0030118
0.00170887
0.0287325
0.00291674
0.00235475
0.00430483
0.00211535
0.00661088
0.0291992
0.00689376
0.0409537
0.00148529
0.0016631
0.00409245
0.00203132
0.00120444
0.0419225
0.00237224
0.00203729
0.00152371
0.00603215
0.0287535
0.00347017
0.00259435
0.00154357
0.00221975
0.0445019
0.0337774
0.0349394
0.00638105
0.00250786
0.0323712
0.00372932
0.00635449
0.00189981
0.0040991
0.00201782
0.00258413
0.00667357
0.00138956
0.00682358
0.0134697
0.00253373
0.0323587
0.00418701
0.00211275