/*--------------------------------*- C++ -*----------------------------------*\
| =========                 |                                                 |
| \\      /  F ield         | OpenFOAM: The Open Source CFD Toolbox           |
|  \\    /   O peration     | Version:  v2012                                 |
|   \\  /    A nd           | Website:  www.openfoam.com                      |
|    \\/     M anipulation  |                                                 |
\*---------------------------------------------------------------------------*/
FoamFile
{
    version     2.0;
    format      ascii;
    class       surfaceScalarField;
    location    "350";
    object      phi;
}
// * * * * * * * * * * * * * * * * * * * * * * * * * * * * * * * * * * * * * //

dimensions      [0 3 -1 0 0 0 0];
oriented        oriented;


internalField   nonuniform List<scalar> 
20362
(
0.367172
0.111957
-0.47913
0.0049862
0.000824436
-0.00581064
-0.121281
-0.279335
0.400616
0.331715
0.112319
-0.444034
0.155996
-0.168785
0.0127893
0.381529
0.0604969
-0.442026
0.295437
-0.523731
0.228294
0.641017
-0.476835
-0.164182
-0.175926
-0.00955269
0.185479
0.245736
-0.289499
0.0437625
-0.179576
0.00364945
0.696234
-0.34896
-0.347273
-0.476078
0.647993
-0.171914
-0.00484893
0.00558999
-0.000741059
0.47791
-0.146195
-0.601344
0.606998
-0.00565399
0.213843
-0.0687842
-0.145059
0.532119
-0.25735
-0.27477
0.00350583
-0.00101164
-0.00249418
0.208619
-0.0887638
-0.119855
-0.0940265
0.0969462
-0.00291966
0.661821
-0.35215
-0.30967
0.503506
-0.398766
-0.10474
0.278317
-0.399598
-0.593488
0.600412
-0.00692434
0.641909
-0.585595
-0.0563138
0.308201
-0.00534503
-0.302856
0.0644697
0.577439
-0.563884
-0.0296036
0.0114568
-0.0113368
-0.000120076
0.00316858
-0.0411441
0.0379755
-0.377212
-0.226404
0.603616
0.00279211
0.00120782
-0.00399992
0.055562
-0.340059
0.284497
0.609695
-0.29226
-0.317435
-0.00469643
0.000585416
0.00411101
-0.336575
0.265167
0.0714077
-0.00328378
0.00826998
0.34439
-0.531131
0.186741
-0.453867
0.0260273
0.42784
-0.0933029
-0.13017
0.223473
0.309705
0.29999
0.294061
0.383326
0.534298
-0.435118
-0.0991803
-0.125469
0.492641
-0.339873
-0.061611
0.401484
0.746647
-0.336958
-0.40969
-0.0630648
-0.383223
0.446287
0.2386
-0.247388
0.00878754
0.426295
0.128641
-0.554937
0.0602929
-0.0300213
-0.513515
0.45045
-0.692496
0.552075
0.140421
0.304244
0.227876
0.364111
-0.343788
-0.020323
0.606778
-0.0654581
-0.54132
0.541126
-0.730052
0.188927
-0.15137
-0.271243
0.0285462
0.242697
-0.429321
0.315443
0.113878
-0.165056
0.0345351
0.130521
0.0794173
0.454881
-0.00516459
0.00695093
-0.00178634
0.254553
0.407268
-0.00790347
0.000138911
0.00776456
-0.428381
0.622465
-0.194084
0.000868371
-0.0948949
-0.00341541
-0.00327504
0.00669045
0.0635285
-0.535295
0.471766
-0.193329
0.179402
0.0139278
0.368989
0.377658
0.230801
0.410216
0.706399
-0.523276
-0.183123
0.356546
0.107183
-0.000713186
0.00346472
-0.00275153
-0.00640491
0.071189
-0.0647841
-0.00845205
-0.184877
-0.00919395
-0.0594724
0.0686664
-0.00362938
0.00291619
-0.272513
0.251932
0.0205811
0.133685
-0.226988
-0.0133923
0.211529
-0.198137
-0.268579
0.17474
0.0938391
0.651077
-0.446025
-0.205052
0.508458
-0.164068
0.00743738
-0.0080033
0.000565915
0.235432
0.00603437
-0.241466
-0.185961
-0.270592
0.456553
0.281633
-0.64809
0.366458
-0.0777649
0.0881326
-0.0103678
0.636797
-0.440543
-0.196254
-0.02358
0.135725
-0.475597
0.307725
0.0563851
-0.00639824
0.0013754
0.00502284
-0.00240305
0.00519516
-0.313344
0.032204
0.28114
0.388616
0.307618
0.269062
0.285439
-0.554501
0.0860928
0.262458
0.139424
-0.401882
0.245135
0.000601099
-0.609178
0.549028
0.0601503
0.671802
-0.43638
-0.235422
-0.34409
0.507753
-0.163663
0.0421275
0.171715
-0.120879
-0.1477
-0.663676
0.46753
0.196146
-0.0259593
-0.427908
-0.124319
-0.189024
0.200075
-0.00263683
-0.197438
-0.557532
0.117291
0.44024
-0.011362
0.0119657
-0.000603713
-0.0099184
-0.123358
0.133276
0.0902978
-0.11024
0.0199422
0.56896
-0.273364
-0.295595
0.345156
-0.516822
0.171665
0.00445443
0.0145323
-0.0189868
-0.103085
-0.506093
0.101239
-0.380574
-0.0117558
0.0117558
0.413182
0.293217
0.292795
-0.387432
0.0946361
0.000729839
0.00277599
-0.00126558
0.0111507
-0.00988513
-0.00361697
-0.00463731
0.00825428
-0.250305
0.519367
-0.518908
-0.211144
-0.500551
-0.0569809
0.521962
-0.487331
-0.034631
-0.143256
-0.0218
0.115074
-0.109365
-0.00570896
0.469317
0.0526447
0.210835
0.0277655
-0.0115531
-0.000346761
0.0118999
0.151577
-0.175921
0.0243449
-0.00153286
-0.00637061
0.0998362
0.386216
-0.486052
-0.276275
0.352971
0.249723
-0.139732
-0.109991
-0.0340362
0.228785
-0.194749
-0.000362677
-0.0111905
0.127029
-0.508591
0.381562
-0.369569
0.548538
-0.178969
-0.100414
0.481943
-0.090122
-0.246453
0.00754252
-0.0853074
0.0861389
0.255954
0.185816
-0.371777
0.00245308
-0.453348
0.203042
-0.541348
0.599425
-0.0580763
0.213571
-0.226963
0.359846
-0.449986
0.120655
0.234905
-0.355561
-0.0673342
-0.216293
0.283627
-0.209094
0.458595
-0.249501
0.000823203
-0.00722144
0.0123939
0.487449
-0.499843
0.601916
-0.175621
-0.578425
0.102347
-0.0065948
0.00143021
-0.00375911
0.0040654
-0.000306289
-0.102112
-0.478319
0.580431
0.332798
-0.676888
0.111308
0.138415
0.463451
-0.168014
0.137766
0.259226
-0.396991
-0.629423
0.256449
0.372974
-0.371587
0.524392
-0.152805
-0.24689
0.367545
0.220195
-0.429289
-0.36722
0.284552
0.0826681
0.0554088
-0.0615679
0.00615908
0.467714
-0.234311
-0.233403
0.4077
0.168135
-0.575835
0.0560482
-0.0528796
0.00109642
0.0121758
-0.0132723
-0.498377
-0.0429714
0.00815626
-0.00779132
-0.000364933
-0.15174
-0.263139
0.41488
0.00585538
-0.00947235
-0.0027383
-0.601687
0.232119
-0.385948
0.512977
0.576929
-0.574822
-0.00210634
-0.268462
0.406227
0.169833
0.333673
-0.276556
0.209222
0.141197
-0.151115
-0.658857
0.402324
0.256534
0.00420434
0.0072525
-0.00897387
-0.0023629
0.559045
-0.328244
-0.590405
0.488292
0.232384
0.336575
0.199311
-0.0684269
-0.130885
-0.289868
0.606778
-0.00711997
3.36249e-05
0.00708635
0.439232
-0.339395
0.0103161
-0.00856486
-0.0017512
0.366209
-0.310647
0.383503
0.267575
0.292917
-0.52929
0.236373
-0.331464
0.269853
-0.0162513
0.0112321
0.00501917
-0.333247
0.433239
-0.0999926
-0.207627
0.00471664
0.20291
-0.0172084
-0.00360439
0.00497979
0.00157846
0.0087376
-0.387021
0.57336
-0.186339
0.0635802
-0.00817138
-0.00303674
-0.000592637
-0.101232
0.379549
-0.448353
0.625333
-0.17698
0.401759
-0.0781685
-0.32359
-0.0466646
0.0117614
0.0349033
0.244318
-0.345723
0.101405
0.172167
0.0604701
-0.144802
-0.335785
0.480587
-0.00285565
-0.00184077
-0.217135
0.56384
-0.346705
0.0361632
0.163148
-0.00424477
-0.00440913
0.0086539
0.0475742
0.0136359
-0.06121
-0.0116107
-0.0793633
0.090974
-0.157315
-0.281193
0.438508
-0.000141749
0.00663916
-0.00649741
-0.00681245
-0.000307526
0.00716392
0.00099234
0.0765212
-0.0857152
-0.437487
0.0695396
0.367948
0.337621
-0.489788
0.152167
-0.00455885
0.00296176
0.00159708
-0.023811
0.0282654
-0.513691
0.586314
-0.0726234
0.0151812
0.0246803
-0.0398615
0.331258
0.340545
-0.450126
0.424166
-0.16448
-0.499196
-0.00287194
-0.00503507
0.319526
-0.464329
0.122617
0.0372093
-0.308452
0.323607
-0.331242
0.00763463
-0.341601
0.648328
-0.306727
-0.183352
-0.00787099
0.191223
0.00120457
-0.0125666
-0.0809409
0.0547922
-0.0664028
-0.261076
0.329105
-0.0680291
0.0167587
-0.257936
0.241177
0.397045
-0.16481
-0.232235
0.414457
-0.121662
0.000781971
-0.009692
0.00891003
0.00353375
-0.00363099
9.72409e-05
-0.375298
0.114222
0.36533
-0.500806
0.135477
-0.00161768
-0.00294117
-0.29407
0.282636
0.0114342
-0.560639
0.684467
-0.123828
0.0464334
0.0138595
-0.000678031
0.0268303
-0.0261522
-0.0543035
0.521404
-0.4671
-0.151109
0.488729
0.344044
0.302754
-0.646798
0.319947
-0.309469
-0.010479
0.378755
0.164678
-0.543433
0.217931
0.111174
-0.000246218
-0.00790339
0.00814961
0.0951777
0.271031
0.00606428
-0.00620603
0.185112
-0.150577
-0.00291861
0.00026279
0.00265582
0.44741
-0.102254
-0.288963
0.397142
-0.108178
0.255358
-0.63257
0.288519
-0.177211
-0.059495
0.00177304
-0.00601782
-0.306759
0.140603
0.166155
0.00223109
-0.00615868
0.00392759
-0.51025
-0.0910933
0.0083836
-0.00726683
-0.00111677
-0.155355
-0.0148415
0.170196
-0.0670972
0.154418
-0.582799
-0.00619577
0.00155846
0.0168487
-0.284337
-0.308567
0.592904
-0.000225356
-0.00997939
-0.00627194
-0.348807
0.253937
0.0948697
-0.504412
0.204282
0.30013
0.347871
-0.526905
0.179034
-0.0998057
-0.00955959
-0.639278
0.273791
0.365487
0.14422
-0.138398
-0.00582136
0.00140333
0.00116109
-0.00256441
0.20889
-0.0340708
-0.174819
0.484084
-0.492966
0.00888201
0.676494
-0.124886
-0.551608
-0.00216157
-0.00145199
0.270935
-0.120305
-0.15063
0.00980434
-0.00296751
-0.00683683
0.000107136
-0.00105031
0.000943173
0.287383
-0.286688
-0.000695444
-0.0952073
0.0162879
0.0789194
0.0263246
0.182295
-0.000755419
-0.0403886
-0.0101773
0.0843467
-0.458759
0.374412
0.52584
-0.147085
-0.61114
0.244043
0.367097
0.00254976
0.00488762
-0.0366882
0.0518693
0.00941702
0.0038395
-0.0132565
-0.108497
0.00869117
-0.203566
-0.300847
0.254826
-0.406567
-0.497056
0.0956289
0.49613
-0.591759
-0.113311
0.0338208
0.450263
0.1235
0.165019
0.330469
0.182243
-0.512712
0.00404504
-0.00897942
0.00493438
0.182258
0.36677
-0.0080283
0.00324892
0.00477939
0.727252
-0.266
-0.461253
0.295612
-0.155009
-0.187192
0.179823
0.00736883
-0.288222
0.487386
-0.199164
0.449863
0.27739
-0.242862
0.271408
0.380939
0.141494
-0.522433
0.0244483
-0.20435
0.179902
-0.167899
0.0125444
-0.00622937
0.00281396
-0.0139937
0.000264144
0.00811945
-0.00179409
0.00190123
-0.187932
-0.0845807
0.614083
-0.614083
0.270972
0.0489755
0.304397
-0.0631061
-0.241291
0.502353
-0.178025
-0.324328
-0.0148958
0.0128703
0.00202552
-0.00399828
0.00306329
0.00138708
-0.00445037
0.131094
-0.481795
0.350701
0.250704
0.108243
-0.358947
-0.425777
-0.32897
0.490733
-0.161763
0.0390991
0.231836
0.365245
-0.203775
-0.161471
-0.093436
0.337754
-0.0211517
-0.428974
-0.21653
-0.00893803
0.225468
-0.00814365
-0.268131
0.229667
-0.558637
0.150739
0.0811287
-0.231868
0.00201302
0.0135214
-0.0137676
0.572341
-0.402508
0.300231
-0.486095
0.185864
0.547686
-0.3377
-0.209986
0.101883
0.295162
0.347226
0.300767
-0.335949
0.467043
0.323498
0.0782601
0.0101351
0.134085
0.517835
-0.217604
-0.39218
0.404574
-0.0614654
0.00737212
0.0540933
-0.0847583
-0.223828
0.308586
0.246578
0.00535437
0.315934
-0.53307
-0.179603
0.461236
0.417204
-0.131765
-0.000288401
-0.00456053
0.00306217
0.0566666
-0.0597288
0.0187803
-0.0194583
0.0165667
-0.0117833
-0.00478339
0.238938
-0.0667709
0.529223
-0.150577
-0.378646
0.0628706
0.232041
-0.294912
0.268107
-0.479809
0.211702
-0.495528
0.207306
0.391604
-0.129146
-0.042544
-0.434291
-0.510301
-0.0440498
0.554351
0.304214
-0.00564593
-0.298569
0.0327508
-0.025193
-0.0075578
-0.000202406
-0.00342859
0.079436
-0.32011
0.240674
-0.557867
0.109514
0.49102
-0.222913
-0.438346
0.654303
-0.215957
-0.368896
0.164352
0.204544
0.201729
-0.17728
-0.157221
-0.2721
0.0224077
0.00404456
0.30017
0.358478
-0.500898
0.14242
-0.0152356
0.0160176
-0.339114
0.473304
-0.13419
-0.00474174
0.00556494
0.36108
-0.261849
-0.0992306
0.000947547
-0.109444
-0.042982
-0.0522253
-0.133271
-0.00631749
0.139588
0.429623
-0.293898
0.0139732
-0.060157
0.0461838
0.204512
-0.0289961
-0.00903003
0.00574626
-0.0657486
0.012777
0.0529716
0.0586128
0.0295199
0.398114
0.127726
0.244613
-0.631634
0.145562
-0.19355
0.0479878
0.00506051
-0.00601123
0.000950717
-0.639876
0.393468
0.246409
0.00683355
0.186896
0.286557
-0.473452
0.11427
0.331762
-0.446032
-0.0316185
-0.172732
0.0198767
0.00983836
-0.00928183
-0.000556533
-0.00262101
0.0056843
0.00215038
0.00768798
-0.26657
0.261519
0.00505162
-0.102669
-0.375174
0.477843
0.504652
-0.420305
-0.415031
-0.224846
-0.256409
0.325972
-0.0695637
0.205693
-0.060131
0.199109
0.330114
0.000348265
-0.00456074
0.00421248
0.362734
-0.465403
0.11199
-0.0183859
-0.0936039
0.264148
0.330643
0.228402
0.00589634
-0.0114083
0.00551192
-0.222521
0.566565
0.183952
0.438513
-0.00517613
0.182054
-0.176878
-0.0548757
0.448343
-0.0152426
0.0693218
-0.0757267
0.101976
-0.450936
0.000125544
-0.00442044
0.00429489
-0.4609
-0.0494011
0.0150282
-0.0517164
-0.00518265
0.0053082
0.634164
-0.413666
-0.220498
0.258331
0.101515
-0.279327
0.126804
0.152523
0.0132998
-0.00128507
-0.0120147
-0.165556
0.316295
-0.00100997
0.014055
-0.013045
0.173487
-0.178663
-0.265966
-0.000604094
0.0698204
-0.00418148
-0.00382181
0.428675
-0.482979
-0.0150091
0.0137435
0.00374218
0.207787
0.120645
-0.455299
0.334654
0.333323
-0.491681
0.158358
-0.186892
-0.00256895
0.00110777
0.00146118
-0.557015
0.121098
0.435916
-0.453443
-0.0602482
0.138943
-0.137084
-0.00185896
0.0818142
-0.0106252
0.391669
-0.180397
-0.211272
0.54058
-0.0908827
-0.449697
-0.580829
0.147168
0.433661
0.533852
-0.469383
-0.001203
0.01062
-0.615558
0.331221
-0.431441
0.376566
-0.0267302
0.487102
-0.460372
0.488487
-0.155163
-0.00145233
-0.000258714
-0.00231024
0.232758
0.128322
0.00583079
0.229601
0.690973
-0.300557
-0.390416
-0.000533494
0.00172893
-0.00119544
0.00188518
0.00370481
0.369522
-0.350494
-0.0190274
0.269434
0.0958114
-0.0106247
0.0101084
0.000516275
-0.000887625
-0.00591779
0.00680542
0.343922
0.292875
-0.634422
0.286962
0.34746
-0.40886
-0.0426161
0.451477
0.284426
0.406546
0.01841
0.19048
-0.383566
0.305398
-0.36694
-0.175842
0.542782
0.049886
0.135226
0.00412983
-0.00392233
-0.000207506
0.205283
0.380168
-0.585451
-0.300414
0.48731
-0.404354
0.332343
0.0720113
0.32719
0.306975
-0.274604
0.189846
-0.0347841
0.568637
-0.174626
-0.000348356
0.174975
0.0338631
-0.217215
-0.423721
0.402569
0.335049
0.0344722
0.226198
-0.231543
-0.196023
-0.00352695
-0.2041
0.00496093
0.000247406
-0.00520834
0.518298
-0.120184
-0.201461
0.167424
-0.182529
-0.00466357
0.00489869
0.00614648
-0.0110452
-0.239578
0.245612
-0.637292
0.352023
0.285268
0.146737
-0.00779391
-0.0139075
0.213982
-0.197635
-0.0918632
0.102247
-0.0119497
-0.438439
0.335392
0.103047
0.0608893
-0.0518312
-0.00905812
-0.380559
0.450757
-0.0701976
-0.504766
-0.0506314
0.555397
-0.0607889
-0.0221047
0.0828935
-0.212941
0.244206
-0.344634
0.100427
0.00835206
0.00140687
-0.00975893
-0.487685
-0.146737
0.157586
-0.35562
0.293275
0.0623446
0.0261673
0.154252
0.00564841
-0.000687482
-0.098918
-0.180409
-0.569867
0.163374
0.406493
-0.471196
-0.101624
0.57282
-0.554433
0.197341
0.357092
-0.574053
0.188875
0.385179
0.106497
-0.515357
0.366039
0.151797
-0.368657
-0.035697
-0.504417
0.197188
0.307229
0.196386
0.380542
-0.00426645
-0.00542025
0.00968671
0.111116
0.000873954
0.0122217
-0.0132317
0.333442
-0.230965
0.0568606
-0.43742
0.00151269
0.0117871
0.0421071
-0.373571
-0.000139227
0.0224843
-0.0223451
-0.543965
0.072769
0.245311
0.146358
0.201215
0.371127
-0.000159082
-0.0112595
0.0114186
-0.238628
0.0396741
0.198954
-0.0726932
-9.40261e-05
0.0727872
-0.193987
-0.369727
0.57501
-0.000606881
-0.0500318
0.0506387
0.468712
-0.53417
0.00973584
-0.194139
-0.310278
0.347081
-0.276849
-0.0702323
0.00699954
0.486691
-0.282409
-0.0029342
-0.00206969
0.00500389
-0.0096667
0.00880029
0.000866412
-0.136005
0.502044
-0.216374
-0.319071
0.535446
-0.114732
-0.314476
0.429208
0.309181
0.20941
-0.51859
-0.00218877
0.497964
-0.38888
0.200661
-0.161561
0.267462
0.280223
0.18826
-0.190897
-0.110743
-0.360869
0.245785
0.115084
0.0143879
-0.0088865
-0.00550142
-0.444033
0.0203121
-0.0564053
-0.12959
-0.206742
0.336331
0.0310759
0.273321
0.000121586
-0.00317668
0.00305509
0.361552
-0.266374
0.118409
-0.558952
-0.298747
0.540554
-0.232096
-0.308458
0.119466
-0.565491
-0.00595734
0.00667141
-0.00071407
0.00112594
-0.00902933
0.483256
-0.227894
-0.255362
-0.141491
0.444056
-0.302564
0.126345
0.320276
-0.446621
0.052201
0.0500465
-0.00211351
0.0023763
-0.0893589
0.294619
-0.20526
0.309752
-0.186252
0.00483281
-0.00448454
0.359927
-0.109223
-0.132022
0.409328
-0.277305
0.128907
-0.515086
0.386179
0.0134708
0.01928
-0.277324
0.340194
0.63463
-0.447355
-0.187275
0.0713227
-0.576089
-0.000865596
0.0905874
-0.0897218
-0.0185429
0.0183838
0.160088
-0.194159
0.208254
0.339815
-0.548069
0.248813
0.0385699
0.0415565
0.187229
-0.404987
0.533894
0.52835
0.0857333
-0.00912905
0.0048626
0.639085
-0.401594
-0.237491
-0.00199942
0.00362482
-0.0016254
0.435356
-0.0133177
-0.422038
0.00261202
0.00544856
-0.00806058
0.282432
-0.2338
-0.0486325
-0.476743
0.109803
0.000656967
-0.00963083
-0.00236272
-0.00566559
-0.106096
-0.349837
0.476183
-0.0903859
0.405829
0.0175873
-0.357646
0.00687179
-0.00995517
0.00308338
-0.208437
0.200566
0.00826314
0.00830355
-0.101517
0.00219242
0.179862
0.00440853
0.256959
-0.182
0.169751
0.012249
-0.293047
0.0433623
0.249685
0.0385752
-0.0246019
0.677559
-0.406156
-0.271403
0.216233
0.267023
0.56446
-0.329784
-0.234676
0.578709
-0.211622
-0.367086
0.418716
-0.38191
-0.0368064
0.0279718
0.172689
0.419791
0.257767
-0.422479
-0.131954
-0.18142
0.296068
-0.4108
0.137838
-0.476953
-0.324859
0.507117
-0.205291
0.594872
-0.38958
0.288624
0.236515
-0.525139
0.0252306
0.054805
-0.0800356
-0.0981274
0.190435
-0.553248
0.362813
0.0109377
-0.0060986
-0.00483912
0.186358
-0.184166
-0.000552102
-0.0179908
0.0545297
-0.0417527
-0.00259807
-0.249653
0.229598
0.0200556
-0.347311
-0.114624
0.461935
-0.28618
0.406824
0.0110947
0.424261
-0.00783244
-0.0388322
0.130679
0.20437
0.322046
0.242414
0.0872071
0.400722
-0.487929
0.475368
-0.110038
-0.499066
0.411879
0.0871866
-0.149466
-0.341366
0.490833
0.295898
0.122818
0.259307
0.106682
-0.365989
-0.000576096
-0.129966
-0.162169
0.292135
-0.613551
0.373236
0.240314
0.285074
-0.154395
0.481001
-0.186939
0.18215
0.424848
0.209135
0.182469
-0.331576
0.201986
0.109452
-0.547797
0.000329232
0.0202346
-0.0205638
0.360109
-0.509575
-0.254915
-0.476868
0.572497
0.174418
-0.52129
0.346872
0.338484
0.168382
-0.506866
0.307079
-0.422122
0.115044
-0.490702
0.149101
-0.181979
0.00587423
0.176105
-0.070461
0.284717
-0.214256
-0.0122866
0.00632928
-0.240161
-0.304597
0.544758
-0.00589605
0.156298
0.331218
-0.487516
0.000912026
-0.00291145
-0.000356751
-0.00406369
-0.294112
0.293363
0.000748607
-0.381388
0.125316
0.256072
0.0664067
0.197204
-0.26361
0.515921
-0.341503
-0.250518
-0.311701
0.56222
0.196028
0.290663
0.171472
0.352919
-0.490679
-0.0146798
0.0261872
0.000643048
0.119888
0.0268486
-0.0020698
0.00391556
-0.00184576
-0.239061
0.494298
-0.255237
0.0110549
-0.00522554
-0.00582932
-0.575018
0.41712
-0.443851
-0.393987
-0.0426682
-0.290579
0.00561316
0.0054417
-0.280982
0.0450578
0.235924
-0.0677095
0.0707716
-0.00449692
-0.28855
-0.147187
0.0139166
-0.0153749
-0.187532
0.573748
0.128057
-0.310363
-0.0987424
-0.256878
-0.209174
-0.292351
0.501525
-0.126365
-0.312931
0.439296
0.698989
-0.332219
-0.00099917
0.00210694
-0.0252322
0.0246801
0.218288
-0.0953248
-0.303441
0.555183
-0.191953
-0.363229
-0.00982355
0.0111398
-0.00131624
0.276018
-0.0951452
-0.485684
0.488816
-0.321182
-0.167634
-0.102538
-0.00264193
0.000572127
-0.240035
0.256794
0.0352368
-0.558512
0.127257
0.182494
-0.00666371
-0.00109762
0.00776133
0.276006
-0.408028
-0.00626888
0.00269117
0.00357771
0.118135
-0.282945
-0.473351
0.348202
0.12515
0.0818138
-0.0600218
-0.0217919
-0.000199441
0.00121946
-0.00102002
-0.00114148
-0.00245354
0.00359502
0.00261456
-0.563253
0.325918
-0.110638
-0.215281
0.0072468
0.00369092
-0.524434
0.101956
-0.00471106
-0.000582778
0.00529384
0.416104
-0.12748
-0.208097
0.398432
0.208625
-0.447685
0.123782
0.0896128
-0.213395
-0.00749786
-0.00148155
-0.183785
-0.143611
0.39865
0.481548
-0.394341
-0.581248
0.151975
0.429273
0.153373
-0.11721
-0.300589
0.132998
-0.569378
-0.465043
0.584105
-0.119061
0.154111
0.334705
-0.0857891
0.0674032
-0.1807
-0.448723
0.317894
-0.441466
0.123572
0.079867
-0.000119579
0.0223049
-0.0221853
-0.306872
0.298729
-0.00174908
0.00121559
-0.0673624
0.0667555
-0.00198699
0.000987817
-0.172774
0.218383
-0.427557
0.0919279
-0.0849311
-0.00699682
-0.177344
-0.461934
0.00332126
-0.00216018
0.0140017
-0.009103
0.0198109
-0.194437
-0.370464
0.499105
-0.405653
0.205729
0.199924
-0.37729
0.449278
-0.0719883
0.00454833
-0.167446
0.162897
-0.500602
0.274198
-0.0095034
-0.00599188
0.0154953
0.133801
-0.263971
0.545728
-0.0948248
0.0865968
0.008228
-0.17881
0.0900466
-0.00161565
0.0014162
0.260365
-0.447494
0.187129
0.00186888
0.384627
-0.139872
-0.244755
0.000150856
-2.92704e-05
0.433999
-0.267512
-0.166488
-0.0922414
0.216023
0.195042
0.323688
-0.51873
0.349643
0.126936
-0.476579
0.230636
-0.325546
0.0949096
0.0267049
-0.183962
0.157258
0.208892
-0.345015
0.136123
0.50494
0.607218
-0.200339
-0.406879
0.0876755
-0.0822209
-0.0054546
-0.360223
-0.205951
0.566174
0.144195
-0.452252
0.308056
-0.00234051
-0.00836692
0.0107074
0.467217
-0.206851
0.659886
-0.239712
-0.420173
-0.0862012
-0.488621
-0.00963922
0.00107436
-0.402127
0.0904259
0.487779
-0.375822
0.0930488
0.23287
0.630127
-0.185244
-0.444883
-0.327479
0.3867
-0.059221
0.356186
0.202465
-0.558651
0.132491
0.0208822
0.0518813
-0.429171
-0.486595
0.546621
-0.0600266
-0.252666
0.354549
0.0911294
0.558067
-0.321695
0.411188
-0.350691
-0.00284648
-0.101562
0.104408
0.00662601
0.000167127
-0.00679314
0.181306
0.0204225
0.218411
0.336772
0.00269066
-0.00249105
-0.000199601
0.00134393
-0.00427813
0.00220087
-0.00694261
-0.171668
0.00754062
0.164128
0.00714154
-0.0068774
0.343781
-0.488117
0.144337
0.359776
0.176021
-0.535797
0.429671
-0.12729
-0.302381
-0.482775
-0.00381984
-0.504674
-0.0428357
0.547509
0.00251216
-0.261908
0.210872
-0.160986
-0.159337
-0.355182
0.514519
-0.207243
0.284282
-0.0770397
0.559978
-0.214412
0.293848
-0.00388521
0.00114691
0.000401053
-0.0049618
-0.181728
-0.388139
-0.379349
-0.229239
0.236238
0.267291
0.371794
-0.221581
-0.341847
0.563427
-0.506611
-0.00334125
0.000928439
0.00241281
-0.00451159
0.0997197
-0.0952081
-0.0820258
0.286588
-0.204562
-0.157199
0.495683
-0.141602
-0.348814
0.567224
0.00418029
0.00141981
-0.0056001
-0.116784
-0.253773
0.370556
-0.249797
-0.226947
-0.00641801
-0.0761653
0.300481
-0.224316
0.233879
-0.228525
0.27958
-0.402807
0.123227
-0.00243518
0.0344146
-0.0319794
-0.347161
0.419166
-0.0720055
0.0958712
0.301271
0.508082
-0.177613
0.000599448
-0.00194076
0.00134131
0.368617
0.149681
-0.146007
0.00225305
0.00609901
0.00146693
-0.0999939
0.0995527
0.000441263
0.0329263
-0.0443595
0.0114332
-0.068228
-0.00579388
0.00108282
-0.503318
0.581941
-0.0786235
-0.127794
-0.0106046
0.35814
0.326327
-0.488229
0.128006
-0.00318263
-0.000906432
0.00408906
-0.520971
0.0905604
-0.0383593
0.269657
0.384646
0.00114251
-0.000543063
-0.00585552
0.00496789
-0.0642253
0.329392
-0.0147641
-0.00914792
0.023912
-0.00018644
0.34831
-0.221053
-0.110771
-0.251006
0.361776
-0.2296
0.642782
-0.209375
0.571091
-0.361716
-0.00758735
0.00183519
-0.00866139
0.0068262
0.183137
-0.579696
0.396559
-0.0820806
-0.00200302
0.0840836
0.20207
-0.272531
0.00126562
-0.000123106
-0.0316275
0.169646
-0.138019
-0.466325
0.634184
-0.167859
0.362132
-0.521074
0.158942
-0.212475
0.55061
-0.338135
0.506456
0.200114
0.184513
-0.422156
-0.191395
0.208959
0.349108
-0.0831463
-0.0116785
0.199925
-0.17322
-0.445684
0.125227
0.320457
0.0219065
0.0599072
0.373352
0.286534
0.402997
-0.0616864
-0.341311
-0.458317
0.510199
0.425794
-0.1079
-0.00185044
-0.0013322
0.00403459
-0.326595
-0.278242
0.604837
0.0805883
-0.615883
-0.1101
-0.170882
0.087183
-0.379534
-0.00242922
-0.00324008
6.34027e-05
-0.595025
0.35234
0.242685
0.297105
0.132566
0.120748
0.0417961
-0.162544
0.00679076
-0.000726475
0.178035
-0.456503
0.141336
0.315168
0.316145
0.10965
-0.196722
-0.327009
0.316947
0.185406
-0.0865922
-0.00694034
-0.0930536
0.00449829
-0.126073
0.0161025
-0.0162221
-0.19357
-0.00535259
0.0050845
0.000268096
0.65459
-0.15846
-0.0918384
-0.215034
0.00435206
-0.0231431
0.0187911
-0.0928683
-0.193819
0.113566
-0.409633
0.296067
-0.00100592
-0.00441434
0.0653794
-0.0804306
0.0150513
0.00377699
0.477912
0.00208521
-0.052117
0.154843
-0.0340955
0.058567
-0.315514
0.256947
0.527658
-0.167882
-0.550209
0.201472
0.348737
0.153903
0.319401
0.269522
-0.477329
0.207808
0.00374484
0.00977655
-0.00812607
-0.129218
0.137344
0.00908625
-0.00725106
-0.00269215
0.00735956
-0.0046674
-0.00314483
0.00900021
-0.00205747
-5.60334e-05
-0.0781161
-0.00239704
0.0805132
0.0924686
-0.00188123
0.640268
-0.211297
-0.428971
-0.406771
0.282888
0.123884
-0.45669
0.589688
0.00682732
0.00225767
-0.00908499
0.00368111
-0.00328006
0.150611
0.376249
-0.52686
0.00827866
-0.316958
0.516173
-0.199215
0.184945
-0.581068
0.396123
-0.435625
0.294134
-0.385618
0.539525
-0.153907
0.00069101
0.0195436
0.135917
0.212393
-0.204343
0.303145
-0.414239
0.111094
0.150699
-0.0308107
-0.0019872
-0.0076795
-0.0566122
0.28367
-0.227058
-0.169184
-0.0230543
0.192238
0.459022
-0.345455
0.212263
0.366446
-0.320634
0.298902
0.00326757
-0.00237899
-0.000888584
0.357295
0.170363
-0.134923
-0.32158
0.492247
-0.130115
-0.103022
0.00787135
0.00388446
0.00205651
-0.000327578
0.333527
0.301103
-0.00230059
0.0942285
-0.0906962
-0.00352533
-0.00709937
0.00956852
-0.0027412
0.0114995
-0.00714741
-0.289959
0.391199
0.0929383
-0.447835
0.354897
-0.105396
-0.508688
-0.0020402
0.000898716
0.332129
0.156358
-0.231081
0.0344899
0.196591
0.365178
-0.557132
-0.597206
0.387831
0.0471836
0.00734608
0.293043
0.10628
-0.399323
0.594523
-0.433491
-0.161032
-0.341487
-0.0999793
0.210163
0.0722696
0.636482
-0.36919
0.00373591
-0.00642806
-0.526882
0.454187
0.0726956
0.172184
-0.443047
0.270864
-0.0934882
0.305169
0.087896
-0.393065
-0.00135543
-0.000585327
-0.143314
0.469635
-0.326321
-0.0262462
0.310669
0.12333
0.135404
0.275686
-0.41109
-0.299683
-0.610492
0.38797
0.311355
0.131904
-0.443259
0.466404
-0.373466
0.0210253
0.563305
0.00823107
-0.00278251
-0.203844
-0.0601886
0.264033
-0.115301
0.0790158
0.0362857
-0.338008
-0.590166
0.168118
0.422047
0.385923
-0.545598
0.159675
0.550602
0.580053
-0.310532
-0.404002
0.114043
-0.0081892
0.00299898
0.00519021
-0.507789
0.162834
0.344956
-0.00987723
-0.172102
0.499781
-0.343482
-0.00282303
-0.00583704
0.00866007
0.0229048
-0.217141
-0.0131716
0.230312
0.214326
-0.225767
0.0114409
0.0501852
-0.0580176
-0.358218
-0.279073
0.277508
0.358973
0.0089645
-0.142245
0.133281
0.00841672
-0.0865329
-0.0952818
0.349617
-0.254335
-0.00241927
0.00776423
-0.00534497
0.209885
0.193088
-0.402973
-0.05465
-0.00550703
0.00782042
-0.0225845
-0.594803
0.0105751
0.584228
0.34131
0.0304799
-0.37179
0.137947
-0.0119035
-0.126044
0.189459
-0.183585
0.255289
-0.297958
0.34152
-0.476084
0.134564
-0.0677634
0.298732
-0.230968
0.419925
-0.164636
-0.234155
-0.0237804
0.361676
-0.151791
0.222094
-0.382672
0.160577
-0.0011535
-0.129902
0.131055
-0.470662
0.220865
0.0182772
-0.0052714
-0.00291779
-0.153793
0.212899
-0.0750383
-0.137861
0.100131
-0.176297
0.0761665
0.0200978
-0.0260897
-0.159783
0.381877
0.359816
0.202549
-0.562365
-0.260457
0.00214218
-0.36483
-0.108522
-0.160625
0.51792
0.0040429
0.324383
-0.467697
0.000638658
-0.00690754
-0.350768
0.521411
-0.170643
-0.336923
0.00442823
0.0832473
-0.193504
-0.47236
0.351265
0.121095
0.199169
-0.180759
0.35299
-0.25812
-0.437132
0.542317
-0.105185
0.00424188
-0.00303406
-0.420591
0.323029
0.0975615
-0.616231
0.364153
0.252079
-0.139012
0.416759
-0.277748
-0.00251412
0.00266498
0.457349
-0.2009
-0.0483029
0.389613
-0.0881125
0.261495
-0.195088
0.00395059
-0.00636986
0.421992
-0.249808
-0.185501
0.541096
-0.355596
0.223403
-0.21966
-0.114528
0.474343
0.100421
0.0154988
-0.0620242
0.00156434
0.0604599
0.0303708
0.342349
0.358523
-0.700872
-0.458449
-0.0406169
-0.00464872
0.004269
0.000379722
-0.00191742
-0.268081
0.0122772
0.255804
0.47985
-0.283821
-0.069475
0.338909
-0.297294
0.417114
-0.119819
0.113037
-0.139009
0.135665
0.00334464
0.0173957
-0.000907433
-0.0164882
-0.109589
-0.000955388
0.00878603
-0.00783065
0.0545132
-0.00166712
-0.0528461
0.112638
-0.508319
0.395681
-0.055435
-0.00127839
-0.00457712
0.00638496
-0.00734034
-0.462837
0.33814
0.124697
0.347634
-0.656201
0.323505
0.135517
0.244157
0.200046
-0.444204
-0.00661326
-0.00334191
-0.0329533
0.444141
-0.290577
0.0157168
0.00167889
-0.261588
0.303258
0.00073379
0.0215711
-0.0194187
0.250157
-0.230738
0.00833825
-0.00415796
-0.000918971
-0.00372975
0.0176724
-0.242295
0.224623
-0.00519209
-0.000160503
0.0350115
-0.207779
0.549501
-0.341722
0.0876879
-0.10114
0.0134524
-0.13084
0.170299
0.345622
-0.117953
0.421098
0.00271409
-0.00307084
0.138414
-0.409005
-0.0993356
-0.254649
0.353985
0.638995
-0.370011
-0.268984
-0.156221
0.514981
-0.35876
0.0223925
9.18501e-05
-0.544552
0.194097
0.350455
-0.184148
0.156148
0.0279999
0.196845
0.389469
0.405294
-0.161137
0.150185
0.323442
-0.473628
-0.377778
0.237906
0.0750164
-0.00963703
-0.158619
0.500969
-0.33015
0.539109
0.335155
-0.170803
0.299562
0.144494
0.401132
-0.0959632
-0.0660936
0.00662123
0.131704
0.364853
-0.521074
0.00252319
0.000744384
0.217154
0.377369
-0.0691304
0.0071062
-0.426203
-0.190029
-0.0248912
0.0250936
-0.000202365
0.0688208
-0.372591
0.30377
0.0809287
-0.0793643
-0.313132
0.404606
-0.0914739
-0.478439
0.054256
0.156616
0.233711
0.171583
0.0869544
0.239018
0.357881
0.332603
-0.545078
0.00553532
-0.00835834
-0.172454
0.447795
-0.275341
-0.137706
-0.338377
-0.373528
-0.176681
-0.471055
0.14446
-0.0134738
0.155527
-0.142053
0.00747254
-0.00981305
-0.424016
0.251562
-0.0872866
0.317923
-0.607592
0.192059
0.415533
-0.123696
0.430775
0.321924
0.186158
-0.0169385
0.235268
-0.218329
-0.0899536
-0.391842
0.0511848
0.00332841
-0.402143
0.299515
0.102628
0.475097
-0.142968
0.20546
0.335094
0.0119882
0.000187606
-0.00462234
0.00882668
0.329849
0.201009
-0.530859
0.510456
-0.397818
0.00125466
0.00020601
-0.00412834
-0.0591583
0.00732713
0.272306
-0.211836
-0.110575
0.310689
-0.438681
0.0915205
-0.0365969
-0.231484
0.0307792
0.00683357
-0.0376128
0.00129597
-0.114874
-0.162174
0.063377
-0.0854817
0.213157
0.00116902
0.384114
-0.189072
-0.00398001
0.0606466
0.203442
-0.0578039
-0.145638
-0.0156525
-0.000569541
-0.102626
-0.507865
-0.265569
0.324136
0.191195
0.288655
-0.448149
-0.056525
-0.282876
-0.121126
0.14241
0.265309
-0.0293798
-0.23593
-0.190249
0.46404
0.0955055
-0.0979025
0.0241601
0.503883
-0.528043
-0.422421
-0.167745
-0.298988
0.262391
-0.264865
0.258529
0.0063362
0.173947