/*--------------------------------*- C++ -*----------------------------------*\
| =========                 |                                                 |
| \\      /  F ield         | OpenFOAM: The Open Source CFD Toolbox           |
|  \\    /   O peration     | Version:  v2012                                 |
|   \\  /    A nd           | Website:  www.openfoam.com                      |
|    \\/     M anipulation  |                                                 |
\*---------------------------------------------------------------------------*/
FoamFile
{
    version     2.0;
    format      ascii;
    class       surfaceScalarField;
    location    "350";
    object      phi_0;
}
// * * * * * * * * * * * * * * * * * * * * * * * * * * * * * * * * * * * * * //

dimensions      [0 3 -1 0 0 0 0];
oriented        oriented;


internalField   nonuniform List<scalar> 
20362
(
0.36718
0.111963
-0.479143
0.00498618
0.000824449
-0.00581063
-0.121276
-0.279339
0.400616
0.331716
0.112322
-0.444038
0.155979
-0.168785
0.012806
0.381535
0.0604977
-0.442033
0.295437
-0.52373
0.228293
0.641017
-0.476836
-0.164181
-0.175909
-0.00956845
0.185478
0.245744
-0.289503
0.0437597
-0.179575
0.00366579
0.696233
-0.34896
-0.347273
-0.476078
0.647993
-0.171914
-0.00484901
0.00558988
-0.000740874
0.477912
-0.146196
-0.601344
0.606998
-0.0056539
0.213845
-0.0687792
-0.145066
0.53212
-0.257349
-0.274771
0.00350577
-0.00101197
-0.0024938
0.208617
-0.0887586
-0.119859
-0.0940312
0.0969495
-0.00291831
0.66182
-0.35215
-0.30967
0.503507
-0.398766
-0.104741
0.278321
-0.399598
-0.593488
0.600412
-0.00692435
0.641908
-0.585594
-0.0563136
0.308201
-0.00534185
-0.302859
0.0644694
0.577439
-0.563884
-0.0296036
0.0114568
-0.0113367
-0.000120089
0.00316588
-0.0411408
0.0379749
-0.377209
-0.226403
0.603612
0.00279228
0.00120796
-0.00400024
0.0555629
-0.340061
0.284498
0.609686
-0.292209
-0.317477
-0.00469671
0.00058538
0.00411133
-0.336576
0.26517
0.0714062
-0.00328381
0.00827
0.34439
-0.531131
0.186741
-0.453867
0.0260273
0.42784
-0.093304
-0.130171
0.223475
0.309653
0.300033
0.294062
0.383326
0.534299
-0.435118
-0.0991807
-0.125476
0.492656
-0.339876
-0.0616079
0.401484
0.746676
-0.336945
-0.409731
-0.063065
-0.383223
0.446288
0.238599
-0.247392
0.0087923
0.426295
0.128641
-0.554936
0.0602844
-0.0300322
-0.513515
0.45045
-0.692492
0.552071
0.140421
0.304244
0.227876
0.364112
-0.343789
-0.0203235
0.606779
-0.0654583
-0.54132
0.541124
-0.730049
0.188926
-0.151369
-0.271244
0.0285481
0.242696
-0.42932
0.31544
0.113881
-0.165074
0.0345832
0.13049
0.0794175
0.454881
-0.00516462
0.00695083
-0.00178621
0.254553
0.407268
-0.00790348
0.000138917
0.00776456
-0.42838
0.622463
-0.194083
0.000863652
-0.0948948
-0.00341562
-0.00327479
0.00669041
0.0635289
-0.535295
0.471766
-0.193326
0.179407
0.0139184
0.368976
0.3777
0.230801
0.410217
0.706399
-0.523276
-0.183123
0.356547
0.10718
-0.000713556
0.00346481
-0.00275125
-0.00643131
0.071202
-0.0647707
-0.00843617
-0.18489
-0.00920915
-0.059466
0.0686751
-0.00362962
0.00291606
-0.272514
0.251932
0.0205827
0.133684
-0.226988
-0.0133923
0.211533
-0.198141
-0.268579
0.17474
0.0938396
0.651077
-0.446025
-0.205052
0.508458
-0.164068
0.00743734
-0.00800308
0.000565743
0.235433
0.00603014
-0.241463
-0.185958
-0.270594
0.456551
0.281633
-0.64809
0.366458
-0.0777632
0.0881322
-0.010369
0.636797
-0.440543
-0.196254
-0.0235959
0.135721
-0.475598
0.307728
0.0563836
-0.00639803
0.00137516
0.00502287
-0.00240313
0.00519541
-0.313345
0.032206
0.281139
0.388616
0.307617
0.269063
0.285438
-0.554501
0.0860677
0.262465
0.139419
-0.401883
0.245138
0.000605259
-0.609166
0.549025
0.0601409
0.671802
-0.43638
-0.235422
-0.344073
0.507748
-0.163675
0.0421389
0.171706
-0.120883
-0.147696
-0.663677
0.46753
0.196146
-0.0259595
-0.427907
-0.124322
-0.189023
0.200079
-0.00264476
-0.197434
-0.557532
0.117291
0.44024
-0.0113624
0.0119651
-0.000602712
-0.00993566
-0.123341
0.133277
0.0902772
-0.110237
0.0199595
0.56896
-0.273364
-0.295595
0.34518
-0.516855
0.171675
0.00445611
0.0145316
-0.0189877
-0.103071
-0.506095
0.101234
-0.380574
-0.0117558
0.0117558
0.413182
0.293217
0.292791
-0.387431
0.0946403
0.000730099
0.00277567
-0.00126516
0.01115
-0.00988484
-0.00361699
-0.00463733
0.00825433
-0.250305
0.519367
-0.518907
-0.211142
-0.500551
-0.0569809
0.521959
-0.487334
-0.034625
-0.143229
-0.0218448
0.115074
-0.109371
-0.00570289
0.469322
0.0526378
0.210837
0.0277621
-0.0115559
-0.000345217
0.0119011
0.15158
-0.175924
0.0243433
-0.00153288
-0.0063706
0.0997365
0.386298
-0.486034
-0.276258
0.352977
0.249744
-0.139758
-0.109987
-0.0340354
0.228783
-0.194748
-0.000364381
-0.0111915
0.127029
-0.508591
0.381562
-0.369568
0.548538
-0.17897
-0.100416
0.481951
-0.0901218
-0.246454
0.00754629
-0.0853095
0.0861376
0.255955
0.185821
-0.371778
0.00245284
-0.453348
0.203043
-0.541348
0.599425
-0.0580763
0.213574
-0.226966
0.359845
-0.449986
0.120656
0.234905
-0.35556
-0.0673376
-0.216292
0.283629
-0.209105
0.458568
-0.249463
0.000823413
-0.00722144
0.0123939
0.487449
-0.499843
0.601916
-0.175621
-0.578425
0.102347
-0.00659468
0.00143006
-0.00375891
0.00406543
-0.000306518
-0.102112
-0.478318
0.58043
0.332816
-0.676889
0.111294
0.13845
0.46345
-0.168013
0.137761
0.259231
-0.396992
-0.629423
0.256449
0.372974
-0.371597
0.524414
-0.152817
-0.24689
0.367545
0.220149
-0.429254
-0.367218
0.284553
0.0826646
0.0554088
-0.0615743
0.00616555
0.467728
-0.234333
-0.233395
0.4077
0.168135
-0.575835
0.0560429
-0.0528771
0.00109624
0.0121754
-0.0132717
-0.498377
-0.0429715
0.00815656
-0.00779086
-0.000365694
-0.151742
-0.263138
0.41488
0.00585541
-0.00947241
-0.0027385
-0.601687
0.232119
-0.385947
0.512977
0.576929
-0.574823
-0.00210636
-0.268465
0.406227
0.169833
0.333674
-0.27656
0.209223
0.141179
-0.151114
-0.658871
0.402358
0.256513
0.00420434
0.00725243
-0.00897383
-0.00236285
0.559045
-0.328245
-0.590403
0.488291
0.232384
0.336576
0.199317
-0.0684295
-0.130888
-0.289895
0.606779
-0.00711986
3.36292e-05
0.00708623
0.439188
-0.339451
0.0103161
-0.00856487
-0.00175119
0.366209
-0.310646
0.383503
0.267575
0.292918
-0.52929
0.236373
-0.331461
0.269853
-0.0162517
0.0112318
0.00501992
-0.333249
0.433236
-0.0999864
-0.207622
0.00470994
0.202912
-0.0172045
-0.0036045
0.00497966
0.00157846
0.0087376
-0.387021
0.573359
-0.186339
0.0635877
-0.00817896
-0.00303675
-0.000592864
-0.101228
0.379549
-0.448353
0.625333
-0.17698
0.40176
-0.0781694
-0.323591
-0.0466639
0.0117612
0.0349027
0.244316
-0.345724
0.101408
0.172164
0.0604663
-0.144754
-0.335805
0.480559
-0.00285595
-0.00184076
-0.217135
0.56384
-0.346705
0.0361642
0.163153
-0.00424465
-0.00440887
0.00865352
0.047576
0.0136406
-0.0612167
-0.01161
-0.0793637
0.0909737
-0.157313
-0.281195
0.438508
-0.000142046
0.00663928
-0.00649723
-0.00681227
-0.000307595
0.00716368
0.00099288
0.0765134
-0.0857225
-0.437485
0.0695396
0.367945
0.337621
-0.489788
0.152167
-0.00455868
0.00296151
0.00159717
-0.0238104
0.0282666
-0.513672
0.586335
-0.0726624
0.0151817
0.0246798
-0.0398615
0.331258
0.340545
-0.450125
0.424166
-0.16448
-0.499197
-0.00287158
-0.00503506
0.31958
-0.464334
0.12262
0.0372063
-0.30845
0.3236
-0.33124
0.00764005
-0.341601
0.648328
-0.306727
-0.183351
-0.00787444
0.191226
0.00120384
-0.0125663
-0.0809375
0.0547923
-0.0664023
-0.261077
0.329105
-0.0680284
0.0167598
-0.257937
0.241177
0.397049
-0.164824
-0.232225
0.414457
-0.121666
0.000781092
-0.00969155
0.00891046
0.00353376
-0.00363077
9.70043e-05
-0.375299
0.114222
0.365382
-0.500831
0.135449
-0.00161743
-0.00294125
-0.294069
0.282631
0.0114383
-0.560639
0.684467
-0.123828
0.046444
0.0138403
-0.000677952
0.0268287
-0.0261508
-0.0543035
0.521404
-0.4671
-0.151109
0.48873
0.344044
0.302754
-0.646798
0.319945
-0.309467
-0.0104778
0.37879
0.164678
-0.543468
0.21793
0.111175
-0.000245257
-0.00790428
0.00814954
0.0951775
0.271032
0.00606409
-0.00620614
0.185123
-0.15054
-0.00291842
0.000263028
0.00265539
0.44745
-0.10227
-0.28896
0.397143
-0.108183
0.255358
-0.632567
0.288545
-0.177251
-0.0594894
0.00177281
-0.00601745
-0.306756
0.140602
0.166154
0.00223129
-0.00615879
0.0039275
-0.510251
-0.0910932
0.00838354
-0.00726684
-0.00111671
-0.155359
-0.0148331
0.170192
-0.0670984
0.154417
-0.582797
-0.0061958
0.00155847
0.0168445
-0.284337
-0.308567
0.592904
-0.000225151
-0.009979
-0.00627269
-0.348807
0.253939
0.0948686
-0.504414
0.204265
0.300149
0.347871
-0.526905
0.179034
-0.0998065
-0.00956415
-0.639278
0.273791
0.365487
0.144224
-0.138405
-0.00581853
0.00140373
0.00116092
-0.00256464
0.208889
-0.0340694
-0.174819
0.484084
-0.492966
0.00888196
0.676493
-0.124885
-0.551608
-0.00216175
-0.0014521
0.270932
-0.120312
-0.15062
0.00980434
-0.0029681
-0.00683624
0.00010728
-0.00105063
0.000943353
0.287386
-0.286691
-0.000694486
-0.0952113
0.0162864
0.0789249
0.0263161
0.182301
-0.000753884
-0.0403869
-0.0101773
0.0843469
-0.458759
0.374412
0.525878
-0.147089
-0.611141
0.244043
0.367098
0.00254987
0.00488746
-0.036688
0.0518696
0.00941763
0.00383912
-0.0132568
-0.108504
0.00869713
-0.20355
-0.300864
0.254825
-0.406567
-0.497073
0.0956065
0.496139
-0.591745
-0.11331
0.0338204
0.450264
0.12348
0.165066
0.330469
0.182243
-0.512712
0.00404481
-0.00897914
0.00493433
0.182265
0.36676
-0.00802827
0.00324892
0.00477935
0.727252
-0.266
-0.461253
0.295611
-0.155009
-0.187189
0.17982
0.00736881
-0.288222
0.487386
-0.199164
0.449863
0.27739
-0.242855
0.271404
0.380936
0.141495
-0.522431
0.0244573
-0.204355
0.179898
-0.167895
0.0125358
-0.00622944
0.00281381
-0.0139983
0.000264077
0.00811947
-0.00179422
0.0019015
-0.187932
-0.0845818
0.614083
-0.614083
0.27097
0.0489748
0.3044
-0.063111
-0.241289
0.502353
-0.178026
-0.324327
-0.0148981
0.0128712
0.00202692
-0.00399815
0.00306296
0.00138735
-0.00445032
0.131091
-0.481786
0.350696
0.250704
0.108241
-0.358946
-0.425778
-0.32897
0.490733
-0.161763
0.039108
0.231824
0.365244
-0.203769
-0.161475
-0.0934392
0.337755
-0.0211512
-0.428974
-0.216532
-0.0089359
0.225468
-0.00810211
-0.268156
0.229667
-0.558637
0.150739
0.0811293
-0.231868
0.00201347
0.0135223
-0.0137675
0.572341
-0.402508
0.300231
-0.486094
0.185863
0.547686
-0.337702
-0.209985
0.101899
0.29515
0.347226
0.300767
-0.335946
0.467037
0.323499
0.0782611
0.0101348
0.134089
0.517833
-0.217602
-0.39218
0.404574
-0.0614706
0.00737832
0.0540922
-0.0847584
-0.223828
0.308586
0.246579
0.00535224
0.315935
-0.53307
-0.179603
0.461235
0.417204
-0.131765
-0.000288618
-0.00456039
0.00306661
0.0566628
-0.0597294
0.0187794
-0.0194574
0.0165669
-0.0117836
-0.00478326
0.238936
-0.0667718
0.529222
-0.150577
-0.378646
0.0628683
0.232041
-0.294909
0.268107
-0.479809
0.211702
-0.495528
0.207306
0.391604
-0.129139
-0.0425449
-0.434291
-0.510301
-0.0440498
0.554351
0.304208
-0.00563644
-0.298572
0.03275
-0.0251925
-0.00755754
-0.000202214
-0.00342855
0.0794371
-0.320113
0.240676
-0.557867
0.109514
0.49102
-0.222913
-0.438346
0.654303
-0.215957
-0.368895
0.164353
0.204542
0.201732
-0.177274
-0.157216
-0.272105
0.022404
0.00403401
0.300174
0.358478
-0.500898
0.14242
-0.0152361
0.0160172
-0.339187
0.473354
-0.134167
-0.00474153
0.00556495
0.361079
-0.261848
-0.0992309
0.000943521
-0.109447
-0.0429825
-0.0522289
-0.133272
-0.00631141
0.139583
0.429621
-0.2939
0.0139712
-0.060158
0.0461868
0.204499
-0.0290079
-0.00903007
0.00574625
-0.0657359
0.0127543
0.0529816
0.0586133
0.0295189
0.398173
0.127706
0.244613
-0.631634
0.145558
-0.193555
0.0479975
0.00506044
-0.00601097
0.000950522
-0.639874
0.393471
0.246403
0.00683325
0.186896
0.286557
-0.473453
0.11427
0.331762
-0.446032
-0.0316259
-0.172729
0.0198757
0.00983782
-0.00928134
-0.000556483
-0.00262124
0.0056842
0.00215034
0.00768747
-0.266569
0.26152
0.00504845
-0.102668
-0.375173
0.477841
0.504652
-0.420305
-0.415032
-0.224842
-0.256408
0.325975
-0.0695674
0.205692
-0.0601336
0.199109
0.330114
0.00034808
-0.00456053
0.00421245
0.362733
-0.465401
0.111986
-0.0183833
-0.0936023
0.264178
0.330644
0.228402
0.00589687
-0.0114086
0.00551169
-0.222521
0.566565
0.183951
0.438512
-0.00518153
0.182061
-0.176879
-0.0548705
0.448341
-0.0152433
0.0693016
-0.0757329
0.101976
-0.450936
0.000125763
-0.00442051
0.00429475
-0.4609
-0.0494011
0.0150282
-0.0517162
-0.00518248
0.00530824
0.634164
-0.413666
-0.220498
0.258328
0.101516
-0.279328
0.126813
0.152515
0.0132994
-0.0012851
-0.0120143
-0.16556
0.316299
-0.00100999
0.0140594
-0.0130495
0.173488
-0.17867
-0.265965
-0.000603786
0.0698205
-0.00418124
-0.00382184
0.428675
-0.482979
-0.0150082
0.0137431
0.003748
0.207785
0.120645
-0.455299
0.334654
0.333321
-0.491679
0.158358
-0.186891
-0.00256841
0.00110764
0.00146077
-0.557015
0.121098
0.435916
-0.453449
-0.0602235
0.138942
-0.137089
-0.00185333
0.0818031
-0.010601
0.39167
-0.180404
-0.211267
0.540647
-0.0909501
-0.449696
-0.580829
0.147167
0.433662
0.533852
-0.469382
-0.00120244
0.0106201
-0.615558
0.331221
-0.431439
0.376569
-0.0267302
0.487102
-0.460372
0.488486
-0.155164
-0.00145222
-0.000258852
-0.00230955
0.232758
0.12832
0.00583307
0.2296
0.690962
-0.30055
-0.390412
-0.000533296
0.00172892
-0.00119563
0.001885
0.00370488
0.369523
-0.350494
-0.0190289
0.269439
0.0958058
-0.0106247
0.0101083
0.000516375
-0.00088776
-0.00591777
0.00680553
0.343922
0.292875
-0.634422
0.286962
0.34746
-0.408809
-0.0426812
0.45149
0.284422
0.40654
0.0184101
0.190479
-0.383567
0.305397
-0.36694
-0.175843
0.542782
0.0499242
0.135199
0.00412966
-0.00392238
-0.000207273
0.205282
0.380169
-0.585451
-0.300414
0.487309
-0.404358
0.332344
0.0720137
0.327189
0.306975
-0.274603
0.189845
-0.0347843
0.568636
-0.174634
-0.00034712
0.174982
0.0338602
-0.217211
-0.42372
0.402569
0.335049
0.0344736
0.226197
-0.231539
-0.196023
-0.00352243
-0.2041
0.00496069
0.000247538
-0.00520823
0.518343
-0.12017
-0.201461
0.167426
-0.182526
-0.00466279
0.00490475
0.00614081
-0.0110456
-0.239581
0.245611
-0.637292
0.352023
0.285268
0.146742
-0.00780015
-0.0139061
0.213985
-0.197642
-0.0918619
0.102241
-0.0119642
-0.43844
0.335393
0.103048
0.0608902
-0.051837
-0.00905324
-0.380568
0.450763
-0.0701942
-0.504749
-0.0506382
0.555388
-0.0607972
-0.0220855
0.0828827
-0.21294
0.244213
-0.344631
0.100418
0.0083517
0.00140714
-0.00975885
-0.487685
-0.146737
0.157586
-0.355622
0.293271
0.0623513
0.0261652
0.154249
0.00564832
-0.000687634
-0.0989258
-0.180402
-0.569867
0.163374
0.406493
-0.47119
-0.101619
0.572809
-0.554433
0.19734
0.357092
-0.574056
0.188878
0.385178
0.10657
-0.515379
0.366038
0.151795
-0.368658
-0.0356997
-0.504418
0.197185
0.307233
0.196387
0.380542
-0.00426891
-0.00541741
0.00968633
0.111114
0.000871161
0.0122257
-0.0132357
0.333399
-0.231028
0.0568592
-0.437428
0.00151278
0.0117867
0.0421101
-0.373571
-0.000138147
0.0224838
-0.0223456
-0.543956
0.0727664
0.245318
0.146353
0.201215
0.371127
-0.000159118
-0.011259
0.0114181
-0.238635
0.0396849
0.198951
-0.0726946
-9.54592e-05
0.0727901
-0.193987
-0.369728
0.57501
-0.000606198
-0.0500328
0.050639
0.468712
-0.53417
0.00973599
-0.194136
-0.310282
0.34708
-0.276849
-0.0702307
0.00699877
0.486687
-0.282421
-0.00293447
-0.0020696
0.00500408
-0.00966669
0.00880031
0.000866385
-0.136004
0.502041
-0.216375
-0.319071
0.535446
-0.114652
-0.314566
0.429218
0.309181
0.20941
-0.518591
-0.00218832
0.497965
-0.38888
0.200656
-0.161548
0.267461
0.280225
0.188249
-0.190893
-0.110743
-0.360873
0.245781
0.115092
0.0143884
-0.00888617
-0.00550221
-0.444033
0.0203136
-0.0564082
-0.12959
-0.206744
0.336334
0.0310838
0.273316
0.000128341
-0.00317988
0.00305154
0.361553
-0.266375
0.118409
-0.558953
-0.298747
0.540554
-0.232096
-0.308458
0.119466
-0.565491
-0.00595506
0.00666929
-0.000714235
0.00112508
-0.00902936
0.483257
-0.227866
-0.255391
-0.141495
0.444056
-0.302561
0.126278
0.320375
-0.446654
0.05221
0.0500314
-0.00211296
0.00237599
-0.0893571
0.294619
-0.205262
0.309782
-0.186302
0.00483262
-0.00448454
0.359926
-0.109221
-0.132027
0.409329
-0.277302
0.128907
-0.515086
0.386179
0.0134705
0.0192795
-0.277325
0.340193
0.63463
-0.447355
-0.187275
0.0713312
-0.57608
-0.000865661
0.0905885
-0.0897229
-0.0185424
0.0183833
0.160081
-0.19415
0.208254
0.339815
-0.548069
0.248811
0.0385744
0.041551
0.187233
-0.404987
0.533894
0.52835
0.0857333
-0.00912809
0.00485918
0.63908
-0.401592
-0.237488
-0.00199929
0.00362495
-0.00162566
0.435356
-0.0133173
-0.422039
0.00261207
0.00544855
-0.00806062
0.28243
-0.233798
-0.0486323
-0.476743
0.109803
0.000656957
-0.00963079
-0.00236274
-0.00566553
-0.106096
-0.34994
0.476219
-0.0903911
0.405831
0.0175846
-0.357646
0.0068713
-0.00995491
0.00308361
-0.208436
0.200561
0.00826313
0.00830377
-0.101511
0.00219353
0.179867
0.00440939
0.256958
-0.182008
0.169747
0.0122605
-0.293047
0.0433617
0.249686
0.0385756
-0.0246044
0.677559
-0.406156
-0.271403
0.216257
0.267
0.564465
-0.329788
-0.234677
0.578709
-0.211622
-0.367087
0.418718
-0.381907
-0.036811
0.0279801
0.172676
0.419791
0.257767
-0.422479
-0.131954
-0.181419
0.296148
-0.4108
0.137813
-0.477
-0.324847
0.507112
-0.205291
0.594871
-0.389581
0.288629
0.236506
-0.525135
0.0252076
0.0548181
-0.0800258
-0.0981339
0.190435
-0.553249
0.362814
0.0109383
-0.00609765
-0.00484065
0.186363
-0.18417
-0.00055213
-0.0179903
0.0545197
-0.0417654
-0.00260053
-0.249651
0.2296
0.0200516
-0.347371
-0.114578
0.461949
-0.286179
0.406824
0.0110957
0.42426
-0.00783244
-0.0388314
0.130677
0.204372
0.322051
0.242414
0.0872142
0.400713
-0.487927
0.475387
-0.110005
-0.499065
0.41188
0.0871844
-0.149466
-0.341366
0.490832
0.295899
0.122819
0.259305
0.106685
-0.365989
-0.000580366
-0.12996
-0.16217
0.29213
-0.613551
0.373236
0.240314
0.285073
-0.154396
0.481001
-0.186939
0.18215
0.424848
0.209133
0.182471
-0.331575
0.201985
0.109452
-0.547798
0.000328624
0.0202339
-0.0205625
0.360109
-0.509574
-0.254917
-0.476871
0.572477
0.174417
-0.521289
0.346873
0.338484
0.168382
-0.506866
0.307076
-0.422116
0.115039
-0.490702
0.149101
-0.181982
0.00587807
0.176104
-0.0704637
0.284718
-0.214254
-0.012285
0.0063299
-0.240162
-0.304597
0.544758
-0.00589603
0.156298
0.331218
-0.487516
0.000912309
-0.0029116
-0.000356991
-0.00406352
-0.294112
0.293363
0.000749254
-0.381389
0.125317
0.256072
0.0664015
0.19721
-0.263611
0.515921
-0.341504
-0.250518
-0.311702
0.56222
0.196015
0.290672
0.171475
0.352939
-0.49068
-0.0146796
0.0261861
0.000642582
0.119889
0.0268534
-0.00207007
0.00391569
-0.00184562
-0.239061
0.494298
-0.255237
0.0110548
-0.00522547
-0.0058293
-0.575018
0.41712
-0.443851
-0.393987
-0.0426717
-0.290578
0.00561318
0.00544159
-0.280981
0.0450615
0.23592
-0.0677071
0.0707737
-0.00449681
-0.28855
-0.147188
0.0139164
-0.0153743
-0.187439
0.573737
0.128017
-0.310364
-0.0987433
-0.256879
-0.209174
-0.292351
0.501525
-0.126365
-0.312933
0.439298
0.698978
-0.332219
-0.00099883
0.00210647
-0.0252317
0.0246796
0.218284
-0.0953244
-0.303442
0.555183
-0.191954
-0.363229
-0.00982355
0.0111391
-0.00131557
0.27602
-0.0951444
-0.485685
0.488816
-0.321182
-0.167635
-0.102545
-0.00264214
0.000572062
-0.240033
0.256793
0.0352368
-0.558513
0.127234
0.182548
-0.00666349
-0.00109788
0.00776138
0.276002
-0.408029
-0.00626869
0.00269095
0.00357774
0.118117
-0.282941
-0.473355
0.348202
0.125153
0.0818135
-0.0600242
-0.0217893
-0.000199192
0.00121927
-0.00102008
-0.00114178
-0.00245341
0.00359519
0.00261456
-0.563253
0.325917
-0.110636
-0.215281
0.00724626
0.00369204
-0.524435
0.101956
-0.00471105
-0.000582559
0.00529361
0.4161
-0.127471
-0.2081
0.398429
0.208625
-0.447685
0.123783
0.089613
-0.213396
-0.00749776
-0.00148139
-0.183785
-0.143611
0.39865
0.481548
-0.394334
-0.581248
0.151975
0.429274
0.15338
-0.117216
-0.300599
0.132998
-0.569378
-0.465043
0.584104
-0.119061
0.154111
0.334705
-0.085785
0.0674017
-0.1807
-0.448723
0.317882
-0.441435
0.123553
0.0798685
-0.000120859
0.0223049
-0.022184
-0.306862
0.29876
-0.00174912
0.00121582
-0.0673629
0.0667567
-0.00198627
0.000987437
-0.172774
0.218382
-0.427556
0.0919266
-0.0849294
-0.00699719
-0.177344
-0.461934
0.00332153
-0.00216061
0.0140026
-0.00909786
0.0198108
-0.194445
-0.370464
0.499105
-0.405653
0.205729
0.199923
-0.37729
0.449278
-0.071989
0.00455182
-0.167448
0.162896
-0.5006
0.274197
-0.00950954
-0.00598762
0.0154972
0.133804
-0.263975
0.545758
-0.0948273
0.0866006
0.00822666
-0.178802
0.0900434
-0.00161549
0.00141629
0.260359
-0.447481
0.187122
0.00186866
0.384627
-0.139871
-0.244755
0.00015574
-2.73983e-05
0.433992
-0.26751
-0.166482
-0.0922393
0.216022
0.195042
0.323688
-0.51873
0.349671
0.126894
-0.476566
0.230627
-0.325542
0.0949142
0.0267072
-0.183959
0.157252
0.208891
-0.345015
0.136124
0.504939
0.607218
-0.20034
-0.406878
0.0876762
-0.0822209
-0.00545534
-0.360223
-0.205951
0.566174
0.144194
-0.452251
0.308057
-0.00234039
-0.00836687
0.0107073
0.467202
-0.206843
0.659886
-0.239713
-0.420174
-0.0862012
-0.488621
-0.00963923
0.00107436
-0.402128
0.0904258
0.487789
-0.375826
0.0930483
0.232869
0.630127
-0.185244
-0.444883
-0.327482
0.386702
-0.0592204
0.356186
0.202465
-0.558651
0.132499
0.0208813
0.0518815
-0.429171
-0.486595
0.546621
-0.0600266
-0.25266
0.354559
0.0911413
0.558067
-0.321695
0.411192
-0.350694
-0.00284491
-0.101562
0.104407
0.00662589
0.000167057
-0.00679295
0.181308
0.0204238
0.218411
0.336772
0.00269095
-0.00249142
-0.000199537
0.00134393
-0.0042784
0.00220104
-0.00694257
-0.17167
0.00754336
0.164126
0.00714152
-0.00687744
0.343781
-0.488118
0.144337
0.359793
0.17602
-0.535813
0.429661
-0.127278
-0.302383
-0.482775
-0.00381982
-0.504674
-0.0428357
0.54751
0.00251222
-0.261906
0.210884
-0.160959
-0.159337
-0.355182
0.514518
-0.207241
0.284281
-0.0770396
0.559978
-0.214412
0.293849
-0.00388533
0.00114684
0.000401228
-0.00496176
-0.181728
-0.388139
-0.379351
-0.22924
0.236239
0.267289
0.371792
-0.221581
-0.341847
0.563427
-0.50661
-0.00334144
0.000928713
0.00241273
-0.0045155
0.0997216
-0.0952061
-0.082021
0.286585
-0.204564
-0.157198
0.495683
-0.141603
-0.348814
0.567225
0.00417529
0.00142247
-0.00559776
-0.116783
-0.253773
0.370557
-0.249796
-0.226947
-0.006418
-0.0761652
0.300483
-0.224318
0.233878
-0.228526
0.279581
-0.402808
0.123227
-0.00243707
0.0344165
-0.0319794
-0.347194
0.41917
-0.071976
0.0958731
0.30127
0.508082
-0.177613
0.000599268
-0.00194084
0.00134157
0.368693
0.14965
-0.146007
0.00225274
0.00609897
0.00146708
-0.0999896
0.0995564
0.00043316
0.0329269
-0.0443593
0.0114323
-0.0682286
-0.00579365
0.00108259
-0.503313
0.581938
-0.0786248
-0.127801
-0.0106042
0.35814
0.326327
-0.488229
0.128006
-0.00318276
-0.000906622
0.00408938
-0.520971
0.0905557
-0.0383456
0.269657
0.384646
0.00114252
-0.000543256
-0.00585563
0.00496787
-0.0642258
0.329395
-0.0147663
-0.00914516
0.0239115
-0.000186378
0.348345
-0.221111
-0.110775
-0.251001
0.361776
-0.2296
0.642782
-0.209375
0.571091
-0.361716
-0.00758516
0.00183519
-0.00866142
0.00682623
0.183136
-0.579696
0.39656
-0.08208
-0.00200933
0.0840894
0.202065
-0.272529
0.00126582
-0.000123295
-0.0316338
0.169655
-0.138021
-0.466326
0.634182
-0.167856
0.362241
-0.521133
0.158892
-0.212475
0.55061
-0.338135
0.506506
0.200114
0.184513
-0.422156
-0.191395
0.208959
0.349108
-0.083149
-0.0116783
0.199925
-0.173218
-0.445681
0.125225
0.320456
0.0219032
0.0599102
0.373352
0.286535
0.402986
-0.0616242
-0.341362
-0.458317
0.510199
0.425751
-0.10787
-0.00185083
-0.00133193
0.00403488
-0.326595
-0.278242
0.604837
0.0805879
-0.615883
-0.1101
-0.170881
0.0871833
-0.379534
-0.00242913
-0.00324794
6.80556e-05
-0.595025
0.35234
0.242685
0.2971
0.13256
0.120766
0.0417756
-0.162541
0.00679083
-0.000726738
0.17804
-0.456503
0.141334
0.315168
0.316106
0.109646
-0.196721
-0.327009
0.316947
0.185407
-0.0865955
-0.00693332
-0.0930563
0.00449307
-0.126071
0.0161015
-0.0162224
-0.193574
-0.00535303
0.00508426
0.000268769
0.654568
-0.158429
-0.0917874
-0.215075
0.00434659
-0.0231425
0.0187959
-0.0928695
-0.193822
0.113583
-0.409591
0.296008
-0.00100446
-0.00441296
0.065378
-0.0804291
0.0150511
0.00377681
0.477912
0.00208428
-0.0521171
0.154847
-0.0340812
0.0585647
-0.315511
0.256946
0.527675
-0.167883
-0.550209
0.201472
0.348737
0.153867
0.319488
0.269522
-0.47733
0.207808
0.00374576
0.00977652
-0.00812927
-0.129222
0.137351
0.00908626
-0.00725107
-0.00269202
0.00735957
-0.00466755
-0.00314485
0.00900027
-0.00205724
-5.57178e-05
-0.0781089
-0.00240393
0.0805129
0.0924699
-0.00188135
0.640267
-0.211297
-0.42897
-0.406762
0.282931
0.123831
-0.45669
0.589688
0.00682738
0.00225765
-0.00908503
0.00368105
-0.00327982
0.150611
0.376249
-0.52686
0.00827845
-0.316958
0.516173
-0.199215
0.184945
-0.581068
0.396123
-0.435626
0.294131
-0.385618
0.539526
-0.153908
0.000691426
0.0195424
0.135895
0.21245
-0.204343
0.303143
-0.414239
0.111096
0.150705
-0.0308159
-0.00198716
-0.00767953
-0.0566153
0.283671
-0.227055
-0.169185
-0.0230559
0.192241
0.458962
-0.34538
0.212263
0.366446
-0.320634
0.298901
0.00326731
-0.00237895
-0.000888364
0.357318
0.170358
-0.134922
-0.32158
0.492301
-0.13006
-0.103026
0.00787136
0.00388444
0.00205676
-0.000327833
0.333527
0.301103
-0.00230018
0.0942268
-0.0906922
-0.00352537
-0.00709936
0.00956855
-0.00274117
0.0114962
-0.00714962
-0.289962
0.391196
0.0929307
-0.447842
0.354911
-0.105396
-0.508688
-0.00204032
0.000898542
0.332126
0.15636
-0.231081
0.0344913
0.19659
0.365178
-0.557132
-0.597206
0.387831
0.0471968
0.00732289
0.293041
0.106283
-0.399324
0.594525
-0.433491
-0.161034
-0.341502
-0.0999327
0.210163
0.0722671
0.636478
-0.369189
0.00373613
-0.00642815
-0.526883
0.454187
0.072696
0.172181
-0.443048
0.270867
-0.0934848
0.305168
0.0878958
-0.393064
-0.00135527
-0.000585563
-0.143316
0.469635
-0.326319
-0.0262475
0.310672
0.123319
0.135407
0.275683
-0.411091
-0.299684
-0.610492
0.38797
0.311354
0.131905
-0.443259
0.466406
-0.373475
0.0210059
0.563304
0.00823113
-0.00278258
-0.203841
-0.0601927
0.264034
-0.115307
0.0789935
0.0363133
-0.338007
-0.590166
0.168119
0.422047
0.385958
-0.545634
0.159677
0.550636
0.580053
-0.310532
-0.404004
0.114042
-0.00818914
0.00299916
0.00518998
-0.507789
0.162833
0.344956
-0.00987814
-0.172104
0.499781
-0.343482
-0.00282307
-0.00583706
0.00866013
0.0229035
-0.217138
-0.0131817
0.23032
0.214325
-0.225769
0.0114435
0.0501842
-0.0580167
-0.358218
-0.279073
0.277506
0.358971
0.00896758
-0.142241
0.133273
0.00842139
-0.0865303
-0.0952907
0.349622
-0.254332
-0.00241897
0.00776397
-0.00534499
0.209886
0.193087
-0.402973
-0.054652
-0.00550601
0.00781753
-0.0225839
-0.594803
0.0105751
0.584228
0.341311
0.0304796
-0.37179
0.13795
-0.0119039
-0.126046
0.189464
-0.183585
0.255286
-0.297958
0.341535
-0.476089
0.134554
-0.0677595
0.298731
-0.230971
0.419924
-0.164638
-0.234154
-0.0237827
0.361676
-0.15179
0.22207
-0.38268
0.16061
-0.00114469
-0.129908
0.131053
-0.470662
0.220866
0.0182774
-0.00527113
-0.00291801
-0.153793
0.212903
-0.0750464
-0.137857
0.100134
-0.176303
0.0761688
0.0201039
-0.0260915
-0.159816
0.381885
0.359817
0.202539
-0.562355
-0.260456
0.00214158
-0.364828
-0.108527
-0.160617
0.517935
0.00404275
0.324382
-0.467698
0.000638778
-0.00690747
-0.350768
0.521411
-0.170643
-0.336924
0.00442898
0.0832473
-0.193503
-0.472363
0.35127
0.121093
0.199166
-0.180756
0.352989
-0.258121
-0.437132
0.542317
-0.105185
0.00424223
-0.00303427
-0.420543
0.322931
0.0976116
-0.616231
0.364153
0.252079
-0.138997
0.416761
-0.277764
-0.00250746
0.0026632
0.457349
-0.2009
-0.0483027
0.389614
-0.0881181
0.261492
-0.19509
0.00395063
-0.0063696
0.421994
-0.249812
-0.185501
0.541096
-0.355595
0.223408
-0.21966
-0.114522
0.474338
0.10042
0.0154988
-0.0620233
0.00156663
0.0604567
0.0303774
0.342349
0.358523
-0.700872
-0.458449
-0.040616
-0.00464899
0.00426908
0.000379909
-0.00192215
-0.268081
0.0122786
0.255803
0.479839
-0.283824
-0.0694697
0.338908
-0.297295
0.417114
-0.119819
0.113036
-0.13901
0.135655
0.00335479
0.0173957
-0.000908332
-0.0164873
-0.10959
-0.000955441
0.00878603
-0.00783059
0.0545142
-0.00166611
-0.052848
0.112638
-0.508319
0.395681
-0.0554186
-0.00127856
-0.00457707
0.00638489
-0.00734034
-0.462847
0.338123
0.124724
0.347634
-0.656201
0.323415
0.135547
0.244104
0.200076
-0.44418
-0.00661265
-0.00334226
-0.0329553
0.444147
-0.290577
0.015716
0.00167966
-0.261585
0.303257
0.000735101
0.0215698
-0.0194157
0.250154
-0.230739
0.00833639
-0.0041611
-0.00091919
-0.0037298
0.0176731
-0.242295
0.224622
-0.00519171
-0.000161317
0.0350112
-0.207779
0.549501
-0.341722
0.0876903
-0.101144
0.0134538
-0.130829
0.170298
0.345623
-0.117956
0.421099
0.00271395
-0.00307094
0.138412
-0.409006
-0.0993283
-0.254654
0.353982
0.638995
-0.37001
-0.268985
-0.156221
0.514982
-0.35876
0.0223931
9.06506e-05
-0.544552
0.194097
0.350455
-0.184153
0.156151
0.0280022
0.196864
0.38947
0.405272
-0.161167
0.150185
0.323442
-0.473628
-0.377778
0.237906
0.0750153
-0.00963722
-0.158619
0.500969
-0.330149
0.539109
0.335155
-0.170802
0.299564
0.144492
0.401129
-0.0959606
-0.0661023
0.00663638
0.131703
0.364853
-0.521075
0.0025231
0.000744216
0.217157
0.377369
-0.0691273
0.00710401
-0.426203
-0.190029
-0.0248898
0.025093
-0.000203264
0.0688203
-0.372592
0.303772
0.0809278
-0.0793612
-0.313188
0.404586
-0.0913976
-0.47844
0.0542861
0.156597
0.233659
0.171612
0.0869487
0.239027
0.357881
0.332603
-0.545078
0.00553534
-0.00835841
-0.172454
0.447795
-0.275341
-0.137686
-0.338403
-0.373528
-0.176681
-0.471055
0.14446
-0.0134717
0.155526
-0.142055
0.00747249
-0.00981288
-0.424016
0.251562
-0.0872958
0.317923
-0.607592
0.19206
0.415532
-0.123692
0.430768
0.321924
0.186158
-0.0169339
0.235267
-0.218333
-0.0899464
-0.39184
0.0511872
0.00332696
-0.402157
0.299552
0.102605
0.475096
-0.14297
0.205459
0.335094
0.0119877
0.000187749
-0.00462226
0.0088266
0.329849
0.201009
-0.530859
0.510456
-0.397818
0.00125429
0.000205792
-0.00412818
-0.0591612
0.00732421
0.272305
-0.211838
-0.110573
0.310687
-0.438686
0.0914924
-0.0365972
-0.231484
0.0307848
0.00682895
-0.0376137
0.00129638
-0.114874
-0.162176
0.0633868
-0.0854723
0.213157
0.00116812
0.384113
-0.189072
-0.0039816
0.0606444
0.203465
-0.057812
-0.145653
-0.0156516
-0.000570726
-0.102626
-0.507865
-0.265568
0.324133
0.191181
0.288659
-0.448149
-0.0565251
-0.282873
-0.12113
0.142361
0.265314
-0.0293917
-0.235922
-0.190249
0.46404
0.0954985
-0.0979024
0.02416
0.503883
-0.528043
-0.42242
-0.167745
-0.298987
0.26239
-0.26487
0.258522
0.00634736
0.173947