/*--------------------------------*- C++ -*----------------------------------*\
| =========                 |                                                 |
| \\      /  F ield         | OpenFOAM: The Open Source CFD Toolbox           |
|  \\    /   O peration     | Version:  v2012                                 |
|   \\  /    A nd           | Website:  www.openfoam.com                      |
|    \\/     M anipulation  |                                                 |
\*---------------------------------------------------------------------------*/
FoamFile
{
    version     2.0;
    format      ascii;
    class       volVectorField;
    location    "350";
    object      U_0;
}
// * * * * * * * * * * * * * * * * * * * * * * * * * * * * * * * * * * * * * //

dimensions      [0 1 -1 0 0 0 0];


internalField   nonuniform List<vector> 
13726
(
(1.0218 0.00467209 6.3239e-22)
(-0.152977 -0.00348247 0)
(1.07586 0.0182679 4.3498e-20)
(1.0229 0.0173612 -3.26257e-21)
(1.19688 0.0589936 1.82297e-20)
(1.0208 0.00539898 -6.11272e-22)
(1.01949 0.0122182 0)
(1.01933 0.0133067 1.77337e-21)
(1.19321 0.0647776 1.40945e-19)
(1.13732 0.0488142 1.80268e-20)
(1.19411 0.0612053 -9.0371e-20)
(1.01035 0.00138856 1.65374e-22)
(0.996046 4.46963e-05 0)
(-0.0713681 -0.0137132 0)
(1.02286 0.0168395 4.59302e-21)
(0.999938 0.000434108 2.60963e-21)
(1.16489 0.0870743 9.18762e-20)
(1.04121 0.0364085 -1.0558e-20)
(-0.0264261 0.0260522 0)
(1.14783 0.10641 3.68911e-20)
(0.661966 0.0891181 0)
(0.997556 0.000243874 1.78442e-22)
(1.03453 0.0248321 0)
(1.07794 0.0179301 0)
(0.997116 0.000216347 0)
(1.00333 0.00074813 0)
(1.08149 0.0559234 4.48008e-20)
(1.00331 0.000736936 0)
(0.99736 0.000199973 4.92092e-23)
(-0.217237 -0.014673 -6.31859e-20)
(0.449357 0.068905 0)
(1.01107 0.00156909 0)
(-0.0498252 0.0262539 -1.0238e-20)
(1.04046 0.0517341 -4.07097e-21)
(1.0027 0.00539232 8.75561e-22)
(-0.035589 0.0136291 3.62283e-20)
(1.09804 0.039193 3.05023e-20)
(-0.152518 -0.00167013 0)
(1.02552 0.0206489 -5.04398e-21)
(1.03885 0.0299773 6.01409e-22)
(1.05769 0.111098 0)
(1.00565 0.0043717 0)
(1.0371 -0.000254029 0)
(1.02226 0.0167012 7.77857e-21)
(1.02283 0.00403833 -4.7859e-22)
(1.0514 0.0252788 2.53028e-20)
(0.984977 0.00107471 -3.39344e-22)
(1.00691 0.00109025 -1.27113e-23)
(1.13417 0.0750574 -4.59863e-20)
(0.995587 4.3326e-05 5.91769e-22)
(0.211365 -0.0219011 3.10746e-21)
(1.00744 0.00112354 2.77497e-22)
(1.02079 0.0019136 0)
(1.04012 0.0358058 -9.21675e-21)
(1.0859 0.0195668 -5.20718e-20)
(1.02795 0.000528246 1.47716e-20)
(1.02091 0.00187321 -1.05933e-22)
(1.02091 0.00197427 1.13746e-22)
(1.11679 0.04619 4.67993e-20)
(1.07623 0.0121658 4.8718e-20)
(0.473489 0.0271971 6.47599e-21)
(1.02192 0.016532 -7.62773e-21)
(-0.123335 -0.0226395 -7.76652e-20)
(0.99759 0.000244237 -1.41184e-22)
(-0.164159 -0.0072307 0)
(1.00798 0.00114236 0)
(0.70002 0.0879812 0)
(-0.0991919 0.0146621 -1.36086e-20)
(1.00858 0.00121125 2.112e-22)
(1.18776 0.0721984 -2.31495e-20)
(0.988991 0.00130058 0)
(1.019 0.0131104 0)
(1.00705 0.00110251 -2.39253e-21)
(1.06687 -0.00117878 -2.09157e-22)
(-0.0293489 0.0269725 -2.1381e-20)
(0.274203 0.0172398 1.04777e-21)
(1.18987 0.0698294 0)
(0.316469 0.0558344 0)
(-0.0419707 0.0258943 0)
(1.1042 0.0985424 -5.6494e-20)
(1.06799 0.10915 0)
(1.12679 0.0757721 -5.29382e-20)
(1.11106 0.0975947 -3.52045e-20)
(0.999802 0.000385615 3.55394e-21)
(1.02536 0.0205142 3.35477e-21)
(-0.104039 -0.0321349 -3.36475e-20)
(1.09772 0.104464 0)
(1.064 0.018836 2.21837e-20)
(0.995192 -1.96924e-06 4.61409e-22)
(0.595523 0.0887268 4.63955e-20)
(1.03657 0.00214789 -8.23577e-21)
(1.19777 0.0581765 -1.92532e-20)
(1.05176 0.0247522 -1.4425e-20)
(1.0837 0.0209705 2.21666e-20)
(-0.0858284 -0.0247847 0)
(-0.0638878 0.0242051 1.18156e-20)
(1.072 0.0742621 2.12772e-20)
(1.01035 0.00138635 -1.70272e-22)
(1.02973 0.0217709 0)
(0.699716 -0.0218741 -7.75472e-22)
(1.05891 0.0248012 4.75134e-21)
(1.13732 0.0501648 3.22605e-20)
(1.02504 0.00376773 3.50538e-22)
(1.00395 0.00219045 -3.19652e-21)
(1.02529 0.00331203 -2.43917e-22)
(1.16194 0.0872504 0)
(1.11387 0.0966917 0)
(1.01313 0.00579779 0)
(1.03977 0.0304337 -4.77786e-21)
(1.07433 0.0745435 -1.34647e-20)
(1.15202 0.061858 -2.56357e-20)
(1.00376 0.0020289 0)
(0.140191 0.0422545 6.89473e-20)
(0.48083 0.0673069 8.34431e-23)
(0.355103 0.0464807 0)
(1.02726 0.0222898 -4.42967e-21)
(0.984743 0.00737926 0)
(0.235605 0.0448043 3.98751e-20)
(1.02525 0.00322819 0)
(1.07546 0.0162726 -3.40591e-20)
(-0.201235 -0.015491 6.69844e-20)
(1.007 0.000933024 -2.32509e-21)
(1.07383 0.0203532 -1.49397e-20)
(-0.0349537 0.0244754 0)
(0.125211 0.0444971 1.62861e-20)
(-0.160862 0.000122709 0)
(1.02978 0.0221672 -2.9442e-21)
(1.02094 0.00184002 0)
(1.00382 0.00211326 -1.33675e-21)
(1.02321 0.0201826 1.30757e-21)
(0.455179 0.0276889 0)
(0.766964 0.0984801 -4.50791e-20)
(1.02305 0.0189165 -9.93548e-22)
(1.13165 0.0748838 4.47116e-20)
(-0.0843559 0.014337 -5.36792e-20)
(1.19918 0.0545939 3.47273e-20)
(-0.160395 -0.00558571 0)
(0.853256 0.00349892 -1.17249e-23)
(0.691607 -0.0203132 7.87649e-22)
(0.543346 0.00463967 -5.25763e-21)
(1.11776 0.0893973 0)
(-0.0744207 0.0108618 1.94723e-20)
(1.01389 0.00804386 0)
(1.00573 0.00100805 8.61303e-23)
(1.02149 0.0050643 8.71753e-22)
(1.09994 0.0370651 -1.63021e-20)
(0.633764 0.0897979 -2.34185e-20)
(1.09594 0.00211541 0)
(1.0658 0.0193401 -2.69079e-20)
(-0.0389207 0.0250692 2.44433e-20)
(1.03024 0.0230147 -1.50486e-21)
(0.998223 0.000203178 -2.14222e-21)
(1.12804 0.0776274 1.0017e-20)
(1.09326 0.00264029 0)
(1.00792 0.00117977 7.27881e-23)
(1.06218 0.0493575 -1.28707e-20)
(1.10639 0.0200732 2.20383e-20)
(1.00058 0.0306694 -3.0747e-22)
(-0.0880427 -0.0206162 0)
(0.996119 0.000111416 3.33213e-22)
(0.995484 2.04952e-05 -5.72611e-22)
(0.995749 2.52397e-05 0)
(-0.118429 -0.0232666 6.91305e-20)
(-0.040508 -0.00746732 1.55775e-20)
(1.00549 0.000938022 0)
(1.02517 0.00298724 4.19276e-22)
(0.547009 0.00527041 0)
(1.01954 0.0118871 0)
(1.05761 0.0224955 0)
(0.996396 9.36605e-05 8.93882e-22)
(1.02363 0.00260908 -6.22606e-23)
(1.06111 0.0480616 1.25218e-20)
(0.988573 0.0322617 4.61225e-21)
(1.08227 0.0235693 -2.35297e-20)
(0.267916 0.0573139 -2.14225e-21)
(1.02089 0.0378472 0)
(1.00509 0.00106191 -1.75908e-22)
(0.514326 0.0725046 0)
(0.160485 0.047949 8.01671e-21)
(0.998736 0.000277268 2.04371e-21)
(0.0919379 0.0392664 5.7836e-20)
(1.05366 0.00464651 -1.03437e-20)
(-0.15416 0.00301822 2.05816e-20)
(-0.0459873 0.0297203 0)
(1.00543 0.0010373 9.91613e-24)
(1.01345 0.00756501 -1.36637e-21)
(0.996762 0.000137565 0)
(1.05622 0.0214213 -1.91692e-20)
(1.03367 0.0247544 -1.4631e-20)
(1.1086 0.0215316 -7.03729e-20)
(0.561917 0.0738953 1.32624e-21)
(1.00844 0.00353327 0)
(-0.216551 -0.0138551 8.48154e-20)
(-0.21133 -0.0129889 0)
(1.01861 0.0125635 -4.96868e-21)
(1.00643 0.00102053 -2.0784e-23)
(1.02653 0.021989 0)
(0.792441 0.11229 0)
(1.00389 0.0027147 2.05349e-22)
(1.02606 0.000923418 -6.3543e-21)
(-0.132282 -0.0104298 0)
(0.862983 0.00471837 0)
(-0.188657 -0.00909907 6.26561e-20)
(1.04076 0.0502811 4.76783e-21)
(0.999896 0.000410244 0)
(1.01519 0.00947532 0)
(1.05195 0.0263463 0)
(-0.118085 0.018476 1.85952e-20)
(1.08087 0.0100161 1.86359e-20)
(1.12811 0.0822427 1.0588e-20)
(1.19995 0.0547261 1.87394e-20)
(-0.0855337 -0.0259877 0)
(-0.194027 -0.011126 -6.32122e-20)
(0.996917 0.000195319 -2.1606e-23)
(0.299347 0.0606544 -6.61332e-21)
(-0.0379925 0.0263348 5.2925e-20)
(1.07833 0.0197485 -9.424e-21)
(1.03697 0.000262933 -1.017e-20)
(1.04472 0.038592 5.82743e-21)
(0.282563 0.067125 0)
(1.0923 0.0150709 5.11954e-20)
(1.14882 0.0194563 0)
(1.01306 0.021382 -6.7177e-23)
(-0.0324147 0.016528 -6.86643e-20)
(1.01181 0.00520626 -3.77647e-21)
(0.759875 0.108538 0)
(-0.0816638 -0.133734 -6.28368e-20)
(0.255982 0.0594322 -1.80233e-20)
(0.562145 0.0992911 2.64664e-20)
(1.05481 0.0194903 1.80054e-20)
(-0.0799317 -0.00970638 -6.43631e-20)
(-0.132469 -0.0117655 0)
(0.0730488 0.0372698 -6.45832e-20)
(0.373503 0.0650146 -4.04518e-21)
(1.06718 0.00155836 0)
(1.0478 0.0021513 -1.33646e-20)
(-0.0543155 -0.0296719 -6.29222e-20)
(0.282527 0.0482365 3.64364e-20)
(0.955967 -0.00238376 2.4999e-22)
(0.288683 0.0747326 6.46156e-20)
(1.00381 0.0021509 -1.81431e-21)
(1.03916 0.0282446 -1.93537e-20)
(1.01334 0.00588699 0)
(-0.109071 0.00879748 -3.15357e-20)
(0.997042 0.0205943 0)
(0.716798 0.0956579 -2.04275e-20)
(1.11971 0.0429754 -5.14805e-20)
(1.07179 0.0594876 7.69354e-21)
(0.994726 2.10553e-05 3.75293e-23)
(1.14034 0.0960302 -5.35152e-20)
(0.126535 0.0405203 -9.80325e-20)
(1.06772 -0.0001529 -1.40277e-20)
(0.49854 0.0933153 3.13683e-20)
(1.07736 0.0588378 9.74488e-21)
(1.0812 0.0873805 -1.42838e-20)
(1.02292 0.0629344 0)
(1.07384 0.0225886 1.6558e-20)
(0.124313 0.0394257 4.45541e-20)
(-0.0367918 -0.00966484 7.2579e-21)
(1.07808 0.05697 -1.02951e-21)
(1.02527 0.0106157 3.68234e-22)
(-0.0584946 -0.0260716 5.14733e-20)
(1.09882 0.0695366 3.83443e-20)
(0.994727 -6.78725e-06 -2.77115e-22)
(0.212062 -0.0172045 -4.2511e-21)
(0.279436 0.0581787 -3.23029e-20)
(1.00086 0.000473648 -4.32149e-22)
(1.04837 0.0031689 4.2585e-20)
(0.996864 0.000180719 -3.42356e-22)
(1.05563 0.0779246 3.21013e-21)
(1.00646 -0.00279608 0)
(1.07492 0.0581635 0)
(0.116316 0.0350821 -5.07439e-20)
(1.03973 0.048921 0)
(-0.072164 -0.00876033 1.23626e-20)
(0.526116 0.034305 -9.68318e-21)
(-0.029235 0.023937 -4.74372e-20)
(0.9456 0.00530635 0)
(1.08006 0.0153997 5.66038e-20)
(1.01189 0.00162899 6.559e-24)
(0.598238 0.0141793 0)
(1.08382 0.0224922 4.02572e-20)
(-0.0811502 -0.073031 0)
(1.0673 0.060575 -8.01095e-21)
(-0.111819 0.0135324 0)
(1.00053 0.000438592 -2.38327e-21)
(-0.130715 0.00040378 -3.85894e-20)
(1.11159 0.110416 6.34796e-22)
(1.08055 0.0572773 -4.15029e-20)
(1.00752 0.00110286 0)
(-0.162757 -0.00127936 0)
(1.06933 0.0613974 3.85176e-21)
(0.999422 0.000444957 0)
(-0.0467311 -0.0114635 8.34574e-21)
(-0.118531 0.019514 -7.00606e-20)
(1.09285 0.00896998 2.52542e-22)
(1.02743 0.0372138 0)
(1.01533 0.00979798 4.14436e-21)
(0.730061 0.0948829 1.04848e-19)
(0.997683 0.000222903 -2.82401e-24)
(1.15478 0.0890313 0)
(-0.00234056 0.0234922 -1.6474e-20)
(1.15439 0.0722976 0)
(1.03791 0.00919989 0)
(1.02077 0.00180388 -1.68119e-22)
(-0.0191784 0.055744 -2.25846e-20)
(0.884935 0.0909224 -2.20641e-21)
(0.0978024 0.0418916 6.08398e-20)
(-0.0146627 0.0293678 1.33704e-20)
(1.12202 0.0208275 0)
(0.632354 0.0856626 9.21082e-20)
(1.14637 0.107581 0)
(0.427135 0.0676984 0)
(-0.20194 -0.0155556 0)
(1.02041 0.0150718 -1.74403e-21)
(0.983214 -0.00398627 0)
(1.01329 0.0055964 0)
(-0.108917 -0.029173 2.78956e-20)
(0.337045 0.0814517 -3.25938e-20)
(-0.110629 0.0142922 0)
(0.782353 0.0964354 1.98815e-22)
(1.02632 0.0374638 0)
(1.05498 0.00434376 1.0636e-20)
(1.02279 0.00385732 0)
(1.02336 0.00509075 -1.09593e-22)
(1.07428 0.0597404 -9.5279e-21)
(1.03698 0.00957739 0)
(0.602237 0.014966 -3.63499e-21)
(1.04114 0.00112879 0)
(-0.115899 -0.0370991 2.0487e-22)
(1.02483 0.00404456 -3.35923e-22)
(-0.144074 -0.00445736 -5.95205e-20)
(0.99703 2.95676e-05 1.18543e-21)
(1.0666 0.0614959 0)
(1.17005 0.0611411 4.37007e-20)
(1.04161 0.00312515 1.17761e-20)
(0.99676 -1.00481e-05 0)
(1.11507 0.0420872 0)
(1.01919 0.0105055 -1.91765e-21)
(1.16501 0.0520256 -4.99696e-20)
(1.08439 0.109675 -4.13052e-20)
(-0.1071 0.0135702 8.38774e-21)
(0.29214 0.064388 1.74838e-20)
(-0.130362 0.00244996 0)
(-0.0197274 0.0292329 -3.88183e-20)
(1.10746 0.0995383 0)
(1.0062 0.000676128 0)
(1.05403 0.0762069 5.18781e-21)
(1.0464 0.0961 0)
(1.02715 0.0154259 3.33924e-21)
(-0.0990704 0.0234604 4.54071e-20)
(-0.103189 0.0146167 -7.39849e-21)
(-0.0598503 0.0201616 1.2602e-22)
(1.01584 0.00278419 -9.15225e-24)
(1.06465 0.0456561 -6.88104e-21)
(1.05612 0.0207768 2.7906e-20)
(1.01932 0.0135758 -5.35535e-21)
(0.855453 0.0895219 1.94417e-21)
(1.09912 0.0307166 0)
(1.09304 0.0181028 -3.63773e-20)
(1.0399 0.0284426 2.05969e-20)
(1.14537 0.0261976 0)
(0.676477 -0.0176303 -7.10074e-22)
(1.01962 0.01424 5.69019e-21)
(1.10028 0.0654402 5.3541e-20)
(0.0812959 0.0398661 -8.6906e-20)
(0.152571 0.0387835 4.49126e-20)
(1.03299 0.0234506 -6.29556e-21)
(1.02014 0.011716 2.35677e-21)
(1.02118 0.0138774 0)
(1.02356 0.0616198 1.10251e-21)
(0.995853 2.63113e-05 0)
(1.01528 0.00270655 1.014e-23)
(1.04412 0.0398113 4.38516e-21)
(1.16672 0.0899159 1.81029e-20)
(1.02031 0.0117329 0)
(0.996721 0.000161704 2.45861e-22)
(0.641168 0.0715333 6.11439e-20)
(1.06377 0.0748223 1.53368e-20)
(1.10217 0.0999528 2.37096e-20)
(1.01224 0.00540393 2.00924e-21)
(0.995491 -1.86579e-06 2.92785e-22)
(1.02945 0.0212863 0)
(-0.0636318 -0.0131864 0)
(0.607893 0.0723 -2.67788e-20)
(0.231566 0.0542994 3.35174e-20)
(0.133053 0.0323704 -1.17075e-20)
(1.14944 0.0228293 1.32615e-20)
(1.02439 0.0192068 5.26349e-21)
(1.07927 0.0431707 0)
(1.01507 0.00914125 1.96702e-21)
(1.0414 0.00262706 -2.01077e-20)
(1.05893 0.0253827 0)
(1.0193 0.0133743 -5.57529e-22)
(1.00333 0.000946773 1.65679e-21)
(1.08694 0.0413544 2.96028e-20)
(0.190153 0.0567061 -2.64169e-21)
(-0.0420997 -0.012433 0)
(1.08863 0.0745149 -2.80809e-20)
(1.03659 0.000102962 7.83214e-21)
(1.01507 0.00907328 0)
(1.01861 0.00169024 -1.00107e-20)
(1.06752 0.0343673 0)
(1.16278 0.0474025 -1.65154e-20)
(1.07723 0.0114882 4.55201e-20)
(1.14829 0.0230345 -2.24688e-20)
(1.0844 0.0442366 -2.98252e-20)
(1.03102 0.021683 1.64481e-20)
(0.158928 0.0429076 -2.70773e-20)
(0.888017 -0.00463462 1.1903e-22)
(-0.0872886 -0.0186788 -2.02895e-20)
(1.07217 0.0387809 9.64695e-21)
(0.749315 0.0945794 6.78913e-22)
(0.649674 0.0880703 -8.46721e-20)
(1.20776 0.0692753 0)
(1.05082 0.0234739 0)
(0.276652 0.0818551 3.65184e-20)
(0.551307 -0.0232319 1.7338e-20)
(-0.147446 0.00130985 -2.08555e-20)
(0.245693 -0.0186187 0)
(0.593983 0.0891427 5.63229e-20)
(0.996762 -0.00258134 0)
(0.997216 0.00021083 2.07467e-23)
(1.15385 0.0784698 0)
(-0.0925605 -0.0602816 3.21042e-20)
(1.01794 0.00390696 2.88582e-22)
(-0.0961922 -0.0680741 0)
(1.02787 0.0172917 3.71062e-21)
(1.05211 0.00985853 -8.17335e-21)
(1.16773 0.0484646 0)
(0.199878 0.0515257 0)
(0.115784 0.0444568 7.81844e-20)
(-0.0757874 0.0176386 -2.73407e-20)
(0.096781 0.0430589 -7.79265e-20)
(1.1094 0.0113634 0)
(1.01679 0.00221032 1.86003e-22)
(1.01993 0.0142162 1.54419e-21)
(1.01801 0.00386871 0)
(1.10021 0.0431307 1.75459e-20)
(1.15399 0.0785552 -2.00585e-20)
(1.02393 0.0189002 -1.16719e-21)
(-0.0821598 -0.0542109 3.17322e-20)
(1.01622 0.00213491 -1.89598e-22)
(0.831951 0.0855998 -2.40532e-22)
(1.02415 0.0375941 0)
(1.01828 0.0123017 1.05936e-21)
(-0.0983258 0.0117336 -4.02824e-20)
(0.996208 0.000113513 4.20349e-22)
(1.00786 0.00115822 -9.02666e-24)
(1.14373 0.105153 0)
(1.01749 0.00348057 5.9753e-22)
(-0.0954851 0.0212066 -4.95346e-20)
(0.28967 0.0289495 -1.32383e-22)
(1.00973 0.00138901 -1.09803e-22)
(-0.05431 -0.0132881 -3.01367e-20)
(1.00394 0.0009956 0)
(0.391301 0.0850973 3.3411e-20)
(-0.0638995 -0.0160812 0)
(1.00734 0.00286578 -1.4883e-21)
(1.09214 0.00341988 0)
(1.124 0.0423977 3.26886e-20)
(0.127529 0.0407313 1.74047e-20)
(1.09831 0.0661176 -5.91166e-20)
(0.0731028 -0.00205828 -1.34586e-20)
(1.14289 0.109483 6.31791e-22)
(1.11043 0.00834335 -7.26607e-22)
(0.444844 0.09178 0)
(-0.100772 -0.0379061 5.1873e-20)
(1.00244 0.000710363 -3.20855e-21)
(0.160991 0.0478022 -3.35377e-20)
(1.12443 0.0758983 4.31851e-20)
(1.0042 0.00214162 -1.88748e-21)
(1.01902 0.0101116 -1.07912e-21)
(1.01522 0.00952787 1.85152e-21)
(-0.0223569 0.0221915 -3.06244e-20)
(1.00423 0.000980484 1.66391e-22)
(0.980271 -0.00103936 1.82816e-22)
(1.18932 0.0811566 8.27427e-20)
(0.283038 0.012456 -7.12026e-22)
(1.04604 0.063908 -1.44591e-21)
(0.938177 0.00828482 0)
(1.01242 0.00209171 -2.85365e-22)
(1.00424 0.000817933 -2.50127e-23)
(-0.112849 0.0140755 0)
(0.999075 0.000417975 -4.14373e-23)
(1.01718 0.00340761 0)
(0.996199 8.43731e-05 1.8334e-22)
(1.01914 0.00981467 -1.1249e-21)
(-0.0101166 0.0199762 0)
(-0.0129981 0.0240484 0)
(1.07059 0.0391574 0)
(1.09566 0.103551 0)
(1.02278 0.00362265 0)
(0.0121213 0.0158074 6.15597e-20)
(-0.0709588 -0.00943143 -2.40564e-20)
(1.05654 0.0503478 0)
(1.0972 0.0329053 2.68781e-20)
(0.082979 0.0206711 -1.01759e-20)
(-0.111178 0.00930861 2.759e-20)
(1.03623 0.00257365 0)
(0.99543 -1.88927e-06 -5.30085e-22)
(0.905885 0.00889674 -2.12192e-23)
(1.02268 0.00368992 0)
(1.15144 0.0726547 6.01909e-20)
(1.04518 0.0411793 -6.02385e-21)
(1.02281 0.00519399 0)
(0.544687 0.0331485 0)
(-0.0591308 -0.0149 -2.37555e-20)
(1.01147 0.00202064 8.9606e-22)
(1.02742 0.016555 0)
(1.0657 0.00342317 3.42951e-20)
(-0.114426 -0.0315377 -3.00418e-20)
(1.00717 0.00282804 0)
(1.0639 0.0769401 0)
(1.00434 0.000811732 2.45995e-23)
(0.791552 0.104808 4.37299e-21)
(1.14385 0.0959918 9.31597e-20)
(1.03913 0.0269869 0)
(1.05478 0.0515951 9.56234e-21)
(1.08034 0.0555562 -3.01812e-20)
(1.0307 0.0218276 -1.24959e-20)
(1.13103 0.0827739 0)
(-0.091363 -0.0467414 3.14449e-20)
(0.97055 -0.00345846 -6.79776e-23)
(1.1188 0.0925117 -4.34488e-20)
(1.17251 0.0583515 -4.30308e-20)
(0.0395512 0.0360532 1.55034e-21)
(1.09717 0.0999519 1.13254e-20)
(0.997871 0.00028567 0)
(1.17826 0.0816033 -7.01312e-20)
(1.15147 0.0634236 6.2313e-20)
(1.13955 0.0469479 -5.9992e-20)
(0.385428 0.0523711 0)
(1.06558 0.0052478 2.76864e-20)
(0.651809 0.0715535 8.71576e-22)
(1.02515 0.0139635 0)
(1.01956 0.00325764 0)
(0.306853 0.0089135 0)
(1.10073 0.0686286 0)
(1.09274 0.0121338 1.37067e-20)
(-0.105235 0.00699439 2.94497e-20)
(0.995541 -5.05955e-06 -5.65842e-22)
(1.0207 0.00170708 0)
(1.08631 0.0316838 -4.95658e-20)
(1.20461 0.055006 -6.41498e-20)
(-0.0943513 -0.0439451 0)
(1.12526 0.041605 0)
(1.01327 0.00391802 0)
(1.00247 0.00379136 -2.93635e-23)
(1.04061 0.00453469 1.04967e-20)
(1.03397 0.010033 0)
(0.896111 0.00719257 3.42281e-24)
(1.02011 0.0114457 0)
(0.25553 -0.0247948 4.12286e-21)
(1.06673 0.00307122 -5.28277e-20)
(1.0227 0.0202757 1.03493e-21)
(0.99662 0.000113891 4.11391e-24)
(-0.0423787 0.0341309 -2.85746e-20)
(0.859909 0.0877156 3.6746e-20)
(0.0715579 0.0097298 -4.28973e-20)
(0.710704 0.00744855 -1.58158e-21)
(1.02458 0.0144934 0)
(0.108178 0.0398605 0)
(1.05306 0.026545 -5.24165e-21)
(0.228351 0.0524708 0)
(1.01167 0.00321257 4.68595e-23)
(1.04467 0.0621583 -5.85922e-21)
(1.03229 0.0230536 -1.29003e-20)
(0.104873 0.0495651 0)
(1.14431 0.0545689 -5.08847e-20)
(0.523686 0.0795313 0)
(1.00545 0.00105656 -1.15595e-23)
(1.01085 0.00198475 3.05444e-25)
(0.335303 0.0863968 6.92973e-20)
(1.02999 0.00132873 9.7279e-21)
(-0.104097 0.0114619 0)
(1.02284 0.0210105 -1.40529e-21)
(1.10449 0.0371258 3.37118e-20)
(1.09915 0.0985436 2.79072e-20)
(1.02789 0.0369162 4.49304e-22)
(-0.0663656 0.0187422 3.15555e-20)
(-0.173687 -0.00216517 0)
(1.02012 0.0113994 0)
(1.01073 0.00544536 0)
(0.830235 0.00968181 0)
(1.03841 0.0085808 -9.34956e-21)
(-0.020956 0.0254877 0)
(0.935309 0.0094479 -7.67394e-23)
(1.00455 0.00100519 1.91617e-22)
(0.740403 0.0862137 0)
(1.02097 0.0138511 2.31277e-21)
(1.14978 0.0581742 0)
(1.01921 0.0102494 1.61168e-21)
(1.09266 0.0061532 0)
(-0.119884 0.0219669 1.94466e-20)
(1.03971 0.026886 0)
(0.55809 0.0823491 0)
(1.07058 0.0236357 -1.65857e-20)
(1.04227 0.0960156 0)
(0.0140439 -0.00570583 -3.38981e-20)
(1.04017 0.0474938 -4.87501e-21)
(1.03661 0.0021322 -7.90662e-21)
(1.02609 0.0209486 6.00027e-22)
(1.0172 0.011435 -3.5659e-21)
(0.999291 0.000292096 -2.3927e-21)
(0.0201892 0.047495 4.57769e-20)
(0.103654 0.0328673 -2.41083e-20)
(0.923997 0.01028 -3.8548e-21)
(1.05446 0.0164652 3.83296e-20)
(0.864751 0.00440791 3.77718e-22)
(0.379852 0.0493897 0)
(-0.0162039 0.0249403 -3.91211e-22)
(1.09842 0.0607594 -3.4522e-20)
(0.67139 0.0223272 7.39603e-21)
(-0.0861424 -0.0517308 3.80006e-22)
(1.0639 0.0471225 0)
(1.0626 0.0151808 6.47116e-21)
(1.00342 0.000899347 0)
(0.192602 0.0558702 3.49331e-21)
(1.07817 0.0414024 0)
(1.03638 0.000699142 0)
(1.02025 0.00321062 -8.29824e-24)
(0.521115 0.10017 5.90844e-20)
(0.139114 0.054107 0)
(1.15661 0.0751029 -7.04444e-20)
(1.01963 0.00300979 -5.35453e-21)
(1.11949 0.0228911 0)
(1.11496 0.0886912 0)
(1.003 0.000834638 0)
(1.00696 0.000521041 -1.4383e-21)
(-0.0482395 0.0304131 2.59164e-20)
(1.01994 0.00281396 0)
(-0.038733 0.029118 2.45578e-20)
(1.03556 0.0157632 0)
(-0.137566 0.00519539 5.86858e-20)
(1.09435 0.0719032 3.17496e-20)
(1.02292 0.00494805 1.9494e-21)
(-0.215369 -0.0143975 -4.32481e-20)
(-0.141472 -0.00457802 0)
(1.06661 0.00513476 -1.45311e-20)
(0.907892 0.00744223 -1.18087e-21)
(1.07714 0.0136548 -3.3804e-20)
(1.04141 0.0530659 -5.44397e-21)
(-0.103288 0.0129408 -1.49556e-20)
(1.13861 0.0935863 0)
(0.135052 0.0301035 1.44602e-20)
(1.0935 0.0152798 0)
(1.14104 0.105983 -1.50233e-20)
(-0.119451 0.021209 -1.03047e-20)
(1.10213 0.0398662 1.55419e-20)
(1.18355 0.0750682 3.95838e-20)
(1.10575 0.0580306 0)
(0.208397 0.0745655 3.81999e-20)
(0.999287 0.000436938 2.44281e-22)
(0.927151 0.00880823 1.73652e-21)
(1.02318 0.0189727 0)
(1.03895 0.000704409 -2.91406e-20)
(1.05655 0.0271847 2.09775e-20)
(0.705248 0.0844894 -5.28246e-22)
(0.99927 0.000430078 -9.83495e-24)
(1.04115 0.00421813 -1.16598e-20)
(1.01538 0.00987216 -2.36344e-21)
(0.797188 0.00661017 -8.38136e-23)
(0.916425 -0.00359918 -1.98592e-22)
(1.02454 0.00456545 0)
(1.00957 0.00190891 -2.03998e-25)
(1.0225 0.00593435 7.78098e-22)
(0.401316 0.0581366 -6.20293e-22)
(0.451592 0.0656634 0)
(1.0117 0.00493674 0)
(-0.0561699 0.0362939 1.0465e-20)
(1.139 0.10383 -1.41183e-20)
(0.170985 0.0548766 -2.11898e-22)
(0.214883 -0.00509966 1.38759e-21)
(1.18683 0.0723478 2.89367e-20)
(1.11041 0.0865342 2.84676e-20)
(1.00964 0.0128113 0)
(1.0043 0.00207662 0)
(1.03484 0.0159391 6.26078e-21)
(0.306138 0.0683715 0)
(1.05332 0.0505667 -1.01765e-20)
(1.02318 0.0184057 -1.11933e-21)
(1.02152 0.00316316 5.33061e-23)
(1.01702 0.0104584 -4.68748e-22)
(1.03471 0.00968583 0)
(1.01365 0.00174395 -5.19335e-22)
(1.0553 0.0276454 -1.12567e-20)
(1.06916 0.0330489 -2.41659e-20)
(0.617902 0.0702444 6.76384e-20)
(1.04501 0.0661187 1.56989e-20)
(1.00467 0.00113088 5.05883e-21)
(1.05281 0.0501256 0)
(1.0362 -2.1708e-05 0)
(0.999938 0.000371987 3.21476e-21)
(1.05769 0.0260693 0)
(1.06977 0.0217957 3.51839e-20)
(1.01871 0.00156446 1.44344e-20)
(0.229589 0.0521241 -3.64045e-20)
(1.01331 0.00173189 -1.7877e-22)
(1.09947 0.0629468 2.03144e-20)
(1.0232 0.00460686 0)
(1.02541 0.0153034 -1.74377e-22)
(1.00867 0.00379127 1.01713e-21)
(1.0254 0.0295361 3.35279e-22)
(0.994857 1.44241e-05 -7.24373e-23)
(1.16816 0.06959 -1.05585e-20)
(1.10875 0.0455362 -6.66144e-20)
(0.0471559 0.0529915 -5.66183e-20)
(1.01155 0.0056333 -2.34805e-21)
(-0.085306 0.0169489 0)
(1.04708 -5.95259e-05 -6.7446e-21)
(-0.026445 0.030034 2.40751e-20)
(-0.0493803 -0.00962646 2.67919e-20)
(1.07007 0.0781179 -1.99517e-20)
(1.0845 0.0338296 0)
(1.11006 0.0274923 0)
(1.02502 0.0144546 -6.20802e-21)
(1.01234 0.00578134 0)
(1.02792 0.0365794 -4.32033e-22)
(1.02444 0.00266638 -1.41007e-22)
(1.01193 0.00592858 2.7282e-21)
(0.186684 0.0486694 -3.65506e-20)
(0.298183 0.0592218 -6.45588e-20)
(1.18324 0.0835807 -2.00222e-20)
(-0.0394386 0.00634703 -2.5538e-20)
(0.995245 -2.70844e-05 -3.27943e-22)
(-0.200752 -0.0113299 0)
(1.01023 0.00197912 -1.7575e-25)
(0.997284 0.000209811 -2.04188e-22)
(1.00374 0.000914634 -5.59446e-22)
(1.08034 0.00837812 -1.268e-20)
(-0.20249 -0.0109184 -8.78098e-20)
(1.14286 0.0512138 -5.23002e-20)
(0.677213 0.0755928 -5.36459e-20)
(1.10871 0.0567394 -2.2633e-20)
(1.20779 0.0667538 0)
(0.185698 0.0477894 0)
(0.851223 0.00528828 -1.40849e-23)
(1.02247 0.0123851 0)
(1.04605 0.0653662 -1.62004e-20)
(1.08793 0.0305002 4.8714e-20)
(1.02805 0.0187531 6.9222e-21)
(1.04856 0.0227989 0)
(1.02421 0.00389082 4.05905e-22)
(-0.0207674 0.0222861 2.67734e-20)
(0.209441 0.0598434 -2.42973e-20)
(1.12688 0.080314 -4.94469e-20)
(1.0353 0.0248092 0)
(1.00974 0.00486397 -2.45618e-21)
(0.134456 0.0436074 1.93979e-20)
(1.07966 0.0108363 -1.6262e-20)
(1.01279 0.00212388 -1.96075e-22)
(1.0134 0.00731223 3.42883e-21)
(1.0936 0.00562969 0)
(-0.0253065 0.0089533 -1.89502e-22)
(1.20207 0.0511721 4.88506e-22)
(1.08121 0.0837718 -2.7483e-20)
(1.00699 0.000836441 4.2633e-21)
(0.674525 0.0241195 -4.61036e-22)
(-0.0907255 -0.00661687 -2.96852e-20)
(1.06422 0.015461 -6.29909e-21)
(-0.0930114 -0.00224427 -2.34181e-20)
(1.0212 0.0665053 0)
(1.04151 0.0193793 -1.89428e-20)
(0.588211 0.0799794 4.07987e-20)
(-0.0174487 -0.00552491 2.61518e-20)
(-0.043323 0.00389686 -3.65083e-20)
(0.994731 -1.75456e-05 2.40823e-22)
(1.04076 0.0687806 -1.62128e-23)
(-0.0656526 0.034921 -4.5072e-20)
(1.04091 0.00371398 0)
(-0.063408 -0.0406955 0)
(1.02256 0.00624411 -1.19151e-21)
(1.11345 0.0866334 -2.98699e-20)
(1.02397 0.00409779 -3.9616e-23)
(0.995321 -2.66389e-05 1.14673e-21)
(1.07065 0.102224 -1.53003e-20)
(-0.112206 -0.0444164 -1.48136e-20)
(1.03851 0.00896633 0)
(1.01349 0.00567052 0)
(1.0575 0.0238647 0)
(1.02174 0.00288076 -5.36593e-23)
(1.01375 0.00307668 -5.40648e-23)
(0.651943 0.106399 1.71744e-20)
(0.971786 0.00827261 1.34041e-21)
(1.00379 0.00217942 1.7231e-21)
(0.997726 0.000245537 -7.78879e-23)
(1.01317 0.00719652 0)
(0.760937 0.0834383 4.44712e-20)
(0.996711 0.000102022 9.31026e-22)
(0.865149 0.0280708 -5.17618e-22)
(0.672268 0.0895316 -5.81497e-20)
(0.252522 0.0514911 -7.58753e-20)
(0.672908 -0.0115476 1.29659e-21)
(0.00446926 0.0119281 -6.54344e-20)
(0.401444 0.0919808 -4.66606e-20)
(-0.00795946 0.0228004 0)
(1.05778 0.0268217 0)
(1.02812 0.0181568 1.99881e-21)
(0.605673 0.0920986 0)
(0.99777 0.000223169 0)
(-0.0164103 0.0239233 -1.68619e-20)
(0.0628479 0.0408441 -2.1063e-20)
(0.745337 0.103927 9.93061e-21)
(0.996268 9.87194e-05 0)
(1.04724 0.0331566 -1.72614e-21)
(1.04922 0.00945867 2.49911e-20)
(1.10421 0.112077 -3.53682e-20)
(1.01034 0.00145406 2.81783e-23)
(0.0741908 0.0365499 0)
(1.02616 0.115683 0)
(0.873517 0.00766748 -1.0339e-22)
(0.486087 0.0986648 -3.23104e-20)
(1.15222 0.103202 0)
(-0.029677 -0.00927063 -3.93875e-20)
(1.02329 0.00761336 0)
(0.104325 0.0427004 4.9536e-21)
(1.0539 0.058708 -1.15058e-20)
(-0.000202221 0.00556172 -2.59481e-20)
(1.06456 0.0305591 -1.13894e-20)
(1.06883 0.100853 0)
(1.01543 0.00897438 -1.65175e-21)
(1.02787 0.0169974 -3.92203e-22)
(1.09416 0.0443414 -1.60114e-20)
(1.1698 0.0470949 0)
(1.05939 0.0501944 -2.42788e-20)
(1.0277 0.0175804 0)
(1.01369 0.00147337 1.33783e-22)
(0.830427 0.0727088 1.17332e-19)
(0.998228 0.000259592 -1.67142e-21)
(1.05234 0.0184152 0)
(-0.182492 -0.00482559 2.97933e-22)
(1.02334 0.00810175 -1.94907e-22)
(1.03234 0.00134853 0)
(0.996928 0.000141788 0)
(-0.190752 -0.0103965 0)
(1.01263 0.0059837 -8.30716e-22)
(1.02175 0.00497352 -3.15916e-22)
(1.03961 0.0680444 -6.3982e-21)
(0.996982 0.00018031 3.26769e-22)
(1.03191 0.0401585 0)
(1.00712 0.00342671 0)
(0.612278 0.102681 1.4401e-20)
(1.04911 0.00851432 -8.23177e-21)
(0.995832 0.000102891 0)
(1.0253 0.058092 6.84265e-22)
(0.686377 -0.0211184 -1.70835e-21)
(1.01467 0.0091295 8.91627e-22)
(1.02048 0.00549976 -2.5219e-22)
(0.682996 0.104729 0)
(-0.133777 -0.0205388 1.26573e-20)
(1.16072 0.0496693 3.5344e-20)
(1.00937 0.00480158 0)
(-0.026209 0.0264965 0)
(-0.0524357 0.020867 -2.07682e-20)
(-0.0894892 -0.014293 -3.81812e-20)
(1.17971 0.0776187 4.39748e-20)
(-0.124371 0.00458733 3.7928e-20)
(1.0475 0.0010039 0)
(1.02441 0.00358183 2.96934e-22)
(1.02679 0.0338042 1.04456e-21)
(0.996033 0.000109706 -1.99501e-22)
(1.00885 0.00125268 3.40537e-21)
(-0.0552393 -0.018583 5.54672e-20)
(1.07218 0.0777748 2.02968e-20)
(0.60876 0.0383084 -3.57389e-21)
(1.0116 0.00150748 0)
(1.05171 0.0889214 -6.82724e-21)
(1.01279 0.00531663 9.14511e-22)
(1.08812 0.0706209 1.49352e-20)
(-0.0497974 0.0234404 -5.58744e-20)
(-0.0756283 -0.0508846 5.00199e-20)
(1.01374 0.00396112 4.0223e-21)
(1.07945 0.0135012 -4.70024e-20)
(1.09826 0.0955213 4.04036e-20)
(1.01966 0.00280893 0)
(1.00601 0.00293401 9.55249e-22)
(1.01117 0.001492 0)
(-0.0282527 0.0291066 -2.55414e-20)
(0.919032 0.0772483 0)
(1.04248 0.0566938 -3.43673e-21)
(1.009 0.00373433 0)
(1.05844 0.0503414 2.5877e-20)
(1.00908 0.00433044 0)
(-0.0324482 0.0246521 2.45555e-20)
(1.06073 0.0423997 0)
(1.02356 0.00502607 5.01649e-21)
(-0.143444 0.00239279 1.97093e-20)
(1.08827 0.0669868 1.49476e-20)
(1.10308 0.103568 2.52555e-20)
(1.04911 0.032423 -7.57252e-21)
(0.373503 0.055036 4.03702e-20)
(0.842846 0.00387622 0)
(1.07885 0.0155703 -3.42116e-20)
(1.04151 0.00146174 0)
(-0.0276985 0.0128638 3.76836e-20)
(0.98636 -0.00139341 -3.54051e-22)
(1.04816 0.00171964 7.23608e-21)
(-0.103205 0.00382229 0)
(-0.101515 -0.0425036 5.27938e-20)
(0.82547 0.0935089 -1.02094e-19)
(0.215911 0.0701293 2.85217e-20)
(0.446393 0.0943167 3.67663e-20)
(-0.0690986 -0.0387938 0)
(1.02011 0.00227701 4.10554e-23)
(1.17395 0.0873527 -7.79962e-20)
(0.994646 -2.83221e-06 0)
(0.997711 0.000209924 1.89664e-21)
(-0.0370149 0.0291197 6.5257e-20)
(1.0112 0.0057315 3.39633e-22)
(0.35278 0.0439598 -1.45019e-21)
(1.01846 0.00175149 0)
(-0.0233221 0.0102764 -4.87962e-20)
(-0.103486 0.0111851 0)
(1.09822 0.0396228 -1.61922e-20)
(0.128293 0.0619877 0)
(-0.132893 -0.0155807 -7.78464e-21)
(0.757599 0.029594 -4.66497e-23)
(1.08076 0.0286624 -1.96736e-20)
(1.00735 0.00129887 6.41637e-22)
(1.00329 0.00181075 3.50955e-23)
(1.1008 0.103312 0)
(-0.176104 -0.00556588 -6.40806e-20)
(1.01282 0.00209383 0)
(0.801912 0.076065 -5.40018e-20)
(1.11062 0.0477384 4.75278e-20)
(-0.0178365 0.0142557 2.8772e-20)
(1.18477 0.0400159 -5.3458e-20)
(1.0215 0.00193569 0)
(0.953008 0.00348705 0)
(1.01003 0.00565415 2.59686e-21)
(0.955764 -0.00203333 6.22519e-22)
(1.05205 0.0591521 0)
(1.00466 0.001117 -9.15247e-22)
(1.01434 0.00892282 2.77002e-21)
(0.528777 0.101154 3.37021e-20)
(1.16684 0.0440875 7.21358e-20)
(1.06558 0.00743809 2.51514e-20)
(0.599426 0.0808734 -3.78257e-20)
(1.03204 0.0014281 -8.90885e-21)
(0.872515 0.024607 8.08855e-23)
(1.04782 0.00809986 -1.37239e-20)
(0.830692 0.0284497 8.67273e-22)
(-0.0186487 0.0315967 -2.0534e-20)
(-0.0434127 0.0239357 -2.20246e-20)
(1.00553 0.000839969 -5.13833e-21)
(1.00898 0.0012631 -2.81678e-22)
(1.14423 0.0500954 0)
(1.02848 0.0190472 -8.66309e-21)
(-0.0212017 0.0302068 -2.48817e-20)
(0.0149851 -0.00882367 1.77576e-20)
(0.994602 3.57407e-06 0)
(1.02636 0.0330171 4.3414e-22)
(1.18581 0.0457933 0)
(-0.0666508 -0.0110503 -2.35313e-20)
(1.13653 0.110477 3.40584e-20)
(1.0312 0.0180973 0)
(0.836803 0.0289792 5.79299e-22)