/*--------------------------------*- C++ -*----------------------------------*\
| =========                 |                                                 |
| \\      /  F ield         | OpenFOAM: The Open Source CFD Toolbox           |
|  \\    /   O peration     | Version:  v2012                                 |
|   \\  /    A nd           | Website:  www.openfoam.com                      |
|    \\/     M anipulation  |                                                 |
\*---------------------------------------------------------------------------*/
FoamFile
{
    version     2.0;
    format      ascii;
    class       volScalarField;
    location    "350";
    object      k;
}
// * * * * * * * * * * * * * * * * * * * * * * * * * * * * * * * * * * * * * //

dimensions      [0 2 -2 0 0 0 0];


internalField   nonuniform List<scalar> 
14479
(
0.00207255
0.0142058
0.000669746
0.000145717
0.000202723
0.000151313
0.000139925
0.000209704
0.000203216
0.000219994
0.000143307
0.00016589
0.000190406
0.0194184
0.0178213
0.000153357
0.000140304
0.01535
0.000145426
0.000183079
0.000182799
0.000197945
0.000238655
0.0300469
0.000143882
0.000145445
8.48773e-05
0.000200354
0.000148254
8.01944e-05
0.000472135
0.0233927
0.000218923
0.000214231
0.000905421
0.000183351
0.000144067
0.000149923
0.0149851
0.000174962
0.000157919
0.000143864
0.0140438
0.0120938
0.000143776
0.000154334
0.000143868
0.0320248
0.000216681
0.000143727
0.00490887
0.000199641
0.000145079
0.00496415
0.00023592
0.000167221
0.000187912
0.000150929
0.0135835
0.000150857
0.000147318
0.000149417
0.0101229
0.000144376
0.000139734
0.00635884
0.0317626
0.0394159
0.000145059
0.000148423
0.0388228
0.000144216
0.00412484
0.000177005
0.000149326
0.000143452
0.000191339
0.0102007
0.000142448
0.00907479
0.000145667
0.000203275
0.012459
0.00032265
0.000217436
0.000152685
0.000153121
0.000139982
0.000208864
0.000152138
0.000202465
0.0222026
0.00226965
0.000144283
0.00683819
0.000144575
0.000142594
0.000142213
0.000140525
0.0190027
0.026427
0.000160777
0.00493719
0.00162996
0.0457325
0.000221251
0.0684988
0.000238568
0.000189771
0.0183588
0.0689346
0.0192184
0.000207829
0.000167736
0.000212816
0.000186579
0.000146036
0.0358416
0.000168679
0.000150456
0.000146934
0.00469658
0.0050147
0.000140428
0.00796412
0.00032719
0.000151877
0.0389334
0.000162779
0.00333524
0.000236355
0.0354097
8.51944e-05
0.0473259
0.0152636
0.000167781
0.000225079
0.000204657
0.00763987
6.99524e-05
0.0169861
0.000350561
0.000145104
0.0197615
0.000145692
0.0194229
0.000319871
0.000149455
0.00021656
0.000208522
0.0261529
0.000143425
0.0133434
0.000155252
0.000145484
0.00014398
0.00724279
0.0554807
0.018531
0.000168296
0.000179054
0.000136983
0.000143531
0.000188175
0.0134371
0.000135735
0.000143708
0.000195145
0.000200674
0.0179774
0.00033353
0.000174491
0.000155878
0.000188509
0.000139179
0.000211081
0.000167825
0.000141273
0.000373046
0.0394849
0.000185428
0.000139555
0.0188362
0.000479395
0.0161025
0.000208791
0.000100671
0.0302291
0.000150293
0.00716023
0.0408098
0.000250204
0.00258241
0.0117268
0.000161671
0.000174061
0.000141373
0.000289295
0.00016577
0.000143483
0.000203822
0.000163109
0.000193195
0.000143891
0.000165615
0.000199438
0.0169728
0.000166742
0.00013968
0.000166568
0.000166425
0.000148187
0.000164666
0.000163963
0.00014874
0.0207301
0.0108084
0.000103459
0.0207309
0.000215608
0.0198503
0.004821
0.00015323
0.000439219
0.00690364
0.00015318
0.0379663
0.000142386
0.000196092
0.000152159
0.000149816
0.000129595
0.0154138
0.000147779
0.000145788
0.000232002
0.000157204
0.000200879
0.0247345
0.000145429
0.000159847
0.000143613
0.000200628
0.000159899
0.000201051
0.000212568
0.0289284
0.0207823
0.000149702
0.000145589
0.00921782
0.00020568
0.0028594
0.000226343
0.0154063
0.000140262
0.00016227
0.000140058
0.000199098
0.000145305
0.000142303
0.000161363
0.000145264
0.000141459
0.000141498
0.000162493
0.000191327
0.000145642
0.0316296
0.000177526
0.000195601
0.000192234
0.0021809
0.000173766
0.000195317
0.00305279
0.000200426
0.000140929
0.000167059
0.00015528
0.000205937
0.000163273
0.000151975
0.000153673
0.000215535
0.0001153
0.000194671
0.000343154
0.00017114
0.0243533
0.000218558
0.000148924
0.000199635
0.0107499
0.000154583
0.00678617
0.000366166
0.000150997
0.000172109
0.00189523
0.0330436
0.0171398
0.000141421
0.000147786
0.000175428
0.00938874
0.000136016
0.0370109
0.000139536
0.000211319
0.000176908
0.0342116
0.000153961
0.000151863
0.000175916
0.00524324
0.000251001
0.000159025
0.000175291
0.00013817
0.00126178
0.00020223
0.0301915
0.0103048
0.000147632
0.000210557
0.0437444
0.0182868
0.000189239
0.00015527
0.000231062
0.000140913
0.000202077
0.000188417
0.000152391
0.000151732
0.0375959
0.000161515
0.000155526
0.000150855
0.000148034
0.000191102
0.000139179
0.000181414
0.00085864
0.000167494
0.0232554
0.000175037
0.000196517
5.47607e-05
0.000144999
0.000270149
0.00453041
0.00793762
0.000164759
0.00922497
0.000194644
0.0231349
0.000147595
0.0116882
0.000153156
0.000210217
0.00516461
0.0273687
0.000153734
0.000154553
0.000139637
0.000182082
0.000191236
0.000139268
0.000154608
0.0150644
0.000155868
0.000207942
0.00838114
0.000222262
0.000148932
0.000211141
0.000165383
0.00015034
0.000176241
0.000193449
0.000144919
0.000166467
0.00498758
0.000246688
0.0405964
0.000148255
0.00458143
0.000181228
0.000210261
0.000227578
0.000154454
0.0474405
0.000899707
0.000139514
0.000162702
0.00739675
0.000207732
0.000214945
0.000186391
0.00019906
0.000172309
0.000249271
0.000178097
0.000156412
0.000190802
0.000175777
0.0043964
0.000184095
0.0152261
0.000244193
0.000163533
0.00024155
0.000147296
0.0105535
0.000148641
0.000151771
0.0317618
0.000208686
0.0133658
0.00125845
0.0439874
0.00686634
0.000966121
0.000150894
0.000154805
0.000161328
0.000141033
0.000144348
0.000148604
0.000177512
0.00047904
0.0253562
0.0547305
0.00018142
0.00175272
0.000238914
0.000191033
0.000147799
0.00233826
0.000140286
0.000146006
0.0111541
0.000147709
0.00014105
0.00015481
0.00599412
0.000163897
0.000150135
0.000147956
0.000148646
0.00291092
0.000162309
0.00590615
0.000185905
0.000147638
0.000153677
0.000221522
0.00024342
0.000225594
0.000148451
0.000156695
0.000165372
0.0106042
0.000141301
0.000175406
0.00501564
0.0022073
0.000146959
0.000142192
0.000198488
0.000159138
0.000147787
0.000304922
0.00704141
0.000196499
0.0360828
0.000181482
0.000148222
0.000247961
0.000181932
0.00447756
0.00744787
0.000178394
0.000148632
0.000138691
0.000154675
0.0277053
0.000366988
0.000139039
0.000138042
0.000221536
0.000147591
0.000167138
0.000150615
0.000140336
0.000229309
0.000141493
0.000214227
0.000171559
0.000233285
0.000365926
0.000178854
0.000195373
0.000202593
0.000226322
0.0484966
0.000197993
0.000145441
0.000148185
0.000155098
0.000153991
0.000209866
0.000150135
0.0131616
5.1699e-05
0.000154328
0.0310177
0.000201
0.000278146
0.000183694
0.000142227
0.000163089
0.000150119
0.000198768
0.000166013
0.000166591
0.0139027
0.000164521
0.000248569
0.00493883
0.000157703
0.00013879
0.000144829
0.000152268
0.000158764
0.000172829
0.000183331
0.000166264
0.000172109
0.039539
0.000163647
0.000145675
0.0140376
0.000165817
0.0011875
0.015327
0.0272057
0.000254908
0.000158964
0.000229757
0.00028206
0.000166574
0.000163913
0.0125722
0.0291645
0.00018438
0.000154731
0.000291282
0.000196848
0.000150474
0.000148676
0.0435064
0.000205365
0.000151566
0.000153604
0.0168311
0.000177117
0.000132946
0.0156724
0.000156747
0.000158052
0.000181179
0.00017084
0.000202982
0.0236566
0.000152111
0.000233096
0.00192091
0.000318688
0.000156665
0.00015773
0.0184992
0.000152917
0.0152923
0.000158767
0.000171489
0.0150209
0.000154711
0.000174939
0.000142361
0.0205931
0.0694872
0.000201757
0.007112
0.024427
0.000137784
0.0120082
0.000275084
0.00014724
0.000168177
0.000164591
0.000157684
0.000154869
0.000195622
0.0141682
0.00018569
0.000195136
0.000197195
0.000168307
0.00176994
0.0341912
0.00016071
0.0517688
0.00971091
0.000151099
0.000236966
0.00014495
0.0130402
0.00350822
0.0177385
0.000169262
0.000235167
0.000147911
0.00019504
0.000274862
0.0695641
0.000155347
0.000160674
0.000201167
0.000140165
0.00497536
0.000154348
0.000155321
0.00137107
0.00015202
0.000196672
0.0139274
0.000144478
0.000160536
0.000147874
0.0339847
0.036923
0.000235898
0.0254902
0.000219826
0.000201153
0.000199478
0.000164005
0.000145251
0.000148991
0.000154946
0.000276648
0.00021618
0.000197904
0.00618368
0.000161952
0.00317075
0.000150185
0.0448518
0.0145981
0.0274493
0.000151304
0.000181741
0.0481647
0.000196924
0.000140881
0.000166057
0.000141458
0.000176696
0.000158589
0.000137665
0.000138646
0.000141644
0.000141711
0.000181394
0.000174507
0.000148128
0.0119482
0.000151493
0.000155968
0.000166876
0.000260157
0.0567284
0.000136979
0.0454914
0.000152778
0.0256327
0.00427661
0.00551267
0.000205836
0.000153745
0.000155842
0.000165393
0.000967612
0.000155844
0.000148855
0.000162076
0.000155009
0.000196015
0.000158356
0.000172415
0.000153386
0.000141241
0.000183861
0.000177548
0.000302178
0.0332906
0.00792024
0.012016
0.0106479
0.00120674
0.0108478
0.00015297
0.00184625
0.000192987
0.000302048
0.000161687
0.000141586
0.00309333
0.00185494
0.000152579
0.000159008
0.0558018
0.0312431
0.000207819
0.0322115
0.00340967
0.000170015
0.000138497
0.000145667
0.000231267
0.00182658
0.0200912
0.00014168
0.000177107
0.000158358
0.000178381
0.0115903
0.000182328
0.000142853
0.000149693
0.000194117
0.000142986
0.000147575
0.000816833
0.000174436
0.000158031
0.000275664
0.0439811
0.000151598
0.000206045
0.0207534
0.0320043
0.000180475
0.00179313
0.0140718
0.000196916
0.000174906
0.0156187
0.000196494
0.00024888
0.030266
0.000136418
0.00751977
0.000306929
0.000160868
0.000401726
0.000149538
0.000173309
0.000161521
0.000141675
0.000162426
0.000150827
0.0286634
0.0135584
0.041826
0.000146983
0.000306125
0.000159856
0.000153989
0.000229512
0.00014323
0.0181231
0.00018367
0.000179241
0.000487607
0.000158379
0.000290529
0.000225026
0.000170244
0.000154499
0.0142809
0.000278919
0.000230036
0.000255151
0.000226609
0.000139712
0.019631
0.000153529
0.000164534
0.000155435
0.000180741
0.0083296
0.000195533
9.7123e-05
0.000194979
0.00304066
0.000145922
0.0002123
0.0192937
0.000146843
0.000232433
0.000155478
0.000173408
0.000197744
0.000249866
0.000154084
0.000149375
0.0162377
0.000144399
0.0539028
0.0443659
0.000179595
0.0269688
0.00017427
0.000144232
0.0120572
0.000198014
0.000182287
0.000146593
0.000180703
0.0442232
0.000310169
0.00024561
0.0220612
0.000146356
0.00175878
0.000204016
0.000153491
0.000168387
0.000174954
0.000182655
0.000452123
0.000158891
0.000144376
0.00582651
0.000153308
0.000154553
0.000224014
0.0489638
0.000209311
0.000169
0.000179646
0.000375487
0.0139181
0.000148743
0.00021525
0.000155734
0.0135072
0.000205867
0.0461036
0.00014444
0.000813068
0.000149481
0.000150161
0.0151321
0.00464881
0.0175007
0.000200435
0.000155742
0.000174756
0.00015641
0.000188427
0.000132598
0.000156431
0.000164804
0.000791179
0.000149472
0.000140199
0.000150505
0.000319054
0.000109765
0.00142652
0.000170292
0.00604851
0.00018221
0.000144923
0.000205511
0.000198028
0.03476
0.000148096
0.0211594
0.00014316
0.000180993
0.000149857
0.000262302
0.000138907
0.000137993
0.000158273
0.000160558
0.00132277
0.000192471
0.000378226
0.0102008
0.0160531
0.000144044
0.000208379
0.000144703
0.000139537
0.000168017
0.000175892
0.034677
0.0490334
0.000154314
0.000175733
0.000185958
0.00016341
0.000196945
0.000364801
0.000194053
0.00018977
0.000281096
0.0017788
0.0264046
0.000245648
0.000139286
0.000146575
0.000219231
0.000157778
0.000197095
0.000247764
0.000143817
0.000144386
0.00406376
0.00195216
0.000168756
0.00216209
0.000156802
0.00980679
0.000311867
0.0339534
0.0455742
0.00188342
0.00143482
0.00923391
0.000227771
0.000315428
0.000144531
0.00325332
0.00998393
0.000159753
0.000159743
0.000138416
0.00021757
0.00622395
0.00634773
0.013487
0.000138333
0.000147093
0.000213348
0.000147097
0.000146931
0.000136075
0.000187171
0.000159617
0.000144466
0.000161619
0.000179069
0.000158929
0.000177408
0.0436935
0.000146823
0.000184808
0.0196647
0.000154965
0.000183643
0.0201136
0.0328907
0.000160191
0.000149683
0.000359597
0.000190159
0.000152251
0.000306443
0.00412249
0.000203874
0.000231165
0.00016655
0.000219142
4.82962e-05
0.000254599
0.000158629
0.00019613
0.00014468
0.000172578
0.000144516
0.00232162
0.000345447
0.000154348
0.000921445
0.00019116
0.0135699
0.0280372
0.000250949
0.000201774
0.000146795
0.0217343
0.000159134
0.000373384
0.000118529
0.000148356
0.000480758
0.000145226
0.00018345
0.00513991
0.000149701
0.00521528
0.000159777
0.000164819
0.013021
0.0197668
0.000184931
0.000174967
0.0148023
0.000159257
0.000159506
0.000157628
0.0257137
0.000148507
0.000150492
0.000321865
0.000265725
0.000153058
0.000953445
0.000184153
0.0122436
0.000141476
0.0454929
0.00013829
0.000185076
0.000176113
0.000148805
0.000187851
0.000186636
0.000221514
0.000180301
0.000211974
0.000175485
0.00014438
0.000195987
0.0146068
0.000149631
0.000171402
0.000141365
0.000291199
0.000148916
0.00014606
0.000152239
0.000154127
0.000147286
0.0487269
0.00017815
0.000244239
0.000232984
0.000148105
0.000153406
0.0225255
0.00122245
0.0171431
0.0187155
0.000179481
0.019425
0.0129609
0.000168873
0.000156189
0.000142823
0.0152853
0.000230267
0.017862
0.0315147
0.000155119
0.0121014
0.000144732
0.00014707
0.000672848
0.000207035
0.0222761
0.000215134
0.000213198
0.0126549
0.000145471
0.000155684
0.00559508
0.0128655
6.54288e-05
0.0102946
0.0046275
0.0158248
0.000165745
0.000188022
0.000185111
0.000146363
0.000170731
0.000158442
0.000200367
0.000197567
0.000183181
0.000191114
0.000554597
0.000160709
0.000154928
0.00508752
0.000139516
0.000172607
0.000166437
0.000912128
0.0177965
0.0362598
0.000157396
0.00450602
0.000260561
0.000233485
0.00024536
0.000142208
0.0116894
0.000485181
0.000191096
0.000140931
0.0133103
0.0184401
0.0246154
0.00486492
0.000220164
0.000168615
0.000218128
0.00029665
0.000207022
0.000159163
0.000218076
0.000190664
0.00848581
0.000139568
0.0238705
0.000202086
0.000164989
0.000163602
0.000141575
0.000174906
0.000153572
0.000143157
0.000183605
0.00205838
0.000209431
0.00386379
0.0387026
0.050962
0.000160434
0.0368549
0.000173514
0.00014344
0.000168095
9.65789e-05
0.00019001
0.000170691
0.00103326
0.000176121
0.000380922
0.000170832
0.000159262
4.45581e-05
0.000215546
0.000169143
0.00715798
0.000153641
0.000245002
0.00924229
0.000143446
0.0126311
0.00880221
0.000154824
0.00127407
0.000157196
0.000159643
0.00020323
0.000174696
0.0145398
0.000168492
0.000147002
0.000204492
0.000181458
0.0157228
0.000181907
0.000166819
0.000183643
0.000150244
0.028176
0.00856467
0.000308724
0.00508156
0.000330779
0.000201375
0.00017217
0.00350746
0.000175072
0.000151382
0.000190264
0.000182723
8.6111e-06
0.000165105
0.0199242
0.000174348
0.0070968
0.000149644
0.047997
0.000164823
0.000206212
0.00015491
0.000241608
0.000160101
0.000150529
0.000167406
0.000215343
0.000152954
0.000181514
0.000139923
0.000257271
0.000213237
0.000290943
0.0396548
3.55964e-05
0.0513275
0.000134376
0.00945835
0.000158087
0.000154527
0.000138963
0.000153622
0.000144472
0.000196976
0.0131482
0.000238435
0.000142716
0.036872
0.0261091
0.000192079
0.000164038
0.000214332
0.051183
0.00300625
0.000228192
0.000192889
0.0267871
0.000199094
0.000223709
0.000166762
0.0086389
0.000164315
0.000143714
0.000246464
0.000144393
0.00017204
0.000150336
0.0110319
0.0098171
0.000214281
0.000187571
0.0218359
0.0213638
0.000202912
0.000178446
0.0409256
0.0521458
0.000148725
0.0100668
0.000255653
0.000169988
0.00955974
0.0260684
0.000156331
0.000146547
0.000156784
0.00441378
0.000196764
0.000652872
0.00774423
0.000235506
0.000162734
0.000174962
0.000157787
0.000168755
0.000421394
0.0245317
0.000210413
0.000159046
0.000180229
0.000166769
0.00122092
0.000162347
0.000196091
0.000212481
0.00016896
0.0269961
0.000195228
0.0162446
0.000160586
0.000148227
0.000165419
0.000238892
0.0303261
0.000148505
0.000272078
9.63309e-05
0.000200807
0.000223552
0.000141354
0.000246414
0.000151855
0.000141438
0.000181118
0.000139214
0.000209419
0.000164722
0.000151039
0.000168168
0.0460135
0.000174309
0.00017065
0.000153639
0.000174803
0.000176436
0.000144328
0.000173734
0.00484845
0.0246487
0.000145677
0.00016907
0.000153685
0.0570579
0.00013917
0.010823
0.0478842
0.00944801
0.000164701
0.000407442
0.000142496
0.000246979
0.0128079
0.0103892
0.000165937
0.00019139
0.0139981
0.000253153
0.000267214
0.000154752
0.000157469
0.000181661
0.000182504
0.000143359
0.000149175
0.0610949
0.00995656
0.000164378
0.000213197
0.000181159
0.00856828
0.000160546
0.000156514
0.000154531
0.000144707
0.0473509
0.000191136
0.0103494
0.000147804
0.000195044
0.000145765
0.000161911
0.000149619
0.000203782
0.00517432
0.000196627
0.000145053
0.059167
0.000195108
0.000145278
0.000222578
0.000148858
0.00850034
0.000480156
0.000159319
0.0252449
0.000399212
0.000215248
0.0138248
0.000141005
0.000148962
0.000192849
0.00685922
0.00682101
0.000182652
0.000141308
0.000298829
0.00851923
0.000151456
0.000157191
0.00161574
0.000175792
0.000165422
0.0343122
0.000142639
0.000153819
0.000144017
0.000142592
0.00131568
0.000695419
0.000212531
0.0162203
0.000201153
0.000144488
0.000148245
0.000143636
0.000166431
0.00019756
0.00446445
0.000188875
0.000181017
0.00019876
0.0326435
0.000191146
0.000153276
0.0112102
0.000198972
0.00279188
0.00015119
0.000372919
0.000225
0.000361739
0.0503115
0.000199561
0.000163202
0.0184324
0.000138891
0.000192552
0.000211117
0.000187966
0.00140952
0.00285828
0.00495946
0.000190221
0.000261243
0.000169256
0.00834293
0.0223847
0.0281217
0.000143512
0.00129634
0.000154429
0.000168973
0.000192167
0.000173595
0.000215865
0.000133378
0.000176499
0.00479333
0.000196475
0.000191182
0.000407723
6.79374e-05
0.00327446
0.00273137
0.0205452
0.000137881
0.000142387
0.0352975
0.000147576
0.000137886
0.0001571
0.000155259
0.000292147
0.000190028
0.000151548
0.000160432
0.000190447
0.0194769
0.0175958
0.000210113
0.00021122
0.000190909
0.000281531
0.000203283
0.00014549
0.00824005
0.00996687
0.000176725
0.000292388
0.00343078
0.000158785
0.0472125
0.000243127
0.00020758
0.00014933
0.000175407
0.00308545
0.000182031
0.0268817
0.000177843
0.000222358
0.00027256
0.00015437
0.000143372
0.00021418
0.0126014
0.00484086
0.000168079
0.000241396
0.000235981
8.42209e-05
0.000166186
0.00415345
0.000179452
0.000282504
0.0520898
0.000193215
0.000348493
0.0277622
0.000210573
0.0280177
0.000154996
0.0565536
0.000196987
0.00368253
5.51828e-05
0.000183098
0.000147168
0.000148695
0.000195465
0.000162771
0.000157155
0.000181261
0.000142778
0.000596036
0.00108974
0.000196961
0.014336
0.0164757
0.000143606
0.0317962
0.0228693
0.000180598
0.000136081
0.000275901
0.000230567
0.000241859
8.30963e-05
0.000168141
0.0002425
0.000149419
0.0298976
0.000180841
0.0279827
0.000269429
0.0370662
0.00014387
0.0162169
0.00019555
0.00493475
0.000163426
0.0160861
0.00584715
0.000181899
0.000184
0.000159914
0.000151697
0.000186121
0.000202553
0.000145548
0.0115962
0.00453702
0.00014741
0.000227763
0.000160453
0.00504454
0.0166454
0.000210036
0.0274172
0.000194017
0.00017334
0.000168896
0.00014911
0.000153703
0.000158392
0.040409
0.000171235
0.000143772
0.00016357
0.000146393
0.000154522
0.0245745
0.000139273
0.000201905
0.000164803
0.00034192
0.0119039
0.000182287
0.00225149
0.017681
0.000176542
0.0198551
0.000166306
0.000140635
0.000142712
0.000175965
0.0154918
0.00018162
0.000177072
0.000203016
0.000214562
0.000234575
0.0199122
0.000111798
0.000143769
0.000212123
0.000156704
0.00018157
0.0347279
0.000240368
0.000147764
0.0393098
0.000143695
0.000155329
0.000233832
0.000143758
0.035012
0.0156992
0.000195035
0.000148294
0.000349451
0.000186007
0.000705332
0.000201962
0.000201954
0.000189867
0.000313421
0.000146252
0.00025014
0.0001523
0.0506976
0.0159542
0.00781963
0.000213049
7.92632e-05
0.000157295
0.000170822
0.000157301
0.000217033
0.00527543
0.000173673
0.00113947
2.87371e-05
0.000142419
0.000143519
0.00499632
0.0271541
0.000226596
0.000752452
0.000143167
0.000175243
0.000174041
0.0218958
0.0308528
0.000178927
0.000188613
0.012069
0.000169399
0.00378577
0.000145122
0.000163068
0.0357191
0.0325241
0.00759655
0.000146549
0.000157603
0.000143532
0.000151686
0.0386439
0.0416086
0.000172137
0.000191265
0.000148382
0.00686239
0.000213016
0.000250904
0.0206682
0.000213231
0.000159956
0.00406612
0.0365283
0.0100912
0.000148245
0.0018764
0.0124658
0.00014224
0.0147002
0.0140389
0.000142662
0.00019247
0.000166622
0.000185295
0.000189411
0.000143679
0.000199007
0.000146679
0.00021343
0.015301
0.000188398
0.000166718
0.0156639
0.000146577
0.0151478
0.000160603
0.000153166
0.000225549
0.00017896
0.000158322
0.000176583
0.000200698
0.000142211
0.00347813
0.000155245
0.000242177
0.00015914
0.000148023
0.000180818
0.000153484
0.000163855
0.000172723
0.000162482
0.000412185
0.000150874
0.000170211
0.00578919
0.00663305
0.000160817
0.000166079
0.000225992
0.000180381
0.000194699
0.000142285
0.00839546
0.000133589
0.00504753
0.00024013
0.000179963
0.00116922
0.00844981
0.000169619
0.000173302
0.00674342
0.000230814
0.000276335
0.000163341
0.00020272
0.0001468
0.000168713
0.000146557
0.000164445
0.00015651
0.000153137
0.000194144
0.000253877
0.000149775
0.000199213
0.000139519
0.0519551
0.00460437
0.000142411
0.000222663
0.0155136
0.000199157
0.000150955
0.0158486
0.00103162
0.000140352
0.000182438
0.000155825
0.000197108
0.000191343
0.000190821
0.000239074
0.000149524
0.000193064
0.000153485
0.0485024
0.0602304
0.00946911
0.000194442
0.000170284
0.00017804
0.0372436
0.000178765
0.000156636
0.000151351
0.00019822
0.00241426
0.000199448
0.00015188
0.000146371
0.000198734
0.000151146
0.0166079
0.000172819
0.0358605
0.000163127
0.000138968
0.000182688
0.00133193
0.0563611
0.000146326
0.000192107
0.0188965
0.000154128
0.000146688
0.000187568
0.000267453
0.000548745
0.00017713
0.00018236
0.036508
0.0042189
0.000183527
0.000167788
0.000164801
0.00081631
0.000185318
0.000142877
0.000138853
0.000155571
0.000173929
0.051773
0.000159691
0.00016671
0.000161082
0.000149457
0.000334699
0.000168256
0.000197631
0.000208312
0.0129677
0.000450286
0.0132176
0.000266715
0.00016073
0.000162311
0.0138756
0.000156258
0.019509
0.0196363
0.0412997
0.0113884
0.000139236
0.00015756
0.00014442
0.000159783
0.00017324
0.0635723
0.000241571
0.000195712
0.000145271
0.000174493
0.000181624
5.57675e-05
0.000145516
0.000169892
0.00734042
0.000345337
0.00100144
0.0230711
0.000216763
0.0671802
0.000145008
0.000178841
0.00190949
0.0001625
0.000257084
0.000181017
0.00674384
0.000199707
0.00015026
0.000194227
0.000154126
0.000134098
0.00165538
0.000207494
0.0263997
0.000152827
0.000158039
0.000151266
0.000168492
0.0286306
0.000143037
0.000143653
0.000140244
0.055541
0.000222534
0.0001978
0.0263988
0.0497736
0.0542524
0.000164948
0.000158661
0.00495105
0.0342562
0.00016723
0.000166081
0.000153992
0.000155539
0.000188397
0.000152034
0.000151305
0.0330529
0.000144298
0.000148043
0.00014149
0.00266627
0.00022642
0.000214103
0.000166734
0.000141339
0.000142564
0.000169635
0.000156826
0.000258682
0.000157322
0.000145999
0.000159075
0.000154328
0.000143472
0.000278785
0.00033667
0.0516627
0.000272032
0.000211534
0.000141669
6.60624e-05
0.000180345
0.000192282
0.000153155
0.000146414
0.000164454
3.60415e-05
0.000169593
0.000217745
0.000230277
0.0133149
0.000166284
0.000162453
0.000158357
0.000167374
0.000212089
0.000279289
0.000141415
0.0175137
0.000178209
0.0117425
0.000359229
0.000181031
0.0196836
0.000153909
0.000162354
0.000182632
0.000189562
0.000170297
0.0290018
0.000195669
0.000211305
0.000143905
0.000155145
0.0260975
0.0365528
0.000181941
0.000199045
0.000175247
0.000299457
0.000161706
0.000153091
0.000156231
0.0232627
0.000198986
0.000198601
0.000181036
0.000181494
0.013051
0.000226753
0.000208893
0.000188697
0.0103655
0.000730877
0.00014254
0.02324
0.00015815
0.0504496
0.000160196
0.000164254
0.0002772
0.0028444
0.000196989
0.000157116
0.00020486
0.000584177
0.00020264
0.000192216
0.0319942
0.00018779
0.000153649
0.0002345
0.000179404
0.000156808
0.000139479
0.0133151
0.0146458
0.000137476
0.000162452
0.000214692
0.0156435
0.000189076
0.00018844
0.000204679
0.0515991
0.0421339
0.000179699
0.000191724
0.00019416
0.00014466
0.000141506
0.000141078
0.000289807
9.37482e-05
0.000187735
0.000175719
0.000258019
0.0205318
0.000148591
0.000188655
0.0281601
0.000143234
0.000290298
0.000165619
0.000201747
0.000154798
0.0315579
0.0548841
0.000155403
0.0556752
0.012706
0.000165243
0.000167709
0.0003248
0.000157891
0.0128361
0.000329551
0.000141156
0.000186592
0.0292861
0.000161632
0.000142716
0.000219938
0.000186251
0.000143905
0.0160906
0.0321643
0.000156868
0.05462
0.0553184
0.000176802
0.000144353
0.0552498
0.000139229
0.000142179
0.000152408
0.00015261
0.0209446
0.0454685
0.0156477
0.000190873
0.0529708
0.000146336
0.0492806
0.00425446
0.000140358
0.0001436
0.000256795
0.000182672
0.000141265
0.00403945
0.0252291
0.000205192
0.000140497
0.0397734
0.000115756
0.000164264
0.000510569
0.000140397
0.000150748
0.00018022
0.0461279
0.000276196
0.000306321
0.000204695
0.000154264
0.00508192
0.000208715
0.00014369
5.68642e-05
0.000184312
0.00014432
0.000145147
0.0155292
0.000163104
0.00466012
0.000116079
0.00019473
0.000172044
0.000152703
0.0469171
0.0425346
0.000497203
0.000144699
0.000967485
0.000238658
0.0186272
0.000154731
0.0171323
0.000151434
0.000150682
0.000207768
0.00248855
0.000128022
0.0160398
0.000185813
0.000212463
0.000160302
0.000179281
0.000142751
0.00445796
0.000154387
0.000295572
0.000231882
0.000143927
0.0134498
0.000194786
0.0547244
0.000230826
0.000141565
0.000225926
0.0125748
0.000147818
0.00859581
0.000172921
0.00764789
0.0163773
0.000176461
0.000161963
0.000157955
0.000192718
0.000232364
0.000204793
0.000215303
0.000108962
0.00687337
0.0158574
0.000144862
0.000151964
0.000163521
0.0298927
0.000163127
0.000150426
2.08026e-05
0.000148343
0.000146355
0.000141366
0.0296125
0.000387495
0.000141432
0.000199241
0.000146206
0.00625217
0.000290778
0.0284846
0.00460351
0.000213293
0.000149505
0.0408965
0.0135995
0.0140742
0.0221438
0.000195168
0.000146974
0.000140987
0.000356513
0.000138842
0.0116067
0.00802754
0.000150982
0.000251558
0.000165398
0.000143271
0.000237414
0.000163352
0.000178569
0.000151333
0.0344627
0.000142303
0.000362776
0.000195709
3.68857e-05
0.000155245
0.0540394
0.00013857
0.000153393
0.00544993
0.000185767
0.000139955
0.000211148
0.000173271
0.000178681
0.0001939
0.000141564
0.000146867
0.000151307
0.000205163
0.000245695
0.000153013
0.0173363
0.0001953
0.0179099
0.000184844
0.000141536
0.000204092
0.000136385
0.000150342
0.000163579
0.0136562
0.000159869
0.000367497
0.0027478
0.000170523
0.000179066
0.000156837
0.000165357
0.0150995
0.0552609
0.0089655
0.000148265
0.000196691
0.000202822
0.00015999
0.000241501
0.000151035
0.000158253
0.000166438
0.000148474
0.000150831
0.000210995
0.000199572
0.000168198
0.000150103
0.000152955
0.0438774
0.0390272
0.000167337
0.000164427
0.0341648
0.00015297
0.0106222
0.000364536
0.000191465
0.000228477
0.000212493
0.000205528
0.0420582
0.000233497
0.00023828
0.000214777
0.00014617
0.000179066
0.000194717
0.000664415
0.0431909
0.0345543
0.000161725
0.000153155
0.000152738
0.0459296
0.000224996
0.000107553
0.00106596
0.0550132
0.000191829
0.00402808
0.000189988
0.0146958
0.0215458
0.000255796
0.0001794
0.00014732
0.000183049
0.000128767
0.000141067
0.00043553
0.000169017
0.000177262
0.000206007
0.000152613
0.000137172
0.000239893
0.00196296
0.000179598
0.000226516
0.00019295
3.53912e-05
0.000238306
0.00888638
0.000154734
0.000184625
0.000140329
0.000224596
0.000207031
0.000175305
0.000186993
0.0204684
0.00070921
0.000139153
0.0176405
0.0265958
0.000147898
0.000148198
0.000191657
0.000149119
0.000182253
0.000138256
0.041356
0.000174434
0.0274095
0.0408866
0.000191587
0.00711016
0.000153345
0.000174237
0.00552719
0.000182329
0.000189702
0.000201243
0.000145003
0.000146275
0.000182066
0.000191131
0.000139909
0.00608693
0.000205789
0.0231389
0.0153898
0.000212794
0.000150882
0.000149826
0.000269543
0.000144672
0.000139845
0.000200546
0.000138702
0.000447517
0.000183107
0.000177621
0.000171501
0.000161839
0.000220178
0.000280483
0.000179338
0.000191603
0.00429437
0.000147007
0.000246711
0.000165157
0.00022456
0.0158461
0.0444198
0.000138409
0.000162415
0.000162792
0.0037529
0.00340721
0.000189912
3.76361e-05
0.000148331
0.000160668
0.000198941
0.0421151
0.00014134
0.000210926
0.000197456
0.000170013
0.00821117
0.00750588
0.000170776
9.06209e-05
0.000143466
0.00882322
0.000169359
0.00541787
0.000203922
0.000164579
0.000180742
0.000188352
0.000165954
0.000199826
9.36252e-05
0.000297504
0.000723598
0.000152569
0.0494193
0.000101401
0.0158448
0.000134284
0.000166921
0.000143235
0.00016244
0.000199609
0.000187751
0.000143192
0.0225477
8.51057e-05
0.0439155
0.000144183
0.000196981
0.000188485
6.42511e-05
0.00014871
0.000143349
0.000450668
0.00017187
0.000188588
0.0200037
0.000143057
0.000193165
0.000162654
0.000186486
0.000284201
0.000198541
0.000161589
0.000171375
3.7856e-05
0.0413344
0.0210096
0.00885433
0.0128079
0.000143743
0.000229965
0.00446382
0.00020645
0.000196505
0.000198447
0.000141097
0.000152841
0.000300029
0.000194722
0.00232959
0.00016253
0.000894334
0.000199776
0.000507041
0.000147264
0.000186948
0.0661061
0.000134424
0.000139963
0.0031328
0.000195381
0.0540193
0.000199599
0.000251025
0.0443533
0.000215429
0.00020666
0.000143591
0.000159547
0.0185675
0.00370287
0.0032418
0.000158353
0.000197737
0.000355459
0.000217967
0.000285311
0.000642935
0.00024043
0.000304301
0.000180725
0.0490552
0.000229011
6.49623e-05
0.0295143
0.000161178
0.000180044
0.00019963
4.42332e-05
0.000152844
0.000120218
0.000171152
0.00120623
0.000214717
0.0362548
0.000170512
0.000139806
0.00017007
0.000247735
0.000200736
0.0119711
0.00356823
6.78645e-05
0.000163283
0.000298923
0.000179025
0.0001541
0.000190174
0.000143332
0.000151273
0.000197027
0.000146359
0.00019935
0.000190443
0.047765
0.000154083
0.000144202
0.000253496
0.000244401
0.000140275
0.000206476
0.000190508
0.0541158
0.00014673
0.0130489
0.000190331
0.000188102
0.000171008