/*--------------------------------*- C++ -*----------------------------------*\
| =========                 |                                                 |
| \\      /  F ield         | OpenFOAM: The Open Source CFD Toolbox           |
|  \\    /   O peration     | Version:  v2012                                 |
|   \\  /    A nd           | Website:  www.openfoam.com                      |
|    \\/     M anipulation  |                                                 |
\*---------------------------------------------------------------------------*/
FoamFile
{
    version     2.0;
    format      ascii;
    class       volScalarField;
    location    "350";
    object      omega_0;
}
// * * * * * * * * * * * * * * * * * * * * * * * * * * * * * * * * * * * * * //

dimensions      [0 0 -1 0 0 0 0];


internalField   nonuniform List<scalar> 
14479
(
0.710082
0.47873
1.386
0.0217664
0.0424306
0.0233177
0.0206735
0.129794
0.108274
0.20918
0.0210037
0.0299147
0.0472691
0.54198
0.599168
0.0240824
0.0206917
0.616785
0.0214633
0.0289395
0.0503972
0.0413589
0.0402036
5.70505
0.0210463
0.0214875
0.23289
0.0987232
0.021754
0.21288
1.1471
5.91276
0.0252905
0.0229474
1.62569
0.0441316
0.0210502
0.0233453
0.422502
0.0375893
0.0246811
0.0210597
0.490786
0.47443
0.0210276
0.0240895
0.0213219
0.94135
0.0337585
0.0210468
4.14183
0.0959662
0.0214247
3.78468
0.0384117
0.0308286
0.0501951
0.0222406
0.305554
0.0222312
0.0215697
0.0218124
0.705177
0.0213843
0.0206692
0.661423
0.95643
1.77828
0.0214193
0.0217785
1.71964
0.0213873
2.31866
0.0402358
0.0217653
0.0212666
0.0333226
0.697568
0.0211106
0.773534
0.0214829
0.0844537
0.458332
1.06971
0.438399
0.0222475
0.0223025
0.0206838
0.125487
0.0224725
0.105715
0.903462
1.06314
0.0213799
0.491274
0.0213741
0.0211241
0.0213657
0.0208576
0.539547
1.72678
0.0253973
3.46736
1.92241
1.78404
0.197044
1.93058
0.0298941
0.880963
0.541504
1.93469
0.589457
0.0370576
0.0309405
0.156795
0.0558539
0.0215737
2.22666
0.0278282
0.0220208
0.0217847
0.655904
2.48737
0.0208468
0.526327
0.0432059
0.0224027
1.76967
0.0275038
0.393232
0.0384599
9.53222
0.749255
2.20159
0.489078
0.0306919
0.163315
0.0881271
1.00949
0.659496
0.638038
0.606654
0.0209266
0.667157
0.0214888
0.514042
0.598357
0.021407
0.0360885
0.073664
0.552345
0.0212475
0.317543
0.0237112
0.0214938
0.0208583
0.387604
6.14826
0.542916
0.0310389
0.0424956
0.0205071
0.0212588
0.0353864
0.307996
0.0203909
0.0212624
0.0780866
0.120579
0.54682
0.131358
0.0382297
0.024261
0.0457407
0.0206179
0.0335621
0.0306798
0.0209762
0.0210926
2.14001
0.0536922
0.0202022
0.542866
0.0835781
0.480137
0.0197346
0.39316
4.35187
0.0220876
33.356
8.07827
0.0947919
0.477102
0.563131
0.0255056
0.0376728
0.0208376
0.0154374
0.0294127
0.0212575
0.0734957
0.0244434
0.03413
0.0212761
0.028899
0.0285016
0.403911
0.0259904
0.0206154
0.0295539
0.0301564
0.0216874
0.0283022
0.0278783
0.235834
0.549842
0.821166
0.0507246
0.55166
0.0337638
0.558892
21.0179
0.0228949
0.122578
30.291
0.0232797
1.74762
0.0211637
0.0825343
0.0104025
0.0218917
0.00611686
0.408098
0.0212726
0.0221371
0.635256
0.0236742
0.096645
4.18747
0.021459
0.0230141
0.0212706
0.0988768
0.0238357
0.0195429
0.104965
1.41823
0.570463
0.0218631
0.0214911
0.525038
0.0254998
0.319709
0.222899
0.41525
0.0208038
0.0268335
0.0206388
0.0374783
0.0214883
0.0211532
0.0233824
0.0214815
0.0209957
0.0210133
0.0272957
0.037115
0.0214978
1.42877
0.0413497
0.0803747
0.0278536
0.445082
0.037438
0.0756485
0.282986
0.0952831
0.0206854
0.0304232
0.0234028
0.085511
0.0262066
0.0224235
0.023058
0.170808
0.387542
0.0764968
0.967514
0.0343944
1.47428
0.185785
0.0217067
0.0348401
0.559332
0.0228282
0.441892
0.682683
0.0222208
0.0345654
0.184757
8.39368
0.878637
0.0210042
0.0215539
0.0392011
1.42775
0.020276
1.77641
0.0206132
0.141849
0.0261874
1.80761
0.0231703
0.0215864
0.0396853
5.2687
0.0931064
0.0254748
0.0389658
0.0205521
2.54878
0.105116
0.946292
0.693756
0.0216065
0.533685
13.4809
0.504417
0.0464841
0.0233878
0.0390811
0.0208108
0.0368078
0.060384
0.0240464
0.0223634
1.80461
0.0267409
0.0231221
0.022108
0.0216534
0.0378776
0.02059
0.0479726
0.0919399
0.0310915
2.03391
0.0386252
0.0848508
0.0710169
0.0214705
0.190094
2.02609
1.8719
0.0278891
1.34227
0.311854
40.0722
0.0216042
12.5504
0.0214575
0.0655421
4.5776
1.53866
0.0230934
0.0215348
0.0204315
0.0293682
0.0695999
0.0204102
0.0245392
0.431603
0.0242018
0.0915092
0.436567
0.215668
0.0217291
0.135294
0.0292482
0.0220715
0.0402176
0.0733647
0.0214666
0.0254174
3.31423
0.0355854
3.99317
0.0216911
0.463092
0.0321542
0.132329
0.0394687
0.0233643
2.22032
0.0449719
0.0114119
0.024673
0.392557
0.0828634
0.168039
0.0570471
0.0914055
0.0347939
0.0469568
0.0408235
0.023807
0.0473767
0.0395492
2.04169
0.0525442
0.487657
0.341075
0.0279413
0.0928951
0.0216071
0.708258
0.0217914
0.0224404
10.4752
0.0984369
0.482806
0.214122
4.11017
0.612926
0.637409
0.0221973
0.0234976
0.0266323
0.0204438
0.021061
0.0216028
0.0408578
0.141294
0.546951
6.58037
0.0479405
0.337784
0.0386814
0.0679224
0.0216279
0.716046
0.0206457
0.0211569
1.14121
0.0215566
0.0209338
0.0234488
0.369723
0.0273666
0.0217937
0.0213074
0.0216852
0.415058
0.0271103
0.59917
0.0558557
0.0216007
0.796272
0.0766971
1.00169
0.203278
0.0217643
0.0230946
0.0289813
0.550602
0.021009
0.0382035
5.56075
0.765868
0.0215414
0.0211307
0.104127
0.0248935
0.0223079
0.106199
0.68454
0.0796945
0.948069
0.0478661
0.0221099
0.282575
0.0422056
0.463246
0.465157
0.0420113
0.0226205
0.0201525
0.0226336
0.95032
0.0507653
0.0205882
0.0205211
0.182766
0.0216301
0.0254584
0.0218597
0.0207888
0.176056
0.0211653
0.159269
0.0332725
0.0362956
0.147384
0.0419593
0.817899
0.174753
0.237742
2.63069
0.0483198
0.0220398
0.0215526
0.023314
0.0231847
0.136337
0.022065
1.72903
0.0833106
0.0233057
0.937413
0.118538
0.0996447
0.0332614
0.0211306
0.027365
0.0217902
0.0900173
0.0271206
0.0300314
0.305611
0.0251476
0.55369
3.93559
0.0247459
0.0205724
0.0214667
0.0214705
0.0248935
0.0262449
0.0506364
0.0295351
0.0355167
1.72362
0.0279866
0.0214945
0.455882
0.0294879
0.261841
0.914245
1.53991
0.0601508
0.0247667
0.265009
0.269194
0.0272665
0.0281204
0.483563
1.77001
0.0520545
0.0239432
0.631219
0.0284488
0.0221017
0.0226307
6.22065
0.119096
0.0220312
0.0236838
0.407515
0.0407629
0.0196996
0.465809
0.0240456
0.0240114
0.0249909
0.0333548
0.157487
35.5476
0.0225351
0.28878
0.585041
0.532901
0.0240308
0.0247566
4.38053
0.0222664
0.409896
0.0253237
0.0326302
0.825612
0.0234542
0.037628
0.0218002
5.79665
1.9215
0.0329288
0.390767
2.05169
0.0204598
0.877046
0.0682385
0.0216524
0.0309164
0.0260282
0.0238465
0.0235547
0.080759
0.857615
0.055419
0.0640731
0.0413153
0.030672
1.95363
9.69958
0.0255338
9.3719
1.11495
0.0219253
0.805614
0.0221481
0.315677
0.410019
1.34238
0.0319863
0.0809372
0.0216564
0.0787879
0.0737993
1.91663
0.0237529
0.0262575
0.0345028
0.0208291
4.9873
0.0230736
0.0215765
0.22517
0.0220947
0.0870617
0.458276
0.0213953
0.0261968
0.021658
4.47313
2.60989
0.171039
1.6533
0.0977427
0.03263
0.0976592
0.0280591
0.0214397
0.0219035
0.0232726
0.556029
0.0927758
0.0338379
15.3888
0.0269959
0.314502
0.0219678
2.21535
0.785791
0.905746
0.0234586
0.0483617
12.8243
0.0893828
0.0204567
0.0298213
0.0209816
0.0196984
0.024809
0.0203211
0.0205707
0.0210058
0.0207703
0.0479461
0.0379786
0.0210854
0.871157
0.0223352
0.0236314
0.0299687
0.379821
13.8076
0.0202948
1.80742
0.0214536
0.535152
0.461951
0.631553
0.112122
0.0230417
0.0235801
0.029152
0.526639
0.0212654
0.0218769
0.0225939
0.0235413
0.0333884
0.0245482
0.0349908
0.0229735
0.0207417
0.0516933
0.0246971
0.537738
0.921526
0.762693
0.737557
0.576699
2.6445
0.589644
0.0228087
0.260106
0.023884
0.0444694
0.0260198
0.0210121
2.47812
0.550113
0.0223677
0.0253506
9.25987
2.07961
0.118145
1.79305
2.16391
0.0315918
0.020562
0.0214697
0.161846
1.88107
0.554547
0.0210029
0.0403314
0.0250002
0.0392164
0.587441
0.0496533
0.0211828
0.0220091
0.0741031
0.0211946
0.0216335
0.0991425
0.0381221
0.0248771
0.35503
2.24928
0.0223509
0.121217
0.564957
4.45619
0.0441645
1.90916
0.881617
0.0866952
0.0375587
0.416468
0.0241702
0.279731
4.24534
0.0200752
0.457862
0.30179
0.0260474
1.10039
0.0219698
0.0358837
0.0252736
0.0210173
0.0226044
0.0218674
1.80023
0.313763
2.18176
0.0216077
0.415026
0.025183
0.0229608
0.162582
0.0212192
0.491406
0.051604
0.0400605
0.150525
0.0250084
0.0543791
0.314884
0.0327745
0.0231451
1.55644
0.345848
0.382878
0.286712
0.165504
0.0206918
0.656114
0.0229577
0.0286768
0.0237218
0.0466366
0.776058
0.029092
0.00632042
0.0791789
0.528925
0.0211599
0.0657756
0.574587
0.0216247
0.0164324
0.0214412
0.035936
0.067045
0.0135318
0.0232559
0.0219389
0.491095
0.021401
7.25879
8.24731
0.0248745
4.29485
0.0370585
0.0213217
0.858728
0.0895449
0.0493203
0.0216119
0.0253882
6.65047
0.593994
0.206702
1.43875
0.0211926
3.50215
0.0998444
0.0229985
0.0311517
0.0385555
0.0495614
0.198108
0.0247149
0.0211518
1.00921
0.0229134
0.0233881
0.0189796
5.61552
0.0600789
0.178999
0.855053
0.0931776
0.305997
0.0229473
0.160318
0.0237306
0.329765
0.106458
13.8
0.0214139
0.292076
0.0218293
0.0226604
0.418903
16.7429
0.636576
0.0271136
0.023896
0.0385266
0.0252457
0.0447784
0.0196692
0.0208991
0.0285826
0.203385
0.0219679
0.0204506
0.0222115
0.545381
0.0569058
0.319965
0.0321025
0.987231
0.0489303
0.0214724
0.119018
0.112402
1.99614
0.0216671
8.64758
0.0212116
0.047227
0.0220118
0.101916
0.0204529
0.0204847
0.0234852
0.0212776
0.266606
0.0606462
0.959118
0.426083
0.413753
0.0210647
0.0319771
0.0213911
0.0207147
0.0261697
0.0242051
1.83947
1.86091
0.0220903
0.0385921
0.0518669
0.0259821
0.0847615
0.138443
0.0296222
0.0285006
0.117161
0.28942
1.77692
0.0450438
0.0206942
0.0215162
0.192631
0.0226196
0.0847899
0.282398
0.0210175
0.021396
1.0552
0.330846
0.030899
0.611049
0.0243251
0.723194
0.418571
1.85416
1.8964
0.375836
0.231345
0.764284
0.0253754
0.602978
0.0214189
0.405654
0.700882
0.0257386
0.0254944
0.0205635
0.06974
0.443882
1.04307
0.770283
0.0205597
0.0216408
0.0707947
0.0216062
0.0215444
0.0200131
0.0575487
0.0258122
0.0218098
0.0264908
0.0286294
0.0241168
0.0242687
1.81605
0.021597
0.0537799
0.572377
0.0235555
0.0511781
0.567908
4.46651
0.0233077
0.0218023
0.0190766
0.0244356
0.542612
0.540851
0.589753
0.0363292
0.215915
0.0301658
0.129065
0.407532
0.380616
0.0249754
0.0827896
0.0213923
0.0359319
0.0217977
1.08451
0.0710606
0.0233112
0.118876
0.0361916
7.36651
1.68918
0.354705
0.1239
0.0216251
3.65208
0.0225026
0.141892
0.608629
0.0217437
1.16323
0.0214423
0.0517321
3.91673
0.0219793
35.7088
0.0257806
0.0239934
0.760344
1.83506
0.0268167
0.0378029
0.486424
0.0254691
0.0230918
0.0244038
3.19344
0.021637
0.0219422
0.0481682
0.304768
0.00493569
0.241511
0.0504951
0.599292
0.0209632
8.30179
0.0205624
0.0524573
0.0370498
0.0218602
0.0406034
0.0337096
0.0189689
0.0298751
0.15227
0.0383428
0.0214039
0.0830701
0.323376
0.0218065
0.0260381
0.0209539
0.4264
0.0218814
0.0221443
0.0150314
0.0219895
0.0216107
2.3337
0.0239679
0.262369
0.0394008
0.0216669
0.0227871
3.51348
3.52146
0.612164
1.43259
0.0442524
0.512919
1.24039
0.0323039
0.023912
0.0211235
0.801595
0.247724
0.844983
1.83337
0.022732
7.82523
0.0209677
0.0216008
0.115636
0.125386
4.10869
0.197922
0.160783
0.310502
0.0210078
0.023872
0.373599
0.309402
0.721982
0.424478
2.2243
0.409622
0.0245127
0.0304509
0.0545289
0.0216009
0.033875
0.0235526
0.0605015
0.0869241
0.050565
0.0675693
0.70517
0.0226983
0.0232908
0.373536
0.0206931
0.0350379
0.0285903
0.423429
0.562469
1.85627
0.0243206
0.30727
0.26997
0.173573
0.25791
0.0208954
0.539025
0.665733
0.0669084
0.0209105
8.60813
0.557142
2.48258
2.41181
0.133535
0.0255986
0.116357
0.0595424
0.11712
0.0244228
0.158475
0.0427824
0.362469
0.0206994
3.23569
0.0511839
0.0290131
0.0271484
0.0210171
0.0381058
0.0238303
0.0209575
0.0512472
0.35938
0.158596
0.535663
13.8378
1.90946
0.0258521
1.80595
0.0360819
0.0212375
0.0309413
0.101261
0.0629253
0.0255162
1.46241
0.0399307
1.18236
0.0339404
0.0254961
0.215131
0.15304
0.0282393
1.08631
0.0225862
0.346084
0.42464
0.0212776
0.403431
1.91379
0.0232265
0.260211
0.0245123
0.0244879
0.0416458
0.0357558
0.402426
0.0252597
0.0215806
0.110998
0.0386451
0.818219
0.0270321
0.0293289
0.0407066
0.0219742
1.79891
0.422493
0.186047
5.96986
1.08703
0.130787
0.0346848
16.7866
0.0388698
0.0221148
0.0662529
0.0499498
0.535996
0.0291438
0.587804
0.0370953
0.407373
0.0217282
2.42202
0.0282359
0.118365
0.0220518
0.0349145
0.0245558
0.0222021
0.0252091
0.168679
0.0228368
0.0473018
0.0205051
0.350429
0.0639081
0.109313
2.10514
0.13811
6.69397
0.102146
0.409094
0.0248722
0.0234231
0.0204512
0.0230172
0.0214213
0.0788101
1.63594
0.173055
0.0210258
2.67421
0.911638
0.0672374
0.0283342
0.206065
6.45662
0.715487
0.262382
0.0701743
0.544408
0.0971401
0.0351482
0.0294229
0.574071
0.0285868
0.0212683
0.026628
0.0214176
0.0343723
0.021927
0.436536
0.510685
0.0641382
0.0598532
1.48723
0.509329
0.0201555
0.0393207
5.04106
2.40577
0.0215618
0.435812
0.0164204
0.0311025
0.431367
0.963115
0.0241191
0.0216129
0.0235475
0.309002
0.0842917
0.524546
0.410945
0.230611
0.0273133
0.0375607
0.0246051
0.027393
1.12575
1.52347
0.100567
0.0250043
0.0455988
0.0243046
0.364633
0.0259144
0.0710074
0.169337
0.0303959
1.37484
0.069042
4.10768
0.026237
0.0216715
0.0283379
0.273078
1.79897
0.0217666
0.102712
0.0242541
0.0286006
0.266507
0.0210017
0.0462853
0.0221971
0.0209161
0.0227665
0.020697
0.148538
0.0226487
0.022278
0.0312033
13.3758
0.0269547
0.0332614
0.0219039
0.0356014
0.0403891
0.0213563
0.0236974
1.96002
1.49438
0.0214745
0.0324019
0.0229937
1.93597
0.020687
0.439231
10.4733
0.430854
0.0241803
1.15214
0.021108
0.0239659
1.50608
0.43199
0.0298295
0.021346
0.794482
0.0282368
0.31407
0.0235191
0.0246352
0.0465909
0.0391367
0.0212667
0.0217915
1.90686
0.435
0.0278851
0.167259
0.044909
0.366155
0.0251694
0.0224632
0.0230309
0.0214767
5.1361
0.0677863
0.588946
0.0224777
0.0457241
0.0213517
0.0265679
0.0216557
0.0452141
0.956445
0.139327
0.021198
1.92646
0.129621
0.0214735
0.153586
0.0212488
0.363881
0.44091
0.0253181
1.5334
0.057231
0.198798
0.403985
0.0207038
0.0217572
0.07018
0.38328
36.5888
0.0271125
0.0210064
0.111916
0.421681
0.0229006
0.0240501
0.232144
0.0385491
0.0239268
1.6427
0.0211075
0.024267
0.0213547
0.0211285
0.225789
0.122469
0.181548
0.612748
0.0946099
0.0213898
0.0216313
0.0213072
0.026003
0.0804019
0.299897
0.0555328
0.0242587
0.103717
14.4244
0.0678415
0.0229344
0.438835
0.0959347
0.899956
0.0220897
0.0887519
0.118635
0.587742
2.40268
0.0581045
0.0249105
3.97436
0.020908
0.18185
0.0606818
0.0604424
1.283
0.457552
3.04734
0.0656453
0.2822
0.0311025
0.41918
0.943844
3.24268
0.0212462
0.298003
0.0219564
0.0319581
0.0289096
0.0350591
0.158199
0.0199268
0.0404507
0.357651
0.0828201
0.0685997
0.100459
0.259776
2.1627
0.830726
0.515382
0.020493
0.0211408
13.7033
0.0214541
0.0204907
0.0238465
0.0237185
0.0521999
0.0643359
0.0222882
0.0261194
0.0667997
0.550949
4.3264
0.158469
0.132916
0.0267167
0.201633
0.109894
0.0214547
0.359269
0.436396
0.0406988
0.355694
0.473964
0.0248786
9.555
0.185757
0.129326
0.021919
0.0226633
0.282611
0.0484011
0.552281
0.0408498
0.0353702
0.55577
0.0229979
0.0212541
0.160562
0.439304
1.54767
0.0266812
0.240516
0.221708
0.101118
0.0298361
2.17333
0.0301396
0.337338
1.90112
0.0296648
0.580901
1.9269
0.163014
0.9566
0.0221162
1.86987
0.126836
0.279639
0.137705
0.0473083
0.0218154
0.0217135
0.0649965
0.0268863
0.0244141
0.0471633
0.0212099
1.32891
0.435912
0.116547
0.314441
0.395223
0.0212986
0.9605
2.24976
0.0451244
0.561049
0.0533213
0.282945
0.303613
0.0226197
0.031284
0.0741167
0.0216647
3.24681
0.033869
2.45798
0.282029
2.43157
0.0213603
0.816336
0.0448781
0.5482
0.0258803
0.381299
0.345038
0.0485135
0.0522737
0.0243879
0.0219646
0.0523271
0.107686
0.284975
0.530793
2.18597
0.0215521
0.15563
0.0250756
0.545235
0.387242
0.143404
3.2943
0.0441784
0.0261342
0.0317904
0.0216197
0.0219869
0.0247345
10.3295
0.0343914
0.0213573
0.0278079
0.0215828
0.0234269
1.94531
0.0206995
0.103047
0.0276159
0.65727
0.405322
0.0487027
2.17663
0.917817
0.0399573
4.08884
0.029884
0.0207975
0.0210211
0.038416
0.380965
0.0400584
0.0382327
0.108123
0.152258
0.20958
2.40303
0.0620524
0.0216114
0.165022
0.023865
0.0475826
2.66834
0.25434
0.0215875
1.874
0.0211376
0.0236871
0.797292
0.0211557
2.04581
0.816765
0.129622
0.0216168
0.0957118
0.0543359
0.171346
0.106392
0.0980768
0.0648464
0.504935
0.0214979
0.349387
0.0223272
2.61398
0.382598
0.482527
0.155436
0.924568
0.0237741
0.0327236
0.0245108
0.151206
0.390637
0.0243493
0.40208
0.37227
0.0209973
0.0212675
4.49651
1.53523
0.23132
1.50559
0.0212048
0.0381871
0.0234809
3.62803
5.24058
0.0436684
0.0621118
0.482795
0.0327702
2.15306
0.021465
0.0270626
9.39263
4.41027
0.636337
0.0215191
0.0245532
0.0212544
0.0223476
1.8265
1.76811
0.0233427
0.025278
0.0216721
0.540717
0.0505115
0.0938411
0.946353
0.170993
0.0253561
2.10713
0.915542
1.14517
0.0217237
0.223652
0.540605
0.998909
1.2803
0.317877
0.0211964
0.0246756
0.0301494
0.0540635
0.0412617
0.0213087
0.102419
0.0215609
0.064413
0.385227
0.0360524
0.0298717
0.914048
0.0215669
0.39122
0.0256794
0.022723
0.0266799
0.0422708
0.0248625
0.0400296
0.100519
0.0211207
0.765216
0.0237185
0.0279264
0.0241021
0.0216963
0.0418867
0.0229126
0.0282868
0.0337362
0.0223768
0.187762
0.0218274
0.0276132
0.584486
0.4111
0.0263833
0.0290078
0.0265625
0.0374969
0.0764757
0.0211014
0.482363
0.0197993
4.23308
0.073464
0.0242459
1.79033
0.368133
0.0281161
0.0366031
1.14621
0.0680429
0.451537
0.0264094
0.0998651
0.021392
0.0267943
0.0215824
0.027626
0.0241981
0.0218215
0.0719047
0.3684
0.0218421
0.0933964
0.0208037
9.06706
0.305786
0.0209926
0.178548
0.425531
0.0976779
0.0222672
0.629249
0.351832
0.0195612
0.047344
0.0234268
0.085765
0.0612778
0.0649098
0.17215
0.0213954
0.0723041
0.0225908
2.70088
5.95083
5.50194
0.0570152
0.0334424
0.0424204
6.65373
0.0434413
0.0242076
0.0222716
0.114483
0.753039
0.103041
0.0223969
0.0215396
0.152079
0.0222204
0.412047
0.035022
4.57909
0.0277973
0.0206179
0.0497096
0.437852
1.84885
0.0215499
0.0683607
14.3123
0.0239256
0.0215569
0.0578598
0.392154
1.30622
0.036203
0.0347556
0.924257
2.76572
0.0178288
0.0309641
0.0289119
0.337747
0.0528621
0.0212216
0.0206059
0.0117594
0.0373491
5.68037
0.0236153
0.0301867
0.0260923
0.0219455
0.621268
0.0230241
0.0836774
0.125008
0.40465
0.63678
0.587597
0.505587
0.0258762
0.0243438
0.783331
0.0229626
0.843159
3.95853
6.18739
1.27289
0.0204967
0.0246109
0.0214248
0.0258348
0.0355572
1.93674
0.0281327
0.0862139
0.0213129
0.0369985
0.0476617
0.371664
0.0214787
0.0329675
0.542274
0.384724
1.73354
0.845492
0.160046
1.93496
0.0214541
0.0432928
3.06881
0.0266115
0.358319
0.0470258
0.957783
0.0923032
0.0218764
0.0746368
0.0232723
0.0199413
0.438925
0.0475455
4.36369
0.0227923
0.0250811
0.0223272
0.0269768
10.8352
0.0210907
0.0213002
0.020754
2.48531
0.0268113
0.148887
0.919793
5.18005
8.37714
0.0290905
0.0238245
2.71733
11.755
0.02418
0.0294813
0.0232251
0.0236012
0.0610732
0.022414
0.023001
4.66347
0.0213863
0.0217127
0.0210447
7.64734
0.189401
0.659244
0.0245271
0.020989
0.0210938
0.0328977
0.02242
0.0300014
0.0240982
0.0219241
0.0254514
0.0241111
0.0209976
0.464803
0.10035
5.83214
0.522434
0.172255
0.0210725
0.145967
0.0455742
0.0631501
0.0228974
0.0215685
0.0233801
0.0460127
0.0322109
0.959395
0.0686898
0.394271
0.0227166
0.0271579
0.0248248
0.0308168
0.0492767
0.0494415
0.0209978
3.97633
0.0370306
0.571558
0.0495077
0.04677
4.15572
0.023168
0.0265617
0.0493571
0.0628649
0.0330191
1.90339
0.0891843
0.142745
0.0211561
0.0229531
1.51867
13.3475
0.0466735
0.0943596
0.0379592
0.251849
0.0261826
0.0224138
0.0237207
14.4904
0.0971988
0.114513
0.0449902
0.046272
0.303537
0.154518
0.135594
0.0616657
9.34406
1.37484
0.0207818
0.582765
0.0249771
5.8358
0.0255072
0.0264679
0.0814918
2.11938
0.0250282
0.0244121
0.0524488
0.355696
0.0671723
0.0749401
18.3606
0.0274577
0.0230894
0.283492
0.0441831
0.0237695
0.0205916
0.303411
0.399939
0.0203662
0.027165
0.0699998
0.465904
0.0620212
0.059656
0.151199
1.91375
2.58809
0.0446186
0.0340804
0.0744605
0.0214759
0.0209756
0.0209385
0.349891
7.68059
0.0597909
0.0295451
0.140027
1.61071
0.0217617
0.0625815
3.25454
0.0211077
0.100165
0.0249103
0.0141785
0.0238936
31.4254
5.71225
0.0237074
5.6494
0.402669
0.0291928
0.0310797
0.350233
0.0248476
0.405131
0.545622
0.0207099
0.0573302
1.56942
0.0228708
0.0211077
0.201167
0.0572469
0.0213072
0.398687
18.3088
0.0239173
5.46447
5.37257
0.0294599
0.021422
5.71208
0.0205717
0.0210907
0.0222678
0.0225653
0.940057
5.54521
0.906501
0.0568174
5.51703
0.0209523
7.56924
2.10837
0.0206644
0.0212738
0.0375509
0.0498956
0.0209863
3.28992
1.4461
0.109778
0.0208187
4.69849
0.0112515
0.0284877
1.31382
0.020642
0.0226603
0.0448708
1.90907
0.0978688
0.632473
0.0304208
0.022715
0.359572
0.0319039
0.0208579
0.217174
0.0449189
0.0211941
0.0214521
0.375006
0.0266986
0.428886
0.646138
0.0891003
0.0268357
0.0227703
2.08715
4.90491
0.270266
0.0214838
0.125047
0.248154
12.8914
0.0234873
0.82953
0.022371
0.0230852
0.145308
0.85828
0.728467
0.401045
0.0553077
0.192807
0.0260534
0.0254147
0.0211238
2.31708
0.0241695
0.0192389
0.211174
0.0208732
0.87598
0.0957987
5.41241
0.173787
0.0207088
0.342357
0.476258
0.0216876
1.11101
0.0786555
0.498758
2.14808
0.0300214
0.0242357
0.0245027
0.0720575
0.18381
0.15081
0.195318
0.163054
0.392998
0.388271
0.0214874
0.0230395
0.0272791
0.875252
0.025874
0.0217271
0.344271
0.02173
0.0215842
0.0210086
3.23782
0.105728
0.0210448
0.10116
0.0215545
1.16062
0.0275468
17.0673
0.312345
0.176378
0.0218157
7.60308
0.30678
0.308513
0.848209
0.0778024
0.0215163
0.0209287
0.139484
0.0206589
0.468444
0.517628
0.0220106
0.295135
0.0292603
0.0212427
0.214469
0.0278532
0.0433618
0.0222148
4.61419
0.0211298
0.0375699
0.0803754
0.363801
0.0233671
6.5483
0.0406579
0.090257
0.630077
0.055594
0.0206204
0.187231
0.594423
0.0421316
0.0749859
0.020905
0.124364
0.0222555
0.119361
0.034033
0.0228678
3.91288
0.0962796
1.33248
0.0502056
0.0209743
0.166832
0.0203499
0.0218771
0.0278136
0.332568
0.0253495
0.457198
0.760549
0.228168
0.0435993
0.0242975
0.0268641
1.28962
2.44641
0.675948
0.0216323
0.083796
0.129858
0.0242819
0.264045
0.0222946
0.0232127
0.0293154
0.0216996
0.0226964
0.0930728
0.0944288
0.0305065
0.0215535
0.0217646
5.78434
1.98952
0.0299815
0.0286073
2.1387
0.0231343
0.863221
0.0258678
0.0707651
0.233032
0.723799
0.156391
7.01447
0.219971
0.215572
0.119069
0.0215724
0.0437132
0.0764143
0.177281
4.84442
1.76773
0.0259589
0.0227441
0.0227658
2.58483
0.219184
0.885822
0.368505
2.53515
0.0701139
2.15194
0.0454186
0.554957
1.35153
0.027487
0.0435723
0.0218565
0.0433701
0.0427192
0.0206651
1.14596
0.0229544
0.041173
0.114677
0.022743
0.0203491
0.026532
0.319697
0.0439473
0.227395
0.0428551
0.0494397
0.174469
0.501089
0.0234512
0.0634154
0.0206095
0.0744401
0.0256743
0.0374566
0.042817
2.27176
1.15628
0.0206284
0.826448
0.966591
0.0217142
0.0217354
0.0696232
0.0217514
0.0401084
0.0205372
1.97095
0.0235154
11.3164
5.00364
0.0691211
1.00708
0.0227782
0.024296
1.6724
0.127835
0.0549614
0.104574
0.0214393
0.0214916
0.0463225
0.0686289
0.0207309
0.562013
0.12064
4.14829
0.42278
0.156315
0.022107
0.0218252
0.0307714
0.0214851
0.020708
0.0963506
0.0205973
0.130285
0.0503593
0.0273416
0.0339527
0.0268465
0.158104
0.355839
0.0444983
0.0673328
2.04693
0.0215759
0.250516
0.0288742
0.0617953
0.421004
2.10849
0.0204381
0.0259257
0.0273419
0.831105
2.18132
0.0648603
0.610487
0.0217592
0.0257074
0.0888995
5.20805
0.0202918
0.144867
0.0859413
0.0282753
0.358912
0.392436
0.0340023
0.120716
0.0209882
0.570095
0.0322657
6.27007
0.11301
0.0253609
0.0469854
0.0611735
0.0284171
0.0938487
0.0503009
0.317349
1.41334
0.0217448
7.0207
0.195414
0.558776
0.0199438
0.0252488
0.122163
0.0229319
0.0983246
0.0600411
0.0212296
0.581123
0.100983
5.90616
0.0205068
0.0836908
0.0610288
0.144284
0.0216855
0.0212759
0.428356
0.0352718
0.0607878
0.851878
0.0212174
0.0731602
0.0273048
0.0573456
0.0409811
0.0987312
0.026737
0.0344059
0.269175
0.930638
1.69126
1.77908
0.816743
0.0213546
0.0223381
2.1382
0.128573
0.105561
0.143956
0.0208648
0.0228179
0.623397
0.0776156
2.16723
0.715367
1.60427
0.098935
0.299252
0.0218315
0.0568069
1.92156
0.0199574
0.0206155
2.17107
0.0793722
6.63758
0.114478
0.246652
1.90029
0.167583
0.124798
0.0211403
0.0249705
0.842848
2.64245
2.17044
0.0240818
0.0873649
1.04713
0.231861
0.441153
0.316207
0.0271225
0.179198
0.046235
7.88967
0.187128
0.239137
0.861278
0.0260654
0.0450747
0.106508
0.202261
0.0226339
0.481831
0.0337814
0.229656
0.0698435
1.75265
0.0283933
0.0205739
0.0272552
0.270315
0.0904274
0.873012
2.15885
0.344405
0.0261697
0.0429894
0.0251207
0.023224
0.0635166
0.0212775
0.0218495
0.0844315
0.0209852
0.120408
0.063859
5.02404
0.0232546
0.021349
0.280249
0.236499
0.0207362
0.0220058
0.0644792
2.60065
0.0215518
0.305127
0.0660952
0.0431619
0.0340055
0.10474
0.0867437
0.0216902
0.0358639
0.0215888
0.270074
0.208844
0.0489039
0.0230949
0.0469834
0.0262765
0.487765
5.20341
0.0971637
0.0242678
0.168445
0.0240753
0.023091
4.83016
0.0205528
0.0254921
10.754
0.0675944
0.062046
0.240091
4.40848
0.0223066
0.309125
0.0215444
0.065126
0.0299879
4.96945
0.438107
2.08797
3.57858
0.244705
0.137255
1.1956
0.281605
0.162872
0.0234249
0.021156
0.0286466
0.078284
4.30452
0.247757
0.20157
7.02931
0.83368
0.37098
0.0913687
0.064871
0.0228224
0.0372511
0.0215516
0.0233112
6.21043
20.3934
2.55749
4.16222
0.0288688
0.0496663
0.0218846
0.0234999
0.586612
0.021461
0.0883163
0.0339164
0.0209781
0.178329
2.16737
0.951992
2.16491
2.14708
0.0213697
0.0214166
0.0158699
0.0647996
0.0232601
3.50118
0.0204103
2.08317
0.0388402
0.0234793
0.100153
0.0275782
3.87067
0.0283594
0.0283461
0.0216237
0.0364431
0.0252903
0.0216458
0.0352469
0.0269627
0.19015
0.0106282
0.134441
0.00647532
0.0228811
7.16263
1.93798
0.13417
0.536544
0.0215113
2.52575
0.83654
0.356951
0.057857
0.0371744
0.0238575
0.205129
1.98861
1.42599
2.50529
3.18889
0.125269
0.0240189
0.0217583
0.0213606
0.0227998
0.0269612
0.108391
0.0211514
0.0214538
2.16571
0.0212327
2.1192
9.97339
0.0218093
10.7884
0.0234599
0.0950251
0.0260623
0.04076
0.39988
0.0214759
0.0315031
0.036108
0.0215992
0.0608877
0.0933011
0.0403982
0.0898079
0.100547
0.11188
0.0500303
0.0211558
0.0252803
0.0507946
2.58721
0.0243895
0.0236183
2.55661
0.0736464
2.71101
0.0220422
0.843255
0.0422824
0.0327343
0.0945415
0.0430005
0.403148
0.24154
0.0197506
0.0259382
0.137701
0.0226774
0.2249
0.136197
0.0217143
0.0362799
0.0989293
0.0222448
0.0248608
0.021131
0.0332212
0.591214
1.52272
0.0401047
0.0217212
5.79326
0.053352
0.0256236
0.0277355
0.0285457
0.103555
0.0214688
6.19419
2.17656
0.0215979
0.104789
0.0227487
0.023311
0.0339121
0.0355533
1.45642
0.378263
0.056996
0.103109
0.0211065
0.55064
0.0932589
0.0211787
0.0269367
0.0529688
0.0210107
0.0262299
0.023618
0.855936
0.0277515
0.0376922
0.0217004
0.0249636
0.0776137
0.0417078
0.0250479
0.0233582
0.0433032
0.0288774
0.0248643
0.119458
0.0594549
0.0424574
0.0179921
0.0526703
0.0214498
1.87215
0.0210806
0.0942533
0.0215955
0.0235088
0.087753
0.0230668
0.0276041
0.0234247
0.0248655
0.031835
0.0275425
0.0429971
1.69492
0.0207697
0.0554977
0.0347281
0.105246
0.0335383
0.0247047
0.030395
0.0298481
2.31863
0.0229146
0.0476615
0.0215722
0.0517368
0.0254592
0.028002
0.0219088
0.0437348
0.0200111
0.167979
0.359539
0.8003
0.0271276
0.025655
0.0297386
0.0215492
0.385549
0.0511883
0.0375382
0.024538
0.127446
0.0210136
1.12467
0.307482
2.12392
0.0231824
0.0232789
0.0797525
0.0231582
0.0622624
0.0345674
0.913708
0.0228484
0.0632565
0.0257321
0.0296173
0.851804
1.78521
0.0215749
0.023729
0.143452
0.0238553
0.0248421
0.0215288
0.0217479
0.0457495
0.0428907
1.17111
0.0224784
0.0252278
0.447903
0.026345
0.0536687
0.0205925
0.757593
5.44367
0.053457
0.0252752
0.0884992
0.0333253
0.0221105
0.0614633
0.033807
0.0234031
0.0715745
0.0243519
0.822994
0.164293
0.0215873
0.0860326
0.0387419
0.0222446
0.0212529
0.0228678
0.0491023
0.0272704
0.0285953
0.020722
0.0355155
0.526897
0.0224304
0.102866
0.0341203
0.0325839
0.0231885
0.0331195
0.844932
2.72726
0.0694191
5.83226
0.0206704
0.20579
0.033809
0.458975
0.0871795
0.0638415
0.0214559
0.0746647
0.0224315
0.577813
0.17624
0.0379743
0.0834889
0.0237256
0.0562371
0.0206419
3.75834
0.328903
0.0214604
0.0242104
0.278269
0.0253177
0.839219
0.0214705
0.0418396
0.0511289
0.0411802
0.547951
1.85237
0.408657
0.0374556
2.3489
0.0251396
0.0298174
0.045008
14.1474
0.234317
0.0213706
0.0854652
4.33896
0.0596009
0.0248274
0.0253108
0.0213243
0.0224721
0.0222058
0.0831737
0.0233747
0.0792914
11.1177
0.742446
11.0678
0.0231489
0.0217102
0.05404
0.0285725
0.020892
0.0612201
0.0200495
0.0223765
0.0329325
0.0231379
0.0502355
0.045293
0.0597235
0.0240531
0.0227717
0.0275865
0.0233155
0.0221754
0.0210707
1.70369
0.13367
6.67629
0.0244969
0.0461612
0.0577692
4.70245
0.0289425
0.0323981
10.7763
2.17564
0.0268507
0.0241884
0.0215696
0.0880045
0.0421144
0.0213203
0.0220912
0.0236849
0.0316569
0.0527449
0.0229428
0.0598065
0.0227406
0.201909
0.0214709
0.0663375
3.32485
0.0215597
0.02634
0.0230372
0.496139
1.69999
0.0227134
0.963709
0.297348
0.0227994
0.0522023
0.0563762
0.631165
0.138877
0.207907
0.0309706
0.0213224
0.0218434
0.0234633
0.0277731
0.0218667
0.486806
3.37964
0.0229851
0.0299707
0.0199471
0.0214656
0.321726
0.0449551
2.06494
0.0288081
0.0216219
0.0256198
0.023172
0.0278927
0.928377
0.025553
0.0223657
0.0284918
0.0215616
0.0393461
0.0278255
0.0622966
0.0365809
0.0211557
2.53377
0.031278
0.324819
0.0225914
0.0968787
0.0265989
0.144975
0.831604
0.0212699
0.0230853
0.0268329
0.0938031
0.0645282
0.185473
1.60218
0.0228739
0.839253
0.0258133
0.02498
1.92815
0.0577913
0.596124
0.354368
0.137982
0.0253065
0.0422633
0.0227975
0.0820264
0.0226723
0.0234719
0.0236557
0.0372344
0.02335
0.0220048
0.478109
0.0214043
0.0455976
0.0489178
0.0228161
0.0214527
0.0228218
7.53078
0.0212424
0.0209428
1.52147
0.0215275
0.0232081
0.850144
0.0325708
1.86111
0.022546
0.269017
0.0207469
0.226017
1.30678
0.0214447
0.229388
0.0482281
0.0238133
0.0421865
0.814161
0.0419291
0.0266471
0.0680808
4.04518
0.021611
0.0231173
0.0210762
0.0214654
0.127652
0.0913316
0.022578
0.0211019
0.0232585
0.0235597
0.0216732
0.794973
0.021075
0.0368926
0.837099
0.13955
0.0327262
0.0231461
0.134895