/*--------------------------------*- C++ -*----------------------------------*\
| =========                 |                                                 |
| \\      /  F ield         | OpenFOAM: The Open Source CFD Toolbox           |
|  \\    /   O peration     | Version:  v2012                                 |
|   \\  /    A nd           | Website:  www.openfoam.com                      |
|    \\/     M anipulation  |                                                 |
\*---------------------------------------------------------------------------*/
FoamFile
{
    version     2.0;
    format      ascii;
    class       volScalarField;
    location    "350";
    object      ddt0(k);
}
// * * * * * * * * * * * * * * * * * * * * * * * * * * * * * * * * * * * * * //

dimensions      [0 2 -3 0 0 0 0];


internalField   nonuniform List<scalar> 
14315
(
0.00228864
0.000150613
-1.48001e-08
2.64955e-08
-2.12414e-06
1.05668e-11
0.000211306
-4.61098e-08
-3.44759e-08
-2.48283e-08
0.000122879
9.38277e-06
0.00179738
5.40452e-08
4.84971e-05
7.12222e-09
4.5281e-08
-6.57299e-09
3.21793e-08
1.00748e-08
-3.05123e-08
-0.000214965
-7.32416e-08
1.32246e-05
2.22172e-08
6.08381e-05
-8.32851e-08
0.000238984
2.09675e-05
-1.59192e-05
-4.16585e-09
3.09711e-08
-2.735e-08
-0.00046186
-5.23681e-05
-0.000349131
-0.00089681
3.65477e-08
-1.24989e-05
-1.82225e-07
1.30581e-06
-0.00398843
-8.86206e-08
-1.40394e-08
8.49091e-09
1.10967e-07
-2.18258e-06
4.94363e-05
5.43197e-05
1.60762e-07
2.34644e-05
3.62279e-08
5.06603e-05
3.03995e-05
-5.81895e-08
-0.000298749
-0.000178151
1.00002e-08
-1.15963e-07
-6.2797e-08
0.000227985
-0.000553445
-0.000289372
9.38634e-08
8.19152e-05
-0.00255356
0.00214777
-7.83803e-08
7.74897e-08
-1.91249e-08
2.69299e-05
4.17116e-08
-0.000127509
0.00171225
4.49483e-08
0.00326486
1.2572e-08
0.000594975
4.86476e-09
-1.62072e-08
-1.81673e-08
0.00068859
4.29348e-08
0.000516322
-7.18655e-09
-5.54356e-09
0.00401607
-1.66592e-05
4.6973e-05
-0.000109738
-1.73431e-08
-3.29268e-05
-3.32893e-08
7.14598e-09
-3.94264e-05
-4.90194e-05
-2.93354e-08
-8.80724e-05
-0.000198716
-0.000157279
8.93231e-08
7.13496e-05
-0.00032541
4.9455e-08
-0.000220879
3.46996e-06
6.90572e-05
0.000126663
3.32864e-08
1.68273e-06
-4.80937e-05
1.30361e-09
7.83999e-05
5.06271e-08
8.87406e-09
-2.08714e-05
2.19794e-08
4.64433e-05
-0.000576743
-7.78644e-06
0.00143256
-1.04401e-08
-3.48851e-08
-3.77656e-05
-2.84616e-06
1.03359e-08
7.16916e-05
-2.36761e-09
7.16236e-08
-1.87644e-05
-1.79435e-05
0.000196017
-0.00387722
3.63789e-05
9.16205e-06
-3.29611e-09
-1.0094e-07
0.0004556
-2.60644e-08
6.72566e-08
0.000446703
-2.46715e-05
5.96998e-08
-0.000101174
9.52542e-06
-8.72898e-06
1.48713e-05
0.000844838
-2.21815e-08
1.78031e-08
-9.91779e-08
2.88517e-05
-6.31912e-08
-2.50191e-08
-6.05565e-08
5.18649e-05
-1.16421e-07
3.81097e-09
2.12114e-08
0.000423708
-7.10452e-08
3.00361e-05
0.000937498
-1.67889e-05
6.20141e-10
0.000141299
1.95671e-05
-2.92978e-05
0.000827103
7.73586e-05
0.00162244
-3.67138e-09
-1.7569e-05
-2.84933e-08
1.36213e-08
-0.0023731
9.09801e-09
-0.000256822
-4.47101e-05
-1.45366e-05
0.000151748
1.5879e-08
-3.02063e-08
0.0010727
-9.32401e-08
5.45379e-08
-1.13087e-06
-5.41923e-06
-0.000229459
0.000115688
-7.20987e-08
6.39063e-05
1.32413e-05
-0.00445722
7.09989e-09
-0.000735546
8.8169e-07
-1.60944e-09
-3.19081e-09
-5.25596e-05
-3.53353e-05
-4.54277e-08
-1.97069e-05
1.58015e-05
-5.11484e-09
1.51667e-05
4.67486e-05
4.64505e-08
2.05369e-08
-7.22462e-05
-0.000134757
6.65894e-08
-2.69583e-05
1.47774e-07
-6.82413e-05
-0.000808647
0.000755337
-0.000243035
-7.20759e-05
5.00282e-06
-5.11531e-08
2.8438e-08
6.00148e-07
-6.4727e-08
-0.00048562
-6.69284e-08
1.95585e-09
0.000708966
-0.000151332
0.00106858
-3.51515e-09
5.75312e-09
-1.02933e-06
-1.8606e-09
-5.38508e-09
0.000181867
-5.73224e-09
5.98316e-08
1.48873e-05
0.000301888
2.64924e-08
1.13885e-08
-0.00165827
-5.02384e-06
-0.00153165
-4.32153e-06
0.000332536
3.46511e-09
0.000328308
-0.0063499
-1.87917e-09
1.27107e-08
0.000769718
0.00292881
9.46881e-09
-0.000368615
3.17102e-08
-1.11242e-05
0.000386951
-7.66118e-06
-0.00396637
-1.02455e-08
-4.25032e-05
-0.0063623
-0.000685192
2.77526e-08
8.78597e-08
1.52746e-08
1.50955e-09
2.14319e-05
0.000348393
-4.26833e-08
-0.000434912
-2.07965e-05
-3.96878e-08
0.000239202
-1.93507e-05
6.4348e-10
0.000259135
-0.000116955
-1.57501e-08
-8.54632e-08
0.000232058
0.00070213
-4.56522e-08
-1.07085e-05
-0.000292787
0.000241998
2.82736e-05
0.000104028
1.58211e-08
-0.000329289
1.23387e-06
0.000341334
1.50884e-05
-1.85705e-07
0.000120465
1.38694e-07
-7.24743e-08
-2.14012e-08
-1.74473e-09
-0.000264591
0.000554701
0.000195548
4.67535e-08
5.47849e-08
-8.34036e-06
-0.00024651
2.18918e-08
-1.14838e-08
9.79704e-05
4.0601e-08
-0.000686371
-3.90854e-06
-2.79843e-07
1.28165e-05
3.83675e-08
2.75019e-08
-3.73415e-08
1.91908e-09
-3.3173e-05
0.00388494
-8.6881e-05
1.40195e-08
0.00391369
3.11921e-09
0.000131806
2.9605e-05
-0.000159872
-6.17402e-09
2.23625e-08
-3.03317e-05
1.11722e-07
1.48745e-05
-0.000898773
1.70692e-07
-5.83833e-06
0.000864155
0.000410062
-0.000275125
1.10015e-08
0.00142608
1.31595e-08
1.80563e-09
-0.000509952
-6.18823e-09
9.009e-09
-0.00067923
6.30097e-06
-7.25892e-05
2.1716e-07
-1.0823e-07
2.03397e-05
-5.32787e-06
-0.00211818
-6.64402e-08
-2.27313e-08
7.34927e-09
4.78053e-09
1.70398e-05
3.36147e-06
-0.000491642
0.000996531
-0.000654854
-0.000241281
0.000206089
-1.33047e-08
-4.51883e-06
0.000214164
-1.16865e-08
0.00202606
-9.09155e-08
-1.07423e-07
0.000334776
-3.18162e-05
4.81003e-08
-4.34445e-08
1.48925e-07
-3.47742e-08
-0.000260395
-1.76587e-05
6.49358e-08
-4.70861e-09
0.0012109
4.5618e-06
-0.000104919
5.06042e-07
-0.000353358
-0.00016456
-0.00186417
-1.88769e-08
-1.38902e-05
0.000452746
-0.000443757
-2.18534e-05
-0.000331633
-8.23251e-07
1.47687e-07
3.47675e-08
-5.22316e-05
-2.53115e-08
1.15814e-07
8.5139e-09
6.51808e-05
-0.000268027
-6.43732e-05
-2.00144e-05
0.00360604
-0.000456877
-0.000303353
-1.50856e-11
-0.000167863
5.94027e-05
-8.83493e-08
-2.63019e-08
4.50253e-08
1.82733e-05
0.000203499
-7.35338e-09
-0.000837674
-4.14005e-08
-0.00224041
-1.55628e-05
9.60257e-08
1.51466e-07
-9.5806e-05
-0.000515077
-9.73973e-08
-4.2616e-09
2.51494e-09
-4.31324e-05
0.000417677
-1.51578e-07
-9.95331e-09
-0.001642
-6.34647e-08
-1.44455e-06
-7.34476e-05
-7.76088e-08
-1.13851e-07
0.0016136
-3.82983e-08
-2.55672e-05
6.01038e-08
2.27683e-08
-6.30223e-06
-3.56084e-06
-0.000108293
-1.77477e-07
-5.23274e-08
-0.000507215
-1.70001e-05
-6.10124e-08
-4.39308e-08
-3.95703e-08
-5.12068e-05
0.00177727
-7.38115e-05
-0.000195223
4.76088e-06
1.19722e-07
0.000494561
5.05162e-05
-1.5484e-06
-0.000319171
-0.00116185
-2.37616e-05
-8.99869e-06
-5.49321e-08
-7.00765e-06
-1.2526e-08
-9.79711e-06
-6.79512e-05
-1.47849e-08
-2.87918e-05
-7.01705e-08
2.02214e-10
8.05089e-08
-6.30503e-05
-2.18975e-05
-1.38125e-06
0.000991674
-6.12531e-06
1.43129e-05
0.00017297
-4.76475e-05
-5.69165e-08
-0.000212206
-1.0356e-07
1.10448e-06
-6.28291e-09
0.00227023
7.17224e-08
6.09894e-08
-0.000546726
-9.04142e-06
-1.56098e-07
-1.82097e-08
0.0012835
0.000450798
8.27225e-05
-0.000651257
-2.75051e-05
3.18413e-08
-6.13383e-08
-3.36936e-08
-6.81007e-05
1.06553e-06
-1.06287e-08
3.47561e-08
0.000464409
-5.79841e-09
-2.52472e-09
-4.13722e-08
5.20212e-05
-2.60109e-05
-1.90061e-06
-0.00027329
-0.000552473
7.46317e-07
-2.577e-05
-2.92155e-08
-6.36271e-08
-6.24062e-06
0.00175347
-5.98302e-05
-1.65798e-08
-1.20142e-07
2.5606e-06
-6.2927e-09
-1.18822e-07
6.82345e-07
4.48667e-08
-2.6792e-08
-0.00106494
4.73386e-05
5.42142e-08
-2.36547e-05
1.32771e-06
-3.09482e-07
0.000311815
-1.86037e-08
3.51281e-05
0.00135905
-1.92042e-08
1.29199e-07
2.13844e-08
7.32638e-06
3.5322e-08
-3.95245e-06
1.69868e-08
7.28509e-08
-6.4433e-05
-0.000618415
0.000448926
0.000749414
3.14662e-06
7.43351e-08
-8.31414e-09
6.52497e-08
-2.84945e-05
-0.000368471
1.5153e-06
1.55094e-05
-5.09374e-05
4.31197e-05
-6.23365e-08
1.59616e-08
1.05101e-08
6.49485e-08
0.00027969
-2.21408e-08
-3.04998e-05
-6.97478e-06
-2.84735e-05
-3.59027e-09
-1.72762e-09
3.33555e-08
-0.00775595
1.62042e-08
0.000186788
2.12904e-07
-6.6345e-08
-0.00284019
3.60738e-08
1.84388e-08
-1.25976e-09
2.28514e-08
3.27634e-06
-2.51894e-08
1.25931e-05
-1.78821e-08
2.82203e-06
3.83532e-07
-1.65112e-05
3.30047e-09
-0.000776247
-1.72691e-08
0.000254886
1.95344e-05
9.18027e-09
-0.0026989
0.000345225
0.00346755
2.39486e-08
-1.2736e-07
-0.000717444
-2.64719e-08
-4.27191e-08
-0.0123948
2.04505e-05
4.36807e-06
2.88765e-05
1.78433e-08
0.000667981
-1.14266e-07
-3.95801e-06
1.48861e-05
-1.21859e-07
-3.56749e-08
-1.20634e-05
-0.00013851
5.17029e-10
4.09941e-05
-2.73863e-05
1.85695e-08
1.63754e-08
-0.000388168
-7.44388e-05
-9.52445e-05
1.92242e-08
1.39486e-06
-4.15983e-08
-2.93992e-08
1.42055e-06
4.54504e-08
3.99139e-06
-4.08051e-09
-5.43193e-05
7.80248e-08
3.86334e-08
1.27967e-07
1.20359e-08
0.000231592
0.000389412
2.26261e-05
-5.08438e-08
-2.57217e-08
-2.90602e-08
4.79778e-09
-0.00153937
-0.00378684
-0.000133005
5.66227e-07
1.34809e-05
0.0019077
-1.06564e-07
-1.44982e-08
-1.31154e-05
-3.93814e-05
4.35405e-08
-1.32437e-09
-0.00538021
-0.000154307
6.52221e-05
-0.00229423
-4.76746e-09
5.65535e-08
-6.66743e-05
-9.11301e-08
4.67079e-05
2.43292e-08
1.09857e-05
-2.09214e-09
6.48547e-09
5.87623e-08
-0.00319295
0.000324378
-2.60815e-08
-0.0077952
-2.46272e-08
1.10592e-07
0.000117134
-8.1484e-05
-6.53151e-08
4.45543e-05
0.000817467
0.000859532
-0.000540408
-3.83571e-08
-2.88309e-08
-2.39497e-09
-9.52542e-09
8.63452e-08
2.37217e-08
0.00252091
0.000374124
-4.36812e-08
-1.50543e-09
-6.5021e-08
-5.43105e-08
2.2529e-05
3.68394e-09
1.35426e-07
-3.08924e-07
-5.26629e-08
-3.32797e-06
0.000422051
1.00765e-05
-0.000438348
8.39946e-09
-4.82889e-06
1.46279e-08
-3.84995e-08
-1.62808e-08
-6.86413e-09
-7.1896e-09
9.49466e-08
2.68973e-08
2.67562e-08
5.97006e-08
-0.000232865
3.25486e-08
-5.34243e-08
-1.86356e-07
-5.43908e-09
-2.48298e-08
4.34204e-07
-6.75479e-10
-0.00940151
-3.57156e-08
-4.59705e-08
0.000360638
-0.000314277
-1.89786e-05
0.00031455
3.43767e-08
-9.15082e-06
-1.70844e-07
1.86928e-08
0.00416019
-4.1275e-09
2.25127e-08
1.3974e-07
1.0128e-07
4.39226e-06
2.67656e-09
-0.00166423
-6.83979e-08
0.000335996
0.00135525
1.1693e-06
-5.60834e-08
3.31646e-05
0.000208957
6.04943e-06
7.7053e-08
7.19833e-05
4.96354e-07
0.000296049
4.61476e-07
-3.42657e-05
-2.82305e-05
-0.00121166
0.00062789
7.93083e-08
9.54207e-07
-2.67588e-08
1.31074e-07
-0.00135068
0.000178267
-2.99851e-08
-1.77537e-08
0.00101773
-1.14092e-05
-0.00430243
-5.61534e-11
0.000632076
0.000575548
0.000405207
-0.000798316
2.39082e-08
-0.00234413
-0.000477219
6.08728e-05
-5.08967e-08
0.00068717
-1.50056e-07
-9.08515e-09
-2.22102e-08
-1.21571e-07
-6.76204e-08
5.92132e-05
0.000238096
6.46725e-09
-1.85755e-07
-5.42258e-08
0.000202131
-6.5971e-06
4.69309e-08
9.32886e-05
3.02533e-05
-1.41663e-05
4.71098e-08
-1.31868e-05
-4.53746e-08
1.98917e-08
-4.95101e-08
-0.000108004
3.94838e-05
3.40747e-08
0.000145531
-1.54662e-05
0.000108209
-6.90126e-05
-5.3213e-07
0.00029389
-8.50805e-08
-0.00103895
-4.47788e-08
4.68247e-08
-1.92466e-07
1.54332e-06
7.46252e-08
-1.80501e-09
-6.93215e-08
-8.44557e-08
-0.00240689
-7.26396e-08
1.28241e-07
-7.31414e-05
-1.86769e-05
-0.000260362
-1.41958e-05
-4.93518e-08
1.21834e-05
1.41293e-08
5.67843e-09
2.27838e-05
-2.31017e-07
0.000115345
-0.000115989
-8.26971e-05
-0.000580443
5.22481e-05
-1.288e-05
0.0024895
0.000339726
4.72308e-08
4.07596e-08
-5.48343e-08
-0.000290648
0.000165207
-6.93626e-05
5.96621e-05
5.63991e-10
-7.73317e-05
-2.12916e-05
-2.48184e-08
0.0016199
-1.08516e-06
-1.14919e-05
-1.6466e-07
2.47153e-08
3.55804e-08
2.57839e-10
-5.45766e-05
-8.18372e-10
0.00208061
1.29677e-08
-5.00923e-08
-3.82248e-08
0.00113244
-1.03983e-07
-1.03484e-09
4.55587e-08
-3.4097e-05
3.4229e-08
-3.57825e-07
2.66547e-08
-1.68648e-05
-1.44528e-08
-2.29066e-08
2.02307e-09
-0.000109565
3.63478e-08
4.24022e-05
-2.48654e-09
0.000117805
-1.57118e-08
2.50563e-05
-2.16921e-05
2.72505e-10
-0.00103175
0.000409948
0.000970594
0.000168776
2.22343e-08
9.4001e-06
-0.000800286
-2.15655e-05
1.97071e-08
-6.09642e-09
0.000491804
-1.02899e-08
0.000703986
7.81767e-10
-1.89823e-05
1.98712e-05
1.8694e-05
-2.28111e-08
-0.000265252
-1.24111e-05
7.24773e-08
3.20612e-05
-4.003e-08
2.4261e-08
-1.86915e-05
-6.39548e-05
1.49666e-08
2.92509e-07
4.0047e-05
4.7522e-08
0.000252942
1.79809e-08
-3.86384e-06
4.15673e-08
0.000928447
-0.0010461
-0.0035461
-6.22958e-09
2.38973e-10
-0.000467005
6.82746e-08
-0.00173645
-2.31869e-07
3.17301e-08
0.000421156
0.000438547
-0.000162236
-0.000979427
-1.90313e-08
-0.000812013
3.05589e-08
-3.5188e-08
-0.000244142
0.000561394
0.000309319
1.64659e-06
-0.000888752
-4.08932e-05
-0.000557913
-0.000264569
-3.16995e-05
-1.23558e-05
-0.00161407
-1.03514e-07
6.37547e-08
-5.26897e-08
8.22539e-08
4.04415e-05
-0.000160524
-1.22885e-07
0.00043716
0.00135846
9.60752e-08
-0.00118447
-6.17983e-08
0.00372717
-3.88233e-06
-1.16945e-05
-0.00045675
0.00126498
-1.13787e-08
-0.000129966
2.56076e-07
4.9896e-09
1.55275e-08
-4.22897e-08
0.00149769
1.78561e-08
1.707e-08
2.44998e-05
1.85909e-09
0.000404457
4.06803e-08
7.25811e-05
0.000140161
1.99556e-08
9.78109e-05
-8.6985e-06
-1.88653e-05
2.71916e-05
0.000131163
-0.000502414
6.00659e-06
4.42725e-05
-2.54131e-07
6.18619e-09
-2.34771e-05
-2.68394e-08
-0.00127276
3.52798e-07
2.48659e-08
-0.000175336
1.18321e-07
-2.37508e-05
6.44886e-08
-7.50414e-08
-1.81696e-05
-5.54849e-05
4.50578e-05
-2.22186e-08
-6.2865e-05
-0.000216972
3.07921e-05
-0.00230785
-1.90451e-06
7.69261e-06
-6.09398e-06
2.28571e-09
2.44712e-08
-3.63982e-08
-1.77806e-05
-4.27536e-05
2.29906e-09
-0.000355472
-0.000103406
-4.48002e-08
2.6602e-08
-4.3898e-05
1.19966e-08
-0.000501864
-0.00080221
-1.28094e-08
-4.78893e-08
-0.000131083
-3.70291e-08
0.00332977
0.000115742
1.68662e-09
-9.45184e-05
0.00149675
-3.94084e-08
1.68599e-07
-1.15817e-07
-1.03731e-07
-3.65122e-08
-2.15883e-05
-0.000132657
-2.12736e-08
1.59154e-05
0.000136995
3.11341e-08
3.23555e-08
8.1866e-06
7.55521e-08
-4.32988e-08
-3.16497e-05
6.34997e-10
-9.63345e-08
-4.51948e-05
1.42426e-08
-0.000598992
0.000119027
5.05232e-06
1.58222e-08
2.23851e-08
-0.00736016
1.7093e-09
-4.92559e-08
0.000119936
-4.8514e-05
-1.30737e-06
0.000412872
-0.000239498
0.000501416
7.63342e-07
-0.00133134
-0.000636367
-9.99767e-05
-0.00342336
5.64754e-08
-0.000467822
1.09952e-08
-0.00427177
5.23273e-07
-0.008146
4.48677e-08
1.4494e-05
-9.02841e-06
-2.35778e-09
-1.68906e-08
5.83692e-08
0.00165242
-2.15334e-07
0.000300747
4.62682e-05
1.37412e-05
-4.62015e-09
-1.37695e-06
-3.95444e-06
-6.85797e-08
-4.03479e-05
1.60074e-07
-0.000235008
-3.84461e-05
4.08265e-08
-0.000194223
0.000194472
3.66615e-08
-2.21093e-05
2.02388e-08
-2.78294e-05
5.81909e-09
-0.00850062
0.00100433
-9.60957e-08
-0.000486503
-2.5094e-07
-3.38816e-07
-0.000784503
1.51708e-08
0.00122266
-1.91391e-05
6.80325e-08
-1.56041e-07
1.03175e-05
2.00091e-07
-9.54916e-07
3.0651e-08
0.00105134
-0.000198426
-6.97288e-08
-0.000257808
6.7357e-06
7.65885e-06
3.46985e-08
-8.97871e-09
-0.00156971
-0.000197528
3.91617e-08
-1.36449e-07
0.00103299
-4.63769e-06
-2.32735e-06
-2.55627e-05
-0.000710075
3.01449e-08
-0.00149856
0.00013329
-2.81396e-08
0.00316318
3.31833e-08
-3.60073e-05
0.000758325
-2.78697e-09
-0.00177543
-1.96778e-07
-7.55021e-09
-1.34491e-05
-0.00138453
2.37427e-05
1.79732e-08
6.20818e-05
9.25462e-06
2.47359e-08
8.78948e-06
4.90033e-08
9.96732e-09
-1.04095e-07
5.26283e-08
-4.03961e-06
-2.50175e-08
-8.94249e-05
-4.68681e-08
0.001582
-8.26597e-09
-0.000320564
-0.000249297
-4.77888e-08
-2.23545e-07
2.2762e-08
-1.08617e-05
-0.00292784
-3.41681e-08
-2.40897e-05
-7.49671e-06
-3.2239e-08
-6.43379e-05
0.000452478
-0.00685665
-2.49467e-05
1.91484e-08
0.000316752
6.03968e-05
0.000399685
-5.18358e-06
-0.000291155
7.88694e-08
0.000655306
-5.6407e-08
1.77693e-05
3.53378e-07
1.5863e-08
1.79185e-06
-1.16695e-07
7.17392e-08
-0.000101754
0.00128662
0.000313803
9.17603e-07
-0.000918092
-0.00169658
-3.04837e-09
2.22238e-08
-4.38348e-06
-5.00529e-05
5.21043e-08
0.00132954
-2.00526e-05
-7.09535e-06
-3.39629e-05
-0.000112241
-5.83654e-08
-0.000795302
-4.28005e-08
-3.76791e-05
-2.79069e-08
-3.82195e-06
0.00220736
5.19898e-05
-3.81466e-08
-8.29394e-09
-2.60135e-05
-4.534e-08
-7.16154e-05
3.47061e-07
0.00143586
-9.04984e-05
-0.0037159
-0.000241569
-8.44765e-07
2.78722e-07
2.51674e-08
-6.06573e-05
8.979e-05
-0.000220264
0.000389364
-3.41354e-08
9.27106e-06
4.42321e-09
0.00110191
-5.73239e-08
-0.000565629
-8.84137e-09
-3.12712e-05
-3.68365e-05
-0.0023699
4.57535e-05
4.51692e-08
1.21793e-07
0.00417906
-2.4927e-08
-0.00238763
1.11427e-07
7.76309e-05
-7.21932e-08
0.000936474
-0.00202723
-2.52412e-07
7.69752e-09
0.00114174
0.000244079
4.46555e-08
3.44978e-08
-2.7892e-08
0.00011557
-8.13665e-08
0.00176565
-0.000168424
-5.67751e-05
-0.000180134
2.16424e-05
2.82788e-05
1.04536e-07
-0.000677712
-1.16079e-05
-1.00277e-07
-0.000325467
4.52676e-08
1.50476e-08
7.81499e-09
1.68587e-05
6.1851e-08
-0.0021835
0.00169638
4.65186e-06
1.21703e-07
-3.35801e-09
0.00216869
0.000105107
0.000218878
-1.16113e-08
1.01161e-08
-0.000142725
8.49832e-06
1.403e-09
0.000810696
-9.06277e-08
2.07375e-07
4.12516e-08
6.7264e-06
3.79312e-09
0.00176231
8.02276e-05
-1.214e-08
7.31386e-08
0.00415576
0.000464401
-0.00238811
-5.117e-06
-6.8791e-09
1.55229e-08
3.79924e-05
-6.6534e-09
0.00315118
1.20394e-05
-9.30853e-10
-2.95597e-09
0.000470059
4.51315e-08
2.30883e-08
1.43598e-08
-5.43087e-08
-1.06575e-08
-2.14611e-05
-0.000211949
0.000617605
0.00179796
0.000147035
0.00170661
7.89124e-07
1.24811e-07
-4.69865e-09
-1.02977e-05
1.83326e-07
6.69924e-08
5.50838e-09
0.000978006
0.00198191
-2.61375e-08
-8.99608e-08
0.00165652
4.20762e-05
3.08639e-05
-3.89491e-05
-1.89926e-05
-0.000126115
-9.82351e-08
-1.98728e-08
2.00192e-08
1.7107e-08
-6.13e-05
-0.000486552
-3.57552e-05
2.27412e-05
1.89232e-06
0.000264431
6.53367e-05
-8.48327e-08
0.00281782
2.5673e-07
5.56181e-08
9.14478e-05
-3.61391e-08
-6.34571e-08
0.000311398
7.66245e-06
-0.000162731
0.000635975
-0.000268027
1.24123e-07
1.17483e-09
-0.00113907
-1.47191e-06
-2.10404e-07
0.000779405
-0.000383656
-6.36623e-09
1.79943e-09
2.50409e-08
-5.42508e-08
0.00125301
-3.07466e-08
1.08967e-08
1.41366e-05
-3.22088e-05
9.57544e-06
-4.01083e-08
-6.25146e-09
0.00225343
-0.000470133
-1.51698e-08
-4.60077e-05
-5.52242e-05
0.000774413
0.000272257
-8.12468e-10
0.00060918
-3.77641e-08
1.26528e-07
-0.0015791
-2.70988e-10
4.71907e-08
1.3597e-08
-0.000448362
2.15283e-05
-1.88229e-05
4.30235e-05
0.00014256
-0.000309584
-0.000174188
1.89064e-08
-1.28879e-07
0.00047189
-8.20239e-08
-2.47349e-08
5.09382e-05
5.12871e-08
-0.000538374
-8.9882e-08
-1.83014e-08
3.60084e-08
1.02978e-06
9.57241e-05
1.77684e-06
2.83261e-08
4.45563e-08
3.3458e-05
-1.89812e-05
4.1607e-08
-4.0296e-08
0.000402181
9.31743e-08
-0.00143314
0.000304468
-4.75007e-08
-3.34585e-05
-5.40746e-08
1.0708e-08
-6.57319e-09
9.24592e-08
-9.86595e-09
-0.000200054
-0.000327736
2.28047e-05
0.00151279
5.84621e-08
-3.52538e-05
-1.83434e-08
6.26937e-05
-0.00138242
3.54206e-08
-0.0024504
2.34348e-08
-1.26819e-06
6.94952e-08
-5.58137e-08
-1.94441e-08
1.00761e-05
1.99549e-05
-0.000303193
0.00103319
-3.37368e-08
6.59458e-06
-0.000484883
0.0010115
-1.45111e-05
-6.61212e-05
-5.72672e-08
-7.98103e-08
-8.96783e-07
1.10644e-07
1.73704e-07
-3.79381e-09
-0.000432455
1.8045e-09
1.15859e-07
-8.88875e-06
-1.21581e-08
8.49629e-10
-0.000264608
-4.51236e-09
-7.46549e-06
-3.12446e-08
0.0036214
0.00160279
-0.00461637
0.00328673
1.61111e-09
-0.000162873
9.42068e-06
-4.37107e-07
-5.23558e-09
-1.47572e-05
2.88591e-08
8.50044e-08
0.000150524
-1.34154e-10
-0.000717171
-4.00054e-08
0.000730506
2.8122e-06
0.00349353
-8.71285e-08
-0.000575692
1.66137e-08
5.42722e-09
-1.9863e-08
-7.08607e-08
-1.23385e-08
-0.00173555
-0.000200485
2.45774e-05
0.00036071
5.97733e-07
3.74738e-08
-1.38927e-08
0.000578201
-2.90004e-08
1.92948e-07
0.000368175
-1.58009e-08
-0.00032784
0.000201986
-0.000887991
0.000139281
-2.16625e-08
-0.00436562
0.000561639
-5.82501e-09
1.33411e-08
-0.000313268
-0.00263693
8.53818e-05
3.61901e-08
-7.92898e-08
4.9532e-09
0.00011117
0.000409987
-2.24453e-08
0.0023855
-0.00122581
-1.1214e-07
-9.95549e-08
2.72041e-08
2.98959e-08
1.94843e-08
-7.84226e-09
0.00013345
-0.000105774
2.9355e-07
-4.15321e-09
-1.42004e-08
0.00115502
0.000677058
-8.66527e-08
6.04407e-05
-3.18124e-08
1.4137e-07
7.28538e-08
7.53933e-10
2.48256e-08
0.000117188
-1.73906e-07
0.00256196
-0.000418531
-6.20491e-09
-1.30263e-05
-0.00148013
1.22736e-07
3.38166e-08
0.00164147
-4.12677e-08
1.25524e-08
1.68143e-07
-4.46444e-08
3.25944e-05
-6.21448e-06
2.21611e-07
-2.6918e-07
-0.000483284
-0.000370032
-2.42132e-07
7.94661e-08
0.000319704
-0.00171415
-0.000343226
0.000279612
-0.000453539
-3.13535e-08
3.16014e-08
-2.45468e-08
-0.00427942
-2.78624e-08
-0.00382818
-0.000106579
8.13047e-05
2.80462e-08
0.000358111
-0.000309714
1.35864e-08
1.32877e-08
-5.33913e-08
-1.22022e-05
-4.90937e-09
-1.63734e-05
-1.24828e-09
0.000299537
1.1064e-08
7.68662e-05
1.39956e-06
-1.89838e-05
4.6694e-08
-0.000385978
-5.33842e-08
-9.39228e-08
0.00033952
-3.09009e-08
-1.48075e-07
3.44609e-08
-8.96887e-08
-0.00353655
2.96318e-08
0.00218047
6.066e-08
0.000128711
0.00148239
-5.58413e-08
-0.00127196
-2.76334e-08
3.04697e-09
-0.000278986
0.00310839
-0.000418442
-0.00136007
-0.000498264
0.000379128
-0.00177122
3.30301e-05
-5.12721e-09
-2.32199e-08
1.27863e-08
3.3068e-09
-1.85335e-08
-0.00016594
0.000274375
-6.06387e-09
-6.00601e-08
4.50682e-08
0.000233636
-6.34063e-08
4.94532e-10
0.000144691
-5.09441e-08
-2.70376e-05
-1.34495e-07
-6.23854e-06
-5.874e-08
-9.34572e-06
2.11668e-08
-0.000442072
6.52194e-05
4.44379e-08
-8.42111e-09
1.07729e-07
-2.77123e-08
-3.68335e-09
-0.00027002
-0.000994217
-4.82786e-08
-7.40521e-05
0.000590646
1.58693e-08
-1.87232e-06
0.00036896
1.27604e-05
0.000180784
-7.10444e-08
0.000362739
5.50141e-09
-3.88289e-05
7.97391e-09
-0.000813014
1.55321e-07
7.29403e-08
1.60663e-07
0.00103508
-0.00232367
-3.24799e-05
7.85602e-09
-0.000780097
3.46884e-05
0.000697914
6.50757e-08
2.17223e-08
-2.02996e-05
-9.11319e-05
1.11134e-07
0.00299088
4.55514e-08
-6.73472e-05
-0.00110404
-4.5628e-05
9.47635e-09
-1.03813e-07
-5.31923e-05
0.00100891
-0.00225747
-3.64818e-08
-8.70522e-09
1.62076e-08
5.36685e-08
1.50165e-09
2.79682e-06
1.42969e-08
1.58952e-08
0.000262446
-0.000141514
-0.000113067
-2.51186e-08
2.40133e-08
0.000201136
0.000151511
-2.23885e-07
0.000459678
-0.000252274
3.40874e-08
-0.000420969
0.000465932
-0.00109554
0.00022657
2.18359e-09
0.00019367
1.07103e-06
-4.71114e-05
3.4481e-08
1.00688e-07
-0.00830219
4.41352e-05
0.00182311
1.17139e-05
-2.86506e-08
8.74958e-05
7.98657e-06
1.21995e-07
-0.0048921
-4.27062e-08
3.36896e-05
-4.87291e-09
-6.15023e-08
-2.42016e-05
-5.48505e-08
9.23086e-06
-4.90348e-08
-0.00015826
6.08953e-06
-2.00793e-08
4.59756e-08
1.44606e-07
-5.04657e-08
0.00019378
1.08932e-07
-3.24196e-09
-7.80255e-08
-0.00200063
-0.000984492
1.50491e-06
-0.0115709
2.75711e-08
-1.8494e-09
2.11949e-08
-2.89587e-06
2.86464e-08
3.89542e-05
0.000376714
-8.19947e-09
0.000137897
1.71688e-07
4.24398e-08
8.90658e-09
-6.61408e-09
0.000379423
6.45436e-08
-4.89421e-08
0.0036538
-8.76051e-08
-1.72587e-08
-0.00275253
-1.49273e-07
-0.000626932
-0.00291541
-0.000323356
0.00163772
0.00200837
-5.64207e-06
-1.44333e-05
1.73136e-08
-4.5837e-06
5.0518e-08
-8.50769e-08
5.17741e-09
-0.00402378
1.29013e-08
5.67474e-08
0.00145424
0.000393001
-0.000159436
-1.65867e-08
2.05035e-07
-4.73586e-08
1.83446e-09
0.000109505
-2.54487e-08
4.07774e-08
0.000261983
7.17922e-06
-0.00111502
0.000337818
-1.48585e-05
1.325e-05
-5.9745e-08
-5.28617e-07
0.000552416
-4.81605e-08
-4.28324e-07
-0.000396885
3.93158e-09
-7.0033e-08
3.926e-08
9.73504e-08
-2.08472e-08
3.78862e-08
-5.02416e-05
-2.19363e-05
-4.46681e-08
-7.29527e-06
6.27498e-06
2.19581e-05
2.24318e-08
3.97026e-09
1.50482e-08
3.19557e-08
-0.000213451
-1.08939e-08
-2.11693e-08
1.20042e-07
0.000119429
-6.80141e-08
1.13726e-07
1.37855e-05
2.62543e-08
-7.8963e-06
2.61374e-08
1.98212e-10
-3.87642e-08
-4.20834e-09
-2.21224e-09
-9.72078e-08
-6.65559e-08
-0.000291877
4.39971e-08
-0.000163359
-9.07985e-09
-9.45029e-05
-1.78617e-08
9.05095e-08
-5.58495e-09
1.74253e-07
8.92491e-09
-0.00393835
0.000418321
-1.08697e-07
-0.000671581
4.47728e-08
-0.00123577
2.05767e-10
6.79576e-08
-6.15966e-08
-7.18412e-05
-0.000237392
-0.00516061
-0.000483084
-3.54739e-08
3.01495e-09
-1.17499e-05
-0.000249858
0.000202563
-1.28235e-07
1.0122e-07
-2.70752e-05
1.55128e-07
6.3726e-08
0.0020927
5.677e-05
1.81801e-08
-0.00027899
8.79265e-06
6.76729e-05
2.61205e-09
-1.87965e-05
0.000374934
-2.39723e-08
-6.89645e-08
-8.53054e-09
-2.56293e-08
-0.000123486
7.48383e-08
-0.000621557
-0.0014911
-4.1599e-05
0.000203168
-1.42899e-05
-4.63728e-08
-0.00682582
0.000376917
-2.62556e-06
-0.000663465
1.02315e-08
0.00114488
2.8576e-10
-0.000288517
-0.00437838
-1.36894e-08
5.40703e-09
5.4815e-09
-0.000506759
3.20422e-08
8.91636e-06
0.000791882
-1.52075e-08
6.21989e-05
-1.74407e-09
-2.37672e-08
-1.33005e-06
-1.64762e-08
-1.57681e-05
-6.77151e-08
0.0027129
3.71813e-08
-0.000136903
0.0014069
-0.000231065
-4.37155e-08
1.25665e-08
-2.0894e-08
7.76451e-09
2.18328e-08
0.00107313
0.00609076
0.000806379
6.53284e-05
-0.00161219
-0.000334695
1.65502e-07
1.50207e-08
-2.54813e-09
3.49315e-08
1.87974e-08
0.000428522
1.37892e-06
-3.49257e-05
-5.74763e-08
0.00292684
8.28011e-05
2.11429e-09
-2.75976e-08
-2.25342e-06
0.000418782
-5.13054e-08
-1.18059e-07
-6.00065e-08
0.00185817
-0.000917157
6.02553e-05
0.00317198
1.40495e-08
-0.00215236
-1.77274e-08
4.86252e-06
3.71999e-05
3.96656e-08
9.81259e-09
3.80013e-09
-3.2415e-06
-0.000882389
2.90358e-08
-0.000520029
6.98783e-05
2.21557e-05
-1.08399e-06
2.1515e-08
-1.39538e-05
-0.00207808
-0.00184037
1.31601e-06
0.000377404
0.000777653
0.000346488
1.67516e-07
1.44313e-08
0.00253739
0.00729068
-0.000457558
1.21951e-08
-0.000217692
-9.68942e-05
7.69445e-08
-4.01076e-09
2.29325e-08
-4.98244e-08
3.99008e-09
1.00673e-08
1.46086e-08
5.69092e-08
0.000271908
-0.000121465
-1.61004e-09
-3.66847e-05
-6.80906e-05
-3.99897e-05
3.71632e-08
2.96964e-08
1.1567e-08
0.000514143
0.000278357
-0.00178291
0.000469916
-4.05315e-06
-0.000567019
-0.00217943
-5.84844e-07
-5.49682e-08
3.83048e-12
-0.000252997
-9.03767e-09
0.000168025
0.00067784
2.63158e-05
-0.00486422
0.000312265
0.00035197
3.36345e-08
2.39046e-06
2.65921e-05
0.000402875
-0.000401811
-0.000898935
3.8808e-08
8.73778e-05
6.92049e-05
-7.94698e-05
0.00156616
-0.00489713
3.11729e-06
-5.89777e-08
-0.00198244
0.000526448
3.33362e-08
-4.6226e-08
-0.00846496
2.58441e-05
2.62842e-08
0.000334268
0.00269939
0.00172354
-0.00121566
1.67671e-05
0.00032469
-0.000161333
-8.82667e-08
0.000496777
4.8755e-05
0.000181049
6.34869e-05
-6.62292e-05
0.000174457
0.00051887
-0.000123903
-1.84002e-07
1.08164e-07
6.86734e-08
-0.000455474
0.00116692
0.000475297
-0.000168276
0.000800112
-3.06313e-06
0.000130359
0.000236257
2.87381e-08
5.22123e-06
-3.89739e-08
0.000101739
2.37866e-08
-0.000425389
-0.000335884
1.35723e-07
4.26244e-08
-2.30324e-08
6.4983e-08
-6.8158e-08
-4.70671e-08
0.00329042
-1.54275e-07
1.05372e-05
0.000152689
3.91554e-08
-0.000149266
3.0171e-08
-3.41147e-05
-0.000216733
2.29266e-07
-0.000435128
5.14558e-09
1.88606e-05
0.00987961
0.000449898
-1.14603e-06
-0.00525198
-1.51308e-05
-7.18271e-08
0.00480631
0.00255751
0.000106612
9.7169e-08
4.69358e-05
-1.06764e-08
-0.000322617
0.00024174
-7.12153e-08
0.00113224
1.79671e-08
-2.11675e-08
-1.44606e-05
-5.62548e-08
2.3787e-08
0.000451695
4.87088e-08
-0.000492448
-3.16035e-08
1.49654e-05
-0.000300699
-4.62263e-09
1.49109e-05
-6.66078e-10
-2.34271e-05
-6.17606e-08
4.96527e-05
7.62282e-08
0.000383093
-8.74604e-08
-1.0895e-08
-8.01419e-05
6.24965e-07
-4.09602e-08
-2.22855e-08
7.70482e-05
-0.000329529
1.81052e-08
-0.00156785
0.000468703
-0.000278008
-0.000491238
-0.000298877
-1.61933e-05
-2.00576e-08
0.00197837
9.12127e-06
-0.00363735
-6.2474e-12
-2.41423e-08
6.73913e-08
-5.57163e-08
-8.28815e-09
0.000494349
-0.00504461
-0.000402554
-3.31773e-05
-2.5815e-06
8.35828e-05
1.97906e-08
-0.000112106
-0.000118046
6.47164e-09
-1.45448e-05
-1.79557e-09
-0.00170316
-0.00423674
-0.00305167
-1.2049e-08
4.40394e-05
1.02308e-08
5.40603e-10
0.000355039
2.38535e-08
8.50253e-06
1.07928e-08
3.92405e-08
2.79708e-05
-8.80046e-08
-6.78635e-08
-2.39054e-08
4.7713e-05
7.04071e-08
-1.38914e-07
-8.12361e-08
-1.8942e-07
0.000386695
-7.00827e-07
5.3149e-08
-0.000385908
6.46626e-08
-1.37272e-08
-3.02666e-08
1.00406e-07
-0.00295837
-9.42475e-09
0.00021965
2.56243e-05
-7.03771e-09
-0.000188199
-0.000390447
4.52172e-08
3.00914e-05
-0.000184519
-0.000624053
-0.00388957
1.92881e-05
-0.000502251
-2.2354e-08
-3.34896e-08
2.832e-08
0.00018991
0.000300556
-0.00037681
1.21329e-08
-5.09065e-06
5.37614e-05
-2.68623e-06
-0.000212564
-4.08796e-08
1.89902e-05
1.32631e-08
-1.95395e-05
-5.56511e-09
-0.00253363
0.000231899
1.00454e-08
-3.3441e-08
3.89592e-08
-4.59475e-08
0.00120056
0.000254155
6.23894e-05
3.77039e-07
-5.50529e-08
-1.86057e-05
-0.00101934
-2.44978e-08
0.000346154
-0.000284465
0.000302767
4.40982e-09
0.00011926
1.34151e-05
2.14062e-08
1.12e-05
0.000251998
0.000953359
0.000184462
0.000655472
-0.000797399
3.11144e-05
6.63402e-09
-2.19086e-07
5.09748e-08
7.54238e-08
-4.39627e-08
0.000112038
0.000545453
-1.48278e-07
-0.000657266
5.48264e-05
-8.46987e-05
-6.54578e-05
-6.45047e-05
-0.000252559
8.01773e-08
6.42334e-05
0.000358349
-7.56362e-10
-2.61429e-05
1.27534e-08
0.000107046
2.37789e-05
1.3207e-08
9.0244e-08
4.4452e-06
-2.86582e-08
-6.76106e-08
-7.41825e-08
-1.68797e-08
-0.000503625
-6.18096e-08
9.60888e-05
-5.30844e-08
-0.00304451
1.34361e-06
-0.00157522
0.00014022
-0.000148948
-4.92435e-08
6.40439e-05
-2.10992e-05
7.00392e-11
4.80659e-05
0.000206968
-0.007269
0.000524005
-0.00455963
-0.000352314
6.85052e-08
1.60145e-08
1.67043e-08
-0.000874108
0.00171373
5.51125e-05
8.06844e-09
-3.58682e-05
-7.30838e-08
-0.00041019
-1.5965e-08
-0.001352
-0.000441544
2.5732e-08
1.24728e-05
-1.24537e-09
-2.30304e-08
-1.08616e-08
1.64455e-08
2.74951e-08
-6.12411e-08
-6.45139e-09
5.42622e-07
3.29299e-08
-0.00241298
5.4766e-07
4.21673e-08
-6.51113e-05
-0.000280675
-1.0746e-08
-2.96207e-08
-2.47824e-08
-0.00156085
0.00244603
-2.91573e-08
-2.47861e-06