/*--------------------------------*- C++ -*----------------------------------*\
| =========                 |                                                 |
| \\      /  F ield         | OpenFOAM: The Open Source CFD Toolbox           |
|  \\    /   O peration     | Version:  v2012                                 |
|   \\  /    A nd           | Website:  www.openfoam.com                      |
|    \\/     M anipulation  |                                                 |
\*---------------------------------------------------------------------------*/
FoamFile
{
    version     2.0;
    format      ascii;
    class       volScalarField;
    location    "350";
    object      ddt0(epsilon);
}
// * * * * * * * * * * * * * * * * * * * * * * * * * * * * * * * * * * * * * //

dimensions      [0 2 -4 0 0 0 0];


internalField   nonuniform List<scalar> 
14315
(
0.000612396
-2.27491e-05
2.5252e-11
1.69496e-09
2.49552e-08
6.08021e-11
1.3327e-05
4.14363e-11
5.94277e-11
5.92639e-11
6.97679e-08
-9.47475e-06
0.000423347
-9.09016e-12
6.65991e-06
5.62641e-12
2.67136e-10
1.70458e-10
-1.06672e-11
5.0442e-11
-4.58268e-10
3.94296e-05
-1.44976e-11
-9.07265e-06
2.18666e-09
-2.77062e-05
-3.92737e-10
1.79507e-05
-9.54848e-08
-2.74208e-07
1.36506e-10
6.32078e-12
-7.86443e-11
0.000160768
3.5293e-05
-4.44676e-05
-4.3464e-05
-1.62958e-11
2.70627e-06
-3.91387e-09
4.20183e-06
-0.000256452
-5.24233e-11
-5.54791e-12
-2.28355e-10
1.73358e-09
-6.96212e-09
-1.42876e-07
-1.26538e-06
1.30756e-09
1.62584e-05
1.65217e-09
1.73693e-06
9.93225e-06
3.76399e-11
-3.44981e-05
0.000569757
-2.53256e-11
-3.17797e-10
3.29971e-11
-6.94378e-06
-7.85647e-05
-1.03391e-05
8.52816e-10
-4.76839e-08
-5.44721e-05
0.000115571
-4.44962e-09
6.86677e-10
7.33099e-11
9.82699e-06
-5.40029e-11
3.11043e-05
0.00093749
2.36152e-10
0.00122773
-7.72118e-11
-4.95383e-05
-1.60671e-10
-1.13143e-10
-2.02238e-10
7.43039e-06
-1.41116e-11
-6.18199e-05
-6.77157e-10
1.34493e-10
0.00177372
2.1564e-06
8.00384e-06
1.27072e-07
-1.06675e-10
3.89472e-08
-2.16195e-10
-7.38839e-11
-3.83452e-06
-7.11724e-06
1.37813e-10
-1.39163e-05
-1.66007e-05
1.12914e-06
1.7875e-09
8.06626e-06
-1.95749e-05
1.97062e-10
6.12347e-07
-1.4887e-06
9.02819e-05
1.16889e-05
7.69294e-11
3.48382e-08
-6.61099e-06
-8.82973e-11
0.000109986
2.2831e-10
-1.38221e-10
-3.74284e-06
8.20575e-11
6.73664e-06
-5.41841e-05
-2.83858e-05
-7.98866e-06
-3.69142e-11
-2.2896e-10
-8.39378e-06
-4.31751e-08
-1.24409e-12
-1.97334e-06
3.9301e-11
2.464e-10
-5.98729e-09
1.37018e-06
-5.81936e-05
6.67849e-06
1.72518e-06
4.62852e-08
1.79787e-10
-5.04927e-10
3.78999e-05
-1.23862e-10
4.30896e-10
3.66544e-05
-4.05506e-06
2.23684e-09
-1.77134e-05
-1.4524e-08
1.75409e-06
6.07708e-08
8.6678e-05
-6.79211e-11
-5.91116e-09
-5.933e-11
9.82175e-05
-1.3236e-10
-5.76791e-11
1.13889e-08
3.58061e-06
-1.64216e-10
1.12903e-11
1.35646e-10
2.15155e-05
-6.14632e-10
1.28542e-05
0.000133082
-9.2766e-06
6.20366e-12
1.41792e-05
7.42367e-06
3.02446e-07
0.000290304
-6.17473e-05
0.000711983
-7.84255e-12
2.6846e-06
1.54895e-10
-3.22844e-10
-8.63145e-05
1.49647e-10
1.4475e-05
7.16088e-05
1.72606e-06
2.13333e-06
-5.71217e-11
-7.84289e-11
0.000174117
6.60982e-11
2.80042e-11
-3.09094e-09
4.41677e-06
1.21764e-06
-0.000349227
1.82841e-10
4.63275e-09
1.45631e-07
-0.000424572
-7.37858e-11
-0.000318419
-3.68696e-06
1.05954e-10
-4.09903e-11
-1.65509e-07
-3.70509e-06
7.59283e-12
-1.1163e-05
7.28647e-07
-7.97908e-11
8.26333e-07
-3.53635e-07
2.63327e-11
-3.35194e-11
-5.30634e-06
1.18575e-07
3.43065e-10
-2.19333e-06
-2.8805e-10
-8.69632e-06
-0.000138001
0.00012554
-2.27309e-05
-7.53744e-06
-2.01721e-08
1.9968e-11
1.20728e-10
-2.82896e-09
-1.87591e-11
-3.65557e-05
-7.74293e-11
5.6724e-12
6.87661e-05
1.00475e-05
0.0020768
-2.49191e-12
1.30859e-12
7.5062e-09
-1.98033e-12
-6.62402e-11
-4.27691e-06
-1.05993e-10
2.60176e-11
4.78414e-05
3.27479e-05
6.93632e-11
-7.49102e-11
0.000268218
-2.71197e-06
0.000128488
1.95309e-07
5.60437e-05
-1.24278e-11
4.25638e-05
-0.000198859
2.20128e-11
1.17352e-10
0.000388842
2.91221e-05
-8.8856e-11
-8.03957e-05
9.97852e-11
1.83504e-06
7.63413e-05
-1.12287e-07
-3.08142e-06
-5.69473e-11
-5.29569e-06
-0.000152279
-6.07331e-05
1.04922e-10
5.95647e-10
-8.95462e-11
9.6604e-11
7.09599e-06
4.88548e-06
-1.76911e-10
-0.000191374
-2.58908e-06
-3.39939e-11
-7.54125e-05
-5.17357e-06
-1.30198e-10
3.71626e-05
9.8319e-07
9.13483e-11
-3.81638e-11
1.76575e-05
7.072e-06
-4.17977e-10
-9.2445e-06
5.47462e-06
0.00011549
7.90714e-07
-0.000153853
-3.15349e-10
-5.33844e-05
-1.99141e-07
5.59209e-05
4.11055e-07
-1.50869e-10
9.66573e-06
-8.69633e-10
2.9724e-10
-1.94446e-10
-9.37642e-11
-3.55755e-05
-1.33284e-05
-1.13518e-05
-6.3572e-11
1.81673e-10
1.93673e-06
3.00654e-05
4.1467e-10
-1.65115e-11
-0.00013137
1.44623e-10
-0.00011493
-4.06853e-06
2.49286e-10
8.18403e-06
2.10891e-10
1.40188e-10
-1.39303e-10
2.1961e-12
-4.34803e-06
-0.00039815
-6.85575e-06
-8.51663e-12
0.00134261
-8.18066e-11
1.13022e-05
-2.94581e-06
1.4196e-07
-9.17672e-12
1.18273e-10
-6.73996e-07
-6.09955e-10
4.3569e-05
-0.000523246
1.09354e-09
-1.73512e-07
0.000404819
0.000408237
-1.62681e-05
1.3075e-10
0.000298554
-2.64547e-11
-3.18401e-12
-4.77706e-05
1.04837e-11
3.03956e-11
0.000985197
2.40755e-08
-7.83107e-06
9.45761e-10
-1.34471e-09
3.22432e-06
-4.65714e-06
-0.000122557
-7.2845e-11
-1.32636e-10
-1.52423e-10
1.86151e-10
8.0697e-06
-4.01138e-10
2.45955e-06
0.000145951
-5.74429e-05
9.62202e-05
9.5227e-05
-5.51641e-11
-2.66675e-06
1.67109e-05
1.14471e-10
-0.00012099
-1.79834e-10
-6.9994e-10
-3.98966e-05
-1.02894e-06
4.33973e-10
-1.20255e-10
7.06833e-10
-2.46293e-11
0.00050205
3.34629e-06
-4.06167e-11
-1.27078e-11
0.000662921
4.65492e-09
1.72049e-05
-6.00375e-09
-7.64508e-05
1.30075e-05
0.000106003
-8.79772e-11
-1.04492e-05
0.000442729
0.000133308
-4.75773e-06
-2.78735e-05
-1.23985e-09
3.44773e-10
4.81174e-11
-1.6126e-07
-9.22333e-11
5.56976e-11
1.12725e-10
9.21147e-06
-2.57395e-06
5.91947e-07
-9.01307e-07
-0.000408668
1.10099e-05
-6.76768e-05
9.67703e-11
-1.46927e-05
1.4414e-06
-2.36502e-11
-1.90423e-10
8.68294e-11
3.13022e-08
1.54274e-05
-4.59578e-11
-8.71608e-05
-1.73315e-10
-0.00119419
-7.39677e-07
2.95102e-10
-4.02715e-10
-1.29716e-05
-5.35242e-05
9.26968e-11
-6.43142e-11
9.19985e-11
1.80219e-05
2.42236e-05
-5.23901e-10
5.8388e-11
5.44177e-05
-6.31223e-11
-1.68813e-08
-5.36503e-06
7.27959e-09
3.30346e-10
3.20975e-05
-5.53181e-10
-1.27789e-06
4.2053e-10
-2.55515e-10
4.3312e-08
8.15292e-09
-1.60083e-05
-8.01202e-10
-3.53967e-11
0.000954737
-3.24219e-06
-1.42516e-10
-1.76827e-10
9.82032e-11
-3.88078e-06
0.000878815
-1.79811e-05
-1.89695e-05
-5.46169e-08
4.92224e-10
4.84381e-05
5.30862e-06
-1.96543e-08
-8.5395e-06
-0.000179864
3.71681e-06
4.33972e-09
-8.57976e-11
2.14859e-06
-8.56177e-11
3.77505e-08
-7.01572e-06
-2.93494e-10
-4.56542e-06
-3.76361e-11
2.93817e-11
1.4514e-10
-7.59647e-06
-2.57866e-06
1.58425e-09
-0.000233125
4.19433e-08
8.72856e-06
1.25343e-05
-2.98445e-06
5.34949e-10
-7.98991e-06
-3.61703e-10
-2.0403e-09
6.58689e-12
0.000437675
1.31691e-10
2.16503e-09
-9.65978e-07
1.74726e-06
9.56221e-10
1.56907e-10
-0.000209954
4.73003e-05
-3.04619e-07
-0.000201571
-1.01988e-05
9.93442e-11
1.96691e-10
-2.43982e-10
-0.000661223
-2.26671e-07
1.12913e-12
2.08171e-10
3.14803e-05
8.18248e-11
-3.90975e-11
-5.96294e-11
1.72134e-06
-0.000132716
1.46534e-07
-1.81373e-05
-0.000217432
5.90981e-09
-8.66056e-06
-8.79073e-12
-5.35137e-11
7.85139e-08
0.000320341
-6.90766e-06
1.4023e-10
-2.20548e-09
-6.16737e-10
-3.58928e-11
-6.07072e-10
2.82053e-10
2.9106e-10
5.31111e-11
0.000267347
7.33546e-06
-5.4112e-10
-1.07484e-05
9.90815e-08
-3.36844e-10
5.15973e-05
1.59701e-11
2.30658e-06
1.58173e-05
-7.81333e-11
-4.75366e-10
-7.64416e-12
7.28714e-08
-4.30325e-10
-4.47593e-06
1.61416e-11
2.34867e-10
-1.59253e-05
0.000365283
5.91011e-05
0.000290617
1.49729e-09
3.83151e-10
1.45177e-10
-1.10813e-11
-8.33833e-07
-5.14192e-05
2.58106e-06
2.18406e-07
5.40614e-07
-1.66615e-07
3.0199e-11
1.17161e-09
4.10796e-11
1.69534e-10
-0.000181249
-4.44755e-13
-8.93756e-06
1.36003e-07
2.97414e-06
-2.13314e-12
-3.21983e-10
-6.59222e-11
-0.00514999
1.9882e-12
-8.68888e-05
1.74926e-09
-5.01659e-10
0.000132878
6.01556e-10
3.4895e-11
-2.19964e-12
7.7194e-11
-9.40834e-07
1.34247e-11
7.72577e-06
-7.70083e-10
1.00148e-08
6.40196e-09
1.44654e-07
1.34823e-10
0.000135405
1.34262e-09
-6.81299e-06
-3.07294e-07
-8.9532e-10
4.82813e-05
0.000109979
0.00421081
4.51902e-11
7.81756e-10
-0.000691689
2.4347e-11
-2.70599e-11
-0.00140778
8.84325e-06
-6.3842e-09
2.16222e-06
-7.86489e-11
2.18681e-06
7.891e-11
8.56747e-08
6.69933e-07
8.64199e-11
-1.90614e-10
9.2191e-08
1.23781e-06
1.72841e-10
-5.43741e-08
1.0178e-06
2.18371e-11
-1.40146e-11
-2.42611e-05
-1.00723e-06
-8.03616e-06
2.75975e-11
1.55575e-08
2.19257e-10
-9.09718e-11
2.41198e-06
8.58822e-10
2.38257e-06
-7.34996e-11
0.000104934
5.04587e-10
-9.88563e-10
-5.58217e-10
-2.27738e-12
3.65672e-05
8.1335e-05
7.51803e-06
-3.48651e-11
-2.58161e-10
-3.92333e-11
1.42852e-10
-3.96878e-05
4.45279e-05
2.07238e-06
1.43896e-09
-1.50793e-08
0.000395803
-5.5161e-11
-6.90021e-11
2.26784e-08
-1.65758e-05
1.67303e-10
-1.13939e-10
-7.68086e-06
-9.01964e-05
-2.40814e-07
-0.00104272
-2.13344e-11
3.99202e-11
-4.77178e-06
8.92224e-11
4.15967e-06
3.28089e-11
5.28467e-07
-5.25906e-11
-3.78649e-10
3.3524e-10
-9.54585e-05
5.16075e-05
8.1842e-10
-0.00327277
3.9731e-10
-2.72092e-10
0.000335087
-1.3871e-05
-1.22397e-10
1.04281e-05
6.45246e-05
-0.000363428
0.00046803
2.37095e-11
2.04059e-10
-9.62957e-13
-1.54662e-10
-4.78119e-10
-5.83511e-11
0.000157082
6.93074e-06
-2.83221e-11
-2.58498e-11
1.51154e-11
-3.48082e-10
3.2476e-06
1.06218e-12
1.70612e-09
3.22447e-09
1.61199e-10
-2.95182e-06
-4.14003e-08
-3.49084e-09
-3.28101e-05
8.43418e-11
-5.91357e-06
1.12449e-10
-2.08889e-11
1.15353e-10
-5.22759e-10
-1.57176e-11
7.91053e-11
-5.58303e-10
5.29033e-11
4.21175e-11
-8.50095e-05
3.01846e-11
-9.14304e-11
9.99529e-09
-5.65587e-11
2.11019e-10
-3.10022e-11
-1.95643e-10
-0.00121229
-2.27243e-10
3.03329e-10
2.76517e-06
-1.83206e-05
1.84079e-06
2.58399e-07
2.44553e-10
-5.65291e-07
-4.34246e-10
2.97328e-10
0.00329723
-2.41155e-12
-5.86929e-10
-9.89232e-12
-3.7968e-10
7.13566e-06
-7.12922e-11
0.000146695
-5.21557e-11
-3.69544e-05
-0.000117055
4.28347e-09
9.57099e-11
-3.82284e-06
-0.000161442
5.47647e-06
2.97609e-10
-0.000121707
-2.87014e-10
9.33887e-05
1.72053e-09
-7.9576e-07
4.03795e-06
-2.51902e-05
0.00013424
7.35251e-10
-4.22465e-06
-2.54214e-11
-3.44226e-10
-3.76952e-05
6.86737e-06
-2.44882e-11
-4.22385e-10
1.12961e-05
-4.98682e-06
-0.000412484
-1.00554e-10
-0.000122992
3.44208e-05
1.14199e-05
-0.000159876
7.4608e-11
-0.000114212
-8.19878e-05
-9.73879e-06
-2.06136e-10
-3.01232e-06
-1.53315e-08
-4.25595e-11
1.9309e-10
2.96421e-10
2.92161e-11
-1.1628e-07
0.000105966
3.77974e-10
2.52592e-11
-9.22524e-11
-0.000130139
-7.73782e-08
1.6169e-10
1.13984e-05
1.69402e-06
-5.77056e-06
1.88079e-10
-6.90091e-05
-1.03726e-11
1.43468e-10
-8.98023e-11
1.97726e-06
-3.24098e-06
9.86209e-11
1.71265e-05
2.76916e-07
5.74013e-05
-3.36761e-06
2.58822e-09
3.05081e-05
2.40619e-10
0.000252369
6.0999e-10
7.167e-11
-1.8813e-09
-2.02198e-08
7.50643e-11
-2.98399e-10
6.65753e-12
2.93089e-10
-0.00116695
-2.67069e-10
1.07416e-10
7.92046e-05
-1.50516e-06
-6.96438e-05
-5.20319e-08
-7.89719e-11
2.82224e-06
-1.44618e-11
8.21977e-11
8.8828e-06
1.94048e-10
8.14585e-06
4.37126e-06
-6.46416e-06
0.000492958
3.37255e-05
-2.64615e-07
0.000296434
-3.09841e-05
8.87541e-11
-4.96691e-10
-6.56032e-10
3.3661e-06
-9.38738e-05
9.02219e-09
9.82856e-06
1.42092e-10
-9.1987e-05
-7.3046e-07
-2.62125e-11
-0.000198487
-3.32991e-09
-1.41005e-06
4.21722e-10
-3.68874e-10
1.50856e-11
-8.58459e-13
-2.15851e-08
-1.79049e-11
-1.6384e-05
-4.90968e-12
1.70594e-10
-4.18187e-11
-0.000200198
9.7357e-11
-5.69449e-12
1.7854e-10
3.06572e-09
-1.5714e-11
-2.11087e-09
9.61237e-11
-1.61397e-06
-2.40013e-10
-7.82559e-11
-1.17342e-10
1.78069e-06
1.47577e-10
3.36469e-05
1.17155e-09
-1.76882e-05
-1.22416e-11
1.52876e-06
-2.72774e-06
-2.98286e-13
-0.000147488
1.49301e-05
0.000140963
7.39966e-06
5.09083e-11
7.26942e-08
-0.000105307
-2.18366e-06
1.00879e-11
-2.88402e-10
1.39062e-05
7.76764e-11
-0.000212839
-1.31037e-11
-2.31297e-06
-2.31834e-06
7.67454e-06
3.73427e-11
7.02612e-05
8.22427e-05
2.80774e-10
3.51553e-05
1.00279e-10
8.9553e-11
-1.35823e-06
0.00054047
9.46228e-10
1.65642e-09
0.000106172
-3.80441e-10
6.24371e-05
1.54871e-10
3.24079e-07
8.39845e-10
9.94219e-05
4.39951e-05
-0.00145638
8.66892e-11
4.94401e-13
-4.09092e-05
-5.81081e-11
-9.89005e-05
-7.77426e-10
1.02175e-10
9.39308e-07
2.69864e-06
6.67969e-06
-0.000108096
-3.27302e-11
-0.000129946
-7.73661e-11
-2.50546e-10
-2.18958e-06
-0.000134418
4.15975e-05
-8.72634e-07
0.0001969
-1.3401e-07
0.000981603
-8.45813e-05
-8.7332e-06
2.65579e-07
0.000681613
-1.02161e-10
3.50135e-10
-3.56053e-10
-7.36537e-09
0.000139217
-8.40961e-05
-1.61677e-10
3.99905e-05
-4.84726e-05
-1.13475e-09
0.000151366
-2.48891e-11
8.07495e-05
-1.3461e-07
-3.13885e-07
-0.000175798
0.000284139
7.15203e-11
6.05578e-05
9.33862e-10
9.46942e-11
3.9532e-12
-2.33296e-10
7.31163e-05
1.28663e-11
-6.31738e-11
0.000105946
-3.10197e-12
-0.000213786
1.31718e-10
2.52548e-06
-4.76518e-07
5.54117e-11
5.24147e-05
4.79124e-06
5.24366e-06
-3.72052e-06
1.25915e-05
1.51221e-06
9.08149e-05
1.34939e-05
2.7192e-10
-2.85805e-11
2.41157e-06
-1.19586e-11
0.000290141
1.48143e-08
1.45481e-10
5.40799e-05
4.65457e-10
-1.13854e-06
-1.75141e-09
-1.69278e-10
-2.48776e-06
-4.26112e-06
9.12038e-06
-3.28377e-11
-1.92736e-06
1.54247e-07
5.07768e-08
0.000185543
-3.696e-06
2.17382e-07
-1.0932e-08
1.07885e-10
-4.86701e-10
6.11044e-11
-2.72733e-06
2.6055e-05
1.925e-11
-5.12044e-05
-1.31607e-05
-6.65975e-10
-1.79088e-10
-4.26562e-06
1.09789e-10
-0.000587329
-0.000137711
-1.43527e-11
-1.34364e-10
8.49483e-05
-9.60047e-11
0.00242528
9.52673e-06
1.95529e-11
9.87933e-05
-2.1952e-05
4.21006e-10
4.90557e-10
1.03102e-10
2.24424e-10
2.48752e-10
-3.37875e-06
8.97913e-06
-2.6734e-12
4.75965e-08
1.8687e-05
6.02475e-11
-3.65767e-10
3.14247e-09
3.1925e-10
-1.05589e-10
-3.02838e-06
-2.61189e-11
-5.75664e-09
2.33733e-05
-1.93033e-10
0.000460848
-2.39189e-06
-3.33271e-08
2.7764e-09
-1.77827e-10
-0.000584679
-4.8989e-12
-1.10003e-10
-0.000502221
-3.27915e-06
-1.20774e-08
4.10025e-05
-3.29287e-06
4.78926e-05
-5.0961e-09
-9.98843e-05
1.32739e-06
-9.01074e-06
0.000131075
-6.77503e-11
-7.66708e-05
1.11186e-10
-0.000451603
-1.12951e-09
-0.000642812
9.126e-10
1.58901e-05
4.76995e-07
-4.04875e-11
-1.06072e-10
6.35009e-10
0.000122734
-5.58225e-11
5.86621e-05
4.08258e-05
-0.000116281
1.2298e-10
6.78477e-06
-2.91419e-06
2.65568e-10
-1.71259e-05
-6.12083e-10
0.000468022
-5.88687e-06
-4.15873e-11
-3.21409e-05
-3.98019e-05
1.59594e-10
-1.57272e-06
1.05823e-10
1.85291e-06
1.76056e-10
1.42955e-05
0.00039443
-8.66004e-11
4.27225e-05
1.27716e-10
1.42582e-09
4.58119e-06
1.20905e-10
3.82962e-06
-8.39093e-07
2.69111e-09
8.01216e-09
5.41399e-08
-7.69585e-10
6.86057e-06
5.97287e-11
0.000327297
-1.54802e-05
-1.7398e-11
0.000483595
-2.06638e-07
-4.94139e-07
1.84992e-10
-1.21628e-10
-1.06205e-05
2.56867e-06
8.76897e-13
-3.03213e-06
0.000435202
-3.68501e-07
-2.5312e-06
2.2483e-07
0.000719602
5.68644e-11
3.03788e-05
1.51522e-05
-1.13447e-10
-1.81281e-05
-8.06344e-10
-1.68885e-06
-6.73347e-06
-1.31116e-10
3.83096e-05
6.7795e-10
-2.87397e-11
-7.12862e-07
-0.000585584
1.30606e-07
-2.11689e-11
-9.10087e-08
-2.46798e-06
-2.98483e-11
9.33729e-08
1.84869e-09
-1.54636e-11
-1.5408e-09
3.38378e-10
-4.4531e-06
-2.01854e-10
-7.40857e-06
-2.00338e-10
0.00014283
1.17574e-10
-3.14309e-05
0.000452322
-1.474e-10
3.69061e-10
1.37345e-10
-7.7405e-09
-4.1354e-05
-1.6602e-10
-1.70975e-06
2.82402e-07
-3.00142e-10
-5.07407e-06
-5.97953e-05
4.13163e-05
-3.99293e-06
5.9956e-11
8.84208e-05
-7.40305e-06
1.24807e-06
5.62774e-06
-8.9621e-05
-5.40083e-10
-3.63493e-07
-2.1366e-10
1.34974e-07
5.97055e-10
-1.15432e-11
-2.09276e-10
-1.13655e-10
4.4958e-10
-6.48321e-06
0.000466489
3.72918e-05
-7.22136e-10
0.000192092
-0.000936478
3.41715e-11
1.77681e-10
3.40521e-05
3.9261e-09
2.25248e-10
-0.000364491
-1.91184e-05
-5.08259e-06
2.77108e-07
-7.16392e-05
-3.25161e-10
-5.8809e-06
-2.13528e-10
-7.9253e-07
-1.51812e-10
-1.1127e-08
7.88688e-05
2.44034e-06
7.7278e-12
-7.0337e-11
1.13589e-06
-4.53417e-11
-1.90519e-06
-7.75814e-10
-0.0001152
-4.79114e-06
-0.00101858
-2.9187e-05
3.68982e-09
-1.09083e-07
1.51705e-10
-4.23463e-06
2.58322e-06
-2.63709e-07
2.60936e-05
-1.04694e-10
4.09915e-10
7.79538e-11
-1.28777e-06
-1.14701e-10
-0.000454316
-5.4412e-11
8.82635e-05
-1.5743e-05
-0.000100087
-1.05682e-07
-2.67458e-10
4.61821e-10
0.00246888
-1.82737e-10
0.000467723
4.35899e-10
4.19834e-06
-3.91177e-11
0.000126577
0.00247029
9.34031e-09
-4.77714e-10
4.36219e-05
-1.17523e-05
1.16534e-10
3.29392e-09
1.44655e-11
-1.01372e-06
-6.9687e-12
-1.83669e-05
2.9506e-05
-3.93196e-06
-2.97178e-05
3.07119e-06
3.11504e-07
1.1019e-09
0.000859013
1.38387e-07
3.20644e-10
4.19157e-06
-5.9947e-10
1.64115e-10
4.38897e-12
-1.65619e-08
6.61902e-10
0.00015798
0.00054163
-1.7438e-07
7.39827e-10
-6.92017e-12
0.000365201
6.87455e-06
8.22535e-05
-1.8238e-10
1.04302e-11
0.000465689
-9.28959e-08
7.75093e-12
-1.86355e-05
1.93369e-09
1.02742e-09
3.60595e-10
2.8519e-08
4.49325e-11
3.37293e-05
-3.42714e-07
-5.85187e-11
2.53813e-10
0.00042736
3.5893e-05
0.000308174
-2.05814e-05
-9.72212e-11
1.1591e-10
-3.20523e-06
1.55239e-10
-9.787e-05
-6.35167e-08
-1.45797e-11
-2.9112e-10
6.63798e-06
1.45035e-10
3.59983e-10
3.87142e-10
7.70507e-10
-1.11555e-10
-6.21108e-07
-2.33452e-05
-0.000605739
-0.000165976
-2.07976e-06
-0.000114102
3.14192e-09
1.12418e-09
3.69993e-11
2.34785e-09
3.29161e-10
-6.80705e-12
2.72218e-11
-0.000124759
3.52668e-05
-7.2911e-11
1.05618e-10
-0.000163351
1.69202e-08
7.22784e-07
-4.22546e-06
-1.88572e-06
-2.79066e-05
-7.16175e-10
-5.21431e-11
-1.90507e-12
-1.05976e-09
-1.50145e-05
0.000325545
-2.39418e-06
-4.09907e-08
1.75708e-08
1.70027e-05
3.17686e-06
-9.55653e-11
0.000152902
-5.13404e-10
2.65048e-10
2.0865e-06
-2.093e-10
1.24186e-12
4.32165e-05
8.16801e-06
-0.00114123
-5.34017e-05
-2.24938e-05
-9.49818e-10
-7.21411e-12
7.26049e-05
-2.23525e-10
3.79285e-10
8.94513e-05
0.000400061
-2.00426e-11
1.64006e-11
-5.93983e-11
-2.46602e-10
8.00047e-05
-1.04302e-10
5.33488e-11
6.59042e-08
-3.65364e-09
-5.48711e-08
-3.94823e-12
-2.37707e-11
-0.0002781
-4.94366e-07
-2.17645e-10
5.30938e-08
4.78061e-07
-1.63066e-05
5.32879e-05
4.54892e-12
8.72259e-05
1.32995e-09
2.35991e-10
7.89573e-05
2.09004e-13
9.27389e-11
-9.2447e-11
-1.85684e-05
-3.74034e-06
2.14454e-06
-9.96188e-06
-0.000136274
0.000100077
3.46349e-07
3.42061e-11
-8.67283e-10
3.48921e-06
-7.20629e-11
-9.27715e-11
8.4134e-05
4.48278e-11
0.000509531
1.18848e-09
-1.24401e-10
-2.33046e-10
-8.52826e-09
5.25911e-06
3.72301e-08
4.42519e-11
1.11919e-09
-0.000115498
4.33708e-08
1.36789e-10
-1.2861e-10
6.25103e-05
-3.44637e-11
4.51264e-05
4.96451e-05
-3.6267e-11
7.32514e-05
-8.61889e-11
-8.36232e-11
1.27157e-10
-9.98555e-11
9.48003e-11
-4.45465e-06
-2.94951e-05
1.43851e-07
-8.31189e-05
3.978e-13
-7.2285e-06
-1.86914e-10
-7.90202e-06
0.000320809
-2.55958e-13
0.00237762
-3.35071e-11
-6.97057e-08
3.97583e-10
-5.04436e-10
1.05525e-10
-1.34469e-05
-2.15553e-06
-3.1016e-05
-9.42466e-05
-1.95377e-10
-5.13924e-08
0.00031624
0.000400124
-2.12379e-06
-1.7012e-06
-9.16343e-10
-6.44329e-10
7.39642e-08
3.90029e-10
9.84912e-10
6.5492e-12
-0.000261426
-2.65468e-10
1.87105e-09
-4.90379e-06
-1.24752e-10
1.24345e-11
0.00287346
-1.56735e-09
-1.33728e-06
-3.55619e-10
-0.000101678
-0.000200137
-0.00178258
0.00222426
1.26844e-11
-3.18985e-05
1.82734e-09
4.5837e-09
-1.26911e-11
-1.4242e-06
5.04762e-10
1.24781e-10
-7.40643e-05
1.92512e-10
-0.00022176
-1.21068e-10
8.84166e-05
9.52165e-08
0.000218976
-3.16995e-10
0.000316
-1.13524e-12
2.86244e-11
-1.05523e-10
2.74144e-10
1.23393e-10
-0.000906747
-5.92393e-08
3.92317e-07
-1.268e-05
-1.68754e-08
-9.33404e-11
4.95325e-11
-3.33328e-05
-8.64457e-11
-4.04954e-08
-0.000105706
-1.17236e-10
4.88866e-05
-0.000195631
-0.000872067
-3.67926e-07
-1.04381e-10
-0.00170719
0.000295719
-5.5992e-11
-5.2318e-11
-3.09686e-05
-4.45639e-05
1.73301e-06
1.28945e-10
-1.59096e-11
6.41098e-12
-3.94425e-06
-0.000177723
-2.12207e-10
0.000145391
0.000244138
-4.64062e-10
1.21017e-09
3.18497e-12
1.28199e-10
8.92343e-11
-3.07785e-11
1.23188e-05
-2.97991e-05
-3.3402e-06
1.77336e-10
-1.35815e-10
-1.82506e-05
-6.09967e-05
-1.47314e-10
-4.72135e-06
-8.6569e-11
1.62931e-09
-3.02904e-11
-7.07989e-12
7.74103e-11
-9.68013e-06
-4.79656e-10
0.000139365
-1.88462e-05
-1.23538e-11
4.13521e-08
0.000124173
1.22833e-09
1.2579e-11
5.90752e-05
-8.82621e-11
-2.33674e-11
5.92028e-10
-1.29573e-10
1.33378e-06
-4.77045e-06
1.59606e-09
-1.99126e-09
-4.77623e-05
-0.000111763
-1.67708e-10
1.04644e-09
-2.88283e-06
0.000221194
-6.77175e-06
5.57935e-05
-8.2467e-05
-1.30359e-11
1.39859e-10
-3.69744e-11
-0.000186197
1.63129e-12
-3.2875e-05
1.06915e-06
8.63143e-06
9.63683e-10
0.000292444
-3.26186e-05
2.1268e-10
-5.18263e-10
-7.28754e-11
4.12379e-06
-1.43132e-11
-1.8491e-06
-7.69865e-12
2.19621e-05
-3.46061e-11
0.000155919
7.53383e-06
-6.75657e-06
-3.53224e-10
-0.000116847
2.88617e-10
-4.69708e-10
1.25857e-05
-2.42552e-10
-5.14003e-10
1.92683e-10
-3.23553e-09
-0.000473859
7.72978e-11
-0.000143969
3.40664e-10
2.43446e-06
0.000331953
1.25207e-10
7.19122e-06
-7.54652e-11
4.25277e-10
-2.98733e-05
0.000715839
-7.00048e-05
4.7175e-05
-6.93067e-05
-4.0337e-05
-0.001185
1.62103e-06
-1.8333e-10
-1.39613e-10
-1.08185e-11
-2.73672e-11
-5.47916e-10
0.000170885
-7.93049e-05
3.16952e-12
-3.89195e-10
1.05508e-08
5.8614e-05
-2.53661e-11
-9.08614e-12
-3.27081e-06
9.10298e-12
5.03209e-07
-4.22455e-10
-4.6956e-08
-1.5983e-10
1.2393e-06
1.39122e-10
7.55328e-06
-3.4449e-07
5.46362e-10
1.45705e-10
1.9488e-10
-8.66159e-11
-8.03502e-11
-2.12034e-05
0.00040236
1.05502e-10
-7.0754e-06
0.000157407
3.93695e-11
-5.00119e-10
7.23e-05
2.22433e-07
8.12154e-05
-3.02697e-10
4.94386e-06
3.539e-10
-3.10491e-07
-2.4158e-12
5.47538e-05
1.60423e-09
-1.59683e-09
8.74826e-10
0.00011872
0.00109877
-4.58241e-07
5.24237e-12
0.000346674
7.82812e-05
0.000220528
6.04806e-10
4.52719e-11
-1.59798e-06
-1.06471e-05
-7.68777e-10
0.00113408
1.04248e-10
-5.63552e-06
0.000236812
-3.12378e-06
-9.41941e-11
-8.58007e-10
-1.86024e-05
0.00024145
-0.000916308
-1.99555e-10
-2.57544e-10
-8.27296e-12
9.88483e-10
7.31357e-12
-7.61667e-09
9.72796e-11
-2.52781e-11
0.000110986
4.3593e-05
-0.00127439
-2.20396e-10
2.86077e-11
9.08372e-05
0.000208086
-4.81203e-10
5.70993e-05
-1.51507e-05
-2.02889e-11
-7.42834e-05
-7.56289e-05
0.000286351
1.7454e-05
-6.61445e-10
-3.76037e-07
6.13204e-09
-3.55078e-08
-7.10313e-10
3.23244e-10
-0.000971857
-1.7895e-07
0.00100412
1.38626e-07
1.30244e-10
4.38223e-06
-1.48154e-08
9.3172e-09
-0.00100897
-2.26563e-10
-8.09561e-08
6.6035e-11
1.84536e-10
-1.82766e-06
-1.89071e-10
-6.11372e-08
5.95054e-10
-3.73584e-06
-1.21564e-07
1.20922e-11
-3.46918e-11
-8.86562e-10
-1.064e-10
-0.000164418
5.76746e-10
1.97327e-10
-2.79624e-11
0.000158758
1.8592e-05
7.31856e-06
-0.00127655
1.29534e-10
6.86018e-11
2.70431e-10
-4.7093e-08
9.87306e-10
-1.54424e-05
-8.49346e-05
6.89568e-12
-3.23825e-07
7.33401e-10
-8.26345e-11
-3.67592e-10
1.06057e-10
6.25325e-05
-1.95488e-10
-1.10971e-11
0.000696545
3.69012e-10
1.21533e-10
0.00112153
3.3985e-12
0.000306147
0.000361528
-1.26758e-05
5.39159e-05
6.06195e-06
-1.09345e-05
2.94461e-06
6.15761e-11
-3.80785e-06
3.28146e-08
-8.20326e-10
-7.16153e-11
-0.00139584
9.63512e-11
1.22184e-10
0.000253428
7.87371e-05
-0.000102476
8.98166e-11
-1.4692e-10
-1.28557e-10
2.76956e-12
-1.00563e-06
-2.24414e-10
8.99259e-11
4.33831e-05
-4.65096e-07
-0.000601082
9.03477e-06
-1.20152e-06
-7.5095e-08
-3.6072e-10
-4.77525e-09
0.000215126
-4.19757e-10
5.90421e-10
-9.75295e-05
1.16456e-10
-2.93797e-10
1.39503e-10
-1.44614e-10
-2.68876e-10
2.38289e-10
-0.000104473
-1.01789e-06
5.80089e-10
4.59053e-08
-8.96246e-08
1.55675e-06
8.73209e-11
1.08495e-12
-3.7765e-11
1.52355e-10
-0.000629657
-8.79829e-11
-5.89188e-11
3.01032e-09
3.75502e-06
-1.97819e-10
-1.22986e-10
-3.40247e-06
8.71728e-11
-1.38624e-08
3.30937e-10
9.22385e-11
-2.51778e-10
7.74052e-11
2.98296e-10
-1.59743e-11
3.91112e-11
1.40546e-06
1.28971e-10
-6.89317e-05
-5.32506e-11
-7.46781e-06
-1.76376e-11
-3.19787e-11
8.54188e-12
1.00982e-09
1.11054e-11
3.43211e-05
-1.47865e-05
-2.91369e-10
-0.000164925
2.51566e-10
-0.000886183
-5.88442e-12
-1.78752e-11
-9.35936e-10
-2.50094e-05
-0.00013488
0.00503597
-5.50478e-05
1.39134e-11
1.38256e-10
3.81304e-06
1.20905e-06
-4.57591e-07
5.16118e-10
-2.68402e-11
-9.37531e-08
1.31527e-09
1.20007e-10
1.82544e-05
0.000140063
7.24812e-11
2.50888e-05
7.61056e-06
2.08623e-06
-5.73094e-11
-4.81984e-06
-1.41913e-06
-1.0365e-10
-1.61595e-10
3.0044e-11
-9.93788e-11
0.000251816
-7.90041e-11
5.47186e-06
-0.000504137
2.51534e-05
0.000105382
1.48127e-07
1.2159e-10
-0.000403616
-3.71661e-05
-3.68886e-08
1.1165e-05
8.99923e-11
3.26198e-05
8.15199e-10
-5.92362e-05
-0.000189904
-1.44476e-10
5.72776e-12
1.15811e-10
7.2406e-05
7.71304e-11
-3.42171e-09
0.000770599
5.76235e-14
1.18134e-06
-8.41283e-11
2.23055e-11
-4.28451e-08
4.46719e-11
-7.98579e-06
-5.75058e-10
0.00120245
1.09868e-10
-2.15261e-05
-6.09312e-05
0.000110971
-1.19756e-10
5.09024e-11
1.24654e-10
-1.15613e-11
-8.06565e-12
8.04866e-06
-0.000302913
5.80624e-05
9.02792e-05
-0.000347141
-1.94088e-05
-1.05259e-09
6.23173e-11
-5.0431e-11
2.79103e-10
-4.50169e-10
8.70796e-05
1.09476e-09
-2.42165e-06
1.43687e-10
0.00110825
7.8132e-06
1.42763e-10
-8.09208e-11
7.83784e-08
-9.06795e-05
-9.29039e-11
5.9837e-10
1.39568e-10
0.000198964
-0.000123593
-8.44437e-08
0.000246807
1.83477e-11
-5.19894e-05
-7.36164e-12
-1.29215e-05
3.0457e-05
4.72744e-10
-2.10152e-11
-9.14824e-12
-9.66057e-06
-0.000115036
4.15277e-11
-8.3526e-05
2.99908e-06
-2.4619e-07
-7.65805e-07
1.87264e-10
-4.46693e-06
1.39168e-05
-0.0014028
-7.95242e-09
-5.06031e-05
-2.19503e-06
8.52204e-05
2.08884e-09
-1.84853e-11
0.0014886
-0.00456818
-6.54874e-05
2.00556e-11
8.87734e-06
0.000530693
2.20564e-10
-1.0005e-10
1.26758e-10
-1.77008e-09
-1.7989e-10
1.0259e-10
4.57289e-11
3.97587e-11
-1.50339e-05
2.24723e-05
1.19154e-11
-8.43699e-06
-0.000136066
-7.58662e-06
-3.69992e-11
1.3928e-10
1.83165e-10
6.71989e-05
2.82791e-05
0.000112996
0.000140974
-7.7153e-11
-5.30459e-06
-0.000174392
-4.59435e-09
-2.18163e-10
-1.87937e-10
-2.98922e-05
1.30034e-09
-0.000389625
-1.32984e-06
0.000103505
-0.000777372
5.04055e-05
6.83482e-06
5.69418e-11
-6.68406e-08
-6.16387e-05
5.54135e-05
-7.16967e-05
-0.000299423
1.24293e-10
3.40008e-06
1.19883e-05
-7.84863e-06
-0.000149928
-0.000246845
-5.90717e-08
2.22973e-10
-6.82541e-06
5.50384e-05
1.52005e-10
-4.34861e-11
-0.0011572
1.46744e-07
7.75939e-11
-0.000543642
0.000444014
0.000186438
-0.00130151
2.81938e-06
-5.12222e-05
0.000220265
-5.71322e-10
0.0001142
0.000397848
0.000211893
-6.98615e-05
4.445e-05
-7.41555e-07
-2.3351e-05
-0.000136305
-2.42333e-10
-6.12393e-11
8.84329e-11
6.63357e-07
-1.29152e-05
7.03071e-05
-1.86155e-05
2.5531e-05
1.30664e-07
-5.38331e-05
-7.98348e-06
-1.18561e-10
-2.61565e-06
-7.4249e-11
9.13456e-06
-6.36951e-10
-0.00022164
-3.93663e-05
1.90879e-10
1.67726e-10
-5.62104e-11
1.52529e-09
4.29488e-10
-1.35287e-08
-0.000137717
6.78213e-11
1.18862e-06
1.37475e-05
-4.46832e-10
0.0003816
5.34567e-12
-8.19523e-05
1.19329e-06
2.7995e-08
-8.9111e-05
-2.42567e-10
2.4316e-09
-0.00105868
1.81324e-05
-2.41609e-06
-0.000252712
-2.92852e-08
1.34384e-11
0.000286694
-7.09585e-05
7.47552e-06
9.63393e-11
-1.52247e-05
1.86816e-10
-3.8706e-05
8.50944e-05
1.67326e-11
-3.36547e-05
1.43499e-10
-1.9834e-10
3.49031e-06
1.58759e-10
-3.11788e-11
4.15725e-05
-4.31192e-10
-6.4752e-05
-3.51654e-10
2.82777e-06
0.000421332
-3.75748e-10
-3.61772e-06
7.03573e-12
-2.44962e-07
4.27598e-10
-8.35415e-08
4.13251e-10
-0.000427904
-5.44916e-10
-1.67659e-11
6.66528e-08
-4.06188e-09
-1.71412e-10
-6.6308e-11
3.32454e-07
-0.00159233
1.23832e-10
0.00321449
5.65946e-05
-2.5044e-07
0.000348135
-0.000124095
4.79954e-08
-5.69208e-11
0.000137566
-3.99649e-07
-0.000861637
1.0788e-10
1.38694e-10
7.337e-11
-2.26419e-10
-2.17044e-10
-2.28959e-05
0.000212986
2.47005e-06
-1.0066e-05
-3.26385e-09
1.10576e-05
-3.35911e-11
1.07159e-06
3.38763e-06
-3.0093e-11
-7.01493e-06
1.50052e-09
-4.20704e-05
-0.000234233
0.00225809
-3.34846e-11
2.21574e-06
2.57128e-11
6.71763e-12
9.73299e-05
-3.34901e-10
-1.07563e-08
1.22231e-10
1.35856e-10
7.49757e-07
-4.905e-10
-3.62848e-09
-5.1093e-11
3.11001e-06
3.11067e-10
-1.57112e-10
-9.90036e-11
1.18873e-07
-1.99022e-06
5.33751e-10
-3.35891e-10
1.70009e-05
-5.82108e-12
3.98199e-09
-6.91297e-11
-4.48597e-11
-0.000199523
1.03436e-10
-9.19217e-07
-6.60887e-06
7.4733e-11
9.6122e-05
-0.000104622
2.49744e-11
4.45981e-07
-1.52964e-05
-0.00328724
-9.47559e-05
-5.50339e-07
1.11698e-06
4.84909e-11
8.42852e-10
-1.13013e-09
6.23813e-05
2.88951e-05
-4.97931e-05
-9.32779e-11
3.82862e-10
1.43832e-05
1.10037e-08
-3.01803e-05
1.92636e-10
2.06857e-06
-4.16785e-11
1.35429e-06
-8.40218e-13
-0.000182614
7.11497e-05
4.12015e-10
-1.11373e-10
1.53246e-10
-1.68544e-11
1.01602e-05
8.23149e-06
1.17403e-05
-2.6435e-09
-3.41208e-10
-1.89303e-06
0.000137663
4.06026e-11
6.38234e-05
-3.68748e-05
-4.72821e-07
-1.46665e-10
-0.000112845
3.44833e-07
6.67832e-12
-5.10109e-06
-0.000121571
0.000611546
-0.000136217
-0.000354126
-4.23977e-05
5.63913e-06
4.7602e-13
6.14268e-10
5.98733e-12
-2.1904e-11
1.11035e-12
-7.15155e-06
0.000158841
4.98109e-10
-6.50201e-05
3.55741e-06
-9.64913e-06
-4.46016e-06
0.000305393
-4.53314e-05
9.22632e-11
-4.18562e-08
3.64886e-05
1.49189e-10
-2.94359e-07
-2.1002e-11
6.09401e-06
-5.63819e-06
1.00821e-10
2.29096e-10
-6.38171e-06
-5.84184e-11
-1.67121e-10
3.14224e-11
-1.02203e-10
-6.77361e-05
-1.96487e-10
-2.98038e-05
-4.94575e-10
4.11496e-05
1.00708e-08
-6.39797e-06
-7.26784e-05
-4.50974e-05
-9.57773e-10
-2.44357e-07
-1.54661e-06
-5.89229e-11
-2.75437e-06
2.22816e-05
-0.000784755
-2.35368e-06
0.000857259
4.80987e-06
-1.84164e-11
-2.31397e-11
-2.59772e-10
3.52047e-05
-3.64329e-05
1.61593e-05
-3.17036e-11
2.96536e-06
-2.61296e-10
-8.59762e-05
2.80733e-10
-0.00107792
-0.000102772
-3.45267e-08
-1.30273e-06
-1.97295e-11
-2.42675e-10
-1.70121e-11
5.60096e-11
2.86359e-10
-2.40814e-10
1.06301e-10
9.44491e-09