/*--------------------------------*- C++ -*----------------------------------*\
| =========                 |                                                 |
| \\      /  F ield         | OpenFOAM: The Open Source CFD Toolbox           |
|  \\    /   O peration     | Version:  v2012                                 |
|   \\  /    A nd           | Website:  www.openfoam.com                      |
|    \\/     M anipulation  |                                                 |
\*---------------------------------------------------------------------------*/
FoamFile
{
    version     2.0;
    format      ascii;
    class       volVectorField;
    location    "350";
    object      U_0;
}
// * * * * * * * * * * * * * * * * * * * * * * * * * * * * * * * * * * * * * //

dimensions      [0 1 -1 0 0 0 0];


internalField   nonuniform List<vector> 
14315
(
(0.940936 -0.312622 2.46348e-19)
(0.395141 0.0752606 0)
(1.02956 -0.120375 -1.81935e-21)
(1.11037 -0.250272 3.61706e-20)
(1.12699 -0.304583 3.4895e-20)
(1.11758 -0.0405232 -5.34017e-20)
(0.131806 0.0419927 9.6315e-20)
(0.923536 -0.095028 0)
(1.09979 -0.165833 -4.2804e-20)
(1.02725 -0.0789498 4.59552e-21)
(0.677592 -0.166528 -9.02484e-20)
(-0.269082 -0.0232358 -5.6974e-20)
(0.829768 -0.261548 -1.49664e-19)
(1.03745 -0.00590494 1.05449e-20)
(-0.280202 -0.0234418 -2.09428e-19)
(1.01031 -0.00282976 7.22878e-21)
(0.927502 -0.097811 -2.97487e-20)
(1.00521 -0.0253663 2.91362e-21)
(1.13784 -0.183513 0)
(1.13154 -0.181205 0)
(1.00871 -0.0280055 1.7187e-22)
(0.322503 0.0187038 0)
(1.17633 -0.104494 -1.16857e-20)
(-0.269763 -0.0216839 5.7238e-20)
(1.04944 -0.302095 -3.35811e-20)
(0.370019 0.0751398 1.69918e-20)
(0.994182 -0.0212087 0)
(0.142505 0.0434263 -9.73788e-20)
(0.78712 -0.0978247 8.51896e-20)
(1.26872 -0.120685 1.66943e-19)
(1.14059 0.00858808 3.68427e-20)
(1.00524 -0.0305972 -4.97721e-21)
(1.04014 -0.00651093 2.29869e-20)
(0.746813 0.040891 1.0688e-19)
(0.00767978 0.00700057 -1.99349e-19)
(0.333672 0.0102086 -1.85937e-19)
(0.364254 -0.212137 -1.51214e-19)
(0.96102 -0.118764 2.07617e-20)
(1.28826 -0.0774599 1.7984e-19)
(0.978518 -0.354267 -3.68306e-21)
(-0.213633 -0.0172369 -1.84589e-19)
(0.194953 0.11045 -1.9017e-19)
(0.96295 -0.0751627 6.62232e-23)
(1.02435 -0.00148386 1.75289e-20)
(1.1745 -0.0630647 8.58658e-21)
(1.04545 -0.292015 2.42641e-20)
(0.777544 0.0517246 -5.65039e-20)
(-0.287769 -0.026734 0)
(-0.279877 -0.0251496 0)
(1.00524 -0.024465 -2.11639e-21)
(-0.280448 -0.0251559 -1.47177e-19)
(1.11953 -0.247407 -2.00056e-20)
(-0.277449 -0.0223316 0)
(-0.286208 -0.0265153 0)
(1.12693 0.0188648 8.31438e-22)
(0.367439 0.0129193 2.52185e-19)
(0.143074 -0.531234 -1.78632e-19)
(1.1148 -0.164688 1.17606e-20)
(1.00832 -0.0367268 7.60222e-22)
(1.02752 -0.116585 4.96952e-21)
(1.28352 -0.144794 1.34685e-19)
(0.734498 0.0824819 -7.33383e-20)
(0.349703 0.0144313 0)
(1.01003 -0.0314955 3.01286e-22)
(1.27155 -0.140171 6.96181e-22)
(0.384477 -0.391462 -1.1172e-19)
(0.732329 -0.260142 3.53883e-20)
(1.00123 -0.00864428 1.23408e-21)
(1.00999 -0.0301037 8.84022e-22)
(1.12814 0.0204534 -1.54093e-20)
(-0.286664 -0.0246052 1.32136e-19)
(1.11696 -0.154596 0)
(0.0316112 0.00633731 1.98762e-19)
(-0.123238 -0.0440957 1.62828e-19)
(1.00587 -0.0453556 0)
(0.122752 -0.0754106 0)
(1.11657 -0.0834944 3.51751e-20)
(0.431621 -0.0188335 -2.20338e-20)
(1.17145 -0.0652184 7.60991e-21)
(1.06396 0.00204713 -2.66111e-20)
(1.02557 -0.0132194 0)
(0.362831 0.01429 -9.1788e-21)
(1.11549 -0.149719 -4.44109e-20)
(0.46448 -0.0208775 -1.92544e-20)
(1.01006 -0.0265552 0)
(1.08724 0.00489025 -2.39328e-20)
(0.234262 -0.11957 0)
(-0.142474 -0.00875371 0)
(-0.287225 -0.0256137 2.27938e-19)
(0.688456 -0.152777 2.81254e-21)
(1.15802 -0.0229572 -5.28365e-20)
(0.901385 -0.297182 2.25348e-20)
(1.02648 -0.0137967 0)
(1.08927 -0.00371106 1.42942e-20)
(-0.235722 -0.0174205 1.26423e-19)
(-0.171005 -0.00653005 5.36457e-20)
(0.966326 -0.0755702 0)
(-0.199116 -0.0182606 0)
(-0.00322227 0.0213595 4.2502e-20)
(0.712101 0.152844 -8.25206e-20)
(1.00095 -0.00813755 -1.2209e-21)
(-0.273964 -0.0272209 0)
(0.32237 0.0142145 -8.77169e-20)
(1.02995 -0.0167796 -7.60679e-21)
(0.708242 0.171613 0)
(1.28469 -0.0798495 -1.96569e-19)
(-0.131893 -0.0248337 0)
(-0.169749 -0.00794171 3.75421e-21)
(1.15433 -0.000820451 0)
(1.22338 0.0199236 1.64465e-20)
(-0.179257 -0.00836472 -2.87681e-20)
(0.974768 -0.0321754 -5.06892e-22)
(-0.116802 -0.0242779 0)
(0.993257 -0.0259942 -6.56874e-21)
(1.0224 -0.0546016 0)
(-0.165786 -0.0115052 -1.30129e-19)
(0.993041 -0.0250748 8.43701e-21)
(-0.285718 -0.024261 -2.2222e-19)
(-0.131213 -0.0293513 -1.26641e-19)
(-0.147047 -0.0126585 -8.44563e-20)
(1.31114 -0.0630199 -7.41608e-22)
(1.12825 0.00108531 0)
(1.02923 -0.0151155 -5.3777e-21)
(-0.25107 -0.0189068 0)
(0.798055 -0.100688 -4.00445e-20)
(1.02369 -0.00177662 -9.95594e-21)
(0.491039 -0.0986456 -2.04623e-19)
(1.02152 -0.00900148 -7.11373e-21)
(1.06054 -0.0160576 -2.44876e-20)
(0.894276 -0.286233 3.71211e-20)
(-0.0412651 0.0111805 1.64574e-20)
(0.0504773 -0.0102984 6.17785e-20)
(0.73201 -0.545268 -7.0514e-20)
(-0.104667 0.00530681 0)
(1.27327 -0.11614 -1.14558e-19)
(1.0055 -0.0409444 -3.7252e-21)
(0.96405 -0.0272525 -1.23975e-20)
(0.431227 0.0748577 -1.65982e-20)
(1.06691 0.00117679 2.28125e-22)
(1.00617 -0.0440637 0)
(0.410385 0.0732543 -9.1215e-21)
(-0.237349 -0.0185779 2.05255e-19)
(0.974494 -0.0311219 0)
(-0.187575 -0.0167461 3.68388e-20)
(1.22275 0.01657 0)
(-0.0200876 0.0150236 -6.18592e-20)
(1.23096 0.0290742 -9.01046e-20)
(0.931999 -0.0171492 1.75762e-19)
(1.12146 -0.0169692 5.69603e-20)
(0.800567 0.00636495 0)
(1.03606 -0.110087 -1.07821e-20)
(-0.218108 -0.0198356 -1.99264e-20)
(1.00502 -0.0795129 -1.52365e-21)
(1.11966 -0.0186586 -7.36111e-20)
(1.1253 -0.295623 1.64876e-21)
(-0.278422 -0.0224039 2.07914e-19)
(0.956645 -0.0742348 3.20502e-20)
(1.01032 -0.00332699 0)
(1.11697 -0.0381254 4.96274e-20)
(0.423617 0.07367 -3.36678e-20)
(1.00921 -0.0379479 3.93443e-22)
(-0.268844 -0.0253883 1.30184e-19)
(0.821622 -0.019157 0)
(-0.259574 -0.0218215 1.32537e-19)
(1.05025 -0.0885065 0)
(-0.159337 -0.00607114 0)
(-0.0937396 -0.00288932 8.42919e-20)
(0.795212 -0.276464 0)
(-0.188718 -0.0296979 1.80764e-19)
(0.00469208 -0.0108906 0)
(1.08427 -0.05309 6.86e-20)
(1.00738 -0.00220931 -1.71676e-22)
(-0.134728 -0.00705568 1.48336e-20)
(1.02591 -0.0810576 -4.06234e-21)
(1.17632 -0.0500971 -6.31545e-20)
(0.339606 -0.240431 1.37646e-19)
(1.00009 -0.00142584 1.66462e-21)
(0.334218 0.0163914 0)
(0.188655 0.0182513 4.54713e-20)
(-0.0481228 0.0093649 -4.85144e-21)
(1.25178 -0.283707 4.69797e-20)
(1.11405 -0.0810221 0)
(1.02825 -0.014972 9.78567e-21)
(1.26255 -0.0127085 5.21812e-20)
(1.16415 -0.0941731 -8.4984e-21)
(0.95936 -0.109702 -2.98697e-21)
(0.972673 -0.341552 -1.54636e-21)
(1.28435 -0.0381516 -7.79322e-20)
(0.0401703 0.00640996 -2.48631e-20)
(1.2371 0.0294885 0)
(1.17208 -0.105687 -3.01869e-20)
(0.81995 -0.299389 -4.45926e-20)
(-0.135977 -0.000515204 1.24251e-19)
(0.229691 0.138409 2.03177e-19)
(1.0467 -0.00362488 8.21413e-21)
(-0.13281 -0.0334575 0)
(1.2897 -0.146664 -8.02663e-20)
(1.04143 -0.0454309 1.61122e-20)
(1.02572 -0.0256548 5.49026e-21)
(0.692668 -0.120715 -9.23174e-20)
(-0.233979 -0.0177805 4.1745e-20)
(1.08596 -0.116748 2.83943e-20)
(-0.265313 -0.0227283 -2.48255e-19)
(-0.126645 0.00224324 -1.03343e-19)
(1.06142 -0.0358248 7.21972e-21)
(1.19742 0.0848565 -8.60518e-21)
(1.26543 -0.137003 0)
(1.11074 -0.134871 0)
(1.01132 -0.00782522 2.97792e-21)
(-0.157244 -0.00321459 1.03472e-19)
(1.20358 0.0791448 -1.35798e-19)
(1.06415 -0.0162535 1.22411e-20)
(-0.229994 -0.0168249 -1.67952e-19)
(1.22334 -0.0697433 9.15483e-20)
(0.0499201 0.0311244 0)
(-0.119423 -0.0319686 0)
(0.534184 -0.0400799 1.30005e-20)
(0.0229418 0.0246218 0)
(0.0318713 0.0279381 -5.80267e-20)
(1.23327 -0.0584822 9.14499e-20)
(1.08803 -0.113807 -3.36661e-20)
(1.15197 0.000970456 4.61269e-20)
(1.18144 0.0431354 -3.38636e-20)
(0.995999 -0.111321 -1.6978e-21)
(0.693509 0.0828589 6.21039e-20)
(1.0366 -0.0970609 1.21258e-21)
(1.01357 -0.000595632 0)
(1.27742 -0.0127855 -5.4227e-20)
(0.0155722 0.0055479 -3.41285e-20)
(0.438438 -0.271468 1.91362e-19)
(1.01955 -0.00078407 0)
(1.04986 -0.0863713 1.47269e-20)
(0.810834 0.00583616 7.50185e-20)
(1.00028 -0.000449592 5.5305e-21)
(1.00003 -0.000593107 0)
(0.563893 -0.0758299 -2.00024e-20)
(1.16844 -0.0714764 7.92747e-21)
(1.11229 -0.139952 0)
(0.0198719 0.00812567 -9.74528e-20)
(-0.0320767 0.00931407 0)
(1.08713 -0.00319247 -2.01852e-20)
(1.14136 -0.0453667 1.1282e-20)
(0.274875 -0.630576 6.18313e-20)
(-0.217591 -0.0159266 1.11869e-20)
(1.10763 -0.590814 -6.97631e-21)
(0.777462 -0.275833 1.30105e-21)
(0.577904 0.0489746 1.08824e-19)
(1.00115 -0.00105579 5.3703e-21)
(-0.0151593 0.0096735 0)
(1.21384 -0.13206 6.90552e-20)
(1.04458 -0.0123213 0)
(1.02998 -0.0162158 7.46993e-21)
(0.111601 -0.0250671 -1.93827e-19)
(0.353131 0.108401 -9.08856e-20)
(0.964737 -0.054148 -2.70713e-20)
(0.206502 0.0403229 0)
(1.14469 -0.0660414 5.86049e-20)
(1.19712 0.0869672 -1.53201e-22)
(-0.144885 -0.0195547 -4.49547e-20)
(1.18334 0.0784237 7.46878e-20)
(0.719989 -0.511786 2.91177e-20)
(1.12957 0.00283479 -1.67758e-20)
(-0.242098 -0.018008 2.75526e-21)
(1.24161 -0.134778 0)
(0.979572 0.0940039 -1.10246e-19)
(1.14141 -0.0665378 -8.17004e-20)
(1.05577 -0.234147 -2.21534e-20)
(1.144 -0.0437801 1.17441e-20)
(1.08857 0.00364208 2.7282e-20)
(-0.186845 -0.011978 0)
(0.411776 0.0743488 -3.37268e-20)
(1.10314 -0.0575076 0)
(1.19896 0.0350121 0)
(-0.158392 -0.00958625 1.54491e-19)
(0.985644 -0.186369 0)
(0.499037 0.0548473 0)
(-0.192885 -0.0127496 8.38855e-20)
(1.17205 -0.0700845 0)
(-0.169803 -0.0191183 0)
(1.20846 -0.342195 3.63258e-20)
(1.14122 0.0109537 3.06718e-20)
(1.11052 -0.0287685 -4.40011e-20)
(-0.0253884 0.00912251 0)
(0.378921 0.0141839 -8.78482e-21)
(1.02178 -0.0526385 0)
(-0.261032 -0.0208621 0)
(0.304724 0.0153754 0)
(-0.123997 -0.0219753 2.41652e-22)
(-0.1138 0.00348051 0)
(0.387821 0.0219472 0)
(1.17805 -0.0534386 4.51475e-20)
(-0.232383 -0.0258661 -1.32201e-19)
(-0.137117 0.000864099 1.1131e-19)
(-0.15313 -0.0193635 -1.84715e-20)
(1.27692 -0.136501 5.70784e-22)
(1.19776 -0.00778163 2.60973e-20)
(-0.171179 -0.00782254 -3.26246e-20)
(1.22582 -0.0738276 -8.10447e-20)
(0.995613 -0.0340756 -1.72645e-20)
(1.02497 -0.0248305 0)
(1.15998 -0.0207859 -1.65881e-20)
(-0.252445 -0.0248103 -8.89102e-20)
(0.857086 -0.00945119 -1.55155e-19)
(0.344699 0.0687436 -1.94899e-20)
(0.962238 -0.107335 8.96468e-21)
(1.01048 -0.0273579 2.46253e-22)
(-0.0414288 0.0106534 0)
(0.293913 0.0173901 1.13538e-20)
(1.01032 -0.0210202 4.2711e-21)
(1.04686 -0.0114931 1.19529e-22)
(0.287575 -0.00853903 0)
(1.03017 -0.0120006 0)
(-0.136778 -0.0307031 1.02057e-19)
(-0.16907 -0.00662084 3.45908e-20)
(1.10023 -0.275344 1.32631e-20)
(1.28931 -0.0363385 -5.52165e-20)
(1.05913 -0.0151422 -1.16182e-20)
(1.14071 -0.0710399 5.18107e-23)
(1.0441 -0.0944293 0)
(1.00686 -0.00245749 0)
(-0.241815 -0.0194899 -2.1411e-19)
(1.33984 -0.215193 8.73817e-21)
(-0.148445 -0.00220871 -9.31718e-20)
(1.1488 -0.0551209 -6.20484e-20)
(1.16989 -0.454226 1.12653e-19)
(1.04762 -0.00399805 -1.72514e-20)
(-0.161339 -0.00645085 5.7189e-20)
(1.28668 -0.0862353 0)
(0.680318 -0.133007 -3.68888e-21)
(1.04562 -0.0114172 -1.56456e-20)
(1.1372 -0.0716964 -2.01896e-20)
(-0.0879121 0.00495498 -1.00414e-20)
(1.0001 -0.00650895 1.43047e-20)
(0.00358441 0.00642055 1.06626e-19)
(-0.0809968 -0.0378961 0)
(1.00475 -0.0222305 0)
(-0.128428 0.00204297 -8.2983e-20)
(0.133835 -0.0262304 1.31982e-19)
(0.127467 -0.0267434 8.91425e-21)
(0.121067 0.0376535 6.56738e-20)
(1.04166 -0.0440082 1.49195e-20)
(0.983185 -0.0272226 -3.26986e-20)
(1.0157 -0.016704 9.51823e-21)
(1.00095 -0.000835344 -3.34007e-21)
(0.748905 0.0303103 1.32216e-19)
(1.00742 -0.00364399 5.93654e-21)
(1.04452 -0.0128314 8.50016e-21)
(0.46644 -1.01446 0)
(1.2309 0.0252669 4.62011e-20)
(-0.171736 -0.00599545 -5.96606e-20)
(0.999914 -0.00169841 -1.68516e-20)
(0.962703 -0.0262431 -7.56835e-21)
(-0.0486111 0.00744532 0)
(-0.195897 -0.0136646 -8.04406e-20)
(0.318382 -0.43898 -1.38687e-19)
(0.994198 -0.0448919 0)
(1.06355 -0.0364653 0)
(1.00002 -0.000557334 0)
(1.01047 -0.0227209 2.07182e-21)
(-0.176955 -0.0103619 3.31326e-20)
(0.78361 0.0402105 4.96493e-20)
(0.935487 0.0928683 0)
(0.9078 -0.0178764 1.75914e-22)
(0.945486 0.0913 1.4527e-19)
(0.595683 0.0361837 3.16015e-20)
(-0.141553 -0.0230318 -9.36825e-20)
(1.0217 -0.0098625 -7.36046e-21)
(-0.209936 -0.0139905 1.92294e-20)
(-0.038773 0.00730113 4.72133e-20)
(1.14268 0.00680648 1.30096e-22)
(1.31159 -0.193881 9.94366e-20)
(1.00501 -0.0769503 0)
(0.99992 -0.00182551 1.36948e-20)
(0.536458 0.0520544 0)
(-0.0808513 0.00682303 -1.91194e-20)
(1.056 -0.228395 1.12883e-21)
(1.04115 -0.0940221 0)
(1.00437 -0.0212013 0)
(0.994189 -0.0429796 0)
(0.0839048 -0.161294 8.09586e-20)
(-0.295205 -0.0268399 -1.41554e-19)
(1.12011 -0.146089 0)
(1.00747 -0.00420319 -6.20817e-21)
(1.05363 -0.0524258 -1.06849e-19)
(0.93931 -0.316224 0)
(0.194603 0.047915 0)
(1.18345 0.0451646 -6.45464e-20)
(0.187971 0.0384648 4.35429e-21)
(0.218283 0.0486871 -2.32815e-20)
(1.21203 0.0698131 -3.86883e-20)
(1.04816 -0.0911604 6.97631e-21)
(-0.267533 -0.0227584 0)
(0.158746 -0.0273363 -1.66032e-20)
(0.71902 0.0399073 -1.14715e-19)
(-0.17872 -0.00745111 1.48713e-20)
(0.126 0.0373262 -6.64153e-20)
(0.893666 -0.176425 1.44218e-20)
(0.999926 -0.00227042 1.01615e-20)
(1.15455 -0.00307681 1.04317e-19)
(0.0427044 0.0280314 2.80376e-20)
(1.04544 -0.0907293 -1.8483e-20)
(0.909409 -0.0928154 3.71067e-20)
(1.0581 -0.0130697 -1.19896e-20)
(-0.286222 -0.0272712 -4.24765e-21)
(0.203402 0.0476383 -1.10154e-19)
(1.20087 0.0821279 0)
(-0.126338 0.00260195 2.63714e-20)
(1.34119 -0.210855 0)
(0.959875 0.0939173 0)
(0.324933 0.0121243 0)
(1.01858 -0.0209092 -7.03903e-21)
(-0.0460286 0.0149992 -1.00157e-22)
(-0.263597 -0.0202786 -2.05817e-19)
(1.20151 -0.00764269 -3.25105e-20)
(1.05839 -0.0188583 0)
(1.02971 -0.0112485 0)
(1.23421 0.0306849 9.68606e-20)
(-0.162396 -0.0200415 -8.04932e-20)
(1.00961 -0.0197038 0)
(1.08082 -0.573101 4.02768e-20)
(1.10342 -0.0551211 0)
(0.341962 -0.0816441 3.97208e-20)
(1.28326 -0.0890159 0)
(0.90669 -0.097305 -5.01439e-20)
(0.999989 -0.00586357 -2.81019e-23)
(-0.200715 -0.0177258 1.24494e-19)
(-0.147478 -0.0295194 1.08233e-19)
(1.20962 -0.109959 1.05478e-19)
(1.16459 -0.0772942 -5.90502e-20)
(1.12477 0.023801 4.38243e-20)
(-0.204824 -0.0258092 1.30147e-19)
(0.404057 0.0720205 0)
(0.999799 -0.00235911 -1.31329e-20)
(1.10006 -0.160927 -3.71317e-20)
(1.23449 0.0656804 0)
(1.10296 -0.00668845 -2.65957e-20)
(1.22952 -0.0223046 4.1209e-20)
(-0.14884 -0.00177872 -7.4455e-20)
(1.13344 -0.282386 4.05171e-20)
(0.995455 -0.0324689 1.8797e-20)
(0.358972 0.0737132 1.5278e-19)
(0.996652 -0.0444492 0)
(-0.0800881 0.00717999 0)
(1.00901 -0.0290278 -7.39641e-23)
(0.96514 -0.118474 3.56001e-20)
(1.24087 0.0302196 1.5823e-19)
(0.938434 -0.301187 0)
(-0.189933 -0.0166603 -1.45621e-19)
(1.00353 -0.0199083 0)
(0.999028 -0.109464 1.40758e-21)
(0.651635 -1.01372 0)
(-0.234223 -0.0192123 5.12553e-20)
(0.999596 -0.00943701 -1.6957e-22)
(1.18041 -0.0200298 -5.21933e-20)
(1.11275 -0.0299177 5.37332e-20)
(-0.222733 -0.0147669 -1.45059e-19)
(1.32802 -0.309354 0)
(-0.183984 -0.0178246 0)
(-0.0334796 0.016533 2.32729e-20)
(1.22598 0.0138286 0)
(0.999007 -0.0578769 -6.24918e-21)
(0.537722 0.0829595 -9.81411e-20)
(-0.279157 -0.0244582 -5.2384e-20)
(1.22718 -0.0253086 -3.70666e-20)
(0.224273 0.0494685 1.46208e-19)
(0.977529 0.0316129 -5.18523e-20)
(-0.288336 -0.0271192 0)
(1.22498 0.0111059 1.86034e-20)
(1.18204 -0.0173884 8.50222e-20)
(-0.0479764 0.0091495 0)
(1.1243 -0.00550522 -2.96202e-20)
(1.21806 0.0304671 0)
(-0.181183 -0.00749496 6.65793e-20)
(1.17953 -0.0316704 4.1985e-20)
(-0.240595 -0.0193442 2.49018e-20)
(0.986724 -0.113476 -9.24318e-21)
(1.03752 -0.00769742 0)
(1.07966 -0.0676623 1.49865e-20)
(-0.172237 -0.0061813 -5.60219e-20)
(-0.229231 -0.0184256 0)
(1.20619 0.00208012 -3.57738e-20)
(0.223372 0.000855168 3.09762e-20)
(1.21713 0.0281298 0)
(-0.109485 -0.00772849 1.86096e-20)
(-0.174622 -0.021233 0)
(1.24639 -0.275669 -1.13092e-19)
(1.00003 -0.00104743 0)
(0.102012 0.0358535 -8.65686e-20)
(0.938197 -0.0744578 -5.83299e-20)
(1.2283 -0.0583466 0)
(1.01805 -0.0202578 -1.37435e-22)
(1.33034 -0.315421 -3.80369e-20)
(1.03961 -0.0728803 8.71402e-21)
(1.0944 -0.269098 0)
(1.21267 0.080579 0)
(-0.0271807 0.013572 1.62247e-20)
(1.00112 -0.0073621 -2.60712e-23)
(1.09387 -0.151769 0)
(0.244711 -0.00207065 0)
(0.419816 0.074115 0)
(0.801891 -0.298611 1.16218e-20)
(-0.159356 -0.0308635 2.78046e-20)
(-0.263039 -0.0214734 1.61679e-19)
(1.05322 -0.0853266 -2.13383e-20)
(1.00002 -0.00126241 9.76644e-22)
(1.05958 -0.0197608 0)
(-0.00491176 -0.0491898 0)
(1.25492 -0.192112 1.09026e-21)
(0.98469 -0.179854 0)
(1.0595 -0.0139155 3.79684e-20)
(0.48748 0.0795525 -6.68639e-20)
(1.02614 -0.0762243 0)
(1.08541 -0.0337273 1.5533e-20)
(1.0814 -0.054736 0)
(1.2011 0.0845339 1.05403e-20)
(0.255032 -0.00292697 1.56099e-20)
(0.770225 -0.241044 0)
(0.105227 0.0354944 6.99715e-20)
(0.831537 0.0274651 -5.41657e-20)
(1.19612 -0.206608 1.84554e-19)
(-0.256983 -0.0199957 5.98443e-20)
(1.10343 -0.00934473 -1.05942e-20)
(1.10476 -0.00588561 3.9067e-20)
(0.805642 -0.0893548 -3.70862e-20)
(1.24201 -0.48768 7.35708e-20)
(-0.181282 -0.0077787 -6.1298e-20)
(1.0274 -0.0843627 4.18351e-21)
(1.00114 -0.0079459 6.51549e-23)
(1.22748 -0.0327416 0)
(1.06602 0.000210203 0)
(0.997659 -0.0453245 -3.2906e-21)
(1.20372 0.00445595 0)
(1.00876 -0.0213646 -5.1144e-21)
(1.04687 -0.00976365 2.47267e-20)
(1.24274 -0.0370483 -8.5131e-20)
(-0.286675 -0.0254366 -3.28898e-20)
(0.962244 -0.0543793 2.20568e-20)
(-0.264499 -0.0215821 1.25354e-20)
(1.24261 -0.0959569 -5.60838e-20)
(1.00042 -0.00541471 -2.96909e-21)
(-0.165716 -0.0196519 0)
(1.10164 -0.0102475 -8.75302e-21)
(-0.103453 0.00582642 -4.6724e-20)
(1.24383 0.0618297 1.69947e-20)
(1.0832 -0.0337479 -4.01868e-20)
(1.17056 0.0322489 -5.38781e-20)
(1.0765 -0.0867303 2.37469e-20)
(1.25763 -0.0622675 0)
(1.20513 -0.111497 -6.11327e-20)
(-0.187768 -0.0120558 -8.92343e-20)
(1.08622 -0.0313852 -2.66757e-20)
(1.05312 -0.0824593 -1.08876e-20)
(0.154058 0.0477018 0)
(0.114598 -0.159874 -2.10203e-19)
(0.449059 0.0730003 0)
(1.13836 -0.0322331 0)
(0.815339 -0.0930999 -5.691e-20)
(0.985034 -0.033464 2.65737e-20)
(0.999156 -0.0543951 0)
(1.11803 -0.140982 -4.94247e-20)
(-0.0878042 0.00560654 0)
(0.0121007 0.00123517 1.05373e-19)
(-0.0480864 0.00870633 0)
(1.25463 -0.198213 6.96023e-20)
(1.20577 -0.330728 -6.81348e-20)
(1.2509 0.0129175 1.50568e-20)
(0.993559 -0.0216546 -3.64177e-21)
(1.00032 -0.00485807 0)
(1.15359 0.0236613 -1.29701e-20)
(1.07307 -0.0238754 0)
(0.819077 0.00336775 -1.41394e-19)
(1.02386 -0.00827333 -1.59477e-20)
(-0.255909 -0.0200838 -1.77474e-19)
(1.23269 0.0466723 0)
(-0.172481 -0.0112486 4.19811e-21)
(1.02136 -0.000262199 -1.64604e-22)
(1.17766 -0.0437824 4.44365e-20)
(1.0047 -0.0308533 0)
(0.570114 0.935338 7.59205e-20)
(1.03838 -0.00586324 0)
(0.515914 0.0566879 -1.58135e-19)
(1.15763 -0.223241 0)
(0.994486 -0.0200444 0)
(1.19084 -0.116612 -1.3593e-19)
(1.00998 -0.0215938 -2.07834e-21)
(1.07464 -0.088547 -3.72284e-20)
(1.0374 9.02732e-05 1.62754e-20)
(1.12271 0.0225964 1.43426e-20)
(1.24642 -0.209188 1.32431e-19)
(1.03474 -0.0876474 7.73549e-21)
(-0.105384 -0.00636128 3.28244e-20)
(1.00929 -0.0276846 -2.81692e-22)
(1.25419 -0.0642254 -4.80588e-20)
(1.19184 0.0361828 1.40937e-20)
(1.25585 -0.0729039 -7.25884e-21)
(1.01128 -0.0233229 0)
(0.826905 0.0394527 -5.08786e-20)
(0.880576 -0.047593 1.85505e-20)
(0.384661 0.0725132 0)
(-0.134489 -0.000719674 5.28203e-20)
(1.16452 0.0416079 -3.19894e-20)
(1.21504 0.0554811 0)
(-0.130406 -0.0208539 9.20913e-20)
(0.136834 -0.139488 0)
(1.08843 -0.0313707 -1.53848e-20)
(1.0012 -0.00748675 2.46312e-22)
(-0.0374719 -0.0431827 -1.07483e-19)
(0.984659 -0.0642645 1.22651e-20)
(1.04929 -0.164441 -5.46625e-21)
(0.344753 0.634681 2.44931e-20)
(-0.0986539 -0.00468235 -9.92091e-20)
(1.23736 0.0358611 -4.75037e-20)
(-0.105181 0.00574494 4.45026e-20)
(1.03716 -0.00642885 1.15494e-20)
(0.655696 -0.292439 3.27256e-20)
(0.899909 -0.0838488 -3.17233e-20)
(1.25283 -0.0703692 -6.72828e-21)
(0.565206 -0.190176 1.46281e-19)
(0.999729 -0.00919549 -1.31857e-20)
(1.01838 -0.017587 -6.21098e-21)
(1.22932 0.0475443 -4.65073e-20)
(1.20421 0.0817567 6.92643e-20)
(1.0262 -0.0869713 -3.37651e-21)
(1.24981 0.0105711 -2.61893e-20)
(-0.0581682 0.00887379 -2.15833e-21)
(1.05409 0.00104451 3.40539e-20)
(1.06371 -0.00645472 3.4983e-21)
(0.228607 0.0485855 0)
(0.562339 -0.173194 0)
(-0.147857 -0.00198598 0)
(1.04131 -0.0036137 1.22076e-20)
(1.21443 -0.102904 -8.70142e-20)
(1.00337 -0.0270872 -8.15803e-21)
(1.04042 -0.00599374 1.0224e-21)
(-0.0413777 0.0100399 1.71476e-20)
(1.00112 -0.00692574 -2.19631e-22)
(-0.0283138 0.0128308 5.76109e-20)
(1.16861 -0.0759314 7.19191e-20)
(0.546886 0.0389574 3.24409e-20)
(1.03985 -0.0423511 -1.71507e-20)
(0.978989 -0.0345898 -2.79979e-20)
(1.17112 0.0342103 9.46811e-20)
(1.14512 -0.0537395 6.018e-20)
(-0.19665 -0.0212936 0)
(0.523007 0.0792259 -1.03584e-20)
(-0.0915721 -0.00335312 -4.13242e-20)
(1.03384 -0.112912 -1.46476e-20)
(1.18031 -0.0258184 9.58167e-21)
(0.999902 -0.00186732 0)
(1.14139 0.00382272 -4.03816e-20)
(0.421269 -0.41597 -9.1415e-20)
(1.16556 -0.117648 0)
(0.092122 0.0357301 0)
(1.18903 0.036645 1.27278e-20)
(1.2375 0.0286343 0)
(0.853329 -0.238994 1.23639e-19)
(1.16025 -0.0959223 0)
(1.13574 -0.0307524 0)
(1.23865 -0.0985567 5.66971e-20)
(0.178285 0.0504925 4.24783e-20)
(1.07126 -0.0240515 0)
(1.13728 -0.0329794 -5.95106e-21)
(1.24335 0.0508113 -4.24221e-20)
(0.427363 0.00179669 0)
(1.20933 0.0711787 -1.32064e-19)
(0.323518 -0.0780629 1.2748e-19)
(1.01376 -0.00179592 -1.9857e-20)
(1.01788 -0.130632 0)
(-0.157227 -0.0038051 -2.99588e-20)
(0.957747 -0.0768356 -5.52044e-20)
(-0.285148 -0.0230384 0)
(1.06356 -0.00562227 1.27048e-20)
(1.24645 -0.202652 -1.94856e-19)
(0.998246 -0.0527935 0)
(1.17944 -0.0470936 1.07001e-20)
(1.06411 -0.0175075 -2.91267e-20)
(0.452661 -0.497126 6.84622e-20)
(-0.0101584 0.00960976 -2.35889e-20)
(1.00317 -0.012786 5.07894e-22)
(0.71584 0.774521 -5.60875e-20)
(1.00356 -0.0135694 -8.88075e-22)
(1.0001 -0.00133519 0)
(1.10704 -0.618134 7.82977e-21)
(-0.198026 -0.0177372 0)
(1.16224 -0.0323455 7.54799e-20)
(-0.17814 -0.0103081 -7.32946e-20)
(1.22615 0.0652405 1.75884e-20)
(0.0345031 -0.062228 4.79134e-20)
(0.183315 -0.5612 1.68017e-19)
(1.06604 -0.0144669 -4.24677e-20)
(0.968068 -0.0715174 -1.18113e-20)
(1.03755 9.93361e-05 0)
(1.07652 -0.0195108 5.90874e-20)
(1.16222 0.0394768 -3.21667e-20)
(1.07671 -0.0209454 -6.26412e-20)
(1.14746 -0.461319 -1.19998e-19)
(0.559205 0.0509444 -1.07486e-19)
(1.16045 -0.0828651 0)
(1.13863 -0.0502366 0)
(0.986315 -0.0655888 0)
(1.06919 -0.0119592 -1.7475e-20)
(-0.0463366 0.00790475 -2.02162e-20)
(1.01609 -0.00156919 -1.00305e-20)
(1.15066 -0.220853 0)
(1.21019 -0.103806 9.96528e-20)
(1.09398 -0.157285 0)
(-0.20761 -0.0141536 -1.69979e-19)
(0.58201 -0.0352301 8.17417e-20)
(1.20288 0.0571831 -7.152e-20)
(0.270823 0.0522069 -6.02622e-20)
(1.01196 -0.167361 1.29319e-21)
(-0.279918 -0.0263147 -6.81157e-20)
(1.1261 -0.18646 -4.09509e-20)
(1.03914 -0.00650067 -1.62024e-20)
(1.00293 -0.026364 7.9629e-21)
(0.981454 -0.0561344 -1.74299e-20)
(1.1107 -0.168717 2.387e-22)
(1.07839 -0.0695158 0)
(1.18709 -0.0386171 4.56205e-20)
(1.07133 -0.0872255 -3.00246e-20)
(1.02173 -0.132132 -7.53227e-22)
(-0.250873 -0.0242664 0)
(1.04211 -0.00393574 -4.05914e-20)
(0.985529 -0.109145 0)
(1.19045 -0.225663 1.24493e-19)
(1.09075 -0.00245528 0)
(1.00285 -0.165533 -1.2268e-23)
(1.23523 -0.06219 9.24257e-20)
(0.971171 -0.0772901 1.39915e-20)
(0.478564 0.714589 0)
(1.02741 -0.0137926 0)
(0.999755 -0.00245607 -7.53684e-21)
(0.536275 0.0493073 -8.99343e-20)
(0.0514762 0.00643265 2.83495e-20)
(-0.064582 0.00722378 9.16422e-21)
(0.398967 -0.223932 1.31737e-19)
(1.00657 -0.0409106 0)
(-0.1354 0.00098732 -1.44266e-20)
(0.843422 -0.0982495 0)
(1.00662 -0.0389389 2.83275e-21)
(0.207575 -0.127088 0)
(1.0045 -0.00130477 3.31888e-21)
(1.00528 -0.029162 3.17919e-21)
(1.17299 0.0277848 -1.78972e-20)
(1.00388 -0.0210229 -1.64857e-21)
(-0.110091 -0.00469869 -3.01223e-20)
(1.08208 -0.0859448 -8.9866e-21)
(0.280827 -0.585849 -7.38437e-20)
(0.992694 -0.109497 0)
(0.517826 0.050838 1.49489e-19)
(1.30052 -0.195706 -9.31678e-20)
(1.19123 -0.211658 -3.87216e-20)
(0.977832 -0.164303 0)
(-0.290033 -0.0253537 -1.71579e-20)
(0.758562 0.00877623 2.00792e-19)
(-0.185871 -0.0115627 -3.48954e-20)
(0.99823 -0.0563271 3.4107e-21)
(1.09206 0.0844407 -1.60144e-20)
(0.866065 -0.135141 1.36928e-20)
(-0.146173 -0.0212832 2.48474e-20)
(1.00003 -0.00197463 0)
(-0.079106 0.00637784 -5.67653e-20)
(-0.275854 -0.0239107 -1.41074e-20)
(1.08164 -0.542062 0)
(0.60233 -0.04276 5.72421e-20)
(1.00467 -0.0136971 9.31697e-22)
(-0.287839 -0.0203389 7.28675e-20)
(1.12819 0.00559849 0)
(1.17331 0.029974 0)
(0.493811 -0.474095 1.34437e-21)
(-0.0302938 0.00969468 -5.24519e-22)
(1.03512 -0.0937957 8.29066e-21)
(0.988431 -0.0644803 -1.06332e-20)
(0.35868 -0.00510166 0)
(-0.1802 -0.0126049 -5.77943e-20)
(1.04899 0.469174 0)
(1.01548 -0.0174112 -2.62997e-21)
(1.32133 -0.330934 -1.58593e-19)
(0.041113 -0.013595 -1.2947e-19)
(0.0124232 -0.0130159 1.12254e-19)
(1.01169 0.0878607 1.52992e-20)
(1.06962 -0.0890771 4.13491e-20)
(0.341962 -0.39971 1.3392e-19)
(0.658916 0.0787663 4.49677e-20)
(-0.0380509 0.0106006 -7.78116e-20)
(1.18254 -0.0233778 -1.04209e-20)
(0.336636 0.00937642 -6.93719e-21)
(0.847407 -0.0908076 0)
(1.04796 -0.0103412 -8.82472e-21)
(1.00735 -0.167795 -2.86896e-21)
(0.996285 -0.0201248 4.30513e-21)
(1.06252 -0.171619 -2.50476e-20)
(1.20667 0.0705434 8.45491e-20)
(0.649067 0.0491784 -5.63147e-20)
(0.995532 -0.0179077 7.36187e-21)
(0.952685 -0.0737027 0)
(1.15849 -0.0315375 -1.46683e-20)
(0.345501 -0.00994458 1.35289e-19)
(0.783422 0.0606898 -1.8144e-20)
(0.958983 -0.114439 -2.30939e-20)
(1.29442 -0.0388713 -3.05171e-20)
(-0.112335 0.00412955 -6.2651e-20)
(-0.184655 -0.0140703 0)
(1.09258 -0.0257822 5.06276e-20)
(0.228002 0.0381186 8.31326e-22)
(0.999864 -0.00179002 6.90825e-21)
(1.12436 -0.024505 0)
(1.16457 -0.0297044 -5.44136e-20)
(0.657251 0.150238 0)
(-0.281317 -0.0248607 0)
(1.01205 -0.00800347 1.11283e-21)
(-0.156439 -0.0067724 0)
(1.23427 0.0409092 0)
(0.0154928 0.00809435 -1.0826e-19)
(0.560679 -0.0522317 2.26642e-20)
(0.950132 -0.294142 6.32458e-21)
(0.186516 0.0500563 -5.34152e-20)
(0.944105 -0.209497 4.34258e-21)
(0.138367 -0.13205 1.13478e-19)
(0.999738 -0.0079041 -4.19864e-21)
(1.09217 0.00857889 -1.45404e-20)
(0.860373 -0.12966 -1.57093e-20)
(1.22974 -0.0295517 3.89648e-20)
(1.10247 0.0112738 0)
(0.981031 -0.0546217 1.45556e-20)
(1.05905 -0.167832 3.05071e-20)
(1.17804 -0.000467863 7.97747e-20)
(0.255589 -0.0752805 -5.30819e-20)
(1.06751 -0.0125718 -1.85629e-22)
(1.03991 -0.0705926 1.09293e-21)
(0.260009 0.0218854 0)
(-0.139814 -0.00498767 0)
(-0.239442 -0.0243845 0)
(0.757467 0.0177939 -6.77289e-20)
(1.02935 -0.102448 -2.6559e-21)
(-0.0416343 0.00943213 0)
(1.08012 -0.0879842 9.3704e-21)
(1.01832 -0.016654 0)
(-0.0961892 -0.00514021 -1.62237e-20)
(0.892278 -0.0652546 0)
(-0.163472 -0.00638308 0)
(0.095193 0.0349814 -7.72614e-20)
(-0.157145 -0.00337894 -3.67877e-21)
(1.21862 -0.0804317 5.80534e-20)
(0.202513 0.0493013 5.67783e-20)
(1.25158 0.00410893 0)
(0.894888 -0.330905 0)
(0.0239641 -0.0134678 -1.28076e-19)
(1.01501 -0.164193 3.67994e-22)
(0.997313 -0.00968645 0)
(1.01047 -0.0243994 -1.03638e-21)
(0.611918 0.0485645 -1.68074e-19)
(0.488884 0.0548788 1.08298e-19)
(1.27012 -0.126484 -5.61946e-20)
(-0.282128 -0.0272703 0)
(1.09898 -0.149175 0)
(-0.20836 -0.0261519 1.39483e-19)
(0.495831 -0.129463 -4.18485e-21)
(1.13682 -0.0262585 3.74283e-20)
(0.736551 -0.25283 0)
(0.817279 0.0155763 -8.19968e-20)
(-0.130217 -0.00233726 1.0121e-19)
(0.888515 -0.0692399 -4.30066e-20)
(0.974515 -0.11108 0)
(1.1354 -0.0485661 0)
(1.00023 -0.000330357 -7.45057e-21)
(1.24657 0.0222153 -1.56959e-19)
(1.03648 -0.124253 2.11017e-21)
(1.30932 -0.0595281 -1.17744e-19)
(1.11238 -0.159107 3.18843e-20)
(1.00017 -0.00349677 1.52239e-22)
(0.989302 -0.0627327 0)
(0.0121905 -0.0582611 0)
(0.984107 -0.0195327 -2.24759e-20)
(1.0376 -3.22335e-05 -1.87352e-20)
(1.0134 -0.00393832 7.13989e-21)
(1.24384 0.024227 2.7e-20)
(1.1291 -0.0077375 0)
(0.901284 -0.181555 -9.00143e-20)
(1.15613 0.0224379 2.88173e-20)
(-0.286363 -0.0260758 -1.45216e-19)
(0.972223 -0.0752634 -2.63401e-20)
(1.02403 -0.00906529 -8.29908e-21)
(1.02404 -0.0555298 -4.11693e-21)
(0.529167 -0.138799 -9.32433e-20)
(1.08454 -0.00719768 -1.58014e-22)
(-0.30044 -0.0282628 0)
(0.995278 -0.0128516 -2.64381e-21)
(0.320959 0.0670543 6.06424e-20)
(1.0351 -0.022626 -2.27862e-20)
(-0.114397 0.00383474 2.70848e-20)
(-0.161419 -0.0107725 -1.80298e-20)
(1.00015 -0.000189971 2.03947e-21)
(0.696564 -0.439477 -1.70433e-19)
(0.456664 0.07799 1.00471e-19)
(0.913706 0.0683091 8.1791e-20)
(-0.0441176 0.00783536 1.00448e-19)
(1.14569 -0.0603526 2.35154e-20)
(1.25991 -0.140563 0)
(0.959125 0.0907385 -1.61181e-20)
(-0.156354 -0.00933429 -6.61093e-20)
(1.04136 -0.00478919 1.60575e-20)
(1.18198 -0.0290559 -8.68857e-20)
(1.30543 -0.0668553 0)
(1.03192 -0.0876769 -1.17836e-20)
(0.274846 0.00383602 -2.26487e-20)
(1.032 -0.000155975 -1.48772e-20)
(-0.29432 -0.0268566 1.47694e-19)
(-0.168265 -0.00652976 0)
(-0.0975922 -0.00318457 -3.94907e-20)
(1.10499 -0.167917 4.29045e-20)
(0.593471 0.0319864 1.34075e-19)
(0.204427 0.0190943 -1.49731e-19)
(1.0623 -0.0180718 -2.88408e-20)
(-0.302686 -0.026652 1.36838e-19)
(1.00748 -0.0387695 -2.60073e-22)
(1.08558 -0.00430573 0)
(-0.0801548 0.00791919 -9.54176e-21)
(0.109248 -0.388343 1.14738e-19)
(0.98328 -0.0192461 3.02969e-20)
(1.16955 -0.217017 -3.32643e-20)
(0.878076 0.0951339 6.7583e-20)
(0.973331 -0.106823 1.47465e-20)
(0.00305443 0.00916086 -5.41434e-20)
(0.994871 -0.0350716 1.17604e-20)
(1.2375 0.0384241 0)
(0.997658 -0.00951849 2.65704e-21)
(0.848958 -0.0196496 3.75045e-20)
(0.889037 0.0346427 5.18367e-20)
(0.957523 0.568761 1.56837e-20)
(1.06612 -0.0157259 3.08077e-20)
(1.00008 -0.000175476 -3.41565e-21)
(0.620799 0.078303 0)
(1.15455 0.031997 0)