/*--------------------------------*- C++ -*----------------------------------*\
| =========                 |                                                 |
| \\      /  F ield         | OpenFOAM: The Open Source CFD Toolbox           |
|  \\    /   O peration     | Version:  v2012                                 |
|   \\  /    A nd           | Website:  www.openfoam.com                      |
|    \\/     M anipulation  |                                                 |
\*---------------------------------------------------------------------------*/
FoamFile
{
    version     2.0;
    format      ascii;
    class       volScalarField;
    location    "200";
    object      ddt0(k);
}
// * * * * * * * * * * * * * * * * * * * * * * * * * * * * * * * * * * * * * //

dimensions      [0 2 -3 0 0 0 0];


internalField   nonuniform List<scalar> 
13851
(
3.94638e-08
-0.00338692
-9.60783e-08
1.32688e-08
1.15688e-07
0.000185343
-1.26617e-09
-1.25318e-07
1.17216e-08
-9.10186e-07
0.00123378
0.0020081
-0.00038262
0.0149368
-6.07169e-09
-3.42562e-09
-1.83269e-08
-8.24229e-08
-0.000546793
-1.67226e-09
7.41209e-09
-6.82111e-09
-9.54749e-09
-6.13414e-10
-7.5792e-09
-1.39052e-07
-2.2054e-08
0.000269858
1.36221e-08
-3.5185e-08
0.00078973
2.30968e-08
-1.10679e-07
0.0016932
-2.50048e-09
2.37667e-07
1.34106e-05
-0.000271713
-5.67266e-07
2.18915e-05
-7.9339e-10
1.64756e-09
-0.000304286
0.000488698
0.000339059
0.000653468
0.000545849
0.00165745
-2.08841e-08
-4.34506e-06
5.63951e-08
-4.5039e-07
0.000827841
6.55992e-09
-6.63019e-10
-1.06452e-08
-2.56988e-08
0.00129072
-6.03667e-08
-9.86437e-08
-0.000254043
-0.0057819
5.70093e-07
4.9729e-08
-0.00537699
5.02522e-08
1.53458e-05
0.0010063
1.41076e-09
-8.45782e-08
1.02842e-05
-1.14953e-05
-0.00504191
5.62841e-10
9.40794e-10
2.56873e-09
-2.29737e-08
6.70883e-05
4.47922e-09
-1.73583e-06
-2.81895e-08
0.00014034
-8.0351e-09
0.00187374
5.66484e-09
0.00113912
1.12896e-05
-0.0197318
-2.23087e-09
1.55141e-08
2.57153e-07
1.17184e-05
0.00090285
3.56097e-08
-1.66762e-08
-2.90241e-07
4.50581e-08
-0.000155758
-8.46087e-05
1.5892e-07
0.0114515
7.65849e-09
-2.35825e-09
-8.32452e-09
1.47527e-09
1.00945e-05
-2.04354e-09
2.22517e-09
-2.70853e-05
0.000350161
4.04066e-10
1.2235e-08
7.04871e-07
2.68504e-09
4.48085e-12
-0.0127699
-0.000188724
5.36789e-11
-2.59637e-09
-5.63825e-11
-0.000591695
5.12224e-09
-0.000449669
-0.00405254
0.000651615
-4.23e-08
0.000748898
1.27556e-08
-1.43179e-09
-8.93486e-07
3.55498e-09
3.53202e-09
7.99461e-06
6.16781e-09
-0.0116632
9.4814e-10
-1.73544e-10
6.01789e-06
0.00821087
-0.0135506
0.0101659
-1.5231e-09
1.58775e-09
5.01823e-09
-1.1607e-08
0.000194541
-2.3823e-05
-6.88192e-07
4.4796e-09
0.000105803
9.12591e-08
5.34479e-11
0.0151071
-3.79474e-08
-4.17741e-09
-9.20828e-10
-5.56877e-09
9.83294e-09
-4.53208e-07
1.12671e-08
1.01821e-09
7.81664e-09
0.00114494
-6.2995e-09
6.17054e-08
3.85077e-09
-2.83769e-05
2.33707e-08
1.82493e-08
-0.000840257
6.08797e-05
-1.49037e-09
-4.60541e-09
-0.012393
-8.99767e-09
0.0020785
8.25558e-09
-6.03011e-09
-0.000606592
-1.98105e-09
-2.23886e-09
-1.90428e-06
1.26618e-08
5.87985e-08
-1.42875e-09
-6.73065e-08
3.51161e-08
4.07479e-10
8.35711e-08
-3.3025e-06
0.00079336
0.000819514
2.36197e-08
-3.12872e-08
-0.00425226
8.13244e-09
-1.24332e-11
-0.00199241
-6.92387e-09
-7.88938e-09
-1.12873e-07
-0.00729117
-1.00704e-09
7.30119e-09
-1.04465e-06
1.52348e-08
0.00669904
1.15318e-08
5.99894e-05
-2.97974e-09
6.98593e-05
1.46837e-08
0.000621509
1.15102e-09
-5.36979e-10
0.00118264
2.55659e-07
-0.00796861
-2.37892e-09
6.5155e-05
4.56096e-09
-1.44848e-08
7.91105e-05
-3.39062e-07
3.85594e-05
-6.80186e-08
-5.49199e-11
6.66192e-09
0.000271911
3.53338e-09
-1.46259e-07
0.00670889
6.10471e-09
-1.53414e-08
2.13423e-08
4.39831e-07
0.00599278
-0.0126035
3.96386e-09
3.52565e-09
0.000520448
-0.000560907
-2.85497e-08
-1.26198e-06
-1.44231e-09
5.08377e-05
1.89744e-08
-0.00318763
-1.79663e-09
-2.28812e-08
5.20396e-08
-0.000241925
-8.57232e-09
-2.83766e-09
-3.78413e-09
-0.000519353
-2.05925e-06
1.45618e-05
-3.08763e-05
2.42596e-09
1.95999e-09
-7.92693e-08
0.00400233
1.18741e-08
-0.00101258
1.19468e-08
-1.99676e-08
3.58127e-08
4.80833e-05
4.40768e-05
4.35953e-08
-3.4219e-09
0.00830102
-4.67785e-09
1.94363e-08
7.13583e-09
0.000308819
7.94634e-05
-5.17147e-06
0.00171189
-2.29665e-08
1.52584e-09
-1.01102e-09
2.98776e-09
0.00391606
0.00523826
1.90444e-09
3.17359e-09
0.00921298
6.02351e-05
-2.98365e-06
-1.40506e-08
6.80518e-08
-1.41583e-08
0.000179758
-0.000852644
5.41753e-08
-0.000126941
6.11164e-09
5.47434e-05
2.4252e-09
-1.45343e-08
4.69976e-06
6.54095e-09
1.47656e-05
0.000109638
2.44241e-09
-1.53754e-08
7.83797e-09
-2.64197e-08
0.00961466
5.54457e-08
9.2708e-09
6.80771e-05
-2.11873e-09
-1.78024e-08
-5.64052e-07
-8.92278e-06
1.63278e-08
-3.78347e-09
-1.94888e-08
-3.89304e-11
7.33138e-06
-1.81664e-07
1.09875e-08
-4.63378e-10
4.29338e-08
-3.29325e-08
-1.48942e-08
3.80717e-09
5.68545e-09
9.40638e-09
0.00123742
0.0143924
-0.00122788
-1.73444e-07
3.0528e-06
-0.000537441
-2.84761e-09
-3.96162e-08
-3.56868e-06
5.16583e-06
5.31235e-06
-1.75884e-07
-0.000737662
3.40756e-08
0.00532328
8.75282e-05
-6.93912e-09
-0.000314004
-0.000168837
0.0015932
-7.95609e-09
3.38248e-06
0.000534804
4.99976e-09
0.00609352
1.87992e-09
2.05535e-09
-9.75717e-10
-3.33724e-09
-9.75312e-09
8.47529e-05
0.000827971
-2.31325e-09
9.75561e-10
-6.88225e-09
-0.00104529
2.7758e-08
0.0045245
-0.00107802
1.61835e-09
3.66075e-07
4.85818e-08
0.00423321
-6.21744e-09
5.54874e-10
5.63603e-07
0.0107172
-9.6705e-11
0.00927396
9.2016e-06
-2.53412e-07
-0.000488786
0.00017892
-5.67248e-05
-3.06176e-08
1.02039e-08
-1.68139e-09
-1.29645e-07
-1.33384e-08
0.0149981
3.71743e-08
3.90942e-05
0.000101493
-5.6903e-09
3.83197e-09
-0.00124166
3.5348e-06
0.00528626
-0.000116803
-3.70395e-08
3.96673e-08
-3.43685e-08
-0.000816606
-4.90549e-09
-1.7626e-08
-1.96417e-08
-1.78266e-08
-1.04382e-08
-1.06713e-08
-1.65119e-09
-2.32281e-09
-2.96157e-07
8.5467e-05
-1.13021e-07
-5.531e-09
4.61478e-07
-9.29216e-05
-9.86216e-09
0.00260943
-3.11447e-08
0.00090308
-1.44024e-09
-2.51843e-09
-9.03899e-08
-0.000692218
-0.00159067
-1.83542e-07
5.21569e-07
8.29045e-05
0.00302583
4.98362e-06
1.14163e-09
-4.57675e-08
-6.62858e-09
-7.58112e-05
-1.23625e-10
0.00675638
-0.000342207
-3.61128e-07
6.84548e-05
-7.72102e-09
-6.49789e-05
-0.00038159
0.0100883
-2.08095e-09
1.0473e-08
7.71007e-09
7.09808e-05
-5.89134e-09
1.06341e-09
1.4949e-08
-3.42179e-07
-1.75697e-07
-0.00407792
-1.95266e-08
-7.77072e-09
-0.000391412
6.83494e-08
1.56737e-09
-0.0158495
4.63478e-09
4.35995e-08
-5.16727e-09
4.27518e-07
1.11739e-08
6.88379e-10
-1.93026e-09
-4.24136e-06
-1.62981e-08
1.73459e-08
1.69208e-09
-1.19565e-07
5.89207e-05
-2.31302e-09
-6.43985e-09
2.23365e-09
2.98668e-09
-0.000893789
-2.52362e-09
3.66823e-05
-1.74227e-09
-3.17023e-08
0.0121973
6.28053e-05
3.72569e-09
-2.22447e-07
-9.67304e-11
-0.0011115
-0.00027225
-5.53469e-09
0.00102512
1.24351e-08
1.25582e-07
6.97435e-09
-0.00179902
1.28424e-09
0.00045657
-2.55092e-06
2.90726e-09
-9.91808e-08
-0.000173385
-1.52289e-07
0.000649078
-2.85744e-09
0.00318198
-1.67125e-10
-7.98024e-09
-2.15152e-09
1.76322e-08
5.26485e-06
-4.2069e-08
-1.7703e-07
-0.00021139
-2.36367e-07
3.67288e-09
-0.0011017
-0.000989725
-2.17854e-08
6.62952e-09
-0.0024299
-0.00171212
6.74667e-05
-1.28332e-09
-0.00212185
0.00302432
-0.0132129
6.72438e-08
-1.36069e-07
-0.00667172
-7.96254e-05
-0.000889842
-0.00114561
0.013091
1.15595e-08
0.0146412
6.26676e-05
7.37888e-10
5.72396e-05
-1.28984e-08
5.66943e-05
-1.27213e-08
-2.15923e-09
-1.36847e-08
1.05019e-08
1.92934e-08
3.53276e-07
-0.0215546
-0.00522859
-4.27397e-10
-0.000296619
9.59211e-05
4.00763e-05
-0.000655995
1.71455e-08
-1.60717e-09
1.0697e-08
-0.00051223
-0.00100586
1.34673e-09
1.79387e-08
2.62046e-07
-1.80475e-09
-3.04953e-06
-0.0012423
0.000866556
-1.7389e-07
7.1278e-06
5.65645e-05
7.35555e-09
-1.18166e-08
0.00538907
0.000107437
7.91752e-08
2.88537e-08
-2.70185e-06
-2.08601e-09
-9.93319e-09
0.00771658
-1.46613e-09
1.48853e-08
-8.07852e-10
-6.05178e-09
6.37148e-05
-1.3874e-08
1.67289e-07
2.80365e-09
0.00725931
-0.000891814
-9.98863e-09
-1.67313e-08
-3.34467e-08
-4.99877e-09
0.00965759
-0.00184285
-0.000509325
-0.0263623
0.00436537
3.68528e-08
4.97834e-05
5.57657e-05
3.8218e-08
-1.90661e-09
-9.03462e-10
-5.47218e-07
-5.67158e-08
-0.000170778
0.00446757
2.00215e-08
-3.63895e-08
1.72116e-08
5.73496e-08
-7.84028e-10
0.000877152
-2.17056e-08
2.67019e-09
-2.11982e-07
-6.74808e-10
2.34443e-08
-4.20035e-07
-1.7357e-08
-1.66196e-08
-1.04667e-08
5.37575e-09
7.23608e-08
-0.000828655
-3.77966e-07
7.61023e-08
-8.10349e-09
7.55951e-09
0.00100931
1.12436e-07
-0.0289057
-2.59482e-09
6.11185e-10
-1.89222e-05
1.39453e-08
0.000188197
7.85532e-05
-0.00919896
-0.0106947
-2.61776e-10
-2.0087e-05
1.49657e-08
-3.72213e-09
1.84893e-09
-4.341e-09
-5.17567e-07
-1.46891e-07
3.5806e-07
7.86865e-09
0.00240956
-3.61625e-06
0.0013092
8.41227e-09
-2.38846e-09
1.04776e-09
-5.32283e-07
-0.007423
-1.39432e-08
3.29062e-08
-1.31581e-07
-4.21568e-08
-2.93997e-09
-2.15863e-09
2.757e-05
0.00782618
-1.28641e-08
8.07947e-09
1.95383e-08
-3.32463e-09
0.00413276
0.00095125
3.87824e-08
-0.00032844
0.00193501
-5.96067e-09
-1.08174e-07
0.0108411
-1.1259e-10
0.00365152
-1.69888e-08
-7.96172e-08
-1.41552e-08
-7.7837e-08
0.000133513
2.09995e-09
-0.00761557
-2.29521e-09
-5.19732e-08
7.36645e-05
-8.26675e-09
9.61752e-10
-2.5101e-06
-7.53621e-09
2.33356e-08
0.0124993
-0.00884466
3.34579e-08
-0.00100726
5.82745e-05
-1.61607e-09
4.46476e-10
0.0101102
1.46565e-07
5.2343e-07
8.11904e-05
1.01753e-08
-3.03802e-09
-1.47718e-09
0.00456659
5.07203e-05
2.68989e-08
1.79628e-08
0.000215834
-3.9907e-08
7.18037e-09
0.000746591
1.65989e-05
0.000156502
-9.60677e-09
-1.57789e-08
5.71157e-05
0.000580183
1.66906e-07
1.49771e-09
4.62348e-05
1.40262e-08
0.000545661
3.36734e-06
-2.10845e-07
1.65127e-09
-0.00718637
-3.1852e-08
1.18798e-08
1.46155e-05
-1.48644e-10
5.48839e-10
1.56256e-08
-5.53726e-09
0.000767297
-4.64483e-08
-1.75144e-07
1.41972e-07
0.00015267
3.728e-09
0.00593483
-4.61268e-09
-3.53702e-08
1.75925e-09
9.028e-09
-9.84386e-10
0.000114676
-8.83982e-09
8.08022e-09
-0.00154484
-8.2385e-09
6.66389e-05
-2.49263e-09
-5.78035e-09
-8.28763e-08
0.00456503
-0.000266429
2.12545e-10
0.00602148
-0.000493626
-1.30226e-08
8.79563e-05
-5.32681e-08
-1.69224e-09
4.41351e-07
0.000141221
0.00337229
-2.6365e-09
-1.99341e-09
6.50365e-09
-0.000335132
-2.66436e-07
-4.56205e-08
3.38155e-08
-5.96103e-08
3.04345e-09
-8.46553e-09
-2.7565e-08
0.000765596
5.45616e-08
0.00362328
-1.46049e-08
7.87175e-08
-4.5893e-08
-1.78497e-05
3.01977e-09
0.00193424
-0.000216927
-5.89962e-11
0.00396111
0.000270199
-0.00137962
-0.00642146
0.000139891
3.59376e-05
-1.42019e-07
9.53168e-10
-9.73009e-08
0.00163283
0.00358109
-8.73742e-09
5.59434e-08
6.84675e-08
0.000146001
3.7181e-09
0.000943796
2.98603e-09
-1.29665e-08
-6.69359e-06
6.00605e-05
5.97137e-05
1.22631e-09
-2.23469e-10
0.000647882
2.2813e-05
-3.99993e-08
8.17082e-09
-0.00105266
0.000270804
-0.00345402
2.05511e-08
-1.16463e-08
2.53116e-09
-6.51749e-09
-0.00789328
-2.18579e-08
1.90433e-06
-3.02737e-07
2.2381e-08
0.00108536
-0.00140112
8.65091e-05
-8.68626e-09
2.33857e-08
-7.48364e-09
6.90853e-08
1.30146e-08
0.00628342
5.42025e-09
1.90379e-05
-3.0499e-09
-1.03401e-07
6.33561e-09
8.65398e-05
3.29271e-08
2.99038e-08
-0.000210962
2.60798e-08
4.36347e-07
2.70546e-09
-4.75236e-08
0.0030335
4.09278e-06
-8.88883e-09
5.8976e-05
2.14882e-08
-0.00411335
0.000581362
-7.8046e-09
6.73006e-05
0.0113921
7.35878e-05
-4.66636e-06
-3.83644e-07
4.23995e-10
0.000158195
7.00949e-09
-0.00922758
5.39373e-05
2.06214e-09
-1.48272e-09
-0.000919568
0.000538298
-0.00152714
1.45438e-08
7.46096e-09
0.00273006
6.67662e-05
-1.76244e-07
2.73296e-09
-4.6031e-09
0.000900947
-0.00198047
-6.76321e-08
2.35541e-09
-1.66386e-07
4.90585e-09
-3.82045e-09
-0.000205556
2.79533e-09
0.00611497
0.000141584
-2.02537e-08
3.19258e-09
3.74214e-09
-6.85798e-10
2.731e-05
-0.000363228
9.21578e-09
0.00211748
4.29049e-09
7.1766e-09
-3.8254e-09
-3.89045e-10
4.57414e-09
-1.01243e-08
4.10232e-05
1.54308e-08
-8.93295e-09
8.53072e-09
-2.67966e-08
-0.000287403
0.000305894
-2.63758e-09
0.00111998
-2.76264e-07
-5.44715e-05
-2.68094e-08
-3.09494e-08
7.03567e-06
2.77871e-09
3.62335e-07
0.00501213
-0.000599414
-0.00020681
-7.4328e-08
0.000419619
1.41621e-08
2.45866e-08
-3.69778e-09
-0.00136557
1.13388e-09
-0.0123872
-2.5031e-10
1.07443e-08
0.0124019
-2.87065e-07
-0.000647268
-8.83881e-09
7.18482e-09
7.23584e-07
5.23899e-09
-2.44375e-09
-1.61988e-08
-2.36523e-09
1.4438e-05
-3.01955e-09
2.0379e-05
-0.00166977
-8.111e-07
-0.00875932
-7.52758e-09
-8.84633e-09
-5.70732e-07
9.92657e-09
4.90039e-09
-4.39988e-08
-1.34278e-08
-4.3043e-11
1.67893e-09
-5.89315e-10
8.15627e-05
0.00854078
2.90734e-06
-2.45483e-05
3.99892e-05
-7.89717e-09
-0.00718658
-2.74841e-08
-9.58967e-09
-0.00031274
-7.33923e-06
-0.000479371
2.55855e-09
0.000442732
0.00147236
0.000925043
6.1196e-09
-0.000536149
-1.44408e-08
-1.15845e-08
7.59836e-08
-1.58727e-08
0.0241663
0.000139071
0.000869704
-7.55972e-09
-1.6194e-08
-0.000163887
4.83015e-09
0.0043524
0.000245385
0.00120158
-0.000437099
0.000395756
-2.66612e-07
-1.04602e-08
1.90774e-06
-1.31554e-07
2.20526e-08
-1.82794e-06
-7.53366e-08
-2.72352e-08
8.61629e-10
0.00842827
2.88913e-09
5.93048e-05
-8.59743e-05
-0.00699874
-2.4393e-05
2.82786e-09
-2.53442e-09
-5.58863e-09
0.000169615
-0.000255311
-3.4195e-09
2.59513e-09
9.21402e-09
-1.13333e-08
1.08903e-08
3.60916e-09
-4.546e-09
-3.1781e-08
5.03988e-05
4.51155e-07
-1.75367e-07
-3.75012e-10
-2.01276e-08
-0.00128984
1.49631e-08
0.00291957
2.55354e-05
3.92893e-10
1.542e-09
1.84423e-09
-8.99285e-09
1.88512e-08
-8.38037e-09
6.8581e-05
-4.75059e-09
-0.00126304
1.01471e-08
0.000425938
3.1784e-12
-4.80702e-10
3.40211e-09
-0.00347898
-0.000712506
2.64532e-09
-3.79345e-08
4.30532e-06
3.47553e-05
-4.63206e-09
0.00406284
-7.71998e-07
0.00618668
-5.78011e-07
7.43407e-05
-1.64323e-08
-4.4624e-08
-0.000427037
9.70094e-05
-0.00018888
-0.00531999
-2.17206e-08
0.000164267
1.63711e-08
8.43211e-10
-4.57189e-08
-6.41864e-09
8.20035e-05
-2.35626e-08
3.51275e-09
0.000205693
-5.27488e-06
0.000111081
-6.21741e-10
-1.18955e-08
3.18952e-08
2.3738e-08
-1.29589e-07
0.00297615
0.00422217
0.00496333
2.1311e-10
-2.3074e-08
1.80264e-08
-0.00292072
-0.000154523
1.60005e-06
-2.77734e-08
-2.13472e-08
-0.00312845
-2.14735e-07
0.0125227
-0.00152943
-2.35513e-07
1.37894e-08
5.49205e-05
-1.0034e-07
-7.66226e-09
-1.70346e-09
8.18266e-05
0.000940883
-7.96213e-08
0.000657164
-1.55319e-08
-6.581e-08
1.48828e-08
-0.00082274
7.41894e-07
8.17948e-05
0.000351527
-4.32057e-08
-3.54981e-08
1.03547e-08
7.86304e-05
1.97161e-05
4.79483e-09
-0.00015117
7.93463e-05
-0.000402181
1.9839e-05
-8.88293e-11
5.62503e-09
4.02296e-05
-0.00142309
-0.00247673
-2.78727e-09
1.08088e-08
-1.28089e-08
7.79615e-05
8.47724e-08
-3.93284e-08
-1.0593e-05
2.18611e-08
0.00887937
4.26854e-05
0.00569388
-1.28253e-08
5.12884e-05
-3.22321e-08
-5.41175e-09
-1.91263e-07
-0.00942267
9.8679e-09
-8.05807e-09
0.000216006
8.29083e-05
1.16425e-07
3.63758e-10
-0.0135932
5.44353e-09
-0.000266639
-2.80222e-09
-0.000430727
-7.50391e-09
-1.10556e-08
0.00468202
-0.00011513
1.78312e-08
0.0007161
0.000256483
0.00562714
-0.000462601
0.00563884
9.57458e-06
-8.9137e-09
0.00016494
-9.36071e-11
-2.28777e-09
1.25652e-08
-0.000424075
-2.6914e-09
1.7125e-07
-9.92707e-09
1.48824e-08
5.14247e-05
-4.87622e-07
0.00489063
-1.54804e-08
-4.80626e-06
-2.69438e-09
3.02935e-08
5.76051e-05
0.0130119
5.57401e-10
-4.20811e-08
0.000900983
-1.38237e-08
1.60622e-08
0.000104834
-2.47788e-08
9.88951e-09
-1.97931e-07
-0.0118675
-0.00211032
5.30361e-05
1.3256e-05
1.36657e-05
0.00109861
-0.000250432
-0.00163781
7.46085e-08
-2.99889e-09
-2.23087e-08
5.86686e-09
-9.32044e-10
0.00333984
8.7849e-05
7.04072e-10
0.0185676
0.000283555
8.22548e-05
1.13158e-05
1.04183e-05
-5.72979e-09
0.000498171
1.77666e-05
3.52108e-08
1.40244e-08
0.000104582
0.000191769
0.00364245
7.46577e-05
1.83808e-07
1.10678e-05
8.55183e-05
1.70953e-08
2.55953e-09
-1.02964e-08
0.000250459
1.97514e-09
3.04422e-05
1.16202e-10
2.65007e-08
2.11886e-08
-0.00110112
8.38134e-06
0.00319424
6.24276e-09
6.23865e-05
3.53837e-09
8.15408e-08
3.55372e-10
4.3089e-09
0.00108704
-1.28439e-08
5.01261e-05
-0.00819149
4.60033e-05
-3.30481e-08
1.77537e-08
2.582e-08
-1.32176e-08
1.48722e-07
-8.18408e-10
-2.03396e-08
-2.91172e-09
1.87141e-10
4.92411e-08
4.65227e-09
-7.30406e-08
1.5717e-08
-7.9903e-08
9.3825e-05
2.42442e-05
3.04222e-09
1.21895e-08
-2.57453e-09
3.93439e-06
-6.2181e-07
-0.00162298
0.000150692
3.48634e-08
-2.07252e-08
7.49309e-09
7.80783e-05
5.32578e-09
-0.000103805
2.41118e-09
-1.57804e-08
-6.92063e-09
0.000111959
5.16086e-08
3.28323e-08
-7.89639e-07
2.58114e-09
4.03595e-10
2.13412e-05
-0.00116613
-1.97168e-08
2.03968e-08
4.42832e-06
-1.81703e-09
4.52753e-09
-1.29539e-05
2.5682e-05
-1.11931e-09
1.2136e-07
4.39125e-06
6.5626e-05
-2.77014e-08
2.14764e-08
1.64643e-05
4.45421e-09
6.40001e-06
4.07939e-05
-1.94907e-05
-1.41214e-08
-5.26785e-07
-9.15919e-09
4.20817e-05
9.93036e-08
-1.23139e-07
-1.06162e-07
0.00298122
-1.50872e-08
1.89274e-05
0.0128283
-5.19002e-09
-0.00124537
-9.70974e-09
4.54656e-10
0.00127373
-9.87605e-09
-1.85014e-09
2.68891e-09
-1.37499e-06
3.25049e-05
2.08117e-07
-2.14106e-08
-2.57145e-09
-4.56189e-08
-0.000235136
4.1571e-05
2.00699e-05
0.00060731
9.86989e-10
1.31971e-07
-4.39796e-07
-0.00108063
-8.83747e-07
0.000283036
1.53951e-08
1.39365e-07
-3.87402e-09
-0.00477495
2.5754e-07
-3.85865e-09
-0.000368807
0.000202711
-3.12871e-08
9.95226e-08
2.98123e-10
6.77419e-09
-4.15947e-07
-5.22661e-08
-0.000716216
1.49057e-08
-3.77996e-07
-6.46663e-07
-4.51783e-09
0.0180568
-2.09462e-05
3.5895e-05
3.46404e-09
1.87071e-09
2.02118e-05
0.00225777
-0.0010748
0.000120827
-2.15982e-09
-5.11713e-05
0.000553918
-1.69375e-08
-2.29222e-08
-4.12531e-09
-2.1924e-08
4.65827e-08
1.19217e-05
0.000886877
3.25267e-05
8.94454e-09
-0.00131294
6.00517e-05
-1.4051e-08
-9.90005e-06
0.00742113
-0.00126791
-3.19512e-08
-5.15371e-09
3.54422e-10
-1.07567e-09
-8.71504e-09
2.14385e-08
3.66286e-05
-0.000448686
-0.000138063
-0.00164041
1.20229e-08
8.56718e-08
-2.64945e-07
4.83754e-09
-8.79494e-10
-5.20311e-09
-0.000136247
3.36042e-09
6.38415e-05
1.86196e-07
-4.53426e-07
-4.63932e-06
9.02692e-06
6.95044e-05
6.5438e-05
-1.4018e-08
-5.31656e-09
3.1587e-07
5.18896e-05
-6.30483e-05
-1.80605e-08
-4.89614e-10
2.62311e-09
-1.85033e-07
-1.90576e-08
6.86588e-08
0.0227263
-1.6358e-08
1.06381e-08
3.09264e-08
1.37173e-06
3.28513e-05
-0.012433
3.60772e-10
8.98882e-08
-2.88187e-09
1.90926e-06
-1.0507e-09
2.21384e-05
1.96585e-08
-1.3597e-08
-1.28175e-07
6.29109e-09
3.37612e-06
-1.8045e-08
7.35271e-09
0.00189374
0.000179632
-2.69773e-09
-3.13398e-08
-7.75696e-09
6.08231e-05
0.000348668
-2.69396e-09
2.16911e-08
0.000916304
2.04916e-09
-2.54755e-06
-5.60616e-10
-1.67732e-07
-5.07334e-07
0.000371799
3.5164e-07
-1.05165e-08
2.11214e-09
4.06409e-08
9.55041e-05
3.4178e-09
-0.00577249
0.0160521
-0.0188227
0.00116761
1.16023e-07
0.000108754
3.04395e-09
0.00170729
-1.43672e-08
0.000947701
0.000274166
0.000811276
-0.00325422
0.0249032
-3.78439e-07
7.89002e-06
7.36727e-09
2.94633e-05
-0.00069808
0.000122743
0.00161439
-6.9142e-09
0.0188047
0.00711081
1.23347e-07
2.8407e-09
2.05081e-08
3.34454e-05
-2.12164e-08
3.63775e-08
-9.78773e-10
-1.04319e-08
-2.03773e-09
-6.91824e-09
-0.000473855
2.19854e-05
-3.24908e-08
-0.0034941
-0.000532639
-1.76582e-07
-9.10383e-09
-7.00483e-09
-7.47409e-08
1.86732e-05
7.93175e-06
3.82228e-08
2.2218e-09
-0.00233242
-4.99511e-07
4.25296e-09
0.000994165
-2.34708e-08
5.43161e-05
-4.01885e-08
-1.3706e-07
-1.12103e-08
6.32034e-09
5.98735e-08
0.0013447
0.00227681
3.58146e-05
-2.33898e-07
-0.012944
-1.94783e-08
5.01022e-08
-2.42252e-08
0.000141066
0.00166783
0.000181854
2.74037e-06
-7.35981e-10
2.60026e-08
2.90118e-09
-5.10515e-10
-1.18698e-09
-0.00121446
2.61682e-08
0.000303078
8.39702e-08
-0.0014054
0.00656844
6.1896e-05
1.10147e-06
-2.22553e-08
-0.00187588
1.68401e-07
-0.00108392
9.35008e-06
-2.56845e-09
3.33121e-05
9.52936e-09
0.0084482
0.000834259
8.5161e-08
2.4352e-05
-0.00369111
2.42549e-09
1.47687e-06
-1.76611e-09
-0.0171187
0.00129161
4.30912e-08
7.15107e-09
0.00133675
0.00147237
-4.85805e-07
-0.00402624
-6.53846e-08
-1.07929e-07
2.14528e-09
0.00100498
2.24526e-05
-7.73864e-07
2.85239e-08
-0.000333502
0.00827243
2.52704e-09
-6.1941e-09
3.09213e-08
0.000108117
7.07591e-05
-1.52038e-08
4.12442e-05
-7.55022e-09
-3.43682e-09
-6.34906e-09
-0.000574537
0.00230548
2.12314e-05
-0.00112
-5.07742e-09
-1.22537e-08
6.17611e-09
0.00131871
-1.07877e-10
-0.0136062
4.23531e-08
-0.000799695
-4.41972e-08
8.23551e-09
-2.3683e-07
-0.00107661
0.000585656
-1.69084e-08
0.00184936
-1.00569e-09
1.70024e-08
-1.35938e-08
-1.11419e-07
-1.64644e-08
7.36433e-08
2.20289e-07
6.53706e-05
-4.08679e-08
-3.6202e-07
0.00215921
0.013425
1.19269e-08
5.08017e-05
5.27021e-05
7.14402e-09
0.00236998
3.06733e-08
0.00771206
3.07879e-10
-1.25578e-06
7.99458e-09
0.000819098
2.51944e-05
1.78051e-05
7.23151e-05
4.3935e-10
-1.70998e-08
2.16688e-09
5.6998e-05
1.10692e-08
8.36205e-09
-0.00188742
-3.61033e-07
0.0050412
6.3569e-05
-1.12304e-07
-3.98391e-08
-5.97469e-10
0.0039628
-8.99272e-08
-5.46537e-09
1.52188e-07
9.07893e-08
1.82859e-09
8.2635e-09
-0.0145548
-1.99403e-10
0.000443184
0.00227067
-5.79191e-08
0.000461566
-5.62329e-07
-2.17232e-06
-1.54573e-08
0.0054758
6.08473e-05
4.49642e-09
-2.25994e-08
2.8679e-08
-3.8031e-09
-1.00986e-07
-1.38772e-09
-0.00337622
2.52395e-08
0.000660969
-1.37002e-05
-2.22555e-09
4.5092e-09
6.88393e-09
6.62316e-05
1.06748e-08
5.91713e-09
-4.49213e-05
2.64681e-08
0.00131244
7.48521e-05
4.22816e-08
3.47184e-08
-4.78588e-08
-4.48304e-09
-8.02876e-09
-7.96649e-07
-1.59589e-08
2.19113e-08
0.000288946
2.17638e-05
-2.69151e-05
1.37209e-08
-0.000320624
-0.0149139
-3.4328e-08
0.000294726
6.90792e-06
-3.95331e-09
-1.17826e-08
1.94907e-09
4.29794e-05
-0.00604532
-0.00327829
1.04468e-08
8.64273e-11
3.52715e-09
5.2068e-09
-4.92143e-07
-7.99409e-09
2.77483e-05
-0.000130309
5.37617e-05
-3.97465e-09
-2.55471e-08
2.26706e-09
-0.0132153
1.21748e-09
-0.00495519
0.000480806
5.82608e-05
-0.00170334
-0.00150302
0.0158157
6.06395e-09
-0.00731836
-0.00360111
3.81485e-08
-3.76152e-09
3.36983e-09
7.74815e-05
-0.0010763
-0.000987678
-4.24387e-10
4.60647e-05
-9.34457e-09
-6.83877e-06
1.62896e-08
-4.62797e-11
-1.94537e-08
-2.22199e-09
-0.00510244
-2.18402e-08
-0.00605181
0.0104649
-0.00517364
-2.18706e-07
-2.20249e-08
-0.00719375
9.94338e-05
-7.25801e-10
0.00037422
2.07841e-09
-1.01113e-10
-2.28387e-08
-3.6398e-05
4.96805e-09
0.00155934
-1.71125e-08
0.000130483
2.89505e-07
0.000476795
-0.000598232
1.10226e-05
-1.08555e-08
-4.78974e-07
-6.51451e-07
-0.0081343
-9.84971e-09
-2.15605e-09
-3.39383e-10
0.00444243
-4.51723e-09
0.00168863
0.00109473
1.19521e-09
-1.65583e-07
1.32307e-08
-0.00399903
-9.90222e-09
1.46122e-05
7.24809e-10
0.000180974
-1.63539e-09
9.57862e-10
0.00116534
-0.00436173
9.78708e-09
-8.8764e-08
1.51147e-08
-0.000195096
2.09272e-05
-0.00483248
0.000116025
3.35453e-08
-4.11995e-07
-0.000690261
-5.06061e-09
-2.20168e-05
1.74233e-08
5.25464e-08
3.43209e-09
0.000928129
0.000151611
-1.47815e-08
4.53665e-05
1.51062e-08
-3.99663e-09
-0.000335129
0.000841554
2.7029e-07
0.000106232
0.000967646
-1.97346e-10
0.00108027
5.60775e-08
2.11178e-08
2.82021e-08
-0.00151435
1.31275e-09
0.00380364
5.0776e-05
8.04715e-07
-1.05992e-10
-1.60317e-07
7.53682e-05
2.20912e-09
-0.00155088
1.32103e-09
-2.48929e-08
0.000183628
-0.00139014
5.60364e-08
9.80465e-05
0.00703947
0.00162649
1.37674e-08
-0.00151097
-0.000747262
-0.00254983
-1.10173e-08
1.61547e-07
-6.72638e-10
7.9875e-05
2.77451e-07
-0.00378729
-0.00126053
5.36254e-09
1.63897e-08
1.34824e-08
-0.00745136
-3.05862e-05
0.012159
-0.00172065
-5.78496e-09
-0.000745848
7.5319e-05
-1.06402e-07
-0.000950555
8.91249e-05
1.33787e-07
0.00282709
-2.17492e-08
-5.75089e-09
3.79787e-05
-0.00102677
-2.58008e-09
0.0168461
5.06969e-09
2.78638e-08
0.00902762
0.000140649
1.28769e-05
2.82109e-05
3.55088e-08
4.03845e-08
-2.62781e-11
7.23012e-05
-0.00337973
-6.89849e-09
-1.03438e-08
0.00149946
-2.18891e-09
-2.63618e-10
-8.86557e-05
0.00876987
2.25434e-08
8.58627e-09
4.52134e-08
-1.56764e-08
-3.55436e-05
1.36055e-08
-1.42691e-08
2.78654e-08
-4.31779e-05
0.00377803
0.000104279
-0.00163893
-7.10114e-09
-2.13054e-09
0.000140537
8.72871e-05
6.04341e-08
0.00182341
3.56978e-09
-1.61106e-08
-4.41233e-09
-5.90941e-08
-5.90483e-07
6.59156e-09
0.00871458
1.22251e-07
-5.54667e-09
3.38624e-08
-0.00087293
-0.000746565
7.85412e-05
-1.61058e-08
2.31932e-09
8.15222e-05
0.00379668
-4.48296e-08
-4.52392e-09
-5.79802e-09
0.00023272
1.6707e-09
1.31897e-09
-4.92804e-08
-1.24445e-08
0.000113754
5.60549e-05
2.10806e-08
-1.48334e-09
-3.8455e-09
-5.13375e-09
0.0044887
-0.00549162
-8.1753e-08
-0.00113077
-6.86387e-06
-2.21779e-08
-7.82794e-10
-8.1396e-09
-8.2599e-09
2.41557e-08
-1.39973e-09
-1.4604e-06
-0.000374777
5.05849e-09
-1.53871e-07
9.16957e-05
7.3684e-05
1.46084e-08
2.5306e-09
-9.78768e-09
0.0117757
-7.51043e-09
0.00328503
3.53427e-05
-6.09359e-07
4.71094e-09
6.19992e-05
-7.66826e-09
4.97443e-05
1.73507e-10
-1.49494e-09
-5.13264e-09
-1.40137e-08
-2.73242e-06
-0.000614568
0.000256084
-8.91546e-08
0.00235742
-0.000545307
-0.0116174
-7.06744e-09
0.000132431
-0.0013128
-8.26891e-08
0.00904047
-2.35696e-05
-8.215e-08
-0.0026258
-7.75021e-09
9.29693e-10
-0.0101442
1.45686e-09
-3.64061e-08
0.00548365
-4.89281e-05
-0.00308274
6.05256e-05
-7.99964e-10
9.14012e-08
-1.35027e-08
2.0926e-05
2.9699e-09
-0.000203467
0.00777688
-0.000351951
0.00647293
7.04763e-10
8.99248e-09
-3.33131e-09
0.0165686
9.44895e-05
1.49766e-06
4.22123e-05
4.69871e-09
1.89461e-05
4.61026e-09
0.000782497
-7.13269e-08
-6.416e-09
2.17549e-09
-1.09178e-08
-1.38386e-08
-1.25532e-08
-2.16175e-08
0.000115577
-4.337e-08
6.24745e-05
-0.00162381
-0.00010964
2.37212e-07
-1.01517e-08
-2.86062e-08
4.8076e-09
2.86349e-09
4.5872e-08
-0.00348621
0.00434426
-0.00637105
4.85336e-05
6.39366e-09
-0.00117331
-2.16418e-06
9.08259e-05
1.15869e-05
-2.72678e-09
1.78616e-08
-0.000261213
6.46989e-09
1.33185e-08
0.00207115
0.000103278
6.00784e-05
5.9752e-09
6.17626e-09
-2.75814e-08
-1.10182e-07
0.00129126
5.79783e-09
3.62806e-09
-9.62773e-05
8.79968e-11
0.00247727
-8.71465e-08
0.00597567
-2.53787e-08
3.82466e-05
0.0127917
1.21269e-07
7.06526e-05
-1.54848e-07
3.93253e-05
-2.74925e-09
3.19278e-08
9.06879e-09
6.84776e-10
-0.00247765
-5.57794e-09
0.000779893
6.85074e-09
2.10596e-10
-2.49976e-09
5.6633e-05
-1.02655e-08
-1.61752e-07
-0.00461057
2.96285e-09
1.7001e-07
0.0018162
-5.21311e-07
-3.70528e-09
1.32495e-08
-1.11991e-10
4.98579e-07
1.0794e-08
8.87752e-09
2.11011e-05
4.07304e-05
7.92398e-05
0.00154823
-0.000404498
0.00114573
-4.99157e-08
2.72487e-05
-3.77249e-07
3.00396e-09
-2.35443e-09
-6.21329e-10
8.30498e-09
7.14202e-05
7.57897e-05
4.31209e-08
0.000408301
1.75127e-05
-2.0914e-08
9.81711e-09
-8.22417e-10
-0.00139656
-0.000187633
9.57785e-05
-0.00358046
8.65645e-05
2.94468e-09
-0.000346323
1.0384e-08
0.00219674
2.67503e-05
2.4545e-08
1.32878e-07
0.00242029
8.47262e-08
0.0102273
-1.01545e-08
-0.000356637
0.00222953
3.26086e-05
-1.0834e-07
-4.22097e-08
6.35428e-05
9.47974e-08
1.15007e-05
5.8531e-05
0.00012633
-9.94439e-08
-0.0015984
-7.4191e-10
-8.81267e-09
-1.96219e-08
3.50498e-05
0.0030865
2.73616e-05
8.88101e-11
9.33703e-07
-1.42094e-06
2.61196e-09
1.72672e-05
-1.73074e-08
-1.48891e-07
7.10937e-05
1.42652e-08
0.0178835
0.00963697
2.98454e-05
-0.00150946
-0.000682283
-0.00242187
-3.94531e-09
6.86614e-05
6.58093e-09
-7.50581e-09
-1.69158e-08
3.29214e-08
3.38123e-05
-7.29894e-10
1.27228e-09
-2.94775e-08
-9.12946e-09
0.00204386
2.52344e-08
-1.28837e-07
0.000784299
-1.63767e-09
-5.80077e-06
-4.41753e-08
1.43519e-08
0.00119852
-2.16294e-05
2.07167e-09
0.0084687
-2.06941e-08
2.62536e-05
-0.000548332
1.86996e-08
5.71374e-08
2.81969e-08
5.7324e-05
7.23595e-05
-6.39367e-08
0.00620726
4.51406e-08
-1.30306e-08
0.00718795
3.22587e-08
-9.50548e-10
6.30271e-05
-9.68102e-09
-5.19418e-09
1.00817e-09
-2.62036e-07
-3.59213e-09
8.54762e-05
-0.000258632
-3.82069e-05
0.00668939
-9.4474e-09
-2.47809e-07
-1.92594e-09
4.9585e-05
2.10493e-05
0.00490836
-5.44196e-09
-5.26362e-09
1.51236e-08
4.17703e-08
0.000955552
3.22901e-10
0.000876226
1.32019e-08
-0.000126103
2.66694e-09
-0.000114283
0.000217495
-6.22435e-08
4.80555e-06
-0.0116383
-3.98115e-05
8.06109e-05
-1.30036e-10
5.44245e-05
5.76618e-05
3.12121e-05
2.06521e-09
-0.000202708
3.63129e-05
-0.00465272
5.31472e-09
-0.000835312
0.00940557
3.07748e-05
-2.12227e-08
-7.81892e-05
-2.70598e-09
-2.42257e-08
-1.66963e-08
8.36268e-09
5.73602e-08
0.00538417
1.44958e-05
-0.00617508
-2.14577e-05
-4.46041e-09
6.51626e-09
1.18143e-07
1.16552e-08
0.00634438
-2.46407e-09
4.73243e-09
-3.63333e-06
1.74075e-05
-1.0909e-07
-1.11383e-07
-6.92057e-09
-2.35221e-07
-0.000826953
4.63554e-05
-0.000716676
1.50348e-08
5.9244e-05
-1.87784e-08
1.04968e-09
-2.88339e-09
8.84222e-05
-1.06333e-05
-0.000420085
2.33236e-05
2.01698e-08
-3.90272e-09
1.64038e-08
-9.94741e-09
-5.48196e-09
0.0117774
4.05222e-05
-3.77683e-08
4.24305e-05
8.6448e-05
-0.00310447
0.000571648
1.48531e-08
-2.84473e-09
-8.44391e-06
1.00991e-08
2.28257e-06
-3.09889e-08
3.06449e-08
-0.00327877
4.01276e-05
3.82843e-09
-1.25909e-08
-2.72243e-08
-6.20939e-07
-0.00336832
0.021092
4.54748e-05
1.04374e-08
2.59214e-08
5.65476e-05
-3.66465e-08
5.08866e-08
-9.80768e-05
-0.0013728
-1.36807e-05
2.10099e-05
-4.17561e-09
-0.00153985
1.81361e-08
2.78645e-09
2.08111e-08
-6.1334e-08
6.8503e-06
5.41046e-05
-0.000187268
-0.00120476
-1.2729e-07
-6.62266e-09
2.33156e-09
8.2623e-11
7.11161e-10
-2.02207e-09
2.60113e-05
1.68693e-05
-9.89783e-08
0.000150687
7.93194e-09
-1.91498e-07
1.21671e-09
2.6026e-05
1.13179e-05
1.19485e-08
2.28767e-05
-1.81672e-07
-0.000176603
2.37738e-05
-1.51181e-07
-0.000806373
-6.58679e-10
0.00467816
4.79171e-06
5.98569e-05
-0.000492584
-1.34241e-08
-2.61211e-07
2.04627e-08
-0.000273151
-0.000425964
-9.94211e-08
0.00938603
-2.87269e-05
0.00467178
-2.50837e-07
9.53534e-05
3.12869e-07
1.62635e-11
2.67153e-08
-6.46202e-07
3.71833e-08
-3.39893e-07
-1.9716e-08
-4.75769e-08
0.00222701
1.23781e-07
1.31311e-08
4.73607e-09
-2.62698e-08
8.36884e-08