/*--------------------------------*- C++ -*----------------------------------*\
| =========                 |                                                 |
| \\      /  F ield         | OpenFOAM: The Open Source CFD Toolbox           |
|  \\    /   O peration     | Version:  v2012                                 |
|   \\  /    A nd           | Website:  www.openfoam.com                      |
|    \\/     M anipulation  |                                                 |
\*---------------------------------------------------------------------------*/
FoamFile
{
    version     2.0;
    format      ascii;
    class       volScalarField;
    location    "200";
    object      epsilon;
}
// * * * * * * * * * * * * * * * * * * * * * * * * * * * * * * * * * * * * * //

dimensions      [0 2 -3 0 0 0 0];


internalField   nonuniform List<scalar> 
13851
(
1.13921e-06
0.00192564
2.30596e-06
1.12017e-06
2.42556e-06
1.47671e-05
1.60752e-06
1.73421e-06
7.64915e-07
2.56921e-06
8.12349e-05
0.0027872
0.00273921
0.00865197
1.51217e-06
1.51993e-06
1.50222e-06
1.29757e-06
0.00102703
7.69917e-07
1.12545e-06
2.2611e-06
5.63023e-07
7.87124e-07
5.85167e-07
1.73518e-06
1.59004e-06
0.00405441
1.14721e-06
1.32538e-06
3.50796e-05
1.50026e-06
2.21829e-06
9.04957e-05
7.93459e-07
7.02611e-06
0.000905436
8.5497e-05
2.89872e-06
7.45851e-05
1.12304e-06
4.46873e-07
0.00503639
7.09785e-05
6.58754e-05
0.0136605
7.69478e-05
0.000462394
1.59323e-06
1.02105e-06
2.3049e-06
4.71587e-06
0.00584921
1.4754e-06
1.14267e-06
4.45003e-07
6.45714e-07
0.00491555
1.31922e-06
1.5571e-06
6.88848e-05
0.00546225
1.48233e-06
2.78295e-06
0.000446889
1.14043e-06
0.00164168
0.000109209
1.69067e-06
1.29101e-06
0.00839785
0.00324702
0.00180955
1.49295e-06
1.0847e-06
7.7648e-07
2.18585e-06
0.00566179
1.80384e-06
0.00802482
1.52283e-06
6.44848e-05
1.38393e-06
0.014308
1.52794e-06
0.00254009
1.7624e-06
0.00291054
1.55408e-06
5.8936e-07
7.07458e-06
9.14316e-07
0.000121429
1.58329e-06
1.55962e-06
7.04847e-07
2.4664e-06
0.00389312
1.04768e-06
7.15821e-07
0.0091812
1.87449e-06
1.19258e-06
1.66417e-06
4.98127e-07
1.61547e-06
1.96616e-06
4.32002e-07
0.00512062
2.4819e-05
7.65735e-07
5.91392e-07
1.02966e-06
1.08754e-06
7.66787e-07
0.000511266
0.00396348
4.4423e-07
9.60364e-07
1.14381e-06
0.00539923
1.65101e-06
0.00295829
0.00045236
0.000604772
5.13972e-07
0.00058847
1.83869e-06
1.11339e-06
4.76706e-06
1.12861e-06
8.60184e-07
0.00725375
1.39639e-06
0.000743039
8.6898e-07
4.46814e-07
0.00301391
0.010582
0.00529924
0.00888452
1.11906e-06
8.11932e-07
4.72127e-07
1.4351e-06
7.61532e-05
6.89796e-07
4.75222e-06
1.60165e-06
6.44236e-05
2.44211e-06
1.09827e-06
0.00954117
6.38564e-07
1.52025e-06
1.42703e-06
9.42688e-07
1.33433e-06
4.6853e-06
2.28744e-06
4.15386e-07
1.6304e-06
0.00476077
8.52772e-07
1.38455e-06
4.6409e-07
5.6468e-07
1.7013e-06
1.11207e-06
0.00386763
0.00648436
6.84254e-07
9.51407e-07
0.00539193
8.51192e-07
0.000516029
1.81592e-06
8.38437e-07
0.00124214
4.28843e-07
1.50786e-06
0.00360858
1.411e-06
2.40152e-06
4.1517e-07
5.97088e-07
1.15146e-06
1.09062e-06
2.68768e-06
2.47123e-06
8.59229e-05
0.00536348
5.91336e-07
1.67095e-06
0.00521201
1.50397e-06
8.11868e-07
0.000222628
8.29428e-07
7.82097e-07
5.16404e-07
0.00713266
1.19916e-06
1.2534e-06
2.04989e-06
1.41546e-06
0.0136645
1.52113e-06
0.00500031
4.20317e-07
0.00576148
1.19618e-06
0.000195015
4.22924e-07
4.6555e-07
3.55644e-05
1.50886e-06
0.0133473
1.46904e-06
0.00500526
1.51293e-06
1.52776e-06
0.00464172
4.42794e-06
0.00631277
6.11155e-07
1.60523e-06
5.22098e-07
0.00594047
4.2116e-07
1.71678e-06
0.000833032
6.82937e-07
5.89588e-07
2.14676e-06
1.45145e-06
0.0163634
0.000715428
4.69502e-07
1.26303e-06
2.23948e-05
0.000242695
4.20021e-07
2.17356e-06
4.40038e-07
0.00591557
1.88733e-06
0.00015858
1.41404e-06
1.45455e-06
9.20156e-07
0.000245119
1.41227e-06
1.42213e-06
1.93631e-06
1.05492e-05
2.28819e-06
0.00330204
0.0167176
1.55202e-06
4.6789e-07
1.27367e-06
0.000936807
5.06153e-07
0.00211378
1.50155e-06
1.41851e-06
1.58158e-06
0.00456566
2.04464e-06
9.15575e-07
1.51447e-06
0.000720142
1.76885e-06
1.50471e-06
8.62567e-07
6.68101e-05
1.18417e-06
0.00703659
6.96361e-05
4.18735e-07
4.16359e-07
4.77152e-07
1.90183e-06
0.000850271
0.000471356
7.79267e-07
1.60878e-06
0.000634175
5.25217e-05
5.3101e-06
1.32275e-06
1.54551e-06
1.70429e-06
5.42524e-05
0.00189926
1.39288e-06
0.0024193
8.69221e-07
0.00593934
1.62793e-06
1.49148e-06
0.00683582
1.2297e-06
1.86954e-06
0.00512075
7.81807e-07
1.80761e-06
1.58225e-06
1.31727e-06
0.0130621
1.39305e-06
1.39023e-06
0.00440423
4.52985e-07
1.45798e-06
5.23082e-07
0.00699138
3.96782e-06
1.46774e-06
1.91255e-06
1.51448e-06
0.0081235
9.58168e-07
5.57348e-07
9.43093e-07
3.88892e-06
1.59909e-06
1.53555e-06
1.61834e-06
1.24167e-06
1.3776e-06
7.2639e-05
0.0144312
0.00377272
1.28366e-06
0.00680033
0.00403236
1.49482e-06
1.67185e-06
5.20501e-06
1.05926e-06
1.65555e-06
3.76651e-06
0.00116784
9.51376e-07
0.000558157
0.00545906
1.5197e-06
1.59264e-05
1.60011e-05
0.0013708
1.53794e-06
1.41417e-06
0.00595607
9.54251e-07
0.000492384
9.40872e-07
1.5352e-06
4.35608e-07
4.30366e-07
9.42838e-07
0.00553474
0.000161807
1.28556e-06
1.78809e-06
4.53929e-07
0.00242895
1.5543e-06
0.000253359
0.00375471
1.27957e-06
1.55925e-06
1.56881e-06
0.000235237
1.10619e-06
4.48334e-07
9.63572e-07
0.0103592
1.08429e-06
0.0133812
9.99469e-07
4.12729e-06
0.00535348
9.18393e-05
9.21215e-05
8.77701e-07
9.02844e-07
1.53746e-06
1.26974e-06
1.90999e-06
0.00879847
1.71264e-06
0.00633586
0.00524669
4.56176e-07
1.5581e-06
0.00382003
0.00649105
0.000526467
0.00407759
9.53449e-07
1.5745e-06
6.65639e-07
0.00365531
7.17922e-07
1.51871e-06
8.77281e-07
1.55069e-06
4.95909e-07
7.75443e-07
4.61756e-07
2.72585e-06
1.59721e-06
0.00565704
1.28059e-06
1.96538e-06
1.17067e-06
0.000241147
1.45221e-06
0.00161906
1.48758e-06
2.35686e-05
4.43582e-07
7.7376e-07
6.0898e-07
0.0007067
0.000130978
4.15664e-06
1.16833e-06
0.00690866
0.000114107
1.47896e-06
1.12235e-06
2.18081e-06
1.10559e-06
0.000235417
4.86953e-07
0.00245113
0.000158643
2.0979e-06
0.00482303
8.29662e-07
4.9645e-07
0.000149878
0.0139013
4.16459e-07
1.59149e-06
1.82263e-06
2.62554e-06
7.12445e-07
1.3656e-06
2.32036e-06
4.08942e-06
1.31953e-06
0.00311611
6.12073e-07
9.47935e-07
0.00509029
1.38401e-06
4.14321e-07
0.00407624
8.97864e-07
1.13701e-06
7.44321e-07
1.50226e-06
1.31601e-06
4.1991e-07
8.20915e-07
0.00432606
1.38255e-06
1.72715e-06
8.769e-07
1.05748e-06
3.60314e-06
1.1553e-06
1.06838e-06
9.86183e-07
9.81863e-07
0.000689927
1.43298e-06
3.47825e-06
1.41911e-06
6.49416e-07
0.00871345
0.00488028
1.43394e-06
1.06032e-06
1.46035e-06
0.000235069
0.0140837
9.54454e-07
0.000143827
1.11733e-06
2.40276e-06
1.53615e-06
0.00733925
4.41362e-07
0.0063891
2.28098e-06
4.49424e-07
1.05366e-06
0.0037154
1.72321e-06
0.000102131
9.59592e-07
0.000366335
1.15588e-06
8.19361e-07
8.57264e-07
1.59242e-06
0.00585497
2.13617e-06
4.54234e-06
0.00104776
1.46383e-06
4.18399e-07
0.00344176
0.000140368
1.51617e-06
1.62858e-06
0.000197765
0.000469972
0.00565853
1.46651e-06
0.00772097
0.01395
0.00903109
1.39486e-06
1.05636e-06
0.000132185
1.35883e-06
4.95955e-05
0.000228991
0.00417594
1.33086e-06
0.00481941
0.00354847
4.40871e-07
4.22654e-07
2.17497e-06
0.00520732
1.40955e-06
1.29048e-06
9.40195e-07
1.18182e-06
2.65724e-06
1.44079e-06
0.00293138
0.00312468
8.00247e-07
0.00484164
0.00451071
2.94577e-06
0.000147018
1.7162e-06
4.1492e-07
7.67669e-07
2.5527e-05
0.00363314
1.52602e-06
2.79964e-06
6.94956e-06
4.42619e-07
1.21329e-06
0.000419365
0.000482286
3.73788e-06
0.00572157
0.00363102
1.11741e-06
1.56152e-06
0.00349071
0.00515904
4.35065e-06
1.71466e-06
1.56951e-06
4.30857e-07
1.1498e-06
0.00281872
4.41238e-07
1.40121e-06
4.26555e-07
9.28229e-07
0.00374135
2.67464e-06
1.14692e-06
4.39013e-07
0.0164534
0.000241569
8.87178e-07
6.14179e-07
5.09965e-07
1.52934e-06
0.00998806
0.000194639
0.000198414
0.0121997
0.000313548
1.70066e-06
0.00621761
0.00496168
9.5728e-07
1.69006e-06
4.13947e-07
5.20556e-07
1.55493e-06
0.00410465
0.000624512
2.78398e-06
1.55052e-06
7.60788e-07
1.49749e-06
7.84854e-07
0.00011875
2.28341e-06
1.41595e-06
1.29748e-06
7.1599e-07
1.59191e-06
4.42158e-06
1.55287e-06
1.09444e-06
1.56484e-06
1.45849e-06
2.43355e-06
0.00043662
4.08238e-06
1.49008e-06
4.63221e-06
7.5998e-07
7.50741e-05
9.32806e-07
0.0159329
1.20361e-06
6.95682e-07
0.00468942
1.26635e-06
0.00629184
0.00553756
0.0111677
0.00447276
7.21393e-07
0.00375761
4.21451e-07
9.18179e-07
4.38328e-07
9.30492e-07
4.08691e-07
1.27984e-06
1.47569e-06
4.37752e-07
0.00516245
2.44565e-06
0.0058947
9.11813e-07
4.31468e-07
5.15474e-07
4.68779e-06
0.00651846
1.9748e-06
1.59195e-06
4.22917e-07
6.67371e-07
8.1202e-07
9.32335e-07
0.000266816
0.00569205
1.45762e-06
4.35589e-07
1.60463e-06
9.42062e-07
0.00130184
0.00481257
1.50921e-06
0.00374401
0.000421884
1.09379e-06
4.43982e-06
0.0123812
1.70454e-06
0.00299728
1.51414e-06
1.2825e-06
1.95676e-06
1.27277e-06
0.00021891
1.4293e-06
0.000251164
4.746e-07
1.73058e-06
0.00486235
7.56719e-07
1.23944e-06
1.52522e-06
8.20713e-07
1.50102e-06
0.000795034
0.00510212
2.24488e-06
0.00172818
0.000105192
4.2587e-07
9.08796e-07
0.00949872
6.56545e-06
1.49468e-06
0.00555061
6.98778e-07
1.77199e-06
4.44311e-07
0.000239034
0.00176634
1.38065e-06
1.12431e-06
6.97031e-06
1.56613e-06
5.12133e-07
0.00533473
1.13876e-05
0.00437739
4.50415e-07
1.46435e-06
0.00585214
0.00455175
5.81819e-06
7.84562e-07
0.0050793
1.4067e-06
1.68195e-05
4.75706e-06
2.1986e-06
1.45115e-06
0.0118368
8.93252e-07
7.62248e-07
0.000696278
7.13821e-07
1.33474e-06
1.32016e-06
7.53204e-07
0.00564787
1.54435e-06
3.76765e-06
1.15012e-06
1.81784e-06
7.67952e-07
0.00105771
8.76599e-07
8.90383e-07
4.39734e-07
1.08243e-06
1.01441e-06
0.00503858
9.45153e-07
4.54903e-07
0.000681859
1.56556e-06
0.00497178
5.26151e-07
8.02301e-07
2.26672e-06
0.00148668
0.000191122
7.76993e-07
0.000375317
0.00375841
1.42656e-06
0.00517575
1.72479e-06
7.45934e-07
8.81242e-07
0.00483513
0.000171676
1.43376e-06
8.04837e-07
4.34495e-07
0.000150667
2.42011e-06
1.78394e-06
1.38726e-06
8.59992e-07
1.47253e-06
7.93901e-07
2.78722e-06
0.000150009
2.63066e-06
0.000694846
1.46214e-06
2.42651e-06
2.61487e-06
0.00699704
1.37054e-06
0.00740869
0.000757074
1.5783e-06
0.0138119
1.75178e-05
0.00403198
0.0050462
0.00444194
0.000159128
1.61451e-06
7.52217e-07
1.25952e-06
0.00535232
0.0171271
9.08912e-07
6.38578e-07
2.18664e-06
6.04872e-05
4.58141e-07
0.0051667
6.96479e-07
1.32008e-06
0.00541622
0.00574887
0.000110526
9.07821e-07
1.55291e-06
0.00449741
0.000202254
3.91747e-06
9.56398e-07
0.00369494
0.000453804
0.00526946
1.9559e-06
1.77556e-06
1.37606e-06
1.54403e-06
0.0018189
1.94129e-06
0.00705175
9.6925e-07
1.70151e-06
0.00746456
0.00400236
0.0046191
1.46689e-06
1.69222e-06
8.80638e-07
1.50252e-06
1.23194e-06
0.00376069
1.75837e-06
0.00580203
4.59566e-07
2.23443e-06
1.1293e-06
2.31011e-05
1.7058e-06
1.68189e-06
0.00380072
1.82362e-06
1.52617e-06
7.94884e-07
2.22016e-06
0.000359282
1.78262e-06
1.38826e-06
0.00657216
5.04848e-07
0.00455672
0.000160977
1.34772e-06
0.00586855
0.00996477
0.00480592
0.000156342
9.54315e-07
9.32942e-07
0.00429945
1.65154e-06
0.000653428
0.00509015
9.23333e-07
1.60646e-06
0.000489981
0.000225876
0.00694137
1.40541e-06
6.36533e-07
0.00169279
0.0049217
3.72448e-06
1.42946e-06
9.54072e-07
0.000145608
0.00711235
2.68125e-06
4.5624e-07
1.62623e-06
8.31904e-07
1.02506e-06
4.62346e-05
6.83451e-07
0.00288526
0.000229264
1.314e-06
8.20964e-07
9.27981e-07
1.32989e-06
0.00667541
0.00367142
1.59238e-06
0.00780953
1.13371e-06
1.58074e-06
9.26533e-07
8.39172e-07
1.26979e-06
1.3029e-06
0.00532976
1.42528e-06
1.95201e-06
1.45812e-06
1.44464e-06
5.71909e-05
0.00368572
9.47593e-07
0.00404947
1.84244e-06
0.0011701
1.55714e-06
1.58974e-06
0.00866977
1.60117e-06
1.43472e-06
0.00341696
0.000903823
0.00653933
1.67743e-06
6.60622e-05
1.19773e-06
1.79749e-06
1.89665e-06
0.00700348
7.81169e-07
0.00677129
9.02154e-07
9.18355e-07
0.00780568
5.16117e-07
0.00198097
1.4535e-06
8.64345e-07
1.1803e-06
8.7626e-07
1.56373e-06
4.24329e-07
1.50836e-06
0.000170982
9.30524e-07
0.000168216
0.00650321
1.90548e-06
0.00572399
1.54114e-06
8.76322e-07
5.31193e-07
1.17623e-06
8.69105e-07
2.51536e-06
1.623e-06
8.04355e-07
1.13312e-06
5.71612e-07
0.00477346
0.0056226
1.66328e-06
0.00411208
0.000338885
1.13609e-06
7.14622e-05
1.5523e-06
9.35515e-07
0.000126336
1.47124e-06
0.000270068
1.09427e-06
6.91376e-05
0.000217211
0.00702344
7.02999e-07
0.0027712
1.53591e-06
1.56357e-06
4.25683e-07
7.07769e-07
0.00824087
9.69922e-06
0.000680246
7.54951e-07
1.35736e-06
0.000662609
1.35862e-06
0.00159925
0.000158851
0.00428907
0.00124289
8.63077e-05
6.2352e-07
1.23596e-06
1.59568e-06
1.06719e-06
1.63929e-06
5.22264e-06
1.69799e-06
1.62585e-06
9.45207e-07
0.00672446
7.99515e-07
0.00438805
0.00203302
0.000802445
3.41758e-05
1.60899e-06
5.00015e-07
1.11383e-06
0.000155255
0.000173105
7.00922e-07
1.24693e-06
7.49193e-07
2.44651e-06
4.70316e-07
7.47243e-07
1.51643e-06
1.64973e-06
0.00137891
1.45561e-06
1.30684e-06
1.02492e-06
1.98057e-06
0.00257295
1.64327e-06
0.0119366
0.00301551
2.55439e-06
4.82769e-07
1.82744e-06
1.27696e-06
5.46035e-07
1.11068e-06
0.0055064
3.9662e-06
0.000112687
1.65132e-06
9.85836e-06
1.33489e-06
5.25298e-07
1.20491e-06
3.22677e-05
0.00153164
4.1562e-07
1.64171e-06
1.66608e-06
0.00526568
9.99724e-07
0.00288264
4.07329e-07
0.0129744
2.24461e-06
0.00502072
2.83975e-06
2.51029e-06
0.000718054
0.00454359
8.50825e-05
0.00601301
6.21067e-07
1.17939e-05
4.67661e-07
1.3971e-06
1.64192e-06
1.40574e-06
0.00467797
1.52347e-06
1.56907e-06
0.000154598
7.27559e-06
0.000702308
1.49058e-06
1.56273e-06
1.38643e-06
5.04741e-07
1.26176e-06
0.00178849
0.000211727
0.00164505
1.04881e-06
1.60384e-06
9.60162e-07
0.000414821
0.00410364
1.57443e-06
4.97539e-07
1.62729e-06
0.00834008
1.70502e-06
0.00349621
0.00384252
1.20099e-06
4.79997e-07
0.00279842
1.25087e-06
1.7566e-06
1.58754e-06
0.00546372
0.00013602
4.01167e-06
6.88942e-05
1.20529e-06
1.06234e-06
1.33815e-06
0.00679009
1.53382e-06
0.00465224
9.73706e-06
1.63208e-06
5.50234e-06
1.47633e-06
0.00547998
0.000279367
5.00037e-07
2.6427e-05
0.00487626
5.64344e-05
0.00460557
1.24063e-06
1.23926e-06
0.006303
0.00278992
0.00717144
1.30945e-06
1.58303e-06
1.29642e-06
0.00475638
5.26217e-06
1.49867e-06
1.44387e-06
2.55398e-06
0.0155329
0.00261558
0.000378169
1.52117e-06
0.00470144
1.56741e-06
1.0611e-06
5.28487e-06
0.007069
1.59466e-06
8.90823e-07
0.0036662
0.00518515
5.09305e-07
1.03411e-06
0.00675827
4.90055e-07
3.5076e-05
1.05829e-06
0.000416799
1.22313e-06
1.96118e-06
0.00187031
0.00416789
1.50647e-06
0.00669342
0.000215784
0.00588998
0.00184999
0.0120037
1.23148e-06
1.19772e-06
0.00267416
1.03768e-06
1.50965e-06
5.01899e-07
0.000268505
1.08382e-06
0.00059536
8.97078e-07
7.69027e-07
0.00539243
2.01915e-06
0.0024039
1.43692e-06
5.81023e-07
8.56058e-07
1.69019e-06
0.00289203
0.00867602
8.65543e-07
2.16713e-06
0.000106566
1.19005e-06
7.03303e-07
0.00459837
1.67968e-06
1.52405e-06
4.49678e-06
0.00461078
0.00154227
0.00252318
0.00430009
1.46108e-06
4.0169e-05
0.000150262
0.00461678
2.15655e-06
4.33296e-07
4.27072e-06
1.18106e-06
1.10228e-06
0.00758099
0.00473383
1.26426e-06
0.0115249
1.25648e-05
0.0046151
2.30235e-06
1.56499e-06
1.14984e-06
2.16003e-05
5.95105e-07
5.71826e-07
1.51066e-06
0.00514501
0.00423764
0.00272824
0.00533766
1.50676e-06
0.00611816
0.0054845
1.67915e-06
1.263e-06
9.90199e-07
5.73379e-05
1.04528e-06
0.000269383
1.22043e-06
1.51651e-06
1.26971e-06
0.0027341
0.0066197
0.0093423
1.11082e-06
0.0029962
1.36395e-06
1.39539e-06
1.07173e-06
5.00787e-07
0.0047353
1.44956e-06
0.00504831
0.00163085
1.18012e-06
3.78357e-06
1.627e-06
1.56237e-06
1.27238e-06
5.15277e-06
8.38501e-07
1.45015e-06
1.10849e-06
1.08572e-06
6.44879e-06
1.53735e-06
1.56512e-06
5.70564e-07
1.56544e-06
5.09156e-05
0.0066744
9.66756e-07
1.83678e-06
5.64942e-07
1.5818e-06
5.11008e-07
0.00373925
8.98295e-06
1.70028e-06
1.58921e-06
1.49629e-06
1.0929e-06
1.13291e-06
3.09716e-06
1.58982e-06
7.65633e-07
8.03482e-07
0.00450492
1.5666e-06
1.13706e-06
1.00986e-06
5.69816e-07
2.19315e-06
0.00421236
0.00195877
1.69492e-06
1.35611e-06
5.4116e-07
4.31173e-07
8.16641e-07
2.21367e-05
0.00573947
5.17515e-07
1.39687e-06
2.69734e-06
0.00323088
1.52984e-06
1.51216e-06
0.00570948
1.47661e-06
8.55611e-07
0.000405735
0.00677992
1.21639e-06
5.3029e-07
1.27196e-06
0.00621443
4.4914e-06
1.67442e-06
3.86463e-06
0.00998806
1.57972e-06
0.00619574
0.00348915
1.11603e-06
0.00294062
2.55232e-06
1.38835e-06
0.00507448
1.47025e-06
9.1743e-07
6.98176e-07
6.54792e-06
1.01442e-06
6.59451e-06
1.4275e-06
1.64694e-06
1.71631e-06
0.000193504
0.000659583
0.00644453
9.1384e-05
1.57427e-06
4.53683e-06
4.58308e-06
0.00600216
2.17575e-06
6.15286e-05
1.0539e-06
1.01232e-06
7.12051e-07
0.000143731
1.46306e-06
1.26762e-06
0.00807733
1.38925e-05
1.57988e-06
7.86983e-07
4.18813e-07
5.57028e-07
1.75531e-06
1.56446e-06
0.000718252
2.14862e-06
2.03108e-06
1.84189e-06
3.67917e-06
0.00471022
1.66238e-06
0.00628551
9.62328e-07
8.24673e-07
8.44257e-05
0.0119392
0.00617216
6.13922e-06
8.14296e-07
0.00506552
0.000100481
7.624e-07
1.62393e-06
9.59526e-07
1.77782e-06
2.27268e-06
2.8418e-07
0.00503878
0.000496484
1.52092e-06
0.00424871
0.00636535
1.52602e-06
2.18744e-06
0.0101569
0.00564212
1.56503e-06
2.41426e-06
4.19209e-07
1.32763e-06
5.78148e-07
1.4192e-06
0.00638179
0.00366219
0.00470301
0.00454736
1.60551e-06
1.48262e-06
1.74489e-06
5.07143e-07
1.10919e-06
7.16111e-07
0.00410295
1.01492e-06
0.0056433
1.48456e-06
1.42802e-06
4.36959e-06
0.000123468
0.00536051
0.00345668
1.76603e-06
4.57212e-07
5.5467e-07
0.0030264
0.00186376
1.55498e-06
9.32296e-07
6.70863e-07
1.99002e-06
1.53491e-06
5.4195e-06
0.00886767
1.63422e-06
7.00589e-07
4.00199e-06
4.09433e-07
0.00692884
0.000790654
1.03845e-06
2.27243e-06
1.11286e-06
0.00689177
4.72776e-07
0.00609739
5.03403e-07
1.63825e-06
1.25512e-06
1.55761e-06
1.54826e-06
1.61648e-06
1.82742e-06
0.00604858
0.00423659
1.54896e-06
1.55847e-06
1.15503e-06
0.00324926
0.00754181
8.18877e-07
4.91519e-07
0.00012403
4.38463e-07
0.00592528
5.08112e-07
1.33224e-06
2.08447e-06
9.80733e-06
1.4598e-06
1.06276e-06
1.63084e-06
2.29352e-06
0.00521486
1.19086e-06
0.000115876
0.013162
0.000708232
9.43709e-05
1.46146e-06
0.00439286
1.68288e-06
0.000389199
1.34333e-06
9.17268e-05
9.93387e-05
0.00750384
0.00782483
0.00892735
5.14147e-07
1.32906e-06
8.7929e-07
0.00831799
0.000136378
0.00496987
0.00559558
1.44147e-06
0.00503746
0.000500386
1.47559e-06
1.2632e-06
1.53952e-06
0.00528246
1.44417e-06
2.28541e-06
1.09547e-06
1.1917e-06
8.4363e-07
1.31861e-06
0.00386628
0.000129952
1.51801e-06
0.00897184
0.00213049
5.13976e-07
1.34755e-06
6.8585e-07
1.03373e-06
0.0060251
0.000190001
1.40809e-06
1.41591e-06
0.00137876
2.26358e-06
1.79113e-06
0.00600666
1.50754e-06
0.00607075
1.71308e-06
1.29267e-06
1.34063e-06
1.09609e-06
2.23604e-06
0.000166684
8.85454e-05
0.00530875
2.11519e-06
0.0228152
8.64833e-07
1.52646e-06
6.23214e-07
0.00502242
0.0131874
0.000463762
1.59046e-06
1.55218e-06
1.34987e-06
9.52018e-07
1.57928e-06
7.20548e-07
0.00625217
1.51376e-06
0.00616411
1.4763e-06
0.00412412
0.00217686
0.00583557
9.97606e-07
1.6201e-06
0.00707975
1.52373e-06
0.0043029
0.00565197
8.12733e-07
2.34667e-06
1.5544e-06
0.0123178
0.00652405
1.49547e-06
1.56058e-06
0.000116796
9.80131e-07
1.55688e-06
1.65961e-06
0.0173643
0.000145873
1.52474e-06
1.60946e-06
0.000108159
0.000136823
4.49542e-06
0.000385428
4.28899e-06
1.04217e-06
7.96336e-07
0.0014878
0.00567355
2.2441e-06
1.68151e-06
0.00393733
0.00713794
8.85631e-07
1.46842e-06
1.52734e-06
0.0050091
0.00447871
1.42373e-06
0.00544734
1.56791e-06
9.92533e-07
1.25402e-06
0.00522208
0.000551491
6.8209e-07
0.00617822
1.26845e-06
1.44013e-06
1.01751e-06
0.0121843
1.20732e-06
0.0230086
1.13487e-06
0.00199482
1.61572e-06
1.17453e-06
4.06922e-06
0.00618873
0.000119168
1.53645e-06
0.0042102
4.15668e-07
1.4092e-06
1.47091e-06
1.70742e-06
2.10544e-06
2.11415e-06
1.40383e-06
0.00480746
1.56466e-06
4.57197e-06
0.000407054
0.00373196
8.95951e-07
0.00503252
0.00517509
1.67788e-06
0.000177405
2.20223e-06
0.00877865
1.42256e-06
1.99601e-06
8.08286e-07
0.00417371
0.00770438
1.10855e-06
0.00573662
1.25907e-06
1.92808e-06
1.26264e-06
0.0051371
4.65632e-07
9.4595e-07
9.9631e-05
2.50943e-06
0.0104463
0.00279281
2.18574e-06
1.53086e-06
6.93459e-07
0.00220496
1.24276e-06
5.77174e-07
5.43495e-06
4.22822e-07
1.7821e-06
1.33186e-06
0.000414667
1.16626e-06
7.18711e-05
6.91498e-05
1.23573e-06
1.65949e-05
1.77858e-06
0.00696735
1.07238e-06
0.00198559
0.00351405
7.93507e-07
1.37663e-06
1.3835e-06
1.60914e-06
1.64859e-06
9.59331e-07
6.47884e-05
2.42368e-06
1.61314e-05
1.71831e-06
1.11838e-06
1.47752e-06
6.67163e-07
0.00377848
1.41198e-06
1.137e-06
0.000319123
1.62737e-06
0.00219719
0.0056264
2.78678e-06
1.1376e-06
1.5428e-06
1.42376e-06
1.5581e-06
1.10165e-06
4.96033e-07
1.61616e-06
0.00398
0.00629771
0.00114076
1.41383e-06
0.00586469
0.000828355
1.63024e-06
6.03775e-06
0.0044122
1.44603e-06
1.59144e-06
1.43063e-06
0.00422214
0.0124732
4.27599e-05
4.93239e-07
1.50144e-06
9.43498e-07
1.58985e-06
4.47619e-06
1.19467e-06
8.76693e-07
0.0041026
0.00596729
7.89384e-07
1.59061e-06
1.65481e-06
0.0179021
4.14872e-07
0.0105875
0.00469773
1.83981e-06
0.000827241
0.00390955
0.00430159
9.75821e-07
0.000149048
0.000193889
1.61618e-06
6.91329e-07
9.58312e-07
0.00560636
0.00534075
0.00720297
5.45783e-07
0.00623712
1.40148e-06
5.53858e-06
5.91196e-07
1.38394e-06
1.58553e-06
7.87363e-07
0.0142145
1.64825e-06
0.00746679
0.00738986
0.00992652
1.71358e-06
1.97258e-06
0.0118899
0.00506966
9.07944e-07
0.00554367
6.75092e-07
4.47691e-07
1.3518e-06
1.11112e-06
6.04464e-07
0.00629679
1.2212e-06
2.5472e-06
1.42062e-06
0.00426754
0.00787825
1.1827e-06
7.79663e-07
1.76256e-06
2.182e-06
0.0140866
8.85242e-07
4.17135e-07
1.24022e-06
0.00792831
1.00456e-06
3.60516e-05
0.00576527
1.75815e-06
1.93903e-06
9.03392e-07
9.54084e-05
1.52592e-06
0.00617094
6.33274e-07
0.00481404
1.70938e-06
1.46623e-06
0.00610725
0.00851438
5.94077e-07
2.21856e-06
1.43746e-06
0.00661363
5.11763e-07
0.000335127
8.44246e-07
1.48146e-06
1.75199e-06
0.00371401
5.98119e-07
1.07332e-06
9.35043e-07
2.44566e-06
1.67879e-06
0.0050949
0.00407106
1.45012e-06
0.00511486
1.51296e-06
1.74872e-06
0.00402077
0.00572193
1.43716e-06
0.00446841
0.000306353
1.62372e-06
3.18564e-05
4.32457e-06
1.6701e-06
1.62454e-06
0.00397158
5.9975e-07
0.0100707
1.22345e-07
3.32543e-06
1.48351e-06
1.29255e-06
0.00472161
1.75898e-06
0.00455208
1.54253e-06
1.49867e-06
2.56783e-05
0.00380188
1.6689e-06
0.00528446
0.000562004
0.00673997
1.21731e-06
0.00372196
0.00261056
0.0154424
1.5083e-06
5.51265e-07
1.00335e-06
0.00561483
8.06144e-07
0.000115547
1.52505e-05
1.44854e-06
5.37717e-07
1.46876e-06
0.015968
0.003285
0.00903252
0.00854836
1.02055e-06
0.00366472
0.00487682
4.55781e-06
0.00531025
0.00461006
1.38762e-06
0.010367
1.58865e-06
1.66706e-06
0.00395078
0.00309968
5.00081e-07
0.012337
1.12237e-06
1.42982e-06
0.0139229
0.00417966
0.00611157
0.00849227
1.49179e-06
1.47466e-06
1.19101e-06
0.00513321
0.00781707
1.21447e-06
1.89582e-06
0.000148291
1.48435e-06
1.36078e-06
0.00405279
0.0145372
1.38747e-06
1.56143e-06
1.61038e-06
1.26752e-06
0.000671115
1.59765e-06
8.05317e-07
1.41858e-06
3.92106e-06
0.0198525
1.7643e-06
0.00426555
1.44256e-06
1.36687e-06
0.00445958
0.00502404
1.3731e-06
0.000135422
1.45579e-06
1.65617e-06
1.06603e-06
5.05478e-07
2.00538e-06
8.18614e-07
0.000650117
1.44763e-06
7.8438e-07
1.36033e-06
0.00292988
0.00336607
0.00472757
1.48782e-06
1.42829e-06
0.00533303
0.00017506
1.57871e-06
8.83232e-07
1.62457e-06
4.62544e-05
1.35213e-06
8.00555e-07
1.52319e-06
1.36341e-06
0.00460761
2.99046e-06
1.44463e-06
1.46126e-06
4.88516e-07
1.21113e-06
0.00183272
0.000101723
2.26053e-06
0.00565647
1.53197e-06
1.48748e-06
1.42836e-06
1.44684e-06
1.00996e-06
1.47712e-06
1.19549e-06
2.07926e-06
0.00397168
9.42695e-07
3.51164e-06
0.00459675
6.85973e-07
1.12406e-06
9.55928e-07
1.6153e-06
0.0136877
1.00599e-06
0.00132076
0.000728717
1.39977e-06
6.72624e-07
0.00628911
4.6425e-07
7.45139e-07
6.04847e-07
4.67433e-07
1.01303e-06
7.2413e-07
1.08233e-06
0.00296034
9.81405e-06
1.63508e-06
0.00104305
1.16235e-05
0.000596322
1.66794e-06
0.00426766
0.00577173
3.4352e-06
0.00806023
0.00421728
3.74245e-06
2.15075e-05
1.57978e-06
5.9783e-07
0.00298543
1.00538e-06
1.47759e-06
0.0113061
8.6458e-07
0.00227125
4.49282e-06
8.23802e-07
5.72461e-07
1.35612e-06
4.23147e-07
5.86773e-07
8.64948e-06
0.0103024
0.00394528
0.000667608
1.32142e-06
5.99797e-07
2.31126e-06
0.00885128
0.0047456
3.66138e-06
0.00143012
9.53768e-07
0.00203246
0.00580323
7.07963e-05
1.31149e-06
1.32424e-06
4.15811e-07
1.2522e-06
1.11564e-06
1.06655e-06
1.47404e-06
0.00452763
2.40936e-06
0.00488455
0.000113651
0.00191066
7.08081e-06
1.34057e-06
6.0951e-07
7.51681e-07
6.08201e-07
1.57664e-06
6.29735e-05
0.00447173
0.000270669
0.00618426
1.64535e-06
0.00895592
5.38506e-06
0.00535347
0.0056301
1.20877e-06
7.41769e-07
0.000118482
1.28856e-06
5.95419e-07
0.000259438
0.00467658
0.00244135
1.3681e-06
1.39391e-06
8.58929e-07
1.59821e-06
0.00307196
6.7945e-07
1.18602e-06
0.000724137
4.24502e-07
0.000128935
1.58797e-06
0.00961437
1.49111e-06
0.000455761
0.0079304
1.48922e-06
0.00497144
3.66467e-06
0.0051966
4.73569e-07
1.40287e-06
8.76452e-07
1.49623e-06
0.00466515
5.66123e-07
0.00423878
7.50944e-07
8.45819e-07
1.58561e-06
0.00603569
1.79913e-06
3.62557e-06
0.000285864
6.76562e-07
1.57754e-06
0.00554214
1.77119e-06
5.95994e-07
9.77888e-07
1.25594e-06
1.45764e-06
8.87572e-07
7.73129e-07
0.00657221
0.00610738
0.00565001
0.000155829
0.000854006
0.00781186
2.30294e-06
0.00653021
4.55093e-06
4.6958e-07
5.19345e-07
4.41364e-07
1.22983e-06
0.00529668
0.00517779
5.274e-07
0.00386584
0.0064335
1.69673e-06
9.34035e-07
1.61768e-06
0.00432643
0.00389266
0.00466649
0.00051357
0.00481234
4.38629e-07
0.000338517
3.11644e-06
5.57631e-05
0.00418439
1.39687e-06
4.43507e-06
0.0062979
1.46875e-06
0.00743569
1.21624e-06
1.13478e-05
0.00698064
0.00567252
2.4177e-06
1.528e-06
0.00552414
4.45542e-06
0.00590667
0.00582092
0.00453527
3.73796e-06
0.00344711
1.38774e-06
1.00782e-06
1.83749e-06
0.00549341
0.000100431
0.00537852
7.66425e-07
3.62991e-06
2.03115e-06
7.92178e-07
0.00438039
1.43819e-06
4.53408e-06
0.00489188
1.4669e-06
0.00932089
0.0119591
0.00600732
0.00391011
0.00149277
6.55078e-05
9.26137e-07
0.00545474
7.43519e-07
6.30939e-07
1.73866e-06
1.51371e-06
0.00539551
1.55042e-06
1.50153e-06
1.49066e-06
7.32797e-07
0.0037227
1.40052e-06
3.84325e-06
1.94957e-05
8.02286e-07
0.00590534
3.13275e-06
9.23657e-07
0.00578933
0.000350518
1.4793e-06
0.000675725
1.47321e-06
0.00632617
0.000219073
5.25499e-07
3.83583e-06
1.41001e-06
0.00578203
0.00493908
2.29802e-06
0.00149873
1.15557e-06
1.6285e-06
0.0116109
1.62748e-06
9.91036e-07
0.00236284
1.83347e-06
9.69921e-07
7.87906e-07
4.53592e-06
1.37369e-06
0.00471217
0.00036352
4.0039e-07
0.00860596
1.98194e-06
1.97452e-06
9.21042e-07
0.00594239
0.00705176
0.0122249
1.50979e-06
5.33683e-07
2.25732e-06
1.47941e-06
0.000230304
9.95582e-07
0.000126402
8.84786e-07
5.69472e-06
7.90196e-07
3.94951e-06
3.34347e-05
3.76323e-06
0.00574119
0.00177624
0.00427539
0.00479868
4.48892e-07
0.00129631
0.00165274
0.00573453
6.77606e-07
7.24975e-05
0.00655306
0.00881456
3.82795e-06
0.00101937
0.000454058
0.00627375
1.88912e-06
0.000287849
7.81306e-07
1.8483e-06
1.84789e-06
1.39866e-06
2.27968e-06
0.00970552
7.71631e-07
0.00949865
0.00182306
1.21124e-06
8.69928e-07
1.12654e-06
1.40109e-06
0.00082259
6.89812e-07
8.26456e-07
0.00681443
9.62035e-05
1.3415e-06
3.173e-06
8.12735e-07
2.427e-06
0.00608475
0.00524348
0.00608955
1.67056e-06
0.00510188
1.03997e-06
6.32591e-07
1.64184e-06
0.00458388
0.000173839
0.000301149
0.000112974
1.52736e-06
8.20043e-07
1.39338e-06
1.59113e-06
1.61424e-06
0.00878039
0.00187095
1.52228e-06
0.00453362
0.00467956
0.000234258
0.00895743
1.44673e-06
1.58078e-06
2.05375e-06
1.47839e-06
5.51426e-07
1.54357e-06
1.5391e-06
0.00478271
0.00531897
6.81563e-07
1.819e-06
1.54081e-06
2.06821e-06
0.0172073
0.00678277
0.00612673
9.92568e-07
2.61707e-06
0.00604355
2.57697e-06
3.82696e-06
0.000199243
0.00410266
0.00650473
0.00661835
6.91455e-07
0.0032508
5.38992e-07
1.14339e-06
1.33849e-06
1.95581e-06
0.00638622
0.00667424
0.000122438
0.00862098
1.89028e-06
5.81866e-07
9.42091e-07
1.37882e-06
1.08361e-06
1.78084e-06
0.00644826
0.00658078
2.46065e-06
0.000635676
1.21625e-06
1.87456e-06
8.27343e-07
0.005952
1.73909e-06
9.90999e-07
5.98858e-06
3.20137e-06
0.00164071
0.005474
4.476e-06
0.00535115
1.44109e-06
0.0134376
0.000192136
0.00391055
0.000153014
1.04107e-06
1.85799e-06
1.39819e-06
0.00393393
0.00620675
1.66843e-06
0.0160345
0.000183813
0.00903609
2.04873e-06
7.35518e-06
1.4292e-06
1.00901e-06
3.98322e-06
1.83902e-06
1.5385e-06
1.84338e-06
1.56123e-06
1.54323e-06
0.00604097
6.48921e-06
1.32085e-06
1.49066e-06
1.66789e-06
1.45556e-06
9.32096e-07
0.00484301
3.54138e-06
4.99178e-06
0.0168583
1.37437e-06
0.00538611
1.60536e-06
1.19673e-06
1.37532e-06
0.00523278
1.52439e-06
0.00619712
0.00669291
1.92244e-06
1.37919e-06
3.89175e-06
0.00453025
4.73002e-06
0.00125744
1.28884e-06
1.88121e-06
6.59502e-07
0.00580831
6.97719e-05
1.28262e-06
5.87609e-07
1.50655e-06
1.59945e-06
1.42792e-06
1.92193e-06
1.80953e-06
1.41634e-06
1.45341e-06
0.00478877
0.010433
5.69531e-07
1.74836e-06
4.53961e-07
0.0065459
1.66793e-06
2.17067e-06
0.00140916
1.85787e-06
0.00209091
6.01248e-07
1.60132e-06
1.17396e-06
1.43943e-06
1.18059e-06
0.00587356
7.27123e-06
0.00282203
1.4794e-06
0.00469603
0.000111878
1.61041e-06
0.00471268
2.19558e-06
8.59546e-05
0.0105431
1.43016e-06
1.51215e-06
1.82424e-06
2.07653e-06
1.02711e-06
0.00075823
0.00583541
0.000117522
1.00974e-06
0.000134485
0.000545768
0.000838587
1.32412e-06
1.77948e-06
7.98766e-07
1.49968e-06
0.00365969
1.50489e-06
1.53124e-06
9.71508e-07
9.60011e-07
0.000596319
0.00444754
1.0702e-06
0.00117095
6.77127e-05
5.829e-07
6.51228e-07
0.0058835
3.65112e-06
3.22894e-06
1.4133e-06
1.53389e-06
2.98886e-06
6.33418e-07
9.79694e-07
0.0164424
1.5591e-06
0.00579761
2.61393e-06
1.57816e-06
0.00630828
3.70167e-06
6.01829e-06
1.00801e-06
0.000233942
1.69201e-06
1.55463e-06
0.00326363
1.7468e-06
1.20522e-06
2.41649e-06
1.54239e-06
1.01773e-06
5.34198e-07