/*--------------------------------*- C++ -*----------------------------------*\
| =========                 |                                                 |
| \\      /  F ield         | OpenFOAM: The Open Source CFD Toolbox           |
|  \\    /   O peration     | Version:  v2012                                 |
|   \\  /    A nd           | Website:  www.openfoam.com                      |
|    \\/     M anipulation  |                                                 |
\*---------------------------------------------------------------------------*/
FoamFile
{
    version     2.0;
    format      ascii;
    class       volScalarField;
    location    "200";
    object      epsilon_0;
}
// * * * * * * * * * * * * * * * * * * * * * * * * * * * * * * * * * * * * * //

dimensions      [0 2 -3 0 0 0 0];


internalField   nonuniform List<scalar> 
13851
(
1.13921e-06
0.00193404
2.306e-06
1.12016e-06
2.42551e-06
1.45357e-05
1.60752e-06
1.73426e-06
7.64914e-07
2.56976e-06
8.08279e-05
0.00276958
0.00274059
0.00861035
1.51217e-06
1.51993e-06
1.50222e-06
1.29759e-06
0.00102859
7.69917e-07
1.12544e-06
2.26112e-06
5.63023e-07
7.87124e-07
5.85167e-07
1.73525e-06
1.59004e-06
0.00405845
1.14721e-06
1.32538e-06
3.4114e-05
1.50026e-06
2.21836e-06
8.93082e-05
7.93459e-07
7.02593e-06
0.000905425
8.60006e-05
2.89904e-06
7.4563e-05
1.12304e-06
4.46873e-07
0.00503067
7.08359e-05
6.57876e-05
0.013689
7.66306e-05
0.000459944
1.59323e-06
1.04647e-06
2.30489e-06
4.71601e-06
0.0058517
1.4754e-06
1.14267e-06
4.45005e-07
6.45713e-07
0.00491077
1.31924e-06
1.55709e-06
6.93103e-05
0.00550407
1.48234e-06
2.78292e-06
0.000459718
1.14042e-06
0.00164167
0.000108593
1.69066e-06
1.29105e-06
0.00839749
0.00324714
0.00182176
1.49295e-06
1.0847e-06
7.7648e-07
2.18588e-06
0.00566113
1.80384e-06
0.00802462
1.52283e-06
6.43643e-05
1.38393e-06
0.0143523
1.52746e-06
0.00252826
1.74963e-06
0.00296997
1.55408e-06
5.89359e-07
7.0744e-06
9.09551e-07
0.000120884
1.58329e-06
1.55962e-06
7.04834e-07
2.46637e-06
0.00389368
1.10421e-06
7.15813e-07
0.00913037
1.87449e-06
1.19258e-06
1.66417e-06
4.98127e-07
1.6019e-06
1.96615e-06
4.32002e-07
0.00512084
2.43836e-05
7.65735e-07
5.91385e-07
1.02947e-06
1.08754e-06
7.66787e-07
0.000529549
0.00396425
4.4423e-07
9.60364e-07
1.14381e-06
0.00539605
1.65101e-06
0.00295994
0.000456946
0.000603343
5.14014e-07
0.000586831
1.83869e-06
1.11339e-06
4.76715e-06
1.12861e-06
8.60183e-07
0.00725347
1.39639e-06
0.000759801
8.68979e-07
4.46814e-07
0.00301396
0.0105275
0.005346
0.00883562
1.11907e-06
8.11934e-07
4.72125e-07
1.43511e-06
7.60476e-05
6.988e-07
4.75228e-06
1.60165e-06
6.44287e-05
2.44212e-06
1.09827e-06
0.00950386
6.38562e-07
1.52025e-06
1.42704e-06
9.42689e-07
1.33432e-06
4.68544e-06
2.28745e-06
4.15387e-07
1.6304e-06
0.00475708
8.52772e-07
1.38453e-06
4.64087e-07
5.75979e-07
1.70129e-06
1.11207e-06
0.00386675
0.00648353
6.84253e-07
9.51408e-07
0.00543208
8.51192e-07
0.000513069
1.81592e-06
8.38436e-07
0.00124398
4.28844e-07
1.50787e-06
0.00360867
1.411e-06
2.40151e-06
4.15171e-07
5.97092e-07
1.15145e-06
1.09062e-06
2.68762e-06
2.47271e-06
8.54592e-05
0.00536261
5.91331e-07
1.67096e-06
0.00524284
1.50397e-06
8.1187e-07
0.000224014
8.29428e-07
7.82098e-07
5.16478e-07
0.00715881
1.19916e-06
1.2534e-06
2.05038e-06
1.41546e-06
0.0136397
1.52112e-06
0.00500011
4.20317e-07
0.00576135
1.19617e-06
0.00019444
4.22924e-07
4.65551e-07
3.50687e-05
1.50901e-06
0.0134278
1.46904e-06
0.00500506
1.51293e-06
1.52777e-06
0.0046415
4.42796e-06
0.00631276
6.11159e-07
1.60524e-06
5.22098e-07
0.00593752
4.21159e-07
1.71684e-06
0.000819302
6.82936e-07
5.89596e-07
2.14677e-06
1.45127e-06
0.0163482
0.000739599
4.69501e-07
1.26303e-06
2.1745e-05
0.000242965
4.20034e-07
2.17428e-06
4.40038e-07
0.00591549
1.88733e-06
0.000160972
1.41404e-06
1.45454e-06
9.20123e-07
0.000245194
1.41227e-06
1.42213e-06
1.93631e-06
1.28988e-05
2.28922e-06
0.00330206
0.0167148
1.55202e-06
4.6789e-07
1.2737e-06
0.000933228
5.0615e-07
0.00211708
1.50155e-06
1.41851e-06
1.58158e-06
0.00456555
2.02436e-06
9.15569e-07
1.51447e-06
0.000709055
1.76886e-06
1.50471e-06
8.62566e-07
6.65967e-05
1.15304e-06
0.00703679
6.90214e-05
4.18747e-07
4.16358e-07
4.77152e-07
1.90183e-06
0.000847153
0.000464753
7.79269e-07
1.60878e-06
0.000621835
5.24664e-05
5.30955e-06
1.32275e-06
1.54562e-06
1.70429e-06
5.41363e-05
0.00190196
1.39286e-06
0.00241441
8.69219e-07
0.00593926
1.62793e-06
1.49149e-06
0.00683596
1.2297e-06
1.84911e-06
0.0051204
7.81808e-07
1.80761e-06
1.58225e-06
1.31727e-06
0.0129848
1.39303e-06
1.39023e-06
0.00440403
4.52984e-07
1.45797e-06
5.23296e-07
0.00699158
3.96784e-06
1.46774e-06
1.91254e-06
1.51447e-06
0.00812112
9.58156e-07
5.57347e-07
9.43093e-07
3.88891e-06
1.5991e-06
1.53555e-06
1.61834e-06
1.24167e-06
1.3776e-06
7.2232e-05
0.0143692
0.00377651
1.28373e-06
0.00680048
0.00403459
1.49482e-06
1.67187e-06
5.20331e-06
1.05822e-06
1.65465e-06
3.7666e-06
0.00116997
9.51359e-07
0.000553103
0.00545882
1.5197e-06
1.60342e-05
1.60656e-05
0.00136646
1.53795e-06
1.41239e-06
0.00595233
9.5425e-07
0.000486314
9.40872e-07
1.5352e-06
4.35609e-07
4.30367e-07
9.42839e-07
0.00553452
0.000160851
1.28556e-06
1.78809e-06
4.5393e-07
0.00242736
1.5543e-06
0.000248904
0.00375579
1.27957e-06
1.55978e-06
1.5688e-06
0.000230885
1.10619e-06
4.48334e-07
9.63358e-07
0.0103076
1.08429e-06
0.0133052
9.93168e-07
4.12739e-06
0.00533007
9.17117e-05
9.20687e-05
8.77723e-07
9.02843e-07
1.53746e-06
1.26978e-06
1.90998e-06
0.00874894
1.71263e-06
0.00633586
0.00524639
4.56177e-07
1.5581e-06
0.00382293
0.00649094
0.000516789
0.00407808
9.53844e-07
1.57449e-06
6.65638e-07
0.00365834
7.17922e-07
1.51872e-06
8.77292e-07
1.55069e-06
4.95909e-07
7.75444e-07
4.61757e-07
2.72586e-06
1.59647e-06
0.00565345
1.28064e-06
1.96537e-06
1.17056e-06
0.000241099
1.45221e-06
0.00161163
1.48759e-06
2.31562e-05
4.43582e-07
7.7376e-07
6.08986e-07
0.000708423
0.000132154
4.15658e-06
1.16817e-06
0.0069041
0.000112028
1.4726e-06
1.12235e-06
2.18082e-06
1.10559e-06
0.000235359
4.86953e-07
0.00242806
0.00015892
2.09806e-06
0.00482278
8.29662e-07
5.30559e-07
0.000150038
0.0138416
4.16459e-07
1.59149e-06
1.82263e-06
2.59094e-06
7.12445e-07
1.3656e-06
2.32037e-06
4.08958e-06
1.3196e-06
0.00312954
6.12076e-07
9.47935e-07
0.00509589
1.38398e-06
4.14321e-07
0.0041251
8.97863e-07
1.137e-06
7.4432e-07
1.50211e-06
1.31601e-06
4.1991e-07
8.20916e-07
0.0043261
1.38255e-06
1.72715e-06
8.769e-07
1.05745e-06
3.59613e-06
1.1553e-06
1.06839e-06
9.86183e-07
9.81862e-07
0.000690297
1.43298e-06
3.43342e-06
1.41911e-06
6.49415e-07
0.00866056
0.00488003
1.43394e-06
1.06046e-06
1.46034e-06
0.000235705
0.0141244
9.54455e-07
0.000143133
1.11733e-06
2.4027e-06
1.53615e-06
0.00734796
4.41362e-07
0.00639271
2.2821e-06
4.49424e-07
1.05375e-06
0.0037151
1.72329e-06
0.000101668
9.59593e-07
0.000363781
1.15588e-06
8.19362e-07
8.57264e-07
1.59242e-06
0.00585493
2.13617e-06
4.5424e-06
0.00104842
1.46392e-06
4.18398e-07
0.00344576
0.000141165
1.51618e-06
1.62858e-06
0.000199347
0.000472014
0.0056584
1.46651e-06
0.00773035
0.0139561
0.00911951
1.39483e-06
1.05644e-06
0.000138201
1.3995e-06
5.41151e-05
0.000229856
0.00411836
1.33086e-06
0.00474984
0.00354833
4.40871e-07
3.99372e-07
2.17498e-06
0.005207
1.40955e-06
1.29048e-06
9.40198e-07
1.18182e-06
2.65724e-06
1.44064e-06
0.00299499
0.00314162
8.00247e-07
0.00484268
0.00451032
2.88819e-06
0.000147583
1.71619e-06
4.1492e-07
7.67668e-07
2.57181e-05
0.00363683
1.52602e-06
2.79965e-06
6.94936e-06
4.42619e-07
1.21539e-06
0.00042091
0.000480334
3.73796e-06
0.00572154
0.00363089
1.11741e-06
1.56152e-06
0.00347111
0.00515871
4.35063e-06
1.71466e-06
1.56997e-06
4.30857e-07
1.1498e-06
0.00279074
4.41238e-07
1.40121e-06
4.26556e-07
9.28231e-07
0.0037412
2.67466e-06
1.14685e-06
4.39012e-07
0.0163862
0.000242177
8.8718e-07
6.14179e-07
5.09966e-07
1.52934e-06
0.00994196
0.000196027
0.000198832
0.0124313
0.000309853
1.70066e-06
0.00621713
0.00496147
9.57244e-07
1.69006e-06
4.13947e-07
5.20769e-07
1.55495e-06
0.00410536
0.000621294
2.78398e-06
1.55052e-06
7.60788e-07
1.49748e-06
7.84852e-07
0.000118046
2.28342e-06
1.41595e-06
1.29755e-06
7.1599e-07
1.59191e-06
4.42167e-06
1.55289e-06
1.09444e-06
1.56485e-06
1.45849e-06
2.43351e-06
0.000438771
4.08271e-06
1.49005e-06
4.6322e-06
7.5998e-07
7.3196e-05
9.32787e-07
0.0161793
1.20361e-06
6.95682e-07
0.0046896
1.26635e-06
0.0062544
0.00553736
0.0112563
0.00450435
7.21393e-07
0.00375777
4.21464e-07
9.1818e-07
4.38328e-07
9.30493e-07
4.08899e-07
1.27988e-06
1.47555e-06
4.37751e-07
0.00516047
2.44722e-06
0.00589935
9.11812e-07
4.31468e-07
5.15474e-07
4.68465e-06
0.00658081
1.97481e-06
1.59196e-06
4.22953e-07
6.67371e-07
8.12021e-07
9.32336e-07
0.000266773
0.00565888
1.45763e-06
4.35588e-07
1.60463e-06
9.42063e-07
0.00129074
0.00481048
1.5092e-06
0.00374533
0.00042028
1.09379e-06
4.43986e-06
0.012325
1.70454e-06
0.00297129
1.51414e-06
1.28252e-06
1.95677e-06
1.27281e-06
0.000218773
1.4293e-06
0.000258873
4.74601e-07
1.73059e-06
0.00486211
7.56718e-07
1.23944e-06
1.52455e-06
8.20713e-07
1.50102e-06
0.000778652
0.00510275
2.24488e-06
0.00173132
0.000105101
4.2587e-07
9.08796e-07
0.0094421
6.56537e-06
1.4944e-06
0.0055504
6.98777e-07
1.77199e-06
4.44311e-07
0.000235238
0.00176621
1.38064e-06
1.1243e-06
6.88179e-06
1.56614e-06
5.12133e-07
0.00533694
1.1933e-05
0.00437676
4.50417e-07
1.46436e-06
0.00585165
0.00455817
5.81809e-06
7.84562e-07
0.00507924
1.4067e-06
1.65866e-05
4.75912e-06
2.19873e-06
1.45114e-06
0.0119269
8.93276e-07
7.6224e-07
0.000696267
7.13821e-07
1.33474e-06
1.32015e-06
7.53205e-07
0.00565726
1.54436e-06
3.76774e-06
1.15006e-06
1.75352e-06
7.6795e-07
0.00105175
8.76599e-07
8.90379e-07
4.39734e-07
1.08243e-06
1.01441e-06
0.00503821
9.45155e-07
4.54902e-07
0.000683444
1.56556e-06
0.00497144
5.26152e-07
8.02303e-07
2.26673e-06
0.00147398
0.000191182
7.76993e-07
0.000367413
0.00376027
1.42657e-06
0.00517551
1.7248e-06
7.45933e-07
8.79479e-07
0.00483018
0.000167569
1.43376e-06
8.04837e-07
4.34494e-07
0.000150918
2.42023e-06
1.78397e-06
1.38725e-06
8.5893e-07
1.47253e-06
7.93904e-07
2.78724e-06
0.000149261
2.63064e-06
0.000692528
1.46214e-06
2.42647e-06
2.61489e-06
0.00699726
1.37053e-06
0.00741159
0.000757633
1.5783e-06
0.0137427
1.69809e-05
0.00403797
0.00503437
0.0044414
0.000158949
1.61457e-06
7.52217e-07
1.25956e-06
0.00534515
0.0171256
9.08914e-07
6.38578e-07
2.18665e-06
6.03454e-05
4.5814e-07
0.00516771
6.96477e-07
1.32008e-06
0.00542604
0.00574834
0.000110427
9.07821e-07
1.55291e-06
0.00450231
0.00020222
3.91751e-06
9.56396e-07
0.00369886
0.000453547
0.00529395
1.95589e-06
1.77556e-06
1.37606e-06
1.54403e-06
0.00183766
1.94129e-06
0.00705156
9.69719e-07
1.70151e-06
0.00749029
0.0040089
0.00461869
1.46689e-06
1.69222e-06
8.80639e-07
1.5025e-06
1.23194e-06
0.0037263
1.75837e-06
0.00580204
4.59567e-07
2.23445e-06
1.1293e-06
2.29849e-05
1.7058e-06
1.68188e-06
0.0038014
1.82362e-06
1.526e-06
7.94884e-07
2.22017e-06
0.000355877
1.77754e-06
1.38826e-06
0.00657143
5.04845e-07
0.00454289
0.000160246
1.34772e-06
0.00586843
0.00991372
0.00480558
0.000156228
9.54763e-07
9.32942e-07
0.00429875
1.65153e-06
0.000666483
0.00508998
9.23332e-07
1.60646e-06
0.000492404
0.000225366
0.00695565
1.40541e-06
6.36534e-07
0.00168796
0.00492148
3.72454e-06
1.42946e-06
9.54076e-07
0.000144945
0.0071419
2.68127e-06
4.5624e-07
1.6263e-06
8.31903e-07
1.02506e-06
4.63143e-05
6.83455e-07
0.00286379
0.000229112
1.314e-06
8.20967e-07
9.27981e-07
1.32989e-06
0.00667504
0.00367174
1.59239e-06
0.0078099
1.13371e-06
1.58073e-06
9.26533e-07
8.39172e-07
1.26979e-06
1.30291e-06
0.00532955
1.42528e-06
1.95202e-06
1.45812e-06
1.44464e-06
5.73109e-05
0.00369216
9.47594e-07
0.0040393
1.84257e-06
0.0011703
1.55716e-06
1.58976e-06
0.00866939
1.60118e-06
1.43458e-06
0.00338839
0.000904596
0.00653726
1.67746e-06
6.59773e-05
1.19772e-06
1.79748e-06
1.89665e-06
0.00701835
7.81169e-07
0.00682747
9.02155e-07
9.18353e-07
0.00775747
5.16224e-07
0.00198312
1.4535e-06
8.64344e-07
1.18046e-06
8.7626e-07
1.56373e-06
4.24316e-07
1.50836e-06
0.000170972
9.30525e-07
0.000168188
0.00652381
1.90582e-06
0.00573053
1.54114e-06
8.76322e-07
5.3143e-07
1.17623e-06
8.69104e-07
2.51537e-06
1.623e-06
8.04355e-07
1.13312e-06
5.71611e-07
0.00477298
0.00558451
1.66057e-06
0.00411209
0.000338809
1.13609e-06
7.75049e-05
1.5523e-06
9.35516e-07
0.000126633
1.46429e-06
0.000270678
1.09427e-06
6.89361e-05
0.000215702
0.00701506
7.02999e-07
0.00277311
1.53592e-06
1.56357e-06
4.25639e-07
7.07768e-07
0.00810553
9.4302e-06
0.000678308
7.54952e-07
1.35737e-06
0.000662342
1.35862e-06
0.00158679
0.000158484
0.00428253
0.00124426
8.61091e-05
6.23535e-07
1.23596e-06
1.59481e-06
1.06717e-06
1.63929e-06
5.23046e-06
1.69802e-06
1.62585e-06
9.45205e-07
0.00668215
7.99516e-07
0.00438675
0.00203337
0.000811729
3.42137e-05
1.60899e-06
5.00013e-07
1.11383e-06
0.000154865
0.000173112
7.00922e-07
1.24693e-06
7.49191e-07
2.44653e-06
4.70316e-07
7.47241e-07
1.51643e-06
1.64975e-06
0.00137879
1.45543e-06
1.30691e-06
1.02492e-06
1.98058e-06
0.00257729
1.64327e-06
0.0118359
0.00301519
2.5544e-06
4.82771e-07
1.82743e-06
1.27696e-06
5.46034e-07
1.11068e-06
0.00550566
3.96623e-06
0.000113475
1.65132e-06
9.67352e-06
1.33489e-06
5.25298e-07
1.20491e-06
3.5052e-05
0.00153275
4.1562e-07
1.64173e-06
1.66609e-06
0.00526554
9.99724e-07
0.00287026
4.07604e-07
0.012938
2.24513e-06
0.00502055
2.83976e-06
2.51031e-06
0.000719046
0.00454322
8.52266e-05
0.00603937
6.21068e-07
1.15787e-05
4.67658e-07
1.3971e-06
1.64193e-06
1.40574e-06
0.00467767
1.52348e-06
1.56907e-06
0.000154222
7.28142e-06
0.000701209
1.49058e-06
1.56273e-06
1.38642e-06
5.04737e-07
1.2618e-06
0.00178324
0.000207934
0.00163546
1.04881e-06
1.60385e-06
9.60158e-07
0.000417905
0.00410436
1.57406e-06
4.97544e-07
1.62729e-06
0.00835728
1.7051e-06
0.00343986
0.00384831
1.19567e-06
4.79995e-07
0.0027983
1.2509e-06
1.7566e-06
1.58755e-06
0.00546352
0.000135038
4.0116e-06
6.75816e-05
1.20529e-06
1.06238e-06
1.33814e-06
0.00678709
1.53342e-06
0.00465192
9.58874e-06
1.63209e-06
5.5023e-06
1.47633e-06
0.00547979
0.000279337
5.00037e-07
2.65706e-05
0.004876
5.70775e-05
0.0046056
1.24063e-06
1.23926e-06
0.00630259
0.00279473
0.00719117
1.30946e-06
1.58303e-06
1.29642e-06
0.00475597
5.2621e-06
1.49867e-06
1.42906e-06
2.55402e-06
0.015507
0.0026155
0.000371996
1.52117e-06
0.00470136
1.56742e-06
1.0611e-06
5.28479e-06
0.00715143
1.59466e-06
8.90824e-07
0.00367381
0.00518494
5.09291e-07
1.03411e-06
0.00682328
4.90055e-07
3.51419e-05
1.05829e-06
0.000417243
1.22314e-06
1.96119e-06
0.00185853
0.00416837
1.50646e-06
0.00669437
0.000215694
0.00587423
0.00185152
0.0119744
1.22403e-06
1.19772e-06
0.00267363
1.03768e-06
1.50965e-06
5.01897e-07
0.000269028
1.08382e-06
0.000595392
8.9708e-07
7.69018e-07
0.00539077
2.01936e-06
0.00238964
1.43693e-06
5.8313e-07
8.56058e-07
1.69018e-06
0.00289189
0.00862252
8.65543e-07
2.16713e-06
0.000106003
1.19005e-06
7.03304e-07
0.00459798
1.67968e-06
1.52404e-06
4.49686e-06
0.00464789
0.00154464
0.00252305
0.00430013
1.44764e-06
3.96888e-05
0.000150389
0.00462439
2.15654e-06
4.33296e-07
4.27075e-06
1.18105e-06
1.10228e-06
0.00756577
0.00473353
1.26426e-06
0.011425
1.21073e-05
0.00461391
2.27314e-06
1.55178e-06
1.14985e-06
2.07734e-05
5.89503e-07
5.71809e-07
1.51066e-06
0.00514469
0.00423683
0.00271793
0.00533749
1.50668e-06
0.00611822
0.00548427
1.67914e-06
1.263e-06
9.90201e-07
5.7171e-05
1.04528e-06
0.000269334
1.22043e-06
1.51651e-06
1.26971e-06
0.00273789
0.00661982
0.00930978
1.11082e-06
0.00299605
1.36395e-06
1.39536e-06
1.07173e-06
5.00787e-07
0.00473153
1.44956e-06
0.00504813
0.00164974
1.16934e-06
3.7836e-06
1.627e-06
1.56236e-06
1.27239e-06
5.15269e-06
8.38499e-07
1.45015e-06
1.10849e-06
1.08572e-06
6.44809e-06
1.53735e-06
1.56514e-06
5.70577e-07
1.56547e-06
5.07551e-05
0.00667405
9.66755e-07
1.83679e-06
5.64942e-07
1.58103e-06
5.11103e-07
0.0037452
8.8054e-06
1.70028e-06
1.58921e-06
1.49629e-06
1.05346e-06
1.13291e-06
3.14967e-06
1.58982e-06
7.65634e-07
8.03485e-07
0.00450452
1.5666e-06
1.13704e-06
1.00962e-06
5.69816e-07
2.19315e-06
0.00421226
0.00196249
1.69493e-06
1.35611e-06
5.36916e-07
4.31173e-07
8.16641e-07
2.21556e-05
0.00573945
5.17515e-07
1.39683e-06
2.65588e-06
0.00323072
1.52984e-06
1.51216e-06
0.00570948
1.47661e-06
8.66854e-07
0.000405659
0.00678015
1.2164e-06
5.3042e-07
1.27196e-06
0.00621441
4.49138e-06
1.67447e-06
3.8647e-06
0.00995463
1.57973e-06
0.00619582
0.00343092
1.11603e-06
0.00294494
2.55232e-06
1.38835e-06
0.00506885
1.47025e-06
9.17432e-07
6.98177e-07
6.55134e-06
9.99141e-07
6.59419e-06
1.4275e-06
1.64694e-06
1.71633e-06
0.000193526
0.00065949
0.00644461
9.10467e-05
1.57427e-06
4.53677e-06
4.58304e-06
0.00600592
2.17588e-06
6.1302e-05
1.0539e-06
1.01192e-06
7.12053e-07
0.000147028
1.46296e-06
1.26762e-06
0.00808271
1.36159e-05
1.57989e-06
7.86827e-07
4.18813e-07
5.57028e-07
1.75549e-06
1.56449e-06
0.000718968
2.14861e-06
2.03124e-06
1.84216e-06
3.6792e-06
0.0046128
1.66441e-06
0.00628553
9.62328e-07
8.24672e-07
8.43981e-05
0.0118972
0.00617444
5.98481e-06
8.14296e-07
0.00506188
0.00010016
7.62404e-07
1.62394e-06
9.59527e-07
1.77782e-06
2.2727e-06
2.80307e-07
0.00503768
0.00049642
1.52092e-06
0.00425558
0.0063642
1.52603e-06
2.19823e-06
0.0101123
0.00564743
1.56503e-06
2.41428e-06
4.1921e-07
1.32763e-06
5.7815e-07
1.41919e-06
0.0063818
0.00366331
0.00470031
0.00454136
1.6055e-06
1.48258e-06
1.745e-06
5.07143e-07
1.10919e-06
7.16108e-07
0.00410355
1.01492e-06
0.00564319
1.48449e-06
1.4283e-06
4.36954e-06
0.00012346
0.00535997
0.00345653
1.76603e-06
4.57213e-07
5.54569e-07
0.00302629
0.00186401
1.55498e-06
9.32296e-07
6.70862e-07
1.9901e-06
1.53492e-06
5.41942e-06
0.00873441
1.63422e-06
7.00588e-07
4.00199e-06
4.05611e-07
0.00692838
0.000812006
1.03845e-06
2.27241e-06
1.11286e-06
0.00689192
4.72776e-07
0.00609741
5.03407e-07
1.63825e-06
1.25516e-06
1.55761e-06
1.55244e-06
1.6165e-06
1.82743e-06
0.00603851
0.00423585
1.54896e-06
1.55847e-06
1.15503e-06
0.00324912
0.00753356
8.18877e-07
4.91518e-07
0.000123389
4.38463e-07
0.00592531
5.08112e-07
1.3323e-06
2.08469e-06
9.32439e-06
1.45968e-06
1.06276e-06
1.63084e-06
2.29353e-06
0.00521459
1.19086e-06
0.00012381
0.0130895
0.000740215
9.26865e-05
1.4614e-06
0.00439179
1.68287e-06
0.000385829
1.34334e-06
9.13283e-05
9.92291e-05
0.00753237
0.00786217
0.00883044
5.14306e-07
1.32029e-06
8.79289e-07
0.00831733
0.000136959
0.00496946
0.0055878
1.44147e-06
0.00493955
0.000492343
1.47554e-06
1.2632e-06
1.53953e-06
0.00528235
1.44417e-06
2.28542e-06
1.09547e-06
1.1917e-06
8.4363e-07
1.31861e-06
0.00386832
0.000129926
1.51801e-06
0.00898718
0.00213228
5.14098e-07
1.34755e-06
6.85852e-07
1.03374e-06
0.00602513
0.000190004
1.40808e-06
1.41591e-06
0.00138201
2.26376e-06
1.79114e-06
0.00600912
1.50753e-06
0.00607069
1.71309e-06
1.29271e-06
1.34064e-06
1.09609e-06
2.23602e-06
0.000165426
8.74556e-05
0.00530865
2.11529e-06
0.0229152
8.64838e-07
1.52645e-06
6.23216e-07
0.00501737
0.0131429
0.000463654
1.58513e-06
1.55219e-06
1.34987e-06
9.52018e-07
1.57928e-06
7.20547e-07
0.00625377
1.51377e-06
0.00616477
1.47627e-06
0.00413009
0.00215487
0.00583545
9.96834e-07
1.62011e-06
0.0070918
1.52366e-06
0.00430601
0.00565196
8.12733e-07
2.60506e-06
1.55438e-06
0.0122659
0.00652858
1.49543e-06
1.55413e-06
0.000119531
9.80131e-07
1.55579e-06
1.65961e-06
0.0174715
0.000144948
1.52473e-06
1.60946e-06
0.000107681
0.000134269
4.49555e-06
0.000389989
4.28903e-06
1.04222e-06
7.96336e-07
0.00148524
0.00567354
2.24467e-06
1.6815e-06
0.00393854
0.00711225
8.8563e-07
1.46842e-06
1.52733e-06
0.00500877
0.00447847
1.42373e-06
0.00544708
1.56791e-06
9.92534e-07
1.25402e-06
0.00520595
0.000546117
6.77566e-07
0.00618049
1.26846e-06
1.44013e-06
1.0175e-06
0.0122361
1.20732e-06
0.0231102
1.13486e-06
0.00199802
1.61572e-06
1.17452e-06
4.06912e-06
0.00619027
0.00011887
1.53646e-06
0.00420478
4.15671e-07
1.4092e-06
1.47091e-06
1.70747e-06
2.10543e-06
2.11414e-06
1.40375e-06
0.00480732
1.56467e-06
4.57216e-06
0.000402156
0.0036631
8.95948e-07
0.00503233
0.00517494
1.67788e-06
0.000175393
2.20224e-06
0.00873519
1.42257e-06
1.99649e-06
8.08286e-07
0.00417188
0.00770386
1.12195e-06
0.00573647
1.25907e-06
1.92808e-06
1.26264e-06
0.00513682
4.65632e-07
9.45948e-07
0.000101084
2.50956e-06
0.0103999
0.00279264
2.18575e-06
1.53088e-06
6.9346e-07
0.00220237
1.24279e-06
5.77165e-07
5.43485e-06
4.2279e-07
1.78211e-06
1.33186e-06
0.000436638
1.16626e-06
7.1663e-05
6.80164e-05
1.23574e-06
1.58651e-05
1.77881e-06
0.00696752
1.07238e-06
0.00197058
0.00351693
7.93506e-07
1.37664e-06
1.3835e-06
1.60915e-06
1.64863e-06
9.59331e-07
6.74323e-05
2.42367e-06
1.58508e-05
1.71836e-06
1.11838e-06
1.47753e-06
6.67161e-07
0.00377833
1.41198e-06
1.137e-06
0.000319236
1.62736e-06
0.00219476
0.00562624
2.78677e-06
1.13759e-06
1.54281e-06
1.42376e-06
1.5581e-06
1.10166e-06
4.96041e-07
1.61616e-06
0.0039812
0.00629775
0.00114086
1.41383e-06
0.00588047
0.000851632
1.63024e-06
5.9072e-06
0.00441224
1.44603e-06
1.59144e-06
1.43063e-06
0.00422207
0.0124856
4.54657e-05
4.93242e-07
1.50144e-06
9.43499e-07
1.58985e-06
4.47646e-06
1.19467e-06
8.52483e-07
0.00410262
0.00596723
7.89385e-07
1.59061e-06
1.65481e-06
0.0179648
4.14872e-07
0.0106054
0.00469462
1.80865e-06
0.000829164
0.00391568
0.00422663
9.7582e-07
0.000155538
0.000196863
1.61617e-06
6.9133e-07
9.58312e-07
0.00560618
0.00534665
0.00723554
5.45782e-07
0.0062371
1.40148e-06
5.54109e-06
5.9119e-07
1.38394e-06
1.58554e-06
7.87362e-07
0.0142108
1.64824e-06
0.00750268
0.00735945
0.0099521
1.71367e-06
1.97259e-06
0.0119197
0.00506936
9.07944e-07
0.00553822
6.75092e-07
4.47691e-07
1.35181e-06
1.12521e-06
6.04465e-07
0.00628734
1.22121e-06
2.48323e-06
1.42051e-06
0.00426673
0.00787652
1.31096e-06
7.79665e-07
1.76276e-06
2.18232e-06
0.0141112
8.85246e-07
4.17135e-07
1.24022e-06
0.00790417
1.00456e-06
3.5255e-05
0.00575916
1.75815e-06
1.9391e-06
9.03392e-07
9.80407e-05
1.52593e-06
0.00617099
6.33274e-07
0.00481275
1.70939e-06
1.46623e-06
0.00610001
0.00854545
5.94076e-07
2.21857e-06
1.43746e-06
0.00663823
5.03754e-07
0.000347438
7.87616e-07
1.48146e-06
1.75216e-06
0.00371676
5.98116e-07
1.08109e-06
9.35041e-07
2.44566e-06
1.67877e-06
0.00508927
0.00406985
1.45012e-06
0.00511468
1.51295e-06
1.74873e-06
0.0040219
0.00571717
1.43706e-06
0.00446798
0.000304409
1.62372e-06
3.13299e-05
4.32456e-06
1.67009e-06
1.62453e-06
0.00397752
5.9975e-07
0.0100329
1.07411e-07
3.32503e-06
1.48351e-06
1.29261e-06
0.00472132
1.75899e-06
0.00456225
1.54253e-06
1.49867e-06
2.53638e-05
0.00380717
1.6689e-06
0.00528418
0.000553871
0.00672903
1.21731e-06
0.00372757
0.0026129
0.0154156
1.50831e-06
5.51215e-07
1.00335e-06
0.00561464
8.05838e-07
0.000117975
1.60212e-05
1.44855e-06
5.37712e-07
1.46876e-06
0.0159736
0.0032852
0.0089799
0.00855062
1.02055e-06
0.00366792
0.00487662
4.55784e-06
0.00531801
0.00460973
1.38757e-06
0.0103278
1.58865e-06
1.66706e-06
0.00395073
0.00310334
5.00054e-07
0.0122647
1.12237e-06
1.42981e-06
0.013891
0.0041787
0.00611166
0.00849158
1.49178e-06
1.47466e-06
1.19101e-06
0.00513305
0.00784504
1.21447e-06
1.89583e-06
0.000147018
1.48435e-06
1.36078e-06
0.00405319
0.0144533
1.38747e-06
1.56143e-06
1.61037e-06
1.26753e-06
0.000671145
1.59766e-06
8.0532e-07
1.41857e-06
3.94301e-06
0.0197794
1.91295e-06
0.00427373
1.44256e-06
1.36687e-06
0.00445904
0.00502379
1.37307e-06
0.00013211
1.45579e-06
1.65618e-06
1.06604e-06
5.05425e-07
2.00565e-06
8.18612e-07
0.000641374
1.44758e-06
7.84382e-07
1.36032e-06
0.00293254
0.00337067
0.00472719
1.48782e-06
1.42829e-06
0.00533283
0.000171837
1.57871e-06
8.83233e-07
1.62458e-06
4.62036e-05
1.35213e-06
8.00555e-07
1.52321e-06
1.36341e-06
0.00460721
2.92165e-06
1.44463e-06
1.46126e-06
4.88515e-07
1.21113e-06
0.00182163
0.000106138
2.26054e-06
0.00566765
1.534e-06
1.48748e-06
1.42836e-06
1.44684e-06
1.00996e-06
1.47711e-06
1.19549e-06
2.07986e-06
0.00397306
9.42692e-07
3.51173e-06
0.00459628
6.61884e-07
1.12406e-06
9.55928e-07
1.6153e-06
0.0136472
1.00599e-06
0.00131231
0.00072864
1.40015e-06
6.72604e-07
0.00628818
4.6425e-07
7.35685e-07
6.04847e-07
4.67431e-07
1.01303e-06
7.24132e-07
1.08239e-06
0.00296256
9.41326e-06
1.63512e-06
0.00103758
1.17314e-05
0.000614471
1.66793e-06
0.00426687
0.005779
3.43526e-06
0.00802155
0.00421744
3.74249e-06
2.29873e-05
1.57978e-06
5.97827e-07
0.00301603
1.00538e-06
1.4776e-06
0.0112941
8.98431e-07
0.00227548
4.43923e-06
8.23802e-07
5.72451e-07
1.35612e-06
4.28878e-07
5.86773e-07
8.72917e-06
0.0102458
0.00394663
0.000659805
1.32142e-06
5.99797e-07
2.31127e-06
0.00872447
0.00474528
3.66065e-06
0.00143002
9.53767e-07
0.00203245
0.00580325
6.98058e-05
1.3115e-06
1.32424e-06
4.15813e-07
1.2522e-06
1.11565e-06
1.06655e-06
1.47404e-06
0.00452718
2.40937e-06
0.00488432
0.000114903
0.00191075
7.08061e-06
1.34057e-06
6.09509e-07
7.5168e-07
6.08201e-07
1.57664e-06
6.58544e-05
0.00445718
0.000278335
0.00618422
1.64534e-06
0.00895198
5.38712e-06
0.00535322
0.0056301
1.20877e-06
7.41767e-07
0.00011843
1.28856e-06
5.95417e-07
0.000257753
0.00467623
0.0024412
1.3681e-06
1.39391e-06
8.58931e-07
1.59825e-06
0.00306748
6.79448e-07
1.18602e-06
0.000724378
4.24502e-07
0.000127251
1.58801e-06
0.0096097
1.49112e-06
0.000455682
0.00782243
1.48916e-06
0.00497128
3.66475e-06
0.00519646
4.73569e-07
1.40286e-06
8.7645e-07
1.49623e-06
0.00466853
5.66124e-07
0.00423813
7.50941e-07
8.45819e-07
1.58561e-06
0.0060356
1.79914e-06
3.62566e-06
0.000289835
6.76562e-07
1.57747e-06
0.00553358
1.77141e-06
5.95997e-07
9.77887e-07
1.25594e-06
1.45742e-06
8.87571e-07
7.73127e-07
0.00657228
0.00610737
0.00564982
0.00015315
0.000855085
0.00779919
2.30295e-06
0.00653027
4.55076e-06
4.69579e-07
5.19345e-07
4.41365e-07
1.22983e-06
0.00529654
0.00517761
5.27391e-07
0.00386838
0.00643357
1.69674e-06
9.34034e-07
1.61768e-06
0.00433375
0.00389345
0.00466615
0.000520474
0.00481206
4.38629e-07
0.000339317
3.11642e-06
5.47075e-05
0.00418438
1.39686e-06
4.43502e-06
0.00628523
1.46871e-06
0.00736005
1.21624e-06
1.15275e-05
0.00696626
0.00567247
2.41771e-06
1.52801e-06
0.00552324
4.45541e-06
0.00590671
0.0058208
0.00453481
3.73801e-06
0.00345277
1.38774e-06
1.00782e-06
1.8375e-06
0.0054932
9.89401e-05
0.00537843
7.66425e-07
3.62937e-06
2.03176e-06
7.92178e-07
0.0043804
1.43819e-06
4.53412e-06
0.0048915
1.4669e-06
0.00925258
0.0119203
0.00600732
0.00391584
0.00149488
6.73195e-05
9.26138e-07
0.00545461
7.43516e-07
6.30936e-07
1.73866e-06
1.5137e-06
0.00539543
1.55042e-06
1.50153e-06
1.49066e-06
7.32797e-07
0.00371662
1.40051e-06
3.84333e-06
1.90838e-05
8.02286e-07
0.00590538
3.13278e-06
9.23658e-07
0.00577927
0.000350588
1.4793e-06
0.00065904
1.47321e-06
0.00632619
0.000219481
5.25494e-07
3.83581e-06
1.41001e-06
0.00578196
0.00493885
2.29801e-06
0.0014859
1.15555e-06
1.6285e-06
0.0115979
1.62748e-06
9.91035e-07
0.00236268
1.83348e-06
9.69922e-07
7.87905e-07
4.53568e-06
1.3737e-06
0.00471161
0.000364169
4.27149e-07
0.00856665
1.98195e-06
1.97464e-06
9.21043e-07
0.00594235
0.00705138
0.012167
1.50979e-06
5.33683e-07
2.25729e-06
1.4794e-06
0.000229197
9.95581e-07
0.000125578
8.84784e-07
5.82296e-06
7.90195e-07
4.00684e-06
3.31251e-05
3.76327e-06
0.00574119
0.00180344
0.00427562
0.0047984
4.48892e-07
0.00129617
0.00165259
0.00573429
6.77606e-07
7.2844e-05
0.00655263
0.00886884
3.82796e-06
0.00102182
0.000442825
0.00627378
1.88913e-06
0.000288027
7.81307e-07
1.8483e-06
1.84789e-06
1.39866e-06
2.27968e-06
0.00966208
7.37879e-07
0.00954506
0.00182318
1.21124e-06
8.69927e-07
1.12651e-06
1.40109e-06
0.000815189
6.89814e-07
8.26456e-07
0.0068146
9.61815e-05
1.34154e-06
3.17306e-06
8.12736e-07
2.42712e-06
0.00608701
0.00524336
0.00609199
1.67055e-06
0.0051017
1.03997e-06
6.32592e-07
1.64185e-06
0.00458353
0.000173872
0.000302035
0.000112944
1.52735e-06
8.20044e-07
1.39338e-06
1.59112e-06
1.61424e-06
0.00872836
0.00187085
1.5223e-06
0.00453355
0.0046789
0.000236882
0.0089006
1.44673e-06
1.58077e-06
2.11302e-06
1.47839e-06
5.50554e-07
1.54357e-06
1.53909e-06
0.00480187
0.00531887
6.81563e-07
1.819e-06
1.54082e-06
2.06848e-06
0.0171871
0.00667046
0.0061267
9.92565e-07
2.61708e-06
0.00604347
2.57698e-06
3.82695e-06
0.000199261
0.00410814
0.00650493
0.00661842
6.91453e-07
0.00325623
5.38988e-07
1.14339e-06
1.33849e-06
1.95584e-06
0.00638634
0.00667357
0.000122462
0.00866966
1.89033e-06
5.81866e-07
9.4209e-07
1.37882e-06
1.08361e-06
1.78084e-06
0.00644832
0.00658086
2.46066e-06
0.000635535
1.21625e-06
1.87464e-06
8.27344e-07
0.005952
1.73764e-06
9.90997e-07
5.97049e-06
3.20146e-06
0.00164096
0.00547391
4.47565e-06
0.00534882
1.44108e-06
0.0133746
0.000192133
0.00391042
0.000153431
1.04107e-06
1.85811e-06
1.39819e-06
0.00393502
0.00620651
1.66847e-06
0.0159405
0.000183877
0.00900933
2.04885e-06
7.24278e-06
1.42907e-06
1.00901e-06
3.98323e-06
1.83929e-06
1.5385e-06
1.84353e-06
1.56124e-06
1.54324e-06
0.00602917
6.48867e-06
1.32085e-06
1.49065e-06
1.6679e-06
1.45552e-06
9.32096e-07
0.00475754
3.54135e-06
4.92995e-06
0.0168982
1.37437e-06
0.00538603
1.60536e-06
1.19673e-06
1.37532e-06
0.00523265
1.52435e-06
0.00619724
0.00668443
1.92255e-06
1.37933e-06
3.89181e-06
0.00449754
4.73e-06
0.00125058
1.28884e-06
1.88121e-06
6.59501e-07
0.00580836
6.8809e-05
1.28261e-06
5.87613e-07
1.5065e-06
1.59945e-06
1.42791e-06
1.92194e-06
1.80953e-06
1.41634e-06
1.45335e-06
0.00480608
0.0103789
2.29415e-06
1.74836e-06
4.5396e-07
0.00651641
1.66793e-06
2.17067e-06
0.00141047
1.85788e-06
0.00209272
6.01248e-07
1.60132e-06
1.17396e-06
1.43937e-06
1.18059e-06
0.00587364
7.17768e-06
0.00282627
1.4793e-06
0.00469591
0.000111862
1.61042e-06
0.00468154
2.19559e-06
8.59293e-05
0.0105954
1.43007e-06
1.51214e-06
1.82424e-06
2.0766e-06
1.02711e-06
0.000758368
0.00583541
0.000117308
1.00974e-06
0.000134489
0.000539338
0.000849144
1.32412e-06
1.77949e-06
7.98768e-07
1.49967e-06
0.00365831
1.50489e-06
1.53126e-06
9.71509e-07
9.60012e-07
0.000591284
0.00444709
1.0702e-06
0.00116743
6.769e-05
5.829e-07
6.51872e-07
0.00588357
3.6511e-06
3.22903e-06
1.4133e-06
1.53389e-06
2.99014e-06
6.33412e-07
9.79695e-07
0.0164324
1.5591e-06
0.00579766
2.61394e-06
1.57815e-06
0.00630842
3.70047e-06
6.02636e-06
1.00801e-06
0.000235002
1.69201e-06
1.55463e-06
0.00328731
1.7468e-06
1.20522e-06
2.41662e-06
1.54239e-06
1.01773e-06
5.342e-07
0.00385087