/*--------------------------------*- C++ -*----------------------------------*\
| =========                 |                                                 |
| \\      /  F ield         | OpenFOAM: The Open Source CFD Toolbox           |
|  \\    /   O peration     | Version:  v2012                                 |
|   \\  /    A nd           | Website:  www.openfoam.com                      |
|    \\/     M anipulation  |                                                 |
\*---------------------------------------------------------------------------*/
FoamFile
{
    version     2.0;
    format      ascii;
    class       volVectorField;
    location    "200";
    object      U_0;
}
// * * * * * * * * * * * * * * * * * * * * * * * * * * * * * * * * * * * * * //

dimensions      [0 1 -1 0 0 0 0];


internalField   nonuniform List<vector> 
13851
(
(1.01792 -0.00731063 0)
(0.597478 0.160457 5.42226e-22)
(1.04939 -0.041225 7.32112e-21)
(1.01798 -0.00681302 0)
(1.05791 -0.0413297 0)
(1.06053 -0.0123699 0)
(1.02693 -0.000181489 0)
(1.04583 -0.0348283 8.18858e-21)
(1.01123 -0.000695992 5.94515e-23)
(1.04109 -0.0590571 -6.50756e-21)
(0.960456 -0.0665353 0)
(0.646961 -0.114569 -1.49844e-20)
(0.955512 -0.0767518 -1.0291e-20)
(0.197486 -0.015618 -3.14391e-20)
(1.01786 -0.000194787 8.44096e-24)
(1.03012 -0.0276869 -9.03285e-24)
(1.0371 -0.0171574 3.30435e-21)
(1.02268 -0.0152259 -7.59782e-22)
(1.01728 -0.0726159 -9.29101e-21)
(1.01111 -0.000706204 -1.31767e-22)
(1.01797 -0.00682794 1.32756e-22)
(1.04957 -0.0406439 2.34973e-21)
(1.00848 -2.63368e-05 8.80539e-23)
(1.00901 -0.000122799 -1.61824e-24)
(1.00757 -5.07586e-05 0)
(1.04497 -0.0355218 -8.37866e-22)
(1.04405 -0.0113516 0)
(0.00147763 -0.0825351 2.28168e-20)
(1.01802 -0.00753712 1.20352e-23)
(1.02427 -0.0139606 -7.17822e-22)
(1.0687 -0.0263031 0)
(1.03755 -0.017945 0)
(1.0488 -0.0414951 -1.26295e-20)
(0.883486 -0.152286 0)
(1.0096 -0.000115888 7.75104e-24)
(1.0864 -0.0294885 -1.02812e-20)
(1.06731 -0.0302479 -5.45507e-20)
(1.03755 -0.0439656 0)
(1.04404 -0.0612495 2.58058e-21)
(0.889404 -0.158287 8.35183e-22)
(1.01643 -0.00498297 2.67218e-22)
(1.01065 0.000353049 -5.93204e-23)
(0.0186734 0.118358 4.94106e-20)
(0.91235 -0.0392106 0)
(0.88897 -0.0705234 0)
(0.237519 -0.17071 -3.10009e-21)
(0.857241 -0.0184373 -6.72578e-22)
(0.815627 0.107389 6.22455e-23)
(1.04483 -0.0116991 -1.29944e-20)
(1.00023 0.00400797 -1.95175e-21)
(1.0692 -0.0343824 3.13971e-20)
(1.0743 -0.0467419 2.78538e-20)
(-0.0317369 -0.0184031 0)
(1.01838 -0.000245487 -3.63475e-21)
(1.01434 -0.00051322 0)
(1.01083 0.00037613 0)
(1.00938 -5.86242e-05 4.28026e-24)
(-0.0469035 -0.0494013 -4.34196e-20)
(1.02412 -0.0135712 -1.24496e-21)
(1.02787 -0.00216886 -2.92321e-21)
(1.03432 -0.0406771 0)
(0.519599 -0.116435 4.45323e-22)
(1.02013 -0.0347104 6.38242e-22)
(1.06036 -0.0441523 9.80204e-22)
(0.967787 0.0511363 6.07423e-21)
(1.01779 -0.00630445 -4.21338e-22)
(1.04647 -0.0303179 0)
(0.855037 0.0328815 -4.97893e-22)
(1.05574 -0.0219582 7.55564e-22)
(1.02226 -0.0153057 3.25912e-22)
(0.544487 -0.000780102 4.66303e-20)
(0.99959 -0.03033 0)
(0.606913 0.15968 -3.7484e-21)
(1.0183 -0.000288806 3.23367e-21)
(1.01326 -0.000789342 7.33119e-22)
(1.01298 -0.000878851 1.62887e-22)
(1.04963 -0.040284 0)
(0.634209 -0.00973331 4.66137e-20)
(1.05508 -0.0319173 -1.5382e-20)
(0.539033 -0.00347964 1.05636e-20)
(1.03063 -0.00503462 -6.73506e-21)
(0.871333 0.0805053 1.72272e-22)
(1.01995 -0.00283547 -7.07144e-21)
(0.203376 -0.0576301 0)
(1.02446 -0.035745 -6.8394e-22)
(0.689038 -0.126679 1.24535e-20)
(1.03616 -0.0184904 -4.8805e-22)
(0.723102 -0.103761 -1.44318e-20)
(1.04247 -0.016287 0)
(1.01491 0.000113898 0)
(1.08586 -0.0298799 0)
(1.01335 0.00660466 0)
(0.857739 0.0670873 -6.82764e-22)
(1.0462 -0.0193166 0)
(1.04276 -0.0156111 4.48521e-21)
(1.00868 -5.92944e-05 -4.74043e-23)
(1.05899 -0.0419322 0)
(0.754056 -0.104607 3.72818e-20)
(0.997047 0.00687575 1.82951e-21)
(1.00782 5.57853e-07 0)
(0.00963621 -0.12208 1.02158e-20)
(1.06048 -0.0306906 -8.79935e-21)
(1.01941 -0.00872654 0)
(1.04802 -0.00495705 1.91828e-21)
(1.00866 3.10993e-05 0)
(1.0246 -0.028163 4.7259e-22)
(1.06339 -0.0315959 0)
(1.01006 0.000285601 3.57793e-23)
(0.933465 -0.0291753 0)
(1.06301 -0.00131791 9.09391e-22)
(1.00801 -2.90844e-05 -6.20679e-23)
(1.01522 0.000144049 0)
(1.01491 0.00518796 -7.7712e-23)
(1.00396 2.51614e-05 0)
(1.00885 -4.18297e-05 0)
(0.814529 0.173694 1.30892e-21)
(0.768988 -0.103051 -9.62591e-21)
(1.00919 0.000219561 0)
(1.01031 -0.000205883 -3.0231e-23)
(1.01335 -0.000422861 8.08943e-22)
(0.00554669 0.130987 1.44992e-21)
(1.04727 -0.00538034 -2.98706e-21)
(0.934382 -0.0810401 0)
(0.835608 0.138287 -3.79903e-21)
(0.836902 0.104252 -6.70166e-23)
(1.01735 -0.000516076 1.44485e-22)
(0.851599 0.123775 -7.2478e-22)
(1.05764 -0.0314563 2.51619e-21)
(1.01793 -0.00654193 7.53653e-23)
(1.05357 -0.0511599 -1.44789e-20)
(1.01628 -0.00481947 7.55579e-22)
(1.01044 -0.000912215 1.21026e-22)
(0.563859 -0.00403234 -3.22549e-20)
(1.01989 -0.00262624 5.64959e-21)
(0.810807 0.166602 2.19238e-21)
(1.01056 -0.000408376 3.57765e-22)
(1.0091 0.000201041 1.11677e-22)
(1.00562 -0.0311029 4.10895e-21)
(0.0820739 0.0162658 0)
(0.429004 0.211978 7.79529e-21)
(-0.0296307 -0.131651 3.28802e-22)
(1.0143 -0.000462626 -1.41316e-21)
(1.0166 -0.000223833 6.20003e-22)
(1.01309 0.00043748 0)
(1.03103 -0.0136885 -1.67617e-21)
(0.913045 -0.00360016 6.27789e-21)
(1.02133 0.00546173 -2.82995e-22)
(1.05156 -0.050595 2.18586e-20)
(1.02635 -0.000225857 6.97085e-21)
(0.885391 -0.0958251 2.36398e-21)
(1.07744 -0.0245837 -3.65511e-20)
(1.01346 -0.00053207 -1.411e-21)
(0.206562 -0.0333766 -3.71006e-20)
(1.00943 -5.90959e-05 -2.3424e-22)
(1.03631 -0.0104883 0)
(1.03044 -0.0135186 6.70502e-21)
(1.01311 -0.0023694 0)
(1.02499 -0.0127702 2.75084e-21)
(1.07311 -0.0480158 -2.77528e-20)
(1.06805 -0.0345354 -2.93458e-20)
(1.01293 0.000589999 -5.76334e-25)
(1.05108 -0.016035 0)
(-0.0472894 -0.0457401 2.39558e-20)
(1.01034 -0.00086352 -1.33809e-22)
(1.02428 -0.0174803 0)
(1.01185 0.000391808 -1.82954e-22)
(1.02109 0.00701524 2.7391e-22)
(1.05676 -0.0219116 4.14849e-22)
(1.01787 -0.00652556 0)
(0.674854 -0.163652 0)
(0.619193 -0.00689357 -5.56842e-20)
(1.00925 -0.000190459 0)
(1.01322 -0.0024788 6.94435e-22)
(0.410989 0.213206 -8.67848e-21)
(1.01017 -0.000788691 0)
(0.806762 0.0748209 6.30978e-22)
(1.05664 -0.0312487 7.6122e-21)
(1.01578 -0.00124016 0)
(1.00856 -0.0748669 -1.72353e-20)
(1.01062 0.000342139 0)
(1.03749 -0.0193384 -4.01807e-21)
(0.985474 -0.030266 0)
(1.0197 -0.0021712 0)
(1.04996 -0.0409009 -5.1324e-21)
(1.00977 0.000161086 -5.48622e-25)
(1.00862 -7.70854e-05 0)
(1.01752 -0.00660329 0)
(1.0142 -0.000549117 -3.90203e-22)
(1.05577 -0.0438066 0)
(1.00201 -0.0549277 -1.2529e-21)
(0.858789 0.0212483 1.72162e-21)
(-0.0416878 -0.0234118 0)
(1.01598 0.000161083 -4.44964e-22)
(1.05308 -0.0238997 -3.13923e-21)
(0.544471 -0.0997407 -6.66844e-23)
(1.03508 -0.0103177 6.34297e-23)
(1.01641 -0.000460723 5.75895e-22)
(0.864255 -0.0802942 -7.20367e-22)
(1.01582 -0.00107733 0)
(1.01309 -0.000913246 -1.62796e-22)
(1.01762 -0.000408894 -1.4508e-22)
(0.445568 -0.255481 6.67686e-20)
(1.00823 -0.000112758 7.56478e-22)
(1.01759 -0.00369433 0)
(1.01937 -0.0516369 -3.61744e-22)
(1.02006 -0.0022879 -6.44717e-21)
(0.336523 0.108067 -2.03306e-21)
(1.03897 -0.0169786 7.4808e-21)
(0.649226 -0.0138051 -3.13191e-20)
(1.01153 0.000436383 -1.89852e-23)
(0.814197 -0.0320275 -3.51457e-20)
(1.01929 -0.00843283 0)
(0.848206 -0.0856731 -1.79539e-21)
(1.01032 0.000302115 -1.53329e-23)
(1.01271 0.000456376 0)
(0.985376 -0.0641477 2.92015e-22)
(1.03047 -0.0301602 -8.46645e-23)
(0.112647 -0.146792 3.33869e-21)
(1.01806 -0.000596759 4.42346e-21)
(0.660117 -0.0155784 3.10881e-20)
(1.039 -0.0175255 -1.37539e-20)
(1.03133 -0.00521518 9.56651e-21)
(0.830008 -0.0580923 0)
(1.06521 -0.0508234 -5.24568e-22)
(0.756346 -0.0246542 0)
(1.00753 1.31336e-05 2.07557e-22)
(1.04765 -0.0218586 0)
(1.00769 -3.92793e-06 3.3658e-23)
(-0.0844752 0.00843295 3.18084e-20)
(1.01052 0.000323094 6.66418e-23)
(1.04373 -0.0352831 -6.09526e-21)
(1.0537 0.032196 2.93937e-21)
(1.00905 -0.000169387 -5.16385e-23)
(1.01566 0.000102901 0)
(1.06894 -0.0309313 1.63213e-20)
(1.02743 -0.0109056 1.82477e-22)
(0.386244 0.0986889 7.08976e-21)
(0.934327 0.0553483 -7.37613e-21)
(1.01309 0.000456849 0)
(1.01784 -0.0037613 1.06122e-21)
(1.0598 -0.0352615 0)
(0.976007 0.0619951 0)
(1.01541 0.000969614 0)
(1.01883 -0.0549683 4.03247e-22)
(1.00959 5.8617e-05 -4.247e-23)
(0.720167 -0.0221687 3.16778e-20)
(1.06008 -0.0316469 0)
(0.857734 -0.156805 -1.99208e-21)
(1.02967 -0.0138801 3.35345e-21)
(1.03204 -0.0192813 0)
(1.021 -0.00643435 -4.19494e-22)
(0.971484 0.0748069 0)
(1.02727 -0.00824019 0)
(1.03026 -0.0140798 -1.74203e-21)
(1.06649 -0.0270473 -1.88328e-20)
(0.940899 -0.033543 0)
(1.00058 -0.0497421 1.0691e-21)
(0.993338 -0.0314503 -1.78624e-20)
(0.61284 -0.0096953 1.69785e-21)
(1.02011 -0.000247215 0)
(1.01273 0.000443498 0)
(1.02138 -0.0146193 0)
(0.922742 0.0377569 0)
(1.0145 0.000242377 -2.64251e-22)
(0.946277 -0.0793968 0)
(1.03464 -0.0104856 -1.24403e-20)
(1.02721 -0.00786059 -3.26568e-21)
(1.04596 -0.0187566 0)
(0.851173 -0.0591647 0)
(1.02483 -0.00810468 2.65905e-22)
(1.01998 -0.00717037 2.41627e-24)
(1.03582 -0.0107699 -1.26638e-20)
(1.05191 0.0175287 2.25929e-21)
(1.05463 -0.0308208 -1.49611e-20)
(1.02936 -0.0267202 -5.03265e-21)
(1.01054 -0.000987805 -2.79361e-22)
(0.863615 0.0659879 -7.58435e-23)
(1.00786 -0.00594785 -9.12199e-22)
(0.766521 -0.0236224 0)
(0.956864 -0.0785295 -1.61621e-21)
(1.01568 0.00101521 0)
(1.01123 0.000403848 0)
(1.00886 3.15988e-05 0)
(1.06592 -0.026329 6.29981e-21)
(0.912369 0.00870278 0)
(0.792036 0.0214051 2.02623e-21)
(1.01212 -0.000864498 1.86061e-22)
(1.0182 0.000312347 -1.13489e-21)
(1.05536 -0.00766198 -3.73885e-21)
(0.904961 0.0396266 -8.84182e-22)
(1.05035 -0.0527451 1.2839e-20)
(1.02434 -0.0133128 1.6302e-21)
(1.02813 -0.00250143 0)
(1.0557 -0.0246301 0)
(0.908785 0.0615924 5.16995e-22)
(0.96442 -0.0789854 1.66178e-20)
(1.0256 -0.0179642 0)
(0.685587 -0.131111 -1.09157e-21)
(1.01074 -0.00110612 -1.50626e-22)
(0.733705 -0.0236831 -3.0099e-20)
(1.05073 -0.015541 1.19765e-20)
(1.03622 -0.0171184 3.41974e-21)
(0.773956 -0.0252402 2.31344e-20)
(1.02011 -0.00744366 1.17212e-21)
(1.03057 -0.0282177 0)
(0.778231 -0.0366949 1.32672e-20)
(1.01188 -0.000841438 0)
(1.06242 -0.0249882 -9.31827e-21)
(1.04557 -0.019911 0)
(1.0241 -0.0129405 -7.45204e-22)
(0.0950358 -0.00871373 -2.28671e-21)
(1.02523 -0.0180933 -3.04456e-21)
(1.02604 -0.00819654 -5.87847e-21)
(0.810214 -0.0711863 1.18873e-20)
(1.01093 0.000375432 7.93602e-23)
(1.03253 -0.0198781 -1.66037e-21)
(1.01876 -0.000277206 -5.46575e-22)
(0.794055 -0.0250653 -2.02988e-20)
(1.08251 -0.029317 0)
(1.0183 -0.000667913 0)
(1.06314 -0.0296597 0)
(1.01847 -0.000269458 0)
(0.66013 -0.0207094 -1.48436e-20)
(1.02492 -0.00752276 -3.67272e-22)
(1.00867 -6.00646e-05 -4.73498e-23)
(1.0144 -0.00279283 1.22127e-22)
(1.08183 -0.0298066 0)
(1.04724 -0.0209082 -1.50389e-20)
(1.03686 -0.00956309 -7.89476e-21)
(1.01803 0.000367158 -1.11034e-21)
(1.02009 -0.00736123 0)
(1.02557 -0.00811064 5.08955e-21)
(0.934646 -0.069907 2.04873e-21)
(0.324301 -0.0430123 0)
(0.636034 -0.177761 4.07147e-20)
(1.01944 -0.0175272 1.35745e-22)
(0.800278 -0.0262497 -1.00304e-20)
(0.756511 -0.0313977 0)
(1.01783 -0.000169418 -1.84883e-21)
(1.05282 -0.0248296 -3.26844e-21)
(1.04851 -0.0521133 -1.29358e-20)
(1.0079 0.00478722 1.35872e-21)
(1.03556 -0.00571418 2.25666e-22)
(1.07442 -0.042798 0)
(1.00134 -0.0740995 5.18998e-21)
(1.01897 -0.000646599 0)
(0.791368 0.0336234 2.13701e-20)
(0.759638 -0.0293024 0)
(1.01796 -0.000134088 0)
(1.02677 0.0146621 -3.32433e-22)
(1.0308 0.0144831 2.99077e-22)
(0.998292 -0.0202593 0)
(1.03715 -0.0092526 7.97905e-21)
(1.03832 -0.00326506 -1.97309e-21)
(-0.0908827 -0.00293108 -3.88924e-20)
(1.01342 -0.00259128 -2.18911e-22)
(0.782768 -0.00085573 -1.20932e-20)
(1.01436 -0.00272485 7.34606e-23)
(1.01832 -0.000229543 1.0302e-21)
(1.00987 6.36203e-05 5.6503e-23)
(1.01023 0.000297316 -1.74573e-23)
(1.01264 -0.00217088 -2.71822e-22)
(0.781028 -0.0312792 4.16486e-20)
(0.878618 0.0671267 0)
(1.01954 -0.00498074 1.36131e-21)
(1.06187 -0.0240576 -8.25683e-22)
(1.01162 0.000433077 0)
(0.653521 -0.13619 0)
(1.02332 -0.0298374 -2.32302e-21)
(0.813797 0.0456294 -1.54858e-21)
(0.67101 -0.164881 -2.40312e-20)
(1.01956 -0.00518198 1.35514e-21)
(1.0345 -0.0321137 -1.83847e-22)
(1.04406 -0.0208409 -6.63561e-21)
(0.804631 0.0584868 -6.95091e-22)
(1.01562 -0.00430835 -4.26198e-22)
(1.00927 0.000228838 0)
(1.02355 0.000406535 0)
(0.0864573 -0.0970578 1.22592e-20)
(1.01374 -0.000698853 0)
(0.128152 0.0114248 0)
(1.00964 0.00723804 0)
(1.07574 -0.0435934 0)
(0.652959 -0.178996 0)
(1.0309 0.0274304 1.71774e-21)
(1.02721 0.0327537 -2.25371e-22)
(1.01563 -0.00442389 -6.57146e-22)
(1.01084 -0.00110754 2.3415e-22)
(1.01829 -0.000150527 -3.80554e-21)
(1.01916 -0.0163521 0)
(1.06379 -0.0289615 0)
(0.29054 0.0375378 3.45775e-20)
(1.058 -0.020888 0)
(0.781415 -0.0262506 2.2097e-20)
(0.774224 -0.0342915 1.35439e-20)
(1.0116 0.000422404 -1.14227e-22)
(1.02045 -0.000222938 -5.00705e-21)
(0.642501 -0.184122 -1.62964e-20)
(0.561147 -0.00349299 0)
(1.07498 0.0122212 -4.34816e-21)
(0.786619 -0.0938069 0)
(1.02502 0.000768038 2.23266e-22)
(1.04467 -0.0216165 0)
(1.00791 -7.39804e-05 -2.64706e-23)
(0.801784 -0.032706 0)
(1.0102 -0.000406551 -1.05278e-22)
(1.03132 -0.0275124 3.38777e-21)
(1.01567 -0.00390596 1.05675e-21)
(1.02521 -0.00141074 0)
(1.00815 -6.16086e-06 4.10605e-24)
(1.01176 -0.00079098 2.40265e-22)
(1.01184 0.000406015 -1.17901e-22)
(1.06145 -0.0433677 -2.20083e-21)
(1.02537 -0.00428091 1.70906e-21)
(0.700291 -0.0341561 -5.71741e-20)
(1.02138 -0.0157039 -3.22431e-24)
(1.06385 -0.0306725 0)
(1.02387 -0.000147465 -1.47299e-21)
(0.990576 0.0719911 1.42952e-21)
(1.0309 -0.0204279 5.57779e-23)
(0.986935 -0.0186886 0)
(1.03572 -0.0165237 9.70452e-21)
(0.978614 -0.0573218 -2.9785e-22)
(1.00909 0.000195039 -9.28424e-23)
(1.01155 -0.000771009 -4.23654e-23)
(1.00796 -8.24147e-05 0)
(0.998326 -0.0363846 0)
(0.854566 0.150626 1.87997e-21)
(1.06147 -0.0507725 1.69543e-20)
(1.02198 -0.000300423 9.66991e-22)
(0.679 -0.034121 4.56789e-20)
(0.893378 -0.127309 5.10254e-21)
(1.03159 -0.020755 3.73743e-22)
(1.01303 -0.000468893 1.34748e-21)
(1.06991 -0.0306123 0)
(1.01545 -0.00413295 4.28443e-22)
(0.986203 0.0801657 -2.20226e-21)
(1.00881 9.98591e-06 0)
(0.955439 -0.0320522 -1.29513e-20)
(0.919752 0.095074 0)
(1.04714 -0.0423076 4.89908e-22)
(0.645563 -0.0132584 0)
(1.01599 -0.000693855 -3.48142e-22)
(1.00706 0.00689649 9.92349e-22)
(0.895264 0.112104 3.02428e-21)
(0.207959 -0.0597019 3.01694e-20)
(1.00957 0.000177134 8.45429e-24)
(1.04563 -0.0232147 0)
(1.05604 -0.0321047 8.37559e-21)
(1.02412 -0.0120483 -2.86273e-22)
(1.00971 -0.000326393 -4.57629e-23)
(1.02515 -0.00836081 7.27301e-21)
(1.07673 -0.024075 -2.31221e-20)
(1.07407 -0.0457704 0)
(1.02324 -0.0180535 0)
(0.458173 -0.133952 0)
(1.00829 3.43766e-05 -4.55608e-22)
(1.01464 -0.00290449 4.18868e-24)
(-0.00142349 0.0975268 7.4429e-22)
(1.02384 -0.0171801 5.59976e-22)
(1.01102 0.000379681 -2.8103e-23)
(0.661152 -0.116698 0)
(1.01075 -0.00105681 -4.95582e-22)
(1.01793 -0.00709198 1.59449e-23)
(1.01012 -0.000497321 -6.80147e-23)
(1.01712 -0.0165306 9.52789e-23)
(1.02409 -0.0117217 -1.79378e-21)
(1.01129 0.000414613 2.02023e-23)
(1.0161 -0.000596956 -3.16237e-22)
(0.823342 -0.0753488 4.725e-21)
(1.02028 -0.00304638 0)
(1.05849 -0.0227587 0)
(1.01046 -0.000466245 -4.66829e-22)
(1.01624 -0.00988664 -4.27426e-22)
(0.99176 -0.0123611 -6.29455e-22)
(1.00367 -2.02129e-06 0)
(1.01542 -0.00436735 6.53453e-22)
(1.00628 1.35033e-05 0)
(1.0061 -5.48677e-05 6.99593e-24)
(0.814874 0.0038414 -1.13627e-21)
(1.02762 -0.00744884 0)
(1.04367 -0.0199476 -6.22871e-24)
(1.01961 -0.00195391 -1.29205e-21)
(1.00855 -4.15219e-05 -1.00294e-22)
(-0.0363909 -0.150906 -2.48322e-20)
(0.634589 -0.0115698 1.09879e-20)
(1.0207 -0.00234011 -1.5537e-21)
(1.01509 -0.0106235 0)
(1.03164 -0.0208927 -6.93641e-21)
(0.958676 0.0553613 -2.08321e-21)
(0.167166 -0.0768079 0)
(1.01469 -0.00300245 0)
(0.88742 0.0928064 -5.88925e-22)
(1.01587 -0.00446694 0)
(1.05416 -0.0413677 0)
(1.02624 -0.00220837 0)
(-0.120644 0.0106999 3.15039e-20)
(1.00946 0.000144831 -8.04873e-23)
(-0.0291826 -0.00323007 3.8874e-20)
(0.994522 -0.0422539 -2.78946e-21)
(1.01068 0.000354948 6.81656e-23)
(1.01354 -0.00917922 9.26205e-22)
(0.719657 -0.116763 -3.03672e-20)
(1.04318 -0.0362043 1.40714e-20)
(0.858171 0.0363165 1.88628e-21)
(1.01119 -0.00025094 5.73507e-22)
(0.832616 0.0816849 8.77382e-21)
(1.01411 -0.000427045 -2.04798e-22)
(1.00984 -0.000625319 6.88779e-23)
(1.01069 -0.0010658 -1.12576e-22)
(1.02517 -0.000197921 0)
(0.578803 -0.00696086 0)
(1.06608 -0.0335201 -1.78458e-21)
(1.08003 -0.0394246 2.43525e-20)
(1.03997 -0.0661075 6.35313e-22)
(1.02662 -0.0307672 6.7724e-22)
(1.0132 0.000610781 0)
(0.843215 -0.0952009 0)
(0.860796 0.148467 6.75044e-21)
(1.03838 -0.0194348 4.38401e-21)
(1.05065 -0.0166832 1.54379e-22)
(0.970046 0.0438829 2.40674e-21)
(0.825032 0.145717 1.98212e-21)
(0.840351 -0.0331865 0)
(1.01781 -0.000125271 0)
(-0.129342 -0.0051669 1.2397e-20)
(0.291813 -0.147566 -6.761e-21)
(0.345217 -0.257167 -3.29732e-20)
(1.02463 -0.0180237 2.1961e-21)
(1.01227 -0.00946509 -1.85426e-21)
(0.854489 0.172672 7.54524e-21)
(1.00451 0.00284327 6.36099e-23)
(0.939743 -0.0168355 2.79191e-21)
(0.853213 -0.0960068 -3.00419e-22)
(0.88291 -0.00416331 -1.31509e-20)
(1.02477 -0.0129785 -2.92135e-21)
(0.855489 0.0112838 1.33967e-20)
(0.976071 -0.0362903 -5.3135e-22)
(1.00925 0.000167668 -9.21453e-23)
(1.00783 -0.00141318 3.14464e-22)
(1.06726 -0.0334165 0)
(0.614557 -0.00738234 1.86517e-20)
(1.02938 -0.0143132 1.71095e-21)
(1.01723 -0.00247094 -1.8301e-21)
(1.01292 -0.00227504 4.30128e-22)
(1.01692 -0.00460864 1.66182e-21)
(1.05691 -0.0433601 0)
(1.02295 -0.0117953 -1.27632e-22)
(0.748731 -0.0821908 1.28235e-20)
(0.47116 -0.15151 -1.00692e-21)
(1.00979 -0.000290491 -5.2326e-23)
(0.00648727 0.105038 3.82075e-20)
(0.669199 -0.0180503 2.1012e-20)
(1.01537 -0.0489944 2.67319e-22)
(0.86614 0.143203 -1.7626e-21)
(1.05749 -0.0228213 -4.35697e-22)
(1.01063 0.000331368 1.49104e-23)
(1.01145 -0.00073278 0)
(1.02162 0.0229598 0)
(0.826817 -0.0984932 0)
(1.03702 -0.0107833 2.57089e-21)
(1.07867 -0.0282411 1.26335e-20)
(1.08595 -0.0324555 0)
(1.01079 0.000373071 0)
(1.0281 0.00308349 -9.86814e-22)
(0.831298 0.163172 -3.65752e-21)
(1.03507 -0.0271311 1.15851e-20)
(1.07058 -0.0450917 -1.06488e-21)
(0.586042 -0.00785447 0)
(0.975594 -0.0347506 1.90921e-20)
(1.01603 -0.00463962 9.24717e-22)
(1.02551 -0.00116617 0)
(0.524245 -0.121393 -1.62194e-21)
(0.767118 -0.0345389 1.52025e-20)
(1.08241 -0.0326269 1.95572e-20)
(1.05851 -0.0201116 -2.42702e-20)
(1.01562 -0.0394005 0)
(1.01047 0.000323351 -2.14372e-23)
(1.01493 -0.00277575 1.16341e-21)
(0.932945 -0.0191065 0)
(1.01057 0.00034944 -1.04801e-22)
(1.02881 -0.0140787 -1.59262e-21)
(1.01058 0.0003338 0)
(1.01047 -0.000849784 -3.26742e-22)
(0.963863 -0.0371675 -5.13179e-21)
(1.0591 -0.043483 -1.31659e-20)
(1.0213 -0.00235322 0)
(1.01056 0.000344565 1.0481e-22)
(0.167543 -0.00423857 1.81387e-21)
(0.86047 -0.0460785 1.0123e-21)
(1.0109 -0.00119362 0)
(1.00938 -1.37403e-05 0)
(1.01463 0.000247001 2.77336e-22)
(1.01839 -0.000185824 7.27989e-21)
(0.0698678 -0.0928762 0)
(0.854423 -0.138407 -7.95124e-22)
(0.854469 -0.121315 1.73579e-21)
(0.259719 -0.261446 0)
(0.820364 0.0424747 -7.85491e-21)
(1.05749 -0.0189111 1.39486e-20)
(0.597547 -0.00471666 3.35285e-20)
(0.632666 -0.0113751 -2.00184e-20)
(1.01898 -7.81055e-05 -2.4309e-23)
(1.0554 -0.0228475 -1.28489e-20)
(1.01071 0.000343215 -1.5021e-23)
(1.01847 -0.000630313 0)
(1.03414 -0.0299441 -7.3428e-21)
(0.847147 -0.0827815 -3.3217e-20)
(0.83507 0.00761428 0)
(1.07795 -0.0286163 1.35756e-20)
(1.04128 -0.0231214 0)
(1.01079 -0.000638885 9.90347e-23)
(1.02735 -0.0261873 -3.21868e-21)
(1.01747 -0.000760065 0)
(0.857587 0.00809451 -3.16613e-21)
(1.06579 -0.0367597 0)
(1.0193 -0.0018352 6.21762e-21)
(1.02065 -0.0180719 -1.34898e-22)
(1.00965 -0.000330967 -8.28267e-23)
(1.0468 -0.017581 -4.46644e-21)
(1.05991 -0.0517461 -3.03012e-20)
(1.02722 -0.00209974 8.18469e-21)
(1.01521 -0.00400027 1.31006e-21)
(1.02454 -0.0311463 0)
(1.0257 -0.0045675 1.52949e-21)
(1.05699 -0.0419805 1.13222e-20)
(1.01669 -0.0339772 0)
(1.06557 -0.0494158 3.44027e-21)
(1.02521 -0.025351 -1.45498e-21)
(1.08315 -0.0320752 0)
(1.01061 -0.000614764 -1.0007e-22)
(1.08219 -0.0130133 1.06013e-21)
(1.0228 -0.00668556 1.2772e-23)
(0.159168 -0.248631 0)
(1.01945 -0.00842944 -1.0822e-23)
(1.00883 -8.80425e-05 -1.61787e-22)
(0.950522 -0.0290508 1.93117e-20)
(1.02189 -0.012182 -1.71249e-21)
(0.647293 -0.171193 0)
(0.739054 -0.0259479 -2.92287e-20)
(-0.0403692 -0.0688237 5.42137e-20)
(0.631711 -0.105663 -8.03474e-21)
(1.0101 -0.000413317 4.95216e-23)
(0.983862 -0.0298786 0)
(1.01614 0.00113525 0)
(1.01068 -0.000955418 3.22617e-22)
(1.00955 0.000141325 4.52736e-23)
(1.01071 -0.000956047 9.68894e-22)
(1.01917 0.0024035 0)
(1.02083 -0.0162735 1.19568e-22)
(1.01884 -0.0163635 1.77958e-22)
(1.01036 0.00032176 -1.02695e-22)
(0.741695 0.0146267 -1.74627e-21)
(0.994719 -0.0477239 2.90364e-21)
(0.705671 0.0126616 0)
(1.01245 -0.00192436 0)
(1.0098 0.000120267 2.76196e-23)
(1.00935 3.58057e-05 3.42918e-22)
(1.04752 -0.0493039 0)
(0.534447 -0.0706944 1.39907e-21)
(1.0697 -0.0244711 3.29824e-20)
(1.04681 -0.0180905 1.31108e-20)
(1.01627 0.00119825 0)
(1.00846 -4.46556e-05 -1.91848e-22)
(1.01017 -0.000217873 -2.63903e-23)
(1.01348 -0.00244261 -3.7446e-22)
(1.08248 -0.0439518 2.94637e-20)
(0.326396 0.116889 0)
(1.02525 -0.00439791 -1.54843e-21)
(1.01036 0.000315655 0)
(1.02538 0.000100609 0)
(1.0134 -0.00246935 2.73221e-22)
(1.01518 -0.050603 -5.75285e-21)
(-0.0433445 -0.0404108 -3.23875e-21)
(1.02815 -0.0271254 2.24286e-21)
(0.727669 -0.121508 0)
(0.825394 0.122582 -9.51569e-22)
(1.01505 -0.00382778 -4.28188e-22)
(1.07884 -0.0399362 -1.43992e-20)
(0.174628 -0.0738178 -5.97092e-20)
(1.05608 -0.023745 0)
(0.643827 -0.103323 -6.68159e-21)
(1.03016 -0.0052698 6.50239e-21)
(1.02188 -0.014806 -3.53972e-22)
(1.06881 -0.0245247 -2.96583e-20)
(1.02099 -0.0149922 0)
(0.845373 -0.0721866 3.21166e-21)
(1.02034 -0.00221295 1.38124e-21)
(0.847265 0.167303 -5.94146e-22)
(1.00875 4.78972e-06 0)
(1.06068 -0.0124635 7.0906e-21)
(0.661995 -0.0158952 3.63243e-20)
(1.01368 -0.000807179 -7.65559e-22)
(1.02086 -0.0108185 -2.21816e-21)
(1.01082 -0.0365243 2.21684e-21)
(1.01004 -0.000686356 -1.43137e-22)
(1.03708 -0.0185935 0)
(1.01376 -0.00764214 1.91673e-20)
(0.408471 0.207977 1.23454e-20)
(1.06455 -0.0367735 -9.97966e-22)
(0.964476 -0.0749675 0)
(1.02394 0.0304914 -1.78735e-21)
(1.01035 0.000308585 3.31684e-23)
(1.01225 -0.00183802 0)
(-0.0773326 -0.164748 -6.70209e-20)
(1.08538 -0.0320772 6.68008e-21)
(1.02776 -0.00878541 2.65499e-22)
(0.752364 -0.0278001 4.79873e-20)
(1.01132 -0.00035218 1.26471e-22)
(1.01647 2.52549e-05 0)
(1.00919 0.000172571 -6.21882e-24)
(0.830793 -0.0178746 0)
(1.03996 -0.0346933 0)
(1.026 -0.0167663 -2.37606e-21)
(1.01754 -0.00642908 0)
(0.993702 -0.0232544 -5.15869e-22)
(1.04253 -0.0130322 0)
(1.0095 3.72928e-05 -2.53409e-22)
(0.055464 0.0800552 -8.42974e-20)
(0.934099 -0.0434903 -9.86019e-23)
(0.719965 -0.0364338 0)
(1.0109 0.000379248 3.35527e-24)
(1.02523 -0.00408016 2.84932e-21)
(0.611286 -0.00720215 -2.77268e-20)
(-0.00963582 -0.0730562 0)
(1.08526 -0.0299479 0)
(1.01697 -0.000859524 0)
(0.912945 -0.0325568 -2.92398e-23)
(1.02018 -0.00256932 4.71788e-21)
(0.990426 -0.0442809 -4.37344e-22)
(1.05361 -0.0374456 -2.33841e-21)
(1.04804 -0.0429567 7.32633e-21)
(1.0322 -0.0179604 4.87474e-21)
(0.0266171 -0.0844942 1.79003e-21)
(1.01672 -0.0060384 1.6297e-21)
(1.01744 -0.00215337 0)
(1.07581 -0.0308319 2.68915e-20)
(1.00879 -9.66318e-05 -1.54833e-22)
(1.00535 -4.53106e-05 7.92569e-22)
(1.02432 -0.0121234 1.81357e-21)
(1.01052 -0.000582945 -3.43889e-25)
(0.0532278 0.0769461 0)
(1.03678 -0.027413 -5.23683e-21)
(1.07235 -0.0450521 2.06942e-20)
(1.02009 -0.0024942 -4.44308e-22)
(1.00521 -0.0103473 1.15252e-21)
(1.0109 -0.000679848 5.31679e-23)
(0.96603 0.0290609 -1.58363e-20)
(1.01029 -0.000165421 0)
(1.0159 -0.00573493 2.66331e-22)
(1.00975 0.000116502 1.14838e-22)
(1.01466 -0.00354849 1.30609e-23)
(1.01281 -0.000538544 0)
(0.769036 -0.0365837 -3.25034e-20)
(1.01283 -0.00227541 -4.25592e-22)
(1.00971 0.000253609 -1.05058e-23)
(0.930736 0.0856452 -8.07313e-22)
(1.02612 -0.00119897 -2.5864e-21)
(0.628942 -0.00991817 -2.55229e-20)
(1.00793 2.59972e-05 0)
(1.017 -0.000358007 -6.23335e-22)
(1.07234 -0.0300986 0)
(0.997105 -0.0582592 0)
(0.883411 0.00930412 -9.44665e-22)
(1.00992 -0.000231006 3.42231e-24)
(1.07182 0.00539972 -2.03487e-21)
(0.732559 -0.122752 1.94133e-21)
(1.02767 -0.00781664 -5.21233e-23)
(0.829298 -0.0408096 2.29298e-20)
(1.05981 -0.0125151 1.30076e-22)
(1.01027 -0.000526216 0)
(1.01536 -0.00952537 5.41213e-22)
(0.0299118 0.106818 0)
(1.07964 -0.00654949 9.97482e-22)
(1.03003 -0.0191561 3.82083e-21)
(1.01006 -0.000264332 0)
(1.0101 0.000295159 -3.93228e-23)
(0.886071 0.136046 4.53323e-21)
(1.04938 -0.0448713 -7.93112e-21)
(1.00409 -0.0197876 0)
(1.02549 -0.0175167 0)
(1.01335 -0.00906376 0)
(1.0183 -0.000100179 -2.50349e-22)
(1.01704 -0.000501902 0)
(1.0796 -0.0256943 3.1368e-20)
(0.853088 0.090698 2.57485e-21)
(1.05483 -0.0430591 -2.59519e-21)
(0.849324 0.0406585 0)
(1.02479 -0.003903 -7.29957e-21)
(1.05501 -0.0418844 2.68483e-21)
(1.0719 -0.035547 0)
(0.807822 -0.0257677 2.28458e-20)
(1.02557 -0.0163323 0)
(0.266881 0.178522 1.89981e-21)
(1.04663 -0.066523 2.42035e-20)
(1.02644 -0.0009072 -2.28333e-21)
(0.467828 -0.149002 0)
(1.0705 -0.0180424 3.27452e-21)
(0.655334 -0.117195 0)
(0.433259 0.206092 0)
(0.782837 -0.0630873 2.75319e-20)
(0.983719 0.0735305 -5.00074e-22)
(1.03393 -0.0342749 -7.39017e-21)
(1.01035 -0.000554445 6.66988e-23)
(1.01828 -0.0156363 3.84547e-22)
(-0.0589407 -0.0484526 3.7814e-20)
(0.305806 -0.086499 3.46153e-20)
(1.01412 -0.00234731 0)
(1.00786 -1.42926e-05 6.37382e-24)
(1.06874 -0.0321195 -1.99768e-22)
(0.984105 0.0558727 0)
(1.01041 0.000300086 0)
(-0.0261981 -0.0463193 -3.32039e-20)
(1.01108 -0.000334967 -1.26592e-22)
(1.0202 -0.00461098 0)
(0.015269 0.0849355 -3.76953e-20)
(0.616955 -0.00814163 -2.40933e-20)
(1.01313 0.0412301 2.19947e-21)
(1.01073 -0.000973846 0)
(1.01827 -6.81363e-05 -5.25942e-21)
(-0.0150077 -0.0670356 1.91498e-20)
(1.08581 -0.0447356 -3.3914e-20)
(1.08137 -0.032274 -1.71137e-20)
(1.01706 -0.00177994 -6.49104e-22)
(0.662797 -0.158143 0)
(1.03689 -0.0273366 -4.03492e-21)
(0.592012 -0.066473 0)
(1.06227 -0.0316124 -2.77719e-21)
(1.0609 -0.0241846 1.90744e-20)
(1.02553 -0.00843516 -2.95406e-21)
(1.02604 -0.00184585 0)
(0.637156 0.174729 -1.27096e-21)
(1.07061 -0.0209702 0)
(0.555671 -0.00294567 0)
(1.02671 -0.00143925 1.48768e-21)
(1.05698 -0.0208931 0)
(0.0896641 0.0559254 -7.25314e-20)
(0.645827 -0.127477 0)
(0.655074 -0.0143164 -2.51439e-20)
(1.02205 -0.00229291 0)
(1.05695 -0.0170705 1.3934e-20)
(1.0108 -0.00114044 0)
(1.02598 -0.0264478 5.00383e-21)
(1.02056 -0.0105505 -1.1553e-21)
(0.540762 -0.0592787 0)
(1.01148 -2.38005e-05 -2.90823e-21)
(0.646622 -0.0153315 -3.84397e-20)
(1.01027 0.00027929 -5.24509e-23)
(1.07146 -0.0300205 -1.21887e-20)
(1.01509 -0.00339144 1.89171e-21)
(1.0579 -0.0329701 7.97463e-21)
(1.05837 -0.019381 1.74842e-20)
(1.056 -0.0173467 1.39658e-21)
(0.738173 -0.111657 -2.40328e-20)
(1.06413 -0.0235067 -1.11483e-22)
(1.01589 -0.0147601 1.00231e-21)
(1.00877 -6.3283e-05 1.12727e-23)
(1.07089 -0.0310416 0)
(0.79599 0.0693464 -7.14385e-22)
(1.03444 -0.0408593 -4.86485e-23)
(1.02798 -0.0142108 -7.48707e-23)
(0.606626 -0.00749666 0)
(1.01415 0.000264726 -1.31619e-22)
(0.510172 0.210295 0)
(0.910948 0.0886907 -1.50005e-22)
(1.02332 -0.00698944 0)
(0.796865 -0.0296032 1.89047e-20)
(0.0634682 -0.108675 1.30253e-20)
(0.639899 -0.0119782 2.03455e-20)
(0.99706 0.0638939 3.00913e-21)
(1.02585 -0.00332114 -8.92728e-22)
(1.01401 -0.00255973 -6.31988e-24)
(0.714791 -0.0369502 0)
(1.0169 -8.26756e-05 4.81708e-21)
(0.785443 0.182368 -1.26609e-21)
(0.645477 -0.013608 0)
(1.01247 -0.00200243 -1.86625e-22)
(1.04035 -0.00535411 8.97943e-21)
(1.00956 -0.0409863 0)
(0.849061 -0.0170119 -3.4146e-21)
(0.262721 0.201947 -7.20431e-22)
(1.02383 -0.00519084 0)
(1.00955 -6.78701e-05 -2.66443e-22)
(0.612521 0.0503358 0)
(0.65443 -0.0148084 0)
(1.06988 -0.0466743 -3.16167e-20)
(1.02987 -0.0183757 -4.02816e-21)
(1.01671 -0.00232861 1.94529e-22)
(0.923552 0.0991528 1.47387e-22)
(-0.0403483 0.0457154 6.92292e-20)
(1.07193 -0.0366171 0)
(1.0098 0.000243481 5.75517e-24)
(1.03506 -0.0351474 7.71759e-21)
(1.01005 -0.000715653 -2.67766e-22)
(1.01083 -0.000137003 -1.10092e-21)
(1.03328 0.0180427 4.67072e-23)
(1.00765 -4.99335e-05 2.58888e-22)
(0.926401 -0.00580595 3.40327e-21)
(1.00219 0.0640779 1.69489e-21)
(1.02022 -0.00483055 6.8919e-22)
(1.01642 -0.000230046 -1.82696e-22)
(1.01419 -0.00259204 -4.24364e-23)
(1.02476 -0.0123289 0)
(0.571025 -0.00563808 -1.202e-20)
(0.707333 -0.131411 -2.8525e-20)
(1.04618 -0.0224758 0)
(0.25977 0.166749 -3.54152e-22)
(1.01509 -0.00329486 -1.98171e-21)
(1.04464 -0.0231202 1.79488e-21)
(1.01383 -0.00243625 0)
(1.01014 -0.000761642 -2.29266e-23)
(1.02062 -0.00704624 0)
(1.01988 -0.00479496 -6.57607e-22)
(0.604004 -0.00764809 -2.58371e-20)
(1.02083 -0.00255319 0)
(1.06822 -0.0254173 -9.49172e-22)
(1.02221 -0.00255376 1.92329e-21)
(1.03072 -0.0195674 3.97753e-21)
(1.02815 0.0242815 -4.40441e-22)
(-0.000626469 -0.0765152 1.68606e-20)
(1.0109 -0.000234048 -6.91942e-22)
(0.532485 -0.142523 1.65841e-21)
(1.00111 -0.0215158 1.11237e-21)
(1.0454 -0.056451 0)
(1.03766 -0.0279082 4.28577e-21)
(1.04265 -0.0274939 0)
(0.546749 -0.00352647 -1.22596e-20)
(1.04734 -0.0170576 -4.06503e-21)
(1.0256 -0.0114011 2.13949e-22)
(0.559682 -0.0809478 -6.26047e-21)
(0.78985 0.172146 -6.54928e-21)
(-0.0405526 0.0407085 -3.81833e-20)
(1.04676 -0.0319442 0)
(0.907856 -0.0948189 -2.24785e-21)
(1.01928 -0.00805431 -6.64594e-22)
(1.06323 -0.0228827 8.65095e-21)
(1.06159 -0.0306831 1.3999e-20)
(0.254265 0.195232 0)