/*--------------------------------*- C++ -*----------------------------------*\
| =========                 |                                                 |
| \\      /  F ield         | OpenFOAM: The Open Source CFD Toolbox           |
|  \\    /   O peration     | Version:  v2012                                 |
|   \\  /    A nd           | Website:  www.openfoam.com                      |
|    \\/     M anipulation  |                                                 |
\*---------------------------------------------------------------------------*/
FoamFile
{
    version     2.0;
    format      ascii;
    class       volScalarField;
    location    "250";
    object      ddt0(k);
}
// * * * * * * * * * * * * * * * * * * * * * * * * * * * * * * * * * * * * * //

dimensions      [0 2 -3 0 0 0 0];


internalField   nonuniform List<scalar> 
14315
(
1.5515e-06
-3.67152e-06
-1.85463e-08
-1.43355e-07
-1.21833e-07
-1.92287e-09
-4.92692e-08
-1.14227e-08
-0.000350139
-8.95097e-08
-9.07991e-08
-1.30467e-08
7.03923e-05
6.43565e-08
-4.39415e-08
-1.18408e-08
5.21899e-09
0.000417886
5.36275e-09
-1.92182e-09
-2.76807e-07
3.51494e-08
-6.39995e-09
-8.60731e-08
0.000582899
-2.32268e-08
5.24356e-06
-9.19703e-08
1.2655e-05
-7.69811e-10
-7.93049e-08
-1.73772e-10
-3.54072e-05
-1.08229e-06
-5.97297e-08
2.20806e-10
6.03075e-10
-2.59817e-08
7.4024e-09
-7.27774e-08
-0.000148628
-6.1455e-08
9.81872e-08
1.1717e-06
1.52186e-06
1.1239e-07
-6.92704e-09
-8.84759e-08
1.76089e-08
8.04912e-08
-1.89476e-10
-1.59845e-07
4.98393e-09
-1.55705e-08
4.48647e-09
-2.44525e-08
-1.49385e-05
-6.85671e-08
-6.05145e-08
0.000439223
-1.12562e-08
1.85363e-07
-3.14678e-07
-1.32869e-09
-6.23865e-09
-3.50289e-09
-1.64549e-08
-8.11155e-10
3.94008e-09
1.31461e-09
9.43239e-09
1.48184e-09
6.43224e-09
-3.20669e-08
2.2406e-08
-1.67701e-08
1.35765e-09
1.92645e-07
1.93014e-09
-8.4149e-07
-3.3733e-07
-0.00183656
9.23812e-09
-8.45813e-09
4.53465e-09
-5.68762e-05
-1.08283e-07
3.27529e-09
6.2105e-09
1.06354e-08
-1.06267e-06
-0.000125115
3.99316e-05
-4.74762e-11
4.41616e-07
1.59672e-07
3.74951e-10
8.097e-08
-2.15938e-07
-1.90482e-08
-1.69688e-08
-4.11642e-06
-2.52317e-09
8.43875e-08
1.62431e-08
-9.14924e-10
3.56387e-08
-2.33219e-07
1.68517e-07
2.08155e-09
3.01228e-07
-1.14913e-07
-1.12322e-08
1.30777e-06
2.96196e-08
-1.75458e-07
-1.68389e-07
-3.72199e-08
-0.00017783
-0.00126257
-1.16807e-07
3.97422e-09
5.04831e-09
-1.17272e-06
1.02785e-06
1.50188e-08
0.000284854
3.55903e-07
-7.32081e-09
-2.05948e-08
-4.5975e-07
-0.000534934
0.000711458
-0.000516879
1.79178e-08
-1.55546e-08
0.00266307
7.32429e-07
-0.000118148
0.000736464
1.45074e-06
6.88515e-07
5.40121e-10
-0.000514586
1.03617e-06
-1.74146e-09
1.62842e-08
-5.47652e-08
-3.4622e-08
-1.94976e-07
-1.15858e-08
3.85157e-10
-1.36637e-08
2.0126e-08
-1.97289e-07
1.55676e-07
3.1106e-08
1.99903e-08
-2.02873e-05
-1.95788e-06
-1.59317e-07
-9.36021e-08
-2.77863e-05
-6.85991e-07
-2.95656e-08
-1.39767e-05
7.62365e-09
3.28266e-08
-6.29648e-08
-1.11565e-08
-0.000209101
0.000593373
1.60492e-07
-1.52308e-07
0.000274815
0.000483316
1.67815e-07
1.35676e-08
5.58793e-07
-7.15367e-08
-4.41624e-05
-9.64634e-07
-8.03762e-09
3.76644e-08
-7.80259e-08
-0.00195347
1.65253e-07
1.87362e-07
-2.34364e-08
1.78215e-07
-2.70747e-08
0.00117833
1.91103e-06
3.96446e-10
5.35778e-08
-6.39839e-08
-0.000322325
1.60845e-08
-1.02931e-07
-1.93234e-07
-1.51122e-05
-1.99086e-09
3.91323e-06
-5.67923e-08
1.405e-07
2.25385e-08
-1.91151e-08
6.5835e-07
3.06335e-08
1.45193e-09
-1.64649e-08
3.96384e-08
-1.19296e-06
1.15617e-07
-3.75132e-05
2.53729e-07
3.41653e-08
-1.06338e-08
-1.92326e-09
-2.11553e-08
-6.14442e-06
5.34648e-09
-3.86899e-05
0.00109012
1.10881e-07
-3.23381e-08
-1.61564e-07
-7.57616e-07
3.70694e-09
-9.01298e-09
-1.71877e-07
0.00013719
-8.33264e-09
-1.03459e-05
-3.71841e-08
3.99194e-07
8.93222e-07
2.28302e-07
2.0423e-08
-0.00476656
-9.84126e-05
-1.3431e-07
-2.36209e-09
0.00057854
-4.04838e-06
5.51149e-08
-7.68826e-05
1.55049e-08
4.89907e-09
-1.23164e-07
-1.85071e-07
6.1781e-09
-7.94871e-05
4.30112e-10
-2.41562e-08
1.04227e-06
6.97912e-05
-8.90615e-08
4.19679e-06
-2.84362e-08
-2.9882e-08
-5.76499e-08
1.54797e-07
-0.00145244
-2.26989e-07
-2.69115e-06
-2.37563e-07
-2.56199e-05
-7.91228e-08
7.47576e-09
6.13093e-07
3.1671e-10
3.62982e-08
8.89031e-08
-1.17605e-08
-8.38951e-08
-6.07113e-06
5.04242e-10
1.28407e-08
-1.79064e-07
-1.646e-08
-3.70789e-07
-1.38054e-08
-4.77628e-07
-1.3251e-07
-4.89392e-05
-0.000989652
2.98833e-07
4.59274e-08
1.59449e-09
3.34422e-07
-2.11906e-08
-8.67338e-09
4.01635e-06
-1.37812e-09
-6.34989e-08
-6.08147e-08
-2.39697e-05
-2.37948e-08
0.000330057
-5.25802e-07
5.3984e-08
6.52451e-08
-1.92453e-07
-1.36832e-07
-8.71499e-10
2.6173e-07
-3.59682e-07
-2.98125e-07
-5.19313e-07
2.33175e-09
1.4639e-09
-3.90589e-07
-3.19117e-07
-1.69869e-07
-1.38191e-05
-0.00088249
1.36122e-08
1.75526e-08
0.00025152
-6.69457e-08
1.78495e-08
-3.06858e-05
-1.97291e-08
1.32395e-08
1.05122e-07
4.26931e-06
-4.69134e-09
-0.000554
-6.32354e-08
3.98127e-05
3.94894e-05
-8.01026e-05
3.99485e-05
-0.000507915
-2.51827e-08
5.9311e-05
1.36556e-07
-9.74654e-05
1.8096e-07
1.3907e-07
-0.000413888
0.000427155
-1.96716e-08
-9.5631e-08
0.000137666
-2.43314e-05
-0.000293337
1.75572e-10
1.20739e-08
-0.00202093
6.00354e-05
-2.32076e-07
4.20548e-08
9.92298e-08
3.38339e-07
-1.73959e-07
-3.58141e-05
-2.25248e-05
4.83684e-08
4.48138e-07
-2.37238e-05
1.67632e-09
1.66974e-08
4.34272e-10
3.78048e-07
-2.75692e-07
-1.23451e-07
8.12512e-08
-3.17983e-09
2.97568e-06
3.28756e-05
-3.93412e-07
-0.000267231
8.00931e-09
-1.88399e-08
6.51616e-06
1.86658e-06
-1.12599e-07
-5.97789e-09
-2.74978e-07
-3.20968e-08
-7.8079e-06
-8.11349e-08
-4.63534e-08
-9.8686e-08
7.56881e-05
-3.30824e-07
-0.000796458
1.05158e-08
-6.80749e-05
3.04027e-07
-3.3941e-09
5.98104e-09
1.01241e-07
1.93831e-08
2.24361e-07
2.62155e-07
1.13755e-07
2.27286e-07
6.47893e-09
2.10077e-10
2.27563e-06
-2.53456e-08
1.86825e-05
-5.39751e-05
0.000281503
1.50812e-07
4.00162e-07
-2.10807e-07
-4.4495e-11
-1.26709e-08
-3.47475e-09
-1.33707e-05
-8.93878e-07
1.26706e-08
3.56845e-07
7.41853e-07
-1.71258e-07
-0.000907104
4.02676e-05
0.000838553
-8.35147e-07
2.60732e-08
-3.04295e-09
-5.15646e-07
1.18206e-07
2.46794e-08
6.31649e-05
-2.05684e-06
-1.45695e-05
-4.8388e-09
2.05847e-09
-9.77097e-11
2.59472e-07
1.35961e-09
-5.55239e-05
-1.01292e-06
-1.57836e-06
-1.42863e-08
-5.68615e-07
-7.52415e-10
2.08804e-08
1.32341e-05
9.17637e-05
-1.25783e-06
-7.32485e-10
-3.13222e-10
-3.85195e-08
-8.83312e-09
5.82143e-08
8.72499e-09
-0.00122191
-0.000332707
1.2444e-11
3.32229e-05
6.45988e-11
-7.37648e-07
2.43944e-07
-8.3526e-08
-0.000686758
8.51171e-09
-2.5851e-07
-0.000246568
-8.22183e-07
1.18258e-09
4.17218e-05
4.18805e-05
3.2385e-07
-3.47238e-08
4.82087e-07
3.10413e-07
1.51603e-07
-8.9695e-08
3.8183e-09
-2.9863e-07
-4.92088e-07
0.000204359
4.08158e-08
-4.31504e-08
3.78807e-06
-9.19729e-08
-0.000824681
-5.35929e-08
5.78469e-08
-0.00127657
-5.316e-07
2.68663e-08
1.59986e-05
-7.65872e-08
-0.00100705
-1.86411e-07
2.56518e-08
-3.00753e-07
-0.00013099
-2.78364e-07
1.18057e-06
-8.50889e-08
1.00188e-07
9.99476e-07
7.00603e-05
1.6411e-08
3.96828e-05
5.66377e-08
2.4809e-06
4.6029e-09
-4.64246e-09
-1.62837e-08
3.10141e-07
-3.94346e-09
2.12883e-07
1.43467e-08
-6.74252e-08
-0.000433289
-1.33114e-08
-9.01835e-07
-2.06326e-07
3.20665e-06
2.41833e-09
1.53626e-05
1.19855e-08
7.29368e-05
1.02695e-05
0.000656624
-1.65447e-05
-6.46188e-08
1.77189e-08
-1.6435e-06
7.01682e-05
-7.80532e-07
-1.1537e-07
-2.50022e-05
5.57167e-09
2.65671e-09
-2.93695e-08
2.20703e-08
-1.29877e-08
4.66046e-09
0.000103773
3.60842e-09
1.29371e-07
7.75057e-05
-2.08439e-05
-4.52987e-09
-2.37218e-08
4.2893e-10
1.17887e-07
-9.72758e-09
-9.72936e-05
-3.34919e-08
-2.50988e-08
-6.50627e-09
-3.84056e-07
-2.04774e-09
-2.82635e-07
1.18924e-07
-3.29302e-08
1.77588e-07
2.77996e-08
-2.13238e-08
2.37353e-07
-3.29554e-05
6.57698e-07
-0.000197698
-9.78998e-05
3.01602e-10
8.35976e-10
-1.54544e-07
0.000160568
1.53721e-07
8.86632e-09
8.77356e-08
4.60136e-07
-2.4108e-07
3.32387e-06
-5.63404e-06
-1.97549e-06
1.16565e-08
6.22802e-07
9.33344e-05
5.06012e-08
0.00022358
2.83922e-06
4.89285e-06
-9.00901e-08
0.000276867
-6.02499e-10
2.76922e-05
1.22055e-08
-7.51667e-05
-2.5186e-08
4.21229e-09
3.79557e-07
0.00136402
-0.00175936
-1.08064e-05
2.42515e-09
-1.65876e-07
-1.0722e-05
-5.4115e-07
-4.91738e-05
-5.60754e-09
-1.62177e-07
-9.73359e-08
1.58213e-08
5.02011e-08
-3.70871e-08
-7.20076e-08
4.17081e-08
-4.51507e-08
-4.57529e-07
-3.42064e-08
2.0977e-08
4.53071e-10
9.13617e-09
3.56217e-08
2.3454e-07
-1.97795e-05
1.19335e-08
7.55807e-08
-0.000266268
-1.75474e-08
1.14087e-05
-0.000117652
4.59299e-08
-9.0408e-09
3.16003e-08
-9.23821e-06
-2.40454e-07
-5.53498e-08
-2.04134e-05
-6.57426e-08
2.83693e-07
8.07287e-05
9.67629e-09
-1.35654e-07
-3.93658e-07
6.84639e-06
1.78443e-07
-2.48799e-10
1.4041e-06
-6.09129e-09
2.01959e-07
-4.7293e-08
3.6913e-07
3.11768e-07
-2.08355e-07
6.30195e-08
-1.34343e-08
-3.4229e-07
-2.85918e-05
-1.0648e-07
0.00031498
1.84761e-09
-1.39622e-06
3.70638e-10
-0.000637724
-1.26715e-07
-7.1036e-07
-1.01871e-07
0.000167527
1.72197e-09
-2.11943e-07
0.000119195
4.06388e-07
4.01146e-09
0.000103233
6.35118e-07
4.76166e-09
6.18526e-08
-7.01774e-07
1.09813e-05
-0.00432113
-1.90907e-09
-0.00124771
-1.06511e-08
1.7938e-07
-1.56016e-07
0.00101337
-1.80027e-09
-2.44602e-08
1.52179e-07
-1.28104e-07
-9.53931e-07
-0.00267974
-0.000990533
2.78449e-07
1.17932e-07
-1.9006e-09
8.49233e-08
-2.51825e-09
-6.17188e-05
2.14544e-08
9.85461e-09
-4.39447e-08
2.47912e-09
-9.22153e-08
-0.000607117
9.34504e-07
5.61597e-05
-2.81109e-11
2.28549e-07
9.41181e-09
-4.72015e-08
-2.42244e-08
3.93481e-07
-2.95348e-09
3.6613e-08
-8.92977e-06
-2.32642e-05
-3.06897e-05
1.98243e-08
-2.50805e-09
0.000302167
-9.47067e-07
-1.30704e-08
-0.000654568
1.19999e-08
5.68163e-06
-4.88117e-07
4.18741e-08
4.65874e-08
1.98859e-05
7.38446e-05
1.25236e-07
-2.13306e-07
6.75533e-09
-3.18361e-08
5.83791e-07
0.000817161
8.15926e-10
-5.26431e-07
-6.02536e-06
9.52833e-07
-1.12698e-06
-0.000377198
-2.09765e-05
-6.45466e-10
7.39304e-09
-1.60728e-07
-7.12719e-08
1.60559e-08
1.29183e-09
-4.67352e-07
0.000128865
-3.09637e-08
1.64508e-07
1.07427e-06
-0.000248653
4.38772e-07
-6.75418e-08
2.5425e-05
-2.73181e-07
3.46727e-09
1.86126e-06
-0.000422583
-9.73283e-06
-3.95058e-05
2.72656e-08
7.85e-08
-0.000179302
-0.00165582
2.61327e-05
-1.30868e-07
-1.21044e-06
9.14893e-05
-4.15333e-09
-2.32353e-09
1.36795e-06
0.00058948
1.35916e-08
-3.85477e-09
-1.9756e-07
-6.73346e-09
4.84928e-09
-3.23802e-09
-0.000163947
-5.40871e-09
1.2005e-08
-3.23992e-05
-4.88564e-08
-7.43295e-06
1.75301e-09
-8.7933e-08
-2.49192e-08
-4.55644e-09
-0.00281714
-3.23801e-05
4.07937e-09
-4.9551e-10
4.44431e-10
-2.60927e-05
-2.69942e-09
4.16712e-09
2.24679e-07
-1.26605e-05
-4.96756e-05
-5.77889e-09
2.88344e-06
-1.38006e-09
7.80083e-08
-3.07885e-07
-3.10456e-06
0.000127726
2.10784e-06
-3.87018e-09
1.63487e-07
-4.71387e-09
-1.90044e-05
1.81659e-08
-2.37076e-07
-3.03066e-08
-0.000712553
-7.6254e-05
-1.92861e-08
1.34579e-07
-0.000259822
-1.8146e-07
1.01836e-07
-6.79291e-07
-2.2695e-07
-0.000501683
7.57653e-08
-1.57711e-07
-9.13489e-08
-0.00834034
3.03306e-07
-5.03278e-09
1.76508e-07
-2.77243e-08
4.32313e-07
-1.01832e-08
-8.91198e-08
4.41439e-05
4.17502e-06
-3.88157e-05
4.0236e-08
-2.43093e-09
-7.50535e-05
4.27542e-07
9.97137e-08
0.000183745
5.86868e-07
-1.62971e-08
1.09584e-09
-3.07159e-07
2.76099e-08
-0.00238456
3.11699e-08
-1.06595e-09
-2.62712e-07
1.66682e-08
-8.08315e-08
-6.90351e-07
2.55983e-08
5.76731e-07
-0.000518848
-4.35151e-08
0.000161561
-1.71102e-08
1.0543e-07
-1.81714e-09
-1.18186e-08
-4.7555e-07
2.03974e-07
-4.08442e-08
-2.44733e-07
-5.59104e-07
0.000107532
1.01288e-05
8.14381e-08
9.68e-08
2.0418e-07
4.37205e-05
-1.33189e-08
-3.30902e-08
3.17659e-07
-3.191e-08
-0.000559784
-0.0006684
-6.70579e-07
-4.89373e-06
-4.9495e-09
-3.08463e-06
0.000269254
0.000539904
1.90755e-06
-2.17572e-09
0.00010266
-5.2983e-05
-1.19515e-09
-3.43888e-09
-1.02645e-07
-6.40755e-06
-0.000999847
3.02393e-08
-4.17277e-08
5.08388e-08
-3.27074e-07
9.19122e-07
-3.32245e-05
5.52379e-06
-1.0824e-07
-6.58599e-05
1.78428e-07
0.000160732
-4.12387e-08
-6.86098e-06
-2.60153e-07
-4.16163e-09
-1.70327e-07
-8.43494e-12
-6.02097e-05
1.62646e-06
-4.44909e-08
-3.10743e-07
1.43688e-09
1.54583e-09
-0.000127769
1.52376e-07
6.18144e-09
1.81094e-09
-1.77062e-07
3.0954e-09
6.75113e-07
7.05976e-09
5.31907e-06
5.61247e-09
-4.49648e-07
6.88845e-08
-6.20147e-07
2.5694e-07
6.82114e-10
2.75985e-06
-9.86544e-05
9.0712e-08
0.000122215
-8.71742e-09
0.000910601
-8.17829e-08
-2.59994e-07
-1.45311e-07
-3.14681e-08
-5.01044e-05
4.82607e-06
-0.000716494
9.73374e-06
-7.3185e-05
-5.51019e-08
1.57592e-06
-1.38405e-08
0.000454897
-0.00108223
-2.24288e-09
-1.24707e-07
-9.16634e-06
-2.48147e-07
-1.34896e-08
-2.72214e-05
7.69558e-07
1.74315e-05
-9.14682e-09
4.16148e-05
4.06818e-05
6.49317e-07
9.44757e-10
5.61485e-06
4.04454e-08
-2.14138e-08
-2.52534e-08
-7.07391e-05
-2.52238e-08
-1.0225e-09
2.60832e-09
0.00066607
-8.35899e-08
1.34353e-09
-1.84225e-07
-9.80431e-09
-1.31028e-07
-2.16492e-09
-2.36255e-07
-0.000886899
1.20684e-05
-6.76752e-06
3.74062e-09
-2.07812e-07
-1.22196e-06
-0.000293467
-1.5946e-06
-4.32891e-09
4.09763e-06
1.03288e-07
2.73222e-07
-0.000251036
-7.92723e-09
-1.34385e-07
7.17102e-08
1.41162e-09
-8.17751e-05
-2.18549e-07
1.01826e-08
2.73889e-08
-0.00114412
1.60761e-08
-3.53036e-06
-0.000405272
1.80893e-09
-7.36527e-07
2.95162e-07
-2.77952e-07
-1.72924e-08
3.03773e-09
-5.25305e-06
7.41898e-08
-5.16866e-08
-8.00272e-10
6.14169e-08
-2.0256e-07
4.15144e-05
5.44962e-08
-0.000664059
-5.48335e-08
-3.55469e-09
3.51498e-05
1.36152e-08
8.64934e-08
-2.6991e-07
-6.22102e-07
1.25741e-09
-2.47102e-07
2.52343e-07
5.77888e-09
0.00122091
1.59014e-07
2.59533e-09
2.41843e-05
6.60387e-08
6.86833e-09
1.86451e-09
-1.83817e-07
-2.61031e-07
-1.95526e-07
1.21471e-07
3.6174e-08
-6.43596e-07
-1.03074e-05
1.86786e-07
-7.03963e-05
2.545e-07
-2.77919e-07
-0.00153415
-4.30917e-09
-1.3993e-09
-1.31123e-07
-1.76003e-09
-4.18568e-06
-5.09123e-08
-1.81191e-08
1.33643e-07
8.27461e-07
-2.4554e-05
-9.16152e-08
6.69528e-05
4.90054e-06
-0.000140642
-2.1825e-08
-1.31232e-06
1.6634e-07
1.20106e-07
6.09703e-07
-0.000784142
0.000199043
-9.3684e-08
8.14076e-09
5.42877e-07
5.62317e-07
1.07724e-07
6.46511e-09
-1.54358e-08
-1.28593e-08
-1.83699e-07
-2.42202e-07
-6.04118e-08
0.000266747
0.000854366
1.16328e-06
-2.09193e-06
1.23249e-07
-7.53773e-08
-4.0087e-09
5.47931e-07
-7.34779e-08
-1.15278e-05
0.00116017
-7.78208e-08
2.64908e-05
3.38413e-07
-8.55733e-09
9.1155e-06
-2.43309e-06
3.29744e-07
2.96363e-07
-6.65123e-07
1.40763e-09
4.79825e-09
-1.30999e-06
3.98377e-10
2.36892e-09
-0.000103508
1.93457e-08
3.01732e-05
-5.83393e-09
3.66459e-05
2.32115e-05
-9.6759e-08
4.97604e-09
0.000905093
-4.75991e-06
7.10852e-08
-2.9555e-08
-3.32499e-08
-0.000181197
-6.4389e-08
-6.37801e-09
-1.15965e-05
0.000104146
-1.22604e-07
5.19677e-08
-1.00407e-06
-9.19073e-08
-2.42374e-07
0.00017309
-3.09751e-08
-1.03175e-09
3.85753e-09
-1.58639e-05
-8.8299e-08
0.000575074
0.000115003
-6.55309e-10
-1.14856e-07
2.42787e-06
1.86386e-06
2.31663e-09
5.53291e-05
-2.47993e-08
9.08824e-08
-1.27907e-06
-0.000625398
2.37695e-10
-0.000988756
-4.96373e-09
6.82592e-10
1.38205e-08
8.96515e-05
-5.67093e-07
-3.87459e-09
-2.84251e-08
1.62928e-05
-3.05559e-07
1.09344e-09
3.51505e-08
-1.98203e-05
5.88146e-08
0.000388823
-1.69703e-07
-8.62748e-09
2.50678e-09
0.000159021
-1.70789e-08
1.82395e-09
-5.77297e-09
3.5301e-07
-5.55518e-09
-4.48635e-09
-1.19027e-06
-2.37777e-08
-1.04952e-07
-2.67058e-07
-1.29293e-08
-1.37195e-05
8.42064e-09
1.32272e-07
-1.12898e-07
-6.64474e-07
7.18662e-08
-7.88439e-08
-1.40678e-08
-1.04405e-07
3.09997e-05
6.09204e-09
-1.82843e-07
1.34794e-05
-2.03123e-08
0.000202518
2.46022e-09
-0.000476104
-7.55575e-08
8.70665e-08
3.09668e-07
3.48635e-05
1.60789e-07
-8.68772e-07
-8.39175e-08
-1.36635e-07
-1.25058e-07
-4.53383e-07
0.000873866
-0.000481263
9.11972e-07
6.60471e-07
2.62614e-09
1.19007e-08
-8.12467e-07
6.47336e-08
-3.1902e-06
-1.29014e-07
-3.1029e-05
5.38818e-06
0.00020036
2.06149e-08
4.44604e-09
6.66982e-08
4.92931e-09
1.90251e-08
-1.25577e-08
-5.64403e-08
3.95871e-08
1.09814e-08
1.1921e-05
0.000127238
-2.57809e-07
3.74952e-08
1.27576e-07
2.28553e-05
-2.61385e-06
1.57732e-07
8.62702e-07
0.000129478
4.59297e-08
1.51591e-08
2.37832e-07
4.50437e-08
-1.57215e-08
6.29812e-06
-2.48131e-09
-1.8694e-08
4.8325e-06
-9.16622e-09
-7.84057e-06
2.29855e-09
-0.000323595
0.00023914
8.96595e-09
-5.53017e-09
7.28595e-09
3.93117e-08
1.53538e-09
-1.2781e-07
3.08792e-09
-2.48409e-09
-4.30534e-10
-2.65937e-05
1.07599e-07
0.000234483
1.4393e-09
1.2067e-07
0.000240949
-1.98799e-05
-7.91433e-08
1.49439e-09
-0.000547245
-7.9825e-08
4.86717e-08
0.0006572
-5.82999e-06
2.69692e-09
0.00132424
5.78366e-08
-2.33494e-10
-4.47829e-08
-4.98663e-05
3.20896e-09
-4.51647e-09
-2.73839e-07
0.000498305
1.07931e-07
-1.79151e-07
-2.57274e-07
3.35089e-08
6.10579e-07
8.92854e-09
-1.26331e-07
1.88791e-07
-1.89054e-07
-3.62933e-08
-3.25328e-07
2.02111e-07
-8.04928e-06
4.23195e-06
8.47838e-08
-0.00126006
3.41855e-07
5.88543e-05
1.55297e-05
-0.000123136
-1.41981e-08
1.19993e-08
-1.19207e-08
2.9862e-07
-3.25952e-09
-2.05204e-10
0.000107269
6.20305e-08
1.73973e-06
-3.03199e-09
8.1762e-08
2.70355e-06
1.48134e-05
1.81123e-07
-2.69271e-07
4.15797e-08
1.46831e-08
0.000196226
-5.62708e-06
1.17804e-06
-0.000413424
7.96199e-05
-1.93165e-08
-4.35514e-09
-1.76498e-08
2.9213e-09
4.28716e-08
0.000304118
-2.33815e-07
6.68725e-06
-4.78247e-09
2.6197e-09
-6.78445e-08
-5.0718e-09
-6.15451e-09
-8.90591e-09
8.92864e-08
7.61851e-06
-4.06531e-07
-2.56965e-05
1.18162e-10
-0.00023039
0.000415495
-2.70371e-07
-0.000693293
-2.77784e-05
4.31736e-09
-6.03063e-08
-1.89979e-05
5.07844e-10
-7.30041e-07
-1.07303e-07
-5.85256e-09
4.06722e-07
6.74143e-09
-4.29478e-09
-7.27517e-09
1.20116e-07
-3.46786e-08
-6.73745e-05
-1.03856e-07
-1.21177e-09
3.29916e-05
-2.38184e-09
-6.88838e-08
-0.00341722
3.34429e-07
4.26507e-09
-1.25119e-05
5.94533e-05
-1.84227e-09
0.000837584
-0.000671464
5.18076e-05
1.79521e-06
5.3911e-07
5.52777e-07
8.87454e-07
4.90411e-05
-1.62483e-06
3.30518e-08
7.72135e-06
-6.71872e-07
2.28071e-08
-7.47408e-09
1.6803e-07
-3.18342e-08
-2.36593e-08
5.65064e-09
-8.2889e-09
-2.9364e-08
-1.10288e-07
4.70839e-07
-7.80041e-08
-6.09854e-09
3.34876e-07
1.32278e-07
-4.02593e-08
-4.45376e-07
-6.31586e-06
1.2258e-05
3.51358e-07
-6.69614e-08
5.17883e-08
-1.55974e-07
8.21354e-08
2.01483e-07
-8.315e-09
9.05407e-06
1.03697e-08
-2.77342e-07
-1.16307e-07
-8.14833e-05
5.25815e-07
0.000152278
-1.22044e-09
-2.05994e-06
-1.78407e-07
1.86367e-08
9.82488e-06
1.82597e-09
-0.000386817
-5.29025e-09
-5.42147e-07
-1.03827e-07
2.49284e-08
-3.1897e-08
-1.00713e-06
1.05747e-07
4.52082e-06
-3.13677e-08
-4.40687e-07
3.40248e-09
-1.52277e-07
-6.6972e-05
-2.25588e-05
-0.000121591
-1.31161e-07
1.60262e-07
4.5741e-05
-5.81064e-10
-3.22253e-07
-7.03206e-08
-6.2491e-08
9.7283e-09
0.000189581
-9.69793e-06
-4.06135e-07
2.45074e-07
9.36448e-08
-5.11766e-08
-4.54715e-07
-8.38875e-08
-6.61962e-08
8.36176e-07
1.45862e-07
6.63761e-09
-1.06366e-07
-4.99973e-08
1.03695e-08
-8.92762e-08
1.03741e-07
-0.000250398
7.31416e-06
-0.000148931
1.91341e-08
-6.0308e-09
2.33189e-07
8.34702e-10
-1.04084e-08
-8.6496e-06
7.33697e-09
6.58986e-06
3.2345e-08
-2.81528e-05
3.19243e-09
4.98125e-09
8.47001e-09
-7.33719e-08
-1.25787e-07
9.14923e-10
5.36591e-06
-1.38281e-11
5.93629e-09
5.78036e-09
2.10708e-08
0.000334101
3.10765e-07
-5.88787e-07
-5.60296e-07
-0.00171495
-2.37027e-05
-3.30666e-05
-0.000161997
3.94355e-06
-5.07654e-07
-8.42874e-08
6.52345e-10
9.28591e-08
-3.28979e-09
-3.96819e-07
-7.3328e-09
-1.12261e-05
-4.41308e-09
-7.6676e-07
-6.36681e-08
1.17333e-07
-4.65486e-09
4.33566e-09
-3.01831e-11
0.000924238
-3.74639e-07
-1.50294e-07
1.7628e-07
-4.29717e-08
-1.75856e-07
-2.66038e-07
7.75898e-06
9.33474e-09
1.39271e-09
2.16834e-09
-1.609e-07
2.1157e-05
1.25967e-07
-1.54128e-06
1.6128e-08
-1.53608e-07
-0.000106555
-7.26714e-08
-2.953e-05
-9.79241e-07
2.86543e-07
0.000289509
1.51682e-08
-1.52424e-05
-2.59991e-05
-4.00655e-05
8.31607e-08
2.41811e-08
9.82142e-10
-0.000258766
-8.95802e-09
0.000211751
1.1673e-07
3.17951e-07
1.28043e-08
1.94119e-07
4.55376e-05
4.65152e-08
3.86637e-08
1.58635e-07
-1.33609e-07
1.87748e-08
-4.58643e-09
0.000379976
-2.40547e-07
-2.63467e-05
-3.99256e-08
-1.3898e-08
4.30768e-07
-0.00186817
-0.000340514
1.47433e-08
-1.03057e-08
9.206e-05
-8.75057e-05
1.9533e-08
-6.06711e-08
3.4817e-09
-2.90308e-08
1.90684e-09
-5.08232e-08
2.6064e-08
-8.09915e-05
1.70532e-08
4.45327e-08
-4.16422e-07
-0.000378604
-7.00868e-09
3.44646e-09
0.000108773
-0.000241699
-4.46335e-08
3.77495e-09
-2.75663e-05
-6.44129e-09
-4.03292e-08
1.12026e-08
-3.37192e-07
1.42224e-08
-0.000105425
-3.01595e-08
2.39389e-08
-3.27861e-06
2.3472e-05
6.68158e-05
-4.91876e-09
3.60248e-09
6.18269e-10
-1.87512e-06
-9.95089e-10
-4.59024e-07
-7.66722e-09
2.40789e-07
-2.72527e-07
0.000337404
8.47371e-05
4.27226e-07
-1.27687e-07
-2.40834e-08
3.31769e-05
-1.38202e-08
-0.000200649
-6.81669e-07
-3.68977e-07
-2.129e-08
-7.71578e-09
1.78302e-07
1.08656e-06
-1.90319e-09
4.8403e-07
-6.54302e-06
-8.71794e-07
-8.67858e-08
-3.41441e-07
2.53657e-08
8.52787e-09
9.15917e-07
-2.33076e-07
-8.08794e-09
6.20013e-09
-6.22797e-08
-1.57866e-08
-0.00022493
-2.85195e-09
0.00212937
1.17812e-09
4.41204e-06
-4.84092e-08
7.38855e-08
-0.000298973
-8.63288e-08
1.79302e-06
-5.01005e-07
1.66226e-07
-5.49453e-05
-0.000994568
0.00136125
-1.29645e-08
-0.000517299
-4.92604e-09
-5.41331e-08
-2.47817e-06
-0.000193429
7.20141e-05
-9.23139e-09
-3.7199e-07
-4.67961e-08
3.03696e-09
1.0359e-07
1.13215e-07
1.11075e-07
-3.91122e-07
-0.00037601
-2.66917e-07
5.50924e-06
1.39479e-06
7.87463e-08
4.25705e-07
3.16334e-07
5.29461e-07
0.000772899
-2.71949e-08
1.35498e-08
-5.80607e-08
-8.60541e-10
6.07806e-07
2.14269e-07
8.61461e-10
3.54971e-09
3.10486e-05
-3.70867e-06
-3.34028e-08
8.79825e-08
-3.66915e-09
5.67512e-09
6.50009e-06
1.60918e-07
5.51566e-09
-0.000650129
-1.33076e-06
2.19297e-07
1.06566e-07
2.27179e-06
0.000511979
-5.95804e-10
-6.86694e-05
-4.27122e-08
9.69263e-05
-1.55729e-09
-1.19675e-07
-1.07688e-09
-7.83365e-08
-0.000316202
1.87363e-07
-3.26069e-07
9.13359e-07
-2.43169e-08
0.00104662
-1.80848e-07
-0.000382773
-4.23857e-07
-1.07048e-07
2.49642e-06
-0.000146014
5.48477e-08
2.20534e-07
-3.13522e-06
-1.49665e-08
-1.49613e-08
-4.58459e-09
-4.20634e-08
-1.45177e-07
-3.94934e-07
7.06859e-09
-7.78122e-09
2.19834e-10
0.00118666
-1.08146e-07
-4.4725e-07
6.13356e-08
-2.99212e-07
-6.97512e-08
-0.000557984
-3.89516e-08
1.06091e-06
2.76164e-05
-1.1822e-07
-4.26739e-08
0.000593387
-4.2136e-08
-2.10145e-08
-9.93961e-09
-5.18024e-07
-8.08027e-07
-0.000734311
2.2136e-09
-1.51051e-08
2.77987e-07
-3.31694e-07
-2.83509e-07
2.22014e-06
-1.93088e-07
0.000396949
-6.86672e-07
-1.70253e-08
0.000740166
-1.10434e-06
4.83454e-08
-2.30221e-09
4.86854e-08
-1.96185e-08
-0.000100746
-9.63112e-09
4.76577e-09
3.14425e-07
-1.9905e-09
-6.46434e-09
-2.97862e-08
-0.000412608
0.000195755
-0.000699548
4.68978e-07
-3.89548e-08
6.05325e-07
-2.77431e-05
2.92895e-07
-1.92979e-07
6.77824e-08
4.3311e-07
3.39417e-05
-6.40702e-08
-5.64422e-07
7.80058e-07
1.01095e-06
-3.85851e-09
2.26383e-08
5.55707e-08
4.69963e-06
7.4567e-08
1.75982e-06
1.41264e-07
0.000686166
6.55711e-10
0.000108031
-4.0703e-11
-0.00427888
-1.78926e-07
-5.33602e-08
-1.24945e-07
7.59399e-07
-2.08782e-05
-0.000151372
-1.59125e-08
-0.000135861
6.88374e-08
-2.51209e-07
4.75775e-05
-7.69449e-08
1.24716e-07
-8.7043e-09
-2.3935e-08
-6.43873e-05
-8.21473e-05
-5.49078e-09
-2.59977e-06
-1.75796e-06
-0.000250054
6.29909e-08
-1.45087e-08
-0.000290895
1.36649e-08
-5.05617e-08
1.05409e-07
-8.63673e-09
-1.53633e-08
1.61145e-08
-3.9772e-08
-2.01604e-08
-1.80595e-08
-4.71185e-07
-1.41972e-07
-8.47705e-05
1.77348e-07
-3.01694e-08
-1.75422e-07
5.00485e-07
7.40455e-07
-4.50644e-06
-5.37259e-08
1.83601e-09
3.73432e-05
8.263e-09
7.66095e-08
-2.73367e-08
4.78562e-08
-2.96332e-11
3.69752e-07
8.96936e-09
8.05252e-06
9.60082e-09
-4.92581e-07
3.63443e-05
0.000552936
1.56536e-07
5.56188e-09
-1.75626e-08
8.66906e-06
2.98458e-08
2.63287e-07
-0.000405554
-7.51749e-11
3.84175e-08
-2.79988e-09
-0.00036156
-8.03009e-08
-6.70778e-05
2.24064e-07
-1.5706e-06
1.42515e-07
-4.51654e-09
-0.000210909
-3.12977e-07
-0.000314163
0.000193428
2.19412e-05
2.20337e-05
-1.70922e-07
2.90273e-08
-2.50196e-07
-0.000108777
-1.84602e-08
-6.4546e-06
1.0722e-06
-5.73772e-05
1.35882e-07
-3.15081e-08
-2.52147e-05
6.2621e-07
0.000273695
4.48978e-08
-1.38012e-07
6.00035e-06
1.65887e-08
6.86815e-08
7.88086e-07
-8.67811e-06
1.02229e-06
3.32918e-09
-4.56509e-08
1.3478e-06
4.0151e-05
7.28943e-09
1.22386e-05
-7.55129e-06
-3.27676e-07
-2.32516e-08
7.45562e-05
-0.000339077
5.15585e-09
6.99987e-08
-2.25474e-07
-3.9832e-06
5.06233e-05
8.30096e-09
7.52088e-08
3.58499e-08
-5.75403e-07
5.60009e-08
4.49615e-09
-2.44059e-08
-1.23252e-08
4.45e-05
-8.04038e-09
-1.08464e-05
1.21251e-08
0.000513603
8.76524e-08
6.92378e-05
-8.48633e-08
2.11449e-08
3.89532e-07
-4.03028e-05
3.3845e-07
1.98913e-05
1.05736e-06
4.96848e-05
1.56072e-07
1.50699e-06
3.32645e-09
-2.46142e-08
-0.000189619
-5.82319e-05
-1.9097e-09
1.65168e-07
4.94774e-08
9.90994e-06
6.54337e-08
3.01888e-08
1.06214e-08
9.00665e-08
2.25649e-09
6.13786e-08
-4.63151e-10
-9.67555e-07
-2.16226e-07
2.57017e-08
-1.13198e-07
-4.75698e-07
-2.75393e-08
-1.44666e-06
-1.93129e-07
-2.23886e-08
0.000109176
-9.64328e-05
-4.24085e-08
3.61256e-09
-1.6906e-08
5.32414e-08
5.03002e-08
-0.000182268
-1.66663e-08
-0.000202548
-0.000400024
-9.38377e-09
4.86271e-08
2.28587e-08
3.5741e-08
8.34272e-06
-0.000796249
2.12601e-07
-2.07043e-09
2.8074e-07
1.65622e-07
2.6856e-07
3.58859e-08
0.000272594
2.5921e-09
2.09216e-08
0.000311877
1.01995e-06
4.37088e-08
-1.81666e-09
1.56074e-07
1.78729e-09
0.000126498
-9.75521e-07
1.4632e-08
-5.59446e-08
-0.000215399
4.61818e-05
9.42013e-06
2.44426e-08
1.03922e-08
-3.1097e-07
-2.2992e-06
-8.71263e-06
2.71571e-05
3.17032e-09
7.1437e-08
5.67858e-08
7.56018e-08
-0.000158125
-5.04432e-08
-0.00023778
3.60317e-07
-0.000218508
2.7151e-07
9.21675e-08
0.000163103
2.90606e-08
-6.5344e-07
-3.35182e-06
4.71598e-09
2.7984e-08
3.86266e-08
-0.001661
-8.11617e-08
-4.59763e-08
-8.68574e-07
-2.8675e-08
-1.72179e-08
-4.20851e-09
1.95138e-07
0.000355862
0.000120052
-2.42612e-06
7.51883e-08
6.3287e-12
-1.98531e-05
-9.12405e-09
1.11715e-08
-8.85296e-09
1.01619e-05
-3.01599e-08
0.000102499
-2.4064e-06
0.000649584
1.1132e-07
3.1271e-07
3.54656e-07
-5.91913e-08
4.8046e-08
1.69234e-05
-0.000119825
4.74095e-07
8.50078e-07
-4.31081e-09
1.69477e-09
-0.00043458
-3.51123e-09
0.000462734
1.66392e-05
-2.91484e-07
4.86244e-05
-5.0104e-09
0.000198503
-1.98985e-09
5.32748e-09
0.000698982
1.12592e-08
-1.38632e-08
-3.19353e-05
0.000102803
-1.82234e-09
1.21071e-08
3.4305e-07
-0.000201587
1.5228e-08
0.000200499
3.45081e-07
-1.70532e-08
4.67061e-06
4.1544e-08
-4.30512e-07
-2.01362e-07
2.30484e-09
-1.29127e-08
0.000113295
2.72995e-06
-1.83883e-07
4.41855e-07
-5.02651e-05
-5.24347e-08
1.24386e-08
-2.07415e-08
-1.68683e-05
0.000196756
1.26414e-05
-2.73297e-07
-0.00102546
-1.23001e-05
2.75453e-08
-1.46057e-06
-1.15969e-07
5.88246e-07
-2.4708e-08
1.31312e-05
-0.000148083
3.87429e-06
0.000110517
-6.52353e-05
4.50399e-08
1.01513e-07
6.92644e-08
3.23537e-09
-1.66759e-05
8.18897e-09
0.00190933
-0.00108384
2.89508e-08
-7.96579e-09
4.76622e-07
1.77819e-07
-3.68019e-05
-1.46799e-07
2.78204e-08
5.6025e-08
6.96097e-05
2.09844e-08
-9.11732e-07
3.48065e-07
-2.17442e-08
4.47119e-08
-5.14318e-07
5.7481e-07
5.51833e-10
1.66843e-09
3.74073e-09
-0.000296962
-3.24842e-09
-4.42409e-08
-7.30645e-08
1.08397e-06
4.71771e-07
-1.61313e-07
1.09663e-08
1.16305e-07
-3.99415e-07
-3.66796e-05
1.08112e-07
-9.08134e-08
-2.15384e-05
-6.98169e-09
-1.02492e-09
1.32908e-08
-5.03602e-06
1.45102e-05
1.37599e-07
-5.48704e-05
4.97882e-05
-1.83503e-05
1.4559e-06
-0.00116994
-2.8187e-05
-0.000167755
1.06658e-07
8.14402e-09
1.34756e-07
1.88137e-09
-1.53693e-08
-0.000684547
-1.8072e-06
-4.28386e-11
-3.58463e-07
7.73036e-08
-3.01141e-07
1.07566e-07
2.78745e-07
1.45008e-07
-6.98699e-07
-7.94212e-07
-4.71402e-06
0.000839169
-3.36133e-07
1.79559e-08
8.26541e-09
-0.000172719
2.92156e-08
0.000152466
1.11867e-07
2.90098e-09
-1.99481e-07
-9.50418e-07
2.41306e-05
-9.22071e-09
-1.25489e-08
-4.63121e-09
5.3431e-06
-5.46828e-06
3.77014e-08
-8.29032e-05
-3.9195e-06
1.02757e-07
8.29201e-05
3.52486e-05
4.36005e-07
2.7439e-08
4.2453e-08
3.32172e-08
-2.95613e-05
-8.99104e-08
-2.69612e-05
0.00129534
3.11395e-07
2.04162e-09
-3.59863e-06
-3.57864e-07
3.68785e-05
1.0516e-09
1.95534e-06
1.11824e-05
8.42304e-08
0.000272586
-8.00165e-05
-0.000178118
1.25343e-06
0.000185372
1.3698e-07
2.05898e-07
3.00773e-06
-3.87481e-05
-3.01323e-08
-9.58668e-08
3.23426e-07
3.77755e-09
-2.36964e-05
-1.39166e-07
-4.00809e-09
5.41225e-05
-2.3196e-07
8.98373e-05
2.12373e-07
-2.35008e-08
-0.0010523
-0.000230403
9.06808e-05
-8.86166e-09
6.72535e-08
-9.71327e-08
-7.91617e-05
0.00023205
7.91152e-06
-6.95047e-09
-1.07921e-06
-2.5445e-08
0.000822806
1.10499e-08
-3.58886e-06
-1.05741e-07
4.84346e-06
-4.87164e-07
-0.000255606
-1.02341e-08
1.9634e-08
6.76811e-08
3.62784e-09
3.71353e-08
1.57955e-07
1.22891e-08
7.8819e-10
-2.22023e-06
8.87418e-05
2.08582e-08
-3.23501e-07
-1.79978e-07
-3.50413e-07
-0.00019003
1.64768e-07
6.47715e-08
-2.24148e-05
-5.70361e-06
-0.000316675
-1.01197e-08
-4.36594e-08
-4.4715e-07
0.000257034
7.8286e-09
6.3595e-05
-3.74624e-05
7.11161e-07
-1.26924e-08
-5.39519e-09
-1.16498e-07
8.59778e-08
-9.16352e-08
-2.56331e-07
3.342e-07
-5.98994e-07
-0.000319763
-1.21085e-09
0.000252085
-2.2286e-07
-3.42093e-05
-4.69377e-05
-1.64046e-08
-2.01551e-08
-0.00170603
5.27967e-09
2.75134e-08
-2.57479e-08
2.04913e-08
4.04035e-07
-3.31418e-09
-7.17011e-07
2.28703e-08
-6.19059e-07
5.13176e-05
1.5596e-07
1.6499e-08
1.14931e-08
1.11279e-06
0.000333874
5.79745e-08
1.10287e-07
-1.73734e-08
1.84908e-07
3.67478e-08
0.000124577
5.52824e-05
-5.39521e-07
1.74077e-07
1.08971e-06
4.71838e-08
1.09909e-07
-0.000245244
-1.99464e-07
-1.51754e-09
0.000225706
3.39609e-05
1.75797e-07
7.64045e-09
1.68012e-06
2.27327e-07
3.483e-07
0.00040786