/*--------------------------------*- C++ -*----------------------------------*\
| =========                 |                                                 |
| \\      /  F ield         | OpenFOAM: The Open Source CFD Toolbox           |
|  \\    /   O peration     | Version:  v2012                                 |
|   \\  /    A nd           | Website:  www.openfoam.com                      |
|    \\/     M anipulation  |                                                 |
\*---------------------------------------------------------------------------*/
FoamFile
{
    version     2.0;
    format      ascii;
    class       volScalarField;
    location    "250";
    object      p;
}
// * * * * * * * * * * * * * * * * * * * * * * * * * * * * * * * * * * * * * //

dimensions      [0 2 -2 0 0 0 0];


internalField   nonuniform List<scalar> 
14315
(
0.00155927
-0.103686
0.000536523
-0.0291822
-0.0291791
-0.00592598
0.00024338
-0.00833308
-0.0962027
0.00123031
0.00114443
0.00393242
-0.0857827
-0.00964404
0.00021733
-0.00845492
-0.00481466
-0.0904422
0.000327447
-0.00857178
-0.0547186
-0.00411765
0.000110105
0.00113498
-0.121602
-0.0112285
-0.0987754
0.00122566
-0.0986668
0.000195714
-0.0516965
0.000256432
-0.155845
0.000250282
-0.0161169
0.000247545
0.000236519
-0.0157701
0.000186284
-0.0209594
-0.0964446
-0.0115607
-0.0261456
-0.0742973
-0.0702841
-0.0331306
0.000268724
0.00120707
-0.00854483
-0.0257374
0.000224878
-0.0772139
0.000295314
0.000761448
0.000306258
-0.017936
0.00392604
0.00106791
-0.0110933
-0.124268
0.000713564
-0.0327469
-0.0482953
0.000439653
-0.00378226
-0.00207419
0.000646185
-0.0506899
-0.0152423
0.000239021
0.00070674
0.000429274
0.000562467
-0.0126057
-0.00410186
-0.00753026
0.000446141
-0.039631
0.000237511
-0.0749436
-0.00233356
0.0160754
-0.00813047
0.000427934
0.000302572
-0.106606
-0.0696791
0.000565275
0.000581494
0.000746483
-0.0623326
-0.0800416
-0.0846598
-0.00066638
0.000115813
-0.00229637
0.000296316
0.000115674
5.85688e-05
-0.0112424
-0.00622734
1.03019e-05
1.9302e-05
-0.0270981
0.000580304
-0.00468301
-0.0204325
-0.0439465
-0.0205323
-0.0705021
-0.0333106
-0.0644941
-0.00288702
-0.0885251
-0.00393273
-0.0754119
-0.0241809
-0.0158849
-0.133335
0.0155639
0.00122818
-0.0049488
0.000296447
-0.0542017
-0.0775303
-0.00366268
0.00430603
0.00177061
-0.00180932
-0.00641206
-0.0592151
-0.118991
0.013206
0.00677001
-0.00680307
-0.00157058
-0.121201
-0.086303
-0.101335
0.00301883
-0.0706481
-0.0777009
0.000203936
-0.117196
-0.158822
-0.0121561
-0.00278714
0.00108583
-0.0609903
-0.0694739
-0.00647732
7.23746e-06
0.000383881
8.62575e-05
0.000282975
-0.0200715
-0.0257808
0.000129893
0.00499181
-0.073235
-0.0346477
-0.0131784
-0.155736
-0.0605666
0.000170517
-0.102692
4.06185e-05
-0.0307399
0.000123533
-0.00559577
-0.134615
-0.076595
-0.0298847
-0.0351291
-0.107896
0.0130324
0.00366793
-0.00349269
-0.0659352
-0.0839544
-0.151533
-0.0531238
-0.00630179
-0.0199294
-0.0530921
0.0158725
-0.0346
-0.0356032
-0.000229356
-0.0619835
-0.0101972
0.00944669
-0.100744
3.8776e-06
0.000118705
-0.0197771
0.00569534
-0.0060761
-0.0352991
-0.0579037
-0.155409
-0.00482839
-0.000243478
-0.0120144
-0.0292572
-0.00378191
-0.0106166
-0.074664
0.000197714
6.36134e-06
-0.000402792
-0.0126833
-0.084527
-0.0302825
-0.155692
-0.0384719
-0.0702567
-0.00615746
-0.00652035
0.000129159
-0.0771297
-0.0172572
-0.0782223
0.0117404
-0.0380558
-0.0316259
-0.0229237
-0.0591279
0.000240717
-0.0331746
-0.0191999
-0.125838
0.00020437
-0.000144787
-0.0267336
-0.0367146
-0.0726912
-0.0269814
-0.0112984
-0.119434
-0.130983
-0.0533306
-0.00213208
0.0114752
-0.0758625
2.17055e-05
-0.12859
0.000299744
0.000221137
-0.000923188
-0.0259036
0.000714474
-0.147059
0.00026816
-0.00870681
-0.130777
-0.131393
-0.0647281
-0.158784
-0.0115293
-0.00170512
-0.0282127
-0.0379103
-0.142204
-0.0393301
-0.0799399
-0.0177254
-0.153074
-0.0527272
-0.0503811
0.00365635
-0.000701566
-0.00042091
4.86471e-05
4.74675e-05
0.000274904
-0.0889945
8.35382e-06
-0.0292003
-0.0513892
-0.00405496
-0.0614731
-0.00700989
-0.0461851
-0.02855
-0.0947053
-0.104847
-0.039939
0.000168494
0.000755187
-0.0876216
-0.0046377
0.000134129
-0.0788204
0.000194373
-0.013602
0.000341417
-0.152599
-0.0090505
0.00304029
-0.053759
-0.00961067
-0.0102227
-0.0243007
-0.0299051
0.000381552
-0.0276922
-0.0544367
-0.0389233
-0.0488033
0.000175573
0.000181026
-0.0512363
-0.067778
-0.0174447
-0.0772043
0.0146944
-0.000945457
-3.13204e-05
-0.0985423
-0.0144654
-0.0109636
0.000669498
-0.00873741
0.000731601
-0.0418456
-0.0711391
-0.0036706
0.00646923
0.000316906
-0.0887146
-0.075628
-0.0801905
-0.0834879
-0.129719
0.000100859
0.00118392
-0.0341833
-0.108341
-0.0203171
-0.0493121
-0.12902
-0.0768146
0.000654549
0.000105267
-0.0973323
-0.156455
-0.0950634
0.000195228
-0.019605
-0.125682
-0.0818196
-0.00421898
0.000175739
-0.046037
-0.0714413
-0.0526134
-0.11669
-0.128117
0.000315977
-0.05117
-0.156815
0.000249918
0.000561246
0.000240465
-0.0393154
-0.0667405
-0.0107413
-0.0272744
-0.00366351
-0.0992027
-0.155655
-0.049804
-0.076933
6.27991e-05
-0.00867709
0.00530732
-0.158638
-0.0488732
0.00088833
-0.0193183
-0.00748413
-0.089553
0.00300042
0.000195931
-0.0677729
0.0010534
-0.0285155
-0.126138
-0.0734357
-0.107158
-0.0311552
0.000490143
1.0011e-05
-0.0064686
1.91939e-05
-0.000308167
-0.036713
-0.0058809
0.00340127
0.000574338
-0.0045296
-0.0134046
-0.032961
-0.131154
-0.0799934
-0.128045
-0.0644742
-0.0645535
-0.0479802
0.000229021
-0.00878733
-0.000833684
-0.156015
-0.058339
-0.0369697
-0.0310856
-0.0676545
-0.0275084
0.00603673
0.00090566
-0.0987314
-0.0755332
-0.0100524
1.09697e-06
-0.0498347
-0.0629649
-0.0131817
0.00148113
-0.100785
-0.0721653
0.000916235
-0.00394393
-0.0661921
0.00331557
0.000235858
-0.0979333
-0.0785062
-0.062506
-0.00538356
-0.0905493
0.000195819
-0.00511827
-0.0745221
-0.115058
-0.0856898
0.000199785
0.000199031
0.000184653
-0.00491939
0.00242989
-0.0037329
0.01463
0.0053726
0.000205727
-0.158518
5.0997e-06
3.86324e-05
-0.0394768
-0.0141695
0.00451098
1.39512e-05
-0.0636923
-0.140987
-0.0891847
7.7931e-06
-0.0916848
-0.107232
0.00406428
0.000983821
-0.0847051
-0.0324151
-0.0134676
-0.0273329
-0.00156384
-0.0435973
-0.073886
0.0038072
-0.0192053
0.00102822
-0.000109376
-0.00417303
0.014002
-0.0189477
-0.0297183
0.00682114
-0.0861639
-0.00652095
-0.103693
-0.0342012
-0.109115
5.19618e-05
-0.00403501
-0.0164337
-0.115671
-0.065946
-0.0776401
-0.00852812
-0.0356739
-0.00352288
-0.157527
0.000676577
-0.0856828
-0.000877948
-0.0489666
0.000680534
6.58081e-07
0.000197503
-0.0410584
0.000453925
-0.063152
-0.0182273
-0.0288484
0.0160908
0.00051819
-0.0643145
-0.0393664
-0.0139688
-3.42478e-05
0.00177446
-3.53865e-05
0.000511729
0.00180616
-0.0894005
-0.155732
0.00426592
-0.0490917
-0.0680063
-0.0875436
-0.00158417
-0.0255703
-1.83104e-06
-0.0113036
0.000142039
-0.000690575
-0.00692504
-0.0415218
0.00016958
-0.141318
0.000174956
-0.00195573
-0.087213
-0.157682
0.00041377
-0.00112866
0.000409337
8.83908e-05
-0.00507839
-0.0933124
-0.000864163
0.000437636
-0.00491096
-0.000544249
-0.00356843
-0.0799802
-0.0153171
-0.00888481
-0.0504696
-0.00640062
-0.00128849
-0.0258568
0.00549038
-0.0596729
-0.12021
-0.0878437
-0.00510366
-0.0212462
0.000413655
0.0140099
-0.000241084
-0.00284306
-0.00334096
0.000153375
0.000298173
-0.0343668
0.00303085
0.000826794
-0.00890308
-0.0867551
-0.0887682
-0.0174529
-0.117389
-0.00655493
3.23548e-05
0.000122051
-0.0883988
0.00014131
0.000235341
-0.00350504
0.00459044
0.000204562
-0.00231663
-0.0607418
0.00822398
-0.132888
-0.157208
7.28577e-05
0.000258278
-0.130018
-0.0471317
-0.0788993
-0.00633787
-0.00996486
0.00116098
0.000132102
-0.0147024
-0.00849682
0.0038227
-0.00906444
0.00011729
-0.0772596
9.03326e-05
-0.0409787
0.000391979
0.000186005
-0.0146113
0.000131022
-0.0842894
-0.0130064
-0.0137128
-0.141683
0.000580505
-0.0723994
-0.14883
0.00228757
0.000931733
-0.0141285
-0.0922471
-0.0470935
0.000103055
-0.157523
-0.0761409
-0.0265993
-0.105485
-0.00268503
-0.038982
-0.000523454
-0.0369859
-0.0123611
0.000179671
-0.0722993
-0.00609985
-0.0456828
-0.0174022
-0.0645863
-0.0848088
0.00157765
-0.0166953
0.00319293
0.00157335
-0.00054953
-0.0156558
-0.127544
-0.00342057
-0.069103
2.88119e-06
-0.123315
-0.00960332
-0.0709346
-0.00432889
0.00633326
-0.00197845
-0.0510548
-0.157631
-0.0385253
-0.000601159
-0.159109
-0.0474681
-0.00193719
-0.00941548
-0.0826933
0.000611413
-0.127109
-0.00496292
0.00142195
2.83957e-05
-0.0524609
-0.0297342
0.0119561
0.000186398
0.000387375
-6.3468e-05
0.00212491
-0.0485866
-0.121497
0.0131329
-0.0248559
-0.0138787
0.000191747
-0.0150485
8.39259e-07
-0.0804391
-0.021173
-0.00329374
-0.00812895
-0.000543692
-0.00825877
-0.00806562
-0.085277
-0.116849
0.00012727
-0.0240777
0.000745367
-0.0216547
-0.016948
-0.0891497
3.05167e-08
-0.00888543
-0.157645
-0.10618
0.000128055
-0.00549445
-0.000790466
-0.105126
-0.0310059
0.000322857
0.012411
8.1403e-05
6.88163e-05
-0.0783804
-0.0172804
-0.00938527
-0.141949
-0.0862545
0.00308272
-0.0146889
-0.00158548
0.00227737
-0.0730685
-0.109016
0.000804606
-0.0782341
-0.0727987
-0.083353
-0.0851205
-0.109912
-0.106394
-0.00478862
-0.035564
-0.0669115
-0.00277364
-0.00914165
2.28541e-06
-0.0595481
-0.156404
0.000499718
-0.0298047
-0.0329171
0.0151975
0.000110773
-0.0101586
7.54285e-05
-0.0595368
6.53906e-06
-7.2843e-05
-0.0930441
-0.0891158
-0.112411
-0.0180788
0.000112937
-0.152442
0.00147756
-0.158315
-0.0456284
-0.0642048
-0.116923
0.000212241
-0.00496324
-0.0702031
0.00575918
-0.0216218
0.000205243
-0.0333144
0.000145671
-0.00338323
-0.00131114
-0.0886304
0.000179837
-0.024692
-0.139395
-0.011633
-0.0830205
0.000173072
-0.0166392
-0.00847901
0.000181209
-0.124346
-0.132283
-0.0148756
-0.00486412
-0.00423692
-0.110917
-0.0048326
-0.00336083
-0.0505609
-0.000436885
-0.134193
0.000154838
0.000887868
-0.00463508
0.000126138
-0.0657025
-0.000864804
0.00485959
-0.00629008
-1.63646e-05
5.52215e-05
3.21154e-05
-0.000829851
-0.00874754
-0.0310802
-0.0235467
0.00603817
-0.129288
-0.00515741
-0.0426768
0.000598459
-0.0183865
0.000131803
-0.0523029
-0.0772975
-0.144294
-0.00181475
-0.00589707
-0.0326894
-0.00854141
-0.0322499
-0.00074475
-0.0577333
0.00272535
-0.0375921
-0.0430421
-0.0258759
0.000694021
-0.0830372
-0.0874822
-0.0263485
-0.00492655
-0.152461
-0.0648213
0.000242621
-0.0783666
-0.0783185
-0.00318888
0.000169641
-0.0539067
0.000143998
0.00590179
-0.0056592
-0.000114677
-0.0154843
-0.00364056
-0.0618234
0.00432176
-0.0291428
0.000531642
0.000982251
-0.0113876
-0.113716
0.000378646
-0.04505
7.71555e-05
-0.00598363
-0.0678525
-0.0234932
-0.00381766
-0.0378463
-0.0777885
-0.0130392
0.000290775
-0.0377703
0.000212663
-0.0112333
-0.15021
-0.0109339
0.000141709
1.76529e-05
-0.00873414
0.00501273
0.00523061
-0.062819
-0.0668283
0.000156399
-0.158854
0.0104746
-0.0856114
-0.0683183
-0.00451875
-0.15589
-0.000802336
-0.00467812
0.000774771
-0.0335176
-0.000153279
0.0154416
-0.0181746
-0.00334872
9.39713e-05
-0.0157964
-0.061284
-0.00109927
-0.0926661
0.000105272
-0.0943247
0.000694256
-0.102616
0.000169146
-0.0816769
-0.00183616
0.000696024
-0.00889426
-0.0324808
-0.000809998
-2.06049e-05
-0.0204158
-0.0399408
-0.000213836
0.000116769
-0.0649801
0.000160896
0.000387577
0.000118445
-0.0179003
0.000717169
-0.051736
-0.00457622
-0.0736589
0.000308194
-1.92118e-05
0.000156544
-0.059862
-0.0625842
-0.00347232
0.00481477
-0.106104
-0.0181744
0.00713484
-0.00220893
-0.119338
-0.0309519
-7.3792e-06
-0.0248527
-0.0335543
-0.0873594
-0.000690372
0.0145039
-0.156825
-0.134969
-0.0429885
0.00493546
-0.0199548
0.00960912
0.00739858
0.00047726
-0.01376
-0.155389
-0.0403303
1.63098e-05
-0.107404
-0.0499262
-0.0964678
-0.00440265
-0.0594997
0.000546724
-0.0689864
-0.00230425
-3.16556e-05
0.00012034
-0.00320148
-0.0243597
-0.114632
-0.00372672
0.000163618
-0.00120194
-0.105563
-0.0165636
3.84251e-06
0.00127794
-0.00486303
-0.0262655
0.000144711
-0.0288575
0.00706765
-0.0560005
-0.0676141
0.00075464
0.00128346
0.000318009
-0.0635674
0.000375263
-0.00652688
0.00159149
-0.0254759
-0.0564577
0.00385287
-0.0129009
-0.00430677
-0.00548347
3.1175e-06
-0.112776
-0.028888
-0.0489936
-0.0174213
0.00501811
0.000388722
0.00465787
-0.0870234
-0.00115511
0.00160124
-0.0707115
-0.0846051
-0.0729158
-0.00157338
0.00451953
-0.00105123
-0.0187773
2.49083e-05
-0.0135039
-0.0550285
-0.0589251
-0.0352944
-0.10731
-0.0503311
-6.66076e-05
-0.118081
-0.00368512
-0.017462
0.000199416
-0.0560414
-2.80449e-05
0.000191016
-0.0295244
0.000560015
0.00569412
-0.000635716
-0.00432734
-0.0628315
-0.0479711
0.000138195
-0.00152999
-0.0795584
-0.0544261
-0.0445273
0.000150004
-0.0170117
-0.0432878
-0.154164
-0.0697702
-0.103614
-0.0124518
-0.0485193
0.00172413
-0.00107707
-0.00305106
-0.0396642
-0.0044075
0.000545386
0.000808228
-0.0210562
-0.0369282
0.000555082
0.00853725
-0.0327228
-0.0777991
-0.090431
-0.153961
-0.0186301
-0.0877412
-0.0343466
-0.0159429
-0.0374191
-0.133939
-0.0903047
0.0018389
-0.0111702
-0.0880586
-0.0535418
-0.0747129
0.000679269
0.000279804
-0.00400285
-0.024355
-0.0184479
-0.0129489
0.00289017
0.00865256
-0.0735057
0.00154567
-0.0131144
-0.0335914
-0.00320489
9.06346e-05
-0.0406384
-0.000569345
0.00925061
-0.0243109
-0.0640926
-0.0637598
-0.00186704
-0.157653
-0.0909773
-0.0628612
-0.0298359
-0.0781939
0.000272392
-0.0129089
-0.0549394
-0.00323323
0.000286416
-0.0881033
-0.0593686
0.0082688
-1.1075e-05
0.000417327
0.000583318
0.00124725
-0.00125025
0.00543414
-0.000291784
0.000136364
6.28876e-05
0.000118853
-0.0880305
-0.00886541
5.47698e-06
-0.115498
-0.156786
-0.0233556
-0.013875
-0.0607934
-0.0378968
-0.0651162
-0.085861
-0.00407319
-0.00656396
-0.0034883
-0.0857845
-0.0124801
-0.0826498
-0.0953254
0.000160328
0.00029229
-0.0789231
2.8727e-06
0.000269513
-0.159205
-3.20893e-06
-0.00109127
0.000757458
-0.104217
7.46771e-05
0.00107062
-0.00124113
-0.00341726
0.00063499
-0.15891
-0.0865674
-0.00388643
0.00027916
-0.133879
-0.0744372
0.000351064
-0.0340396
0.00015765
-0.0441622
-0.00149735
-0.0251311
-0.00589858
0.000274264
-0.0799527
-0.00937086
0.000273214
-0.00323884
0.000637555
9.28998e-05
0.00071413
0.00136969
0.000329661
-0.0087642
-0.042139
-0.0141366
-0.00115703
-0.00790061
-0.043318
-0.0468724
-0.0567394
-0.00152642
-0.0143858
-0.0107893
-0.00371452
-0.159773
0.000378505
-0.0142281
-0.158586
-0.00335336
-0.0838283
4.10635e-06
-0.0909856
-0.0146504
-0.00211836
-0.0617555
-0.0726613
0.000656445
-0.0597562
0.00110005
-0.0173159
-0.021504
-0.063777
-0.103526
0.00625027
-0.0663977
-0.0660496
0.000283243
-0.00431755
0.0014694
-0.0308425
-0.0755567
-0.0256386
-0.117962
0.000399404
-0.0790453
-0.00375918
0.000256094
-0.00267397
-0.0171484
0.0009499
-0.00334612
-0.012535
9.04296e-05
0.000700181
-0.0961627
-0.111822
-0.0270676
7.07847e-05
-0.0129455
-0.158464
-0.000255481
-0.0611036
0.000212624
-0.0865511
-0.00206795
-0.00779681
-0.0228433
-0.00419375
-0.00898655
-0.0959305
-0.00141207
-0.00798474
0.000365879
-0.00234406
-0.0858645
0.000102085
-0.107071
-0.112445
-0.0131548
0.000718953
0.000763301
0.00158591
-0.0249881
-0.00533217
8.55507e-06
0.000315547
0.00260093
-0.156587
-0.0187342
-0.0750125
-0.0050302
0.000134308
-0.129407
-0.000166597
-0.0035828
1.06958e-05
-0.1431
-0.00733294
-0.050883
-0.136133
0.00040801
-0.00164139
0.0116871
-0.0353256
-0.0013447
-0.0102385
-0.136106
-0.00123412
-0.0013806
-0.0653376
-0.12144
-0.0689505
-0.0491791
-0.00427808
-7.48007e-06
0.000597464
0.000106854
0.00227333
-0.0722552
-0.00854028
-0.00573788
-0.0584844
-0.0551899
0.000517813
-0.0700414
-0.0171303
0.00144135
-0.0501492
-0.159972
-0.0866892
-0.143577
-0.00372434
0.0015883
-0.0142091
-0.0262592
-0.00195626
-0.00285596
-0.098346
-0.0701029
-0.0690624
-0.00164425
-0.013213
-0.0851577
-0.161631
-0.0450034
-0.025972
-0.0166466
-0.0203115
-0.141966
0.00409441
-6.3931e-05
-0.0751502
-0.0858684
-0.00720618
-0.00205238
-0.00326304
0.000127353
-9.0919e-06
-0.109489
-0.0580488
-0.122775
0.000136566
-0.00357079
0.00139751
-0.00446942
0.000122197
-0.00339846
-0.0607843
-0.0930602
-0.055229
3.02117e-05
-0.00181405
-0.124491
0.00526206
-0.0808858
-0.120094
-0.000509132
-0.00436467
-0.00344516
-0.107512
4.21128e-07
-0.0588765
-0.00046716
-0.0085616
-0.0560171
0.000306206
-0.00378585
-0.00148774
-0.00345093
-0.00841778
-0.102809
-0.0180198
0.000289077
-0.0854207
-0.00183058
0.00212212
-0.121604
-0.0443953
0.000318796
-0.104321
0.00039763
-0.00141668
-0.105023
-0.100341
0.000822816
0.00364655
-0.0035882
-0.0715043
-0.0704383
-0.00594841
-0.0864118
-0.0245493
-0.0702192
-0.0442408
-0.000558864
-0.0107796
-0.063163
0.0019871
-0.00535037
0.00031632
0.000327742
-0.00769057
-0.00437249
-0.0685687
-0.0278518
0.000328829
-0.0634989
-0.0129855
0.00101154
-0.0837589
-0.0812909
-7.85726e-05
0.0025029
-0.0135226
-0.00776756
0.00250126
-0.010001
-0.0250029
0.000772558
-0.0963508
-0.00179442
0.00358277
-0.0490879
-0.130252
-0.0688998
-0.155119
0.000276468
-0.0392461
-0.0223722
-0.00515869
-0.0741774
-0.00175621
0.00214081
-0.00144402
-0.0558243
-0.0133549
-0.000562542
-0.0161194
0.0044691
-0.0269271
-0.157882
-0.00841519
-0.0696933
7.95297e-06
-0.0214622
-0.0951976
-0.10859
0.00495021
-0.0272897
-0.0392325
-0.103437
-0.00341941
0.00335306
-0.0273281
-0.0185149
-0.000436224
-0.0626644
-0.0842753
-0.158347
-0.0498377
-0.0135763
-0.0137886
-0.0800124
-0.0156964
-2.25447e-05
0.0040097
0.00319791
-0.00470433
-1.28792e-05
0.00101253
-0.00433444
-0.0146098
-0.000607575
-0.0512696
-0.0836093
-0.116152
-0.012477
-0.00822844
-0.0248061
-0.00355683
-0.00723815
-0.098597
-0.0111947
-0.0962957
-0.0126663
-0.0708976
-0.00477659
-0.00702892
0.000591307
-0.015336
-0.0192351
-0.000168986
0.0052833
-0.00129591
-0.0105641
0.000306797
-0.0362062
-0.121554
-0.0898904
-0.00574026
-0.00455993
-0.101693
0.00230493
-0.0003112
-0.1525
-0.0954725
-0.0844579
-0.0236855
-0.00194387
-0.013852
-0.0103619
-0.0808792
0.000482802
0.001219
-0.0095993
-0.000140048
-0.00392909
-0.0317344
-0.00452932
0.000294989
0.000518808
0.00381524
-0.0760503
-0.00421278
-0.0212003
-0.0163665
-0.000125143
-0.0824327
-0.0934335
-0.00320295
-0.00305347
1.16862e-05
0.00382207
-0.105236
-9.13193e-05
-0.0901995
-0.0265214
-0.0402609
0.0123615
-0.0232966
-0.104115
-0.0449301
-0.0226109
-7.73211e-05
0.000685092
-0.000897612
-0.0870798
-0.124715
-0.013443
-0.000681104
-0.00144743
-0.0747909
7.79537e-06
-0.118538
-0.0620971
0.00183912
-0.0374584
-0.053886
-0.106424
-0.0111952
-0.0145931
-0.0295844
-0.0568087
0.0011811
-0.00777044
0.00319777
-0.0827406
0.00206116
-0.0603077
-0.0076118
0.00193141
0.0104328
-0.125314
-0.010775
-0.0172024
-0.111205
-0.130783
0.000178011
0.000117501
8.2448e-05
-0.00841468
-0.00595873
-0.00362963
-0.0295437
-0.0889955
-0.0126818
-0.00918604
-0.0870348
-0.0389303
0.000408728
-0.00573011
-0.148278
-0.149466
0.000635296
0.000552935
-0.000281931
7.59349e-05
-0.0172857
-0.00572654
-0.0745673
-0.00779872
-0.104052
-0.0169553
0.000131137
-0.0828392
-0.158629
-0.0268482
-0.00730602
0.000238774
3.4654e-06
-0.0759583
0.000187428
0.00147518
-0.00163002
-0.0583402
-0.0576876
-0.124089
-0.132042
-0.0549749
-0.0286723
0.000286075
-0.000367281
-0.000413994
-0.00041526
-0.0739585
-2.45302e-05
-0.00795645
-0.00448595
-0.0465257
-0.0612912
-0.00198256
-0.0661037
0.00985859
-0.0788884
-0.00328223
0.000467923
0.001272
-0.00344284
-0.0603848
-0.0362429
0.000367259
-0.00696615
-0.0178239
2.32198e-05
0.000966642
-0.00214381
-0.130356
-0.00403633
-0.103241
-0.0138381
-0.0316795
0.0107991
-0.0180077
0.000713737
-0.0719167
-0.0254929
-0.111821
-0.12604
-0.000121405
-0.0103837
-0.102808
-0.0043629
-0.00846998
-0.158361
0.00521106
-0.158239
-0.00478833
-0.0301945
-0.0190442
-0.00308905
-2.87389e-05
-0.0105922
-0.0224131
0.00327516
-0.0467328
-0.0673113
-0.0667816
-0.0331371
-0.0622035
0.000153982
-0.0416109
-0.0556785
0.00569822
-0.025053
-9.69185e-08
7.12062e-05
0.000266208
-0.0573642
5.69154e-05
0.000137857
3.39617e-05
-0.0919594
-0.000212746
-0.0350119
-0.00367285
6.45665e-06
-0.0162975
-0.0836899
-0.0195865
-0.0304297
-0.0903868
-0.0727859
-0.0259589
-0.0220061
0.00427546
-0.00182812
0.000257944
0.00365593
-0.0475852
-0.000914655
-0.0019278
-0.00416347
-0.00213105
-0.0364414
-0.147551
-0.0219655
-0.0494237
-0.0666569
-0.00827323
-0.000372873
0.00270834
-0.0923083
-0.0826408
-0.0258481
-0.0822108
-0.145435
-0.0691003
-0.0287558
0.00070084
-0.00798776
-0.00457293
0.000189164
-0.0747417
0.000145985
4.82273e-05
-0.00168549
-1.12408e-05
-0.00176797
0.00438092
-0.0570506
-0.0489254
-0.013151
-0.00438639
-0.0545525
-0.0763323
-1.35576e-05
-0.0597231
-0.156234
-0.0126674
-0.0510421
0.00734344
0.000734328
-0.0106722
-0.00804704
0.000419283
-0.0610818
-0.0912015
-0.00249228
-0.0215101
-0.0242167
0.00342049
-0.0372304
0.000641367
-0.0148481
-0.00195149
-0.0621778
-0.00791617
0.013062
0.000425446
-0.0108455
0.000277723
-0.00446883
-0.0110495
-0.103288
0.000361726
-0.00239808
-0.0355199
0.000272392
0.00122987
-0.00950192
-0.0826199
0.00564625
0.0113075
-0.0655456
-0.0329632
-0.0656101
-0.0841171
-0.0263918
-0.0557743
-0.0163885
-0.0237887
-0.158449
-0.0134749
-0.0432347
0.00136576
-0.0482611
0.000106646
-0.000681202
-0.0373456
-0.0927186
-0.0126218
-0.0646367
-0.0236617
-1.94888e-05
-0.0116434
-0.134098
1.38151e-06
-0.139036
-0.0234156
7.92685e-05
-0.000131864
-0.0491832
-0.154061
-0.0781161
-0.0311183
-0.153496
-0.0286513
-0.0780227
-0.157199
-0.0322632
-0.0326087
9.19387e-05
-0.0061752
-0.131311
-0.155181
-1.8018e-05
-0.154948
0.00149197
-0.15274
-0.0640527
-0.00806644
-0.15247
-0.0174791
-0.0141227
-0.011795
-0.00451334
-0.00774241
-0.0679799
-0.00546493
9.52656e-05
0.0007627
-0.0723963
-0.0303377
-0.0889079
-0.021472
-0.00224315
8.13906e-05
-0.0356341
-0.00201773
-0.115493
-0.0110964
7.47792e-06
-0.0919042
-0.0199034
-0.0106526
-0.00859073
-0.0455319
-0.0037305
0.00330069
-0.00557523
-0.156491
-0.0045917
-0.0559293
-0.0520622
-0.100272
-0.0213479
0.00031243
-0.0138775
-0.126139
-0.0107375
-0.0260829
0.0154091
0.000315994
-0.0301932
-0.00377097
-0.150746
-0.0175815
-0.118477
-0.0233192
-0.00309357
-0.00589396
0.000416495
-0.15325
-0.0695135
0.0152554
-0.00120921
-0.129108
0.0114088
-0.0313937
-0.00458561
0.00350749
-0.126782
-0.016523
-0.157265
-0.0468346
-0.134572
-0.0260739
-0.00503652
-0.156726
-0.00974821
0.00446546
-0.0102247
-0.055649
-0.127194
0.00119083
-0.0021396
0.000681068
0.00281855
-0.0636266
0.000189331
-0.00881308
-0.0678509
-0.087985
-0.0169027
-0.00751672
-0.158684
-0.0682915
-0.00783005
-0.10051
-0.151215
-0.00284139
-0.00278885
-0.0379801
-0.0670905
-0.0744563
0.00110958
-0.0329097
-0.01669
-0.000380494
-0.0125594
-0.0070268
0.0014298
-0.0105902
-0.127475
-0.00434932
-0.129406
-0.00175413
-0.0852131
-0.0415763
-0.0930767
0.0016882
-0.00926635
-0.0489568
-0.100089
-0.0182075
-0.158144
-0.0625376
-0.10671
-0.0205724
-0.0667794
0.000118276
-0.0123574
-0.145174
-0.122691
-0.00209762
-0.0129449
-4.34774e-06
-0.156493
-0.00644569
-2.99885e-05
-0.00541833
-0.0165822
-0.00266467
-0.0160065
0.000267903
-6.27154e-05
-0.058884
-0.0127476
-0.0548605
-0.0814708
-0.0245064
-0.059602
-0.049237
-0.00118302
-0.0844175
-0.146466
-0.00334347
9.41676e-05
-0.0106573
-1.09507e-05
-0.00143853
-0.150217
-0.00318968
0.000564938
-0.151232
-0.00158813
-5.27527e-06
-0.0120824
6.76534e-05
-0.14464
0.00493653
-1.08798e-06
3.19291e-05
-0.026476
-0.0216176
-0.0695875
0.00108304
-0.105074
-0.00022147
-0.00672754
-0.0758919
-9.88971e-05
-0.00436704
4.13764e-05
-0.0426596
2.18976e-05
-0.00148542
-0.0354213
-0.00261118
-0.00523478
-0.147352
-0.117115
-0.156571
-0.00237689
-0.00141783
-0.0523896
-0.0810783
-0.000148388
-0.104366
1.99114e-05
-0.0222888
-0.00257766
-0.00977047
0.00218195
-0.0358672
-0.0536491
-0.0676315
-0.0228285
-0.052404
-0.00744363
-0.102995
-0.0428179
-0.0770977
-0.000220248
-0.0102143
-0.00765744
-0.0676067
0.0159607
-1.1757e-05
-0.0235478
-0.0852624
-0.00808561
-0.0075207
0.00104579
-0.0227016
0.0115401
-0.0880218
-0.0746438
0.000389228
-0.00581109
-0.0967053
-0.00218881
-0.0110367
-0.00119817
-0.101172
-0.0383677
-0.149514
-0.0684892
-0.00150649
-0.0336439
-0.0353162
-0.0336797
0.00176302
-0.0115582
-0.00551787
-0.125337
-0.0472645
-0.0708293
-3.87565e-05
0.000101589
-0.121153
0.000336177
-0.150892
0.00955242
-0.0755071
-0.156546
-0.0240258
0.0033317
-0.00586338
0.000311566
0.00561459
-0.00111542
-0.00288278
0.00403843
-0.117968
-0.00558222
-0.0110972
-0.0406246
-0.121696
-0.0259625
-0.0823687
-0.059099
-0.00101796
-0.0969959
-0.0336119
-0.0460751
-0.0430865
-0.00742557
-0.050467
0.00172224
-0.0820374
-0.0261733
-0.0340709
-0.00744482
-0.0137602
-0.0161891
-0.00190251
0.0018207
-0.0732829
-0.15781
-0.0283016
0.00667903
-0.107632
-0.0253003
0.000930093
-0.0179137
-0.0679644
-0.00763158
0.000721039
-0.10748
-0.157371
-0.12908
-0.153331
-0.0326718
-3.08703e-05
-0.0169658
-0.00139585
-0.0965308
0.000106433
-0.128628
-0.125612
-0.0083489
-0.00453144
-0.0324072
-0.0281336
-0.107376
-0.00104229
-0.00642314
-0.0135384
-0.0477041
-4.09317e-06
0.000632611
-0.0506427
-4.71907e-05
-0.0135696
-0.074224
-0.0592263
-0.000413347
-0.0102519
-0.00461715
-0.0934124
0.000301781
0.00062343
0.00129324
-0.0708075
-0.130799
-0.000137196
9.73862e-05
-0.00571009
-0.0590091
-0.100311
-0.0062345
-0.00396617
-0.0750664
-0.00103134
0.000246924
-0.000516865
-0.0920306
-0.162756
-3.95931e-05
-0.149914
-0.097867
-0.103399
0.00166943
-0.0903246
-0.100525
-0.0801638
-0.0238073
-0.00469634
-0.0325421
-0.00111983
-0.0111028
-0.0819887
-0.157776
-0.00300132
-0.0689853
-0.00063609
-4.04777e-05
-0.000854337
-0.0280823
-0.0273696
-0.0807318
-0.00592109
0.000132198
-0.109108
-0.00329478
-0.0162123
-0.00277368
-0.0799924
-0.00845193
-0.0919232
-0.0835578
0.0011178
-0.0229877
-0.082647
-0.102356
-0.00220712
-0.0163069
-0.00491382
-0.0837449
0.00151161
-0.0153215
-0.152417
-0.0661949
-0.0122581
-0.0935378
-0.106623
-0.0485839
2.52627e-05
-0.00981444
-0.0112896
0.000169398
0.00254045
-0.154368
-0.00108165
-0.0640834
-0.0204734
-0.0902276
-0.0844365
-0.00046916
7.28304e-05
-0.0714767
-0.157047
-0.0252332
-0.136619
-0.106252
-0.117274
-0.0767357
0.0050599
-0.053012
-0.00986948
-0.0804737
-0.00107866
-0.0194712
0.000407094
-0.0434577
1.1127e-05
-0.111702
-0.0270465
-0.00172997
-0.107603
-0.0339779
-0.0995566
-0.0579399
0.00155976
0.00312436
-0.138109
-0.101
-0.00917306
-0.0114943
-0.0106393
-0.118506
-0.0856
-0.000576801
-0.000195293
-0.0671225
-0.0782291
-0.12406
-0.0171551
-0.106598
0.00112858
-0.0938538
-0.0726113
-0.0434929
-0.0400119
-0.0105733
-0.0122433
-0.00517007
4.48608e-05
-0.0210661
-0.00934552
-0.000993684
-0.093864
-0.104843
-0.0119868
-0.0645295
-0.0236717
-0.0975151
0.00519746
-0.0215099
-0.0317339
-0.127376
-1.77293e-05
-0.000951373
-0.00499981
-0.0963129
-0.0801392
-0.109963
-0.0054393
-0.0879406
-0.122865
-0.0691546
-0.00800265
0.000424396
-0.017474
0.000888287
0.00107429
-0.0718066
-0.0761825
3.35937e-05
-0.137265
-0.00279577
-0.0731782
-0.0372481
-0.101756
-0.110532
-0.0284881
-0.0120147
0.00290336
-0.00251392
0.000125571
-0.0368381
0.000468576
-0.0716351
-0.0229685
-0.0742192
-0.00637441
-0.0997771
-0.108611
-0.0406646
-0.00956005
-0.00537514
-0.0759799
-0.115123
-0.00249395
-0.0257439
-0.00164274
-0.0751394
-0.0279925
-0.0917214
-0.101447
-0.0614284
0.00180655
-0.0779959
-0.0614189
-0.0128493
-0.142042
-0.0830193
0.000233497
-0.145849
0.002809
-0.0543076
-0.00588271
-0.0800158
-0.0248449
-0.0637558
0.00661953
-0.102778
-0.0230872
-0.00793202
-0.0844242
-0.0845415
-0.108878
-0.0759462
-0.0249078
-0.115609
-0.158964
-0.0059452
-0.0816396
-0.00376671
-0.000846041
-0.0348026
-0.0817143
-0.0818671
-0.0083087
-0.124722
-0.00665724
-0.00114958
-0.150819
-0.0423941
-0.00427456
-0.0477245
-0.00597214
-0.00450305
-0.135548
-0.055679
-0.0169179
-0.0784077
-0.00248711
-0.0448312
-0.020417
-0.0803399
-0.00247881
-0.0749292
-0.088619
-0.00423078
-0.0407827
-0.00484761
-0.013877
8.81167e-05
-0.0685227
-0.032714
-0.10691
-0.0932394
-0.00530055
-0.0159753
0.000102734
-0.09021
-0.0918664
-1.60981e-05
-0.0230313
-0.076396
-0.0254386
7.36845e-05
0.000824798
0.000398913
-0.000214164
-0.0626466
-0.0014573
-0.0117512
-0.0909864
0.000118692
-0.0726582
-0.0700944
-0.0258868
-0.073445
-0.0777482
-0.0629828
-0.0956777
-0.120319
-0.126142
-0.0994437
-0.0214948
-0.103578
-0.0715418
-0.0218068
-0.00700346
-0.00455367
0.00115947
-0.00199602
-0.019805
0.000154372
-0.0188388
-0.0566687
0.00168195
-0.152932
-0.0575157
-0.0557681
-0.100645
-0.0788308
-0.0164556
-0.0872208
-0.117149
0.00124231
-0.0868946
-0.00702035
-0.0893334
0.00151933
0.00300639
0.00015502
-0.0480969
-0.101932
-0.0810947
-0.079707
-0.0742709
-0.0161574
-0.0479108
-0.027506
0.00864949
-0.0768467
-0.0548609
-0.119695
-0.116203
-0.00403213
-0.0808321
-0.0287539
-0.0643956
0.00175933
-0.0106206
-0.071583
-0.0737592
-0.0629855
-0.0737817
-0.00181163
-0.0805778
0.000478783
-0.0657815
-0.0692739
-0.159041
-0.0814205
0.00370565
0.000190015
-0.156989
-0.0716347
0.000167591
-0.0834431
-0.0568013
-0.000207699
0.000747395
0.00184981
0.000170045
-0.0467401
-0.13236
-0.00593425
-0.0222887
-0.0119116
-0.151453
-0.00106584
-0.0881968
-0.0869976
-0.00090377
-0.0133799
-0.0723864
-0.0044445
-0.073982
-0.0588895
0.00722768
-0.0239344
-0.0486964
-0.0822266
-0.0639179
-0.0652914
-0.0192604
0.000244945
-0.108739
-0.159063
-0.0994655
0.000218569
-0.119866
-0.0729693
-0.00113936
-0.0177881
-0.0219368
-0.0222684
-0.12868
0.000829314
-0.00172551
-0.06475
-0.00134297
-0.0131578
-0.0716195
-0.000826712
-0.0158924
-0.144172
-0.158983
-0.0749851
-0.0362697
-0.0586173
9.54376e-05
-0.00596306
-0.0838203
-0.0632646
-0.0697121
-0.0836696
-0.0943408
-0.0186406
-0.00509995
-0.0135629
-0.0607617
-0.0155873
-0.111774
-0.0866011
-0.105743
-0.0512363
-0.022376
-0.0926543
-0.0202722
-0.0909622
-0.00566609
-0.0218175
-0.026057
0.0020997
-0.0591377
-0.0206024
-0.00427068
0.000345061
-0.00355695
-0.0736465
-0.0924799
-0.0601046
-0.0938642
-0.00728824
-0.0144689
0.00723353
-0.00804952
-0.024537
-0.0741515
0.00356254
-0.156948
-0.0388823
0.000139952
-0.050106
5.35104e-05
-0.092135
-0.0756339
-0.0605957
-0.0811944
-0.147385
-0.00822178
-0.0912488
0.000272773
-0.0936052
-0.0838427
-0.024574
-0.157112
0.000280609
-0.0027939
-0.0235996
-0.0766299
-0.0136046
-0.000360871
-0.0701338