/*--------------------------------*- C++ -*----------------------------------*\
| =========                 |                                                 |
| \\      /  F ield         | OpenFOAM: The Open Source CFD Toolbox           |
|  \\    /   O peration     | Version:  v2012                                 |
|   \\  /    A nd           | Website:  www.openfoam.com                      |
|    \\/     M anipulation  |                                                 |
\*---------------------------------------------------------------------------*/
FoamFile
{
    version     2.0;
    format      ascii;
    class       surfaceScalarField;
    location    "250";
    object      phi_0;
}
// * * * * * * * * * * * * * * * * * * * * * * * * * * * * * * * * * * * * * //

dimensions      [0 3 -1 0 0 0 0];
oriented        oriented;


internalField   nonuniform List<scalar> 
21240
(
-0.359559
0.569387
-0.209828
-0.0455686
0.1575
-0.111931
-0.160387
-0.344801
0.505187
0.25183
-0.181734
-0.0700965
-0.0914973
0.250438
-0.158941
-0.258348
-0.214597
0.472945
0.616515
-0.481947
-0.134568
-0.253332
-0.118956
0.372288
0.0455864
-0.0670301
0.0214437
0.569829
-0.476921
-0.0929077
-0.640789
0.373718
0.267071
0.387137
0.023356
-0.410493
0.192898
-0.0236202
-0.169278
0.14188
0.23645
-0.37833
0.499836
0.116679
0.0168903
-0.347358
0.330468
-0.385662
0.535857
-0.150195
0.0373299
-0.0320951
-0.00523484
0.411027
-0.5695
0.158474
0.281406
-0.264516
0.00694175
0.145372
-0.152314
0.0773323
-0.40766
0.330328
-0.669665
0.476252
0.193412
-0.309428
-0.331361
0.0442564
0.0479111
-0.0921675
0.322185
-0.0580828
-0.264102
0.172377
-0.0621997
-0.110177
0.422844
0.146985
0.15571
0.0166676
-0.574302
0.616854
-0.0425521
-0.0532375
0.153095
-0.0998574
0.628549
-0.165293
-0.463256
-0.00261627
0.00538987
-0.00277359
0.626547
-0.453526
-0.173021
-0.0347523
0.242125
-0.207373
0.103992
0.524557
0.410481
0.146379
-0.556861
-0.3009
0.266148
-0.740092
0.391982
0.34811
-0.188857
0.282193
-0.0933365
0.0719346
-0.0263483
-0.184693
-0.134247
0.31894
0.0125657
0.17279
-0.185355
-0.109205
-0.0186603
0.127865
0.240163
-0.138428
-0.101735
0.294157
-0.162197
-0.13196
0.352449
-0.512835
0.579129
-0.156285
0.456767
-0.208875
-0.247892
0.234838
-0.222272
-0.160114
0.570595
0.00128203
-0.119835
0.118553
-0.69775
0.375884
0.321867
0.391891
-0.565226
0.173335
-0.440266
-0.257484
0.217737
0.0765742
-0.294311
0.373054
-0.274907
-0.098147
0.666415
-0.492199
-0.174216
-0.0388444
0.36103
0.110379
-0.0661228
0.625032
-0.233141
0.154723
0.139434
-0.168375
0.191778
-0.0234029
0.210308
-0.621724
0.411416
0.396606
0.0911196
-0.487726
-0.379992
0.551603
-0.171611
-0.491725
0.146924
0.0868416
-0.140079
-0.358716
0.171193
0.187524
0.672765
-0.568773
0.199347
-0.651262
0.451915
-0.612572
0.220209
0.392363
0.17444
-0.566568
0.392128
0.262671
0.092547
-0.355218
0.626118
-0.437866
-0.188252
0.46167
-0.222218
-0.239452
-0.402264
0.245355
-0.043396
-0.201959
0.538834
0.133931
-0.0420028
-0.0629161
0.104919
0.557898
0.0144401
-0.572338
0.0741743
-0.313244
0.239069
0.27331
0.183458
0.640987
-0.420779
0.781488
-0.405604
0.106355
-0.0519482
-0.0544073
0.0850698
0.155093
-0.621752
0.15987
0.461882
-0.447312
0.665004
-0.465657
0.180397
-0.0451066
-0.13529
0.0290282
0.00420773
-0.033236
0.025951
0.166947
0.068557
0.488014
0.597462
-0.607927
0.010465
0.553793
0.0041049
0.420699
0.360788
0.463357
-0.673086
0.209729
-0.250367
0.638064
-0.387697
-0.382616
0.197923
-0.401978
0.545962
-0.143984
-0.439579
0.592946
-0.153366
-0.35767
-0.311994
0.0475988
-0.23819
0.190591
0.582595
-0.422725
0.356183
0.0751731
-0.431357
-0.318662
0.129805
-0.228123
0.195918
0.0322043
-0.025361
0.218323
-0.192962
0.1276
-0.136019
0.00841925
-0.184728
0.252112
-0.0673835
0.115338
-0.00181965
-0.113518
0.36442
-0.379854
0.0154339
0.132468
0.00129034
-0.133758
0.357079
-0.279747
-0.120915
0.122197
0.333827
-0.177744
-0.156083
-0.116592
0.078657
-0.000793335
-0.0778636
0.280596
-0.206422
0.145486
0.433643
-0.583291
0.197629
-0.198344
0.60937
0.25675
-0.136821
-0.119929
-0.0475816
-0.0514603
0.0990418
0.558443
-0.26577
-0.292673
0.0354229
0.115372
-0.150795
-0.533236
0.173677
0.615288
-0.377268
-0.23802
-0.559418
0.15744
-0.0484458
-0.088991
0.137437
0.149624
-0.0301434
-0.119481
-0.308015
0.206721
0.101295
-0.0959963
0.205371
0.256299
0.360022
0.255266
-0.0428607
0.000158046
0.0427026
0.155443
-0.0229752
-0.0098829
-0.119437
0.12932
0.189825
-0.154402
-0.196976
0.151413
0.0455637
-0.0831013
0.0355197
-0.152681
-0.421621
0.14933
0.00029432
0.0023611
-0.00462692
0.00226582
-0.0949681
0.35764
-0.0672888
0.431709
0.356988
0.152492
-0.13811
-0.0143816
-0.015417
0.143017
0.400868
0.145094
-0.279075
0.706993
-0.427918
-0.604414
0.280322
0.324092
-0.478005
-0.10344
0.581445
-0.674497
0.510815
0.163682
0.242075
-0.267436
-0.260136
0.167416
0.09272
-0.626373
0.148368
0.299578
0.0734754
0.0801898
-0.122193
-0.175825
-0.0142489
0.190074
-0.217994
0.353078
-0.135084
0.00366018
-0.024152
0.152395
-0.128243
0.398655
-0.631764
0.233109
0.0238909
0.0824645
-0.318055
-0.422036
0.118982
-0.18472
0.0657377
0.6005
-0.12603
-0.474471
-0.553584
0.295236
0.0799426
-0.00128566
0.0434341
-0.0319556
-0.0114785
-0.308069
0.146595
0.161474
-0.0120344
-0.191735
0.203769
-0.0616683
0.0911402
-0.0294719
-0.321071
0.101395
0.219676
-0.117337
0.504474
0.174672
0.383771
0.0177355
-0.159558
0.141822
0.0233064
-0.142236
0.118929
0.00407827
0.00381653
-0.0078948
0.0999513
0.156799
0.504715
-0.103847
0.200006
-0.293924
0.093918
-0.152741
0.159682
-0.225184
-0.0880599
-0.244716
0.0599875
-0.188762
-0.055954
0.0643417
0.328626
-0.392967
0.158462
-0.00597011
-0.278976
-0.0864315
0.365407
0.276278
-0.0352559
-0.241022
0.108907
-0.0018063
-0.107101
-0.39653
-0.210512
0.607042
0.637213
-0.173856
0.334373
-0.150731
-0.183643
-0.371498
0.263197
0.487479
-0.213817
-0.273662
-0.180544
0.00471851
0.104398
-0.152844
0.00495726
-0.00757353
-0.501968
0.358618
0.143351
-0.647989
0.20841
0.267273
-0.362242
0.148205
0.103625
-0.542038
0.286686
0.255352
-0.303585
0.0246093
-0.126661
0.0174555
-0.119107
0.618943
-0.18142
0.625208
-0.443789
-0.334646
0.398987
-0.241623
0.33417
-0.0688578
-0.0735543
0.142412
-0.0769978
0.19598
0.0037146
0.00167526
-0.14651
-0.0528557
0.199366
0.0269206
0.0683108
-0.0952314
-0.36267
-0.196747
0.161167
0.343548
0.593285
0.00721562
0.026576
-0.103647
0.0770709
-0.0823384
0.300075
0.0962817
-0.0697057
-0.214234
-0.0937808
-0.00654435
0.251899
0.0411221
0.186354
-0.227476
0.154127
0.1797
-0.154607
0.130455
0.414811
-0.613154
0.112315
-0.273726
0.161411
0.201127
0.133246
0.0129312
-0.111824
0.0988926
0.484371
-0.131922
-0.367584
-0.179315
0.546899
0.08077
0.193582
-0.274352
0.231886
-0.20714
-0.0247453
0.108295
-0.126956
-0.26202
0.0823077
0.179712
0.229376
-0.355954
0.126578
-0.00613671
-0.036724
0.0217829
0.0259205
-0.0477034
0.0465189
0.0864598
-0.132979
-0.569213
0.189221
-0.11435
-0.0645682
-0.0390787
0.456581
-0.667534
0.210953
-0.0132532
0.035036
-0.748897
0.29736
0.451537
0.539171
-0.12436
0.468207
-0.603278
0.135071
-0.15588
-0.104256
-0.446043
-0.205218
0.0117486
-0.031375
0.0196264
-0.403419
0.549798
0.126424
-0.379755
0.0536178
-0.105793
0.0521748
0.0537167
-0.0466756
-0.00704104
-0.138617
0.100388
0.0382292
0.00350953
-0.00114842
-0.0980164
0.36529
0.396435
-0.228655
-0.16778
0.168912
0.0783294
-0.247241
0.0451798
-0.19169
-0.0307365
0.0424851
0.180341
-0.00220017
-0.17814
-0.117186
0.0194887
0.0976969
-0.322272
0.137276
0.184996
0.00939037
-0.00666167
-0.146079
-0.0613733
0.148215
0.370583
-0.28349
-0.0870928
-0.414618
0.483175
0.679265
-0.372421
-0.306844
0.619978
-0.163397
0.656405
-0.58713
-0.069275
0.128149
-0.610096
-0.0890733
0.115429
-0.0263554
-0.603522
0.324448
-0.15394
-0.0880569
0.241997
-0.161421
0.154759
0.508703
0.117415
0.0142855
-0.482706
0.198561
0.284145
0.131756
0.016674
-0.14843
-0.240813
0.149316
-0.05968
0.00550186
0.0541781
-0.139349
0.129466
0.223959
-0.0259742
-0.197985
-0.423437
0.595308
-0.171871
-0.453849
-0.11057
0.564418
-0.0500156
-0.0532961
0.103312
-0.199869
-0.302099
0.537475
-0.138819
-0.0332996
-0.0634595
0.0967592
0.177815
0.439039
-0.351403
0.133409
0.7531
-0.351891
-0.401208
0.000294525
0.00333086
0.281777
0.142669
-0.424446
-0.413512
0.125548
0.287964
-0.225693
0.170923
0.0547698
0.342478
0.0609156
-0.403393
0.409692
-0.267812
-0.321954
0.14421
-0.243074
0.0613403
-0.255475
-0.348938
-0.214421
-0.125742
-0.0244783
0.204819
-0.151077
-0.0172982
-0.693944
0.286561
0.407383
-0.270991
-0.422953
0.164363
0.0166742
-0.181037
0.130926
-0.146342
0.294543
-0.206479
-0.0880641
-0.0373854
0.0668282
-0.0294428
0.212335
0.0682611
0.237991
0.158444
0.544458
0.111947
-0.0362497
0.00724109
0.0290086
0.353022
-0.125394
-0.227628
0.117117
0.255272
-0.37239
0.650609
-0.496705
-0.153903
0.428128
-0.146351
0.241566
0.423438
0.213993
-0.00866597
-0.205327
0.0920133
-0.0650927
-0.0668665
0.463472
-0.0949803
0.32027
0.43283
-0.0453059
0.0130704
0.0322355
-0.0959108
0.0313426
0.0341915
-0.00516326
-0.0820616
0.0772887
0.00477299
-0.110707
0.0649015
0.045805
0.54086
-0.487353
-0.0535068
0.585214
-0.418053
-0.167161
0.224098
-0.111783
-0.0919016
0.0302334
0.344262
-0.125939
0.103276
-0.164649
0.00605665
0.0615953
-0.0676519
0.0284708
0.0149633
0.00944692
-0.389479
0.380032
0.490244
0.0506157
-0.0380647
0.00181499
-0.000984951
-0.00174239
0.00272734
-0.00494209
-0.062088
-0.564961
0.404847
0.193531
-0.0929248
0.0989815
-0.0822841
0.000222411
0.4535
-0.649933
0.196433
-0.610339
0.186903
-0.0220865
0.153842
-0.111906
0.126349
-0.0798303
0.0918873
3.41e-05
-0.0919214
0.111875
-0.0582574
-0.428627
0.141231
-0.175808
0.0345766
0.00248796
-0.00347292
0.679578
-0.297851
-0.381727
0.421652
0.160943
0.33454
0.345039
0.171103
-0.0215308
0.152456
0.349511
-0.120135
0.249553
-0.167245
0.487243
-0.55411
-0.00754738
0.116455
-0.00347518
0.000912425
0.00256276
0.0220379
-0.170167
0.148129
-0.0558921
0.0185066
0.508418
0.0290561
0.0759387
-0.350977
0.275038
-0.493622
0.317523
0.176098
-0.00330806
-0.000167118
0.00162827
-0.120529
0.1189
-0.447661
0.491946
-0.0442852
-0.196587
-0.125685
-0.234448
-0.248258
-0.109943
0.0208695
-0.31904
-0.138723
0.457763
-0.46768
-0.14266
-0.0377915
0.165575
-0.127784
0.347493
0.237721
0.254396
-0.175849
-0.0785467
-0.078634
0.142362
-0.0637284
-0.103844
-0.0228165
0.0792261
-0.104554
0.0253275
0.121189
-0.28234
0.161151
0.60782
-0.445886
-0.161934
0.484046
0.0243724
0.435221
-0.229849
0.530293
-0.490559
-0.0397336
0.449715
0.229549
0.185993
0.0458923
0.204987
0.230233
0.394383
-0.0757835
-0.3186
-0.149456
-0.417112
-0.0903391
0.446523
-0.197011
0.262963
-0.0659523
-0.137097
-0.136629
-0.0491112
0.0729349
0.0233468
0.101128
-0.088197
-0.00871958
0.124057
-0.0379978
-0.126165
0.164163
-0.139305
0.140934
-0.665308
0.392639
0.272669
-0.271419
0.144937
0.389089
-0.534026
-0.00388227
0.000164673
0.0037176
-0.117034
-0.0375739
-0.245114
0.0563523
-0.18688
-0.127282
0.145018
0.0162056
0.074839
-0.393227
0.318389
-0.156768
0.504261
-0.0489877
0.0716695
-0.0226817
-0.0974554
0.0345393
-0.0484098
0.390887
0.47293
0.149309
-0.622239
-0.0275924
0.191955
-0.175009
0.137011
-0.331986
0.0903636
0.15391
-0.571963
0.0855494
-0.131118
0.0803759
-0.00877603
-0.0715998
-0.339055
0.348502
0.599215
-0.332213
-0.267002
0.214988
-0.185075
-0.0299136
0.331514
-0.448851
-0.278687
-0.386621
0.0229469
-0.105054
-0.012132
0.0466638
0.133733
-0.176265
-0.377319
-0.0363882
0.146705
-0.110316
-0.663144
0.385565
0.277579
0.30489
0.0537274
-0.0292093
-0.0667014
0.104293
-0.0124053
-0.118873
-0.485329
-0.114439
0.500004
-0.215656
-0.33194
0.547595
0.122146
0.309482
-0.431629
-0.499763
0.333586
0.166177
0.333445
0.319578
-0.107242
0.356804
-0.281965
0.314363
-0.428802
-0.00548995
-0.000773796
0.00626374
0.310463
0.255629
0.370918
0.219765
-0.182372
-0.0373927
0.297654
-0.198618
-0.0990358
-0.322073
0.433087
-0.111015
0.492909
0.0373835
-0.0681817
-0.0704355
0.087645
-0.0198401
-0.0678049
-0.132256
0.00672988
0.125526
-0.609338
0.0385695
-0.00123952
0.0775032
-0.0243632
-0.0531401
0.315349
0.079034
-0.535782
-0.0170135
0.552796
0.170027
-0.052388
-0.117639
-0.0759845
-0.206356
-0.392104
0.22461
0.167494
0.249682
0.388938
-0.53171
0.142771
-0.165251
-0.0628717
-0.121877
0.0180331
-0.129408
-0.284104
-0.134046
-0.153925
0.287971
-0.148105
-0.387677
0.274038
-0.641622
-0.0945831
0.548083
0.221315
0.0982628
-0.104115
0.304121
-0.22564
0.0716998
-0.287989
-0.105238
-0.0998814
0.123188
-0.458162
0.170708
0.287454
0.151335
0.00616468
0.210551
-0.222585
0.0626235
0.0148797
0.212697
-0.463064
-0.345458
-0.19658
0.209969
0.0845739
-0.0984004
-0.0085742
0.106975
-0.163956
-0.0992173
0.0659177
0.262307
-0.381264
0.224392
-0.0383988
-0.572059
0.0446778
0.527381
-0.00159053
-0.00389942
0.44708
0.133208
-0.580287
0.0509005
-0.0390885
-0.011812
-0.117731
0.585938
0.218028
-0.0466575
-0.171371
-0.434804
0.584798
-0.149993
-0.102414
0.575344
0.469433
-0.632751
0.163318
0.188019
-0.457539
-0.164185
0.0155505
0.199438
-0.212977
0.289552
-0.162484
0.0261406
-0.197021
-0.355935
-0.13325
0.489185
-0.172529
0.14446
0.0280682
0.0582839
0.173645
-0.231929
0.0760204
-0.273031
-0.546364
0.507859
0.0385045
0.552581
-0.176052
-0.376529
-0.605252
0.0588886
-0.566629
0.22081
0.345819
0.373198
0.179383
-0.0360745
0.00397943
-0.00299258
-0.000889686
0.342596
-0.31924
0.0355834
0.156194
0.113111
-0.0194398
-0.0936707
-0.0131259
-0.03218
0.0181543
-0.496608
0.478454
-0.149165
-0.464509
0.631104
-0.166595
-0.265499
0.15977
0.424191
-0.583961
-0.586711
0.252065
-0.259602
-0.200542
0.0397986
0.160744
-0.722913
0.305285
0.417627
0.0529715
-0.0370463
-0.0159252
-0.436352
0.65525
-0.293796
-0.361455
-0.0468671
0.0337411
0.000204794
0.00228317
0.501712
0.139275
0.343403
0.0339557
-0.377359
0.680932
-0.17922
0.544682
-0.609693
0.0650112
-0.496601
0.320336
-0.0492435
-0.0104365
-0.243308
0.485259
-0.360385
-0.124874
0.406329
-0.284182
0.520852
0.0107916
-0.531643
-0.00719218
0.494436
-0.164643
0.134029
0.0306141
0.207739
-0.325437
0.117698
0.30097
0.0873723
-0.388343
-0.0354703
0.176701
0.41563
-0.244922
0.393977
0.00892777
-0.206035
0.197108
-0.247363
-0.246259
-0.175481
0.0318752
0.143606
0.0934355
-0.0455243
-0.0486791
0.0801559
-0.0314768
-0.210004
0.485785
-0.275781
0.0628227
-0.260382
0.19756
0.104636
-0.558162
0.278051
-0.176656
-0.0527382
0.29073
0.560233
-0.205539
-0.354694
-0.572059
0.216793
-0.269531
-0.377137
-0.259085
0.102746
0.156339
-0.501515
0.314676
0.186839
0.0855386
0.458483
-0.544021
0.120811
-0.39032
0.26951
0.134498
0.0209453
0.0405172
-0.0274468
-0.314221
0.107437
0.206783
-0.0521436
-0.07756
0.129704
0.194729
0.0655885
-0.260318
-0.331758
0.605796
0.364215
-0.0107206
-0.0253539
-0.641457
0.418159
0.223297
-0.64611
0.181601
0.483446
0.0810613
-0.564507
0.277489
0.079315
-0.586787
0.411604
0.0423481
-0.453952
0.061138
0.0631302
-0.246957
0.342913
-0.0959566
0.0338376
0.019879
0.00399426
-0.00447474
0.000480478
0.587063
-0.110811
0.638964
0.00937851
0.0601256
-0.0695041
-0.161439
0.195155
-0.033716
-0.0453745
0.0661987
-0.0208242
0.124808
0.241264
0.108247
0.442417
-0.0686989
-0.641501
0.392807
0.248695
0.360619
-0.152881
-0.112417
0.413387
0.374124
-0.0587743
0.386391
-0.325476
-0.65621
0.189316
0.466893
0.110065
0.00169463
-0.11176
-0.241735
-0.414475
-0.0726526
-0.12789
0.515195
0.165737
-0.521368
0.305713
0.316902
-0.25024
-0.0666626
0.509693
0.0877687
0.0234787
0.0274219
0.211136
0.0865185
-0.219638
0.349722
-0.130084
0.0304725
0.0571725
0.129324
0.0991705
-0.0246013
-0.0745692
-0.0305661
-0.0043781
0.0349442
-0.253104
-0.246659
-0.464674
0.122112
-0.34175
0.143424
-0.148037
0.0046125
-0.122632
-0.414902
-0.193024
-0.00287165
0.00307645
0.0221101
-0.0735704
0.163204
-0.154276
0.0655434
-0.0416525
0.374342
0.185891
-0.22742
0.176718
0.0507014
0.475131
0.0457212
-0.151259
-0.107826
-0.206636
-0.149318
-0.669771
0.39878
0.123333
-0.0150376
-0.42563
0.211033
0.179321
-0.0340741
-0.145247
-0.288807
0.0893294
0.199478
0.1163
-0.0159119
0.156797
-0.0222993
-0.620854
0.287613
0.333241
0.122253
-0.307713
0.18546
-0.450878
0.131838
-0.258419
-0.362435
-0.639808
0.42973
0.210078
0.0967423
-0.302613
0.205871
-0.00327801
0.104406
-0.083225
0.566671
0.0278266
0.085284
0.143554
0.441981
-0.585536
-0.108777
0.357564
-0.1163
-0.036489
0.115854
-0.0793651
-0.216498
-0.329039
0.545537
-0.142328
0.0983579
0.358122
-0.538337
0.180214
-0.139383
-0.0136311
0.0120406
0.00833785
0.211427
0.563955
-0.336763
-0.227193
0.00885008
-0.00802885
-0.000821232
0.174045
0.0439838
0.530417
-0.172295
-0.166943
0.0352204
-0.108775
-0.289
-0.27763
-0.0506314
0.108567
-0.0579353
-0.47307
0.263066
-0.320614
-0.154693
0.475308
0.582467
-0.253842
0.199615
-0.162538
-0.0370772
-0.0727301
-0.170344
0.0620433
-0.269256
-0.400515
0.35549
0.128881
-0.604032
0.577649
0.026383
-0.144211
-0.305172
0.449384
-0.189031
0.0741606
-0.12259
0.0484298
0.324808
-0.103494
0.197711
-0.28119
0.0834789
-0.151401
-0.240703
0.201245
0.381222
0.288299
0.0286037
0.476675
-0.579089
0.0364445
-0.0322368
0.0789936
-0.263311
0.184318
0.0211784
0.288389
-0.309568
-0.115196
0.377503
0.389024
0.174932
-0.383315
0.268119
-0.0628796
0.221888
-0.159009
0.14093
0.0290964
0.00589222
-0.107047
0.540985
-0.433938
-0.0781632
0.275874
0.445163
-0.61367
0.168506
-0.198348
0.26117
-0.310572
0.228233
0.0718671
-0.125163
-0.0304356
0.50711
-0.0461613
0.432553
0.000708511
0.00328575
-0.0215317
0.100758
0.323421
-0.502736
-0.197985
-0.296844
0.494829
0.519237
-0.3743
0.043709
-0.0411285
-0.00258044
-0.246727
0.0712629
0.175464
0.35795
-0.4912
0.0848121
0.239996
0.104613
-0.412846
0.308233
-0.608176
0.276418
0.110762
-0.000696591
-0.36694
0.23981
0.12713
-0.257519
0.108913
-0.0333338
-0.0755788
-0.0792577
0.0305786
-0.119364
-0.315869
0.115519
0.200351
-0.431959
0.450114
0.131822
0.309103
-0.440925
-0.111678
-0.0144945
0.126172
0.0457998
-0.0178192
-0.0279806
-0.555273
0.101424
0.0839877
0.0267739
0.0857135
-0.00533767
-0.00130533
0.104257
0.0381552
0.0201961
0.0256037
0.0159429
0.0277661
0.417503
-0.566843
0.14934
0.0399474
0.184445
-0.0982486
-0.0222992
0.120548
-0.207477
0.302211
-0.443276
0.141065
0.566601
-0.423046
-0.12814
0.0391492
-0.00478104
-0.49513
0.134745
0.187042
-0.038837
0.280088
-0.0737446
-0.206344
0.0952101
0.182841
0.650886
-0.407059
-0.243827
0.293531
-0.101917
-0.191614
-0.59267
0.44384
0.14883
-0.147007
-0.0284747
0.126376
-0.648074
0.207144
0.440931
0.0151266
0.0234428
-0.0208729
0.164297
-0.0810565
0.138725
-0.0576682
0.124752
-0.311731
0.186979
-0.28323
-0.389856
-0.00369146
0.0057716
-0.00208014
-0.597994
0.254489
0.343505
-0.0025894
0.000555449
0.00203395
0.0350197
0.144302
-0.125865
0.0548185
-0.00642772
-0.0483908
0.0879322
0.349729
-0.437661
0.116847
0.322668
-0.439515
-0.0934862
-0.0157849
0.109271
0.302861
0.157673
-0.460534
-0.181389
0.402849
-0.314916
-0.14398
-0.671214
0.263385
0.407829
0.114025
0.325615
-0.43964
0.162138
-0.540855
0.378717
-0.0147246
-0.0419197
0.0566443
-0.732927
0.511682
0.221245
0.0627428
0.168018
-0.23076
0.0430965
0.0658161
-0.265963
0.20788
-0.0640074
0.0906277
-0.0266203
-0.405192
0.108382
-0.307394
0.199012
-0.276378
0.422254
-0.145876
-0.191059
-0.541868
0.0474755
-0.0981069
0.0595002
-0.0501217
0.102782
-0.168696
-0.327905
-0.286899
-0.159979
0.446878
0.0142647
-0.0953212
-0.344842
0.46169
0.440068
-0.326043
-0.140224
-0.451205
-0.136361
0.587565
0.000209952
0.0592902
-0.319562
-0.351652
-0.373828
0.459367
0.41735
0.056034
-0.473384
0.675464
-0.185666
-0.489798
-0.100068
-0.597499
0.45724
0.14026
0.453223
-0.324607
-0.128616
-0.073889
0.268618
0.111216
-0.499582
0.388367
-0.2275
-0.440034
0.494447
-0.383231
-0.447016
-0.150484
-0.145141
0.447352
0.059397
0.220691
0.0820747
-0.235238
0.153163
0.47587
-0.29407
-0.1818
0.0829338
-0.0397984
-0.0431354
0.310811
0.102577
-0.413388
0.200008
-0.0546244
-0.145383
-0.566519
0.277519
-0.209123
-0.0796842
0.287946
0.387518
-0.019756
-0.16204
0.181796
-0.0330264
0.117014
0.0224054
-0.164342
0.429608
-0.265266
0.0996216
0.207872
-0.307494
0.0189308
-0.198166
0.179236
-0.226078
0.163199
0.176127
-0.134096
0.419882
-0.285786
-0.188216
0.152895
0.035321
-0.440122
0.301398
-0.198802
0.187252
0.267691
-0.0741098
0.224297
0.426312
0.0336453
-0.0976527
0.0595607
0.0289942
-0.0885549
-0.201275
0.273803
-0.0725283
0.420568
-0.109757
-0.00053534
0.00435187
-0.158314
0.178508
-0.0201947
-0.66599
0.279099
0.386892
0.0214537
-0.0256663
-0.0793872
-0.327207
-0.0783354
0.405542
0.648747
-0.343461
-0.156578
-0.366875
-0.299116
0.193209
0.28266
-0.411802
0.111161
-0.517388
0.406227
-0.19965
0.296392
-0.277745
0.564431
0.193519
-0.177968
0.0533425
0.320781
-0.143398
-0.0822422
-0.556701
0.199598
0.357103
-0.302489
-0.264029
0.269401
-0.367418
-0.0140436
0.0586483
-0.0446048
-0.365719
0.594147
-0.228428
-0.158731
0.136645
0.387399
0.27736
0.13827
0.0696268
-0.0919259
0.189658
-0.267821
0.612841
-0.612841
-0.191356
0.166878
0.0378208
-0.148325
0.110504
0.0158231
-0.0444916
-0.364586
-0.228084
0.0323806
0.0965337
-0.722942
0.391003
-0.318548
0.114907
0.203641
0.00879569
-0.0131738
-0.107162
0.376563
-0.0875512
0.556984
0.22032
0.399658
0.15175
-0.32913
0.440851
-0.111721
0.106623
-0.428695
-0.0305481
0.0304988
0.0659508
0.711323
-0.296326
-0.414997
0.00281877
-0.00266663
-0.000152143
-0.0574607
0.139352
0.0750092
-0.0615834
-0.0134258
-0.0303033
0.181716
-0.119564
0.536914
0.00960077
-0.00868835
0.459936
-0.629673
0.169737
0.473537
-0.593366
0.400826
0.19254
0.194309
-0.175378
0.211102
0.381844
-0.218989
-0.0589894
0.277979
0.264998
-0.0140484
-0.25095
-0.394496
0.0573281
-0.1059
0.168886
0.1899
-0.636915
0.161461
-0.0643128
-0.0971478
0.503301
0.134763
0.0461886
0.00543084
-0.0516195
-0.195527
-0.361174
0.0154567
0.0500867
0.282569
0.428754
0.114349
-0.0948608
0.181069
0.474182
-0.583936
0.243226
0.34071
0.209188
0.0843431
-0.157044
0.618296
-0.169418
-0.448878
-0.436489
-0.141379
0.577868
0.231442
-0.275577
0.0441351
-0.169136
0.145993
0.38887
-0.534864
-0.698903
0.415673
0.121008
0.0652951
-0.186304
-0.382749
-0.340193
0.169334
0.345861
-0.413064
-0.285839
-0.31629
0.121252
0.195038
-0.545374
0.166945
0.0326704
-0.491752
0.323056
0.0699612
-0.376506
-0.192994
-0.641631
0.231207
0.410424
0.418164
0.177143
0.113997
0.0127868
-0.126784
-0.0275011
-0.125504
0.153005
-0.569297
0.232372
0.336925
-0.360167
0.124953
0.235214
-0.0626734
-0.0418802
-0.189469
-0.0830524
-0.0592754
-0.0682619
0.479866
-0.0436123
0.117773
0.247694
-0.421311
-0.0843308
-0.185248
0.269579
0.150088
0.0329054
-0.182993
-0.0307779
0.0903385
-0.141089
0.598329
-0.192849
-0.00145091
0.000677115
0.00491194
-0.0181651
0.0503714
0.149636
0.502214
-0.36677
-0.135443
0.275679
-0.0442368
-0.152827
0.0953662
0.369924
-0.268646
-0.101277
0.150281
-0.32581
0.200416
-0.0114124
0.0186325
-0.00722006
-0.142386
0.140186
0.101931
0.493523
-0.595454
0.0353807
-0.0873288
-0.0326556
0.1996
-0.0988887
0.0603733
0.0385154
-0.115786
-0.307094
0.42288
0.0257213
-0.22135
0.195629
-0.0555151
-0.44119
0.014178
0.112587
-0.126765
0.504624
-0.370782
-0.133841
-0.669928
0.377529
0.292399
0.451546
-0.522257
0.163869
0.358388
0.193483
-0.243701
0.050218
-0.112376
0.0602327
0.529337
0.0835033
0.407491
0.241256
0.136457
-0.51457
0.378113
-0.0460712
0.028252
-0.194231
-0.514703
0.304191
0.577999
-0.432513
-0.430478
0.162965
0.267514
-0.226608
-0.0349577
0.261566
-0.378072
0.189203
0.0612355
0.273927
-0.205929
-0.00783488
0.213763
0.0940199
0.118375
0.423147
0.154852
0.701598
-0.287347
-0.414251
0.20557
-0.0845611
0.272037
0.429561
0.480678
-0.197123
-0.283555
0.58537
-0.414503
-0.170867
-0.143293
-0.0412015
-0.115152
0.156353
0.303679
-0.364596
0.227365
0.137231
0.296638
-0.513136
-0.225491
0.110505
-0.101511
0.0929365
-0.237183
0.164453
-0.0485239
0.1518
-0.199957
0.124093
-0.284866
0.104945
0.397268
0.0191696
0.0558396
-0.387536
0.523993
0.438496
0.146874
0.120877
0.0125093
-0.133386
0.128252
0.0285449
-0.000581594
-0.121688
0.12227
-0.142533
0.537915
-0.395382
0.244958
0.125625
0.275036
-0.399759
0.124723
-0.188113
-0.123619
0.4668
-0.637608
0.170808
-0.0820843
0.306694
-0.0782459
0.169435
-0.0911889
-0.180207
-0.0778661
0.22914
-0.151274
-0.0301283
0.174012
-0.0286513
-0.145361
-0.388421
0.0526408
0.00217769
-0.313945
-0.16993
-0.19701
-0.701311
0.278883
0.422428
0.194506
-0.164436
-0.0300704
0.527168
-0.0193087
-0.418742
0.188271
-0.0012285
-0.417393
0.57351
-0.156117
-0.43073
0.308953
0.121777
0.628145
-0.168209
-0.490781
0.203882
-0.156055
0.109119
-0.157643
-0.234159
-0.407343
0.549268
-0.16033
-0.126822
0.0452978
-0.207836
-0.207055
0.0418045
-0.709681
0.413355
-0.356617
0.186688
0.0232396
0.13573
-0.158969
0.014381
-0.00478024
-0.0151419
0.0937067
-0.115238
-0.107412
-0.151058
0.177753
-0.0266946
0.298342
-0.618957
-0.432744
0.298648
-0.136427
0.483392
-0.346965
-0.242862
0.0715792
0.171283
-0.414584
0.298798
-0.692344
0.260845
0.431499
-0.497575
0.359099
0.138476
0.20718
0.0756325
-0.282813
0.171218
-0.282067
-0.410277
-0.199777
-0.199653
0.39943
-0.0490932
0.199181
0.0403268
-0.011856
0.162751
-0.00147532
-0.00221614
0.265112
-0.00011374
0.115894
-0.140584
0.0246891
0.140541
0.0835562
-0.131601
-0.193836
-0.203283
0.23986
-0.0365772
0.0408225
-0.00698491
0.0352824
-0.442241
0.298029
-0.22675
-0.076835
-0.13627
-0.109242
-0.0336877
0.142929
-0.121496
0.379579
0.486086
-0.128136
-0.32294
-0.167841
-0.153319
0.235393
-0.115163
0.0958185
0.252036
-0.347854
0.23736
-0.332507
-0.282212
0.0116552
0.189565
0.379822
-0.137601
0.305095
-0.12727
-0.117521
0.244791
-0.18457
0.472699
-0.288129
0.423386
-0.127525
-0.115338
-0.592294
-0.0501027
-0.190919
-0.268679
0.184348
-0.0749257
0.159352
-0.0844261
0.115241
-0.143458
0.0282165
0.509299
-0.185235
-0.324064
0.00345158
-0.00411084
0.000659263
0.014449
0.152841
-0.0375998
-0.00413781
0.192409
-0.0309375
-0.117387
0.551894
-0.155974
-0.39592
-0.267308
-0.0972878
0.0324907
0.162016
0.27644
0.301152
-0.577592
0.385145
0.16675
-0.0381674
-0.0147624
0.208281
0.110636
-0.310413
0.454022
0.0731457
-0.67187
0.222793
0.449077
-0.262061
-0.409809
-0.131299
-0.345622
0.345552
-0.491244
0.145692
-0.448009
0.123402
-0.638822
0.249427
0.389395
-0.421736
-0.442448
0.603248
-0.480383
-0.122865
-0.0611437
0.0464191
0.125695
0.231869
0.149309
0.44069
-0.59
0.0560919
-0.0625196
-0.00253527
-0.00549358
0.266576
-0.0730929
0.203993
-0.286077
0.102743
-0.147849
-0.071469
0.131842
-0.153372
0.0468339
0.0180203
-0.0648542
-0.328919
0.00597864
0.155335
0.325344
-0.508751
0.589813
-0.0665378
0.0954241
-0.0288863
0.0734645
0.233417
-0.306881
-0.0246095
-0.0128914
0.0375009
-0.0369014
-0.0619873
0.169147
-0.583145
0.413998
0.16451
-0.530229
0.0355823
0.142647
-0.579136
0.547678
-0.395685
-0.151993
-0.00245993
0.00207129
0.000388645
-0.353599
0.599547
-0.245948
0.396107
-0.121071
0.657246
-0.198764
-0.0331049
0.00136362
0.0317413
0.607765
-0.201678
-0.406087
-0.457182
0.539005
-0.376867
0.464721
-0.547946
0.608171
-0.161091
-0.0109158
-0.000496569
0.129918
-0.474906
0.314927
-0.698894
0.411548
-0.00274651
-0.103046
0.151257
-0.0224042
-0.128853
-0.354241
-0.137942
0.492182
-0.201014
-0.346507
-0.156684
-0.424168
-0.168902
0.59307
-0.202687
0.279764
-0.0770766
-0.498605
0.331073
0.167532
0.477194
0.0704844
-0.0327235
0.0389077
-0.00618423
-0.193909
-0.0893451
0.283254
0.561041
-0.175896
-0.452675
0.268105
-0.181711
-0.363289
0.545
0.169384
-0.579047
0.409664
-0.396664
-0.187273
0.13222
0.354214
-0.486435
-0.13964
-0.108971
-0.274344
0.210016
-0.0603794
0.135772
0.224847
0.444485
0.173812
0.13051
0.262877
-0.393387
0.0499919
-0.190577
0.140585
0.167286
0.0278693
0.0802485
-0.158494
-0.144143
-0.255616
0.0752938
0.238173
-0.313466
0.266905
-0.374067
0.293483
-0.403687
0.110204
-2.32005e-05
-0.00243673
0.467975
-0.298641
0.187439
-0.300374
0.112935
0.00200067
0.534933
-0.534933
0.0834522
-0.0301739
-0.0532782
-0.149122
-0.450284
0.599406
-0.0160782
0.0619897
-0.0459114
-0.209657
0.284951
0.287566
0.111258
0.0472039
-0.0563985
0.0476225
-0.534643
0.352932
0.015378
0.0986192
0.103797
-0.595996
-0.111799
0.249075
-0.190356
-0.0824978
0.272854
-0.151225
-0.0256224
0.176848
0.0198557
-0.0733777
0.0535219
-0.101727
0.364924
-0.137233
-0.0210807
-0.136684
-0.0228735
0.165356
0.108003
-0.540269
0.432266
-0.578779
0.32036
0.0657413
0.162159
-0.2279
-0.0798373
0.0558798
0.0239575
0.0824436
-0.00148243
-0.695163
0.413096
-0.0406772
0.00795377
-0.570418
0.427148
0.112023
-0.536474
0.519022
0.0174521
-0.216057
0.305386
0.136995
0.344682
-0.481677
0.527612
-0.0628913
0.294917
-0.221452
-0.612315
0.444755
0.16756
0.578371
0.129701
-0.154037
0.0243364
0.0992505
0.0394741
-0.210403
-0.344586
-0.267729
-0.380832
0.24323
-0.000253345
-0.00233606
-0.427721
0.129411
-0.156912
-0.420011
0.0660565
-0.0192226
-0.253043
-0.174095
0.427139
-0.433782
0.291096
0.142686
0.278692
-0.0890344
0.147958
-0.585824
-0.263605
0.0736696
0.08204
0.382915
0.166353
0.263908
0.00940139
-0.423126
0.555455
-0.341473
-0.213982
-0.0973157
0.60632
-0.448354
-0.157966
-0.0202533
0.0480194
0.0466923
-0.0607359
-0.125274
-0.226719
0.351993
0.250832
0.3742
-0.372104
0.490953
-0.358811
-0.132142
-0.072998
-0.170703
0.296637
-0.197015
-0.436305
-0.148744
0.585049
-0.426995
0.517293
-0.0902989
-0.3083
0.00191779
0.153428
-0.287474
-0.0350088
0.00305324
-0.306167
0.408743
-0.330594
0.0596052
-0.0628832
0.177336
0.453768
-0.086371
-0.206161
-0.397361
-0.0585715
0.0208465
0.0377251
-0.321187
0.109735
0.211451
0.141974
0.0320386
0.043947
-0.00312446
-0.690892
0.42883
-0.529215
0.386682
0.249132
-0.195387
-0.525557
0.117993
0.407563
0.125383
0.251538
-0.376921
0.0444724
-0.0442624
-0.132571
0.478123
-0.15283
0.535746
0.027283
0.108666
0.0291781
-0.137844
0.102286
-0.0843901
-0.0178961
-0.186528
-0.353295
-0.444189
-0.146931
0.59112
-0.413988
0.566087
-0.152099
-0.629907
0.20262
0.427287
-0.448553
0.143381
-0.113269
-0.111999
0.408098
-0.130738
-0.145385
-0.0428317
-0.170796
0.129595
-0.430047
0.144017
0.0399801
-0.183997
0.279621
-0.157368
-0.326963
-0.271031
0.172289
-0.0303156
-0.00160136
-0.00229806
0.139878
-0.16075
-0.0498678
0.0803402
0.311069
0.176017
-0.487086
0.0859628
0.40499
-0.192986
0.308505
0.108889
0.174506
-0.283395
0.371166
0.180437
-0.523465
0.387037
0.0259381
-0.018697