/*--------------------------------*- C++ -*----------------------------------*\
| =========                 |                                                 |
| \\      /  F ield         | OpenFOAM: The Open Source CFD Toolbox           |
|  \\    /   O peration     | Version:  v2012                                 |
|   \\  /    A nd           | Website:  www.openfoam.com                      |
|    \\/     M anipulation  |                                                 |
\*---------------------------------------------------------------------------*/
FoamFile
{
    version     2.0;
    format      ascii;
    class       volVectorField;
    location    "50";
    object      ddt0(U);
}
// * * * * * * * * * * * * * * * * * * * * * * * * * * * * * * * * * * * * * //

dimensions      [0 1 -2 0 0 0 0];


internalField   nonuniform List<vector> 
13308
(
(-0.000418362 0.00318482 0)
(-0.366563 -0.78893 3.57341e-20)
(-0.112356 -0.256573 3.71414e-20)
(-0.00149573 0.000112742 8.46095e-22)
(-0.0253946 -0.0370838 -9.96855e-21)
(-0.00224206 -1.05136e-05 1.31249e-22)
(-0.25575 -0.0877099 -1.52285e-19)
(-0.00472264 -0.0178539 0)
(-0.2255 -0.0546264 0)
(-0.0424038 -0.150917 -5.31225e-21)
(0.0137391 0.0546253 0)
(0.0334653 0.00403006 -3.30993e-22)
(-0.00221746 -1.3683e-05 0)
(0.00644979 -0.000790641 0)
(-0.00225698 -1.5034e-05 0)
(-0.193407 -0.0897297 0)
(0.00166181 0.00287025 9.52416e-23)
(-0.413305 -0.699225 3.41004e-19)
(0.0118202 0.0346968 -3.34673e-21)
(-0.128591 -0.130144 -2.40858e-20)
(0.0187877 0.007474 -1.06745e-21)
(0.0991516 0.504727 -2.17158e-20)
(-0.135284 0.42054 5.11742e-20)
(-0.0135937 -0.0333755 4.88354e-20)
(-0.160968 -0.00547583 0)
(0.232472 -0.174347 5.21405e-20)
(-0.00882638 -0.0519321 -3.52076e-20)
(0.0157759 0.0479122 -1.43596e-20)
(-0.026294 -0.049163 -3.09511e-20)
(-0.0111104 -0.0767246 0)
(-0.0870681 -0.625316 5.03557e-19)
(0.00817681 -0.0624323 0)
(0.106657 0.468429 0)
(-0.174519 -0.0373923 0)
(0.0949182 0.0577889 -1.31671e-20)
(0.00159376 0.00154684 1.70524e-21)
(-0.249289 -0.0832722 1.22473e-19)
(-0.13594 0.315778 2.60376e-20)
(0.00551179 -0.0229793 4.93396e-22)
(-0.24401 -0.175667 -1.40506e-20)
(0.000766947 -0.0019425 0)
(-0.00605415 -0.0151241 2.52348e-20)
(0.0904037 0.133789 2.74657e-21)
(0.00946453 -0.000655428 -1.80816e-20)
(0.0091113 -0.0289531 0)
(-0.15855 0.0180409 0)
(-0.00218244 -4.04945e-05 -1.85244e-24)
(-0.00157068 6.68236e-05 -4.8094e-23)
(-0.00252793 0.0054401 -4.2206e-22)
(-0.0766621 -0.214507 -1.98902e-20)
(0.00800065 -0.00039035 1.77853e-21)
(0.0178277 -0.00134703 0)
(0.17143 0.255669 2.09704e-20)
(0.00939807 0.0202352 -1.19096e-20)
(0.00211227 0.00738595 1.83998e-19)
(0.0612512 0.0266557 1.57243e-20)
(0.00927093 -0.000510335 -8.14651e-21)
(0.0196719 -0.00243681 -1.39753e-20)
(-0.00416529 -0.0283163 2.48143e-20)
(-0.00422755 -0.0349681 0)
(0.00716001 0.0286557 3.73709e-22)
(0.166869 0.125365 3.74644e-19)
(0.0224964 -0.00406431 2.17258e-20)
(-0.00112543 -0.00512663 0)
(0.00542776 0.000280531 -4.0822e-21)
(0.0547676 0.449813 1.08695e-21)
(0.00820761 0.000791929 -5.97581e-21)
(-0.147065 0.0173061 0)
(-0.000310438 -2.31677e-05 3.02858e-21)
(-0.249961 -0.190815 0)
(0.0809704 0.333898 0)
(0.00567776 -0.0265141 1.76049e-20)
(-0.00414251 -0.00121197 1.73795e-23)
(0.00497161 -0.0790515 2.81022e-20)
(-0.167862 -0.00764136 -2.23538e-19)
(0.0143644 0.00408991 -1.41827e-20)
(-0.00201147 0.000499576 0)
(0.0472621 0.0131836 -9.80653e-21)
(0.0131634 -0.00286762 -1.09727e-20)
(0.00344098 0.00532946 9.56645e-23)
(0.0162059 -0.0154867 1.21595e-20)
(-0.00239302 0.000577204 0)
(0.0137567 0.00440612 7.79567e-21)
(-0.0100155 -0.0351955 0)
(-0.18704 -0.0446707 0)
(-0.0069191 -0.026681 0)
(-0.0504449 -0.0176162 -1.52737e-20)
(0.0580369 -0.0313939 9.02354e-21)
(-0.00126871 0.00869939 3.85124e-21)
(-0.150868 -0.134941 2.9526e-20)
(0.000934513 -0.0147288 -4.68356e-20)
(0.00839308 0.000996691 0)
(-0.0115027 -0.0345691 2.37749e-20)
(0.0160575 0.0132122 7.65694e-21)
(0.00778523 -0.000119289 1.37146e-20)
(0.000795704 0.00170107 2.67389e-21)
(-0.00780092 -0.0206553 -2.14084e-21)
(0.00333919 0.00554056 2.3776e-22)
(0.224675 0.00492895 -2.32225e-20)
(-0.257772 -0.191823 0)
(0.00234829 -0.0145339 3.65017e-22)
(-0.000680679 -0.00141824 1.08843e-20)
(0.00628399 0.000554524 4.20243e-21)
(0.0150238 0.0127977 0)
(0.0392632 0.0525494 -1.00123e-20)
(-0.194611 -0.624178 -1.37932e-19)
(-0.0819597 -0.275129 -3.28208e-20)
(-0.000332623 1.6315e-05 -2.62327e-21)
(0.110709 -0.259098 0)
(0.257128 -0.152921 -3.68322e-20)
(-0.0104647 -0.0209521 -1.28516e-20)
(-0.0565967 0.00858408 -2.41011e-21)
(0.00121465 0.00846974 -9.4526e-22)
(0.0128067 -0.00413524 1.03356e-20)
(0.001126 0.00817765 1.02874e-21)
(0.00943998 0.0361362 5.05252e-21)
(-0.154763 0.0246961 -6.83965e-20)
(-0.0110743 -0.00625018 -2.792e-21)
(-0.0160889 -0.0291309 8.77373e-20)
(0.0195537 0.00123772 0)
(-0.0169177 -0.0408573 -2.16822e-20)
(0.0150474 0.0120942 0)
(0.00141472 0.00107025 -4.42329e-21)
(0.00222501 0.00223632 2.72509e-22)
(0.0123299 0.00715919 -4.72088e-22)
(0.0122729 0.0257604 0)
(-0.174065 -0.0653007 1.8177e-19)
(-0.182956 -0.0596661 -1.62798e-19)
(-0.00426097 -0.00133761 -8.63245e-24)
(-0.15643 -0.0984409 0)
(0.244491 0.387875 0)
(0.0254419 0.0127523 8.99926e-21)
(-0.000962319 -0.00738115 -1.42684e-20)
(0.000809761 0.00162127 -1.28344e-21)
(-0.216255 -0.0496523 -9.15511e-21)
(0.00208119 0.00101143 6.32931e-21)
(0.00854189 0.000690764 0)
(0.0110966 -0.000756342 0)
(0.0427532 0.025828 0)
(-0.009158 -0.023787 1.69481e-20)
(0.0319652 0.00527847 -7.35339e-21)
(-0.00989557 -0.0156695 0)
(0.00343366 -0.00656997 0)
(0.00102042 0.00752102 0)
(-0.00471098 -0.0212401 3.69255e-20)
(0.0687393 -0.00633867 2.46941e-20)
(-0.00496676 -0.00217508 0)
(-0.16363 -0.154924 2.47304e-20)
(0.0160365 -0.0171052 -2.2725e-20)
(0.024066 0.0170203 -1.13308e-20)
(-0.082117 -0.0040774 3.84321e-19)
(0.00699971 -0.000222257 0)
(0.0478755 -0.0253854 -6.83172e-21)
(0.00754873 0.0273686 1.26113e-21)
(-0.145443 0.111306 0)
(0.0379591 0.0250651 1.21445e-20)
(0.000673239 0.000218557 -2.29733e-21)
(0.00148011 0.00161841 7.49935e-21)
(0.000703891 -0.00178563 0)
(0.0136435 0.035175 0)
(-0.00707141 -0.104832 7.92198e-21)
(0.0236678 -0.00876712 1.2096e-20)
(0.00405466 -0.00468951 -6.22617e-21)
(0.134134 0.13471 -8.97213e-22)
(0.0357949 0.0248887 -1.23727e-20)
(0.017858 0.0198455 0)
(0.057668 0.556448 8.0981e-20)
(0.00150934 0.00181514 -6.31385e-23)
(0.0905994 -0.27209 3.23976e-20)
(-0.0227073 -0.0243552 2.87726e-20)
(-0.0153648 -0.0199018 4.16126e-20)
(0.00713317 -0.0193071 8.8972e-21)
(0.00660038 -0.000413494 -4.92346e-21)
(-0.0305444 -0.141638 1.40704e-20)
(0.0191548 -0.0144785 -4.24818e-21)
(0.412217 0.469663 -3.84328e-20)
(0.200507 0.531484 6.73655e-20)
(-0.0895533 -0.246317 -1.12671e-20)
(0.0251187 0.0177736 8.50225e-21)
(0.00117186 0.000189029 -4.6559e-21)
(0.022622 -0.013187 -3.26038e-21)
(0.120484 0.433208 1.47943e-22)
(0.00779391 0.00110471 5.62618e-21)
(-0.076226 -0.180358 1.11393e-22)
(0.0420606 0.129497 0)
(0.000744978 0.000811015 -1.6768e-21)
(0.0554431 0.0230027 -1.85715e-20)
(-0.21663 -0.631139 0)
(-0.0127903 -0.0762541 0)
(0.16419 0.0169664 0)
(0.090405 0.0114314 0)
(-0.124707 -0.128361 0)
(-0.00455789 -0.0267065 -1.72656e-20)
(0.0323924 0.00853779 4.92021e-22)
(-0.00812289 -0.0135861 -3.78945e-20)
(0.335761 0.427488 -3.18988e-20)
(-0.015867 -0.00695328 -3.09768e-20)
(-0.00468327 -0.00245167 -4.02689e-23)
(-0.112222 -0.113849 2.40163e-19)
(-0.0056511 -0.0100049 3.74655e-20)
(-0.334503 0.0439338 3.70185e-20)
(0.144787 0.346702 1.17034e-19)
(0.0233988 0.0633679 5.52614e-21)
(-0.223118 -0.0534008 2.19413e-21)
(-0.156622 -0.0978088 0)
(-0.151942 0.0391934 -2.08855e-20)
(-0.272918 -0.0942394 -3.1783e-20)
(-0.173459 -0.000673648 1.50727e-19)
(0.0998799 -0.0811055 -5.95497e-21)
(0.0233081 -0.019981 -8.57852e-20)
(0.0690643 -0.00982954 -8.62223e-21)
(0.0927418 -0.0723138 2.66188e-21)
(-0.0196973 -0.0235872 4.93203e-21)
(0.0238882 -0.000686693 -9.87244e-21)
(0.128783 -0.00756177 -2.3406e-20)
(0.0126856 0.00922746 0)
(0.000767271 0.000178468 3.22418e-21)
(0.0564165 -0.0354996 1.95579e-20)
(0.0143819 0.0374134 1.14438e-20)
(-0.181422 -0.0177104 1.70972e-19)
(0.0136286 0.0461874 7.26576e-21)
(0.00832868 -0.000329021 -1.20445e-20)
(0.0346302 0.0224372 0)
(-0.002746 -0.00024367 1.01085e-22)
(0.0143004 0.0137109 0)
(-0.0943667 0.122403 3.33792e-19)
(0.0527047 -0.00637767 0)
(0.0422363 0.0460823 1.8995e-20)
(0.0521001 0.014455 5.48979e-22)
(-0.14907 0.0421326 2.16191e-20)
(-0.100117 -0.171485 2.70659e-20)
(0.0107565 0.012815 5.83785e-23)
(-0.0934573 -0.228951 4.8151e-21)
(-0.188435 -0.0555454 0)
(0.000390696 0.0027753 0)
(-0.0227112 0.00199238 -2.57069e-20)
(-0.682286 -0.463158 0)
(-0.00206737 -0.00968078 0)
(-0.15459 0.0979309 -6.73084e-21)
(0.00995618 0.0125865 4.95708e-21)
(-0.00818118 -0.0386346 0)
(0.000545958 0.00309832 0)
(0.0181194 0.0114559 1.59977e-20)
(-0.00232254 -5.13655e-05 -2.46413e-23)
(0.0350412 -0.00772937 1.31361e-21)
(-0.064206 0.169125 2.53342e-21)
(0.00643444 -0.079643 6.44134e-20)
(-0.193494 -0.138459 2.56692e-19)
(-0.00278803 -0.000120859 0)
(0.0280147 0.128074 -2.69707e-22)
(0.121569 -0.0024189 2.32531e-20)
(0.178726 0.444079 6.31148e-19)
(-0.000311162 -0.000650743 -3.68761e-21)
(0.177812 0.114155 -7.9144e-21)
(-0.00369892 -0.0557305 2.22768e-19)
(0.0124717 0.0123329 3.67312e-21)
(0.0732154 -0.00638021 4.01088e-21)
(0.00811939 -0.000586516 7.01867e-21)
(-0.0623353 -0.361392 0)
(0.0522683 0.0173011 -3.30212e-20)
(-0.000940374 -0.0794439 0)
(-0.202841 -0.118614 0)
(-0.0321867 -0.0288601 0)
(0.00665139 0.00696099 9.10902e-21)
(0.032946 0.020958 -1.27893e-20)
(0.0229804 0.0135141 -1.78187e-22)
(0.0284369 0.0139323 -4.52218e-22)
(-0.00139283 -0.00655766 0)
(0.0130008 0.0464829 0)
(-0.236456 0.168653 0)
(-0.0639588 -0.154832 7.05609e-20)
(-0.0218959 -0.0287984 8.41085e-20)
(0.00661206 -0.00102036 -9.39073e-21)
(0.0394592 0.0264964 0)
(0.0127718 -0.00693103 -1.6236e-21)
(0.00547918 0.000249623 2.12237e-21)
(0.000895104 0.00168295 -7.73271e-22)
(0.034537 6.72992e-05 2.91412e-21)
(-0.0254763 -0.0347212 -2.03998e-20)
(0.0507728 0.0103612 -2.31426e-20)
(0.306719 0.35195 -9.40344e-20)
(0.00250696 -0.000148079 2.01131e-20)
(-0.00155853 0.00603866 -5.04501e-21)
(0.0112649 0.0133186 -2.33889e-21)
(-0.371298 -0.509094 0)
(-0.183104 -0.322863 2.00731e-20)
(0.00681857 0.00709935 -5.01007e-21)
(5.94062e-05 0.00278006 0)
(0.058018 0.0113732 3.14621e-23)
(-0.127604 -0.323386 4.4102e-20)
(-0.00863144 -0.0419452 2.6006e-20)
(0.00826141 0.00218121 1.67886e-20)
(-0.000123358 0.0310661 9.49921e-22)
(0.199014 0.350252 -2.89122e-21)
(0.00225858 0.00381144 0)
(0.0683528 0.0687563 -1.49715e-20)
(0.0525784 0.0197085 -4.46976e-20)
(0.0103653 -0.0598535 2.77801e-21)
(0.0531768 0.0115795 -2.33062e-20)
(-0.0915512 0.138757 -1.10006e-20)
(0.0867524 0.478829 -3.33747e-20)
(0.00481298 0.0101419 -6.76147e-21)
(0.208049 -0.181457 -5.77275e-20)
(-0.151336 -0.0745169 -1.14693e-19)
(-0.151117 -0.0759648 7.6978e-20)
(-0.00108134 0.00457142 -6.03177e-22)
(-0.00724465 -0.0429449 6.05149e-20)
(-0.0192382 -0.136535 2.26875e-20)
(-0.16499 -0.127027 8.15828e-20)
(0.000713624 0.000879421 0)
(-0.00753916 -0.00997391 8.36943e-22)
(-0.00660183 -0.0268313 7.8555e-20)
(-0.0195144 -0.0448198 -5.34907e-20)
(0.0196254 0.0661756 8.07232e-22)
(0.102375 0.108587 0)
(0.0264005 0.0131483 0)
(0.00274562 0.000530002 -2.94938e-21)
(0.00228841 0.00368549 0)
(0.0024178 -0.00120109 1.85675e-20)
(-0.0017556 0.0289289 4.97097e-22)
(-0.000316077 -0.00128062 2.0059e-20)
(-0.00234378 0.000671726 0)
(-0.148352 -0.0964016 0)
(-0.00204207 0.000594215 0)
(-0.089562 0.00773665 3.18677e-19)
(0.00103117 0.00736225 -8.23549e-22)
(0.0111726 0.0133827 6.87845e-22)
(-0.00223993 -0.00857277 0)
(0.00730958 -0.0248089 -1.98069e-20)
(0.0183957 0.0204778 -4.17106e-21)
(0.250297 0.409558 -3.79162e-19)
(0.00836682 -0.000178824 -8.3182e-21)
(-0.181782 -0.137034 -1.65256e-19)
(0.0101842 0.00502678 0)
(-0.00118197 5.86703e-05 2.39169e-21)
(0.0403434 0.0369898 8.41691e-21)
(-0.35881 0.113814 0)
(0.00152891 0.00161368 -2.56384e-21)
(0.0496267 -0.00553999 0)
(-0.18171 -0.164353 0)
(-0.0255108 -0.0344671 1.6737e-20)
(-0.00230155 -0.00826887 0)
(0.00885666 -0.00361259 2.40644e-20)
(-0.1751 -0.0474019 -2.31952e-20)
(0.0509199 0.0413849 0)
(-0.122021 -0.324179 4.90823e-20)
(0.0629704 0.00407562 1.54585e-20)
(0.0648957 -0.00609351 -8.64975e-21)
(-0.000303697 -0.000353937 0)
(0.0193342 0.0104227 -1.28362e-20)
(-0.0403347 -0.022723 -6.19778e-21)
(1.79376 -0.381579 -1.49159e-18)
(-0.0888391 -0.351886 0)
(0.00782834 0.00192344 0)
(-0.00201548 0.00625039 1.19226e-21)
(0.0142644 0.00485075 -4.28335e-21)
(-0.203116 1.1866 0)
(-0.00245206 0.00427167 0)
(0.0618324 0.00688824 -1.50047e-20)
(0.0515044 -0.0548149 6.63046e-20)
(0.0907774 0.139114 5.69538e-21)
(-0.231729 -0.0580791 9.67236e-21)
(-0.0262259 -0.0313989 0)
(0.0190705 -0.0781372 -6.14215e-20)
(0.0314956 0.477874 -5.04901e-20)
(0.187849 0.0149014 6.57378e-21)
(0.00833804 -0.00276099 -2.29262e-20)
(-0.00231464 7.43247e-05 7.48509e-23)
(0.0189502 -0.000765629 -2.67291e-20)
(-0.0207293 -0.0311418 3.87e-21)
(-0.521314 -0.0661773 0)
(0.0404516 -0.0314584 4.49676e-20)
(-0.207193 -0.120291 0)
(0.00799599 -0.000199366 1.61173e-20)
(0.0185322 -0.000113047 2.55066e-20)
(0.0430957 0.0126738 0)
(0.125077 0.151818 2.98746e-20)
(0.322149 0.223656 7.62259e-21)
(0.0172862 -0.0144716 -1.19686e-20)
(0.0372672 -0.00076431 2.48504e-21)
(0.0122376 -0.0198616 1.0207e-20)
(0.0104466 0.00538739 8.56484e-22)
(-0.00256025 0.00635377 2.18284e-21)
(-0.0261303 -0.0432431 -3.20649e-20)
(0.000880191 0.00170338 3.14163e-21)
(0.170083 0.357468 0)
(-0.0641122 0.00530239 2.13115e-21)
(-0.00223372 -0.0343977 0)
(0.00793939 0.000343968 5.82726e-21)
(-0.0801672 -0.202235 6.33872e-20)
(0.0196989 0.00812203 7.3055e-21)
(0.000996567 0.00366309 -7.52351e-22)
(0.0149085 0.020203 -1.39303e-22)
(-0.196257 0.0660156 -7.17022e-20)
(-0.0128464 -0.000952311 -5.18077e-21)
(-0.00526641 -0.0878562 -2.04792e-20)
(0.0102809 0.0243387 1.83011e-21)
(0.00755643 0.00200504 0)
(0.0482654 0.0388521 0)
(-0.00647484 -0.0115524 -3.05677e-20)
(0.0154605 0.0353775 0)
(0.00120271 0.000109592 6.33192e-21)
(-0.26206 -0.182087 0)
(0.232764 -0.0163068 -8.71306e-21)
(-0.002886 -0.000285517 1.61703e-23)
(0.0875344 0.0461248 -9.08481e-21)
(0.00050423 0.000234985 -3.56205e-21)
(0.0014631 0.00113177 4.49022e-21)
(0.100086 0.352158 -2.84959e-19)
(0.0372683 0.0450189 8.83408e-21)
(0.00113225 0.0021144 2.43346e-21)
(-0.219937 -0.123926 -3.00321e-19)
(0.103989 -0.00530956 0)
(0.0074786 0.00190346 4.66879e-21)
(0.00869092 0.00121356 5.99444e-21)
(-0.062803 0.189815 7.39056e-21)
(0.00941144 -0.0241488 -2.01379e-22)
(0.00858036 0.00136572 0)
(0.00129362 -0.0315783 2.6533e-20)
(0.0491619 0.0116532 7.64308e-21)
(0.0607417 0.0127752 8.67577e-21)
(0.0193875 0.000639647 0)
(-0.0210602 -0.0226091 -3.00696e-20)
(0.0127716 -0.0197389 0)
(0.00181631 0.00646632 1.01521e-21)
(-0.104063 -0.290402 6.45606e-20)
(-0.186611 -0.174642 0)
(-0.00846885 -0.0111914 -2.46043e-20)
(0.0107695 0.0306183 1.53473e-20)
(-0.00487163 0.00732218 -1.75332e-21)
(-0.16794 -0.317802 0)
(0.00117134 0.00103221 4.24523e-21)
(0.0147646 0.0199174 3.40789e-21)
(-0.178318 -0.379838 2.56485e-20)
(0.00690242 0.00611214 -8.03899e-21)
(-0.00206952 0.000450615 -5.85509e-22)
(0.0990454 0.15329 4.27496e-21)
(0.0084083 0.000959455 1.03875e-20)
(-0.0200739 -0.0595582 -4.13716e-20)
(-0.169172 -0.184544 5.8597e-20)
(0.0455093 -0.00765138 1.83201e-20)
(0.496647 0.278231 0)
(-0.025647 -0.212202 -4.16606e-20)
(0.0188918 0.00170801 1.235e-20)
(-0.359813 0.250205 4.90282e-19)
(-0.0204478 -0.0224002 -8.58181e-21)
(0.0133406 -0.0234057 -2.4861e-22)
(0.155717 0.285536 0)
(0.00785955 0.00092805 -8.39266e-21)
(0.0046277 0.144062 0)
(3.95029e-05 0.0034543 0)
(0.141648 -0.244414 -7.5635e-20)
(0.101618 -0.00720829 6.98016e-21)
(-0.581421 -0.623804 0)
(-0.01574 -0.0346634 -3.15768e-20)
(-0.0104746 -0.0409714 4.64617e-20)
(-0.0235487 -0.0195985 1.05851e-20)
(0.110591 0.012376 -5.08264e-20)
(-0.0586392 0.389999 0)
(-0.272138 -0.171103 0)
(0.0136252 0.0344309 0)
(-1.25913 -0.327665 3.08895e-20)
(0.00831344 0.000110155 -1.39484e-20)
(0.0117785 -0.0810453 0)
(0.0181526 0.000315927 0)
(0.0125314 0.00675049 -4.40061e-20)
(0.00151872 0.00152557 3.79656e-21)
(0.0133652 -0.0178638 0)
(0.0125063 -0.000358573 -2.36325e-20)
(-0.313858 0.187923 3.16144e-19)
(-0.168442 0.00972748 1.96051e-19)
(-0.00201032 -0.00687274 0)
(-0.0904777 0.253837 -1.92649e-20)
(0.00818246 -0.0213366 -2.48982e-20)
(0.176228 0.0427395 5.49253e-20)
(0.309113 0.0873761 1.37113e-21)
(0.029385 0.020457 1.29826e-20)
(-0.0118274 -0.0187743 0)
(-0.00563807 -0.00865482 2.72414e-22)
(0.00879883 -0.00291563 0)
(-0.00541453 -0.00336257 -1.12629e-22)
(-3.6706e-06 -0.000297395 0)
(-0.00522161 -0.00352032 0)
(0.00695194 0.00585788 1.26424e-20)
(0.0905617 -0.073812 -3.2272e-20)
(0.0121026 -0.0119959 0)
(-0.00186107 0.00612328 0)
(0.0261022 -0.0227292 1.15307e-21)
(-0.0110034 -0.0173799 1.33959e-20)
(0.00866419 0.000533325 -1.09152e-20)
(0.00882126 0.00178578 1.8741e-20)
(-0.00183418 -0.0482739 -3.39443e-21)
(0.0247646 -0.0214168 -3.33065e-21)
(-0.00200508 0.000502068 1.56047e-23)
(-0.00292069 -0.000157985 -4.84092e-23)
(0.0106887 -0.0129375 -3.32926e-21)
(-0.00213822 -2.68976e-05 0)
(0.00619026 0.0446449 -1.13089e-20)
(-0.0651599 0.0562211 1.43966e-19)
(0.0750554 -0.203792 8.09455e-20)
(-0.0363114 0.116732 1.0988e-21)
(0.0205378 0.0110685 0)
(0.0934026 0.0759735 2.08037e-20)
(0.0233934 0.0144223 -2.99008e-22)
(0.000657201 -0.0299729 0)
(0.00482568 0.00637299 -3.80128e-21)
(-0.133467 -0.205183 2.99508e-21)
(-0.0196806 -0.173241 7.1098e-21)
(0.00341959 0.000417101 6.11921e-21)
(0.152884 -0.242339 9.77985e-21)
(0.0279827 0.0176722 0)
(0.0116584 0.024279 8.75294e-21)
(0.00257085 -0.0168311 -3.42463e-20)
(0.00255733 0.00463511 0)
(-0.00966158 -0.0307395 1.43164e-21)
(-0.0511708 -0.0404576 0)
(-0.139023 -0.0248533 -2.20139e-21)
(0.00347348 -0.000774972 0)
(-4.40486e-06 0.00313857 6.03495e-21)
(0.324758 0.0610977 -2.74762e-21)
(0.0557303 -0.0566324 0)
(-0.0849655 -0.343834 0)
(0.0219339 0.145602 0)
(0.000474696 0.00502296 5.42903e-22)
(0.000434496 0.000352981 0)
(-0.00184386 0.0335741 -2.42051e-22)
(0.0090874 -0.00221103 5.33892e-21)
(-0.0020746 0.000452291 5.91606e-22)
(-0.0125057 -0.0413442 1.29557e-21)
(0.0131424 0.024487 0)
(0.0468397 -0.0305396 5.42836e-20)
(-0.0504707 -0.0273801 -1.00357e-20)
(0.134505 0.079932 6.78586e-21)
(-0.213008 0.344669 4.74936e-19)
(0.000757932 0.000816132 6.89445e-22)
(0.0402722 0.0410394 -4.62431e-21)
(-0.00244564 0.00938711 -1.99905e-21)
(-0.154348 1.1109 1.31747e-19)
(-0.00206391 0.000496141 -3.45598e-22)
(-0.171925 0.00648461 -2.24494e-19)
(0.00912467 -0.00147989 8.76437e-21)
(0.01192 0.0201218 -2.55657e-21)
(-0.000499182 -0.00134584 4.14403e-21)
(0.0449786 0.0528848 2.17527e-20)
(0.00482383 -0.0223035 4.71861e-20)
(-0.123207 0.0126934 1.96998e-19)
(0.120104 0.0454877 -4.46596e-20)
(0.0369906 -0.0283384 -2.48631e-21)
(0.00843701 0.000794904 -1.09105e-20)
(0.00583006 0.00560248 1.51337e-20)
(0.138403 0.0969568 0)
(0.0368577 -0.0259999 6.22403e-22)
(0.0271333 0.401366 0)
(-0.00182835 0.00295308 0)
(0.262756 -0.106534 5.90439e-20)
(-0.00474391 -0.00850638 8.89861e-23)
(0.479946 0.277311 4.88182e-20)
(0.0496614 0.0178251 3.53579e-20)
(-0.475228 0.0681595 0)
(0.524593 0.177369 -5.38511e-20)
(0.0303014 0.00433308 0)
(-0.00102211 -0.000818712 -7.98622e-21)
(0.00564247 0.00674349 0)
(0.0670389 0.0509543 0)
(0.011846 -0.00288246 1.21668e-20)
(-0.00549592 0.034059 9.53085e-22)
(0.0569185 0.0259294 -3.66712e-20)
(-0.00294168 -0.00971542 0)
(-0.0202532 0.154199 -1.48597e-20)
(-0.0302462 0.13898 -2.50451e-21)
(0.0478222 0.179049 -4.96515e-19)
(0.0094772 -0.000538561 0)
(0.0121465 -0.00218695 -1.23788e-20)
(0.00947094 -0.000481343 0)
(-0.15332 -0.121149 -1.75915e-19)
(-0.00596419 -0.050243 1.12953e-19)
(0.00790905 0.00205234 5.71674e-21)
(-0.00561274 -0.0136905 -1.00662e-20)
(0.216254 -0.306322 6.17374e-21)
(0.00610697 0.000476728 0)
(-0.143695 0.163973 -1.45316e-20)
(0.0320873 0.0206809 -1.21854e-20)
(0.0263764 -0.0075138 1.78016e-20)
(0.0356728 -0.0677373 9.84722e-20)
(-0.00121754 -0.00401554 0)
(0.00913473 -0.0015764 0)
(0.00415788 -0.00496788 0)
(0.034104 -0.0315314 -2.85933e-20)
(-0.000863009 -0.0371011 -3.36318e-20)
(0.000568837 0.000223473 6.65537e-21)
(0.00319001 0.0384827 4.63024e-22)
(0.00724438 0.00168097 5.10494e-21)
(-0.0035441 -0.000384834 -4.7575e-24)
(-0.00276755 -0.000191443 0)
(0.00805004 -1.45113e-05 0)
(0.0577925 -0.0509305 0)
(0.323012 0.184014 -9.37057e-22)
(0.00845555 0.0019559 -6.24912e-21)
(0.0506191 0.012977 0)
(-0.0122958 -0.00211534 -6.17448e-21)
(0.00789271 0.000219266 0)
(0.00872711 0.00170649 0)
(0.0346268 0.00210477 -2.43625e-20)
(0.0053284 0.0103117 8.51175e-21)
(0.0108413 -0.024082 0)
(-0.0294082 -0.0327122 4.42708e-20)
(0.008094 0.00228955 -1.02948e-20)
(0.0362349 -0.0689172 -1.75486e-19)
(0.0282164 0.00250519 1.58104e-20)
(0.387099 0.893618 5.18532e-19)
(-0.064041 0.399009 9.74815e-20)
(-0.0233708 -0.0202082 -3.46579e-20)
(-0.0227277 -0.0298781 5.63074e-20)
(0.000105118 0.000269019 3.27857e-21)
(0.99433 -0.587502 0)
(-0.0557501 -0.121271 5.95074e-19)
(-0.00670988 -0.0386863 0)
(-0.000347809 0.000189124 -4.3027e-21)
(0.00967287 0.00280402 -2.57221e-21)
(0.0342907 0.0352509 1.55521e-20)
(0.0467816 -0.0722706 -1.27007e-20)
(0.00448617 -0.00590615 0)
(-0.000215498 0.000518295 1.28935e-20)
(0.0407246 0.000344915 2.07081e-21)
(0.0310035 0.0179219 -1.20063e-20)
(0.0376444 0.00280221 -3.01805e-20)
(0.0151766 -0.0130686 3.15101e-20)
(0.0081657 4.29557e-05 1.49515e-20)
(0.0269559 -0.0546767 0)
(0.0421249 0.00525266 -5.80509e-20)
(0.00856154 0.0131135 -2.50313e-21)
(0.556329 0.100256 0)
(-0.0378661 -0.0176297 -9.69968e-22)
(-0.164274 -0.212359 3.41588e-20)
(0.0370846 -0.0123664 -6.66687e-22)
(0.00211326 -0.0386172 0)
(0.0321911 -0.041501 3.05121e-20)
(0.00951331 -0.0244497 -1.96398e-20)
(0.28794 0.115744 0)
(0.131126 -0.249261 -1.24169e-21)
(0.00121294 0.00265648 2.69883e-21)
(0.00612056 -0.0079801 9.15399e-21)
(0.0529718 0.0222803 0)
(0.0744196 0.0742212 1.65101e-20)
(-0.12829 -0.0121477 1.52386e-20)
(-0.00238174 0.00768702 1.92218e-21)
(-0.015446 -0.0220014 -4.86177e-20)
(-0.0044243 -0.00926092 -6.13292e-21)
(-0.00255786 -9.62417e-05 0)
(0.00550779 0.0235163 2.69085e-21)
(-0.154007 -0.0840921 0)
(0.00633632 0.000292727 0)
(-0.124327 0.414343 -1.54714e-19)
(0.0041257 -0.0220143 -2.82712e-20)
(1.22309 -0.0804927 0)
(-1.16465e-05 -0.00514668 0)
(0.00927725 -0.000355507 0)
(-0.150402 -0.0283338 0)
(0.138139 -0.260217 0)
(-0.119521 -0.0499366 0)
(0.00292771 -0.0293073 -1.01342e-22)
(0.0777116 -0.00243522 4.24594e-20)
(0.0348041 -0.0877794 -1.27986e-19)
(-0.162961 0.00902051 -1.73369e-19)
(0.0092262 0.0139446 0)
(-0.155156 -0.0275924 0)
(-0.0843247 0.354958 -7.30898e-21)
(-0.00136064 0.000113563 -1.48062e-21)
(-0.140686 -0.169144 3.03974e-20)
(0.045039 -0.0117572 6.81779e-20)
(-0.109248 -0.0908258 -1.61666e-20)
(-0.00197508 0.00396273 -1.48985e-21)
(0.0337371 0.0341272 0)
(-0.00217148 -4.21597e-05 1.40455e-22)
(0.00830277 0.00102884 0)
(0.0826783 -0.210107 0)
(-0.106988 -0.0935319 -1.64931e-20)
(-0.159689 0.00996006 8.10734e-20)
(-0.00577445 0.00358316 -7.06258e-23)
(-0.0795182 -0.173189 0)
(-0.0105493 -0.0311958 -2.47103e-20)
(0.0151346 0.0226951 3.44771e-21)
(0.00696086 0.0118271 9.54449e-21)
(-0.00260459 -6.33704e-05 0)
(0.0339612 0.00351995 0)
(-0.00170013 0.000198242 -9.9005e-22)
(0.0601693 -0.126601 5.56097e-20)
(0.0739501 -0.239883 0)
(-0.191047 -0.0050411 -8.49028e-22)
(-0.150457 -0.120762 -9.08559e-20)
(0.00123493 0.00104945 -4.43747e-21)
(-0.13135 -0.122826 2.77736e-20)
(0.00692713 0.0117773 0)
(-0.164856 0.0292427 -5.70131e-20)
(-0.213785 -0.305066 -5.33604e-22)
(0.0244916 -0.00587617 8.80941e-21)
(0.000142436 0.00139273 -1.55519e-21)
(0.00497143 0.00608434 -3.97411e-21)
(3.9949e-05 0.0013593 0)
(-0.289407 -0.197465 7.56281e-19)
(0.0101107 0.00501375 5.52535e-21)
(0.0739091 -0.00482505 0)
(0.0108979 0.0347778 3.01689e-22)
(0.00628756 -0.0983082 -6.73099e-21)
(-0.0252527 -0.0304101 3.34335e-20)
(-0.00283306 0.00219725 -8.97184e-22)
(0.0799967 -9.89961e-05 0)
(-0.0372621 -0.0189716 -6.11329e-22)
(0.00653712 0.0695588 -1.40962e-20)
(0.0204691 0.000388631 -1.36641e-20)
(0.00827203 -5.06817e-05 0)
(0.00945094 -0.00109468 -1.5704e-23)
(0.0526475 0.00632723 1.89291e-19)
(0.00428305 -0.00153107 -1.97537e-21)
(-0.0499415 0.010455 7.10199e-22)
(-0.0217776 -0.0466582 0)
(0.00998502 0.00536463 3.78347e-21)
(0.000665593 0.000819364 -8.44224e-22)
(-0.000256369 -0.00344247 0)
(0.00733851 0.00191421 -5.27517e-21)
(-0.00243924 0.00374832 3.87988e-22)
(-0.0133361 -0.0200881 0)
(0.00104319 0.00478386 0)
(0.0495735 -0.0553788 5.64925e-20)
(-0.176024 0.000242662 -8.31625e-20)
(0.00641204 -0.00137456 0)
(0.0108184 0.0237987 -1.05796e-20)
(0.752225 0.601853 0)
(-0.12782 -0.0106561 -2.77583e-20)
(0.165573 0.026093 8.72224e-21)
(0.000870453 0.0014792 1.58636e-21)
(0.00282745 -0.016912 -9.78995e-21)
(0.00121364 0.0013146 -2.5113e-21)
(0.00730763 -0.0187941 -2.43337e-20)
(-0.146663 -0.217865 -3.77991e-20)
(0.00283569 -0.0366061 9.22403e-22)
(-0.210666 -0.306463 0)
(0.0380874 0.0401083 -8.77383e-21)
(0.0784313 -0.0248705 0)
(-0.0153667 -0.0176092 8.93402e-21)
(0.00919565 -0.000430283 1.6516e-20)
(2.42233 -0.450065 4.27788e-20)
(0.00660527 -0.0123267 2.37685e-20)
(0.107588 -0.00488353 0)
(0.0132168 -0.00642692 1.66532e-20)
(0.0070856 0.00618474 0)
(-0.0949895 -0.204495 0)
(-0.00118184 0.00503497 5.91685e-22)
(-0.00198544 0.00137114 0)
(-0.216825 -0.134622 1.3967e-19)
(-0.230918 -0.0675619 0)
(0.0492229 0.00634564 -9.90843e-20)
(-2.03565 -0.256117 -2.30142e-18)
(-0.627725 -0.398882 5.49869e-19)
(-0.0571195 -0.347516 -1.31054e-20)
(-0.00121156 1.91457e-05 9.95192e-22)
(0.00283872 0.00034053 0)
(-0.0171436 -0.0418304 4.32395e-20)
(0.0111472 0.0688873 1.12655e-20)
(-0.134079 0.0303515 0)
(-0.00166993 0.0049279 0)
(-0.00220121 -0.0067203 1.66247e-20)
(0.0548397 0.0171677 0)
(0.0620764 -0.0452741 -8.67558e-21)
(-0.00346076 -0.000475414 6.79005e-23)
(-0.000880502 -0.000363968 -2.0914e-21)
(0.215047 -0.418772 0)
(0.174116 -0.23918 7.87523e-20)
(-0.161901 -0.0343858 0)
(0.00834074 -0.0143311 0)
(-0.00201369 0.000519961 4.89961e-22)
(0.011456 -0.00481408 2.28505e-21)
(0.0144524 -0.00934981 -1.77604e-20)
(-0.0185597 -0.00960352 -6.96383e-21)
(-0.00203752 0.000577494 0)
(0.00122205 -0.0151668 4.50938e-20)
(0.0134331 0.00699585 4.27841e-21)
(0.153116 0.0358924 -1.26905e-20)
(-0.00204398 0.000208639 3.06626e-22)
(0.0417222 0.0139432 -6.99358e-21)
(0.0526593 -0.0782577 0)
(0.0116145 0.0333003 -5.30493e-21)
(-1.73908e-05 0.00397264 1.27093e-21)
(0.00786204 0.000201794 2.6014e-21)
(0.0133324 -0.00158901 0)
(-0.145299 -0.13015 4.29799e-20)
(-0.052549 -0.0841494 -2.97055e-19)
(-0.00594777 0.00220001 -2.43921e-21)
(0.0381933 0.0357133 -2.03264e-22)
(-0.00158954 0.0031734 0)
(0.0712217 0.0601459 -7.75141e-21)
(0.00805576 0.000116075 1.4267e-20)
(0.0485736 -0.0677108 0)
(0.0012334 -0.0302869 2.75882e-20)
(-0.0519626 0.115442 0)
(0.00805563 0.0009365 0)
(-0.0145699 -0.206846 2.70206e-20)
(0.00857919 -0.00336681 -1.23783e-20)
(0.0203623 0.00904271 1.00017e-20)
(-0.00516244 -0.00235246 2.41056e-22)
(-0.000370869 0.00435671 1.02184e-20)
(-0.000776221 -0.000726764 0)
(0.00859076 0.00192242 5.81834e-23)
(-0.00933635 -0.0175787 -2.53479e-20)
(-0.00124155 5.12015e-05 0)
(0.0563002 0.0228892 5.1641e-20)
(-0.0522549 0.134593 0)
(0.0403648 -0.0434128 0)
(0.00593253 0.0104387 -1.59479e-22)
(0.00208519 0.00434788 -4.78477e-21)
(-0.179991 -0.060066 0)
(-0.00207866 0.0045377 0)
(-0.00208942 0.00129138 -2.50756e-23)
(0.0262735 0.00188372 5.40693e-21)
(1.96335 -0.11103 -3.48647e-20)
(-0.00387274 0.00900161 -4.02269e-21)
(0.0340981 -0.00443215 1.85771e-20)
(-0.131466 -0.176815 -7.93419e-21)
(-0.00553877 -0.0144758 0)
(-0.00442905 -0.00189659 3.93751e-23)
(0.0597027 -0.0354187 -9.10564e-21)
(0.000825916 0.000665466 0)
(-0.000456143 -0.0328934 0)
(0.282672 0.486623 -4.71682e-20)
(-0.00382784 -0.00118574 -1.44309e-23)
(0.00576265 0.00599811 -3.94176e-21)
(0.0748065 -0.0535723 3.4579e-20)
(-0.0589038 -0.304644 -5.98228e-20)
(-0.00190834 -0.00211787 1.15375e-20)
(-0.503136 -0.492533 1.39183e-19)
(0.000789417 0.000734233 0)
(-0.0137804 -0.0350909 -1.04156e-21)
(0.0104625 0.0210805 3.8038e-21)
(0.0136618 -0.00040472 0)
(-0.0063611 -0.00446394 6.27171e-22)
(0.0491101 -0.000990586 1.49144e-20)
(-0.00109673 1.3073e-05 -2.12454e-21)
(-0.00125608 -0.0425139 -2.03139e-20)
(-0.00672653 -0.0199665 0)
(0.0402066 -0.00378065 -2.8951e-21)
(0.0310589 -0.0157732 7.24732e-20)
(0.00349776 -0.00235324 -6.53701e-21)
(0.0662915 -0.0462806 -1.40858e-20)
(0.00643709 0.0285362 2.54445e-21)
(-0.0646927 0.00348644 0)
(-0.0020464 0.000444803 0)
(0.0069598 0.00627036 -5.01775e-21)
(-0.136543 -0.115597 0)
(0.00673817 -0.000365943 1.04364e-20)
(0.0366485 -0.0207602 0)
(0.0104067 -0.0384535 -1.22956e-21)
(-4.75657e-05 -0.000556248 0)
(0.0070566 0.00518264 2.35556e-21)
(0.0366005 -0.0867958 -2.12877e-19)
(0.328974 0.136001 -2.92456e-19)
(0.132416 0.29296 6.52618e-20)
(0.0236329 -0.00947071 -3.04939e-22)
(0.0143003 0.0196201 0)
(-0.00292244 0.00203639 0)
(-0.00282641 -0.000201276 0)
(0.0172066 -0.0137171 -1.69288e-20)
(0.0198895 0.0110552 0)
(0.0261703 -0.0177146 8.03104e-21)
(0.151187 -0.252223 -1.15038e-19)
(0.0401093 0.0134215 -6.91229e-21)
(0.0522493 0.0147927 1.59303e-20)
(-0.00664869 0.00744996 2.50533e-22)
(0.265299 -0.0232679 4.84682e-19)
(-0.0958848 -0.165115 0)
(-0.00131105 -0.00340586 2.3425e-20)
(-0.265275 0.826079 4.89079e-20)
(-0.00467054 -0.0161488 -2.26188e-20)
(0.259589 0.309406 -2.80781e-19)
(-0.247226 -0.160199 5.36855e-21)
(-0.00637861 -0.0279118 2.23366e-20)
(0.0117931 0.0198539 0)
(-0.00487146 -0.00911364 0)
(-0.00474277 0.0529428 -5.91003e-22)
(0.0381928 -0.0955064 0)
(-0.000543155 0.00808509 -1.71223e-20)
(-0.265864 -0.122398 -1.35077e-19)
(-0.0243368 0.128456 -7.32305e-21)
(-0.149135 -0.0812559 2.02893e-20)
(0.0786419 0.0547097 4.42239e-21)
(-0.0168255 -0.044459 5.55404e-20)
(0.0408748 -0.0212874 1.88272e-21)
(-0.00284925 0.00215398 0)
(0.0501054 0.337677 -2.98647e-20)