/*--------------------------------*- C++ -*----------------------------------*\
| =========                 |                                                 |
| \\      /  F ield         | OpenFOAM: The Open Source CFD Toolbox           |
|  \\    /   O peration     | Version:  v2012                                 |
|   \\  /    A nd           | Website:  www.openfoam.com                      |
|    \\/     M anipulation  |                                                 |
\*---------------------------------------------------------------------------*/
FoamFile
{
    version     2.0;
    format      ascii;
    class       volScalarField;
    location    "50";
    object      k_0;
}
// * * * * * * * * * * * * * * * * * * * * * * * * * * * * * * * * * * * * * //

dimensions      [0 2 -2 0 0 0 0];


internalField   nonuniform List<scalar> 
13308
(
0.0001679
0.00562202
0.0298275
0.000208033
0.000320092
0.000177084
0.0818891
0.000194744
0.0878173
0.0193946
0.000748362
0.00681531
0.000178108
0.000158941
0.000184416
0.0289023
0.000162736
0.0051567
0.000695467
0.105242
0.000286841
0.0480577
0.00734922
0.000253554
0.0296054
0.0326466
0.000361223
0.00074511
0.000307909
0.000258549
0.0267538
0.000385838
0.00559463
0.0395928
0.000765989
0.000160835
0.0739607
0.00778962
0.000223207
0.0289349
0.000156117
0.000183492
0.000554855
0.000177702
0.0002252
0.200978
0.000187869
0.000192868
0.00017475
0.0423048
0.000177699
0.000218629
0.030414
0.000772494
0.0395963
0.0483367
0.000176423
0.000225558
0.000237475
0.000234212
0.000649248
0.111853
0.000223406
0.000169117
0.000178198
0.00691339
0.000175738
0.197349
0.00015753
0.123515
0.00599144
0.000223059
0.000152162
0.000307477
0.145476
0.000223609
0.000140354
0.0373726
0.000191567
0.000196665
0.000213684
0.000142122
0.000222452
0.000245227
0.184889
0.000196453
0.0361688
0.000764293
0.000254919
0.125071
0.000194487
0.000178219
0.000304697
0.000291031
0.000170213
0.000158647
0.000184963
0.00019707
0.00165948
0.105032
0.000193347
0.000159949
0.000175587
0.000293975
0.000619127
0.0211897
0.0288771
0.000174368
0.0445641
0.0406075
0.000201151
0.106745
0.000205292
0.000190012
0.000206515
0.000678862
0.201911
0.00289656
0.000278622
0.0002336
0.000302127
0.00029382
0.000160424
0.000168782
0.000440452
0.000428593
0.169436
0.179502
0.000152141
0.0406979
0.0131243
0.00033012
0.000169915
0.000159299
0.0735997
0.000169394
0.000177115
0.000356451
0.000423078
0.000185693
0.0844823
0.000200737
0.000169692
0.000205983
0.000206959
0.00039119
0.000160293
0.131766
0.000211879
0.000357963
0.0440517
0.000182349
0.00107854
0.000640704
0.111031
0.000408872
0.000166275
0.000164225
0.000157204
0.00062653
0.010486
0.000221929
0.000168984
0.127972
0.000410882
0.000380509
0.0443539
0.00016297
0.0374839
0.000266516
0.000199728
0.00710155
0.000183208
0.0552067
0.0337086
0.00686203
0.0451123
0.0368485
0.000369007
0.000166817
0.00249637
0.0333254
0.000176376
0.0284607
0.184288
0.000151127
0.0564947
0.0464733
0.000348457
0.000115718
0.00101079
0.0915966
0.000208658
0.00538854
0.000201084
0.00439074
0.000197801
0.000159255
0.0134921
0.000182662
0.0257782
0.0315538
0.000839384
0.0568954
0.0379519
0.198111
0.0305695
0.135299
0.00291174
0.0372847
0.00202834
0.000379194
0.000271623
0.0871263
0.146196
0.000284647
0.000174469
0.000920265
0.00060862
0.124725
0.000735022
0.000183806
0.000393561
0.000141805
0.00029772
0.0308545
0.000342169
0.00058064
0.0440308
0.196485
0.0345156
0.000284108
0.0331182
0.176028
0.000174774
0.000313139
0.0533845
0.000264713
0.105312
0.000286929
0.000251112
0.000176276
0.000293961
0.000139325
0.00673331
0.133994
0.00404829
0.160899
0.000141777
0.185645
0.151174
0.0061439
0.000160857
0.114888
0.00188445
0.000288319
0.00053498
0.000183545
0.0719308
0.0414028
8.23174e-05
0.165988
0.000312694
0.000210841
0.000396507
0.000319479
0.00450443
0.000168362
0.000717149
0.0207095
0.0189016
0.000312553
0.00016101
0.000425399
0.000190844
0.000181427
0.000160013
0.00596658
0.000317881
0.000368284
0.00515699
0.000160387
0.000269236
0.000289136
0.0488652
0.104191
0.000209055
0.000169494
0.000394077
0.108033
0.000301103
0.000187598
0.152077
0.0317092
0.000175144
0.000741122
0.0471593
0.00032568
0.000379703
0.0298202
0.00559704
0.000244459
0.0381559
0.149426
0.139884
0.000162316
0.000357455
0.0589494
0.14735
0.000150766
0.00261644
0.0302285
0.000246973
0.000831678
0.000544889
0.0296105
0.000172959
0.000173756
0.00015615
0.147457
0.000158287
0.000141685
0.0404136
0.000140518
0.0493662
0.000207925
0.000285489
0.000175532
0.000225585
0.000386185
0.00586186
0.000170031
0.149853
0.000209006
0.000177805
0.000505241
0.0237171
0.00016396
0.000332482
0.146554
0.000259906
0.00017421
0.00017442
0.0299661
0.000516176
0.105264
0.000392792
0.000383288
0.000178955
0.000286016
0.000320137
0.0740981
0.0885387
0.00018417
0.00017898
0.000232985
0.0477383
0.000165709
0.000386549
0.00165843
0.000352675
0.0674928
0.000273778
0.00568472
0.0332909
0.115391
0.000173257
0.000139514
0.000228218
0.000226836
0.0225246
0.0212393
0.170428
0.000174325
0.00022634
0.000354796
0.124938
0.0271764
0.000216633
0.00699574
0.000214716
0.000211181
0.000414477
0.000312786
0.000159484
0.0329419
0.0983426
0.000249141
0.000175363
0.0417879
0.000282524
0.000187807
0.000397057
0.0271379
0.00194298
0.000359717
0.00080889
0.000183572
0.00051338
0.000181274
0.000586523
0.000172597
0.0970878
0.0983726
0.000142795
0.000781882
0.000168472
0.000159666
0.0177231
0.000576288
0.000159275
0.168745
0.000621836
0.000182337
0.000182574
0.113433
0.000213676
0.000183526
0.000243604
0.000366381
0.000397041
0.000229411
0.000252027
0.000209428
0.000204396
0.0264176
0.149009
0.000202427
0.000955126
0.000182978
0.110661
0.000154901
0.000383847
0.00152732
0.000200754
0.000139588
0.139958
0.000178341
0.000319087
0.0298443
0.100833
0.0651907
0.048877
0.000228442
0.0487646
0.00022321
0.00687899
0.0284372
0.000175621
0.178239
0.000167693
0.000880536
0.000591455
0.0471706
0.000249395
0.000345909
0.000273615
0.000633464
0.00673239
0.0696794
0.000571844
0.0495204
0.000177855
0.00775218
0.000230046
0.0120348
0.000163397
0.000212676
0.000192853
0.0181547
0.173624
0.000172551
0.00541043
0.000201482
0.000402977
0.049613
0.000371919
0.000202345
0.00024187
0.000175094
0.000169785
0.000177704
0.000172516
0.000202412
0.000454447
0.000205491
0.000171095
0.00101956
0.00020291
0.000178081
0.000186473
0.000349466
0.00093579
0.000140312
0.000142944
0.000205384
0.000191681
0.0007411
0.000411196
0.00106281
0.196042
0.0151237
0.000744349
0.00316868
0.000245495
0.000201345
0.0235817
0.0590003
0.000178903
0.0229208
0.00037281
0.000422801
0.000212833
0.000178543
0.00025198
0.000512219
0.034193
0.000163713
0.000207323
0.0527552
0.00605389
0.0891501
0.176315
0.000186598
0.000155971
0.155773
0.000176135
0.000139319
0.000534472
0.000442828
0.000548815
0.00382593
0.152152
0.0326688
0.000150507
0.000535443
0.000214717
0.0501929
0.000140661
0.149227
0.000175738
0.000380963
0.000158841
0.000623885
0.000213666
0.0496075
0.000730853
0.00783006
0.000177102
0.000201009
0.143677
0.00714885
0.0043331
0.000285245
0.0299435
0.000235378
0.0662921
0.0480285
0.00523638
0.0681502
0.000282115
0.000159882
0.000202955
0.000568794
0.00019196
0.155737
0.0502187
0.000173161
0.167443
0.180059
0.000256597
0.000178503
0.000192146
0.00017819
0.00306611
0.0003099
0.000185409
0.000180526
0.0153348
0.000174938
0.0244808
0.00038221
0.000248441
0.000433928
0.000167797
0.000175556
0.000170664
0.000318928
0.000244599
0.000177305
0.00373005
0.000180175
0.000146175
0.000141672
0.000183667
0.115263
0.0275849
0.000188103
0.0609075
0.000185585
0.000181827
0.000186152
0.000296654
0.000242824
0.000215393
0.000300542
0.000188076
0.00144817
0.000276513
0.226842
0.0464159
0.00026774
0.00032847
0.000177093
0.0520444
0.00282353
0.000346532
0.000152408
0.00241298
0.000522285
0.000482165
0.000171334
0.000172901
0.00836796
0.000384767
0.0187076
0.000208969
0.0001752
0.000410995
0.021852
0.000283321
0.0692918
0.00289132
0.032514
0.00759168
0.00057618
0.000316543
0.000222808
0.0576716
0.0254055
0.000159068
0.000177012
0.0527987
0.000807245
0.0653331
0.00019605
0.000223888
0.000179184
0.000140884
0.000750383
0.147601
0.000177683
0.0373647
0.000196958
0.0405357
0.000167203
0.000177782
0.165698
0.0700991
0.0163622
0.000560615
0.000772413
0.000418426
0.184292
0.000286887
0.159436
0.0461216
0.000185513
0.0289094
0.10349
0.0316008
0.000156708
0.000494838
0.000190322
0.000177273
0.0683517
0.0270868
0.195253
0.000240354
0.0622526
0.000245878
0.000405943
0.000271127
0.00014115
0.000290645
0.000191868
0.0913623
0.0573054
0.199685
0.128009
0.000154379
0.102645
0.000267058
0.20004
0.0863626
0.000245441
0.000150492
0.000199588
0.000149912
0.0016936
0.000210074
0.00100725
0.000679087
0.000355175
0.000262089
0.000156788
0.000119138
0.00193
0.000925671
0.000232954
0.000170461
0.000177372
0.0360437
0.000159799
0.109567
0.000332531
0.000211686
0.000150364
0.000163367
0.000181623
0.000161891
0.000205367
0.00019616
0.0109648
0.197715
0.000158903
0.000430765
0.0431304
0.0739828
0.134574
0.00015927
0.00019642
0.000159627
0.000196791
0.0350565
0.000245415
0.093347
0.00055772
0.000653496
0.000192362
0.000176679
0.0814746
0.000190666
0.154826
0.000191703
0.000206315
0.076057
0.000164873
0.000144802
0.0294902
0.0789757
0.0409479
0.0866294
0.0602818
0.0712588
0.000180225
0.000178219
0.000295585
0.000882016
0.1723
0.000162339
0.000171725
0.000404369
0.118554
0.000145803
0.000164421
0.0708982
0.0158523
0.0315565
0.000195389
0.000140533
0.00018884
0.000201041
0.000195417
0.000140211
0.00019168
0.000231514
0.1418
0.000140111
0.000359503
0.0015465
0.000702153
0.000212415
0.000177255
0.000194685
0.124932
0.00526133
9.72225e-05
0.000505175
0.000261244
0.000657325
0.000198873
0.105731
0.00024108
0.0466661
0.000176754
0.0301504
0.0001716
0.000295584
0.000163792
0.000224517
0.000162451
0.000186951
0.000209847
0.000197821
0.0582928
0.0476133
0.00117744
0.000257904
0.0001771
0.0391917
0.000166494
0.000145123
0.0056634
0.0756909
0.00030815
0.00346928
0.0350442
0.000195477
0.00015684
0.00070442
0.000150591
0.000248929
0.0112771
0.00014835
0.000204985
0.00105421
0.0255212
0.000163955
0.0598777
0.000150078
0.00029909
0.000422909
0.000498474
0.000199449
0.000328664
0.000192316
0.000276635
0.000205047
0.007017
0.0475242
0.00015795
0.00725177
0.000644581
0.0929131
0.00014007
0.000203987
0.0297239
0.000183397
0.000289559
0.000808888
0.000215618
0.000197826
0.00240897
0.03581
0.0354211
0.00110105
0.000377871
0.000151739
0.00014191
0.000208557
0.000298315
0.0979889
0.0183275
0.000349864
0.000391085
0.000472234
0.0126901
0.0320737
0.000164177
0.0482659
0.000197455
0.00837977
0.06103
0.000224214
0.000369846
0.000180443
0.178634
0.013505
0.000174564
0.0160143
0.189231
0.137811
0.000664848
0.000346841
0.000287426
0.000150535
0.037793
0.000187316
0.000895813
0.000215769
0.000157891
0.000175205
0.000251237
0.0161652
0.000163655
0.00112476
0.000178126
0.000433237
0.000328209
0.000149213
0.137772
0.000233438
0.000234773
0.00637659
0.000181113
0.000170337
0.000419944
0.000205314
0.000143798
0.000772238
0.151586
0.0219362
0.0765186
0.000176277
0.000189259
0.0332355
0.200731
0.0994059
0.000167264
0.00107111
0.000240406
0.000209195
0.00458498
0.000157507
0.000151964
0.000264274
0.000162566
0.000182297
0.00023323
0.000180981
0.00117642
0.000173612
0.00054579
0.196596
0.000463143
0.000248507
0.000154776
0.000176873
0.000205975
0.00277475
0.0237453
0.0201419
0.0486111
0.00348308
0.000213331
0.000231018
0.183451
0.000223075
0.000229287
0.000190044
0.000164055
0.00019174
0.000233829
0.00282135
0.000397606
0.000167748
0.000226178
0.000168092
0.0821132
0.000220855
0.000385329
0.000231827
0.00050107
0.000265833
0.000188579
0.000251037
0.000234879
0.0173579
0.000350758
0.000216185
0.000285976
0.000236716
0.000325739
0.000177384
0.000180592
0.000502948
0.000165586
0.00592856
0.00025705
0.000226616
0.000425142
0.00341296
0.000179056
0.000138871
0.000463863
0.000151004
0.000192037
0.000175451
0.000574742
0.000580511
0.000287205
0.000307346
0.0137914
0.000154176
0.000160157
0.157249
0.00156971
0.000575505
0.000180311
0.000339877
0.00017553
0.000294414
0.040284
0.000200004
0.00016304
0.000331187
0.118847
0.000180303
0.000188565
0.00021959
0.000225481
0.000200856
0.00015389
0.0550861
0.000337264
0.00343919
0.000628144
0.000299986
0.0659499
0.000218613
0.00567695
0.00020138
0.00110728
0.000158618
0.029137
0.000311234
0.000434745
0.00025846
0.000272382
0.00581498
0.000230988
0.000180062
0.000175139
0.000353635
0.000222283
0.0792733
0.0503025
0.000628053
0.0288815
0.000181269
0.0208375
0.00015869
0.000167826
0.000181735
0.000179471
0.150617
0.000958914
0.000159148
0.0383269
0.00021708
0.000979388
0.170462
0.000674349
0.000170453
0.000163934
0.00699174
0.000146139
0.000176915
0.000207059
0.0506524
0.000275225
0.000209012
0.0003799
0.000303351
0.000319008
0.000180562
0.0795716
0.000203471
0.000466534
0.0321892
0.0169569
0.000240922
0.000672169
0.000386595
0.000709214
0.000526847
0.000197562
0.0372233
0.000161832
0.00052131
0.000181042
0.000155171
0.000194363
0.0414693
0.00166037
0.0494088
0.000654183
0.020818
0.0590134
0.000181199
0.193748
0.000321159
0.000198638
0.000693366
0.0382636
0.000138778
0.0520921
0.000498746
0.000156514
0.174124
0.000178554
0.000209026
0.100384
0.000229954
0.00034866
0.0105224
0.0290112
0.042604
0.000176135
0.000139792
0.000197984
0.00250245
0.000308187
0.000347533
0.000362569
0.000160889
0.000149182
0.000289095
0.000537577
0.00014665
0.0498729
0.000226964
0.137164
0.033205
0.000214326
0.00538693
0.000140839
0.000267947
0.0434672
0.000179098
0.000154474
0.032623
0.0532943
0.0238187
0.000273183
0.000391355
0.00019557
0.000570879
0.182568
0.000307261
0.00101553
0.124136
0.0526423
0.190527
0.000149381
0.0926788
0.000351644
0.000186035
0.000251156
0.00160823
0.00015751
0.000171554
0.000227909
0.000179923
0.000177656
0.00016586
0.000192727
0.000204399
0.154838
0.000337286
0.00015906
0.0892374
0.000197826
0.000198015
0.00030208
0.000537791
0.000170901
0.00292143
0.000207863
0.142331
0.000154131
0.00318
0.0627506
0.000701685
0.000239976
0.000191422
0.000215284
0.000156118
0.00019837
0.000297669
0.0947167
0.000191642
0.000218926
0.000476899
0.0221208
0.105868
0.0321815
0.0501003
0.000301078
0.000160889
0.000153967
0.000488483
0.000216379
0.00029422
0.00311239
0.000259815
0.000199569
0.000158838
0.000156947
0.13682
0.00220365
0.000682818
0.000359444
0.000226852
0.000146314
0.000166523
0.00018769
0.00343089
0.000268354
0.000148559
0.000216583
0.00120033
0.0982041
0.000170958
0.000182068
0.0003369
0.000381093
0.000196281
0.000227846
0.000290202
0.0010791
0.000211633
0.0222758
0.000301321
0.000335245
0.000292683
0.175643
0.000303612
0.0393396
0.000188718
0.175044
0.135259
0.0365526
0.000189329
0.00213126
0.000288455
0.00101738
0.108395
0.000745395
0.0265385
0.0175469
0.000318909
0.000298144
0.053726
0.000225808
0.000257891
0.00040344
0.036963
0.00622228
0.058423
0.0021179
0.0603453
0.000214121
0.00927274
0.016172
0.0112008
0.000154886
0.158641
0.168594
0.133213
0.00243799
0.000354242
0.000310032
0.000292199
0.0379018
0.0162757
0.000238696
0.00120304
0.000237993
0.000203218
0.00458006
0.000177212
0.151583
0.198366
0.000240514
0.108067
0.00806328
0.000195451
0.00705775
0.000224562
0.000179453
0.000754656
0.00472436
0.00060576
0.0966636
0.00019916
0.000156051
0.000250584
0.000150936
0.0572348
0.000183545
0.0424264
0.0377863
0.000162057
0.000378287
0.000148683
0.0430304
0.0369693
0.0583439
0.000355279
0.000151292
0.197973
0.000450923
0.000288801
0.000264017
0.000187087
0.0169241
0.00016074
0.000193623
0.000351794
0.000148543
0.000252905
0.000217492
0.00101778
0.0294582
0.000150315
0.00014236
0.17426
0.00102334
0.000482051
0.000259166
0.172494
0.000141483
0.0113888
0.00227889
0.00207413
0.000210823
0.000200006
0.000106587
0.0432464
0.000386739
0.000172818
0.000186178
0.000142678
0.00401092
0.0660646
0.000186618
0.00077341
0.000886147
0.000327236
0.0123505
0.00016653
0.000217714
0.0392454
0.000307155
0.0001627
0.000186867
0.000172066
0.183812
0.000147015
0.000520339
0.0986961
0.000190272
0.000545971
0.000321134
0.000161129
0.0908045
0.000236304
0.000196014
0.188079
0.000301177
0.166841
0.000206091
0.000649599
0.000159152
0.000140018
0.000187093
0.00134568
0.0629541
0.000150952
0.000172955
0.000165915
0.000164351
0.000190462
0.000650818
0.000369576
0.0617324
0.000325723
0.000311915
0.000309425
0.0485564
0.00611069
9.84854e-05
0.0162363
0.000159153
0.000158997
0.000157862
0.0508453
0.000265212
0.000397849
0.0693689
0.000166086
0.00764772
0.00597189
0.000244797
0.103306
0.000203197
0.000186414
0.0960714
0.000216172
0.000191171
0.000174354
0.000397035
0.170037
0.0338352
0.000615054
0.134774
0.000180938
0.000557675
0.00027186
0.000220495
0.000188198
0.012533
0.129438
0.000175377
0.000302401
0.000303598
0.00018735
0.000143022
0.0697258
0.000160311
0.000153535
0.00097807
0.000218112
0.00683187
0.0403273
0.0427579
0.00050716
0.0634443
0.000195073
0.136094
0.000172644
0.000265345
0.000259366
0.00016578
0.000207203
0.00105505
0.000151507
0.00119544
0.000339955
0.168049
0.000225903
0.000186534
0.0619373
0.000258121
0.000161666
0.0749995
0.000474361
0.0223636
0.0001517
0.00123423
0.00015508
0.117668
0.0468144
0.118118
0.000431763
0.000146007
0.0204684
0.000203444
0.00032555
0.000228544
0.000283941
0.00016361
0.00106376
0.000174456
0.0489139
0.000160487
0.12993
0.00942327
0.000367623
0.000295204
0.197148
0.0185521
0.000636871
0.000149988
0.0810674
0.185979
0.000180251
0.000357897
0.000182549
0.000226457
0.00212548
0.0234801
0.0005665
0.000196649
0.0004368
0.000753749
0.000428374
0.000200953
0.000151596
0.178291
0.0392984
0.000288646
0.00033679
0.00025991
0.0309268
0.000205941
0.000205601
0.162203
0.134779
0.000373805
0.000381809
0.000150376
0.000288321
0.00019409
0.000324503
0.00161287
0.000519954
0.000331324
0.000143696
0.0807278
0.000224371
0.000242891
0.000201416
0.197337
0.091843
0.000555446
0.000246274
0.000150079
0.000159278
0.161826
0.0416012
0.0119174
0.0614683
0.132548
0.000349018
0.152979
0.00031302
0.0133873
0.000196782
0.000175788
0.000199869
0.209344
0.000203642
0.000213471
0.000546393
0.0275444
0.00110062
0.00115071
0.000167992
0.0460773
0.000251592
0.000546215
0.000162833
0.000333127
0.000140373
0.000158521
0.00212224
0.00293959
0.000203857
0.000176183
0.000157633
0.000413599
0.000376675
0.0473385
0.125358
0.00206827
0.188428
0.119987
0.0297243
0.000201315
0.0467577
0.00042762
0.000263754
0.000160786
0.000204042
0.000185844
0.000198814
0.000159935
0.000179351
0.000196805
0.000219456
0.000182252
0.00020924
0.0285392
0.0488583
0.000222617
0.00020651
0.000329094
0.000175646
0.0283148
0.00016004
0.00020233
0.0390682
0.00109436
0.000297259
0.000174401
0.000178189
0.000170753
0.140828
0.0160508
0.0178894
0.0683766
0.000164364
0.000220589
0.00101123
0.000183668
0.000205626
0.00826338
0.000154644
0.000285834
0.00020439
0.000532793
0.000160724
0.000149735
0.152166
0.000191414
0.000277805
0.0278968
0.000148589
0.000203
0.000157792
0.000161795
0.000157737
0.000327614
0.000159358
0.0854527
0.000852735
0.000177004
0.000202406
0.000253136
0.00940269
0.0302453
0.000180385
0.000158837
0.000159701
0.000158181
0.000170323
0.00019783
0.000140929
0.000339509
0.000164225
0.000400632
0.0298311
0.000156695
0.000218316
0.000242761
0.000170438
0.000231802
0.180779
0.000353277
0.000200671
0.000157891
0.0273976
0.00623365
0.000203776
0.000472727
0.000286661
0.000161914
0.000157861
0.0499256
0.000249088
0.000157185
0.000502666
0.00065324
0.0206639
0.00028979
0.00251092
0.000209585
0.0529659
0.0420164
0.000267807
0.000159634
0.000213699
0.000178771
0.000222034
0.001181
0.000166914
0.000211852
0.0676943
0.0722043
0.000499172
0.000229839
0.010598
0.000231729
0.174639
0.0289717
0.000161397
0.000180786
0.0527577
0.000350102
0.0360217
0.000203765
0.0398312
0.000440641
0.000541186
0.000160976
0.115168
0.0031245
0.100123
0.000314987
0.000456126
0.0475142
0.0292965
0.0501429
0.000340793
0.00333663
0.0295984
0.000119223
0.0495339
0.045301
0.0609645
0.0473278
0.190959
0.0186602
0.05835
0.000169419
0.0398611
0.0669878
0.000180355
0.0653188
0.000164475
0.17276
0.000325819
0.000698086
0.0990318
0.0120309
0.0614019
0.000721655
0.000166626
0.000190849
0.00542655
0.000770937
0.0110352
0.000236197
0.00104003
0.000195136
0.110203
0.000175354
0.0825211
0.0003395
0.000178236
0.000444712
0.000165278
0.0628036
0.000194092
0.000152543
0.157047
0.000176964
0.000503619
0.113412
0.000345776
0.0898162
0.000196501
0.000198053
0.00413714
0.0412596
0.000196736
0.00141958
0.127302
0.000223798
0.062007
0.000187483
0.000176992
0.000194423
0.00553836
0.000150261
0.000353114
0.000202815
0.000143943
0.000717699
0.0937001
0.000145302
0.000548529
0.0199097
0.0174299
0.0394984
0.000192825
0.00168221
0.000145276
0.00384256
0.15488
0.000236377
0.19042
0.000175936
0.00521021
0.000347942
0.000399635
0.0245296
0.00188295
0.000160327
0.00049458
0.00048686
0.000971893
0.13904
0.18133
0.00018327
0.015756
0.00471427
0.0424842
0.000160386
0.000147782
0.000195197
0.000966295
0.19823
0.000197228
0.133312
0.146159
0.073362
0.00284804
0.158268
0.198767
0.000190159
0.000143965
0.00105575
0.0235242
0.000244764
0.0771559
0.000161399
0.000194503
0.000248967
0.00462014
0.0432509
0.000189384
0.000212228
0.000144648
0.0340453
0.0380869
0.0850277
0.0486098
0.0506066
0.00952938
0.000191276
0.000180358
0.0484778
0.000179919
0.000191956
0.000175974
0.000175268
0.000182821
0.00313814
0.100301
0.147561
0.000178586
0.000254959
0.000150152
0.000407389
0.191682
0.0516694
0.000607135
0.000169699
0.125167
0.000235113
0.000165667
0.000192468
0.0001681
0.00745926
0.000149738
0.000405365
0.000337656
0.0356384
0.120535
0.0206941
0.15713
0.000222626
0.00146674
0.00018017
0.023672
0.106845
0.000159282
0.000411922
0.00617105
0.00317683
0.000406508
0.021723
0.194823
0.000245063
0.0171826
0.000152614
0.000148047
0.022319
0.0179481
0.0951992
0.000177739
0.0594544
0.00045544
0.0211291
0.167554
0.000169051
0.154596
0.000432452
0.000181751
0.0136791
0.000163829
0.193217
0.000304167
0.0721913
0.0387433
0.000196057
0.000148148
0.0327082
0.0883001
0.130987
0.000319088
0.000716531
0.0272371
0.000199245
0.000148704
0.140125
0.000189063
0.000208367
0.000424288
0.181147
0.0936556
0.000159918
0.00240571
0.0592073
0.000164498
0.00054772
0.000169195
0.162455
0.000212901
0.000156594
0.0441057
0.000203446
0.000527794
0.000161764
0.000183633
0.0191019
0.000185977
0.00020115
0.000144968
0.0371237
0.000267343
0.000316236
0.0531144
0.166241
0.0189713
0.000317455
0.000158168
0.0407102
0.000208928
0.000174306
0.000202914
0.00246254
0.000487844
0.000220861
0.000299713
0.00183293
0.000239631
0.000194741
0.033251
0.0921285
0.000365996
0.154171
0.000313323
0.00056851
0.0521832
0.000151259
0.000177804
0.000168355
0.00812652
0.0380299
0.00791211
0.0433333
0.055323
0.0258274
0.0310121
0.000710884
0.00015923
0.00638344
0.0132225
0.000200345
0.000410517
0.190198
0.000228533
0.000232648
0.0316624
0.0040826
0.150922
0.00023124
0.000353676
0.0343481
0.00180199
0.000253075
0.0778011
0.127481
0.0159476
0.0509518
0.0493331
0.000195441
0.0479257
0.0374568
0.000180045
0.00721032
0.000177035
0.000217835
0.00182988
0.000172032
0.000179106
0.0470448
0.000178006
0.000292016
0.0846723
0.000188558
0.000188774
0.120064
0.0274048
0.0354054
0.000307427
0.0438632
0.000158656
0.000262881
0.0253259
0.031558
0.10369
0.000212291
0.0573856
0.000190209
0.0420874
0.000160383
0.000165175
0.000162288
0.000537929
0.00018973
0.000487484
0.0104768
0.000183359
0.0922131
0.0564823
0.0204808
0.19628
0.000166019
0.000217464
0.0380306
0.0002038
0.000194645
0.0894494
0.107773
0.117855
0.000258926
0.000371216
0.0364686
0.011949
0.000363045
0.134099
0.0352851
0.000157206
0.0392461
0.000161059
0.000491567
0.000188214
0.0576819
0.029528
0.0257855
0.00539786
0.000544956
0.000314437
0.140911
0.000212127
0.151994
0.00015981
0.0472205
0.000179474
0.0507311
0.0602254
0.0390177
0.000817848
0.000353693
0.00562357
0.000171206
0.00530109
0.000244367
0.000360324
0.103965
0.000186501
0.000425245
0.0594211
0.0061106
0.000927912
0.076045
0.0047636
0.0532732
0.0484678
0.000215752
0.000198629
0.000269724
0.000173877
0.000157351
0.154756
0.0604173
0.0416333
0.000169908
0.134862
0.187799
0.11575
0.0266455
0.0294708
0.000161562
0.172198
0.130585
0.0238802
0.000267477
0.0260863
0.0570464
0.00018077
0.027826
0.000196898
0.0654192
0.166278
0.160294
0.0456552
0.0421583
0.144031
0.000170902
0.0889692
0.0002595
0.0350002
0.000279876
0.138773
0.000185422
0.158984
0.0548972
0.000264894
0.000159227
0.000275232
0.000205398
0.000153963
0.0777404
0.0139226
0.000171096
0.0606265
0.0306155
0.0367386
0.0315558
0.000362007
0.0381624
0.174855
0.0159734
0.0667016
0.000158907
0.153512
0.197255
0.000273857
0.0514487
0.138261
0.00027327
0.0207543
0.000283247
0.000196035
0.000193748
0.0407138
0.0665628
0.000330265
0.071984
0.0583742
0.00372597
0.00597714
0.00664906
0.000364851
0.157214
0.000349893
0.084801
0.000172971
0.0265765
0.000180703
0.00626055
0.000174505
0.0442235
0.000204626
0.000179264
0.0445599
0.0812561
0.0307347
0.0362347
0.000343398
0.0493755
0.0520554
0.000143475
0.200097
0.118016
0.000176443
0.063331
0.000179368
0.0366596
0.000178238
0.000185605
0.000150453
0.00606491
0.178058
0.152691
0.0394413
0.111408
0.00020468
0.0377226
0.000199723
0.000228397
0.0377993
0.127519
0.000158091
0.19688
0.000601859
0.0384933
0.17588
0.00638995
0.199443
0.000289589
0.10146
0.000212306
0.00944249
0.000162432
0.000168529
0.0338691
0.00133835
0.000393832
0.000170913
0.000172034
0.000147996
0.000143904
0.000188052
0.0473088
0.0589484
0.000202159
0.000389509
0.172208
0.0003421
0.00681278
0.176647
0.000150219
0.00024835
0.000225435
0.040125
0.000270446
0.000341368
0.000179584
0.000199167
0.135574
0.000146939
0.129154
0.172611
0.0681793
0.000243522
0.000307647
0.103371
0.00494394
0.0686404
0.000225954
0.00051502
0.123121
0.000141896
0.137719
0.00069626
0.155817
0.121566
0.000404794
0.170747
0.0607835
0.0749791
0.127744
0.0944497
0.0633694
0.0988121
0.00302741
0.000500874
0.00135949
0.151202
0.164797
0.000229695
0.000640334
0.000477755
0.136709
0.0364628
0.0517387
0.000188839
0.00590308
0.000296086
0.000163828
0.188042
0.000299865
0.000169553
0.00020159
0.169427
0.170895
0.000178334
0.00182612
0.0262277
0.000181432
0.00271059
0.163595
0.000214284
0.000168911
0.0137414
0.000249067
0.000777323
0.0113291
0.154257
0.186466
0.0447054
0.000710626
0.200203
0.000374766
0.0806309
0.0202642
0.176079
0.19562
0.113381
0.00312089
0.0253978
0.200917
0.0927858
0.00548207
0.122226
0.180276
0.00619003
0.000273181
0.000130477
0.000173925
0.000594991
0.104623
0.159529
0.148752
0.000188906
0.000308098
0.0485923
0.137003
0.000516864
0.000331738
0.000145731
0.0366452
0.000174036
0.0001757
0.12971
0.000353612
0.000200395
0.0740905
0.0354054
0.158388
0.000142093
0.00178811
0.0567547
0.000174869
0.000281165
0.000213214
0.000184309
0.00030712
0.000185709
0.000315277
0.000182517
0.0658018
0.000425352
0.159983
0.066063
0.0479461
0.118979
0.155635
0.109305
0.0022586
0.000178167
0.000445274
0.00034828
0.0648764
0.167955
0.000171336
0.0109137
0.000363214
0.0734896
0.0223476
0.000181494
0.0246635
0.0873962
0.1768
0.000880428
0.0256578
0.122987
0.000203299
0.183206
0.190158
0.000280569
0.145936
0.0566293
0.00075442
0.048179
0.128415
0.130085
0.13626
0.000296148
0.0103502
0.0441213
0.136004
0.000310857
0.136561
0.000269735
0.000574259
0.00171628
0.00109378
0.173237
0.000163372
0.000206492
0.0782167
0.000243917
0.0494283
0.031533
0.00382294
0.112492
0.00014461
0.000272353
0.0729903
0.000322475
0.000219749
0.0533203
0.00018635
0.000394414
0.000380526
0.114575
0.00684712
0.189354
0.0122336
0.000406744
0.0126011
0.00137287
0.136026
0.000359941
0.000264056
0.0264191
0.107389
0.000274925
0.000301607
0.00027946
0.185864
0.000209592
0.000196431
0.146093
0.0653897
0.101353
0.000213126
0.000388296
0.133879
0.0449522
4.18251e-05
0.00113034
0.112223
0.0945037
0.000145048
0.000419163
0.0658274
0.000162056
0.0447616
0.108536
0.000402972
0.000351569
0.0449972
0.00112393
0.000174133
0.00637696
0.000159238
0.000165427
0.0435371
0.0030947
0.000354596
0.000318596
0.194823
0.000582551
0.00127791
0.0694955
0.079925
0.0240609
0.000165547
0.000397401
0.158914
0.066997
0.000554778
0.00316954
0.000251903
0.00230055
0.00017965
0.167645
0.058565
0.000186612
0.000355429
0.00027987
0.00124584
0.0457515
0.00828661
0.0001867
0.107535
0.000521169
0.0247427
0.0122574
0.000378543
0.000152097
0.000186627
0.0173114
0.0695666
0.000335589
0.0707496
0.0814667
0.00188564
0.000142668
0.00568754
0.000336079
0.0001777
0.000868569
0.146157
0.177211
0.000167683
0.000246594
0.000198583
0.00147744
0.000651152
0.0629899
0.0278785
0.000242791
0.000166525
0.000170257
0.000254125
0.168912
0.0501317
0.157691
0.00016876
0.000193347
0.187135
0.000269267
0.000322378
0.000344765
0.000144912
0.00644119
0.000175387
0.0881246
0.00034183
0.000173274
0.00134681
0.000169039
0.000143738
0.0280124
0.000167007
0.000194832
0.000179417
0.073682
0.18092
0.00934508
0.000143441
0.00017032
0.0627952
0.000667355
0.158941
0.000593232
0.0516804
0.0603131
0.000268869
0.000174368
0.0295861
0.000337764
0.121921
0.000751697
0.000290034
0.000304809
0.000220287
0.000282022
0.00631483
0.000195256
0.00016824
0.0487659
0.000178191
0.0251742
0.000181295
0.000254979
0.190697
0.000187233
0.000178107
0.0103537
0.000981635
0.000288948
0.128191
0.000236029
0.000145608
0.00233713
0.0619767
0.000205462
0.00172329
0.00272365
0.000274957
0.000233826
0.000309555
0.200826
0.0996371
0.000159978
0.153702
0.000195046
0.00555768
0.000550195
0.000164773
0.000167612
0.000337674
0.169244
0.00352576
0.000172945
0.000693709
0.16149
0.000192059
0.167596
0.000162897
0.0393501
0.149115
0.000190596
0.000550528
0.0216561
0.163312
0.18211
0.0564091
0.000299704
0.0001941
0.188608
0.000165381
0.0643977
0.000266793
0.000193241
0.000231961
0.00103791
0.170626
0.000480696
0.0982461
0.000165242
0.000170662
0.000180031
0.0027302
0.000197228
0.000313433
0.000209205
0.000278583
0.00017276
0.0882951
0.000177337
0.00840768
0.00116935
0.00054103
0.000708706
0.00113435
0.00024762
0.0445665
0.000173596
0.00024815
0.00563731
0.000303935
0.00286018
0.00227004
0.000178895
0.0014924
0.000163146
0.151757
0.000173174