/*--------------------------------*- C++ -*----------------------------------*\
| =========                 |                                                 |
| \\      /  F ield         | OpenFOAM: The Open Source CFD Toolbox           |
|  \\    /   O peration     | Version:  v2012                                 |
|   \\  /    A nd           | Website:  www.openfoam.com                      |
|    \\/     M anipulation  |                                                 |
\*---------------------------------------------------------------------------*/
FoamFile
{
    version     2.0;
    format      ascii;
    class       volVectorField;
    location    "50";
    object      U;
}
// * * * * * * * * * * * * * * * * * * * * * * * * * * * * * * * * * * * * * //

dimensions      [0 1 -1 0 0 0 0];


internalField   nonuniform List<vector> 
13308
(
(0.916138 -0.0069347 0)
(0.720389 -1.1382 1.53347e-19)
(-0.139862 0.671606 -4.90243e-20)
(0.95672 -0.000976258 4.06457e-22)
(1.44596 -0.0542984 -1.31172e-20)
(0.954323 -0.00232547 7.41458e-23)
(1.13404 0.019284 -5.75988e-20)
(1.25139 -0.0310054 0)
(1.08827 0.0110439 0)
(0.447418 -0.551176 -6.43655e-20)
(0.899652 0.394383 0)
(0.807612 0.103571 -4.38854e-21)
(0.954854 -0.00234498 0)
(1.08581 0.0101187 0)
(0.958082 -0.00169029 0)
(0.150655 0.689375 0)
(0.918813 0.00509575 1.21875e-23)
(0.742533 -1.1152 6.51583e-20)
(0.858267 0.217674 -9.06823e-22)
(0.474946 -0.373138 1.92823e-20)
(1.01793 0.158725 -2.38723e-22)
(-0.369599 0.775746 1.86854e-19)
(-1.0557 0.301407 2.53965e-19)
(1.38104 -0.00974533 4.47914e-20)
(0.243938 0.687805 0)
(-0.617765 0.61796 -1.35934e-19)
(1.45549 0.0189552 -2.47177e-20)
(0.896493 0.385523 2.80782e-22)
(1.46448 0.0144804 -2.70972e-20)
(1.46008 0.124149 0)
(0.687328 -1.0659 1.97905e-19)
(1.44311 0.103762 0)
(-0.924943 0.510846 0)
(1.33885 -0.0136848 0)
(1.1086 0.565266 -2.28147e-20)
(0.919992 0.00453427 1.16779e-21)
(1.16593 0.0275224 4.79319e-20)
(-1.0195 0.183942 -8.32941e-20)
(1.28059 0.0530444 1.772e-22)
(0.0463686 0.671457 2.70866e-20)
(1.10788 -0.000724695 0)
(1.22546 -0.058396 9.74965e-21)
(1.03905 0.637667 -1.46187e-22)
(1.06365 0.0400516 -3.83101e-21)
(1.27333 0.0692308 0)
(0.100044 -0.0809409 0)
(0.961352 -0.00187131 -9.0372e-25)
(0.96256 -0.000709994 -3.24796e-23)
(0.919002 -0.016791 -3.46159e-22)
(-0.161397 0.608321 4.31179e-20)
(1.0627 0.00663991 3.81151e-22)
(1.11519 0.123298 0)
(0.911308 0.760233 1.00696e-18)
(0.843429 0.154268 1.35066e-21)
(0.465756 0.226198 -1.29947e-19)
(-0.14276 0.159124 -1.88111e-20)
(1.06161 0.0368605 -1.69659e-21)
(1.1042 0.130666 -4.38709e-21)
(1.3406 0.0260196 1.70763e-20)
(1.33077 0.0303191 0)
(0.859951 0.192017 5.75816e-22)
(-0.561345 0.374511 -1.74117e-19)
(1.1066 0.129216 6.72593e-21)
(1.13873 -0.0080384 0)
(0.974404 0.00511872 -6.35259e-22)
(-0.992461 0.482058 -6.50806e-20)
(1.01715 0.0171642 -9.91306e-22)
(0.0529799 -0.0942325 0)
(0.934524 -0.00087959 1.12666e-21)
(1.06459 0.0173436 0)
(0.598608 -1.1165 0)
(1.2751 0.0569634 9.16989e-21)
(0.953298 -0.0326934 8.70487e-23)
(1.45119 0.114352 1.24099e-20)
(-0.110551 -0.230404 -4.7837e-20)
(1.03247 0.108911 -2.79727e-21)
(0.940639 -0.008932 0)
(-0.21788 0.0982315 1.03859e-20)
(1.09589 0.0762965 -2.93318e-21)
(0.906988 -8.8304e-05 -4.90327e-22)
(1.18332 0.103807 4.61332e-21)
(0.938874 -0.0112974 0)
(1.02859 0.105367 1.4553e-21)
(1.36343 0.00704681 0)
(0.205639 -0.2017 0)
(1.25244 -0.0324816 0)
(0.725112 0.261468 1.30166e-20)
(0.337046 -0.693383 1.73808e-20)
(0.928407 0.0276906 1.25735e-21)
(0.544742 -0.319078 -2.13316e-20)
(1.22801 0.0187282 -2.1285e-20)
(1.01679 0.0246178 0)
(1.45456 0.0301294 1.9992e-20)
(1.009 0.158248 1.55375e-21)
(1.06695 0.00821285 3.10809e-21)
(0.927184 0.00791021 1.13159e-21)
(1.23129 -0.0676065 5.70838e-22)
(0.906414 -0.00248437 1.164e-21)
(0.432991 -1.14433 -2.14697e-20)
(1.15267 0.0559528 0)
(1.22086 0.0210143 5.3392e-22)
(1.10504 -0.00390414 2.26535e-21)
(0.984246 0.00878994 6.37231e-22)
(1.00478 0.157314 0)
(0.992442 0.423718 -7.09455e-21)
(0.689 -1.08057 1.34642e-20)
(-0.204721 0.682658 5.56289e-20)
(0.936316 -0.000504856 -9.65934e-22)
(-0.48244 0.651769 0)
(-0.630279 0.594658 1.37629e-19)
(1.28293 -0.0708824 -1.69691e-20)
(0.875024 -0.114643 -2.75479e-20)
(0.938506 0.040706 -8.09203e-22)
(1.09392 0.0715767 2.76515e-21)
(0.938382 0.0419151 9.19068e-22)
(0.864362 0.229184 1.22906e-21)
(0.0843181 -0.0592098 -5.68906e-20)
(0.900574 0.0629085 2.17121e-21)
(1.4623 0.0299386 6.99464e-20)
(1.07632 0.136058 0)
(1.42796 -0.00537708 -2.10064e-20)
(0.991744 0.149388 0)
(0.938246 0.011296 -1.33792e-21)
(0.91611 0.00679152 1.55639e-22)
(0.892411 0.0208385 -6.8285e-22)
(0.934728 0.196463 0)
(0.223692 -0.251026 3.03206e-20)
(0.244781 -0.225714 -2.71369e-20)
(0.954338 -0.0331198 -4.40057e-23)
(0.580266 0.523461 0)
(0.42761 -1.20623 0)
(1.0305 0.20937 2.67566e-21)
(1.1413 -0.0111095 -4.94438e-21)
(0.927268 0.0083383 -5.71159e-22)
(1.15152 0.0107722 -7.23751e-21)
(0.916093 0.00642448 2.42208e-21)
(1.02506 0.0248252 0)
(0.89769 0.0207259 0)
(1.06251 0.333756 0)
(1.23086 -0.0686239 1.05705e-20)
(-0.291193 0.307229 1.07306e-20)
(1.28051 -0.0672905 0)
(1.12976 0.0136304 0)
(0.937626 0.0368725 0)
(1.2764 -0.0104489 2.65138e-20)
(1.22453 0.349461 3.90331e-20)
(0.956255 -0.0412669 0)
(0.584893 -0.292858 -4.05842e-20)
(1.18335 0.100531 -8.66089e-21)
(1.02866 0.232997 -3.87103e-21)
(0.717264 0.295754 -3.03361e-19)
(0.993528 0.00545537 0)
(0.393856 -0.610874 9.37655e-20)
(0.864545 0.202937 9.67506e-22)
(-0.476896 -0.043782 0)
(1.05404 0.313295 6.97772e-21)
(0.936224 0.000195152 -7.2124e-22)
(0.942629 0.0136465 1.90661e-21)
(1.10785 -0.00120619 0)
(0.893432 0.289901 0)
(0.426229 -0.58388 8.75288e-20)
(1.11416 0.125659 4.01659e-21)
(1.12661 0.0142422 -1.84238e-21)
(-0.52988 0.345756 1.43253e-19)
(1.0477 0.30556 -6.3601e-21)
(0.97355 0.203136 0)
(-0.333493 0.777257 3.47505e-19)
(0.942349 0.0129025 2.23901e-24)
(-0.467374 0.667767 -8.18811e-20)
(1.41909 -0.091272 4.3347e-20)
(1.27623 -0.0769658 4.53524e-20)
(0.871692 0.0640002 -5.79102e-21)
(0.995101 0.00356003 -7.6993e-22)
(-0.130926 0.537059 -2.02902e-20)
(0.426557 0.177423 4.20692e-21)
(-0.701166 0.859351 -3.4254e-19)
(-0.54008 0.771739 5.37571e-19)
(-0.171922 0.641429 2.24453e-20)
(1.01982 0.236275 2.98356e-21)
(0.939413 0.000816345 -1.30324e-21)
(0.864818 0.0548801 -1.05045e-21)
(0.958254 0.692696 -1.83917e-20)
(1.00852 0.0151832 9.11878e-22)
(0.462871 -0.524447 1.94048e-21)
(-0.341928 0.211225 0)
(0.933086 0.00441379 -5.85439e-22)
(-0.149449 0.195043 1.80146e-20)
(0.631678 -1.03231 0)
(1.46253 0.11882 0)
(1.29271 0.543398 0)
(1.30769 0.544245 0)
(0.46133 -0.393405 0)
(1.28074 -0.0023596 -1.13959e-20)
(0.84708 0.0894277 -6.50506e-21)
(1.271 -0.0210054 -2.50573e-20)
(-0.749143 0.791375 2.61031e-19)
(1.27035 -0.0794486 -3.34624e-20)
(0.95485 -0.0393125 -7.63044e-23)
(0.0167689 -0.532315 2.92132e-20)
(1.22513 -0.0573283 1.21599e-20)
(0.075494 0.750301 -6.43802e-20)
(0.965335 0.772731 -1.3457e-18)
(0.9103 0.453333 6.78415e-21)
(1.23765 0.0192087 2.08395e-21)
(0.548748 0.557521 0)
(0.180173 -0.0107624 -3.03848e-20)
(0.243714 0.622027 3.50672e-20)
(-0.171721 -0.22821 4.95243e-20)
(1.27567 0.580147 1.97008e-20)
(0.36411 0.209498 6.08082e-20)
(1.26105 0.59972 -1.73266e-20)
(1.43808 0.383099 3.47007e-20)
(1.49133 -0.149253 1.34553e-20)
(-0.303078 0.324056 3.28867e-20)
(-0.446386 0.36879 1.69671e-19)
(0.981688 0.133641 0)
(0.937125 0.000378055 9.98658e-22)
(0.329571 -0.673865 3.11177e-20)
(0.901574 0.287279 2.68049e-21)
(-0.138935 -0.269005 3.2446e-20)
(0.888095 0.375384 2.34031e-21)
(1.00051 0.00596405 -1.85154e-21)
(1.04864 0.29356 0)
(0.951893 -0.00945411 4.12386e-23)
(0.987043 0.148962 0)
(0.573674 0.760548 -2.91296e-19)
(1.20273 0.301103 0)
(1.00803 0.405082 1.29683e-20)
(-0.20368 0.120052 3.34362e-22)
(0.189425 -0.00388007 3.12705e-20)
(0.121106 0.600353 -2.45893e-20)
(0.969364 0.124253 2.01454e-23)
(-0.113432 0.645884 -1.082e-20)
(0.18022 -0.2293 0)
(0.913167 -0.00788382 0)
(1.46589 -0.166952 -6.3317e-20)
(0.724429 -0.839476 0)
(0.991744 -0.0780856 0)
(-0.468585 -0.0769213 -4.8646e-20)
(0.965691 0.125213 8.19492e-22)
(1.36968 0.0150862 0)
(0.912192 -0.00664539 0)
(1.0132 0.163128 3.42693e-21)
(0.950935 -0.00539485 -1.97251e-23)
(0.831227 0.0617152 -1.3354e-22)
(-0.494427 0.115622 -1.96902e-20)
(1.43287 0.404477 -3.99501e-20)
(0.56416 -0.237623 2.86035e-20)
(0.951421 -0.0105303 0)
(-0.335286 0.195343 9.51929e-21)
(-0.429532 0.350553 -1.64808e-19)
(-0.856591 0.50539 -1.3721e-19)
(1.10508 -0.00260601 -8.20478e-22)
(-0.552213 0.385933 7.15875e-21)
(0.0253733 -0.600889 3.33874e-20)
(0.978427 0.135488 5.83196e-22)
(0.395213 -0.619861 -3.58367e-20)
(1.0031 0.00599619 1.11611e-21)
(0.622483 -0.0407753 0)
(-0.168169 0.124748 3.94892e-20)
(1.46138 0.124929 0)
(0.628748 -0.202982 0)
(1.46689 -0.161336 0)
(0.96936 0.0709713 1.53535e-21)
(1.04265 0.286116 -5.77453e-21)
(1.03144 0.197696 -2.84463e-22)
(0.847817 0.0889998 5.67836e-21)
(1.13615 -0.0122093 0)
(0.886856 0.359457 0)
(0.202589 0.829484 0)
(1.40703 0.406372 5.33025e-20)
(1.43718 -0.00877108 7.22054e-20)
(1.08449 0.0084276 -2.26948e-21)
(1.05321 0.326438 0)
(1.11139 0.0727502 -4.68215e-22)
(0.97531 0.00378828 3.28345e-22)
(0.926625 0.00877969 -3.47947e-22)
(0.853821 0.0361252 1.2789e-21)
(1.45039 -0.0593324 -3.05435e-20)
(1.1444 0.319866 -2.13784e-20)
(-0.750247 0.786047 9.41685e-20)
(1.10484 0.00182208 5.18983e-21)
(0.928973 0.0255603 -1.27142e-21)
(0.97481 0.132091 -3.66261e-22)
(0.626981 -1.03112 0)
(1.06316 0.201192 2.89512e-20)
(0.969719 0.0699837 -8.2024e-22)
(0.914835 -0.00702646 0)
(1.15941 0.355332 -6.09512e-22)
(0.871477 0.0617829 8.24596e-20)
(1.45536 0.0435236 1.98086e-20)
(1.0028 0.0407276 2.59291e-21)
(0.281534 -0.0126226 5.28955e-20)
(0.922926 0.69427 6.61506e-20)
(0.94386 0.020614 0)
(1.04279 0.534741 -1.46963e-20)
(-0.284006 0.110544 4.85167e-20)
(1.44975 0.136214 2.11882e-21)
(1.14737 0.331309 -2.31838e-20)
(0.545457 0.735814 7.02629e-20)
(-0.917082 0.502289 -7.76235e-20)
(0.947781 0.0807919 -1.6083e-21)
(-0.596675 0.61561 1.50795e-19)
(0.260011 -0.303817 -1.52261e-20)
(0.201054 -0.321265 1.0869e-20)
(0.921029 -0.011651 -7.99072e-22)
(1.43026 0.0795449 2.85748e-20)
(-0.177402 0.526564 -3.77371e-20)
(0.539196 -0.278886 -1.58343e-20)
(0.932869 0.00424514 0)
(0.906947 0.0679135 1.23866e-22)
(1.56585 0.528276 -2.82397e-19)
(1.46034 0.0422015 -4.38334e-20)
(0.907863 0.442888 1.1951e-21)
(1.09033 0.604652 0)
(0.33528 0.156612 0)
(0.951098 0.00256531 -5.84513e-22)
(0.9433 0.0196942 0)
(1.10551 0.00235687 4.74465e-21)
(0.327361 -0.0302778 2.26145e-20)
(1.10553 -0.00230263 4.57132e-21)
(0.939637 -0.0103755 0)
(0.518145 0.529134 0)
(0.939282 -0.00733254 0)
(1.2828 0.522008 -1.8253e-19)
(0.937577 0.0375011 -4.89823e-22)
(0.973264 0.129432 1.13558e-22)
(1.17087 -0.0129415 0)
(1.27849 0.0641586 -1.03172e-20)
(0.977035 0.207162 -9.04129e-22)
(-0.830609 0.557249 1.64127e-19)
(1.05289 0.0135375 -1.67054e-21)
(0.526395 -0.269441 -5.26953e-22)
(1.00434 0.0786934 0)
(0.94039 -0.00138876 1.02026e-21)
(1.02906 0.365983 5.10237e-21)
(0.1384 0.782662 0)
(0.940692 0.0133621 -7.15085e-22)
(1.19574 0.288977 0)
(0.670474 -0.226082 0)
(1.40829 -0.0648034 2.18529e-20)
(1.16676 -0.0173915 0)
(1.08893 0.0379651 5.67516e-21)
(1.38461 -0.00177466 -2.02328e-20)
(1.0559 0.416816 0)
(0.854306 0.0520703 8.7649e-20)
(1.19926 0.35611 2.13811e-20)
(1.21098 0.345172 -1.32065e-20)
(1.10055 -0.00130628 0)
(1.03361 0.1706 -3.02874e-21)
(1.50392 -0.14387 -1.54543e-20)
(0.0448175 -1.24501 2.32573e-19)
(0.785004 0.135452 0)
(0.999006 0.0344332 0)
(0.917755 -0.0168708 8.72895e-22)
(1.02097 0.115305 -7.88209e-22)
(1.08015 0.432197 0)
(0.922108 -0.0163853 0)
(1.18498 0.352537 -2.07436e-20)
(0.0271033 -0.629138 1.2211e-20)
(1.05515 0.669253 4.67086e-21)
(1.18956 0.0200979 7.64892e-21)
(1.42699 -0.0807784 0)
(1.42614 0.42002 -4.30996e-20)
(0.676211 0.561982 -2.5138e-19)
(-0.539787 0.431919 -2.92529e-20)
(1.08937 0.0356733 -5.40672e-21)
(0.951326 -0.00562357 3.98627e-23)
(1.09931 0.134498 -7.89802e-21)
(1.357 -0.136123 1.05069e-20)
(-0.023706 0.762145 0)
(1.48875 0.581696 -2.94274e-19)
(0.647222 -0.181267 0)
(1.06164 0.00763294 3.32709e-21)
(1.09412 0.132068 7.53169e-21)
(1.12823 0.300777 0)
(-0.535849 0.335731 -2.95786e-19)
(-0.730994 0.490268 -3.03695e-20)
(1.18776 0.112085 -4.60503e-21)
(0.842431 0.0352572 1.44364e-21)
(1.24543 0.0638768 4.721e-21)
(1.00213 0.0808814 1.35161e-22)
(0.925403 0.0359947 2.88284e-21)
(1.46724 -0.0714572 -5.43424e-20)
(0.926558 0.0083913 1.37988e-21)
(0.781562 0.565309 0)
(0.955202 -0.125528 2.45112e-20)
(1.34111 0.058677 0)
(1.01444 0.017199 9.66712e-22)
(0.507157 -0.46505 6.96204e-20)
(1.03211 0.166023 1.74602e-21)
(0.909561 -0.00659314 1.31747e-21)
(0.953472 0.198812 -2.26515e-23)
(0.259597 0.729112 9.41806e-20)
(0.90069 0.0626953 2.62371e-21)
(1.44696 0.144662 -8.24181e-21)
(0.837148 0.133503 8.96623e-24)
(0.996126 0.0330867 0)
(1.05033 0.403777 0)
(1.2017 -0.0322109 -2.00113e-20)
(0.901402 0.275152 0)
(0.940126 0.000394872 1.7668e-21)
(1.18054 0.0644022 0)
(-0.571065 0.457108 3.22586e-20)
(0.951888 -0.0174845 9.05757e-24)
(1.08698 0.55161 1.91231e-20)
(0.936094 2.84205e-05 -1.1245e-21)
(0.938357 0.0108557 1.35816e-21)
(0.396924 -1.21422 -1.138e-19)
(0.998893 0.39599 4.86088e-21)
(0.921312 0.00399518 1.18136e-21)
(0.718725 -0.144459 -4.50354e-20)
(1.30973 0.464654 0)
(0.99549 0.0306759 7.11657e-22)
(1.01922 0.0334964 9.61507e-22)
(-0.548702 0.134676 -2.1453e-20)
(1.23927 0.069127 -2.41985e-22)
(1.01707 0.0345046 0)
(1.3397 0.045907 1.68772e-20)
(1.13453 0.310457 6.76463e-21)
(1.1738 0.359895 1.03912e-20)
(1.08982 0.136736 0)
(1.39811 -0.0546444 -3.83891e-20)
(1.19917 0.0872419 0)
(0.938939 0.0443156 1.17478e-21)
(-0.212692 0.699968 -1.05885e-19)
(0.714262 -0.195981 0)
(1.27085 -0.0203121 -1.49389e-20)
(0.837988 0.160581 -1.55958e-21)
(0.924711 0.0367725 -2.26511e-21)
(1.00312 0.14601 0)
(0.935505 0.00665621 1.32716e-21)
(0.958314 0.190053 6.89772e-22)
(-0.472667 -0.850965 1.79001e-21)
(0.972654 0.0605216 -1.33394e-21)
(0.94015 -0.00683616 -3.49859e-22)
(-0.50314 0.309735 1.34465e-19)
(1.02009 0.0260841 1.74729e-21)
(1.45911 0.0540179 -3.34318e-20)
(0.0549107 0.65099 -7.13141e-20)
(-0.396569 0.255678 -6.17492e-20)
(-0.71255 0.239131 0)
(-0.258407 0.607848 8.12711e-20)
(1.08553 0.134519 3.46504e-21)
(0.558189 -0.202579 8.44666e-19)
(1.35028 -0.12166 -2.12511e-20)
(0.881197 0.0686503 -3.14443e-22)
(0.845375 0.756151 0)
(1.00954 0.0184817 -1.36351e-21)
(-0.369332 0.182247 0)
(0.916298 -0.00863071 0)
(-0.0749293 -1.0667 -9.60113e-20)
(1.29692 0.444591 -1.19219e-20)
(0.854381 -1.30128 0)
(1.37579 -0.016694 -2.89475e-20)
(1.4278 0.0706096 2.48797e-20)
(1.42979 -0.10428 1.70717e-20)
(1.2869 0.49053 -4.31345e-20)
(-0.957235 0.242199 0)
(1.28227 0.104391 0)
(0.905529 0.269463 0)
(0.829365 -1.03062 3.17012e-20)
(1.02962 0.0114914 -2.44317e-21)
(0.422438 -0.588565 0)
(1.07315 0.131722 0)
(-0.35783 -0.0248368 6.09255e-20)
(0.940403 0.0131239 1.06938e-21)
(1.19947 0.0947011 0)
(1.07544 0.0757407 -5.61357e-21)
(0.163171 0.834171 1.86081e-19)
(-0.0739533 -0.16435 1.00226e-19)
(1.15928 -0.0168172 0)
(-0.91691 0.215023 8.04873e-20)
(1.20808 0.0595222 -1.04563e-20)
(1.30695 0.508192 5.74741e-20)
(-0.671815 0.480596 2.53848e-20)
(1.03729 0.258671 5.20478e-21)
(1.28557 -0.061252 0)
(0.973582 -0.0738757 1.66456e-22)
(1.08536 0.0389529 0)
(0.96172 -0.0479594 -6.15601e-24)
(1.1023 0.000128025 0)
(0.962217 -0.0499315 0)
(0.972816 0.0624283 2.08835e-21)
(1.44226 0.303653 -5.36387e-20)
(1.20279 0.0802366 0)
(0.919467 -0.0152797 0)
(0.917858 0.0608055 8.69046e-22)
(1.28973 -0.0595938 1.7691e-20)
(1.02638 0.0276483 -1.87074e-21)
(1.01449 0.0414064 3.06881e-21)
(1.43401 0.0903639 -3.77747e-22)
(0.912362 0.0499301 -1.91501e-21)
(0.940158 -0.00822322 -7.21721e-24)
(0.952434 -0.017649 -2.44309e-23)
(1.20701 0.0788513 -1.39435e-21)
(0.960571 -0.00153908 0)
(0.844931 0.146978 2.24595e-21)
(0.518172 -1.05956 1.96568e-19)
(-0.0349994 -0.985695 8.33728e-20)
(-0.242146 0.12913 -1.72411e-20)
(-0.344733 -0.0118977 0)
(1.06729 0.590911 2.16254e-20)
(0.872165 0.0774847 -3.219e-23)
(1.33385 0.0571874 0)
(0.954754 0.056227 -7.62721e-22)
(1.432 0.303976 5.02138e-21)
(-0.274342 0.577195 -1.02412e-19)
(0.955289 0.00243661 1.13863e-21)
(-0.49681 0.685957 -2.11673e-20)
(1.03281 0.250339 0)
(0.93269 0.192522 1.79777e-21)
(1.25309 0.0474829 -1.691e-20)
(0.944076 0.0234433 0)
(1.37608 -0.00449926 8.1564e-22)
(1.51278 -0.103394 0)
(1.38196 -0.0573494 1.35838e-21)
(1.10171 0.00262821 0)
(0.932203 0.0243128 2.87219e-21)
(-0.667916 0.486722 -2.94029e-20)
(1.2183 0.630607 0)
(0.750234 0.0566634 0)
(-0.381671 0.199205 0)
(0.909987 -0.00811958 -1.11975e-21)
(0.934929 0.000421458 0)
(0.259662 0.00307425 -1.37622e-20)
(1.08468 0.0418153 1.26311e-21)
(0.939767 -0.00591769 3.53504e-22)
(0.950682 0.0149011 -3.65323e-22)
(0.932534 0.201861 0)
(1.43131 0.285642 1.61776e-20)
(1.50967 -0.0914039 -4.70657e-20)
(-0.463652 0.341684 -8.50152e-20)
(0.354056 0.793963 8.48581e-19)
(0.93299 0.00362373 2.4062e-22)
(1.01728 0.381829 -3.116e-21)
(0.926009 0.0366684 -1.71032e-21)
(1.11866 0.483448 1.5644e-19)
(0.940656 -0.00931185 -4.93041e-22)
(-0.158459 -0.202544 -9.05224e-20)
(1.06844 0.0375984 1.89262e-21)
(0.947251 0.177458 -5.17205e-22)
(1.10569 -0.00363457 9.14544e-22)
(1.00225 0.434247 1.73465e-20)
(1.2509 0.0545933 2.2703e-20)
(1.20381 0.607072 -2.97999e-19)
(0.540943 -1.00139 -7.33257e-21)
(0.843733 0.0831486 5.77941e-21)
(1.02236 0.0240939 -1.83527e-21)
(0.964219 0.059063 2.17767e-21)
(-0.486734 0.348028 0)
(0.845569 0.0902644 -2.56002e-21)
(0.532105 -1.16359 0)
(0.929547 0.0233022 0)
(-0.654825 0.594203 -1.58935e-19)
(0.97678 -0.0716493 -3.5885e-23)
(-0.743473 0.219257 1.79316e-19)
(-0.260062 0.121336 -3.94155e-20)
(-1.04654 -0.353133 0)
(-0.596129 0.025717 -1.98459e-19)
(1.10398 0.204913 0)
(1.10367 -0.00403906 -1.75946e-21)
(0.965312 0.0608559 0)
(1.08537 0.484353 0)
(1.08792 0.07636 3.12245e-21)
(0.277105 0.00412758 4.1425e-20)
(-0.34245 0.0953703 4.33421e-20)
(1.16306 -0.0222345 0)
(-0.408145 0.159771 1.12175e-19)
(-0.352188 0.143216 3.21357e-20)
(0.576205 -1.06846 -9.24095e-20)
(1.05407 0.038651 0)
(1.08415 0.0756963 -3.17684e-21)
(1.05686 0.0390995 0)
(-0.424481 -0.577223 -2.34437e-20)
(1.45623 0.0573893 6.46184e-20)
(0.99976 0.0367929 8.82196e-22)
(1.19764 -0.0249227 6.52116e-21)
(-0.359299 -1.11365 -1.48225e-19)
(0.982547 0.00828638 0)
(0.302202 0.78903 1.20766e-20)
(1.04296 0.274971 -5.59001e-21)
(1.1456 0.169429 7.28162e-21)
(1.4341 0.190301 3.07537e-20)
(1.13293 -0.0084312 0)
(1.07142 0.0379305 0)
(1.1302 0.0171538 0)
(1.359 0.182491 -1.81224e-20)
(1.3466 0.0382755 -2.15223e-20)
(0.937055 0.000192777 2.09106e-21)
(0.860411 0.0584288 -1.77033e-21)
(0.992453 0.0269881 7.71093e-22)
(0.952987 -0.0235281 -3.45942e-24)
(0.95225 -0.00937632 0)
(1.02403 0.00787168 0)
(-0.423604 0.395161 0)
(-0.727221 0.495631 2.16796e-21)
(1.00508 0.0423731 -9.732e-22)
(-0.121558 0.236115 0)
(1.23424 -0.057149 -5.46857e-21)
(1.02313 0.00883802 0)
(1.01229 0.0395731 0)
(1.12662 0.230025 -1.30679e-20)
(0.949837 0.0833855 2.00661e-21)
(1.2375 0.0803086 0)
(1.44602 -0.0776643 7.00449e-20)
(0.997954 0.0410905 -1.55737e-21)
(0.156513 -0.707692 -6.13449e-20)
(1.09902 0.197177 6.39202e-21)
(0.406098 -0.373106 3.04013e-19)
(1.28588 0.817844 7.59788e-19)
(1.42259 -0.0969487 -5.26933e-20)
(1.4514 -0.0439271 7.73518e-20)
(0.936621 -0.000254461 1.09023e-21)
(0.717665 -1.29701 0)
(-0.32295 -0.590543 7.14588e-20)
(1.4322 0.0772508 0)
(0.934052 -0.000839617 -1.69767e-21)
(0.901908 0.0141659 -1.20051e-21)
(0.998711 0.346822 7.49635e-21)
(1.43799 0.227637 2.52787e-20)
(1.13046 0.0208973 0)
(0.915515 -0.00886792 8.75222e-22)
(0.811738 0.0620023 1.21559e-21)
(1.03747 0.268062 -4.81756e-21)
(-0.0880438 0.0487041 2.34014e-20)
(1.17766 0.094129 1.22552e-20)
(1.03197 0.0121412 2.61887e-21)
(1.46115 0.172523 0)
(-0.122642 0.0588161 4.8183e-20)
(0.961213 0.117825 -4.60758e-22)
(-0.643786 -0.0138437 0)
(0.907401 -0.0325888 -8.46989e-23)
(-0.00606575 0.63941 -2.47831e-20)
(0.807816 0.101052 6.91851e-21)
(0.945276 0.0356704 0)
(1.34848 0.189114 1.86766e-20)
(1.26696 0.0686722 -9.57013e-21)
(1.35603 0.799898 0)
(-0.478215 0.677064 2.89716e-21)
(0.921585 0.00271506 1.24617e-21)
(1.13829 0.0325819 2.90456e-21)
(-0.300671 0.120267 0)
(1.06238 0.549905 1.83478e-20)
(1.22161 -0.0798454 8.41541e-20)
(0.926235 0.0360379 1.83872e-21)
(1.34191 -0.0476921 -5.6851e-20)
(1.19682 -0.0379968 -3.1211e-21)
(0.95219 -0.00795966 0)
(0.848521 0.132056 -9.05404e-23)
(0.320994 -0.308302 0)
(0.985691 0.00730548 0)
(0.325626 0.761665 -3.86682e-19)
(1.22789 0.0312684 -1.32247e-20)
(-0.389689 -1.16248 0)
(1.12983 -0.00540503 0)
(1.04938 0.0348984 0)
(0.0708996 -0.234514 0)
(0.243819 -0.476714 0)
(1.43889 0.00815503 0)
(0.939433 0.0399394 -1.24592e-22)
(0.455932 -0.585391 7.90666e-20)
(1.42551 0.198272 -2.31137e-20)
(-0.0100884 -0.145469 -9.01954e-20)
(0.96273 0.12137 0)
(0.0121506 -0.23551 0)
(1.27382 0.836235 -4.0522e-19)
(0.942857 -0.00136277 -6.68507e-22)
(0.108443 0.659752 -3.63746e-20)
(-0.400962 0.264795 -6.40206e-20)
(0.138691 -0.506956 -3.65965e-21)
(0.924994 -0.0144883 -1.07541e-21)
(1.00813 0.330147 0)
(0.955877 -0.00180258 5.90605e-23)
(1.01602 0.0224538 0)
(-0.458787 0.595441 0)
(0.0737162 -0.509263 6.74638e-22)
(0.0663852 -0.109272 4.90598e-20)
(0.927139 0.020331 1.09299e-23)
(0.544412 -0.409352 0)
(1.36581 0.00146811 -2.10291e-20)
(0.955592 0.202657 6.8538e-22)
(0.953019 0.102828 1.99065e-21)
(0.951864 -0.0078941 0)
(1.1217 0.222259 0)
(0.945429 -0.00167924 -4.79298e-22)
(-0.435877 0.517583 -1.43295e-19)
(-0.45492 0.623805 0)
(0.210253 -0.0919967 2.72195e-21)
(0.475397 -0.33134 1.76842e-20)
(0.936014 0.00663712 -1.38726e-21)
(0.441146 -0.383824 -2.18718e-20)
(0.952146 0.100281 0)
(0.176577 -0.0301744 -5.84841e-20)
(1.19277 0.253813 -1.06868e-19)
(1.14066 0.163067 3.21457e-21)
(0.927726 -0.000324587 -6.66229e-22)
(0.955584 0.0540763 -8.00348e-22)
(0.92779 -0.000378787 0)
(-0.524574 -0.781463 7.15132e-20)
(0.998382 0.0777214 8.62162e-22)
(0.430772 -0.60717 0)
(0.855764 0.248616 4.38723e-22)
(1.45841 0.161246 -6.71261e-21)
(1.41231 -0.0700402 4.83803e-20)
(0.92674 -0.0178934 -6.20666e-22)
(0.434695 -0.607295 0)
(0.911823 -0.0186591 -3.14813e-22)
(0.870914 0.469106 -1.95747e-20)
(1.08117 0.138988 -3.83442e-21)
(1.05004 0.013588 0)
(1.06654 0.0404119 1.96585e-23)
(0.0683774 0.161031 -1.41215e-19)
(1.0992 0.00401294 -5.07783e-22)
(0.837601 -0.117443 9.68972e-21)
(1.4462 -0.00609559 0)
(0.996514 0.0793621 5.95266e-22)
(0.932798 0.00346417 -2.94638e-22)
(1.11592 -0.00493848 0)
(0.992957 0.0294824 -8.04087e-22)
(0.923533 -0.0161645 3.42993e-22)
(1.29375 -0.0497421 0)
(0.907665 -0.00579924 0)
(1.24216 0.604656 -2.336e-20)
(0.120771 -0.110596 -5.17161e-20)
(1.08855 0.00918061 0)
(0.927555 0.184643 -2.2822e-21)
(1.37134 1.02328 0)
(1.16874 -0.0705847 -1.35464e-19)
(-0.498788 0.39446 -1.12201e-19)
(0.921238 0.00507516 9.04349e-22)
(1.23318 0.0268319 -4.78257e-21)
(0.920534 0.00517718 -1.42311e-21)
(1.19862 0.051601 -9.86852e-21)
(-0.0252195 0.636237 8.15327e-20)
(1.32931 0.0646927 4.59701e-22)
(1.16072 0.229849 0)
(1.00362 0.37706 -4.98822e-21)
(0.397096 -0.746618 0)
(1.25973 -0.0863205 8.44628e-21)
(1.05877 0.0363524 3.42232e-21)
(-0.0556721 -1.23091 -1.95837e-19)
(1.18432 0.0457124 9.23579e-21)
(-0.401499 0.320649 0)
(1.10868 0.0771785 4.74199e-21)
(0.971169 0.0653946 0)
(0.590847 -0.35575 0)
(0.919738 -0.0116592 8.04786e-22)
(0.933691 -0.0108091 0)
(1.41133 0.144042 -4.16377e-20)
(1.12742 0.0187416 0)
(0.0411698 0.178418 7.49625e-20)
(0.868998 -1.21093 -4.35255e-19)
(0.608562 -0.989089 -1.97423e-19)
(0.61993 0.0153315 1.70575e-20)
(0.940061 -0.00133258 4.44874e-22)
(0.951741 0.0016956 0)
(1.42179 0.0013658 3.52555e-20)
(0.881376 0.455494 1.56439e-20)
(0.413062 0.00331772 0)
(0.921829 -0.0132274 0)
(1.15101 -0.0173156 6.75536e-21)
(1.13284 0.355066 0)
(-0.423858 0.372953 7.38378e-20)
(0.952163 -0.0219092 6.11856e-23)
(1.10121 -0.00257467 -4.07262e-22)
(0.30927 -0.618831 0)
(-0.498418 0.692233 -1.89073e-19)
(1.38194 -0.0181018 0)
(1.19279 0.0518861 0)
(0.93955 -0.00835568 4.82956e-22)
(1.11315 0.0720856 6.8266e-22)
(1.14406 0.0901067 -5.72065e-21)
(1.26681 -0.0824432 -7.06478e-21)
(0.939372 -0.0072046 0)
(1.21577 0.0156763 1.9495e-20)
(1.01777 0.111302 7.87007e-22)
(-0.483289 0.379266 1.6952e-19)
(0.941613 -0.00451 1.67195e-22)
(1.09898 0.291299 -4.52849e-21)
(0.0951382 -0.665353 0)
(0.855975 0.215764 -1.52566e-21)
(0.932148 0.0249295 5.79989e-22)
(1.01521 0.0117514 4.27715e-22)
(1.07774 0.0791424 0)
(0.489863 -0.334751 -1.94892e-20)
(-0.0100408 -0.571815 -3.77728e-20)
(0.929955 0.0191529 -1.47936e-21)
(1.02017 0.358634 -3.91487e-22)
(0.93002 0.0246677 0)
(1.06015 0.505749 -7.03183e-21)
(1.05512 0.00281009 3.05315e-21)
(-0.421601 0.44887 0)
(1.31964 0.0626451 1.5913e-20)
(1.25334 0.754207 0)
(1.01074 0.0134213 0)
(0.163225 0.634139 -3.42714e-20)
(1.09277 0.0326495 -2.72415e-21)
(1.02923 0.175215 2.68536e-21)
(0.955633 -0.0421289 4.95442e-23)
(0.931815 0.0261489 2.37404e-21)
(1.10263 -0.00276055 0)
(1.00757 0.0402286 2.29047e-23)
(1.30085 -0.0405775 -1.76748e-20)
(0.945296 -0.00109145 0)
(-0.341044 0.12091 -6.64092e-20)
(1.2932 0.788114 0)
(0.287564 -0.663362 0)
(0.950149 0.0918127 6.64931e-24)
(0.943525 0.0224121 -1.43401e-21)
(0.637777 0.548991 0)
(0.921227 -0.0149122 0)
(0.933293 -0.0108921 -1.12161e-23)
(0.862469 0.0253192 2.55583e-21)
(-0.0753728 -1.18656 -1.82698e-19)
(0.910941 0.0789707 2.74629e-21)
(0.859129 0.0516983 4.63592e-21)
(0.0746623 0.603501 -2.52208e-20)
(1.2554 -0.021182 0)
(0.955597 -0.0382729 6.19162e-23)
(0.3927 -0.734991 -3.23168e-20)
(0.93591 0.00465398 0)
(1.34589 0.0516177 0)
(-0.918058 0.78871 -2.55208e-19)
(0.954719 -0.0273039 -5.60153e-24)
(0.959155 0.0601306 -7.55401e-22)
(0.208514 -0.735552 1.86815e-20)
(-0.273721 0.704087 1.09367e-19)
(1.11061 -0.0128778 2.57856e-21)
(0.616431 -0.78326 -3.24452e-19)
(0.935723 0.00466011 0)
(1.42214 0.016988 5.68387e-23)
(0.926248 0.180944 9.1269e-22)
(0.895487 0.0279148 0)
(0.960947 -0.0592409 8.25827e-23)
(1.18198 0.283607 1.43421e-20)
(0.941803 -0.00128459 -8.876e-22)
(1.37176 0.0725618 -1.14843e-20)
(1.26945 -0.00904772 0)
(0.83264 0.0492751 -1.27055e-21)
(0.211744 0.241899 -5.05985e-20)
(1.10893 0.00814163 -1.75267e-21)
(0.429962 -0.574478 3.55881e-20)
(0.859383 0.190716 -1.17699e-21)
(0.998908 -0.140708 0)
(0.940235 -0.00685647 0)
(0.970908 0.0636874 -8.21322e-22)
(0.221487 0.646475 0)
(0.997643 0.00436298 1.5928e-21)
(1.23455 0.226668 0)
(0.933912 0.0535758 1.39229e-21)
(0.93189 0.0230355 0)
(0.974848 0.0574089 3.61686e-22)
(0.07529 -0.663755 -4.23584e-20)
(-0.526723 -1.11236 -1.30924e-20)
(0.657488 0.426422 2.24118e-19)
(0.881687 0.0439595 -8.25613e-23)
(0.955827 0.186515 0)
(0.93111 -0.0168719 0)
(0.952094 -0.0109484 0)
(1.1705 0.100452 -7.43153e-21)
(1.02502 0.174885 0)
(-0.356589 0.349586 -4.20562e-22)
(-0.482096 0.687744 2.70394e-19)
(1.09825 0.28142 -4.39604e-21)
(1.13338 0.337913 1.54836e-20)
(0.910808 0.0743714 -8.66451e-22)
(-0.691868 0.595293 -2.26457e-19)
(0.122617 0.624359 0)
(1.11333 -0.0108802 5.48267e-21)
(1.03427 0.305558 4.45832e-19)
(1.25162 -0.00675654 -1.09281e-20)
(-0.785285 0.548565 1.11807e-19)
(1.30308 0.108751 4.67798e-21)
(1.32136 0.00835125 1.67298e-20)
(0.951023 0.170129 0)
(1.20276 -0.0320695 0)
(0.107947 0.0774547 -4.65895e-20)
(1.16652 0.651612 0)
(0.915472 -0.0103014 -1.56204e-21)
(-0.202197 0.758876 1.31737e-19)
(-0.300995 0.145338 9.20346e-20)
(0.262037 -0.326831 1.83785e-21)
(1.08162 0.50889 9.02417e-21)
(1.44718 0.00129393 4.47061e-20)
(1.22619 0.229361 1.25298e-21)
(0.931976 -0.0166959 0)
(1.11814 0.782587 1.5518e-19)
(1.00973 0.0418686 -1.00585e-21)
(0.319657 -0.637077 3.85441e-21)
(1.07223 0.112888 0)
(1.10715 -0.000240443 0)
(1.16058 0.00131406 -4.00654e-21)
(1.39423 -0.0514317 6.32279e-20)
(-0.307603 -0.00104335 0)
(1.11601 -0.00523357 0)
(0.875667 0.0619894 -2.40476e-21)
(0.961476 -0.0523797 -7.66706e-23)
(0.910253 0.0716075 7.72111e-22)
(1.01597 0.195392 -3.15849e-23)
(0.932635 0.00213387 0)
(-0.507371 0.297899 0)
(1.01113 0.110668 1.42129e-21)
(1.01393 0.113664 1.41476e-21)
(-0.830216 0.784802 1.0946e-19)
(1.04224 0.0389866 -3.64973e-21)
(1.13101 0.0164198 4.70839e-21)
(1.41679 0.346453 -1.68442e-21)
(1.29527 -0.0502415 1.03173e-20)
(0.940954 -0.00390249 0)
(0.929246 0.0486669 0)
(-0.419402 0.338664 -2.26471e-20)
(-0.309271 0.024288 0)
(0.651074 -0.0234632 -4.96185e-20)
(1.01856 0.020007 5.18236e-22)
(1.01376 0.00653367 0)
(1.36442 0.0105049 -1.91192e-21)
(0.177151 -0.0378144 -5.20855e-20)
(-0.383281 0.272322 0)
(1.12459 0.0080033 0)
(0.167655 -0.740657 -2.35378e-21)
(1.14329 0.153629 -1.23236e-22)
(1.3031 -0.0402023 9.44832e-21)
(0.501166 -1.19218 -1.14421e-19)
(1.10753 0.00913472 5.4094e-21)
(0.928906 -0.0152529 2.9978e-22)
(1.38555 0.0182921 0)
(0.94607 0.00223095 -3.47852e-22)
(1.04398 0.0426235 1.57074e-21)
(1.05199 0.128832 0)
(0.960532 -0.0534715 3.18463e-23)
(0.21174 -0.701362 -1.82615e-20)
(0.941713 0.000766341 -3.82866e-23)
(0.85131 0.122532 -1.78971e-23)
(-0.229793 0.111455 0)
(1.30929 0.394377 0)
(1.29041 0.113737 0)
(0.927862 -0.0167432 0)
(1.14103 0.0294073 3.17752e-21)
(1.16542 0.0937159 -7.37037e-21)
(0.904159 0.0133923 0)
(1.42402 0.292662 -2.07132e-20)
(0.0328422 0.876325 -1.89005e-19)
(0.864152 -1.11268 5.12878e-19)
(0.892997 0.0183581 1.18533e-21)
(1.06955 0.109143 1.44234e-21)
(1.35774 -0.0430025 7.7821e-20)
(0.0663584 0.0920003 -3.12172e-21)
(1.35145 -0.122896 -2.15237e-20)
(1.32429 0.0222585 1.85815e-20)
(1.20997 0.0171083 1.17772e-20)
(0.933195 0.0202033 0)
(0.961764 -0.0586513 0)
(1.04969 0.129104 0)
(0.746533 -1.09926 0)
(0.947055 0.0309298 -1.30972e-21)
(0.935609 -0.000244116 0)
(1.34849 -0.0551239 3.14433e-20)
(1.125 0.0113496 -3.73898e-21)
(1.09382 -0.150894 1.07827e-19)
(0.932496 0.0319272 0)
(0.949505 0.18134 5.28962e-22)
(1.35489 -0.0353566 -6.69114e-20)
(0.98342 0.311098 5.20819e-21)
(0.94799 0.0952734 0)
(1.23761 -0.0498636 0)
(0.99206 -0.0771087 -7.70503e-24)
(1.00402 0.108808 -2.3271e-21)
(1.18753 0.628979 0)
(1.01369 0.215981 0)
(1.24273 0.075365 9.65033e-21)
(1.377 0.0775965 0)
(1.13837 0.150703 -1.31986e-20)
(1.4582 -0.0833536 1.02152e-19)