/*--------------------------------*- C++ -*----------------------------------*\
| =========                 |                                                 |
| \\      /  F ield         | OpenFOAM: The Open Source CFD Toolbox           |
|  \\    /   O peration     | Version:  v2012                                 |
|   \\  /    A nd           | Website:  www.openfoam.com                      |
|    \\/     M anipulation  |                                                 |
\*---------------------------------------------------------------------------*/
FoamFile
{
    version     2.0;
    format      ascii;
    class       volScalarField;
    location    "150";
    object      ddt0(omega);
}
// * * * * * * * * * * * * * * * * * * * * * * * * * * * * * * * * * * * * * //

dimensions      [0 0 -2 0 0 0 0];


internalField   nonuniform List<scalar> 
14033
(
0.00721818
0.53324
4.09532e-06
-3.57811e-08
7.89184e-07
-6.05153e-07
-0.0130352
0.00239111
9.96463e-08
-0.118725
0.011105
-0.000615726
-5.89674e-07
4.85134e-06
2.43355e-07
-0.000192504
-7.19464e-06
-0.190271
1.14951e-06
2.33583e-06
0.00022268
-0.000961398
0.000700916
7.68054e-07
-0.00297486
7.5157e-07
-0.00112155
0.00118647
0.000160441
0.0121916
-4.44245e-05
0.00161418
-0.00660932
0.000714804
-0.0126804
4.71911e-06
0.00581239
-0.0996336
8.65524e-07
5.94063e-06
-0.140221
0.000181686
9.54102e-05
2.74752e-07
0.00525165
-5.46533e-05
-0.00469009
-1.19933e-06
-0.00690385
0.0305534
1.6948e-07
4.88983e-06
0.297053
0.050514
-1.43887e-06
-5.90115e-06
-0.0579106
-0.0917766
0.000748834
-6.91116e-05
-0.00738598
0.0116246
0.000923047
-2.4953e-05
1.1927e-06
-3.74393e-06
0.00523097
-0.00122107
-0.00105394
-5.80345e-06
4.14652e-07
-3.00566e-07
-0.0052165
-6.65839e-06
0.000130132
3.7808e-07
-6.76177e-07
8.10746e-06
-0.00322862
-0.0294608
0.000679148
0.0146665
0.175051
-5.29353e-07
1.97567e-06
-9.67604e-08
2.67907e-05
0.0542317
0.000569434
-3.14888e-06
3.37812e-07
-2.61489e-05
1.78868e-05
-0.230773
0.000813425
-0.00639962
3.09957e-07
1.26341e-05
0.00659331
6.34454e-07
-4.9194e-06
-8.12712e-07
0.000631908
0.000117348
-0.00336695
-0.00226412
0.000712349
-7.22068e-07
-0.00150561
4.75935e-06
-0.00739751
-0.000378574
9.73211e-06
0.108257
0.000278365
-3.25454e-07
0.00827816
-3.0689e-07
0.0151299
-0.0112276
-4.0883e-08
0.000322163
-0.0131626
3.90312e-05
-0.00125395
0.000361295
6.15945e-07
0.0311493
-0.00824045
2.76412e-06
-0.00593506
2.21894e-06
1.21914e-06
-0.00387892
-0.00647753
-0.000122724
-0.00150766
2.25657e-06
1.3468e-06
-0.00102988
0.000303658
-0.0940614
0.000541555
2.69628e-05
-0.0025071
0.0110888
-4.65083e-08
0.000604309
0.00651237
-0.328866
-0.00795968
0.00021535
1.85554e-06
-0.00241503
-7.97071e-08
-0.00852282
-5.63338e-05
8.43414e-07
-6.09622e-05
4.59975e-07
-7.26438e-06
0.00268801
0.00704757
9.70461e-07
0.000127307
2.39154e-07
0.000143464
-0.000670806
-0.431186
3.43026e-06
-1.15845e-05
-0.0015504
-0.000561713
-0.0390652
4.36676e-07
1.98639e-06
-0.00528533
0.000614414
-0.000488045
8.18155e-05
0.000243856
0.00167306
7.30619e-06
-7.53695e-05
4.4848e-06
-0.000166483
-0.010825
5.41472e-07
-0.52318
-0.00225616
-0.0902238
0.000225973
-0.000526619
3.67129e-07
-0.429955
-0.143481
0.000878095
-0.00765315
1.91091e-07
4.71952e-06
-2.56773e-06
0.000142745
2.01371e-06
0.00257139
0.00017638
2.50735e-06
-5.39628e-05
-0.0301605
3.80366e-05
-0.225708
-0.00896124
-0.0276131
-0.00125356
0.257209
4.48859e-07
2.58468e-05
8.46874e-07
0.00160155
6.13435e-06
-0.00033389
-8.67972e-05
0.000191981
-5.76215e-05
3.11049e-05
-1.70962e-07
-0.00220428
-1.00379e-05
2.15101e-05
1.27555e-07
-3.42736e-05
7.63429e-08
-0.001968
6.79225e-07
1.03007e-05
-0.00258696
-0.00866204
-0.00302544
-5.08404e-05
-1.84888e-07
-4.08174e-08
-0.0114894
-7.97529e-05
3.92141e-07
3.89145e-07
0.000127713
-0.000176994
0.00554074
-0.0485873
4.90873e-06
-0.00268064
-2.92415e-07
-0.00507231
0.000212319
0.0103841
7.16085e-09
0.176795
8.51757e-08
6.49501e-07
-5.29016e-06
-0.0320682
1.37081e-06
-0.352833
0.176052
-0.000410226
6.66401e-06
0.00645062
8.87625e-07
-0.0158937
0.0123462
-0.00718505
-1.07922e-05
-0.00512975
9.58788e-07
6.95036e-05
0.0533809
-1.81651e-07
1.71946e-07
0.00073888
3.46294e-07
0.683084
-0.00471893
7.01743e-07
-0.0206913
-0.000338756
-0.288912
-0.342577
-0.00397869
-1.22691e-05
0.0180701
0.144385
-0.000337576
-8.47528e-05
0.000531271
0.0107553
-9.76484e-07
0.000246772
-0.000215325
-1.13211e-07
0.00031945
-2.23795e-05
0.00010095
0.00360149
0.126364
1.79464e-05
0.000187573
0.0143861
-9.81726e-07
6.15374e-05
0.00146922
1.52022e-06
0.00172193
2.49227e-07
0.00314325
0.000163533
0.00478453
0.0260648
8.46079e-07
0.000279352
-2.46098e-05
-0.010401
0.404898
-0.00157234
-0.000141396
-0.00896801
-0.00082044
0.0287851
2.04783e-05
0.00207165
-0.000803196
-0.000567576
-7.00694e-05
-0.250523
0.330351
8.90687e-05
-4.82379e-09
-0.000299839
-0.00264224
-1.78653e-05
-0.00727517
3.55295e-06
-0.00817093
5.9578e-06
5.92341e-07
4.06059e-06
-0.0618701
-0.00509579
-0.000974951
5.48517e-07
-0.109308
-0.00252874
-0.000184346
1.87224e-06
0.00040548
-0.000359007
2.31549e-06
9.11311e-07
-1.27465e-06
-0.00455015
0.0014097
-0.000117155
4.70822e-07
0.0278946
-0.00786564
7.48842e-05
4.44455e-07
0.00156271
0.0310788
0.001292
1.04167e-06
-2.99464e-05
-0.00446189
-6.11917e-06
5.29741e-05
1.26208e-06
0.000641954
-0.235861
1.32634e-05
-6.13582e-06
-0.150837
3.98522e-07
0.000507546
-0.00115497
1.35172e-06
-0.0710252
0.0125256
5.162e-07
-0.00744836
0.000122329
-0.000360859
0.00386294
-7.53798e-05
-0.00573508
2.91516e-06
5.12528e-05
0.186167
-0.273094
0.0110595
-0.0276015
0.00486447
3.00445e-07
0.248159
1.06207e-06
1.61143e-07
-0.00332535
-0.00277905
-2.79807e-07
-0.000437546
3.41982e-07
4.0233e-06
0.00459965
-0.0105574
0.01074
4.38186e-06
-0.106617
-0.00208827
5.82247e-06
0.0306354
-1.29198e-06
9.06681e-07
-0.0173009
0.000254256
0.153707
0.000841236
-1.44633e-07
7.07728e-07
-6.30644e-08
-0.000397864
3.02224e-07
0.000174066
3.92091e-05
-0.00118169
6.96506e-06
9.79547e-05
3.86466e-06
0.0425698
2.19393e-06
1.48767e-05
8.21153e-07
-0.00193616
-0.00905438
-0.0333924
5.09377e-05
1.74549e-06
2.48365e-05
0.0001044
1.6879e-06
-0.000458509
-0.0104861
-0.00679974
-5.88638e-07
0.00417635
0.00139082
5.15495e-06
0.18201
-0.000139994
0.00222483
0.168502
-9.621e-07
2.54511e-07
0.000163408
2.80523e-06
-0.00691798
-0.0800179
-0.0289204
5.97941e-07
4.6733e-07
-0.117648
6.75479e-06
6.50531e-05
-0.237951
5.21135e-05
0.000289435
-4.51693e-06
-1.09333e-07
0.0236094
-0.0199941
1.23775e-05
-0.00537654
8.00858e-05
0.234096
3.55862e-05
0.00132997
-2.7853e-07
-0.145588
-0.000759426
-4.94805e-05
0.229163
2.08006e-06
-0.00392264
1.0747e-06
-1.70667e-06
0.0953402
0.517442
-0.000218665
-3.83571e-06
4.56537e-06
5.90633e-05
-0.108171
1.3731e-05
-0.00167283
-1.16498e-06
-0.000427201
0.00165977
0.00687448
0.00137637
6.58022e-07
1.76905e-07
-0.146929
-6.71768e-07
0.00296977
1.38889e-06
9.92729e-08
-4.00733e-05
0.000104026
6.86455e-06
-0.000124696
0.000298942
4.19458e-07
-0.0975141
-0.0743108
-2.40165e-05
0.0909392
8.80727e-06
1.16794e-06
1.98457e-05
1.27654e-06
7.95288e-05
-1.18026e-06
-6.04047e-06
5.82441e-06
-0.000111602
1.087e-05
-0.0075932
-1.3831e-06
5.8053e-06
1.35091e-05
1.23313e-07
1.79231e-08
2.69493e-08
-0.00588068
0.00033997
0.0318963
-1.08835e-09
2.66168e-05
0.04071
-1.12782e-05
-0.0403415
-4.59054e-06
-0.160522
-0.000134034
-0.0037035
-0.00745925
2.47053e-06
3.25506e-07
-0.0024591
-0.00096399
-1.58101e-06
0.000114465
0.00079348
-0.0015322
5.13327e-05
-0.000174981
0.000120291
2.06462e-06
-0.00012597
1.78167e-07
0.0102735
-0.000171811
8.04898e-08
-7.58229e-07
-0.0517923
-0.0722402
-0.148872
3.44124e-08
0.505366
-1.99991e-07
-0.283336
-0.00447467
1.08124e-05
-0.00437578
-0.000141838
-3.48715e-07
-3.87368e-05
6.43979e-08
-1.19224e-06
-0.00316904
6.72161e-06
0.00186472
-1.39014e-07
2.22476e-05
0.521556
-1.83771e-06
1.35412e-06
-0.00135222
1.29037e-05
-4.27673e-09
-1.64001e-06
-0.312747
-1.40468e-05
3.37203e-05
-6.12402e-08
0.000171536
-8.8515e-05
-0.0431151
-0.000193705
-0.0312006
-0.00473748
-0.00939227
-0.0048331
0.0518532
0.00199313
0.00423187
1.62287e-05
-9.73388e-07
0.0168627
8.8969e-07
-0.00287038
1.59296e-06
-0.0207274
0.00208871
-0.000219146
3.52321e-07
3.34847e-05
-0.000186286
-0.00176946
-0.000373881
0.0457897
0.00135574
0.000819885
-0.000145033
1.33295e-06
-0.00386979
1.58602e-06
-0.0220941
1.42694e-05
0.51992
2.99457e-07
2.03165e-06
0.000850394
-1.02897e-06
0.00172147
2.57764e-06
-0.00297044
-0.0202432
0.000541257
-0.00843151
-0.00356333
8.60232e-07
9.14577e-07
-0.0029461
0.000171083
-0.00023425
-8.66719e-06
3.06975e-05
-8.94792e-05
-0.0418322
-7.95601e-07
9.9911e-08
0.405583
-2.86812e-06
4.31198e-07
-0.000177305
0.569478
-0.0133487
-2.80209e-07
-0.143086
-0.00625296
0.00517862
-0.0018279
-6.67758e-05
-0.00557163
-0.0909843
0.0122511
2.18114e-05
1.39974e-06
-2.26914e-07
-2.84449e-07
0.142428
-0.000350652
4.11025e-07
0.207231
-0.0150658
5.55524e-07
-0.234872
0.115908
0.000641198
1.64139e-06
0.0851836
-0.00086206
2.27103e-05
0.00558531
6.88053e-05
-0.00362727
4.55926e-05
0.0228462
0.00462588
0.00254009
0.00110738
4.71822e-07
-3.09649e-08
-0.214517
-6.96868e-05
-0.0033717
8.80035e-06
-1.44614e-05
-1.78016e-06
-2.91639e-07
0.0240711
-0.000136043
3.88571e-06
0.0444019
-1.67179e-07
2.41458e-06
4.43691e-07
-1.18617
0.000352225
-0.000139831
5.42859e-07
8.81023e-07
0.000239718
-0.00547624
-0.00252544
-0.000516881
3.93039e-07
0.000657065
-3.07715e-05
0.00106676
-0.000855785
-0.000141757
9.51382e-07
5.06138e-07
-0.000364516
0.000708776
-0.000489452
-5.0783e-06
0.00015753
0.278545
3.93328e-07
-0.011594
0.000573635
-0.00234177
9.36781e-06
-0.0049616
-0.338802
0.00560016
4.33497e-06
-0.00405871
3.56288e-07
-0.00482825
0.0617121
0.000781087
2.40443e-05
3.916e-07
5.63722e-06
0.00131672
0.00776512
4.00465e-06
-0.00156056
0.00382351
-0.00265055
2.70505e-06
0.00177786
-0.00322153
-8.65712e-05
4.28506e-05
-8.84812e-07
-0.00889477
5.24561e-07
8.93375e-06
-0.00097421
-6.59161e-07
-0.0017749
7.10428e-05
-0.111266
8.65742e-06
-0.000535162
0.00775015
0.00579757
-0.00566446
-4.78057e-06
-4.2377e-05
3.84453e-06
0.00308417
4.6132e-05
-3.94326e-07
-9.47738e-08
-0.00658142
-1.72472e-06
0.0025185
7.85012e-06
0.0163879
0.00130459
-0.000121566
-0.00355037
0.00732816
4.30547e-06
-0.00456205
-0.426604
0.0166691
-0.000177626
-0.000938696
-0.0100282
-0.000185674
0.00811113
0.000939658
0.0683048
3.86687e-07
-0.0074393
-0.000239595
6.14998e-06
1.09123e-05
1.25202e-05
1.26059e-06
-0.00103044
-1.39397e-05
-0.00115412
6.23303e-06
0.00101365
-0.135201
0.00304255
-0.00918995
1.82156e-05
8.71061e-07
2.53588e-07
0.235316
-0.00055523
0.000117326
1.338e-05
-1.97491e-05
-0.000532646
1.73689e-06
-0.000388345
0.276939
1.59015e-06
2.04712e-05
0.00368219
-0.0343471
-0.00353483
-0.00439923
6.37499e-07
5.03818e-05
8.63815e-08
8.56041e-07
0.0947703
0.000159682
-0.000544108
-7.63348e-06
1.17777e-06
8.72048e-07
2.1443e-06
7.82145e-06
1.41507e-06
1.0434e-05
-0.0196917
3.14634e-07
5.42566e-06
-4.01761e-06
-1.27189e-05
1.9079e-06
0.000975211
5.23695e-06
0.197755
2.29544e-07
0.000670463
8.86427e-06
-0.00898107
7.5633e-06
-0.00154064
-1.20664e-06
0.0377079
-1.61569e-05
8.51038e-08
-7.847e-07
0.035247
-7.71892e-07
-0.000332392
-0.00846244
-0.0112862
-0.16915
0.00193957
3.08272e-07
0.000130295
-0.00931088
0.000813279
-0.000333503
0.00314566
6.60478e-07
-5.01743e-08
4.57864e-07
5.66622e-07
7.09536e-07
-7.41052e-05
-1.7799e-07
7.74402e-07
5.01439e-05
3.02971e-06
6.34257e-05
2.0415e-07
-0.0119758
5.01196e-07
-1.78365e-06
0.00272097
-0.0022944
-0.00658911
-8.95372e-07
7.94086e-07
-0.0478362
0.000333741
-8.56379e-05
-9.32819e-07
2.61436e-06
-0.00132266
0.000702829
5.1705e-05
-0.00016374
0.00036716
0.0106989
-3.57964e-06
-0.0838319
1.84022e-05
4.89386e-07
0.0775117
-0.0316203
-2.87083e-06
0.188387
0.0110992
-0.000462883
-0.000531752
-0.000804651
2.38724e-05
1.35746e-06
7.74958e-06
-0.0618994
-7.71968e-07
0.0155359
1.44573e-06
-0.0014562
5.39251e-07
0.00100143
-5.44481e-09
-0.00820721
0.0024487
-0.00794746
-0.000137714
6.65488e-06
-0.0680658
7.0758e-05
-6.27521e-05
-0.00248201
-4.53998e-05
0.0357456
-0.00121212
5.24959e-07
6.25807e-06
6.75194e-05
0.103617
3.96469e-06
0.00463517
0.083171
-7.9924e-06
-0.00311825
4.18729e-07
-3.94571e-05
1.23059e-05
-0.000899005
-0.00611801
-0.000594104
-1.1954e-06
9.8019e-08
0.00118294
4.66824e-07
-0.000661152
1.92905e-07
4.47093e-07
-1.94711e-08
0.143379
-0.0537602
0.0134057
-0.461507
-0.00935024
5.86244e-07
2.2065e-05
4.95702e-06
2.27814e-07
-1.16497e-05
-1.36976e-06
0.000861345
-7.74605e-07
2.74984e-05
-0.2913
-7.50642e-06
4.08934e-06
-2.92597e-06
-3.43432e-05
0.0115755
1.79307e-06
0.00378268
-0.00174798
-3.24109e-07
1.04611e-06
1.12021e-07
6.20304e-05
-2.50597e-07
3.21424e-07
-0.000107928
-0.0196357
0.0663029
3.13218e-07
3.59028e-06
0.262712
-0.00381221
-0.0119295
-0.00134933
5.93506e-07
4.8283e-06
-2.8895e-06
3.62776e-07
7.7587e-06
-0.17737
1.11558e-07
-0.000292999
0.00148399
-0.00128056
0.00180049
-0.0682356
8.60273e-06
-0.000142976
6.234e-05
2.31379e-07
0.0205006
-0.00944081
4.2193e-06
-0.00530188
1.52059e-07
7.74256e-07
0.0663997
-0.0616694
1.63738e-06
-7.3627e-05
-3.0397e-07
-0.00264769
5.16576e-05
8.04659e-05
-0.00266422
0.000150293
0.204281
9.70987e-05
-0.0676924
0.000226219
-1.50964e-07
3.32368e-07
1.89021e-05
-0.00839906
0.00173342
0.000105654
-0.0047272
-0.00732712
-0.00213251
6.22848e-05
0.0650028
-0.0698116
3.11674e-07
3.62976e-07
-4.31539e-05
8.46722e-06
4.30685e-07
4.25476e-07
2.4011e-06
0.00388753
-0.00105731
-0.111645
2.12625e-05
6.02862e-07
-0.40305
-0.000715285
-2.74632e-05
0.000165465
1.84284e-07
-1.07998e-05
0.000439471
0.00155146
0.000304774
0.00283388
0.000946976
-1.2425e-05
2.41672e-05
8.24384e-06
2.62127e-06
0.129078
1.19785e-05
4.31332e-05
5.75459e-07
-0.000175668
-0.000338905
1.4984e-05
-0.0045991
7.58088e-07
3.88181e-07
-0.00952722
2.36006e-06
-1.10492e-06
5.75348e-07
0.011836
1.37266e-05
-0.00607394
0.0018206
6.28324e-06
1.06323e-05
-2.22374e-05
-0.000245873
0.00756044
-0.282099
0.000837371
0.00257682
-5.50939e-05
0.0371072
0.00363734
-0.0962191
-0.000402057
1.906e-05
-1.06534e-06
0.0332246
0.0445417
7.26479e-06
-5.39471e-07
1.56882e-07
3.98002e-07
-0.0696534
-0.00468888
-0.0861385
0.00845281
2.58379e-07
-0.0107848
2.06692e-07
-8.27283e-06
-0.00950537
-0.000115408
8.53159e-08
7.61471e-07
-0.00985854
2.24981e-07
-0.00262752
-0.172393
2.55134e-07
-0.00370018
-0.137381
0.00512675
0.000260682
0.000129855
-2.9406e-07
-0.000138912
-0.000228127
0.000150857
0.00479995
-1.42507e-07
7.86366e-08
-0.119966
-2.26657e-06
-0.0335941
2.70684e-06
-2.31787e-07
1.2986e-06
-3.33128e-06
-8.01138e-07
-0.051723
1.32993e-07
5.22618e-07
2.56161e-06
-0.0385095
0.107213
-3.03004e-08
4.88932e-07
1.09553e-07
0.0578181
-0.000290006
2.06533e-07
2.61371e-06
0.0667555
0.000558946
-0.00126174
0.000314398
-0.000217719
-0.00125757
4.98457e-07
-7.88031e-05
5.03836e-07
0.338566
7.35224e-07
-0.00027482
-0.0270962
5.9503e-05
2.22713e-07
-3.13655e-06
0.00074169
-9.13483e-05
2.55737e-07
1.41799e-05
-0.0332656
-0.00236112
2.31234e-06
-0.0140876
0.000118714
0.00367379
0.000306282
-0.00103783
3.73084e-07
0.00518484
-0.0492998
7.47289e-07
5.04817e-05
0.00991493
7.26418e-07
0.109837
-5.43115e-06
5.42106e-06
0.0779698
2.701e-07
-0.000172818
1.18825e-07
-0.000185417
0.131692
-0.0155231
-0.727234
3.65184e-05
-2.83749e-05
-0.000185437
-0.06728
-0.116911
-0.406658
-0.0573164
1.98635e-05
0.0788578
2.24535e-06
-6.5022e-05
6.5544e-07
-0.139464
3.24087e-06
-6.99354e-06
-0.0265586
-0.317472
-6.186e-05
1.77269e-07
0.00172542
-5.95991e-06
-0.000853514
3.33689e-06
2.75342e-07
1.23147e-06
3.4175e-07
0.000370611
3.10323e-07
-0.00722371
1.04449e-07
2.36946e-05
0.0181364
2.36434e-06
-0.000198815
-2.85721e-05
3.49338e-05
-0.00886185
5.65232e-07
0.00107487
-0.0895199
-1.80348e-05
0.000265321
0.210319
5.30136e-06
0.0689846
-0.0298142
-0.0107445
0.00187074
0.000335498
-0.000299477
0.0510092
1.16146e-05
-1.58078e-06
1.30933e-06
3.0064e-07
0.0106692
-0.0138054
3.06177e-05
-4.01358e-07
-2.83923e-05
5.92598e-07
5.81074e-05
-0.000832289
-0.304765
6.46614e-07
1.08464e-05
0.0265201
3.67738e-07
-0.000610631
0.00381611
3.07381e-05
-0.00997164
3.8155e-07
-0.5622
3.5257e-06
-0.0186651
0.0413783
0.00726211
-0.00184642
9.68149e-06
0.0613117
3.40155e-07
0.0290902
0.0738293
0.000983148
-0.133402
7.55118e-07
-0.280502
-0.0419216
-5.63946e-07
0.00349332
0.176029
0.00036733
0.0139439
-0.00134146
-1.36766e-06
-3.79218e-07
0.0557626
-4.63255e-05
-0.000247778
0.0394539
-4.24826e-05
0.00433104
-0.00326161
0.0479297
-0.000714027
-4.91021e-07
-0.0037919
1.18103e-06
-6.72387e-07
6.68342e-05
-0.00256566
4.66591e-07
1.15021e-05
-0.440658
1.39688e-07
-0.0648978
-0.00909088
1.75011e-05
0.0189018
-0.000169904
0.0173671
4.25263e-07
5.93991e-08
-4.14772e-07
-0.380739
1.27946e-06
1.40017e-05
-0.000790939
-0.218003
1.97636e-05
0.015906
0.034765
0.000661391
-0.000433124
-0.000729609
0.000175849
-0.020065
0.115495
-4.17235e-08
-0.00233901
-0.00044312
-0.0169406
0.013337
-0.0405351
0.000434854
0.0017333
-0.000761859
1.21652e-05
1.87589e-06
-0.00062566
3.43285e-06
2.83756e-06
0.0202698
-2.87686e-05
2.38473e-05
8.88218e-07
-1.18598e-07
-2.56152e-05
0.0238944
-0.00530107
-0.0192464
-0.311933
-0.000321412
1.84769e-05
1.85868e-07
1.36874e-07
-0.000324083
6.473e-07
1.51143e-05
4.66519e-07
-7.02162e-05
-1.1208e-06
9.53705e-06
5.0671e-06
-2.89451e-06
6.07596e-07
0.00230728
-0.00105239
-0.21623
-6.37456e-05
0.00890204
0.00151928
0.00268783
-0.000670812
-0.140411
3.65375e-07
-0.0723044
-0.000430444
0.036928
-6.19589e-07
2.10607e-05
9.81684e-06
9.13262e-07
9.87137e-07
-0.000252511
0.0422941
0.00872081
-0.302669
-0.0218553
-0.0013675
0.00010611
-0.00990199
-2.4501e-06
0.00375624
0.00239119
0.0871755
1.89173e-06
8.25706e-05
-1.39157e-06
0.00816472
2.02489e-05
0.00163754
3.57361e-07
0.0594234
-1.46857e-06
0.0758174
0.00176798
-6.59354e-06
-0.0408709
0.22721
-1.60604e-06
-0.510598
-0.00108385
-1.86408e-07
-2.53987e-06
2.10038e-05
8.34791e-07
0.00461454
-0.0480267
-7.23748e-06
-0.0825927
-0.001818
-9.79975e-07
-0.0050287
2.93169e-06
-0.0488924
-2.02207e-07
-0.299543
-1.09472e-05
0.000279613
1.86042e-06
5.65448e-06
-0.000840243
-0.0152463
-0.00405451
-6.25639e-08
3.61432e-07
-0.00569642
0.00482498
-3.88492e-07
0.00147081
0.00029114
0.0197879
-0.116282
0.00149262
0.106873
2.42681e-07
-1.17887e-06
-2.89717e-05
3.9719e-07
-0.0094222
-0.399536
7.47435e-06
-0.0101851
1.22256e-06
2.33008e-06
0.147548
6.13423e-07
-7.57053e-05
1.5568e-05
0.00947173
0.309405
3.88827e-05
-6.56116e-06
0.00865892
0.368218
9.14704e-07
0.00111821
9.57232e-07
4.09406e-08
-5.39595e-05
-1.44995e-05
2.29872e-05
0.156877
-9.59165e-07
-0.000714407
-1.55015e-06
-5.47634e-05
-0.00243337
-0.000104252
0.000279942
0.14302
-0.0228065
0.000874931
-1.15026e-06
-0.00134942
-0.0118811
-1.20056e-07
1.74116e-06
-0.000351632
2.33658e-06
-0.000203423
6.362e-06
0.115382
2.5938e-07
4.44883e-06
2.56886e-07
-0.00828908
1.14112e-06
-0.000171577
0.000324635
2.12489e-07
1.17204e-06
0.00593705
-8.92662e-05
-0.000544019
0.000256669
-0.00083402
3.35137e-06
0.0697554
-0.0271896
7.70103e-07
-0.00454669
5.89371e-06
-5.98397e-07
-0.00856801
-1.13957e-06
0.180666
-0.00812722
-3.64151e-06
0.000517809
-0.000611203
-8.41392e-07
1.02765e-07
8.35462e-07
2.31881e-07
-7.81355e-06
1.36409e-06
-0.0120636
4.07258e-06
-0.00365727
-1.06084e-07
0.010161
0.0137562
-0.0130902
3.98673e-06
-0.00739507
-0.00308574
-0.00563231
0.456345
0.000132047
-0.00159983
-8.67646e-07
0.0915764
0.00932129
0.00105451
-0.00647824
-8.692e-09
0.0114702
6.06e-06
6.15218e-05
-0.000102044
4.68556e-05
0.0246037
-2.96732e-07
2.38408e-07
-0.00132295
-2.01935e-07
-1.49349e-06
-1.40449e-08
5.84834e-06
-5.12566e-05
-0.00020705
-1.98469e-05
0.0190442
5.26762e-06
-0.00301712
-0.253745
4.00108e-06
0.0556564
3.43228e-08
-0.000504392
0.485058
2.55818e-07
-1.82552e-06
-0.00649604
-0.00275384
-0.00418956
0.0472781
0.00258942
-1.31418e-05
5.24862e-07
-0.00270491
5.36378e-05
0.00969843
-8.34219e-08
2.81345e-06
0.00181506
-0.000581683
5.18135e-05
0.513502
-0.000237966
0.0247693
-3.21297e-07
0.000425934
5.38846e-07
-8.9545e-07
1.13136e-06
-0.00883846
7.49364e-06
-2.89189e-07
0.10145
1.0713e-05
-2.65622e-05
1.68909e-06
9.63757e-05
-0.189337
-0.514222
-2.27571e-06
-0.00192986
-4.39104e-05
-3.37408e-07
4.82562e-07
1.79461e-05
-0.036362
0.00774685
-2.7007e-07
-0.0245635
0.149775
1.12361e-05
0.00179251
-0.147028
0.00436999
-0.000158147
-1.79602e-06
7.49949e-06
1.28868e-06
1.10255e-06
0.0328349
0.209654
-7.27225e-07
0.00190863
7.9672e-06
-0.00723549
-0.00247004
5.01672e-06
-0.00629697
0.121206
-4.73017e-06
-0.293998
5.82324e-07
0.0439362
-7.21925e-06
0.000504854
0.377812
-0.0102888
2.37468e-07
0.0459363
1.1948e-05
0.0176392
-0.000658992
-3.99889e-05
0.445657
3.64141e-07
-0.000513079
0.0017634
5.70377e-05
1.94864e-06
-0.000412634
0.0307476
-0.000487064
0.000196104
1.68737e-05
0.0760134
0.000871286
0.000549074
2.07348e-06
0.00159063
0.00341718
0.000341132
-0.000517855
-0.00500415
-0.00755924
4.10913e-06
-0.00241732
1.15397e-05
4.26932e-05
0.0429687
-9.26434e-08
-4.32245e-05
-0.00440702
0.041583
-0.000464399
-0.224119
0.0153009
0.0277474
9.56828e-07
-6.54318e-07
-0.000698877
-0.00828189
-0.0215152
2.28629e-06
-0.00271042
-8.39805e-05
-0.00159612
-1.94663e-05
-5.7747e-07
0.0338606
0.00208897
0.000305404
0.0072639
-0.000138587
3.44981e-05
-0.257676
-8.84613e-07
-2.44853e-05
-0.00014033
-5.45687e-06
0.0295559
4.14005e-06
3.65796e-05
2.5268e-07
4.08014e-07
-0.00389393
2.32374e-06
0.13149
0.000385085
-0.0259422
2.7718e-07
0.00026742
-0.000528589
0.000224108
-0.000102855
1.56361e-07
-6.1764e-06
-6.58791e-05
3.99915e-07
-7.40638e-05
-0.064472
0.000803341
0.00490354
6.10675e-08
-1.83538e-07
-0.0381136
-2.32501e-08
2.47084e-08
1.77668e-06
-6.21678e-06
-1.17693e-06
8.12286e-07
1.31159e-06
1.46467e-05
0.00229872
1.35944e-07
-0.00101389
-0.00240053
-0.0014863
-0.0111138
0.0220136
-1.04407e-05
-1.67574e-07
1.64575e-07
-0.680266
2.0515e-07
0.00276845
-0.00292429
-2.1001e-05
-4.59504e-07
-2.13349e-06
1.42479e-06
3.37654e-07
0.11658
0.0944576
2.20979e-07
-0.0401789
-1.61224e-05
-0.00259858
-0.000397551
-0.163768
-0.119544
-6.66568e-05
3.6669e-07
5.83571e-06
0.207865
-0.000456826
0.000180366
7.49008e-07
1.13369e-06
-0.0316449
-9.41754e-07
-0.00214103
-0.0458291
1.73444e-07
2.26942e-05
2.11273e-06
-0.00203766
-0.00273342
1.13133e-07
0.00499209
-0.00012461
1.70048e-05
0.0502965
9.01858e-06
-0.000576678
4.19707e-07
7.35471e-08
-0.151092
7.76803e-07
-0.0285984
0.000405748
0.000113496
0.0847227
0.0801048
-1.23326e-05
0.000169772
0.000136364
-1.51072e-06
0.000738831
1.85171e-06
0.0188873
0.00259049
0.00244928
7.14208e-06
1.00249e-06
0.023588
0.139374
0.188218
1.23042e-06
-0.00340195
-0.00454091
0.00299849
-3.54437e-06
-0.00726646
0.137947
0.0029058
0.000260691
-6.44841e-07
0.00351953
1.46153e-07
0.000177483
0.00988981
-0.148037
-0.0275336
2.43109e-06
0.0143224
7.95976e-05
-3.99818e-07
-8.95084e-08
-1.80504e-07
4.62762e-06
-0.000850606
-0.0047042
-1.43168e-06
-0.00101783
0.000357183
2.585e-07
-0.00175073
0.274423
2.53599e-06
1.45243e-06
3.33614e-07
0.00170652
-1.78686e-05
5.64069e-07
5.46214e-06
0.0124999
-1.93277e-06
7.2548e-06
5.15929e-07
6.64757e-07
0.00140794
-4.62868e-06
9.65429e-07
-0.00306669
3.26867e-05
1.6853e-07
-1.65499e-07
-0.00942263
0.000772479
-4.77015e-08
-0.0208645
-0.000651462
0.00857315
-0.000771073
-0.00155076
-3.06193e-06
-1.07032e-05
7.10836e-06
-1.19488e-05
0.0147611
-0.161582
-0.000262266
0.000117171
0.00517576
2.93918e-05
0.000341085
7.77361e-07
-4.1175e-05
-0.0519029
-0.0034097
-0.00161772
-7.87328e-06
-0.00064909
0.000869088
1.10237e-06
0.0253741
5.92307e-07
-0.00373468
-0.00791635
0.0178534
3.52427e-07
8.85585e-07
1.98139e-05
1.20037e-06
-0.00262219
6.81337e-07
1.07709e-07
0.354132
6.71919e-05
-0.00099185
-1.16549e-05
3.33416e-07
0.000304017
-0.00533312
-0.000477308
-0.00280243
-0.00836747
0.0209837
-0.000822833
0.394088
2.9907e-07
0.00170855
-0.0216267
-0.0300091
4.95994e-06
-0.00474736
0.0708088
-0.00381839
0.0224391
0.0573857
1.65107e-06
0.0306656
-2.12321e-07
0.0129213
-0.00633832
0.00568423
1.9359e-05
1.56925e-06
-0.00636493
-0.352747
1.5752e-05
-3.24839e-06
-1.6122e-05
-7.10617e-05
1.18727e-05
-0.0115583
0.00406874
0.00186785
0.00112252
0.0329199
1.58627e-06
0.0054796
0.000909146
-0.00801757
0.00093224
-0.00709332
0.000198491
0.0161178
2.36459e-07
5.23821e-06
5.85159e-06
-0.00571251
0.00387906
1.35621e-07
-3.54512e-06
-3.98185e-06
0.000341121
7.90054e-05
0.000218727
-0.000608518
4.63533e-06
0.0297038
0.134312
-0.245652
0.0197753
-9.70358e-05
1.52995e-06
0.000106647
0.00027661
2.50716e-06
-0.0094321
2.59608e-07
-3.9356e-06
3.32267e-05
3.31058e-07
-0.0102702
6.93131e-06
6.34653e-07
-0.000577965
-1.9398e-06
-4.26128e-06
2.03238e-08
-0.000402537
6.60404e-06
0.000155906
1.80419e-05
3.93627e-07
0.0393761
0.00466651
2.80363e-08
0.0324296
-0.0696435
4.34165e-08
-0.00187529
-0.0083935
8.33906e-07
0.1059
-0.00781639
-0.0124684
4.15889e-06
0.104382
-0.010522
-0.000745853
-0.0694937
5.11888e-07
-0.0361504
0.000971621
-3.23986e-08
1.96334e-05
-3.73341e-05
2.67071e-06
0.012162
1.06578e-05
0.000519501
0.00816665
2.61589e-06
1.12302e-07
1.14586e-05
0.13844
-1.70844e-06
-0.00076992
-0.00122331
-0.000852273
2.10871e-05
1.28588e-05
-0.0205302
1.61871e-05
0.722573
-0.00255337
0.000496659
7.27653e-05
-0.00110945
2.34488e-06
-2.48451e-05
-0.000142208
0.00281789
7.32186e-07
0.000211525
0.0105959
-0.000586335
-8.49961e-06
6.16518e-07
0.00253663
3.67993e-06
0.0130162
-0.0745559
3.85498e-07
-0.127681
-0.000500555
1.03727e-05
-0.00789083
-9.59085e-07
-0.448752
0.000126765
0.0284862
6.12975e-07
-0.15662
-1.67725e-06
1.1836e-05
-0.0025212
1.66266e-06
-0.00764553
6.01676e-07
-0.000631597
-0.312545
6.74801e-07
1.07583e-05
0.0119845
-9.72385e-06
-0.000919271
1.40148e-07
-0.135307
0.0575607
-0.0103124
-3.14526e-06
0.00173463
7.21124e-05
1.33387e-06
1.17751e-07
2.84683e-06
7.44985e-08
-0.000196394
0.0193649
-5.23112e-06
-8.80469e-07
0.149454
-0.000557733
2.29692e-07
0.000110986
2.19183e-06
0.00400119
-0.00134052
-5.64249e-07
0.551857
0.0147496
-2.3089e-05
-1.17358e-05
6.99222e-07
-1.31328e-05
-0.00402476
-0.00183848
-1.888e-06
0.00062394
-0.000368151
-0.000968696
-2.06187e-06
-2.14195e-06
-8.15963e-08
-0.00192514
-0.320909
-0.457152
-2.89445e-07
1.01594e-06
-0.00790927
5.2564e-05
1.08736e-07
9.47922e-06
7.59036e-05
0.0134087
-1.92304e-06
0.0224774
0.0165311
7.60448e-06
0.000355988
8.18779e-07
4.49942e-06
-4.58864e-05
1.24673e-05
0.000257364
0.00633494
-0.00779018
-0.00532623
1.43547e-06
-0.00124144
-0.00538218
-0.00315059
-0.000514357
-0.000271443
-0.0774482
0.000640901
-0.00836634
3.76304e-06
9.65972e-07
-2.28619e-07
3.98709e-07
-0.0273175
0.00887495
-1.25848e-07
0.0243003
-0.0527544
-0.00743015
-0.591151
-9.58319e-07
4.67635e-05
-1.77149e-05
3.69406e-05
-2.58775e-08
2.76786e-06
1.41099e-06
-0.0103518
0.00853141
6.16369e-06
-0.000527834
-0.000191626
0.00166402
-0.00148719
-0.0122899
5.42318e-06
0.00010128
0.00385788
-0.0263091
-0.00245224
0.000253401
-6.92053e-06
-0.00565697
-0.156058
-0.00103381
-0.00689833
3.84353e-07
0.0224918
-0.00017402
-9.59305e-07
-9.6843e-07
2.1515e-06
3.43273e-07
-0.19313
5.77694e-07
2.55555e-06
0.229727
-0.00422043
2.17983e-05
5.78218e-06
3.2803e-05
-0.035148
5.19927e-05
6.15073e-05
0.0274766
7.89857e-07
-0.0304656
0.00211565
0.0119109
0.00605174
-0.211012
-8.94169e-07
-0.0131451
-1.77255e-07
-0.00830681
0.000515818
0.0108996
-0.00653275
-0.0605823
0.0012721
-0.001836
-0.00445737
-0.00108196
-0.00589055
9.08735e-05
4.55996e-06
0.0582495
-0.000975533
-0.000616143
0.000382906
2.50209e-05
1.06162e-06
0.00012139
0.0132439
-0.00528886
-0.0256243
3.89748e-05
-0.000343253
-7.19854e-09
4.49809e-06
1.45408e-06
-3.69233e-05
-5.11539e-05
1.14768e-05
-0.0105473
-1.62752e-06
-0.00201544
8.39005e-05
2.6425e-08
6.279e-05
-0.000766267
0.108952
0.00155293
-0.0151953
1.55475e-08
-0.00312531
0.189127
-0.000469344
-0.0070011
-0.00946549
0.00361361
2.04771e-06
-0.00170855
4.00578e-08
-0.000447648
-0.0100382
-4.42874e-07
-0.0106916
0.0395655
1.95306e-07
-0.0231119
-0.000160069
-5.43732e-06
-0.0011655
-0.00105775
0.0271626
-5.38007e-07
0.000359249
0.019959
-2.37401e-06
-0.00926563
-6.67796e-05
-0.00645725
-0.00214215
-0.00148399
-0.00138071
4.46238e-06
2.55621e-06
1.54671e-06
-9.20324e-06
-4.324e-09
0.000616647
-1.25238e-07
-0.149208
0.000178365
-1.3497e-05
2.46642e-07
8.8301e-07
-0.000629511
1.9166e-07
0.141162
-0.00271849
-1.64453e-05
0.000171612
-0.075698
7.45715e-05
-4.0331e-07
-0.00455103
-0.00582377
0.166443
0.111715
9.85965e-07
4.40288e-07
-2.17117e-08
-0.00111977
4.5973e-06
-0.00718404
1.10218e-07
0.000634477
-9.38579e-05
-5.00522e-07
1.19961e-07
6.81436e-06
0.000245439
8.11103e-05
1.41023e-07
-1.8533e-06
-0.00161058
0.0267784
-0.000763576
1.18176e-06
-0.00867443
0.00302993
-0.000189387
5.44328e-07
-0.000674373
0.00413115
-0.180108
2.92157e-08
-0.104239
0.00440041
0.000901297
-0.0183979
-1.16436e-06
-0.000177467
4.47457e-06
7.99882e-06
0.0115085
0.00402484
5.40303e-05
1.20187e-07
0.000360509
-0.115407
0.00331926
-0.00583345
-2.32924e-06
7.3323e-07
2.01231e-07
2.04074e-07
0.0889722
4.58454e-06
-0.00557502
2.30612e-07
0.0972065
-3.27714e-07
0.000111111
1.30582e-06
9.78869e-05
-0.00546656
-0.000725886
0.634833
-0.00621973
8.97615e-06
0.000902132
-0.0475704
0.0598105
-0.0261747
0.0012685
9.80307e-06
0.0547685
0.000108775
0.00338724
-6.01368e-05
-0.0897298
-0.00284436
-0.229401
1.39422e-07
-3.84588e-06
0.00142102
0.0772746
1.75557e-06
0.000823417
-0.00746201
0.00199773
-0.00807408
-2.76198e-05
0.00376294
0.00775914
0.0100807
-1.4253e-07
-0.00449847
-0.00916773
-0.00635787
-1.6684e-06
0.0101625
0.000740109
-0.000261433
-6.06956e-06
8.49555e-06
4.98885e-06
0.00194945
-0.00315296
-0.000428853
-0.00302057
0.001821
0.00974722
0.000195178
0.000822963
0.0010806
0.00117434
-0.00210142
-0.0545338
2.02821e-06
5.49522e-07
3.56752e-05
7.81391e-07
5.71754e-06
0.0126157
-0.0894343
0.00268422
-0.036064
-0.00898571
0.00249663
-0.000419726
0.0115194
-0.00299006
0.000934258
-0.00577672
8.52573e-07
-1.16429e-05
4.83154e-05
-0.000275899
0.0294954
-3.48821e-07
3.05875e-06
6.27034e-05
-1.86229e-06
0.00480218
1.12715e-06
-0.273923
-0.00978884
-0.0110345
2.00257e-05
-0.000268964
0.205643
1.67255e-05
-8.94538e-07
1.75564e-06
0.000251682
-1.59395e-06
-0.0111049
-0.00210162