/*--------------------------------*- C++ -*----------------------------------*\
| =========                 |                                                 |
| \\      /  F ield         | OpenFOAM: The Open Source CFD Toolbox           |
|  \\    /   O peration     | Version:  v2012                                 |
|   \\  /    A nd           | Website:  www.openfoam.com                      |
|    \\/     M anipulation  |                                                 |
\*---------------------------------------------------------------------------*/
FoamFile
{
    version     2.0;
    format      ascii;
    class       surfaceScalarField;
    location    "150";
    object      ddtCorrDdt0(phi);
}
// * * * * * * * * * * * * * * * * * * * * * * * * * * * * * * * * * * * * * //

dimensions      [0 3 -2 0 0 0 0];
oriented        oriented;


internalField   nonuniform List<scalar> 
20823
(
-0.000878483
0.00236058
-0.00148207
0.00495661
-0.00372964
-0.00122695
2.03828e-05
-4.14636e-06
-1.6222e-05
-4.62994e-06
1.08443e-05
-6.21393e-06
3.92923e-06
-6.86634e-06
2.92946e-06
7.70227e-06
-8.14849e-06
4.39133e-07
-0.00696444
-0.011413
0.00495256
-0.00178613
-0.00316643
6.5674e-06
-1.12035e-05
0.000648908
-0.00517207
0.0045232
0.00194328
-0.00409137
0.00214807
1.99537e-05
-6.53846e-05
4.54481e-05
0.000137873
-0.000136689
-1.19357e-06
-3.82813e-05
0.000176169
6.33722e-06
-1.04129e-05
4.06607e-06
-8.49339e-05
4.81426e-05
3.67695e-05
-2.94627e-05
1.9861e-05
9.61773e-06
-0.00795381
0.0128654
-0.00491163
-3.66515e-05
2.41734e-05
1.24881e-05
-1.45308e-05
-4.56713e-06
1.91025e-05
2.81306e-05
-2.76991e-05
-4.18341e-07
-5.14353e-05
7.14165e-05
-0.000235513
0.000336675
-0.000101159
6.93223e-06
-3.01756e-06
0.0047025
-0.00275921
-1.66212e-05
-2.00211e-05
4.51171e-05
-0.000103878
5.87652e-05
-6.90707e-05
0.000993769
-0.000715658
-0.000278129
-8.74333e-06
-0.000195491
-1.57773e-05
0.000107333
-9.15587e-05
0.00287338
0.00207918
6.04513e-05
7.28003e-05
-0.000133191
0.000115301
-0.000609644
0.00049435
-0.00408105
-0.000801913
0.00488301
-1.45778e-05
1.25368e-06
1.33207e-05
0.000721912
0.000125939
-0.00084783
-0.00853008
0.00917897
-9.96463e-07
3.86471e-07
6.16228e-07
4.51066e-05
-1.38416e-05
-3.12524e-05
-0.00235441
-0.00572612
0.00808055
3.75758e-05
-9.44949e-06
-0.000806769
-0.000100409
0.000907197
1.61201e-05
-9.09397e-06
-7.01374e-06
-0.00376996
0.0023467
0.0014233
-0.000295429
-0.000511338
0.000116348
-0.000146252
2.99192e-05
2.49756e-05
-1.72628e-05
-0.000415467
0.000580178
-0.000164704
-0.00058097
-9.90528e-05
0.000680072
-2.93774e-05
6.20382e-06
2.31482e-05
1.95025e-06
-2.03804e-05
1.84264e-05
0.00263469
-0.00281011
0.000175389
0.000787057
-0.00142986
0.000642781
1.51724e-05
-4.46321e-05
-6.60532e-05
-7.06238e-05
-0.000165532
5.80219e-05
0.000107536
0.0154824
-0.00751794
-0.00796448
-0.000553079
0.000668362
8.54205e-05
-0.000101212
-0.00244762
0.000498391
0.00194923
-0.000781694
0.000200743
-0.000274102
0.000301091
-2.6996e-05
-0.000343902
0.000512449
-0.000168537
5.68231e-06
-1.45772e-05
8.89724e-06
2.34514e-05
3.14556e-05
-5.48998e-05
-0.00186065
0.00098218
7.63303e-05
-7.46581e-05
-1.69749e-06
0.000977321
-7.73142e-05
-0.000900023
-0.000452212
0.000132729
0.000319481
1.28647e-05
-2.41979e-05
1.13354e-05
-1.4981e-06
1.12707e-06
3.60155e-07
0.00014689
-3.05266e-05
-1.25934e-05
-3.65555e-06
1.62386e-05
-2.96516e-06
-6.15512e-05
1.58971e-05
2.95383e-05
-4.54646e-05
1.72702e-05
-9.25602e-06
-8.00553e-06
-0.000216968
-0.000235246
-0.015589
-0.000395067
0.000144571
-0.000206421
6.18491e-05
0.000960675
-0.00070253
-0.000258148
-0.00187076
-0.0137182
0.00206351
0.000571178
3.34747e-06
5.15749e-05
-5.49139e-05
4.03278e-06
-1.88166e-05
1.47841e-05
4.64657e-07
-6.25662e-07
1.41973e-07
0.00041703
-0.00024805
-0.000168982
-0.000888213
0.00167531
3.83646e-05
0.000128035
-0.000166399
-3.73201e-05
2.28032e-05
6.08474e-06
-7.11853e-06
1.02195e-06
0.000665255
-0.00181072
0.00168627
0.000124457
0.000237302
-0.000232714
-4.53557e-06
5.80346e-05
0.000919286
0.0105851
-0.00638436
-0.0042007
-1.86409e-05
-1.07385e-05
5.14409e-08
2.03087e-05
-0.00114777
7.21614e-05
0.0010756
-5.52616e-06
-5.13222e-06
1.06382e-05
-2.53087e-05
4.87644e-05
8.57597e-06
1.64021e-05
0.000663382
-0.000605348
-0.00120809
0.000714236
0.000493857
1.31601e-05
0.000141122
-0.000154269
0.000116418
-0.000221477
0.000105047
-0.00015198
0.000190354
4.87125e-05
-4.53656e-05
-6.60289e-05
0.00014235
-1.13836e-05
9.7139e-06
1.6864e-06
4.31449e-05
-0.000140695
9.75637e-05
-3.26691e-06
1.0572e-06
2.20538e-06
-1.12014e-05
1.52302e-05
-3.42246e-06
0.0109728
-0.0109694
-3.26124e-06
1.21407e-05
5.14052e-06
5.52557e-05
-0.000195134
0.000139911
2.44758e-06
-2.80314e-06
3.55617e-07
0.000226848
1.04916e-05
4.26826e-05
1.77977e-05
9.00176e-06
-5.53273e-06
-3.46349e-06
-0.000121015
1.98866e-05
0.000101147
-0.000126415
0.000182089
-5.56913e-05
-0.000287653
7.65971e-05
0.000211073
-0.000241393
1.62852e-05
0.000225123
-0.000585359
-0.00122535
-1.18451e-06
-1.7436e-05
1.86332e-05
0.00598956
-0.00599299
9.34231e-06
0.000172651
-0.000181984
-8.49833e-06
3.12113e-06
5.36841e-06
0.000141698
5.1994e-06
-1.2992e-05
8.42194e-07
1.21446e-05
-8.48464e-06
6.44703e-06
2.01996e-06
0.000119848
-0.000198368
7.85188e-05
0.000121512
2.01855e-05
-0.000266643
8.68578e-05
0.000179773
-0.000112081
9.55211e-05
1.65476e-05
1.13477e-05
-5.66211e-06
8.84408e-06
-1.73329e-05
0.00263796
-0.00141617
-0.00122179
-1.38002e-06
-0.000198662
0.000200059
0.000194985
-0.000202189
7.22773e-06
-2.80097e-05
-2.77544e-06
3.08003e-05
4.39315e-05
-6.02281e-05
1.62721e-05
0.000971714
2.20334e-05
-0.00306225
-0.000707712
8.65773e-06
3.43443e-07
8.51763e-05
-7.22987e-05
-1.28509e-05
-5.97689e-05
0.00712236
-0.00800859
0.000886245
0.00850523
0.00207985
-0.000252061
0.000250671
1.94006e-05
-6.54901e-06
0.00396718
-0.00109381
1.88664e-05
-1.02733e-05
5.73463e-05
-2.80935e-05
-2.92921e-05
0.00123906
-0.000403019
-0.000836064
-4.4799e-05
3.43043e-05
1.05109e-05
0.000290764
0.000948306
7.98759e-06
-4.47298e-06
-3.53741e-06
-0.000875324
0.00138101
-0.00050567
0.00013255
-8.74716e-05
-7.53314e-05
-0.000255393
0.000330698
5.54988e-05
-4.87911e-05
-6.71358e-06
5.84703e-05
2.27837e-05
-8.12624e-05
-2.98408e-06
-2.51439e-06
5.48876e-06
7.41665e-06
0.000222327
-0.000229773
9.10955e-06
-1.07688e-05
1.65221e-06
-0.00163305
-0.00231585
0.00394892
-4.43364e-05
4.36617e-07
4.39156e-05
-4.10089e-05
-4.3924e-05
-8.50841e-05
-2.70155e-05
-5.78969e-05
-7.47463e-06
7.6436e-05
-4.13946e-05
-3.50275e-05
4.81941e-05
-3.23031e-05
-3.28719e-05
-1.14582e-05
-4.55499e-06
0.000114538
-0.000109993
-0.000134541
2.07171e-05
0.000113847
-9.88201e-05
4.09259e-05
-1.02351e-05
5.41715e-05
0.00065972
-0.00168784
0.00102814
-0.000133399
-1.13869e-06
-6.43447e-05
7.97124e-05
-1.53912e-05
0.000366901
-0.000838777
0.00047188
-1.06004e-05
-7.65813e-07
0.000151352
-0.00018754
3.62016e-05
-8.59223e-05
-0.000164883
0.000250819
6.12102e-06
-1.10076e-05
4.87815e-06
-0.00113461
0.00454795
-0.00341331
-0.000129232
0.000142404
-0.000150682
0.000228012
-7.73532e-05
0.000292089
-0.000256738
-3.53639e-05
0.00350168
0.000465487
-8.78853e-06
1.49198e-05
2.08251e-05
0.000206244
-0.000227085
0.0039638
-0.0087034
0.0047396
-0.000326877
5.27709e-05
0.000192036
-1.86333e-05
-0.000173379
1.61129e-05
-9.5576e-06
-9.82735e-06
3.86033e-06
5.97593e-06
-2.30792e-05
-9.76723e-08
2.32002e-05
0.000165047
0.000127065
-1.16663e-05
8.88976e-06
2.77352e-06
-0.00120093
-0.000244639
-3.1501e-07
5.40081e-05
-0.000175023
-9.93917e-05
-6.61476e-05
6.23566e-05
-2.47912e-05
-0.0109139
-0.0106102
0.0215241
-0.000167731
0.000177078
-9.13141e-05
0.00014934
-2.92218e-05
-0.000237587
0.000266814
-0.000224246
0.000245099
-3.58722e-07
-1.98943e-06
2.35447e-06
6.97183e-05
-0.000945028
-6.22187e-06
2.12645e-05
-1.50351e-05
0.00131271
0.0200246
-0.0213373
-1.56455e-05
1.06874e-06
-0.00134077
0.000326242
0.00101455
4.06059e-05
2.17479e-05
0.000311404
-0.000191743
-0.000119663
0.000134729
0.000176677
-0.000115898
-0.000171745
-2.25119e-06
-4.86916e-06
7.12633e-06
-0.000163943
-0.00105462
0.00121858
-0.000237988
2.47888e-06
-0.000181124
9.88097e-05
8.23156e-05
8.30027e-06
7.81688e-06
-0.000610973
0.000873532
-0.000262572
-7.31529e-06
9.39402e-06
-2.07119e-06
0.000156456
-4.00354e-05
-2.92881e-07
-6.15329e-06
6.44185e-06
3.54659e-06
-1.10193e-06
-0.014569
0.0158817
0.000297916
-0.00038382
0.000131221
-0.000546685
0.000535968
-0.000245795
-0.000290165
2.58729e-05
-1.20532e-05
-1.3818e-05
4.6895e-05
-6.39958e-05
1.71205e-05
-0.000198139
-0.000133921
8.21316e-06
1.51145e-06
-9.72335e-06
-6.21245e-07
-1.23677e-05
-1.60803e-05
0.000578393
-4.24295e-05
0.000295269
-0.000306939
1.16818e-05
-4.52307e-06
8.09703e-05
-0.000213544
0.000133927
7.96085e-05
-0.00260812
0.00177278
0.000835323
7.60122e-07
-8.57249e-06
7.83662e-06
-0.000173947
0.000179808
-5.86375e-06
0.000186787
0.000179373
-0.000366159
-0.000260033
0.000230832
2.08429e-05
-1.25345e-05
-0.00746693
-0.0108207
0.0182876
6.45837e-05
-1.76673e-05
-2.89869e-05
6.71455e-05
-3.81284e-05
0.000235317
2.00753e-05
-0.000255371
-0.000668125
-0.000357625
0.00102573
-6.67906e-06
7.23294e-06
-5.42908e-07
0.00159598
-0.00954976
0.0147036
-0.011806
-0.00289759
-5.3709e-05
-0.00128707
6.84497e-05
-6.85377e-05
1.09523e-07
0.00347775
0.0165468
6.5366e-06
-6.82865e-06
0.000157716
-1.31325e-05
0.0164809
-0.0130031
3.23488e-05
0.000159694
1.2939e-05
-2.5526e-05
-1.06516e-05
0.000255692
-0.000245029
8.89866e-06
7.2346e-06
-0.000133483
0.000123024
1.04642e-05
4.5252e-05
0.000479223
-0.000524467
1.21599e-05
1.37099e-05
-4.2369e-07
-6.87985e-06
-7.32962e-06
-6.17169e-05
-0.000159896
-5.3658e-05
-0.00055408
-0.000863342
0.00141741
-0.000119394
-0.000102096
5.98679e-05
-5.00278e-05
-9.83371e-06
0.0111039
0.000434699
-0.0115386
-5.88657e-05
5.00668e-05
8.74827e-06
0.00476962
-0.00590424
0.00198461
0.00513776
-5.13001e-06
0.000422115
0.00307218
0.0124102
0.000156913
-0.000307613
0.00205261
6.98477e-05
-2.91505e-05
-4.06678e-05
1.87709e-05
-4.67726e-05
-0.000262115
-0.00381891
2.8356e-05
-2.65981e-05
-1.7566e-06
0.000698388
-0.000389191
-0.00030921
0.000429122
-5.86553e-05
-0.000370466
8.79193e-06
0.000339328
0.000359062
0.000177411
-0.000151252
-2.61581e-05
0.000237373
0.000881703
0.00126163
-0.00214332
0.02516
5.36141e-06
1.34473e-05
-1.88185e-05
-0.00257557
0.00185566
0.00071991
0.00409852
0.0123823
-2.3531e-05
-1.15317e-06
2.46612e-05
-0.000125651
0.000492556
0.000248377
4.68875e-05
4.13814e-05
-2.99168e-05
-1.14569e-05
-9.12293e-05
-4.66226e-05
0.000137839
6.51612e-05
-5.68231e-07
-0.00028061
0.00016491
0.000115721
2.24872e-05
-2.52504e-05
-0.000102504
-0.000613133
0.00976381
-0.00566528
5.89522e-06
1.99148e-07
-0.0002321
0.000939217
-0.000707124
-0.00120404
0.00075252
0.000451532
-0.000150934
0.000185336
-3.4401e-05
0.00337721
0.0015794
0.000101198
5.52434e-05
0.000301389
-6.77549e-05
-0.000233647
-0.00106156
-0.00138606
0.00904806
-0.00679062
-0.00225744
0.000901057
-0.00178925
-1.29689e-05
1.83282e-05
0.00095329
-0.000289898
-0.000156918
2.76828e-05
4.15999e-05
-4.84951e-05
6.8974e-06
-0.000854936
-0.000349098
0.00954593
-0.011104
-0.000434541
0.0028153
-0.00238075
-9.85988e-06
6.833e-05
-3.48301e-06
7.30261e-06
-3.82037e-06
0.000139944
-0.000215263
0.00010161
-6.09944e-06
-1.5528e-05
0.000192934
0.000129752
3.56818e-05
-0.000165404
1.30294e-05
2.52508e-05
-3.82795e-05
-0.000177403
3.46168e-06
-2.58581e-05
-8.23749e-05
0.00010826
4.51661e-06
6.06531e-05
3.10762e-05
-1.80546e-05
0.0095564
-0.00361377
-0.00594263
0.00182711
0.00287539
-6.99866e-05
0.00011165
-4.16709e-05
1.78019e-05
-7.40654e-06
-1.03769e-05
0.00487764
-0.00723206
-0.0208915
0.013927
-0.000313015
0.000254358
4.05966e-05
-1.63588e-05
-2.42334e-05
0.000140898
-1.28604e-05
4.34443e-05
-1.84794e-06
9.35253e-06
4.76884e-06
-1.41321e-05
5.7319e-07
-1.55993e-06
4.95788e-06
-2.84763e-05
0.000371991
0.000294606
-0.000666578
0.000789355
-0.000917329
-1.5641e-05
2.49985e-05
0.00572156
0.00404225
-0.000324561
-0.000832493
0.00030591
0.000526595
1.09659e-06
-6.27396e-07
-0.0021065
0.00515064
-0.00304412
0.00637846
-0.000656898
-4.04062e-06
-0.000196906
0.000200952
4.39056e-05
-7.45815e-05
3.06872e-05
0.000204648
-0.000277878
7.32251e-05
0.000568667
-0.00103876
0.000470108
0.000191491
1.31542e-05
9.12207e-06
-9.14329e-06
-1.2178e-06
4.33052e-06
-0.000136054
4.4799e-05
0.0122348
-0.00268884
8.81268e-05
-6.48196e-05
-2.33037e-05
-1.55966e-05
-1.93011e-05
-0.00474801
0.00329387
0.00145413
1.13144e-06
1.46394e-05
-1.5774e-05
-0.000601576
1.60453e-05
0.000585534
-0.00911038
0.00559892
0.00351146
3.50142e-05
-6.40202e-05
0.0122818
-0.00272543
-0.00109696
0.00199804
2.5454e-06
-4.84016e-06
2.28377e-06
0.000121592
-7.84615e-05
-0.000378571
0.00013278
-3.2359e-05
-2.65392e-05
-4.46451e-05
8.27573e-05
-3.81056e-05
-0.000438671
-0.000170004
1.90647e-05
-5.74487e-06
4.95234e-06
7.89021e-07
-0.000861561
0.000931307
0.0105263
0.00417724
0.0151538
-0.00247563
-0.00126702
0.00374264
4.9115e-05
-5.36547e-05
-0.000328954
0.000421909
-9.2955e-05
-2.10517e-05
3.13812e-06
1.79134e-05
0.00115522
0.0200024
-0.0211577
2.12558e-05
4.58794e-05
1.03872e-05
1.83739e-05
-2.8771e-05
-0.000863466
0.00111753
-0.00025405
-0.00372447
-0.00538591
3.63598e-06
-5.87943e-06
-0.00107414
-0.000133754
0.00120789
8.4367e-07
-4.52173e-07
-4.27443e-05
7.77439e-05
5.83105e-06
-0.000247219
4.28429e-05
1.45134e-05
-7.42368e-05
0.000129511
4.28288e-06
2.28381e-06
-6.54505e-06
0.00448808
-0.012006
-0.000485947
3.60801e-05
-7.06731e-05
3.45981e-05
0.00654191
-0.000163463
-1.05017e-05
7.81122e-06
2.72235e-06
-4.51226e-06
-0.000226602
0.000324913
-7.7675e-05
-0.000247233
-0.0215535
0.00768774
0.0138657
1.74943e-05
-3.14442e-05
1.3973e-05
-3.52604e-06
2.02684e-06
8.65267e-06
-4.49254e-07
-8.90979e-06
-0.00129284
0.000218709
6.54671e-06
-2.18633e-07
5.39534e-05
5.48964e-05
-0.000108826
0.000301132
0.000277006
0.00322465
3.83996e-05
6.70944e-06
-0.00018201
0.000234821
-5.27925e-05
-2.27373e-05
2.19471e-05
8.19559e-07
0.00378376
0.00275815
1.95266e-05
-2.16809e-05
2.14668e-06
-0.000138015
6.64798e-05
7.15286e-05
9.70816e-06
8.08979e-06
0.00208467
-0.00101604
-0.00106863
0.00267208
0.013111
-0.0157831
-0.000831097
0.00016297
-0.000170595
-0.000207976
3.24319e-05
8.16909e-06
-1.3138e-05
1.30899e-05
5.52573e-08
-0.000530852
-0.000301633
2.16961e-05
-1.97682e-05
-1.10976e-05
-5.89053e-05
-0.000334235
0.000269015
6.52219e-05
-0.0228798
0.0255519
2.04537e-06
-2.35284e-05
2.14793e-05
0.000233944
6.1852e-05
-0.000336199
0.000382525
-4.63356e-05
-5.81349e-06
-4.01205e-06
-0.013536
-0.000232203
0.0137682
-9.534e-06
9.55007e-06
-0.000106838
-6.90259e-05
0.000175839
-0.0277644
0.0142284
-1.80694e-06
1.35699e-06
4.4853e-07
-4.0118e-06
8.59259e-05
-0.000134098
4.81719e-05
3.25683e-05
-4.64065e-05
-1.91783e-05
-0.00150663
0.00130117
0.0002055
0.000166813
-1.84922e-05
-0.000148317
1.07903e-05
-9.65742e-06
4.23305e-06
-1.69453e-06
-0.00320412
-0.00154388
-2.263e-05
2.25377e-06
0.000408254
-0.000228882
-0.000911716
-6.45221e-05
-7.35024e-05
4.30647e-05
1.09014e-05
0.000115529
0.000147216
-0.000262741
-9.99893e-06
9.33962e-06
6.52596e-07
-0.000307613
-1.18725e-05
6.09875e-05
0.000249951
-0.000310438
6.04748e-05
6.90105e-05
9.78051e-05
-0.000347017
-0.000514528
0.000226486
-0.00108983
-0.000382246
2.17117e-05
0.00036055
-0.000273194
5.57195e-05
0.000217482
2.49426e-07
-1.02626e-05
0.00884145
-5.56671e-06
-0.000299963
-4.39362e-05
-0.00451466
0.00170457
1.16952e-05
-1.04473e-05
4.08446e-05
-0.000106872
4.66273e-05
8.85151e-06
-6.62968e-05
-1.74421e-05
8.37287e-05
-0.00213821
-0.00237645
-0.00516089
0.000691573
0.00446933
-2.89648e-05
0.000207203
-9.16747e-05
3.92136e-05
4.89232e-05
9.42914e-05
0.0319997
-0.0148938
-0.0171059
-9.78481e-05
3.3495e-05
-0.000111609
0.00915968
-5.54273e-06
-0.00222678
0.00250376
0.000121157
-0.00629054
-0.0037804
0.0100709
6.18075e-05
-0.000390755
1.51698e-05
-1.63467e-05
-9.60399e-06
4.07318e-06
0.0064521
-0.00315824
1.28044e-06
-3.08895e-06
0.000130138
-9.26853e-05
-3.74633e-05
-4.31629e-05
-3.23288e-05
7.54905e-05
-1.45816e-05
1.20032e-05
2.56473e-06
-0.000276865
0.00023187
4.49888e-05
-3.25751e-05
9.00506e-05
-0.000249382
8.4208e-05
0.000165166
2.42181e-05
6.09626e-05
-2.27351e-05
-2.63217e-05
4.90438e-05
-0.0100029
0.0334949
-0.023492
0.00739735
0.0137623
-0.0211596
2.93754e-05
-0.00010883
7.94531e-05
0.00369926
-0.0171525
0.0134532
6.20176e-05
-3.26386e-05
6.1466e-05
-4.02061e-05
-0.000677631
0.000780996
-0.000103365
6.71864e-05
-2.32613e-05
0.000398383
-0.000387309
-1.10489e-05
3.13461e-06
4.65227e-06
-7.79318e-06
-7.42827e-06
-5.88665e-05
5.43586e-05
-6.68854e-05
1.25363e-05
0.000236354
-6.9189e-05
-0.000167174
9.43144e-05
-0.000342371
-6.97676e-05
0.000441754
9.50571e-05
5.37601e-05
-0.000148815
-7.02198e-07
4.98319e-06
-3.38473e-05
-8.5127e-05
0.000118972
-0.000156918
-5.12203e-05
0.000208154
4.46494e-06
-4.78844e-06
3.23877e-07
-3.98878e-06
1.01463e-06
-0.000138746
0.000134191
-0.00252
0.0015705
0.000949515
-0.000266765
0.000312
1.30644e-06
-4.78751e-06
0.000168928
-0.000846575
0.0142482
-0.0105489
3.3849e-05
3.46067e-05
0.00212725
0.0106311
-0.0127583
-0.000163462
0.000153225
1.02339e-05
0.000221827
-2.68424e-05
0.00178305
-0.00103055
0.000875514
-0.00068548
-0.000190026
-4.66908e-06
0.000177328
-6.57722e-06
-1.91334e-06
2.80271e-05
-0.00462445
-0.0024532
0.00707768
-0.000376039
9.54266e-05
0.000119286
-2.42278e-05
9.30908e-05
-0.000275082
-4.44435e-05
6.19521e-05
-0.000333795
0.00032316
-0.000634582
0.000728147
-9.35478e-05
-4.66406e-05
1.43534e-05
-1.79273e-05
3.56106e-06
-2.56991e-05
5.2723e-06
2.04334e-05
4.26557e-05
4.64397e-06
-4.73013e-05
-1.20327e-05
1.11705e-05
0.000986935
-0.00346256
-0.000162529
5.07371e-07
-2.10728e-05
2.31305e-05
3.31855e-05
-0.000235349
2.32531e-05
-0.000134722
0.000111475
0.000138021
0.000253253
-0.000391273
4.75777e-07
-0.0060446
0.000883684
-1.23897e-05
1.07978e-05
1.58699e-06
0.0029149
0.000180878
-0.000185535
-4.5415e-06
-1.10248e-05
0.000277595
-2.19019e-05
3.3175e-05
9.4852e-06
0.000162584
-5.43165e-05
-0.000108254
-0.000397428
0.000119552
-1.30102e-05
2.33923e-05
6.13739e-05
-4.85425e-05
-1.28308e-05
-0.000151544
-0.000277044
0.00042861
6.34084e-05
8.33553e-05
-0.000146751
0.000272293
-0.00014108
1.01807e-05
-3.40619e-05
2.38536e-05
0.000235393
-0.000458181
0.000222786
-0.00317942
-0.000550215
-2.56556e-05
1.98969e-05
-7.84982e-06
-8.39426e-06
1.62524e-05
0.00374441
-0.00166502
-0.00207935
-7.61789e-05
0.000145807
-6.96092e-05
-1.55369e-05
3.14461e-06
1.72788e-06
-4.54106e-06
0.000106833
-4.35426e-05
-6.32779e-05
4.24522e-06
-1.2089e-05
0.000254677
0.000143706
-8.19219e-06
-1.77059e-06
9.95676e-06
-5.81063e-05
0.00168451
9.85357e-05
0.0312412
-0.029725
-0.00151614
-4.93684e-05
-9.50809e-06
5.88654e-05
-3.63335e-05
-0.000126627
0.000162967
0.00295026
-0.00133234
-0.00161789
1.10773e-05
8.38609e-05
-9.4928e-05
3.45217e-05
6.8962e-05
-0.000103483
-0.000792387
0.0150406
-0.000600325
-0.00402412
0.000878326
0.00146396
-0.00234228
0.000106182
-4.27708e-05
-0.000227466
7.05521e-05
-0.0079613
0.0392025
-2.40791e-05
6.64588e-06
1.20455e-05
5.10253e-06
-2.17197e-05
-0.000532695
0.000360218
0.000172481
-1.18777e-05
-0.000112955
0.000124831
-0.000115003
-1.83935e-05
-1.41037e-05
1.26059e-05
1.50677e-06
0.000200919
-0.000124313
-8.76617e-06
0.000162324
-0.000572997
0.000410676
6.35395e-06
2.7426e-06
0.00726478
-0.00805717
-0.000224143
0.000749366
-0.000525195
-0.000786297
-0.00173371
-0.000168071
9.78901e-05
7.02077e-05
-2.26081e-05
1.09103e-05
1.16986e-05
0.00142831
-0.00150563
-1.22392e-05
-1.03613e-05
-0.000122463
-8.3967e-05
0.000142904
-0.000159264
1.63749e-05
0.0135176
-0.0248091
0.0112915
-6.06935e-06
6.70005e-06
-6.01747e-07
3.76557e-05
0.00012493
0.00025371
1.85571e-05
4.42798e-05
1.70878e-05
0.000198377
-6.82226e-05
-2.71854e-06
-2.00089e-05
0.00192671
-8.58756e-05
-0.000168172
0.000254053
-0.000100713
-5.48261e-05
0.000155514
5.7853e-05
6.37396e-05
7.53668e-05
-8.78119e-06
3.64705e-06
1.10715e-05
0.000535598
-0.000797937
0.000262332
-8.61311e-05
4.16477e-05
4.45033e-05
-0.000926106
-0.00164949
7.68814e-05
-8.0534e-05
-7.50525e-05
5.26664e-05
-0.00180277
0.00175012
-0.00826605
0.0103933
-1.8689e-05
1.88457e-05
-1.48052e-07
-8.68242e-06
-4.87741e-07
9.16558e-06
0.00215274
-0.0025873
-9.80167e-05
-1.08208e-05
-8.37519e-07
4.84317e-07
3.85484e-05
0.000479631
-0.000518181
0.0208511
-0.00733352
-0.000281879
-5.00218e-05
5.05834e-05
-3.43357e-05
4.22887e-05
-0.000266547
0.00117367
-0.000939984
-0.000233678
0.0043018
-0.00510369
0.00050242
0.000543305
-0.0010457
-0.000269304
0.000307862
0.00173392
-0.000560249
0.00609427
0.00677116
0.00345237
-0.00492828
0.00147593
0.000121657
2.12704e-05
2.42907e-05
-1.30682e-05
-5.15156e-06
-2.28952e-06
7.43693e-06
-0.00144504
0.00232675
0.000849947
0.00289441
-6.33567e-07
-3.37264e-06
4.01231e-06
0.000222529
0.00292311
0.00818081
3.61232e-06
4.37278e-06
0.00136788
-0.000403405
-0.00110321
0.000271957
2.67818e-06
-3.30405e-06
0.000181508
-7.46746e-05
3.89218e-05
-0.000139652
5.52104e-05
-7.29946e-05
-0.00173743
0.00252983
-0.000792385
0.000259776
-2.81135e-05
-0.000105343
0.00581397
-0.00383448
-0.00197947
-2.22022e-05
-0.000312027
0.000139875
-3.57181e-06
-0.000136306
6.42943e-06
-0.000201538
3.02941e-05
-1.82201e-05
-1.20778e-05
3.97176e-05
0.000517845
-0.000278701
-0.000239153
0.00185503
-0.00316348
0.00130844
-1.1004e-05
7.99731e-05
-1.29653e-05
-2.94907e-05
4.24578e-05
3.50042e-05
-3.07384e-05
-4.24457e-06
5.72629e-05
-3.66965e-05
-2.05785e-05
-2.58836e-06
7.74689e-06
-5.14504e-06
-0.0124002
-0.019531
0.0319312
0.000624982
-0.000557532
-6.74801e-05
0.00133279
-0.00128013
-0.000241385
7.16185e-05
0.000169734
4.40368e-06
-2.40934e-05
1.80871e-05
6.02223e-06
-1.97965e-05
1.27959e-05
7.02507e-06
0.000263432
-0.000221134
9.29088e-05
0.000232001
0.000119511
0.000181878
-5.48371e-06
-1.63779e-06
-9.14127e-06
-1.50676e-05
-3.36322e-05
5.92983e-06
-0.000781023
0.00104036
-0.00134933
0.00030896
-8.50912e-05
-8.29746e-05
-1.11048e-05
-8.68494e-06
0.00217946
0.00077076
5.53447e-06
-4.47839e-06
-0.000647478
-0.000115799
0.000105033
-0.000171065
-0.000165138
6.8515e-07
8.20291e-06
-8.89401e-06
-3.96533e-06
-1.01207e-05
-0.000278162
0.000119767
0.000158384
-0.0013955
-0.000284623
0.00168012
0.000808329
0.000613023
-0.00142133
-2.43031e-05
-1.42226e-06
0.000757517
-0.000989624
0.00633185
-0.0311409
3.27458e-06
-6.01558e-06
2.75204e-06
-0.000602465
0.000179153
0.00167652
-0.000902441
0.000711311
0.000191119
2.13524e-05
-5.6701e-05
3.53568e-05
0.000711217
8.7696e-05
-5.21939e-05
8.01774e-05
-0.000104249
2.40737e-05
-8.1752e-05
6.88055e-05
1.29263e-05
0.000364538
-5.7876e-06
-1.88266e-05
2.46118e-05
-0.000141695
0.000129816
-0.00126011
0.00252173
-0.00255443
0.00176814
-9.61397e-05
0.000212745
-0.000116599
-1.5687e-06
6.66368e-05
-4.18181e-05
-2.48324e-05
-0.000486714
0.000262574
0.000135135
4.73955e-06
-1.10789e-05
1.19171e-05
0.00580083
1.31333e-05
-2.84795e-05
-3.58645e-05
3.60041e-05
-4.55674e-06
0.00557083
-0.0038267
-0.00174414
-0.00649597
-0.000126675
-0.000409517
0.000536204
6.87183e-05
-0.000164855
-1.42707e-06
4.55691e-06
6.8234e-05
4.65139e-05
-0.000114743
9.40942e-06
1.23289e-06
-4.42404e-05
0.000137207
-0.000171542
3.43433e-05
9.17937e-06
-3.02649e-05
0.000476992
-0.000481028
-2.03778e-05
-0.0157967
0.00518651
-1.85467e-05
8.87247e-06
9.6697e-06
0.000217503
-0.000140619
-7.68679e-05
0.000369275
-0.000471758
0.00443933
-0.00308525
0.00219615
0.000889107
-3.52352e-05
1.21722e-05
1.40885e-05
2.09278e-05
2.40986e-05
1.72809e-05
-1.18878e-05
9.20713e-05
9.34106e-07
8.17146e-06
5.6437e-06
-2.63616e-05
2.90674e-05
-2.72628e-06
-6.86164e-05
-1.79242e-05
2.80248e-05
-1.00895e-05
-0.00157488
-1.11468e-05
-7.37688e-06
-0.00139128
0.000243504
-0.0026126
0.00134557
-4.92585e-05
-0.000777355
0.000826618
0.000592676
0.00149198
0.001223
-0.00115083
0.00028658
-6.62187e-05
-0.000220359
-4.85882e-06
-0.00274275
-0.0034338
0.00617652
6.70895e-05
3.8043e-05
-0.000105112
0.000280309
-0.00043182
6.54446e-05
-9.12741e-05
0.000124981
6.03495e-05
3.73199e-05
-4.68304e-05
-0.00020311
-0.00227595
0.00125992
5.04111e-05
-8.67396e-05
6.37255e-06
-7.72626e-07
-5.60218e-06
-1.30591e-05
-1.50443e-05
0.00070511
-8.01362e-05
3.27684e-05
3.38697e-05
-1.65572e-05
-4.82515e-05
-0.000110033
6.81015e-06
5.49738e-06
-1.23051e-05
0.000121113
-9.73922e-05
-2.37134e-05
8.69251e-05
5.27071e-05
-0.000139626
-3.30664e-05
0.000195401
-1.78641e-05
7.22146e-05
-0.000445859
-0.000382481
0.000828337
-0.0047644
-0.00393901
1.87952e-05
-6.34417e-05
0.00417938
-0.00637798
0.0021986
9.34375e-06
-1.59807e-05
6.64572e-06
4.47904e-05
-7.83986e-06
-3.69561e-05
2.05927e-05
-1.98968e-05
-0.0139272
-0.0076263
-0.000484513
-1.04214e-05
2.47723e-05
3.67107e-05
-0.000115206
5.6778e-05
5.84284e-05
-0.00274458
0.00013198
-6.79203e-05
4.05439e-05
2.73736e-05
0.00194798
-0.00368541
0.0054612
-8.52526e-05
0.000107727
-2.24636e-05
-3.79562e-06
-9.35035e-06
0.00442597
-0.00653245
-9.23686e-05
4.12773e-05
5.11017e-05
-0.000751165
6.56786e-05
-9.20015e-05
0.000170508
-2.81804e-06
8.53222e-07
0.000522724
0.000158105
-0.000680816
-3.06386e-07
-1.95087e-07
5.03074e-07
9.72304e-06
-3.05962e-07
0.00156886
0.00124642
-4.76517e-05
6.64209e-05
0.000136123
8.13721e-05
3.8348e-05
9.50565e-06
-4.78478e-05
-3.38336e-06
5.67051e-06
-2.2818e-06
-1.51387e-05
3.9324e-05
-3.55245e-05
-3.23922e-05
-6.79024e-05
5.13534e-05
-2.87599e-06
0.000228254
-4.45167e-05
-4.56825e-06
-1.49948e-06
-3.54692e-06
0.00029013
3.46728e-05
2.25899e-05
0.000136633
-4.96973e-05
-8.90059e-05
5.2739e-05
3.62726e-05
9.13626e-05
-5.41101e-05
-3.72767e-05
-6.06108e-05
0.0163828
-0.0152276
-4.52809e-06
-7.51023e-06
0.000157699
0.000178984
9.43341e-06
-9.45757e-05
-0.00244262
-0.00718725
-1.28423e-05
4.89193e-05
-0.000357591
-0.00024923
0.000606828
-6.15746e-05
-1.30053e-05
-0.0014152
2.39067e-05
6.98577e-06
2.27925e-05
-2.97753e-05
-5.63283e-06
5.21526e-06
1.08694e-05
1.50319e-06
-1.23789e-05
0.000444461
-0.000198358
-0.000246166
-2.33076e-05
4.42566e-05
-2.09496e-05
-8.5272e-05
-9.42957e-05
0.000179618
0.000106308
-0.000383336
-8.55511e-05
0.000236668
-0.000151126
0.000159611
-6.75989e-05
-9.20092e-05
-0.00111166
6.65694e-05
0.0010451
3.87007e-06
2.50182e-06
-6.30575e-05
3.49217e-05
7.42603e-05
-6.31878e-05
-8.93634e-07
-7.14032e-05
1.73728e-05
3.07576e-05
-0.000134174
1.91789e-05
3.01691e-06
-1.40181e-05
5.29284e-07
2.54443e-05
2.72765e-05
2.15693e-05
-2.03401e-05
-1.2179e-06
-4.83963e-05
3.60957e-06
4.47917e-05
1.58817e-06
1.4118e-06
-2.98065e-06
7.40955e-05
-0.000112389
0.000177923
2.03699e-05
-9.87001e-06
-1.05068e-05
-0.000153593
-0.000552157
0.00070575
9.80453e-07
1.96282e-05
-0.000207432
4.25433e-05
1.58795e-05
-5.10068e-06
2.0401e-05
-6.14751e-05
4.10801e-05
-4.132e-05
0.000144353
4.29825e-05
-0.000187319
0.00169394
3.99794e-05
-1.61452e-05
3.47313e-06
1.26574e-05
-3.82382e-06
6.1384e-06
-2.32005e-06
-0.00593326
-0.0199833
0.0259165
4.21013e-05
0.000166989
-0.000209088
0.000185499
-0.000101297
9.43697e-06
1.41254e-05
2.25997e-05
-3.67428e-05
-0.000432289
0.000383042
0.0020257
-0.00831623
-0.000216361
-0.000170935
0.000164487
-0.000232236
-0.000948593
0.000338961
0.000699136
0.000671294
-0.00137042
0.000269329
-0.000122109
0.020948
-0.0309509
0.000167769
-8.25769e-05
-8.51804e-05
-3.05677e-06
-2.45368e-05
2.75869e-05
-3.14209e-05
0.000275613
-0.00024415
-0.0155517
0.00131344
0.0142383
-1.06021e-05
4.89398e-05
0.00603654
-0.0157072
0.00967065
-0.000291462
1.32998e-05
0.00271765
-0.00186772
2.16052e-05
0.00041475
-0.000436342
-0.00233548
-0.00147384
0.00332886
8.35481e-06
-1.45672e-05
-2.90196e-05
5.88519e-06
2.31443e-05
0.0224201
-0.0310492
0.008629
1.17079e-05
8.69092e-06
0.000141182
-7.40779e-05
-0.000151731
6.64707e-05
0.000672836
-0.000170413
-3.23126e-05
2.92513e-05
-0.000245129
4.82196e-05
0.000114708
-0.000165935
3.21618e-05
1.05479e-05
0.000140682
-0.000174717
3.39966e-05
0.00018567
-0.000181696
-3.95954e-06
5.64316e-05
-1.91205e-05
0.00019192
-0.000528342
-0.00267576
0.000150478
0.000361978
-0.000217963
-0.00043453
0.000652512
0.000794426
0.000291421
-0.00108584
-0.000497069
0.000370403
-3.9768e-05
0.000518996
2.85479e-05
6.06355e-05
-8.9184e-05
1.39009e-05
1.63882e-05
2.81549e-05
1.02571e-05
8.37027e-06
-2.20732e-05
1.37066e-05
0.000167937
0.000681611
-0.000849515
-6.17666e-05
-1.99873e-05
-0.00106198
0.0006483
0.000161384
-0.000135004
-2.63769e-05
8.2635e-06
-6.18051e-06
-2.07732e-05
2.69677e-05
-5.28516e-06
4.57991e-07
9.09582e-06
-9.25207e-05
-0.000367367
0.00045991
0.000245567
-0.000189855
-4.05223e-05
-1.15008e-05
-5.24834e-05
5.3421e-05
3.79341e-05
7.12451e-06
-4.24997e-05
3.53728e-05
0.000465579
-0.000558098
4.74831e-06
-4.65425e-05
4.1789e-05
-3.07208e-05
1.7244e-05
3.45725e-06
-2.06978e-05
-0.0187572
0.0250891
0.0315264
-0.024129
-0.0151489
-0.000402795
0.00198306
-0.000435759
0.000573787
-3.01945e-06
-6.50886e-06
1.77917e-05
1.8214e-05
2.55992e-06
-1.12469e-05
7.29464e-05
-4.85049e-05
-2.44346e-05
1.88799e-05
-1.29615e-05
-5.89375e-06
0.000249677
-3.07552e-05
-0.000218922
4.90839e-06
-0.000370306
0.000145951
0.000224344
-0.00558802
-0.00242056
4.45814e-05
-0.000742798
0.000698219
-6.71161e-05
-0.000240242
0.00030735
-0.000336116
0.000284394
5.17244e-05
8.43103e-05
-0.000151441
-0.00170275
0.00181453
-0.000111778
1.19099e-05
3.84666e-05
4.43075e-05
-0.000170583
5.94688e-07
-1.5738e-05
1.84011e-06
-1.09216e-05
1.69733e-05
7.49001e-06
-2.4462e-05
-9.09582e-06
1.55176e-06
2.02499e-05
-2.18198e-05
3.04243e-05
-1.38845e-05
-1.65368e-05
-0.000118264
0.000110492
-0.000151187
4.07244e-05
-0.00159853
0.00167993
-8.14392e-05
-1.17169e-05
-2.85012e-06
1.32336e-06
-8.00187e-06
0.00607526
8.26379e-06
0.000149455
-0.000305888
0.000200649
0.000105206
-6.23444e-05
0.000183468
2.92775e-06
0.000189034
-2.76509e-05
5.80415e-05
1.88363e-05
1.75074e-05
1.29198e-05
-0.00037768
0.000180854
0.000196825
-0.000132108
1.82287e-05
-1.26913e-06
-4.53122e-05
-3.08562e-06
-0.000115323
0.000280244
-0.000360642
0.000248174
0.000112453
-0.000197988
4.60081e-05
0.00139315
0.0306066
4.62737e-05
2.08966e-05
-0.000259969
0.000437167
-0.000177196
2.28368e-05
6.30992e-05
-8.77364e-05
7.50208e-05
1.26758e-05
0.00229325
0.00144945
-0.000186128
-0.00022945
-0.000106649