/*--------------------------------*- C++ -*----------------------------------*\
| =========                 |                                                 |
| \\      /  F ield         | OpenFOAM: The Open Source CFD Toolbox           |
|  \\    /   O peration     | Version:  v2012                                 |
|   \\  /    A nd           | Website:  www.openfoam.com                      |
|    \\/     M anipulation  |                                                 |
\*---------------------------------------------------------------------------*/
FoamFile
{
    version     2.0;
    format      ascii;
    class       volScalarField;
    location    "150";
    object      omega_0;
}
// * * * * * * * * * * * * * * * * * * * * * * * * * * * * * * * * * * * * * //

dimensions      [0 0 -1 0 0 0 0];


internalField   nonuniform List<scalar> 
14033
(
0.158618
1.38642
0.0220559
0.0209824
0.0195478
0.0213089
0.317616
0.0309427
0.0209767
2.54758
0.0144465
0.0382874
0.0222337
0.0221456
0.0194999
0.0252341
0.0218343
3.00246
0.0214907
0.0219373
0.0238848
0.0381257
0.0597196
0.0195409
0.00711109
0.0214592
0.0755905
0.0708951
0.15899
0.133501
0.0237095
0.0297326
0.0939783
0.0368175
0.160919
0.0225215
2.74509
2.52939
0.0196474
0.0218295
2.27001
0.023769
0.0210761
0.020232
0.0277583
0.0209484
3.24128
0.0213038
0.0870469
2.57328
0.0214506
0.0226059
4.15811
2.20353
0.0218386
0.022237
0.171775
2.62554
0.037902
0.0235879
0.0149868
2.63492
0.0407265
0.0211078
0.0209544
0.0203916
0.141456
0.0633315
0.0233044
0.0240937
0.0208295
0.0213192
3.21773
0.0218027
0.0240544
0.0201869
0.0213884
0.0243977
1.92866
0.119249
0.0218479
2.14712
4.07064
0.0212263
0.0204151
0.0216966
0.0231588
2.33074
3.40475
0.0219121
0.0220985
0.0217101
0.0247147
0.00945178
0.0235239
0.0746429
0.0214665
0.02249
2.68385
0.0214527
0.0204164
0.0212925
0.0230361
0.0227069
3.26811
0.0812222
3.44273
0.0212646
0.0609944
0.0225249
3.19472
0.0238056
0.0209012
0.076703
0.0236168
0.0213854
0.135609
0.0196287
0.117249
0.0927402
0.0210958
0.0329025
1.8462
0.0228847
0.319868
0.0246707
0.0203025
0.0290364
4.12429
0.0213404
3.19115
0.0205953
0.0195739
2.97803
3.21646
0.0237593
0.0758619
0.021408
0.0213465
0.0255077
0.0272934
0.149195
0.0476293
0.0257257
0.147666
0.0267504
0.0210843
0.0390004
2.73557
1.20859
0.0773606
0.0268239
0.0214235
0.0288919
0.0212864
2.92181
0.0240115
0.0205913
0.0233049
0.0195185
0.0254323
0.0776921
2.85699
0.0207411
0.025463
0.0218414
0.0262775
0.0286554
5.58995
0.0213897
0.0253805
0.0776759
0.0385304
23.7477
0.0201785
0.0213671
0.0940964
4.42418
0.0376061
0.0256923
0.111138
6.53209
0.0232186
0.0208451
0.022388
3.36889
2.9245
0.0213609
5.27636
3.31615
0.195966
0.0255161
0.0289784
0.0213673
0.235967
2.14941
0.039836
3.79458
0.0209642
0.0225565
0.0217946
0.0251956
0.0213008
0.116728
0.026705
0.0215144
0.0322596
0.17798
0.0237803
0.117713
5.61084
0.170571
0.223245
0.150825
0.0196354
0.0251409
0.0212764
0.358715
0.0232048
0.0461042
0.0236273
0.020951
0.0208757
0.0228608
0.0212735
0.0197958
0.0560108
0.0250166
0.0209516
0.0202089
0.0201784
0.0779896
0.0213965
0.0196427
0.360938
2.91714
0.0867713
0.0201776
0.0209179
0.0208404
1.53888
0.0239889
0.0211333
0.0203069
0.0252821
0.0201215
3.63035
22.2292
0.0225524
0.0182087
0.0212684
6.67517
0.0201488
0.224333
0.0209397
0.889317
0.0208395
0.0215503
0.020133
0.138705
0.0213596
2.76378
0.327824
0.0467102
0.0229324
0.357801
0.0213859
0.114613
0.349382
3.56472
0.0218177
2.95777
0.0201169
0.0322398
0.141933
0.0209074
0.0202194
0.0722998
0.0225797
0.172684
0.0867083
0.0207624
0.0634962
0.0245581
5.41373
1.65964
3.2364
0.0200865
2.45491
0.19738
0.0253515
0.03731
0.0451505
0.0702774
0.0213495
0.0206644
0.0210401
0.0209287
0.0208832
0.022676
0.0209374
0.0641488
0.947902
0.0219752
0.0437603
0.328599
0.0214785
0.0214312
3.64495
0.0217287
0.0696951
0.0208193
0.084088
0.0491421
0.153649
0.314417
0.0229282
0.0311502
0.0270048
7.8257
1.33288
0.0736004
0.0252119
0.0138245
0.0730075
2.44305
0.0220132
0.0227359
3.34549
0.040674
0.0270292
1.83764
3.25687
0.0253232
0.0196317
2.92803
0.0785911
0.0226904
3.02251
0.0217729
4.62353
0.0531981
0.0208149
0.0217496
0.015185
0.0096418
0.0294315
0.0212693
2.23065
0.317572
0.02121
0.0214771
3.39287
0.0423073
0.0215928
0.0196428
0.0214911
2.76518
0.020075
0.0229821
0.0216441
0.253035
1.6211
0.0246588
0.0224603
0.0508245
0.230281
0.0194079
0.0221974
0.0205786
0.0215514
0.0205965
0.0234808
0.0213403
0.0677409
2.03818
0.0221886
0.022459
1.10383
0.0197718
0.021286
0.0609749
0.0215508
0.0299287
2.48038
0.0211119
3.24154
0.0204552
0.0247852
0.0530793
0.021404
4.1032
0.0223541
0.0251101
0.259172
1.67554
0.106808
9.30598
0.0716419
0.0213904
0.514916
0.0216015
0.0202948
0.02023
0.0568858
0.0212746
0.0320691
0.0196396
0.0215909
1.05841
2.89312
0.132113
0.0224829
2.64259
0.0199855
0.0216675
0.126884
0.0215042
0.0213665
2.17246
0.0283276
0.117927
0.0299493
0.0214746
0.0215072
0.0213938
0.033013
0.0195073
0.0332886
0.0231149
0.0289748
0.021781
0.0244553
0.0213613
0.101153
0.0214865
0.0229064
0.0212594
0.0759092
0.33319
0.146911
0.0204216
0.0214589
0.0227536
0.0252231
0.0213912
0.0291069
2.67716
0.332929
0.0211213
3.68666
0.020265
0.022758
0.382417
0.0236234
0.151274
0.560787
0.0211543
0.019485
0.0288954
0.0218297
3.18033
0.149164
0.156296
0.0197649
0.0211039
0.579974
0.0232913
0.0201629
0.189659
0.0230382
0.0338599
0.0213441
0.0214459
0.0190656
6.52568
0.0228678
0.148556
0.0249431
0.76501
0.0219019
3.58483
0.0214383
2.24168
3.33608
0.0209707
6.00538
0.0214012
0.0585234
0.0207361
0.0215717
6.23725
4.89726
0.038084
0.0212796
0.0221464
0.0763762
1.32562
0.0233768
0.0767844
0.0214957
0.0283755
0.162611
0.237245
0.0666491
0.0203173
0.0209863
1.60712
0.0211473
0.0635914
0.0200222
0.0209346
3.61582
0.0204759
0.0228313
0.0234548
0.040516
0.0201541
0.849804
0.854365
0.020482
0.0911834
0.0204368
0.0216003
0.0226464
0.0221658
0.0243236
0.0214208
0.0215567
0.0216327
0.0257712
0.0229749
2.80818
0.021275
0.0229727
0.0218922
0.0212776
0.0212742
0.0211456
0.0980302
0.0501208
0.103459
0.0196419
0.0229984
0.0560339
0.0228988
0.0802521
0.0205263
0.219183
0.0279654
0.0215391
3.75237
0.0195768
0.0205886
0.0292128
0.0867901
0.0212329
0.0246824
0.0294261
2.9216
0.0330394
3.35958
0.0270199
0.0218256
0.0247665
0.021447
0.113282
0.0236809
0.0219532
0.0210993
0.120177
2.98442
1.16325
0.0213204
5.12047
0.021111
5.80691
3.46751
0.0223723
2.96033
0.0247674
0.0227677
0.0206695
0.0202786
0.020228
0.114663
0.0222459
0.0816108
0.0201862
0.0231999
1.26838
0.0223432
0.0224137
0.0634351
0.0219568
0.0211025
0.0196193
2.44934
0.0229418
0.024148
0.0212817
0.020993
0.0280685
0.86008
0.0234646
16.7851
2.44271
3.02653
0.0543434
0.0436911
0.0286482
0.0310441
0.0221603
0.0213416
0.842571
0.0202941
0.0199025
0.0214157
3.34575
5.96392
4.9339
0.0210975
0.0227031
0.0236373
0.0201017
0.0281248
0.0256525
0.0453984
0.0507252
0.0317359
0.0199869
0.0229725
0.020085
0.119117
0.0226037
1.74514
0.0196473
0.022662
0.0777821
0.0202112
0.0618273
0.0213656
0.0183169
0.0757381
0.0815463
3.23715
0.0560394
0.0216624
0.0207573
0.0241905
0.0243122
0.0460748
0.0217728
0.0231634
0.0294554
0.0975667
0.0214137
0.0211762
3.86661
0.0204929
0.019629
0.0205275
1.35749
1.47195
0.021803
0.153317
0.00693507
0.0727323
0.02326
0.0206312
0.0131272
2.97167
0.0807275
0.0225353
0.0215292
0.0212831
0.0210957
0.085039
0.0573626
0.0215283
0.150854
0.0642835
0.0195315
0.1051
0.12854
0.0213229
0.0215361
1.86916
0.0792437
0.0205136
3.65754
0.0385321
2.89581
0.0313396
0.0392813
2.81773
5.45698
0.136326
0.0205399
0.0201785
3.28933
0.0406594
0.0520889
0.0218545
0.0227964
0.0216553
0.0212871
0.810568
0.0268111
0.0286246
0.208758
0.0212655
0.0219709
0.0205012
0.146582
0.0284336
0.0248422
0.0224586
0.021028
0.0239173
0.0143419
0.0899508
0.0313133
0.0205001
2.41021
0.0228153
0.0963428
0.0289509
0.0196875
0.0214258
0.0212573
0.1243
0.0189411
0.0355244
0.0218535
0.0312623
2.0992
0.0211313
3.01859
0.0442304
2.75214
0.0228722
0.018804
2.09355
4.2456
0.0217646
0.0225164
0.0200493
4.33704
0.399937
0.0473217
0.0206049
0.0211231
0.021857
0.0440188
6.86031
0.0211624
0.0552557
3.60912
2.91821
0.0203632
0.0759762
0.0700071
0.0254577
0.0206169
0.0214223
3.05575
0.0213356
0.0218562
0.0477788
0.0210936
0.019253
0.0254731
0.0347997
0.0242962
0.0268219
0.129812
0.0921042
0.00862053
0.0218876
0.0228075
0.0217008
6.61361
0.0237826
0.0211021
0.0202525
3.02684
0.020532
0.0292975
0.0239401
2.66282
0.10893
0.0247805
0.080079
2.67385
0.0229452
0.0884699
4.34245
0.105984
0.120079
0.0537313
6.58536
0.0233213
0.139832
0.0753862
20.4021
0.0211584
2.99395
0.027062
0.0218194
0.0222499
0.0218893
0.0213814
0.0436623
0.0224781
0.0201705
0.0216373
0.0507715
2.02417
0.0552942
0.0100871
0.0223129
0.0205704
0.0214212
0.213169
0.0347873
0.0266906
0.0204368
0.022753
0.0954957
0.0201622
0.0402825
5.60001
0.0211101
0.0224322
0.0575654
2.93673
0.0210797
2.96849
0.0196331
0.0240801
0.0196177
0.0216756
2.64991
0.0439449
0.0272254
0.0217865
0.0209248
0.0215235
0.0201804
0.0222418
0.0210697
0.022694
2.21523
0.019636
0.0229814
0.0216499
0.0224038
0.0200705
0.0593893
0.0215901
0.538041
0.0214449
0.0604679
0.0218315
0.213432
0.0216305
0.0672774
0.0222493
2.66925
0.0219799
0.020248
0.0214032
1.98905
0.0218295
0.0274066
0.110673
2.83022
1.67902
0.14449
0.0211494
0.0305233
3.00601
0.0383092
0.025236
7.59863
0.02136
0.0196248
0.0201629
0.0218337
0.0214943
0.02416
0.0213869
0.0220506
0.0330646
0.0213519
0.0243217
0.0214068
2.8888
0.0197526
0.0215553
3.58647
5.74592
0.0139271
0.02146
0.0195588
1.3087
3.48784
0.023404
0.0214125
0.0215698
0.0236649
0.241187
0.024579
0.0254396
0.0357918
0.0205535
0.0213806
0.84501
0.0220725
0.0200383
0.217337
0.0824415
0.021758
0.396522
0.127507
0.0526292
0.0228628
0.00750423
0.0406859
0.0216627
0.0216466
1.38837
0.0215299
0.111188
0.0211563
0.0227401
0.0200412
0.0195897
0.0212018
0.0866533
0.06932
5.10162
0.0231644
0.0247481
0.348474
0.0212514
0.0260939
0.0762417
0.0253987
0.193616
0.0335811
0.0205395
0.0217492
0.0197927
1.77943
0.0217056
0.0197788
2.7559
0.0208391
6.68415
0.0200452
0.0237153
0.0237855
0.0206101
3.59115
2.88768
0.0217567
0.0208552
0.0580193
0.0207302
0.0208951
0.0206649
0.0200479
0.0211094
2.27532
0.860677
0.023285
3.65935
1.11135
0.0213991
0.0222947
0.020368
0.021178
0.0217575
0.0214416
0.0428624
0.0214288
0.0236411
1.39606
0.0249667
0.0217995
0.0216785
0.0216727
0.022111
0.0214143
0.0509576
6.7318
0.0217305
0.0205346
0.020546
0.0237844
0.021336
0.0199128
0.0292245
2.44629
0.984965
0.0210928
0.0211214
0.373844
0.118801
0.12502
0.0445758
0.0214777
0.0209048
0.0217457
0.0199053
0.0234664
2.61551
0.0205378
0.0241752
0.0772236
0.0695135
3.45392
1.32375
0.0220841
0.0244443
0.0296087
0.0215389
0.110772
0.12892
0.0216806
0.0947918
0.0211153
0.0205835
1.4727
2.43917
0.0201229
0.0269631
0.0213353
0.0676769
0.0207748
0.0240424
0.0220696
0.0241472
0.342643
0.0241193
0.0892584
0.0290518
0.0210489
0.0202431
0.0221662
3.93736
0.091354
0.0257862
0.0823819
0.116278
0.154852
0.0286385
0.154116
0.0618781
0.0210856
0.02132
0.0257071
0.0216716
0.0204717
0.0197488
0.0215504
4.53629
3.30928
2.26393
0.0288646
0.0207333
4.02978
0.0377629
0.0242753
0.0259256
0.0214034
0.0267995
0.0342449
0.0479097
0.0321104
0.050518
2.72082
0.0283469
0.0231425
0.0220458
0.0216717
0.10077
0.0230211
0.0240001
0.0211001
0.030105
0.0634158
0.0221516
0.00847034
0.0200715
0.0210939
3.07225
0.0247033
0.0213555
0.0200125
0.837716
0.021575
0.0847266
2.7171
0.0242364
0.0228346
0.0235226
0.0636804
0.0246318
0.185392
0.0479637
0.0707528
0.0249894
0.1642
0.06833
0.352366
0.0345187
0.0248645
0.0214726
0.754485
0.0964761
0.0251348
0.0210732
0.0196408
0.0195186
0.108335
0.0210182
2.68956
0.0458411
0.0200744
2.84391
0.0204467
0.023576
3.2367
0.0264904
0.0201624
0.0213846
2.89051
0.0209972
0.0232087
0.9128
0.0200809
0.0779953
0.0773161
1.6448
0.0298187
0.0245838
0.0205762
0.0286989
0.0193938
0.0196896
4.30649
0.0205533
0.0202697
0.0536466
0.0221529
0.609232
0.0196739
0.0210122
0.0200392
0.0219419
0.0212016
2.75705
0.0196582
0.0199764
0.0217144
1.29361
0.615672
0.0202342
0.0214924
0.0206221
0.220647
0.0420696
0.0204355
0.0196593
0.768646
3.57333
0.0819832
0.0331617
0.0275077
0.0342041
0.0207375
0.0216179
0.0199681
0.75979
0.0205552
0.0493694
0.200935
0.0295
0.020681
0.0267129
0.0472211
0.0203473
0.0209343
0.0235173
0.858956
0.0300506
0.0214649
3.54496
0.0254858
0.135075
0.0207541
3.30874
0.0197277
2.69624
0.162512
0.0205612
0.0237963
2.83365
0.0207302
0.197094
0.0215324
0.0228933
1.20546
0.0204183
0.0203913
0.0210308
0.0494536
0.674664
0.00968477
0.964341
0.0238185
0.0263795
0.0247749
9.50023
1.93367
0.745993
1.30193
0.022903
3.46822
0.0216454
0.0217167
0.0202537
0.0998323
0.0230965
0.0228696
0.0845852
1.92248
0.0255507
0.0206882
0.020113
0.0226807
0.0422493
0.0223146
0.0196756
0.0199977
0.0205471
0.0255924
0.0207064
2.88134
0.0204087
0.024503
0.015784
0.0214379
0.0278702
0.0208583
0.0261864
0.829848
0.0200194
0.599162
1.31438
0.0219537
0.0297134
0.374594
0.021982
2.50311
2.89981
0.0218414
0.13801
0.0331324
0.0401864
1.2703
0.0220125
0.0213529
0.0448307
0.0206971
2.63378
0.202998
0.0268382
0.0214117
0.0202375
0.0200103
0.0208408
0.0418651
1.90573
0.0204909
0.0247057
0.314112
0.0205256
0.0415196
0.0870795
0.0227932
0.0490782
0.0200543
1.54883
0.0215951
0.141094
2.52953
2.66943
0.0910152
0.0220642
1.30197
0.0206936
0.0671294
0.167821
0.0413499
3.55565
0.0205911
3.02829
0.0445437
0.0211844
0.119222
0.0360441
0.0426155
0.143342
0.0201111
0.0205091
0.0195863
0.337778
0.0207313
0.0272806
0.0293963
0.0228612
6.33505
0.0867397
0.024181
0.0375982
0.0214535
0.0233789
0.0201425
0.0211952
0.0280709
0.0741857
0.0203032
0.022419
0.723644
0.0203925
0.736191
3.09906
0.0220787
1.94648
0.0259931
0.0429962
0.0203487
0.019649
0.0212805
2.59943
0.021159
0.0223461
0.0494873
0.936001
0.0267929
2.37703
0.0601081
0.0633686
0.0535481
0.0301344
0.0305358
0.0481001
0.190389
0.0214166
3.4679
0.0193634
0.0187064
5.18354
8.12641
0.0345433
0.05373
0.0200336
0.027408
0.0201693
0.160518
0.0208802
0.0200773
2.66387
0.0240442
0.0241988
0.0211506
0.0212049
0.023977
0.0429438
2.99633
2.4009
0.119236
0.0281705
0.0227765
0.0210662
0.0204913
0.123635
0.0200901
0.0230874
0.0207391
0.020928
0.0205362
0.0242812
0.0217082
0.021696
0.0199191
0.0552041
0.0480476
0.830004
0.0302313
2.53662
0.0812421
0.161437
0.0485601
2.18473
0.0197352
0.241929
0.0279038
0.15227
0.0201629
0.0233394
0.0227364
0.0201162
0.0213987
0.0200889
1.35746
0.0213635
2.54935
5.65951
0.074675
0.0261327
8.46378
0.0211659
0.125086
0.0535107
0.354648
0.0210653
0.0245452
0.0216851
0.0950495
0.0208462
0.112567
0.0202034
0.202271
0.0201686
0.210984
3.50223
0.0220602
0.0440836
3.28923
0.0215095
4.68076
0.0468035
0.0213746
0.0218123
0.0271342
0.0195485
3.45816
0.849842
0.0224482
1.64681
0.0441579
0.0213905
0.0269098
0.0213365
0.0272659
0.0213147
2.43092
0.0228451
0.025827
0.0211111
0.0230766
0.0499513
0.813454
3.74671
0.021936
0.0205678
4.00569
0.149889
0.0213934
3.47226
0.0255746
2.35909
0.281734
0.0486538
1.2761
0.0199883
0.0213175
0.0258301
0.0217373
3.07801
1.09711
0.0219465
6.15047
0.020051
0.0214551
0.913781
0.0213812
0.0231729
0.0267442
0.850443
0.451399
0.0258751
0.0215539
2.8503
5.63212
0.021517
0.0563134
0.0206679
0.0202856
0.041962
0.0221051
0.0230688
0.171982
0.0228726
0.0854307
0.0213526
0.0256458
0.0903963
0.0260967
0.0323138
3.57137
0.0228971
0.0903753
0.0210308
0.0312081
0.103197
0.0213533
0.0216751
0.0197839
0.0214724
0.0263622
0.0217152
0.122038
0.0202116
0.0218908
0.0208575
4.59529
0.0199661
0.0358402
0.0450701
0.0199731
0.0202608
0.0985469
0.0272698
0.147221
0.0329366
0.0498289
0.0216488
2.28019
2.32965
0.0200117
3.21829
0.022766
0.0217668
3.63457
0.0213181
0.368825
0.129426
0.0220352
0.106396
0.0379808
0.0216277
0.0204866
0.0197963
0.0203874
0.0218579
0.0220136
0.112803
0.0215497
3.23345
0.0212628
0.336415
0.09256
0.0297759
0.0217014
0.159306
0.022621
3.34595
5.35805
0.0253754
3.34074
0.0209595
1.10157
17.1186
0.0419697
0.0284268
0.0213512
0.00533023
0.0215614
3.61453
0.0235261
0.0215535
0.148102
0.0211776
0.0203845
3.40709
0.020201
0.0201826
0.0209404
0.0214341
0.0435572
0.0301093
0.0227805
0.301035
0.0219197
3.38241
0.51613
0.0233566
0.133278
0.0216736
0.122696
0.657827
0.0208463
0.0219217
3.44031
3.424
3.2937
1.30537
0.0202561
0.0197584
0.0211373
0.0761571
0.0242761
0.114646
0.0212052
0.0214473
0.0210835
3.49782
0.0228733
3.79178
0.0245489
2.27608
0.0210286
0.0401311
0.021649
0.0216484
0.0196158
3.02964
0.0219157
0.0213272
2.44694
0.0223776
0.0226725
0.0201271
0.0253613
0.653738
1.33756
0.0213296
3.28305
0.0252498
0.0212863
0.0213328
0.0223215
1.89526
0.141688
0.0210673
0.168039
0.723036
0.0230439
2.76208
0.159117
2.46246
0.0402809
0.0210897
0.02183
0.0200126
0.0211118
1.95463
0.146904
0.0215086
0.0693504
0.0240294
0.00996608
3.58351
0.0236901
0.357426
0.796911
0.0214523
1.87329
0.0206881
0.725383
0.024122
0.0425442
0.0824737
3.57763
0.0206817
0.12663
0.021744
0.0886215
0.0396779
0.0275645
0.72454
0.0223391
0.0460191
0.300033
0.0526956
0.0201891
0.0447679
0.186937
0.302792
0.0476704
0.0226803
0.0607055
0.0710121
0.0415438
0.0245044
0.105898
0.0698878
0.0471062
0.0192746
0.0964236
0.145956
0.0229247
0.090738
0.0218795
0.0217711
2.43743
0.0209998
0.0328661
8.81674
2.07683
0.0201745
2.03393
0.741632
2.20771
0.0206135
0.0213571
0.0368257
0.0199563
0.00845393
0.0210668
3.32082
0.0304794
0.0197416
0.0234252
0.0214028
1.97169
0.025802
0.0314755
0.288572
0.0437036
0.0245184
3.4106
0.0213295
0.0238902
3.71343
0.0215411
0.105032
0.0215443
0.0224965
0.0204651
0.02071
0.0311655
0.0210241
0.254637
0.0595759
3.00841
0.020463
0.0403576
3.3622
0.0233441
0.0259618
0.0202767
0.0216738
0.023357
0.0213896
0.0235921
0.429738
0.293698
6.40241
0.0208757
0.0213979
0.0396838
0.0209875
0.020887
0.0217469
0.0217615
0.0212733
0.0202688
0.0214766
0.0219908
3.42172
0.0206602
0.0472064
0.0220417
3.64831
1.97156
0.176862
0.0225714
0.0228612
0.0213932
1.07967
0.0209987
4.66148
0.0100389
0.022299
0.0214385
0.0214356
0.0199893
0.0213972
2.65017
0.53704
0.020692
2.1742
0.0242141
3.24507
0.0199493
6.16784
1.82585
0.0339307
0.0202456
0.0217717
0.144578
0.0220601
0.0238564
0.0202324
0.0301831
0.0211922
0.0219511
3.54966
0.0171336
0.0201918
0.0234021
0.021707
0.0631716
0.0291278
0.0214708
0.14752
0.0398563
0.0249581
1.23733
0.0223135
0.0389443
0.0213434
0.0213303
0.0929705
0.0212892
0.485986
0.0314889
0.0420223
1.25035
0.611238
0.0217755
0.0251199
0.0236543
0.0215153
0.0229867
0.020149
0.279546
0.115575
0.0214214
0.0215176
0.0199522
0.268688
2.89733
5.90249
0.0213062
3.34724
0.0156887
0.0695262
0.0211611
0.117618
0.66238
0.00985376
0.030093
0.0212896
0.0661763
0.0198462
0.0229026
0.0255051
0.397101
0.0680442
0.0209824
1.52471
0.0249456
0.021035
0.0216845
0.0214102
0.0225464
0.0390956
3.41764
0.0214356
0.0364609
0.0309123
0.0203933
0.020349
1.9417
0.0223191
0.0210591
0.0220278
0.0219256
0.0238301
0.0199336
0.0214479
0.14124
0.0211236
0.0217157
0.0212204
0.0200643
0.0583499
0.023354
0.0223018
0.109718
0.0232426
0.0208366
0.0214378
2.95319
0.0225154
0.0208874
2.96564
0.0356463
0.253125
0.0408277
0.0207263
0.0217665
0.0216999
0.0218873
0.0228218
3.05587
0.134565
0.0435262
0.0297224
0.330412
0.0227321
0.026223
0.0213614
0.0272514
10.923
0.0157953
0.0925538
0.0226109
0.0222545
0.0240711
0.02123
0.25988
0.0225923
0.0184066
2.77338
2.6006
0.0209211
0.0215721
0.0225765
0.0200969
0.0155225
0.0199297
0.0208253
0.512147
0.0250502
0.0234424
0.0197815
0.0197271
0.0413412
3.33529
3.68435
0.00756167
3.0788
0.204316
0.022212
3.2202
0.0195635
0.0517921
2.56324
2.87701
0.0214959
3.27066
1.0411
0.118736
3.6276
0.149727
0.021697
0.0218703
0.0210188
0.0318144
3.6828
3.50991
0.0220512
0.0198535
4.41207
5.16204
0.0217159
0.0228666
0.0259898
0.0232394
0.0219771
0.342601
0.178242
0.0709882
0.0307671
2.53373
0.0229504
2.81878
0.0559444
0.192492
0.0405786
0.103929
0.0257615
2.68472
0.02165
0.0227879
0.0229679
0.00972713
0.132554
0.0207031
0.0216761
0.0215263
0.0335236
0.0239654
0.027809
0.0219351
0.0256748
0.262047
0.178169
2.81821
0.0188136
0.0251623
0.0216733
0.0281492
0.034364
0.0214835
0.101099
0.0203517
0.0227112
0.022779
0.0204745
2.97347
0.021379
0.0211429
0.023601
0.0217231
0.0217889
0.020979
0.0298664
0.0212278
0.023971
0.0231101
0.0213939
0.29052
4.80727
0.0212222
2.19235
0.124845
0.0215101
0.0719848
0.172152
0.0211446
0.253099
0.0205595
0.336037
0.0215071
0.695186
0.0243872
0.032893
2.20621
0.0207194
0.200551
0.021072
0.0209505
0.0222468
0.0270973
0.0214908
2.5783
0.0231674
0.0390228
2.65069
0.0210235
0.0210468
0.0219434
0.200171
0.0213135
0.0385954
0.0540855
0.0738381
0.0228714
0.0213582
8.46737
0.0225368
1.10592
0.122118
0.0132275
0.0276211
0.0434744
0.0214786
0.0239471
0.0827379
0.0880493
0.0195424
0.0365934
0.295029
0.0345507
0.0223993
0.0199964
0.0198879
0.0216766
0.00815725
0.705547
0.0214344
2.92734
0.0347378
0.0245318
3.63
0.0209704
2.27514
0.0375747
2.29638
0.0213285
5.01854
0.0214355
0.0226481
2.88047
0.0213308
2.85563
0.0224938
0.0617274
2.54231
0.0213254
0.0245197
0.148997
0.0224458
0.01908
0.0217058
1.3316
1.88647
2.35786
0.0209605
0.0702404
0.0250501
0.0213248
0.0212912
0.0215127
0.0209668
0.0266799
2.36021
0.0215841
0.0214354
1.92415
3.31594
0.0203647
0.0332262
0.0247263
0.10556
2.88398
0.0213561
3.53754
6.60891
0.0227139
0.0218956
0.0207384
0.0223809
0.0269873
3.41352
0.0224353
0.0660098
0.0465515
0.0536267
0.021373
0.0213884
0.0213844
0.0443589
1.22049
1.18795
0.0210112
0.0199193
4.86868
0.0197026
0.0205656
0.0218895
0.0241508
2.60298
0.0212956
2.63208
0.0193568
0.0215289
0.142185
0.0216892
0.0251135
0.0242364
0.0272464
0.0290987
0.0262012
3.09708
7.24463
0.0229987
0.0512569
3.13525
0.163711
0.0268218
0.0346743
2.39311
0.0463035
3.15151
0.0214983
0.021315
0.0213741
0.0215588
3.47218
2.6355
0.0214212
2.41837
0.365047
2.16278
0.153064
0.0211896
0.0198558
0.0261412
0.0197668
0.0209846
0.0230584
0.0214732
2.79647
3.39219
0.0218783
0.0682731
0.0293075
2.69754
0.0471383
3.04921
0.0214967
0.023791
0.0308778
1.0052
0.103515
0.0392222
0.0198663
0.0276011
0.38517
0.0543248
3.06828
0.021309
0.325183
0.0357375
0.020187
0.021498
0.0212997
0.0213464
1.94545
0.0199277
0.0215531
4.8507
3.67252
0.0226574
0.0229413
0.0225036
1.13196
0.0230649
0.0340841
0.311434
0.0212308
2.29551
0.0826284
2.62076
2.33309
2.07668
0.0211571
0.131773
0.0215473
3.05082
0.0395961
0.11176
3.00376
0.187426
0.058856
3.3871
3.29262
0.0613062
3.26851
0.0292086
0.0217665
0.16423
0.0534294
0.0390537
0.0374038
0.0225597
0.0213833
0.0363154
0.0254472
3.11058
0.115123
0.0205827
0.0359418
0.0201329
0.0224758
0.0230926
0.0234733
0.0303207
0.0221187
0.0270572
0.0201596
0.0670704
0.0224883
0.0212887
0.0318822
0.0416321
0.204509
0.0612602
3.15925
0.0208156
3.3098
1.56902
0.0277132
0.0988093
0.0939581
0.0889184
0.0213824
3.62156
0.0214361
0.0605853
3.04898
0.0213226
0.0244772
0.306832
0.021351
0.12756
0.0255837
0.0215527
0.0776267
0.0236971
0.16991
0.0213242
0.0370324
2.40484
0.022045
3.1802
0.0509402
4.08651
0.0708847
0.102729
0.0658056
0.0220533
0.0201056
0.0210194
0.0218638
0.0212658
0.0423153
0.021106
2.08645
0.0275332
0.022272
0.0206684
0.0216496
0.0359021
0.0208665
0.148969
0.0893938
0.0236535
0.0545329
0.738393
0.0250924
0.0213531
0.0596061
3.23167
4.8595
0.143698
0.0206484
0.021339
0.0214408
3.38226
0.021802
2.99104
0.0205545
0.0475037
0.0250744
0.0216499
0.0207874
0.021801
0.0722611
0.0239208
0.0209103
0.0210886
0.0706019
0.448345
0.0612558
0.0211849
3.21513
0.0780974
0.0220055
0.0199231
0.0655394
6.64176
1.5969
0.021187
8.10354
0.0889566
0.0842065
0.0100059
0.0214151
0.0566962
0.0217219
0.0230705
0.150871
0.286025
0.022849
0.0210472
0.0992298
1.34757
0.0717339
5.76721
0.0211292
0.0214354
0.0214211
0.0203738
0.196739
0.0216786
3.27403
0.0203839
0.127407
0.0211181
0.0226555
0.0213216
0.0248581
3.17585
0.0521597
4.34922
4.8109
0.0217755
0.0319937
1.2867
1.07753
0.084392
0.110486
0.0217246
2.62265
2.17565
0.0670758
0.0275409
2.47183
0.375728
5.38792
0.0203862
0.0217931
0.0728523
2.15783
0.0243901
0.0206484
3.59627
0.0521864
3.14008
0.0280805
0.080098
0.0293048
0.0781523
0.0213819
0.144722
3.10953
3.29044
0.0214533
0.129597
0.0347447
0.0264743
0.0218699
0.0221062
0.025168
0.0566053
0.067117
0.0613629
0.0737535
0.080896
0.0890235
0.0235965
0.0706409
0.105272
0.0485708
3.47016
0.105321
0.0246957
0.0208306
0.0245635
0.021444
0.0248747
2.54226
2.53704
0.0665265
0.0626731
3.18948
0.0644651
0.0571328
0.148542
2.38693
0.0762132
3.19693
0.0211585
0.0218465
0.0279405
0.0298151
0.338069
0.0215521
0.0207979
0.0368796
0.0214415
0.0770436
0.0211961
1.62274
3.2083
3.49666
0.0235237
0.0394885
0.0957169
0.0225679
0.0214125
0.0213573
0.0440986
0.0217295
3.1955
3.28957
0.0214237
0.115523
0.0228618
0.0220938
0.101736
0.0245486
3.26989
0.02191
0.0622752
0.021948
0.0646967
0.0206435
0.0609432
0.0887703
3.60958
2.91765
0.0207145
0.101158
3.3468
0.0675014
0.0859505
2.98169
3.30955
3.8392
0.0570032
0.0213264
3.08949
0.0533067
0.0411274
3.30631
0.0139405
2.40901
2.34479
3.41904
0.688596
0.023559
0.186453
0.247214
3.34971
0.019918
0.104724
2.35627
0.0218331
0.021255
0.0233536
3.02227
0.0203817
0.0854839
0.0754651
2.30454
0.0249478
3.12603
23.4265
0.025863
0.0210896
0.0211546
0.0217488
0.144317
0.0691308
3.3484
0.021936
0.0764357
0.0217622
0.130876
0.271901
0.0218018
0.11023
0.044299
0.0223888
2.18328
0.127714
0.0220003
0.0223439
0.0252499
0.071772
1.4005
0.767699
0.022275
0.127091
0.115564
0.0775421
0.0837701
0.148275
7.68547
0.0357044
1.60978
0.0209892
0.0535172
0.0213385
0.0536579
0.326786
0.0251505
0.0236899
3.67167
3.18598
0.0199467
1.72959
0.0618969
0.13449
0.0314906
0.138518
0.0567581
0.02168
0.0208042
0.0301311
0.119383
0.0217231
0.0217017
0.104278
0.0295308
0.0211203
0.0669627
0.0533633
0.0224398
0.0395118
0.029371
0.0228153
0.0211764
3.08291
0.0209633
0.0239689
0.0235044
0.0207793
0.0334792
0.0285758
0.0778737
0.113599
0.0386157
0.0203864
0.0213476
0.0217
0.155931
2.71668
0.0868532
0.0210396
0.0216743
2.1131
0.0217563
0.133011
0.0453518
0.02903
0.0637077
0.0215325
0.028311
3.55411
0.0819049
0.0209206
0.0502038
0.0273503
0.021697
0.0210915
0.0217807
0.0257466
3.37457
0.0219101
0.0201877
0.033451
3.44123
3.30162
0.021545
0.0199247
0.0219052
0.021074
0.0219498
0.0594819
0.0213655
0.0222316
4.17028
0.0214434
0.207757
0.0232785
0.021498
0.0975312
0.118375
0.0217008
0.0211737
0.0287729
0.561761
2.70058
0.0237694
0.0233667
2.02601
0.0740712
0.0413089
0.0219389
0.0222824
0.0226378
1.69416
0.0239591
0.0211308
0.102326
0.0209729
1.02193
0.0229688
0.0214339
0.021561
0.0206314
0.0354509
0.0197341
0.196388
0.0209167
0.262473
0.0227233
0.0289781
0.0212102
4.4333
0.0211425
0.0302132
3.36207
0.0344484
2.64107
0.0741856
0.0210011
3.40085
0.0682594
0.0196118
0.0260774
0.661141
3.23591
0.0399874
0.0317545
0.0249138
0.0215007
0.0318131
2.51654
0.0382125
0.553706
0.0307201
0.467774
1.27812
2.50096
0.0444232
0.0213771
0.158428
0.0366317
0.0217245
0.0424859
0.24622
2.74246
0.0215064
0.0340179
0.121028
0.0248629
0.030376
0.138601
2.43462
0.0215307
0.134844
2.21343
3.40574
0.0418442
0.0206719
0.169306
0.0249546
0.0206802
0.02322
0.0234258
0.0860309
0.193209
0.307918
0.0214579
0.0215449
0.0499179
0.0281235
0.0239514
0.02148
0.0324768
1.62383
0.0215153
0.094649
0.0213742
0.0209813
0.0284559
3.78303
0.0199303
0.0350797
0.062055
3.38405
0.0260802
0.131022
0.0226995
0.0537074
0.0408672
0.0264131
1.4082
0.0213916
3.06062
0.043478
0.0214203
0.0364673
0.0316853
3.92018
3.34007
0.0810474
3.15508
0.0205484
3.57598
0.0268076
3.31887
0.0227313
0.0582022
0.0234757
0.0212084
0.0464599
0.021431
0.0281331
0.0215274
0.0634324
3.37492
3.43253
0.0213685
1.04011
0.0356167
0.0214914
0.0201539
0.0217001
0.0213571
0.0212991
0.0212912
0.0690792
0.0661298
0.021019
0.0213037
0.0759557
0.0215262
0.0207158
0.0212142
0.0837145
0.0927412
0.029241
3.52431
0.0830969
0.0215653
3.6329
0.0225354
0.0212403
0.0213746
0.0213474
2.30374
0.0238878
0.0214399
0.0956768
0.0211199
0.0224458
0.0213533
0.252753
0.021356
0.203712
0.0216748
0.735763
0.621758
0.0251612
0.0242105
0.184101
0.0213609
0.0222279
1.15945
1.49383
0.758131
0.0199554
0.0281931
3.08468
0.172626
0.0211658
0.0218184
0.021404
0.029169
2.53586
0.0218838
0.197925
0.105256
2.62042
0.061299
0.0201779
0.0284045
2.62783
0.0903408
0.703099
0.363802
4.30546
0.0210069
0.0217484
0.0374395
0.0214601
0.02203
0.231257
0.15104
0.021437
0.0213401
0.0220272
0.0277019
0.0217147
0.0393835
0.121408
0.0213126
0.0625233
0.0260147
0.0234711
0.0219153
0.0230452
0.0209839
3.33873
1.69219
0.049269
0.00508014
0.0213489
6.94701
0.0233176
0.0225542
0.0216059
3.52072
0.0251908
0.0213295
0.0205634
0.0201801
0.0216594
0.0207255
0.0214204
0.0379849
0.0213822
0.0460924
0.0213713
0.0494838
3.39181
0.0214696
0.0432887
0.0254331
0.0223203
0.0198803
0.0230706
0.022063
0.0302004
0.0223337
0.0263805
0.0223873
0.0235259
3.28407
0.0461272
0.0213815
0.0556989
0.0220913
0.0816381
0.324773
0.021357
0.021449
0.0227583
0.0213775
0.0256022
2.47106
0.0203922
0.0242683
0.0213673
2.14978
0.0215559
0.028612
0.0221996
0.0220434
0.0223316
0.0225484
0.0377918
0.0217047
2.31437
0.0215373
0.0217261
2.20428
0.0197326
0.0225924
0.0320194
2.78312
0.0304954
0.0335868
0.0243448
0.027866
0.0351802
0.0214489
0.0213264
0.0209774
0.0211768
0.0214664
0.0215942
0.0224812
0.0206795
0.0196394
0.0199435
0.552453
0.0634277
0.0250302
2.33814
0.0352501
0.021413
3.05678
0.0636364
0.0278072
0.0213468
0.0214341
0.0224873
0.0235543
0.0213837
0.116131
0.0213373
0.0566814
0.0356832
0.283336
0.0222029
0.117933
0.0216707
0.022139
1.00178
0.0216741
0.0234396
0.02734
0.0367555
0.0214309
0.020234
0.0746878
0.0213121
0.190193
0.0215343
0.0464987
0.021338
0.0301612
3.16688
2.74059
0.0325658
0.0262233
0.0407562
0.0262525
0.0213586
0.0214398
0.0237786
0.021325
0.0227597
0.0226477
0.0212817
0.0199211
0.021594
0.0198904
0.0349647
0.0476724
0.052703
0.0211548
0.0249517
0.0225462
0.0321886
0.10853
0.0224683
0.0357484
0.022561
0.0211717
0.0213174
0.0225331
0.0213316
0.0294219
0.0796823
0.0219921
0.0226276
3.81438
0.0247491
0.0199474
0.0197174
0.0213829
0.0208672
0.0225047
0.0197076
0.0284386
0.174055
0.0215091
0.020442
0.100105
2.57166
0.0224479
0.0221647
0.0230437
0.694679
0.0216523
0.0243511
0.0209986
0.0224273
0.0214041
1.22197
0.0205158
0.0212588
0.021301
0.0213366
0.0569067
0.023413
0.0239628
2.7774
0.0240416
0.0220876