/*--------------------------------*- C++ -*----------------------------------*\
| =========                 |                                                 |
| \\      /  F ield         | OpenFOAM: The Open Source CFD Toolbox           |
|  \\    /   O peration     | Version:  v2012                                 |
|   \\  /    A nd           | Website:  www.openfoam.com                      |
|    \\/     M anipulation  |                                                 |
\*---------------------------------------------------------------------------*/
FoamFile
{
    version     2.0;
    format      ascii;
    class       surfaceScalarField;
    location    "150";
    object      phi_0;
}
// * * * * * * * * * * * * * * * * * * * * * * * * * * * * * * * * * * * * * //

dimensions      [0 3 -1 0 0 0 0];
oriented        oriented;


internalField   nonuniform List<scalar> 
20823
(
0.12647
0.0295884
-0.156059
0.325995
-0.230132
-0.0958635
0.662159
-0.0922091
-0.56995
0.601217
-0.11994
-0.481278
0.611763
-0.0526919
-0.559071
0.506915
-0.376441
-0.130474
-0.490155
0.373901
0.281683
0.107753
-0.389436
0.548847
0.0523705
0.126682
0.00205591
-0.128738
0.636582
-0.567181
-0.069401
-0.150225
0.150417
-0.000191796
0.20753
-0.340291
0.132761
-0.134935
0.342465
-0.725595
0.421742
0.303853
0.141778
-0.216863
0.0750844
-0.319992
0.205657
0.114335
-0.0377733
0.0830046
-0.0452313
0.354413
0.00440569
-0.358819
-0.190492
0.313471
-0.122979
-0.10968
0.197547
-0.0878672
-0.0118122
-0.138413
-0.022277
0.135949
-0.113672
0.0394029
0.57236
0.486302
0.150281
-0.0942442
0.448658
0.119473
-0.118828
-0.00064545
0.120015
0.107072
-0.128342
0.02127
0.0180775
0.0874131
0.148249
-0.200556
0.0523063
0.392178
-0.110496
0.125704
-0.0953605
-0.030344
-0.0195963
0.156802
-0.137206
-0.134283
0.197503
-0.0632195
-0.534859
-0.0715275
0.606387
-0.0904469
0.0706361
0.0198107
0.149297
-0.0226142
-0.249261
0.691335
-0.442074
-0.051167
0.30325
-0.252083
0.0748668
-0.127669
0.052802
-0.226119
0.116439
0.788724
-0.404804
-0.383919
0.696888
-0.260268
-0.436619
0.750452
-0.333437
-0.417015
0.353745
0.434979
0.0482695
-0.0443154
-0.00395408
0.408801
0.0981139
-0.154822
0.0903837
0.0644383
0.12182
-0.0740346
-0.0477858
-0.135796
-0.221953
0.357748
-0.00392268
-0.523606
0.527529
-0.0849341
0.025307
0.0596272
0.137633
-0.0947493
-0.0428836
-0.195667
-0.124325
-0.240352
-0.0999387
0.0637793
-0.0944129
0.0306335
0.0598619
-0.127637
0.0677746
0.127998
-0.147594
-0.057647
0.205896
-0.626218
0.492709
0.133509
0.0325307
0.0892896
-0.109105
-0.0387121
0.147817
-0.406471
-0.179089
0.585559
0.400984
-0.645913
0.244929
-0.473263
-0.0954947
0.568758
-0.0395734
0.166044
-0.0559737
0.103673
-0.0476994
0.598846
-0.488659
-0.110187
0.0446547
-0.242673
0.198019
0.458724
-0.663122
0.204399
-0.636832
0.273893
0.362939
0.0495622
-0.00129273
0.168396
0.167633
-0.336029
0.181052
0.032243
0.606308
-0.171452
-0.434856
-0.0903253
-0.277044
0.367369
0.219132
-0.174477
-0.0581406
0.0942056
-0.0911011
0.0982314
-0.00713037
-0.768697
0.355473
0.413224
-0.0854067
0.0272661
-0.0440025
-0.0409317
-0.334366
-0.152203
0.48657
0.0405033
-0.531302
0.490799
0.46325
-0.666577
0.203326
-0.439683
0.332739
0.106943
0.0434374
0.0941955
-0.00687731
0.0444984
-0.0376211
0.066782
-0.257274
0.490432
-0.619453
0.129021
-0.414952
0.576377
-0.301906
-0.274471
0.010026
0.0575377
-0.0675637
0.460418
0.138428
0.0913632
-0.315347
0.223984
-0.304442
0.168646
-0.0119925
0.674151
0.0048024
0.0706367
-0.0754391
-0.134386
-0.381928
0.516315
0.0715179
-0.544781
0.492772
-0.0839716
0.667899
-0.207481
0.0879413
0.348908
-0.43685
-0.00743632
0.0497996
-0.0423633
0.0860865
0.0337062
-0.119793
-0.0493569
0.0424796
-0.46569
0.131324
0.0701993
-0.126173
-0.703157
0.502206
0.200951
-0.00468448
-0.0422822
0.0469666
-0.590325
0.0372592
0.553065
-0.401737
0.44224
0.158821
0.316881
-0.475702
-0.590325
-0.374836
0.28451
0.0948579
-0.0203609
-0.074497
-0.124359
0.553741
-0.429382
-0.0780331
0.0880591
0.0241454
0.101559
0.616828
-0.50665
-0.110179
0.117929
-0.148585
0.030656
-0.00194174
-0.00140077
0.0033425
0.423971
-0.260493
-0.163478
9.53867e-05
0.078757
-0.0788524
0.226347
0.350031
-0.515666
0.651592
-0.135926
0.461548
-0.302727
0.00301652
0.0246696
-0.0276861
-0.491775
0.299425
0.19235
0.0381871
0.0113751
-0.478588
-0.106179
0.584767
-0.327825
-0.26189
0.589715
0.0575274
0.0190169
-0.0765443
0.0478411
-0.00965401
0.0669686
-0.246904
0.179935
0.115935
-0.102005
-0.0139296
0.567397
-0.166413
-0.318394
-0.173381
-0.488684
0.168992
0.319693
0.0716561
0.102487
-0.174143
-0.0106096
0.0777745
-0.0671649
-0.0134954
-0.115125
0.12862
-0.224704
0.168408
0.0562967
0.134031
-0.0269586
0.323196
0.427257
0.610697
0.00613188
0.0129854
0.125283
-0.138268
-0.0579161
-0.121791
0.198718
-0.0769274
0.307156
-0.215792
0.208851
-0.137194
0.573851
-0.115127
0.286176
0.106002
0.354524
0.138249
0.00314962
0.0344933
-0.0376429
0.0150999
0.323381
-0.338481
-0.274882
-0.352037
0.62692
-0.389883
0.404983
-0.333889
-0.273991
0.607881
0.235905
0.0891455
-0.32505
0.113463
0.00601051
-0.0665214
0.0742098
-0.00768843
0.519936
-0.480257
-0.039679
-0.165485
-0.0328503
0.198335
-0.255187
-0.332044
0.587231
-0.0859772
-0.124854
0.210831
-0.0248649
-0.127337
0.152202
0.028905
-0.00113185
-0.0277731
-0.0360418
-0.312745
0.348787
0.171751
-0.0299726
0.0964541
0.0194806
0.110006
0.040411
0.0303235
-0.0058902
-0.0244333
0.434827
0.171481
-0.361772
0.32573
-0.0769829
-0.0218874
0.0988703
-0.0271382
7.25405e-05
0.0270657
0.138165
-0.0281592
-0.0763275
-0.148377
-0.122236
-0.0530362
0.175273
-0.0287678
0.00162962
0.0489821
-0.215904
0.166922
-0.0874544
-0.395011
0.482466
-0.506553
-0.196604
0.0505206
-0.0456489
-0.00487163
0.06657
-0.0107416
-0.0558284
-0.4902
0.330912
0.159288
0.0352922
-0.0282371
-0.00705508
-0.0497581
0.0423217
-0.0919325
0.0039166
0.0880159
-0.137609
0.236163
-0.0985538
0.383907
-0.0977306
-0.186004
-0.304196
0.0768856
-0.0867151
0.0098295
-0.0744361
-0.0720334
0.14647
0.0478896
-0.156994
0.0332708
-0.00157406
-0.0316967
0.324235
0.224612
-0.629155
0.131205
0.497949
0.0532791
0.33866
-0.391939
-0.227238
0.0896286
-0.474293
0.49377
-0.0194771
-0.16181
0.122873
0.0931034
0.145327
-0.0273977
-0.00526966
0.069049
-0.130762
-0.0953566
0.377671
-0.514314
0.136642
-0.0221728
0.0251893
-0.044015
-0.0503979
-0.0726021
0.078781
-0.00617892
0.0849414
-0.00805576
0.595665
-0.204463
-0.391202
0.32263
-0.0867254
-0.256882
0.634936
-0.378054
-0.543628
0.0693814
0.474246
-0.616423
0.0815641
0.178788
-0.0343345
-0.144453
-0.217945
0.0871824
-0.0509204
0.435605
-0.384684
0.426094
-0.477014
0.199425
0.224546
0.152674
-0.47412
0.321446
-0.671931
0.46844
0.20349
-0.135278
0.113001
0.14454
0.0762969
-0.220837
0.507822
-0.183587
-0.746875
0.284754
0.462121
-0.636978
0.474541
0.162436
-0.0168834
0.10297
0.308964
0.123227
-0.432191
-0.504334
0.379975
-0.175847
-0.36778
-0.00259674
0.0691668
-0.0744875
-0.0803346
0.73502
-0.318137
-0.416883
0.385939
-0.504105
0.118166
0.549584
-0.531187
-0.0183971
0.00326208
-0.175705
0.427762
0.186146
-0.613908
0.153427
-0.632016
-0.0826974
0.329682
0.405338
0.0362994
-0.0480472
0.0117478
0.00854008
0.0217834
0.411657
-0.307489
-0.104168
-0.484381
0.620874
-0.136494
-0.0588165
-0.366224
0.425041
-0.0276594
0.0277868
-0.000127404
0.634069
-0.489261
-0.144808
0.00608416
-0.0786862
0.359129
0.148693
-0.244437
0.293321
-0.0488839
0.502423
0.0471609
-0.430482
0.139478
0.291003
-0.544818
0.668954
-0.124136
-0.132612
0.0255457
0.107066
0.566584
-0.509789
-0.0567952
0.0608539
-0.0986272
0.456654
0.0744433
-0.531097
0.00495577
0.173832
-0.242688
0.0589185
0.183769
0.600516
-0.531135
-0.148108
0.457072
-0.0879991
-0.00310195
0.0605079
0.540008
0.00378965
0.0294811
-0.0677433
0.236139
0.0630216
-0.0656771
0.00265547
0.184667
0.512221
0.0797021
0.0937584
-0.173461
0.118096
-0.0461796
-0.0719168
0.511203
-0.125264
-0.301677
-0.335301
0.0230655
0.0969492
0.126901
0.284756
-0.121168
0.0271784
0.0939896
0.108653
-0.0749468
0.576264
-0.440809
-0.135455
0.31398
-0.213163
-0.100818
0.133125
-0.222118
0.0889926
-0.00345147
0.0387437
0.0610485
-0.182839
0.00548419
0.089251
0.0941028
-0.0342409
-0.0920991
0.000166634
-0.262338
-0.115409
-0.0180447
0.133454
0.116911
-0.130406
-0.167368
0.033085
0.0934473
-0.383288
0.289841
-0.0557455
-0.431766
0.487512
-0.0248636
0.433039
-0.408176
-0.144976
-0.452494
0.396748
0.41257
-0.239889
-0.172681
0.410741
0.109746
0.0180476
-0.127793
-0.242898
-0.168033
-0.0987011
0.266735
0.165624
-0.253338
0.0877137
0.610976
-0.550469
-0.265068
0.386357
-0.12129
-0.464005
0.376551
0.0455478
-0.00924844
-0.109473
-0.19846
0.307933
0.106252
0.013949
-0.120201
0.63075
-0.128327
-0.129951
-0.00746308
0.137414
-0.139442
0.0243167
-0.0851449
-0.0431972
0.0488015
0.562175
0.566286
-0.0758532
0.263083
-0.177721
-0.0853613
-0.324044
0.149208
0.174835
-0.0258257
0.0307236
-0.00489799
0.161463
0.164532
0.0905988
-0.107482
-0.0540271
-0.179959
0.233987
-0.143026
-0.483191
0.309396
-0.0652271
-0.244169
0.125362
-0.0819249
-0.255118
0.0870843
0.191062
0.476837
-0.0425335
-0.00722453
0.10736
-0.178591
0.071231
-0.202747
-0.121297
-0.0426204
0.105671
-0.0698331
-0.00223162
0.0720647
-0.0103743
-0.155111
-0.536593
-0.0119893
0.548582
-0.0695563
0.00303491
-0.111281
0.00927554
0.246383
0.166188
-0.0681464
0.0631866
0.00495985
0.173956
-0.270622
0.0966657
-0.0266565
-0.00100291
0.121721
-0.1101
-0.0116207
0.146326
0.484424
-0.114552
0.288508
-0.38584
0.502247
-0.116407
-0.139511
0.625813
-0.0582232
-0.0583473
0.116571
0.33472
0.115681
-0.450401
0.133163
-0.0582966
-0.0775588
-0.412596
0.0485754
0.384464
0.319452
0.0248891
-0.344341
0.0400701
0.00442824
0.170938
-0.0635785
-0.334105
-0.0699667
0.404072
-0.611633
0.362372
-0.387358
0.12229
-0.0542504
-0.00406964
0.05832
-0.480869
-0.301942
0.0629372
-0.397042
0.590548
-0.541747
0.00132035
0.110001
0.234761
-0.344761
0.550382
-0.0871311
0.141902
0.12361
-0.265512
0.0453315
0.545217
0.083983
0.514285
-0.598268
0.238936
-0.0346256
-0.204311
-0.0563294
0.452749
-0.39642
-0.601387
0.464742
0.136646
-0.456453
0.400123
0.574019
-0.574019
-0.0164255
0.315851
0.101801
0.00445116
-0.114561
0.0719405
-0.00510364
0.179038
-0.173934
0.134657
0.151861
-0.0822347
-0.0787345
0.160969
0.416075
0.202473
-0.618547
-0.686106
0.520275
0.165831
-0.203807
0.27372
-0.0699129
-0.30773
-0.122752
0.123573
-0.509414
0.0377352
0.0876272
0.292106
-0.424866
0.132761
0.0440347
-0.0487192
-0.671021
0.352885
0.205414
-0.0722886
-0.0836645
-0.033807
0.117471
-0.41543
-0.0275744
0.00174876
0.268647
-0.222555
-0.0460924
0.187662
0.134968
0.48996
-0.0333062
-0.0396945
0.201712
-0.112568
-0.0891442
0.0399463
-0.0314062
-0.0235003
0.133624
-0.110123
0.105797
-0.406456
0.300659
-0.492662
0.34991
0.142752
0.416876
-0.277398
0.449001
-0.609617
0.160615
0.468444
-0.617299
0.148855
0.0448032
-0.24861
0.43798
-0.285307
-0.194313
0.267503
-0.0731902
0.552226
0.13911
-0.44452
0.136791
-0.0677745
0.0678699
-0.0446125
0.0477621
0.0945766
0.000281273
0.518847
0.12264
-0.641486
-0.0734834
-0.0541531
-0.132947
0.248597
-0.390201
0.141604
0.621052
-0.575721
0.331595
-0.033081
-0.298514
-0.268325
0.00331459
-0.235679
0.108937
0.126742
-0.37254
-0.119974
0.492514
-0.0650384
-0.081687
0.146725
-0.310426
-0.326406
0.533091
-0.105328
-0.269039
0.0323183
-0.226631
-0.303805
-0.421791
0.0570423
-0.167659
0.110617
-0.240258
0.259026
0.124881
0.260847
-0.312014
-0.0828962
-0.140542
0.223438
-0.43934
0.30904
0.1303
0.033741
0.587311
-0.335266
0.430233
-0.0949673
0.0510461
-0.225764
0.174718
0.432338
-0.0976181
-0.0922922
0.174239
-0.0819463
0.622936
-0.334321
-0.288615
-0.0817026
-0.0509089
-0.40026
-0.270762
0.405176
-0.0857248
-0.594079
0.565467
0.0286121
0.368132
-0.258131
0.542755
-0.546678
-0.168449
0.110226
0.00419711
-0.074578
0.0703809
0.324403
0.298533
0.336578
0.151877
-0.488456
0.0459718
-0.00313598
0.632683
-0.487109
-0.145574
-0.417201
-0.211954
-0.345889
0.506052
-0.160164
-0.625932
0.625932
-0.0931508
0.0936597
-0.00050889
0.119868
-0.465757
0.0819215
0.258726
-0.340648
-0.185976
-0.00540101
0.164785
-0.159384
0.279339
0.0239103
0.00555894
-0.128977
0.143124
-0.0141477
-0.0717379
0.0631366
0.00860135
0.545971
-0.129896
0.443939
-0.151833
0.0785788
-0.160813
-0.596843
0.0732369
0.106077
-0.595338
-0.0956222
-0.177513
0.228559
0.136198
-0.0791562
-0.0778516
0.440264
-0.362412
0.262534
-0.456491
0.193957
-0.53344
0.00743996
0.0325063
-0.42193
0.1281
0.29383
0.000233324
-0.0719712
0.28118
-0.0935179
0.120504
-0.0933255
-0.574819
0.43042
0.144398
-0.0419714
-0.00612662
0.048098
0.464555
-0.202021
0.0587273
0.00798702
0.134435
-0.540906
0.0585512
-0.0332443
0.392519
-0.464047
-0.036269
0.106468
0.505803
0.0141336
0.218905
0.125218
-0.344124
0.0544525
0.00409878
0.063769
-0.0533649
-0.010404
0.022756
0.364619
-0.44247
0.21905
-0.224153
-0.0882153
0.266669
-0.028566
-0.238103
0.213324
-0.164342
0.23218
0.0772163
-0.0557631
-0.125488
0.384515
-0.0892342
-0.357791
0.566139
-0.208348
0.0998499
-0.12335
-0.535404
0.0197384
-0.46588
0.331494
0.0698699
-0.148604
0.377463
-0.295542
-0.0796259
-0.044941
0.124567
-0.44254
-0.122758
0.565298
-0.562631
0.370137
0.192494
-0.0386737
0.0469306
-0.00825691
-0.417193
-0.295029
0.074642
-0.235011
0.160369
-0.12275
0.135735
-0.618747
0.20016
0.418587
-0.250147
0.343344
-0.0931967
-0.308239
0.381342
-0.0731031
-0.0701874
0.467713
-0.397526
0.396768
-0.584057
0.187289
-0.485228
0.41504
0.15733
0.259547
0.095017
-0.441686
0.346669
-0.0192869
0.258223
0.235948
0.00538688
-0.241335
-0.168062
-0.289902
0.457963
0.344525
-0.12562
0.389083
-0.158747
-0.230337
-0.135958
-0.0847317
0.22069
-0.0703872
0.403127
-0.00138287
-0.0528675
0.332363
-0.46048
0.128117
-0.0753
0.594147
-0.383262
0.263385
0.119877
-0.399403
-0.11005
0.509452
0.613091
-0.588546
-0.024545
-0.536049
0.280862
0.0167386
-0.0937215
0.237661
-0.16164
-0.0760215
0.0256395
0.0924569
-0.609456
0.0728629
-0.348016
0.443033
0.536334
-0.139566
-0.0549264
-0.187761
0.296627
-0.213575
-0.083052
0.0407138
-0.460186
0.419472
-0.0816101
0.0710005
0.360271
-0.211063
-0.5976
0.473635
0.123965
-0.003971
0.0286406
0.239356
-0.567181
-0.415739
0.271804
-0.383423
0.11162
-0.104977
-0.0249742
-0.126368
0.458731
-0.222005
0.139109
-0.160679
0.0956409
0.0683886
-0.00536698
0.110706
-0.217275
0.106568
-0.0055788
-0.00774419
0.16554
-0.157796
0.0964694
0.192184
-0.288653
-0.200565
0.0430757
0.15749
0.176026
0.339262
0.109239
0.0924729
-0.172262
-0.392684
0.499237
-0.162659
0.071949
0.00582551
-0.00404999
-0.0513656
0.0554156
0.10188
-0.0732504
-0.0286298
0.0770423
0.0106203
0.0531487
0.549097
-0.324692
-0.224405
0.000667861
0.0274545
-0.0314255
-0.127525
0.262182
-0.00668673
-0.0589904
-0.171382
-0.0291836
0.188825
-0.306351
0.117526
0.0118449
0.440905
0.582921
-0.133919
0.438266
0.132258
-0.570524
0.0163681
-0.116763
0.100395
-0.0518681
0.266176
-0.214308
0.0248068
-0.0992943
0.667717
-0.505831
-0.161885
-0.407991
0.132086
0.275905
-0.236086
0.00595474
0.182637
0.0860097
-0.321731
-0.259259
0.58099
-0.165698
-0.0550396
0.220738
0.277378
0.0621761
-0.339554
0.24559
0.303507
0.535141
0.0186002
0.0492229
-0.0672962
0.0180732
0.191983
-0.513714
-0.0622121
0.29816
0.163519
-0.496166
0.332647
-0.440649
0.136985
0.223286
0.352082
-0.0869427
-0.265139
0.131191
0.0914745
-0.222666
-0.0203681
-0.00522019
0.0255882
0.0867384
-0.10855
0.0218116
0.0381597
0.00361577
-0.0417755
-0.0701341
-0.0359381
0.106072
0.388777
0.147557
0.356424
-0.0846201
0.317522
0.0739852
-0.391507
0.220453
-0.272321
-0.542317
0.142914
0.275255
0.0768266
0.2082
0.443392
-0.129156
-0.393021
0.298776
0.0563024
-0.0471653
-0.00913706
-0.00380414
-0.0188187
0.0226228
-0.0216093
-0.00715849
-0.635614
0.477391
0.158224
-0.273291
0.012798
-0.0867532
0.453482
0.142703
-0.596184
-0.153912
0.129047
0.552211
-0.163435
-0.147947
-0.0374662
0.185413
0.154626
0.0830355
0.0970846
-0.139221
0.0421368
-0.629596
0.173393
0.456203
0.123006
-0.611665
-0.413785
-0.215811
0.0384979
0.0597336
0.239002
0.0137995
-0.252801
0.185785
0.0483765
-0.234161
0.461784
0.0520259
-0.51381
0.297957
-0.109132
0.11755
-0.0927434
-0.151694
0.58996
0.0457723
-0.125398
-0.202676
-0.236664
0.615715
0.059738
0.00935421
-0.0690922
0.05045
0.0464083
-0.0968583
-0.00594181
0.0499765
-0.106403
-0.497545
0.115616
0.0960072
-0.657766
0.173739
0.484027
-0.0470036
0.185867
-0.138864
-0.0644016
0.230026
-0.133555
0.301188
-0.279891
0.22924
-0.331964
0.102724
0.230965
0.065662
-0.586864
0.547386
0.0394787
0.150538
-0.484474
0.333937
-0.0704167
0.000583582
0.0273805
0.440333
0.38891
0.206755
-0.15003
0.52074
-0.370711
-0.0846249
0.270409
0.00284302
-0.00281189
-0.199603
-0.136426
0.0779613
0.00698004
0.447438
-0.634052
0.186613
0.102649
0.0948535
0.475607
-0.615038
0.13943
-0.509874
0.359845
0.616092
-0.168653
0.0201508
0.0628538
-0.20857
0.109035
0.099535
-0.0770193
0.316021
-0.405233
-0.310601
0.0120483
0.406825
-0.418873
-0.0296458
0.139391
0.061726
-0.227424
-0.0302379
0.275295
-0.245057
-0.00795807
0.154847
0.159133
-0.580003
0.246114
0.501245
-0.0102131
-0.118764
-0.401352
-0.28134
0.251103
-0.0172716
0.0664945
-0.0461847
0.0966347
-0.432805
-0.00207535
-0.209365
0.260069
-0.0507039
-0.0120289
-0.0996202
0.179322
-0.119749
0.361735
-0.241986
-0.0675231
0.0717202
0.0276744
-0.00299461
-0.0246798
-0.083871
0.0635101
0.285909
-0.601299
0.31539
0.496265
-0.00249515
0.0033198
-0.000824651
0.304152
-0.107201
-0.196951
0.0818666
-0.117805
0.340066
-0.245364
-0.094702
-0.226054
0.0931251
0.132929
0.373301
-0.194936
-0.178365
0.495896
-0.188983
-0.306913
-0.347611
0.290362
0.0572492
0.247699
-0.197256
-0.0504431
0.319992
-0.0907526
0.00536088
0.0838688
-0.0892297
0.379164
-0.634307
0.456593
0.177714
-0.296698
0.636871
-0.340172
-0.00912303
0.0870843
-0.067924
-0.167755
0.181358
-0.235386
-0.346351
-0.273102
-0.310367
-0.352755
0.190403
0.00714364
-0.623892
-0.102025
-0.0724111
0.174436
-0.0219628
0.119047
0.161769
-0.458468
0.111214
-0.0244751
0.570898
-0.533639
-0.155061
0.0303673
-0.157704
0.196369
0.436314
0.422798
-0.17802
-0.244778
-0.255565
-0.38005
0.0967454
-0.0873164
-0.00942908
0.176805
-0.619601
0.442796
0.211017
-0.202386
-0.00863116
0.286683
-0.190214
0.177294
0.0857885
-0.189924
0.2383
0.19469
-0.410043
0.215353
0.0549195
-0.135563
-0.117775
0.0685588
-0.0122623
-0.0562966
-0.158029
0.255042
-0.0970133
0.477848
0.00106172
0.0621677
0.028853
-0.029934
0.00108101
-0.157569
-0.2373
0.394869
-0.461397
0.12901
-0.557968
0.428958
-0.0267606
0.0229564
-0.113047
0.131094
0.27367
-0.119044
0.183467
0.288953
-0.472419
-0.230176
0.191254
0.0902659
-0.28152
0.0171346
-0.165082
0.0255698
0.0021046
-0.595755
0.489576
-0.340782
0.221032
0.00687412
0.0657919
-0.526772
0.431278
-0.159412
0.249585
-0.0901738
-0.0831666
-0.307689
0.103071
0.204618
0.455594
-0.272127
0.304269
-0.47233
-0.00320827
0.0444672
-0.0412589
0.357811
0.158504
0.0879837
-0.122398
0.0132222
0.109176
0.359641
0.139596
-0.528749
0.612732
0.100205
-0.154181
-0.360133
-0.740906
0.290409
0.450496
-0.0838934
0.196281
-0.112387
0.0170544
-0.102199
-0.0993309
-0.607733
0.188541
0.419192
0.35547
-0.302191
-0.0871508
-0.138904
0.203511
-0.312984
-0.000600052
0.029453
0.0456707
0.528349
-0.312643
-0.427628
-0.194563
0.622191
-0.0491295
0.441322
-0.583415
0.142093
-0.0659011
-0.435879
-0.305027
0.0634016
-0.0585992
-0.00879267
-0.103775
-0.633223
0.19028
0.442943
-0.168971
0.0766792
-0.00319437
0.0738311
0.343322
-0.272457
-0.0708657
0.0867657
-0.0117003
0.0179311
-0.00623076
-0.0754354
-0.00968037
0.0851158
0.112173
-0.0958045
0.111798
0.00992295
0.0203835
0.0103402
-0.1344
0.225875
0.0922508
0.100583
0.0736555
-0.00212573
-0.0182423
0.476817
-0.158427
-0.31839
-0.0105733
0.0450666
0.202325
0.0453738
-0.0948482
0.286102
0.287418
-0.10838
-0.105884
0.101987
-0.391351
0.289365
0.126096
-0.0131203
-0.112976
-0.0158981
0.212206
-0.196308
0.58938
-0.135899
0.274128
0.114955
-0.132203
0.194665
-0.062462
-0.153395
0.0813615
-0.128043
0.044379
0.145159
-0.510433
0.365275
0.365189
-0.648738
0.283548
-0.413387
0.567355
-0.153967
0.289293
0.133505
0.105547
-0.478087
0.243335
0.131178
-0.138922
-0.41371
0.0478139
0.194005
-0.241819
0.129234
-0.138026
-0.40527
0.596114
-0.190843
0.0520422
-0.261407
-0.0568164
-0.419381
0.543475
-0.124094
-0.213824
-0.380255
0.301272
-0.15937
0.00236413
0.00119439
-0.00355851
0.60464
-0.131005
-0.0374721
-0.0390722
0.360289
-0.564752
-0.378553
0.28545
0.0931036
-0.570415
0.0593173
0.511098
0.454795
-0.0969847
0.0741807
-0.0764124
0.128195
-0.0112849
-0.200225
0.116331
0.19444
-0.321294
0.126854
-0.126235
0.518853
-0.392618
0.269052
-0.264647
-0.581786
0.176516
0.168582
0.118836
-0.253394
-0.377876
0.00191383
-0.0550091
0.516793
0.239996
0.103326
0.237519
0.135782
0.226358
-0.242257
-0.600112
0.460091
0.140022
-0.0674962
0.0982174
-0.0307213
-0.170392
-0.135407
-0.357255
0.507327
-0.331301
0.1273
0.00864933
0.369376
-0.105991
-0.580685
0.323595
-0.113699
0.362296
-0.164058
0.075201
0.0888574
0.147286
-0.181912
-0.0126766
0.0760782
0.237202
-0.280644
0.0434422
-0.508987
0.207309
-0.472217
0.314282
0.157934
-0.000529466
-0.00219657
0.00272603
0.298084
-0.112203
-0.185881
0.101218
0.0901488
-0.191367
-0.0286293
-0.0881342
0.0499093
-0.0617639
0.0118546
-0.0125713
-0.0529445
0.0655158
-0.110118
-0.019372
0.12949
0.145668
0.331149
0.082052
-0.181672
0.0431465
-0.00498681
0.157231
-0.0319481
-0.110117
-0.106745
-0.0270207
0.00541137
0.303218
0.0276943
-0.0181892
-0.18392
0.0984808
0.0973629
-0.287196
0.189834
0.208618
-0.0637096
-0.144908
0.588988
-0.228204
-0.360783
0.225488
-0.360423
-0.073901
0.288804
-0.399758
0.110955
0.276639
0.0848586
-0.361498
0.420414
-0.131121
0.0315043
-0.0422459
0.44093
0.10504
0.471133
-0.0302406
-0.440893
0.00495923
0.0190939
0.00387838
-0.0229723
0.182643
0.433448
-0.253732
0.403371
-0.149638
0.519753
-0.0333437
-0.486409
0.216693
-0.271586
0.0548936
-0.00841429
0.0490827
-0.0406684
-0.078916
-0.156095
-0.167948
0.0214674
0.220937
-0.242405
-0.470893
-0.16233
-0.591123
0.233333
0.193645
-0.188258
-0.253068
0.0731089
0.228311
-0.0715083
-0.582374
0.438502
0.143872
0.47264
-0.0323763
0.0828733
-0.33302
0.0736113
0.226082
-0.299693
0.137288
-0.553578
0.41629
-0.0760379
-0.00853005
0.0845679
0.373738
-0.254962
-0.118776
0.305113
-0.110673
-0.18211
-0.300462
0.482572
0.0138497
0.0828958
-0.1592
0.220926
0.603745
-0.171056
-0.432689
-0.457247
0.135674
0.168478
0.203851
-0.460734
0.117626
-0.329471
0.211845
0.108744
-0.207502
0.098758
0.0990838
0.372049
-0.0835756
0.00814016
-0.529576
0.110195
-0.121199
0.596806
-0.430323
0.567611
0.633144
-0.118859
0.39753
-0.507579
0.122137
-0.0979914
0.132231
-0.00555782
-0.126673
0.0285122
-0.0262034
-0.00230882
-0.224649
0.0902494
-0.145708
0.162111
-0.0835324
-0.462468
0.28338
-0.270803
0.0844631
0.18634
-0.0827702
0.165105
-0.0823352
-0.170373
-0.137316
-0.0816593
0.0354797
-0.116916
-0.028608
0.145524
-0.161043
0.446952
-0.095914
0.356761
0.115106
0.437646
-0.552752
-0.104172
0.0878319
0.0163405
0.206876
-0.364445
-0.429321
-0.056679
0.118759
0.391035
-0.509795
0.00185572
0.122816
-0.548438
0.425622
-0.433949
0.03992
0.586012
0.624181
-0.224021
-0.400159
0.0434307
-0.0495573
0.106653
-0.266242
-0.264945
0.0451166
-0.112613
0.100011
-0.519315
0.419304
0.18833
0.435851
-0.396597
-0.116357
0.512954
-0.430762
-0.52708
0.366503
0.160576
-0.0240558
-0.165868
0.0596973
-0.367936
0.123761
0.249977
-0.0108582
0.0526284
0.0492518
-0.283229
0.175049
-0.0216808
-0.505092
0.493358
-0.34282
-0.212535
-0.0782547
0.29079
-0.257926
0.401958
-0.144032
0.000873866
0.125256
-0.126129
0.174653
-0.217281
0.289851
-0.0725699
0.129279
0.0694389
-0.371303
0.115831
0.255472
0.386563
-0.512939
0.126375
-0.570648
0.209078
0.36157
0.511932
-0.125369
0.61328
-0.46323
-0.15005
-0.291034
-0.132909
0.0991022
-0.0284411
0.000866664
0.401597
0.21891
-0.479179
0.606183
-0.016142
-0.590041
-0.586012
0.285318
0.109006
-0.394324
0.57223
-0.41983
-0.1524
-0.194978
0.0794116
-0.0341404
-0.0452712
-0.135909
0.111069
0.02484
-0.390358
-0.172274
0.0249916
0.541593
0.455457
0.000875562
-0.0888747
0.0952201
-0.0191538
-0.0760663
0.0138794
0.112217
-0.207079
-0.388264
0.507023
0.189545
-0.3231
0.137632
0.434598
-0.272732
0.293359
-0.0206272
0.00124772
0.446426
0.159757
0.1539
0.0547175
-0.119157
0.111694
0.00993081
0.110367
-0.120298
-0.0428223
-0.00653458
0.211487
0.0551822
0.244013
-0.2633
0.560642
-0.513208
-0.0474334
0.149285
-0.154686
-0.219048
-0.129231
0.34828
0.110541
-0.199685
0.00790379
-0.231848
-0.3388
0.0816217
0.0217388
-0.10336
-0.281489
0.181967
-0.456849
-0.0864973
-0.0176751
0.0531901
0.0262215
-0.443636
0.587862
-0.144226
-0.0922159
0.198549
-0.106333
-0.0929564
0.455895
-0.0926509
-0.0714075
0.587383
-0.452948
0.152562
-0.17681
0.0242487
-0.461831
-0.153206
0.238205
-0.0856435
0.129347
-0.40477
0.275422
0.134048
-0.0108007
0.0705387
-0.121789
-0.042788
0.164577
-0.365479
-0.120616
0.486096
0.575557
-0.101015
-0.241218
0.314829
0.0422573
-0.0348174
0.203492
-0.0944574
-0.199705
0.156491
0.0432134
-0.0145934
-0.0996485
0.0804947
0.023913
-0.00249821
-0.119291
-0.0716452
-0.0125686
0.0842139
-0.571629
0.143562
0.428067
-0.347704
-0.110057
0.457761
-0.0417752
-0.334666
-0.214085
-0.0591835
0.273269
0.321137
-0.417528
0.550577
-0.13305
0.497494
-0.0565634
-0.222366
0.243834
-0.00170898
0.0297825
-0.0280736
0.0487847
-0.0130825
-0.0357022
-0.0797707
-0.0478981
0.0939042
0.226088
0.127301
0.411815
-0.539116
0.0159789
0.226868
-0.106346
-0.120522
0.0836693
-0.224211
-0.223408
0.305441
0.114973
-0.219772
0.160593
0.0591785
0.0644867
-0.1742
0.109713
0.0142764
-0.118426
0.10415
-0.272787
-0.0337575
0.306545
-0.118633
0.0604743
0.00808452
0.133726
-0.136224
0.0508021
-0.280173
0.229371
-0.0442049
0.288218
-0.178985
-0.211216
0.398232
-0.296487
-0.101745
0.181131
-0.122213
-0.101914
0.159803
0.475134
-0.209392
0.0877344
0.121658
-0.168741
0.0760906
0.231375
0.11109
-0.42509
-0.446895
0.593377
-0.146481
0.0962352
0.050725
-0.0471092
0.25569
-0.0620444
-0.309154
0.423931
-0.114777
-0.00886466
-0.544632
0.553497
-0.0893942
-0.258217
-0.492734
-0.0281477
0.520881
0.00570183
0.116435
-0.0149648
-0.0720607
-0.198578
0.270639
0.330256
-0.0902598
0.41108
-0.157871
-0.25321
-0.0688916
-0.408635
-0.0796625
0.0850234
-0.116295
0.239905
0.197331
-0.0967478
-0.124355
0.19944
0.0862512
-0.0712478
-0.0150033
0.0872899
0.186329
-0.0836795
-0.121965
0.232671
-0.256337
-0.114965
0.132625
-0.030559
-0.10535
0.448608
0.166761
-0.615369
0.0335152
-0.491952
0.458436
0.48231
-0.122669
0.550787
-0.562777
-0.577796
0.112565
-0.116018
0.58076
-0.0575727
0.0535227
0.463811
-0.605324
0.141513
0.121054
0.433356
-0.55441
-0.00935513
0.0592644
-0.127257
-0.433618
0.560875
0.134727
0.276353
0.0472813
-0.0532231
-0.000599007
-0.202148
-0.407608
0.607768
-0.440716
0.292608
0.0598116
0.144744
0.370793
-0.515538
0.626729
-0.0715106
0.0813401
-0.437572
0.558626
-0.113126
0.408546
0.0937017
0.00231356
0.18625
-0.104198
0.228368
-0.0905731
-0.137795
0.411875
0.150636
-0.562512
0.177706
-0.0129214
-0.470311
0.612191
-0.141879
0.507096
-0.39199
0.0303691
-0.0286884
-0.00168075
0.570533
-0.158658
0.155293
0.506281
-0.0977354
-0.169777
0.434936
-0.265159
0.107763
0.230973
-0.338736
0.28403
-0.518342
0.234312
-0.52273
0.220198
0.302532
0.121339
-0.563879
-0.0178525
0.373322
0.503373
-0.221065
-0.282308
-0.0494224
0.0582719
-0.00884948
-0.650018
0.262475
0.387543
0.59433
-0.419627
-0.174703
-0.441094
-0.108922
0.550016
-0.272723
0.223292
0.0494313
0.13524
-0.0241705
0.430808
0.0759072
-0.506716
0.0637208
0.354178
-0.20791
0.561928
-0.354017
0.00274315
-0.172079
0.24205
-0.0699712
0.424239
-0.551495
-0.220304
0.380101
-0.475742
0.0956417
0.0333434
-0.0327112
-0.000632171
-0.155181
-0.111659
-0.105616
0.0287186
0.131129
-0.159847
0.0253981
-0.142314
0.524548
-0.424537
-0.38719
0.509818
-0.122628
0.445616
0.148714
-0.397835
0.297256
0.10058
-0.344598
-0.0898972
0.434496
-0.223601
-0.104824
-0.45896
0.563783
0.0875373
-0.130325
-0.510455
0.113858
-0.159861
-0.0599115
0.138107
-0.136555
-0.304974
0.441529
-0.157944
0.480407
-0.322463
-0.249117
0.381204
0.291948
-0.574733
0.234003
0.34073
-0.515803
0.389568
0.0517136
-0.00828288
-0.349988
0.250167
0.0998214
-0.0114745
-0.0988167
0.110291
0.626351
0.0432059
-0.52582
0.516956
0.0763238
-0.0795181
-0.577403
0.472579
0.0813995
-0.425998
0.40387
-0.11842
0.0626948
-0.0366953
-0.0259994
0.484869
-0.0129916
0.0796368
-0.0666452
-0.57286
0.341012
-0.326014
-0.233483
0.0561684
0.177314
-0.13523
0.559468
-0.422767
0.286212
-0.177987
0.561544
-0.383557
-0.0124387
0.114476
-0.102037
0.499969
0.343858
-0.463017
0.119159
-0.239069
0.29914
-0.0600707
-0.279494
-0.080088
0.240681
0.0810586
-0.0374726
0.0322524
-0.083525
-0.0707235
0.0581522
-0.0560304
0.0722335
0.206531
-0.278764
-0.0120303
-0.0421556
0.0541859
0.364206
0.124742
-0.466779
0.611566
-0.144787
-0.107237
-0.404013
0.51125
-0.428508
-0.0903076
0.518816
-0.17795
0.0935807
-0.13632
0.0929823
-0.182334
0.240543
-0.0582091
-0.351616
-0.158839
-0.603127
0.0976609
0.200297
-0.206376
0.285916
-0.0795402
-0.342156
-0.292151
-0.290623
-0.359395
-0.434179
0.570287
-0.136108
0.428287
0.142246
-0.190186
0.0586504
0.131535
0.15183
-0.503445
-0.0041487
0.0639603
0.422399
-0.557628
0.185252
-0.257313
0.426531
0.186749
0.136304
-0.391531
0.255227
-0.0790332
0.180251
-0.133551
0.507605
-0.374054
0.126099
-0.235127
0.318
0.560457
-0.420247
-0.140211
0.319756
-0.0600989
0.255394
-0.0181923
0.0648843
0.244986
-0.30987
0.370645
-0.0989081
0.324396
0.0823653
-0.0981729
0.0158076
0.0132724
-0.584445
0.410307
0.174138
-0.0135887
-0.0943228
0.107911
0.185321
-0.120834
-0.23849
0.0664113
-0.178301
-0.215644
0.270425
-0.0547805
0.28813
0.11025
-0.39838
0.0155969
0.104072
-0.119669
-0.135204
-0.424691
0.559895
0.00894149
0.0848595
-0.0938009
0.0749064
-0.0834365
-0.267482
0.0888645
0.178618
-0.481034
0.313086
-0.133217
0.437152
0.123306
-0.503579
0.370027
-0.129756
0.116635
-0.0512704
0.128267
-0.545795
-0.716547
0.268092
0.448455
0.436349
-0.389667
0.588273
-0.159986
0.0717781
0.0860528
-0.157831
-0.019678
-0.107872
0.12755
-0.225071
0.0670417
0.104801
-0.439558
0.334757
-0.419428
-0.00740658
-0.0540995
0.0615061
0.257688
-0.371386
0.00724837
0.0739378
-0.0811861
0.079139
-0.00495822