/*--------------------------------*- C++ -*----------------------------------*\
| =========                 |                                                 |
| \\      /  F ield         | OpenFOAM: The Open Source CFD Toolbox           |
|  \\    /   O peration     | Version:  v2012                                 |
|   \\  /    A nd           | Website:  www.openfoam.com                      |
|    \\/     M anipulation  |                                                 |
\*---------------------------------------------------------------------------*/
FoamFile
{
    version     2.0;
    format      ascii;
    class       volVectorField;
    location    "150";
    object      U_0;
}
// * * * * * * * * * * * * * * * * * * * * * * * * * * * * * * * * * * * * * //

dimensions      [0 1 -1 0 0 0 0];


internalField   nonuniform List<vector> 
14033
(
(1.03778 -0.0568495 0)
(0.874654 -0.142014 8.69968e-23)
(1.01384 -5.48951e-05 0)
(1.01938 -0.00149216 -2.71997e-22)
(1.01861 0.000182017 0)
(1.02334 -0.00152737 1.70005e-21)
(0.863098 0.0725959 9.98413e-22)
(1.026 -0.00924152 -5.70552e-22)
(1.01933 -0.00146982 5.56819e-22)
(0.76031 0.0278799 1.04018e-20)
(1.03111 -0.00356251 0)
(1.06142 -0.00331713 0)
(1.02774 -0.00942867 5.41909e-22)
(1.02747 -0.0090607 9.34047e-22)
(1.01798 7.17256e-05 2.21516e-24)
(1.05094 -0.00312234 0)
(1.03386 -0.00275206 -2.01223e-21)
(0.485932 -0.105597 0)
(1.02216 -0.00427286 0)
(1.03683 0.000622069 4.46125e-21)
(1.04759 -0.00278784 4.98015e-21)
(1.06133 -0.00296268 7.25164e-21)
(1.05695 -0.028982 -1.73277e-20)
(1.01865 0.000182901 1.86188e-24)
(1.02964 -0.0048767 0)
(1.02207 -0.00411879 0)
(1.0688 -0.0183049 -2.68826e-22)
(1.0653 -0.00228074 -1.3587e-20)
(1.07257 -0.0435733 7.03181e-21)
(1.06687 0.000559243 0)
(1.03973 -0.0104397 -2.54405e-21)
(1.02477 -0.0100925 5.45102e-22)
(1.07307 -0.0167809 0)
(1.03883 -0.0198757 2.65368e-21)
(1.00987 -0.0376168 -2.54619e-22)
(1.01415 -0.000177881 8.75682e-23)
(0.947585 -0.0317319 -1.6958e-20)
(0.717072 0.0313275 -1.162e-20)
(1.01921 0.000259834 -1.21426e-22)
(1.03152 -0.00550778 6.10684e-21)
(0.743414 -0.0831799 -1.75225e-21)
(1.04732 -0.00208159 -7.89495e-21)
(1.0219 0.00199045 0)
(1.01654 -7.83426e-05 1.67782e-22)
(1.02501 0.00671079 3.45083e-22)
(1.02234 0.00183728 0)
(0.772339 0.00410745 1.13543e-20)
(1.02328 -0.00162451 -7.34735e-22)
(1.06913 -0.0254892 2.58065e-20)
(1.01566 -0.0291965 1.4164e-20)
(1.02679 -0.00317717 2.18294e-21)
(1.01463 -0.000254367 0)
(0.698427 -0.0277122 -2.14465e-20)
(1.01946 -0.0619127 2.84473e-20)
(1.03412 -0.00240998 2.48577e-21)
(1.02815 -0.00926152 0)
(1.07086 0.000751312 -2.93125e-20)
(0.562664 -0.0134014 -1.24868e-20)
(1.03865 -0.0200596 -2.32355e-21)
(1.03922 -0.0103716 -2.43206e-21)
(1.02361 -0.00482978 6.75856e-24)
(1.01085 -0.0305461 -4.19428e-20)
(1.05027 -0.0226644 4.20438e-21)
(1.02169 0.00126741 -5.54362e-23)
(1.01621 -0.000236123 0)
(1.02078 0.000437673 -4.96689e-22)
(1.03491 -0.0552327 0)
(1.0668 -0.00740862 -2.88837e-20)
(1.02288 -0.00256383 -1.57971e-22)
(1.03383 -0.0138964 -1.5674e-21)
(1.01631 -0.000305461 3.28537e-23)
(1.01896 0.000213612 -2.06327e-23)
(0.764553 0.00409029 -7.25255e-21)
(1.03491 0.00204412 0)
(1.04986 0.00103343 -1.04153e-20)
(1.01949 1.81533e-05 1.66785e-22)
(1.0243 -2.48726e-05 -6.58196e-22)
(1.03391 -0.0148529 -3.20403e-21)
(0.37944 0.0454838 0)
(1.06787 -0.000531437 -1.09932e-20)
(1.02279 0.00225742 -3.05926e-22)
(0.422592 0.0341981 3.70938e-21)
(0.696478 -0.0268156 -4.28375e-20)
(1.02109 -0.00173713 -6.49079e-22)
(1.01667 -0.000132721 0)
(1.01864 5.90362e-05 1.30593e-22)
(1.02085 -0.00498563 0)
(1.01822 -0.0668788 -1.85112e-20)
(0.79566 0.00301712 1.14741e-20)
(1.03647 0.00117034 -8.63031e-21)
(1.01777 -0.000239974 -1.848e-22)
(1.02241 0.00285159 0)
(1.02042 0.00288947 0)
(1.08315 -0.00145173 -2.86207e-22)
(1.02244 -0.00200196 3.17153e-22)
(0.973904 -0.0280624 0)
(1.02714 -0.00328608 0)
(1.01258 -7.08631e-05 2.2153e-22)
(0.832606 -0.0312525 0)
(1.01713 -0.000382888 2.1326e-22)
(1.02084 0.000445067 6.68531e-22)
(1.02304 -0.00164686 3.88634e-22)
(1.02227 -0.00170403 -8.98773e-23)
(1.02465 -0.0014597 0)
(0.76579 0.00428145 1.20447e-20)
(1.07021 -0.00975745 -1.50005e-20)
(0.83226 0.00347321 0)
(1.02116 -0.00185752 0)
(1.06621 -0.00732647 1.13453e-22)
(1.01403 -0.00017611 -2.4182e-22)
(0.794387 0.00289062 0)
(1.00847 -2.86497e-05 0)
(1.0159 -0.000158788 -3.8752e-22)
(1.02331 -0.0311797 0)
(1.0056 1.1495e-05 0)
(1.02397 0.000157334 -5.67447e-22)
(1.07023 -0.000707627 2.13755e-20)
(1.01976 0.000339925 4.82332e-23)
(1.08053 -0.0026374 -4.3548e-20)
(1.07265 -0.016702 0)
(1.01915 -0.000654252 0)
(1.0578 -0.00764714 3.78879e-21)
(-0.0154032 0.0560184 2.59191e-20)
(1.02096 -0.00559898 -3.28508e-21)
(1.08577 -0.0063558 -1.4323e-20)
(1.02132 0.00292917 0)
(1.01945 0.000217598 -3.96189e-22)
(1.01786 -0.0248088 3.37223e-22)
(0.573456 0.0120211 1.15973e-20)
(1.024 -0.00128913 0)
(0.763106 0.00501089 6.44209e-21)
(1.01638 -8.59434e-05 1.54746e-22)
(1.0194 0.000294835 -7.00979e-25)
(0.94703 -0.00965892 -2.87235e-21)
(0.785961 0.00362276 0)
(1.03413 -0.0132011 -2.0064e-21)
(1.06605 -0.00263935 1.13596e-20)
(1.01554 -0.000172367 0)
(1.02415 -0.00124242 1.88657e-21)
(1.02245 0.00473213 -1.0541e-22)
(1.04115 -0.0158472 0)
(1.07797 -0.000289967 1.84562e-20)
(1.06283 -0.0116795 -6.31485e-21)
(1.0512 -0.00468644 0)
(1.06986 -0.0445484 1.09092e-20)
(1.02597 0.00562621 -5.32816e-22)
(1.01903 -0.000642136 6.31648e-23)
(1.05766 -0.015024 0)
(0.96178 -0.029786 5.7088e-20)
(0.987219 0.0185835 -3.4234e-21)
(0.964973 -0.0291929 6.32703e-21)
(1.04089 -0.0154964 2.39528e-21)
(1.0158 -0.000255643 -2.6377e-22)
(1.02267 -0.0106278 1.73842e-21)
(1.02299 -0.00170528 -7.45013e-22)
(0.72757 -0.00277694 1.81689e-20)
(1.02589 -0.00222788 1.01416e-22)
(1.01922 -5.4752e-05 6.6121e-22)
(1.02541 -0.00226763 -1.00631e-21)
(1.0182 0.000115888 0)
(1.01804 -0.0121953 0)
(1.06916 -0.0192646 -1.51426e-20)
(0.979476 -0.0135122 4.96712e-21)
(1.01893 -0.000765218 0)
(1.04829 -0.00822612 2.63126e-21)
(1.01826 -0.00028096 0)
(1.04013 -0.0151316 2.50157e-21)
(1.05576 -0.0041288 0)
(0.279196 -0.00425383 4.09406e-20)
(1.02342 -0.0044726 1.90056e-22)
(1.05123 -0.00358362 4.63386e-22)
(1.06637 -0.00290743 -1.61223e-20)
(1.06126 -0.0036047 -7.97543e-21)
(0.495189 0.0224264 -8.23606e-22)
(1.01951 -2.94942e-06 -1.69308e-22)
(1.02334 -0.00423812 -2.319e-22)
(1.0723 -0.0103198 1.07877e-20)
(0.612568 0.0147003 -1.17357e-20)
(1.06083 -0.00399833 0)
(1.05134 -0.00481476 -6.55612e-21)
(1.03822 -0.0477127 -3.58948e-22)
(0.594694 0.0159173 -5.98262e-21)
(1.03916 -0.0088243 4.22463e-21)
(1.02298 -0.000520125 6.0928e-22)
(1.01399 -0.000160361 -2.07753e-22)
(0.801949 0.00317598 1.10808e-20)
(0.84627 -0.01501 0)
(1.02413 -0.000817673 0)
(0.27467 -0.0124901 0)
(0.79956 0.00355471 -1.24746e-20)
(1.0827 -0.0199883 -1.32729e-20)
(1.03971 -0.0143741 4.45657e-21)
(1.02144 -0.011859 -1.20726e-21)
(1.02426 -0.000745134 1.29607e-21)
(1.08687 -0.00824154 0)
(0.837441 -0.0612891 6.93311e-21)
(1.05063 -0.0213085 0)
(0.599691 0.0119906 -1.42768e-20)
(1.01932 -0.00143186 -5.21913e-22)
(1.01387 -7.23911e-05 6.44588e-22)
(1.02155 -0.00383818 -5.04879e-22)
(1.03978 -0.0138247 -3.90941e-23)
(1.01566 -0.000191123 -5.49286e-22)
(1.03957 -0.0474847 0)
(1.04044 -0.0157294 2.35927e-21)
(1.0156 -0.000159424 4.19335e-22)
(1.05726 -0.00787398 3.48803e-21)
(1.07125 0.000349676 4.20214e-20)
(1.04756 -0.00158625 4.58799e-21)
(0.976077 0.00229798 0)
(0.548181 0.0134463 -2.04712e-20)
(1.07027 0.000769895 0)
(1.07772 -0.00294128 0)
(1.08679 -0.00846491 0)
(1.01875 0.000199716 3.97822e-23)
(1.01833 -0.0112832 4.25176e-23)
(1.01646 -0.00035184 7.12717e-22)
(0.977555 0.0279842 -1.14013e-21)
(1.0129 -0.000159104 6.07211e-22)
(1.03661 -0.0198405 -8.41769e-22)
(1.04724 -0.00113612 8.43278e-21)
(1.02201 0.000760403 0)
(1.02177 0.000670962 -5.88564e-22)
(1.02098 -0.00553143 2.08948e-22)
(1.02135 -0.000536779 9.78464e-22)
(1.02144 -0.000815399 0)
(1.05658 -0.0264379 -3.34823e-21)
(1.04046 -0.0131959 -4.72339e-21)
(1.01917 -0.00134438 5.29968e-22)
(1.02072 -0.00103564 -4.71184e-23)
(1.01708 -8.50312e-05 -3.75361e-22)
(1.06981 -0.0104152 1.61837e-20)
(1.0232 0.000867677 0)
(1.01992 0.000358171 2.20842e-23)
(0.965622 0.0381828 3.05251e-21)
(0.864103 -0.0169512 2.04473e-20)
(1.06951 -0.0251307 1.59869e-20)
(1.02114 -0.00133551 5.49187e-23)
(1.01898 -0.00124839 1.68842e-22)
(1.01954 -0.00103309 -3.13571e-23)
(-0.0233043 0.0468869 1.18972e-20)
(1.03429 -0.0135613 4.14169e-21)
(1.0178 -0.000435927 -1.7192e-22)
(1.01675 -0.000109582 -1.62983e-22)
(1.04034 -0.0136308 0)
(1.02098 -0.00115099 -2.79365e-22)
(0.765412 0.00366641 -2.54902e-20)
(0.474607 0.0185018 2.7392e-20)
(1.02137 -0.00478163 -1.59954e-21)
(1.02563 -0.00428066 1.8228e-22)
(1.02176 -0.000905882 -6.92263e-22)
(0.554291 0.0144914 1.07867e-21)
(1.02047 -0.000300362 3.2152e-22)
(1.07776 -0.00262521 -1.66332e-20)
(1.01914 -0.00131871 -5.85229e-22)
(0.828415 -0.0837682 1.5683e-22)
(1.01957 -0.00100976 -8.39351e-22)
(1.02323 -0.00523333 0)
(1.02044 0.000107531 0)
(1.0769 -0.0451718 0)
(1.01477 -2.66852e-05 2.17438e-23)
(0.590326 -0.0971425 0)
(1.03513 -0.0399092 3.79821e-22)
(1.0364 -0.0188906 -6.94329e-22)
(1.04006 -0.00683141 2.00307e-21)
(1.00377 0.0207114 -1.46898e-21)
(1.02295 0.000660802 2.20158e-22)
(1.06732 -0.000607141 0)
(1.01146 0.00403167 1.13059e-21)
(0.612269 0.0118036 2.16521e-20)
(1.03518 0.00133142 -2.61005e-21)
(0.90428 -0.0152785 2.33362e-20)
(1.0167 -7.52492e-05 0)
(1.04957 -0.0171587 -1.0054e-22)
(1.08546 -0.0322059 -2.26618e-20)
(1.01887 -0.00118141 0)
(1.01701 -8.07824e-05 4.2506e-22)
(1.06552 -0.00251424 3.83904e-20)
(1.02136 -0.00463004 -7.82159e-22)
(1.08046 -0.0495985 0)
(1.07106 -0.00987665 8.2502e-21)
(1.019 -0.000825793 -3.90741e-22)
(1.04718 -0.0639158 -2.27875e-21)
(1.04998 -0.00131738 0)
(0.349413 -0.0299626 2.57648e-20)
(0.960995 0.0185397 0)
(0.754114 0.00429863 -4.0468e-20)
(1.02043 -0.000124247 0)
(0.480886 -0.00603697 0)
(1.08324 -0.0176845 2.9549e-20)
(1.02086 0.00480242 -1.97549e-21)
(1.0606 -0.00470269 2.02133e-20)
(1.06212 -0.0112576 -1.83406e-20)
(1.01734 -0.0427644 -7.96708e-23)
(1.02346 -0.00402862 0)
(1.02417 0.000577424 2.49793e-22)
(1.02243 0.000480397 0)
(1.01901 -0.00125548 5.69491e-22)
(1.0237 0.000524929 0)
(1.0211 -0.00389995 0)
(1.02214 0.000544693 0)
(1.04806 -0.064764 0)
(0.790199 -0.070087 0)
(1.03709 -5.75553e-05 0)
(1.03912 -0.019141 7.87594e-22)
(1.03336 0.00602371 3.03621e-22)
(1.02692 0.000729774 0)
(1.02268 -4.4212e-05 0)
(0.791569 0.00314686 1.61788e-20)
(1.03203 -0.00320228 3.25952e-21)
(1.06596 -0.00366205 1.54561e-20)
(1.01944 -0.000963898 4.20299e-22)
(1.06616 -0.0287766 1.97717e-20)
(1.06343 -0.0109489 -2.17022e-21)
(1.07431 -0.0412696 2.61118e-20)
(1.03669 -0.00363856 0)
(1.01684 -0.000269484 2.20689e-22)
(1.03682 -0.019389 -3.76311e-21)
(1.02204 -0.0185907 -7.96824e-22)
(0.561059 0.0142186 0)
(0.877877 -0.14573 1.18827e-21)
(1.06906 -0.0105347 3.02285e-20)
(1.03716 -0.0148024 4.45349e-21)
(1.02481 -0.0059008 1.97017e-22)
(0.982061 -0.0429479 0)
(0.962613 -0.0666121 0)
(1.03758 8.25001e-05 3.49948e-21)
(1.02214 -0.00146407 -2.19781e-22)
(0.811692 0.00327349 -1.19376e-20)
(1.05331 -0.0208474 0)
(1.02323 -0.0198354 2.40721e-22)
(0.451356 0.100322 -2.24271e-21)
(0.74682 -0.0410215 2.81291e-20)
(1.04831 -0.00796656 -8.3958e-22)
(1.01773 3.96476e-05 -8.20105e-23)
(0.957997 -0.0119201 -1.61245e-21)
(1.06605 -0.00251986 -1.56546e-20)
(1.02099 -0.00361766 -9.61995e-22)
(0.893748 -0.0101964 0)
(1.03385 -0.000300508 -6.71442e-21)
(0.569115 0.0136321 -1.94165e-20)
(1.06326 -0.016853 8.82748e-21)
(1.01944 -0.000948353 0)
(1.03342 -0.000606157 6.1642e-21)
(0.997708 0.0112341 2.68994e-21)
(1.02755 -0.00602152 4.49697e-23)
(1.05709 -0.00357192 1.52182e-20)
(1.02252 -0.00150301 -3.83227e-22)
(0.795594 -0.076322 0)
(0.860981 0.061659 -2.99281e-22)
(1.02245 0.000317511 0)
(1.02643 -0.00428696 0)
(0.794113 0.00293791 -1.1251e-21)
(1.05332 -0.0216483 9.15159e-21)
(1.02152 -0.00358508 7.15311e-22)
(1.01902 0.000230714 0)
(1.02727 0.00095194 0)
(0.771079 -0.0187709 0)
(1.02128 -0.00121407 -9.34741e-23)
(1.02533 -0.00169119 1.15418e-21)
(1.02156 -0.00368206 0)
(1.04342 -0.00344204 9.85399e-22)
(-0.018385 0.0518414 1.11544e-20)
(1.02167 -0.00371334 -1.42844e-21)
(1.01812 6.39222e-05 -2.64671e-22)
(1.0393 -0.0386503 -1.22073e-21)
(1.04303 -0.00698268 -5.45381e-22)
(1.02166 0.00104321 0)
(1.03471 -0.0066043 0)
(1.02271 0.000885286 0)
(1.02239 -1.17883e-05 1.08887e-22)
(1.02251 0.000663358 -3.69702e-22)
(1.00481 -3.63931e-05 2.65325e-22)
(1.0241 -0.00142985 0)
(1.06593 -0.00377451 -1.54019e-20)
(0.514768 0.0877357 2.31936e-21)
(1.03563 -0.0058251 2.91372e-21)
(1.04271 0.00342036 0)
(0.987503 -0.0550773 5.96094e-22)
(1.01757 -5.54137e-05 -1.09002e-22)
(1.02034 -0.000742436 0)
(0.992885 -0.0411195 -4.53535e-21)
(1.02341 -0.00533323 -1.06091e-24)
(0.993044 0.00376993 -2.19457e-21)
(0.947074 -0.0717995 -1.78339e-20)
(1.02017 -0.00161074 1.59733e-23)
(0.827341 0.00157958 0)
(1.02112 -0.00104112 2.23262e-22)
(1.05036 -0.00214449 -2.67316e-21)
(1.06458 -0.0058759 -1.10794e-20)
(1.0228 0.000109608 -5.61179e-22)
(0.582843 0.0141785 0)
(1.04133 0.00171689 4.976e-21)
(1.01797 -0.0103197 -1.52454e-21)
(1.03392 -0.0454804 0)
(0.414839 0.101956 0)
(1.01993 -0.0272187 -5.64757e-23)
(0.611554 -0.00138235 2.35037e-20)
(1.05665 -0.0337878 -1.475e-20)
(1.02359 0.00055633 0)
(1.05317 -0.0421961 0)
(1.0232 -0.00543498 0)
(1.01984 0.000218431 -3.8758e-22)
(1.02112 0.00199356 1.21923e-22)
(0.997561 -0.0410075 4.65336e-21)
(1.02153 -0.00065816 -5.61833e-22)
(1.03605 -0.0215098 -2.91045e-22)
(1.01923 0.0002552 1.06571e-22)
(1.02359 -0.00560656 1.09819e-23)
(1.08579 -0.0048544 -2.94757e-22)
(0.751669 -0.00494197 -3.26585e-22)
(1.07056 -0.000961795 -1.08597e-20)
(1.01399 -0.000121775 7.98509e-22)
(0.579472 -0.0247016 5.84817e-21)
(1.02183 -0.000283088 0)
(1.02604 -0.00640007 5.60918e-22)
(1.04117 -0.00240825 2.8768e-22)
(1.02746 0.00136169 3.84487e-22)
(1.02351 -0.00426487 0)
(-0.0159995 0.0519926 -4.65746e-20)
(1.04121 -0.0167314 -2.62805e-21)
(1.04429 -0.0380705 0)
(1.05588 -0.00692057 5.22722e-21)
(1.01881 0.000231935 0)
(1.01735 -0.000411338 1.46702e-22)
(1.0239 0.000420806 0)
(1.03669 -0.0215095 -4.15908e-22)
(1.01798 7.34385e-05 -1.87749e-23)
(1.0488 -0.0180057 0)
(1.02078 -0.00513958 0)
(1.01898 -0.0102224 1.12889e-21)
(1.03121 -0.00502138 1.03343e-21)
(1.03907 -0.0125697 3.92431e-21)
(1.0245 -0.00342458 2.65599e-22)
(1.03856 -0.00689161 -1.98022e-22)
(1.02151 -0.00337866 0)
(1.03509 -0.010198 -2.70872e-21)
(1.0223 -0.00153541 0)
(1.0299 -0.0291813 3.31606e-21)
(0.886309 0.0540281 -1.44758e-21)
(1.07827 -0.0430051 -1.72061e-20)
(1.02126 -0.00101983 2.49476e-22)
(1.02608 -0.00428258 0)
(1.01147 -4.66959e-05 0)
(1.02211 -0.0034473 -2.77591e-21)
(1.01608 -0.00032505 4.75565e-22)
(1.05686 -0.0027086 -5.70594e-21)
(1.02356 -0.0163768 0)
(0.885562 0.0500511 -1.4666e-21)
(1.02067 -0.00208679 5.3896e-22)
(0.778161 0.00251673 0)
(1.02259 -0.000576769 -1.96785e-22)
(1.01344 -0.000145808 -2.82481e-22)
(1.06662 -0.0104917 -1.21522e-21)
(1.00531 1.9616e-05 2.55838e-22)
(1.08071 -0.0204451 0)
(1.06669 -0.00434159 3.44139e-22)
(1.02115 -0.00230055 -6.50451e-23)
(1.01793 6.3298e-05 0)
(1.05135 -0.01183 -1.32207e-20)
(1.03133 -0.00545396 -4.68393e-21)
(0.775053 0.00388955 -3.57249e-21)
(1.07186 -0.0543847 0)
(1.06958 0.00124116 -9.69799e-21)
(1.01751 -4.42272e-05 3.09342e-22)
(1.02004 -0.00153586 0)
(1.00939 -0.0565214 -2.98741e-22)
(1.01348 -0.000229556 -1.67408e-22)
(1.02051 -0.000452786 -2.87459e-22)
(1.08058 -0.047522 0)
(1.03526 -0.0106368 0)
(1.04886 -0.0187599 -8.64578e-21)
(1.02172 -0.00169557 -1.4751e-21)
(1.02273 0.00215083 -4.24616e-22)
(1.03324 -0.0017273 0)
(0.639159 -0.00262879 0)
(1.02131 -0.00431672 0)
(1.06919 0.00113893 1.56858e-20)
(1.01824 -0.00919679 -7.68263e-23)
(1.08073 -0.0518587 0)
(1.02143 -0.00177694 3.36941e-22)
(0.810947 0.00282052 5.17965e-21)
(1.02246 0.00191716 0)
(0.783001 -0.0688323 -7.45462e-21)
(0.788425 0.00427976 1.26609e-20)
(1.02172 0.0010151 2.70449e-22)
(0.571565 -0.0260984 1.27157e-23)
(1.01598 -0.000280748 -1.22496e-21)
(1.06591 -0.00781646 7.27481e-21)
(1.01891 -0.000753028 2.58146e-22)
(1.03006 -1.55264e-05 6.39504e-21)
(0.514609 -0.0258263 4.93802e-20)
(0.602276 -0.0566106 2.87417e-20)
(1.06085 -0.00454891 -2.32705e-20)
(1.02158 -0.00160981 -3.48868e-22)
(1.03546 -0.00534018 0)
(1.06576 -0.0021667 -8.34171e-21)
(0.806209 -0.00340113 2.36738e-21)
(1.03937 -0.00955409 0)
(0.977251 -0.0378243 5.33559e-21)
(1.0272 0.00110321 0)
(1.0177 -0.00952017 -2.22871e-21)
(1.08133 -0.0194387 0)
(0.946911 0.0296522 -1.058e-21)
(1.05624 -0.0315741 0)
(1.01953 0.000227802 2.56151e-22)
(1.01768 -0.00048047 1.26357e-22)
(0.976067 -0.0667443 -7.26165e-22)
(1.02101 -0.00222231 0)
(1.06507 -0.021118 1.7993e-20)
(1.0196 -0.000290411 0)
(1.01707 -0.000393877 7.51379e-22)
(0.802311 0.00272792 0)
(1.0209 -0.00146035 4.79338e-22)
(1.02128 -0.00443917 1.70068e-21)
(1.03442 -0.0124119 0)
(1.05825 -0.0160601 0)
(1.0194 -4.87492e-05 -1.60521e-22)
(0.819521 -0.0578911 -2.55113e-21)
(0.881507 0.0362094 7.51625e-21)
(1.02142 0.000633732 4.12312e-22)
(1.01279 -0.0311434 0)
(1.02125 0.00049956 -4.11076e-22)
(1.02301 -0.00533156 1.44579e-22)
(1.02318 -0.000102537 0)
(1.03425 -0.00663651 0)
(1.03223 -0.0150359 0)
(1.02232 0.00155797 0)
(1.02966 -0.00013041 -4.30519e-21)
(1.02417 -0.00608349 0)
(1.03916 -0.0148459 0)
(1.02111 -0.00478266 4.05198e-22)
(0.753255 -0.0165194 0)
(1.0215 -0.00146157 -8.04299e-22)
(1.0122 -7.86254e-05 -7.58146e-22)
(1.02324 -0.00666791 -3.43568e-23)
(1.02131 -0.00157249 9.64281e-22)
(1.01892 -0.000323398 4.87778e-22)
(1.0189 -0.000351635 2.64349e-22)
(1.07271 -0.0096143 -3.53772e-20)
(1.0365 -0.017966 -9.92735e-22)
(1.0855 -0.0329243 1.07327e-20)
(1.01765 2.88419e-05 0)
(1.02348 0.000751729 0)
(1.00646 -0.0273962 0)
(1.04028 -0.00649497 0)
(0.96544 -0.00543604 0)
(1.0221 0.000640008 -4.56367e-23)
(1.07674 -0.0013806 -1.55804e-20)
(1.02082 -0.0213083 7.62817e-22)
(1.02205 0.00186698 0)
(0.58969 0.01113 -1.40245e-20)
(1.01928 0.000271799 1.01769e-23)
(1.02221 0.000754699 4.08835e-22)
(1.01039 -0.00534182 0)
(1.06758 -0.029103 -3.11431e-20)
(1.02142 -0.00144261 1.59555e-23)
(1.03949 -0.0130915 0)
(1.05549 -0.00628754 0)
(0.92637 -0.0168759 -4.22417e-20)
(1.03861 -0.0192067 3.80598e-21)
(0.785961 0.00417805 1.08289e-21)
(1.04949 -0.0106262 -5.93558e-21)
(1.03547 0.0039329 -5.43449e-21)
(1.0477 -0.00629254 0)
(1.0193 0.00151794 5.88551e-23)
(1.01987 -0.0267703 8.65454e-22)
(1.03454 -0.0127586 0)
(1.01841 0.000116902 -2.36578e-22)
(1.02056 -0.00198217 -1.07383e-21)
(1.07933 -0.00109459 0)
(1.0098 0.00439424 0)
(1.08811 -0.0259943 -3.02281e-22)
(1.01887 -0.000329042 -6.02081e-22)
(0.558267 -0.0619846 -2.48179e-20)
(1.0206 -0.0021892 -4.52591e-22)
(0.361319 -0.0186627 -3.95613e-20)
(0.612541 0.00959361 0)
(1.04197 0.00265809 0)
(0.921929 -0.0141107 2.10749e-20)
(1.04774 -0.00637889 0)
(1.03229 -0.0108004 -2.70406e-21)
(1.02304 0.000703589 2.86158e-22)
(1.01971 0.00020396 5.1985e-22)
(1.02001 6.52606e-05 0)
(1.07252 -0.0321645 -1.44097e-20)
(1.03 -0.00918408 0)
(1.06911 -0.0240716 6.9146e-21)
(1.01919 3.73035e-05 1.58874e-22)
(1.02138 -0.00416551 0)
(0.938316 -0.146584 0)
(1.04116 0.00160216 0)
(1.01298 -2.55773e-05 0)
(1.04243 -0.0142585 3.57453e-22)
(1.02366 -0.00709592 0)
(1.02052 -0.00218365 4.33972e-22)
(1.01976 0.000347806 -2.2237e-24)
(1.05419 0.00668739 0)
(1.01192 -3.36109e-05 0)
(1.03164 -0.0149287 9.7081e-22)
(1.02116 -0.000339138 0)
(1.02344 0.000851155 1.8916e-23)
(1.0195 -0.0195698 0)
(0.807337 -0.025321 2.33726e-21)
(1.04716 -0.000146124 -8.2644e-21)
(0.448955 -0.00366495 -1.05849e-20)
(0.875441 -0.0776603 1.7695e-20)
(0.778722 0.000745425 -4.26733e-20)
(1.06508 -0.00817163 0)
(0.997922 -0.0190574 -8.00357e-22)
(1.01048 -0.0010762 -7.75414e-22)
(1.01192 -0.00745537 0)
(1.02991 -0.00878966 0)
(1.02149 -0.00168303 -1.18415e-21)
(0.781055 -0.00684702 2.06785e-21)
(1.01951 0.000200188 0)
(1.02142 0.0019632 0)
(1.02209 -0.00402291 4.75882e-22)
(0.705946 -0.0140302 -1.30077e-20)
(0.568737 0.0148275 -1.85982e-20)
(0.604147 0.0148727 5.15377e-21)
(1.01721 -0.000398578 0)
(1.02115 -0.00580169 2.22315e-21)
(1.04751 -0.000535166 4.52389e-21)
(1.02309 -0.000760482 -8.10005e-23)
(1.0553 -0.00362847 -1.99869e-20)
(0.995551 -0.0133798 6.72768e-22)
(1.04079 -0.0249208 0)
(1.03703 -0.0178575 1.61653e-22)
(1.0587 -0.00298328 2.94486e-20)
(1.01697 -0.000100326 -2.31685e-22)
(1.0232 -0.00300289 0)
(1.01685 -0.000101652 0)
(1.06814 -0.000715813 1.31363e-20)
(1.03274 -0.0101005 -1.71374e-21)
(1.04161 -0.0184328 0)
(1.01825 0.00012878 5.24186e-23)
(1.0318 -0.0104708 1.02646e-22)
(1.06797 -0.0236246 -2.86414e-20)
(1.01988 4.04925e-05 -7.36407e-23)
(1.06464 -0.0198622 -2.40928e-20)
(1.02462 -0.00341461 -9.68267e-22)
(1.02302 -0.00413804 -1.04031e-22)
(1.07178 0.00471532 -8.3412e-21)
(1.06823 -0.0045925 9.96029e-21)
(0.848844 0.000761264 0)
(1.06539 -0.00781497 -7.15705e-21)
(1.01706 -0.000369898 -2.38456e-22)
(1.01899 -0.000829937 2.38728e-22)
(1.02369 -0.0002631 -7.55986e-23)
(1.05043 4.99954e-05 -5.53706e-21)
(1.04011 -0.0187718 -6.73395e-22)
(1.03439 0.00145393 0)
(1.02134 -0.00420279 0)
(1.01699 -0.0195604 -7.82443e-22)
(0.965525 -0.00112445 3.98723e-21)
(1.01505 -9.31018e-05 -2.10648e-22)
(1.02021 -0.000937664 2.32275e-23)
(0.713765 -0.0357136 -4.91222e-20)
(1.02166 0.000584514 -3.81235e-22)
(1.01877 0.000200367 -1.0005e-22)
(1.02321 -0.00127495 5.24341e-22)
(1.05879 -0.037092 0)
(-0.0281962 0.0412549 0)
(1.03497 0.00192614 -4.02766e-21)
(1.08763 -0.0104705 0)
(1.02281 -0.00490228 1.79488e-22)
(1.0082 -0.0361709 -9.51404e-23)
(1.02295 0.00124843 0)
(1.02309 -0.000898251 2.96408e-24)
(1.02215 -0.00487198 -7.96557e-23)
(0.448104 -0.104069 0)
(1.01615 -0.0197322 -1.73947e-21)
(1.03217 -0.00983984 1.28503e-21)
(1.02157 -0.00348993 -6.52744e-22)
(1.02136 -0.000439872 5.43425e-22)
(1.0205 -0.00216182 3.49991e-22)
(1.04478 -0.0596761 3.10647e-21)
(1.04037 -0.0162122 -5.06386e-22)
(1.02735 0.00274351 3.83141e-22)
(1.08571 -0.006458 3.14129e-20)
(1.04146 -0.0678444 1.06536e-21)
(1.01825 0.000120604 0)
(0.982371 0.0139468 0)
(1.07561 -0.0557252 1.87969e-20)
(1.02056 -0.00118771 0)
(1.02773 0.00281691 -5.10043e-21)
(1.06031 0.00627594 0)
(1.06804 -0.00515265 -9.19325e-21)
(1.02185 0.000729645 0)
(0.767041 0.00240443 0)
(1.0169 -0.0337445 4.57899e-22)
(0.975271 -0.010715 -5.8882e-21)
(1.04893 -0.0167577 -3.17754e-21)
(1.03566 0.0117639 0)
(0.98426 -0.0162166 2.19988e-20)
(0.585387 0.0144624 -3.92527e-20)
(1.07044 -0.000365062 0)
(1.01822 -0.000210624 -9.93847e-22)
(1.01922 1.63648e-05 0)
(0.0288631 0.0290746 3.05335e-21)
(1.03785 -0.0279839 8.35776e-22)
(1.06454 -0.00818777 -1.2751e-20)
(1.0322 -0.00525474 -2.87838e-21)
(1.04353 -0.001026 -6.9829e-21)
(1.02719 -0.00606368 2.71748e-22)
(1.02198 -0.000763051 -1.21743e-21)
(0.797039 0.0751988 2.36261e-21)
(1.02793 -0.0198366 -2.84549e-22)
(1.0167 -0.0188692 0)
(1.0829 -0.0154474 -2.95265e-20)
(1.02152 -0.000752619 1.07164e-21)
(1.0155 -0.000264912 -5.22349e-22)
(1.018 -0.000152562 1.54292e-22)
(1.08748 -0.0105613 0)
(1.04181 -0.0166405 -9.81967e-21)
(1.03713 -0.0142885 0)
(1.01751 -0.000233201 -1.83828e-23)
(1.01622 -0.000298933 -1.30686e-21)
(1.0475 -0.00278258 0)
(1.02653 -0.00359336 -1.92162e-22)
(1.04009 -0.0427771 6.2349e-21)
(1.05821 -0.00308927 -1.57134e-20)
(1.0179 -0.000168971 0)
(0.909342 -0.0792352 -1.75341e-20)
(1.01265 -9.01653e-05 3.73749e-22)
(1.0412 -0.0422859 0)
(1.05625 -0.00367641 5.38869e-21)
(1.02287 -0.000453722 -8.30613e-23)
(1.02628 -0.001209 0)
(1.01713 -0.000402539 1.79306e-24)
(1.07388 -0.00574076 -1.26154e-20)
(1.02322 -0.00313861 2.50062e-22)
(1.03776 -0.021733 2.13029e-22)
(1.036 0.00362438 2.784e-21)
(1.03644 -0.0203099 0)
(0.95085 -0.0179744 1.68726e-20)
(1.02043 -0.00166181 -1.41045e-22)
(0.72081 -0.0146761 0)
(1.03892 -0.0188201 0)
(0.836055 -0.025781 1.00523e-20)
(1.0418 -0.00482243 0)
(1.02459 -0.00436396 -7.27314e-23)
(1.05955 0.00683134 0)
(0.636646 0.0136477 -2.75965e-20)
(1.02285 -0.00590478 -3.79487e-22)
(1.02337 -3.88929e-05 -9.51325e-24)
(1.01774 -0.000101251 1.51925e-22)
(0.599612 0.0135636 5.36498e-21)
(1.05026 -0.0697388 -1.57274e-20)
(1.03809 -0.0178564 7.90336e-22)
(1.02247 -0.00095121 -1.41399e-25)
(1.02026 -0.00158011 2.63854e-23)
(1.03076 -0.00636937 3.48466e-22)
(1.04162 -0.0242248 0)
(0.577238 0.0152872 1.11342e-20)
(1.01567 -9.78926e-05 1.53073e-22)
(1.03101 0.0097591 -1.17799e-21)
(0.777106 0.00322863 2.85498e-21)
(0.90822 -0.0180572 4.33423e-20)
(1.02052 0.000354865 1.08457e-22)
(1.04439 -0.0108045 0)
(0.97847 -0.0295847 -5.55476e-21)
(1.03215 -0.0175174 -2.93322e-21)
(1.02237 -0.000860917 -1.37273e-22)
(1.02197 0.0016543 0)
(0.776265 0.00163868 1.48026e-20)
(1.01717 -0.00038746 1.64419e-22)
(1.032 -0.00525748 -1.35438e-21)
(1.06189 -0.0147275 0)
(1.02055 -0.00194939 -4.63743e-22)
(1.02196 0.00154978 -4.78739e-23)
(1.03923 -0.014467 0)
(0.982256 -0.00732493 2.84944e-21)
(1.00966 -9.48695e-05 5.52489e-22)
(1.04806 -0.0112159 1.9304e-20)
(1.07369 -0.0399669 -4.13868e-20)
(1.01593 -0.0220366 -2.7687e-21)
(1.01963 -0.00443557 -3.65933e-22)
(1.02151 -0.00396388 6.45787e-22)
(1.0438 -0.000631534 -7.56647e-21)
(1.03175 -0.00268376 -1.3311e-21)
(0.622616 0.0158546 2.77128e-20)
(1.00724 -4.74457e-05 3.37845e-23)
(1.02055 -0.00218222 9.05616e-22)
(1.01965 0.000150337 0)
(0.908636 -0.00947741 0)
(1.02002 0.000333018 2.95384e-22)
(1.01142 -0.00705565 0)
(1.00919 -2.41627e-06 7.19776e-23)
(0.796122 -0.0283328 0)
(1.02365 -0.0304921 0)
(1.02338 -0.00160307 -1.62691e-22)
(1.0295 -0.0312613 2.88536e-21)
(0.855239 -0.0346058 3.27433e-20)
(1.02408 -0.0110524 0)
(1.07143 -0.0109041 -2.81866e-20)
(0.166968 -0.0112005 0)
(1.06923 -0.00214183 -1.20273e-20)
(1.07393 -0.0340303 -1.52846e-20)
(1.06325 -0.0171094 -5.30191e-21)
(0.569018 0.0134178 0)
(1.04651 -0.000213835 8.13326e-21)
(1.06695 0.00109199 0)
(1.02929 -0.027606 -2.03777e-21)
(0.352838 -0.000987919 0)
(1.02012 -0.00107338 2.34755e-22)
(0.717371 -0.00388583 0)
(1.02707 -0.0202163 1.99955e-22)
(1.0304 -0.00628864 0)
(1.03553 -0.00598788 4.52664e-23)
(1.02352 -0.00687 -3.19017e-23)
(1.02222 -0.00401815 -5.28402e-22)
(1.06116 -0.0130894 1.98912e-20)
(1.02937 -0.010382 1.92092e-21)
(1.02294 -0.00111007 0)
(1.02397 -0.00597968 0)
(1.03993 -0.0269032 -8.33194e-21)
(0.911151 -0.0605589 -2.49423e-21)
(1.0649 -0.00534437 2.38512e-20)
(1.02292 -0.00883148 9.18429e-22)
(1.01371 -9.6219e-05 0)
(1.01943 8.98461e-05 -3.43175e-22)
(1.02619 -0.00126112 -3.11464e-21)
(1.05579 -0.0339089 -1.11831e-21)
(1.03735 -0.0221582 0)
(1.04915 -0.0105319 0)
(1.02107 0.000533659 -1.20916e-22)
(1.03527 -0.00945819 2.37292e-21)
(1.02527 -0.0293982 0)
(1.0199 -0.000111938 3.09794e-22)
(1.01832 -0.0343497 4.35822e-22)
(0.529544 -0.0449559 3.22508e-20)
(1.02092 -0.00127405 0)
(1.01248 -6.26717e-05 1.25605e-22)
(1.0401 -0.0435554 9.41505e-22)
(-0.0239863 0.0593101 -3.32638e-20)
(1.02208 0.00182028 0)
(0.954929 -0.00920759 -2.59184e-20)
(1.01859 0.000176262 0)
(1.02123 -0.00395623 2.11129e-21)
(1.01925 0.000262209 5.40133e-23)
(1.01676 -0.000369541 0)
(0.788574 -0.0445586 -5.63761e-20)
(1.06161 -0.0117672 1.76333e-20)
(1.04874 -0.0115804 -1.07689e-20)
(1.0331 -0.00280801 -6.10552e-21)
(1.01605 -0.000123165 -2.81288e-22)
(1.02212 -0.00426557 4.53125e-22)
(1.02007 -8.68351e-05 -2.45552e-22)
(1.03529 -0.00633903 0)
(1.0161 -0.000231346 2.80924e-22)
(1.02126 -0.00492512 1.1978e-21)
(-0.0142772 0.056485 -2.97398e-20)
(1.01821 0.000124532 0)
(1.02353 -0.0105542 0)
(1.02688 -0.00616828 -3.18128e-22)
(1.02927 -0.0100156 -9.14956e-22)
(1.02008 -0.000362661 2.38523e-22)
(1.06539 -0.00481495 4.63438e-21)
(1.02379 -0.00570535 0)
(1.05545 -0.026988 0)
(1.01956 0.00166446 0)
(1.05646 -0.0282601 1.76309e-20)
(1.02315 -0.00639436 -4.52867e-23)
(0.896887 0.0402111 -2.16657e-23)
(1.02575 -0.0061829 -8.45071e-22)
(1.05101 -0.0335353 0)
(1.03503 -0.00673837 -5.70951e-21)
(0.776697 -0.0297879 -1.54834e-20)
(1.03508 -0.00386761 0)
(1.0169 -8.93556e-05 0)
(1.02187 0.00126677 6.38258e-22)
(-0.0200989 0.0409178 -1.65717e-20)
(1.03555 0.00282843 -5.06514e-21)
(1.04321 -0.0150856 4.29048e-21)
(1.07271 -0.0309371 0)
(0.790916 -0.0144762 -2.55248e-20)
(1.06471 0.00615734 0)
(1.06573 -0.0474351 3.47122e-20)
(1.02007 -0.0010908 -4.65408e-22)
(1.04897 -0.0155757 -7.26508e-21)
(0.770402 0.000717729 4.41327e-20)
(1.0568 -0.0154321 -3.27217e-21)
(1.05123 -0.00271609 7.4249e-21)
(0.580525 0.0161231 0)
(1.02426 -0.000952995 0)
(1.0192 0.000260096 -9.94796e-23)
(1.01938 -2.79034e-05 0)
(1.0356 0.00252805 2.27838e-21)
(1.02768 -0.00328726 3.12083e-21)
(1.04721 -0.00476755 0)
(1.01915 -6.82024e-05 0)
(1.02755 -0.00854124 -9.3156e-22)
(1.04955 -0.0174306 7.28438e-21)
(1.02455 -0.00277814 -2.08352e-21)
(1.02069 -0.00398041 -1.27684e-21)
(1.02582 -0.00146494 1.01009e-21)
(0.817242 -0.0134905 0)
(1.01752 -4.43117e-05 2.22135e-23)
(1.02125 -0.00236971 0)
(0.787845 0.00293581 2.74525e-21)
(0.533561 0.013955 7.51897e-21)
(1.02123 -0.00398167 -1.0177e-22)
(1.02658 0.000243398 0)
(1.01885 0.000220142 5.65276e-24)
(0.774754 0.0349837 0)
(0.838406 0.00279916 0)
(1.03483 -0.01207 2.58303e-21)
(1.02176 0.00145818 -5.72297e-22)
(1.02685 -0.0054021 0)
(1.02339 -0.00158083 7.93216e-23)
(0.955671 0.0256685 7.54079e-22)
(1.03252 -0.0154863 0)
(1.03765 -0.0151194 -7.69683e-21)
(1.03869 -0.019739 -1.07309e-21)
(1.02438 -0.000461286 -1.47855e-22)
(1.02169 -0.00173001 1.88848e-21)
(0.802013 -0.0751851 -1.0857e-21)
(1.02318 -0.00704857 1.48722e-22)
(1.01804 -0.000120238 1.55133e-22)
(1.07893 -0.00434966 3.64142e-21)
(1.03695 0.0249965 0)
(1.03262 -0.00286637 9.53207e-23)
(0.994894 -0.0699497 5.86958e-22)
(1.07452 -0.00664821 6.45974e-21)
(1.04096 -0.0171153 5.23964e-22)
(1.0226 4.70206e-05 0)
(1.02362 -0.00432116 -1.65765e-22)
(1.03669 -0.0299853 -1.08015e-21)
(1.01616 -0.000338321 1.59102e-22)
(1.03097 -0.00247554 -2.48005e-21)
(0.723111 -0.103885 -5.76069e-21)
(1.02125 -0.00234697 0)
(1.0691 -0.00181499 -1.56954e-20)
(1.02104 -0.00136283 0)
(1.02279 0.000673791 0)
(1.0182 -0.000126257 -1.49491e-22)
(1.02178 0.000987169 0)
(1.02121 -0.0015021 0)
(1.07123 -0.017353 0)
(1.06689 -0.0201313 2.23461e-20)