/*--------------------------------*- C++ -*----------------------------------*\
| =========                 |                                                 |
| \\      /  F ield         | OpenFOAM: The Open Source CFD Toolbox           |
|  \\    /   O peration     | Version:  v2012                                 |
|   \\  /    A nd           | Website:  www.openfoam.com                      |
|    \\/     M anipulation  |                                                 |
\*---------------------------------------------------------------------------*/
FoamFile
{
    version     2.0;
    format      ascii;
    class       volVectorField;
    location    "200";
    object      ddtCorrDdt0(U);
}
// * * * * * * * * * * * * * * * * * * * * * * * * * * * * * * * * * * * * * //

dimensions      [0 1 -2 0 0 0 0];


internalField   nonuniform List<vector> 
14479
(
(0.0735464 -0.0672355 2.2115e-20)
(0.00692895 0.207125 0)
(-0.0286919 -0.00012572 0)
(0.000354053 -9.55217e-06 0)
(0.00412036 0.0682435 0)
(-0.000151807 -3.44386e-05 -1.10996e-20)
(0.000919134 0.000492309 1.22078e-21)
(-0.0392677 0.0971619 -3.54219e-20)
(-0.0454635 0.026416 -1.37994e-21)
(-0.0368628 0.00753118 -2.29711e-21)
(-0.00226994 -0.000638259 -1.8341e-21)
(-0.00600873 0.0145859 2.34203e-21)
(-0.0167345 -0.0456976 -3.38943e-20)
(-0.00479486 -0.105974 0)
(0.0165077 0.0881604 0)
(-6.30152e-05 2.84096e-05 0)
(0.00101015 0.000243522 0)
(-0.00613286 0.118274 -1.82165e-20)
(0.00121971 -0.00013531 -9.57503e-21)
(-0.00427058 -0.0132295 -1.90568e-20)
(-0.00966506 0.0455521 -2.99625e-21)
(-0.00250648 0.0598745 0)
(-0.0767448 0.0264115 -2.57379e-21)
(0.0892411 -0.27241 -2.2377e-19)
(-0.00232151 -0.00139886 2.17663e-20)
(0.00110867 0.000498499 2.04734e-20)
(-0.0457843 -0.00117516 0)
(-0.041249 0.0253156 0)
(0.00243409 0.00278115 -2.61236e-20)
(-0.0446396 0.00277286 1.31977e-21)
(-0.0296446 0.000476162 -6.40223e-21)
(-0.03456 -0.183989 0)
(0.00462459 0.0150059 0)
(0.00510817 0.0109085 0)
(-0.0203682 0.00206282 4.70071e-21)
(0.0338014 -0.0285256 -9.66074e-21)
(-0.00271301 -0.00079834 -1.87074e-21)
(-0.000101533 -3.65398e-05 0)
(-0.00602275 -0.043808 1.30529e-20)
(0.043641 0.0205191 0)
(-5.08738e-05 3.44208e-05 -1.19942e-21)
(-0.000992614 -0.00261256 -1.96153e-20)
(0.0174378 -0.00593483 -3.00646e-21)
(0.0172328 -0.0035364 0)
(-0.00274658 -0.000212346 -6.47066e-21)
(-0.000124729 -7.6745e-05 5.82832e-21)
(0.000443438 2.24603e-05 -1.61821e-20)
(0.127862 0.155894 0)
(-0.0366947 0.0197745 0)
(-0.00121081 -0.0031064 -3.31978e-20)
(-0.0263993 -0.00532018 -6.04411e-21)
(-0.03563 0.0300126 8.5104e-21)
(0.000957875 -0.000475994 -1.73724e-20)
(-0.0266043 -0.007566 7.29724e-21)
(-0.0617025 0.0363004 4.53485e-21)
(-0.00525005 0.0184498 -1.4924e-20)
(0.0370472 -0.0344115 9.41916e-21)
(0.00479578 0.00405339 1.6054e-20)
(-0.0464 -0.0698845 0)
(0.00442615 0.000841072 1.64157e-20)
(0.000937528 -0.00194008 0)
(-0.0011508 -0.00339008 0)
(0.0616271 -0.109437 1.06019e-20)
(0.000649896 2.75727e-05 0)
(0.000943545 0.000865179 -3.15244e-21)
(-0.113646 0.730908 8.47048e-20)
(0.131858 0.0558373 -5.64307e-20)
(0.0112046 -0.0931675 -1.9778e-19)
(0.000817812 -0.000633875 1.80424e-20)
(0.00254652 0.00178791 4.88362e-21)
(0.15038 -0.0257373 0)
(0.00050808 -5.14369e-05 3.26791e-20)
(-0.0239502 -0.00188575 0)
(0.0469837 0.00893812 0)
(-0.00375968 -0.00286986 0)
(0.000517598 -6.5375e-05 -3.97864e-20)
(0.0218497 0.00913331 -3.03737e-20)
(0.062589 -0.114301 8.58236e-21)
(2.95007e-05 0.00115227 -2.61357e-20)
(-0.00618368 0.436476 1.85772e-19)
(0.00129959 0.000125119 1.9462e-20)
(0.091532 0.0437836 0)
(0.0352534 0.170844 2.6584e-20)
(-0.0299681 -0.00018765 0)
(-0.144687 0.0323847 3.58277e-20)
(-0.00126968 0.0120939 2.14885e-20)
(0.00233452 0.00802353 -3.37537e-20)
(0.00104413 0.000805753 -4.13251e-21)
(-0.0367029 0.0468288 0)
(0.00589893 -0.00144659 0)
(-0.0408857 0.0432463 1.47427e-21)
(0.0102174 0.30623 -3.36991e-21)
(-0.214039 0.582053 -1.23341e-20)
(0.000679565 -7.09148e-05 0)
(-0.0760763 -0.0621917 2.70278e-20)
(0.000478103 8.16158e-05 -1.34535e-20)
(4.82988e-06 0.000844336 5.73716e-20)
(-0.000128733 3.14759e-05 0)
(9.85007e-05 -0.000551661 -1.42706e-20)
(0.000976874 -0.139518 2.23725e-20)
(0.063974 -0.266514 2.90725e-20)
(-0.000134585 0.000127444 -5.17537e-21)
(-0.0268302 -0.00221204 -1.72077e-20)
(-0.0214307 0.00132267 0)
(-0.0380041 -0.215488 3.17769e-21)
(-0.0898401 0.0660569 -5.83317e-20)
(0.0171395 -0.246604 -1.9993e-19)
(0.00898903 0.00898073 -5.913e-21)
(-0.0290756 -0.00241211 2.64598e-20)
(-0.000406621 -0.143848 -3.16088e-20)
(0.0413643 -0.215978 2.54877e-19)
(0.00810878 0.0558035 0)
(0.0177956 0.0015474 -3.77024e-21)
(-0.00261292 0.0166719 0)
(-0.0550324 0.0178674 0)
(-0.0203175 0.0185285 6.2925e-21)
(0.000209449 3.96814e-05 1.13613e-20)
(0.170783 -0.046352 -4.85479e-20)
(0.000200658 1.83783e-05 0)
(-0.000997225 -0.00423527 -1.60447e-21)
(0.000161467 9.80659e-05 3.99609e-21)
(-0.165861 -0.0887184 0)
(-0.0270914 -0.00182288 8.95828e-21)
(8.24901e-05 -0.00060547 0)
(-0.0152541 -0.0310785 2.4421e-20)
(0.0202701 0.00539042 3.76623e-21)
(0.00537428 0.000593911 -2.00487e-21)
(0.134644 -0.076293 0)
(0.0246319 0.00575065 -7.39092e-21)
(0.012497 -0.0298707 1.12468e-20)
(-0.035637 0.0570593 1.10789e-20)
(-0.00413198 0.0115012 -5.28436e-20)
(-0.0293555 0.000586109 -9.78768e-21)
(0.174474 2.63479e-05 5.44751e-20)
(0.0404263 0.124934 -2.51162e-20)
(0.0110496 0.0283493 6.96861e-21)
(0.030387 0.175549 1.02617e-19)
(0.0793735 0.0250455 5.32067e-22)
(0.0963044 -0.0548425 -5.78714e-20)
(-0.0290483 -0.00156566 1.79479e-20)
(0.109291 0.0818377 7.4172e-23)
(-0.295204 0.568603 -1.46603e-19)
(-0.000538398 -0.00120801 0)
(0.101043 0.0472607 0)
(0.00133182 4.54299e-05 8.14507e-22)
(0.0365198 0.118126 -1.67096e-20)
(-0.258786 0.482359 1.47015e-19)
(-0.0051161 -0.000289817 0)
(-0.0240281 0.0738076 7.96368e-21)
(0.0484192 -0.0689534 0)
(0.00381621 0.059539 1.91282e-20)
(-0.00011747 -0.000628123 0)
(-0.00698791 -0.0331994 0)
(0.00541317 0.00846717 0)
(0.00104222 0.000533279 2.20743e-20)
(-0.000754093 -0.00148505 1.24641e-22)
(-0.0140044 -0.0669881 1.38371e-20)
(-0.119997 -0.144023 -1.23985e-20)
(0.00101017 -0.0912076 1.79322e-20)
(0.013709 0.021784 0)
(0.0497633 0.0160437 -5.12196e-21)
(0.0005085 7.78672e-05 -4.41809e-22)
(-0.000130303 -0.000806343 2.18212e-20)
(0.0115234 0.0425882 8.7003e-20)
(-0.0430801 -0.055461 -1.75087e-21)
(0.00035832 -0.000274634 -2.81276e-23)
(-0.000408704 -0.000486506 -1.13754e-20)
(0.0138035 0.095755 1.06322e-19)
(-0.0410047 -0.000219677 0)
(0.00697997 -0.134359 5.38108e-20)
(-0.0948287 0.515061 -1.08794e-19)
(-0.0120643 0.0161304 -1.26059e-20)
(-0.000146081 -4.14292e-05 1.44274e-21)
(-0.0174868 -0.033139 1.51699e-20)
(-0.000143048 -0.000162143 1.48518e-20)
(-0.00371876 -0.01251 1.85874e-20)
(0.0187771 0.0201973 2.0344e-20)
(0.000165438 6.03755e-05 0)
(0.0273902 0.0109766 -2.48884e-21)
(0.143445 -0.0591347 1.6537e-21)
(-0.0184907 0.0111585 4.29533e-21)
(0.00131947 -0.000334797 -7.9137e-24)
(-0.00195916 -0.15161 0)
(0.0154429 -0.00531075 7.37301e-22)
(0.0161452 -0.0481775 4.70746e-20)
(0.00243288 -0.000421895 3.89747e-22)
(-0.0293181 0.0001574 -9.22307e-21)
(-0.0773398 -0.205427 2.81577e-22)
(0.00438608 0.00214751 4.8679e-21)
(-0.0361227 -0.0091556 0)
(-0.273617 -0.255077 0)
(-0.0312664 -0.0758068 0)
(-0.146487 0.661912 -1.96275e-19)
(-0.00383434 0.153164 0)
(-0.000119242 -1.59065e-05 0)
(-0.0133161 0.0121042 1.49602e-20)
(-0.00161965 0.00192143 -1.20036e-20)
(0.0275834 -0.00677999 3.32702e-21)
(0.00298145 0.020073 0)
(4.77032e-05 -0.000609529 -4.04838e-20)
(0.0408679 -0.0570173 -2.51368e-20)
(0.0121582 0.0154824 0)
(0.0214554 0.000322421 4.45783e-20)
(-0.00046011 -0.000720313 0)
(0.0277071 -0.00624636 2.43393e-20)
(0.000330496 3.64884e-05 1.25607e-22)
(0.0109753 -0.0098664 2.45648e-20)
(0.000107226 -4.54059e-05 2.70431e-23)
(0.000186988 -0.000252952 2.71797e-21)
(0.0217685 -0.0144002 -8.53478e-21)
(-0.00408087 0.0164735 0)
(0.00224054 -0.000604563 0)
(0.0275872 -0.0062996 1.4566e-20)
(0.0228252 -0.0077037 1.32482e-20)
(-0.0780088 0.0192683 3.51824e-21)
(-0.056388 -0.137065 -8.65809e-21)
(0.0928288 0.309392 2.03081e-19)
(0.0131598 -0.00746828 3.45787e-21)
(-0.0696191 -0.150642 1.33291e-20)
(-0.0375102 0.00992886 -9.32935e-21)
(0.00809327 -0.00776696 -7.12183e-21)
(-0.023605 -0.00321919 2.43195e-20)
(0.00748743 0.00232565 -1.91068e-22)
(0.0146002 -0.00789275 0)
(-0.0356319 -0.010047 2.09573e-20)
(0.000287014 -3.60889e-05 -2.55111e-20)
(0.037628 -0.19174 1.13931e-19)
(0.000177179 -0.00018105 5.07321e-20)
(-0.0210671 0.0126309 0)
(-0.000457344 -0.0045153 -3.0882e-21)
(-0.000204086 -0.00423542 1.2446e-20)
(-0.000241184 -0.00644358 3.12069e-21)
(-0.0624925 -0.0976618 0)
(-0.00406601 0.00265174 -1.19112e-20)
(-0.000170778 7.41514e-06 -1.86202e-21)
(-0.44063 0.146529 8.32811e-20)
(-0.0119513 0.00496549 3.0234e-20)
(-0.0199073 0.0468465 -4.68985e-21)
(-0.0795882 -0.209685 3.73795e-20)
(0.00117854 -0.000271718 -1.22804e-20)
(0.00865667 -0.00389528 0)
(5.63895e-05 -0.000705356 5.57921e-21)
(-0.0405453 0.0468411 0)
(0.00612878 0.00878758 0)
(0.00273657 -0.00100527 -3.86826e-22)
(0.0834164 0.0333255 6.6982e-21)
(0.106199 -0.252822 4.4211e-20)
(-0.00906228 0.00703303 0)
(-0.0011675 -0.00383572 -7.24439e-21)
(0.00122765 0.000255961 -1.42366e-20)
(-0.089486 -0.0667624 -1.03503e-20)
(0.00070427 0.0145165 0)
(0.0131256 -0.00975078 1.48856e-21)
(-0.0347707 0.00815875 0)
(-0.0632441 -0.0882942 -3.16124e-22)
(0.00018386 -0.000210115 0)
(0.0249431 -0.00111668 1.17543e-20)
(0.000198379 -0.000352949 2.64533e-21)
(0.0263137 -0.0147576 0)
(0.000896854 0.000622774 0)
(0.000208704 -0.000133357 -2.26429e-20)
(0.00955045 -0.00322094 0)
(0.000925669 0.000766657 2.16456e-20)
(0.000232772 9.82851e-05 2.44909e-20)
(0.000536146 0.000364685 -2.78488e-20)
(0.0221698 0.00024815 0)
(-0.00280051 0.0601087 -7.94233e-20)
(0.00118196 0.000428215 3.34119e-23)
(0.0814126 -0.32363 -5.61276e-20)
(0.00772103 0.0260927 2.4384e-20)
(-0.0301435 0.0190623 0)
(0.000251735 -1.59739e-05 -1.39854e-22)
(-0.133133 -0.100936 -4.68795e-22)
(-0.0123847 0.00864873 -9.41537e-23)
(0.0431443 0.0903151 -1.77284e-21)
(-0.0387372 0.163831 0)
(-0.0263408 0.0375257 0)
(-4.08929e-05 -0.000677178 0)
(0.000763609 0.013809 0)
(0.00805724 -0.00720792 -2.81883e-20)
(0.0715832 -0.0107977 -1.17999e-20)
(0.000322862 -3.2657e-05 0)
(0.00593027 -0.00251352 1.2299e-20)
(0.00843936 0.00262897 -7.02202e-21)
(-0.0844564 0.0797332 0)
(-0.128785 0.0182355 -3.15112e-20)
(-0.0224762 0.00663342 0)
(-0.0300402 0.00176806 -2.15162e-20)
(-0.0100161 0.0161493 0)
(0.117232 -0.0405517 -2.36099e-20)
(-0.0358101 0.00490546 -8.29569e-21)
(-0.00311733 -0.00236221 0)
(0.0229579 -0.0146253 -3.40684e-20)
(-0.0187698 -0.0407319 -1.99877e-20)
(-0.00896542 0.00482377 -3.28165e-20)
(0.052861 0.101149 6.94941e-20)
(-0.35241 0.572897 1.65916e-19)
(0.00478462 0.00116063 5.72091e-22)
(0.0262253 0.0368918 -4.95338e-22)
(-0.0417705 0.180887 4.12553e-20)
(-0.316587 -0.248545 0)
(0.0366783 0.534255 0)
(0.000596336 0.000246536 0)
(-0.00280295 -0.000531316 0)
(-0.0117174 0.0164303 4.21118e-21)
(0.129244 -0.0704315 7.93411e-21)
(0.000538488 3.55277e-05 0)
(0.13561 -0.0721563 -3.4987e-20)
(0.000252438 -0.000265405 0)
(-0.0492513 0.0207891 0)
(0.000352302 -0.000114969 0)
(0.112901 -0.11256 4.80671e-20)
(0.0038669 0.00630007 2.23812e-20)
(-0.00525432 0.000241697 0)
(-0.0131631 0.0234583 -4.47793e-21)
(-0.0404293 -0.00160824 1.04765e-19)
(-0.0362963 -0.0470068 -5.84613e-21)
(-0.00077527 0.0115916 -1.77922e-20)
(-0.0134066 0.0185644 0)
(-4.34786e-05 0.000127111 -3.066e-21)
(-0.438394 -0.0585289 -2.62069e-20)
(-0.0422166 0.0298475 -2.09292e-20)
(0.107383 -0.0901948 7.75478e-20)
(-0.0127803 -0.0469287 1.68697e-20)
(0.00126305 -0.00211242 2.10738e-20)
(-0.407981 0.100502 -1.48629e-20)
(-0.0948291 -0.0974255 6.06739e-21)
(-0.0109616 0.192542 1.56958e-21)
(-0.0144301 -0.0465283 -2.38808e-20)
(0.00726279 -0.00866604 -1.26114e-20)
(-0.0837859 0.0214455 -7.36995e-21)
(-0.0016234 0.00134677 2.76904e-20)
(0.0198844 -0.0110397 6.85896e-20)
(-0.0165598 0.008597 -2.11668e-20)
(0.000206601 -8.10542e-05 0)
(0.00575707 -0.00113757 0)
(-0.0178959 -0.010494 0)
(0.0212656 0.0137788 -1.15109e-20)
(-0.00929545 0.0038014 3.49194e-20)
(-0.00217858 -0.00594791 2.41199e-21)
(0.00169015 -0.00184749 0)
(-0.00437681 0.0379492 -4.65926e-20)
(0.000209409 -0.000218756 2.82072e-22)
(-0.0190862 0.0100704 -9.3006e-21)
(-0.0299681 0.151039 -1.01814e-19)
(-0.00538335 0.0154718 1.94351e-20)
(0.134042 -0.0261588 -1.99595e-20)
(-0.0118821 0.0195293 -3.05095e-21)
(-0.0285776 0.0145093 -2.78448e-21)
(0.0131635 -0.00139075 0)
(0.000689075 0.000718611 0)
(0.0706762 0.0465626 0)
(-0.0235124 -0.00041007 7.35192e-22)
(-0.158743 0.556684 5.81098e-21)
(0.00746741 -0.015644 0)
(0.142984 -0.0591827 0)
(-0.103096 -0.0105794 5.80387e-21)
(-0.00677269 -0.000139975 2.02005e-20)
(0.00127484 -0.00181631 -2.46135e-20)
(0.0134382 -0.000645533 -9.03433e-21)
(0.00238717 -0.00232861 8.21274e-22)
(-0.0351518 -0.0527213 4.0641e-20)
(-0.048194 -0.0085139 0)
(-0.0353928 -0.438581 2.35019e-20)
(0.00485454 0.00508757 -1.4636e-20)
(0.00229902 -0.00242931 0)
(0.00167709 -0.000596135 0)
(-0.00010578 9.62356e-05 0)
(-0.0235783 0.00458026 1.76862e-20)
(0.0016291 3.36795e-05 2.21192e-21)
(0.0002994 1.00528e-05 9.82469e-21)
(-0.00623409 -0.0417546 0)
(-9.89598e-05 4.818e-05 3.69824e-21)
(0.0912514 0.0457125 1.26905e-20)
(0.041198 0.149834 -2.3434e-20)
(-0.110585 0.0884339 -1.12194e-21)
(-0.000939039 -0.00347802 0)
(-0.0095052 0.155079 0)
(-0.00487178 0.0149053 4.21124e-21)
(0.00416106 -0.000267023 -2.66038e-20)
(-0.0124049 0.0220342 -6.60865e-23)
(0.00113863 0.0694811 4.50118e-21)
(0.000606805 0.000597606 -1.17374e-22)
(0.0108773 0.0127019 3.33508e-20)
(-0.0264885 -0.0378139 9.17174e-21)
(0.0124545 0.0129552 0)
(-0.152279 -0.204405 9.44979e-20)
(0.00220268 -0.00106521 3.51629e-20)
(0.0147606 -0.0160369 -1.15499e-20)
(0.00656275 0.0317626 7.8348e-21)
(-0.00342886 0.150036 -6.52147e-20)
(0.0564211 0.0341363 4.92249e-20)
(0.00476682 0.00860371 1.58112e-20)
(0.158827 -0.0561021 4.45609e-20)
(-0.0171995 0.150712 1.50422e-19)
(0.00834716 -0.00415055 -8.24814e-21)
(0.0065615 0.00915697 0)
(-0.0330156 -0.0958326 -3.49119e-21)
(0.0402044 -0.0530597 7.86413e-22)
(-0.0723902 0.0309313 -7.58621e-21)
(-0.0200435 0.0279366 1.503e-21)
(-0.0421644 0.0604027 6.77904e-21)
(0.0263867 0.027825 -3.36758e-21)
(-0.010955 0.0778799 -6.63207e-21)
(0.0489034 0.0267634 3.99598e-20)
(0.00551157 -0.00913282 0)
(-0.0258877 -0.0396279 -1.80575e-20)
(-0.013582 0.0279137 0)
(-0.0240945 -0.00276769 0)
(-0.0201257 0.0264034 0)
(0.0131473 0.189367 0)
(-0.149542 0.0783494 -4.39263e-20)
(0.0265791 0.00965504 1.24445e-20)
(0.04043 -0.0579065 1.78661e-20)
(0.00188839 -6.07819e-05 5.15178e-20)
(0.0835592 -0.0240246 2.1397e-20)
(0.00254215 0.00165191 -2.11448e-20)
(0.00530944 0.00237548 -2.23256e-20)
(-0.00657415 0.0179533 4.77231e-20)
(0.0999208 0.071221 0)
(0.0139851 -0.0129703 0)
(-0.030368 0.330784 8.08286e-21)
(-0.149909 -0.202214 -7.62166e-20)
(0.0898471 -0.00772549 0)
(-0.234927 0.567422 -1.15677e-19)
(0.00548164 -0.00014741 0)
(0.00443477 0.0121118 -3.6349e-20)
(0.0241371 0.00970739 0)
(0.00163329 -0.000710217 0)
(-0.00307542 -5.98135e-05 2.65919e-20)
(-0.000187796 0.00704392 -4.0001e-20)
(0.0283264 0.027775 3.69818e-21)
(0.0291734 0.306153 0)
(-0.0108661 0.0336102 0)
(-0.0932196 -0.129134 2.42121e-20)
(-0.0201123 0.00222174 1.68098e-20)
(-0.033927 0.369309 0)
(-0.05402 0.03517 -9.57799e-21)
(-0.0189352 0.007132 -2.04654e-20)
(0.0015066 -0.00156719 0)
(0.0984124 -0.0767602 2.31935e-20)
(-2.46434e-06 -0.000370227 0)
(-0.0038098 0.00116602 6.3648e-21)
(-0.148508 -0.0987581 -8.88318e-22)
(-0.00252679 -0.0022233 -2.79497e-20)
(0.000206912 5.4448e-05 1.10486e-20)
(0.0105787 0.000927328 0)
(-0.0228911 -0.0751356 -5.39846e-21)
(0.00705681 -0.0192665 1.06684e-20)
(-0.000555262 0.0102463 4.6246e-20)
(-0.0053863 -0.000928429 9.05659e-21)
(-0.000893331 -0.00268988 0)
(-0.000194535 -0.0450615 -3.2527e-20)
(0.00316512 0.0220306 7.63632e-21)
(0.0115284 -0.0476352 -1.2156e-20)
(-0.0280115 0.0280402 -4.25827e-21)
(0.000945576 -0.00154233 7.6669e-21)
(-0.0275512 -0.00295637 -1.04374e-20)
(-0.0605993 -0.0861678 -1.44454e-20)
(-0.0272133 -0.000101882 5.48681e-21)
(-0.0436059 0.188975 5.27368e-20)
(0.00245608 0.000698469 0)
(0.00245456 0.013386 2.39409e-20)
(0.0139608 0.0207824 -2.03248e-20)
(-0.0325097 0.156354 0)
(0.000162322 4.63455e-05 0)
(0.030591 0.0397137 1.66805e-20)
(-0.0357812 0.00300005 4.23447e-21)
(0.114525 -0.0667344 -1.55549e-20)
(0.00100798 -0.00167742 2.51858e-20)
(0.000209742 -0.000144366 7.27719e-21)
(-0.0318746 0.00816226 2.76381e-21)
(0.000225938 -8.02919e-05 -6.04637e-23)
(0.000184952 0.00016285 0)
(-0.185352 -0.0344448 3.25897e-20)
(-0.069635 0.604453 -2.49847e-19)
(0.0350765 0.0328036 0)
(0.0879674 0.116343 4.41175e-20)
(-0.00473256 0.0422864 1.52732e-21)
(0.000212137 -1.79469e-05 0)
(-0.0710903 0.0065579 0)
(0.0348626 -0.0356291 1.82846e-20)
(0.0222718 -0.00908195 0)
(-0.0272735 0.174784 0)
(0.0292795 0.0299706 2.63062e-20)
(0.000297128 -8.2483e-05 5.60904e-23)
(0.00118966 -0.00089012 0)
(0.00293703 0.00762606 2.75886e-20)
(0.153855 0.0994506 -1.66819e-20)
(0.0085131 0.120098 1.02788e-20)
(0.000275045 -0.000203937 -9.7724e-21)
(-6.13034e-07 3.51587e-05 0)
(-0.0589186 0.112712 -2.42277e-20)
(0.00203366 -0.000457155 -1.42121e-20)
(0.000316158 5.94638e-05 -3.41505e-23)
(0.000717692 0.00849598 2.25844e-20)
(0.000206563 -0.000160545 2.55021e-21)
(0.0370008 0.253366 -2.16445e-19)
(0.000242732 -0.000276665 8.0358e-25)
(-0.0696614 0.0730937 -1.34684e-20)
(0.029684 -0.0191888 -1.83036e-20)
(-0.0523463 0.0656041 0)
(-0.179175 0.708378 -6.77067e-19)
(0.0405232 -0.0296294 -3.00463e-20)
(-0.462282 0.102795 -1.88519e-20)
(-0.0352751 0.0109484 0)
(-0.0789336 0.0829527 0)
(-0.125944 0.533184 2.93762e-19)
(-0.0617007 0.0201836 0)
(0.000222943 0.000144521 5.54632e-23)
(0.000425867 0.00682812 4.34991e-20)
(0.00294048 -0.00882036 -1.21104e-20)
(0.00821625 0.00161397 7.56028e-21)
(-0.0469652 0.00267751 4.02937e-21)
(0.0039985 0.00206565 0)
(0.137515 -0.0197416 0)
(-0.0476563 0.00565602 1.20406e-20)
(0.00286638 0.00829959 0)
(0.074211 -0.130098 -9.92443e-20)
(-0.0254422 0.00218827 0)
(-0.197888 -0.0131914 0)
(0.00273394 0.0450348 -2.52993e-20)
(0.000206882 -0.000122859 -1.7855e-21)
(0.0245092 -0.00361048 -1.25988e-20)
(0.00193344 0.00671572 5.76868e-21)
(-0.0378841 0.00627077 -6.40628e-21)
(0.000168542 5.8329e-07 -1.47052e-20)
(-0.00258183 0.0206477 0)
(-0.036113 -0.0376691 4.32003e-21)
(0.000255285 3.56308e-05 6.22039e-22)
(-0.380685 0.140033 0)
(-0.0330671 -0.00576963 0)
(0.0125587 0.00453045 0)
(0.000192033 -9.22977e-05 6.4421e-21)
(0.000510768 0.000821602 1.07643e-20)
(-0.00365863 -0.00315693 -1.17495e-21)
(0.0140411 -0.00661638 1.10146e-20)
(0.0148991 -0.00341638 0)
(-0.0165419 0.0348861 -7.71777e-21)
(0.0144987 0.0191962 -3.7551e-21)
(-0.00977709 0.0214542 0)
(-0.0223205 -0.303201 -1.37755e-20)
(0.021946 0.00458266 0)
(0.00125194 0.000278156 1.37352e-20)
(-0.0277897 -0.104712 1.31025e-19)
(-0.00253098 0.0155682 -9.23893e-21)
(0.0133256 -0.0180981 -9.72306e-21)
(0.143418 0.182107 0)
(-0.0403967 -0.442591 2.1916e-20)
(0.0376584 0.0293313 4.32824e-20)
(-0.00584088 -0.00986268 0)
(-0.0982685 0.0806382 0)
(0.180059 0.1068 1.24628e-21)
(0.000214181 -1.19165e-05 -2.69526e-21)
(0.0197315 -0.00189209 0)
(0.021283 -0.0125851 0)
(0.0801269 -0.224889 7.42115e-21)
(-0.021168 0.0132146 -4.60216e-21)
(0.000209683 3.44279e-06 1.54026e-20)
(-0.367069 0.642752 -6.10219e-20)
(0.000419984 -0.000130331 -5.8855e-23)
(0.0043078 0.00116323 4.04095e-20)
(0.000324879 -4.27658e-05 0)
(-0.303071 -0.259535 9.81654e-20)
(-0.0557889 0.0434528 -1.40872e-21)
(-0.00218965 0.00960501 -7.35768e-21)
(-0.00014916 -8.05451e-06 -1.54505e-21)
(0.0130944 0.00208118 0)
(0.00584848 0.0455971 1.60459e-21)
(0.000423569 -0.00048048 0)
(0.0172594 -0.0194567 -7.17346e-20)
(0.011254 -0.00214978 6.63012e-21)
(-0.0126116 -0.000476307 -1.56554e-20)
(0.00190569 -0.00512581 3.9412e-22)
(0.0175764 0.0290624 2.29122e-20)
(-0.0327573 0.00880748 -9.0486e-21)
(-0.0132749 -0.000549086 -1.81117e-20)
(0.00598525 0.00260006 2.62521e-20)
(-0.102955 0.103324 0)
(0.0663626 -0.0709012 -3.95115e-20)
(-0.305267 0.178221 0)
(0.012413 -0.00517663 -7.91815e-21)
(0.0140727 0.00759747 0)
(-0.0552998 -0.247662 0)
(-0.000360705 0.0121364 0)
(-0.037936 -0.0758653 4.88641e-21)
(-0.000362971 0.0114585 1.80886e-20)
(0.0176694 -0.0331824 -9.22126e-21)
(-0.0108076 -0.0519295 -3.19732e-20)
(0.00279237 0.00782076 -7.16952e-21)
(0.0116399 0.0294355 -1.00676e-20)
(-0.000130423 0.000111048 -3.74382e-22)
(-0.0524818 -0.26916 0)
(0.0676022 -0.192932 -4.83234e-20)
(-0.0109624 -0.0219412 -1.51813e-20)
(-0.0320318 -0.087368 -2.84516e-21)
(0.163899 0.0335391 -5.71808e-20)
(-4.67879e-05 0.000257787 0)
(0.159539 0.0882176 -8.88565e-20)
(0.0345682 0.0270816 -8.5232e-20)
(0.00140884 0.0015757 0)
(0.0125534 0.0316728 -1.50553e-20)
(-0.00017385 2.02787e-05 -4.89542e-22)
(-0.0129376 0.00346002 -4.10382e-20)
(0.00553267 0.0114595 -1.61091e-20)
(-0.0231157 -0.000163226 1.40163e-21)
(0.0486577 0.405245 4.98707e-19)
(-0.0223935 0.0278572 -5.2964e-20)
(0.0549427 -0.0161373 5.22676e-21)
(-0.00611217 0.0474403 1.07502e-21)
(0.0238989 -0.0151123 5.34213e-21)
(-0.0373625 -0.00102504 7.58086e-22)
(0.00485422 0.0143672 4.24265e-20)
(-0.00816863 -0.0123121 0)
(-0.0966164 -0.110592 4.66703e-21)
(0.100672 -0.0170009 4.3161e-20)
(0.00199631 0.00655272 -3.16817e-20)
(-0.0330553 0.00132722 0)
(-0.00013044 0.000103112 -1.00101e-21)
(-0.00551714 -0.0206861 -4.03771e-21)
(0.0194617 -0.00615468 0)
(0.106529 -0.0584071 -4.34464e-21)
(0.0244723 0.00701422 -1.14798e-20)
(-0.0498448 -0.0748955 0)
(0.00209948 -0.000727172 -1.4975e-20)
(-0.0325025 -0.00221573 1.74504e-20)
(0.00373695 -0.00365949 -1.24471e-21)
(0.0613532 -0.140484 6.2306e-20)
(0.00623696 0.00512335 0)
(0.00233248 0.0154139 0)
(0.00548173 -0.029112 3.75436e-20)
(-0.000148114 -0.000138539 -2.54575e-22)
(-0.0468451 0.0453672 -2.50006e-20)
(0.00565241 -0.00618203 7.6628e-21)
(0.0023984 -0.00143325 0)
(0.0476592 0.122992 -7.47953e-22)
(0.00139777 0.0106912 -3.49693e-20)
(-0.0255972 0.00406089 0)
(-0.017462 -0.0842014 2.39241e-20)
(0.000512175 -7.10228e-05 2.57476e-20)
(0.00299123 0.0101514 0)
(0.00214231 -0.00038557 2.99639e-20)
(-0.0850178 -0.195086 0)
(-0.128674 0.592675 1.67779e-19)
(0.0893145 0.0952974 0)
(0.036746 -0.293002 2.45022e-20)
(0.0818496 -0.0256085 -1.29663e-20)
(-0.0116137 -0.0145294 -1.46877e-20)
(-0.029363 0.00991679 1.14573e-20)
(0.0106219 0.0214327 0)
(0.000973163 -0.000413145 2.19733e-20)
(0.00133475 0.00322178 0)
(0.00444788 -0.0100284 1.03461e-20)
(-0.209661 0.635055 -2.04542e-20)
(0.0785108 -0.0242051 1.74869e-20)
(0.00330746 -0.0256491 -3.96494e-20)
(-0.039016 -0.00114122 2.55811e-21)
(0.00333042 0.0150567 1.04908e-20)
(0.0495514 0.128646 0)
(-6.61287e-05 -0.00494781 1.44432e-20)
(0.168017 -0.0194378 -3.36122e-20)
(0.101763 -0.0368587 -1.92458e-20)
(-0.049301 0.51256 4.32909e-20)
(0.000121464 -8.28894e-05 1.65534e-20)
(-0.020226 0.0193017 0)
(-0.127478 -0.122294 -1.36924e-20)
(-0.023898 0.00449204 7.20746e-21)
(0.0018275 -0.000692871 0)
(-0.00372749 0.0156162 -5.36856e-21)
(0.000188042 8.74067e-05 0)
(-0.00511404 -0.018727 2.47997e-21)
(0.013346 -0.00421176 -2.15482e-20)
(0.00134002 0.000860827 0)
(0.000270549 9.95893e-05 -2.02975e-21)
(0.000909815 0.000167246 1.41432e-20)
(0.00102274 -0.000365565 -7.16948e-21)
(-0.0155797 0.0103846 1.58549e-20)
(-0.0102801 0.0136258 0)
(-0.00350553 -0.00360795 1.22719e-21)
(0.128754 0.172695 0)
(0.0051436 0.000387248 1.3082e-20)
(0.00459106 -0.010284 0)
(0.0161325 0.0220752 3.74298e-21)
(-0.108387 0.074159 0)
(-0.00701796 -0.204732 0)
(0.00131667 0.000992612 -9.32681e-22)
(-0.052412 -0.0771457 5.54164e-21)
(0.00255533 -0.000863023 -3.87979e-22)
(-0.014126 0.0582434 0)
(0.0292205 -0.0108486 7.1577e-21)
(0.0392717 -0.0301949 -1.632e-20)
(-0.0111102 0.138685 2.04942e-20)
(0.0082962 0.00269124 1.25224e-20)
(0.00166306 -0.00967216 0)
(0.00289064 0.0272745 2.91766e-21)
(-0.0324308 0.466238 -1.01207e-19)
(0.00224865 -0.000307467 1.59394e-21)
(0.00130572 0.00293599 1.94155e-20)
(-0.00354259 -0.00712256 0)
(0.0107546 0.00623613 -3.32867e-21)
(0.000662177 -0.019105 0)
(-0.000236201 -1.84334e-06 0)
(0.018159 0.0273377 1.2471e-20)
(0.00466269 0.00561947 0)
(0.00102664 -0.000285318 0)
(-0.0201316 0.00939422 1.42304e-20)
(-0.0169514 -0.0103805 0)
(-0.328544 0.169448 -3.6232e-20)
(-0.0422425 0.381727 7.03462e-20)
(0.141266 0.0391889 8.66311e-20)
(0.110291 -0.0120121 -1.68205e-20)
(0.0100773 -0.0461542 0)
(-0.436802 -0.000679575 2.05637e-20)
(0.0317846 -0.0146322 1.27205e-20)
(0.00735911 0.00140889 8.97699e-21)
(0.0148877 -0.0137116 0)
(0.00827658 -0.00262525 1.03055e-21)
(0.0298522 0.0493858 1.03372e-20)
(-0.00716158 -0.0119491 1.28308e-21)
(0.000669013 0.000306731 -1.77594e-20)
(-0.0396169 -0.00397197 -5.49482e-22)
(-0.0430492 -0.0647521 -1.27426e-19)
(-0.00691407 0.00117005 -3.00403e-20)
(0.00587586 0.0163394 1.3624e-20)
(-0.0120884 -0.202535 -4.47144e-20)
(0.163711 -0.0453057 -4.04806e-21)
(-0.0167962 0.0747061 -3.01196e-20)
(0.0842608 -0.159174 -6.09031e-20)
(-0.0407287 -0.00433289 1.94955e-20)
(0.0195035 -0.0219629 1.27723e-20)
(0.000176429 9.89477e-05 -2.08439e-21)
(0.00118268 -0.000467203 -2.25596e-20)
(0.0925583 0.0923342 4.79169e-21)
(-0.0458967 -0.0310001 7.30588e-20)
(0.00324771 -0.0199921 0)
(0.000870533 0.000138624 -1.46846e-20)
(0.0495948 0.0150842 -1.98084e-21)
(0.00410843 0.0119382 0)
(0.0288783 -0.0377374 -2.05708e-20)
(0.00294806 -0.0419689 0)
(-0.0199022 0.0158345 -1.53504e-20)
(-0.00032265 -9.1856e-05 0)
(0.00276281 0.00375773 0)
(-0.0311488 0.0201939 0)
(-0.000322534 -0.000273335 0)
(0.00202269 -0.000192329 -3.07055e-20)
(0.0175324 0.332195 -3.7414e-19)
(-0.01338 0.0182947 2.71541e-21)
(-0.000109931 -2.97233e-06 -3.79176e-21)
(-0.283741 0.362016 0)
(0.139586 -0.0482893 1.53624e-20)
(0.00556683 -3.76732e-05 0)
(-0.0658576 0.0576301 1.27855e-20)
(-0.0185412 -0.00495124 5.62855e-22)
(-0.0855538 -0.200484 -3.16871e-20)
(0.0484874 0.0195517 7.69969e-22)
(-0.036748 -0.00197504 -8.58934e-22)
(0.0930395 0.240899 -7.64142e-20)
(-0.01911 0.00779532 0)
(0.0270626 0.0273352 0)
(-0.0718332 -0.0814957 6.024e-21)
(0.000262362 0.025812 -1.56184e-21)
(-0.050051 0.271055 2.14485e-19)
(-0.0295311 -0.293221 2.48262e-19)
(0.00109043 -0.000428248 -8.30414e-23)
(0.0629578 -0.0823135 -3.23588e-21)
(0.220979 0.0988959 5.84542e-21)
(0.018424 -0.0106994 0)
(-0.0293621 0.000217437 3.62771e-21)
(0.00287029 0.0023359 -7.85897e-21)
(0.0242321 -0.000631841 8.31e-21)
(-0.0131891 0.0089286 0)
(0.000797995 0.000697437 -1.63154e-20)
(-0.00357079 -0.00638658 -1.36397e-20)
(0.00233854 0.00431678 0)
(0.0546788 -0.211703 -5.10892e-20)
(-0.0174891 -0.0380606 -4.42746e-21)
(0.265668 -0.121159 -6.02448e-21)
(0.00162445 0.000850693 1.49743e-20)
(-0.131543 0.523325 -6.5907e-20)
(-0.00567167 -0.0151675 8.79252e-21)
(0.00447225 -0.00649838 -2.37033e-20)
(0.0819755 0.0112996 4.14273e-20)
(-0.000328622 -0.000108784 2.09561e-20)
(-0.0144957 0.00933403 3.98691e-20)
(-0.0182912 0.0212977 7.5073e-21)
(0.0309836 -0.0281195 0)
(0.0580753 0.0413562 -5.3433e-22)
(-0.000163774 -6.26955e-05 0)
(-0.00161587 0.119719 1.31116e-20)
(-0.0918671 0.0338054 0)
(0.0228004 0.0279523 -3.21498e-20)
(0.00753743 -0.00517847 0)
(0.0768233 -0.0746315 -1.38788e-22)
(-0.220034 0.393262 0)
(0.0146725 0.449196 4.20008e-19)
(-0.0719999 0.00155655 0)
(0.0801581 0.1629 9.54797e-21)
(-0.000128161 -0.000211061 0)
(0.100879 -0.0428649 -2.66127e-20)
(0.00879948 0.00116373 -1.72276e-20)
(0.000235461 0.0189031 1.66467e-21)
(0.00420712 0.0115097 -5.2773e-20)
(-0.0192018 0.0140633 -1.77324e-20)
(0.140198 0.121769 5.90463e-20)
(0.000299727 8.82759e-05 7.92937e-23)
(-0.00399238 -0.00766895 -4.42852e-21)
(-0.0317016 0.0191846 3.62069e-21)
(0.0954775 0.0327059 0)
(-0.00456637 0.000349661 1.48495e-21)
(-0.0431498 -0.0705507 0)
(0.0165598 0.0294383 7.88356e-21)
(0.00112426 0.0015639 0)
(0.00177844 -0.00750277 0)
(0.00250664 -0.00117276 4.61392e-22)
(0.0401002 0.0134221 0)
(0.0732585 -0.022148 -8.51367e-21)
(0.0390866 0.0351248 2.45913e-21)
(0.00101111 0.00805383 0)
(0.00270421 0.00261397 2.66465e-21)
(0.0177408 -0.00632345 -5.89616e-20)
(0.000727354 0.000439611 3.56562e-20)
(-0.119604 -0.141461 0)
(0.0148677 -0.0137628 -2.29349e-20)
(-0.0169948 -0.00189924 0)
(-0.112055 -0.200046 -1.20915e-20)
(0.000395471 0.0313218 -2.27543e-21)
(0.000485513 -6.06492e-05 0)
(0.0884568 0.228968 -2.66509e-19)
(-0.0418963 0.029704 4.45699e-22)
(-0.0154806 0.0129548 1.59569e-20)
(0.000924606 0.00145605 3.68238e-20)
(-0.0177657 -0.0141768 -7.99416e-21)
(-0.211405 -0.292517 -2.73967e-19)
(-0.339702 0.47691 1.56687e-20)
(-0.03925 0.0115434 0)
(0.112827 -0.0359644 5.40963e-21)
(-0.00484275 -0.00153658 -8.05406e-21)
(-0.398557 -0.119829 0)
(0.0407513 0.113002 1.20734e-20)
(0.00829547 0.00311708 0)
(0.0245066 0.0282437 -7.57754e-21)
(-0.0127543 0.0197124 0)
(-0.0204829 0.0206855 5.30487e-21)
(-0.134654 -0.0919712 0)
(0.00043064 3.78944e-06 0)
(0.00209676 -0.00123187 2.94494e-20)
(0.128989 -0.00547179 -3.41348e-20)
(0.00768413 0.00431235 -8.64235e-21)
(0.00959794 0.00406316 0)
(0.00239619 -0.00873436 0)
(-0.0333489 -0.225939 0)
(-0.0546309 -0.0442365 8.48032e-21)
(-0.0500167 -0.0132034 -1.01821e-19)
(-0.0272459 -0.000254402 -1.99676e-20)
(-0.100571 0.371924 -3.10744e-19)
(-0.0351122 -0.0332186 -6.77907e-21)
(0.000112537 -6.83346e-05 -1.31947e-20)
(-0.0355274 0.00891163 7.00347e-21)
(0.0106399 0.00182482 1.41479e-20)
(0.00615264 0.00131888 -6.61224e-21)
(0.0229422 0.12276 -6.88078e-21)
(-0.0158753 -0.108644 7.95806e-20)
(0.0006246 0.000431573 -1.99386e-20)
(0.0786024 0.0577504 0)
(-0.000881027 -0.00332993 -2.23051e-20)
(0.000321956 5.0871e-06 -3.9932e-22)
(-0.0157701 -0.0476251 0)
(-0.0240558 -0.00316782 -2.16979e-20)
(0.107374 -0.0615465 3.44166e-20)
(0.00919446 -0.00565101 -2.70353e-21)
(0.010127 0.0137929 -2.58345e-20)
(-0.0121642 0.0143697 -3.04135e-21)
(0.000202632 -2.64395e-05 0)
(-0.0250819 -0.0351301 -3.92515e-20)
(0.000373877 -0.000458082 0)
(0.00271374 -0.00209581 -5.27015e-22)
(0.0131035 0.0227123 7.01342e-21)
(0.0173444 -0.00238007 0)