/*--------------------------------*- C++ -*----------------------------------*\
| =========                 |                                                 |
| \\      /  F ield         | OpenFOAM: The Open Source CFD Toolbox           |
|  \\    /   O peration     | Version:  v2012                                 |
|   \\  /    A nd           | Website:  www.openfoam.com                      |
|    \\/     M anipulation  |                                                 |
\*---------------------------------------------------------------------------*/
FoamFile
{
    version     2.0;
    format      ascii;
    class       volScalarField;
    location    "200";
    object      nut;
}
// * * * * * * * * * * * * * * * * * * * * * * * * * * * * * * * * * * * * * //

dimensions      [0 2 -1 0 0 0 0];


internalField   nonuniform List<scalar> 
14479
(
0.00233544
0.0367912
0.000431915
0.00667764
0.00275817
0.00646448
0.00674701
0.000182134
0.000552926
0.000566711
0.00686886
0.000809478
0.000945705
0.0389955
0.0368562
0.0063918
0.00674346
0.0372467
0.00675163
0.0064324
0.000343553
0.00292381
0.0151495
0.00947098
0.0068714
0.00674868
0.000114989
0.000439533
0.00668345
0.0001633
0.0004024
0.00782617
0.00547705
0.00431567
0.000371492
0.00053366
0.00690778
0.00646769
0.0122229
0.000329028
0.0063511
0.006821
0.00736973
0.00778109
0.00690633
0.00639063
0.00674122
0.0313468
0.00414819
0.00682646
0.00107136
0.000412391
0.00675123
0.00086319
0.0132443
0.000816342
0.000526066
0.00406649
0.0400095
0.00357866
0.00679043
0.00682614
0.00266566
0.00673862
0.0067595
0.0228842
0.0272182
0.00855612
0.00675259
0.00680479
0.00238252
0.00674044
0.00147666
0.000506734
0.00545675
0.0067389
0.00308201
0.00435827
0.00677734
0.0243047
0.00675443
0.000309309
0.0389442
0.000344174
0.000379673
0.00376076
0.0046224
0.00675616
0.000200924
0.00338329
0.000362266
0.0254555
0.00985034
0.00673679
0.0188313
0.00676509
0.00678404
0.00668924
0.00672723
0.0346363
0.0212347
0.00625217
0.000816677
0.000569715
0.0118295
0.000119396
0.0176109
0.00327084
0.00021305
0.0305789
0.0165761
0.0345887
0.00633325
0.000786581
0.000637732
0.000551681
0.00678089
0.000734462
0.00206005
0.00668608
0.00675558
0.00263573
0.00122695
0.00672769
0.00701137
0.00477044
0.00423808
0.00598196
0.000816764
0.00646345
0.0193352
0.00536161
5.48177e-05
0.000906178
0.0373077
0.000575347
0.000202724
0.000339614
0.00156968
0.000116733
0.0299452
0.00735504
0.00680779
0.029008
0.00675413
0.0374119
0.00713121
0.00713646
0.0171935
0.000620563
0.0342861
0.00676198
0.0144537
0.00130084
0.00674908
0.00680153
0.0171526
0.0109921
0.029943
0.000577616
0.000346895
0.00667032
0.00676088
0.00180579
0.032498
0.00665097
0.00677545
0.000224623
0.00042363
0.0255968
0.0238322
0.000831025
0.00634749
0.000912079
0.00675049
0.0050255
0.000592485
0.00675095
0.00346858
0.00094661
0.000579301
0.00675064
0.0350734
0.00878229
0.00176826
0.00690338
0.000209555
0.0134635
0.0040273
0.000128709
0.0100436
0.00233976
0.0234121
0.0379452
0.00625757
0.000779175
0.00689195
0.00231273
0.000789817
0.00675662
0.00057656
0.00333297
0.00273516
0.0067784
0.000717869
0.00685267
0.00696527
0.00619752
0.0067248
0.000731044
0.000818292
0.00678941
0.000639528
0.000931153
0.000473587
0.0219298
0.03258
0.00874148
0.0245644
0.00543558
0.0286446
4.0011e-05
0.00257012
0.00890908
0.000230199
0.00656412
0.011562
0.00673437
0.000596778
0.00798821
0.00676227
0.00819143
0.0298767
0.00710416
0.00658247
0.0103733
0.00228216
0.000257369
0.0172098
0.00675285
0.00697629
0.00675583
0.000286388
0.00448546
0.00691053
0.000326524
0.000984701
0.0302906
0.00682516
0.00675139
0.0228206
0.00232198
0.00905252
0.000530917
0.0284758
0.00673836
0.000991416
0.00672533
0.00303651
0.00674653
0.00673481
0.00509007
0.00674644
0.0067509
0.00673576
0.000781087
0.00172013
0.00675162
0.00100374
0.000462388
0.000529429
0.00681873
0.00351782
0.000911221
0.00022354
0.0360458
0.000260939
0.00673345
0.000677973
0.00205646
0.000384172
0.00624372
0.00380262
0.00190344
0.000178607
0.00146186
0.000495626
0.000379314
0.000919586
0.00403205
0.000541302
0.00657061
0.0036871
0.0110996
0.0032737
0.0353324
0.00718185
0.00379648
0.000472991
0.0365056
0.00949149
0.0237879
0.00673339
0.0068531
0.000721404
0.00117606
0.0066756
0.00829688
0.00672259
0.000329546
0.00688843
0.012565
0.00195712
0.00720517
0.000609488
0.000384734
0.000646514
0.00133925
0.000520875
0.00672783
0.00980229
0.000288923
0.0167275
0.00682592
0.00679137
0.0129534
0.00942419
0.0366191
0.000904332
0.00214306
0.0137326
0.00686925
0.00313916
0.000589337
0.00646783
0.0042773
0.00482639
0.000764524
0.0022389
0.00474324
0.00679153
0.00151636
0.00672261
0.000643631
0.0361611
0.000875086
0.000680177
0.000595782
0.000560304
0.00820885
0.00674181
0.00188184
0.00167332
0.0102822
0.00118303
0.00135979
0.00056221
0.000861326
0.00678906
0.00258852
0.00683259
0.00181739
0.00070153
0.0373886
0.00220021
0.00685426
0.00676631
0.00343899
0.000565702
0.00677794
0.00640649
0.00823132
0.00632869
0.000316611
0.0387181
0.000154917
0.00682275
0.000163919
0.000970203
0.00587499
0.000672411
0.000201361
0.00674094
0.0034454
0.0011706
0.000544033
0.025838
0.00679041
0.00619102
0.00228997
0.000166211
0.0021235
0.00163758
0.00081315
0.0364228
0.00760379
0.00376498
0.0241667
0.000732746
0.000210198
0.00059675
0.000384341
0.00042555
0.0175618
0.000503726
0.0021037
0.00108186
0.000564284
0.00117107
0.000530585
0.0370358
0.000579535
0.000624306
0.000717344
0.00677605
0.00738622
0.00680527
0.00290998
0.00500451
0.000298295
0.00717527
0.0342096
0.023875
0.00514052
0.00982867
0.0046536
0.0015699
0.00081696
0.00677675
0.00694566
0.00534559
0.000392584
0.0313266
0.0326924
0.00930031
0.000534753
0.0343779
0.0142754
0.000664548
0.0067899
0.00216916
0.00672957
0.00704317
0.00168481
0.00684798
0.00675111
0.0017657
0.0181137
0.00134557
0.00473772
0.00708447
0.00682319
0.00549876
0.000838136
0.00207939
0.000408449
0.00679328
0.000134039
0.00392621
0.000209508
0.000153429
0.00680073
0.00334007
0.000618909
0.0369274
0.00673974
0.000374846
0.000679208
0.00184414
0.00678553
0.00673702
0.000460946
0.00630723
0.00653555
0.0207497
0.0233906
0.000281131
0.0310869
0.000481391
0.006683
0.000159951
0.000547286
0.00676974
0.0368891
0.000412632
0.00658586
0.00674652
0.00454301
0.0276904
0.0216258
0.00672256
0.00672867
0.000146596
0.00678139
0.00656877
0.0047466
0.00674265
0.000181008
0.00665013
0.000141515
0.000576364
0.0182618
0.0235992
0.0005224
0.010103
0.000576001
0.000119113
0.00774182
0.00185442
0.00649413
0.0069133
0.00247783
0.00174016
0.00044817
0.0044888
0.000715377
0.000319358
0.00179414
0.0154975
0.000561736
0.0213025
0.00168682
0.00673694
0.000721808
0.00648909
0.000276397
0.00611569
0.000627544
0.0490707
0.00656244
0.0133484
0.00103266
0.00136985
0.00672231
0.0067398
0.00709922
0.00133565
0.00352821
0.000341761
0.000696047
0.00070087
0.015624
0.0010356
0.00675305
0.0450016
0.000828229
0.00685809
0.0263058
0.0377873
0.00248616
0.00191128
0.000102324
0.000194499
0.00610244
0.000935686
0.00730269
0.0191716
0.000549068
0.00645413
0.00739118
0.00688286
0.00502615
0.00658109
0.00938733
0.000258311
0.00371152
0.00638412
0.00636863
0.000474828
0.00671549
0.00502042
0.00147631
0.00250718
0.00702116
0.000511264
0.00056322
0.00121241
0.00303452
0.000354177
0.00268702
0.0143598
0.00140759
0.00147697
0.0219495
0.00357166
0.0256149
0.00127197
0.00071325
0.007747
0.00201021
0.000516515
0.00660996
0.0105887
0.0118057
0.0045719
0.0296072
0.000599678
0.00675229
0.017238
0.00299394
0.00678226
0.000568469
0.00617852
0.00262201
0.00130526
0.000753448
0.0251375
0.000553856
0.000504937
0.00295326
0.000816254
0.00114369
0.00564772
0.00195666
0.00925718
0.00215136
0.00646458
0.000302614
0.00653335
0.0131986
0.00661415
0.00235549
0.000631655
0.000792683
0.00678622
0.000587784
0.00790605
0.0103533
0.00319228
0.000939035
0.00386571
0.00673559
0.000617792
0.00244297
0.00685296
0.0365183
0.00434427
0.000634167
0.0470778
0.00674603
0.00105037
0.00678538
0.0109484
0.00832282
0.00028829
0.0245804
0.000576927
0.00545045
0.000542956
0.000691776
0.00675269
0.00457317
0.00207004
0.00787742
0.000517434
0.00464219
0.0004821
0.000679788
0.0369111
0.00634187
0.000720761
0.00679957
0.0239814
0.0064372
0.000652004
0.0104745
0.000651621
0.00678562
0.000861207
0.00675648
0.00565567
0.00139827
0.00686326
0.00672313
0.00673359
0.00674178
0.000831804
0.000641256
0.00697555
0.0243486
0.00466386
0.00249857
0.000590105
0.00013013
0.00380013
0.00683428
0.00779803
0.00683037
0.0309295
0.00746974
0.00344843
0.000176874
0.00214732
0.00242134
0.000749937
0.00869782
0.00686563
0.00507772
0.00710146
0.00155113
0.00500457
0.0063033
0.000487468
0.00214788
0.00673828
0.000701675
0.00511397
0.0151118
0.0266952
0.0087999
0.00614939
0.00418464
0.00797946
0.00201776
0.00221037
0.00846573
0.00750647
0.0122918
0.00134412
0.00673577
0.00148019
0.000230157
0.00354957
0.00111968
0.00417155
0.00107285
0.000175107
0.0152158
0.00155377
0.000650735
0.0067229
0.00675851
0.000333334
0.000607079
0.0278777
0.00673231
0.00040579
0.00117209
0.00063193
0.00367465
0.000649321
0.00676877
0.00388106
0.000514697
0.00677147
0.00678046
0.029929
0.000631851
0.00635265
0.00838132
0.000721187
0.00383638
0.000267247
0.0286488
0.0127191
0.000370322
0.00108365
0.0316545
0.000769666
0.000533034
0.0313078
0.00183326
0.00239755
0.0162993
0.00672605
0.0121316
6.15219e-05
0.00110836
0.000306063
0.00442195
0.00058121
0.00177766
0.00673714
0.00713675
0.00690912
0.0194315
0.0234212
0.000635574
0.00677226
0.011743
0.00149788
0.00291669
0.000500585
0.00677125
0.0264375
0.000557345
0.000538049
0.00752962
0.00631285
0.0215401
0.000176276
0.000481649
0.0025638
0.000706697
0.00705484
0.00916913
0.000114191
0.000258304
0.00674684
0.0210395
0.00265692
0.00079385
0.00164624
0.000869906
0.0149533
0.006688
0.00772493
0.000463864
0.00291359
0.00703207
0.00233763
0.0325229
0.00677498
0.00749674
0.00687051
0.000471022
0.000364547
0.00543285
0.00178753
0.00545509
0.0100187
0.00673647
0.0117601
0.00680885
0.00645932
0.0243623
0.000534273
0.00676093
0.0325158
0.000323968
0.00051629
0.00676989
0.00541907
0.012184
0.00674268
0.000652258
0.00226832
0.00703785
0.010322
0.000213319
0.00236623
0.000523224
0.000770302
0.000457456
0.00689006
0.00647926
0.00675854
0.00057903
0.00245166
0.00164125
0.00747778
0.0110076
0.00214435
0.000243379
0.000120239
0.0237047
0.0490365
0.00652529
0.000835048
0.00158045
0.0462462
0.000202657
0.00180485
0.00673582
0.00233962
0.00682127
0.00658287
0.0182934
0.000269033
0.0166354
0.00762498
0.00135699
0.000827309
0.00633118
0.000944738
0.00671627
0.00690226
0.000708306
0.00779334
0.00419876
0.0070707
0.00342379
0.0138939
0.00988862
0.0235397
0.000623621
0.00424597
0.0007389
0.00674091
0.000303051
0.000642252
0.000581002
0.00678859
0.00987302
0.00677173
0.000422909
0.0057274
0.00881808
0.00699071
0.006745
0.00412064
0.00692185
0.00448064
0.000442281
0.0087494
0.0409715
0.033522
0.00684744
0.00659144
0.00674897
0.00680402
0.00607456
0.00624267
0.0173877
0.0157245
0.00695402
0.000517401
0.000398213
0.00626277
0.000350528
0.0184603
0.00603101
0.0067777
0.00888247
0.00445039
0.0262356
0.00494383
0.00679399
0.0067782
0.000183728
0.00698654
0.000601318
0.000983819
0.00695581
0.006737
0.000650142
0.0350475
0.000643997
0.00532148
0.00146051
0.00202621
0.0119542
0.00406285
0.0157383
0.00059939
0.0351958
0.0226217
0.00737156
0.00772585
0.00673729
0.0072174
0.00244313
0.000913365
0.00100036
0.00672488
0.00233296
0.00716268
0.000744265
0.00819017
0.00672425
0.00677892
0.00183475
0.00677299
0.00678298
0.00672189
0.000781645
0.00115815
0.00665928
0.000945733
0.00575783
0.00246644
0.00715938
0.00694024
0.00676903
0.000431791
0.0281915
0.00152292
0.00057376
0.0289166
0.0227721
0.00585026
0.00515848
0.00317992
0.00762831
0.000204854
0.0119266
0.00586161
0.003689
0.000228714
0.000792552
0.000314104
8.76019e-05
0.0012051
0.00120813
0.00029287
0.00674762
0.000635563
0.00666564
0.000738285
0.00285621
0.00172686
0.0231308
0.00376887
0.0116684
0.00386995
0.000977395
0.000421054
0.00677487
0.0256377
0.00708211
0.0198845
0.000231391
0.00679683
0.000482455
0.00675067
0.000558002
0.000482729
0.00558343
0.000404663
0.00094357
0.00574837
0.00553016
0.00105681
0.00696671
0.000471624
0.0371804
0.000977757
0.00619077
0.00140331
0.0206935
0.00685715
0.0048858
0.0147429
0.00247264
0.00830363
0.034597
0.000295278
0.00413439
0.00672708
0.00709115
0.00672714
0.000331826
0.000592067
0.00496653
0.00162855
0.00523053
0.00780918
0.0059715
0.000218704
0.000427729
0.00675252
0.000454587
0.0449181
0.00570387
0.00446342
0.00672638
0.000148492
0.00459011
0.00655974
0.00798006
0.00692488
0.00677586
0.000389384
0.0069906
7.85012e-05
0.00335761
0.00678997
0.00297155
0.0261604
0.00824
0.0368619
0.00343107
0.000396465
0.0370592
0.00279978
0.000857125
0.00171135
0.00678424
0.00535354
0.00027563
0.0249681
0.00345974
0.00334565
0.0144682
0.00676619
0.00677241
0.034491
0.000494412
0.019498
3.19726e-05
0.000182116
0.0191848
0.00676832
0.00166344
0.00505804
0.0212997
6.9913e-05
0.0367629
0.00124108
0.0336587
0.00559914
0.00618608
0.000411869
0.00676543
0.00062738
0.00362282
0.000752681
0.0006187
0.000691584
0.000669169
0.00931198
0.0070933
0.00244453
0.0116313
0.00680467
0.00041846
0.00113088
0.00841079
0.0340148
0.000931587
0.00144915
0.033285
0.000461066
0.000226587
0.000909526
0.00692176
0.0335826
0.00925031
0.000551524
0.0067521
0.0157095
0.0351936
0.0109405
0.00111419
0.000214752
0.0035115
0.00051149
0.0024337
0.000203926
0.00230904
0.000151676
0.00157474
0.0332261
0.00680826
0.0216586
0.000889589
0.000900998
0.00113331
0.00673727
0.000483492
0.00644819
0.00695497
0.000424088
0.0235062
0.000501008
0.00343142
0.00111986
0.00348805
0.000920823
0.00180303
0.000430591
0.00677443
0.000604282
0.00815178
0.00025991
0.00426794
0.00166116
0.000607996
0.000225638
0.000658661
0.00123025
0.000109403
0.000172877
0.00599834
0.00239895
0.00330645
0.000253356
0.00661573
0.00673722
0.0369389
0.0106852
0.00285764
0.000911279
0.00136465
0.00237503
0.00226388
0.000582064
0.0060352
0.0037979
0.00677325
0.00025213
0.00107665
0.0262404
0.00652005
0.000894608
0.000995325
0.00636395
0.0220991
0.00815954
0.000809371
0.000661006
0.000237416
0.000530785
0.000482541
0.000280765
0.000782784
0.00432476
0.00062349
0.00060459
6.74216e-05
0.000822479
0.0333405
0.000530496
0.0012683
0.00488117
0.000447856
0.000753472
0.000163921
0.0069263
0.00771882
0.00206731
0.00320972
0.00381234
0.000208738
0.00218582
0.000364043
0.0070845
0.000109904
0.00250127
0.0190856
0.000816563
3.63874e-05
0.00738633
0.00101526
0.019388
0.00138146
0.00194194
0.00699414
0.00244233
0.00673552
0.000348519
0.00117251
0.000357823
0.00674384
0.0110079
0.0258871
0.000252139
0.000960046
0.000351795
0.00689215
0.00261894
0.000710512
0.000260548
0.0330269
0.000546791
0.00417699
0.000723673
0.00640633
0.000917208
0.00677005
0.00422406
0.00673432
0.000452787
0.00500273
0.024365
0.0164095
0.00162076
0.000351577
0.00113958
0.0275938
0.00545819
0.000585229
0.0136105
0.000401349
0.00689142
0.0260329
0.0192777
0.000936929
0.0177203
0.0155027
0.00125135
0.00676933
0.00194119
0.0360447
0.000316231
0.0081073
0.00358934
0.000111887
0.000794795
0.00037412
0.00124939
0.0060212
0.0119174
0.0296704
0.000306361
0.00140284
0.000561505
0.00537701
0.000918022
0.00629517
0.000299288
0.000390885
0.000942137
0.00102402
0.000361896
0.0241851
0.00115912
0.00679637
0.000886835
0.00122476
0.0203222
0.00680031
0.0098427
0.00823957
0.00695132
0.000844712
0.00673233
0.00687371
0.00419349
0.00673715
0.0121074
0.00677342
0.000614464
0.00738243
0.00357495
0.000750828
0.00731332
0.00644325
0.000552515
0.00689252
0.000598659
0.000521885
0.00674756
0.00731271
0.00123157
0.00106525
0.00675709
0.000792736
0.00224729
0.0192784
0.00678238
0.0313157
0.00899327
0.0315093
0.00519358
0.0082859
0.00677661
0.0078061
0.000617908
0.0155017
0.000841027
0.00453562
0.0124037
0.00280002
0.00271691
0.00175004
0.00137554
0.000340449
0.000973233
0.00673821
0.00680755
4.66894e-05
0.0303559
0.000858762
0.000548554
0.000384704
0.0315349
0.00156882
0.0069688
0.00321828
0.0067359
0.0109227
0.000999758
0.00742264
0.00661354
0.00208572
0.00688476
0.00081053
0.00689934
0.00140754
0.000990516
0.00050568
0.00676683
0.0181009
0.016523
0.00674653
0.000573048
0.00692723
0.0352649
0.00925489
0.00131345
0.0312505
0.00228694
0.000287516
0.0273613
0.00672942
0.00680699
0.000606662
0.0340932
0.000415759
0.00689592
0.00673244
0.0171057
0.0335849
0.00661246
0.00164201
0.0226841
0.000404971
0.00698558
0.0128727
0.00677563
0.00644172
0.00674187
0.00678464
0.0174241
0.0197103
0.000702127
0.0378463
0.000205162
0.0067445
0.00682018
0.00673308
0.00296905
0.000238444
0.0343427
0.00049033
0.00684051
0.000560939
0.00149612
0.000474244
0.00198904
0.0297872
0.000495623
0.00141285
0.00461001
0.0262175
0.00042423
0.00826686
0.000766663
0.00084493
0.00367693
0.0230825
0.00663278
0.00081194
0.00235122
0.000300107
0.000537782
0.00733332
0.00118969
0.000405571
0.000378995
0.000907939
0.0325429
0.0102816
0.0209095
0.00677249
0.0251912
0.00690383
0.00067135
0.00549885
0.00057409
0.000143923
0.00666053
0.000636998
0.0329159
0.000345074
0.000377022
0.0235646
0.000120437
0.00127823
0.00155056
0.0295802
0.00674093
0.00675836
0.0103339
0.00687207
0.00673475
0.00177426
0.00189196
0.000917489
0.000754035
0.00427701
0.00094639
0.000381815
0.0393333
0.0220848
0.000825281
0.000192475
0.00427738
0.000392877
0.00019682
0.00675692
0.0358761
0.0320031
0.000546174
0.00600245
0.00614297
0.0012387
0.00180935
0.000336448
0.00017178
0.0055007
0.0104238
0.0359199
0.000473515
0.0357285
0.000416061
0.0091642
0.0115346
0.00268968
0.00674855
0.000342324
0.0220796
0.0013653
0.00213363
0.000143438
0.000235265
0.0250565
0.000830227
0.00141124
0.00308336
0.00456944
0.0195022
0.00646961
0.000960751
0.00123862
0.000552088
0.0158225
0.00695117
0.00120005
0.00056994
0.0352293
0.000108126
0.000585423
0.00673867
0.00680985
0.000406297
0.000973393
0.00644386
0.000524422
0.00673303
0.00059574
0.000968034
0.000520123
0.0477313
0.00858624
0.00673549
0.0221503
0.00156613
0.000340477
0.000555607
0.0266451
0.000166077
0.000590139
0.00261279
0.000710877
0.0238281
0.00690873
0.0186937
0.00234856
0.00794562
0.000236845
0.000824936
0.00672784
0.0122603
0.00188159
0.00424346
0.00189944
0.0229836
0.0351077
0.000674828
0.000431744
0.002508
0.00691484
0.000388514
0.000290869
0.000362679
0.0179141
0.00119676
0.00681105
0.000688045
0.00645146
0.00645016
0.0261219
0.000170225
0.021748
0.00224158
0.00647203
0.000591808
0.00689404
0.00693709
0.00123484
0.00146138
0.000689986
0.00672678
0.000749958
0.00676493
0.0016873
0.000728607
0.00678142
0.000434401
0.00129078
0.00724341
0.0401093
0.000350307
0.000860453
0.00585105
0.000415463
0.0257598
0.000856148
0.00675487
0.00674626
0.000494295
0.0229199
0.00103221
0.000614305
0.000234118
0.00019247
0.000244548
0.0102038
0.000163999
0.00656973
0.000715211
0.00177919
0.00049198
0.010635
0.000182808
0.00681194
0.0134906
0.00675988
0.00163266
0.00789081
0.00677701
0.00063481
0.0037793
0.000509143
0.00684975
0.02402
0.000315317
0.0195374
0.000533347
0.0002004
0.000610168
0.014039
0.00677176
0.00112217
0.00396368
0.00779905
0.0199581
0.0362866
0.000380825
2.99081e-05
0.00662219
0.000613965
0.00144916
0.000180997
0.0364928
0.00703306
0.000557757
1.88536e-05
0.00674517
0.00674974
0.00555368
0.00807394
0.00015589
0.000353551
0.00674693
0.000499661
0.00746265
0.0264571
0.0093259
0.000652212
0.000300214
0.00658531
0.00092097
0.00120134
0.00674457
0.000795732
0.00467885
0.0114473
0.00127885
0.00677587
0.00125766
0.00675116
0.00445204
0.00502867
0.00968252
0.00740288
0.00747442
0.00680626
0.0061763
0.000779998
0.00291608
0.00930646
0.000372344
0.00127478
0.00138576
0.0285057
0.00272715
0.00679342
0.0256527
0.0295516
5.45087e-05
0.00121745
0.0447885
0.00673271
0.00744026
0.000847347
0.000638961
0.00172932
0.00673466
0.000548149
0.00676763
0.00313539
0.0237504
0.00187594
0.000639501
0.0316965
0.00676487
0.0292123
0.00134598
0.00345415
0.00114935
0.00048363
0.00111249
0.000469292
0.000444778
0.00675683
0.0146043
0.00156798
0.00235208
0.00359162
0.00678981
0.00047751
0.00288414
0.000847019
0.000676911
0.00745833
0.0134347
0.00691313
0.00182444
0.00577526
0.00913667
0.000878812
0.000694382
0.000649225
0.00114514
0.000263684
0.00677064
0.0364191
0.00671187
0.0006964
0.0217656
0.00677946
0.000462836
0.0366229
0.0060256
0.000580513
0.00157608
0.0211175
0.00999354
0.00624219
0.000210631
0.00686076
0.00638942
0.00676499
0.000933179
0.00146334
0.00688616
0.000234222
0.000547507
0.00534527
0.000454293
0.00673102
0.0121259
0.030085
0.00674849
0.000174749
0.0316947
0.000638085
0.00321553
0.0128835
0.000127133
0.00676264
0.000414407
0.00250539
0.000482859
0.000350695
0.000530832
0.000774802
0.00714669
0.00027646
0.0034798
0.0110991
0.0146072
0.00762361
0.000532586
0.000627691
0.000817584
0.00725655
0.000651647
0.0012712
0.00467365
0.000788053
0.00102542
0.000539623
0.00386737
0.00676356
0.000524209
0.00503617
0.00580135
0.000457009
0.0120951
0.000940081
0.00674128
0.000651768
0.00877068
0.00123789
0.00676087
0.000513416
0.00734184
0.00644194
0.00676902
0.000327757
0.0042561
0.000258053
0.000928689
0.00173976
0.0283334
0.00122569
0.00761617
0.000597414
0.000937411
0.000219123
0.000311028
0.00673213
0.00673629
0.00764725
0.000496282
0.00841186
0.00435251
0.000713615
0.000817464
0.00461131
0.00882148
0.00739095
0.000581745
0.00023359
0.0365996
0.00833446
0.00994835
0.0159623
0.00100326
0.00337576
0.00479991
0.00476858
0.0170043
0.027347
0.00860879
0.00154665
0.00691907
0.00135095
0.00673426
0.00136488
0.000475371
0.0181103
0.00192888
0.00063054
0.00687883
0.000411797
0.000506863
1.76558e-05
0.0067512
0.000674156
0.00680469
0.00880351
0.000760825
0.0254518
0.000155993
0.016283
0.00674303
0.000560922
0.0147906
0.00109846
0.00286271
0.00075327
0.0133326
0.000157706
0.0054445
0.000296248
0.00219095
0.00673749
0.0261902
0.0028645
0.0205865
0.00212051
0.00625599
0.00305973
0.00619174
0.00371305
0.00674737
0.00673721
0.00674952
0.00761436
0.00166519
0.00885589
0.0458838
0.0120665
0.0134978
0.000841593
0.00309482
0.00103534
0.00203294
0.00698916
0.000776965
0.00203768
0.00149984
0.000350049
0.00435662
0.00657886
0.0183922
0.00673598
0.00679294
0.00673777
0.001875
0.000158792
0.00937736
0.00477747
0.00672995
0.00676616
0.000715884
0.00697746
0.010532
0.00187153
0.00667006
0.00111664
0.00638477
0.00692613
0.00966459
0.0234303
0.0189778
0.0150835
0.000663679
0.0067369
0.000108736
0.000559753
0.000340409
0.00234301
0.00676181
0.00653264
0.0010217
0.000720153
0.000116357
0.0237843
0.0073978
0.00746773
0.000802208
0.00134728
0.000810081
0.000632593
0.0148442
0.00673201
0.026163
0.00086155
0.00769133
0.0313533
0.000491006
0.024726
0.00191385
0.00113186
0.000518873
0.000601784
0.000589548
0.00109889
0.000608758
0.000408357
0.00676757
0.00274344
0.0354778
0.00380174
0.000381131
0.000600027
0.000425921
0.000403171
0.0011851
0.00373295
0.00177459
0.00326776
0.000496457
0.000567956
0.000351063
0.000355546
0.036871
0.000590627
0.000372205
0.000431086
0.00626473
0.000599382
0.00678466
0.0389746
0.0012908
0.0129723
0.00112342
0.00159292
0.0233542
0.00128599
0.00753639
0.00135248
0.00164025
0.0145379
0.0279554
0.000625722
0.00316378
0.00616042
0.00205037
0.000753655
0.000617154
0.00240801
0.00672742
0.0434407
0.0264511
0.00688521
0.000940194
0.00100659
0.00082147
0.000685171
0.000265228
0.000497775
0.0139255
0.00793334
0.000612567
0.00286704
0.000520504
0.00673491
0.00672789
0.00672393
0.00567664
0.00286148
0.000347996
0.00598835
0.00489322
0.000729647
0.006798
0.000386475
0.0206453
0.0067528
0.0226749
0.00495919
0.00785697
0.00647294
0.0018217
0.0119229
0.00154151
0.0134567
0.0332628
0.000788518
0.000671458
0.00399694
0.00127835
0.0369274
0.0105964
0.00673145
0.000473589
0.0359515
0.00645395
0.00677368
0.000235261
0.000319738
0.00674576
0.0308817
0.00677008
0.00224162
0.0139596
0.0168795
0.00602201
0.00673322
0.0164956
0.00672745
0.00676567
0.00440513
0.00376266
0.0234052
0.0058596
0.0056628
0.000547851
0.0111312
0.00688456
0.00790699
0.00161418
0.00672587
0.00674223
0.00774173
0.000523479
0.0067291
0.00094251
0.00104313
0.000237293
0.00675417
0.0107879
0.00147895
0.000905401
0.000442726
0.00674003
0.00668151
0.000348206
0.00474133
0.03002
0.00862452
0.00739477
0.00312802
0.0276425
0.00728111
0.00675431
0.000110674
0.00047886
0.00678902
0.00674549
0.0262693
0.00140641
0.0026432
0.0108929
0.000771243
0.00637509
0.0022908
0.000877811
0.0121192
0.000899971
0.00673468
0.0286496
0.000704573
0.00564333
0.00171267
0.0161548
0.00269136
0.00653081
0.000621999
0.00151956
0.000270107
0.0324392
0.000544702
0.000458889
0.00100484
0.00589333
0.00678548
0.00152401
0.00636216
0.00662957
0.00021675
0.00676288
0.00386112
0.00070556
0.0176756
0.000245864
0.00675643
0.000358644
0.00785363
0.00678916
0.0012217
0.000323696
0.0147254
0.00853716
0.00199586
0.00676981
0.00142292
0.00033958
0.000617902
0.000503678
0.0006473
0.000180658
0.0385101
0.0294185
0.00674929
0.00656687
0.00102147
0.0520067
0.00177389
0.00692071
0.00848122
0.0067938
0.00676442
0.00673353
0.0189432
0.0251804
0.00673435
0.000576843
0.00675883
0.00147291
0.00388991
0.0052057
0.0277629
0.000401031
0.00683109
0.00461388
0.0455751
0.048558
0.0237926
0.0195434
0.00680637
0.00672264
0.015488
0.00676387
0.00676905
0.00265435
0.00438965
0.000657638
0.000877031
0.00674973
0.000402272
0.000998334
0.00077565
0.00482971
0.0137256
0.00675888
0.000736522
0.000306302
0.000322835
0.00212945
0.0168528
0.00337121
0.000268773
0.0256799
0.000383889
0.00673035
0.00100053
0.00843952
0.000312991
0.000349864
0.00677324
0.000127361
0.00478591
0.000256502
0.00700414
0.00235265
0.0252241
0.000564998
0.00122263
0.000362021
0.00672755
0.000533426
0.00675683
0.00494919
0.000730931
0.0556667
0.00135843
0.010771
0.00165397
0.000332775
0.000501169
0.00158686
0.00614985
0.00129212
0.00778689
0.00837003
0.00682842
0.000629971
0.000538202
0.00297691
0.000413943
0.00336542
0.0043617
0.00108234
0.00679936
0.00666996
0.000426023
0.00031211
0.000606667
0.00684889
0.00695527
0.00319999
0.000980669
0.000668052
0.000855102
0.000755501
0.00659982
0.0024976
0.0103242
0.000430288
0.000658075
0.000277628
0.000480594
0.0042623
0.000198239
0.000271853
0.000277639
0.0067602
0.000604513
0.000543627
0.00664319
0.0083191
0.00284738
0.0015473
0.00345238
0.00254152
0.00813141
0.000652763
0.00149358
0.00070832
0.00780436
0.000838686
0.00144295
0.00113657
0.0264768
0.00118235
0.00767525
0.000361304
0.0067517
0.000617294
0.000209035
0.00679445
0.000397611
0.00751644
0.000375501
0.000181744
0.00220532
0.00685676
0.000259454
0.00409661
0.000412842
0.00106205
0.0018816
0.00762382
0.000383557
0.0377781
0.0018605
0.000462327
0.00677346
0.000945208
0.00264554
0.000660229
0.00117299
0.00858639
0.00119034
0.00674394
0.0148512
0.0199071
0.00679732
0.00679675
0.000366359
0.00683212
0.000943259
0.00675424
0.000937647
0.00711608
0.00511209
0.00784105
0.000542084
0.00158632
0.00311947
0.00705319
0.00951837
0.000206084
0.000421224
0.000582362
0.00674424
0.00677597
0.000472658
0.000653393
0.00682912
0.0129277
0.000248217
0.0186282
0.0300044
0.000420161
0.00592082
0.00566967
0.00557977
0.00673402
0.0068105
0.000291272
0.0067352
0.0227844
0.000505893
0.00658812
0.000532509
0.000855737
0.000187444
0.00679617
0.000704288
0.000477921
0.00131787
0.00677464
8.70543e-05
0.000740355
0.0194008
0.032888
0.000830211
0.0068964
0.00615479
0.000769738
0.000714842
0.00135694
0.000534992
0.000813955
0.00680125
0.00131732
0.00022422
0.0182634
0.00699523
0.000350323
0.000222771
0.0060058
0.00684927
0.0146992
0.000945491
0.000154327
0.00695542
0.00808739
0.000655698
0.000354122
0.000228294
0.00645137
0.000702123
0.000309684
0.00114904
0.000267304
0.00114455
0.000877963
0.00100163
0.00692346
0.00681579
0.000213988
0.0272234
0.0067261
0.00255698
0.000249901
0.0061208
0.000433203
0.000427089
0.00675532
0.0298145
0.000150123
0.00372192
0.0069916
0.000246597
0.000433671
0.000270184
0.00682806
0.00673238
0.00656498
0.000919981
0.000638898
0.0118188
0.00675336
0.000420716
0.000699112
0.000422235
0.00750316
0.000536189
0.00101399
0.000709557
8.96349e-05
0.0293192
0.00090887
0.00857807
0.000975164
0.00672568
0.00779364
0.00135246
0.000702451
0.000578096
0.000546691
0.00677915
0.00194787
0.00791794
0.000301327
0.000840872
9.83272e-05
0.000399475
0.000630463
0.000723235
0.00673131
0.000711176
0.017165
0.00672406
0.00673463
0.00134999
0.000411399
0.00902208
0.000638748
0.000133399
0.000921574
0.000185218
0.000473115
0.00676831
0.0064385
0.00824584
0.00107349
0.0013042
0.00661174
0.000275268
0.000496536
0.0113444
0.00862921
0.00719443
0.00752777
0.000548355
0.000531024
0.00796035
0.00016379
0.000607746
0.0506012
0.00100254
0.000562297
0.000527129
5.96681e-05
0.00303571
0.000221906
0.000525839
0.00231117
0.00093576
0.0132311
0.0059953
0.00677242
0.00645234
0.000762492
0.000205216
0.00268922
0.00134865
0.000144454
0.00159927
0.00752996
0.00701752
0.00177161
0.000592321
0.00673039
0.00692649
0.000591572
0.00684359
0.000441608
0.000577097
0.014585
0.00190619
0.00674455
0.000254257
0.000176667
0.00682722
0.00440379
0.000564614
0.00825093
0.00677199
0.0314075
0.000663535
0.00111354
0.000650819
0.000557819
0.00887913
0.00678945
0.000671228
0.00690443
0.00919945
0.000678427
0.000514275
0.00654294
0.000465846
0.00123799
0.0154423
0.00432259
0.00044515
0.00774282
0.000372676
0.00639099
0.00182125
0.0150727
0.00672445
0.00121968
0.00552215
0.000280845
0.000706743
0.000502855
0.0155697
0.00430519
0.00111785
0.00676264
0.0216815
0.000785075
0.0114007
0.00598743
0.000897126
0.0189974
8.82726e-05
0.000166758
0.000225028
0.000606852
0.000262461
0.00215138
0.00675297
0.000683139
0.00035899
0.0161182
0.000170687
0.000283053
0.00781826
0.000299285
0.000127125
0.000279436
0.000804948
0.00204401
0.000956411
0.00675946
0.00170138
0.0176443
0.00285777
0.00790494
0.0201636
0.000838578
0.00122861
0.0067699
0.00199014
9.49575e-05
0.00674802
0.000602125
0.00780662
0.00672727
0.000199032
0.00125042
0.0186107
0.00131769
0.00150539
0.00672908
0.00686911
0.0082343
0.000593021
0.00330369
0.0031329
0.00690847
0.00132246
0.000825239
0.00225876
0.000580945
0.000977907
0.0291509
0.00101434
0.000853572
0.00692848
0.00144198