/*--------------------------------*- C++ -*----------------------------------*\
| =========                 |                                                 |
| \\      /  F ield         | OpenFOAM: The Open Source CFD Toolbox           |
|  \\    /   O peration     | Version:  v2012                                 |
|   \\  /    A nd           | Website:  www.openfoam.com                      |
|    \\/     M anipulation  |                                                 |
\*---------------------------------------------------------------------------*/
FoamFile
{
    version     2.0;
    format      ascii;
    class       volScalarField;
    location    "200";
    object      omega;
}
// * * * * * * * * * * * * * * * * * * * * * * * * * * * * * * * * * * * * * //

dimensions      [0 0 -1 0 0 0 0];


internalField   nonuniform List<scalar> 
14479
(
0.31456
0.431399
1.64027
0.0219383
0.0582307
0.0233218
0.0206266
0.119846
0.0826309
0.158372
0.0211206
0.0313687
0.0471686
0.611732
0.499979
0.0240613
0.020609
0.472559
0.0214018
0.0298464
0.0524454
0.0535853
0.697305
3.09176
0.021135
0.0214361
0.464381
0.0793022
0.0216417
0.392891
1.3998
3.04524
0.0198494
0.00994587
1.70384
0.0461377
0.0212181
0.0233936
0.346383
0.0463868
0.0248621
0.0210329
0.041131
0.0366436
0.0212056
0.0240449
0.0213107
1.26742
0.269006
0.0210407
4.65314
0.0782409
0.0213721
4.52678
0.611791
0.032465
0.0508095
0.0220861
0.391415
0.0220643
0.0214574
0.0216713
0.184933
0.0213514
0.0206732
1.09215
1.27183
0.895794
0.0213682
0.0216619
0.509659
0.0213794
2.70051
0.0494611
0.0217673
0.0212477
0.0285476
0.243115
0.021186
1.23409
0.021416
0.0899847
0.536699
1.38752
4.05219
0.0227194
0.0225266
0.0206575
0.117086
0.0221418
0.0823771
1.21691
2.19535
0.0213502
0.528984
0.0213697
0.0212096
0.0212963
0.0208305
0.600252
1.32192
0.0257627
4.42007
2.04089
0.982035
0.168498
1.39823
0.0270664
0.982894
0.580429
1.39976
0.50016
0.0278891
0.0336691
0.0953613
0.0533539
0.0215717
0.203101
0.0277639
0.021794
0.0217749
0.652753
3.57013
0.0208239
0.353587
0.0327892
0.0220731
0.891529
0.030438
0.0424835
0.723519
5.96192
0.835095
0.198391
0.465186
0.0357115
0.168188
0.0921523
0.245098
0.798041
0.757723
2.73436
0.0206468
0.766612
0.0214232
0.467684
2.89403
0.0218592
0.664294
0.0641743
0.490471
0.0212768
0.28178
0.0241415
0.0214444
0.0206266
0.410059
5.45974
0.578173
0.0362773
0.0532546
0.0205153
0.0212817
0.038327
0.368357
0.0204315
0.0213036
0.0866593
0.0986966
0.554062
1.11707
0.0386725
0.0247082
0.0445471
0.0206687
0.0281144
0.0359048
0.0210029
0.124974
0.210112
0.0522568
0.0197624
0.597747
0.0260779
0.0100843
0.0202889
0.46369
5.32544
0.0219033
33.0008
4.01745
0.0956884
1.09909
0.464353
0.0256845
0.0385473
0.0211097
0.0872288
0.0318703
0.0212743
0.0653761
0.0239835
0.0284004
0.0213141
0.0312392
0.0296547
0.0747398
0.0268507
0.0204973
0.0320442
0.0318556
0.0215253
0.0305505
0.02947
1.36668
0.483616
1.31213
0.0237255
0.517316
0.235681
0.492579
20.5337
0.0227789
0.0267401
31.1509
0.0232765
0.983685
0.0211808
0.0690437
0.0224448
0.0217106
0.0230844
0.463335
0.0217132
0.0222224
4.19459
0.0238186
0.0894614
4.62769
0.0213963
0.0223024
0.0212803
0.0799982
0.0232615
0.020172
0.106598
0.403077
0.487908
0.0217024
0.0214321
0.555912
0.00809442
0.0298499
0.160523
0.458132
0.0207476
0.0283404
0.0204948
0.0300666
0.0214493
0.0211726
0.0225294
0.0214418
0.0210182
0.0210197
0.0305788
0.0397831
0.0214381
0.757893
0.0471417
0.067794
0.0286847
0.692342
0.0379951
0.0885664
0.467122
0.0897289
0.0205046
0.0328223
0.0228409
0.0901005
0.0261034
0.0220843
0.0229972
0.11416
1.25773
0.0660205
1.29112
0.036076
0.368039
0.150854
0.0217315
0.0290335
0.445895
0.0230493
0.552548
2.68652
0.0219429
0.0426601
0.463399
4.05449
1.192
0.0210066
0.0216296
0.0410297
0.237855
0.0203334
1.09182
0.0205069
0.0854755
0.0258788
1.23701
0.0233588
0.0220871
0.041248
9.47587
0.0543057
0.0263732
0.0404178
0.0205582
4.2548
0.0822188
1.04385
0.434916
0.0214781
4.51836
7.93429
0.43326
0.0462787
0.0228203
0.661226
0.0210527
0.0295698
0.0589534
0.0235232
0.0220238
0.609356
0.029623
0.0232539
0.0218485
0.0215038
0.0396615
0.0205059
0.0470041
0.470213
0.0327069
0.180413
0.0399488
0.0715708
0.0262925
0.0214412
0.0531068
2.71917
2.14926
0.0268978
0.249346
1.24735
28.9901
0.0214782
12.5132
0.0207587
0.0821373
7.23846
1.20659
0.0232223
0.0208153
0.0202466
0.0290544
0.0627212
0.0202763
0.0241859
0.292019
0.0246138
0.0937547
0.544592
0.117284
0.0216152
0.125243
0.0310854
0.021818
0.0419547
0.0813225
0.0214414
0.0247548
4.39711
0.0817444
3.57494
0.021526
0.0417596
0.0341729
0.122218
0.0513591
0.0236476
0.209522
0.467625
0.0269897
0.0237261
0.416959
0.0725386
0.114207
0.0566088
0.0774469
0.0424028
0.681884
0.0467636
0.0231375
0.0463419
0.0421335
2.53453
0.0506165
0.439037
0.250293
0.0312205
0.0714196
0.0214893
0.38324
0.0216491
0.0222765
5.91777
0.103042
0.0450629
0.650964
3.61029
0.213121
2.263
0.0219156
0.0238634
0.029382
0.0202457
0.0212988
0.0218748
0.050144
1.33658
0.50209
6.1449
0.047816
0.651783
0.644139
0.0625007
0.0214886
0.318689
0.0204948
0.0215493
0.594548
0.0216143
0.0209573
0.02354
0.401328
0.0262497
0.0221989
0.0217142
0.0215899
0.0553655
0.0293963
0.0315228
0.056651
0.021475
0.855477
0.180948
1.05204
0.201668
0.0216257
0.0237224
0.0333431
0.454616
0.0210416
0.0472714
6.44599
0.291415
0.0214411
0.0211464
0.0892248
0.0253213
0.0225911
1.21679
1.17413
0.0904939
1.26758
0.0499774
0.0221268
0.327185
0.0442028
0.0338896
0.449874
0.0513432
0.022519
0.0197295
0.0228466
1.26761
0.734563
0.0205184
0.0205318
0.161419
0.0214992
0.0254509
0.0222233
0.0207464
0.175355
0.0213397
0.119853
0.0366394
0.705867
1.15253
0.0488467
4.06655
0.13996
0.14858
2.53988
0.0642243
0.022425
0.0218275
0.0226249
0.023178
0.086058
0.0218711
0.174336
0.354552
0.0235555
1.02948
0.0929713
1.23268
0.0364606
0.0211435
0.0293334
0.0220376
0.0767382
0.0270329
0.032653
0.375067
0.0251013
4.6135
4.92319
0.0258529
0.0205191
0.0214494
0.0213243
0.0248804
0.0245295
0.0537011
0.0340337
0.0373969
1.04128
0.0310586
0.0214323
0.45758
0.0314861
0.0326136
1.25307
1.22298
0.0455037
0.0237405
0.23477
0.173929
0.0272187
0.0309686
0.0388435
1.34046
0.051439
0.0239058
2.68793
0.02886
0.0218478
0.0226833
3.82326
0.0892221
0.0224198
0.024027
0.0626394
0.0466385
0.0196121
0.0193369
0.0239639
0.0239222
0.0208796
0.0402834
0.125243
27.7842
0.0223774
0.282373
0.354015
5.08177
0.0239786
0.0257647
3.33192
0.0228235
0.440011
0.0261763
0.0333348
0.500474
0.0236771
0.0442699
0.0216625
3.01423
1.29028
0.0280109
0.431376
0.19059
0.0204668
1.08178
0.0438411
0.0215843
0.0363841
0.0269921
0.0240307
0.0238491
0.0666708
1.2495
0.0545746
0.0640868
0.0563692
0.032318
2.33725
6.07069
0.0242792
7.09642
0.57367
0.0220116
1.21467
0.0222185
0.272396
0.0336797
0.187138
0.0384082
0.0603318
0.0215065
0.0672015
0.0225341
1.09629
0.0241192
0.0278476
0.0281028
0.0208331
5.97126
0.022502
0.0208178
0.471294
0.0225656
0.0800851
0.453415
0.0213918
0.0276668
0.0215114
5.6483
2.47563
0.157737
1.29485
0.0791998
0.0301725
0.080445
0.0318343
0.0213822
0.0218594
0.0226758
2.62947
0.0774377
0.0282865
17.8219
0.0291142
0.473836
0.021763
0.195486
0.440799
1.14388
0.0235675
0.0484262
6.77603
0.0804362
0.020276
0.0315873
0.0210058
0.0382011
0.0245752
0.020511
0.0205345
0.0209836
0.0205855
0.0483695
0.0394942
0.0211247
1.22669
0.022044
0.0229269
0.0347317
0.279287
12.5884
0.0204686
0.873574
0.0207621
0.496065
0.0316695
0.0443774
0.111391
0.0229119
0.0228342
0.0313805
3.69383
0.020427
0.0218247
0.0221809
0.0237224
0.0295064
0.0249674
0.0428945
0.0230639
0.0205769
0.0504434
0.0257786
4.85295
1.1708
0.598932
0.332095
0.0651396
3.65179
0.0154107
0.0226803
0.0299412
0.0228861
0.507389
0.0247764
0.021007
2.6685
8.23299
0.0224176
0.0264706
11.4008
0.223759
0.117563
1.2803
2.38254
0.0318268
0.0205364
0.0214022
0.152788
5.9191
0.486267
0.0209712
0.0503526
0.0259302
0.0395659
0.163191
0.0490703
0.0212446
0.0218949
0.0654205
0.0212563
0.0215056
1.34605
0.0391808
0.0247915
5.33259
0.204492
0.0220444
0.0942749
0.480373
5.28404
0.0548275
2.30359
1.308
0.0730992
0.0462636
0.468309
0.00627905
1.41758
3.1086
0.0197411
0.373588
0.111085
0.0271385
1.32292
0.0218557
0.0435411
0.0250924
0.0210092
0.0223133
0.0218507
1.29275
0.337861
0.288984
0.0215216
4.62383
0.0240404
0.022385
0.154674
0.0212716
0.504558
0.0500631
0.0415056
0.353538
0.0250107
0.724828
0.0753947
0.0400903
0.0226334
0.107032
5.11123
3.90279
0.0353689
0.171171
0.0207393
0.708809
0.0227962
0.0306458
0.0241159
0.0472041
1.00482
0.0292672
0.0240649
0.0673664
0.145425
0.0215349
0.0908669
0.505275
0.0215793
0.0227796
0.0205065
0.0440998
0.0659269
0.270798
0.0234192
0.0218187
0.0416779
0.021374
5.76764
6.98048
0.0266517
3.54043
0.0413215
0.0213226
1.29289
0.0746033
0.0491562
0.0215711
0.0266869
3.86867
3.04888
0.147311
0.569708
0.0215467
4.37849
0.1079
0.0229341
0.037977
0.0397787
0.0495239
0.799876
0.0247047
0.0209849
0.143281
0.0227787
0.023449
0.0222613
6.96174
0.0817539
0.148094
0.896532
1.13375
0.372699
0.0227928
0.141165
0.0237338
0.323014
0.112452
12.2714
0.0213906
0.0639306
0.0216763
0.0227979
0.395457
16.556
0.627567
0.0238809
0.0245137
0.0391808
0.0248245
0.0437228
0.019598
0.0205832
0.0326879
0.0259021
0.0218607
0.0211598
0.022098
4.68121
0.415977
1.09173
0.0362432
0.526943
0.0474689
0.0214508
0.0840654
0.0944584
0.260534
0.0215109
4.28154
0.0212679
0.0494346
0.0218343
1.0188
0.0209361
0.0205138
0.0232079
0.0205394
0.0587314
0.0636023
4.10355
0.452244
0.465299
0.0210898
0.032063
0.0213509
0.0208793
0.0274602
0.0259045
1.36677
1.37075
0.0217095
0.0453117
0.0578986
0.0266932
0.073421
1.14923
0.0324259
0.0280349
0.881317
0.0526815
1.27247
0.228838
0.0208473
0.0214261
0.159716
0.021962
0.0805371
0.93114
0.0213126
0.0213678
0.137047
0.65928
0.0335266
0.576818
0.0248132
0.141711
4.57744
0.427418
1.38709
0.138808
0.665483
1.12249
0.331085
2.58698
0.0213925
0.0285617
0.0818195
0.0273472
0.026278
0.0205526
0.0957675
0.233994
0.0977778
0.495842
0.0205528
0.0215806
0.0870117
0.0215045
0.0214417
0.019728
0.0572263
0.0268456
0.0216305
0.0279296
0.0308977
0.0243057
0.0264563
0.830748
0.0215112
0.0532441
0.577827
0.0238533
0.0499094
0.583703
3.63242
0.0225942
0.0218592
0.0525145
0.0235723
0.858608
4.46554
0.47148
0.0289698
0.21022
0.0321038
0.134888
0.586574
0.933124
0.0258047
0.0785165
0.0213524
0.0378624
0.0216672
1.93385
0.0375103
0.0233483
1.12612
0.028814
4.34196
0.589139
0.748825
0.0947358
0.0215848
2.98653
0.0224479
1.22667
0.701073
0.021606
1.60411
0.0213849
0.0498823
7.86816
0.0218004
33.8271
0.0273339
0.0228378
0.264367
0.224637
0.0268285
0.0425604
0.476786
0.0267613
0.0223589
0.0243519
3.30106
0.0216916
0.0220102
0.612866
3.08189
0.0217933
0.669504
0.0614444
0.028771
0.0209107
7.51614
0.0205645
0.0628873
0.0378484
0.0217967
0.0480056
0.0271196
0.0252602
0.0295167
0.114726
0.0446871
0.0214097
0.0678491
0.376845
0.0218277
0.0242077
0.0209059
0.377329
0.0218255
0.0222658
0.023652
0.0215021
0.0214925
0.220564
0.0208987
0.152301
0.0318708
0.0215117
0.0222423
3.08005
3.87624
0.48183
0.548533
0.0475716
0.451849
0.378037
0.0332779
0.024014
0.0211828
0.369721
0.0696912
0.679972
0.338345
0.0232561
4.41704
0.0206457
0.0214951
0.679188
0.0850575
4.38587
0.662033
0.106405
0.30595
0.0206378
0.0244152
0.0110781
0.320108
0.639294
0.448526
3.02966
0.476211
0.023146
0.028791
0.0546523
0.0215701
0.0357683
0.0236445
0.0558321
0.0804808
0.0497508
0.0634868
3.902
0.0225702
0.0227628
0.0182413
0.0208458
0.0431117
0.026931
4.3523
0.585248
0.113925
0.0243099
0.35897
0.37759
0.17691
0.0515068
0.0211955
0.539678
2.43659
0.0628648
0.0209294
4.40346
0.591337
2.168
3.74794
0.139435
0.024142
0.0990819
0.0523671
0.112738
0.0246123
0.156446
0.0515906
0.360974
0.0208598
3.3001
0.0496637
0.0308262
0.026268
0.0210212
0.0418958
0.0239377
0.0212842
0.049657
1.13236
0.140172
0.0457494
11.9357
0.178528
0.0270744
0.125321
0.0449886
0.0212877
0.0359142
0.0216238
0.074451
0.0241944
2.04311
0.0427251
1.15515
0.0359449
0.0267011
0.364486
0.142521
0.0286448
0.363059
0.0227562
0.430832
0.225772
0.0212661
0.33331
2.18882
0.0225908
0.0927357
0.025042
0.0245477
0.0517442
0.03871
0.0551803
0.023649
0.0214744
0.102289
0.0374834
0.688939
0.0278895
0.0287344
0.0392537
0.0217642
1.28466
0.274733
0.0798809
7.09572
1.18055
0.10028
0.0423824
20.3918
0.0396832
0.0221754
0.0613004
0.0490039
0.617566
0.0306732
0.492094
0.0419017
0.0920803
0.0220303
0.248659
0.0290149
0.107915
0.0214935
0.0247341
0.0247652
0.0221124
0.0237093
0.120265
0.0228564
0.0551156
0.0212961
0.176382
0.0965646
1.15899
0.20116
0.126737
6.65553
0.0808354
0.454168
0.0257211
0.0236235
0.0210294
0.0229063
0.0213992
0.0905665
0.237009
0.157509
0.0209176
2.15403
1.20621
0.0787044
0.030241
0.143376
8.88893
0.388491
0.13139
0.0802288
0.484805
0.0798787
0.0276633
0.0308849
0.0461364
0.0303846
0.0212998
0.163354
0.0213987
0.0414843
0.0219871
0.423143
0.463087
0.301615
0.0630229
0.333858
0.496676
0.0455921
0.0418711
6.00819
0.252625
0.0215294
0.427902
0.682656
0.0293744
0.386873
1.02596
0.0249786
0.0215777
0.0236641
0.335238
0.0794275
3.60175
0.0586432
0.196543
0.0302807
0.0451584
0.0252374
0.0283874
4.38794
1.24331
0.102899
0.0246825
0.0462749
0.0229678
0.0839248
0.0258485
0.0812884
0.14764
0.028752
0.390396
0.07834
3.39326
0.0276653
0.0215195
0.0278623
0.0679187
1.35646
0.0216244
1.02025
0.0224591
0.0291835
0.146415
0.0210074
0.356388
0.0222952
0.0209382
0.0188403
0.0208112
0.133392
0.0238331
0.0221147
0.0348946
9.67231
0.0271506
0.0401361
0.0213717
0.036363
0.0432254
0.0213659
0.0255577
3.39575
0.340505
0.0214054
0.0336506
0.0228087
1.31625
0.0208201
0.412447
7.98539
0.40241
0.0229637
3.70509
0.0211743
0.0260629
0.139646
0.364355
0.0313671
0.0354425
0.671812
0.188736
4.3933
0.023758
0.0252029
0.0572687
0.0388659
0.0212594
0.021605
0.0747052
0.427549
0.0284621
0.103624
0.0525764
0.365301
0.0251468
0.0219048
0.0226191
0.0214719
5.32108
0.0633248
0.0452954
0.0225456
0.0600766
0.0215505
0.0278532
0.0216085
0.0435388
2.06284
0.114591
0.0210055
1.25956
0.343238
0.0214249
0.139809
0.0208668
0.348238
3.92523
0.0261224
1.23612
0.085322
0.142073
0.391215
0.0205135
0.0215814
0.064296
0.357774
33.76
0.026634
0.0210213
1.09796
0.360661
0.0229099
0.023326
0.368236
0.0466028
0.0225587
1.19768
0.0211543
0.0239943
0.0213677
0.0212188
0.508218
0.364352
0.144292
0.489604
0.0952047
0.021399
0.0215494
0.0212867
0.0249842
0.0946153
0.353417
0.060096
0.0283497
0.0819004
10.2493
0.0619148
0.0230217
0.433283
0.0805236
0.243162
0.0221308
1.33754
0.104259
2.52959
0.273362
0.0539256
0.0242991
3.95682
0.0209475
0.105473
0.0915213
0.065732
4.83681
0.197295
4.19307
0.061578
0.575595
0.0307318
0.374505
0.698553
3.379
0.02129
1.11988
0.0213963
0.0352747
0.0314291
0.038031
0.137774
0.0199299
0.0430607
0.431347
0.0730903
0.0635311
1.30973
0.329637
2.53079
0.263186
0.510951
0.0205074
0.0211981
7.43582
0.0214372
0.0205082
0.0234591
0.0241001
0.173403
0.0613396
0.021919
0.028117
0.0629355
0.60547
3.497
0.089553
0.12582
0.0332681
0.18241
0.0908432
0.0213919
0.342599
0.380912
0.0435203
4.92585
0.0550064
0.0244194
12.1673
0.175433
0.103115
0.0217924
0.0227918
0.335511
0.0495946
0.474411
0.0507513
0.463573
4.37924
0.0225656
0.0212607
0.108476
0.472139
3.03076
0.0287981
0.176284
0.23591
1.14082
0.0318561
2.70928
0.0299167
3.98976
1.22031
0.029683
7.114
0.202707
0.144985
1.02696
0.0216213
0.138162
0.115685
0.344527
0.0786197
0.0534268
0.0218432
0.0215645
0.0656699
0.027066
0.0243535
0.0481528
0.0212139
1.84342
0.0873495
0.0909426
0.371866
0.0596484
0.0212807
1.19877
1.45288
0.0556505
1.68092
1.35718
0.101592
1.21466
0.0356583
0.0343434
1.23716
0.0217216
3.36607
0.0358295
3.14378
0.25603
1.18325
0.0213412
0.681658
0.0624195
0.0745494
0.0266438
0.387563
0.347965
0.0484149
0.0531984
0.0243787
0.0218646
0.0596326
0.0890793
1.28506
0.489162
2.93362
0.0214862
0.150512
0.0248891
0.169829
0.417231
0.108496
3.04066
0.0588145
0.0267403
0.0357697
0.021608
0.0215883
0.0248195
10.8602
0.0363169
0.021342
0.0310641
0.0215344
0.0236289
0.150601
0.020828
0.0838271
0.0262805
2.63585
0.419545
0.0559533
2.28161
0.332062
0.0450446
3.5066
0.031943
0.0207478
0.0209158
0.0444535
0.367442
0.0385497
0.0409428
0.0863291
0.133901
0.224059
2.1296
0.0139785
0.0217757
0.135505
0.023191
0.0483076
2.13982
0.256731
0.0215054
1.31825
0.0210427
0.0240271
2.61514
0.0211105
0.153231
0.270452
0.111885
0.0216518
1.3076
0.0644217
0.525691
0.0869035
0.0999292
0.0600655
4.75472
0.0214172
2.34366
0.0223389
2.96211
0.360937
0.456432
0.10231
0.999318
0.0236868
0.0353136
0.0250339
0.150497
0.455985
0.0254365
0.145262
0.329887
0.0209045
0.0212703
2.8278
1.07025
0.153486
1.51458
0.0212059
0.0431363
0.0237206
3.0541
3.15579
0.0439956
0.0663741
0.0775677
0.0337301
2.56358
0.0214238
0.027589
5.94284
5.73014
0.121021
0.0214281
0.0251511
0.0212663
0.0219774
0.508202
0.916745
0.0244847
0.023072
0.0215337
0.0401277
0.0878872
0.136462
0.650548
0.13171
0.0246937
2.54095
1.1556
0.275144
0.0215853
0.373607
0.529085
0.906763
0.238094
0.356866
0.0212024
0.0228314
0.0323292
0.054464
0.0488187
0.0212883
0.104825
0.0214631
0.134548
0.370534
0.0383586
0.0345295
1.28289
0.0214819
0.388129
0.025051
0.0222193
0.0557015
0.0517104
0.0257372
0.0450544
0.0823784
0.0211791
1.30779
0.0241397
0.119918
0.0239096
0.0215661
0.0449574
0.0226888
0.0299957
0.0345318
0.023031
0.938625
0.021759
0.0299011
0.0858123
0.0284261
0.0278701
0.0303871
0.0692368
0.036977
0.0793963
0.0211721
0.546685
0.019679
5.69192
1.22515
0.028578
1.81644
0.330272
0.0282153
0.0383215
0.22252
1.23052
4.3734
0.026202
0.101344
0.0213796
0.0265002
0.0215091
0.02667
0.0250392
0.0213297
0.0833975
1.51385
0.0218244
0.0811954
0.0207947
5.45684
0.369791
0.020905
0.168335
0.461457
0.0810017
0.0221084
0.500292
0.162942
0.0197789
0.0577084
0.0230122
0.0715314
0.069863
0.0602818
0.102552
0.0218674
0.076186
0.0226427
2.1698
6.36903
2.89318
0.0549969
0.0353074
0.0428679
3.46509
0.0442623
0.0250351
0.0219503
0.110123
0.0909901
0.0783121
0.0220331
0.0214548
0.129097
0.0219011
0.0776243
0.0441809
5.2042
0.0293743
0.020624
0.0482646
1.04242
0.140411
0.0214714
0.0630488
9.69835
0.0240049
0.0214602
0.067602
6.33608
1.30703
0.0341114
0.0384082
1.17362
3.22766
0.0269059
0.0343799
0.0304773
0.19084
0.0634124
0.0212204
0.0206045
0.0261808
0.0389056
6.15509
0.0230641
0.0323741
0.0268513
0.0218202
2.48512
0.0244274
0.0799211
0.113265
0.338986
2.51311
0.359202
4.88712
0.0265323
0.0236185
0.192455
0.0228288
0.687824
3.41098
3.57783
0.208669
0.0208232
0.0253366
0.0214083
0.0269714
0.0429254
1.3455
0.149926
0.0805226
0.0215058
0.0462258
0.049157
0.484543
0.0214182
0.0350694
0.0414987
4.67571
2.14476
0.763834
0.146097
1.38362
0.0214135
0.0480911
5.49325
0.0255851
5.51307
0.0473929
1.25425
0.0883798
0.0220214
0.077008
0.0233828
0.019968
1.13891
0.0362509
4.55907
0.0228024
0.0254023
0.0221924
0.027376
11.6994
0.0210059
0.0212821
0.0207676
2.53771
0.0283721
0.0281902
0.774434
5.07161
4.85724
0.0303817
0.0238452
3.61771
8.98171
0.0226088
0.0329894
0.0233316
0.0234662
0.0584931
0.021994
0.0229567
4.99143
0.0213582
0.0215868
0.0210805
15.6088
0.179847
7.27056
0.023235
0.0209806
0.0211146
0.0344613
0.0218166
0.490256
0.023303
0.0219678
0.0264654
0.0243006
0.0212371
6.39845
1.21829
5.2617
4.79132
0.150028
0.0211089
0.257942
0.0459394
0.0728012
0.0229455
0.0214946
0.0225131
0.0886104
0.0363307
0.966082
1.24252
0.0373654
0.0236155
0.0301121
0.0254015
0.0328124
0.0307546
0.597774
0.0209924
3.82842
0.0358874
0.220602
0.702319
0.0470539
4.03517
0.0233119
0.0258256
0.0491482
0.0580958
0.0379029
0.193106
0.0808623
0.0883567
0.0210697
0.0231836
1.23009
13.7083
0.0569793
0.0782502
0.0470888
0.188902
0.025252
0.0226495
0.0230059
12.506
0.0790035
0.0937925
0.0557352
0.0560255
0.375624
0.137866
0.0972252
0.059062
10.5939
1.74975
0.0205752
0.53412
0.0257588
6.499
0.0253146
0.0263833
1.21508
2.43856
0.023242
0.0253148
0.0923142
1.27714
1.25866
0.0681676
15.985
0.0328183
0.0231279
0.118579
0.0452954
0.0232578
0.0204835
0.386302
0.384636
0.0206959
0.0300367
0.0619978
0.0248635
0.0583471
0.070817
0.135996
1.35024
3.23218
0.0458522
0.0291791
0.0652723
0.0214732
0.0209318
0.0209049
4.6725
15.0208
0.0582112
0.0292409
0.212171
0.319773
0.0215971
0.060749
3.11626
0.0210266
1.27566
0.0241868
0.0261969
0.0238567
21.3318
5.30939
0.0241184
4.79886
0.410231
0.0309902
0.0333776
4.24373
0.0255697
0.415242
4.29209
0.0205098
0.0579153
1.18617
0.0220961
0.0211406
0.156894
0.0613088
0.0212974
0.423953
10.4865
0.0230802
4.78603
4.3674
0.029264
0.0214087
4.42397
0.0204772
0.0211529
0.0224598
0.0221183
1.24959
8.6983
0.277691
0.0601283
5.4166
0.0207938
7.19234
2.68029
0.020508
0.0212764
0.0256169
0.0501024
0.0209823
4.34963
0.360124
0.107268
0.0207412
5.43286
0.0804846
0.0303827
1.61855
0.0204952
0.0226797
0.0537807
0.317649
1.29162
2.56476
0.0272056
0.02296
0.423502
0.0290255
0.0205591
0.144934
0.045701
0.0211396
0.0213992
0.404843
0.0254337
0.0237052
6.75678
0.0786875
0.026771
0.0227271
0.166074
5.0599
0.978096
0.0214824
0.375025
0.105533
11.75
0.0237407
0.64214
0.0222492
0.0231846
0.138741
0.243897
1.12835
0.447907
0.0551044
0.153192
0.0279603
0.0261476
0.0211948
2.92066
0.0243352
0.0263175
0.216464
0.0205711
0.123872
0.080593
4.10607
0.177453
0.0205333
1.22299
0.0466988
0.0215768
0.260728
0.0348374
0.492146
3.57577
0.0315706
0.0241537
0.0239801
0.0663744
0.122783
0.128567
0.157763
0.0994119
0.44112
0.400978
0.0214923
0.0230503
0.0272786
0.798703
0.0263448
0.021688
4.34139
0.0215814
0.0215393
0.0210211
3.27736
1.1826
0.0210814
0.0962258
0.0214907
0.21764
0.022907
12.9583
0.370844
0.140313
0.0216879
6.19988
0.382884
0.378301
0.746147
1.11148
0.0214614
0.0208955
1.02401
0.0207636
0.0431194
0.242378
0.0221202
0.0619963
0.0311669
0.0212548
0.19337
0.0296871
0.0435757
0.0219099
5.73226
0.0211897
0.0788896
0.0715804
1.0877
0.0227191
4.22951
0.436875
0.0380617
1.12477
0.0571851
0.020488
0.143269
2.51456
0.0517671
0.0689881
0.0209066
0.0375295
0.0219122
0.0944611
0.0149862
0.0228502
3.80591
0.0891689
0.358517
0.0578788
0.0209251
0.140443
0.0203445
0.0220523
0.0312888
0.325379
0.0249559
4.23546
0.316437
1.55998
0.0479111
0.0247761
0.0267388
0.369613
2.93166
0.534277
0.0215795
0.0791448
0.101776
0.0240786
0.229183
0.0221597
0.0228467
0.0310011
0.021538
0.0227194
0.0928081
0.0762244
0.0331288
0.0212083
0.0214792
10.0382
0.182361
0.0321041
0.0305786
0.181671
0.0231141
0.0657794
0.288763
0.0655497
0.122047
1.02634
0.136157
6.5846
0.224848
0.243481
0.123362
0.0215299
0.0451225
0.0661674
0.0323337
6.16557
0.280047
0.0249298
0.0223739
0.0227617
3.63117
0.162507
2.01995
0.253381
3.11261
0.0694701
2.715
0.0454887
0.550846
0.38243
0.0254424
0.0517235
0.0218818
0.0439775
0.00871745
0.0205737
1.38575
0.0229929
0.0460586
0.108751
0.0228251
0.0206114
0.0943126
0.0170989
0.0524014
0.0649062
0.0546737
0.0244878
0.103535
0.454731
0.0237488
0.355164
0.0205361
0.0769853
0.00636001
0.0425835
0.0426834
3.86362
1.90766
0.0206283
0.64124
1.18626
0.0216302
0.0216057
0.0655526
0.0216553
0.037704
0.0205955
0.173703
0.0259021
7.65377
7.48884
0.0649855
0.29276
0.0222954
0.025935
2.26612
0.234839
0.0580766
0.0838248
0.02139
0.0214124
0.0543373
0.0643565
0.0209274
0.673292
0.0958697
4.33007
0.461629
0.10123
0.021852
0.02192
0.184017
0.0214861
0.0208485
0.0828878
0.0206041
1.21787
0.0507264
0.0272794
0.0403681
0.0295747
0.160986
4.44124
0.044295
0.0631542
2.67707
0.0214701
0.169256
0.032298
1.18322
0.461425
0.163843
0.0207467
0.0262939
0.0304121
0.0937766
2.50065
0.0602012
1.88181
0.021632
0.0248603
0.0876148
5.20181
0.0206228
0.0932984
0.082744
0.028457
0.0352845
0.378329
0.0356396
0.0481736
0.0213009
0.0416174
0.0359393
9.36923
0.0932548
0.0257272
0.0455938
0.0641659
0.0266232
0.0797578
0.0823682
2.58025
2.32285
0.0214024
6.64845
0.820593
0.556242
0.0199121
0.0242591
0.0556319
0.0226727
0.0819278
0.0590892
0.0212551
0.491643
0.0382387
9.79099
0.0210921
0.0818187
0.0601305
1.07819
0.0216065
0.0212623
4.49502
0.0370204
0.0576541
0.612962
0.021244
0.066333
0.0307331
0.0582759
0.0301573
0.0827144
0.0289362
0.0366058
0.454386
1.17064
0.0977572
4.13525
0.0282414
0.0213372
0.00802635
2.90916
0.113559
0.0920291
0.11873
0.0209043
0.0229315
2.5876
0.0715347
2.37437
0.580882
1.56696
0.0855257
0.290089
0.0218588
0.0527925
1.40756
0.0199125
0.0204881
2.50837
0.0698681
6.45162
0.0893457
0.176033
0.113441
0.128234
0.0855461
0.0210811
0.0249593
0.472606
3.02004
2.52412
0.0240153
0.0766237
1.57256
1.23156
6.15818
0.663662
0.0252007
0.124284
0.0469377
7.77391
0.179159
0.255787
0.788199
0.0268121
0.0465195
0.0973703
0.166876
0.0221931
0.801098
0.0411294
0.0107296
0.0655018
1.35552
0.0286337
0.0205257
0.0264973
0.700595
0.0996035
0.0891478
2.51726
0.213928
0.0261073
0.0304324
0.0263562
0.0234118
0.0586108
0.021262
0.0217929
0.0717356
0.0207559
0.108934
0.0597642
4.56209
0.0234111
0.0213237
1.10205
0.195661
0.0208894
0.0207843
0.059656
2.42099
0.021455
0.362916
0.0613708
0.0448145
0.0362715
0.0978662
0.027187
0.0215659
0.0383515
0.0215519
0.0287789
0.0948713
0.0535455
0.0231687
0.0518099
0.0253921
5.06935
9.05181
0.0810181
0.0269539
0.139144
0.0240068
0.0231957
4.50448
0.0204745
0.0262051
10.7955
0.0739529
0.0588571
0.264419
4.541
0.0219936
2.4285
0.021462
1.23281
0.029572
6.5032
0.0622483
0.179197
3.63002
0.17184
0.133503
1.26963
0.223172
0.104614
0.0233306
0.0212024
0.0305695
0.0689277
4.62127
0.189947
0.151734
3.55564
0.00695046
0.292952
0.0790934
0.0603999
0.0226676
0.0348111
0.0214743
0.0234805
4.00006
17.8408
3.69939
4.46136
0.0302898
0.0551382
0.021903
0.0237456
0.457634
0.0214046
0.0779739
0.0244507
0.020971
0.169683
2.45716
1.16512
2.51408
2.54795
0.021352
0.0213853
0.025305
0.0600747
0.0233766
13.6647
0.0207663
2.55346
0.0394175
0.0232388
0.0797869
0.0292728
3.55311
0.0297157
0.030217
0.0213912
0.0403485
0.0262925
0.021239
0.040676
0.0280666
0.204948
0.026037
0.130828
0.711448
0.0223924
6.38033
1.38802
0.132817
0.136051
0.0214259
3.95672
0.738015
0.679212
0.0563983
0.0391342
0.0225642
0.141717
4.00899
3.52955
3.50853
3.20033
0.101666
0.0237246
0.0215895
0.0213309
0.0228462
0.029985
0.113856
0.0212119
0.0213978
0.186795
0.0212313
0.188424
8.81175
0.0220838
4.71493
0.023393
0.0816894
0.0265916
0.0487197
0.212156
0.0214048
0.0383925
0.037532
0.0215572
0.0568653
0.076888
0.0409612
0.0797255
1.24456
0.0991837
0.0581358
0.0212072
0.0264532
0.0594193
2.84575
0.0243686
0.0237552
2.98404
0.0656676
3.07579
0.0222186
0.390377
0.0424074
0.0340429
0.103204
0.0442259
0.102767
0.819592
0.0196544
0.0254745
0.0891247
0.0222414
0.200963
0.202858
0.0217945
0.038804
0.0778171
0.0219404
0.0241929
0.0209962
0.036683
0.345726
1.23772
0.0403324
0.0216271
8.44389
0.0597492
0.0255781
0.0307182
0.0318843
0.105971
0.021464
2.97318
2.56861
0.0214762
0.08538
0.0227589
0.0235063
0.0339109
0.0375425
0.389642
6.11515
0.0551181
0.0795298
0.0209756
4.10842
1.30207
0.0212033
0.0276122
0.0515273
0.021386
0.0262249
0.0235573
0.723747
0.0240645
0.0393092
0.0216091
0.024319
1.21479
0.0423451
0.0245492
0.0235595
0.0449375
0.030017
0.025692
0.0971835
0.0704528
0.0430795
0.0257072
0.0519225
0.0214048
1.8871
0.0211018
0.0807147
0.0214863
0.023565
1.15458
0.0231859
0.0290055
0.0237109
0.0239924
0.0329182
0.0293259
0.048303
0.193238
0.0209052
0.0670217
0.288258
0.0892322
0.0320866
0.0252523
0.0347071
0.0304965
2.64603
0.0229151
0.0460358
0.0214609
0.0517668
0.0259113
0.0311096
0.0217686
0.0452772
0.0200723
0.113199
3.90836
0.841674
0.0297558
0.0252008
0.0336168
0.021451
4.67584
0.0511446
0.0407031
0.0251402
0.122192
0.0210349
1.04473
2.35718
2.53491
0.0225999
0.0225635
0.0801079
0.0225522
0.0647903
0.0370089
1.14505
0.0226887
0.0655202
0.0271125
0.0345754
0.704587
0.21339
0.0215373
0.0222808
1.28697
0.0244187
0.0257426
0.0214376
0.0216744
0.05392
0.0431061
0.108139
0.022077
0.0258613
4.26056
0.0259786
0.0574753
0.0206223
0.520113
5.24942
0.0637878
0.0262675
0.0767645
0.032621
0.0218906
0.0620558
0.0358623
0.0232257
0.744395
0.0252967
0.154928
0.0902869
0.0215497
0.0773464
0.0391957
0.0221247
0.0212445
0.022915
0.0507991
0.0299804
0.0328248
0.0205867
0.0358688
7.84109
0.0220398
0.0230114
0.0365932
0.0342506
0.0232542
0.0310779
0.119258
3.07966
0.0748325
6.41874
0.0207821
0.184232
0.0318558
0.282882
0.0756046
0.0625741
0.0214466
0.0823052
0.0234074
3.44487
0.133417
0.0432259
0.0791433
0.0235486
0.0575367
0.0206087
3.66457
2.99708
0.0214553
0.0246878
0.203639
0.0261017
0.810364
0.0214326
0.0398435
0.0539976
0.0398516
3.95508
0.0876487
0.350395
0.0398234
2.77157
0.0249904
0.0279745
0.0552458
6.40771
0.688227
0.0213248
0.0808559
4.83748
0.061506
0.0238953
0.0262213
0.0213217
0.0222446
0.022348
0.09409
0.0235363
0.0772397
8.75656
0.0992832
5.21781
0.0229918
0.0218156
0.051962
0.029992
0.0209192
0.0603959
0.0203034
0.022589
0.0347757
0.0232727
0.0557533
0.0367359
0.0595696
0.0235994
0.0227948
0.0294261
0.0231802
0.0218809
0.0211141
0.170772
0.122762
3.73029
0.0251316
0.0426333
0.0603106
6.0885
0.0301221
0.0339387
6.15654
2.52938
0.0239748
0.0233343
0.0215212
0.0995274
0.332822
0.021475
0.0218254
0.0228728
0.0299436
0.0616073
0.0230013
0.0560327
0.0227045
0.178223
0.0214024
0.0727373
3.46602
0.0214689
0.0288641
0.0231238
0.0564142
0.184537
0.0225215
2.27145
1.46433
0.0225971
0.0547734
0.0655896
0.0706139
0.117516
0.116505
0.0297752
0.021316
0.0219449
0.0236895
0.0295692
0.0214314
0.0429052
3.11112
0.0230211
0.028313
0.0199456
0.021457
0.325243
0.0419076
0.157546
0.0299887
0.0215941
0.024636
0.0233419
0.0290845
1.21945
0.0267722
0.0220401
0.0290912
0.0215799
0.038807
0.0264595
0.0690334
0.039869
0.0211657
3.84223
0.0360883
0.325303
0.0221615
0.0764012
0.027383
1.28094
0.776958
0.021275
0.0224776
0.0292767
0.078059
0.0624601
0.161235
1.36962
0.0231704
0.787135
0.0263599
0.0254949
1.29629
0.0576281
0.122846
0.725755
0.129116
0.025841
0.0487752
0.0227885
0.0728332
0.0222221
0.0237087
0.0234413
0.0364495
0.0236136
0.0221251
0.110057
0.0213812
0.0453358
0.0567068
0.0228131
0.0214451
0.0223745
3.40304
0.0212605
0.0208952
1.17945
0.0214472
0.0233807
0.812397
0.0345476
2.38196
0.0221315
0.321484
0.0208315
0.0134124
0.347159
0.0214362
0.368875
0.0851008
0.0254059
0.0496521
0.0705573
0.0465112
0.0291804
0.0661309
3.93195
0.0215646
0.0232544
0.0211208
0.0214317
0.373843
1.24992
0.0225801
0.0211593
0.0234772
0.0238641
0.0215277
0.112122
0.0211267
0.0359594
0.779499
0.139698
0.0304928
0.0233056
0.0504087
0.0225888