/*--------------------------------*- C++ -*----------------------------------*\
| =========                 |                                                 |
| \\      /  F ield         | OpenFOAM: The Open Source CFD Toolbox           |
|  \\    /   O peration     | Version:  v2012                                 |
|   \\  /    A nd           | Website:  www.openfoam.com                      |
|    \\/     M anipulation  |                                                 |
\*---------------------------------------------------------------------------*/
FoamFile
{
    version     2.0;
    format      ascii;
    class       surfaceScalarField;
    location    "200";
    object      phi;
}
// * * * * * * * * * * * * * * * * * * * * * * * * * * * * * * * * * * * * * //

dimensions      [0 3 -1 0 0 0 0];
oriented        oriented;


internalField   nonuniform List<scalar> 
21485
(
0.120651
0.0869902
-0.207641
0.216162
0.300562
-0.516724
0.0541044
0.015453
-0.0695573
0.466082
-0.668786
0.202703
-0.518232
0.313785
0.204446
-0.733045
0.570762
0.162284
0.635253
-0.566183
-0.0690702
0.179995
-0.184941
0.00494574
-0.116126
0.031977
0.084149
-0.0676112
-0.0156767
0.0832879
-0.711806
0.374089
0.337717
0.174572
0.265167
-0.380814
0.115647
-0.226369
-0.212619
0.438988
-0.504597
0.568147
-0.0635499
-0.749855
0.287276
0.46258
0.0856686
0.549584
0.492402
-0.581662
0.0892591
-0.300894
0.487686
-0.186793
0.157906
-0.497118
0.339212
-0.000417301
0.130251
-0.129834
-0.280845
-0.237386
0.41713
-0.598925
0.181795
-0.0444635
-0.0467694
0.091233
-0.342226
-0.369579
-0.556721
0.307892
0.248829
-0.0983292
0.0875763
0.0107529
-0.134908
0.045635
0.0892728
-0.199551
0.360448
-0.160897
-0.0353103
-0.0630188
0.0700562
-0.0159518
-0.117733
0.0732694
0.830007
-0.462014
-0.367994
0.399036
0.430972
0.0169654
-0.0660736
0.0491082
0.0883412
0.150087
-0.238429
0.64995
-0.275861
0.492803
-0.646376
0.153572
-0.310138
0.631123
-0.320985
0.0351988
-0.195998
0.160799
-0.341087
-0.408768
0.691188
-0.351088
-0.3401
0.349945
-0.61856
0.268615
0.606998
-0.257053
0.372969
0.276981
-0.427167
-0.305878
0.634623
-0.363652
-0.270971
0.162578
0.349489
-0.512067
-0.628278
0.198284
0.429995
0.401465
0.289723
0.0618416
-0.0169597
-0.0448818
-0.0696877
-0.0652202
0.596591
-0.403998
-0.192593
0.0427301
0.0191115
0.629756
-0.212626
-0.0109696
-0.152902
0.163871
0.224178
-0.135837
-0.290662
0.0757748
0.214887
-0.138205
0.558306
-0.420101
-0.216503
-0.0741585
-0.230698
-0.171071
0.401769
-0.305142
-0.108088
0.41323
-0.31779
0.405976
-0.088186
-0.123707
0.427417
-0.303709
0.668121
-0.163367
-0.504753
-0.430194
0.356601
0.0735932
-0.378794
0.541372
-0.373498
0.166503
0.206995
0.416427
0.180164
-0.338297
0.138746
0.232416
-0.0679144
-0.164501
-0.561988
0.485103
0.0768856
-0.0603016
0.0644924
-0.00419083
-0.172768
0.207967
0.36207
0.0102409
-0.372311
0.445098
0.189525
0.472456
-0.363501
-0.108955
0.132805
-0.450596
-0.370597
0.528163
-0.157566
-0.400265
0.57483
-0.174565
-0.51948
0.218587
-0.166882
0.22526
-0.058378
-0.37127
0.315409
-0.0803843
0.0303555
0.0500288
-0.025584
-0.0800668
0.105651
-0.212965
0.521595
-0.30863
0.171153
-0.498597
0.327444
0.101938
0.175123
0.00487157
0.197128
-0.309373
0.112245
-0.070491
-0.570957
0.345162
0.225795
0.0522105
0.0221126
-0.0743231
-0.509367
0.38566
0.0785186
-0.521081
0.442563
0.0242403
-0.586229
-0.548791
0.178195
0.464811
0.151095
-0.615907
0.643214
-0.570383
-0.0728305
-0.270154
-0.160624
0.430778
-0.118981
0.196243
-0.0772621
0.637722
-0.600373
-0.0373495
0.0580903
-0.0393919
-0.0186984
-0.0344653
0.0514307
-0.29651
0.181659
0.114851
-0.0169301
-0.112538
0.129468
-0.163248
0.153999
0.00924947
-0.217494
0.616529
-0.067181
0.0692447
-0.00206372
0.15669
-0.426844
-0.0235044
-0.139744
-0.517201
0.012604
-0.603883
0.543598
0.0602854
-0.0601942
0.179485
-0.119291
-0.00821021
0.0875168
-0.0793066
-0.00715937
-0.0821382
0.0892976
-0.675639
0.297833
0.377806
-0.139878
0.254587
-0.114709
-0.606379
0.606379
0.00602042
-0.334132
0.328111
0.169277
-0.311125
0.141847
0.0270924
0.0309979
0.613096
0.0301184
0.0977464
-0.495859
0.398113
-0.0955989
-0.508284
0.319021
-0.121893
0.156474
0.0759418
-0.249982
0.154773
0.0952095
-0.358763
-0.166547
0.52531
0.484665
-0.711145
0.22648
0.00619727
-0.00191406
-0.00428321
-0.068016
0.000835033
0.125125
-0.249878
0.124753
0.436273
0.119939
-0.556212
-0.136065
0.193109
-0.0570438
0.0390201
0.138065
-0.177085
0.0428537
-0.209736
0.237878
-0.117228
0.0561879
-0.069397
0.0132091
0.684239
-0.558502
-0.125738
-0.12443
-0.0180188
0.142449
0.479882
0.084646
-0.564528
0.167018
0.517221
-0.284605
-0.234875
-0.208253
0.644527
-0.00146046
-0.122969
-0.197736
-0.315863
0.513599
0.665304
-0.180639
0.318049
-0.124446
-0.193603
0.423325
-0.593837
0.170512
-0.541889
0.318156
0.223733
0.372737
0.210101
-0.582838
-0.0622585
0.248342
-0.186083
-0.267546
-0.289174
-0.10161
0.581493
0.312128
-0.476783
0.164655
-0.00297269
0.0146377
-0.011665
-0.300152
0.456842
-0.187557
0.0514917
-0.0358335
0.190902
-0.155068
0.707281
-0.305417
-0.401864
-0.315527
-0.226362
-0.392999
-0.0860951
0.479094
-0.577227
0.439022
0.515255
0.075411
-0.590666
-0.0670392
-0.324583
0.391622
-0.112167
0.18766
-0.0754932
0.0744027
0.00758545
-0.0819882
-0.462713
0.162561
-0.461878
0.306469
0.15541
0.130805
-0.134101
0.00329586
0.688981
-0.339644
-0.349337
0.320803
-0.0556359
0.429571
-0.653371
0.223801
-0.350437
0.508344
-0.15956
-0.0248528
0.184413
0.163781
0.369823
-0.533604
0.764617
-0.446576
-0.318041
-0.235397
0.129172
0.106225
-0.10007
0.0929108
0.552876
0.0676585
-0.620535
-0.386993
0.705282
-0.344651
-0.360631
0.662615
-0.303915
-0.3587
0.603124
-0.565803
-0.0373212
0.0770119
-0.020824
-8.04409e-06
0.0137259
-0.0137178
-0.186026
-0.121631
0.307657
0.0489341
-0.00976333
-0.0391707
0.085232
-0.0666268
-0.0186052
0.275452
-0.240232
-0.0352206
-0.392008
-0.0381857
0.52778
-0.0353775
0.589682
-0.0968786
0.137835
-0.00702999
-0.235116
-0.311586
0.546702
0.440299
0.324318
0.0369942
-0.182079
0.145084
-0.583994
0.268467
0.163186
0.154863
0.127906
-0.464883
0.336977
0.364016
0.10844
0.28507
-0.352109
0.056226
-0.220813
0.164587
0.703238
-0.0882033
-0.615035
-0.188491
0.601594
-0.413103
0.599825
-0.619481
0.0196564
0.138731
-0.554489
0.415758
-0.157227
0.213453
0.15186
-0.16283
0.418515
-0.180283
-0.238232
-0.0775439
-0.143269
-0.23076
0.153216
0.0957828
-0.105086
0.00930303
-0.196841
0.459294
-0.262453
0.226676
0.324269
-0.550945
-0.393107
-0.159227
0.552333
-0.45038
0.253539
-0.286698
-0.341581
0.0561139
0.418401
-0.474515
0.0358065
-0.176572
-0.130289
0.306861
0.31515
0.390132
0.0118742
0.0370599
0.0689321
0.385969
-0.454901
-0.151849
0.591081
-0.146786
-0.444295
0.0719444
-0.0942185
0.0222741
-0.492022
0.664297
-0.172275
0.091378
0.2734
-0.364778
-0.699743
0.207721
0.439209
-0.596761
0.157552
-0.192192
-0.334928
0.52712
0.546714
-0.0819024
0.0414032
-0.13832
0.096917
-0.0957018
-0.371436
0.467138
-0.196257
0.084984
0.111273
-0.0157687
0.0157607
0.331178
0.156508
-0.380062
-0.120469
0.500531
-0.37521
-0.208784
0.080398
0.025001
-0.105399
0.134511
-0.474066
0.339555
0.65842
-0.0552958
-0.251574
0.176059
0.0755153
-0.107083
0.218947
-0.111863
-0.436082
-0.0845475
0.52063
-0.374059
0.0689168
-0.491478
0.327521
0.163957
0.500696
-0.422178
-0.46908
-0.172892
0.641972
-0.668627
0.274558
0.39407
0.0138901
-0.0815013
0.610677
-0.171467
0.512352
0.0622779
-0.574629
0.0830131
-0.241163
0.158149
0.544086
-0.405355
0.267632
-0.478468
0.210836
0.533084
-0.269351
-0.263733
0.110799
0.480283
-0.452139
0.0720771
0.265538
-0.606142
0.61446
-0.00831815
0.400817
0.115468
-0.516285
-0.114749
-0.135233
0.127672
-0.520671
-0.183586
0.0883408
-0.195424
0.177429
-0.171382
-0.00604622
-0.0265232
0.0984676
0.127566
0.575673
0.302944
-0.133666
-0.145235
-0.0354786
0.180714
0.726965
-0.0642424
-0.662723
-0.0947319
-0.101525
-0.071727
-0.442378
0.514105
0.127937
-0.188131
0.330581
-0.223717
-0.106864
-0.159791
0.220328
-0.0605367
0.525659
-0.456726
0.205832
0.11319
-0.0474196
-0.161847
0.209266
-0.149796
0.0946096
0.055186
0.0664939
-0.0920779
0.0212249
0.0800571
-0.101282
-0.0163957
-0.0639886
-0.0133444
0.151746
-0.138402
-0.202896
0.137979
0.0649172
-0.00388546
0.084845
-0.0809595
-0.117784
0.479854
0.443472
-0.17584
0.478268
-0.380522
-0.309752
-0.103106
0.412859
0.0139425
0.139587
-0.0909124
-0.0486748
0.295058
-0.289235
-0.00582316
-0.222694
0.0128587
0.209835
0.552906
0.174059
0.0598256
0.0254063
-0.273939
-0.297019
-0.152716
0.553533
-0.441872
0.140844
0.301028
-0.125966
0.145719
-0.0197532
0.111844
-0.208813
0.0969692
0.511864
0.195417
0.220648
-0.0641743
-0.136919
-0.41757
0.0910526
-0.0992628
0.501377
-0.694356
0.192979
0.152175
0.0684735
0.162062
0.0817228
-0.243785
-0.435422
0.237686
-0.142798
0.0168316
0.0653062
-0.053432
0.0158653
0.259587
0.18506
-0.00802045
-0.17704
-0.123039
-0.0197584
0.454727
0.122478
-0.577205
-0.0782963
-0.040892
0.119188
0.150368
-0.0699703
0.334679
-0.486061
0.151382
-0.307644
0.452203
-0.144559
-0.376034
0.380871
-0.00483703
0.130459
-0.0890561
-0.0138532
0.0131487
0.000704493
-0.258525
0.474687
-0.189168
-0.191646
0.137532
0.193049
-0.448167
-0.150758
0.30372
-0.538836
0.181963
0.261509
-0.0206664
0.0939546
-0.531839
0.0266865
0.505153
-0.117174
0.323006
0.343687
-0.207145
-0.136542
-0.269669
0.15492
-0.405454
0.264219
-0.258199
0.153178
-0.348601
0.195423
-0.0193127
0.433366
-0.414053
-0.547207
0.410288
0.114762
-0.00131512
-0.113447
0.706193
-0.153287
0.0194894
-0.172391
-0.166056
-0.0715698
0.237626
0.00800933
-0.131049
-0.0749162
-0.0212802
0.0961964
0.170966
-0.564072
-0.0602933
0.351539
-0.291245
-0.297254
-0.180338
0.477591
-0.0115788
-0.0487228
0.0860134
-0.0338029
0.17805
0.127531
-0.305581
-0.0796753
0.19152
0.0174562
0.0783266
-0.00355674
-0.00208544
0.00564218
-0.352669
-0.0233656
-0.00523411
0.00167737
0.620285
-0.478955
-0.14133
0.330751
-0.277706
-0.0530452
0.0186952
0.046611
-0.199807
0.00228771
0.197519
-0.0790494
0.241112
0.453373
0.166912
-0.700278
0.317678
0.3826
0.603628
-0.603628
-0.077633
-0.00705824
0.0846912
-0.329727
-0.370551
-0.133166
0.599248
0.12467
-0.434808
0.545727
0.0919947
0.065469
0.0270263
0.11477
-0.1317
0.282288
-0.390376
0.163808
0.0113157
0.176943
-0.0208054
-0.156138
-0.252568
0.318958
-0.0663902
0.13812
0.00759952
0.0489162
-0.161083
-0.40639
0.346097
0.452977
-0.325071
-0.0472167
0.0413877
0.00582906
-0.549441
0.331947
0.0427204
-0.0242228
-0.0184976
0.287307
0.131207
-0.54858
0.189817
-0.343276
-0.104373
0.447649
-0.0150164
0.178824
0.195691
-0.492945
0.0700907
-0.221039
0.150949
-0.110272
0.114589
0.591604
0.404854
-0.56408
-0.338005
0.472516
-0.471386
0.290978
0.180408
-0.291905
0.150007
0.141898
-0.0670589
-0.0827366
0.147453
-0.127977
-0.0194755
0.138652
-0.113651
-0.192724
-0.0299697
0.2004
0.464904
-0.144257
-0.0762604
0.220517
0.191667
-0.297269
0.105603
0.244467
0.0763355
0.146643
-0.0085229
0.0475327
-0.139051
0.109528
0.0295231
0.600423
-0.299861
0.0465105
-0.128355
0.0818449
0.163707
-0.0089339
-0.128719
0.193475
-0.453404
0.25993
-0.448578
0.146587
0.301991
0.215352
0.128369
-0.34372
0.0640693
-0.269038
0.204969
0.00285437
0.00334291
-0.135717
-0.115857
0.378332
0.228666
0.630903
-0.120752
-0.510151
0.0139313
0.0287891
-0.131233
-0.317345
0.0862012
-0.0640886
-0.0429906
0.338049
0.216311
-0.146221
-0.10934
-0.160329
-0.700206
0.445853
0.254353
0.403705
-0.0307357
0.502544
-0.114418
-0.388126
-0.0869769
0.229913
-0.142937
-0.487486
-0.0845656
0.572052
-0.108844
0.532169
-0.0093247
0.00635201
0.10165
0.0131117
0.172278
0.458625
0.151227
0.478529
-0.0837279
0.00609495
-0.199491
-0.0284958
0.142714
-0.114218
0.472359
-0.495955
0.303763
-0.131177
-0.179947
-0.298179
-0.143693
-0.457708
-0.148434
-0.161861
0.251337
-0.0894755
-0.159258
0.285986
-0.107936
0.541189
-0.207482
-0.333708
0.184121
-0.499983
-0.11406
0.396348
-0.0698302
-0.313151
0.382981
0.0319414
-0.158009
0.126068
0.305106
-0.374937
-0.00154778
0.149001
0.150173
0.0738307
-0.0658097
-0.00802098
-0.290201
0.247881
0.0423206
0.00581467
0.0114978
0.13014
-0.141638
0.351199
-0.135848
-0.16563
0.477085
-0.311455
0.0306339
-0.183523
0.15289
0.585778
-0.0051202
-0.580658
-0.419831
0.583612
-0.238724
0.151747
-0.0515999
0.00438321
-0.153918
0.125422
-0.44731
0.276239
-0.44053
0.551328
-0.0259107
-0.0602337
0.0861444
0.523432
0.0763926
0.543213
-0.598343
0.05513
0.386011
-0.37488
-0.0111311
0.109502
-0.509767
0.042425
-0.128935
0.478424
0.143843
-0.14426
0.347138
-0.549226
0.202088
-0.0712377
-0.0457269
0.116965
-0.114054
0.264141
0.383861
-0.59046
0.206599
0.0360925
0.549686
0.0500293
0.179884
0.523818
-0.722637
0.198819
-0.145929
0.698805
-0.314599
0.485752
0.201432
-0.580226
-0.731899
0.537245
0.194655
-0.126944
-0.420262
-0.151635
0.606362
0.155379
-0.143881
0.168063
-0.411691
0.243628
0.727314
-0.402693
-0.324621
0.398301
0.142888
-0.047266
0.559618
-0.153437
0.192457
-0.165761
0.681017
0.000685326
-0.138319
0.137634
-0.233665
0.109373
0.124292
-0.559918
-0.491354
0.465572
0.0257825
0.0747276
-0.218984
-0.0733268
-0.0649933
-0.087647
0.0719704
-0.0246163
0.139386
-0.201657
0.0769665
0.12469
0.014009
0.315563
-0.329572
0.564293
-0.0210808
0.524971
-0.0224268
0.11329
-0.328736
0.215446
0.168934
-0.216353
-0.0378018
0.128854
-0.314809
0.128783
0.0167075
-0.182764
0.0497891
0.0377873
-0.139317
0.439227
-0.104548
0.0864732
-0.0120705
0.394074
-0.00806356
-0.429371
0.112903
-0.553432
-0.147747
0.525648
-0.127347
-0.000772594
0.139425
-0.193167
-0.413213
0.164931
0.551234
-0.557147
0.00591241
0.331228
0.396086
0.0889463
0.041513
-0.00605407
-0.0455459
0.26169
-0.148786
-0.112904
-0.537989
0.411045
0.152476
0.285648
-0.438124
-0.16351
-0.369787
0.533297
0.192769
-0.301616
0.108847
-0.544382
0.366139
0.178243
0.148349
-0.0180983
0.182445
-0.151811
0.0976189
-0.110963
-0.174509
-0.122001
0.178558
-0.0148514
0.289124
0.0383969
0.2043
-0.452179
0.247878
0.15253
0.0244128
-0.549552
0.383005
-0.302374
-0.22012
0.522493
-0.0548525
-0.144955
0.548702
-0.107441
-0.441261
0.0724446
0.218446
-0.29089
0.114959
-0.139575
-0.166608
0.226549
-0.0599407
0.562517
0.0438627
-0.00771331
0.186271
-0.362104
-0.256457
0.0623343
-0.181315
-0.0145254
-0.0855448
0.504347
-0.157208
0.0932771
0.0463101
-0.0709782
0.572355
-0.295558
-0.37319
-0.295596
0.0588974
0.00708642
-0.0659838
0.123542
-0.0911971
-0.0323452
-0.420447
0.229029
0.459952
-0.602425
0.413934
0.00510227
0.172326
-0.395799
-0.248942
0.644742
0.513455
0.14916
-0.300267
0.170381
0.129887
0.0898158
0.289702
-0.379517
-0.656454
0.40935
0.247104
0.185382
-0.172524
-0.0800616
-0.00654729
-0.00729288
0.0138402
0.245316
-0.181247
0.161469
-0.114918
-0.0406443
0.123118
-0.0824736
-0.207447
-0.0928207
0.159946
0.101744
0.0146381
0.355709
0.165887
-0.188968
-0.407793
-0.0141041
0.199164
-0.123624
-0.143554
0.267178
-0.435447
0.127803
-0.180756
-0.0582957
0.239052
0.189367
-0.170968
-0.0183985
-0.735716
0.534257
0.201459
0.0269592
0.0933849
-0.120344
0.519205
-0.166954
-0.35225
0.442039
-0.151061
-0.211447
0.461219
0.148039
-0.609258
-0.214081
-0.340926
0.555007
0.456761
0.091941
-0.187753
0.345012
-0.157259
0.0335485
-0.536846
0.197202
-0.378557
0.00712065
-0.230829
0.16857
0.0995357
-0.0783109
0.300891
-0.144805
0.120519
0.0242861
0.230136
-0.179504
-0.0506311
-0.300158
-0.144146
-0.113782
0.257928
0.0219626
-0.0771163
0.0551537
0.00410794
-0.00602201
-0.0139161
-0.261621
0.275537
-0.00708753
-0.00676566
-0.170908
0.36772
0.157928
0.0506863
0.0104851
-0.0611714
-0.44844
0.579358
-0.206621
-0.164719
-0.0840787
-0.118818
-0.197173
0.0342485
0.162924
-0.0692866
-0.220915
-0.405121
0.224838
0.12143
-0.101686
-0.0197436
0.684938
-0.496699
-0.188239
-0.120448
0.147407
0.0210074
0.227334
-0.152435
-0.0182393
0.170674
0.576896
-0.135526
-0.44137
0.615326
-0.185756
0.0494249
-0.00803723
0.0931739
0.222572
-0.315746
-0.553811
0.0748558
0.649255
-0.643523
-0.0057322
-0.0578942
0.0845132
-0.026619
0.551517
-0.106419
-0.178927
0.0264917
-0.237058
-0.0126918
0.0148878
-0.00219596
-0.0741175
-0.127539
0.172326
-0.247355
0.0750291
0.0503729
0.14587
-0.235787
0.128074
0.107713
0.387756
0.131449
0.0697033
-0.095614
0.0252216
-0.183844
0.158623
-0.484813
0.0808145
0.167867
0.126467
0.352953
-0.259779
0.0766672
0.0161999
-0.0928671
-0.108278
-0.127509
0.516371
-0.395718
-0.120654
-0.030605
-0.0252833
0.0558884
0.153493
-0.121552
0.58288
0.0663749
-0.242754
-0.131821
-0.118057
-0.153544
-0.224822
0.378366
0.424893
-0.30402
-0.120874
0.658029
-0.35156
-0.306469
0.134461
-0.0509953
-0.0834661
0.0209602
-0.00781151
-0.0826393
0.0247451
-0.382528
0.162989
-0.0111291
0.542348
-0.172525
-0.140725
0.472599
-0.331875
0.28049
-0.0877216
-0.236815
0.600376
-0.36356
-0.118677
-0.419312
0.577294
-0.141014
-0.43628
0.137942
-0.447372
0.309431
0.0528942
0.0487559
-0.128944
0.141097
-0.012153
-0.524934
0.361424
-0.516455
0.343348
-0.215327
-0.128022
0.321896
-0.130229
0.157592
-0.0257647
-0.0845841
0.110349
0.0073061
-0.00216698
-0.00513912
-0.530082
0.293267
-0.144825
0.326483
-0.545686
-0.00812408
-0.327822
0.450615
-0.122793
0.401498
0.148255
-0.549752
-0.467706
0.259659
0.208046
0.17391
-0.149278
-0.0246322
0.172411
-0.283699
0.111288
-0.21036
0.32365
-0.0295485
0.181598
-0.160893
-0.0207046
-0.725134
0.294456
0.430678
0.305792
-0.137924
0.538232
-0.195314
-0.342918
-0.257051
0.0951894
0.352829
0.163542
0.395039
0.213738
-0.608777
0.198661
-0.169624
-0.029037
-0.248333
0.169283
-0.340488
0.478429
-0.0977522
0.0832268
0.51889
-0.371445
-0.147445
0.0983264
-0.138971
0.291458
0.133436
-0.185325
-0.356098
0.541422
0.243665
-0.397209
0.497148
-0.354079
-0.143069
-0.0611824
0.12753
-0.0663472
0.511556
-0.183029
-0.328527
-0.220955
0.0443828
-0.353477
0.197142
-0.584347
0.387205
-0.498515
-0.142617
0.641132
0.220369
-0.234285
0.15607
-0.489475
0.333405
0.0764935
-0.0545309
-0.0833156
0.0707622
0.0125534
0.311038
-0.415952
0.104913
-0.0329641
0.231654
-0.19869
0.00621558
0.00109052
0.223516
-0.0943442
0.0245164
0.149394
0.206636
-0.0544616
0.0338008
0.0426927
0.13677
-0.260394
-0.525907
0.40723
-0.481954
0.336224
0.14573
0.226743
-0.0544169
-0.0260075
-0.0573081
-0.379969
0.365662
0.211632
-0.208602
-0.204418
0.171454
-0.125378
-0.129634
0.255012
0.378738
0.11841
0.126364
-0.0284946
-0.0978694
-0.193873
-0.246555
0.440428
0.120681
-0.234405
0.113724
-0.0232915
0.103349
-0.425009
0.231136
-0.218216
-0.0327944
-0.454692
0.138148
-0.129123
-0.00902464
0.421137
0.168545
0.219955
-0.179906
-0.0400495
0.122766
0.22217
0.121178
0.094398
0.0291442
0.309552
-0.394099
-0.0148442
0.00215241
0.0380097
0.152892
-0.0377739
-0.0393423
-0.290074
0.51675
0.0196643
-0.0945805
-0.113616
-0.125107
0.13141
0.479267
0.117663
-0.586743
-0.204101
0.182577
0.0215235
0.0245431
0.0552611
0.496276
-0.642205
0.149154
0.297987
-0.447141
-0.222227
0.0556191
0.0844174
-0.244669
0.160251
0.0197588
0.0502974
0.169834
-0.261198
0.091363
0.1572
0.0414611
0.270423
0.150855
-0.421278
-0.369219
0.525289
0.381063
0.15717
-0.121339
0.489058
0.131511
0.075125
-0.367126
0.246124
-0.1825
-0.0636244
-0.152875
-0.20617
0.359045
0.235185
-0.111161
-0.124024
-0.189177
-0.103605
0.326177
-0.12852
-0.118835
0.528253
-0.381053
-0.1472
-0.140992
-0.345119
0.486111
-0.0662679
-0.0727828
-0.239432
-0.677242
0.438247
0.238995
-0.0279705
0.598732
-0.5315
-0.123224
0.0974591
0.20739
-0.0220072
0.0832404
0.192589
-0.275829
-0.064834
-0.13421
0.199044
0.00653689
0.213418
0.237462
-0.0558642
0.0164592
-0.0876969
-0.0269111
0.164976
-0.360636
-0.292735
0.271787
-0.558021
0.286234
0.277797
-0.105386
-0.179164
0.158359
-0.228717
0.21043
0.0182868
0.0955709
-0.0426767
-0.52625
0.634326
-0.0923524
-0.541973
-0.676162
0.234595
0.441568
0.07003
0.0513996
-0.342098
-0.155503
0.497601
-0.568442
0.0724873
0.261464
-0.0987997
-0.389295
0.191451
0.197844
-0.625861
0.24998
0.375881
-0.42396
-0.301174
-0.0538742
-0.142124
0.205366
0.0247701
0.232951
-0.651825
0.418874
0.0800492
0.146947
0.288772
-0.118938
0.355382
-0.659297
0.523515
-0.304018
-0.219497
0.00755019
-0.00755833
0.00892152
-0.00136319
0.41868
0.10021
0.0198238
1.38288e-05
-0.0198377
0.158339
-0.143958
-0.0143819
0.121451
0.593473
-0.269204
0.0142651
-0.0839528
0.107828
0.0266338
0.172832
-0.415988
0.243156
-0.541952
0.170507
-0.00772938
0.0962972
-0.0977577
0.0569944
-0.0608799
-0.06697
0.204949
-0.384322
-0.0749228
-0.00337348
0.228408
-0.0688488
-0.159559
-0.292136
-0.167482
-0.0296912
0.00920455
0.103072
0.0232923
0.314096
-0.0111528
-0.546695
0.0250403
0.521655
0.139913
0.365226
-0.505139
0.162487
-0.210043
0.047556
0.134507
0.172354
0.0253318
0.146148
-0.17148
-0.387186
-0.238675
0.000601763
0.00840539
-0.00900716
-0.267582
0.318645
-0.0510637
-0.0220611
0.0718501
0.0697747
-0.00968068
-0.060094
-0.299906
-0.161972
0.62822
-0.0769854
0.189225
0.468804
0.0953814
-0.0105364
0.0927003
0.162776
-0.255476
0.427053
-0.499719
0.174203
0.0542048
0.00381637
-0.00119541
-0.00262096
0.181692
-0.491226
0.309534
-0.522435
-0.100659
0.674864
-0.26183
-0.413033
0.442155
0.0346058
0.00120067
0.530413
-0.258626
-0.575459
0.194875
0.380585
-0.280182
0.156344
0.123838
0.0087117
-0.608322
0.0764823
-0.0702529
0.31472
0.269242
-0.665041
-0.671078
0.267942
0.403135
-0.158302
-0.378587
-0.140517
-0.202892
0.573754
-0.370862
0.283391
-0.0838978
-0.199493
-0.0430597
0.141386
-0.444291
-0.0855396
-0.131771
-0.101894
-0.117988
0.339942
-0.221954
0.113048
-0.0132138
-0.253914
-0.0742577
0.106235
-0.0789412
0.0187075
0.0790606
0.167064
0.397441
-0.110133
0.0951648
-0.0353391
0.103244
-0.0304229
0.174266
0.198569
0.100868
-0.299437
0.28821
0.0142082
-0.302418
0.343855
-0.546747
-0.115137
0.576357
-0.315881
-0.158185
-0.376622
-0.524018
0.210868
-0.0764781
0.233123
-0.156645
-0.144532
-0.0946677
0.2392
-0.233163
-0.219016
-0.673841
0.488293
0.185548
0.38006
0.0214053
-0.583794
0.0416989
0.542095
-0.427956
-0.0232196
0.451175
0.433484
-0.524763
0.0912791
0.532279
-0.137239
0.551248
-0.132568
0.101282
-0.167322
0.06604
0.200557
-0.166426
-0.034131
0.115923
0.367714
-0.483636
0.152225
0.0371421
0.223622
-0.0744187
-0.149204
-0.11571
0.123533
-0.124305
0.0450521
-0.278007
0.232955
-0.583794
0.528188
0.106138
0.316899
-0.00280314
-0.290195
-0.233823
-0.187053
0.0813371
0.105716
-0.460666
0.637643
-0.176977
-0.141136
0.57462
0.129776
-0.407673
0.277897
0.0310117
-0.143549
-0.495063
0.374594
-0.0666573
-0.0193602
0.0860175
-0.0526382
-0.151463
-0.438598
0.511085
0.367721
0.155793
0.245049
-0.0825614
-0.556292
0.435541
0.127268
-0.271415
-0.335753
0.217765
0.028931
-0.196581
0.16765
-0.523228
0.362143
0.161085
0.101497
0.133688
0.12283
0.220857
0.164441
0.0361158
-0.152934
-0.0571093
-0.275825
-0.280468
0.466103
-0.239194
-0.412632
0.089743
-0.107762
0.494976
-0.313284
-0.188962
-0.218122
-0.0597757
-0.136281
0.196057
0.094071
-0.250565
0.156494
-0.103393
-0.422515
-0.0580858
0.305967
0.419796
-0.270642
0.15484
-0.219674
0.390252
-0.528373
0.424981
-0.340643
0.15289
-0.26184
0.424827
-0.293555
-0.131272
-0.317535
0.630636
-0.13436
0.0795342
-0.160725
0.152704
-0.611332
0.184165
-0.156745
0.567301
0.0363265
-0.32645
0.440024
-0.113575
0.413459
0.137789
-0.35197
-0.328387
0.175512
-0.0637302
-0.0810747
-0.466914
0.02519
0.441724
-0.233774
0.0530179
0.13957
-0.038085
-0.101485
-0.422355
-0.0445585
-0.000856666
0.0206805
0.346499
-0.461334
0.114835
-0.443384
0.15892
0.284464
-0.318603
0.514293
-0.378317
-0.0113955
0.0620817
-0.136549
0.093489
-0.511601
0.181178
-0.0482541
0.178394
0.150697
0.0122926
-0.169585
-0.0441171
0.213702
0.0606163
-0.146738
0.0183824
0.107172
-0.274145
0.166973
-0.161121
0.164856
-0.00373449
-0.459866
0.0319099
-0.0605962
0.158215
-0.522052
0.548739
0.0314107
-0.0574182
-0.441729
0.34613
0.194266
-0.335945
0.250852
-0.448205
0.197353
0.0396723
0.0554924
0.305247
-0.108667
-0.19658
-0.101689
-0.0450487
-0.0749471
-0.0130116
0.0879587
-0.216463
0.027309
0.493271
-0.338389
-0.154882
-0.25112
0.296172
-0.0496382
-0.228569
-0.136798
0.365367
0.0544345
-0.0439495
-0.153634
-0.0204403
0.129968
0.0109843
-0.0415894
-0.110844
0.309413
-0.0318306
0.0022344
-0.170362
0.168128
0.519153
-0.385851
-0.133302
0.183392
-0.408214
0.12155
0.101966
0.473026
-0.618789
0.145763
0.148292
0.0100474
0.553187
-0.433249
0.171878
-0.10564
-0.321271
0.145521
0.17575
0.00655723
0.0378453
-0.0444026
-0.29885
0.439694
-0.446807
0.165731
0.281076
0.0936183
-0.592133
-0.184007
-0.0310084
0.215015
0.258126
0.406171
-0.455852
0.62813
-0.150451
-0.0520921
0.202543
0.352162
0.159394
0.150668
-0.435303
0.284635
-0.00905483
0.0014965
-0.405895
-0.199066
0.0486153
0.113394
-0.243028
-0.200697
-0.090487
0.291184
-0.299135
0.373632
-0.0744976
0.385863
-0.135011
0.563683
-0.405142
-0.158541
-0.201766
-0.401862
-0.129202
0.129888
-0.165866
-0.654282
0.450251
0.204031
0.0782556
0.549701
-0.164362
-0.385338
-0.181004
-0.26238
-0.29655
-0.247832
0.455795
-0.305127
-0.115797
0.0312128
0.105095
0.166321
0.508542
-0.449764
0.524477
-0.394567
-0.129909
-0.264108
-0.189296
-0.251624
0.0691245
-0.388512
-0.209044
0.156406
0.438774
-0.256811
0.04884
-0.320967
0.217362
-0.0147978
-0.0141859
0.0289837
-0.102074
-0.142353
-0.439309
0.17407
-0.148861
0.118438
0.392169
0.145005
-0.010403
-0.149579
0.24228
0.351895
-0.52814
0.176245
-0.208728
0.39212
-0.0016387
0.0901975
-0.0885588
-0.207247
0.559739
-0.352492
-0.333758
0.209756
0.124003
-0.480229
-0.0590314
0.0517187
0.00731266
0.530155
-0.364944
-0.16521
0.293375
0.131452
-0.611855
0.156003
-0.112059
-0.00203136
-0.0137373
0.0418288
-0.0875557
0.107307
-0.0126978
-0.353936
0.610835
-0.256899
0.398016
0.132138
-0.128451
-0.151731
0.701134
-0.446421
-0.254712
0.225422
0.00937138
-0.0622329
0.0528615
0.208877
0.00119136
0.0430308
-0.0442222
-0.542431
-0.0856915
0.447762
-0.36207
-0.144289
-0.0074585
0.176493
0.245121
0.165714
-0.0139677
0.161204
0.222415
0.0290985
-0.251514
0.0178558
-0.0153043
-0.0824478
0.105134
-0.0871464
-0.0179879
0.0929299
0.365069
0.128202
-0.176652
0.259893
0.288774
0.412359
-0.614208
0.370675
0.243533
0.21266
-0.05546
0.210379
-0.32142
0.111041
-0.236024
0.141356
0.165444
-0.394493
0.229049
0.147283
-0.239766
0.092483
-0.15089
0.710103
-0.500735
-0.209368
-0.17163
0.216071
-0.0444413
-0.210671
0.176311
0.0343596
0.0747041
-0.0967651
0.229167
-0.540753
-0.461742
0.378774
0.0829679
-0.0326589
0.113856
-0.0811975
0.110167
-0.00503229
0.136695
0.477764
-0.0147513
-0.0442801
0.397158
-0.231713
-0.0707723
-0.000473065
0.0712454
-0.0418021
-0.00495184
0.046754
-0.183113
0.0135286
0.142669
-0.365589
0.22292
-0.146411
-0.070836
0.217247
-0.426044
-0.164294
-0.267962
0.357778
-0.17374
0.145971
0.0277688
0.0438225
-0.342957
0.457081
0.253021
-0.239176
-0.375032
-0.0273957
0.0339529
0.308179
-0.29417
-0.0145338
-0.151053
0.165587
-0.188867
-0.0913742
0.280241
-0.374007
-0.152619
0.00866111
0.556037
0.0357149
-0.591752
0.554783
-0.325616
0.110762
0.0288085
0.427386
-0.0903197
0.0489237
0.041396
-0.222424
-0.245281
-0.00167419
-0.00092574
0.00259993
-0.0203573
0.167641
-0.150598
-0.160207
-0.0795588
0.048098
0.164562
-0.519616
0.138563
-0.143588
-0.0439686
0.253726
0.431212
0.0334414
-0.183717
0.150275
-0.133988
0.500127
0.0858451
-0.0544344
-0.131984
0.142782
-0.0107981
0.0601871
-0.0508157
-0.136277
-0.0155536
0.151831
-0.196456
-0.0736502
0.0622547
-0.153342
-0.0203982
-0.715565
0.262332
0.453232
-0.106868
-0.228885
-0.395243
0.292137
-0.0983407
0.696496
-0.276147
-0.420348
0.487813
-0.169896
-0.317917
-0.69893
0.454456
0.244474
0.015241
-0.222724
-0.106013
-0.0866872
0.211526
-0.124839
0.191069
-0.162138
0.420661
-0.150239
0.441457
-0.249437
0.0983891
0.151048
0.194235
0.425579
-0.619814
-0.382242
-0.165205
0.425134
-0.0709421
0.155926
-0.252709
0.331463
-0.0787537
0.320336
-0.527584
0.55432
0.000542377
-0.554863
-0.150152
-0.126858
0.277011
-0.322962
0.397028
-0.0555421
0.257168
0.439328
0.26859
-0.118583
0.00762276
0.003965
0.0115261
0.147544
-0.201418
0.0427088
0.0131796
0.135659
0.00543804
-0.425837
0.133248
0.292589
0.0783279
-0.0991551
0.0208271
-0.0968824
0.0815781
-0.0257088
-0.0434057
0.0691145
0.00629696
0.14533
-0.151627
0.533234
0.170778
-0.0224863
-0.702654
0.426507
-0.448126
0.157391
-0.248276
0.090885
0.17047
0.0808596
-0.25133
0.0771848
-0.148127
0.373199
0.151278
-0.350789
0.545663
0.0942117
0.194702
0.0886893
-0.239573
0.0799442
0.175097
-0.255041
-0.13607
-0.0307906
0.16686
-0.148248
0.508729
-0.360481
0.018624
-0.325667
-0.173603
-0.201276
0.223128
-0.116903
-0.0830265
0.0573177
0.00557997
-0.00740876
0.00182879
0.130271
0.13832
-0.161987
-0.314797
-0.030003
-0.174415
0.220881
-0.525484
0.377236
-0.149192
-0.185284
-0.305942
-0.155892
-0.0341108
0.190003
-0.0872634
0.0709012
0.155842
0.599248
-0.248173
-0.351075
-0.0521277
0.0516547
-0.0805471
0.425709
-0.150264
0.183705
-0.157484
-0.0216803
-0.0980241
0.0963854
0.00681734
0.226676
-0.072766
0.0896054
-0.0168394
-0.185743
-0.436666
0.0856885
-0.0159851
-0.491162
-0.286154
0.172372
0.184636
-0.499347
0.314712
-0.168042
0.153508
-0.528047
0.203464
0.6151
-0.21956
-0.39554
-0.497767
0.312483
0.0147277
0.16351
-0.178238
-0.287887
0.726561
-0.254547
-0.472014
0.126117
0.277951
-0.404068
-0.308933
0.0438524
0.26508
0.152422
-0.127475
-0.0249468
-0.0652853
0.21448
-0.149195
0.309624
0.129769
0.34283
-0.237217
0.0975177
0.139699
-0.00191792
0.0103233
-0.214919
-0.0367052
-0.351404
-0.13623
0.487634
0.236186
0.490375
0.630863
0.217765
0.0545023
-0.272267
-0.709103
0.454556
0.20465
0.319198
-0.523847
0.227515
-0.0538196
-0.173695
-0.239494
-0.0888552
-0.764781
0.285362
0.47942
-0.0315031
-0.129618
0.1345
-0.199448
0.0649472
-0.41388
0.095805
-0.144059
0.0257622
0.161362
-0.187124
0.184043
-0.0318182
-0.25143
0.117072
0.134358
-0.430278
-0.285286
0.0458616
-0.00873712
0.12809
-0.119353
0.218913
0.181123
0.099367
-0.00359127
-0.112918
0.11651
0.385034
0.134118
0.1978
-0.0931528
-0.104648
0.00994982
-0.53086
0.52091
0.186462
-0.19255
0.00608772
0.0121185
0.0921762
-0.104295
0.303193
-0.0854276
0.0421118
-0.0440282
0.23049
-0.00695166
-0.00971759
0.0166693
-0.111043
-0.0678832
0.0761794
0.315136
-0.391316
0.07973
-0.229882
-0.0106612
0.0853653
0.163616
0.12263
0.308507
-0.0202974
-0.418036
-0.0980436
0.571069
-0.0887377
0.0159716
-0.533354
0.380638
-0.603283
-0.125636
0.436674
-0.459017
0.512429
-0.0534126
0.617251