/*--------------------------------*- C++ -*----------------------------------*\
| =========                 |                                                 |
| \\      /  F ield         | OpenFOAM: The Open Source CFD Toolbox           |
|  \\    /   O peration     | Version:  v2012                                 |
|   \\  /    A nd           | Website:  www.openfoam.com                      |
|    \\/     M anipulation  |                                                 |
\*---------------------------------------------------------------------------*/
FoamFile
{
    version     2.0;
    format      ascii;
    class       volScalarField;
    location    "100";
    object      omega_0;
}
// * * * * * * * * * * * * * * * * * * * * * * * * * * * * * * * * * * * * * //

dimensions      [0 0 -1 0 0 0 0];


internalField   nonuniform List<scalar> 
13726
(
0.0221583
0.0245283
5.54781
7.12942
0.021925
8.99447
0.454703
0.0352857
0.0291279
5.16348
0.234698
8.14827
0.110106
0.0335997
0.0761052
0.0241022
0.0641921
13.1032
0.212072
0.0226411
0.0458827
0.0220303
0.0217787
0.0793207
0.0928443
4.53974
0.0227213
0.0227278
0.0367653
0.0322715
0.03482
0.0241366
7.53862
0.0368351
0.0288803
0.0891292
0.0219376
0.0220679
0.0289934
14.3723
0.0318889
0.0250324
0.0420213
0.0219773
0.0223841
0.0218365
0.0244184
0.108503
0.0251167
0.0257909
0.0509498
0.108535
0.0360307
0.0221708
0.0305076
0.0219657
0.0220756
0.0220262
0.0219205
0.0220415
0.021885
0.0216584
0.0245504
0.0781128
0.0463989
0.0217806
0.0222062
0.0258671
0.0364686
0.025175
0.0220675
7.52917
0.0260749
0.0657818
0.0313611
0.025265
0.0217887
11.5257
0.0795508
0.0813679
11.595
8.43868
0.0221533
0.0220256
0.0352337
0.224721
0.0257352
7.63288
0.131433
0.0247886
0.0236041
0.0220884
0.0219023
0.0220453
0.0222439
0.172913
0.0221149
0.0316852
0.153123
0.278548
0.024593
5.79143
0.0351841
0.0219555
0.0252121
0.0249726
8.48499
0.0220459
0.0216459
0.024171
0.0220707
0.0224333
0.0221074
0.0335059
0.0226628
0.074989
0.0221734
4.14053
0.0237108
0.570568
0.0445538
0.310043
0.0528651
0.031461
0.0219418
0.0219363
0.022289
3.4974
0.0221742
11.7048
0.0220774
0.117151
0.0220681
0.0248345
0.0307905
0.022078
0.0802098
0.0222649
0.0218811
0.0239681
0.0218863
0.0219839
0.15857
0.0220192
0.163598
0.0218195
0.0528411
0.0288864
0.0448857
0.0233444
0.0543228
0.0221137
0.0399912
0.158199
0.0219757
0.0318204
0.0331906
0.0218778
0.0386582
5.40026
0.0248962
0.0246815
0.300468
5.10938
0.0253631
0.0222394
0.0217787
0.0219003
0.0288674
0.0219192
0.0220044
0.0324851
0.0258702
0.029618
0.0248414
0.0229423
11.6529
4.10128
0.0220789
3.52826
0.031437
0.0539642
3.71376
3.87361
7.85044
0.0257458
7.78592
0.0229798
7.6989
0.021872
0.0397497
0.0218908
0.0218531
0.0220374
9.90423
0.0338822
0.0234145
5.57851
0.0218312
0.0247769
0.0251415
0.0220702
0.0217869
0.0236075
0.0220284
0.0236375
0.108112
0.2425
0.021984
9.45085
0.0219245
5.46808
0.0255162
0.0217837
0.022077
0.188362
0.0457587
0.0218647
0.168044
0.210106
0.0216787
0.0220088
0.0379604
0.022417
8.03878
0.0228387
0.0218498
0.352809
0.0218766
0.050207
3.64307
5.16724
6.36058
5.71415
0.0323177
7.98578
0.0222507
0.0298779
0.0218771
7.44721
0.0222657
0.0330343
0.022262
0.0792261
6.33873
0.0562549
0.0444722
0.0219687
0.0506569
0.0223659
0.0649725
5.56243
0.0220318
0.0249472
0.022062
2.26935
0.0219201
0.0388177
6.03778
0.0219876
3.49756
0.021954
0.0220562
0.0218361
0.0220638
5.27692
0.0225515
0.0330514
0.0429898
0.0701555
0.0411
0.0222703
0.0727724
0.125396
0.0511357
0.0222347
0.0457794
0.0235785
0.111954
0.0279543
0.0219602
0.0218248
0.0315796
0.074358
0.0473403
0.0594981
0.0294952
0.0288045
0.199241
14.9985
0.0732672
0.0286258
13.5488
0.0218768
0.0289979
6.08846
0.0221955
0.194848
0.0223088
7.23327
0.0280696
7.06353
0.0253056
7.20082
0.0406741
0.0352945
0.0219815
0.0221179
0.0415473
0.0216138
0.0491916
0.0326121
10.1086
0.0259997
7.12242
3.62916
0.0229149
0.181129
0.0222342
9.33542
0.0220535
0.0417989
8.11923
0.0297736
0.0218408
0.0237784
3.48074
8.92639
7.84722
0.0218776
0.0220417
0.0221949
7.79773
0.0218984
0.031962
0.0497551
0.0218995
0.0329374
0.0318793
7.23533
0.022291
0.0219742
0.117934
0.17299
0.0321869
18.8319
0.0218515
5.26246
0.0218804
0.0219066
0.0220359
3.76241
0.0231003
0.0220446
0.0220782
0.0290961
0.0503885
0.169466
6.126
0.0218215
0.0366148
0.035507
0.513363
0.100676
0.0220827
0.022023
0.0434823
0.0329669
0.0261169
0.296361
0.0226484
0.0469393
0.0225173
0.0279917
0.022294
4.2988
0.0216528
1.22877
0.0468068
7.88305
0.0525495
3.93614
0.0380232
0.0218485
0.066075
0.0291459
4.38091
9.73571
0.0224148
0.022098
0.0220379
0.0218742
0.0531294
0.0249369
0.0286701
0.0365991
10.6239
0.467385
0.0259403
0.0264296
0.0954881
0.0215973
0.0254867
0.0230359
0.0236637
0.453573
4.90934
0.0573994
0.0436643
0.0252572
7.97655
0.0229111
0.0509711
0.0233042
0.0520737
0.0220674
0.2006
0.0218471
0.022939
0.0218891
0.0218363
0.027543
0.0216012
0.0222527
0.0319271
0.0221991
0.0246444
0.0288554
7.97191
0.0216175
0.0345013
0.0216527
0.0278456
0.0218026
4.76752
0.0222626
0.0220044
0.0221517
5.54275
7.76239
0.0222381
0.0229977
0.0220046
1.37473
0.0237138
0.022278
0.11243
7.47921
0.0264056
0.208498
0.022119
0.390365
8.94327
0.0218408
0.0499486
0.107336
0.0222079
0.0225511
0.0263609
0.0280883
0.0219334
0.0217535
3.13311
0.0283121
0.0535247
6.2995
0.0220308
0.0820781
0.0219329
6.36081
0.0220391
0.0215838
0.116703
7.02246
0.0809241
0.0669485
0.0982742
0.022398
0.0276085
0.0413958
0.0216519
0.0219397
0.0229416
7.97721
0.0223363
0.0364739
0.0216442
5.39965
0.0871467
0.190603
4.5059
0.0221594
0.032544
13.5096
0.0564077
0.0235862
0.0237434
0.0220564
0.0215976
0.022287
0.286758
0.0456332
0.0261059
0.0222308
0.0219304
2.36698
0.021816
0.0218039
0.0353878
5.4993
0.0221774
0.0234468
0.0227145
0.0220948
0.0219632
0.0229502
0.0221323
0.0218968
7.47722
0.0219633
0.0260095
0.0216562
4.06264
0.0219587
0.0220139
0.152447
0.0220526
0.0606472
0.0768891
0.0257333
0.239416
0.0218367
0.0218105
5.15974
6.47057
8.199
8.13631
0.0222666
0.0281922
0.0221
0.0220165
0.26326
8.93955
0.0285161
0.0222744
0.0217374
0.0219212
0.0247987
0.0223598
2.81796
0.0218176
0.26167
0.0311435
0.0403033
0.0222985
0.0265182
0.0240214
6.42704
0.0221237
0.0220082
0.0225556
8.11189
0.023386
0.0981127
0.0342571
11.4767
0.0370923
0.0221285
0.345709
8.51257
0.0331666
0.107506
0.0221162
0.0272275
0.04026
0.0530942
3.38842
0.0219279
0.0216725
0.0221271
0.0216092
0.0220216
3.62679
0.0235203
0.0224691
0.0219488
0.0221618
0.0224079
6.51643
0.0681235
17.6485
0.025596
0.0277585
0.343049
0.0246906
0.0378935
0.0224313
0.0226342
5.02943
0.022176
3.24145
0.0221788
0.0224289
0.0225017
5.82287
16.1886
0.0291386
0.0219584
0.115685
0.0222701
0.030929
0.0246099
0.0219996
0.0221849
0.0222515
0.0224536
0.0222448
0.025025
0.0733253
0.0217806
0.0220322
0.025099
0.0221011
0.0865075
11.0498
11.0573
0.025805
0.02198
0.0222412
0.0247313
0.0283552
0.0323192
8.6659
0.0217303
6.52356
0.167453
0.0223154
0.021609
0.0219506
8.25236
0.0222843
0.022225
0.0222507
0.021828
0.0220303
0.0672151
0.0216511
0.0606837
0.183391
0.0221773
0.0219024
0.0219405
0.124661
0.0226232
8.92699
0.395069
0.0221696
0.390135
8.78997
0.0280136
0.0227524
0.0218243
0.0262819
0.023151
0.0217852
3.61709
11.1822
0.0358619
0.0738731
0.0316288
2.94759
0.0220382
4.52031
0.0282385
0.126303
0.0220181
0.0223289
0.0232221
0.0219447
0.222942
0.0229523
0.0249298
0.0229026
0.0825082
0.0838658
0.0220182
0.0722026
7.95357
9.62366
0.0484046
0.0451776
0.0219439
11.0191
0.0218133
0.0331189
0.0221118
0.0231031
0.0494427
0.0221457
0.0268603
2.91708
0.108253
0.0220941
0.0251359
0.0487158
0.0222376
0.0260188
3.62637
0.0218233
0.0220707
6.10237
0.0220523
0.0221167
0.0251176
4.34314
0.0222614
0.1376
0.0217675
0.0216566
0.0363959
0.0220354
0.127112
12.5685
0.022206
0.0223961
0.0220999
0.0249935
0.0218357
0.0221121
0.0218238
0.237597
0.0225864
0.0225638
0.0306813
9.87059
0.512905
0.022089
0.0225807
0.0432579
0.0429988
6.7207
0.0386544
0.0347514
0.0235067
9.01161
0.178659
0.0678679
0.0385532
0.0220112
3.78594
0.0221425
0.0222424
0.0220385
0.0216675
0.0218432
6.09008
0.0344915
0.0222923
0.0216431
0.0216782
0.0227747
0.0223707
2.02025
0.0218431
0.0234347
0.0221521
0.0220341
0.0219377
3.05958
0.0215782
0.152127
0.0288682
0.0218199
0.0221214
0.0220557
0.0220783
0.0329946
14.9162
0.0304587
0.127915
0.0336092
0.0521137
0.026025
0.02191
1.31586
0.0400905
0.0244683
0.0219309
0.0246546
0.401038
6.70795
0.0221309
0.0222458
8.23695
0.0247773
0.0517476
0.0288915
0.14515
0.0239129
0.0222719
0.0239058
0.326114
0.0220393
0.0222647
0.0488687
0.0309704
0.0220193
0.107944
0.0222432
0.0222505
0.0307039
0.0766684
0.0225226
7.91784
0.0277959
0.0219341
0.0222874
0.0279742
0.0219924
0.0221392
0.0220703
0.0219684
0.208708
0.0222707
0.021824
0.0573965
0.113558
0.0325228
0.0221958
20.2219
0.0219234
0.0436927
0.0220486
0.0216191
0.0219515
0.0222648
0.0220378
0.0486126
0.0217561
0.0219733
0.0249921
8.16213
0.0500312
0.158129
0.0235095
0.0217085
0.0221254
0.125162
0.0287542
0.0220389
0.023728
0.793812
3.3482
0.0757589
0.120003
0.026004
0.0222764
0.0220233
1.03584
8.34658
0.0224523
0.0219528
0.0215682
0.0679269
0.0291913
0.0215854
0.0215645
4.22163
0.0518163
0.0403194
0.0220429
0.0228816
5.43399
0.0220977
0.34757
0.0219635
0.0219482
0.0229742
0.0220544
0.0222639
0.0247697
0.0219623
0.021938
3.61806
7.4961
0.0219448
0.0310434
0.0219447
0.0230842
0.150379
0.0459888
9.80915
0.0217477
0.0220508
0.0218041
0.0216025
0.0219273
0.021578
0.0226528
0.0219671
7.82691
8.13073
0.0221186
0.0282153
0.0229732
0.025509
0.0220905
0.023591
0.0218609
6.55388
0.0220404
0.0222919
0.0224306
0.0322068
0.0215035
8.02161
5.62539
0.021779
0.0548214
0.0218433
0.022078
0.0220676
6.54564
0.0215152
0.15509
0.0219162
0.0222732
0.0255885
0.0219451
0.0218337
0.022031
0.0221452
5.50706
0.0273214
0.0224516
0.022284
0.0331159
0.022056
0.0261645
5.57634
0.0222631
0.0323296
0.0216395
3.1837
0.022058
4.00988
4.93239
0.0220962
0.0231248
0.0238347
0.0249286
0.0220786
0.0217937
0.0259112
0.022115
0.0221283
0.0217954
0.0220119
0.0235374
0.0246605
0.0219263
0.0222316
0.025791
0.0309979
0.0219373
0.0219687
16.1963
0.021605
0.0219479
0.0218074
0.0242213
0.0316473
3.59155
0.0222505
4.3983
0.0220283
0.0903909
3.5333
0.021502
0.0493041
0.0218975
0.0219413
0.045323
0.0235768
0.0218105
0.0447403
0.0222654
0.0222984
0.0281622
0.0219221
0.029062
0.0222247
0.0311343
8.45896
0.159541
0.0218383
0.0220459
0.0220509
0.0218174
0.0221469
7.7679
8.10678
0.282034
0.0217134
0.782817
0.0227717
0.0465434
0.140631
0.0509602
0.0218945
0.0219764
0.0220313
0.852947
0.0223704
0.0286744
0.059987
0.0226913
0.0217207
0.0378373
5.97332
20.8109
2.04609
0.0221702
0.0215886
0.468149
12.5195
0.0220302
3.70693
0.0252918
0.256431
0.0226763
0.0656464
0.0219497
3.94236
0.024564
0.0268416
3.75725
0.0218958
4.68904
0.0219061
0.0243356
0.174417
2.47025
0.0316485
0.0219432
0.0331087
0.0218246
0.0773678
0.0283092
0.0247928
0.0223449
0.0224394
0.0226787
0.0219003
0.0216841
0.137785
0.0219692
8.74158
0.0222314
0.0292273
0.0316105
0.0231555
0.0245974
0.080922
0.0230362
6.22126
0.0227651
0.0394465
0.104165
0.188437
0.178218
0.0248131
0.0322484
0.21126
12.8282
0.0219249
6.04768
7.94389
0.770781
0.0492709
0.0219704
7.13001
1.98757
0.0218871
0.0220179
0.0219144
0.0218465
0.0219124
0.021743
0.0217607
0.0227589
0.304249
0.0229588
0.0629764
0.0542166
0.0235385
0.0224831
0.0222518
0.0555525
0.0545168
0.0324255
0.0217513
0.0236814
0.0222695
0.0220294
0.024667
5.40584
0.034218
4.31014
4.06112
0.0305468
0.0220244
0.0243504
0.0499566
0.0278606
0.0244476
0.0219742
0.209839
0.0218241
0.0232399
0.0218199
0.0937383
0.0217772
0.0376227
0.0339072
0.0261636
0.0266615
0.0220453
0.0219032
0.0334826
6.71968
0.0281895
0.0219349
0.023323
15.1147
0.0219713
0.0220711
0.0221372
2.85897
0.0217157
0.137423
0.0216367
0.0219438
0.167876
0.267865
8.31417
6.88235
0.0217301
0.0218167
0.0220318
0.0220902
0.022108
0.0372616
0.0472904
0.0277048
0.022048
0.0216764
3.2066
17.3709
0.0234302
0.239758
0.0219393
0.0218169
0.0220036
0.0250001
0.038708
3.72689
8.93996
0.021947
0.0223233
0.476208
0.0219399
0.0352825
0.0428374
0.022911
0.0219452
0.0215778
0.0221584
0.0762731
0.0219518
0.0221054
0.242339
0.0457284
9.52671
2.46991
0.0222432
0.0492285
0.126789
0.159767
0.0218048
0.0217827
0.171709
7.75471
0.0220487
0.0222047
0.0221087
0.0222402
0.0219953
0.048201
0.0222665
0.021515
0.0813941
0.0342071
8.60279
0.0221608
0.0222913
3.96336
0.0225145
0.278427
3.55261
4.07687
0.13645
0.0223185
0.0476004
0.0217043
0.022058
0.0221515
5.69173
0.0273766
0.0215866
0.0246812
0.0221337
0.0217668
8.95957
0.0220517
0.0289857
0.0714378
0.025799
0.0388905
0.0255937
0.0720239
0.0244472
0.0216295
4.30743
12.5331
0.0223307
0.022784
0.0439876
0.0301524
0.0222116
0.0220527
0.0217905
0.0219917
0.0251092
0.0221522
0.225628
0.0241636
0.0222368
0.142103
0.0225483
0.022024
0.0218225
0.0221568
0.0675967
0.0221649
0.0217832
6.6826
0.0254366
0.0221156
6.207
0.0280337
7.41442
0.0882262
0.115548
5.50796
0.0220444
8.9171
0.0221893
0.0221727
0.0221621
0.0220786
4.96595
0.0257821
0.0220012
0.022717
0.0572059
0.0219077
8.49588
0.0221479
0.0339011
0.0230602
0.0228564
0.0219045
0.0272018
0.0409465
0.0241486
7.02236
6.22245
3.51586
0.178052
0.0250613
0.208131
0.0879776
0.0220744
0.0483203
0.0223318
0.0217977
0.136126
1.98341
4.21798
0.0220436
0.0219575
0.164997
0.2594
0.0368438
0.0226353
0.0226066
0.0312288
0.0323889
0.0224081
0.0220645
3.70269
0.0423448
0.0671068
0.0220327
0.0219023
0.0631951
0.0333068
0.150624
0.0227432
0.0275434
0.0334038
0.0245729
0.0234777
0.155943
0.0220487
0.0347448
0.0221963
0.0220095
0.039896
0.0253038
0.0220397
0.256851
13.6518
0.0220483
0.0577095
0.0276499
3.81241
0.0222821
0.0640767
0.0247497
0.022132
0.0529722
0.330091
0.0278165
0.0217943
0.02964
0.0927194
0.0355024
0.0603874
0.0224863
0.0790742
0.0250652
13.3328
20.193
0.635733
0.0321346
2.14903
0.0249587
8.7719
0.0220501
0.0220971
16.5639
7.22469
0.0221331
0.0222087
0.0931695
0.0283657
0.0557418
0.0316274
0.0216562
7.21148
0.0235743
9.33491
2.20212
0.0231373
0.136404
0.0333836
0.0251262
0.0217787
0.0240457
6.41663
0.0221213
0.02205
3.74661
0.106059
0.164288
0.0219076
6.34091
0.028536
0.0251499
0.0217995
0.027042
0.0486336
5.16411
0.0218516
0.292336
0.158499
0.022003
0.0246557
0.0218697
7.00646
0.0386681
15.5916
0.0434904
0.054636
0.0221297
0.0267031
0.0222842
0.0285992
0.0228405
0.029719
0.0309522
0.0228044
0.062815
3.45852
0.02198
0.0224814
0.139712
0.0221455
2.70206
0.0217707
7.9959
0.796596
0.0426084
0.148091
0.13846
0.0219249
0.0299397
9.17076
0.0221115
0.146451
11.8301
0.0221194
0.025168
0.0229109
5.99743
0.210802
0.0221467
0.0221216
0.0273126
0.122257
0.0220443
0.029436
7.65193
0.0222182
6.94675
3.67714
9.24683
0.0328683
2.80718
0.0317226
0.0223574
5.41886
0.0223315
6.48955
0.0374377
8.18223
9.06577
0.0217968
0.264352
0.0218613
6.33397
0.0447583
5.3079
0.0226018
6.96788
0.0239625
5.85197
0.244457
0.0295761
0.0221668
3.5414
0.0337327
0.0727697
6.83323
0.0234142
0.0249343
0.0806516
0.822166
0.0218971
0.041028
0.0216416
6.75839
0.0215663
0.0217826
12.7295
0.0215241
0.0411177
0.025994
0.0322957
0.0465376
0.0220292
0.0220922
0.0225878
0.0696447
0.124036
0.0229714
0.021927
0.0220769
0.0220822
0.0335135
0.0308429
0.0219412
2.01641
0.0307063
0.0220725
0.0301781
7.37618
0.021654
0.0217702
0.0217977
0.0220477
0.0226107
0.022373
0.0229918
8.39105
0.169827
0.0219525
0.0421534
0.0218137
0.0452124
0.199329
3.88006
0.0387458
0.0219224
0.0221864
6.9129
0.0221751
0.0219461
0.13179
0.197142
0.0220103
4.83868
0.0555241
5.64867
6.66146
0.120477
0.0218201
5.92443
0.0232853
0.0236262
0.0220424
0.0215745
9.23585
0.0978563
0.0220707
0.0520001
0.0631337
0.0220046
0.0542841
4.375
0.145334
0.0346752
0.023605
0.0221311
0.0236162
0.0220369
0.023283
0.0544597
0.0220987
0.0218144
7.6572
8.24958
0.0303155
0.0223633
0.0405461
0.0251098
0.606414
0.0250251
0.0226393
4.32665
0.145073
0.0470366
0.430683
0.197818
0.0453518
0.409534
0.0253667
1.06981
0.0301694
0.0216117
6.16854
0.0221094
0.027264
0.934633
3.54286
2.79371
0.0218521
0.0368779
6.45352
0.0230845
0.133456
0.0428533
0.139533
9.8744
5.71848
5.63725
0.0219319
4.92136
4.37741
0.124553
0.030446
0.0242816
0.0218903
0.0218637
4.49577
4.31062
0.211512
0.0232289
0.0399603
0.0327578
0.0225215
5.31462
0.0245133
3.82236
8.28638
0.0271049
0.0369359
5.55593
0.0691641
0.207297
0.022345
0.0219171
0.152071
0.0219739
0.0241437
0.022036
0.022072
0.0223577
9.10905
0.138033
0.0325142
0.0677508
0.0353922
0.0217194
0.0414487
0.0219942
0.0219122
0.0337658
7.9362
8.97239
0.0220841
0.0221507
4.56288
0.0219496
0.0282542
6.24602
0.0223214
8.32843
0.0688484
0.0222692
10.2962
0.026029
0.0222843
0.113491
3.28615
0.0245557
0.0220101
5.0433
0.0220533
10.544
0.107729
0.126733
0.0388847
0.0220179
0.043037
0.0237133
0.0222728
0.03708
0.0220557
0.0401299
0.0241298
11.6562
0.0216429
0.0222774
3.83077
0.506991
5.64236
0.0538668
0.021686
0.022229
0.0253072
0.11385
0.118019
0.0218224
0.119509
8.52599
6.41526
0.0426071
0.0218686
0.024104
5.81974
3.96999
0.0221827
0.0217704
0.023138
0.0229681
0.0225471
0.0433888
0.0218194
0.0218113
0.0222628
0.0420994
0.0460646
0.0661699
0.0703241
0.0229627
0.047898
2.6033
0.0369608
0.0220326
0.248719
2.83439
0.155244
0.0269026
0.0217944
0.139205
2.84333
0.0949155
0.0219241
0.0252157
0.0244975
3.64156
5.68455
3.31834
0.0260204
7.74951
0.0219218
0.0216967
0.0489305
0.040865
0.023713
9.74565
0.0262873
0.0221232
0.0371344
0.112656
0.043184
0.0221842
0.0482047
0.024028
0.0424699
0.022082
0.0222864
6.06571
0.0766905
2.79361
0.0220766
0.0373585
0.0270917
0.0217512
0.0220501
0.228042
0.0936634
4.08898
3.35939
0.0215159
0.0219325
0.0215322
0.028543
0.107567
7.16244
0.0219057
0.0220129
0.0228669
0.0264764
3.68409
1.92894
0.0383373
0.0219756
0.0258486
0.088161
20.0914
0.0448504
3.83656
3.67363
0.0324236
0.0235449
0.0220351
0.0241298
3.24673
0.211236
0.022286
0.0219735
5.80268
0.101153
0.0219201
6.9573
3.7207
0.528978
0.022088
0.0241863
10.8189
2.98579
5.95412
3.97238
0.0220096
0.0232338
0.0273068
0.0257132
0.136948
0.0218181
0.0424226
0.0218332
0.0415643
9.90092
0.0220253
0.0224357
2.67386
2.67834
2.78623
0.0220757
0.0946552
0.202808
7.14079
0.0222727
1.43115
13.2375
5.88731
0.0332065
0.0222686
0.0220479
6.81035
0.0220652
5.38845
0.0245159
0.0227108
2.81858
0.0261142
0.0599924
2.73165
0.0575108
0.0222491
0.106101
0.0296114
0.135681
0.0336028
0.0220787
0.0950238
0.0248867
0.0221908
0.038599
3.48268
0.0220462
0.0216478
0.0231203
5.38439
0.166957
6.46702
8.64388
0.10053
3.06392
0.0221463
0.0216965
0.0502427
0.0220266
2.4213
0.0222719
0.021927
0.0249342
4.63279
0.02784
6.42486
0.0218254
0.0658496
0.0450798
0.0219867
0.0228536
0.0232373
0.180976
11.56
7.326
0.0248507
4.91854
0.0415602
5.68561
0.0317277
0.0242253
0.0397423
5.95548
0.0284375
0.0554009
0.0220769
0.0498091
0.0220924
0.0254067
0.0279925
2.8374
0.108018
2.42228
0.0289125
0.0343023
3.86321
0.0293649
9.05442
0.0268183
0.0254043
0.136256
1.92008
0.0246162
3.83782
6.1346
6.68754
0.0220849
0.0244519
0.0220403
0.0330336
0.0219392
0.0220144
0.0217345
3.76023
5.53329
0.0251077
0.261953
0.0222724
0.0220072
0.0756332
0.0245993
0.026073
0.0239279
0.0221273
0.0670682
8.05163
6.73382
0.0217846
0.0276845
0.0282212
0.0219047
4.28913
8.52726
0.0235246
7.65296
5.49871
0.0655419
0.0220104
0.0223111
0.0217694
0.023602
0.0216422
0.0271826
0.021959
0.0570043
0.0953229
0.0217635
3.88417
0.0220614
5.80217
3.08596
0.0278708
0.0246802
5.80479
0.0221568
0.0217933
0.021792
0.0391408
0.0218864
0.0220823
0.0246718
0.0229947
9.43142
0.0220129
1.42299
0.028494
0.0220656
0.343583
0.0269104
2.57696
0.0514248
0.0219317
0.0230037
0.0221092
3.9679
0.0245049
0.0373901
0.0475875
0.0219286
8.65466
0.0474916
0.0285266
0.0217484
0.0218122
3.26138
0.0271985
0.0234101
0.0254
0.0243412
0.022684
11.8959
4.60524
0.0223877
0.0224405
0.0220534
0.0253519
0.0256506
0.0223125
0.302183
0.0305618
6.09942
0.0264984
0.0266576
0.0243996
0.0251524
0.0221295
0.0238045
0.0302059
0.279441
0.0958791
16.539
0.0271905
0.0854126
0.0224273
0.115123
0.0290882
0.0231646
0.0372451
0.0272837
0.0220239
0.021638
0.0244872
0.0982201
2.47627
0.0221164
7.02007
1.54331
0.0306896
0.0220156
0.0222857
3.82156
0.0216814
0.0221127
0.0239446
0.23127
3.07491
0.022456
0.0274964
7.81809
4.43539
0.0220147
7.01843
3.90342
0.133985
0.021938
0.0237384
0.0221254
0.0813182
0.032141
14.9183
0.0285409
0.0303733
0.0326219
4.59927
2.71152
0.0291571
8.60725
1.15837
0.0659126
0.0220838
0.0323124
0.373866
0.0607658
4.96422
0.0221241
0.022272
3.70034
0.0247008
0.0220277
5.59215
0.0280117
0.0219415
0.325272
0.0593589
0.022888
0.0576379
7.55975
0.0230222
0.0221372
0.0273633
4.58383
0.0267591
0.0221069
0.0225039
4.95762
0.0851
0.0313839
0.0464307
0.053931
0.021575
0.0361515
0.0224414
16.0347
0.0217604
0.0224815
0.0222477
0.197888
0.0218293
1.62432
0.0537256
2.20066
0.0218461
0.165504
4.74461
0.021976
0.0227881
0.0492937
6.47337
14.6595
0.0255161
0.0221046
0.0220839
4.63543
0.0514876
0.316981
0.0244498
0.0221534
0.0353152
0.0219869
0.0688364
0.0218212
0.0485892
0.0218183
0.0491017
4.54991
0.0243749
0.0220258
0.0348962
0.0222738
0.268387
0.0220191
0.0457282
0.0219271
0.043276
0.0277551
0.0221773
0.044529
0.0215176
7.69674
2.14109
7.1906
0.0242617
0.0278977
0.0347441
0.0414661
0.0219332
3.54914
0.0216243
0.13588
0.0242294
0.0244436
0.118132
0.0222522
0.0243345
0.0274483
0.0224185
0.0245887
3.23187
0.0279613
0.122021
0.0344648
0.0222654
0.106563
0.0245928
0.0222496
0.0222734
0.0224644
0.0245919
0.0232531
4.48697
0.0219256
6.30175
7.07889
0.0331992
0.0218095
0.0220297
0.0352261
9.6668
0.021777
0.159373
7.49563
0.0433734
0.0287485
0.0267787
3.92911
0.263944
0.0276519
0.0221657
0.0299791
0.0219949
0.022079
0.0294977
0.764343
0.089442
0.0218204
0.126112
0.0298555
0.0218668
0.0354749
0.0233357
0.0324195
0.021811
0.0223234
0.0262755
0.0219262
0.0259575
4.45252
0.0224474
0.0220066
0.0261499
0.0312478
0.0221466
0.0221017
0.0308161
0.0964529
0.0228132
2.90541
0.0322181
0.0307929
0.0219829
0.0218909
0.0500931
0.0221762
0.0232396
0.0240108
0.0217837
0.0408754
2.63753
4.22045
3.67723
0.421657
0.0283444
1.42805
6.4875
0.0217131
0.0219008
0.138011
2.5373
0.0216564
7.7038
0.353688
3.59789
2.19661
0.201979
0.0309837
10.0146
0.228486
0.0220122
0.0261192
9.40282
0.042587
0.0409056
0.0222325
0.0215616
0.0442601
0.0244323
0.248445
0.0218761
0.0219025
0.138341
0.0669138
2.12165
0.161068
0.310427
0.0221409
0.0219682
0.0221725
0.0723559
0.22942
0.0240994
0.0244016
5.92482
0.0221117
0.403454
5.7276
0.0218605
5.48394
0.022041
3.74471
9.68407
0.0256551
0.0220133
0.0241997
0.0219564
0.0219968
7.52587
0.0220741
0.0233504
0.0216951
0.0230264
3.85902
0.0233262
0.0901739
0.0221706
7.53225
0.243591
0.0217814
0.225316
9.45545
6.52163
0.276276
6.22329
0.0318481
6.67191
0.0226765
0.0227158
0.0905716
0.0388905
4.35681
4.48959
0.113464
0.0222929
0.0217738
1.37661
0.0220164
0.0539811
0.0216479
3.11139
0.0219216
0.0220876
0.0221715
0.0220665
7.18904
0.0604478
9.34851
0.021905
0.0899094
0.0888698
1.95174
0.0488432
13.4587
0.335495
0.199168
1.10599
0.0794927
0.258244
0.0760614
0.0791514
0.0411991
0.0995773
3.04224
0.0217937
0.0309012
0.135939
2.6911
0.170813
0.0220202
0.0218724
4.96806
0.0381126
0.0218578
0.0224288
7.35879
0.0340379
0.0219716
0.0224258
0.0228752
0.0235487
3.20879
0.145542
0.150661
2.37088
0.227344
0.0221003
0.02175
0.024041
0.0220852
0.0937464
0.0224252
0.0302445
1.36183
0.0233766
6.34991
0.0276212
8.40731
0.0219683
0.0402444
0.0216081
0.223793
0.0221328
0.024259
0.029039
0.0220461
0.338863
0.0222725
0.30605
0.0218383
0.0224055
0.0220567
10.2374
0.0427947
0.0258933
0.401513
0.0234001
0.0845599
6.61131
5.5035
0.0223584
0.0218966
0.0342396
0.0468646
0.393191
0.0244774
0.021584
0.0220358
0.169446
0.0323494
0.0215599
0.214623
0.0225816
22.8938
0.150799
0.151124
0.162885
0.0225773
0.0221382
0.0240353
0.0220721
0.0220913
0.021863
6.67153
0.0221293
0.02189
0.0448094
0.210853
0.022192
6.01691
13.3316
0.0223371
0.179414
13.9799
0.0312076
0.0220737
0.218361
0.0288216
0.0217947
0.0218911
0.13
0.0216283
0.0215398
0.0471381
0.0217913
0.0222818
0.0221505
0.250672
5.18807
0.0319848
2.42917
6.42427
0.0222095
7.76147
0.0216453
2.67848
0.0255566
0.0337349
0.0683862
0.0219762
0.0220881
0.156764
0.0467335
0.0236228
0.381442
0.0245088
0.538902
0.021825
0.0221197
0.0238587
0.0321355
0.0279145
0.0222098
0.0308763
0.0383091
4.96777
0.11549
0.0221474
0.0218702
0.0221683
0.0378035
0.0221451
0.552587
0.368009
10.9486
0.197233
0.0330219
0.0737609
0.0220723
0.0216138
0.0900349
0.0218306
0.0276016
4.23156
1.6582
0.288811
0.13119
0.0960111
0.0952096
0.082429
12.8376
0.0232734
0.0219159
0.0283997
13.8707
7.16844
0.0220626
0.0224343
0.0255914
0.0219329
0.0632412
0.0247094
0.0314431
0.0221468
3.98081
8.12518
0.02191
1.26298
0.022229
2.12616
2.21565
0.022016
0.0228023
0.0661633
0.286427
0.0219242
0.0219803
0.245936
2.07095
0.0220017
0.0336469
4.95116
0.0223529
0.022245
4.73216
3.51371
0.0266588
4.54217
3.85187
4.37021
0.0340838
0.022189
0.0219845
0.0626925
0.0220973
4.61237
0.0216464
0.0225551
1.20762
0.0222514
0.021551
0.0250434
0.0227666
0.169741
0.0222917
0.184293
7.62142
0.105232
5.49905
0.107209
3.52993
0.0389521
0.0224842
15.4552
0.0220873
6.88375
3.79696
0.255973
0.0695532
1.4936
18.2007
0.0220579
0.0219498
0.02439
0.0217966
1.04171
0.0220863
0.414341
0.0227097
1.77984
0.0221266
0.0221727
3.20262
0.0219736
6.15473
0.209164
3.66021
0.0216056
0.0222419
0.0456951
3.74247
0.0404074
0.042631
0.021938
0.0221349
0.123795
0.0220401
4.42246
0.0228772
0.326801
0.0227914
0.0743252
5.07994
0.0414126
0.0218944
0.02319
13.5257
0.0298994
2.58217
3.90386
0.267372
0.0222503
0.0289915
0.0357074
0.0233204
0.0552339
0.022188
0.0219339
0.0231359
0.6795
0.0217284
0.0305071
0.0233102
0.0221217
0.0219466
0.0280589
0.107231
0.0223378
0.0513039
0.030948
0.0403837
0.0470112
0.0220912
0.0220963
0.291461
0.308162
21.1278
0.0242373
3.41807
0.0217857
0.0222659
0.0220548
0.0222485
0.0624537
14.6122
0.237518
0.0282011
15.994
0.0221104
0.040734
0.114983
10.3799
0.0277258
0.196561
0.0432766
0.0281059
6.85981
0.0230169
0.0481146
0.0415661
0.171293
0.245161
0.19042
0.0220656
0.0227606
4.61202
0.0283373
0.027235
0.0220155
0.0227458
0.0397772
0.0218824
0.0409395
0.0323625
0.167337
0.0450188
0.0242071
0.0222929
0.0243167
0.0274698
0.0669158
0.0240451
0.159889
0.0998161
0.042729
0.025587
0.0216855
0.0437183
0.0216771
0.0222174
12.5354
1.82792
10.2583
0.0219728
0.0220917
0.0372311
0.142106
0.0228795
0.0314143
0.022152
0.0280152
0.399363
0.0216382
4.31215
0.0321246
0.0636018
0.043325
0.0495891
0.0356729
0.0223217
0.0371008
5.83653
0.0219005
13.2191
0.0219351
0.0340835
0.0774367
3.19387
3.90929
0.0223259
4.07177
0.0266018
0.0222059
0.0216011
0.168552
13.3886
0.0221922
0.0228129
0.0455214
0.0497056
0.108092
0.0224404
4.41193
0.160805
0.0345538
0.0428938
0.0220828
0.0222173
0.0489306
0.0228667
0.0220012
0.022604
0.0221578
0.0227067
9.81027
0.0294232
0.151414
0.022233
0.0344599
0.919742
0.0219164
0.0317629
12.2086
0.0249229
0.0215704
0.0219845
0.183773
0.0216886
0.022312
0.0224959
0.022011
0.275638
0.0219095
4.66512
8.69572
0.0221555
0.0232064
0.0220748
0.0286545
0.0361228
0.0366474
0.0799325
0.0227959
3.88265
17.686
0.0281588
0.0220435
0.028539
11.2228
0.0221687
0.0215059
4.37198
12.4319
0.0223503
5.09523
0.117374
4.04439
11.7555
0.129177
0.0221372
0.038427
2.98743
0.022028
0.228672
0.0222643
12.0277
0.0466979
0.0398468
0.0222712
0.0303378
0.021836
0.0221762
3.99614
10.3376
0.0222854
0.0220358
0.0222837
0.0215591
3.50787
0.0298596
5.3877
0.0372539
16.5897
0.0224719
0.0218816
3.85279
1.84575
4.56268
0.381419
4.38092
6.09123
0.0383194
0.021767
0.0263754
0.0333196
0.200954
0.0491394
0.0348983
0.0470003
0.15523
0.0218997
18.2472
11.1765
0.0218466
14.218
0.0220156
2.88375
0.309705
0.100077
7.58886
0.0231221
0.444186
0.0236133
11.0519
0.0217512
0.0507565
0.0221571
3.47463
8.45671
0.0232059
0.02168
0.327404
8.48875
0.0655873
1.8838
0.021794
17.3815
0.0224671
1.00517
8.54385
0.383956
0.0335011
0.022043
0.0216093
0.0220791
0.0305536
0.0954783
0.722946
0.0491449
0.0644244
0.0380481
3.85729
0.10933
0.228394
12.0101
0.0224088
0.116636
0.0413336
0.0343092
6.00092
0.0288429
15.5534
0.0216533
14.8945
12.7739
0.0445527
0.0500157
0.340105
0.0216885
0.0277883
9.9293
0.127569
0.0271255
0.0440059
12.9253
0.035133
0.162437
0.0284782
0.0247668
4.22156
13.8611
0.0217444
15.1231
10.7803
0.024488
0.0405993
0.123454
14.2994
0.0218488
0.031493
0.0933415
0.0484654
0.0277643
0.037531
9.503
0.0221256
0.0946121
0.0220294
0.0217581
0.0359633
0.0220227
11.9556
0.0273038
9.08381
3.58941
13.0349
3.59437
7.9423
0.0270121
0.0348719
0.0431476
0.0229497
0.0221696
0.0242121
0.022223
0.0879869
3.69241
11.173
8.58123
5.37722
8.86155
0.0221072
0.0220272
0.0220326
0.0220309
0.565663
0.0220127
0.0222325
0.0234175
7.2378
0.148918
0.0231023
0.0243274
0.0290975
11.4942
8.63132
3.71257
0.045673
0.0280499
0.204405
8.06934
3.52325
0.0222742
0.0627062
2.48382
0.039909
0.0228751
5.8492
0.0228206
0.0234837
7.27681
0.0230756
0.15973
0.0222739
12.8735
0.0219308
0.0269433
0.022179
6.17274
0.0232001
0.0233654
0.114878
0.0452281
11.1566
0.0215941
0.27625
0.0364995
0.0242536
4.49826
4.78009
0.0317407
0.3034
4.28221
0.0220135
0.0405473
0.0219968
0.0220121
0.0220467
0.303933
0.0220599
0.497837
0.0220142
0.0276438
0.0217634
0.0222652
0.0220184
9.46872
0.058738
0.0220241
2.08994
0.0426548
0.0222527
0.02203
0.0281498
0.0283791
10.3823
12.3574
0.0220361
7.24368
4.30951
6.4104
0.0267056
1.92887
0.0220463
0.0580162
0.0220563
0.0365094
0.0262273
3.87847
0.0220675
9.82349
0.0220804
0.0220946
0.0289056
0.0218567
0.262584
0.0269199
9.47721
0.222628
7.10642
0.230498
5.81146
0.0274176
0.0221091
10.6509
0.0231086
0.316762
0.614446
0.278484
0.0219407
0.0279349
0.0229141
0.177646
0.0255701
0.0218588
0.106837
5.06033
0.027835
0.0846865
0.0401745
0.201203
3.16514
8.57623
4.48129
0.0272945
7.8805
6.62958
9.15676
0.458481
8.76888
0.0234074
0.173231
0.243034
0.0221982
10.2985
5.06447
0.0222863
0.0220196
0.152058
7.38499
5.28576
10.2005
0.156676
0.0320816
0.205646
0.155491
0.0269512
6.42311
8.54957
0.0262583
0.0222273
0.0629631
0.0279029
9.32986
0.0400379
0.0220695
7.28861
0.0217037
0.0218407
0.0219859
0.0218598
6.01812
0.0221707
0.160828
0.244301
0.0219088
0.0282642
0.0250921
9.00629
0.607036
0.107756
0.0222641
0.367996
0.0220639
9.22653
7.09643
0.0214981
5.68651
2.91691