/*--------------------------------*- C++ -*----------------------------------*\
| =========                 |                                                 |
| \\      /  F ield         | OpenFOAM: The Open Source CFD Toolbox           |
|  \\    /   O peration     | Version:  v2012                                 |
|   \\  /    A nd           | Website:  www.openfoam.com                      |
|    \\/     M anipulation  |                                                 |
\*---------------------------------------------------------------------------*/
FoamFile
{
    version     2.0;
    format      ascii;
    class       volScalarField;
    location    "150";
    object      p;
}
// * * * * * * * * * * * * * * * * * * * * * * * * * * * * * * * * * * * * * //

dimensions      [0 2 -2 0 0 0 0];


internalField   nonuniform List<scalar> 
13749
(
-0.0222793
-0.00323293
-0.0236001
-0.00987551
0.0039102
-0.000470832
-0.0912536
-0.0241149
-0.077234
-0.0096697
-0.000474833
-0.028779
-0.0229499
0.00387124
-0.0141427
0.00362565
-0.00163035
-0.0225547
-0.000814785
-0.00134323
-0.0882095
-0.0888507
-0.000762503
-0.0541708
-0.0521056
-0.000355783
-0.0090093
-0.0418102
-0.0930597
-0.0916715
-0.000874306
-0.00315285
-0.0784228
-0.0142117
0.000573195
-0.0893075
-0.0904179
-0.0133757
-0.000404365
-0.0924967
-0.0251456
-0.0859851
-0.0068983
-0.090685
-0.000697693
-0.00654949
-0.000692794
-0.00166816
-0.0565261
-0.0219521
-0.0553699
-0.000746066
-0.090231
-0.00622232
-0.0257115
-0.0916576
-0.0886919
-0.0608327
-0.00070011
-0.0605291
-0.00336849
-0.0942931
-0.0014245
-0.000717803
-0.080793
-0.000424204
-0.0462687
0.00108094
-0.0899609
-0.0175553
-0.0424841
0.00232695
-0.0157464
-0.0741866
-0.0276101
-0.0381784
-0.0139259
-4.69387e-05
-0.0933231
-0.00323392
-0.0925388
-0.0435967
-0.00810257
-0.000714907
-0.09176
-0.00408271
0.00571233
-0.04585
-0.0521103
-0.079924
-0.00351232
-0.0922987
-0.000449741
-0.00166592
-0.0259514
-0.0546596
-0.09982
-0.00706204
-0.0724008
-0.000968394
-0.00364682
-0.0782999
-0.00871365
-0.0638781
-0.000447784
-0.0254028
-0.00367896
-0.0519516
-3.47438e-05
-0.0916141
-0.0128675
0.00153279
-0.0887403
-0.0237463
-0.0517358
0.000730677
-0.0136024
-0.0296017
-0.0476347
-0.0221216
-0.00811408
-0.00132149
-0.00013001
-0.00444823
-0.000581315
-0.0911526
-0.000801084
-0.0253228
-0.00442881
-0.0875319
-0.00065897
0.0064264
-0.0685936
-0.0758415
-0.0871683
-0.0907559
-0.0890326
-0.0694853
-2.18486e-05
-0.00389687
-0.0918916
-0.000911148
-0.00782727
-0.105582
-0.0102976
-3.19954e-05
-0.0532403
-0.0898441
-0.0699066
-0.092635
-0.000903223
-0.090912
-0.000144287
0.00226904
-0.0921194
-0.0251048
-0.0786606
-0.00063821
-0.00116734
-0.0129395
-0.0199692
-0.000408451
-0.000911036
-0.000649801
-0.000851042
-0.0340061
-0.00068513
-0.0199037
-0.0900771
-0.000840829
-0.0198634
-0.000411657
-0.0910182
-0.074827
0.00096867
-0.034702
-0.0721107
-0.0935892
-0.0435359
-0.001544
-0.0472748
-0.0095004
-0.0734182
-0.104857
-0.0220057
-0.00380644
-0.00591851
-0.00192835
-0.0980395
-0.00156324
0.00372773
-0.0807431
-0.0357652
-0.019426
-0.00401311
-0.0018922
-0.0492793
-0.012888
-0.0749241
0.00277523
-0.089386
-0.0212935
-0.09118
-0.091789
-0.0102377
0.00306369
-0.0774605
-0.0886729
-0.000879768
-0.000629988
-0.0284785
0.00416366
-0.0622915
-0.00374279
-0.100862
-0.000802343
-0.0182442
-0.092906
-0.0243394
-0.00779385
-0.000891832
-0.0920559
-0.0851954
-0.0466861
-0.00135529
0.000345224
-0.101217
-0.000204702
0.00341176
-0.0058331
-0.0021378
-0.104124
-0.00550929
-0.000272384
-0.0235869
-0.000108464
-0.0408801
-0.00193524
-0.0870163
-9.44636e-06
-0.0167867
-0.00085934
-0.00614641
-0.00184464
-2.72147e-05
-0.000678978
-0.0102059
-0.00369801
-0.081469
-0.0974293
-0.0202085
-0.0041526
-0.0823248
-0.0471574
-0.000954969
-0.000508294
-0.0707849
-0.0370915
-0.0242529
-0.00656907
-0.099197
-0.0903013
-0.013465
-0.0175444
-0.00271859
-8.97969e-05
-5.56941e-05
-0.0268486
-0.0892906
-0.0289752
-0.000699637
-0.0276469
-0.0892017
-0.100238
-0.0017631
-0.0920925
0.000345209
-0.0533563
-0.0871935
-0.0145285
0.000973117
-0.107957
-0.0930264
-0.0177937
0.00615102
-0.0285634
-0.0816147
0.00165588
-0.00647098
-0.0954972
0.00172481
-0.0370298
-0.0094928
-0.051819
-0.0915866
-0.0909197
-0.00337776
-0.026381
-0.0152143
-0.0256588
-0.0916077
-0.0868544
-0.0268263
-0.0252181
-0.0595821
-0.00325326
-0.0889648
-0.00220545
0.0024447
-0.00463428
-0.00424195
-0.0289046
0.00147837
-0.0761252
-0.0117456
-0.0101939
-0.0500211
-0.00428354
-0.0784726
-0.00123403
-0.00730742
-0.00809107
-0.0259802
-0.000803089
-0.0153563
-0.0144853
-0.090102
-0.00723811
-0.0126001
-0.0862624
-0.0926606
-0.0207879
-0.00381539
-0.103043
-0.0249496
-0.0102036
-0.105706
-0.0237969
-0.0894007
0.0102207
-5.9645e-05
0.0108211
-0.103105
-0.0277932
-0.000540234
-0.0337713
-0.0278066
-0.0551109
-0.0152424
-0.000320232
-0.028545
-0.0918612
-0.010346
-0.000167743
-0.0571003
-0.0551265
-0.0329605
-0.00145473
-0.063358
-0.00128239
-0.0140978
-0.00197023
-0.0512696
0.0067684
-0.000539279
-0.000994694
-0.00341625
-0.0597968
-0.024312
-0.0198496
0.00421428
-0.000321413
-0.0227759
-0.071073
-0.0195524
-0.00558949
-0.000660776
-0.00267172
-0.0378023
-0.00166042
-0.0190723
-0.000926695
-0.00512782
0.00323673
-0.00874372
-0.0011054
0.00627033
-0.00222195
-0.0909529
0.000891933
-0.0255896
-0.0152092
-0.00281393
-0.00122299
-0.0900321
-0.00958876
-0.0074433
-0.0206295
-0.0261643
-0.000759134
-0.0348986
-0.0195181
-0.00149981
-0.0823106
-0.000604427
-0.101845
-0.0960823
-0.0141346
-0.0867227
0.00245811
-4.07625e-05
-0.0872423
-0.0141579
0.00128295
-8.77928e-05
-0.102371
-0.037538
-0.0253503
-0.0884566
-0.0910809
-0.0118745
-0.0536105
-0.0395585
-0.04045
-0.00684526
-0.0356066
-0.000628156
-0.00644389
-0.0265361
-0.0202167
-0.0691475
-0.0033738
-0.00271217
-0.00467553
-0.0201097
-0.00996465
-0.0202209
-0.0886355
-0.0129183
0.00227744
0.00301737
-0.0397831
-0.0630084
0.00941586
-0.089512
-0.0926044
-0.00700841
-0.0258063
-0.0550774
0.00127198
-0.0783548
-0.0707538
-8.75734e-05
-0.000732712
-0.0257695
-0.0415498
-0.0321694
-0.000125223
-0.088552
-0.0965201
-0.000700336
-0.00747981
-0.088929
-0.000959665
-0.0904297
0.00449177
-0.0214472
-0.0171244
-0.0681174
-0.07086
-0.0514166
-0.0727884
-0.00957479
-0.0239117
-0.00136526
-0.0119124
0.00266445
-0.0819174
-0.0470092
0.0028451
-0.00400976
-0.0531498
-0.0114247
-0.00381185
-0.0117166
-0.00081174
-0.0130926
-0.0245096
-0.00734365
-0.0887037
-0.00414908
-0.00176127
0.000210208
-0.00546922
-0.0917297
-0.068579
-0.0904043
-0.00613531
-0.000970675
-0.00984453
0.000444442
-0.00193467
-0.0446938
-0.000958299
-0.0902383
-0.0214562
-0.00286573
-0.0914038
0.0105909
-0.0222372
0.000192368
-0.0919497
-0.0675044
0.0108567
0.00424395
-0.00285969
-0.0294057
-0.00402173
0.00249962
-0.00125333
-0.00382868
-0.0249493
-0.0896149
-0.0516143
-0.0112783
0.00734294
-0.0945776
-0.00254983
-0.0687719
0.000929949
-0.0380523
-0.0214321
-0.0770625
-0.0909309
-0.0611483
0.00797232
-0.0739161
-0.00283134
-0.0866428
-0.0461702
-0.012721
-0.0132662
-0.0907538
-0.00942361
-0.0177107
-0.0925725
-0.0370735
-0.0243018
-0.01604
-0.0116217
-0.0948691
-0.0201251
-0.0881086
-0.075207
-0.0878273
-0.00181203
-6.32713e-05
-0.0290755
-0.00615235
-0.0316489
-0.0202231
-0.086871
-0.000202886
-8.10872e-05
0.000521413
-0.00889481
-0.0788094
-0.0871479
-0.0450147
-0.00717368
-0.0325041
-0.0201583
-0.0918219
-0.0624409
-0.0528874
-0.0648014
-0.0203566
-0.0107306
-0.0361369
-0.00761785
0.00586919
-0.0643186
-0.0202753
-0.0651327
-0.0214946
-0.0999839
-0.000226058
-0.0446476
-0.0904302
-0.0264591
-0.0916479
-0.00342023
-0.00362214
0.000757994
-0.0823949
-0.10542
-0.00116177
-0.0906951
-0.087153
-0.00721993
-0.102881
-0.0251777
-0.0964086
-0.0866372
-0.0696423
-0.0898507
-0.0237595
-0.000705641
-0.0314478
0.000608308
-0.0263243
-0.00889458
-0.0133997
6.09228e-05
-0.0666328
-0.00184033
-0.0072794
-0.0594906
-0.0924841
-0.0244796
-0.00217506
0.00994263
-0.000955764
-0.0284152
-0.105821
-0.00442752
-0.0891402
-0.0216573
-0.00194831
-5.45477e-05
-0.00372911
0.00894374
-0.08773
-0.0667178
-0.077323
-0.0147305
-0.000511353
-0.00364799
-0.0203726
-0.067731
-0.00154149
-0.0945481
-0.0897054
-0.07583
-0.00091545
-0.0754275
-0.00878003
-0.0256423
-0.00953321
-0.0194075
-0.0921489
0.000586082
-0.10441
-0.0675055
-0.0242233
-0.0404511
-0.0136293
-0.0858572
-0.101843
-0.101839
-0.00442743
-0.0780266
-0.0280677
-0.0499029
-0.0922371
-0.0874784
-0.0336181
0.0088216
-0.0248817
-0.0612662
-0.0561781
-0.0192213
-0.00186352
-0.00335658
-0.0256366
-0.000915938
-0.0822258
-0.0541624
-0.0862877
-0.102366
-0.000604619
-0.0178372
-0.0889437
-0.0902533
0.00366542
-0.0266184
-0.0971297
-0.0271318
-0.0308101
0.00938588
-0.0575094
-0.091566
-0.00087032
-7.74074e-05
-0.0934214
-0.00392223
-0.0969008
-0.00181338
-0.0928828
-0.0462086
-0.00471471
-0.000638511
-0.000315364
-0.00374135
-0.0972835
-0.0269418
-0.000560887
-0.0809042
-0.000669269
-0.0254321
0.000260212
0.000435407
-0.0237928
-0.0937047
-0.00307163
-0.00181484
-0.0458297
0.00253061
-0.0342568
0.000317699
-0.00346803
-0.0121365
-0.0720305
-0.030708
-0.0196029
-0.0884418
-0.00954244
0.0111561
-0.0125111
-0.0866362
-0.000235667
-0.00123017
-0.0898489
-0.0839597
-0.0582731
-0.0271813
0.00227269
-0.0803753
0.00377028
-0.0521233
-0.00162079
0.000841117
-0.00566259
-0.0651646
-0.0141862
-0.0915598
0.000536252
-0.000858996
-0.0142363
-0.024242
-0.00117617
-0.0375436
-0.00198576
-0.0560286
-0.089549
-0.0280835
-0.000612005
-0.0100004
-0.0901729
-0.00561962
-0.00979237
-0.00280291
-0.0694499
-0.00244593
-0.076101
-0.000575047
-0.0869791
-0.0914564
0.000849607
-0.0828525
-0.000388724
-0.056648
-0.00129779
-0.0303707
-0.017855
-0.0966374
-0.0873164
-0.090576
-0.0474371
-0.000408288
-0.000707999
-0.000116102
-0.0875807
-0.000386058
-0.0586897
-0.00259467
-0.014116
-0.00170169
-0.00568264
-0.091203
-0.0067546
-0.00171239
-0.00681841
-0.00512918
-0.00256755
-0.103097
-0.0806205
-0.0922312
0.00956482
-0.0911007
-0.00215679
-0.0882311
-0.00449833
-0.0920323
-0.0285059
-0.0967039
-0.0264483
-0.0034321
-0.0893849
-0.00156385
-0.0145975
-0.00217544
0.00793581
0.0063177
-0.000471668
-0.0906893
-0.0317763
-0.089671
-0.0131659
-0.00249476
-0.0262883
-0.000521516
-0.0848793
-0.0843101
-0.0277283
-0.0012308
-0.00239514
-0.000474833
-0.0171059
-0.0100707
-0.0600147
0.000213592
-0.0889721
-0.0475789
-0.0952579
-0.0124845
-0.105116
-0.0138089
-0.00556745
-0.0104308
-0.0900789
-0.0361775
-0.0718528
-0.0872684
-2.77995e-05
-0.0522436
-0.0259976
-0.0844869
-0.00513223
-0.0142548
-0.00440161
-0.0925464
-0.00222817
-5.41228e-05
-0.0116393
-0.0249014
-0.01263
-0.00266491
-0.0899764
-0.000631328
-0.0656053
-0.0911223
0.00489625
-0.101879
-0.0501925
0.0103148
-0.0760985
0.00515268
0.00124695
-0.0290918
-0.0426366
0.0025
-0.0257248
-0.00760682
-0.0924889
-0.00363417
-0.00137905
-0.033728
-0.00309768
-0.0944849
-0.0166412
-0.0234358
-0.0365029
-0.0005949
-0.024869
-0.0927001
-0.0101442
-0.0562122
-0.0965497
-0.00180509
-0.0145864
0.000730379
-0.076998
-0.00010166
-0.0195445
-0.07478
-0.0429128
-0.0890082
-0.00797955
-0.0854857
-0.0359991
-0.0833915
-0.000738345
-0.0056722
-0.00292209
-0.0551366
-0.00249521
-0.0286332
-0.0504395
-0.0260381
-0.00977153
-0.0394692
-0.0513962
-0.0171757
-0.00558556
-0.0775571
-7.34708e-05
-0.0885524
-0.0176428
-0.0337084
-0.0872618
-0.056726
-0.000734742
-0.00299585
-0.0149842
-0.00049763
-0.0923011
-0.0868342
-0.0135375
-0.0285267
0.0020663
-0.00153858
0.00232632
-0.0070062
-0.0928567
-0.00027439
-0.0890842
-0.0132734
-0.0116099
-0.00184824
-0.079044
-0.0311492
-0.0427757
-0.0907632
-0.091463
-0.000499573
-0.103327
-0.0925397
-0.0499223
-0.0262074
-0.0894532
-0.105629
-0.000591196
-0.062925
-0.000120989
-0.0256146
-1.97254e-05
-0.0897297
-0.0521108
-0.0173385
0.000465473
-0.0272721
-0.0898844
-0.0739371
-0.00365183
-0.000513263
-0.0362614
0.00940998
-0.0138964
-0.0361435
-0.00524057
-0.0929285
-0.0293247
-0.0815619
-0.000531537
-0.000622335
-0.000336308
-0.00373572
-9.32092e-05
-0.0906012
0.00951335
-9.1301e-05
-9.60051e-05
-0.000101021
-0.00383479
-0.0192871
-0.0457023
-0.105968
0.00176268
-0.000517086
-0.0966397
-0.0389259
-0.0538977
-0.0498575
-0.00228091
-0.0287815
-0.000924496
0.00015657
-0.0134057
-0.0124703
-0.0250001
-0.00343645
-0.0451946
-0.108018
-0.000650422
-0.0488874
-0.000419576
-0.000302133
-0.0531619
-0.0911055
-0.0893772
-0.0279248
-0.0970035
-0.000481259
-0.0465425
-0.0832484
-0.000835297
-0.000421082
-0.0300761
0.000124536
-0.0874905
-0.0941924
-0.0331724
-0.0017904
-0.106633
-0.031472
-0.0349888
-0.00365864
-0.0270916
-0.0871131
-0.103867
-0.0273996
-0.0163398
0.00148193
-0.0886078
-0.096821
-0.0894412
-0.000465093
0.000333912
-0.000579187
-0.0330091
0.00156302
-0.000818507
-0.0904054
-0.045291
-0.0677579
-0.0195712
-0.0146778
1.47924e-05
-0.105849
-0.103464
-0.0852855
-0.000247957
-0.0191124
-0.00441463
-0.0912508
-0.0891593
-0.0371661
-0.0135693
-0.0376694
-0.0858133
-0.0232471
-0.0251108
-0.000456551
-0.016327
-0.00282576
-0.000244607
-0.0029836
-0.0017869
-0.00657793
-0.00110396
-0.0384991
-0.000628269
-0.0144458
-0.00849852
-0.0300746
-0.00268635
-0.0915447
-0.00309918
-0.0804547
-0.0261527
-0.0250607
-0.00753469
-0.0892303
-0.0205065
-0.0201514
-0.0623791
-0.0580799
0.000235314
-0.049398
-0.0548969
-0.0028515
0.000322524
-0.00310348
-0.00292416
-0.00335056
-0.0105334
-0.0384411
-0.0427068
-0.00120996
-0.103314
-0.0972266
-0.05501
-0.000596338
-0.0338841
-0.0831862
-0.00885695
-0.00794498
-0.104481
0.000510524
-0.0127783
-0.00218943
-0.000451081
-0.00216309
-0.0924585
-0.00249045
-0.0537948
-0.103236
-0.0263126
-0.00372117
-0.0902618
-0.000545747
-0.0257426
-0.0437598
-0.0862562
-9.5792e-05
-0.0742124
-0.0914813
-0.0152331
-0.000657749
-0.0163971
-0.00310852
-0.00132178
-0.08868
-0.00371101
8.57546e-05
-0.00642609
0.000483911
-0.0307436
-0.00436064
-0.0210145
-0.0410879
-0.0656193
-0.0938084
5.06716e-06
-0.00214156
-0.0081619
-0.023877
-0.10664
-0.0373619
-0.0407127
-0.000871844
-0.0901053
-0.0471682
-0.000280284
-0.000694124
-0.103475
-0.0042787
-0.0982943
-0.0449694
-0.0129713
-0.0178583
-0.102583
-0.00126302
-0.0050202
-0.00520165
-0.0947682
-0.0258533
-0.0263319
-0.0663968
-0.0420106
-0.000686448
-0.0266244
-0.0650293
-0.00160502
-0.09465
-0.104499
-0.0359157
-0.0861032
-0.000686679
0.000281158
0.00331749
-0.0324423
-0.0240064
-0.0909922
-0.00393206
-0.00260905
-0.0170015
-0.00279318
-0.00363593
-0.00129231
-0.00567242
-0.0138802
-0.00045269
0.00104169
-0.0186302
-0.0021965
-0.000719894
-0.0138459
-0.0764583
-0.0907377
-0.00244195
-0.0199101
-0.0038368
-0.0852803
-0.0430791
-0.0444329
-0.00314327
-0.100319
-0.0025559
-0.0232217
-0.0792557
-0.000379713
-0.0646232
-0.0251208
0.00040096
-0.0899461
-0.000867254
-0.000474987
-0.0710629
-0.00332355
-0.0907549
-0.0114587
0.00299749
0.00414256
-0.00834896
-0.0372972
-0.0153184
-0.0111109
-0.0211086
-0.0899522
-0.0906134
-0.0874722
-0.0856116
-0.0943477
-0.0237495
-0.0888886
-0.0020773
-0.000852299
-0.0372773
-0.00542664
-0.0973818
0.000579978
-0.00100283
-0.00658976
-0.0618185
-0.000479556
-0.0652098
-0.091334
-0.00172739
-0.000917308
-0.00216829
-0.0590296
-0.0238858
-0.00393239
-0.0892978
-0.090806
-0.00261301
-0.0254158
-0.00255355
-0.00801903
-0.000408387
-0.00357584
0.00548204
-0.0757499
-0.000663369
-0.0296907
0.000257814
-0.0784696
-0.0263644
-0.0306921
-0.0391647
-0.00175641
-0.0109103
-0.0180429
-0.00302596
-0.0020492
-0.0298486
-0.0381932
-0.0148943
-0.00159974
-0.0791117
-0.0991581
-0.0896497
-0.00238571
-0.0869302
-0.0748108
-4.46641e-05
-0.00819718
-0.0717053
-0.0900548
-0.075768
-0.015315
-0.0919105
-0.000645982
-0.0016058
-0.0906112
-0.00365339
-0.0280295
-0.00101071
-0.0248091
-0.00366307
-0.0797274
-0.0963763
-0.0880421
0.0100479
-0.0191064
-0.00249692
-0.0358925
-0.0164237
0.000155653
-0.00259531
-0.0510226
-0.089772
-0.0287496
-0.0970352
-0.0187965
-0.00200879
-0.00257943
-0.0561237
-0.000355135
-0.000923228
-0.0150226
-0.000470553
-0.0962193
-0.0109106
-0.0382806
-0.00255303
-0.024251
-0.0336546
-0.00788991
-0.0893682
-0.0899749
-0.00228786
-0.0105695
-0.00686873
-0.00119488
-0.000210503
-0.088744
-0.0786269
-0.0661738
-7.09351e-05
-0.00667122
-0.0200823
-0.0230135
-0.0918745
-0.00499734
0.00175556
-0.0207062
-0.0471271
-0.0183463
-0.00035355
-0.0875689
-0.0032115
-0.00920727
0.00780953
-0.000608537
-0.00386513
-0.000987685
-0.0614269
-0.0903418
-0.000901665
-0.039268
-0.00919095
0.00711208
-0.0163047
-0.000453608
-0.0377031
-0.0908845
-0.0427166
-0.00180425
-0.00120763
-0.0918061
-0.0933802
-0.00266606
-0.0257811
-0.0840313
-0.0913221
-0.00316796
-0.00932476
-0.0480087
-0.0938826
-0.000800158
-0.00215854
-0.000865927
-0.0930596
-0.090785
-0.00038642
-0.000728428
-0.00890085
-0.0367962
-0.00153885
-0.0962052
-0.0137221
-0.0122345
-0.00939036
-0.000890775
-0.0298501
-1.01666e-05
-0.000776001
0.00791953
-0.0419983
-0.0718394
-0.0883017
-0.000267065
-0.000558142
-0.094663
-0.00659252
-0.091451
-0.00196882
-0.00315512
-0.0089396
0.011054
-0.0961829
-0.0112031
-0.0302919
-0.0098457
-0.0471661
-0.00126471
-0.00934795
-0.0290254
-0.0156261
-0.00195729
-0.000100084
-0.000665794
-0.00270444
-0.0659266
-0.106673
0.0013051
-0.093777
-0.0480337
-0.0317909
-0.0207624
-0.091812
-0.0892688
-0.00134327
-0.0259314
-0.0357907
-0.0107684
-0.0330845
0.00775153
-0.0392964
-0.00532163
-0.00644356
-0.0884123
-0.0944277
-0.0247972
-0.0938687
-0.0649577
-0.00236754
-0.0261942
-0.0835008
-0.02768
-0.000838655
-0.0177378
-0.00883508
-0.0496254
-0.00610586
-0.0888387
-0.0203372
-0.0940467
-0.00381369
-0.000440299
-0.0609138
-0.0535404
0.00288764
-0.0553797
-0.0105913
-0.00348902
-0.0166279
-0.0113814
0.000241876
-0.0148327
-0.00796873
-0.106371
-0.0935666
-0.0954748
-0.00123581
-0.036583
-0.0028806
-0.0937141
-0.00719334
-0.0198893
-0.055442
-0.0248014
-0.0143493
-0.00109645
-0.0531419
-0.0900592
-0.0161142
-0.0201898
-0.0217313
-0.00258841
-0.0145384
-0.0960601
-0.0228276
-0.0277088
-0.00117562
-0.0660139
-1.46266e-05
-0.0351243
-0.091883
-0.0814781
-0.00195563
0.00155037
-0.0382296
-0.0267464
-0.0323573
-0.0122217
-0.0102573
-0.00162617
-0.0122338
-0.0606574
-0.105298
-0.00480848
-0.102487
-0.0899282
0.000824638
0.00844575
-0.095349
-0.090457
-0.0830535
-0.0110739
-0.0022087
-0.0668022
-0.0224832
-0.0900481
-0.000745984
-0.00851642
-0.0311378
-0.0449362
-0.105268
-0.000588939
-0.0148069
-0.02222
-0.0937592
-0.00667836
-0.0756065
-0.00170966
-0.0894188
-0.092762
-0.00937867
-0.0658426
-0.0744284
-0.0165234
-0.000750498
0.00144389
0.00965425
-0.00145993
-0.0376841
-0.00175145
-0.0240484
-0.0842651
-0.0949522
-0.0303136
-0.00220601
-0.092762
-0.0416261
-0.0288109
-0.00816101
-0.00301432
-0.0173033
-0.0631362
-0.0957092
-0.0128774
-6.91015e-05
-0.00550428
-0.00813486
-0.0432035
-0.0949748
-0.00229692
-0.0272121
-0.00269755
-0.000579045
-3.35781e-05
-0.0890526
-0.00327532
-0.00291109
-0.0902786
-0.0256917
-0.0020386
-0.0342686
-0.060664
-0.00270721
-0.01111
-0.000777011
-0.000635054
-0.0179364
-0.00202466
-0.0923754
-0.0311268
-0.0100241
-5.56469e-05
0.00352546
-0.00870773
-0.0019379
-0.08936
-0.0294181
-0.0867726
-0.0893035
-0.0583089
-0.00482904
-0.00247873
-0.0677102
-0.0118329
-0.00186878
-0.0319296
-0.0493965
-0.0755603
-0.0151382
-0.0010582
-0.00157083
-0.00214896
-0.00142152
-0.0905668
-0.0320798
-0.0290828
-0.0873699
-0.00457904
-0.0921648
-0.0702105
-0.0106478
-0.0314916
-0.00061033
-0.0573522
-0.0321643
-0.061034
-0.0904514
-0.0530341
-0.00169072
-0.00134236
-0.0004709
-0.00172453
-0.036915
-0.0740812
-0.0580229
-0.102266
0.000648297
-0.0428255
-0.0901268
0.00182718
0.00694055
-0.030404
-0.0160323
-0.00183027
-4.9946e-05
-0.00179395
-0.0676122
-0.0039517
-0.000145651
-0.103875
-0.00246556
-0.0925332
-0.00187037
0.00909459
-0.0156614
-0.0637444
-0.0397554
-0.0567509
-0.00170679
-0.0882989
-0.0120153
-0.000271257
0.00642234
-0.0280474
-0.00100179
-0.0263547
-9.32791e-05
-0.0623534
-0.00281986
-0.037202
-0.102059
-0.0110215
-0.00282293
-0.0932554
-0.0613325
-0.0573202
-0.012621
-0.0906003
-0.0909932
-0.0295582
-0.0578223
-0.0463144
0.012417
0.0109929
-0.106794
-0.0782895
-0.0803773
-0.0106604
-0.0775656
-0.0878922
-0.0614335
-0.0315189
-0.000524519
-0.0456827
-0.0258108
-0.0272729
-0.0919179
-0.00966552
-0.0969405
0.00640601
-0.00462882
-0.0482687
-0.075277
-0.00816147
0.00985176
-0.106422
-0.000481005
-0.000603238
-0.101037
-0.0658633
-0.0472916
-0.0029683
0.00920495
-0.0241133
-0.00528464
-0.0431253
-0.0200913
-0.107019
-0.00201138
-0.103787
-4.56108e-05
0.00127556
-0.0958153
-0.000591065
-0.0031931
-0.0184346
0.00527358
-0.00296386
-0.0404448
-0.0569945
-0.0109739
-0.00248052
-0.0367524
-0.00895559
-0.00459535
-0.0103334
-0.00980251
-0.000411009
-0.015538
-0.00091828
-0.0423838
2.51935e-05
-0.0379726
-0.0865936
-0.0742511
-0.0570175
-0.0056823
-0.0418329
-0.106227
-0.00598405
-0.103464
-0.0756167
-0.0121974
-0.107458
-0.00771436
-0.0888986
-0.00178782
-0.00172267
-0.0856929
-0.0648507
0.00790009
-0.0405004
-0.00278747
-0.0811677
0.0123527
-0.00289949
-0.0353189
-0.0262459
-0.00286623
0.00817516
-0.00197209
-0.0157969
-0.0288069
-0.0270458
-0.00287842
-0.0222578
-0.00874414
-0.0161258
-0.0187519
-0.0905101
-0.00802621
-0.0694006
-0.0804424
-0.000370616
-0.00612099
-0.011445
-0.0019057
-0.00371269
-0.0064175
-0.00188901
-0.00160298
-0.0769035
-0.00579385
-0.105735
0.0117742
0.00288657
-0.104884
-0.031049
-0.0080979
-0.00824447
-0.104547
-0.104652
-0.0499562
-0.000110377
-0.100606
-0.102429
-0.0132714
-0.103346
-0.0115224
-0.0262811
-0.00239049
-0.00835096
-0.00416503
-0.000729597
-0.0911582
-0.0779802
-0.0957394
-0.020853
-0.016653
-0.0972811
-0.022852
-0.00277333
-0.0227425
-0.0081102
-7.20297e-05
-0.103735
-0.043065
-0.103056
0.0113579
-0.0921374
-0.0247252
-0.0016611
-0.104681
-0.00377559
0.0091265
-0.0316211
-0.0940099
-0.0010609
-0.0881007
0.00792568
-0.101689
-0.104749
-0.0853893
-0.0430544
-0.0189587
-0.0312499
-0.0380746
-0.0893877
-0.0198067
-0.0779161
-0.011735
-0.0242837
-0.0933696
-0.0841561
-0.0445046
-0.0862006
-0.0365778
-0.0888787
-0.0926385
-0.0496353
0.00354262
0.00949551
-0.00801564
-0.00333979
-0.0743048
-0.0862486
-0.0391173
-0.0874024
-0.0542428
-0.0983039
-0.0907716
-0.0993335
-0.00202863
-0.104796
-0.0158075
-0.00345403
-0.0977365
-0.0459932
-0.0063679
-0.0934649
-0.104455
-0.00608592
-0.0850477
-0.0248707
-0.093366
-0.00144091
-0.104282
-0.0011304
-0.0689688
-0.0411563
-0.00183844
-0.0824663
-0.0959513
-0.03752
-0.0576251
-0.0008198
-0.0840082
-0.0562915
-0.00205584
-0.0911524
-0.0233821
-0.00373107
-0.0269832
0.000740119
-0.00712548
-0.0903789
0.00199882
-0.0366586
-0.0416841
-0.0440433
-0.0876865
-0.0546992
-0.0519529
0.00919767
-0.000999926
-0.0154418
-0.0498278
-0.0100168
0.00508846
-0.0208019
-0.0139574
-0.00739204
-0.0337105
-0.0901889
-0.0204722
-0.00098608
-0.0278892
-0.0889005
-0.0711829
-0.106
-0.09923
-0.00747283
-0.00142175
-0.000400727
-0.0109634
-0.0156029
-0.015484
-0.00213462
-0.000387856
-0.0392824
-0.000777081
-0.103029
-0.105507
-0.0147516
-0.0371111
0.00761517
-0.0991621
-0.00877807
-0.00211734
-0.0371126
-0.0900088
-0.00167957
-0.08409
-0.0204571
-0.0934724
-0.0202268
-0.0942163
-0.0205931
-0.00956339
0.00944562
-0.0895376
-0.0961058
-0.0299652
-0.0709893
-0.00238199
-0.0273725
-0.0714563
-0.0648294
-0.00852567
-0.101775
-0.0958035
-0.000776938
-0.0626252
-0.0169646
-0.0424943
-0.063006
-0.00103184
-0.0723015
-0.0904267
-0.0252853
-0.0363723
-0.000508822
-0.089824
-0.00234785
-0.0246723
-0.000805493
0.00531006
-0.0268418
-0.105605
0.00602047
-0.00110937
-0.00305635
-0.0115425
-0.0102491
-0.00620327
-0.00760364
-0.0217095
-0.0905691
-0.0442114
-0.0314896
-0.000640393
-0.0904279
-0.0181608
-0.0177985
-0.00936578
-0.0033296
-0.00338322
-0.0685976
-0.000330111
-0.0487119
-0.00957723
-0.0247208
-0.00914046
-0.0207877
-0.0853769
-0.000782203
-0.0911315
-0.0198466
-0.0266563
-0.017877
-0.0930652
-0.0903734
-0.0356376
-0.0813748
-0.0667438
-0.0243698
-0.0423527
-0.0309943
-0.00541805
-0.0944369
-0.00860898
-0.0939272
0.00813713
-0.00531622
-0.000247814
-0.000430987
-0.090395
-0.00317036
-0.00180934
-0.00211529
-0.0378201
-0.0177513
-0.00035048
-0.00383738
-0.0993905
0.00652651
-0.0398388
-0.00389767
-0.0848079
-0.0676414
-0.00141395
-0.00248544
-0.00306589
-0.00016312
-0.0916992
-0.000801407
-0.106082
-0.00250712
-0.0790686
-0.0256258
-0.00759242
0.0102637
-0.0936252
-0.0737239
-0.0312557
-0.104023
-0.0907594
-0.0242152
-0.00558142
-0.0606275
-0.00247599
-0.00426582
-0.00342763
-0.0533274
-0.0889217
-0.0247252
-0.0311768
-0.0693822
-0.0898326
-0.0950395
-0.0249632
-0.0357648
-0.105898
-0.0253408
-0.0105838
-0.0888016
-0.000174527
-0.0396972
-0.041004
-0.0859271
-0.0735068
-0.0644518
-0.0196258
-0.0467199
-0.0935808
-0.0492877
0.00899971
-0.00147001
-0.0025009
-0.00164247
-0.0620838
-0.0111444
-0.0527802
-0.0740399
-0.0902177
-6.57063e-05
-0.00283011
-0.0839106
-0.0131363
-0.0074783
-0.0470228
-0.0107465
-0.0290767
-0.103209
-0.0619992
-0.0913171
-0.089201
-0.0621018
-0.00756471
-0.001562
-0.000833155
-0.00846692
-0.0355973
-0.0407601
-0.0782332
-0.0172177
-0.0266174
-0.0862027
-0.083704
-0.0318379
0.000521616
-0.0143655
-0.0611167
-0.0256827
-0.00778357
-0.0947449
-0.00207532
-0.00474644
-0.0603579
-0.0251131
-0.00196291
-1.79201e-05
-0.0906254
-0.0876973
-0.000675521
-0.00068817
-0.0719465
-0.0845866
-0.0902509
-0.0764653
-0.0138995
-0.093792
-0.0934655
-0.0908576
-0.0465323
-0.00709674
-0.0888966
-0.0925417
-0.0874821
0.00311575
-0.091522
-0.0864249
-0.00239224
-0.0331429
-0.103124
-0.00257994
-0.00679419
-0.0945257
0.00424256
-0.00743277
-0.0349461
-0.00241462
-0.089835
-0.0902252
-0.0248015
-0.0104269
-0.0556194
-0.0761061
-0.00187756
-0.068231
-0.00132635
-0.0911801
-0.0370613
-0.0785816
0.00276974
-0.0861671
-0.000167122
-0.0105014
-0.0939529
-0.104832
-0.00255797
-0.090921
-0.101891
-0.000307311
-0.0855756
-0.00899125
-0.0229369
-0.00230156
-0.000914676
-0.0210926
-0.0126311
-0.00283172
-0.0901973
-0.00234887
-0.00199714
-0.0108759
0.00993583
-0.0138647
-0.0915878
-0.0235042
-0.00184981
-0.0151816
-0.00845083
-0.0345432
-0.0208259
-0.0352429
-0.00386054
-0.0929935
-0.0906822
-0.0600066
-0.094094
-0.0822743
-0.00186597
-0.0919525
-0.00402867
-0.0898496
-0.0914367
-0.00686653
-0.0166968
-0.00538269
-0.0901892
-0.0632477
-0.0158004
-0.00156961
-0.0316789
-0.0867175
-0.000497023
-0.0654897
-0.00165137
-0.0777213
-0.00244137
-0.0903965
-0.104666
-0.0991032
-0.0286375
-0.0370453
-0.0894704
-0.0531043
-0.10345
-0.0996741
-0.0954117
-0.0323233
-0.088922
0.0126829
-0.0368872
-0.0891796
-0.00490552
-0.0932405
-0.000257532
-0.0105452
-0.0858534
-0.0925529
-0.0847168
-0.0911868
-0.00104186
-0.0135792
-0.00723445
-0.0492382
0.00757519
-0.0244425
-0.0754403
-0.0397842
-0.0831418
-0.00219828
0.00969875
-0.00503472
0.000279267
0.0030075
-0.093094
-0.0112673
-0.0346112
-0.00629121
-0.0316627
-0.0466424
-0.0631114
-0.00221149
-0.0763963
-0.0464712
-0.00114419
-0.0216746
-0.091676
-0.00346984
-0.0766315
-0.0286701
-0.0648999
-0.018097
-0.0899657
-0.000719357
-0.0403119
-0.0254503
-0.0389158
-0.0907315
-0.00260753
-0.107436
-0.0647267
0.00047905
-0.0858646
-0.0415476
-0.0253763
-0.0854386
-0.0259967
-0.0541979
-0.0253368
-0.00336486
-0.00236431
-0.0246232
-0.094694
-0.0869615
-0.0883876
-0.00724346
-0.0885227
-0.0847919
-0.0508473
-0.0895113
-0.094183
-0.00345931
-0.0142241
-0.0768381
-0.01408
-0.0220444
-0.0957804
-0.00246274
-0.0906646
-0.046768
-0.0929626
-0.0926659
-0.00759198
-0.0705784
-0.00768297
-0.102372
0.000677509
-0.0958532
-0.0232136
-0.00739101
-0.0900743
-0.000535178
-0.0242969
-0.0870156
0.00333084
-0.000110527
-0.0849308
-0.0840127
-0.00873417
-0.0390564
-0.0929019
-0.0918377
-0.00776783
-0.0920178
-0.0353807
-0.00266168
-0.0421836
-0.00083928
-3.62893e-05
-0.0912175
-0.0334852
-0.0939606
-0.0644484
-0.103874
-0.0777845
-0.0763898
-0.0955076
-0.05229
-0.0904836
-0.0233176
-0.0288716
-0.0049673
-0.0936328
-0.00794156
-0.0823228
-0.0623286
-0.0909113
-0.0639072
-0.0300298
-0.093156
-0.000505707
-0.090392
-0.000815511
-0.0867072
-0.00698139
-0.0348169
-0.0886281
-0.0565378
-0.0931601
-0.0366929
-0.0905717
-0.0932946
-0.0230545
-0.00300064
-0.00772337
-0.00960948
-0.0285769
-0.0537295
-0.0220333
-0.0234054
-0.0191191
-0.0173685
-0.00421472
-0.0608298
-0.00466436
-0.00503148
-0.00188287
-0.00428282
-0.0764906
-0.0217177
-0.0881284
-0.0948421
-0.0729956
-0.0309846
-0.000863957
-0.0660754
-0.00317984
0.00742297
-0.0300207
-0.000148167
-0.0830685
-0.103459
-0.0294513
0.00330779
0.00467871
-0.00718358
-0.0877165
-0.0942185
-0.00109403
-0.00619881
-0.0823307
-0.0279802
-0.0251166
-0.00342786
-0.0363378
-0.00944686
-0.0877698
-0.0020369
-0.0100175
-0.0107373
-0.0403228
-0.0904984
-0.01823
-0.0229232
-0.0304329
-0.0286632
-0.0747869
-0.0203174
-0.00915141
-0.0954822
-0.0919309
-0.0498181
-0.0921286
-0.0970433
-0.0910605
-0.0246346
-0.0144712
-0.096594
0.00656609
-0.00188828
-0.0888977
-0.00249022
-0.0697464
-0.102521
-0.0518038
-0.0973092
0.00834923
-0.034704
-0.0570957
-0.0910715
-0.00266189
-0.0340782
-0.00795199
-0.00812778
0.00783298
-0.00559623
-0.0139739
-0.0896351
-0.00576068
-0.063766
-0.000679891
-0.0847573
0.00658352
-0.00660564
-0.0803728
-0.0886305
-0.00658418
-0.0401274
8.55089e-05
-0.0520908
-0.0272717
-0.0444156
-0.0451415
-0.00219567
-0.025023
-0.0196193
-0.0686749
-0.0501625
-0.00319155
-0.094388
-0.103809
-0.0344366
-0.0919721
-0.0383538
-0.00429393
-0.0841675
-0.0697694
-0.0103802
-0.0876769
-0.00309929
0.00675121
-0.0162803
-0.028707
-0.0458337
-0.0828371
-0.0641519
0.00304092
-0.0908606
-0.066467
-0.053761
-0.09332
0.00258849
-0.0394838
-0.0748624
-0.000236817
-0.0313127
-0.0125737
-0.0024703
-0.0906607
-0.0539941
-0.00526571
-0.0903683
-0.00167581
-0.0904305
-0.00103056
-0.00136545
-0.0377321
-0.046535
-0.0869654
-0.0141582
-0.0895097
-0.0313924
-0.00518133
0.00594844
-0.0513789
-0.0878297
-0.0838965
-0.035598
-0.00157228
-0.0941134
-0.0235634
-0.0280089
0.00796584
-0.0458419
-0.00667439
-0.0932147
-0.0585918
0.00883976
-0.0533856
-0.00221614
-0.00745997
-0.063286
-0.0935232
-0.0288215
-0.0882995
0.00735389
-0.0290184
-0.0020368
-0.00537586
0.00231922
-0.0857312
-0.0437531
-0.0765459
-0.000445679
-0.0361356
-0.0884545
-0.000432703
-0.0243227
-0.0294729
-0.0517523
-0.00183829