/*--------------------------------*- C++ -*----------------------------------*\
| =========                 |                                                 |
| \\      /  F ield         | OpenFOAM: The Open Source CFD Toolbox           |
|  \\    /   O peration     | Version:  v2012                                 |
|   \\  /    A nd           | Website:  www.openfoam.com                      |
|    \\/     M anipulation  |                                                 |
\*---------------------------------------------------------------------------*/
FoamFile
{
    version     2.0;
    format      ascii;
    class       volScalarField;
    location    "100";
    object      ddt0(k);
}
// * * * * * * * * * * * * * * * * * * * * * * * * * * * * * * * * * * * * * //

dimensions      [0 2 -3 0 0 0 0];


internalField   nonuniform List<scalar> 
13308
(
-1.60571e-06
-1.4669e-06
1.10922e-05
6.64542e-08
1.54834e-09
1.15229e-07
1.37819e-07
1.37166e-05
-2.05893e-07
7.25795e-08
-1.74239e-06
0.000966617
1.22552e-05
2.22449e-08
-5.53787e-08
6.74354e-09
2.8315e-07
1.25194e-07
-1.23329e-06
-5.30501e-07
9.42666e-08
1.19193e-07
1.48348e-07
0.000917384
1.58876e-05
8.63962e-08
0.00142239
1.06328e-07
0.000867392
1.02352e-07
0.00178326
0.00025061
-7.80117e-05
-8.89405e-06
-3.3082e-06
8.31443e-08
1.56808e-07
1.54911e-07
2.82977e-08
-8.2688e-08
-1.02463e-06
8.81632e-08
1.44759e-05
-9.43517e-07
0.000150336
0.000455481
3.11699e-07
-1.25042e-08
2.02445e-07
2.13314e-09
0.00107512
-3.59527e-07
9.40038e-08
0.00140601
-1.39877e-07
-1.22696e-08
-3.61318e-07
1.27694e-07
6.17982e-08
-1.05709e-06
2.75869e-07
8.33959e-08
-3.35651e-07
-1.11075e-07
1.20942e-07
1.38684e-07
-1.16546e-06
0.00179067
0.00178909
1.93753e-07
-5.5374e-10
4.34001e-10
1.81747e-07
-1.93728e-07
-1.08421e-07
-6.4692e-09
0.000431054
-3.49969e-06
-5.23911e-05
1.65222e-07
1.15014e-07
-4.03007e-06
1.57314e-07
5.66771e-08
0.0006725
-2.61343e-07
1.34814e-08
7.98341e-07
-2.96134e-06
5.22849e-08
5.93062e-08
-0.000492873
2.64716e-06
-2.40724e-06
1.0479e-07
3.26969e-06
1.10755e-07
-2.04485e-05
-3.41485e-07
2.50842e-06
-4.01497e-06
-1.73288e-08
1.60503e-07
-5.64213e-08
1.2545e-07
-2.89347e-08
7.63677e-06
-1.26475e-06
6.00746e-07
1.50544e-06
2.48672e-06
-0.000367789
4.30523e-08
-0.000142294
-2.02412e-06
-2.98749e-05
3.01168e-07
1.14609e-07
-2.08956e-07
3.6086e-06
-3.21203e-07
2.76466e-09
2.50277e-08
-2.67777e-08
1.48368e-05
-2.35184e-07
0.000203271
-3.01619e-08
3.51812e-09
7.57836e-05
3.21904e-06
-3.26528e-07
1.95294e-07
-5.26983e-07
3.48835e-08
-3.22185e-07
1.25055e-08
2.07519e-07
2.88101e-05
-5.04506e-08
-2.92943e-05
0.000670982
0.000614541
-1.46771e-06
0.00119901
-1.37182e-05
1.8158e-07
1.26471e-07
-5.70018e-08
0.000102092
0.000179103
-4.14334e-07
-3.17934e-09
2.54446e-08
1.08724e-07
-5.31623e-07
-1.16843e-08
-4.14056e-07
-4.22743e-05
-2.79088e-05
-2.97974e-06
0.00190873
3.11169e-07
-2.5293e-07
1.93547e-07
-2.43196e-06
1.15233e-06
5.4675e-06
1.51562e-05
-3.39578e-06
7.92096e-06
-6.9014e-07
0.0010283
3.33691e-05
3.41529e-07
-4.50564e-10
-3.4166e-08
9.79342e-06
-7.43173e-08
1.26976e-07
4.34819e-06
1.97193e-08
1.31305e-07
0.000959468
-3.59703e-07
8.90265e-08
3.47695e-08
-9.74578e-08
1.85905e-07
-8.26585e-07
9.41509e-09
-3.19745e-07
1.29151e-05
-0.00145077
3.39132e-06
1.04884e-05
-1.95961e-06
9.58827e-08
2.19772e-07
6.61376e-06
0.000140792
-1.39606e-06
-3.03333e-06
-4.87929e-08
1.44342e-06
4.54586e-06
-1.18636e-07
-1.11983e-07
-4.36741e-08
-5.51905e-07
2.5609e-06
-2.66025e-05
-3.28709e-10
-3.01718e-05
-9.96095e-07
-1.75897e-06
2.01564e-07
-2.53068e-05
9.22317e-08
1.18062e-07
4.59683e-09
-2.40671e-09
2.45674e-09
-3.98568e-06
1.06169e-07
3.69547e-05
9.5295e-07
4.27486e-09
0.00142028
3.30645e-06
2.26369e-07
-1.8308e-08
1.7556e-07
2.1744e-07
5.07915e-07
-1.67715e-07
2.16528e-07
8.72255e-08
-1.37327e-06
5.10507e-08
7.76629e-08
2.38005e-06
9.36283e-09
2.39992e-06
-5.77563e-07
4.68288e-07
-0.000120402
-1.21992e-07
1.80192e-08
4.90389e-07
2.52149e-06
9.95464e-08
-7.42374e-06
-8.17058e-10
-1.28477e-09
1.01442e-05
9.577e-08
9.1718e-08
-2.57501e-08
-2.10286e-07
-2.87469e-06
1.31065e-07
8.37721e-08
3.66068e-07
0.000814101
1.52962e-07
-9.57536e-06
3.88468e-06
-5.95562e-05
-3.22336e-06
9.85476e-08
2.57051e-07
-2.87993e-07
-1.40321e-06
-2.94677e-05
-5.00091e-05
8.57138e-08
-1.46624e-07
-1.86624e-05
-1.54087e-07
1.69449e-07
-5.13139e-08
-8.21982e-06
-1.18e-06
-7.12945e-06
-6.11184e-09
4.01809e-08
2.77542e-06
1.8415e-07
-1.61995e-07
-4.88336e-06
-0.000465547
-1.09002e-05
-0.000984858
9.64736e-06
1.62584e-07
-1.95284e-07
-6.96714e-08
0.000496482
5.16364e-09
0.000448593
-2.10427e-07
-5.04185e-06
4.9017e-08
-2.06898e-06
7.22073e-08
-1.43831e-06
-1.98536e-06
-1.50792e-08
9.57119e-08
-9.67118e-07
6.89599e-07
0.000252196
-1.56796e-07
4.18389e-06
0.000653897
-1.90328e-05
3.49745e-07
-1.47157e-05
2.92389e-07
-6.53866e-07
-1.94111e-09
-5.24254e-07
2.03818e-07
-1.11821e-06
-2.73067e-06
1.61027e-07
1.79365e-08
-6.65942e-07
-2.78738e-07
1.46631e-06
-1.95022e-05
-6.02274e-07
2.71445e-08
-1.34001e-06
0.000788213
1.56524e-05
3.93344e-07
2.48941e-07
5.19351e-07
-0.000187669
3.04654e-09
7.97948e-07
-4.18057e-07
-6.56526e-07
-1.60169e-08
-1.37052e-07
-1.34953e-07
-2.49056e-09
0.000424298
-1.53738e-07
-3.44704e-07
-4.75942e-08
-5.07106e-08
4.70583e-06
2.04648e-07
1.71643e-06
-4.71746e-05
4.22291e-06
5.93251e-08
-2.73949e-07
7.09332e-07
0.000772586
-1.2629e-07
3.35991e-05
-2.28655e-07
8.17553e-08
1.63812e-06
1.86872e-08
1.09565e-06
-6.51106e-07
0.000186797
3.82646e-06
1.47888e-05
3.24822e-07
-1.8018e-07
1.75977e-05
2.43093e-07
-1.65616e-05
-4.1304e-08
3.15762e-08
1.45936e-07
-4.91875e-08
-2.6543e-06
-9.37089e-06
1.11337e-07
-5.83804e-08
-2.50159e-06
2.12195e-07
0.000172754
0.000408616
-6.57165e-07
-1.51829e-06
0.00102891
-1.13153e-06
9.94817e-07
1.9502e-08
-4.34808e-07
6.9062e-05
-5.94946e-05
-7.01934e-06
9.72195e-06
1.09211e-07
3.46899e-07
-2.6983e-07
8.89517e-08
-1.86196e-07
-6.8382e-10
1.37268e-05
-1.16576e-06
-1.73068e-05
0.000868763
-6.69747e-06
-2.23233e-08
0.00217966
-1.84882e-07
1.33984e-06
-2.90591e-08
-7.37551e-09
-4.9735e-07
-9.00868e-07
1.58735e-08
3.61718e-06
-1.28243e-06
0.000749
-4.83752e-08
-3.52602e-07
-0.0005685
-0.000103353
-0.000118181
-4.71213e-08
-7.61983e-05
0.000586476
3.53218e-06
9.50691e-08
-3.07256e-06
1.71246e-07
-1.50886e-07
-4.92146e-07
-6.31635e-07
-1.14175e-08
1.51865e-07
6.38228e-08
1.98315e-06
-6.58284e-08
9.56568e-05
7.08107e-06
-1.48347e-08
-1.35358e-07
1.10642e-05
1.28799e-05
-1.37265e-08
-5.34575e-07
-3.86069e-07
-2.59242e-07
0.000890302
-5.55853e-08
-3.26918e-08
-5.62603e-06
1.0167e-06
2.62167e-07
-1.30856e-06
-3.53768e-07
-5.16657e-10
-8.5319e-08
-1.06101e-06
1.92772e-07
0.00143957
-2.53082e-07
-1.6314e-07
-3.32808e-07
-1.24052e-07
-1.92204e-06
2.923e-06
-3.56624e-09
1.59952e-08
3.80058e-07
1.40343e-08
-1.93849e-06
-1.26026e-10
-5.48069e-06
-8.53082e-09
2.56211e-07
-1.63124e-06
1.23817e-07
0.000128004
-1.29569e-08
2.71374e-05
1.13751e-07
1.40973e-06
-9.76347e-07
0.000360184
2.23047e-07
-6.25128e-06
-2.86958e-07
6.23157e-06
-6.67525e-07
1.40346e-08
-5.31469e-07
-1.30065e-07
2.14893e-07
0.000886981
1.62985e-06
-9.22138e-05
-1.78827e-07
0.00137733
1.09416e-08
2.24171e-05
-6.71469e-07
0.00111064
-3.34834e-07
0.000636976
0.000299338
-4.10506e-06
-2.33711e-07
4.91023e-05
-3.00097e-05
4.6136e-08
-2.52211e-07
-7.3576e-08
-9.10633e-06
0.000131146
9.43461e-08
-1.48956e-05
0.000233423
0.000500575
4.76323e-06
-4.80338e-06
0.0042744
2.45984e-06
-1.04212e-08
2.94226e-09
0.000475594
-1.89735e-06
-2.44076e-07
-2.34526e-07
5.01846e-07
1.53405e-06
-7.9137e-05
2.24298e-09
4.19385e-07
0.000224925
0.00124911
-2.68967e-07
-7.9024e-09
3.99855e-06
2.28541e-09
0.00124726
3.85603e-05
1.32419e-05
-3.05553e-08
-8.1318e-09
1.19706e-05
-4.03438e-08
-4.55602e-06
9.63335e-08
2.95163e-06
2.52346e-07
5.79806e-06
1.18294e-07
3.20054e-08
-1.57618e-08
6.51109e-06
-3.73354e-07
3.58512e-09
-3.15392e-08
3.14167e-06
-1.50796e-06
-1.53698e-11
-1.81338e-08
-9.34342e-05
-3.55788e-09
2.31152e-08
8.38883e-05
-4.45496e-08
0.000967149
-3.56948e-07
-5.66061e-10
5.03656e-07
-2.53082e-08
-9.55137e-07
7.76665e-07
6.05822e-07
1.25313e-07
5.69562e-06
-3.92546e-08
-1.99443e-06
-1.95214e-08
-4.89649e-07
9.88692e-06
3.80139e-08
2.67992e-07
-6.11172e-07
2.0223e-06
-7.24361e-08
-4.5376e-06
-2.1945e-07
-4.09164e-06
-2.83324e-07
0.00126793
-0.000561013
-2.66356e-09
7.64624e-10
2.47328e-07
-1.49636e-07
2.37763e-08
-0.000202971
-8.97545e-07
-8.02415e-06
6.00289e-08
-1.17353e-08
1.19856e-07
-1.13059e-06
7.13309e-05
3.89911e-07
0.000314819
-2.62189e-07
6.85914e-08
0.00121813
1.17817e-05
-9.02615e-05
-9.29054e-07
-7.74232e-08
0.000654225
7.23033e-05
-1.01127e-08
-0.00230833
-6.1408e-06
4.45943e-06
-3.93212e-07
0.000912781
1.25359e-07
-2.54366e-09
1.07441e-07
3.18096e-06
8.93556e-08
7.57433e-08
2.12597e-07
1.34857e-06
9.44342e-05
0.00173678
-0.000896856
-9.71749e-05
-1.59198e-08
3.14967e-08
1.1265e-08
1.48195e-07
-2.67178e-08
-3.5621e-09
2.2245e-06
6.90578e-06
-3.51523e-08
0.000757094
1.56356e-07
0.000122051
1.16914e-05
1.53078e-07
1.72225e-07
6.17732e-08
2.12069e-06
-2.70917e-07
4.77571e-07
-3.02498e-07
0.000791573
-3.63616e-06
-1.898e-08
-2.84545e-07
1.85444e-08
2.65397e-08
5.70814e-08
-0.000205922
4.6399e-06
-1.3039e-07
-1.3643e-07
4.66321e-08
-7.20814e-07
-5.02847e-07
3.93636e-08
6.88914e-07
0.00102462
-0.00119849
-3.38971e-06
0.000551222
-2.22235e-09
-4.6144e-07
0.000687634
-8.14216e-09
2.38236e-06
-4.05639e-07
7.06824e-08
2.55259e-07
-8.5514e-08
0.00258131
-3.24765e-11
-1.13966e-06
-6.23601e-07
-5.30561e-06
9.41811e-08
2.00904e-08
5.30033e-07
2.10009e-08
-1.32885e-08
-0.000147648
1.62187e-08
8.53213e-08
0.00133154
-1.83535e-05
-4.35589e-06
5.52514e-08
-3.20913e-05
-4.7049e-07
-0.00011579
1.10611e-06
-1.07873e-08
9.65209e-08
-4.25717e-08
-2.13263e-08
-1.95137e-06
-1.73913e-07
-1.24928e-05
1.17448e-08
-3.20583e-07
-0.000138125
-1.29334e-08
7.92789e-08
-2.41354e-06
0.000795214
-6.11632e-07
-1.08868e-05
2.6435e-08
1.44267e-09
0.00177276
1.83313e-10
8.12408e-09
-1.35667e-07
0.00127185
4.79122e-06
0.000272818
7.87737e-08
6.86271e-06
3.91067e-06
6.0699e-08
4.58955e-06
8.48908e-07
1.39987e-08
-3.6048e-09
-1.18416e-07
-4.73082e-07
9.14992e-06
-2.79502e-07
1.06471e-05
-6.14977e-08
0.00049181
4.478e-08
1.66446e-06
3.88351e-05
3.33473e-09
-5.35189e-07
9.65716e-07
-1.24092e-08
3.84361e-07
-2.8445e-06
7.05747e-08
6.62839e-08
1.15089e-08
-4.07657e-09
-1.20232e-06
-1.464e-08
-0.00477797
4.81004e-07
-4.6469e-07
7.29294e-09
-1.24094e-06
-1.11602e-06
-0.000806756
-1.80044e-07
-0.00137598
0.000852682
-1.70928e-11
0.000398738
-2.16223e-07
8.36747e-08
8.52193e-08
-6.09156e-08
9.85965e-09
2.94825e-07
0.000118728
0.0011448
0.000388219
-2.6432e-07
-7.36233e-09
3.20013e-08
7.49552e-08
-2.2588e-07
-0.000148579
5.65234e-08
1.89867e-07
-8.32893e-07
0.00114209
-3.16577e-10
-2.23635e-08
1.96475e-08
1.06441e-07
-5.13538e-08
4.78118e-08
-1.40507e-07
-1.45378e-08
4.79542e-08
1.63503e-08
8.97419e-05
4.33402e-09
-1.51006e-05
1.27822e-07
0.000277857
1.11058e-05
-8.06467e-08
-1.0477e-06
-7.21862e-09
1.67734e-08
6e-07
1.07554e-09
1.8049e-05
-1.03475e-05
0.000587563
6.47361e-07
-1.63155e-08
7.15557e-08
-2.54842e-07
2.32245e-07
2.52531e-06
1.07859e-08
-0.00538589
-3.54657e-06
3.55151e-06
-9.10664e-06
-9.04103e-07
3.20012e-08
-9.4249e-08
7.93307e-08
-2.41919e-06
3.082e-07
-8.2109e-07
0.00217595
-1.46681e-07
2.3424e-08
9.21493e-07
1.03633e-07
-1.40922e-06
1.60746e-07
-6.93883e-06
3.66056e-07
0.00116642
0.000159893
-1.26995e-07
8.38654e-08
1.27628e-07
-4.01678e-09
1.03011e-07
-9.88617e-07
-5.85217e-08
-4.24708e-09
8.83552e-09
-1.01841e-08
5.0828e-07
-1.04246e-05
6.39746e-07
1.28812e-06
0.000133074
1.54513e-07
-1.34071e-07
-1.34692e-08
-1.59228e-07
0.0001086
2.90417e-08
2.43316e-09
-1.27688e-06
3.597e-08
-1.62914e-05
-1.67517e-07
-2.96035e-07
-7.26691e-05
-9.84194e-07
-7.75197e-09
-1.22913e-07
2.92833e-07
9.16632e-08
2.5199e-06
1.19383e-07
0.000101648
0.00015037
-1.28763e-06
1.19365e-05
-2.26988e-07
0.00103684
-7.98159e-08
2.72493e-05
0.000487709
-1.35586e-08
4.38278e-07
1.04333e-07
1.86278e-07
-2.95697e-06
0.000578478
-1.65588e-07
-2.52967e-11
5.55575e-08
-1.52511e-06
4.11751e-06
-5.63823e-05
2.69722e-08
0.00190974
-4.88426e-07
3.22127e-07
0.00214539
-3.97549e-08
-3.58605e-08
4.12943e-05
-1.16953e-07
1.30759e-08
-1.31797e-08
0.000881436
8.5532e-08
0.00360031
-0.000841303
1.24981e-06
-3.3641e-06
-1.1463e-05
9.56312e-08
6.75762e-06
7.21993e-08
2.99815e-08
1.32174e-05
-5.31964e-09
-7.59072e-05
-1.84162e-08
5.00533e-07
-9.283e-09
0.0015892
-2.22218e-06
4.17105e-06
2.53166e-05
5.76063e-08
-1.03769e-05
1.17292e-06
5.16899e-06
-3.39065e-09
0.000373478
-1.61539e-07
2.08683e-08
1.49639e-06
-3.53879e-06
4.75936e-07
-4.695e-08
-1.08048e-09
-2.39594e-07
0.000296166
-3.15081e-08
-5.75845e-07
2.37798e-06
1.01429e-07
1.01012e-07
2.62715e-07
1.52475e-07
1.03305e-06
7.95519e-08
7.74049e-08
8.75082e-10
5.73493e-08
1.10162e-07
2.70576e-07
6.76169e-09
1.32515e-06
1.24978e-07
8.92675e-08
-6.5958e-09
-0.000863154
5.75831e-08
-5.56473e-06
4.46279e-08
0.000114563
-3.17911e-07
-0.000641359
-2.60281e-08
5.44855e-07
-1.05626e-05
-2.56389e-07
0.000216121
-1.46169e-07
-6.50289e-07
-2.43193e-05
-4.30089e-06
1.05309e-05
-2.16875e-05
0.000464848
-1.61864e-08
5.57394e-08
1.65918e-07
8.07552e-08
1.80977e-06
7.35784e-08
3.01135e-08
2.25148e-08
-3.50363e-07
-3.05578e-07
-3.74756e-08
-6.51134e-06
7.04367e-05
-0.00304448
-4.76036e-07
0.00151066
-2.09035e-06
1.15808e-06
-7.48913e-06
1.37057e-06
-1.82285e-11
0.000904939
-1.1616e-10
-2.56391e-07
6.85373e-05
1.92014e-06
1.42273e-07
-3.40158e-05
1.50227e-07
9.17297e-07
8.62157e-08
-1.24298e-07
-1.38959e-06
0.00237141
-3.15962e-06
-1.48142e-05
-2.18415e-05
0.000100322
-0.000408812
-2.6704e-07
-1.93725e-06
-4.95536e-09
0.0006266
6.39388e-08
-2.27113e-07
-4.1735e-07
6.39171e-06
7.95344e-08
-1.05454e-07
2.64396e-07
-1.2601e-07
-8.89394e-07
-7.76744e-06
3.11755e-05
1.032e-07
-1.90046e-10
-1.73359e-10
-3.29868e-07
3.81204e-07
2.63884e-06
-7.95219e-08
-4.25682e-08
5.14303e-08
8.44626e-08
-1.08889e-08
1.42864e-06
1.16183e-05
-1.17951e-07
0.00101192
-1.00706e-07
5.80871e-08
-7.33994e-07
-4.30263e-08
0.00143216
-1.09316e-08
1.35305e-06
1.00633e-07
-8.20444e-08
-2.88925e-05
9.77702e-08
1.69043e-06
-5.74685e-07
-2.25241e-08
1.22985e-07
-2.83119e-08
1.09049e-07
0.00150251
5.10702e-07
5.46272e-06
-4.4769e-07
1.79978e-07
-6.93273e-07
-8.5722e-09
2.32755e-08
-1.39176e-06
-2.75473e-07
-1.12429e-05
1.04105e-06
6.29297e-07
1.39002e-07
-5.49436e-06
6.06311e-08
1.24513e-06
-2.689e-06
3.22534e-07
1.37479e-07
-3.78294e-06
-4.02699e-07
2.75091e-08
-9.19265e-07
6.29584e-08
6.47854e-07
-0.000147946
7.2737e-05
-1.34013e-07
-1.07866e-07
-2.91241e-09
6.15849e-08
1.97899e-05
1.01654e-07
-3.52812e-07
8.99059e-08
1.42367e-08
-1.03422e-05
4.4917e-07
7.41959e-08
5.35137e-06
3.12298e-08
0.0014437
2.54e-06
-1.8727e-08
6.78824e-08
0.00116087
-2.79728e-07
-1.08508e-06
5.62484e-08
-9.15427e-06
-1.10071e-06
2.76801e-06
1.05012e-06
-8.34413e-06
1.09656e-07
2.63614e-07
-9.02878e-07
-2.13485e-10
-1.92598e-07
-1.77411e-08
0.00466897
1.49666e-06
1.09027e-07
9.89288e-08
0.000668961
9.83232e-08
-1.97774e-08
1.52269e-07
-3.84475e-07
3.15741e-07
1.09448e-07
-1.78835e-08
1.31244e-05
7.44982e-09
-4.25314e-07
8.44068e-10
9.8705e-08
0.0013153
4.11175e-10
0.000362358
1.85198e-05
2.48121e-06
-0.0013896
-1.9155e-10
-9.27087e-08
6.33326e-08
1.17545e-06
9.92274e-08
1.18323e-06
5.71696e-06
8.78765e-10
8.85024e-06
-1.70212e-07
-6.9149e-08
-2.4978e-06
4.73533e-06
-4.69118e-08
8.17839e-07
1.01135e-07
-1.6118e-07
0.00155402
-4.84185e-07
-2.7964e-09
1.60233e-07
-7.55809e-08
-1.7403e-07
1.01505e-07
9.35635e-12
6.75265e-06
0.00151102
3.74574e-08
1.058e-07
1.01036e-07
-5.58542e-08
1.88399e-07
-8.71401e-07
9.00753e-08
-0.000172592
-4.04527e-08
-1.19634e-05
6.1016e-05
1.02264e-07
-1.51069e-07
3.69645e-08
-3.45025e-07
0.00055023
2.87348e-05
-3.44224e-07
2.29365e-06
5.5105e-06
0.000483272
1.72129e-08
-3.18959e-07
6.9075e-08
-2.91133e-06
5.6504e-07
1.56458e-06
-8.90225e-06
-3.29539e-07
0.00123175
-1.18652e-07
-1.62484e-06
-6.6464e-09
-3.38537e-06
1.47119e-05
-2.88642e-07
0.000184693
-2.94307e-07
2.22392e-08
-1.62339e-06
1.62685e-06
6.26687e-08
8.66968e-07
9.23429e-08
6.46055e-08
5.08797e-08
4.07724e-06
1.93471e-07
-3.64694e-07
-0.000202282
1.14001e-05
-6.03304e-09
-0.000580463
-2.52096e-07
2.16641e-08
-4.96322e-06
1.47789e-05
2.40258e-07
3.20751e-08
-3.34652e-05
4.46445e-08
8.1421e-08
2.11237e-07
1.12722e-06
-7.24071e-07
1.14472e-07
-0.00041739
-2.04518e-10
6.75358e-09
-6.18012e-08
-6.4795e-08
9.76894e-08
-0.00299151
8.70383e-09
-1.18403e-07
-3.58468e-08
1.14158e-07
5.30451e-06
-1.92603e-08
0.000549956
-2.1817e-06
1.32222e-07
-4.9332e-08
8.1366e-06
2.87802e-10
5.4951e-07
-1.05032e-07
1.28421e-09
-7.60046e-07
-2.70618e-10
-4.72269e-05
1.30759e-05
7.16355e-09
1.86705e-05
2.34356e-06
-6.03697e-06
-5.85359e-06
2.87023e-07
1.27642e-08
-1.46193e-08
-7.2616e-05
1.19527e-05
1.46484e-07
3.43993e-08
0.000288653
-5.95761e-06
1.20072e-07
5.68676e-06
0.000263361
0.00171525
-2.32269e-07
-1.22287e-07
-6.29113e-10
5.1438e-08
-1.02831e-07
3.78304e-07
2.18663e-09
1.71572e-07
1.23121e-07
-9.92404e-07
2.33919e-05
4.38494e-06
0.00123356
-6.32589e-07
-1.25201e-07
-7.66567e-08
-1.31605e-07
-2.03597e-07
3.25521e-07
-7.57757e-07
-1.62862e-07
-1.12262e-05
-1.0308e-08
1.06118e-07
-1.11776e-06
-1.25375e-06
7.1621e-07
6.68929e-06
-4.34888e-10
1.72222e-07
-2.64524e-06
-1.10608e-07
1.09588e-07
1.06676e-06
8.45357e-08
0.000652088
-2.15795e-07
1.95354e-08
5.23853e-09
1.91489e-07
3.76281e-08
9.073e-08
1.05885e-07
4.32978e-07
1.33529e-08
-5.54882e-05
-6.57579e-07
-0.000152271
0.00154822
2.22401e-05
0.000249903
-3.15373e-08
1.35774e-06
3.57062e-06
0.00161236
-1.47002e-07
-6.13443e-11
-1.04267e-06
1.12663e-07
2.28451e-08
0.00129991
-1.04124e-06
-1.14946e-08
-1.24957e-05
0.00174299
6.86168e-08
4.85549e-05
-1.24886e-07
-1.34905e-07
4.14865e-08
-1.12034e-06
-1.69478e-07
4.30765e-07
3.6237e-05
-2.10717e-06
-9.58737e-07
-2.64477e-09
1.11044e-07
-1.15124e-08
-8.15716e-08
-7.90014e-07
0.00132589
3.96497e-08
0.000603792
4.18203e-07
-2.52468e-07
-0.000180228
0.000169998
-0.00214383
7.55032e-08
6.98426e-08
1.26633e-08
0.00136564
-3.03762e-05
-2.70892e-06
2.02672e-07
-4.68493e-05
-5.53097e-08
-1.33222e-08
1.88076e-07
7.65987e-08
3.53634e-07
-1.35078e-07
-2.35093e-07
3.7526e-06
4.66521e-07
-1.05907e-07
8.16549e-08
6.40244e-06
-1.85145e-06
-1.83301e-05
1.03701e-06
1.99027e-08
0.0018421
-1.45598e-06
1.35126e-06
-6.89749e-08
-7.2927e-05
4.22665e-08
3.93305e-07
0.00239147
6.82299e-07
-9.45902e-08
5.31661e-08
1.90526e-06
-9.47191e-08
1.21426e-07
-9.20557e-07
0.000955604
1.19414e-06
6.88499e-07
-2.37514e-06
0.00039205
0.00138382
-1.60283e-07
1.02297e-07
3.10566e-08
0.000146287
-7.62234e-09
-2.85697e-07
-0.0012476
2.2101e-09
-1.12047e-06
8.80347e-08
-4.28607e-10
1.4373e-07
7.04843e-07
0.00104045
-2.11141e-05
1.40332e-07
-4.46996e-08
-3.98169e-05
4.85901e-08
0.000265316
0.00136502
0.000810432
6.98474e-07
9.04419e-08
6.56484e-07
-4.10406e-07
-0.000751445
1.18801e-07
2.3453e-07
-1.19901e-07
2.45416e-08
-2.5048e-08
-6.83162e-09
0.000747289
-3.94247e-08
-8.97059e-07
-2.63949e-07
1.02953e-07
1.58938e-07
0.000250293
-1.46291e-07
-3.08338e-07
3.63904e-07
2.70721e-08
-3.75112e-05
9.14052e-08
-6.53101e-05
-1.58592e-07
-7.64131e-07
7.57485e-08
1.03157e-06
2.96501e-06
-3.18884e-06
8.70742e-09
7.65284e-08
-7.01374e-09
1.20358e-07
-4.74335e-07
3.94281e-06
1.40098e-07
1.31037e-07
-3.44871e-08
-2.20925e-09
2.28653e-07
-3.52477e-10
-0.000184666
-3.44189e-06
-3.86162e-08
-4.70164e-08
6.68991e-08
0.000691592
2.18344e-08
-0.000163137
6.10009e-05
-2.35416e-08
1.87369e-08
-2.94974e-07
-5.90729e-07
0.000586953
-3.42388e-09
2.82263e-05
-1.05878e-07
3.45139e-07
2.90878e-07
-2.12327e-08
-6.80529e-07
-5.76075e-07
8.57021e-07
0.000683668
3.23946e-05
3.70856e-08
0.000849414
-1.64883e-08
-2.4886e-11
-4.88374e-08
1.40784e-06
2.31669e-07
-9.56506e-07
-1.94277e-08
-5.26836e-08
1.09213e-08
1.1272e-07
0.000926179
4.57667e-08
-1.73711e-09
6.98729e-08
-5.34213e-07
-9.0951e-05
-3.22793e-07
7.42563e-07
-2.59492e-08
-7.19551e-07
7.22525e-08
-2.5856e-07
-8.17145e-07
1.45686e-06
-4.52179e-06
-7.48204e-08
2.23605e-08
-1.9374e-05
1.93024e-07
5.52612e-08
-4.20209e-05
4.10588e-06
-4.82382e-08
2.84629e-06
-4.84577e-08
-1.05214e-06
0.00226397
-1.16475e-05
-5.126e-07
-6.50639e-07
-1.32495e-05
-5.88732e-07
1.80657e-07
3.45862e-07
-6.81489e-07
-4.73936e-07
7.86547e-08
-1.8272e-08
3.68561e-05
-1.48575e-08
-2.55071e-05
-2.04283e-07
5.21362e-08
1.25507e-07
0.000658417
3.11234e-08
-2.33416e-08
2.79688e-07
2.96307e-06
6.56583e-09
1.00256e-07
-1.866e-09
-2.57488e-07
9.5473e-08
-1.02786e-08
1.44555e-07
-1.70308e-06
-2.04503e-05
-3.45224e-06
5.12281e-07
-1.41557e-07
0.000448758
-2.10877e-07
3.2078e-07
3.47844e-08
8.06644e-08
3.60127e-05
-5.85941e-05
-3.08265e-07
-1.64381e-07
-7.84307e-08
1.95418e-07
2.52745e-06
0.00123876
0.00125222
1.54038e-06
2.40138e-06
1.5933e-08
7.69657e-05
1.39352e-06
2.9965e-06
5.52555e-06
-2.70192e-07
2.04946e-05
-3.68028e-08
2.94578e-05
4.17489e-08
1.11636e-06
1.79808e-07
-7.3186e-07
-1.06273e-08
1.16116e-08
-1.17636e-06
-0.00147132
-1.6465e-07
-7.12887e-07
5.48896e-09
0.00161753
9.29468e-08
-0.000476799
8.43187e-08
2.56189e-08
1.64338e-08
6.20165e-07
8.74495e-08
1.25307e-06
1.66443e-06
9.34364e-08
-1.35644e-08
1.84387e-06
3.34078e-09
1.82893e-08
-4.37746e-07
-0.000128036
-1.30465e-07
-3.66512e-08
1.92468e-06
-1.82048e-09
-2.03916e-07
3.00549e-08
0.000518859
2.16775e-07
-3.52006e-07
-1.15493e-06
2.71065e-06
2.15313e-07
1.18961e-07
-1.06007e-05
0.00105667
7.12526e-08
1.33314e-08
-3.35689e-07
7.39051e-06
2.67882e-07
1.84272e-06
-2.3562e-06
3.73503e-05
3.28922e-07
-4.75558e-07
3.40045e-08
-3.12957e-08
-5.26494e-07
4.35431e-06
-1.08601e-07
8.90944e-05
-8.2403e-07
-5.07945e-07
-9.73322e-07
-6.64636e-07
-6.75906e-08
-2.12912e-07
-5.59232e-08
9.87269e-08
0.00109182
-1.94146e-08
-7.90277e-06
-1.85842e-06
4.36193e-07
-6.71812e-06
-4.02599e-07
-5.21487e-07
-9.89138e-06
8.99133e-08
1.37645e-07
5.04251e-06
3.09769e-06
7.02993e-08
2.24385e-08
0.00210798
-3.94426e-08
-2.47707e-07
7.53064e-08
8.39188e-08
-1.28496e-06
-0.000128966
-3.70808e-06
1.27235e-07
-1.60192e-06
4.20614e-06
-3.38862e-07
-8.08472e-06
-2.71593e-07
-2.89686e-07
-6.35509e-06
-9.54204e-09
-4.50197e-06
-2.43658e-06
-1.28557e-06
-6.97006e-07
1.02414e-05
1.74329e-07
-1.12932e-06
1.81741e-05
-1.15712e-08
-4.36837e-05
2.65447e-06
5.7953e-07
-0.00262534
0.00105797
0.0016334
1.08354e-07
-3.19944e-10
1.25052e-07
-4.32917e-05
-9.53967e-07
0.000460747
3.22923e-06
9.45589e-07
1.13522e-05
-4.01257e-08
-1.37325e-06
7.41251e-07
-1.17282e-08
7.02888e-07
-1.20976e-08
3.57226e-07
-2.39293e-06
-3.38784e-07
9.174e-08
-1.45831e-07
2.05182e-06
-1.14434e-06
8.83155e-08
-7.13102e-06
4.17016e-08
-1.4601e-05
1.63268e-06
4.5211e-05
-2.26356e-07
-9.03758e-06
0.000262419
1.58819e-07
-0.000425307
1.79483e-07
1.71556e-07
-6.6034e-07
-3.12361e-07
-1.93683e-08
2.47925e-07
-1.57206e-08
1.9779e-06
3.10476e-06
-1.30333e-08
-1.24806e-05
2.37233e-08
-7.41876e-07
8.3874e-07
-1.10503e-07
-3.30004e-06
0.000667162
-1.10555e-06
8.96301e-08
-9.12555e-10
3.2653e-07
-3.24016e-06
-1.09016e-07
0.000100156
1.09055e-07
2.96877e-07
-2.1039e-07
-2.22023e-07
0.00214969
0.00298966
6.96784e-06
-8.53897e-05
0.000141186
1.1083e-07
-0.00316079
-2.54498e-06
-8.9047e-08
-2.59462e-05
-2.26122e-07
0.000197027
-8.58136e-07
8.34227e-06
-2.48522e-07
2.9859e-06
9.44256e-05
-0.00103126
3.36271e-06
-8.84336e-08
9.22405e-09
-2.48602e-05
1.06117e-07
0.000177914
1.81418e-07
-3.62857e-05
0.000469208
-9.59722e-07
-0.000130797
2.57873e-09
0.0314814
-2.68045e-07
3.24515e-07
-1.15185e-06
5.19953e-08
6.18302e-06
-0.00120929
2.81255e-07
3.68033e-08
-2.83033e-06
5.17039e-08
9e-08
-3.5223e-07
3.04817e-06
-1.66229e-07
-1.97317e-07
-1.10855e-06
9.4031e-08
0.00135893
2.78856e-08
0.00250835
3.37312e-05
-8.62541e-08
-2.31407e-07
-3.36252e-08
9.2333e-08
-1.79486e-05
4.32548e-08
-9.01887e-06
1.07334e-08
-1.03662e-06
-4.89916e-08
-1.01254e-05
2.27705e-07
-2.22893e-07
3.20777e-09
-4.59938e-07
1.33318e-07
-2.00797e-08
-2.62574e-08
2.60567e-08
-5.40939e-07
-1.54253e-06
-1.17414e-11
-0.000315463
1.48758e-07
0.000766155
-3.51674e-06
-3.28604e-09
2.10854e-07
-9.38009e-07
-4.91695e-06
-1.275e-07
-2.70616e-05
3.05366e-05
-1.87196e-08
-4.92977e-09
3.83488e-06
2.97038e-06
-3.69846e-07
-1.10487e-08
2.65553e-05
2.92942e-08
-7.58734e-07
1.99184e-08
9.43418e-08
-5.44816e-09
-8.61736e-07
-1.19009e-06
6.54024e-08
-2.22283e-06
-1.50718e-08
0.0016923
5.78746e-06
7.90304e-08
-1.66755e-09
-2.31863e-07
1.20934e-07
6.99893e-09
-7.2518e-07
1.71504e-08
-1.96704e-06
3.28952e-07
-1.07296e-07
-1.96385e-07
-4.371e-09
-2.17179e-08
-0.000742522
-6.88347e-07
0.000725011
-9.57618e-09
-5.45871e-07
0.000508553
3.5204e-08
9.17729e-07
-3.08894e-07
-7.73016e-07
4.09166e-07
-7.98235e-07
4.34465e-07
-4.03595e-07
-2.96044e-07
-1.05434e-06
0.000424296
1.03028e-07
0.00186703
0.000886325
2.06962e-07
-2.07197e-08
0.000857496
1.95823e-06
1.79862e-07
1.80208e-07
-3.77306e-07
5.67637e-07
-3.87882e-08
-1.88822e-07
4.42251e-06
1.01812e-07
-2.30059e-06
-9.50415e-08
-5.57494e-09
2.11203e-08
6.33411e-06
-2.72379e-07
-5.38553e-07
7.41848e-09
6.27504e-07
1.14596e-07
-1.20136e-08
5.61004e-06
3.57045e-07
6.98732e-08
-8.85809e-06
-1.57985e-06
5.15045e-08
-1.99008e-07
6.12369e-08
3.00315e-08
2.41483e-05
2.34576e-07
0.00118406
-1.20575e-10
8.23099e-08
-4.16338e-10
1.38705e-06
-2.02892e-07
-3.41828e-07
-2.13926e-10
0.000164604
1.62363e-06
-2.95459e-05
-2.56745e-08
-7.36942e-06
-1.00903e-05
-0.000262624
-2.35135e-10
-9.72906e-07
-2.12465e-06
3.71512e-07
-3.85972e-06
0.0016971
0.000181806
1.2706e-07
3.21883e-06
2.0672e-08
0.00135307
-2.92628e-07
-5.36877e-07
-4.03946e-06
-4.86669e-07
-9.36924e-10
-5.54857e-07
-1.12215e-06
5.12116e-08
-3.37454e-08
6.33043e-08
5.86968e-08
8.6434e-07
-0.00155202
0.000676702
-6.53899e-07
-5.55937e-07
2.58815e-08
3.33206e-07
1.40592e-08
-2.69475e-08
-2.40098e-07
-3.41428e-07
-4.12175e-06
-1.91014e-08
1.81548e-07
8.72125e-08
2.40853e-06
6.14692e-07
7.20251e-08
1.48699e-06
-7.79668e-07
0.000413014
1.7446e-07
4.61179e-07
-4.72068e-08
7.97795e-08
-1.68919e-05
-3.54934e-07
1.81852e-08
8.53306e-07
1.71431e-09
4.76301e-07
0.000982005
1.08012e-07
-1.68112e-08
2.27141e-06
-3.20224e-06
5.19306e-06
-3.62685e-07
-1.04103e-06
9.26489e-08
-2.59416e-10
-2.87402e-07
-0.00037322
-2.2099e-07
-7.95957e-07
1.11639e-06
1.31575e-07
-4.87862e-06
2.05777e-05
-1.34955e-07
-1.07815e-08
-4.26008e-08
-1.88184e-09
-1.53411e-06
-6.81947e-08
-1.15418e-07
-9.4545e-08
1.00071e-05
9.20747e-08
-0.00769872
-1.33851e-07
8.40101e-08
1.26028e-06
0.000304168
-1.3915e-06
-1.3567e-07
2.572e-07
1.2594e-07
-7.93312e-06
-5.91765e-07
0.000610354
-4.71096e-07
8.30518e-08
1.54927e-09
-2.80331e-07
-1.2389e-05
-4.7852e-07
7.68619e-08
1.38465e-07
-7.13887e-07
-1.02868e-07
2.85255e-08
1.6152e-07
-5.19152e-06
1.08825e-06
-3.46475e-07
-4.12296e-07
1.15044e-07
5.80977e-08
1.26968e-07
0.000594208
8.59771e-05
-8.32241e-07
5.18505e-05
8.72591e-08
2.3348e-07
-2.61698e-08
1.12151e-05
0.000709554
-1.50339e-08
0.000118012
-1.10523e-06
-6.56982e-08
-0.00187126
0.00176305
-1.1849e-07
-1.928e-07
9.89086e-08
-5.30516e-06
-6.09361e-07
5.12535e-08
1.37302e-05
-2.23383e-05
2.03197e-05
1.69141e-05
4.92813e-07
-1.55481e-06
1.16574e-07
8.06914e-09
1.76202e-06
9.94936e-08
1.43427e-07
1.28856e-07
7.7682e-06
5.69799e-07
0.000809074
-1.07504e-06
1.65046e-07
4.82537e-05
2.00246e-05
3.14995e-07
6.62319e-07
0.0110503
2.38389e-06
6.07314e-06
3.54465e-05
-0.000253001
-1.53926e-07
-1.04187e-08
-7.72705e-07
-4.65694e-06
6.93371e-08
-1.15739e-06
9.8919e-09
0.000414783
-8.86542e-07
2.90743e-06
1.72721e-07
5.10018e-08
-0.00132196
-2.47964e-06
0.00130991
-1.96496e-07
-5.29982e-08
0.000752239
-5.81904e-07
-7.37494e-06
-5.73316e-07
1.76815e-08
2.08158e-07
4.56601e-09
-1.91783e-07
-3.09696e-08
-4.37686e-07
0.000508482
-4.57682e-06
0.00228291
0.0144569
1.27924e-08
-6.8806e-07
4.95175e-08
-1.46327e-07
4.51481e-05
-1.52014e-05
-4.10075e-08
-3.6161e-08
7.07296e-09
-9.55522e-06
1.9845e-07
-4.71365e-09
-8.91433e-09
9.75167e-08
-7.23884e-07
-2.42415e-10
6.72837e-05
-5.74638e-10
4.30901e-09
-0.000565524
-2.44272e-06
2.54363e-07
1.86686e-07
-0.000248961
-0.000116636
0.0011692
-5.93762e-07
1.67837e-08
1.22585e-07
-5.68412e-06
2.38854e-07
-3.55776e-05
-7.87344e-08
2.19863e-07
-1.10114e-08
-1.02493e-08
2.98163e-07
-4.67686e-06
-2.99836e-07
3.72333e-08
-0.00690397
3.00353e-08
-1.25184e-07
-2.88785e-07
-1.75022e-09
3.83914e-08
3.62514e-08
0.00103094
3.65003e-09
-5.53879e-07
9.38104e-06
1.21205e-07
5.95247e-08
6.29889e-06
8.88948e-06
1.14514e-07
-0.00174795
-2.64817e-05
-2.60895e-06
-9.37002e-08
4.26494e-08
4.88312e-06
1.32732e-07
1.47817e-08
-8.6511e-06
-5.5094e-07
0.0011469
8.95111e-07
-1.039e-06
-5.68051e-09
1.35135e-06
0.000348549
7.56421e-07
-0.000113983
-4.13375e-07
-1.13014e-06
7.553e-06
-1.62795e-07
-8.85152e-08
-3.5891e-08
0.00119492
3.02022e-07
-5.42791e-09
3.88954e-08
-4.77765e-06
-2.83264e-05
0.00159984
-6.60864e-09
-7.01343e-09
0.000506569
-3.58156e-07
7.71935e-06
-3.65267e-05
5.99723e-06
0.00100707
1.26376e-07
3.38729e-07
1.80608e-06
-1.24909e-07
-2.80217e-09
3.84677e-06
0.00076546
-7.42485e-07
2.23614e-06
-1.148e-08
-3.27249e-07
-4.7164e-05
6.54935e-08
-2.77611e-06
-1.80987e-07
1.67976e-07
1.80739e-10
0.00119278
0.000872655
-8.36748e-07
2.76566e-07
1.11456e-08
-5.27998e-08
-1.62257e-06
-3.30404e-07
1.55109e-06
0.0011383
7.89707e-09
3.20476e-05
8.60513e-08
0.00126755
0.000223767
-1.61583e-07
9.67132e-08
5.69502e-06
3.31101e-09
1.52995e-08
3.53425e-08
1.21014e-08
-0.000200789
7.79357e-08
-4.57372e-07
-0.00241884
1.81516e-08
-0.000142242
2.19306e-06
-6.05721e-05
3.19534e-09
-1.51939e-08
-8.64744e-07
-2.08357e-07
1.3441e-07
1.5376e-09
1.03723e-07
-2.67738e-06
4.08872e-06
7.05343e-08
0.00101066
5.00027e-08
-1.807e-06
5.3783e-09
9.04997e-08
3.6316e-05
-7.08723e-08
0.00083526
-5.19759e-06
1.11045e-08
2.35801e-08
2.39313e-07
-9.46815e-07
1.00177e-07
-3.26764e-07
-0.000307841
6.26143e-07
-2.98102e-06
4.09397e-08
9.67585e-08
0.000825625
-2.59879e-07
0.00238273
3.20981e-08
-1.50188e-05
-6.83843e-07
-7.90717e-07
0.000124216
-6.31869e-07
-2.48214e-07
-1.67298e-07
9.26227e-09
5.56571e-05
4.73512e-08
-5.15937e-07
-0.000132283
3.83528e-10
-0.000314092
0.000154926
2.04559e-08
3.63424e-06
0.00218303
-3.72221e-05