/*--------------------------------*- C++ -*----------------------------------*\
| =========                 |                                                 |
| \\      /  F ield         | OpenFOAM: The Open Source CFD Toolbox           |
|  \\    /   O peration     | Version:  v2012                                 |
|   \\  /    A nd           | Website:  www.openfoam.com                      |
|    \\/     M anipulation  |                                                 |
\*---------------------------------------------------------------------------*/
FoamFile
{
    version     2.0;
    format      ascii;
    class       volVectorField;
    location    "100";
    object      ddt0(U);
}
// * * * * * * * * * * * * * * * * * * * * * * * * * * * * * * * * * * * * * //

dimensions      [0 1 -2 0 0 0 0];


internalField   nonuniform List<vector> 
13308
(
(-0.00976566 -0.00305964 1.02326e-20)
(-0.00984892 0.00471999 1.13842e-20)
(-0.00721295 -0.00183809 1.14505e-20)
(-0.00156719 0.00217245 -6.84096e-21)
(-0.00175378 -0.000751096 1.0746e-21)
(-0.00680201 -0.0169405 -1.39666e-20)
(-0.00247968 0.000601821 0)
(-0.0055932 -0.00285787 -1.25764e-20)
(-0.00214627 -0.000593584 9.54298e-21)
(-0.000938844 -0.000434379 5.61454e-21)
(-0.00517249 -0.000370951 -1.34364e-21)
(-0.0257496 -0.00408479 0)
(-0.00970382 -0.00132631 0)
(-0.00250298 -0.000728986 -3.53871e-21)
(-0.00258185 0.000534562 1.11519e-20)
(-0.00184501 -0.000293044 2.6773e-21)
(0.000174157 0.00511264 3.88083e-21)
(-0.000434514 0.00198849 0)
(-0.00775804 -0.00224885 -2.13947e-20)
(-0.00664325 0.00859524 -1.79845e-20)
(-0.00127673 -0.00143335 1.87126e-21)
(0.000316033 0.00129366 -3.56347e-22)
(0.000357467 0.00104257 2.3475e-21)
(-0.00986355 -0.00255335 0)
(-0.00719285 -0.00154205 -4.4498e-21)
(-0.00143292 0.00326863 1.42113e-20)
(-0.0231983 -0.0068162 -1.7732e-20)
(0.000222044 0.00116919 -2.82525e-21)
(-0.0167858 -0.00586619 9.00519e-21)
(0.000167461 0.000935447 6.17857e-21)
(-0.00247239 -0.00480381 0)
(-0.00899851 -0.000973788 1.21575e-20)
(-0.00876405 0.000239801 0)
(-0.0140052 -0.00264569 0)
(-0.0112883 -0.000874481 3.02122e-22)
(-0.00168349 0.00243078 0)
(0.000296869 0.00130551 0)
(-0.00182589 0.000556309 0)
(-0.0022538 0.00145158 7.13568e-21)
(-0.00347449 0.000234819 5.0998e-21)
(-0.00387761 0.000323025 7.72234e-23)
(-0.00293949 0.00326698 1.68304e-20)
(-0.00365046 -0.00108322 1.50582e-20)
(-0.00355824 0.000991452 1.33446e-20)
(-0.0137711 -0.00231035 -8.89956e-21)
(-0.0315164 -0.0062768 0)
(-0.00115025 0.00240639 0)
(-0.000333786 -0.00128258 -3.15316e-21)
(-0.00472383 0.000453658 6.2853e-20)
(1.3442e-06 -0.00017855 0)
(-0.00541395 -0.00507664 0)
(-0.00983858 0.00122904 0)
(9.76656e-05 0.000804892 0)
(-0.0152098 -0.00503739 -4.27703e-21)
(-0.00697002 0.00177422 2.02365e-20)
(-0.00327128 0.00346817 -1.92719e-20)
(-0.00534399 0.0044351 1.5455e-20)
(-0.000721743 -0.0012875 0)
(-0.000983657 -0.00041683 -3.17786e-21)
(-0.0109267 -0.0282482 0)
(-0.000168075 0.00342318 0)
(-0.000702005 -0.00155467 1.96278e-23)
(-0.00640175 0.00319594 4.35125e-20)
(-0.00336459 0.00235939 2.38394e-21)
(-0.000909039 0.00327661 -6.75373e-21)
(-0.00156372 0.00779585 0)
(-0.00926864 0.00685588 1.60352e-20)
(-0.0129975 -0.00511476 0)
(-0.0219755 -0.00516978 -1.66016e-22)
(-0.000420772 0.00176082 0)
(-4.08515e-05 -6.76697e-05 -5.80438e-21)
(-0.00572746 0.00275506 -1.77321e-20)
(0.000565512 0.00207441 0)
(-0.00425465 0.00878288 -1.26281e-20)
(-0.00288971 0.00292348 6.91799e-21)
(-0.000163127 -0.00128142 1.63157e-22)
(-0.0111175 -0.00124043 1.27838e-20)
(-0.00661565 -0.00264318 3.51914e-20)
(-0.00912611 0.000966264 -3.20923e-20)
(-0.00511536 0.00139673 7.77598e-21)
(0.000556572 0.00114557 3.33591e-21)
(-0.0058523 -0.015381 0)
(-0.000106388 0.00360319 5.19635e-21)
(-0.000542059 -0.00208283 6.41176e-21)
(-0.0130959 -0.00158257 1.71292e-20)
(1.69547e-05 -0.00477552 0)
(-0.000599315 -6.32604e-05 2.38849e-21)
(-0.00546429 -0.00205263 0)
(-0.00996531 -0.00238946 -2.03698e-20)
(-0.000946078 -0.00121049 0)
(-0.0010118 -0.000309027 0)
(-0.0119616 0.000758713 0)
(-0.00589827 0.000679404 -2.17568e-20)
(-0.0136126 -0.00303025 -9.12408e-20)
(-0.0036087 0.000552719 -2.71437e-20)
(-0.00541817 0.000555028 -2.28581e-20)
(0.000552626 0.00112646 0)
(-0.00788723 -0.00412055 -1.61571e-20)
(-0.00272131 -0.000963079 -1.52488e-19)
(-0.00887296 0.00079239 1.3229e-20)
(-0.0095142 -0.000962372 0)
(-0.00035898 -0.0015302 0)
(-0.000681902 0.0027723 -6.78679e-21)
(-0.00361722 0.00234613 2.05278e-20)
(0.000659732 0.00209942 -5.84902e-22)
(-0.000446703 -0.000578923 0)
(-0.0117911 -0.00216036 9.87746e-21)
(-0.0102745 -0.00418774 -1.20461e-19)
(-0.00757258 0.0049155 0)
(-0.00881406 -0.00236572 0)
(-0.00327898 0.00102173 0)
(-0.00976557 -0.000395923 0)
(-0.0010307 -0.000433052 0)
(-0.0113401 -0.00113777 2.14116e-20)
(-0.00856018 0.0009614 0)
(-0.00791005 0.0006893 6.05773e-21)
(0.00242757 0.00767514 6.06593e-21)
(-0.00636394 -0.00504766 0)
(-0.00414709 0.00225968 5.70287e-21)
(-0.00367872 -0.00288082 1.27879e-20)
(-0.00280369 -0.00232452 0)
(-0.000206652 -0.0017826 1.82352e-21)
(2.72303e-06 -0.00172829 -3.15997e-23)
(-0.000334398 -0.00101531 0)
(-0.00282665 0.00939697 0)
(-0.00254289 -0.00164092 -1.48357e-22)
(-0.0127754 -0.00399667 0)
(-9.00455e-05 -0.00223604 3.21194e-22)
(4.13772e-07 -0.000182596 -4.17547e-21)
(-0.00958119 -0.0152135 0)
(-0.00774141 -0.00349804 -2.29227e-21)
(-0.00831151 0.00581131 -7.3781e-21)
(-0.00148015 0.00220681 -4.63025e-21)
(-0.00725802 -0.00109156 1.08548e-20)
(-0.000104383 -0.00189875 4.61698e-21)
(-0.00495357 0.000964364 1.63032e-21)
(-0.00211392 0.00115027 -2.30925e-20)
(-0.00109003 0.00308896 5.96184e-21)
(-0.00869789 -0.00215614 1.9791e-20)
(-0.00300368 0.000644541 -1.43398e-20)
(-0.0100956 0.00107204 5.99069e-21)
(-0.0142512 -0.00382374 -3.51541e-20)
(-0.0141171 -0.00369834 -1.70117e-20)
(-0.00511618 -0.00025578 1.4305e-20)
(-0.0256755 -0.00420999 1.56188e-20)
(-0.0482493 -0.070234 7.52887e-21)
(-0.00408804 0.00153145 -1.11506e-19)
(-0.000462835 7.48778e-05 4.14522e-21)
(-0.000501547 -0.00197085 1.93381e-21)
(-0.0126696 -0.00321939 6.91974e-21)
(-0.0122447 -0.00122639 3.64593e-20)
(-0.00245256 0.000574352 -6.89541e-21)
(-0.00736357 0.00729298 1.51211e-20)
(-0.00179798 0.00106021 0)
(3.50024e-05 0.000795287 0)
(-0.00531724 0.00225442 -1.35776e-21)
(-0.000399984 -0.000671436 0)
(-0.00353706 0.000574546 0)
(-0.00577779 0.00398771 0)
(-0.0136856 -0.00204384 -1.61032e-20)
(-0.00269549 -0.00233643 1.26246e-20)
(-0.0113937 -0.00506182 4.97449e-21)
(-0.00417744 -0.000291977 0)
(-0.00246733 6.49232e-05 5.73201e-21)
(0.000129348 7.79561e-05 -4.19531e-21)
(-0.0382282 0.0215591 0)
(-0.00665592 0.00405216 3.46091e-20)
(-0.00773603 0.0017091 2.38185e-20)
(-0.00809686 -0.00167833 -4.92958e-21)
(-0.0135981 -0.00182621 1.37665e-20)
(-0.00957789 -0.00209958 -1.1056e-19)
(-0.00917663 0.00455625 9.48296e-21)
(-0.00995369 -0.0048225 0)
(-0.0101214 -0.00170113 -3.46088e-20)
(-0.0056024 0.00263026 1.32771e-20)
(-1.6198e-05 -4.401e-05 0)
(-0.00333341 0.00580013 -6.30574e-22)
(-0.00590732 -0.00388766 0)
(-0.00159186 0.00158362 6.77678e-21)
(-0.00166121 0.00231669 1.31593e-21)
(-0.00666632 -0.00833953 0)
(-0.00358208 0.00292876 5.73013e-21)
(-0.00120276 0.00330055 4.31158e-21)
(-0.0134987 -0.0034314 2.16796e-20)
(-0.0038526 -0.00194711 1.09219e-21)
(-0.0026161 0.00169237 0)
(-3.64112e-05 -0.00172695 -5.14197e-21)
(-0.00114633 0.00345407 0)
(0.000597109 0.000219464 2.72375e-22)
(-0.004721 -0.00296745 -4.34361e-20)
(-0.00606378 0.00225687 -1.78863e-21)
(-0.00440466 0.00259727 2.01164e-21)
(0.0549834 0.0540446 -1.95479e-19)
(-0.0118891 6.21914e-05 -1.28829e-20)
(-0.0121626 -0.00267951 1.66929e-20)
(-0.00880987 -0.000910598 2.68905e-20)
(-0.00742651 -0.00375138 -3.05524e-20)
(6.6905e-05 -0.00221159 -4.47018e-21)
(7.46004e-05 0.00411461 0)
(-0.00787265 -0.0043661 -2.2889e-22)
(-0.0117518 -0.00294007 0)
(-0.00505845 0.000636636 0)
(-0.00398802 -0.00197203 0)
(-0.00258857 0.00326838 -7.61609e-21)
(0.00101809 -0.00384038 0)
(-0.00762431 0.00108552 7.11641e-21)
(-0.00340592 -0.00161717 -6.48547e-21)
(-0.00400396 0.00167016 9.82405e-21)
(-0.000472213 -0.00194496 0)
(-0.0066642 0.00442798 1.24111e-20)
(-0.00767283 0.00452154 -1.76276e-20)
(-0.00999137 -0.00339471 1.94976e-23)
(-2.56977e-05 1.13767e-05 5.05548e-21)
(-0.0227807 -0.0584361 0)
(-0.00429703 0.000857759 0)
(-0.00804759 -0.0138063 -6.64423e-22)
(0.000708845 0.00222439 0)
(-0.137302 -0.137907 -9.33383e-20)
(-0.00023898 0.00186611 0)
(-0.000280891 0.00172024 7.90816e-21)
(-0.00253392 0.00023406 -1.07803e-20)
(-0.000232121 -0.000507986 0)
(-0.00207097 0.000116055 0)
(-0.00469842 -0.00292388 0)
(-0.00076799 0.000735135 4.39602e-21)
(-0.00908608 -0.00100401 2.23744e-20)
(-0.00542395 0.000533846 4.39411e-20)
(-1.62165e-05 -5.78854e-06 6.86505e-22)
(-0.0109927 -0.00190816 8.47062e-21)
(-0.000629478 0.00424039 3.91172e-20)
(-0.00544332 0.00288924 0)
(-0.000168464 -0.00099114 -6.30646e-21)
(-0.000459421 4.94231e-05 1.22906e-21)
(-0.00250541 0.00547623 -7.85825e-21)
(-0.00333284 0.00677725 0)
(-0.00306622 0.000391752 0)
(0.000704318 0.0019793 5.95448e-21)
(0.00061339 0.000418592 6.61219e-22)
(-0.00693515 0.00411519 -3.38951e-21)
(-0.00130158 -0.000392554 -6.86495e-21)
(-0.00330354 0.000764611 -4.74116e-21)
(-0.0108734 -0.00134388 0)
(-0.000219679 -0.0016986 -3.2762e-21)
(-0.00731689 -0.00426039 1.70782e-20)
(-0.00430646 -0.00240799 1.20668e-20)
(-0.00283474 0.00116727 1.54304e-21)
(-0.010447 -0.00239452 0)
(-0.00366787 0.00142752 1.51633e-20)
(2.35523e-05 -0.00170764 0)
(-0.00492332 0.000954437 0)
(-0.00716709 0.00431486 0)
(-0.000719491 0.000697175 -3.18811e-21)
(-0.00988806 -0.0369235 -5.03412e-21)
(-4.89504e-05 -6.43605e-05 -3.77177e-21)
(3.92509e-06 -6.42429e-05 0)
(0.00194535 0.0108691 4.07434e-20)
(5.50951e-05 0.00087126 2.86319e-21)
(-0.00125073 -0.000264534 6.44043e-21)
(-0.00194414 -8.45825e-05 3.66304e-21)
(-0.00612175 -0.00262019 0)
(-0.0070641 0.00360237 -3.90031e-21)
(0.000775405 0.00217625 -1.95612e-21)
(-0.00123893 0.00322303 -3.42275e-21)
(-0.00107862 0.00574917 -3.08885e-21)
(-0.0144278 -0.00656913 9.10855e-21)
(-0.00136926 0.00249396 0)
(-0.00797833 -0.00274837 0)
(-0.00615214 -0.00894067 -8.75058e-20)
(-0.0120947 -0.0013885 1.5783e-21)
(-0.00465869 -0.00258132 0)
(0.000218541 0.000501884 8.6192e-23)
(-0.00541079 -0.00029422 0)
(-0.000664869 -0.000391788 -1.62962e-21)
(-0.00460466 -0.000532074 1.10075e-20)
(-0.00514667 -0.00377921 0)
(-0.0122361 -0.0402274 3.49052e-21)
(0.000565374 0.000280543 0)
(-0.000618163 0.0035359 -2.18423e-20)
(-0.00830566 -0.00198081 2.00188e-20)
(-0.005056 0.00527134 0)
(0.000872538 -0.00263758 0)
(-0.00187795 -6.65476e-05 7.21925e-21)
(-0.00739547 -0.00136517 -1.5224e-20)
(-0.0120219 -0.000965665 2.79155e-20)
(-0.0132973 -0.00328957 0)
(-0.000191238 -0.000566455 0)
(4.01197e-05 -0.00136594 -2.30886e-21)
(-0.00479978 -0.0166466 3.20401e-20)
(-5.65732e-05 0.00302772 0)
(-0.00668726 0.00490305 -7.34235e-21)
(-0.00602953 -0.00226479 2.43016e-20)
(-0.0123357 -0.00187046 1.7961e-20)
(-0.00901837 0.000364118 3.37561e-20)
(-0.0115359 0.000181542 -3.16222e-20)
(-0.000208243 0.0177995 0)
(0.000324725 0.000978415 0)
(-0.00394041 0.00143597 -2.22142e-20)
(-0.000306342 -0.00230456 6.5356e-21)
(-0.0140468 -0.00318357 0)
(-0.00175883 -0.000753713 6.34343e-21)
(-0.0133328 -0.00388906 1.63803e-20)
(-0.00563251 -0.00231587 0)
(-0.00763815 0.00153374 -1.34669e-20)
(-0.000500469 9.94601e-05 4.60347e-21)
(-0.0043618 -0.00189287 -5.52578e-21)
(-0.000656856 -0.00164119 0)
(-0.0108033 0.00437215 -2.02602e-20)
(-0.00994653 -0.0172277 7.17862e-21)
(-2.19975e-06 -0.00122503 0)
(-0.000605059 0.000670477 4.79029e-22)
(-0.00876614 0.00159839 0)
(-0.00860829 -0.000445163 1.97602e-20)
(-0.0062296 -0.00439723 6.07018e-21)
(-0.00242825 -9.52596e-05 1.99812e-20)
(-0.00416753 0.0120852 2.32685e-20)
(-0.0139433 -0.00305952 1.92357e-20)
(-0.00538148 -0.000515926 0)
(-0.00739289 0.00754182 3.67579e-21)
(-0.00536304 0.0103261 -1.89318e-20)
(-0.00655505 0.000672832 -5.46213e-21)
(-0.00090375 -0.00484432 -2.56045e-21)
(-0.00329691 0.00517301 1.64348e-21)
(-0.00649569 0.00220846 0)
(-8.19798e-05 0.00295533 0)
(-0.0113232 0.00604032 0)
(-0.00598884 -0.00694276 -1.07352e-20)
(-0.00267236 0.00395159 2.1267e-20)
(-0.000769464 -0.00181694 3.42127e-21)
(-0.0109901 0.00795172 -5.4643e-21)
(-0.00148848 -0.00314328 -5.5933e-21)
(-0.00939234 0.00184941 -1.70699e-20)
(-0.00806616 -0.0102274 -8.04959e-22)
(-0.00215059 0.00837168 -5.09078e-19)
(-0.00105433 -0.000969371 1.45682e-21)
(-0.00462783 -3.45122e-05 1.00954e-21)
(-0.00977745 -0.00439562 0)
(-0.00479329 -0.00110404 0)
(-0.0039125 -7.50688e-07 -9.53786e-21)
(-0.00105255 0.00304324 4.80101e-21)
(-0.00722835 0.00562304 0)
(-0.0112071 8.27752e-05 0)
(-8.44152e-05 -0.000964933 5.21418e-21)
(-0.00257627 0.00271346 0)
(-0.00148815 -0.00333764 -2.59918e-21)
(-0.00897771 0.00415475 0)
(-0.000149313 -0.0011325 3.26853e-21)
(-0.00357961 0.000796483 -4.86168e-21)
(-0.00277916 0.000893315 0)
(-0.00204979 0.00028629 7.77531e-21)
(0.00589588 -0.0178553 -3.58435e-20)
(-0.00433306 0.00474656 -2.0241e-20)
(-0.00344539 0.000403622 0)
(-0.00498815 -0.00694728 -1.68337e-22)
(-0.00409624 0.00297077 0)
(-0.00893454 0.00626657 4.03503e-20)
(-0.00244649 0.00188718 -6.52234e-21)
(-0.00360334 0.00373959 0)
(-0.00325016 -0.00108106 5.62738e-21)
(-0.00825013 0.000104856 -1.78e-20)
(6.32641e-05 -0.00218664 2.93948e-21)
(-0.00106881 0.0227744 3.11457e-20)
(-0.00807503 0.00424577 0)
(-0.0269334 -0.00542489 -1.60502e-20)
(-0.0025693 -0.00175772 1.22327e-20)
(-0.0090061 -0.000773201 -1.15534e-20)
(-0.00340581 0.00308794 1.98957e-20)
(-0.000269013 -0.011687 8.21047e-21)
(-0.00720099 0.000523948 0)
(-9.84564e-05 -0.000232318 -4.41928e-21)
(-0.00583097 0.000521857 -9.96923e-21)
(-0.00931902 0.00198188 -1.66368e-20)
(-0.012498 -0.00389106 -2.26099e-21)
(-0.00977905 -0.000326415 1.635e-20)
(-0.117813 -0.235826 8.49422e-20)
(-0.00528904 0.00130679 0)
(-0.00270048 -0.000658552 8.60712e-21)
(-0.0220759 0.0580928 0)
(-0.00321811 0.0020677 9.58862e-23)
(-0.0276246 -0.039419 2.862e-20)
(-0.00390989 0.000825205 0)
(9.80923e-05 -0.0025342 -2.96991e-21)
(-0.0027809 0.00462879 -4.40204e-20)
(-0.000161249 -0.00213712 -3.3656e-22)
(-0.0281744 -0.0395094 -9.409e-20)
(-0.0176099 -0.0322543 1.35115e-20)
(-0.00126237 -0.00108316 -1.86487e-21)
(-0.00404206 0.00487578 1.27291e-20)
(-0.00516249 -3.11003e-05 1.3176e-20)
(-0.00118871 0.00295042 3.80648e-21)
(-0.0125991 0.000539509 -7.13406e-21)
(-0.0134369 -0.00297444 -2.60415e-20)
(-0.00512504 0.00115515 3.43407e-20)
(-0.00440499 -0.000275691 0)
(-0.0331892 -0.00667036 1.75475e-20)
(-0.00582583 0.00229028 4.21446e-21)
(-0.0133885 0.00930716 2.78833e-20)
(-0.000705116 -0.00171675 -2.72594e-21)
(-0.000946202 0.00025095 1.12579e-20)
(0.00514397 0.0191137 -1.054e-19)
(-0.0109726 0.00242292 7.89238e-21)
(-0.0112876 -0.00549842 -1.44751e-20)
(2.89327e-05 0.016325 6.34004e-20)
(-0.000764788 -0.0025658 6.54636e-21)
(-0.004712 0.000674174 0)
(-0.00556376 0.00173194 -3.57455e-20)
(0.000173354 0.00106599 -2.93236e-21)
(-0.000583013 -0.00285322 1.01718e-21)
(-0.000463657 -0.00067284 0)
(-0.00298328 -0.00624899 0)
(-0.00901362 0.00338839 3.57562e-20)
(0.00484465 -0.100105 0)
(-0.0149627 -0.00824224 0)
(-0.00527821 -0.00149899 4.89912e-21)
(-0.00213032 0.000742411 0)
(-0.012211 0.000870909 2.14918e-22)
(-0.00569023 0.004527 2.69236e-20)
(-0.0115037 0.0025904 -1.23355e-20)
(-0.000520363 -0.00175198 -3.11315e-21)
(-0.000604188 -8.97158e-05 0)
(-0.00435265 0.00190892 -2.23208e-20)
(-0.00655819 0.00667341 0)
(-0.000205715 -0.00154518 3.06312e-21)
(-0.0112148 0.00273006 -3.00411e-20)
(-0.00601438 0.00199894 -7.51034e-21)
(-0.00551541 0.000446944 1.06945e-20)
(-0.0102938 0.00242884 0)
(-0.000751704 -0.00202921 5.80328e-21)
(-0.0111967 -0.00100583 0)
(-0.00608024 -0.00195481 1.28023e-20)
(-0.00876733 0.00100784 1.27718e-20)
(-0.00229056 -0.000305785 -1.18046e-20)
(-0.0128463 -0.000970299 0)
(-0.0144564 0.000816099 7.9904e-21)
(-0.00855568 -0.00404478 0)
(-0.00123145 0.000493143 7.07392e-23)
(-0.0112298 -0.000541842 0)
(-0.000400919 0.00321778 0)
(-0.0030148 0.0017566 -5.94184e-21)
(-0.00564304 0.00488247 0)
(-0.00459172 -0.00260814 9.52859e-21)
(-0.000684666 5.98164e-05 0)
(-0.00105244 -0.00100756 -8.56649e-22)
(-0.000666555 -0.00206921 0)
(-0.00324046 0.00705173 -9.05349e-21)
(-0.000975331 0.00306649 1.56314e-20)
(-0.0135804 -0.00250832 1.12828e-20)
(-0.00555223 0.001304 6.18479e-20)
(-0.000440119 -0.000711781 0)
(-0.00341523 -0.00303565 4.88186e-21)
(-0.00727755 -0.013026 3.15521e-20)
(-0.0106649 0.000196497 2.25889e-20)
(-0.00238667 0.000369909 -1.05045e-20)
(-0.00296796 -0.000273205 3.222e-20)
(-0.00506467 0.00125489 -1.85843e-20)
(-0.000815722 0.0118075 -3.3285e-20)
(-0.0263799 -0.0055099 5.00302e-20)
(-0.0019985 0.0011022 -4.31177e-21)
(-0.00294581 0.0025584 1.85267e-20)
(-0.00733063 -0.0035367 0)
(-0.0078673 0.000483629 -9.74533e-21)
(-0.00376873 0.00360182 0)
(-0.00903666 0.00452123 -1.96147e-20)
(-0.0068812 0.0089202 -2.82005e-21)
(-3.74679e-05 1.28939e-06 4.74526e-21)
(-0.00390619 0.00340276 1.6876e-20)
(-0.00702686 0.00308036 0)
(-0.00141969 0.00208177 0)
(-0.0144814 -0.000831436 -1.48495e-20)
(-0.00498623 0.00659906 1.94558e-20)
(-0.00315477 0.000974741 -2.63422e-21)
(-0.00876222 -0.00797394 1.21331e-19)
(-0.00390355 0.00113341 1.30791e-20)
(-0.0136238 -0.000813033 2.81235e-20)
(-0.00861956 -0.00641969 -3.10372e-19)
(-0.000501363 -0.000172533 4.77836e-21)
(-2.49326e-05 -0.000641576 2.2073e-21)
(-0.00363649 0.00248753 0)
(-2.28957e-05 -0.000518117 0)
(-0.00733723 0.000252947 1.58881e-20)
(-3.62774e-06 -1.12917e-05 3.81307e-21)
(-0.00500388 -0.00544352 0)
(-0.000461751 -0.000746983 0)
(-0.00598543 0.000442585 0)
(0.0146001 -0.0238745 -3.42852e-21)
(-0.0010059 0.00140352 -4.50247e-21)
(-0.00958778 -0.00379176 1.10123e-20)
(-0.00285669 0.00233374 7.4032e-21)
(-0.0100677 -0.00461271 1.05695e-20)
(0.000265894 0.000601357 -4.37925e-21)
(-0.00448717 0.000368832 -3.8544e-20)
(-0.0106799 0.00353802 5.07394e-21)
(-0.0155588 -0.00364709 1.43811e-20)
(-0.00138344 0.00180279 5.91397e-21)
(-0.0126718 -0.00391545 0)
(-0.0056979 0.00212881 2.06328e-20)
(-0.00204368 0.00526089 0)
(-0.0125336 -0.00362539 -9.82535e-21)
(-0.000617742 -0.000845293 -1.72995e-21)
(0.00108466 0.00094803 -4.10686e-21)
(-0.00249909 -0.000120724 0)
(-0.002948 -0.0010001 1.9668e-20)
(-0.0267974 -0.00536973 1.70994e-20)
(-0.00630695 -0.00381764 1.19771e-20)
(-0.00984974 -0.00417058 1.26426e-20)
(-0.0064086 -0.000857529 -8.993e-21)
(-0.0123036 0.00148703 0)
(-0.000598301 -0.00183624 -2.84617e-21)
(-0.00789554 -0.00155424 2.23585e-20)
(-0.00993026 0.00538094 -1.82546e-20)
(-0.0117004 -0.00588546 6.50409e-21)
(-0.00289593 0.00152484 0)
(-0.0163193 -0.00420181 -3.10778e-20)
(-0.0146871 -0.00350377 -2.6062e-20)
(-0.0122255 0.00249847 9.38097e-21)
(-0.00398778 0.00241074 -5.06609e-21)
(-0.00513814 0.0436062 -3.88267e-20)
(-0.00267812 0.000294465 6.60485e-24)
(1.01184e-05 -0.00158327 2.39661e-21)
(-0.0067192 -0.00518817 1.58144e-20)
(-0.0033832 0.00119702 -2.397e-20)
(-0.0155971 -0.0122824 1.28356e-20)
(-0.0131248 -0.00276002 0)
(-0.00286382 0.00289139 -6.4868e-21)
(0.00460516 -0.0618581 0)
(0.0140201 0.0647128 -1.9803e-20)
(-0.00434448 0.000712505 0)
(-0.0115998 0.000958952 3.41715e-20)
(-0.0100994 -0.0148514 0)
(-0.00348228 -0.00334475 1.3862e-20)
(-0.00811255 -0.000207253 0)
(-0.000534007 -0.00112004 0)
(-5.77508e-05 -0.000937088 -2.61168e-21)
(-0.0129864 -0.00302168 -1.53456e-20)
(-0.00866196 0.00118276 0)
(-0.00519829 7.9434e-06 1.38015e-21)
(-0.00457375 0.00194313 2.51208e-21)
(-0.00515323 2.72995e-05 6.20339e-21)
(-0.00489648 0.00171721 1.74285e-20)
(-0.015499 -0.00062508 0)
(-5.30415e-05 -0.000836274 -4.43984e-21)
(-0.00615615 -0.00305505 -2.92982e-20)
(-0.0131717 -0.00309674 2.12328e-21)
(-0.034698 -0.00746884 9.81044e-21)
(-0.00497769 0.00187735 4.93002e-21)
(-0.000616923 -0.00103746 7.36036e-21)
(-0.00560585 0.00117141 -2.05337e-20)
(-2.11505e-05 -0.000507261 2.26961e-21)
(-0.0322775 -0.00686279 -9.18107e-21)
(-0.00987475 -0.00148099 -2.42749e-20)
(-0.0102929 0.000270883 -2.75389e-20)
(-0.000682198 -0.000323257 -2.83964e-21)
(-0.000194555 -0.00116629 0)
(-0.01848 0.064962 0)
(-0.000814954 -0.00151494 -6.58171e-21)
(-0.0106352 -0.00801626 -6.22928e-22)
(0.00056965 0.000263401 0)
(-0.0109035 -0.00198045 3.54704e-20)
(-0.00109315 0.00277705 3.72393e-21)
(-0.00823046 -0.00269589 1.19043e-20)
(0.000599704 0.00107363 -2.58597e-21)
(-0.0013129 -0.000376935 6.71834e-21)
(-0.0002421 -6.53489e-05 2.29427e-21)
(-0.00668889 0.00937443 0)
(-0.00329953 -0.00258478 0)
(-0.000170465 -0.00149043 0)
(-0.00531816 0.00085667 -2.90387e-21)
(-0.00566219 0.000110008 1.37202e-20)
(-0.00863627 -0.00546833 1.04138e-20)
(-1.17983e-05 -3.97582e-05 0)
(-0.000477455 -0.000634773 0)
(-0.00963396 0.000160223 1.55332e-20)
(-0.000629378 -0.000103953 -3.56733e-23)
(-0.00150849 -0.00115111 1.22274e-20)
(-0.0107406 -0.00179223 1.85819e-20)
(-0.000830293 -0.000593653 5.70926e-21)
(-0.0261548 -0.00596876 -3.22774e-20)
(-0.00412745 6.95295e-05 -5.53513e-22)
(-1.56963e-05 -0.000164166 3.15605e-21)
(0.0017046 -0.00516868 0)
(-0.00406118 0.00166399 1.0964e-20)
(-0.0046881 0.000496716 0)
(-0.003907 0.00157621 0)
(-0.00492226 -0.000650985 0)
(-0.00254335 0.00228681 -1.16006e-20)
(-0.0044671 0.00685347 0)
(-0.000648981 -0.0014343 -2.14091e-21)
(-0.0107208 0.00515834 2.33978e-20)
(2.89786e-05 -0.00186253 -2.65e-21)
(-0.00556763 -0.00170948 0)
(-0.00973147 -0.0102522 -1.621e-20)
(-0.00359585 0.000897412 -5.30211e-21)
(0.000278556 -3.49562e-05 6.89666e-21)
(-0.00312339 -0.00146631 -8.59975e-21)
(-0.00918098 -0.000866738 0)
(-0.00389345 0.000500718 0)
(-0.0075062 -0.00393703 -3.8523e-20)
(-0.00424382 0.00295875 0)
(-0.00917829 -0.00410159 0)
(-0.00636558 0.00492737 -2.07355e-20)
(-0.0113272 -0.00344673 1.54177e-20)
(-0.0110525 -0.00170844 0)
(-0.000479665 -0.000538186 -2.68372e-21)
(-0.000692593 -0.000840951 -8.1919e-21)
(-0.00128821 0.00216923 1.60384e-21)
(-0.00223443 -0.000807716 3.95066e-21)
(-0.00438188 0.00177019 -5.28143e-21)
(-0.00780446 -0.00453845 -1.40736e-20)
(-0.0106503 0.0159656 6.86328e-20)
(-0.0119081 -0.00224836 9.31897e-21)
(-0.00397399 0.00370839 -3.17244e-20)
(-0.000616774 -0.000556804 5.07198e-21)
(0.00065781 0.000963503 2.44721e-21)
(-0.0152587 -0.0330571 0)
(-0.0120067 -0.0024724 3.12842e-20)
(-0.00373899 0.000649486 1.08015e-20)
(-0.0116953 0.000398217 -1.41135e-20)
(-0.00261756 0.0023189 -4.56153e-22)
(-0.000681115 0.000834544 5.20544e-21)
(-0.00634728 0.00918887 1.01217e-20)
(-0.00817287 -0.01234 0)
(-0.0149186 0.0329851 3.54149e-20)
(-0.0103834 0.00363479 -3.35335e-21)
(-0.00644717 0.00209362 -1.24019e-20)
(-0.00987909 -0.00205292 3.32705e-20)
(-0.00252137 -0.00707932 4.40977e-21)
(-0.000468716 -0.000779236 -3.01282e-21)
(-0.0131006 -0.0035752 -1.0459e-21)
(-0.00703878 0.00113511 0)
(-0.00935478 0.00238727 0)
(-0.00625012 4.69178e-05 9.41169e-21)
(-0.0126773 -0.00303643 -1.48503e-20)
(-0.00306569 0.00187028 -8.98672e-21)
(-0.000632619 -0.000140677 1.90943e-23)
(-0.000604451 0.000622062 7.13445e-24)
(-0.00448864 0.00167377 -1.59603e-20)
(-0.000701471 -0.00201496 1.24621e-21)
(-0.000871993 -0.00177351 -4.30561e-21)
(-0.00267992 0.000935086 0)
(-0.0027099 0.00319032 9.61412e-21)
(-0.00261562 0.00218878 1.5714e-21)
(-0.0375584 -0.00620276 -2.26782e-20)
(-0.00535092 -0.00393951 6.98666e-21)
(0.00727762 -0.0506146 0)
(-0.000546673 0.000117273 1.03265e-21)
(-0.00173328 -0.000894748 -7.29943e-21)
(-0.00175699 -0.00151685 0)
(-0.00118125 -0.00190276 4.89913e-21)
(-0.000612603 -0.00102658 -9.44785e-21)
(-0.000557886 -0.000407075 6.59312e-22)
(-0.00658831 0.00335946 -8.29216e-21)
(-0.00648466 0.000991943 -7.45076e-22)
(-0.000662622 0.00169875 -6.84548e-21)
(-0.0089397 -0.00173346 -2.54695e-20)
(0.000554411 0.000123248 -7.62339e-22)
(-0.008714 -0.00503852 -4.38518e-21)
(0.000732233 0.00684578 1.55224e-20)
(-0.00229909 0.00513648 6.88152e-21)
(-0.000181308 0.00431279 1.05302e-20)
(-0.000674837 0.000247117 -8.60335e-22)
(-0.00531948 -0.00182356 -1.05535e-20)
(-0.00102991 -0.00201526 5.84613e-21)
(-0.00336825 0.00322463 0)
(-0.00336242 0.0013194 0)
(-0.0170337 -0.00506133 2.83678e-20)
(-0.0110681 -0.00391541 5.09531e-21)
(-0.000269668 -0.000712764 -1.17558e-21)
(-0.00617201 -0.000163796 0)
(2.11434e-05 -0.00191068 8.30979e-22)
(-5.75545e-05 -0.00167783 3.86664e-21)
(-0.00185688 0.00164811 0)
(-0.0112081 -0.00176495 -1.45017e-20)
(-0.00371046 -0.00244203 1.43795e-20)
(-0.00740706 0.0013612 -2.4854e-20)
(-0.00118834 -0.010032 -1.62739e-20)
(-0.001655 -0.000354442 7.087e-21)
(-0.010106 0.00452982 0)
(-0.00468328 -0.00308633 0)
(-0.000614546 -1.49987e-05 0)
(-0.00530414 0.00729497 -2.48929e-20)
(-0.0171336 -0.000397304 1.5568e-20)
(-0.0111821 -0.00197824 1.77523e-20)
(-0.00711557 -0.00511777 -8.62638e-21)
(-0.00996858 0.0016227 8.31902e-21)
(-0.000102755 -9.23528e-05 4.53961e-25)
(-0.00467148 0.00766986 0)
(-0.010861 -0.00505165 0)
(-0.000101131 -0.000674426 2.87627e-21)
(-0.00328824 0.00363498 -1.0834e-20)
(-0.00535369 0.0147936 -3.15018e-21)
(-0.00161233 0.000276041 0)
(-0.000697325 0.00639793 1.2872e-20)
(-0.00443755 0.00211761 0)
(-0.00994289 -0.00516329 0)
(-1.16356e-05 -8.75261e-05 -2.79144e-21)
(-0.00391526 0.000981481 3.81517e-20)
(-0.0050832 0.000168251 9.63404e-21)
(-0.00860553 -0.000144933 -2.35123e-21)
(0.000558957 0.000212798 7.88348e-22)
(-0.000586046 -0.00139705 -4.122e-21)
(-0.00373455 -0.00296149 -3.24746e-20)
(-0.000951156 0.000588472 6.02401e-21)
(-0.00573712 0.00131574 -1.62671e-20)
(-0.0112753 3.0368e-05 1.31631e-20)
(-0.0103798 0.0030921 1.00233e-20)
(-0.00066773 0.000726457 -3.92379e-21)
(-0.0205532 -0.00562029 0)
(-0.00593666 -0.00603725 5.23492e-21)
(-0.00941944 0.000155017 2.35869e-20)
(-0.000931223 0.000690276 1.06923e-22)
(-0.00822376 -0.00398602 -1.96572e-20)
(-0.00578985 0.00177127 1.01269e-20)
(-0.0127989 -0.00259425 -5.22999e-21)
(-0.00214087 -0.000117308 1.26579e-20)
(-0.000615869 -0.000121379 0)
(-0.000664103 0.0006711 0)
(-0.00347068 0.000376211 2.61463e-20)
(-0.00042543 -0.000687694 0)
(0.00501394 0.0126629 -3.147e-21)
(-0.00315008 0.00224069 0)
(-0.00646882 -0.00275699 6.32806e-20)
(-7.57801e-05 -0.00116139 6.16343e-21)
(-0.00553619 0.00103432 4.60051e-21)
(-0.0132503 -0.00228287 0)
(-0.00177413 0.00069246 9.49928e-21)
(-0.000637966 0.000831565 0)
(-0.00656483 -0.00199994 -7.35796e-21)
(-0.0121591 -0.00105787 -3.37306e-20)
(-0.00701325 -0.0144587 -1.45993e-20)
(-0.00251289 -0.00173585 -1.59562e-20)
(-0.000627885 4.68983e-05 5.21386e-21)
(-0.000178854 -0.000994064 -4.90107e-21)
(-0.0180373 -0.000136231 -1.70466e-20)
(-2.28047e-05 -2.28402e-05 -3.38996e-21)
(-2.43743e-05 -0.000455852 1.26156e-21)
(-7.03111e-05 -0.00202923 9.5131e-23)
(-0.0137428 -0.0131548 -1.69345e-20)
(-0.00369261 -0.00301218 0)
(-0.0112111 -0.00134898 1.32388e-20)
(-0.0011461 0.000400051 3.24806e-22)
(-0.0105984 0.00189106 -1.74395e-20)
(-0.00431564 -0.000688503 1.70823e-20)
(-0.000632288 0.000258885 -1.31377e-23)
(-0.0031265 0.00474664 5.29939e-20)
(-0.00870153 0.00232912 2.21305e-22)
(-0.000103909 -0.00117983 -2.41038e-21)
(-0.000612103 6.95348e-06 0)
(-0.00356185 0.000363959 6.02531e-21)
(-0.0055938 -9.87255e-06 -1.52688e-20)
(0.0046646 0.0202062 0)
(-0.0041094 0.000917617 -5.59395e-21)
(-0.00624993 -0.00051969 -9.15042e-20)
(5.15923e-05 -0.00264885 -4.09291e-21)
(-0.0130322 -0.00220299 0)
(-0.00109097 -0.00155975 7.23946e-21)
(-0.00847026 -0.000705261 1.56543e-20)
(-0.00486817 0.00600134 -1.54636e-20)
(-9.2289e-06 -0.000495878 -1.23832e-21)
(-0.00880875 -0.00417761 2.13044e-20)
(-0.00550472 0.00269864 -6.45636e-21)
(-0.000145741 -0.000861428 5.55959e-21)
(-0.00436337 0.00111851 -8.34289e-21)
(0.00401292 0.00376672 7.84928e-21)
(-0.00155019 0.000392951 -5.4551e-21)
(-0.00157294 0.000437804 4.78639e-21)
(-0.00163068 -0.000254105 -7.59397e-21)
(-6.66299e-05 -0.00164698 -1.38577e-21)
(-0.00398234 -0.00213972 9.06868e-21)
(-0.00159286 -9.48596e-05 -6.49328e-21)
(-0.00610492 0.00732941 3.93977e-21)
(-0.00878486 0.0079235 0)
(-0.00402943 -0.00738131 2.42782e-20)
(-7.27809e-05 -0.000798462 4.73433e-21)
(-0.00687995 -0.000368392 -1.30679e-20)
(-0.00144522 -0.0109255 9.01971e-21)
(-0.0121945 0.000482341 0)
(-0.0067961 0.00038258 0)
(-0.0123011 0.00184468 0)
(-0.013337 -0.00270354 0)
(1.81486e-06 -5.71825e-06 -3.84551e-21)
(-0.0143723 -0.00439298 0)
(-0.00402361 0.001178 -1.18379e-22)
(-0.000976629 0.00161192 0)
(-0.00119909 -0.001151 3.43319e-21)
(-0.00456152 0.00681885 6.66201e-21)
(-0.000630689 -9.37388e-05 -2.76039e-21)
(-0.00293378 0.0020251 -2.10619e-20)
(-0.0128496 -0.00300612 2.39757e-20)
(-0.0227983 -0.00671911 0)
(-0.0141277 -0.00210994 2.6509e-20)
(-0.00856872 0.0076127 7.73172e-21)
(-0.000657266 -0.00105378 -3.42743e-21)
(-0.00126753 -0.00138324 4.72306e-21)
(-0.00137341 -0.00134123 6.18242e-21)
(-0.000202515 0.00142125 -3.09093e-22)
(-0.0231582 0.0269783 0)
(-0.000541229 6.86437e-05 2.74105e-21)
(-0.00574259 -0.00221264 2.85414e-20)
(-0.00811646 0.00379129 0)
(-0.0247619 -0.00464518 1.90179e-20)
(-2.46452e-05 -3.94235e-05 4.15651e-21)
(-0.000616841 -0.000965611 3.38215e-21)
(-4.68873e-05 -0.00101571 0)
(-0.000736146 0.000619359 3.35763e-21)
(1.92661e-05 -0.0021305 4.10039e-21)
(-7.45452e-05 -0.00177355 -5.13157e-21)
(0.0242785 -0.0439156 -1.23857e-19)
(-0.000558166 -0.000148602 0)
(-0.00295743 0.00254972 1.04603e-20)
(-0.000737358 -0.000367224 0)
(-0.0040683 -0.00495084 -1.15501e-20)
(-0.0043326 0.000508342 0)
(-0.0101608 -0.00190088 -8.02151e-21)
(-0.00344734 0.00278254 2.87747e-21)
(0.0399474 0.169186 -3.82793e-21)
(-0.00160523 0.0111874 -2.88251e-21)
(-0.00214864 -0.00214342 0)
(-0.00420994 -0.000956107 -1.05206e-20)
(-0.00406555 0.000106704 0)
(-0.000735838 -0.000390443 1.02017e-23)
(-0.00575392 0.00259253 -2.41156e-20)
(-0.00251132 0.000330038 -3.90006e-23)
(0.0020624 0.00714391 -2.71405e-20)
(-0.00247342 0.000130555 4.95652e-22)
(-0.0112628 -0.00266154 0)
(-0.0075357 0.00161653 5.34684e-20)
(-0.00182892 -0.000328146 -8.37256e-21)
(-0.00172712 2.63627e-05 0)
(-9.28361e-05 -0.00277008 0)
(0.00010723 7.71541e-05 -2.90439e-21)
(-0.0106466 0.00133202 6.09813e-21)
(-4.04732e-05 -0.0017474 1.55533e-21)
(-0.0152705 -0.0175563 0)