/*--------------------------------*- C++ -*----------------------------------*\
| =========                 |                                                 |
| \\      /  F ield         | OpenFOAM: The Open Source CFD Toolbox           |
|  \\    /   O peration     | Version:  v2012                                 |
|   \\  /    A nd           | Website:  www.openfoam.com                      |
|    \\/     M anipulation  |                                                 |
\*---------------------------------------------------------------------------*/
FoamFile
{
    version     2.0;
    format      ascii;
    class       volVectorField;
    location    "100";
    object      U;
}
// * * * * * * * * * * * * * * * * * * * * * * * * * * * * * * * * * * * * * //

dimensions      [0 1 -1 0 0 0 0];


internalField   nonuniform List<vector> 
13308
(
(1.0788 0.145044 3.36005e-21)
(1.09885 0.0998986 2.18733e-21)
(1.04175 0.161267 9.04342e-21)
(1.02979 0.0424799 -1.56313e-20)
(0.986883 0.0345633 4.36364e-21)
(1.0792 0.0796453 -8.0124e-21)
(0.97843 0.0572895 0)
(1.01155 0.148642 -1.80956e-20)
(1.006 0.0528896 -6.18999e-21)
(1.00474 0.0161074 9.72919e-21)
(1.03185 0.12794 -1.81413e-21)
(0.693819 0.112285 0)
(1.07311 0.165039 0)
(0.981011 0.0578152 -9.99801e-21)
(0.999522 0.0542328 2.98234e-20)
(0.987792 0.0346092 1.03534e-20)
(1.05665 0.0267197 6.58544e-21)
(1.03307 0.0227939 0)
(1.07856 0.140226 -7.43551e-21)
(1.10155 0.0787718 -3.4727e-21)
(0.990581 0.0206368 9.51456e-21)
(1.03224 0.0108104 -1.48628e-21)
(1.03222 0.0104247 1.01847e-20)
(1.08214 0.175764 0)
(1.0414 0.160696 -3.52568e-21)
(1.04676 0.0343638 2.82118e-20)
(0.751605 0.127399 -2.10346e-20)
(1.03148 0.0116974 -1.1894e-20)
(0.674049 0.116911 1.05444e-20)
(1.02917 0.00992718 2.70397e-20)
(0.990879 0.144728 0)
(1.0245 0.166941 1.11181e-20)
(1.07506 0.169125 0)
(0.878354 0.149931 0)
(1.07919 0.14216 -2.26259e-22)
(1.02916 0.0427374 0)
(1.03305 0.0100126 0)
(1.01778 0.0383615 0)
(1.02632 0.0438239 1.70251e-20)
(1.02212 0.0729089 9.82727e-21)
(0.99939 0.089885 3.02685e-22)
(1.04531 0.0616781 2.33576e-20)
(1.01102 0.150621 2.179e-20)
(1.00714 0.0937996 3.62302e-20)
(1.01518 0.166586 -7.73795e-21)
(0.506231 0.0836225 0)
(1.03577 0.0364841 0)
(0.995447 0.00143227 -1.91861e-20)
(1.04515 0.0879998 -2.15561e-20)
(0.999876 -0.000970164 0)
(0.981939 0.144253 0)
(1.10768 0.0953897 0)
(1.02869 0.0091803 0)
(0.619772 0.105987 -4.99876e-21)
(1.07601 0.0827355 1.03549e-20)
(1.04526 0.0595829 -2.54974e-20)
(1.06831 0.0680579 1.11708e-20)
(0.995748 0.0107743 0)
(1.00437 0.0168174 -1.35281e-20)
(0.943811 0.128219 0)
(1.05677 0.0276722 0)
(0.99558 0.0103512 4.14494e-23)
(1.05436 0.0880175 2.43757e-20)
(1.02019 0.0725484 4.75351e-21)
(1.04699 0.0332824 -1.49303e-20)
(1.07121 0.0347223 0)
(1.098 0.0970323 2.9611e-21)
(0.831854 0.142734 0)
(0.769199 0.128661 -1.29879e-22)
(1.03232 0.0225079 0)
(1.00021 0.000235625 -3.22529e-20)
(1.0555 0.0866877 -9.32944e-21)
(1.04146 0.0145754 0)
(1.08617 0.0502502 -5.86115e-21)
(1.04647 0.0538579 9.96229e-21)
(0.996933 -0.00100645 1.05032e-21)
(0.852251 0.146219 8.34947e-21)
(1.0475 0.139834 3.00576e-20)
(1.07267 0.169372 -1.02127e-20)
(1.05857 0.0859278 4.80205e-21)
(1.03376 0.00827637 1.48914e-20)
(0.97671 0.12191 0)
(1.05086 0.024698 9.75697e-21)
(0.99044 0.00848313 3.13384e-20)
(1.01492 0.166476 1.49993e-20)
(0.943779 -0.00593696 0)
(1.00684 0.00514746 1.17516e-20)
(0.951034 0.120087 0)
(0.949353 0.123661 2.72725e-20)
(0.991494 0.0198138 0)
(1.00366 0.0161291 0)
(0.947295 0.161709 0)
(1.04194 0.141015 -1.9055e-20)
(0.968069 0.153568 -2.73364e-20)
(0.955178 0.0873461 -5.19942e-20)
(1.04327 0.137236 -2.20008e-20)
(1.03369 0.00776177 0)
(1.05184 0.157445 -1.05935e-20)
(1.00557 0.0948447 -5.37754e-20)
(1.08027 0.125028 5.23465e-21)
(1.08814 0.126247 0)
(0.994982 0.0013538 0)
(1.03886 0.0344449 -1.49846e-20)
(1.01429 0.0600095 4.70704e-20)
(1.0411 0.0136888 -1.7187e-21)
(1.00169 0.00602318 0)
(1.10463 0.163432 -7.13913e-22)
(0.93961 0.129097 2.68277e-20)
(1.09817 0.0809407 0)
(1.06721 0.164426 0)
(0.997821 0.129705 0)
(1.02224 0.166487 0)
(1.00377 0.0157413 0)
(1.05637 0.173868 6.76957e-21)
(1.08662 0.126635 0)
(1.07651 0.167917 1.60967e-21)
(0.890424 -0.00553099 2.88931e-20)
(0.980456 0.109712 0)
(1.04512 0.071651 7.83654e-21)
(0.997435 0.129919 1.4504e-20)
(0.956734 0.0836416 0)
(0.993414 -0.0034777 1.19948e-20)
(0.993174 -0.0117152 -2.54625e-22)
(0.947084 -0.00975714 0)
(0.992103 0.127833 0)
(0.954261 0.0401841 -1.06416e-22)
(1.02551 0.168432 0)
(0.981887 -0.0109712 2.41247e-21)
(0.999773 -0.000980248 -2.81064e-20)
(1.0109 0.222979 0)
(1.04155 0.158208 -6.84658e-21)
(1.07756 0.0927261 -3.49614e-21)
(1.02735 0.0428432 -1.07655e-20)
(1.05628 0.12541 9.27463e-21)
(0.991969 -0.0106644 3.58874e-20)
(1.03999 0.0913018 -6.76913e-21)
(1.00597 0.0534882 1.43215e-20)
(1.03775 0.0348631 1.31596e-20)
(1.06864 0.165043 7.30838e-21)
(1.01251 0.0599547 -3.29631e-20)
(1.11165 0.168115 -1.22079e-21)
(0.860836 0.148249 -1.70191e-20)
(0.867931 0.148603 -9.41247e-21)
(0.976446 0.107465 1.70005e-20)
(0.705207 0.113893 2.19621e-20)
(0.881978 0.232322 -7.50102e-21)
(1.04775 0.0878885 3.7257e-20)
(1.016 0.00145368 2.02299e-20)
(0.990732 0.00231794 1.22085e-20)
(0.899294 0.155357 1.35498e-21)
(1.08892 0.177763 -3.48457e-21)
(1.00303 0.0537534 -1.70224e-20)
(1.10023 0.0808329 2.94578e-21)
(1.01649 0.0379153 0)
(1.02752 0.00879896 0)
(1.04009 0.0892286 6.0228e-21)
(1.00145 0.00504593 0)
(0.999833 0.0879627 0)
(0.992751 0.129377 0)
(0.882601 0.150623 -6.8567e-21)
(0.992705 0.125776 7.00684e-21)
(1.03112 0.168451 4.25755e-21)
(0.978621 0.110675 0)
(1.00231 0.0549632 1.49943e-20)
(1.02717 0.00126945 -2.00451e-20)
(0.847298 0.225596 0)
(1.01131 0.111652 7.3576e-21)
(1.11133 0.165767 -4.54031e-21)
(1.04277 0.159618 -3.75327e-21)
(1.11391 0.14468 -1.54333e-21)
(1.00312 0.143069 2.3659e-20)
(1.10634 0.0930378 9.8485e-22)
(1.00087 0.160967 0)
(1.07186 0.164059 -1.18499e-20)
(1.03307 0.10772 2.00138e-20)
(1.00006 0.000381647 0)
(1.08758 0.0525142 2.94507e-21)
(1.03139 0.155512 0)
(1.02686 0.0394982 1.62982e-20)
(1.01464 0.0407447 2.11503e-20)
(0.990807 0.12602 0)
(1.04589 0.0707967 7.77788e-21)
(1.04584 0.0358434 8.30872e-21)
(0.961684 0.156149 2.43065e-20)
(0.963455 0.0676743 -5.39355e-22)
(1.00724 0.0558734 0)
(0.992986 -0.0104162 -3.99703e-20)
(1.07258 0.0364786 0)
(1.02976 0.00139889 1.46951e-21)
(0.974761 0.106561 -3.68838e-20)
(1.07828 0.0909352 -8.20115e-22)
(1.08054 0.0916564 9.46082e-22)
(0.851602 0.230315 3.99566e-20)
(1.09516 0.178003 1.30196e-21)
(1.10426 0.16012 -1.06212e-21)
(1.04276 0.158666 2.10297e-20)
(1.04663 0.140941 -2.22573e-20)
(0.986845 -0.012645 -3.49497e-20)
(1.05551 0.0243667 0)
(1.00405 0.141965 -1.96174e-20)
(1.09285 0.169281 0)
(1.01732 0.114191 0)
(1.01568 0.123538 0)
(1.04098 0.0581885 -1.22238e-20)
(0.915644 0.108473 0)
(1.04164 0.157025 2.01243e-20)
(0.96645 0.0708948 -1.69703e-20)
(1.03436 0.0784855 2.10867e-20)
(0.991286 0.00177403 0)
(1.06757 0.0821118 7.48997e-21)
(1.08256 0.122303 -5.62002e-21)
(1.07939 0.17625 -9.50571e-23)
(1.00014 0.00021202 4.38839e-20)
(1.01053 0.205248 0)
(1.01604 0.122131 0)
(0.977905 0.12374 -8.27724e-22)
(1.04114 0.0120467 0)
(0.872232 0.27583 -3.27055e-21)
(1.0362 0.0213286 0)
(1.03645 0.0215813 2.26804e-20)
(1.00004 0.051177 -3.01554e-20)
(0.999673 0.00210714 0)
(0.995794 0.0425829 0)
(1.01476 0.13289 0)
(1.01784 0.0166603 1.72952e-20)
(1.07144 0.163281 7.66147e-21)
(1.00935 0.112172 1.21619e-20)
(0.99984 -0.0022505 5.47655e-21)
(0.956106 0.130804 1.40777e-20)
(0.984067 0.117231 3.86128e-20)
(1.05748 0.0870035 0)
(0.998117 0.00137077 -3.74377e-20)
(1.0156 0.0014346 6.03074e-21)
(1.06553 0.0421557 -7.93907e-21)
(0.952876 0.0973148 0)
(1.00304 0.0666882 0)
(1.04107 0.0149788 1.2435e-20)
(1.03069 0.00280148 3.81693e-21)
(1.08098 0.0902294 -1.45391e-21)
(1.00002 0.023169 -2.90278e-20)
(1.01432 0.0725164 -9.68677e-21)
(0.911844 0.107964 0)
(0.9938 -0.00285438 -2.10915e-20)
(1.03123 0.156844 1.00648e-20)
(0.848783 0.051025 6.92664e-20)
(0.938053 0.0481191 2.49164e-20)
(1.09437 0.168702 0)
(1.02802 0.0818095 3.24384e-20)
(0.992267 -0.0119883 0)
(1.03371 0.106711 0)
(1.04295 0.14108 0)
(1.01823 0.01616 -1.28805e-20)
(0.882541 0.242522 6.58895e-21)
(1.00037 0.00014055 -2.0634e-20)
(1.00005 0.000429133 0)
(0.989007 0.120557 4.89568e-20)
(1.02796 0.00963788 1.26006e-20)
(1.00027 0.0215557 2.7226e-20)
(0.99279 0.0401266 1.30954e-20)
(0.982253 0.110571 0)
(1.03342 0.128253 -1.37657e-20)
(1.04146 0.0128484 -5.81309e-21)
(1.04561 0.0362252 -6.59098e-21)
(1.07161 0.0340932 -2.61903e-21)
(0.849104 0.14547 5.03792e-21)
(1.02538 0.040148 0)
(1.06606 0.165355 0)
(0.990538 0.126674 3.28844e-20)
(1.05896 0.174018 4.80021e-22)
(1.01394 0.133778 0)
(1.02807 0.00563852 3.33974e-23)
(1.0237 0.124386 0)
(0.949202 0.012295 -1.1958e-20)
(1.0099 0.0947555 1.76134e-20)
(0.993014 0.129918 0)
(1.00147 0.137562 -4.7088e-22)
(1.03036 0.00259147 0)
(0.892188 -0.00104125 -1.07575e-19)
(1.05096 0.158361 1.31736e-20)
(1.071 0.0659114 0)
(0.941798 -0.00973375 0)
(0.992995 0.0392755 2.46428e-20)
(1.05139 0.156111 -1.00307e-20)
(1.11282 0.142667 -3.0585e-21)
(1.08933 0.144638 0)
(0.999685 0.00206369 0)
(0.995691 -0.0103056 -1.83352e-20)
(0.936255 0.180268 -3.19523e-20)
(1.05011 0.0256063 0)
(1.09057 0.0824082 -2.35771e-21)
(1.03791 0.161782 1.92378e-20)
(0.930733 0.159425 -3.55515e-21)
(1.07345 0.166144 1.05052e-20)
(0.848898 0.145194 -2.1346e-20)
(0.9826 0.118377 0)
(1.03324 0.00974094 0)
(1.02884 0.0818357 -4.50923e-20)
(0.977624 -0.00984462 4.72137e-20)
(0.654442 0.109719 0)
(0.984162 0.0312244 2.88195e-20)
(0.843198 0.144507 1.22008e-20)
(1.07208 0.0835503 0)
(1.04425 0.129816 -1.27849e-20)
(1.01413 0.00267245 2.22936e-20)
(1.00978 0.13397 -3.86307e-21)
(0.990242 0.00578761 0)
(1.11064 0.123312 6.12837e-22)
(0.936308 0.129977 1.03139e-22)
(0.948609 -0.00299455 0)
(1.01917 0.0141421 1.96863e-21)
(1.08017 0.107223 0)
(1.09038 0.128889 4.1455e-21)
(0.979747 0.146638 8.74646e-21)
(0.974455 0.048958 6.34574e-20)
(0.992514 0.128456 5.63841e-21)
(0.841371 0.145596 9.13004e-21)
(1.02398 0.153805 0)
(1.09467 0.0829153 1.02768e-21)
(0.992845 0.128722 -5.78045e-21)
(1.04746 0.118498 -5.74215e-21)
(0.947887 0.0145522 -1.59922e-20)
(0.999213 0.129401 -1.33159e-20)
(1.07297 0.0856138 0)
(1.04853 0.0248147 0)
(1.11088 0.102642 0)
(0.992945 0.12621 -1.02145e-20)
(1.04057 0.0566046 3.43515e-20)
(0.991495 0.00836085 1.83177e-20)
(1.10595 0.0970705 -3.94788e-22)
(0.971513 0.0405157 -1.07382e-20)
(1.0737 0.157857 -5.87773e-21)
(0.999318 0.137387 4.09277e-22)
(0.934961 0.109569 -8.27855e-20)
(0.941122 0.0447731 -4.91405e-22)
(1.01553 0.113793 -6.82187e-21)
(0.967974 0.144098 0)
(0.991674 0.127778 0)
(0.978481 0.0801434 -2.00877e-20)
(1.04464 0.0375976 8.80523e-21)
(1.09305 0.0880022 0)
(1.0901 0.169761 0)
(0.99804 -0.00138896 3.36618e-20)
(0.952439 0.0969522 0)
(0.924895 -0.0168285 -1.73083e-20)
(1.10387 0.0979332 0)
(0.997823 0.00112698 1.93955e-20)
(1.0149 0.0710509 -1.02152e-20)
(1.00762 0.0515301 0)
(0.994504 0.0428678 2.47614e-20)
(1.00883 0.120135 -2.05908e-20)
(1.05463 0.0774793 -1.68137e-20)
(1.00089 0.066417 0)
(0.952296 0.122507 -2.4919e-22)
(1.03459 0.0815011 0)
(0.936853 0.179311 -3.56143e-20)
(1.00043 0.0532435 -1.70601e-20)
(1.01272 0.120993 0)
(1.00899 0.152938 6.80134e-21)
(1.02168 0.153104 -1.94086e-20)
(0.987502 -0.0129228 2.3181e-20)
(0.932828 0.132303 -2.63937e-20)
(1.09689 0.0828702 0)
(0.700071 0.115669 -2.20292e-20)
(0.95305 0.0431833 5.69872e-20)
(1.07207 0.162934 -3.95712e-21)
(1.04169 0.0719352 2.98676e-20)
(0.847175 0.0532014 3.49503e-20)
(1.03195 0.156787 0)
(0.999775 -0.00322997 -3.29043e-20)
(1.04862 0.117648 -1.01395e-20)
(1.06318 0.158466 -8.11658e-21)
(0.883587 0.153196 -4.89646e-22)
(1.07899 0.157528 4.57808e-21)
(0.846009 0.261907 1.97808e-20)
(0.995769 0.109412 0)
(0.960697 0.067328 3.23358e-20)
(0.969025 0.206745 0)
(1.00829 0.0642315 -1.59881e-25)
(0.896639 0.232696 -5.13435e-20)
(1.03287 0.0787137 0)
(0.988627 -0.0126879 -2.35259e-20)
(0.998384 0.130626 -1.7549e-20)
(0.980645 -0.0115736 -2.53057e-21)
(0.794323 0.168503 -1.34679e-19)
(0.964675 0.146119 -3.74809e-22)
(0.986628 0.0189989 -1.20785e-20)
(1.06805 0.0649067 9.81352e-21)
(1.04287 0.128768 1.45155e-20)
(1.04346 0.0377683 7.16448e-21)
(1.0957 0.178401 9.16694e-22)
(0.920557 0.159391 -1.04436e-21)
(1.05148 0.0975335 3.05799e-20)
(1.0084 0.0952392 0)
(0.614744 0.0955295 2.70624e-20)
(1.05287 0.0989522 3.49888e-21)
(0.884532 0.174298 1.55469e-20)
(0.992162 0.00856074 -1.41048e-20)
(0.926557 -0.0178726 7.31315e-20)
(1.00224 0.16774 -1.51834e-20)
(0.833206 0.14312 5.34393e-21)
(1.09387 0.144634 -2.0187e-21)
(0.987915 0.123207 -2.48808e-20)
(0.987226 0.0202453 -5.38088e-21)
(1.00989 0.1339 0)
(1.05007 0.0989349 -3.31285e-20)
(1.02979 0.00964901 -1.30257e-20)
(0.958411 -0.0209046 8.29548e-21)
(1.00141 0.00518772 0)
(0.995519 0.146726 0)
(1.06501 0.131227 2.09498e-20)
(0.895543 0.232646 0)
(0.831767 0.142691 0)
(1.02297 0.154895 9.62651e-21)
(0.998996 0.0508324 0)
(1.09967 0.178137 -3.03991e-23)
(1.06246 0.0876817 1.66261e-20)
(1.11032 0.14148 1.0069e-21)
(0.991099 0.00746963 -1.51543e-20)
(1.00672 0.00275824 0)
(1.04279 0.0710892 -3.32624e-20)
(1.08821 0.0737643 0)
(0.994507 -0.00339431 2.03225e-20)
(1.0977 0.142686 -2.33765e-21)
(1.05433 0.0974539 -5.60046e-21)
(0.979142 0.133244 1.68836e-20)
(1.113 0.122868 0)
(0.927158 0.00284069 3.50387e-20)
(1.07953 0.177156 0)
(1.03797 0.163161 1.03798e-20)
(1.07389 0.168876 3.94247e-21)
(0.974252 0.049317 -3.77421e-20)
(1.0745 0.176459 0)
(0.8209 0.140458 7.18543e-21)
(0.986332 0.123651 0)
(1.01115 0.0217034 8.99301e-23)
(1.05142 0.141445 0)
(1.0478 0.0256158 0)
(1.04433 0.0542334 -9.52617e-21)
(1.06617 0.0836213 0)
(0.9725 0.0805353 1.86804e-20)
(1.00533 0.00529846 0)
(0.996094 0.0167827 -4.00868e-21)
(0.975308 0.00427714 0)
(0.945274 0.124328 -7.79308e-21)
(1.04029 0.0337405 3.49453e-20)
(0.878545 0.150196 4.22322e-21)
(1.00585 0.142117 2.07394e-20)
(1.00101 0.00595138 0)
(0.922423 0.032183 2.39324e-20)
(0.998308 0.140523 -3.37938e-20)
(1.08713 0.161235 3.12198e-21)
(0.99966 0.048994 -3.02365e-20)
(0.972527 0.0757154 7.3092e-20)
(1.06949 0.0821275 -1.11338e-20)
(0.987737 0.122889 1.28321e-20)
(0.650765 0.104541 7.21611e-20)
(1.02743 0.0418097 -1.04509e-20)
(1.03803 0.0551199 3.1844e-20)
(1.02585 0.154121 0)
(1.07611 0.160141 -2.81066e-21)
(1.03898 0.0725983 0)
(1.06379 0.13277 -1.17067e-20)
(1.08843 0.0724614 -1.04133e-21)
(1.00031 0.000126204 2.59593e-20)
(1.04844 0.0699001 2.08472e-20)
(1.07998 0.103879 0)
(1.02517 0.0384714 0)
(0.922806 0.124169 -2.38766e-20)
(1.06977 0.0855264 1.14748e-20)
(1.01954 0.0524081 -6.28214e-21)
(0.899171 0.106312 2.75836e-20)
(1.01826 0.0734339 2.58018e-20)
(1.09628 0.143429 2.16808e-21)
(0.99124 0.129064 2.89561e-20)
(1.00504 0.00562012 2.40157e-20)
(0.998944 -0.00424431 1.64873e-20)
(0.994453 0.10153 0)
(0.999035 -0.00348659 0)
(1.03436 0.130699 1.47426e-20)
(1 7.07583e-05 2.19743e-20)
(0.992941 0.125405 0)
(1.00102 0.00596194 0)
(0.993403 0.121613 0)
(0.889661 0.139742 -1.50044e-20)
(1.02788 0.0278503 -1.3185e-20)
(1.01939 0.164985 1.10753e-20)
(1.00009 0.0752218 1.50123e-20)
(1.03604 0.16932 9.12897e-21)
(1.02852 0.00649077 -2.18621e-20)
(0.988125 0.120953 -4.49275e-20)
(1.10723 0.091131 1.96989e-22)
(0.923982 0.151317 1.5883e-20)
(1.0351 0.0354381 1.37575e-20)
(1.0941 0.143574 0)
(1.05513 0.0781504 1.82343e-20)
(1.05815 0.143037 0)
(1.10248 0.159595 5.10844e-22)
(0.990003 0.00851796 -7.67178e-21)
(0.956098 -0.0188987 -3.3234e-20)
(1.00784 0.0508807 0)
(0.976375 0.0798273 3.99951e-20)
(0.720715 0.11745 2.34893e-20)
(1.04179 0.136648 -8.63064e-21)
(1.02037 0.165023 1.25111e-20)
(1.05486 0.124997 -8.1427e-21)
(0.80787 0.139176 0)
(0.989515 0.00537216 -1.74239e-20)
(1.07143 0.161092 7.55725e-21)
(1.10275 0.0991083 -2.22111e-21)
(1.03239 0.168711 4.80979e-21)
(1.00177 0.0746445 0)
(0.904604 0.15096 -2.95244e-20)
(1.03257 0.170983 -6.93567e-21)
(1.10864 0.11798 3.1941e-22)
(1.02536 0.0814066 -1.08818e-20)
(1.01241 0.144123 -2.0595e-20)
(1.00909 0.153282 1.59567e-22)
(0.995096 -0.0105954 1.92035e-20)
(1.04369 0.142914 1.01847e-20)
(1.01715 0.0724861 -4.80929e-20)
(1.09119 0.143744 2.16411e-21)
(0.854523 0.146973 0)
(1.03849 0.0572193 -1.10684e-20)
(1.00526 0.160774 0)
(0.975489 0.259667 2.65865e-20)
(0.967859 0.130826 0)
(1.0913 0.159159 3.46336e-21)
(0.989971 0.125014 0)
(0.988479 0.148442 1.89421e-20)
(1.08168 0.144613 0)
(1.00016 0.00910788 0)
(0.998091 -0.00142126 -1.69549e-20)
(1.08083 0.176915 2.69152e-22)
(1.08059 0.134837 0)
(1.01671 0.104594 3.06659e-21)
(1.0312 0.0900226 6.21787e-21)
(1.01246 0.120772 1.1851e-20)
(0.99558 0.11045 1.79772e-20)
(1.00052 0.137613 0)
(0.998403 -0.0017607 -2.87587e-20)
(1.04053 0.15628 -6.88568e-21)
(0.901688 0.155122 4.60202e-22)
(0.59008 0.0882758 1.59034e-20)
(1.03278 0.090274 1.37071e-20)
(0.999958 0.00921795 3.98002e-20)
(1.04325 0.137967 -1.87229e-20)
(0.999139 -0.00204046 1.51533e-20)
(0.625838 0.0959534 -1.41802e-20)
(1.06983 0.164727 -8.96988e-21)
(1.08835 0.159721 -3.72401e-21)
(1.0032 0.0083679 -1.38286e-20)
(0.99679 -0.000779912 0)
(0.968708 0.201535 0)
(0.996402 0.00866771 -3.34727e-20)
(1.07796 0.146767 2.25943e-22)
(1.03024 0.00200641 0)
(1.11416 0.140299 -4.28e-21)
(1.03689 0.0362658 8.16615e-21)
(1.07038 0.160734 4.09385e-21)
(1.03404 0.00725208 -1.24247e-20)
(1.00014 0.0228316 2.76563e-20)
(1.00173 0.000461805 1.2172e-20)
(1.05556 0.143675 0)
(0.964191 0.0708094 0)
(0.994756 -0.00254474 0)
(0.890617 0.046109 3.47285e-20)
(1.03521 0.154785 1.27426e-20)
(1.07766 0.144163 3.43933e-21)
(1.00003 0.000219966 0)
(1.00055 0.00550251 0)
(1.04244 0.171957 9.2996e-21)
(1.00693 0.0041225 -1.7624e-22)
(0.98 0.0282613 5.21665e-20)
(0.663828 0.113135 1.81324e-20)
(1.00335 0.00806729 2.82138e-20)
(0.651477 0.104305 -4.66571e-20)
(1.04183 0.0915502 3.38163e-21)
(0.999933 -1.27458e-05 1.76949e-20)
(0.81641 0.0679952 0)
(1.02607 0.0808697 2.30303e-20)
(1.01592 0.104806 0)
(0.993749 0.101942 0)
(1.02488 0.124025 0)
(1.03901 0.0543703 -2.00762e-20)
(1.05678 0.14308 0)
(0.996318 0.00929695 -1.12704e-20)
(1.10666 0.0889899 1.97782e-21)
(0.990573 -0.0134523 -2.12951e-20)
(1.00268 0.134993 0)
(0.9913 0.128573 -2.26744e-20)
(1.03392 0.0643774 -9.20262e-21)
(1.02693 0.00130367 2.88998e-20)
(0.973238 0.0777932 -1.90103e-20)
(1.08064 0.157112 0)
(1.03631 0.0889992 0)
(0.988353 0.119104 -4.47688e-20)
(1.03894 0.0891601 0)
(1.06184 0.141465 0)
(1.06342 0.0874415 -1.28289e-20)
(0.854473 0.145967 9.62866e-21)
(1.08989 0.178162 0)
(1.00171 0.0059146 -1.43263e-20)
(1.00392 0.0088289 -3.82569e-20)
(1.02602 0.0378251 4.01437e-21)
(0.982085 0.0597925 1.11482e-20)
(1.03343 0.0828262 -1.2598e-20)
(1.02479 0.165918 -1.32728e-20)
(0.877813 0.148254 -2.26791e-20)
(1.10207 0.158067 -1.95333e-22)
(1.04774 0.0712103 -3.91779e-20)
(1.00405 0.00840483 2.44763e-20)
(1.03403 0.00679907 1.1758e-20)
(0.88229 0.164994 0)
(1.06369 0.174342 7.9111e-21)
(0.982468 0.0786004 2.10608e-20)
(1.09145 0.169385 -9.44641e-22)
(1.03001 0.0631419 1.36887e-22)
(1.0203 0.0168552 2.00805e-20)
(0.983215 0.121468 1.24583e-20)
(1.00586 0.159876 0)
(1.0171 0.138498 1.92339e-20)
(1.10795 0.102699 -1.25761e-22)
(1.05923 0.141753 -8.28564e-21)
(1.06296 0.174345 1.16532e-20)
(0.995359 0.145685 6.19803e-21)
(1.00054 0.00562603 -1.54353e-20)
(0.793315 0.13698 -9.53237e-22)
(1.04067 0.155466 0)
(1.06288 0.157536 0)
(0.925496 0.100137 2.31517e-20)
(0.87468 0.149449 -9.5667e-21)
(1.03465 0.0633736 -1.56075e-20)
(1.00656 0.00462483 9.48057e-23)
(1.01869 0.0133217 2.99506e-23)
(0.995014 0.128853 -1.7799e-20)
(0.981708 0.00301037 -2.54911e-20)
(0.977364 0.0105494 -2.38773e-20)
(1.00575 0.0576874 0)
(0.999713 0.123835 5.825e-21)
(0.998848 0.149789 -5.65235e-23)
(0.646194 0.0875814 -3.65903e-20)
(0.983438 0.146929 9.78697e-21)
(0.966566 0.2218 0)
(1.004 0.00553971 2.60114e-20)
(0.979218 0.0275122 -3.14779e-20)
(0.984398 0.0308046 0)
(0.945519 0.0153475 1.74947e-20)
(0.999689 0.00834235 -5.1804e-20)
(1.00365 0.00520569 3.52936e-21)
(1.03665 0.131128 -7.5916e-21)
(1.00492 0.143224 2.25847e-20)
(1.04007 0.0332397 -1.50921e-20)
(1.05095 0.172171 -1.51061e-20)
(1.02935 0.00113472 -4.04039e-21)
(1.02285 0.165299 -4.0629e-21)
(0.98845 0.122207 -2.26037e-20)
(1.06436 0.0412356 7.3213e-21)
(1.05601 0.0284724 1.6527e-20)
(1.01397 0.00875519 -3.91584e-21)
(1.05668 0.127762 -9.63249e-21)
(0.930006 0.0086377 3.34568e-20)
(1.03996 0.0722029 0)
(1.02806 0.0613346 0)
(0.916109 0.15261 2.6975e-20)
(1.06078 0.142795 7.86753e-21)
(1.00092 0.00410704 2.71865e-20)
(1.02509 0.151241 0)
(0.989128 -0.0134391 6.18028e-21)
(0.992784 -0.0090157 2.91065e-20)
(1.01553 0.0393873 0)
(1.07405 0.177191 -1.48572e-21)
(0.996646 0.129345 1.71381e-20)
(1.03917 0.126866 8.55066e-21)
(0.93492 0.0444728 -8.46335e-20)
(0.994385 0.0320213 2.60684e-20)
(1.10636 0.10405 0)
(0.93755 0.110023 0)
(1.01046 0.00219784 0)
(1.09095 0.0698868 -8.62236e-21)
(0.975709 0.151263 2.04683e-20)
(0.821512 0.141057 1.20294e-20)
(1.03887 0.135336 -9.33928e-21)
(0.995327 0.153892 1.48467e-20)
(1.00062 0.000558548 6.10418e-24)
(1.08108 0.0583102 0)
(0.912832 0.156472 0)
(0.999639 0.00169108 1.47402e-20)
(0.996358 0.127641 -1.47585e-20)
(1.07542 0.082128 -1.65002e-21)
(1.00607 0.0311519 0)
(1.0695 0.0326634 1.27397e-20)
(1.0307 0.0822797 0)
(0.87884 0.151771 0)
(0.999968 0.000111715 -1.57237e-20)
(1.0025 0.0861576 6.33819e-20)
(1.04057 0.117083 1.278e-20)
(1.04292 0.162993 -1.7658e-21)
(1.02978 0.00163668 4.17821e-21)
(0.996275 0.00762496 -2.18709e-20)
(0.966149 0.105247 -5.32088e-20)
(1.01671 0.0205137 2.27042e-20)
(1.04167 0.109249 -2.37111e-20)
(0.912245 0.156967 1.10507e-21)
(1.09205 0.126857 2.096e-21)
(1.01879 0.0145457 -1.58741e-20)
(0.870697 0.129144 0)
(1.01729 0.152611 6.05941e-21)
(1.05016 0.142865 9.75376e-21)
(1.01736 0.0202432 1.41709e-22)
(1.0657 0.167357 -8.00072e-21)
(1.04287 0.108344 1.49616e-20)
(0.871334 0.150665 -1.29722e-21)
(0.935182 0.043747 6.84667e-20)
(1.00665 0.00378663 0)
(1.01803 0.0147782 0)
(1.00731 0.0627947 6.00276e-20)
(1.00145 0.00642276 0)
(0.891667 0.146488 -5.32739e-21)
(1.03176 0.0639076 0)
(1.01878 0.153274 6.98246e-20)
(0.99696 -0.00358357 4.21106e-20)
(1.02638 0.115188 1.37955e-20)
(0.891689 0.153463 0)
(1.01151 0.0354453 3.20354e-20)
(1.0206 0.0162544 0)
(1.03908 0.134437 -8.68504e-21)
(1.02447 0.16909 -9.34256e-21)
(0.806535 0.0821537 -1.18078e-20)
(0.997141 0.137542 -1.59364e-20)
(1.01079 0.0041271 2.52646e-20)
(0.997343 -0.0013421 -3.18677e-20)
(0.929072 0.126611 -2.70421e-20)
(1.00004 0.000224376 -1.94043e-20)
(0.999506 -0.00203571 8.86333e-21)
(0.966605 -0.00759699 4.03057e-22)
(0.818166 0.140198 -1.27235e-20)
(0.996271 0.129221 0)
(1.08443 0.177401 9.0555e-22)
(1.0108 0.022704 4.72251e-23)
(1.09095 0.157411 -1.76082e-21)
(1.01301 0.148184 1.73438e-20)
(1.01362 0.00869209 -6.05476e-23)
(0.989807 0.119287 6.76015e-20)
(1.04082 0.125495 2.33567e-22)
(0.996718 -0.00410345 -1.65452e-20)
(1.01065 0.00233908 0)
(1.02338 0.0812371 1.28335e-20)
(1.0395 0.117342 -1.88493e-20)
(0.969804 0.163554 0)
(1.0225 0.0811739 -3.21617e-20)
(1.01955 0.152635 -5.27422e-20)
(0.981978 -0.0145581 -3.22765e-20)
(1.07682 0.176007 0)
(0.98556 0.0164997 3.95479e-20)
(1.07235 0.159067 5.39309e-21)
(0.999253 0.148944 -2.82573e-20)
(0.99923 -0.00190005 -8.37272e-21)
(1.06663 0.166838 8.73108e-21)
(1.04711 0.0986386 -8.31496e-21)
(0.999657 0.00149607 -1.35987e-20)
(1.02802 0.096944 -1.99792e-20)
(0.971517 0.161799 4.53529e-21)
(1.0057 0.0316636 -1.93033e-20)
(1.01251 0.0318281 1.5821e-20)
(0.991058 0.0381622 -2.73134e-20)
(0.993057 -0.00754733 -9.9125e-21)
(0.971553 0.0793654 1.8792e-20)
(0.995365 0.0324003 -2.38322e-20)
(0.984767 0.121577 4.88668e-21)
(1.09396 0.0876675 0)
(1.01638 0.151423 2.91181e-20)
(0.998502 -0.0017519 3.06443e-20)
(1.03765 0.133285 1.75187e-20)
(0.885985 0.149664 1.27359e-20)
(0.922393 0.15843 0)
(1.02634 0.115663 0)
(1.104 0.177982 0)
(0.988575 0.153163 0)
(1 6.07758e-05 -2.13372e-20)
(0.989444 0.157055 0)
(1.04162 0.063744 4.27535e-22)
(1.02837 0.0292907 0)
(0.991527 0.0186089 1.81353e-20)
(1.0801 0.0560879 3.7992e-21)
(1.00658 0.00558708 -1.35813e-20)
(1.04745 0.0544099 -2.03678e-20)
(0.843352 0.145486 9.62417e-21)
(0.866439 0.128561 0)
(0.903769 0.154124 1.25677e-20)
(1.09124 0.0851858 2.1665e-21)
(0.999445 0.00856884 -1.90532e-20)
(0.969122 0.0216901 2.30314e-20)
(0.989404 0.0245276 2.63879e-20)
(0.923076 0.0336207 -1.58536e-21)
(0.966911 0.244593 0)
(1.01363 0.00224706 1.33488e-20)
(0.967549 0.102703 4.67876e-20)
(1.08162 0.137131 0)
(0.808474 0.131888 2.35749e-20)
(1.0001 0.000282572 2.29681e-20)
(1.00069 0.00984061 1.7464e-20)
(0.99745 -0.00546886 0)
(1.01764 0.0152398 1.34927e-20)
(0.981309 -0.0152391 3.23218e-20)
(0.992416 -0.0093901 -3.83525e-20)
(0.834443 0.202881 -7.15111e-20)
(1.00541 0.00304163 0)
(1.01544 0.073172 2.12973e-20)
(1.0056 0.00876835 0)
(1.02813 0.161484 -1.14862e-20)
(1.03156 0.0819707 0)
(1.06004 0.173399 -2.9006e-21)
(1.05139 0.0692273 3.2793e-21)
(0.97726 0.246188 -1.6527e-20)
(0.986936 0.124509 5.98351e-21)
(0.971147 0.0427423 0)
(1.00182 0.0878294 -1.71045e-20)
(1.0373 0.089883 0)
(1.00529 0.00908899 2.16015e-23)
(1.04431 0.098792 -3.99347e-20)
(0.986838 0.0587715 -1.01313e-22)
(0.99247 0.133497 -2.86913e-20)
(0.997907 0.137135 1.56237e-21)
(0.894429 0.153976 0)
(1.04276 0.142097 1.06902e-20)
(0.991239 0.0379236 -2.92963e-20)
(0.989507 0.0363674 0)
(0.924425 -0.000520616 0)
(1.02466 0.00159043 -1.7335e-20)
(1.11179 0.1393 -3.67191e-22)
(0.992737 -0.00823425 1.14406e-20)
(0.993437 0.114442 0)
(0.985267 0.116865 -9.89169e-21)
(1.04197 0.139498 3.16578e-20)
(0.992629 0.120925 0)
(1.00345 0.0757741 3.39412e-21)
(1.01237 0.0072239 0)
(1.02665 0.095674 4.60351e-21)
(0.992309 0.0181699 0)
(0.924489 0.129254 -1.11704e-19)
(0.92725 0.0375566 4.99679e-20)
(0.926714 0.0359623 -4.53701e-20)
(0.672721 0.0904187 3.42501e-20)
(1.10094 0.106009 -3.63871e-21)
(1.01036 0.00454152 -2.57855e-20)
(1.04545 0.0979723 3.86402e-20)
(0.990404 0.0211976 -1.33369e-20)
(0.984999 0.0995066 0)
(1.03001 0.000931982 2.2718e-20)
(0.993677 0.126181 0)
(0.98016 0.0782102 0)
(0.831867 0.135643 -3.47848e-20)
(1.09861 0.170833 0)
(0.942793 0.0262452 7.07701e-23)
(0.985862 0.0155563 -2.09263e-20)
(0.989468 0.0249922 1.12446e-22)
(0.999656 0.00115058 4.18979e-20)
(1.02611 0.00595446 -1.15391e-20)
(1.10074 0.0990973 4.11667e-22)
(1.05516 0.0452188 4.14429e-21)
(0.996131 0.00804334 3.66353e-20)
(0.968736 0.0209091 0)
(0.999662 0.0012221 -1.54255e-20)
(1.0739 0.093599 1.49096e-20)
(0.962671 0.213506 0)
(1.03776 0.13261 -8.73234e-21)
(0.999947 0.118182 3.53483e-20)
(1.07192 0.176123 -3.08255e-22)
(1.01257 0.0215129 0)
(0.944687 0.0236646 -6.55431e-20)
(0.999713 0.00334486 -5.13255e-20)
(0.892133 0.0425873 -7.91566e-20)
(0.865622 0.1488 -6.42129e-21)
(1.00723 0.0555116 -9.31095e-22)
(0.999834 -0.00111572 0)
(0.983933 0.0998703 -1.41116e-20)
(0.848897 0.11041 -2.30423e-20)
(1.01507 0.148221 9.02588e-23)
(1.09961 0.106228 1.59298e-21)
(0.987446 0.0578019 -2.37143e-20)
(1.08896 0.177389 -4.82344e-22)
(0.866715 0.0494921 -1.50891e-20)
(1.00699 0.00326752 0)
(1.01806 0.0516587 -2.40415e-20)
(1.03717 0.0621955 0)
(0.996166 0.0125367 1.45387e-20)
(1.07222 0.167695 1.0837e-22)
(1.0505 0.0703039 0)
(0.870367 0.151132 -1.03741e-21)
(1.09749 0.172336 0)
(1.04536 0.139905 -5.82704e-21)
(1.03268 0.155097 0)
(1.00979 0.0765225 6.32519e-21)
(0.963294 0.156622 0)
(1.08438 0.0554993 -1.9833e-21)
(1.08073 0.167876 4.69851e-21)
(0.98362 0.134811 -1.57554e-22)
(1.00381 0.00127326 0)
(1.04834 0.0972217 6.99169e-21)
(1.03687 0.061024 0)
(1.01877 0.0387458 -1.39918e-21)
(1.03336 0.129597 3.41501e-20)
(0.975113 0.155014 -1.78484e-20)
(1.07351 0.0467244 1.06847e-20)
(1 4.30019e-05 2.14507e-20)
(0.974562 0.0043145 -3.72205e-20)
(1.01431 0.104915 0)
(1.06208 0.159739 1.05655e-20)
(1.08018 0.177469 -9.4853e-22)
(0.996774 -0.00733719 -1.74637e-20)
(0.61714 0.0828934 -6.49137e-20)
(1.00425 0.0753536 1.08206e-20)
(1.01415 0.113506 6.40511e-21)
(0.822214 0.140144 2.16371e-20)
(1.04614 0.030224 -6.54414e-21)
(0.978158 -0.00785526 1.06347e-20)
(1.00356 0.168699 2.35694e-20)
(0.998581 0.0480715 0)
(1.03843 0.0522056 -2.20592e-20)
(1.00154 0.000567511 1.43017e-20)
(0.904846 0.157253 1.0886e-21)
(0.993563 0.0114959 0)
(0.892431 0.146439 1.76892e-20)
(0.965306 0.129781 0)
(0.978878 0.0981593 5.53111e-20)
(1.02635 0.150208 -3.98852e-21)
(1.02487 0.155128 0)
(0.936134 -0.000430796 -1.45275e-20)
(0.979424 0.124246 1.08296e-20)
(1.01615 0.0154367 -2.4957e-20)
(0.984402 0.077901 2.61237e-21)
(1.0185 0.150831 0)
(1.00239 0.00483275 4.14979e-20)
(1.00953 0.19829 -1.34489e-20)
(1.00431 0.00535819 -2.12471e-20)
(0.893175 -0.00407359 -1.14864e-19)
(0.999162 0.0076224 0)
(0.658894 0.0941338 -1.51614e-20)
(1.10285 0.122779 -1.47703e-21)
(1.01781 0.149128 0)
(1.00094 0.148792 0)
(1.00609 0.0257042 3.17518e-20)
(0.838733 0.145866 1.93971e-21)
(0.925355 0.136177 3.23261e-20)
(1.00682 0.15874 -1.3377e-20)
(1.00478 0.00854021 -4.35226e-20)
(0.87393 0.151311 -5.73212e-22)
(1.00242 0.135841 0)
(1.01177 0.00668185 0)
(1.01333 0.112966 -8.38324e-21)
(1.02102 0.158219 -7.97614e-22)
(0.827151 0.0585333 -2.35591e-20)
(0.982214 -0.0123793 2.23729e-21)
(0.999729 0.00340309 3.22872e-20)
(0.999411 0.0653335 1.95608e-20)
(1.06741 0.175823 -3.46576e-21)
(1.06431 0.0837148 -2.02654e-21)
(1.05747 0.0974095 -1.22185e-20)
(1.09578 0.128394 -2.65596e-21)
(0.996548 0.013141 -1.54954e-20)
(1.01439 0.0314233 0)
(1.075 0.0924823 -1.66379e-20)
(0.996523 0.0163833 -2.98957e-20)
(1.0039 0.134708 0)
(0.957547 -0.00650442 1.9783e-20)
(1.01788 0.00434912 -7.74822e-22)
(0.99999 -0.000297212 0)
(1.00691 0.0252743 -2.91673e-20)
(1.00502 0.0235071 2.83088e-20)
(0.995329 0.128488 0)
(0.998798 -0.00196908 0)
(1.11161 0.134108 3.81045e-22)
(1.00242 0.0225739 3.47174e-21)
(1.03376 0.0355772 0)
(0.999197 0.00759258 1.64705e-20)
(0.922884 0.160054 -1.31365e-24)
(1.01431 0.0130089 -2.49647e-20)
(1.04605 0.128429 1.24708e-20)
(1.01147 0.0317079 -1.59109e-20)
(0.687406 0.120022 9.7306e-21)
(1.07023 0.108342 0)
(0.893763 0.155509 -2.23736e-21)
(1.05438 0.0259034 0)
(0.922641 0.106037 -3.58246e-20)
(1.02499 0.152216 -8.70389e-21)
(1.0559 0.0472566 8.72293e-21)