/*--------------------------------*- C++ -*----------------------------------*\
| =========                 |                                                 |
| \\      /  F ield         | OpenFOAM: The Open Source CFD Toolbox           |
|  \\    /   O peration     | Version:  v2012                                 |
|   \\  /    A nd           | Website:  www.openfoam.com                      |
|    \\/     M anipulation  |                                                 |
\*---------------------------------------------------------------------------*/
FoamFile
{
    version     2.0;
    format      ascii;
    class       volScalarField;
    location    "150";
    object      ReThetat_0;
}
// * * * * * * * * * * * * * * * * * * * * * * * * * * * * * * * * * * * * * //

dimensions      [0 0 0 0 0 0 0];


internalField   nonuniform List<scalar> 
13851
(
473.09
623.345
622.935
41.6516
590.195
626.669
559.767
598.604
31.6843
551.2
648.793
589.195
525.42
32.2984
522.35
449.868
33.4904
616.24
423.304
474.055
537.319
618.286
129.544
585.033
125.111
475.019
725.778
283.965
32.5514
608.015
36.18
560.343
479.262
32.4329
645.13
33.3498
584.87
149.301
32.7499
601.148
32.4657
33.2882
34.3687
549.257
33.4143
606.801
604.102
476.203
625.284
520.309
32.2746
494.711
451.623
522.401
32.423
600.313
483.115
32.3702
608.77
32.0953
589.108
529.01
562.422
625.064
482.361
466.9
32.1197
306.045
611.186
40.056
34.6019
519.58
582.417
32.1189
529.113
612.288
33.5642
607.332
210.098
596.145
613.372
584.46
642.841
32.2323
32.0973
35.5328
619.734
31.6924
554.335
36.4439
514.152
557.267
32.259
35.4795
32.5354
616.021
601.702
462.388
32.1473
653.485
463.544
351.145
353.805
568.66
609.319
525.271
607.262
34.8216
555
615.441
606.34
607.625
477.17
572.047
515.576
524.502
602.988
601.301
41.1555
41.1817
610.479
611.84
607.815
31.9658
423.545
285.895
601.19
641.624
31.9762
511.403
616.586
636.766
283.006
32.1509
651.693
32.57
309.979
35.2535
367.843
515.292
594.435
557.485
554.413
382.788
132.11
604.538
606.878
35.7483
31.8423
643.924
467.633
470.931
567.727
420.39
513.045
529.588
589.004
32.7455
517.193
585.187
585.507
32.8502
513.169
475.159
32.2933
31.8352
31.9715
32.3086
606.43
48.0508
588.253
602.789
519.829
588.195
32.5581
528.135
487.126
603.193
522.514
492.54
425.327
574.883
610.077
518.824
33.5802
31.8033
485.38
393.156
527.826
607.502
237.883
513.256
32.3759
628.822
605.444
458.3
486.788
613.533
619.559
310.139
638.708
32.4979
32.4603
514.766
354.641
32.451
422.418
512.735
31.6497
629.875
442.301
607.677
600.564
585.7
644.901
613.507
528.084
443.151
617.418
216.514
603.381
464.574
32.2891
32.5622
402.725
515.181
584.846
379.769
590.86
643.999
49.3479
397.829
630.387
563.635
32.3846
608.633
199.093
32.4537
653.846
585.315
630.334
32.1035
34.2541
447.327
585.32
367.796
447.604
518.053
610.633
613.031
32.3106
435.101
599.454
609.822
459.585
32.552
31.2034
606.895
278.848
558.89
521.854
427.477
616.821
512.096
434.371
590.053
348.87
481.949
424.614
575.229
528.201
407.127
31.8658
38.587
518.232
612.766
425.687
420.019
499.028
522.767
31.6583
32.0969
619.26
536.817
146.897
607.995
589.072
499.672
646.059
608.654
585.795
590.352
593.298
554.552
589.455
31.6485
534.465
602.81
32.7109
31.9848
507.691
468.256
32.2097
549.614
519.209
518.777
32.2161
34.3917
486.407
590.619
51.0012
588.693
492.192
32.2405
487.575
580.648
220.643
572.605
34.3771
482.092
334.144
32.6046
31.9282
343.761
621.436
34.6095
31.8019
266.75
281.439
434.039
504.705
556.704
31.621
336.687
597.625
606.362
630.819
34.3199
222.53
608.073
32.5373
541.129
637.457
578.846
32.2736
427.617
452.167
612.501
630.076
35.2871
524.906
414.539
618.835
529.86
523.633
555.764
603.48
564.163
652.596
444.214
389.324
35.5885
604.279
32.3908
492.049
609.615
424.452
486.774
32.1753
631.187
465.953
503.704
200.564
632.86
31.8244
623.147
572.987
34.561
619.212
32.2199
616.151
32.5646
540.376
500.464
446.876
588.298
530.023
620.488
646.651
525.064
604.081
510.745
39.8001
583.949
503.698
41.9605
629.407
426.018
501.015
34.6711
631.609
476.275
428.46
426.571
555.139
31.1202
32.1311
616.092
590.271
530.975
604.999
467.312
611.902
33.9372
39.2776
156.033
629.617
438.77
512.673
39.4895
607.866
34.3827
635.237
127.305
614.491
256.767
548.306
588.724
32.4901
532.022
539.63
624.407
507.573
602.336
42.9298
500.803
484.104
578.786
624.831
486.401
316.817
602.357
490.538
55.356
41.8281
615.7
460.666
562.714
589.423
631.153
438.54
498.796
603.894
625.618
612.591
621.282
36.0103
589.374
544.658
33.5518
546.89
606.174
587.538
574.344
614.321
545.908
48.4378
589.281
213.848
630.983
588.352
31.6889
495.809
438.595
587.398
31.9294
375.573
370.77
569.204
630.408
583.68
522.514
31.9112
579.782
219.317
578.214
475.617
592.404
32.3577
503.1
494.472
610.582
613.129
551.357
507.671
589.609
36.8394
31.7109
36.8355
47.3246
49.9895
32.7916
422.74
415.953
581.016
323.475
551.226
603.716
449.007
32.5604
617.489
515.966
611.654
582.35
539.681
42.1112
599.874
31.9404
591.722
597.493
599.367
544.355
412.401
608.63
72.1177
214.328
607.412
33.3244
432.177
452.283
575.43
57.1235
32.0792
605.882
438.436
609.793
600.963
73.3339
32.5983
587.296
501.768
545.022
491.191
32.0007
32.6595
610.012
33.1243
605.118
610.004
551.751
555.172
607.784
609.829
33.2326
635.589
33.2501
618.521
560.816
32.0509
581.611
540.782
544.715
527.286
597.431
36.866
32.1127
627.13
34.8394
584.753
515.63
33.4871
32.2971
607.069
590.773
381.15
33.1652
425.637
492.183
278.178
551.294
548.665
53.0806
40.2241
609.144
31.8452
545.412
35.4081
622.839
578.839
441.189
587.223
32.2907
35.7985
609.13
518.446
597.124
231.578
644.088
81.8249
602.092
587.565
406.699
602.707
589.658
32.5386
587.748
533.343
566.417
466.061
567.79
534.962
630.334
33.0885
560.134
32.5472
634.08
601.873
613.617
531.21
625.242
505.478
620.496
410.682
568.324
579.861
31.5346
585.322
463.62
35.0898
32.6705
385.508
108.865
605.907
649.099
35.0753
610.946
38.6235
551.183
612.822
48.8647
446.397
609.528
524.192
612.91
34.2853
32.3416
613.849
304.957
43.6549
584.209
584.704
469.597
31.3951
68.6094
510.468
456.428
619.945
533.342
531.123
449.923
658.22
607.289
483.407
519.324
479.621
465.578
604.546
641.565
407.851
476.838
514.066
528.442
606.563
468.526
421.739
40.4443
89.7783
473.59
32.1279
596.836
65.526
456.084
614.228
552.559
423.679
626.336
595.916
596.451
463.284
31.7976
548.134
32.3926
601.811
61.9651
566.019
32.2184
541.175
635.06
620.891
32.2478
657.789
597.379
553.655
625.853
403.353
463.834
527.57
633.294
558.883
546.839
585.336
433.701
534.479
33.0194
592.897
513.982
31.7572
560.247
32.6388
32.1527
536.956
654.356
385.226
573.213
530.913
606.585
612.456
587.918
494.565
467.418
517.219
360.792
615.19
31.6847
583.194
42.9742
637.676
583.576
566.394
32.4164
625.969
64.8141
36.3171
522.833
488.759
606.573
32.1319
586.892
618.931
530.615
574.02
544.176
612.791
504.657
32.131
636.811
624.355
617.038
32.6506
389.54
587.058
34.5272
606.176
34.2631
586.498
618.982
202.709
489.316
512.758
645.173
552.349
577.911
584.267
509.99
623.622
577.923
534.163
636.626
593.674
649.271
504.991
77.2784
648.783
38.8462
361.992
572.89
654.93
602.237
622.485
42.9563
36.2271
38.3874
35.8098
616.798
613.198
561.165
601.393
609.846
147.684
534.457
32.3028
459.78
491.006
525.301
607.114
366.392
472.973
617.537
579.309
512.638
479.988
32.4383
516.847
587.927
32.2074
460.361
604.298
601.743
32.5641
594.848
34.9115
562.171
652.838
535.157
546.646
629.677
577.749
623.39
592.26
503.061
481.376
31.3103
621.792
91.3526
31.6465
635.796
593.26
44.0568
47.7847
620.05
495.535
531.235
31.1873
614.227
415.128
585.883
593.226
74.1328
589.879
587.868
519.654
32.2235
269.408
41.1538
606.416
32.0737
576.172
594.024
518.938
606.404
583.449
39.4869
41.8365
617.776
587.832
579.954
605.637
45.8827
649.85
32.2162
32.6246
625.995
480.15
587.615
532.353
566.67
609.78
586.28
635.233
32.3469
486.457
33.5738
498.704
564.028
632.022
496.646
32.8082
559.771
187.257
472.428
585.683
61.5082
56.6187
31.9691
293.747
78.0291
579.164
381.129
498.054
619.318
626.2
597.814
39.2597
612.171
592.957
608.23
611.499
32.5411
428.763
602.189
634.512
32.2354
621.595
33.6745
476.898
493.499
32.5615
589.096
424.028
625.943
633.532
239.598
613.947
538.256
472.395
32.3463
607.334
31.3067
621.979
32.0334
32.4633
31.3198
516.385
563.837
616.437
583.736
501.267
567.938
31.942
608.376
467.561
390.235
579.235
605.99
536.61
628.458
605.568
619.006
33.8946
485.016
613.226
636.813
40.9626
521.017
34.1821
606.816
604.367
473.387
611.719
622.642
587.898
602.37
337.924
525.838
626.495
624.286
32.3108
445.776
428.109
437.811
616.941
32.6304
442.856
585.637
627.323
519.588
34.2124
465.62
349.399
428.894
40.5163
649.136
619.666
35.6629
448.922
69.1848
624.673
602.724
608.92
482.308
553.272
32.0797
511.996
579.432
484.647
612.426
612.288
34.7285
34.7006
536.228
623.261
36.349
499.445
592.243
32.401
589.416
613.79
597.823
530.398
503.972
31.6046
36.8938
510.984
31.8559
531.205
559.495
297.652
595.894
606.876
610.272
591.509
604.714
624.212
31.6339
31.2272
523.55
32.1211
34.4491
425.881
587.079
623.284
554.103
609.579
596.861
641.341
150.745
397.649
604.299
632.347
629.102
455.406
34.3865
605.126
607.392
585.703
288.401
530.281
32.057
601.994
587.515
613.181
598.923
614.781
540.202
36.4162
32.0601
383.168
587.084
449.378
613.634
165.036
32.0844
406.083
33.22
32.8425
38.2111
494.318
565.063
31.9574
605.246
568.867
566.813
645.383
622.171
251.804
555.614
45.1739
177.925
606.966
572.886
624.871
548.103
556.202
588.185
545.824
451.722
572.542
423.293
573.857
44.9124
32.0402
554.041
566.068
506.823
587.414
35.7046
31.8408
32.6151
31.589
590.055
620.042
631.591
513.943
488.219
549.327
580.608
501.354
415.196
63.429
540.811
32.2891
452.304
620.783
348.792
460.34
485.506
589.072
31.7351
32.0235
170.71
32.8635
42.7165
31.7659
32.0555
587.825
563.208
614.004
434.935
496.959
496.24
35.7261
610.857
605.071
543.004
429.374
607.342
593.849
605.771
57.3746
538.168
601.388
578.975
599.452
587.688
536.353
503.397
573.684
50.7498
568.045
599.026
31.9132
31.8207
31.9164
71.8406
455.081
64.8329
603.294
608.222
619.184
565.138
586.34
34.8027
618.66
458.892
322.521
613.506
610.139
420.567
544.779
584.672
57.6987
613.39
453.377
565.371
618.937
620.795
480.264
516.157
793.631
34.8902
429.139
32.3477
542.19
32.86
491.725
573.825
206.794
515.737
344.7
521.986
592.682
595.881
539.14
613.591
398.998
496.72
619.787
560.471
316.643
609.724
38.304
564.743
625.512
528.065
32.0669
427.379
574.741
543.886
601.535
530.497
637.819
83.4107
514.982
584.797
480.814
395.559
493.82
381.352
560.11
466.933
490.88
492.857
550.464
612.105
79.4691
42.1651
628.082
592.619
33.9662
602.619
525.315
595.405
647.937
131.835
603.738
36.8602
627.027
587.258
495.081
597.71
346.828
31.8754
594.736
71.9189
596.211
584.825
337.802
581.449
579.905
556.175
621.306
489.167
651.319
579.761
631.439
611.372
588.416
581.033
573.266
659.357
611.527
475.615
470.368
602.456
592.996
31.8901
579.781
32.2757
619.33
32.9832
418.803
445.826
481.101
606.921
446.089
622.555
466.989
631.593
611.711
604.973
476.573
606.015
599.488
641.871
600.05
620.655
34.0937
32.2867
404.173
581.127
340.496
32.1508
46.4049
580.358
592.339
391.244
617.77
641.132
389.193
32.2562
559.038
514.108
609.323
633.708
584.241
563.364
247.215
575.778
597.175
39.4826
635.16
528.043
32.6392
459.236
534.206
599.438
618.34
33.294
480.082
63.04
647.292
532.352
32.2873
566.294
497.294
397.417
584.099
524.61
586.788
35.2759
34.8373
597.612
494.899
494.188
424.895
633.742
491.957
508.98
522.118
448.027
487.173
568.097
527.26
299.848
52.9411
589.788
271.665
633.02
483.403
584.579
33.952
606.419
584.522
609.125
609.335
634.245
543.469
588.61
607.177
642.719
32.2648
647.961
572.559
468.101
520.896
434.193
581.713
653.439
205.838
627.802
33.4892
502.997
32.1601
554.546
588.236
494.816
585.504
617.844
526.732
568.952
489.406
506.685
616.956
629.627
634.825
603.516
607.072
482.359
611.86
556.192
459.191
624.951
601.902
597.102
31.7079
652.581
573.521
622.096
438.702
32.1967
615.338
531.969
33.9308
393.944
620.079
467.425
428.919
599.003
272.288
600.055
399.389
175.201
36.0087
457.566
578.904
567.097
32.2475
599.724
493.497
596.503
72.9446
38.2183
552.869
592.177
462.878
344.705
587.934
33.5003
552.191
583.361
609.306
513.984
638.063
438.442
529.184
625.209
513.354
540.938
646.263
586.547
32.1863
37.12
593.228
502.139
594.234
472.348
54.0677
593.299
576.447
550.75
32.3172
588.458
586.958
598.415
73.2395
592.993
574.749
605.782
458.12
630.102
631.768
506.061
554.27
371.074
604.85
32.0919
635.227
546.458
546.852
503.92
587.994
617.219
454.411
40.6793
612.677
32.1257
586.831
605.376
491.585
590.483
611.423
39.3296
583.243
529.552
488.061
34.0535
458.884
608.608
425.745
435.953
590.224
560.743
578.389
117.423
584.166
420.843
495.496
599.442
609.903
634.049
504.784
498.143
563.35
642.107
608.402
31.6687
645.616
529.117
522.642
633.363
491.914
92.8733
509.256
31.3415
105.378
47.7854
616.924
607.253
639.511
365.361
612.769
613.348
601.224
585.605
617.716
587.202
607.368
608.551
616.85
33.7875
592.474
103.733
589.934
617.248
623.105
500.817
627.757
557.719
40.3758
424.76
582.55
535.891
611.084
571.262
615.952
38.0194
616.405
579.475
290.759
42.2034
602.491
437.369
437.058
635.926
617.222
622.676
596.287
507.538
32.4609
609.1
42.1774
604.053
415.862
36.8096
637.599
81.7479
617.706
595.24
599.713
34.1745
635.196
588.13
634.352
446.298
623.874
567.047
588.225
32.719
584.436
601.808
31.8996
589.428
588.859
639.728
619.642
53.9937
605.179
563.743
601.436
401.234
620.383
617.844
490.728
31.6548
592.459
560.928
71.4749
602.393
37.4337
559.688
33.5065
608.897
588.561
602.202
31.5196
32.5286
598.151
553.168
395.102
603.197
564.025
38.5452
588.361
489.925
600.952
501.599
578.693
53.874
601.669
511.141
597.207
630.201
645.522
610.477
619.693
35.3551
493.487
62.1418
88.8318
645.936
442.736
612.98
466.557
350.966
593.136
511.567
432.92
607.797
31.2002
44.0237
491.799
443.804
484.272
627.348
32.2779
611.62
610.078
544.756
36.5874
440.484
533.791
470.485
602.468
34.1715
32.1003
39.0974
586.511
32.597
37.7434
613.978
293.843
31.907
495.074
636.977
474.029
407.835
600.951
562.181
482.282
607.098
32.064
584.452
595.39
536.191
446.974
391.902
542.009
40.594
503.925
401.991
162.066
32.6226
456.111
476.334
418.59
500.267
603.232
600.809
615.28
542.449
489.126
595.902
440.495
603.588
633.164
51.1109
457.164
442.044
652.336
33.3937
570.624
607.981
36.836
601.445
627.722
628.275
587.162
639.99
574.976
33.7523
476.198
538.565
585.962
315.469
612.773
413.909
32.3175
605.994
588.25
629.791
586.554
629.159
609.96
626.773
424.375
598.503
599.31
494.251
508.336
399.712
584.826
45.0079
33.1601
605.19
448.409
652.918
650.352
567.474
489.755
621.102
427.09
607.746
623.349
586.324
32.5396
537.497
69.9101
564.991
547.53
590.245
636.153
593.726
522.44
500.762
434.278
599.656
414.179
265.088
32.0225
602.802
508.585
311.948
280.18
407.595
464.991
610.188
654.392
528.373
98.1154
532.96
510.728
585.856
613.345
613.356
585.295
499.675
592.997
584.861
394.503
609.936
32.6622
41.1353
68.7223
52.4282
32.0367
513.51
580.141
41.7369
610.044
610.58
605.91
651.648
32.4526
32.507
496.157
609.635
620.289
602.567
32.2664
591.841
83.7026
32.7371
580.312
575.443
32.2255
490.962
580.009
571.638
42.5274
32.2101
616.485
503.05
585.147
31.9836
440.631
563.48
51.4334
35.7332
61.0519
609.201
597.398
582.355
583.132
31.9686
602.366
650.641
436.68
32.3683
623.498
647.199
395.136
613.659
43.3656
33.5269
605.199
614.18
617.465
436.249
34.2309
607.149
31.9384
607.246
514.42
573.439
595.298
582.775
640.374
45.5126
585.854
648.043
623.418
500.501
620.512
31.6229
285.331
649.374
463.473
595.607
605.818
488.68
498.589
31.9293
37.1665
587.984
72.6518
445.734
32.643
542.322
638.42
628.562
618.581
52.5728
585.978
586.172
31.7827
32.609
560.297
32.2482
604.76
526.108
610.544
32.6747
603.528
109.682
610.658
47.94
605.384
591.913
608.251
512.406
575.774
602.526
32.0638
508.055
601.945
639.921
31.7793
632.238
540.419
33.6291
619.043
544.058
534.079
604.221
619.897
591.775
171.324
615.437
546.376
564.614
569.675
591.01
611.214
59.1252
411.832
421.586
594.508
476.888
573.714
654.6
553.669
645.673
288.438
32.1859
367.903
32.2165
639.526
592.61
605.068
46.2135
636.341
484.939
318.738
585.487
71.4643
647.095
655.894
453.952
34.925
32.0023
308.354
32.753
592.638
509.056
573.704
617.951
607.257
512.749
605.77
547.961
33.0214
597.427
599.661
509.169
452.523
608.901
600.245
32.5169
629.946
503.16
596.096
34.266
550.235
40.2354
557.878
616.699
643.81
573.769
39.1854
391.932
570.016
598.443
596.519
32.4838
35.1895
33.153
614.22
582.558
441.977
617.394
592.696
611.182
32.1876
466.348
626.651
535.911
577.259
44.0365
651.417
423.746
551.272
610.875
607.143
649.687
646.361
564.7
40.479
33.4223
32.1924
42.5541
37.4682
36.1049
40.3072
446.039
610.025
50.7818
32.3133
137.742
597.548
538.917
532.497
593.318
112.804
32.7008
493.002
591.189
541.061
463.32
553.79
32.0938
483.461
528.072
596.655
31.6623
167.738
632.665
535.195
572.743
489.178
601.249
627.714
627.424
617.326
524.555
591.114
598.046
425.202
32.2354
570.918
512.794
32.038
449.954
562.437
286.183
522.242
31.5482
633.289
619.32
620.082
629.686
574.307
604.465
379.591
555.907
512.468
654.354
585.787
622.622
32.1087
36.2325
32.573
390.214
478.983
606.875
535.732
628.701
610.106
34.107
547.406
584.39
607.001
39.9449
180.531
525.835
502.044
626.212
588.242
632.581
376.496
546.78
639.071
40.1764
616.387
32.2149
639.373
32.5706
636.756
595.537
604.913
482.923
449.992
601.103
588.022
635.471
632.215
55.0693
52.2552
59.2101
584.736
444.338
595.87
630.851
566.769
631.094
607.096
31.5128
424.392
634.69
567.718
36.9416
406.938
32.2172
32.2275
419.019
610.296
446.613
50.5285
413.055
31.7897
632.544
614.705
639.596
611.836
39.8182
602.135
637.235
587.009
32.5972
614.026
600.334
33.5091
638.046
35.7692
369.928
572.177
628.879
469.762
412.085
76.1011
632.04
407.612
630.659
584.909
602.418
633.045
490.205
643.935
528.555
613.296
643.593
569.537
617.847
590.207
635.953
382.234
512.71
629.819
475.689
592.835
591.969
655.5
629.681
593.326
382.034
536.388
628.773
482.08
611.498
499.929
41.3445
32.1247
618.113
551.343
32.2512
595.221
466.596
552.547
32.0408
395.847
32.2696
474.176
610.459
497.31
607.2
621.951
544.44
121.37
504.733
403.329
384.464
42.9913
31.9573
581.565
31.94
546.634
170.645
32.0575
579.102
590.033
31.4439
508.138
568.241
462.671
34.0293
429.483
567.291
32.0527
589.001
37.9456
32.1294
586.774
787.504
232.065
32.3529
31.7205
32.102
31.382
600.817
452.652
514.454
492.565
565.181
440.862
562.882
32.0574
525.992
495.559
545.319
31.9739
534.203
472.636
318.214
33.6857
619.36
600.749
606.974
108.413
590.426
609.665
33.5693
591.326
89.0864
496.929
32.4516
563.922
589.828
267.483
399.856
542.374
31.2767
48.8278
543.223
561.313
500.167
562.62
513.55
451.8
513.703
578.076
493.679
499.388
619.734
31.8823
587.276
590.458
656.662
497.49
513.385
590.874
572.473
605.424
466.824
525.076
32.0686
600.586
637.553
39.6011
619.67
623.158
531.344
628.032
45.0853
508.535
447.323
150.009
599.056
37.7082
587.611
624.119
483.439
33.7986
626.015
298.081
589.465
543.176
619.168
496.303
630.518
32.8587
401.119
279.834
451.831
537.933
629.832
637.001
638.901
418.585
504.833
588.548
629.927
610.357
610.867
580.702
635.568
605.861
510.434
632.12
494.669
32.0015
448.729
431.662
606.354
508.074
585.807
575.98
554.514
597.12
496.338
32.1042
503.398
528.443
578.992
613.453
428.87
591.81
56.6347
71.7555
35.2484
487.602
632.15
560.583
581.47
561.118
425.064
640.432
32.2301
498.895
34.2182
470.136
586.297
600.364
31.8164
600.54
602.492
334.547
469.018
611.116
31.8727
573.537
625.114
526.821
559.239
481.666
489.904
617.283
534.306
362.56
527.248
504.174
613.217
593.819
647.276
458.653
541.843
623.086
501.404
34.8034
43.2953
34.8578
549.244
180.903
480.076
622.938
592.222
484.996
583.686
525.772
35.5948
593.324
611.814
547.398
107.428
503.665
625.413
514.51
32.4184
641.993
32.5798
384.628
596.036
37.1485
316.173
553.911
622.934
583.133
653.444
636.112
319.524
33.8682
496.32
56.3056
598.391
35.6338
523.941
630.153
615.787
636.963
588.174
550.402
36.4844
578.133
548.519
620.436
446.047
610.752
592.778
619.294
389.549
608.459
32.7036
32.1335
655.132
581.641
657.424
648.427
453.099
560.053
32.1713
593.831
606.843
595.27
293.483
617.918
574.138
35.563
590.988
481.626
504.931
610.177
31.6982
535.572
32.4515
613.852
493.966
620.789
352.201
58.7587
501.062
596.223
548.815
54.8077
528.946
658.085
604.135
629.889
653.584
600.021
599.485
33.2954
637.244
543.03
436.829
591.711
607.356
586.836
529.528
539.841
591.737
51.651
69.6935
451.268
39.4411
486.505
516.404
32.6156
34.8404
495.885
33.1981
74.6467
32.1537
486.187
633.993
58.4285
34.1604
71.5694
510.067
41.4545
532.128
497.327
564.889
557.547
589.4
645.289
583.956
43.2024
512.132
589.951
605.703
490.365
528.945
429.052
584.198
589.043
487.987
604.295
613.849
505.157
32.9162
624.578
658.156
601.13
472.95
471.137
536.973
602.362
596.714
32.4477
32.4241
444.384
251.51
610.361
467.269
565.278
515.41
591.017
617.328
581.743
40.374
606.944
500.318
581.027
608.82
573.978
587.25
32.8924
539.486
63.1119
32.2165
567.602
436.11
32.2231
450.104
521.157
34.2327
498.973
364.643
488.549
32.6965
563.042
48.7237
652.882
39.5608
605.485
502.925
32.7757
584.623
40.9574
413.914
32.2865
589.845
507.758
633.297
511.292
555.314
558.698
612.034
618.939
31.4891
48.9321
44.5927
493.687
598.108
483.446
587.259
600.533
446.003
32.6771
132.546
446.166
638.617
594.886
593.086
32.1443
55.0418
532.518
399.159
615.329
454.982
42.8829
53.9174
606.487
594.585
32.5505
625.299
621.106
544.306
595.535
613.905
513.409
32.0555
32.529
586.505
612.498
630.016
410.181
32.6616
583.302
652.249
32.3488
606.679
126.482
37.6842
57.7009
565.447
47.4085
32.4324
611.278
534.87
559.727
283.366
454.378
616.289
597.066
54.1244
386.945
597.128
449.202
528.549
606.736
432.135
32.4294
38.1142
32.6378
560.293
439.752
612.275
32.1084
32.3564
32.3555
45.7131
32.0959
609.891
514.654
590.782
589.005
589.746
594.953
574.793
592.894
35.5679
318.239
32.7807
571.433
442.727
357.532
606.447
593.5
32.0467
581.332
31.1186
34.5431
576.098
613.393
31.7872
606.695
603.542
633.3
603.998
609.696
32.1357
607.258
32.8918
32.0479
607.064
586.912
613.245
617.793
612.224
649.954
67.8845
594.622
32.7436
520.941
598
613.415
580.89
626.667
582.13
527.644
32.291
39.8421
505.245
45.6338
583.548
611.006
593.625
652.496
558.93
45.9936
599.373
31.2319
429.828
33.6693
477.885
599.252
641.353
609.926
32.1163
596.358
609.571
632.102
629.878
608.75
585.255
554.665
32.8514
480.667
622.3
623.707
590.012
527.881
582.651
49.2271
37.2181
628.669
33.1076
40.5169
77.0845
46.0021
606.527
600.012
64.5549
32.8142
641.793
39.7083
35.0071
616.278
563.129
560.099
31.3563
578.068
594.187
49.6316
459.682
44.8003
609.523
602.987
580.114
41.6573
490.402
577.336
652.183
613.068
492.319
625.613
624.324
599.591
585.32
598.938
616.581
557.961
381.254
607.021
614.381
32.5446
603.55
564.385
405.461
411.3
507.673
584.435
31.3547
574.673
416.485
33.2953
483.442
593.479
519.427
546.409
607.579
43.4838
295.529
31.5354
622.787
582.899
648.625
457.444
579.036
517.513
33.3354
613.534
634.04
589.945
477.208
567.171
609.038
42.3714
64.7787
66.7901
592.514
447.06
598.713
579.408
465.554
32.9902
484.46
635.1
445.029
619.062
565.187
324.685
313.959
620.869
606.682
490.599
574.472
538.299
594.577
578.718
63.0028
618.687
563.086
473.126
607.908
31.874
43.399
44.7717
490.279
479.704
503.732
32.6531
587.265
458.857
557.153
568.315
32.9263
461.174
571.587
603.209
567.508
514.524
637.76
33.6787
605.457
615.655
411.698
601.826
593.657
611.319
599.766
32.5107
527.775
562.217
489.104
594.571
193.821
581.688
343.141
600.077
33.6096
32.1421
43.6497
584.961
597.693
590.101
603.215
38.9255
558.919
34.415
588.376
496.291
437.083
32.065
518.277
608.116
39.4302
583.875
582.809
604.271
582.463
43.1224
609.282
604.609
597.171
509.287
590.571
633.654
465.343
31.7757
594.76
654.744
610.524
34.6235
621.421
644.052
475.631
510.819
489.134
33.1418
624.385
37.3625
558.338
35.6902
653.363
389.52
647.556
588.922
42.4196
625.623
633.713
523.461
451.009
510.45
33.6385
563.935
565.636
33.4843
645.648
485.663
572.994
37.0476
33.0054
608.133
644.162
608.099
605.255
637.683
650.148
615.773
32.4917
652.273
600.303
615.299
648.276
590.074
67.0815
588.271
565.182
38.8918
408.645
88.9048
645.291
616.911
485.739
420.843
32.6813
35.7555
445.968
35.8778
613.06
445.269
623.659
580.056
639.606
598.138
623.444
585.26
524.152
461.751
498.708
572.094
609.577
657.207
612.449
605.51
542.383
598.94
653.654
32.7168
489.079
32.0334
607.21
36.3053
576.866
357.953
653.615
613.111
38.6829
622.118
600.355
607.192
633.679
605.48
591.851
421.668
410.64
603.345
32.0528
502.096
435.331
593.453
272.888
50.6065
34.8471
639.33
495.657
588.952
634.755
595.286
642.587
509.833
34.1366
34.4044
32.0994
608.84
611.522
648.552
564.074
34.0389
640.016
37.1728
324.786
497.65
606.471
437.917
557.784
32.6109
537.727
627.061
33.2266
513.828
609.968
47.2086
633.784
582.185
656.122
580.334
396.398
39.4123
302.108
567.572
606.366
451.433
569.537
615.258
571.491
607.263
572.763
576.222
33.7478
606.86
502.697
33.4172
599.146
575.762
623.874
553.241
601.007
579.531
639.112
614.305
448.134
507.298
32.2392
581.536
551.734
581.372
559.047
607.643
583.386
32.5107
613.699
547.264
583.481
626.025
32.438
33.6146
33.4825
507.861
537.276
32.3715
38.2342
595.884
513.816
55.8181
420.91
584.758
541.072
511.229
355.954
588.903
499.592
324.385
457.347
606.517
644.825
399.217
606.931
558.328
32.6183
527.403
256.422
629.068
567.386
620.679
565.209
615.878
33.0763
609.39
566.791
591.48
594.108
582.68
584.438
594.649
576.865
652.856
654.455
622.257
609.377
627.371
565.33
474.275
525.78
612.805
573.998
587.374
32.7488
565.5
438.58
503.22
583.206
589.107
609.813
32.2459
615.9
406.434
643.798
32.937
421.295
32.0747
675.59
362.536
592.437
440.974
640.571
32.1767
641.121
35.0826
600.304
640.248
636.768
32.1532
581.001
513.697
32.8724
608.18
37.0977
70.9846
83.4125
591.764
610.806
32.7243
562.146
33.6028
444.265
33.6342
32.1565
599.015
443.579
435.151
47.7138
630.077
534.65
605.537
599.178
570.326
50.8232
439.742
641.015
32.0656
601.356
35.9564
35.5039
46.4428
612.262
567.786
32.6892
599.751
595.906
559.05
605.836
555.885
565.299
592.389
573.612
582.833
623.178
605.859
622.552
31.5988
41.6544
621.399
96.784
46.496
48.0636
159.411
655.173
591.391
39.6475
583.488
62.7793
32.1784
651.092
586.296
623.456
32.1041
607.056
384.627
537.445
618.354
31.9469
31.6732
43.5173
33.9015
587.193
593.234
623.836
623.679
54.4046
606.458
32.5875
633.796
31.7949
394.358
32.5755
35.0027
553.96
32.6511
32.2054
627.489
621.893
31.2823
619.63
500.331
601.494
44.9271
31.674
616.268
33.3836
33.2205
60.539
639.589
32.1858
576.075
32.7086
613.46
96.8621
32.3696
616.958
567.752
32.1561
582.572
32.6139
42.7135
33.3246
458.091
480.071
621.724
630.954
608.063
618.928
572.698
647.253
585.409
32.2456
589.185
608.991
577.064
609.06
32.5481
371.333
557.947
33.7607
469.542
462.809
425.363
619.775
505.595
584.45
563.465
477.65
603.094
619.73
368.933
33.5069
32.3001
618.29
446.544
32.642
31.4457
32.4621
49.1914
548.088
634.363
31.9995
325.01
32.4516
627.816
476.344
245.503
624.294
604.393
521.334
657.564
514.693
532.262
550.819
561.767
483.042
512.77
614.61
640.401
556.331
373.024
527.631
645.761
522.269
606.776
526.026
598.49
553.613
633.339
32.3777
518.475
509.67
32.2542
32.3808
474.88
558.009
618.154
396.643
583.058
45.1973
587.973
616.598
444.378
31.6724
620.834
32.5956
598.097
32.6531
586.489
490.59
610.307
586.865
642.064
442.65
597.78
430.634
561.307
32.3762
605.451
378.537
31.8743
441.947
32.0266
524.291
615.821
593.355
550.134
33.0829
621.16
620.621
33.214
595.473
605.767
33.1151
594.834
608.255
32.8434
531.198
502.555
498.006
639.136
32.0871
32.2387
584.358
38.9428
32.254
32.0389
559.241
457.829
599.584
536.747
31.2302
622.756
32.9538
57.9937
544.882
439.066
584.692
39.4524
32.0561
34.9552
34.0555
579.392
649.478
582.644
571.612
31.4178
644.75
404.98
569.06
594.664
569.744
410.196
31.7164
508.966
32.1549
59.8276
654.564
487.021
634.684
31.8868
576.515
32.2347
39.2048
397.961
500.353
32.0236
595.239
632.132
639.991
627.09
650.502
430.34
31.9732
518.176
32.7629
588.266
431.479
610.732
476.091
452.917
344.953
593.399
444.412
602.965
32.086
31.8881
612.737
583.446
594.206
450.426
358.716
510.657
650.776
635.578
635.152
52.8721
622.112
467.675
42.059
34.5787
608.733
32.9598
311.391
34.8469
493.921
649.619
594.824
403.904
78.1223
514.676
595.241
592.896
584.926
32.0598
595.717
598.805
467.308
585.605
655.566
471.105
537.817
32.1471
406.211
611.3
32.0753
33.035
40.3445
631.119
634.502
32.8118
395.703
620.632
563.955
550.159
604.361
32.6908
577.654
611.755
32.4439
393.949
635.702
47.3905
368.053
582.939
553.422
468.446
485.109
589.72
605.842
441.594
605.301
629.094
33.3685
37.3244
645.317
457.402
43.7378
626.71
370.454
56.4246
549.396
619.177
430.075
582.398
592.701
32.4436
32.9805
33.8975
628.539
444.158
596.998
619.962
36.3951
466.203
32.4385
478.984
604.849
561.311
632.645
32.0172
41.7475
617.836
537.184
565.01
31.7808
630.737
593.517
609.569
581.133
581.302
512.733
32.4569
382.34
606.829
628.882
32.4153
459.664
34.6591
32.8838
625.206
579.85
32.4847
632.295
544.124
46.6557
618.898
654.825
593.762
505.91
473.306
576.095
451.111
628.547
45.575
388.654
614.594
601.24
620.197
613.547
284.106
425.751
468.904
32.3718
31.983
32.175
32.5942
531.899
31.655
616.532
409.177
544.299
489.377
609.159
566.944
32.7459
43.8223
631.231
619.602
581.303
456.147
593.106
474.088
32.9293
550.577
32.5601
604.547
33.3022
41.4141
34.4664
466.804
622.6
214.461
31.9772
429.777
32.6684
40.441
526.25
31.4391
429.567
597.327
592.357
508.936
35.4936
32.0392
38.5435
145.505
555.996
624.338
579.397
32.0707
651.447
32.9364
594.196
36.0897
36.259
619.572
595.116
46.7625
561.778
631.809
31.6206
35.2825
31.8507
113.747
31.9312
513.174
538.32
37.8211
600.742
509.594
583.715
444.935
93.2836
435.743
569.628
447.395
31.4356
570.351
32.6705
437.754
581.925
607.782
560.528
623.947
79.876
59.1
583.239
453.521
585.944
32.4511
622.748
31.7408
620.431
555.394
535.681
586.461
31.5685
621.263
481.356
612.614
461.351
542.032
452.05
32.0032
549.367
623.985