/*--------------------------------*- C++ -*----------------------------------*\
| =========                 |                                                 |
| \\      /  F ield         | OpenFOAM: The Open Source CFD Toolbox           |
|  \\    /   O peration     | Version:  v2012                                 |
|   \\  /    A nd           | Website:  www.openfoam.com                      |
|    \\/     M anipulation  |                                                 |
\*---------------------------------------------------------------------------*/
FoamFile
{
    version     2.0;
    format      ascii;
    class       surfaceScalarField;
    location    "200";
    object      ddtCorrDdt0(phi);
}
// * * * * * * * * * * * * * * * * * * * * * * * * * * * * * * * * * * * * * //

dimensions      [0 3 -2 0 0 0 0];
oriented        oriented;


internalField   nonuniform List<scalar> 
20392
(
-0.000484605
5.50532e-05
0.000429551
6.172e-05
-5.40292e-05
-7.69131e-06
2.52133e-06
-3.64613e-06
1.1252e-06
1.34396e-06
-2.7338e-06
1.38999e-06
0.00157723
-0.00110769
-0.000469532
-1.99978e-06
-1.91383e-06
3.91364e-06
-6.75534e-06
-1.53979e-05
2.2154e-05
-5.17978e-07
3.43117e-08
4.83676e-07
0.000118765
-0.000164837
4.60739e-05
2.66345e-06
-1.31941e-06
2.21886e-06
-4.21866e-06
-7.13549e-06
8.98995e-07
6.23662e-06
-2.2968e-06
4.81808e-06
-0.00239693
0.00196304
0.000433894
3.16538e-06
-3.32585e-06
1.60517e-07
-0.00110068
-0.00129625
0.000100174
-0.00111155
0.00101138
7.14976e-07
-6.759e-07
-3.92528e-08
0.00266221
0.00123536
-0.00389757
5.63844e-06
-4.0062e-06
-1.63221e-06
-3.47014e-05
-0.000118147
0.000152845
3.19182e-05
-7.30463e-05
4.11286e-05
0.000554701
-0.000106187
-0.000448514
-2.13201e-06
1.01046e-06
1.12182e-06
-1.68095e-06
1.32377e-06
3.57284e-07
3.57713e-06
-3.49144e-06
-8.56394e-08
-4.08177e-06
1.93865e-05
-1.53047e-05
-1.26243e-05
4.63994e-05
-3.37748e-05
-4.68007e-07
-2.71423e-05
2.76087e-05
-9.99801e-05
0.000105027
-5.04661e-06
0.0015726
-0.000869339
-0.000703263
7.24445e-05
-0.000241808
0.000169364
-3.29599e-05
0.000151726
4.10818e-07
2.75463e-06
-0.00252796
0.00396351
-0.00143556
-2.89684e-05
-1.48108e-05
4.37811e-05
2.05259e-05
4.33602e-05
-6.38848e-05
-8.96957e-06
1.00609e-05
-1.09119e-06
-0.000248081
-0.00227988
2.57394e-05
-4.65405e-07
-2.52734e-05
9.23851e-07
-5.47359e-07
-3.76384e-07
0.000157475
-0.000199242
4.17712e-05
-4.12365e-06
3.22147e-06
9.02112e-07
5.77968e-05
9.27604e-06
-6.70729e-05
5.75031e-05
-0.000191469
0.000133966
-2.55318e-06
-1.57053e-06
6.38514e-05
-6.39524e-05
1.01084e-07
-0.000226965
-0.000532965
0.000759937
7.78034e-06
-2.3011e-06
-5.47939e-06
-3.57303e-06
2.52328e-06
1.05006e-06
-1.41012e-06
-7.21661e-07
0.000141093
-8.359e-05
-1.66038e-05
1.35528e-06
1.52488e-05
-4.83968e-06
4.64479e-06
1.94708e-07
2.24427e-06
-2.26158e-06
1.74966e-08
1.99864e-05
-2.67414e-05
-7.80818e-05
4.61672e-05
3.19154e-05
-2.05799e-06
1.39394e-06
6.64047e-07
2.913e-05
0.000111963
4.66524e-05
-4.49906e-05
-1.66124e-06
0.000169117
-9.66736e-05
-0.000366502
-6.62731e-05
0.000432817
0.00112962
-0.000347837
-0.00078178
0.000365304
0.000189398
-3.40345e-05
2.61019e-05
7.93348e-06
0.000158082
-0.000273081
0.000114998
3.06053e-06
-3.14727e-06
8.68345e-08
0.00159454
-0.00268605
0.00109151
-1.26706e-05
-3.93312e-06
-3.90703e-05
-0.000445533
-6.38396e-06
6.38733e-06
-3.39168e-09
0.000353242
-0.000951713
0.000598472
-4.93686e-06
-3.49734e-06
8.43427e-06
8.21278e-05
-7.77738e-05
-4.35391e-06
-7.22455e-07
2.64033e-06
-1.91751e-06
0.000317111
-0.000428884
0.000111773
-2.75177e-06
1.81472e-06
9.37226e-07
-1.63165e-06
-8.32037e-07
2.46365e-06
2.24241e-05
3.31531e-06
3.53203e-05
2.63994e-05
-0.000244839
0.000245669
-8.09993e-07
-1.36499e-06
-5.01888e-06
-4.2188e-05
4.81474e-05
-5.95879e-06
-1.92364e-06
3.75504e-05
-3.56267e-05
-2.34804e-05
-2.82189e-05
5.17037e-05
-1.04696e-06
2.44054e-06
-1.39357e-06
-0.00204222
-0.00110266
0.00314488
4.29255e-06
-1.23192e-06
-7.08213e-06
-2.9023e-05
3.61033e-05
-1.00362e-05
-2.39985e-05
8.10069e-05
1.47086e-05
-9.57155e-05
-0.000344168
9.93478e-05
-1.9232e-06
4.14205e-06
0.0018133
-0.00171312
2.50141e-06
-2.57004e-07
-0.000130929
0.000114306
1.66241e-05
-6.55767e-05
0.000133777
-6.81981e-05
1.48921e-05
-5.70809e-05
-0.000307949
0.000156624
0.000151338
-3.78736e-05
3.00986e-05
7.7754e-06
3.68469e-05
7.63702e-05
-0.000113215
-0.000306158
-4.74914e-05
0.000353653
-2.76507e-05
2.35689e-05
0.000102284
-2.42054e-05
-7.80828e-05
2.04251e-06
-3.96572e-06
-2.08498e-07
6.09649e-07
-4.01111e-07
6.70018e-05
1.40046e-05
5.53554e-05
0.000359434
-0.000414798
2.73765e-07
-1.90545e-06
-7.68216e-05
-2.31589e-05
-8.06179e-06
-9.07672e-07
-0.000277253
-0.000802972
0.00108022
2.91987e-05
-3.73768e-05
8.17765e-06
2.66373e-06
-2.46275e-06
-2.0121e-07
-2.00442e-05
-6.57263e-06
2.66169e-05
0.00291264
-0.00131809
-1.4819e-06
-1.26974e-06
-5.42842e-06
-1.70675e-06
-3.71371e-07
2.88144e-05
-2.84431e-05
-1.25292e-06
-2.32045e-06
2.82503e-06
1.19462e-06
-4.01952e-06
0.00194657
-0.00160757
-0.000338993
-1.66836e-06
-6.74377e-07
2.3428e-06
-8.67572e-06
4.8618e-08
8.62678e-06
-4.94091e-06
2.65448e-07
4.6754e-06
2.66563e-05
-2.71242e-05
0.000749327
0.00119725
5.20289e-07
4.03601e-07
-8.82355e-06
1.47695e-07
-0.00140192
0.00156141
-0.000159491
-1.17939e-06
6.50309e-05
0.000344464
-0.00238667
-3.31766e-06
3.45464e-05
-3.1228e-05
-0.000171925
-0.000136032
-4.4087e-05
0.000201565
6.79268e-06
5.1004e-05
-3.78749e-05
8.90668e-06
4.69889e-05
-5.03068e-05
-0.000240324
0.000106634
0.00013369
-3.81315e-06
-2.3972e-06
6.21036e-06
-1.37413e-05
9.07583e-05
-7.70166e-05
5.738e-05
-2.75989e-05
-2.9781e-05
3.72572e-06
9.25053e-07
-4.65071e-06
5.38645e-05
-1.27315e-05
1.7474e-05
-4.74234e-06
-3.75706e-05
4.69444e-05
-9.37373e-06
5.23294e-05
-5.94109e-05
4.2612e-05
-1.34132e-05
-3.53388e-06
8.56623e-05
-2.94238e-05
1.23913e-05
1.70332e-05
1.36359e-05
4.37443e-05
-2.6982e-05
8.76929e-05
-6.07111e-05
-2.58033e-06
9.12005e-07
0.000827796
-0.000474556
-3.33195e-05
-8.7056e-06
4.20252e-05
-4.67182e-07
2.5879e-07
0.000379808
-0.000685965
-0.000140693
-0.000562864
0.000703554
0.00036491
0.000764694
-1.20273e-06
2.99255e-06
-1.78974e-06
-3.03182e-06
2.74001e-06
2.9163e-07
-1.97305e-06
4.01557e-06
-0.00106719
0.000146246
0.00092094
-2.18065e-05
-1.7541e-05
3.93476e-05
-0.00288068
0.0025875
0.000293177
-3.84316e-06
3.67065e-06
1.72868e-07
-9.39471e-08
4.41026e-06
-4.31613e-06
1.72076e-06
-3.78006e-07
-1.34269e-06
-2.64379e-05
-2.34012e-05
4.98374e-05
0.000489848
-0.000630542
-3.19847e-06
2.54819e-06
6.50056e-07
-3.61994e-06
1.64694e-06
-1.74406e-05
-6.06397e-05
0.000177141
-8.14663e-05
-9.56746e-05
-0.00113885
-0.0015472
-3.21014e-06
-6.32898e-07
-3.51063e-06
0.000190006
-0.000186495
-0.000120812
1.88759e-05
-3.15004e-05
-0.000739922
-0.000184108
0.000924028
4.0173e-07
1.06492e-06
-1.46674e-06
1.01756e-06
-2.69116e-05
2.58953e-05
-0.000247623
0.000244112
5.48673e-05
-3.59207e-07
-5.45085e-05
5.68944e-07
-2.86594e-06
1.23945e-06
-5.0526e-06
-2.91759e-06
3.52407e-06
-6.06449e-07
3.61074e-06
-3.95269e-06
3.42125e-07
2.74132e-05
-7.13268e-05
4.39145e-05
-0.000678427
0.000330587
0.000354534
0.00122269
-0.000669843
0.000591564
7.82854e-05
3.31401e-06
-8.96245e-07
-2.41689e-06
-2.44555e-06
-5.861e-07
1.33924e-06
-2.3862e-06
3.82593e-06
-2.15152e-07
2.2562e-05
-2.29334e-05
-2.09771e-05
5.45697e-06
1.55197e-05
7.26972e-06
-7.25979e-06
-9.46712e-09
-0.000491292
-0.000460421
-5.45061e-05
6.41917e-05
-9.685e-06
3.30892e-06
-4.56735e-05
1.23553e-05
-8.2652e-05
-3.74833e-05
0.000120137
2.12298e-06
-3.49596e-06
1.37331e-06
-0.00331464
0.00487818
-0.00156353
0.000196659
-0.000179367
-1.72904e-05
4.76404e-05
-2.71106e-05
2.34206e-05
-3.93581e-05
1.59376e-05
-4.56836e-06
-3.72535e-07
-2.64049e-06
1.91826e-06
0.00133538
-0.00243804
-1.50182e-06
-5.55948e-07
1.87262e-05
8.99219e-06
-2.77193e-05
-6.06208e-05
-2.04716e-05
8.10932e-05
0.00073166
-0.00508155
0.00434988
-9.10672e-07
-1.53473e-06
2.79602e-05
-0.000110612
-1.9147e-07
3.76903e-07
-1.85582e-07
4.31327e-06
-5.8755e-07
3.16565e-05
-8.23586e-06
8.63386e-05
-0.00010008
-8.0961e-05
-0.000118278
1.38109e-06
-9.79265e-07
-0.00595169
0.0044704
0.0014813
0.00133017
-0.000975642
5.13024e-05
5.3283e-06
-5.6631e-05
-0.0010376
0.000559612
0.00047799
0.00181153
-2.20407e-06
-7.13439e-07
-0.00128849
-0.0046632
4.37652e-05
-3.12579e-05
-1.25077e-05
-1.04329e-06
1.4683e-06
-4.24705e-07
2.68578e-06
8.91342e-07
8.82445e-07
-2.10988e-07
-6.7141e-07
8.05813e-06
-4.82032e-06
-3.2377e-06
9.56142e-05
0.000125134
-0.00022075
-3.60265e-05
-0.000673017
0.000709042
-0.000846488
1.76085e-05
0.000828876
-0.00018925
-5.10745e-05
-0.000455585
0.000416515
0.00102544
0.000547162
-1.31562e-06
0.00102757
-0.0010636
6.63968e-07
9.56737e-07
-1.62049e-06
3.86833e-06
-3.96223e-06
1.94396e-06
-3.29762e-06
1.35375e-06
3.76098e-05
-1.88846e-05
0.0012495
-0.00191935
-0.000288544
-0.000447983
6.65767e-07
1.05502e-06
-7.79927e-07
1.3724e-06
-5.92626e-07
0.000121305
-0.000119765
-1.54403e-06
-0.000271014
-1.98751e-05
0.000290888
-0.00151662
0.00188152
-6.35952e-06
-8.20468e-07
7.17996e-06
7.18786e-05
0.000105262
-0.000103645
3.74059e-06
9.9909e-05
4.11988e-07
-6.03688e-07
-2.4449e-06
-6.41155e-07
3.08605e-06
-4.95413e-05
-1.10794e-05
1.77713e-05
-8.47135e-05
6.6937e-05
2.49387e-06
7.5672e-06
4.2357e-06
9.00377e-06
-1.32394e-05
6.03434e-05
-0.000118765
5.84253e-05
2.24946e-06
5.80875e-06
1.74079e-06
-3.93114e-05
0.000296748
0.000555056
-0.000851803
-1.96777e-05
5.15972e-05
-6.66581e-07
1.24881e-06
-5.82215e-07
-6.46462e-05
9.37762e-05
-2.30282e-06
-8.62099e-07
3.16469e-06
8.15528e-05
-0.000116253
4.03922e-05
-0.000105968
-0.000567268
0.000340307
2.50509e-05
-2.32244e-05
-1.82575e-06
0.000649305
-0.000268787
-1.12563e-06
-5.55244e-07
-6.21895e-05
1.18811e-05
5.03128e-05
-5.7694e-06
5.34506e-06
4.24551e-07
0.00648847
-0.000544213
5.20706e-06
3.85584e-05
3.69154e-06
2.28533e-05
-2.65444e-05
-2.51701e-06
1.60671e-06
0.000270386
-0.00103736
0.000766973
-9.93509e-07
3.26843e-07
-1.9933e-05
-0.000441362
0.00046129
-0.000952403
0.000675151
-3.12662e-06
6.81817e-07
0.000108011
-8.05963e-05
6.68631e-05
0.0012633
-2.69333e-05
-7.67103e-05
2.67209e-05
-2.57039e-05
-8.40365e-07
2.43953e-06
-1.59906e-06
6.39476e-05
-4.61749e-05
5.83543e-05
-1.49923e-05
-1.75184e-07
-1.04021e-07
2.78967e-07
-8.36043e-08
-2.17774e-06
0.000163897
-0.000619482
-7.1895e-07
-2.73222e-08
7.46387e-07
3.48758e-05
-0.000480989
-0.0003655
0.000415506
-0.000563295
0.000147775
6.16762e-07
2.1519e-06
-2.76893e-06
1.65298e-05
3.01229e-05
0.000796428
0.000273349
-0.00106977
-8.18662e-05
-1.82964e-06
2.84564e-07
1.54503e-06
0.0013583
-0.000338285
-0.00102
2.10738e-06
2.13827e-06
-4.24561e-06
6.14335e-06
2.01271e-06
-8.1559e-06
1.85629e-05
-3.10465e-06
-1.54587e-05
-0.00243196
0.00114971
0.00128226
-2.19339e-06
9.46372e-06
-1.63854e-05
-4.59285e-06
2.82204e-06
-8.78129e-07
-3.01241e-05
8.54728e-05
-2.68023e-06
0.0001637
2.782e-06
2.85643e-06
-4.95726e-06
1.46407e-06
3.49327e-06
3.7501e-06
-2.49932e-06
3.1159e-06
-0.000521208
0.00067929
-7.05439e-06
2.11765e-06
5.77368e-06
-5.07463e-06
-6.98444e-07
-1.30633e-05
3.41124e-05
-2.10482e-05
-1.38541e-06
-3.57179e-06
2.08232e-06
-3.02543e-06
9.43336e-07
4.41973e-05
-3.47068e-05
-9.51176e-06
2.21861e-05
-5.9161e-06
-1.62688e-05
-2.25656e-06
3.73829e-06
-1.48164e-06
-7.54451e-07
2.58917e-06
-1.83473e-06
-2.8096e-05
6.91163e-05
-4.10192e-05
2.71694e-06
-2.58306e-06
-1.33976e-07
3.18153e-06
-1.05842e-06
9.86132e-06
-1.38876e-05
4.02525e-06
-1.72963e-07
-3.45077e-07
-1.90613e-05
-3.54436e-05
0.000707216
-0.00100496
0.000297742
-3.81879e-06
-1.91998e-06
5.73874e-06
0.00134592
3.64591e-06
-8.09076e-05
5.28123e-05
3.56478e-06
-2.66579e-06
5.11353e-06
2.21785e-06
-7.33123e-06
-3.13443e-05
-4.7718e-06
3.61159e-05
2.30386e-06
1.6259e-05
-8.34111e-07
1.31829e-06
-4.84158e-07
-4.32662e-07
-1.2866e-06
1.71936e-06
-0.000302633
-0.00351378
0.00381643
1.82499e-06
-4.1278e-06
-0.000115222
4.63341e-05
6.88881e-05
-2.05677e-05
-5.52e-06
2.60877e-05
-0.000727993
-0.000309607
5.12384e-06
2.6566e-06
4.60472e-06
-6.9058e-06
5.99865e-07
-9.84652e-07
3.84667e-07
-0.000749772
0.00115194
-0.000402167
-2.64038e-07
-1.23757e-06
0.00361018
-0.000947971
-1.55424e-06
-5.21201e-07
2.07519e-06
0.00023225
0.000187728
-0.000419984
6.66206e-06
-2.67064e-05
0.000210633
-0.00131832
7.32152e-06
-2.20794e-06
0.000205161
-0.00308584
2.83987e-06
-2.59986e-07
-2.57995e-06
1.94019e-06
-4.69313e-05
4.46307e-07
-1.32387e-06
-1.87465e-06
-0.00011121
-0.000380083
-8.75286e-08
-3.40392e-06
5.57118e-07
1.5783e-07
-0.000334962
0.000144191
0.00019077
-4.71437e-06
1.80896e-06
2.90538e-06
-1.71235e-06
-2.81573e-06
4.52804e-06
-3.28593e-05
1.10528e-05
-0.000219545
0.000206677
1.28699e-05
-0.000500971
0.000308138
0.00019283
-0.00222787
0.00118831
0.00103956
1.4384e-06
-7.40566e-07
-6.97789e-07
2.11774e-06
-5.52173e-06
3.40398e-06
7.44529e-08
-2.33749e-06
2.26316e-06
-0.00094547
0.00121586
2.08357e-05
1.41442e-07
-2.09776e-05
0.000376224
0.000136338
0.00120958
-0.000105111
-0.000217425
0.000322521
0.000102477
2.07799e-05
-0.000123255
-0.000863008
-1.40863e-05
0.000877085
5.03632e-07
1.06053e-07
-1.996e-06
1.56341e-06
-5.12247e-05
-0.000168319
0.00085101
-2.03811e-05
1.76173e-06
1.86204e-05
3.25613e-06
-2.80244e-06
-4.53525e-07
-6.32857e-06
6.71806e-06
-3.89405e-07
-2.0869e-06
-9.08011e-08
2.17755e-06
0.000147882
0.000301279
-0.000449161
-4.12828e-05
8.28775e-05
-4.15947e-05
-1.453e-06
-2.98912e-05
-2.71033e-06
-2.00398e-06
-0.000744084
0.00100252
-0.000258442
-0.000817959
0.000798026
0.00236998
-0.00113461
-2.98005e-05
-4.82478e-06
3.46268e-05
5.02174e-05
-2.35116e-05
-2.67054e-05
-2.3595e-06
8.05184e-07
0.000429076
0.000396786
-0.000825862
0.0019321
-0.000949982
-0.000982112
1.70174e-06
-1.0377e-06
-0.000687595
0.00111668
-4.33292e-06
-1.43638e-06
-8.92595e-05
-0.000463372
0.000552632
-1.54872e-06
2.93356e-06
-1.38485e-06
-1.52488e-05
6.65508e-05
-5.52979e-05
-0.000445675
1.33234e-07
2.36809e-06
-1.79859e-05
-1.93909e-05
-7.07428e-05
4.37602e-05
-1.04886e-06
-1.29774e-06
2.34677e-06
-1.54626e-06
4.20746e-07
0.000261813
-6.6412e-06
7.54937e-06
-9.08339e-07
-5.22318e-05
1.77179e-05
3.45142e-05
2.42999e-06
8.84354e-07
-1.42321e-05
-7.04667e-06
2.12788e-05
-5.25431e-06
-4.69768e-05
-4.38435e-07
5.94767e-07
-1.56481e-07
-2.44022e-06
3.53235e-07
-4.65399e-06
3.92005e-05
0.000205964
0.000106901
-4.65573e-05
-8.2654e-07
2.93389e-06
4.42087e-06
-2.15271e-06
-2.26786e-06
-2.32468e-05
2.67933e-06
-2.8312e-06
1.5073e-06
-4.70446e-06
-5.22578e-06
9.93109e-06
-0.000598742
9.74139e-06
0.000589002
0.000547168
0.000280626
-0.00313635
0.00070439
0.00030912
-0.000213507
1.40263e-06
-1.6665e-06
-0.00271874
4.11406e-05
1.47109e-06
2.54103e-05
-2.17184e-05
-5.46084e-05
7.36434e-05
-1.9036e-05
7.43213e-07
5.80941e-07
-1.32417e-06
-7.85992e-05
-0.000293595
0.000204336
-2.48023e-05
1.47668e-05
-0.000175056
-0.000279732
0.000454785
1.72897e-05
-4.58067e-07
-1.68316e-05
5.7301e-05
-5.92246e-05
1.24185e-07
2.02397e-07
-3.26592e-07
-2.53888e-07
2.67949e-07
6.63872e-07
-0.000796148
8.80441e-06
-0.000126951
2.64289e-05
2.37872e-05
4.50757e-05
-7.52523e-06
-5.07482e-06
6.54903e-06
-1.47401e-06
7.05281e-05
-2.42377e-05
2.85524e-05
-4.16159e-05
0.00296086
-0.00162548
-3.64504e-06
2.39228e-06
-1.40245e-05
1.826e-05
-3.04221e-05
2.57685e-05
-5.23687e-05
-1.5386e-05
6.77514e-05
-9.5447e-07
2.27831e-06
-9.89621e-05
4.65937e-05
2.1822e-06
-3.62077e-06
1.43873e-06
9.81559e-08
2.56556e-06
8.99654e-07
-4.90584e-06
-0.000180869
0.000344766
-0.00110271
-1.74279e-05
0.00112014
-0.000140355
-0.000677601
-6.66646e-07
2.66852e-06
-2.00178e-06
-0.0029093
-0.000227055
1.86367e-06
3.83316e-06
-5.6967e-06
2.04705e-06
-1.03654e-06
2.23879e-06
-3.94316e-07
-1.84422e-06
5.28578e-07
-3.7956e-07
-1.49091e-07
1.18996e-06
-3.40332e-05
9.4982e-06
2.4535e-05
-2.50145e-06
1.29881e-06
3.20388e-07
3.85347e-07
-7.05581e-07
-7.09079e-06
-4.7517e-05
-4.89863e-05
-8.58854e-06
5.75746e-05
8.34038e-07
-1.61372e-06
0.000255942
-0.00214503
0.00188909
-0.000538506
0.000453444
8.50607e-05
3.09858e-06
-4.81092e-06
-2.50549e-05
-2.06174e-05
0.000171536
0.000131068
-0.000302607
-0.000136322
5.29738e-05
8.33437e-05
5.7511e-05
-6.27648e-05
-4.17453e-05
1.16597e-05
9.17541e-06
-0.00703082
0.00268627
0.00434458
-0.000823202
0.00038734
0.000435864
-1.1421e-05
1.0644e-05
7.76767e-07
3.72247e-06
2.63761e-05
6.56112e-05
-4.80033e-05
-1.76076e-05
2.89343e-07
4.81592e-07
-7.70864e-07
-2.23123e-06
8.16408e-06
-5.93279e-06
-0.000100843
5.14923e-05
4.93508e-05
-0.00102064
0.00162578
-0.00060514
-1.51086e-07
-5.24861e-07
-0.00373988
0.00343725
-0.00010796
-2.83709e-05
-2.21497e-06
6.38948e-07
1.5762e-06
-0.0020845
0.00106386
-0.00229228
0.00263675
-3.65642e-07
2.10593e-06
-1.74036e-06
-7.33698e-06
0.000422841
6.73195e-06
-4.86812e-06
0.000888772
-0.000342206
0.000915728
-0.00057352
5.58923e-07
-3.04385e-08
-1.33148e-07
-3.34008e-07
-4.96113e-06
2.56996e-07
-1.86068e-06
1.58648e-06
2.7436e-07
-2.14665e-06
1.7526e-06
0.0010907
-0.000991885
-9.88229e-05
-1.0128e-05
3.2315e-05
0.00472881
-0.000258412
-6.815e-07
-1.53334e-06
-0.00425517
0.00134588
1.15124e-06
-2.94472e-06
1.79393e-06
9.79081e-07
-3.23563e-06
5.50901e-05
3.52372e-05
-9.03266e-05
3.27914e-06
-1.86768e-05
-1.86708e-06
-4.08645e-07
2.27603e-06
0.000714841
0.000375864
0.000112157
-9.52875e-05
-1.68671e-05
-7.95855e-05
-6.86106e-06
8.64469e-05
-6.50362e-05
6.2427e-05
2.67141e-06
-2.64637e-06
1.97971e-06
-1.09873e-06
-1.18576e-06
2.28466e-06
-0.000599835
-0.000205174
0.000805003
-1.10609e-05
0.000101819
3.30653e-05
-2.71798e-05
-5.88603e-06
3.48819e-06
-6.44135e-07
-2.84353e-06
-1.51379e-05
-6.64412e-06
2.17834e-05
4.19369e-06
-3.50415e-07
-3.84312e-06
-4.78261e-07
7.98689e-07
-0.000779892
2.90725e-05
0.000750843
0.000312614
-0.000493483
0.00017465
-9.83427e-05
-7.63144e-05
-1.0753e-06
-1.75593e-06
3.99926e-05
4.18762e-06
-4.52451e-06
-2.73467e-06
-6.17976e-05
1.2811e-05
3.84288e-06
-1.69078e-08
-0.00111771
-0.000309105
0.00142681
-6.25797e-05
0.000210472
4.4758e-05
1.27527e-05
6.94509e-06
-5.3389e-06
-1.60535e-06
1.08014e-07
0.000174169
0.0013772
-0.00185336
0.000476155
-2.38074e-06
0.00201536
-1.24517e-05
-0.0020029
-3.30175e-06
-1.01982e-07
3.4036e-06
-8.85289e-05
0.000468336
-0.00100513
-9.74853e-08
-1.22567e-06
1.32338e-06
9.9928e-07
-6.87965e-06
5.87518e-06
8.41863e-07
-2.42021e-07
1.71064e-06
-2.00121e-05
-9.41141e-06
6.34607e-05
3.88227e-05
-4.4369e-07
-1.41676e-06
-0.000137999
9.90396e-05
3.89602e-05
-4.98914e-05
7.14082e-05
-2.15169e-05
8.67756e-05
-0.000686606
-5.1184e-07
4.70587e-06
-5.89524e-06
8.2039e-07
-0.000454571
1.26367e-06
6.72274e-07
-1.73317e-05
-4.64129e-06
2.19729e-05
0.000367124
-0.000195588
-1.07789e-06
-2.56694e-06
-5.0093e-05
-1.38413e-06
5.14766e-05
-0.00254434
2.01051e-06
2.28214e-06
4.81708e-05
1.94544e-05
-1.71511e-05
-0.000116911
6.75263e-05
4.9385e-05
-8.77165e-05
-1.74083e-05
0.00482848
-9.96703e-05
0.00285542
-0.000221024
-0.00263441
0.000261661
-0.000402009
5.73248e-05
-2.4573e-06
0.000147387
-0.00175496
7.21633e-06
-2.8667e-05
2.14538e-05
-5.62801e-05
2.51846e-05
3.10834e-05
1.40186e-05
2.58729e-05
-3.98908e-05
4.90754e-05
-6.43241e-05
-9.04584e-07
4.66962e-07
4.37837e-07
4.52575e-06
0.000170111
3.4654e-05
-9.97345e-05
-6.61205e-05
-3.76228e-06
1.79043e-07
7.03399e-07
9.87531e-06
1.47597e-05
-2.4635e-05
3.33177e-07
-2.28431e-06
1.95139e-06
-0.000615736
-0.00446582
5.94907e-08
-4.97952e-07
2.45655e-05
8.50015e-06
1.57567e-05
-1.03001e-05
-0.00155763
0.00197493
-0.000417303
2.22732e-06
-3.26498e-05
-0.00197193
3.17363e-05
2.41412e-05
-3.33301e-05
9.18895e-06
-6.42018e-05
9.21624e-05
-2.32942e-06
-1.82964e-06
-0.0002159
0.000923109
-0.000505948
0.000652195
-1.44155e-06
6.75378e-08
1.37396e-06
6.00262e-06
2.47546e-05
-3.07574e-05
-1.66392e-05
0.000124177
-0.000107537
-7.85297e-05
3.9603e-05
3.89271e-05
6.56439e-07
-3.6713e-07
-0.000765221
0.00023134
0.000533884
-8.39532e-06
2.56851e-05
6.08904e-05
6.1109e-06
-0.00218732
0.00110301
0.00108432
-0.000509176
0.000526787
7.7074e-05
3.07959e-05
-0.000107869
-1.09079e-05
-1.38945e-05
-0.000693124
9.62022e-07
3.6901e-05
2.39889e-05
2.39304e-06
-1.62343e-06
-7.69606e-07
0.000287692
0.00211886
-0.000930548
-5.57884e-05
-6.11231e-05
4.83593e-05
1.58332e-05
0.000117499
-6.24086e-05
-3.56355e-05
-0.00010169
0.000176313
-7.46228e-05
1.25568e-07
-3.4273e-06
-3.17067e-05
0.000328456
1.796e-05
1.42664e-06
6.75927e-06
-5.66514e-05
5.14533e-05
5.04634e-05
-0.000101917
0.000846324
-0.00240395
3.26229e-05
-3.29823e-05
9.47681e-05
-1.76929e-05
2.06945e-06
6.47582e-07
3.58169e-05
1.0582e-05
-9.38258e-07
-1.2557e-06
2.19409e-06
-0.00036444
-0.000116551
4.21493e-05
-6.59892e-06
-3.55508e-05
-2.86889e-06
4.50183e-05
-2.31578e-05
1.85493e-05
4.60824e-06
-9.40937e-05
5.56731e-06
0.000588055
-0.000237748
-0.000350309
-6.0004e-05
0.000174311
-6.96155e-06
2.69484e-05
-0.000111205
0.000120009
-0.00022344
-0.000205445
-0.00138805
0.00268591
-0.00129785
-3.81124e-07
-5.23332e-07
-3.16815e-06
1.30116e-06
-2.019e-05
2.71587e-05
-6.96875e-06
-1.88658e-05
1.5339e-06
0.000174771
-0.00093999
2.03799e-06
-2.78145e-06
7.43505e-07
2.22033e-07
-9.79e-08
-0.00146767
-0.000214591
0.00168227
0.000684777
0.000148548
-0.000833314
2.0871e-06
-6.1972e-07
-1.46724e-06
-8.39801e-05
2.14838e-05
6.24967e-05
-3.38031e-05
-1.52204e-05
4.90242e-05
-1.07131e-05
-1.75769e-06
1.2471e-05
9.35819e-07
-1.7291e-06
7.93301e-07
1.80741e-05
-2.21693e-05
4.0957e-06
-7.65276e-05
2.02191e-05
-0.00191736
-0.000925239
0.00284261
-2.24163e-07
2.07955e-06
-1.85502e-06
8.03792e-05
5.33995e-05
4.36042e-07
1.90599e-07
2.08299e-06
-1.74977e-06
-0.00305131
0.00166325
-3.03597e-05
1.01699e-05
2.17617e-05
-4.68157e-05
1.64082e-05
1.52482e-05
-4.89524e-06
1.07654e-06
3.78103e-05
-3.05939e-05
0.000110739
-4.63753e-05
-6.43655e-05
3.22198e-05
-2.87944e-05
-3.42527e-06
3.2292e-06
6.13676e-07
-1.90523e-05
3.91527e-06
-5.55569e-07
-1.08656e-05
6.0458e-05
-7.70962e-05
3.86118e-06
-1.80932e-05
-0.00297674
0.00209888
0.000877851
-2.58325e-06
1.8289e-06
4.03047e-05
-8.08597e-06
-3.36149e-06
0.0011792
0.00129932
-0.00247853
0.000546216
0.000630608
-0.00117683
2.75347e-05
-2.15309e-07
0.00103774
-0.00128582
-0.000462881
-0.000121044
0.000583922
-6.89163e-07
0.000345044
-0.000734831
0.000389783
-1.06793e-07
1.33301e-06
-1.22605e-06
-0.00044618
1.28373e-06
0.00233791
0.00193991
-0.000285765
0.000663267
-0.000377509
0.000264716
-0.00377849
-5.54761e-07
9.80458e-07
7.41275e-07
-1.72157e-06
0.000393514
-0.000568569
-8.86265e-08
-1.73432e-06
1.82318e-06
9.07244e-07
5.31158e-07
-5.22559e-06
3.57057e-06
-1.38818e-06
0.000651046
-0.00104493
0.000393881
-2.36306e-06
1.2644e-06
-3.74002e-05
6.25871e-05
-0.00252134
-0.00450943
-0.000718344
-3.44261e-05
4.36095e-05
-9.1796e-06
-5.15758e-05
5.94094e-05
-7.83384e-06
2.38398e-05
3.01436e-07
2.55684e-06
-0.00220312
0.00454102
-0.000482434
4.10705e-05
0.00126609
0.00169477
6.91899e-07
1.3553e-06
0.00256283
-0.00197144
-0.000591391
-0.00033532
0.00302749
-0.00269217
-2.60992e-06
1.56671e-06
7.81326e-05
-0.000102339
-5.1158e-07
2.32643e-06
1.34089e-05
-3.08256e-05
1.74176e-05
0.000120394
-0.000658898
-9.76404e-06
2.13331e-05
-1.15689e-05
-9.23486e-06
5.98414e-06
3.25099e-06
-6.26799e-07
2.77869e-06
0.000998776
-0.00024242
-0.000756356
5.33585e-07
7.4607e-07
-0.000345231
4.18662e-07
-1.17332e-06
7.54674e-07
2.70055e-05
-8.11961e-06
-1.88856e-05
-1.39656e-06
-4.49882e-08
1.46887e-06
-1.21819e-05
-3.8314e-07
-2.6528e-05
-5.99789e-05
3.35402e-05
2.18113e-06
6.32751e-07
-2.81378e-06
3.01688e-07
2.95449e-06
-2.38061e-06
2.01501e-06
-0.000366087
3.1125e-05
0.000331794
9.46242e-05
-0.000426418
-0.000148271
4.65805e-05
-0.00177949
-4.88605e-05
-3.51211e-05
2.16234e-05
-3.47879e-05
1.31648e-05
-0.0010979
0.00311326
2.87979e-05
9.25045e-05
-1.99951e-06
-2.32669e-06
4.32617e-06
-7.29026e-05
-5.21374e-06
7.81137e-05
-0.00146786
0.000718087
5.66175e-06
-4.47e-07
-5.21425e-06
1.47863e-06
-5.42718e-07
-0.000533595
0.000629533
0.000235969
0.00132544
0.000184028
-0.000247589
-2.34272e-05
0.00508336
0.0014051
-0.000133837
-5.76326e-05
0.00249013
-0.000596583
-0.00189353
3.7148e-05
0.000137047
2.90605e-06
-4.90551e-06
2.25462e-06
1.54463e-06
-3.79917e-06
-5.15039e-06
-0.000113617
-6.7409e-06
-2.95604e-06
-1.14024e-06
4.09636e-06
2.62094e-06
1.18915e-06
-3.81011e-06
7.79071e-06
-2.81714e-05
4.46964e-06
-3.54022e-06
-9.29341e-07
2.73177e-07
1.07121e-06
3.39852e-06
-1.98861e-06
2.06306e-06
0.000145585
-0.000135065
-1.05215e-05
-3.94891e-06
5.30246e-05
0.000338105
0.00025346
1.17897e-06
2.38722e-05
0.000103075
0.000843248
-0.000946323
1.08712e-05
0.000462189
-0.00120211
3.97707e-05
-3.00972e-06
8.59394e-07
2.15024e-06
-7.1343e-05
-4.38788e-05
-5.47832e-07
-4.45677e-07
0.000194182
-0.00048271
3.52615e-07
2.42104e-07
5.61624e-07
2.27832e-06
1.32162e-05
0.00109052
-0.000346945
-0.000251798
2.08617e-06
-1.80163e-06
-0.000626049
-0.000157312
0.00078335
0.00112802
-0.00102494
-3.48414e-06
-1.56684e-06
5.05103e-06
-4.51564e-05
1.10229e-05
3.41337e-05
2.83877e-06
-2.16996e-06
-6.68593e-07
-8.81931e-08
2.70938e-05
0.000211504
-0.000543514
0.000332017
-6.85203e-05
-5.64512e-05
0.000124971
4.26618e-07
-1.21121e-06
7.84682e-07
-8.18097e-06
7.36053e-06
1.51656e-05
-0.000181579
0.000224756
-4.31746e-05
0.000576427
-2.13709e-05
-4.90953e-06
2.2118e-07
4.6884e-06
-5.8138e-07
-2.12711e-06
2.70871e-06
1.82619e-06
-5.3103e-06
6.60959e-05
-4.7159e-05
-1.8936e-05
-0.000489413
-3.85131e-05
0.000527925
-9.13506e-07
-0.000453259
-0.000290828
-6.08929e-06
-5.86567e-05
6.47463e-05
-2.40095e-06
-7.46305e-07
-3.36395e-05
-1.02022e-06
2.00075e-06
5.16649e-06
-5.19151e-06
2.3691e-08
-1.60921e-06
-7.50384e-07
1.10798e-08
-2.27786e-05
-4.68165e-07
-6.09742e-05
3.75728e-05
3.30855e-06
-1.33474e-06
-1.97335e-06
-0.000135541
-0.000126873
0.000112934
1.39374e-05
1.36894e-06
-7.30154e-07
-6.38837e-07
-1.7948e-06
7.13759e-07
-6.14969e-07
-9.87157e-08
-5.04545e-05
-1.12141e-06
0.00015718
0.000639251
-4.88893e-06
5.56204e-07
-2.34838e-06
-6.61293e-07
8.08134e-05
-2.93658e-05
0.000411951
-0.00248222
0.00207027
-0.000559393
0.000309007
0.000250389
9.56056e-07
-1.43646e-06
4.80563e-07
6.16697e-07
-1.22951e-06
6.1282e-07
-4.08465e-07
2.49088e-06
1.34467e-07
1.95524e-06
-2.08931e-06
-5.07028e-05
1.31867e-05
-1.49443e-05
2.26092e-05
-2.03817e-05
2.94143e-05
0.00303523
-0.00176914
-3.7367e-05
7.5647e-06
-1.89623e-06
1.93274e-06
-3.64425e-08
-0.000693982
0.00134503
1.32023e-05
-0.000192568
-0.000586617
-0.00170566
-0.00109718
0.000913077
7.55742e-07
4.93101e-07
-1.56219e-06
6.40122e-07
9.22188e-07
-0.000555542
5.34142e-07
5.43928e-07
-1.07798e-06
2.20475e-07
0.000212594
-0.000120056
-9.2542e-05
-2.23422e-05
3.13351e-05
0.00058361
-0.00145295
6.73547e-06
5.68785e-06
-1.2423e-05
8.07806e-06
-6.21061e-05
-2.10859e-05
5.10585e-06
-2.42836e-06
6.10936e-06
-3.68098e-06
1.70742e-06
-2.33436e-06
2.04344e-06
-2.93922e-06
8.33736e-06
1.9283e-06
-1.02655e-05
1.16481e-06
-6.40902e-07
-5.23929e-07
2.47247e-05
-1.23326e-05
-1.60347e-05
-6.74369e-06
1.04592e-06
-6.27212e-07
4.3036e-05
-5.65005e-05
1.34556e-05
0.000386502
0.000612275
-8.12693e-07
-1.29851e-06
2.11138e-06
0.00290019
7.41814e-05
2.97082e-05
-0.000103888
8.11277e-06
-5.86323e-06
-1.88252e-06
-6.39919e-07
2.52241e-06
1.90569e-05
-8.77645e-06
-1.02799e-05
-1.18024e-06
-3.81961e-07
-1.50804e-05
-5.79671e-05
-3.77865e-05
2.29176e-05
1.48691e-05
6.26181e-05
-0.000143579
-3.42415e-06
1.0251e-06
2.3993e-06
-0.000157154
-2.44215e-05
-0.000105929
-3.95198e-06
4.83456e-06
-8.82534e-07
-1.384e-06
7.46128e-06
-6.07726e-06
1.82154e-06
-1.14728e-06
-6.7391e-07
-0.000191616
0.000338531
-0.000146911
6.35446e-07
-6.52414e-07
1.69376e-08
1.2445e-06
1.19502e-06
9.60787e-07
5.22855e-06
1.83815e-06
-2.12121e-06
2.83483e-07
-3.09695e-07
-5.0111e-06
2.58281e-06
-7.3564e-07
-4.40318e-06
-5.20405e-06
9.60812e-06
1.25901e-06
1.67456e-06
9.33775e-05
-0.000130777
2.98532e-06
5.03127e-07
-1.85133e-06
2.69268e-06
-8.41304e-07
-2.79237e-05
-5.06062e-05
-3.39917e-05
3.73191e-05
-3.32812e-06
1.89252e-05
2.4101e-05
6.3048e-05
-8.71514e-05
6.77571e-06
-1.00196e-06
-4.28951e-06
-1.61983e-06
5.90942e-06
-0.000433743
0.000201299
0.000232447
-0.000119316
5.27189e-05
6.6592e-05
2.25808e-06
-1.62665e-06
-6.31599e-07
-8.45509e-08
1.09021e-06
-1.00558e-06
0.00144544
0.00123144
-0.00267689
-0.000569079
0.000276245
0.00029283
1.57095e-05
-0.000818688
-1.25744e-07
3.34715e-06
0.000118311
-9.75308e-05
-1.68463e-06
4.62703e-06
-2.94237e-06
-7.79922e-05
6.291e-05
1.3517e-06
1.6409e-06
0.000110997
0.00025718
-0.000368172
-0.00059186
4.09372e-06
-1.27635e-07
1.63682e-06
-1.5091e-06
-1.14395e-06
3.37352e-06
-2.22948e-06
-4.08254e-05
-3.84338e-05
7.92599e-05
-2.41106e-05
8.86927e-07
-5.85634e-06
-5.11867e-05
-2.97205e-05
1.44969e-06
-1.84042e-06
3.91185e-07
-5.39639e-07
-6.71548e-07
-8.04341e-06
1.32096e-05
9.80625e-06
1.79592e-06
-3.81672e-05
-0.000521222
1.69566e-05
2.49737e-06
9.33505e-07
4.35391e-07
8.72968e-06
-6.96784e-06
-9.21243e-05
1.92207e-05
-1.05026e-06
-3.96076e-06
0.00341342
-0.00277543
-0.000637981
2.78827e-07
1.22638e-06
-1.5051e-06
-2.55225e-05
-3.43328e-05
5.98551e-05
1.37163e-06
-5.89568e-06
2.13241e-06
2.26152e-06
-4.39389e-06
-4.59867e-06
6.81657e-06
-9.94009e-07
6.48852e-07
7.585e-07
2.55051e-06
9.50512e-05
-3.45929e-05
-0.000221147
2.33244e-07
-7.60602e-06
2.80386e-06
1.14975e-05
-1.43013e-05
1.70479e-05
-0.000758721
-0.000193686
0.00067776
-0.000499496
-0.000178269
6.01382e-06
7.52557e-07
-6.76628e-06
-1.14796e-05
3.38053e-05
-2.23183e-05
-0.000595065
-0.00141265
0.00200772
-1.49536e-06
1.19198e-05
-1.04243e-05
2.80652e-06
5.30634e-06
-9.43736e-06
7.94221e-06
-5.06108e-06
2.66388e-06
1.80857e-06
-3.38147e-07
-1.47025e-06
-0.000405464
0.000130937
0.000274519
1.8178e-06
0.00268514
-0.00123969
-6.21846e-06
-4.51726e-05
0.000135206
-9.00312e-05
-5.82662e-07
2.421e-06
1.37795e-06
1.73137e-06
-2.81555e-07
0.000119892
-0.000200063
8.01723e-05
6.71204e-07
-1.6643e-06
3.78203e-06
0.000857222
-2.24339e-06
1.30515e-06
-7.88885e-05
0.000189889
8.52293e-07
2.17741e-06
-1.39197e-07
2.50463e-06
1.05286e-06
-3.55729e-06
-4.0615e-05
6.1325e-05
-2.07096e-05
-2.4729e-05
1.76824e-05
-9.17273e-06
8.42339e-06
7.49611e-07
-2.58007e-06
-2.07465e-06
4.65471e-06
-0.000476969
1.05056e-06
-1.16989e-05
2.51079e-05