/*--------------------------------*- C++ -*----------------------------------*\
| =========                 |                                                 |
| \\      /  F ield         | OpenFOAM: The Open Source CFD Toolbox           |
|  \\    /   O peration     | Version:  v2012                                 |
|   \\  /    A nd           | Website:  www.openfoam.com                      |
|    \\/     M anipulation  |                                                 |
\*---------------------------------------------------------------------------*/
FoamFile
{
    version     2.0;
    format      ascii;
    class       surfaceScalarField;
    location    "200";
    object      phi;
}
// * * * * * * * * * * * * * * * * * * * * * * * * * * * * * * * * * * * * * //

dimensions      [0 3 -1 0 0 0 0];
oriented        oriented;


internalField   nonuniform List<scalar> 
20392
(
0.190602
-0.109897
-0.0807053
-0.539082
0.446515
0.0925671
0.240604
0.0732811
-0.313885
0.301049
0.181365
-0.482414
0.0859192
-0.00311933
-0.0827998
0.010275
-0.423357
0.413082
-0.000955637
0.0178637
-0.016908
0.555762
-0.392107
-0.163655
-0.0965087
0.178269
-0.0817602
-0.155238
0.456286
0.461547
-0.451272
-0.256535
0.309812
-0.0532774
0.315354
-0.0747502
-0.142455
0.213696
-0.0712402
-0.244835
0.467538
-0.222704
0.0448945
-0.18735
-0.186903
-0.321506
0.508409
-0.58467
0.592076
-0.00740578
0.348829
-0.607995
0.259165
0.65434
-0.490566
-0.163774
0.00737799
-0.0433545
0.0359765
0.0407287
-0.00296039
-0.0377683
0.271043
-0.658449
0.387406
-0.320195
0.0806875
0.239507
-0.267905
0.221587
0.0463173
0.669761
-0.520856
-0.148905
-0.0954605
-0.313187
0.408647
-0.209134
0.211091
-0.0019568
-0.0350305
0.037534
-0.00250351
-0.0283622
0.0327548
-0.00439267
0.175258
-0.590889
0.415631
-0.390659
0.530394
-0.139734
0.0410728
-0.137581
0.132116
-0.37695
0.450916
-0.204986
-0.24593
-0.00362376
-0.0158491
0.0194728
0.0707344
-0.0669426
-0.00379179
0.477497
-0.291552
-0.185946
0.14302
0.307897
-0.0181317
0.000618773
0.0175129
-0.128227
0.517889
-0.389662
-0.145821
0.0364409
0.10938
0.732189
-0.539825
-0.192364
-0.0366242
0.0408306
-0.00420642
0.074218
-0.516054
0.441836
0.437539
0.29465
0.596026
-0.412942
-0.183084
-0.62997
0.239379
0.390591
-0.154085
0.241872
-0.0877864
0.0373113
0.303879
-0.341191
-0.295567
-0.0246272
0.580749
-0.506531
-0.0177909
-0.0033018
0.0210927
0.586188
-0.470288
-0.1159
-0.0792768
-0.317163
0.39644
-0.0184733
0.0175177
0.00454385
-0.0254757
0.0209319
-0.258587
0.248794
0.0097934
0.186749
0.394
0.0795672
0.104936
-0.184503
-0.511755
0.121096
0.12556
-0.0124818
-0.113079
-0.0697586
-0.448659
0.518418
-0.288624
0.559666
0.0543375
0.116181
-0.170519
0.481878
-0.179722
-0.302156
0.193667
-0.283116
0.089449
0.439402
-0.414759
-0.0246434
0.00102594
-0.0188169
0.134922
0.0556797
-0.305786
0.248879
0.0569072
0.027702
-0.315158
0.287456
0.452679
-0.357503
-0.0951759
0.0790986
-0.0149862
-0.0641124
-0.482475
0.325918
0.156557
0.00615342
0.0376454
-0.0437988
0.645426
-0.477727
-0.167699
0.105252
-0.580755
0.475504
-0.0162116
-0.00192012
-0.460675
-0.0784075
0.0950183
-0.112819
0.0178008
-0.0509241
-0.254862
0.240557
0.0825004
-0.323057
-0.240231
0.664124
-0.423893
0.0561609
-0.0612434
0.0050825
0.625019
-0.529204
-0.0958154
-0.307317
0.0766961
0.230621
0.299834
-0.106167
0.00863435
0.0398451
-0.0484794
0.182977
-0.12864
-0.0433888
0.409263
-0.365874
0.110289
-0.0152704
0.0366483
0.424899
0.261042
-0.447945
0.291963
-0.37124
-0.000814043
0.0645843
-0.0637703
0.00331652
-0.0040987
0.000782185
0.353179
-0.112622
0.00960748
-0.00792665
-0.00168083
-0.221116
0.625675
-0.404559
0.3262
-0.493325
0.167125
0.00483984
0.0796337
-0.0844735
0.295483
-0.390943
0.166434
-0.167063
0.000628749
0.446211
-0.409563
0.555242
-0.212788
-0.342454
0.3297
-0.373089
0.154369
-0.157373
0.00300434
0.572874
-0.467622
-0.0280879
-0.000274259
0.208043
0.269454
-0.173051
0.31463
-0.141579
0.0218438
-0.0232736
0.00142984
-0.143466
-0.268901
0.412368
0.130957
-0.20698
0.0760238
0.392716
0.0466856
0.303916
0.34151
0.0425385
-0.299073
-0.208838
0.191615
0.0172229
0.33645
-0.299138
-0.210791
-0.303912
0.514703
-0.515969
0.392686
0.123284
-0.55781
-0.0262604
0.58407
0.655139
-0.136036
-0.519103
-0.616539
0.0440304
0.572509
-0.0273508
-0.00767967
-0.417772
-0.0981971
-0.503609
0.375382
0.50106
0.154079
-0.115074
0.105998
0.00907547
0.197521
0.398505
-0.060536
-0.246781
-0.0744758
-0.106528
0.181004
0.00753609
0.00207139
-0.150803
0.00498233
-0.0454557
0.00883151
-0.0275142
0.0238905
-0.177322
0.102846
-0.41624
0.570982
-0.154742
-0.104205
0.580961
-0.476755
-0.0059967
0.0333257
-0.027329
0.300559
-0.610485
0.309926
-0.287638
-0.273501
0.561139
-0.00276057
0.313145
-0.43163
0.118485
-0.148089
0.610886
-0.462797
-0.0517967
0.0604311
0.0206731
0.00117064
0.0793564
-0.000257758
0.0253929
-0.0278952
0.00250229
-0.358019
0.658578
-0.00146474
0.0276772
-0.0262125
-0.560889
0.00307881
0.328719
-0.301017
0.0318445
-0.0374721
0.0056276
0.201781
0.35346
-0.0997562
0.104596
0.576748
0.0429087
-0.619656
0.432921
-0.50268
0.133287
-0.45589
0.322603
0.351932
-0.329253
-0.0226793
-0.0180705
0.464282
-0.150067
-0.414091
0.564157
0.148635
-0.577654
0.429019
-0.375727
-0.244893
0.62062
-0.249544
0.00290497
0.246639
-0.0272034
0.522781
-0.495578
-0.511471
0.431405
0.0800654
-0.0378366
0.0344203
0.00341623
0.0538311
0.522916
0.128858
-0.453683
0.324825
-0.412862
0.394792
-0.0345693
0.0391132
0.0456762
0.000615466
-0.0462917
-0.217723
-0.197036
-0.00319541
-0.246349
-0.146128
0.0145537
0.131574
0.0127414
-0.0616861
-0.147448
-0.0284499
0.0692797
-0.0408299
0.0362071
0.226926
-0.263133
0.337367
-0.373311
0.0359437
0.00878937
-0.154917
-0.000501733
0.00302911
-0.00252738
0.226412
0.088942
-0.49564
0.391435
0.542279
-0.40168
-0.140599
0.58768
-0.624731
0.0370508
0.00619449
-0.014366
0.00817147
0.0528258
-0.501485
-0.0264099
0.112329
0.0270884
-0.127142
0.100053
0.292265
-0.397879
0.105614
0.3015
0.0504314
0.154442
0.470577
0.571428
0.0162524
-0.0632762
-0.145562
0.169369
0.130158
-0.299527
-0.0649351
-0.13907
0.204005
-0.30933
-0.00582815
-0.0195736
0.0268967
-0.0073231
-0.10284
-0.00630275
0.0381473
-0.0184319
-0.00964046
0.0280724
-0.150362
0.542321
-0.391958
0.280903
-0.0759949
-0.204908
-0.149584
0.149149
0.00043428
0.00793428
0.0628001
0.173133
-0.626501
0.453367
-0.541808
-0.0747314
-0.268269
-0.214205
0.342849
-0.266153
-0.236197
-0.0223896
-0.510303
0.516243
-0.0059402
-0.0255158
0.00217443
0.0233414
-0.434532
0.127394
0.307137
0.377632
-0.0761311
0.00925694
-0.0276889
0.499859
-0.582015
0.082156
-0.521659
0.23402
0.598323
-0.42519
0.0256991
-0.0316958
-0.112159
0.1486
0.278066
-0.241859
-0.155368
-0.216762
0.37213
0.0700927
-0.0965026
-0.00132969
0.00189258
-0.000562886
0.49397
0.0773377
-0.571308
0.264536
0.37419
0.168089
-0.369916
0.214548
0.00475229
-0.00140408
-0.00334822
0.121356
-0.522092
0.400736
0.3957
0.274061
-0.0965624
-0.376915
0.473477
0.549317
-0.582196
0.0328797
0.0986002
-0.110161
0.0115605
0.346419
-0.491584
0.145166
0.000384593
-0.108564
0.108179
0.204428
-0.620668
0.201344
-0.0664216
0.569159
-0.393901
0.184508
0.488886
-0.142467
0.00880722
0.468277
-0.477084
0.430873
-0.458077
-0.354702
0.569517
-0.214816
-0.04194
-0.468363
0.108569
-0.0814808
0.11462
-0.00454419
-0.491966
-0.0195043
0.0211641
-0.476501
0.455337
-0.0567793
-0.0184514
0.0752307
-0.0372086
0.143176
-0.105967
0.559179
-0.126257
0.122719
-0.558114
0.435395
0.0466103
-0.000934041
-0.0119217
-0.151933
0.163854
-0.163363
0.663222
0.41703
0.153006
-0.570036
-0.0143751
-0.0111407
0.0718142
-0.0240502
-0.047764
-0.291527
-2.48995e-05
-0.0642748
-0.21314
0.277415
-0.568664
0.407152
0.161512
-0.114944
0.664261
0.441022
-0.589111
0.154995
0.0172105
-0.172205
0.0413417
-0.000612986
0.125431
0.329396
-0.454826
-0.376559
0.563308
-0.334034
0.311257
0.0227768
0.0290001
-0.0216221
-0.000210964
0.00352748
-0.328436
-0.301534
-0.0164223
0.0176386
-0.00121626
-0.309249
0.460833
-0.23242
-0.0354848
-0.0413188
0.0443799
-0.00306103
0.485627
-0.188575
-0.297053
-0.239902
0.509945
-0.00135808
0.00611037
0.000713944
-0.0199009
0.0191869
0.293693
0.083938
-0.345782
0.216571
0.129211
-0.355525
0.480955
-0.00366754
0.122709
-0.119041
0.112435
-0.285486
0.591741
-0.174712
0.0227322
-0.0165378
-0.0600011
0.130094
0.13993
-0.151852
0.327553
0.00981449
-0.241941
0.263282
-0.0213414
0.0195893
0.0522249
0.00372429
-0.0706669
-0.553178
0.590856
-0.0376781
-0.376522
0.0593594
0.131645
0.0696989
0.286802
-0.535196
0.248394
0.0598851
0.117061
-0.116676
-0.0730507
0.0617926
0.0112581
-0.363903
0.276653
0.0872495
0.190705
-0.111138
-0.0587603
0.0216836
0.0370767
2.28432e-05
-0.564325
0.101831
0.462493
0.0927954
-0.0976358
0.00484035
0.0505309
-0.52832
0.477789
-0.582206
0.0957363
0.48647
0.197738
-0.2407
0.0429621
0.372196
-0.108453
-0.263743
-0.199178
0.134243
0.28659
-0.117221
-0.506042
0.151341
0.144371
0.00999802
-0.081146
-0.108511
0.334952
0.319388
0.523566
-0.0563699
-0.467196
-0.484292
-0.298612
-0.0652913
0.322626
0.159253
0.0900547
0.362624
0.0700232
-0.321071
0.251048
0.0249716
0.00144231
-0.026414
0.0579669
0.465599
-0.463122
0.639654
-0.176531
-0.0547165
-0.0129873
0.0677038
-0.032103
0.0350272
-0.00292417
-0.291508
-0.0759056
0.367414
0.620471
-0.428517
-0.191954
-0.00505046
0.00223579
0.00281466
0.271635
0.0630017
-0.334637
-0.506148
0.355786
0.000973316
-0.00378183
0.00280851
0.388878
0.166884
0.00173472
-0.0213084
-0.253154
0.24701
0.00614421
-0.722643
0.372555
0.350088
-0.0268554
0.0719715
-0.000165045
-0.00488541
0.161384
0.148429
-0.117078
0.54235
-0.425273
-0.162829
-0.0720158
0.234845
0.255846
-0.0581074
0.14879
0.0940738
-0.242863
0.0324335
0.38695
-0.419383
-0.459785
0.172048
0.287737
-0.152635
-0.181398
-0.029756
0.0112869
0.0184691
0.486116
-0.276521
-0.209595
-0.130472
0.624441
0.0650753
-0.21916
0.153131
0.0887402
0.241316
-0.435039
0.193724
0.393368
-0.523775
0.130407
-0.130913
-0.105284
-0.0906581
0.439487
0.0397381
0.327618
-0.367356
0.441374
-0.591207
0.149833
0.173946
-0.0429895
0.0728809
-0.0760003
0.426566
-0.543644
-0.661731
0.286004
0.181807
-0.581232
0.399425
0.204259
-0.0993229
-0.55547
-0.331073
0.459931
-0.154649
-0.154681
0.0695663
-0.590422
-0.522975
-0.0616953
0.123281
-0.140148
0.0168673
0.17412
-0.37385
0.19973
0.134141
0.30189
-0.436031
-0.438774
0.587409
-0.139266
0.424851
-0.285585
-0.000768963
0.0183106
-0.0175417
0.377025
-0.522132
0.145108
-0.623038
0.249953
0.373085
0.232134
-0.605042
0.372908
0.17231
0.372549
-0.544859
-0.135809
-0.209972
-0.274698
-0.0775138
0.352212
-0.488971
-0.0562618
0.0294064
-0.221832
0.295137
-0.0733054
0.0099358
0.0215483
-0.0314841
-0.076073
-0.0701398
0.146213
0.321457
-0.534245
0.480371
-0.447937
0.300006
-0.439272
-0.37493
0.00223365
0.0170024
-0.019236
-0.575011
0.463758
0.111253
0.107185
-0.439007
0.331822
0.359178
-0.314531
-0.0446467
-0.0369863
-0.0607964
0.0977827
-0.20994
0.63297
-0.42303
0.0721648
-0.234994
-0.216609
0.390729
0.0705259
0.162037
-0.232562
0.131921
-0.135588
-0.344815
-0.26318
0.00275104
-0.00160901
-0.00114202
-0.00334009
0.0354741
-0.032134
0.434516
-0.394778
-0.127523
0.0319037
0.0956194
0.342637
-0.122519
-0.220118
0.47212
-0.463313
-0.0609011
-0.066622
0.206643
0.278985
-0.491145
0.379688
0.111457
0.151553
0.431508
-0.583061
-0.00262989
0.0013002
-0.0313115
0.0305425
0.367798
-0.0758357
-0.00818386
-0.0150897
-0.028681
0.0272162
0.325576
0.170362
-0.495938
-0.288885
0.0564647
-0.025158
-0.29724
0.239898
0.0573415
0.209467
-0.396878
0.187411
-0.0951874
0.387452
0.127363
-0.574387
0.447025
0.371461
-0.161994
-0.432443
0.630253
-0.19781
0.0153204
0.343857
0.0694347
-0.175963
-0.185555
-0.42224
-0.146423
0.376114
-0.325583
-0.154913
0.407119
-0.252206
0.199449
0.286668
0.18237
-0.513443
0.000505741
-0.0129835
0.0124777
-0.180588
0.248415
-0.0678271
0.249973
0.0787456
0.291176
0.0810199
-0.000789267
0.0993895
0.0973612
-0.228275
0.0546306
0.0219302
-0.00125707
-0.0170368
0.0177507
0.201772
0.114915
-0.316687
-0.4064
0.351236
0.0551643
-0.0526108
-0.163726
-0.327419
0.060284
0.122693
-0.154987
0.0384941
0.116493
0.519572
-0.0690334
-0.450539
0.396818
-0.637049
0.538291
-0.0507044
-0.487587
-0.048361
-0.0193097
0.363207
-0.136074
-0.00805458
-0.0352999
-0.0390925
0.0357524
0.506195
0.157929
0.0763682
-0.413305
0.336937
0.0130918
-0.579135
0.0263276
-0.00135595
0.254648
0.0882005
0.0552667
0.281183
0.188863
-0.253138
0.20016
-0.130725
-0.0289515
-0.00741431
0.0363658
-0.0616687
0.283256
-0.0397026
0.0107511
-0.167284
0.537009
-0.369725
-0.328372
0.184906
0.102362
-0.592928
0.17709
-0.0454446
-0.343811
0.080088
0.263723
0.0142442
0.117677
0.0790809
0.202296
-0.281377
0.387021
-0.0958452
-0.494962
0.0207363
0.474226
0.324398
-0.243711
-0.466416
0.233533
0.232883
-0.269219
0.52678
-0.257561
-0.140841
-0.609655
0.184183
0.425471
0.456343
-0.323055
0.323317
-0.46166
0.138344
0.387903
-0.186131
-0.0151301
-0.000222301
0.0153524
-0.492106
0.51327
-0.521971
0.416838
0.105133
-0.346695
0.0854532
0.261242
-0.276753
0.410894
0.0427147
-0.0490175
-0.00660759
0.00339716
0.00321043
0.0072695
0.0483213
-0.0555908
0.406419
-0.0349583
0.419092
-0.0123535
-0.262344
-0.0927873
0.324229
-0.231441
0.404366
0.120612
-0.524978
-0.270359
0.153497
0.116862
0.446752
0.178924
0.000577693
0.0457436
-0.0463213
-0.382425
-0.192787
0.575212
0.177426
-0.558321
0.380895
-0.0246202
0.0140994
0.0105208
0.296221
-0.0993984
-0.196822
0.211831
0.380245
-0.298875
-0.16091
-0.0740737
0.0813432
-0.230033
0.075116
0.154917
0.0743653
0.221856
-0.276693
0.216157
0.438848
0.144222
-0.58307
-0.0156997
-0.057351
-0.509289
0.014327
0.0099956
-0.466524
0.140454
0.32607
-0.455873
0.186654
-0.367548
0.569329
0.0184597
-0.0179539
-0.295833
0.223596
0.0722366
0.468218
-0.234685
0.0852898
-0.122429
0.0371389
-0.0334798
0.00137676
0.248842
-0.465604
-0.0705164
-0.159516
0.272786
0.114235
0.388993
-0.323131
-0.0658618
-0.365053
0.0735452
0.00895102
0.0221529
-0.0311039
-0.000440967
0.0183046
0.110937
0.111961
-0.222897
0.122048
-0.0367583
-0.0444356
-0.0577521
0.102188
0.517106
-0.0924581
-0.424648
-0.00281381
-0.0619875
0.0648013
-0.210706
0.289787
0.342806
0.157111
-0.499917
0.00913778
0.013496
-0.0226338
-0.00223487
0.0355606
0.415545
-0.226804
-0.18874
-0.111516
-0.305949
0.417465
-0.00670692
0.0325753
-0.0258684
0.34023
-0.207886
-0.132344
0.511618
-0.188301
0.0312236
-0.0175698
-0.0136537
0.113129
0.0639609
0.00712777
-0.0525177
0.0453899
-0.292765
0.475135
0.00804442
-0.0627609
0.0727446
-0.211815
-0.0178701
0.00273997
0.600632
-0.0292044
-0.137354
0.388406
-0.251053
0.037474
-0.0744603
0.0419777
0.364441
0.242342
0.0339867
-0.276328
-0.438362
9.56649e-05
-0.140925
0.406225
-0.2653
-0.429203
0.449741
-0.435743
-0.0139985
0.506167
-0.41282
-0.0933467
-0.0038208
-0.0959354
-0.08317
-0.0750527
-0.232898
0.307951
-0.175532
0.285598
-0.110067
0.426564
-0.185249
-0.371522
-0.00522446
0.0306174
0.0344844
0.13195
-0.0520452
-0.243788
-0.0502668
-0.00246183
0.0527286
0.303071
-0.0944214
-0.20865
-0.0124662
0.021604
0.194104
0.146126
0.443055
-0.366687
0.0958562
0.0548585
0.189499
0.312762
-0.114921
-0.197841
-0.00105729
-0.0055503
0.366654
-0.311387
-0.00176728
0.000713033
0.00105425
-0.361608
0.0928401
0.206994
-0.0339916
0.152207
0.103638
-0.0240916
0.0280942
-0.00400263
0.0441281
-0.26596
-0.106327
0.355169
0.44687
-0.101596
-0.345274
-0.0845383
0.0987825
0.00318944
-0.00369118
-0.114329
0.507015
0.0493149
-0.0293001
-0.0200149
0.0818034
-0.0583652
-0.0234383
0.391134
-0.405097
0.0139629
-0.0021568
-0.00047309
0.150152
0.334399
-0.484551
-0.0550937
0.0622215
-0.0705764
0.0677626
-0.00365652
-0.0260719
0.338453
-0.435015
-0.151505
0.575934
-0.42443
0.43261
-0.341076
-0.0915337
0.423008
-0.295613
0.0957965
-0.528239
0.210548
0.204997
-0.2127
0.342858
-0.160425
-0.205457
0.365882
0.0742001
0.12596
-0.144946
-0.00574429
0.0975937
0.0926078
-0.190201
-0.0165342
0.0257912
0.098897
-0.564325
-0.039225
-0.213929
-0.577937
0.163846
0.144883
-0.496147
0.351264
0.00236732
0.00174996
-0.00411728
-0.442197
0.426746
0.0154511
-0.00940349
-0.0330682
0.0424717
-0.494991
0.112566
0.3662
-0.507807
0.141607
-0.0857352
0.605308
0.590425
-0.260725
0.0296825
0.0818694
-0.111552
-0.0932103
-0.0153535
-0.141003
0.146244
-0.00524078
0.179096
-0.118812
0.0187574
0.549285
0.240942
0.349483
-0.16131
0.487771
-0.326461
-0.00452949
-0.400652
-0.121481
0.0030958
-0.0271874
0.0146935
0.0122033
0.0467152
-0.0377641
-0.179749
-0.058455
0.0489113
0.00954373
0.354566
0.151601
-0.0665081
0.221503
-0.410508
0.0973215
0.184884
0.118187
0.0083589
-0.0530081
0.0446492
-0.351232
0.190807
0.00332195
-0.000292844
-0.0231172
-0.117886
-0.0781459
0.349781
0.0522653
0.158825
0.337467
0.1674
-0.504867
0.00154789
0.115513
0.00298056
-0.00186573
-0.00111482
0.000632919
0.00234764
-0.163462
0.486735
-0.323273
-0.108069
0.104249
-0.0385119
-0.0102119
0.0487238
0.0691962
-0.00461194
-0.000809669
-0.0176637
-0.0476666
0.039612
0.0462796
-0.00863428
0.185969
-0.0470215
-0.138948
-0.342609
0.492761
0.209663
-0.0987267
-0.173089
0.0264272
0.146662
0.213617
0.0991445
0.493035
-0.126835
-0.390075
-0.167563
0.557638
0.575518
-0.0372266
0.514069
-0.302032
-0.212036
0.0905068
0.0219637
-0.11247
0.336533
-0.202119
-0.134415
-0.0488725
0.0128923
0.0359801
-0.0013747
0.00246577
-0.00109108
0.104968
-0.533289
0.428321
-0.367845
0.568637
-0.200792
0.0229597
-0.0178095
-0.00515021
0.0609034
0.0209
-0.0808829
0.233888
-0.153005
-0.4338
0.318088
0.115712
-0.00117372
-0.00292498
0.439027
0.0746828
0.294216
0.138393
-0.0019889
0.187958
-0.0103491
-0.16274
0.0469319
-0.00421719
0.423529
0.174794
-0.400256
-0.322387
0.0108566
0.0384583
-0.498866
0.365965
0.1329
0.0252546
0.00265833
-0.0279129
0.475464
0.125168
0.0263288
-0.0330358
-0.175893
-0.0944654
-0.116291
-0.325907
0.55123
-0.423867
0.501009
-0.0880008
-0.413009
0.475114
0.145357
-0.00100281
0.0262574
0.0126454
-0.138981
0.463555
-0.324574
0.103893
-0.0143668
-0.0895265
-0.0714591
0.608259
-0.23521
0.37823
-0.0790087
-0.0985861
0.177595
0.134703
-0.00815962
-0.0731345
0.0812941
-0.51224
0.631501
-0.11926
0.4942
0.203013
-0.219091
0.232185
-0.0123795
0.00504653
0.00733297
0.521651
-0.349603
-0.0263984
-0.383777
-0.0483879
0.432165
-0.0757494
-0.0792379
-0.459304
0.171737
0.287568
-0.489444
-0.133594
-0.0129835
-0.52865
0.361367
-0.133859
0.13052
0.00333914
0.502349
-0.159543
0.00827446
-0.0666396
-0.306954
0.214166
0.0962965
-0.0638088
0.00453039
0.0592784
-0.0349354
0.0609123
-0.0259768
-0.117964
0.215557
-0.0506049
-0.256034
0.0369429
0.122781
-7.2001e-05
0.333557
-0.0789083
0.0834611
0.240937
-0.396362
0.505658
-0.109296
-0.541815
0.393757
0.148058
0.468265
-0.346909
-0.056421
-0.110642
0.0702164
-0.547944
0.000554517
0.0201487
-0.0207032
-0.298766
-0.0479289
-0.186315
0.597228
-0.410913
0.312565
0.0374729
-0.350038
0.354176
-0.0775222
0.522477
-0.360681
-0.161796
0.283793
0.122054
-0.351829
0.118517
-0.231967
0.113451
0.00490551
0.0219281
-0.0268336
-0.346555
0.491437
0.527678
-0.42271
-0.170795
-0.202516
-0.00384741
-0.0339891
-0.395583
-0.192931
0.588514
-0.0720268
-0.502984
-0.125785
0.564634
0.126921
-0.00364
-0.335494
0.385487
-0.0499927
-0.0452749
-0.0131801
0.402812
-0.0374733
-0.0113991
0.000637598
0.0231363
-0.0237739
0.304957
0.144784
-0.0692095
0.0124302
0.091119
-0.497047
0.405928
0.0499228
-0.0343164
-0.0156063
0.547555
-0.154187
0.306804
-0.278351
-0.0284533
-0.512934
0.145089
-0.000880948
0.108742
0.0139463
0.0920519
0.0389359
0.0478766
-0.0850852
0.256268
-0.49617
-0.540014
0.0239598
-0.143093
0.472994
-0.3299
0.00783141
-0.00773575
0.532261
-0.441142
-0.245541
0.0598174
0.185724
0.564199
-0.157047
0.0210383
-0.447986
-0.124876
0.572861
-0.136604
-0.341178
0.477782
-0.0213863
0.02362
-0.482641
0.44482
0.0378212
0.0274787
-0.0491016
-0.43354
0.562044
-0.389734
-0.427426
0.570352
-0.142925
-0.00327691
0.00112011
-0.00639546
-0.120746
0.000367149
-0.0167895
0.18746
-0.0444805
-0.14298
-0.000410682
-0.0458255
0.0173757
0.0144712
0.622979
-0.401154
-0.221825
-0.0181186
-0.0116374
-0.481446
0.125921
0.0156428
0.0989776
0.279501
0.350752
0.563601
-0.381794
-0.0558745
-0.110894
0.0195394
-0.200128
0.415184
-0.313353
-0.0784072
0.0383135
0.0400937
0.109012
0.0784479
0.0867771
-0.503153
0.416376
-0.00442843
0.0292194
-0.024791
0.223013
0.167529
-0.390542
-0.0147758
0.0196813
-0.0833783
0.106983
-0.0236046
-0.558347
0.403105
0.155242
0.433943
-0.150805
-0.283138
-0.433013
-0.125102
0.165591
0.15218
-0.0872846
-0.0648957
0.179082
-0.161872
-0.542715
0.00722634
0.535489
-0.38827
-0.140603
0.528873
0.500233
-0.413455
-0.267546
0.0963501
0.171195
0.0594938
0.00504018
-0.064534
-0.035878
-0.124793
0.195319
-0.0501307
0.0449977
0.00513295
-0.205131
-0.0779851
0.0019943
0.0690002
-0.452777
-0.0018224
0.00279437
-0.000971967
0.0771693
0.357347
0.331662
0.469639
-0.270191
-0.00303318
0.0374535
0.331961
-0.443951
0.11199
-0.101654
0.0566203
0.0905808
-0.147201
0.532026
-0.0341271
-0.497899
-0.303609
0.379269
0.154293
-0.533562
0.00536614
-0.0403016
-0.0259207
-0.0328396
0.503339
-0.296696
0.249018
0.373961
-0.0439384
0.0522973
0.551563
-0.179485
-0.372077
-0.0529967
0.462634
-0.409638
-0.385206
0.462779
-0.0775726
-0.463161
0.140674
0.322487
0.0788118
-0.541934
0.409283
0.153698
-0.562981
0.0369832
-0.0944749
-0.438814
-0.12114
0.19534
-0.0207487
0.264386
0.0691709
0.00258223
0.000168809
-0.296486
0.224483
0.072003
-0.0150336
-0.118826
0.0414926
0.107657
-0.0525561
-0.224137
0.0533331
0.0159466
0.413357
-0.0839613
-0.383495
0.138869
0.244626
-0.0938376
-0.490766
0.369317
0.121449
-0.30612
0.00092977
0.111854
-0.112784
0.346279
0.169964
-0.4653
-0.125589
-0.0554115
0.254932
-0.19952
-0.109659
0.556174
0.0160936
-0.00132131
-0.389419
-0.0191616
0.408581
0.27017
0.0840055
-0.113742
-0.284136
-0.0918815
0.555437
-0.463555
-0.129586
0.438422
-0.308835
-0.0235034
-0.00439176
0.138878
0.330761
0.225907
-0.107391
0.0790657
0.0045832
-0.0836489
0.358159
0.164318
0.348799
0.161203
-0.510002
-0.0430261
-0.0742133
0.0856169
-0.0114035
0.471449
-0.586393
0.497056
-0.341447
-0.155609
-0.0664203
-0.121394
0.187814
-0.260107
-0.123388
-0.0453219
0.0423615
0.273474
-0.388959
0.115485
-0.166364
0.0542051
-0.279057
0.375362
-0.096305
0.0586916
0.0934886
-0.586499
0.335362
-0.513902
0.17854
-0.156131
-0.386105
0.542236
0.283462
-0.226762
-0.0567007
-0.329254
-0.0559059
0.38516
0.349819
-0.485065
0.135247
0.0696154
0.193667
-0.0568226
-0.0973632
0.376459
-0.200999
-0.175459
-0.0728901
-0.0308367
-0.358582
-0.147901
-0.202507
0.0689594
0.133547
0.595465
-0.163957
-0.0774058
0.0856803
-0.413806
0.302291
0.126498
0.260906
-0.387404
-0.0503545
0.040951
-0.160935
-0.00278677
0.163722
0.220028
-0.578959
0.396976
0.181983
0.325272
-0.255248
0.079309
-0.518668
0.439359
-0.110963
-0.000361258
0.111325
0.0435876
-0.0655207
0.0219331
-0.430374
0.110639
0.319735
-0.49449
0.360669
0.13382
-0.108925
-0.177435
0.28636
-0.280673
0.118879
0.161794
0.0995407
0.215089
0.0354003
-0.575225
0.0374908
-0.0159425
0.115684
0.416626
-0.53231
-0.00436229
-0.0409596
-0.326569
-0.129321
-0.103578
-0.038206
0.141784
-0.103441
-0.0405323
-0.447918
0.338819
0.109098
-0.264637
0.247786
0.0168511
-0.0162206
-0.0078026
0.0240232
0.0166054
0.00103318
-0.423844
-0.00455725
0.00439221
0.232658
-0.314813
0.0821551
-0.430345
0.27954
-0.00289381
0.0010714
0.435797
0.249307
-0.486122
0.433125
-0.0718578
0.224065
-0.0186137
0.55064
-0.00374324
0.0207456
0.0132061
0.0367166
-0.409262
0.378425
-0.140857
-0.295175
0.436032
-0.386277
0.307562
0.078715
-0.0270899
-0.00267505
0.0297649
0.212338
-0.139593
-0.55832
0.143287
0.415032
0.111581
0.430769
-0.374244
-0.353204
0.375357
-0.0433956
0.283882
-0.400173
-0.110034
0.349343
-0.062887
-0.59997
0.458813
0.141157
0.456755
0.328675
-0.21624
-0.0965781
0.0563568
0.0402213
0.561409
-0.141076
-0.420333
-0.0660954
-0.0072842
0.0733796
-0.0970822
0.0370592
0.060023
-0.166839
0.444741
-0.277902
-0.0456169
0.517066
-0.495563
0.328724
0.42211
0.158851
-0.574825
0.414382
0.160443
-0.141268
0.00250545
0.138763
-0.00192049
-0.264502
0.155577
-0.407087
0.00551815
-0.00726064
0.00174249
0.160525
0.215933
0.231417
0.301986
-0.0693278
0.414443
-0.555643
0.1412
-0.0811324
-0.21711
0.449244
-0.342811
0.494598
-0.15713
-0.0210511
-0.0825271
-0.127261
0.172813
-0.562889
0.177445
0.0534991
-0.230944
-0.00162041
0.00380741
-0.002187
-0.436048
-0.13834
-0.061954
0.234417
-0.172463
0.0652452
-0.495161
0.429916
-0.149148
0.0928225
0.0180144
-0.0174599
-0.00438706
-0.279163
-0.107114
0.0238456
0.0111815
-0.376135
-0.00340876
0.00330766
0.000101101
-0.025622
-0.186125
-0.431802
-0.00774906
0.00627666
0.00147239
-0.44541
0.357017
0.0883921
-0.00219533
0.0411312
-0.0152167
0.0158628
-0.000646182
-0.256101
0.364968
-0.108867
-0.557109
0.158113
0.398996
-0.0029785
-0.341379
-0.106539
-0.206305
0.189318
0.0169867
-0.00634234
-0.37032
0.376662
-0.602512
0.197788
0.404724
-0.0347742
-0.00104112
-0.277243
-0.469445
-0.0385749
0.50802
-0.259927
0.340015
0.0453914
-0.0497537
-0.11013
0.104588
0.00554246
0.0496254
-0.00462765
-0.416737
-0.241501
0.658238
-0.297279
0.332656
-0.0353764
-0.576657
0.448973
0.127683
0.0968765
-0.352977
-0.336529
0.229474
0.107055
-0.391989
0.576172
-0.0145126
0.0715259
-0.0570133
0.180643
-0.269662
0.0890185
0.0755139
0.00384247
-0.14342
0.0798162
-0.292517
-0.143898
-0.00397655
0.00019472
0.00433757
-0.00548527
0.0011477
0.00673291
0.0826851
-0.089418
0.0989329
-0.516759
0.417826
0.356047
0.141008
-0.540015
-0.0339526
0.573967
-0.00427064
-0.0261814
0.0304521
-0.041654
0.275251
-0.342799
0.453438
0.06968
0.148216
-0.217896
-0.0816003
0.0048815
0.0767188
-0.0658674
0.282522
-0.216655
-0.407435
0.289133
0.118302
-0.583993
0.458709
0.125284
0.109079
0.301432
-0.410511
-0.0386407
-0.462033
0.500674
-0.42272
0.521653
-0.335596
-0.407808
0.556161
-0.148353
0.154867
0.289954
0.402575
0.148988
-0.226618
-0.162687
0.389306
-0.325445
0.465899
0.0665484
0.258723
-0.0311893
-0.336575
0.367764
-0.136406
-0.0357993
-0.423365
0.620164
-0.196799
0.0369861
-0.491946
-0.0761119
0.568058
0.0961247
0.00776857
0.377447
0.145113
-0.487722
-0.131623
-0.0206166
0.00280719
-0.454074
0.192753
0.420554
-0.613307
-0.0400681
-0.0828722
0.12294
0.0433234
-0.0746986
-0.255312
0.330011
8.91002e-06
-0.0629774
0.0948654
-0.418208
0.277352
-0.0368821
-0.475358
0.54265
-0.365225
0.396038
0.427375
-0.288497
0.122854
-0.349472
0.142758
-0.328994
0.186236
-0.20887
-0.223699
0.432569
0.00102417
-0.00558142
-0.0040688
-0.0350237
0.238659
-0.0898696
-0.129632
-0.250119
0.194707
0.110654
-0.0201471
-0.0370843
0.299421
0.205727
-0.505148
-0.0034258
-0.371006
0.0737271
-0.121584
0.559712
-0.145269
0.0490184
0.451214
0.396339
0.163373
-0.018253
-0.411321
-0.147026
-0.209536
0.00208765
-0.00346235
-0.401924
-0.00447626
-0.173361
-0.319964
-0.033684
0.0258814
-0.150996
-0.301304
-0.106131
-0.266917
0.00228076
-0.0748674
-0.171395
-0.37042
0.0109582
-0.0687103
-0.00096088
0.0211096
-0.204418
0.223957
0.406501
0.129755
-0.536256
-0.299946
0.409025
-0.528828
-0.440085
0.0966761
0.343409
-0.00329535
-0.560928
0.428316
0.132612
-0.00369264
-0.374643
0.378335
0.436639
-0.281772
0.4433
-0.396614
-0.0567319
-0.235695
0.279823
0.0522317
-0.330014
0.277782
-0.291754
0.220199
0.0715544
0.000336145
0.132071
-0.132407
0.000876934
-0.373425
0.577854
-0.442431
0.557585
-0.115154
-0.253045
0.37185
0.291371
-0.00310329
0.000343277
0.00276001
0.113055
-0.407716
0.294661
0.32268
-0.213058
-0.109622
-0.458246
-0.0222496
0.480495
-0.0253552
0.0623181
0.00687818
-0.318965
-0.241923
-0.590279
0.00329645
0.293224
-0.456685
0.00630033
-0.0862744
-0.0737779
-0.395342
0.46912
0.0485957
-0.00392972
-0.044666
-0.00183056
0.000221548
-0.467583
0.00281474
0.464768
-0.195094
0.567643
-0.527405
0.164185
0.36322
-0.00261455
0.0340707
-0.0314562
0.465838
-0.516543
-0.0138919
0.192974
0.130517
-0.130181
-0.0439681
0.139887
0.338551
-0.0549362
-0.283615
0.00358238
-0.00526321
0.377093
0.100387
-0.47748
0.0883174
-0.00925177
0.00353606
-0.00494013
0.0587294
-0.26886
0.210131
-0.0995485
0.156169
0.58376
-0.166894
-0.416867
0.0863941
0.356906
-0.0637434
0.0585273
0.196405
0.0768481
-0.0150555
-0.0342351
0.0375779
-0.00334285
-0.33174
0.152878
-0.579396
0.470322
0.109075
0.035642
-0.371136
0.139921
0.0856373
-0.225558
-0.45902
-0.0085634
-0.522232
0.12665
0.283972
0.219367
-0.446143
-0.134036
-0.311374
-0.554963
0.194155
0.360808
-0.289982
-0.0493295
0.339311
0.550939
-0.523334
-0.0276047
-0.300725
0.432841
-0.00739863
-0.103788
0.111187
-0.00485906
-0.0692147
-0.546913
0.158643
0.146324
-0.488505
-0.00713577
-0.115552
0.1171
0.104604
0.181577
-0.286181
0.270285
0.210906
0.319488
0.000125292
0.38302
-0.402487
0.0194672
-0.176405
0.0797233
0.0224644
-0.489835
0.368513
0.121322
-0.055937
0.0534752
-0.427562
0.297976
0.350255
-0.00105259
0.0209493
-0.0198967
-0.463582
0.00533656
-0.465337
-0.118656
0.146926
-0.118624
-0.0283023
-0.543764
0.123774
0.419991
0.00495741
-0.0391925
-0.0333968
0.30561
-0.272214
0.142476
-0.223358
-0.151464
0.225829
-0.505276
0.201364
-0.00409885
-0.00828065
0.181515
0.294421
-0.475937
0.304869
-0.42039
0.115521
0.356111
0.0248371
-0.0275122
0.0222833
-0.00183212
-0.0204511
-0.0656949
0.00166803
-0.0524185
0.0507505
-0.0101929
0.0340385
-0.514141
0.148034
0.366106
0.0442461
0.539365
-0.143026
-0.578303
0.220911
-0.151231
0.435951
-0.152069
-0.0684616
-0.018877
0.0873387
-0.085258
0.483654
-0.398396
0.405167
-0.408859
0.00641138
0.279187
-0.138926
0.0988582
-0.572262
0.148905
0.0775751
-0.00206119
0.0246183
-0.00148198
-0.329507
0.0395255
-0.183373
-0.39425
0.577623
0.126823
-0.569254
0.083757
-0.201721
-0.0895304
0.461381
0.534906
-0.160665
-0.374241
0.00588967
-0.0969453
0.0910557
-0.000690616
0.018705
0.535242
-0.125959
-0.111925
0.391386
0.143856
0.432584
-0.0921199
-0.340464
0.593274
-0.466347
-0.126927
-0.601164
0.428198
0.172966
0.048344
0.152268
-0.200612
0.118492
-0.12589
-0.156807
0.516594
-0.359787
0.360837
-0.204897
-0.15594
0.314635
-0.399893
-0.120266
0.124447
-0.00418117
0.193934
-0.531087
0.337154
0.00776772
-0.0583162
0.237449
-0.179133
-0.493875
0.142316
0.351559
-0.542449
0.4247
0.11775
-0.0826614
-0.23121
-0.347749
0.403476
0.135889
-0.435692
0.144376
0.291316
-0.280606
0.228105
0.0525011
0.319494