/*--------------------------------*- C++ -*----------------------------------*\
| =========                 |                                                 |
| \\      /  F ield         | OpenFOAM: The Open Source CFD Toolbox           |
|  \\    /   O peration     | Version:  v2012                                 |
|   \\  /    A nd           | Website:  www.openfoam.com                      |
|    \\/     M anipulation  |                                                 |
\*---------------------------------------------------------------------------*/
FoamFile
{
    version     2.0;
    format      ascii;
    class       volScalarField;
    location    "50";
    object      ddt0(k);
}
// * * * * * * * * * * * * * * * * * * * * * * * * * * * * * * * * * * * * * //

dimensions      [0 2 -3 0 0 0 0];


internalField   nonuniform List<scalar> 
13917
(
0.0017765
3.4777e-06
4.97794e-05
-1.61529e-07
9.10815e-07
-5.83624e-07
-7.03186e-07
-0.00737359
-4.10615e-07
-0.000767148
-0.00104043
-5.23862e-08
-9.78455e-09
0.0153386
-3.05348e-06
0.00156304
1.02286e-07
0.000109839
1.05007e-05
-0.00178501
1.26713e-06
7.93581e-08
9.4222e-07
7.81636e-08
-2.24302e-07
-6.08288e-08
0.010103
-0.000491828
1.18375e-07
-7.5277e-08
-0.00295213
-8.66901e-06
-7.92865e-08
0.00243951
1.89365e-08
-0.00830769
2.97164e-07
2.24877e-08
-6.28996e-07
-1.9203e-06
5.98205e-07
6.11886e-07
-8.56562e-08
-5.12926e-06
-9.5175e-06
-0.00130338
8.67017e-07
-0.00529704
-0.00763775
8.84485e-09
-2.07711e-08
6.52693e-06
0.000706438
8.48414e-10
6.75091e-08
6.65093e-06
-0.004368
2.20783e-06
2.26774e-07
-0.000620369
0.014036
1.0212e-05
6.25635e-08
4.06438e-08
-0.000843026
1.07661e-07
-5.73455e-07
-0.00683898
-0.00394483
0.00148066
0.001712
0.00227676
6.54837e-08
3.59178e-07
3.33003e-07
9.93159e-08
2.3868e-06
6.69453e-08
3.26476e-07
-7.0879e-08
-9.14818e-08
7.91191e-08
8.42594e-08
0.00388954
-9.45753e-09
-0.00780069
-7.87499e-06
-1.00909e-08
-1.07452e-06
1.21579e-08
-6.19462e-08
-1.15745e-07
0.0015796
1.41811e-07
-4.00622e-08
-4.34453e-06
-0.000297736
-2.37013e-06
-1.38545e-08
7.64862e-06
3.51309e-07
2.76165e-07
-1.1782e-07
3.80767e-07
2.58935e-06
0.00956981
-0.00137024
3.27914e-05
-5.75257e-08
0.0146494
1.81501e-08
0.00246288
1.38579e-06
-0.00761791
-9.14546e-05
-2.66551e-08
7.92323e-06
-4.98429e-10
-1.58939e-05
-1.61182e-08
-1.54773e-09
-2.97085e-08
-1.20928e-05
7.03798e-06
0.00111917
0.00398251
2.85162e-08
5.03884e-07
8.92602e-08
8.52783e-06
-3.11298e-07
0.000295652
0.00780343
1.54596e-07
1.81763e-06
0.0127917
0.0092062
0.00048058
-1.7463e-06
-9.78579e-09
0.00274161
-1.00469e-07
0.00712519
-1.43257e-08
1.13712e-07
8.68639e-06
-0.00177554
0.00532404
-0.00411319
3.0604e-08
-1.94798e-06
1.36142e-07
1.51287e-07
-5.13425e-08
-0.000549101
-1.73465e-07
-1.72462e-06
0.00663004
5.97844e-07
8.71148e-08
2.53131e-08
-0.00976377
1.3235e-06
0.00100413
-0.012228
9.96543e-05
0.000400682
-0.0201149
-4.44903e-07
-2.72765e-06
1.08105e-07
0.00743991
-4.59099e-07
0.00349455
-1.33199e-06
-1.15179e-07
-2.36325e-07
1.09865e-05
-6.29596e-07
1.4029e-06
9.97348e-10
6.80364e-08
3.98403e-09
-5.30096e-06
-1.94142e-05
0.000254277
-5.79087e-09
6.49418e-06
-1.03894e-07
-0.00634479
-9.09725e-07
-6.76672e-06
1.04631e-05
0.0017199
2.09634e-07
0.00123244
1.15994e-07
0.00911908
5.00201e-08
-1.69145e-07
2.42619e-07
0.00153559
0.000371796
2.2592e-07
0.0160427
2.828e-06
-2.17626e-06
-3.97236e-08
2.09894e-06
-8.18138e-08
4.43294e-08
-7.40526e-05
-5.29959e-05
-0.00475429
-2.17842e-06
-7.55064e-07
-0.00327059
2.05697e-08
6.11272e-08
9.12041e-08
-0.0189822
1.77347e-05
-1.57501e-06
-2.07748e-08
8.87348e-08
0.0140129
0.00109648
-5.6247e-08
-4.70964e-08
5.98111e-07
1.32782e-07
1.414e-07
0.00215886
-0.00533152
1.21242e-08
-5.93941e-07
8.86787e-06
0.00212938
7.20441e-07
-1.89997e-08
0.0155224
0.0102502
2.89548e-05
-0.00243316
1.18628e-06
-1.42226e-08
-0.0159202
1.01289e-05
4.12044e-06
-5.72335e-07
2.35613e-07
-0.0045016
2.02068e-07
-2.48237e-06
-7.19099e-07
1.99776e-08
3.97656e-07
3.66668e-08
-2.59043e-06
-3.14279e-07
0.00164435
-0.0158066
3.60197e-07
-1.52318e-08
-8.34242e-08
-3.45225e-08
8.16511e-08
-9.26806e-09
2.81355e-07
4.30457e-07
0.000538117
-0.00208321
1.05577e-07
8.33338e-08
-0.00474253
9.64463e-10
-7.86574e-06
0.00199376
-8.8242e-08
0.0017637
-4.21496e-07
-0.0106572
-5.00949e-09
-2.45535e-06
6.82502e-09
-2.4498e-09
1.8818e-05
4.14186e-08
-0.000113939
-6.31757e-07
-0.0156254
6.19625e-06
0.0107524
0.000270135
5.30755e-07
-3.9048e-07
5.11076e-06
4.51638e-07
4.09161e-06
4.67827e-07
-2.73831e-08
5.41652e-08
1.88524e-05
0.000377162
-1.60756e-06
3.46023e-07
-1.62754e-08
0.00752121
0.00133128
6.16125e-08
4.76832e-09
3.16259e-07
-0.00486653
-1.9806e-05
-0.000404308
-0.00410558
-1.11409e-09
-2.08175e-05
5.34771e-07
0.00103079
-0.00880967
-7.90827e-06
-1.16119e-08
-3.14759e-06
0.00915427
1.32013e-07
-7.748e-07
-8.65157e-06
2.96695e-07
0.00741166
-3.45223e-09
-4.19669e-08
1.14508e-07
-0.0022651
2.67154e-08
-1.09466e-06
2.4059e-06
-4.135e-08
1.20613e-07
2.64646e-06
0.00650057
-1.12137e-07
6.73154e-08
0.00261006
0.00753758
-0.0190202
0.01504
-1.98132e-07
1.54222e-08
0.00916767
3.10184e-05
-2.76163e-07
4.19689e-06
1.37893e-07
-5.76167e-06
-1.2298e-06
1.01821e-06
-3.05921e-06
-1.37905e-05
-2.61743e-06
0.00213464
8.22352e-08
-9.64905e-08
-1.19285e-05
-4.10655e-06
6.45979e-07
0.00156911
-3.64752e-06
0.000129697
7.4771e-08
2.88207e-06
-4.89522e-08
0.022677
4.66861e-07
-1.66276e-05
-0.00520894
2.2042e-06
1.14299e-07
0.000128204
-1.56766e-08
-0.0145791
1.3387e-05
2.67551e-07
0.0167301
4.11492e-08
-2.33125e-05
-5.77526e-07
-0.000493186
-2.00612e-05
1.85242e-07
0.0167852
-1.45491e-05
1.10709e-07
-0.0144768
-4.1847e-05
4.43637e-07
2.06332e-05
-2.80817e-08
-1.69936e-05
1.82744e-05
-5.78859e-09
-2.23505e-07
2.62764e-07
-7.75441e-10
1.39525e-08
7.06311e-08
0.00504435
8.9591e-05
-7.37556e-09
7.84565e-08
3.62139e-08
2.74234e-06
-0.000918781
-2.67148e-07
-5.24714e-07
-2.8376e-05
1.19292e-05
-9.4538e-09
2.80761e-07
-0.0130075
-0.0004172
1.10753e-07
9.04653e-06
-0.00255931
7.58143e-08
-3.08408e-08
8.27116e-07
1.43726e-08
-2.22106e-07
-8.03587e-09
6.62995e-08
6.21853e-08
-0.0111461
-5.68664e-08
-2.41156e-06
0.000771018
-1.03575e-06
5.39479e-08
1.17195e-07
-0.0140943
9.27916e-07
0.000898
-6.81082e-08
-3.8012e-08
2.25315e-08
1.56283e-07
3.27875e-07
1.73688e-07
-0.0109526
-1.16473e-06
0.0103327
-3.59788e-08
1.08602e-06
1.29218e-05
-5.07368e-08
5.5887e-06
-0.0191336
1.47512e-07
0.00143532
7.14035e-08
3.88635e-09
2.85343e-08
5.53622e-08
3.65496e-08
9.92438e-09
0.00711031
0.00587766
3.52776e-08
0.012251
-1.70617e-05
-1.52333e-08
1.04625e-06
-1.08891e-05
-0.011753
-1.98925e-07
0.00991903
0.000113351
8.52807e-05
1.19175e-08
4.89782e-08
2.14984e-05
1.5991e-07
-0.00977379
-1.38751e-07
3.51702e-08
-7.46256e-08
8.43415e-08
-9.13267e-07
1.91468e-05
-5.67329e-07
9.33588e-06
3.1131e-07
0.000171283
-2.2314e-06
-6.76867e-08
0.012389
-7.31009e-07
-6.37935e-07
-0.0183683
-8.81756e-09
-1.7291e-06
1.85203e-05
7.48586e-09
0.00407971
2.20169e-09
1.55767e-07
2.90672e-06
-1.23942e-07
9.69664e-09
9.90606e-06
0.00533256
0.0150072
2.10021e-08
8.94156e-08
-3.41645e-06
-0.0106225
0.0112632
-7.34905e-08
6.11907e-08
2.6536e-08
-5.14914e-07
0.00390249
7.13054e-08
6.52833e-07
-2.16493e-07
6.55029e-09
-9.35479e-07
1.9698e-08
6.30564e-08
-2.39682e-06
4.38608e-09
3.60257e-08
2.51926e-07
0.00112339
-3.4045e-07
-1.97644e-07
-1.55432e-07
7.29748e-07
1.21407e-06
5.41948e-06
-4.14613e-07
5.60008e-05
2.69483e-07
-1.91851e-05
0.0098629
-0.00943552
0.00109359
5.25086e-08
-3.20767e-09
-3.6639e-06
-2.18377e-08
0.000885743
1.58755e-07
-0.00536048
2.35469e-07
0.00927783
-4.28734e-05
2.73924e-08
0.00862917
3.58847e-08
-5.00937e-06
-1.60202e-06
-1.81525e-06
0.00901418
-2.22234e-07
-1.58502e-05
-5.23758e-08
-1.39649e-08
1.50166e-08
6.87741e-06
7.53889e-07
-2.4314e-08
9.28183e-06
2.63532e-06
-0.00245298
-0.00735253
0.00788586
-0.0117236
-3.03871e-07
0.0013887
-1.5814e-07
0.0119125
0.00412264
1.82743e-06
-3.89263e-08
2.62425e-07
-6.67085e-07
-8.11361e-08
-2.55495e-07
-2.22431e-06
1.5371e-08
-0.000299453
-1.3146e-08
-6.6709e-06
4.17337e-09
1.63457e-07
4.74092e-07
0.000338879
-0.00949807
0.00111374
-1.98158e-06
-3.37967e-07
0.000114055
0.00223592
-6.21708e-07
-0.0175787
7.14609e-09
-2.6055e-05
-1.09132e-08
0.000165465
1.58926e-08
-9.46963e-06
1.13521e-07
-0.00110749
-9.28464e-07
-0.00230924
-3.29249e-07
-2.47607e-07
5.89925e-08
2.43173e-07
0.00216812
6.7694e-05
1.92648e-08
1.23334e-06
-1.8031e-08
-6.72391e-07
1.56548e-07
0.00219949
-1.9541e-08
-2.88484e-06
2.135e-07
3.43459e-08
-4.38392e-06
1.55188e-07
3.05546e-06
6.90218e-08
1.45239e-08
0.014639
-6.98586e-06
-7.81117e-08
3.49652e-05
-2.55519e-05
0.0181604
1.08197e-05
3.23341e-08
-3.11621e-06
0.00121962
9.3254e-05
1.0299e-06
2.37001e-07
-1.48771e-05
1.26208e-07
1.92776e-08
9.5407e-09
2.14383e-06
-1.14088e-07
-0.0199376
-1.45565e-06
-0.00885002
0.00843412
0.000490071
-1.5937e-06
-6.01958e-06
0.00189837
8.13967e-08
1.24862e-05
-1.96786e-09
1.04702e-08
-1.05325e-07
6.42387e-07
9.86253e-06
1.03963e-08
0.00143111
-1.1592e-06
1.55647e-07
-6.35557e-06
-3.61578e-07
-0.000968954
-5.27509e-07
8.61447e-08
0.00459409
5.40041e-07
0.000214023
6.80621e-08
7.54569e-08
4.84247e-08
-2.90036e-09
-4.97267e-07
4.80954e-08
0.000727989
-1.13849e-06
-0.00120776
0.000171521
-9.97033e-06
0.00797108
9.64258e-08
-4.12884e-07
5.05113e-08
0.00226438
0.0150918
-1.94164e-08
0.000988878
0.00157146
2.37985e-08
7.18389e-08
3.87684e-07
0.00886137
6.36928e-05
-1.01832e-07
-1.55407e-08
-2.50115e-07
-1.32269e-05
2.39992e-07
6.03608e-07
-1.16602e-06
-1.01493e-08
-2.66045e-08
-3.57361e-07
-1.94424e-07
1.21465e-06
6.57608e-05
4.17671e-07
1.56719e-05
0.000824807
3.19184e-08
-0.00132835
1.82706e-07
5.33853e-06
-6.10375e-07
8.46818e-05
-4.47189e-08
-9.57402e-06
-0.00701723
3.14755e-07
-5.16818e-08
4.20278e-07
5.06909e-09
2.8956e-08
3.41473e-08
-2.42768e-05
-4.79175e-06
2.07587e-05
-1.048e-06
1.94676e-08
-3.71175e-05
-3.62656e-07
1.68095e-07
-2.33194e-06
1.07142e-08
-4.692e-07
-0.000395883
-1.04641e-06
2.61438e-06
-7.158e-07
-7.35375e-07
3.6915e-08
4.24224e-08
3.1062e-08
0.00131288
-6.85865e-08
-7.56229e-07
-1.93229e-06
3.71517e-08
7.12074e-08
7.70883e-06
-5.10039e-05
-8.8784e-05
-0.000627456
-6.43147e-06
0.00968716
2.78008e-08
3.01229e-06
8.78941e-05
1.94027e-06
-4.79492e-05
9.44847e-08
-8.9446e-08
6.03588e-08
4.85956e-07
1.69608e-06
4.62234e-08
2.39118e-08
-2.61578e-07
0.00282162
1.5948e-07
4.20149e-08
6.37869e-08
-1.58272e-06
-2.73051e-06
-0.0142178
-4.65573e-05
2.1864e-07
0.000429857
1.06959e-07
0.00154961
8.66197e-08
-0.000985676
5.0209e-07
4.77299e-08
-5.58246e-08
0.00602158
6.40421e-07
0.0128029
-0.00216939
2.98309e-08
-1.55947e-07
-5.75563e-07
-5.10545e-06
0.000657251
-5.66685e-07
-0.0122289
1.02069e-08
-0.000994674
6.19761e-06
0.00793969
-9.88031e-07
2.51124e-07
-2.72663e-06
2.84453e-08
-7.11553e-08
1.94982e-07
-2.8104e-08
-3.18261e-06
-1.1688e-06
0.000349867
1.09565e-08
0.00175472
0.00141949
-0.00618883
0.0100389
0.00224253
0.00159989
-0.00121466
6.01313e-09
1.2297e-07
-5.91555e-08
1.07644e-07
2.49365e-08
3.3234e-07
2.34469e-08
-0.0024679
-4.67339e-08
0.000291983
-8.49653e-08
9.71107e-07
-5.8733e-06
6.78258e-08
-2.57159e-06
1.1725e-07
-1.71132e-06
2.33526e-08
-8.32741e-08
0.00742526
2.01387e-06
9.21686e-07
5.29257e-08
3.6367e-08
7.47709e-08
-3.13019e-07
-0.0154916
1.59437e-08
6.50525e-05
9.56668e-09
0.000162303
-1.90214e-06
1.02373e-08
-1.01888e-05
4.57215e-06
2.62896e-08
3.25943e-05
-0.0151062
3.11486e-07
1.60248e-06
2.35202e-08
-2.73362e-06
-1.89316e-07
-2.85116e-07
0.00199904
2.42085e-07
4.88913e-08
-4.82487e-06
0.0019215
-3.11879e-08
0.000993248
7.90185e-05
5.50775e-07
7.80801e-07
-2.4881e-08
-0.00201528
3.9676e-08
1.28603e-05
-1.02269e-07
0.00430712
-2.51949e-06
0.0201247
7.75098e-08
-1.76819e-07
-1.13048e-05
1.81772e-08
-1.3337e-08
0.0108167
-6.82957e-08
1.12588e-08
-0.00797994
6.17044e-07
7.07372e-07
1.1776e-06
4.04592e-07
0.000310771
-2.20601e-06
-9.59296e-06
3.04419e-05
-2.46663e-07
0.0048951
-1.36531e-08
1.12743e-06
-3.44979e-08
0.00122713
0.00016644
-6.61708e-08
-2.01614e-07
-9.19503e-07
-3.91433e-08
-6.66701e-08
9.2848e-08
1.6733e-07
-5.11852e-08
1.42381e-07
-9.33367e-07
-2.93281e-08
2.3233e-06
-0.0105771
-0.0131683
-1.46616e-06
1.5058e-07
-4.81807e-06
2.10837e-08
-4.20863e-07
0.00511687
-8.97521e-05
-2.75982e-07
9.11296e-09
2.53879e-08
-4.81829e-08
-3.14088e-07
6.3192e-08
-2.56733e-08
-1.73495e-06
1.60528e-08
-0.00567277
-0.00811742
1.14112e-08
0.00634997
-2.63047e-08
6.42233e-08
3.03223e-05
0.0020833
-1.90372e-06
5.78931e-07
0.000548667
4.11179e-08
8.03756e-08
-4.93439e-05
-1.75961e-07
-5.99699e-05
-3.83788e-08
-0.00162385
6.06783e-08
1.89784e-07
-4.05959e-08
0.00735558
2.4501e-07
0.00249556
-0.00010036
3.33866e-08
8.44013e-07
6.89731e-08
3.80092e-08
-1.30264e-05
5.14307e-07
-7.3498e-08
0.00269327
-0.00433066
0.00580406
-1.66146e-05
3.26651e-07
0.00205059
-2.06964e-08
-0.00165635
8.93628e-08
-1.24083e-07
2.20662e-07
0.00616053
0.0139481
0.000240909
-7.46698e-08
0.00127149
-1.17007e-08
-1.16661e-09
4.57125e-07
3.18392e-08
-1.36516e-07
0.00531492
0.00183817
1.17576e-07
-2.93765e-07
0.00207448
-4.5607e-08
-3.49664e-07
-0.00527174
-0.00363777
1.09048e-07
-1.41113e-07
-7.00911e-07
-2.26254e-09
7.96061e-08
-2.19951e-05
9.68749e-07
-5.41099e-08
-0.0031515
-7.06473e-08
4.83696e-05
0.00559314
-4.94205e-05
0.00153307
2.44751e-08
-3.60633e-08
2.43728e-06
0.00188097
-1.39587e-05
5.72298e-08
1.1965e-06
-1.02738e-07
2.45667e-07
5.32755e-08
-0.0151886
-8.68615e-06
8.16863e-09
3.89025e-06
-7.54256e-09
2.11466e-07
-1.28276e-06
-2.15924e-05
-1.09988e-05
4.16599e-06
-0.00021699
-0.0134999
0.00416707
3.68155e-08
-2.43868e-05
-3.48129e-07
-1.09533e-06
7.26569e-06
-0.00519465
2.41593e-08
-1.99133e-06
-3.55744e-08
-0.00939877
1.65839e-07
-0.0134409
-1.89373e-07
-2.55795e-06
-0.0157546
-1.1717e-07
-2.33455e-05
4.65332e-07
-6.85964e-08
1.68834e-06
5.6142e-05
-1.74856e-07
4.38996e-08
2.07281e-07
0.0031913
3.57892e-09
2.68382e-08
-8.71318e-08
-1.2894e-08
1.58227e-07
2.56193e-06
-1.3084e-05
1.03404e-07
5.19627e-08
-0.000200001
2.44648e-06
3.81296e-06
0.0055662
-3.56758e-08
7.71165e-09
0.0134952
-6.56359e-07
8.77956e-08
0.00427671
0.0016449
4.46483e-06
-3.51889e-06
8.45766e-07
0.000702446
-1.41592e-05
-2.90185e-07
0.00121049
6.31848e-08
8.09743e-06
-0.010723
-1.77301e-05
0.0032715
0.0207412
1.40164e-08
3.04115e-08
3.19555e-08
1.76942e-07
5.57478e-08
9.15467e-06
1.45054e-07
1.66798e-06
-2.90514e-07
-8.5996e-06
-0.0125921
2.56414e-07
-0.0145883
0.00141236
1.9646e-08
-1.25991e-05
8.03473e-07
2.98052e-07
5.42261e-08
0.00167527
-2.80357e-06
0.00199107
3.10707e-07
-0.00422467
2.86734e-06
4.48397e-08
-0.00298562
-1.18715e-08
-5.00754e-07
1.22458e-08
-0.000871207
4.07824e-08
3.62058e-07
1.39229e-06
6.65658e-07
-1.10706e-07
4.70788e-06
0.0272703
2.1099e-08
-1.24541e-05
-0.00172615
-6.78774e-08
3.84117e-08
-4.49792e-07
0.000839692
-3.98159e-05
3.43935e-08
1.22844e-06
2.74408e-07
0.00598369
0.000186608
-1.56363e-07
6.19404e-09
-1.54504e-07
6.74657e-08
3.11502e-08
3.05367e-07
0.00278441
-2.93337e-07
-2.42515e-07
5.16086e-05
3.69258e-07
2.64327e-07
-0.0046888
-0.00319493
-4.84576e-08
3.09272e-08
6.86655e-09
-3.98103e-08
-1.23667e-05
0.00861492
6.4168e-07
5.47574e-06
1.12921e-06
3.36381e-06
-1.85156e-07
4.24912e-08
3.61068e-07
2.86636e-06
1.53536e-07
-5.46224e-05
7.26578e-08
3.30449e-08
9.62046e-08
0.00289058
2.65061e-06
6.12326e-05
-0.0116952
7.2027e-07
4.67102e-08
-0.00447719
3.28348e-08
9.66745e-09
-0.0190059
-0.00290332
2.02498e-07
-1.43891e-06
-2.4841e-06
-1.45521e-06
-1.00982e-07
-1.26667e-06
3.54323e-08
3.83214e-08
1.34446e-08
1.22391e-07
-2.55058e-06
0.00100788
-2.0191e-06
-2.11375e-08
3.58186e-07
5.56515e-07
5.90638e-08
-7.65311e-07
3.21734e-06
4.44769e-07
-0.0024226
-5.47904e-08
-1.14882e-06
0.00130714
9.79773e-09
-7.87822e-06
-1.53126e-07
-3.27307e-06
-1.91614e-08
1.07281e-08
0.000287056
-7.91712e-07
-1.0548e-07
4.26711e-08
0.00176774
-0.000171456
0.00216355
-1.96298e-07
2.8283e-08
0.0246043
1.00197e-07
1.14566e-07
-3.85576e-06
-0.000113693
1.30484e-07
7.83823e-07
-7.58989e-08
0.00418748
3.89156e-08
-1.08755e-06
1.49224e-08
-1.07041e-06
3.13093e-05
4.30387e-08
3.4722e-08
0.0098303
-7.84059e-07
0.0225799
4.23661e-06
-1.18626e-08
-6.96675e-07
7.72712e-08
5.29797e-08
1.03834e-06
3.26583e-08
1.72659e-07
-5.30955e-06
-1.62551e-07
7.85315e-06
1.005e-05
8.96292e-06
5.67905e-08
-8.16174e-08
7.92476e-08
0.00138154
3.34695e-08
0.00366923
1.62384e-06
3.24254e-08
4.32295e-06
7.33381e-07
-3.93565e-08
5.04002e-08
-6.29047e-06
2.02821e-08
-1.13078e-07
1.32751e-05
7.82328e-06
2.79152e-05
-1.7843e-06
3.19748e-08
9.61406e-08
-0.000166251
-7.46034e-09
-0.00373138
1.4437e-06
3.95496e-07
-6.14982e-09
-2.48002e-07
1.15811e-06
1.34516e-05
0.0123185
-1.23428e-05
1.39581e-07
-9.24809e-06
-4.32624e-06
-5.88357e-07
-0.0110666
-2.21318e-07
5.84957e-08
1.39758e-07
7.30164e-07
-3.96666e-07
0.00274901
-1.46517e-08
-3.5731e-07
5.3466e-06
0.00158795
0.000683559
4.82199e-07
-5.87681e-07
-6.33016e-05
2.45691e-05
5.1812e-08
-0.010265
-1.5344e-08
1.3624e-07
0.0260114
-6.17665e-08
0.00258551
-3.22285e-08
2.03956e-08
-6.80137e-08
9.61509e-08
0.00912877
8.01213e-07
-1.26203e-06
9.59123e-07
-8.90991e-09
5.85877e-08
1.19244e-07
6.22036e-08
-2.80622e-06
-2.64987e-08
6.37335e-07
2.8167e-08
0.0132132
0.00347149
2.27416e-08
1.26422e-08
1.38006e-07
1.0098e-08
-1.16053e-07
-1.91048e-07
-5.97716e-07
4.25253e-08
-4.11236e-09
1.95694e-08
8.25769e-08
6.68525e-06
-2.21628e-07
-2.42331e-06
5.35266e-08
5.25116e-05
1.84316e-07
1.64241e-07
9.57863e-09
5.32288e-08
-8.20397e-07
-2.30482e-06
-1.81055e-07
0.0128265
-6.44351e-06
0.00612642
-0.0031504
2.83167e-06
0.0105375
3.31601e-08
7.84652e-08
-0.000278062
-0.0016888
1.40696e-07
0.00208837
-5.03169e-07
9.97391e-06
0.00717182
-2.50641e-07
7.48908e-06
0.00561332
0.0167201
2.74635e-07
-2.55101e-06
1.45304e-08
-0.000191697
-2.0044e-07
0.00395128
0.000480484
6.25514e-08
0.00174625
0.000739767
1.5996e-07
-0.0129574
1.32258e-07
3.35682e-07
1.49793e-08
2.95998e-08
0.00196189
4.8126e-08
-6.14e-08
-3.61803e-08
-0.000524973
1.5306e-06
-4.18534e-09
1.24636e-07
-0.00043345
6.48616e-08
2.0467e-08
-1.4018e-07
3.00616e-08
-0.0025547
-3.08653e-06
5.56115e-07
0.00237483
5.72059e-09
-7.49661e-06
5.38249e-08
4.55575e-08
-2.16101e-06
-0.00014971
2.30287e-07
-5.83952e-07
-2.29824e-07
-1.95394e-06
-1.04661e-07
1.45559e-08
-0.0121987
2.43562e-07
1.93049e-08
1.16971e-08
4.10089e-06
1.56304e-08
-0.00292818
-0.0112241
-0.0052144
-7.2728e-08
3.10749e-08
4.30687e-08
-0.00157956
-7.60424e-08
0.0109735
2.1256e-07
3.62518e-06
8.29213e-08
-1.79278e-06
2.27429e-05
-6.71572e-08
-9.51092e-09
0.0018479
1.96306e-06
0.0025268
-6.76719e-07
0.00967621
0.000381218
1.93569e-08
0.00239286
-4.50848e-08
-1.7137e-06
-0.019589
-3.68458e-07
3.23306e-06
0.00199911
1.57335e-06
-3.86733e-06
1.31184e-07
0.00197345
-2.83926e-08
-0.00721781
4.62105e-08
0.00179319
1.03438e-08
6.18723e-09
2.11143e-07
0.00154675
6.05226e-08
-5.74307e-06
-1.73097e-06
0.005337
-1.13276e-08
6.75057e-07
0.00836185
0.00681613
0.00647036
4.76627e-06
2.37258e-07
4.35101e-06
0.000393619
2.0665e-07
0.000313779
-1.14916e-07
1.42883e-05
0.00157301
5.92431e-08
0.000284112
-1.2272e-08
0.00944709
-0.00016557
-6.29243e-08
1.34298e-06
-0.0080784
-0.00271133
2.61975e-08
-1.34676e-07
3.54904e-08
-4.79549e-08
0.00394176
-1.73575e-06
-0.0001759
-1.33426e-07
-3.60461e-07
0.00275361
-8.65623e-05
0.0055012
0.00797184
-1.40395e-08
-2.795e-08
2.41714e-06
-0.00624947
0.0253686
0.00291022
-2.63365e-05
-2.59212e-07
-4.06708e-05
0.00733141
-0.0122658
0.00186165
1.3937e-08
2.47368e-06
9.74196e-08
-4.14859e-06
1.44089e-07
-1.95296e-07
-3.83657e-06
-3.42332e-05
-0.00252847
5.50405e-07
0.00869069
0.00238808
8.43029e-07
4.32819e-10
1.13528e-08
0.0228326
2.88656e-08
0.00691003
-6.79976e-07
8.79822e-07
2.27407e-05
-9.24994e-05
3.13855e-08
-7.92773e-08
-5.98702e-07
1.28448e-07
0.010244
-1.06379e-06
0.00803387
-3.09406e-07
0.00264473
-3.7272e-05
7.90589e-06
5.43847e-08
2.70989e-07
2.14019e-06
-0.000266056
2.07412e-06
4.53567e-06
0.00370522
-4.27551e-05
-4.908e-07
-6.90887e-08
-7.27287e-07
9.78604e-06
0.00101489
2.64697e-07
-1.81374e-08
1.99273e-07
0.002483
-0.00124857
7.77957e-08
-2.57471e-06
-0.000118884
1.474e-08
-6.69641e-05
2.70596e-07
0.00861186
-2.15987e-06
0.00113056
0.00741197
3.18742e-07
4.21312e-07
-7.00402e-05
4.39307e-08
5.79097e-07
-0.000822735
2.77804e-08
-1.4617e-05
1.21318e-06
-6.56733e-06
-0.00438618
0.00887301
5.07605e-08
0.0203292
0.000273142
-8.10089e-08
-2.27282e-05
1.87596e-06
5.32713e-06
-0.00687586
0.00162514
0.00462489
9.1783e-06
-0.00334871
7.23006e-08
-1.45339e-05
-5.48581e-08
1.3547e-08
1.39658e-07
2.12129e-08
0.000304066
-1.79119e-05
-1.34408e-07
3.9479e-05
7.96787e-06
4.06549e-08
0.00128621
-0.00156466
-6.02406e-08
-5.74537e-08
-9.04464e-09
-4.11426e-08
-2.10884e-06
-2.32086e-08
-0.0160834
-3.55209e-07
5.20411e-06
2.92861e-07
-3.96702e-06
-1.02127e-05
2.4577e-07
0.00752515
1.41465e-07
-4.70222e-08
-2.0408e-07
6.07463e-08
0.00908228
-2.14928e-05
8.60874e-07
0.00848224
-1.60022e-07
-2.86453e-08
1.89993e-06
-2.6881e-07
2.83561e-07
-8.81683e-06
-4.22573e-07
0.00214855
0.0232319
0.00755139
7.23943e-08
-0.000692033
4.87717e-09
0.000130151
1.3016e-08
1.73606e-05
0.0061631
3.6775e-09
0.00159789
0.00199339
1.1796e-06
1.12882e-08
-4.44255e-08
3.38765e-09
-0.0193768
7.43058e-08
9.43845e-09
5.03752e-08
-7.37273e-10
-1.67327e-05
1.5924e-08
2.17081e-07
8.04257e-09
1.09344e-07
-0.000329071
-4.61468e-09
-6.6294e-07
1.17188e-05
0.0170014
0.00449472
0.0120123
2.41806e-08
-1.63505e-07
0.00068853
1.48556e-07
-1.82392e-06
8.61735e-08
0.00570546
2.09408e-07
-1.78518e-07
2.72137e-06
-0.0125512
-1.99798e-08
1.56547e-07
-1.41071e-07
-2.24319e-05
-0.000676573
6.57344e-06
1.99775e-08
-4.62811e-07
8.75207e-09
0.00199591
1.00316e-07
0.000106292
-3.88441e-06
-1.61937e-07
0.00011456
2.63116e-06
3.96266e-07
1.03505e-07
9.16478e-08
-3.70257e-07
1.39736e-06
7.74534e-06
1.73046e-09
5.04824e-08
1.5887e-07
0.00194792
3.14398e-09
-1.33223e-08
0.007681
-3.23045e-08
-9.6987e-07
-7.60731e-08
8.55241e-08
-1.31294e-07
-8.20484e-05
-1.48248e-07
-0.00141977
4.71082e-06
-7.46097e-08
0.00127767
4.584e-08
7.13357e-06
-2.33241e-06
1.97603e-08
2.06457e-08
-2.03733e-07
-1.09061e-08
0.0227189
-1.52843e-06
0.00117027
-0.00358453
1.68043e-08
-1.4987e-05
-5.75108e-07
-0.000105401
-4.97336e-08
0.000329766
0.00832967
0.00406831
9.57376e-08
-1.27881e-08
-4.74045e-08
0.00294571
0.00837196
8.46028e-07
3.71822e-09
5.32413e-07
-0.0173423
2.42779e-09
-1.16858e-07
-1.05719e-07
1.87238e-05
0.000118183
-4.66312e-07
-0.0124853
-3.42623e-06
-1.47539e-09
-0.017606
-6.62183e-06
-0.000877528
0.0140509
-1.56903e-07
-1.90469e-06
-1.74783e-08
1.07972e-06
7.42404e-09
8.58282e-06
-1.86761e-06
-5.76125e-07
-5.02628e-08
6.69061e-05
0.0173339
9.72389e-08
-3.52915e-06
-0.000280799
-0.000662864
-7.38853e-07
-1.30586e-07
1.20737e-05
0.00228415
0.0113149
5.79582e-08
-0.00644198
-7.31381e-06
1.06622e-07
0.00111178
2.70723e-07
3.00929e-08
-0.00429615
-3.26891e-08
-0.000121895
1.40551e-08
-4.75022e-07
-7.78226e-08
-5.90126e-08
-0.00143545
8.39557e-08
6.55004e-09
8.67799e-06
-2.49964e-07
8.01316e-08
4.81822e-06
-5.69935e-08
2.74919e-08
2.85143e-07
1.37905e-07
1.07409e-07
1.82953e-07
-0.000307781
0.02191
-8.21481e-06
-0.00622871
-0.000331514
-0.00531558
-0.000124468
-0.00337783
5.63769e-08
1.61331e-06
-7.10429e-08
3.99385e-08
-1.61446e-07
-1.0216e-06
4.64933e-06
7.11994e-06
1.50409e-06
2.42591e-08
-2.77346e-08
-9.27947e-06
-8.53408e-08
-4.71498e-08
-8.23863e-08
0.00177852
-6.16339e-07
0.00129842
5.61978e-10
1.02455e-05
1.65526e-08
-2.24615e-07
8.40382e-08
-1.51782e-06
2.84801e-08
6.71338e-06
0.00235271
-1.31618e-06
0.00138251
0.00310854
2.47302e-08
-7.21537e-08
-0.000393195
4.14388e-06
1.1764e-07
-4.30041e-07
-1.1426e-07
-0.0023331
-2.09845e-07
0.00814313
-0.000161549
6.71653e-06
0.0186537
0.0089834
4.24132e-06
0.00973416
5.415e-08
1.84565e-07
-0.000137696
0.00439222
1.43104e-07
1.25879e-07
0.00767229
9.48011e-09
-1.07144e-05
4.04236e-09
8.72049e-08
3.56977e-07
-1.38311e-08
8.69536e-06
0.0017837
0.00222246
-5.80518e-08
1.84078e-07
-5.72871e-06
7.34997e-08
-3.9131e-06
2.54138e-08
1.26687e-05
-5.63539e-06
8.63155e-09
3.25715e-08
-2.69044e-08
3.36937e-05
0.000177314
1.07387e-05
0.000568847
-6.77287e-07
0.00355271
-9.90122e-07
1.81844e-05
0.00732328
2.63558e-08
-0.00437615
6.67425e-08
0.00154052
0.000151721
-0.00482708
0.00319726
7.42745e-08
-2.62111e-06
-0.000145565
-3.70499e-08
0.00195488
-6.39143e-08
-1.09613e-07
-1.82694e-07
8.07389e-08
5.23117e-07
7.1571e-05
-0.00152649
-0.0143721
-3.70911e-07
-2.38726e-06
2.27477e-07
-2.14419e-07
1.05325e-07
9.46278e-06
-9.69946e-07
0.00227434
-2.07906e-06
-5.95159e-08
1.72902e-08
1.29253e-07
3.94532e-05
3.5449e-07
3.35711e-07
2.12621e-07
-6.99294e-06
3.00543e-07
4.118e-06
-4.40419e-06
-0.00499555
-5.39212e-07
-3.59035e-07
-6.3856e-08
-2.27186e-07
-0.00152734
0.000855977
-2.768e-06
-4.22577e-07
-0.0191249
-3.35481e-07
4.66181e-08
2.18765e-06
0.0022828
4.31494e-05
-1.4623e-07
3.68653e-09
-0.0143493
2.91872e-08
1.60658e-08
-6.63806e-08
0.0305474
6.04045e-05
-1.34341e-07
-0.0163291
-0.000858679
1.44588e-08
-5.21217e-06
-2.41584e-06
0.00783174
-9.25094e-08
0.00753783
-8.69999e-08
0.00068464
1.44414e-06
0.0110069
2.73357e-07
-5.21439e-07
0.00341608
2.7817e-08
1.67627e-07
-0.00391654
0.00438467
0.000180358
-0.00138734
-2.48183e-08
-1.50825e-07
0.000195688
5.66056e-08
-1.64131e-08
1.22596e-07
-1.25708e-06
-4.43753e-08
7.83459e-07
1.98827e-08
-8.63637e-05
-0.00355994
6.28581e-08
0.00192598
2.85598e-08
0.00305574
0.00168469
1.73103e-08
-9.97096e-08
-3.79963e-08
5.33932e-06
7.51462e-06
7.17041e-06
0.0024156
-0.0102204
0.000135525
-3.95511e-07
0.00472728
8.86704e-05
-0.000114422
-0.00031094
-4.37055e-08
1.07351e-08
9.48007e-09
-8.93277e-08
3.0532e-09
9.69603e-09
0.00227741
-3.74767e-06
5.4494e-06
-0.00614812
0.00707705
0.00588778
0.0050172
-1.3451e-06
0.00990169
2.86508e-06
-2.35346e-06
-2.69726e-08
-3.3644e-08
5.17972e-06
0.0013346
5.27097e-08
-0.0139325
0.00369922
7.22073e-08
-2.63606e-08
-7.23976e-07
2.11862e-06
-1.30944e-08
7.50356e-06
-0.00327184
9.64279e-08
2.85093e-09
5.89255e-08
7.39108e-08
-1.02456e-05
0.00235252
-8.23185e-07
0.00463575
7.07002e-06
2.70367e-09
7.89629e-06
3.6483e-05
2.87067e-07
-0.000441377
0.000932468
0.00167622
0.0135012
0.00196977
-8.55412e-09
0.000771255
0.00262764
-2.89289e-06
0.00317852
1.48841e-07
1.91823e-07
3.32771e-08
1.94061e-07
0.00597451
4.99614e-06
-2.1982e-08
-4.15936e-07
0.000237994
0.00259172
-4.68043e-07
-1.31209e-07
0.00593212
0.00445041
4.672e-08
1.74545e-07
6.60239e-06
-2.78415e-08
9.0222e-10
0.0142946
3.51047e-08
-5.64348e-05
8.15674e-06
0.00862369
3.18575e-08
-5.64984e-06
-1.79818e-05
2.5163e-08
-1.24935e-07
-0.00105479
0.0176408
-2.56208e-07
4.27963e-07
-1.10951e-06
-1.44671e-05
0.00822051
-0.0149757
1.98381e-07
6.45397e-06
0.000489187
-7.88309e-07
3.98412e-09
0.00274563
2.30124e-07
-3.082e-08
0.00212912
-5.73549e-08
5.8244e-06
-2.77387e-08
9.27516e-07
2.47345e-08
-5.21511e-08
1.46541e-07
1.07363e-07
-0.0190057
2.18192e-08
-0.00405163
0.000444318
-2.56873e-06
5.06197e-06
-0.0191183
0.0103756
-0.0195356
-1.40839e-07
5.7917e-08
-1.20513e-06
2.22359e-07
1.88379e-06
0.000273835
-1.32124e-07
-0.000625232
0.00212266
2.36877e-07
6.82246e-06
6.1398e-06
1.11215e-05
1.40526e-05
-1.55059e-07
1.51367e-05
1.66067e-05
2.45447e-05
2.36247e-05
-1.75212e-05
8.47739e-06
1.62466e-06
1.11396e-08
-6.70293e-08
-3.33745e-06
-1.27686e-08
-5.45672e-05
0.00959892
0.000206865
0.00237506
1.10974e-07
-6.98614e-07
0.000541446
-0.000256716
1.84597e-07
2.27841e-07
-1.3129e-05
0.0159593
0.00772097
-2.37233e-08
3.65687e-06
-3.46824e-07
0.0076371
0.000245174
-5.41085e-09
6.52005e-05
0.0026269
3.91447e-06
0.00546847
8.30101e-06
-9.44137e-05
0.00932893
-5.65557e-07
0.0108442
0.00270409
1.03222e-07
-2.76792e-06
-2.27532e-06
-1.86436e-06
3.95191e-09
6.04802e-05
-0.0142132
-3.16265e-07
-2.03615e-07
-0.000626761
-0.000612184
-8.00015e-08
6.16154e-08
4.8354e-05
3.93915e-06
0.00373941
0.00108083
-2.97738e-08
-1.97853e-08
1.66179e-07
2.30131e-08
0.00649943
0.0130883
-0.00459975
3.05206e-06
-3.89467e-05
0.00467147
2.238e-08
3.01462e-09
0.00253798
-8.94535e-08
0.00942967
4.95378e-08
0.00561449
-4.29421e-08
-1.03602e-07
0.00847704
3.98037e-09
-1.30552e-05
-0.00553945
1.51752e-08
-3.53582e-07
-1.6603e-07
7.03893e-06
0.00215216
1.06354e-05
0.00335932
8.61209e-08
-8.09246e-08
-1.03117e-07
-1.68703e-06
0.00948507
0.00821645
7.29587e-06
8.30197e-06
-1.64914e-05
0.000181155
-7.24992e-08
-7.15337e-07
1.01434e-07
-3.14561e-08
1.55491e-05
0.000245683
0.00105343
-1.24544e-06
-3.2566e-05
3.29878e-08
0.00015737
-0.00504254
0.00697447
1.5137e-08
-4.38956e-08
-4.59937e-07
0.00293701
-5.47139e-07
0.000976527
-6.52542e-06
-1.60529e-05
3.74393e-05
-5.1171e-09
-1.10093e-06
1.40338e-05
-6.41059e-05
-4.54378e-05
2.60475e-08
-3.05831e-05
-1.55795e-09
1.50182e-07
-7.38086e-06
0.0169014
0.0130471
2.55308e-08
-4.94943e-06
-0.000473928
0.00752843
0.00135486
0.00732602
0.00970067
5.00105e-08
2.69583e-06
-7.10977e-08
-2.5634e-05
2.17064e-07
2.31702e-06
-2.33199e-07
1.33474e-06
-1.35241e-06
-0.00873478
-5.36884e-10
-1.46392e-05
0.00286765
1.62381e-05
-5.52162e-07
-0.000984119
1.77221e-05
-1.06737e-06
3.2877e-08
0.0077463
2.55386e-07
4.14797e-06
1.8033e-06
0.00045667
0.0018999
-3.97869e-07
-0.00196571
0.00222124
0.0198815
0.000121146
-1.12628e-06
-8.62873e-06
7.01853e-06
0.00687062
0.000217502
1.95339e-07
0.000242856
-2.84139e-05
0.000121092
5.58129e-07
-0.0178111
0.00749232
0.00138786
-6.07335e-08
-0.00540105
2.46288e-07
0.00219831
-2.24409e-05
0.000108135
0.000630481
1.43691e-08
-2.73673e-07
0.00244718
0.0110759
-9.92572e-05
2.37374e-08
-2.62953e-06
-3.62791e-06
0.000815388
0.00711101
0.00254494
2.5496e-07
0.00219243
9.26272e-06
0.00153821
1.67226e-07
6.33659e-06
-0.0136295
-1.93323e-08
-2.26221e-06
5.71707e-08
-1.79625e-07
2.27174e-10
2.98142e-06
2.87193e-08
7.76943e-08
0.00940559
0.00289421
9.23644e-08
0.0103347
6.32765e-08
-2.71422e-08
7.45123e-08
3.83447e-08
8.60158e-08
-0.000711403
0.00766611
-3.54117e-07
-0.000234574
6.29104e-06
6.21015e-08
-1.92652e-05
6.66925e-06
2.42113e-07
-6.13282e-07
3.89851e-09
1.77298e-06
3.49684e-06
0.0101123
1.44857e-08
0.00465905
-0.000198591
3.89885e-06
-0.00500203
0.00178524
2.86844e-08
0.0017632
5.74976e-07
1.89262e-06
4.27128e-05