/*--------------------------------*- C++ -*----------------------------------*\
| =========                 |                                                 |
| \\      /  F ield         | OpenFOAM: The Open Source CFD Toolbox           |
|  \\    /   O peration     | Version:  v2012                                 |
|   \\  /    A nd           | Website:  www.openfoam.com                      |
|    \\/     M anipulation  |                                                 |
\*---------------------------------------------------------------------------*/
FoamFile
{
    version     2.0;
    format      ascii;
    class       volScalarField;
    location    "50";
    object      ddt0(omega);
}
// * * * * * * * * * * * * * * * * * * * * * * * * * * * * * * * * * * * * * //

dimensions      [0 0 -2 0 0 0 0];


internalField   nonuniform List<scalar> 
13917
(
0.0227599
0.00417341
-0.00512129
-3.81089e-05
-0.00485331
-8.75673e-05
-0.000300014
-0.548364
-0.000227493
0.393494
-0.459857
-1.03536e-05
9.77386e-07
0.20669
-0.000456713
0.0811077
-3.45099e-05
0.0978397
0.0203589
2.28815
0.000862377
5.56756e-07
0.000733348
-1.06753e-06
-5.58408e-05
-0.000405732
2.12187
-0.949104
-0.00113647
2.97138e-05
-0.685944
-0.0111737
-3.31836e-05
0.146531
-6.03408e-06
-0.301337
9.06431e-05
9.08228e-07
-0.00026122
-0.00147599
4.53475e-05
-1.62336e-05
-4.97433e-05
-0.0334471
-0.0399345
-0.458411
0.000621461
-0.530567
-0.464136
-7.38437e-06
-6.5883e-06
0.00221266
-0.781495
-2.22999e-06
1.23753e-05
-0.00335083
-15.1702
0.00286475
-3.45214e-05
-0.619191
0.754962
0.00591172
-2.5625e-05
-2.41032e-05
-0.203765
-1.39896e-06
6.67612e-05
-0.257498
-0.370945
0.0996735
0.17639
0.145855
7.69882e-06
9.54492e-05
0.000275109
-6.34903e-06
0.00027372
-4.73173e-05
5.61176e-05
-2.97724e-05
-2.09818e-05
1.43751e-05
7.57121e-06
0.646977
-7.41665e-07
-1.62188
-0.00998141
-2.51075e-07
-0.000577916
-4.99283e-05
-4.45824e-05
-3.32193e-05
-0.285452
6.9578e-05
5.74076e-06
-0.00239
-0.307365
-0.000321128
-7.91333e-07
0.0184653
7.8463e-06
-1.66279e-05
-2.6905e-05
-6.57395e-05
0.000330039
0.590818
0.116533
-0.000619235
0.00012867
1.44027
1.13778e-06
0.192201
0.000108502
-0.702634
0.0244761
-5.5595e-05
0.0194531
7.16477e-05
-0.0589134
-1.12617e-06
9.05582e-06
-8.38035e-05
-0.00454901
0.00338225
0.0943666
0.450939
-3.36961e-06
0.000381859
7.00396e-06
0.00809077
-1.4859e-05
1.02111
-0.0774778
5.37171e-06
0.0100293
1.46334
0.528795
0.143732
-0.00154761
2.37903e-06
0.479179
-7.68246e-05
0.631484
-1.14451e-06
8.7633e-06
0.000993326
0.335327
0.437752
-0.312864
2.05383e-06
-0.00122428
8.43993e-06
1.01945e-05
-3.92509e-06
0.0216146
-9.97144e-06
-0.000270817
-0.139407
9.62486e-05
8.14721e-05
1.72953e-06
-0.295305
0.000177342
0.206229
-0.325226
0.0369408
0.564767
-2.06296
-0.000108258
-0.00248421
9.657e-07
-0.0163498
-0.000209447
0.0702272
0.00330232
-2.80337e-05
-5.43827e-05
0.0221192
-0.000281869
0.00019522
6.95032e-06
-1.75311e-06
-4.69416e-06
-0.0202713
-0.0102431
0.874924
-4.64609e-06
-0.0424919
1.95327e-05
-0.870826
0.00226113
-0.0315921
0.0302925
-0.0135647
7.41357e-05
0.148785
5.46235e-05
-0.0113248
-1.02578e-05
-1.09303e-05
0.000124924
0.0681056
0.10368
4.89826e-06
1.2165
0.00141951
-0.00161173
-6.15889e-05
0.00326953
-1.41578e-05
1.82321e-06
0.00742865
-0.031428
-0.446135
-0.000494881
-0.000903786
-0.0448743
-2.98375e-05
-5.75235e-05
-3.97716e-05
-2.22593
0.0328561
-0.0704823
-1.28654e-06
-6.78269e-06
1.13864
-0.0473157
-2.55738e-05
4.9016e-05
4.62533e-05
-8.59961e-05
-7.93116e-05
0.127531
-0.262137
8.66435e-06
-0.000123398
0.00542429
0.115234
0.000100212
-1.14774e-06
1.36692
0.477663
0.0197459
0.009282
0.00190026
-1.10047e-06
-1.52822
0.0115369
0.00208719
-0.000934371
3.24663e-05
-0.303791
1.45445e-05
-0.0012646
0.00347281
1.0897e-05
3.30112e-05
-2.1353e-05
-0.000424227
-5.50972e-07
0.0650087
-0.796113
0.000141145
7.07096e-05
-6.7905e-06
2.76956e-05
6.21266e-06
1.55229e-06
0.000936378
0.000168783
0.0663205
0.112553
7.13307e-06
8.62936e-05
-0.628508
-0.0001297
-0.010484
0.0559924
-0.000126133
0.100864
-7.81247e-05
-0.36677
-1.19791e-05
-0.00031594
1.15977e-05
-3.45267e-07
0.0375721
4.88063e-06
-0.124185
-0.000423299
-0.794315
0.00148938
1.65445
0.122014
8.39551e-05
-0.00462707
0.00190633
0.000113683
0.00176733
0.000101755
1.00332e-05
-6.71268e-06
0.0181894
-0.111659
-0.000539518
6.29473e-05
-1.06058e-06
-0.0894811
0.0266074
4.31103e-06
-0.000205119
6.41918e-05
-0.159634
-0.0264881
0.167269
-0.363096
-0.000124139
-0.0992562
0.000255202
0.699483
-0.260012
-0.0227346
2.64896e-06
-0.000466203
1.70527
-1.06226e-06
0.0177666
-0.0260031
-1.656e-05
-0.00530198
-5.75423e-07
-0.000623673
-0.000317131
4.85969
2.42281e-06
-0.000285061
0.00121864
-0.000114202
-4.56095e-05
0.000153536
0.989366
-4.71733e-06
-3.62335e-06
0.194478
0.719802
-0.292354
0.617996
1.07112e-05
7.86728e-06
0.394247
0.0672213
2.36929e-05
0.0051991
1.72222e-05
-0.00564838
-0.000619285
-0.0026631
-0.00108682
-0.0158016
-0.00399346
0.168806
6.76293e-06
-4.95597e-06
-0.00821776
-0.0701893
6.16242e-05
0.162294
-0.0043275
0.0495112
1.08663e-05
0.00493112
8.43272e-06
0.303307
-0.000199534
-0.0161583
-0.929249
0.00142292
6.78047e-06
0.00472557
-0.000202205
-0.853747
0.0424931
-0.000345836
-0.0211507
2.05178e-05
-0.00293843
-0.000237282
1.4514
0.000818846
4.12731e-05
0.791223
-0.0135742
1.56223e-05
-0.106262
0.139967
9.75617e-05
0.0405686
-1.5668e-06
-0.016392
-0.0236649
-5.85028e-07
-2.1614e-06
4.46372e-05
-1.33825e-07
9.21382e-07
6.01571e-06
0.324465
0.00162875
2.82069e-06
7.27181e-06
-1.38159e-06
0.0039541
-0.158709
0.000188092
-0.00014536
-0.0521654
0.0114236
-9.18547e-07
6.57161e-05
-0.640463
-0.157345
-0.000117866
0.0318973
0.554837
-0.000247376
0.000168986
0.000338665
9.7648e-07
0.000274376
7.70578e-06
0.000153872
-0.000140995
-0.815343
-7.5074e-06
-0.00190463
0.0414914
-0.00176839
3.28081e-06
9.10084e-06
-0.134478
0.000553926
0.059958
-0.000232509
-2.52497e-06
-0.000271164
-0.000125829
0.000107856
2.56083e-05
-0.583283
-0.00385073
0.558508
-2.40093e-06
0.000959262
-0.0025114
-5.60528e-06
0.0068296
-0.236839
1.59448e-05
0.797276
5.04962e-06
9.90947e-06
-1.45535e-06
2.51452e-05
1.60865e-06
1.99044e-05
-0.108047
0.209614
2.88044e-06
1.5741
-0.038495
-7.70793e-08
-0.0014572
-0.0208353
-0.113478
-6.77803e-05
0.445542
0.0427563
0.0363093
1.80782e-05
-4.54504e-05
-0.0037783
1.55616e-06
-2.04991
-7.5674e-05
3.72228e-06
2.55137e-06
6.49353e-05
-0.000936562
0.0465043
-0.00520028
0.000591116
-0.000563177
0.055837
-0.000624026
-5.2906e-06
0.394271
-0.000647021
-0.000411279
-1.34408
-7.29109e-07
0.000474256
0.0373964
1.68598e-07
-0.17015
1.04151e-05
-0.000110708
0.00390723
-9.10633e-05
-1.11622e-05
0.000809641
-0.177482
0.629089
1.45239e-06
5.85561e-05
0.000746751
-2.08856
0.411033
-6.98428e-06
1.06287e-05
1.81337e-06
0.00180099
0.148068
6.67576e-06
6.99564e-05
-1.16292e-05
6.50081e-07
-0.00067797
0.000416677
-3.26374e-05
-0.0065343
-1.38469e-07
1.45035e-07
3.58321e-05
0.229792
-1.86215e-05
-7.25976e-05
5.18738e-05
0.000537665
-0.00569528
0.00502389
0.00384305
0.053547
4.4552e-05
0.00308073
0.03638
-0.462704
-0.00715275
4.39245e-06
-2.5136e-06
-0.00327332
-1.49385e-06
-0.0424002
-0.000156111
-0.142704
0.000121186
0.190123
-0.0306658
9.68505e-06
0.369321
4.68219e-06
0.000686863
-0.000278014
-0.00012002
0.136738
-1.96975e-05
-0.046098
-3.34639e-05
1.54782e-06
-2.18184e-06
0.0153959
-0.00075618
-1.33409e-05
0.00839965
0.0020052
-0.279566
0.538182
-0.103218
-0.108289
-4.00169e-06
0.242402
1.8959e-05
0.599435
0.387473
0.000303549
0.000251047
-1.83702e-05
-0.000675833
-3.63604e-05
0.00014436
-0.000427292
2.84147e-06
0.60258
-9.67881e-07
-0.0133675
-5.87254e-08
7.83345e-05
9.38143e-05
0.458299
-1.27878
9.18206
-0.00825649
0.000255521
0.0910952
0.117033
-0.000251642
-0.793901
8.11547e-07
-0.0565455
-6.74347e-07
-0.0291491
1.28255e-06
-0.00165509
9.7931e-06
-0.171822
-0.000618705
-0.19165
-0.000105795
0.000209831
8.69531e-06
-1.18007e-05
0.200544
0.0436173
8.41242e-06
0.00335067
-1.18122e-06
-0.000129184
2.95751e-05
0.234838
-1.33052e-06
-0.000296525
-0.000119442
6.79477e-06
-0.0464419
-1.68512e-05
-0.0133343
3.80587e-05
8.35769e-07
0.914755
-0.0129003
-8.34994e-06
-0.126539
-0.0696815
0.603853
0.0166127
5.75935e-06
-0.000560079
0.198417
0.06361
0.000528704
6.26596e-05
-0.00393661
4.46609e-05
2.03861e-06
-0.000201837
-0.00123464
-0.000107843
-1.58934
-0.00137055
-0.344513
0.218561
0.0459519
-0.000764574
-0.00587525
0.108256
6.20699e-05
-0.00647579
-0.000214659
3.54064e-07
-4.36988e-06
7.51615e-05
0.00367925
2.99229e-05
0.246966
-0.00142077
1.71788e-05
-0.0200134
-0.00011038
0.158633
-0.000154428
6.95265e-06
-0.211814
-0.00666175
0.013072
1.39858e-05
5.82566e-05
2.66488e-06
2.61775e-06
-0.000238164
3.32181e-06
0.11631
-0.000559289
-0.0369098
0.0168508
-0.0181247
-0.098576
5.55525e-05
2.43039e-05
4.35232e-06
0.0559635
0.659594
-9.44135e-06
0.0897738
-0.0438357
1.92018e-06
5.70395e-06
0.000102331
0.728403
0.0223554
0.000533005
-9.17555e-07
-3.51022e-05
-0.0235339
-4.62539e-05
-0.010924
-0.00109473
8.48917e-06
-1.6032e-05
2.00573e-05
-8.39432e-05
-0.000549521
0.0322185
0.000109981
0.00121187
0.119196
0.000497329
-0.0731972
2.72058e-05
0.00175237
-0.000264458
0.0407981
-5.61871e-06
-0.00959033
-1.40015
-2.19959e-05
-3.50179e-06
0.000103568
-1.10151e-05
1.89432e-06
2.16828e-06
-0.0123743
-0.00535233
0.245204
-0.0185927
-3.91489e-07
-0.0565512
-0.00021392
0.000113842
-0.0093131
9.17669e-06
0.00373819
-0.244165
-0.000358577
-0.00272429
0.00260127
-0.000506233
2.33295e-06
2.0235e-06
2.82754e-06
0.0270814
-2.61867e-05
-0.000250383
-0.00377453
2.54306e-06
4.95245e-06
-0.000868692
-0.0253742
-0.0575832
-0.272621
-0.00637716
0.227224
1.45355e-06
0.00023088
0.0427537
-0.000533655
-0.04266
-4.87184e-05
1.19004e-05
8.29506e-06
0.00014766
0.00172035
3.03889e-06
-0.00224902
-1.2409e-05
0.266801
2.78768e-05
4.78969e-05
-0.000272115
-0.0102563
-0.000357342
-0.366397
-0.0647023
-2.43873e-05
0.219468
8.53994e-06
0.0800517
9.5126e-06
-0.0806039
4.44468e-05
7.05888e-07
-3.72047e-06
0.0292022
0.00039827
0.157358
0.155714
2.0034e-06
0.000215063
-0.000147659
0.003635
0.0187402
-0.000131081
-0.850611
1.33032e-05
-0.0947422
0.00853793
0.394816
-0.000127682
8.81075e-05
-0.0023803
3.85975e-06
-9.61972e-06
3.14349e-05
-1.05141e-06
-0.00471885
-0.0002148
0.0294143
7.27944e-06
-0.00845623
0.0730275
-0.131677
0.340378
1.24877
0.0711632
-0.115008
-4.55472e-07
-1.26786e-05
-4.73976e-06
4.72292e-06
1.71426e-06
0.000191658
1.68512e-06
-0.114608
-7.77773e-06
-0.00474983
-2.91507e-05
0.000880268
-0.00419084
8.9508e-06
-0.00187956
1.02738e-05
-0.000352638
4.8253e-05
-5.86993e-05
-0.0904897
-0.00513295
-0.00174186
3.01304e-06
2.28699e-06
-1.24695e-06
-1.52265e-05
-0.869913
6.95209e-09
0.0404899
7.60189e-07
0.0512855
-0.000251215
6.56737e-07
-0.0108218
0.00224583
1.61422e-06
-0.00383621
-1.3339
4.17499e-05
0.00221019
-1.07362e-05
0.0123523
0.000119955
-1.30584e-05
0.13011
7.15587e-05
2.47795e-05
-0.0128263
0.0830554
9.05384e-05
-0.113784
0.0309806
4.76109e-05
4.47342e-05
-3.15558e-06
0.214749
2.89233e-06
0.00663098
-9.78524e-06
-0.187407
-0.000342427
-0.0669519
7.10728e-06
0.000190483
0.00891993
-5.5048e-05
0.00044742
0.115343
9.2947e-06
6.53359e-07
-0.224316
-9.31688e-05
3.82765e-06
-0.00775284
8.33914e-05
-0.106847
-0.0016978
-0.0167654
0.0465353
-0.000118919
-0.14468
3.41732e-07
-0.00721082
-2.22645e-06
0.0463508
0.0450272
1.31293e-07
0.000130372
-0.000338511
4.58964e-08
0.000139098
0.000158117
0.000133451
-3.27379e-06
0.000118429
-0.000326502
1.1032e-05
0.00475535
-0.216113
-0.26448
-0.00732011
1.06705e-06
0.0109289
1.49068e-06
-0.00431283
0.273093
-0.15488
8.4461e-05
-6.77025e-07
2.47301e-06
-7.21417e-06
6.86985e-05
-0.000346361
-1.6791e-06
-0.000533346
1.12192e-06
5.33589
-0.213718
7.34407e-07
0.0517871
-1.62887e-06
5.47951e-06
-0.00324397
0.246288
-0.0014651
-1.61609e-05
0.0261067
-5.31481e-06
7.1097e-06
-0.127556
-9.21868e-05
-0.0839935
-7.24196e-06
-0.546549
4.31359e-06
9.91122e-05
-0.000114761
0.495399
4.24469e-05
0.130838
-0.0173002
-1.54434e-05
5.19199e-05
4.81974e-06
1.21378e-06
-0.035338
7.92198e-05
-5.99969e-05
0.0378493
3.31809
0.582721
-0.0452012
0.000156091
-0.00479309
-1.13176e-05
-0.266119
0.00311793
3.65132e-05
2.71459e-05
-0.760476
0.607794
1.65205
-3.33738e-07
0.122016
4.65082e-05
-8.32624e-08
-0.000238702
5.48051e-06
-1.15705e-05
1.48597
0.088624
7.18404e-05
8.68657e-06
0.103269
-5.64644e-05
4.84708e-05
-0.200447
0.0712132
4.14988e-06
-1.86555e-05
-0.000228314
5.28322e-09
7.21253e-06
-0.0122561
3.91296e-05
-3.37902e-06
-0.123839
-5.90373e-05
-0.00218732
0.316935
-0.0138963
0.0488291
9.90462e-06
-1.86367e-05
0.000558974
0.0744241
-0.00324324
4.41566e-05
0.000624301
-2.30895e-05
8.3818e-05
8.36037e-05
-0.273837
-0.005177
-2.15585e-06
0.00300612
-7.65752e-07
-5.04409e-05
-0.00122475
-0.0459278
-0.0162516
-0.00274892
0.00749133
-0.400719
0.0552312
9.75861e-06
0.425423
0.000104012
0.00296092
-0.000414271
-0.236697
7.44496e-05
-0.000244204
3.23885e-05
-0.278871
4.80584e-05
-0.103086
0.000301022
0.000205849
-0.873443
3.65843e-06
-0.0390212
0.000112329
-1.07459e-05
-0.00213509
-0.00150279
0.000242811
-7.83055e-07
2.66971e-05
1.24782
9.0209e-08
3.52451e-05
-4.81667e-05
3.84464e-06
1.29472e-05
0.00946305
-0.0244271
1.97455e-06
2.87907e-06
-0.0456091
0.000779938
0.00205752
-0.147955
-7.99279e-06
4.29375e-07
0.94567
-0.000174255
4.98719e-05
0.0456343
0.0326521
0.0010671
0.00109385
0.000278448
0.0447881
0.0238991
-0.000350054
0.12481
5.50879e-06
0.0119041
-0.184096
-0.0766055
0.109678
1.41037
-2.76123e-05
-8.93975e-07
6.7855e-06
1.45866e-05
1.32484e-06
0.0158214
5.38558e-05
0.00314275
5.38417e-05
-0.0120297
-0.105983
4.89928e-05
-1.53027
0.380263
1.31098e-06
-0.0269409
1.53336e-05
5.82003e-05
3.61887e-06
-0.0121715
-0.00853305
0.0945408
0.000126788
-0.350901
0.00767078
6.14293e-05
-0.0106787
0.000376655
0.000154745
3.41065e-06
-0.333106
2.67022e-06
9.84363e-05
0.000659274
2.38466e-05
-2.69911e-05
0.0035397
0.405421
1.40638e-06
0.156658
-0.365541
-8.73141e-06
2.64841e-06
-0.000508125
0.87621
-0.0388177
1.2527e-06
0.0011034
-5.25569e-05
0.133883
0.125836
-1.10852e-05
7.49149e-07
1.98529e-05
4.59518e-06
0.00020831
7.61118e-05
1.10435
-1.53013e-05
-1.81437e-05
-0.0114667
-0.000212505
-0.00169216
0.00449649
-0.213085
3.43847e-06
-6.37553e-06
1.04012e-06
1.36053e-05
-0.0206294
-0.0399284
-0.00203049
0.0131829
0.000638974
0.00416977
-7.85952e-05
0.000964724
0.000115256
-0.0137684
1.76676e-05
-0.0261979
0.000834614
-1.65459e-05
1.09126e-05
0.157302
0.00386158
-0.00758996
-0.400161
-0.00175613
1.83962e-06
-0.484084
-3.2902e-05
3.36373e-07
-0.504217
-0.0876192
3.97753e-05
-0.00224889
-0.0133553
-0.000866824
-4.13859e-05
-0.000320005
2.49983e-06
1.14076e-06
7.41631e-07
0.000209965
-0.00150517
0.086464
-0.001331
6.72237e-05
0.000618123
0.00411751
6.67591e-06
-0.000681185
-0.0672292
0.0599912
0.0638166
-2.05965e-05
-0.000428449
0.027505
3.48618e-06
-0.00282922
-5.62393e-05
-0.00273665
6.20772e-06
4.56053e-06
-0.190656
-0.00031439
-1.09943e-05
2.89156e-06
-1.38796
-0.156545
0.0992813
-7.36428e-06
1.8062e-06
0.996706
8.02151e-05
-0.000397338
0.00951798
-0.0284732
2.44609e-05
0.00076273
-3.07261e-05
1.17988
2.57865e-06
-3.86091e-05
-3.23231e-06
-0.000457473
-0.070335
2.85603e-06
1.66046e-06
1.66808
-0.00549074
-0.119307
0.0434176
-8.35099e-07
-0.000454157
5.526e-06
4.32181e-06
6.10943e-05
4.06355e-06
1.67518e-05
-0.0299632
-1.14833e-05
0.00504511
-0.00143117
0.00382172
3.66291e-06
0.000287683
6.30613e-06
-0.0316875
4.52187e-05
-0.170672
0.00436143
4.85378e-06
0.00649881
0.000745874
-0.00013113
5.74464e-06
0.00156919
1.39369e-06
-7.84571e-05
-0.00800407
0.00332543
0.00101279
-0.000307511
-1.4621e-06
0.000433142
0.0058002
-6.21114e-07
-0.0188078
0.00213966
0.000160854
-2.93504e-07
2.54904e-05
0.00266304
0.00738208
1.11323
-0.0182116
6.73457e-05
0.00163678
-0.00352046
-7.47914e-05
-0.720536
6.22947e-05
8.1038e-05
6.23361e-05
0.000893005
-8.0849e-05
0.179427
-1.6187e-06
-2.78386e-05
0.0282203
-0.479942
0.0671433
-0.00256488
-0.000217828
-0.0181117
0.00895546
0.000219416
-0.673189
-1.0063e-06
9.15118e-06
0.844705
9.9829e-05
0.176145
-0.000330278
1.52907e-06
-4.30768e-06
0.000209435
-0.0378288
4.29673e-05
-0.000385084
0.00514217
-5.70579e-07
3.54033e-06
3.28789e-05
-0.000264982
-0.00403494
-5.1676e-06
6.47118e-05
5.00138e-06
2.12488
0.522052
4.17793e-06
1.35802e-06
8.69929e-06
7.48254e-07
-2.93376e-05
-7.07839e-06
-0.00028204
6.52766e-06
-5.76951e-07
1.61686e-05
5.93421e-06
-0.0133583
5.35752e-05
-0.0107794
-2.12439e-06
0.0136363
4.85706e-05
1.42741e-05
5.19284e-07
-0.00028541
-0.000331722
-0.000278225
-2.63265e-05
-0.676077
-0.00196319
-0.131689
0.0631984
0.00228782
0.198267
1.97262e-06
5.49039e-06
0.269903
-0.329938
0.000324818
0.0824148
-0.000231063
0.0287005
0.110954
-0.000114845
0.0117838
0.0434195
0.20751
9.6393e-05
-0.00387998
9.58405e-07
0.00126414
6.26536e-06
0.059143
0.498517
4.59685e-06
0.349833
1.42816
-2.80588e-05
-1.75253
-0.00015743
7.3278e-05
1.34699e-06
-0.000250213
0.0381275
0.000181022
0.000398335
-5.20749e-06
-0.339553
-0.0136306
1.61109e-06
2.38781e-05
0.810275
8.36112e-06
1.30604e-06
-1.65533e-05
-7.76907e-06
-2.04659
-0.000650885
0.000334293
-0.0133178
2.05337e-07
-0.00669487
3.95458e-06
-0.000288866
0.00134864
-0.0380771
6.052e-05
-0.000205271
-3.76343e-05
-0.000389516
-6.14088e-05
3.32308e-06
-1.91684
4.89314e-05
-8.58417e-06
7.34343e-07
-0.000306848
1.02552e-06
-0.0260104
-0.292116
-0.113116
1.13973e-07
-6.2123e-06
2.94815e-06
-0.128347
-7.62168e-06
0.6631
8.63988e-05
-0.0880796
1.75274e-05
-5.37094e-05
-0.0657647
-7.90417e-06
-5.0733e-05
0.0499389
-0.00478143
0.195444
-0.000235065
0.231129
0.0527816
2.05224e-06
0.0826365
-4.64006e-06
-0.000197011
-1.72905
-5.83693e-05
0.000338782
0.0992205
0.000480984
-0.00907256
8.56619e-06
1.09565
-1.88221e-06
-0.199842
3.06872e-06
0.0833508
6.7388e-07
6.84762e-07
2.72504e-05
0.132362
6.23814e-06
-0.00161279
0.000235527
-0.000861447
-7.52838e-07
0.000373401
0.0580726
0.0640005
0.46399
-0.00359268
6.26602e-05
-0.00479467
-0.0340559
3.61035e-05
0.0177168
0.000205759
0.0274885
-0.024292
6.06965e-06
0.122898
-7.82131e-07
0.305188
-2.08303
-5.42524e-05
5.90508e-05
-0.283264
-0.0535867
1.68895e-06
-4.67553e-05
-8.05126e-06
-6.26455e-06
0.38667
0.00220716
-0.0188091
-8.56901e-06
-0.000159405
0.148824
-0.00197703
0.0341781
1.38887
-7.41282e-07
-1.85254e-06
0.00023363
-0.484198
0.685139
-0.0186089
0.144426
-0.000311548
0.0112819
0.0955012
-0.132691
0.0137039
8.14298e-07
0.00167183
0.00115685
-0.00194846
9.55019e-06
-2.25873e-05
-0.000649253
-0.0198891
-0.0908287
0.000139073
0.167879
0.0123892
0.000482574
-1.81889e-08
7.25608e-07
0.929319
-1.02726e-05
-0.139577
-0.000422065
0.000305519
0.263619
-0.0148704
5.37368e-06
0.000365542
-0.000336431
8.38212e-06
0.0421473
0.00297509
-0.0883207
-0.000170978
0.134676
-0.0295069
0.0482421
-0.000180361
6.35517e-05
0.000737631
0.128089
0.00498506
0.00805565
0.349793
0.0386666
-0.000139456
-7.76166e-05
-0.000177624
-5.9706e-05
0.0536347
-8.2384e-06
-7.27595e-06
1.70551e-05
0.275588
-0.131619
3.94738e-05
-0.00144054
0.0304025
1.04099e-06
-0.0108277
3.46269e-05
-0.0747332
-0.000383985
0.0676679
0.488994
0.000143898
5.94911e-05
0.0505407
2.99419e-06
0.00104628
0.129039
6.9744e-06
-0.0129379
0.00105548
-0.0122148
-0.440577
0.235667
4.13582e-06
0.457401
0.0246088
0.000104692
-0.0545779
-0.00120503
0.0117731
-2.504
1.65218
-0.0246062
0.00182223
0.0309063
-2.58288e-05
-0.022017
1.41114e-05
4.03585e-06
8.98059e-06
1.47557e-06
-0.171102
-0.0277776
0.000181954
0.0245161
-0.00169212
2.77102e-06
0.0173138
-0.206225
4.28398e-05
-6.1562e-06
2.57534e-05
-8.21093e-06
-0.00330502
-1.50114e-06
-1.21055
-0.000196116
-0.000436924
-4.07011e-05
-0.00148769
0.0410868
0.000276316
0.276773
9.13492e-06
-1.50972e-05
0.000260787
1.08847e-05
0.103326
-0.0343144
0.000422623
0.505934
-8.72074e-06
-4.15332e-06
0.000712651
-0.000143264
0.000147065
-0.00904519
-0.000186818
0.138237
0.103325
0.316123
4.53856e-06
-0.0178691
2.8242e-07
-0.0946603
7.29432e-07
0.0586364
-0.552724
-6.21335e-07
0.552794
0.0933991
0.000757839
-5.14045e-06
7.09928e-05
-5.22195e-05
-0.220043
1.48418e-05
-3.79742e-06
1.02495e-05
-1.53421e-07
-0.0139911
1.84549e-06
0.000118425
2.9991e-08
1.67756e-05
0.0242111
0.000421235
-1.559e-05
0.0119484
1.12754
0.0373631
1.4615
7.66146e-05
-3.07345e-05
0.194039
9.75489e-06
-0.00239493
6.53092e-06
0.497793
-1.18478e-05
-8.31497e-06
0.00381607
-0.362526
-1.34213e-06
3.05109e-05
6.14926e-05
-0.0358728
1.58556
0.000436732
1.2564e-06
-5.54828e-05
4.96155e-07
-0.0433327
1.88289e-05
0.204673
-0.0104042
-6.69712e-06
0.245926
0.000641457
0.000361038
2.14975e-05
-0.000434138
-0.000201215
0.000320624
0.0082646
-2.1127e-06
5.02494e-06
-2.04872e-05
0.24376
1.09986e-05
-1.44077e-07
0.243721
3.16061e-06
-0.00784218
5.20524e-05
6.74365e-06
-1.18336e-05
-0.00185654
-6.98656e-05
-0.13293
-0.0012209
1.11757e-05
0.180347
1.02088e-05
0.000451029
-0.000358863
1.97276e-06
-0.00033298
-9.72462e-05
-6.10903e-07
0.360463
-0.00323807
-0.0306572
0.0784689
1.13583e-06
-0.00437978
-0.000276026
0.0737537
-3.42968e-06
0.0546762
0.191731
0.808472
5.35681e-06
-3.45184e-06
-1.72295e-05
-0.00398174
0.098067
0.000344555
5.90668e-07
0.000335903
-1.494
-1.79618e-07
-2.5464e-05
-1.15473e-05
0.0478519
-0.0765856
-7.52159e-06
-0.138043
-0.000787442
-1.24501e-07
-0.821194
-0.00959757
0.193494
1.44244
-0.000239188
-0.000240697
7.51691e-07
0.000282261
-3.18219e-06
-0.0356287
-0.00168875
-0.000224415
-2.27073e-05
0.048586
-0.299134
3.1279e-05
-1.6374e-05
-0.110482
-0.143926
-0.000298198
-9.22087e-06
-0.00544976
1.17308
0.961911
4.30334e-06
-0.155962
-0.00107387
0.000103579
0.0846532
0.000107549
7.75181e-06
-0.428861
-3.56753e-07
-0.0090406
-1.01259e-05
-0.000240595
-3.52795e-08
5.95366e-05
-0.209772
-9.00722e-05
-9.6198e-06
0.0138221
-3.12558e-05
-2.6596e-05
0.0298988
-5.16525e-06
1.85167e-06
5.13998e-05
3.63847e-05
-3.44829e-05
-4.34862e-05
-0.0974628
0.987889
-0.0030078
-0.242041
0.00921117
-0.0696849
-1.21069
-0.353075
4.19257e-06
0.000486578
-4.89574e-06
5.38239e-06
-8.95855e-05
-0.000176529
0.0861995
0.0102679
0.00100102
1.67533e-06
-1.84264e-06
-0.0117972
-7.50391e-06
-1.67574e-05
-8.50479e-06
-0.0758966
-0.000269445
0.0144988
-9.87564e-07
-0.00610154
5.64069e-06
-8.19769e-06
1.87662e-05
-0.00198179
2.07323e-06
0.00886354
0.197113
-0.0012969
0.0505054
0.293837
-0.00010451
-9.54056e-06
0.00104137
-0.0028442
-0.000325668
-0.00023194
-4.41841e-05
0.113212
-1.49311e-05
0.916031
0.144385
0.0111648
0.472116
0.698374
0.0087589
0.0109981
-0.000133243
9.43993e-05
-0.000413471
0.990117
9.46191e-06
8.35212e-06
1.26593
-3.15768e-07
-0.0416792
3.82957e-06
1.00152e-05
0.000131407
-7.64354e-07
0.00991141
0.250164
0.148998
6.17838e-05
2.49667e-05
-0.00506449
-2.32917e-06
-0.00075074
1.77665e-06
0.0436833
-0.0184567
-8.31647e-06
7.67976e-06
0.000102283
0.0455325
-0.00333586
0.000732852
-2.12528
-0.000350061
0.841373
0.00386902
0.0429637
0.381664
1.72649e-06
0.0690046
-1.21744e-06
-0.0686688
-0.11729
0.0593635
0.219633
4.73889e-06
0.00204614
-0.00959419
1.65726e-06
0.0928276
-6.07007e-06
-6.16036e-06
1.98525e-05
6.55385e-06
0.000458013
-0.136148
0.624564
-1.08198
-9.4739e-05
-0.00198558
4.99571e-05
-1.28217e-05
8.62337e-06
0.0154595
-0.00993336
-0.136818
-0.000431836
6.10638e-05
-5.70826e-06
1.73142e-05
-0.0473277
2.53185e-05
2.56201e-05
8.72647e-05
-0.00692864
0.000202502
0.00262221
-0.00248104
0.0243808
-0.000303097
-0.000328648
-4.41457e-06
2.19852e-05
-0.0532784
0.117489
-0.00271939
-0.000200823
-0.462927
1.76504e-06
3.44618e-06
0.00278653
0.217224
0.0172234
-8.56282e-05
-1.17253e-06
-0.336069
-3.03225e-06
1.01838e-06
5.76277e-06
0.970011
0.0459367
-2.09205e-05
-1.09204
-0.246292
8.86594e-06
-0.00178527
0.00241519
-0.09222
1.66319e-05
0.104397
-2.25697e-05
0.0999214
0.000987909
0.165685
0.000407013
-0.000261311
0.115683
2.08877e-06
4.45134e-05
-1.55638
1.14257
0.00691071
-0.18415
-6.56835e-07
-6.14237e-05
0.145484
4.10854e-06
-1.09235e-06
8.71989e-06
-0.000737293
-2.98898e-06
0.000185653
7.6365e-06
-0.00756604
0.709822
2.81819e-05
0.102118
8.21552e-06
0.142045
0.0486361
1.49521e-06
-1.06777e-05
7.46401e-05
0.0374157
0.0524994
0.00699179
0.215981
-0.110608
-0.0872977
-8.74969e-06
1.07905
0.154097
0.0168095
-0.0270845
-6.28938e-06
3.27296e-06
-4.88172e-07
-1.56211e-05
3.56733e-07
-0.00015078
0.141862
-0.00084803
-0.000426673
-0.35292
0.859866
0.1871
0.0301401
-0.000268231
0.0624701
-0.00511955
0.000175807
-1.76122e-05
1.27001e-06
0.00508932
0.0665861
9.06436e-07
-0.576521
0.0728948
4.98702e-06
-6.29013e-07
-0.000268276
0.00797239
-9.90846e-06
0.0106817
0.086425
4.52593e-05
1.14638e-07
4.09298e-06
1.10139e-06
-0.00847193
0.181848
-0.000735873
1.04943
0.00896897
8.08875e-08
-0.00509205
0.0336948
-1.06413e-05
-0.0676614
0.381905
-0.246398
0.586278
0.068856
2.22254e-06
0.971646
0.156205
-0.0254205
0.83421
4.90608e-05
6.18565e-05
-1.96831e-05
9.6826e-05
0.465146
0.000946693
-1.84019e-06
-0.000215949
0.0162384
0.105883
-5.21661e-05
0.000193397
-0.173854
0.0416775
6.23988e-06
1.11984e-05
0.00338242
-1.95107e-06
5.39248e-08
-0.561072
2.40339e-06
0.00775859
-0.00479159
0.427487
2.2861e-06
-0.0033566
-0.0300307
1.73275e-06
0.000124011
-1.76476
0.431867
-1.38163e-05
0.000608857
-0.0317237
0.103485
0.00627499
-1.15085
5.32231e-05
0.000652487
0.0297039
-1.17938e-05
1.85399e-07
-0.125765
5.00353e-05
0.000147169
0.127004
-0.000305641
-0.000371167
-5.07485e-05
-0.000160742
-8.53716e-06
4.36749e-05
2.99813e-05
2.07067e-05
-0.591724
-1.79962e-05
-2.07546
0.14098
-0.00103206
0.0101921
-0.254142
0.199944
-0.337609
0.000127364
2.83453e-05
-0.000501239
8.0265e-05
-0.0205751
0.0198302
-1.81513e-05
-1.72622
0.0452319
2.96256e-05
0.00732641
0.0116382
0.0198364
0.0324199
-6.76434e-05
0.0452176
0.0497852
0.0470167
0.037357
-0.0200363
0.0121395
0.000144857
-2.44104e-07
0.000158769
-0.0171167
-9.25465e-07
-0.215701
0.0177751
0.0821093
0.159004
9.33273e-05
-0.00024112
0.0727308
-0.361017
4.60521e-05
-1.0338e-06
-0.0214265
0.966004
1.17257
-1.51268e-06
0.000809787
-0.00012677
1.13439
0.0201899
3.87772e-05
0.0456838
0.121449
0.0150357
0.0504151
0.000868922
0.0105602
0.00854049
-0.000129848
0.0896935
0.006224
2.85587e-05
-0.00071196
0.0026108
-0.00020106
-1.34347e-05
0.0203222
-0.582606
-0.000123808
-5.72742e-05
-0.381577
0.0779864
0.0017762
1.10924e-05
0.0671761
0.00837548
0.0823928
0.0364264
-1.28731e-06
-1.31902e-06
3.12494e-05
1.72055e-05
0.113437
1.58356
-0.23165
-0.000554763
-0.0491619
0.189912
-4.17919e-06
-6.02432e-06
0.0891112
-5.49295e-05
0.110659
-4.24095e-05
0.045094
-3.00652e-05
-2.25634e-05
0.687276
-7.67503e-06
-0.0318961
-0.10456
5.11918e-06
-6.65374e-05
-7.08407e-05
0.00119037
0.1265
-0.0222827
0.120463
5.18447e-05
2.877e-05
4.44626e-05
2.78667e-06
0.0168591
0.452162
0.0136954
0.151904
-0.0620929
-0.0879323
0.000397718
-0.000320075
4.19625e-05
-1.36938e-05
-0.0242949
-0.0472189
0.0770169
-0.00137574
-0.067378
2.09162e-06
0.0181606
-1.791
-2.63922
9.89942e-07
-1.80218e-05
-0.000242951
0.138647
2.50944e-05
0.0363623
-0.0213407
-0.0424247
-0.0508929
7.45003e-05
-0.000846773
0.000653373
-0.0339219
-0.0417062
1.83642e-06
-0.065133
2.77951e-06
-1.47808e-05
-0.000707356
1.28075
0.680986
8.79981e-06
-0.0019947
0.374981
0.30092
-0.00503291
0.189466
0.351841
2.1303e-06
0.000116068
-5.48347e-06
-0.0745254
3.95897e-05
0.0106142
5.39025e-06
0.000591436
0.0151574
-0.275344
8.19656e-06
-0.0126929
0.0183078
0.0366329
-7.03181e-05
-0.0126266
0.0471506
-0.000195774
3.38353e-05
0.479276
0.000316331
0.0183518
-0.0887612
0.0678182
0.0739554
0.000122183
-0.432147
0.236144
1.41054
0.00134264
-0.000451507
-0.0109039
0.0174641
0.255302
0.100516
3.34114e-05
-0.000372318
-0.00740297
0.593438
0.000157229
-1.60105
0.700462
1.08336
1.58752e-05
0.1353
4.34665e-05
0.173561
-0.0593269
0.0678045
0.0567187
9.81692e-07
-6.88832e-05
0.105337
0.136505
-0.0104459
-3.66742e-06
-0.00251129
-0.000821021
0.0314688
-0.0480848
-0.00418367
6.16733e-05
-0.022852
0.0234344
-0.310702
2.4041e-05
-0.0290382
-0.92232
-2.76297e-06
-0.0151175
9.83424e-05
-1.08165e-05
1.52453e-06
0.00892527
1.87948e-06
5.99895e-06
0.0421908
0.750175
6.96759e-06
0.0590328
1.77427e-06
2.32368e-07
5.0585e-06
-8.0158e-06
1.47097e-05
0.0587347
-0.0349444
-3.27662e-05
-0.0634379
0.00924068
-0.00141901
0.0120559
0.0108413
8.14595e-05
-0.000613062
1.86844e-07
0.01034
0.000574969
0.0533764
6.78424e-06
0.680651
-0.033391
-0.00297083
1.1442
-0.0245037
2.53236e-06
0.0645616
-3.4853e-05
0.00560224
0.0244963
1.16623e-06
-0.000499012
-0.0778375
-3.2215e-06
-0.0416298
1.18471e-07
0.344711
0.0475516
-0.339477
0.0180169
-0.0335753
0.071127
9.77368e-06
6.19539e-05
0.0047466
-2.85526e-05
-1.3746e-05
-1.33178e-05
1.33696e-06
3.00282e-06
-7.05644e-07
-8.27905e-06
-0.00139358
-2.93557e-05
0.000267102
2.10223e-06
-0.00186556
-0.00752283
-2.87794e-05
0.272401
5.59116e-05
5.68098e-07
0.0215077
0.00423059
-2.04558e-05
2.01643e-06
0.059603
-1.60563e-05
0.0818676
-7.61712e-05
0.00849818
1.90173e-06
-7.87115e-07
-0.00753423
-0.0427235
0.00501945
0.000724967
-6.03498e-05
0.0633759
2.34004e-06
-1.90268e-06
-0.00308283
4.34374e-05
0.00544485
0.0334002
0.0108832
-0.0290805
-0.00132895
0.0739131
5.05451e-06
-6.43134e-06
-0.00157233
-0.00251992
0.00516797
0.00495423
-1.30996
8.6639e-05
-6.1519e-06
0.000297288
0.00969778
0.0104525
-3.57027e-06
0.0313333
0.0386858
0.00697367
-1.10442e-06
7.6924e-06
-0.0527873
-0.00117693
1.09269
-0.0692105
-8.32646e-05
-0.0036545
1.08893e-05
0.00133561
-0.570403
1.14612e-05
-0.00185896
-4.82254e-05
0.00147754
-0.480002
-6.69658e-06
-8.21782e-07
1.97489e-06
0.0895794
0.0276328
5.08572e-06
-0.00813007
0.0398611
9.65509e-06
-1.44516e-06
0.195694
0.0775678
-0.0509226
0.0248476
-0.0490387
-0.000531405
-0.131875
0.0425119
0.000385964
0.195903
-0.0366376
0.163751
-3.36357e-06
0.0208947
0.0471223
-1.24332e-05
0.106909
-0.000268793
-0.0301205
1.97169e-05
0.0224561
2.31853e-06
0.0673947
-2.88168e-05
1.85179e-06
-0.000262735
1.08594e-06
3.06312e-05
4.23945e-06
2.30763e-06
3.44959e-05
9.83192e-06
-1.44219e-06
0.0174553
0.000727351
-1.23182e-05
0.0043408
0.000147332
0.000152443
-3.50412e-05
0.00348787
-0.000126531
0.701637
-6.99257e-06
5.96819e-06
0.000103507
0.27186
-3.43816e-06
-2.28814e-06
0.00557722
-8.65831e-05
0.0110369
0.00479088
-5.62916e-06
5.9176
7.75298e-05
1.07296e-05