/*--------------------------------*- C++ -*----------------------------------*\
| =========                 |                                                 |
| \\      /  F ield         | OpenFOAM: The Open Source CFD Toolbox           |
|  \\    /   O peration     | Version:  v2012                                 |
|   \\  /    A nd           | Website:  www.openfoam.com                      |
|    \\/     M anipulation  |                                                 |
\*---------------------------------------------------------------------------*/
FoamFile
{
    version     2.0;
    format      ascii;
    class       surfaceScalarField;
    location    "50";
    object      phi_0;
}
// * * * * * * * * * * * * * * * * * * * * * * * * * * * * * * * * * * * * * //

dimensions      [0 3 -1 0 0 0 0];
oriented        oriented;


internalField   nonuniform List<scalar> 
20642
(
-0.0255921
0.0332999
-0.00770787
0.307372
-0.0781301
-0.229242
-0.109879
0.0921712
0.0177078
-0.351158
0.139998
0.21116
0.383632
0.0285252
-0.412158
-0.0318495
0.339222
-0.224374
0.0232056
0.201168
0.0405582
0.186941
-0.227499
-0.245342
0.222749
0.0225928
0.00696714
0.00570656
-0.21951
0.260068
0.229219
0.133494
-0.362714
0.598508
-0.598508
0.230378
-0.060641
-0.169737
0.300498
0.0376949
-0.338193
-0.0319654
0.00637333
0.586557
-0.59161
0.00505321
0.0204916
-0.2485
0.228008
-0.0326886
-0.0786437
0.111332
0.00360947
0.0326465
-0.036256
-0.0823792
-0.187031
0.26941
0.634666
-0.374565
-0.260101
0.201557
-0.145306
-0.0562509
0.344795
0.289871
-0.0519642
-0.185843
0.237807
0.0654731
-0.257451
0.191978
0.0798764
-0.245855
0.165979
0.00696714
0.0825959
-0.271671
0.189075
-0.673941
0.392353
0.281588
0.0021035
0.00486364
0.0223263
-0.106566
0.0842396
0.043828
0.253857
-0.297685
0.000844887
0.0338281
-0.034673
-0.664465
0.484267
0.180198
0.359915
-0.172974
0.266207
-0.36139
0.0951821
0.619678
-0.100598
-0.51908
-0.023632
-0.200742
0.227629
-0.000718485
-0.22691
-0.769908
0.602579
0.167329
0.410076
0.137776
-0.547852
-0.136795
0.251301
-0.114506
0.125251
-0.110507
-0.0147436
0.0135595
0.111691
0.175323
-0.0680815
-0.107242
0.222242
-0.304621
0.0297011
-0.0452013
0.0155002
0.359238
-0.300929
-0.0583088
-0.409942
-0.254523
0.347585
-0.118365
-0.149698
0.0409408
0.108757
0.019115
-0.000857352
-0.0182576
-0.311113
-0.0907614
0.401875
0.0132192
0.361252
-0.374471
-0.077695
-0.072003
0.0021035
0.166495
0.0350618
-0.153374
0.563449
0.0422024
0.133121
-0.00867485
0.0247783
-0.0161035
0.555256
-0.508272
-0.0469841
0.470781
-0.613263
0.142482
-0.262383
0.210419
-0.081231
0.0713061
0.00992498
0.117595
0.446912
-0.564506
-0.267064
0.0665666
0.200498
0.20257
0.157344
-0.199018
-0.00328796
0.0234016
-0.0201136
-0.116013
0.0712656
0.0447477
0.0248359
-0.023991
-0.256844
-0.143215
0.400059
0.388237
-0.541611
0.0771173
-0.264148
-0.0537905
-0.180769
0.234559
0.424694
-0.109014
-0.315679
-0.16253
0.550767
-0.259325
0.205535
0.23454
-0.190712
-0.377942
0.440958
-0.0630159
-0.60767
0.580026
0.0276435
-0.419859
0.163015
0.0228082
0.0667665
-0.0895747
-0.23046
-0.300903
0.531363
0.00172786
-0.182708
0.18098
-0.0949477
0.117274
-0.638172
0.604107
0.0340644
-0.0303215
0.25795
0.484012
0.102545
-0.582126
0.406894
0.175233
0.11536
0.27708
0.0821579
-0.618425
0.206253
0.412172
-0.411531
0.285768
0.125763
-0.184468
0.0448873
-0.209702
0.164815
0.590591
-0.590632
4.06405e-05
-0.137902
-0.50027
-0.143735
-0.113995
0.257731
0.526281
-0.531232
0.00495024
0.542005
-0.0157235
0.00099907
-0.378941
0.520241
-0.593937
0.0736957
-0.00450058
0.429194
-0.0873309
0.0819782
0.00535271
0.0325915
-0.0582894
0.0256979
0.42227
0.132986
0.541926
-0.40415
0.225001
-0.145125
0.53186
0.0723103
-0.00723433
0.0410624
-0.0988639
-0.172807
-0.0644343
-0.0167967
0.385782
-0.179921
-0.205861
0.0973605
-0.130049
0.419262
0.162004
-0.581266
0.109772
-0.0882184
-0.0215539
-0.466994
0.276983
0.190011
-0.0949583
-0.512712
0.168584
-0.578839
0.410256
0.249869
-0.183303
-0.130608
0.136546
-0.00593763
-0.0185073
-0.00224369
0.020751
0.0577783
-0.0349701
0.0759789
-0.269188
0.193209
0.254642
-0.177524
-0.42529
0.554675
-0.129385
-0.0972829
-0.0333254
-0.0571121
0.157924
-0.100812
0.214028
-0.0609399
-0.153088
-0.012172
-0.0338559
0.0460279
0.168895
0.216887
-0.0704478
0.124475
-0.0540276
0.088405
0.136597
-0.0129761
-0.0232582
0.0362343
0.017228
-0.0159666
-0.00126143
0.0490394
-0.242284
0.193245
0.619678
0.15832
0.125508
-0.283828
-0.56119
0.39866
-0.0677096
-0.0196214
-0.541861
0.257021
0.28484
-0.151773
-0.232824
0.384597
-0.386386
0.584237
-0.19785
-0.0624884
-0.0535249
-0.0170812
0.029983
-0.038321
0.00833797
-0.458411
0.147298
-0.194135
-0.031783
0.225918
0.568005
-0.695186
0.127181
0.247489
-0.399262
-0.136922
0.181809
-0.135646
-0.335054
0.470701
0.543202
-0.0229607
0.0297869
-0.0407034
0.0109165
-0.613586
0.606384
0.00720166
0.569092
-0.14983
-0.175074
-0.329985
0.50506
0.0773227
-0.0641926
-0.0131301
0.0607256
-0.30693
0.246204
0.332972
0.0498371
-0.0242918
-0.0255453
0.0575225
-0.219282
0.16176
0.019115
-0.00526696
-0.0283356
0.0336026
-0.373862
-0.223687
0.597549
0.236066
-0.187026
0.062459
0.308467
-0.370926
0.0546549
-0.0505195
-0.00413542
-0.069897
-0.0158137
-0.0202212
0.0360349
0.19142
-0.0989456
-0.0924748
0.599218
-0.106016
-0.493201
-0.144402
-0.206756
-0.147813
0.0124438
0.135369
-0.194115
0.137003
-0.231807
0.292533
-0.165933
-0.0838709
0.249804
0.407254
0.249777
0.0978077
0.139479
-0.0650584
-0.0744207
0.100942
0.00883016
0.190648
0.0233804
-0.103461
0.353238
0.0406102
0.0988688
-0.382591
-0.291349
0.20254
-0.200812
0.143006
0.0484142
0.125377
-0.111817
0.00938591
-0.109649
0.100263
-0.030663
-0.000325358
0.0309884
-0.266518
-0.351907
0.022722
-0.00333706
-0.019385
-0.271734
0.107981
0.163753
0.0391052
-0.0512772
0.508782
-0.0245148
0.357918
-0.493565
0.279459
-0.23489
-0.0445689
0.021186
-0.0228654
0.0016794
0.0176979
-0.000469912
-0.0835821
-0.233845
0.317427
0.243785
-0.0678919
-0.175893
-0.26843
0.299333
-0.0309023
-0.224457
-0.392606
-0.106872
0.308615
0.132343
-0.428959
-0.117468
0.546427
-0.0611521
0.351508
-0.290355
0.276427
-0.337579
-0.0152183
0.0493193
-0.119767
-0.176811
-0.0616222
0.0651991
-0.00357692
0.634558
-0.251552
-0.383006
0.725082
-0.411352
-0.313731
0.345983
0.3791
-0.0370286
-0.0196393
-0.0993739
0.119013
-0.131088
0.0325006
0.0985869
0.36925
0.18043
-0.549681
0.556385
-0.0856041
-0.138249
0.226654
0.0218647
0.123857
0.324325
-0.448182
-0.375684
0.499542
-0.313497
-0.456411
0.728983
-0.383
0.31392
0.415063
-0.0104536
0.0352895
-0.0227679
0.0441666
-0.0213987
0.0855517
0.299593
-0.385145
0.474646
0.0873365
-0.561983
-0.11562
0.147952
-0.0323322
-0.0286444
0.00338513
0.0252593
0.0131309
-0.514057
0.500927
0.526551
-0.157301
0.187137
0.0566484
0.0815797
-0.0641602
-0.0174195
-0.0846977
-0.0594285
-0.0021937
-0.152995
0.13769
0.0153049
-0.341998
-0.199863
-0.0438158
0.0154802
-0.160414
0.0447945
-0.241517
0.142654
0.00659102
0.11469
-0.121281
0.23239
-0.315973
-0.0379862
-0.468979
0.219793
0.249186
0.0571834
0.0971459
-0.154329
-0.0479571
-0.133247
0.181204
-0.0165869
-0.338665
0.355252
0.602579
-0.186404
-0.336406
-0.113622
0.450029
0.378988
-0.562027
0.183039
-0.00425836
0.0235461
-0.0192877
-0.0165687
-0.208065
0.224633
0.172806
-0.572603
0.399797
-0.667457
0.291772
-0.46507
0.130016
-0.280082
-0.387374
-0.191996
0.0621565
0.536352
-0.0205431
-0.16236
0.182903
0.588215
-0.415409
0.00218262
0.0147253
0.0520572
-0.0194657
0.0790062
-0.402617
0.323611
0.316169
0.118022
-0.43419
-0.157775
0.143929
0.0138459
-0.738545
0.307366
0.431179
0.265255
-0.0866512
-0.178604
0.0211608
-0.0254192
-0.345925
-0.39262
0.0207962
-0.0240841
0.576815
-0.197826
-0.0035785
0.0809012
0.602021
-0.00280302
-0.305672
0.388316
-0.0826441
0.281224
-0.297811
-0.331808
0.519613
-0.187805
0.106967
-0.00911903
-0.0978483
0.547659
-0.587695
0.0400362
0.208719
-0.151196
-0.276403
0.0921442
0.184259
-0.545487
0.1591
-0.234762
0.247268
-0.0125056
0.0157177
-0.438734
0.451865
0.159311
-0.0194117
-0.139899
-0.348485
0.468113
-0.119627
-0.353823
0.155167
0.198656
0.494889
-0.111256
-0.0745075
-0.184818
-0.5988
0.211459
0.387341
0.0491658
0.498493
0.164883
-0.016222
-0.148661
-0.506684
0.169717
0.336967
-0.133112
0.190296
-0.247279
0.172772
-0.362189
-0.169218
0.531407
0.0433246
-0.0135376
0.0253737
-0.00418775
-0.426616
0.556184
-0.129568
-0.643464
0.194179
0.449285
-0.184927
-0.371349
0.47293
-0.101581
0.0955613
0.0168975
-0.112459
0.0107329
-0.0525876
0.0418547
-0.0393158
0.023502
0.496533
-0.579759
0.0832255
-0.227999
0.167059
-0.117216
0.433385
-0.0191503
0.0859168
0.10006
-0.471409
-0.0679038
-0.0419752
-0.205351
-0.393158
-0.0510618
0.351559
-0.0587185
0.515784
-0.16191
-0.353873
-0.26188
0.18375
0.0131894
0.112187
-0.489969
0.571592
-0.0816231
0.0123344
0.0423205
-0.359233
-0.250912
0.610145
0.132425
0.028277
-0.643502
0.442613
0.200888
0.0372946
-0.0336852
-0.396786
0.558905
-0.162119
-0.00295511
0.155188
-0.152233
-0.0298612
-0.238569
0.642902
-0.146369
0.1888
-0.678769
0.126564
-0.112859
-0.0137059
-0.0631944
-0.0154446
0.078639
-0.487301
0.194337
0.292964
0.184761
0.331022
-0.0408115
0.0335772
-0.0552641
0.0784166
-0.0231525
0.0971834
-0.0517092
-0.0454742
0.034178
0.1962
-0.70111
0.355185
0.0994318
0.297779
-0.397211
0.0789592
-0.0633645
-0.0155947
-0.108043
-0.119956
-0.324511
-0.376599
0.146403
-0.188354
-0.190071
0.378425
-0.01922
0.213846
-0.194626
-0.136067
0.0200983
-0.127067
0.106969
0.000679182
0.165692
-0.166371
0.0497587
0.215496
-0.146179
0.156178
-0.00999869
0.0312644
0.00443924
-0.0357037
0.102981
-0.52827
-0.276118
-0.211183
0.306763
-0.278238
0.116054
-0.0927666
-0.0232871
0.61591
-0.0560142
-0.559895
0.00263692
-0.144371
-0.0018085
-0.378622
0.0178898
0.292827
-0.279608
0.197998
-0.0412206
-0.156777
-0.449794
-0.19367
-0.382239
0.238273
0.143966
0.54088
-0.400212
-0.140668
-0.0904773
-0.115573
0.258207
-0.288068
0.364229
-0.285223
-0.0930958
0.0759547
0.0171411
-0.423474
0.6228
-0.199326
0.0250476
0.0247895
-0.089988
0.131491
0.409389
-0.105158
-0.487437
0.21594
0.271497
0.333625
0.225082
-0.558707
0.134419
-0.556333
0.421915
0.0429106
-0.0102641
-0.138499
0.472124
-0.00212486
0.227178
-0.225054
0.0668817
-0.205131
0.24361
-0.234106
-0.00950382
0.100351
-0.342379
0.242027
-0.0757186
0.0294909
0.0462276
0.0163459
0.0766454
0.236317
0.0532588
-0.289576
0.0130731
0.0938942
-0.305131
-0.0873913
0.392522
0.194244
0.0493665
-0.00854492
0.100716
-0.497135
-0.19778
0.0227996
0.17498
-0.0918918
-0.155387
-0.117418
-0.447085
0.564503
0.123285
0.335398
-0.458683
0.221598
-0.589288
0.36769
-0.0629789
-0.156304
0.452685
-0.125852
-0.326833
-0.572888
0.435302
0.137587
0.363555
-0.480649
0.117094
-0.137896
-0.0276849
0.165581
-0.333164
0.0784216
0.254742
-0.752614
0.326084
0.42653
-0.66765
0.293787
0.107797
-0.0122356
0.00381863
0.194179
-0.493053
0.161245
-0.272802
0.270677
0.0751862
-0.0556941
-0.0194921
-0.151719
0.220034
-0.0683156
-0.412421
0.530016
0.0438836
-0.122527
0.0632209
-0.0823713
0.261572
-0.512058
0.250486
0.334211
-0.698829
0.364618
-0.0701994
-0.207216
0.277415
-0.344956
0.468241
-0.418403
-0.253114
-0.355503
-0.343327
0.511444
-0.249871
-0.0434936
0.0142614
0.0292321
0.0873607
-0.392491
-0.0353174
0.209542
-0.174224
-0.00363547
0.0183608
-0.0174261
0.176737
-0.550498
0.121539
0.396097
-0.148608
-0.022612
-0.0531066
0.211503
0.0679566
-0.0204821
0.00197479
-0.7019
0.268802
0.433098
0.52823
-0.207596
-0.320634
-0.592261
0.168788
0.659462
-0.345541
0.325207
-0.0589996
-0.486474
0.19571
0.290764
0.00977445
0.0654118
-0.432651
0.559609
-0.126958
0.0138701
0.18902
0.33921
0.00416986
-0.136415
0.132245
-0.406111
0.584573
-0.178462
-0.0954583
0.404073
-0.13025
-0.0227443
0.0705445
0.0266388
0.169231
-0.357585
-0.22022
0.126694
0.093526
0.348876
0.209195
-0.558072
-0.631003
0.200058
0.430945
0.479621
-0.116067
-0.29649
-0.190947
0.428862
-0.555321
0.126458
0.439316
-0.619887
0.180571
0.00946865
-0.0288961
0.573227
-0.144365
-0.202161
-0.0326015
-0.0204795
-0.084302
0.104782
0.36176
0.209056
-0.570817
0.152317
0.0246993
-0.177016
0.12406
0.00309315
0.0528619
-0.00880539
-0.0440565
-0.214426
0.190613
0.0238125
0.0267141
-0.272599
-0.245173
0.517772
-0.5353
0.262701
-0.270534
-0.132847
0.156664
-0.562775
0.332742
0.00384228
0.0851719
-0.0890142
-0.41579
-0.166337
0.301654
-0.392415
-0.217194
0.208161
-0.175633
-0.0325275
-0.0839629
0.252126
-0.168163
-0.0803291
-0.0216871
0.102016
0.131184
-0.0188941
-0.11229
0.093244
0.36288
-0.456124
0.436386
-0.318364
-0.0375505
-0.210949
-0.00526244
-0.174074
0.179336
0.11048
0.342205
-0.162065
0.101424
0.080682
-0.160558
0.0798758
-0.0945942
-0.181809
0.0202932
-0.0474545
0.0271613
-0.481372
0.145954
-0.151216
0.126374
-0.11393
0.139203
0.329927
-0.46913
-0.0355091
0.0311213
0.00438784
-0.273275
-0.357728
0.396779
0.262682
0.0274089
-0.165305
-0.307942
-0.393959
0.505543
0.129016
0.160254
0.00462819
0.00977768
0.0267576
-0.182346
0.0207057
0.161641
0.306245
-0.481319
0.279862
-0.0813903
-0.198472
0.123641
0.373793
-0.497434
0.103185
-0.0956475
-0.00753738
-0.128793
0.107253
0.0215396
0.257834
-0.403307
0.145473
-0.0971593
0.153109
0.325094
-0.478203
-0.00492031
0.15652
-0.151599
0.468253
-0.324923
-0.14333
-0.546523
0.410764
0.135759
0.0791484
0.536761
0.467843
-0.109924
0.373516
-0.490934
0.462469
-0.440055
-0.0224143
-0.20036
0.170467
0.0298925
0.595693
0.0162197
0.114965
-0.345544
0.484747
0.392216
0.0299949
-0.422211
0.162812
-0.254703
0.00829826
0.0373262
-0.0456244
-0.505914
-0.0192397
0.525154
0.266103
-0.194398
-0.071705
-0.168819
-0.393208
0.155282
-0.151112
0.046141
-0.178945
0.132804
-0.168349
-0.0779617
0.246311
-0.146903
-0.206714
-0.165915
-0.168699
0.334614
0.212319
-0.0128962
0.0520013
-0.0134501
-0.0300435
0.0170838
-0.0207192
-0.43767
0.567041
-0.129371
-0.362488
0.481166
-0.118677
-0.353795
0.447039
0.415227
-0.133971
-0.281255
0.0827188
-0.0237385
-0.0589804
0.64431
-0.336944
-0.339686
0.35965
-0.0199637
-0.0657151
-0.206019
0.00850657
-0.0613223
0.0528157
-0.200647
0.0853682
-0.00820849
0.0224385
-0.01423
0.428164
0.145064
0.1483
-0.0851009
-0.0631986
0.524092
0.0664986
0.145875
-0.588666
0.442791
-0.0317714
0.040278
-0.735664
0.427723
-0.0624168
-0.0227841
0.0852009
0.61699
-0.562192
-0.0547984
0.494469
-0.132709
0.117133
0.0275615
-0.107891
-0.00606524
0.468535
0.42615
-0.51323
0.0870798
0.0118587
0.0964847
-0.108343
0.145216
0.00710036
0.416557
-0.36714
0.00648975
-0.0689781
-0.0504325
0.0324964
0.0179361
-0.000584631
0.0534465
-0.521835
0.0159213
0.0270985
-0.0185043
-0.00859414
0.585635
-0.479614
-0.106021
-0.0268688
0.00361065
-0.385975
0.368894
0.549481
-0.403605
0.601839
-0.189126
-0.412713
0.313489
0.228516
-0.0890294
0.169711
-0.244011
0.16014
-0.40958
-0.210621
-0.380011
-0.759387
0.290116
0.469271
0.0775733
-0.0710836
-0.423107
0.432301
-0.00919361
-2.23819e-05
0.114002
-0.113979
-0.104153
0.405807
0.523151
-0.0970016
-0.491073
-0.122513
0.0517342
-0.119816
-0.066364
-0.019123
0.0854869
-0.0399611
0.0317526
0.13326
-0.126669
-0.160209
-0.0401505
-0.000578552
0.083557
-0.0829785
-0.00618189
-0.0224625
0.544834
-0.410415
-0.0735093
-0.0171179
0.0906272
-0.447493
-0.311894
-0.0936272
-0.0189597
0.112587
0.124628
0.290598
-0.0244872
-0.0686086
-0.129232
0.502748
-0.191897
-0.248158
-0.363904
0.13108
0.065277
-0.167364
0.181586
-0.0142222
-0.0803093
0.0598449
0.0204644
-0.626462
0.0885015
0.53796
0.156031
-0.176574
0.106421
0.340195
-0.446616
0.482363
-0.168873
-0.00631164
0.0375761
-0.237101
0.185782
0.0513198
-0.0578227
-0.361134
0.418956
-0.100476
0.120575
0.164363
0.569968
-0.429628
-0.14034
-0.0145064
0.582511
0.0337908
-0.0401025
-0.0763168
-0.34679
0.131706
0.378537
0.265773
-0.413037
0.355215
0.0877881
0.0282656
-0.387146
-0.308039
0.127352
-0.0238109
-0.103541
-0.582279
0.552441
0.0298373
-0.598002
0.453784
0.144218
-0.00209054
-0.0949701
0.405132
0.01221
-0.000804188
-0.0114058
0.0140384
-0.0764552
-0.290373
0.361183
-0.0708098
0.111573
0.0148014
0.550777
-0.122614
0.30078
-0.263085
-0.0316854
0.0399836
0.032665
0.0433461
-0.0760111
-0.277702
0.207502
-0.163786
-0.197603
-0.393383
0.201487
-0.210555
-0.371724
0.567644
-0.316345
-0.251299
0.503444
-0.420218
0.0317467
-0.153993
0.122246
0.188255
0.0313173
-0.219573
-0.0154794
0.0357726
0.0216468
-0.189011
-0.328721
0.292913
0.035808
-0.101527
-0.0272653
-0.269875
-0.236809
0.0103
0.157403
-0.167703
-0.0170003
-0.0926486
0.0241813
-0.392547
0.526113
-0.318913
-0.207201
-0.0776894
0.581133
-0.222842
-0.37516
-0.440312
0.345353
0.501208
0.105176
0.469642
-0.346001
0.407146
-0.59418
0.187034
0.0117549
0.0153435
0.177069
-0.0407186
-0.13635
-0.634352
0.45693
0.177422
0.12093
-0.107741
-0.229262
-0.3972
0.0454983
-0.0347654
0.172826
0.403989
0.142495
0.41218
-0.0231364
0.032914
-0.173568
0.0623828
0.111185
0.367418
-0.503511
-0.212003
-0.121441
0.333444
-0.602438
0.185504
0.416935
-0.556303
0.418995
0.137307
0.179759
0.0921889
-0.271948
0.174773
-0.00895267
-0.16582
-0.374154
0.503902
-0.129747
-0.00224097
0.016625
-0.014384
-0.0848975
0.218892
-0.133994
-0.385417
0.449003
-0.0635857
0.522815
-0.155397
0.224732
0.301381
-0.0346873
-0.0157451
0.0851946
0.194667
-0.6546
0.269373
0.385227
-0.306617
-0.00589983
0.0270607
-0.115465
0.233101
-0.12512
-0.0144207
-0.00606139
-0.406667
0.12468
0.281988
-0.563173
0.166387
0.130248
-0.556865
0.244445
0.0807621
0.0152222
-0.559241
0.167373
0.391868
0.0192263
-0.105753
0.285512
0.193935
0.0721681
0.0212646
-0.43854
0.321324
-0.106224
-0.0208429
0.151804
0.0252649
0.395216
-0.109448
0.27494
-0.0404003
-0.367284
-0.287316
0.204158
-0.0293852
0.322763
0.0736722
-0.334681
0.121057
0.213624
0.12841
0.357746
-0.486157
0.0156688
0.000642003
-0.0163108
0.488175
0.0767264
-0.564901
-0.303719
-0.102948
-0.37725
0.213464
0.0541191
0.246801
-0.30092
0.0518691
0.165613
-0.217482
-0.0427285
0.0753935
0.496544
0.0834822
0.00909775
-0.121641
0.112543
-0.0848881
0.0185242
0.295242
0.316909
-0.61215
-0.135797
-0.291992
0.427789
-0.179515
0.515839
-0.108693
0.10048
0.267611
-0.368091
-0.405892
0.200889
0.205003
0.385483
-0.0971514
-0.288331
0.151922
-0.0704017
0.122136
0.0211282
-0.401844
0.560267
-0.158424
-0.0155219
0.0828302
-0.0673082
0.0657569
0.156992
0.205421
0.00273967
-0.117477
0.390864
-0.291432
0.0729226
0.075377
-0.0456893
-0.164013
0.399283
0.132067
-0.53135
-0.124917
-0.0486507
-0.138485
0.170981
-0.0324958
0.156968
-0.00516435
0.553918
-0.394827
-0.159092
0.413895
-0.531363
0.345819
0.221825
0.00053624
-0.0968021
0.350659
-0.605487
0.384216
0.221271
0.163013
-0.0305883
-0.528878
0.154724
-0.566406
0.421477
0.144929
0.0198292
-0.0975242
0.163029
-0.283068
0.381666
-0.0985983
0.0907353
-0.242454
0.204715
-0.223935
0.0729986
-0.292834
-0.113058
-0.308639
0.199625
0.0161923
-0.0937274
0.077535
0.411403
0.138077
-0.584632
0.168352
0.41628
-0.37647
-0.302299
0.527487
-0.533039
0.00555238
0.241648
-0.343211
0.101563
-0.304229
0.197234
0.106995
0.0603683
-0.228717
0.391211
0.162708
0.600658
-0.187461
-0.413197
-0.356324
-0.128624
0.484949
-0.380388
-0.00558702
-0.150072
-0.160908
-0.0535178
-0.374699
0.127517
-0.0128271
-0.356734
-0.0549688
0.0747538
-0.019785
0.0809126
-0.363981
-0.478224
0.101754
-0.00309962
-0.049488
0.281993
-0.0948004
-0.187192
0.020209
0.0954246
0.16891
-0.330091
-0.0111536
0.341245
0.122465
0.318191
-0.440655
0.551164
-0.418259
-0.132905
-0.417814
0.282017
0.0183229
-0.0426053
0.0242824
-0.177071
0.200101
-0.0230295
0.0554042
-0.345777
0.143828
0.0762064
-0.297422
0.397902
0.0203063
0.136662
0.662689
-0.188043
-0.411713
0.499501
-0.0877881
-0.485013
0.192828
0.292185
0.479448
-0.392112
-0.0295543
0.26317
-0.0973428
-0.165827
-0.0130428
-0.317048
0.113342
-0.0159813
-0.12067
-0.333554
0.454224
0.292693
-0.517731
0.225038
0.324827
-0.519146
0.194319
0.167025
-0.166345
0.148934
-0.300645
0.410501
-0.109856
0.0739374
0.228361
-0.302299
-0.362351
0.499707
-0.137356
0.0186422
0.493076
-0.200383
-0.0549963
-0.16709
0.222087
0.28179
0.113425
0.0292646
-0.00346233
-0.0258022
-0.0215314
-0.430156
0.309259
0.120896
0.0147989
-0.123492
-0.0967283
-0.00270082
0.110568
0.362363
-0.415468
0.566509
-0.151041
0.550021
-0.448809
-0.101212
-0.100997
0.378592
-0.277595
-0.0716082
-0.243778
0.315387
0.459354
0.0270867
-0.50601
0.360937
0.145074
-0.163737
-0.169427
0.10123
0.0186992
-0.0842128
0.0655136
0.226897
-0.323699
-0.0302173
-0.151881
0.182099
-0.172417
-0.0155999
0.188017
-0.554612
0.415735
0.138877
-0.189146
0.188427
0.260481
0.0215114
0.558018
-0.17767
-0.380349
-0.00643499
-0.178162
0.184597
0.181527
0.441273
-0.00998931
0.0454697
0.143067
-0.111321
-0.583848
0.165656
0.418193
0.150236
0.405949
0.233247
0.23105
-0.531843
0.369932
-0.470005
0.113681
-0.0224069
-0.400889
0.561232
-0.160343
-0.0753413
0.364874
-0.494105
-0.248527
0.576676
-0.328148
-0.414436
0.134693
0.279742
0.103938
0.33365
-0.437588
-0.0760032
-0.380023
-0.128249
0.156849
-0.557738
0.389393
-0.069667
0.302195
0.0187265
-0.320922
0.00528315
-0.560093
0.415211
0.144882
0.182389
0.220258
-0.655238
0.43498
-0.353183
-0.116822
-0.0249646
0.0294038
0.485956
-0.161129
-0.148966
0.288964
-0.00494982
0.12588
-0.0326724
0.647254
-0.426997
-0.472484
0.331627
0.140857
0.0963559
-0.0801636
0.561703
-0.407769
-0.153933
0.0874224
0.305255
-0.392677
0.118815
0.0819201
-0.162506
-0.305501
0.468007
-0.087676
0.0995346
0.289674
-0.348714
0.0590401
-0.0244188
-0.0110904
0.290417
0.0978996
0.133831
-0.0377964
-0.0960348
-0.351291
-0.452904
-0.118221
0.571125
-0.608984
0.470485
-0.0982574
0.537573
0.642363
-0.154189
0.0447037
-0.0575999
-0.0876092
0.3282
-0.240591
-0.611875
0.236791
0.375083
0.366179
-0.394342
0.0281631
0.16149
0.126745
0.423276
-0.107852
0.305326
-0.0690095
0.0182845
-0.209048
0.173731
-0.116821
-0.00547972
0.1223
0.0953509
0.23197
-0.0380346
-0.00810759
0.0299535
-0.0218459
-0.380339
0.116304
0.264035
-0.116562
-0.248457
0.413399
-0.164942
-0.0202239
0.00406302
0.0161609
-0.493701
0.202135
0.115045
-0.31718
-0.221309
-0.433929
-0.202639
-0.356441
0.559081
-0.62318
0.401871
0.603418
-0.180378
-0.423039
0.568481
-0.441847
-0.126635
0.126381
0.29644
-0.422821
-0.172758
-0.0310939
0.203852
0.542127
-0.142844
0.245466
-0.333075
-0.0144819
-0.112301
0.126782
-0.0417209
0.0538461
-0.0121252
-0.0674836
0.0125148
0.12373
-0.12868
-0.223375
-0.428856
-0.180128
0.477092
-0.338538
-0.138554
-0.0177068
-0.0760206
0.304501
0.163752
0.01221
0.139214
-0.416143
0.276929
0.145764
-0.00791721
0.511327
-0.503409
-0.303972
0.415496
-0.111524
-0.285744
0.424959
-0.413286
-0.178975
-0.372359
-0.133823
0.506182
-0.150319
0.16062
-0.242882
-0.368993
0.0270011
-0.0402708
0.0132697
0.466239
-0.374752
0.5269
-0.152148
-0.0317536
0.0500765
-0.421032
0.172575
-0.280551
-0.308736
-0.0983776
0.520647
-0.00740555
0.0411964
-0.0502192
0.196173
-0.203471
0.579486
-0.376015
-0.135504
-0.469757
-0.151468
0.621225
0.538282
-0.0213023
0.0803118
-0.0590094
0.121159
-0.0490599
-0.176286
0.225346
0.185317
-0.334283
-0.339974
0.326931
-0.201621
0.591699
-0.447419
-0.14428
-0.064714
-0.170176
0.343645
-0.464315
0.0648612
-0.230776
0.0261672
-0.0323491
0.300639
-0.439734
0.139095
-0.433587
0.332989
0.375021
-0.287598
-0.510781
0.354386
0.156395
-0.141426
0.00760675
-0.10829
0.100684
0.0266047
0.138178
0.224826
-0.0365704
-0.0291443
0.0232445
0.0467105
-0.0197093
-0.130445
0.47409
-0.0995006
0.107107
-0.420542
-0.152061
0.00449072
0.0207863
-0.025277
-0.453525
-0.125314
0.0584784
-0.00612282
-0.0523556
-0.138167
0.00955296
-0.207333
-0.285667
0.306099
-0.0204311
-0.10571
0.119736
-0.014026
0.0168272
-0.083327
0.0664998
-0.634426
0.228718
0.405708
0.18278
-0.389863
-0.441653
-0.309337
-0.196674
0.167343
0.382722
-0.100931
-0.0758198
0.365493
-0.172944
-0.0229474
0.195891
-0.0230911
-0.000296968
0.0233881
0.138174
0.193471
-0.0276194
0.00515688
0.521202
0.095788
-0.173889
0.463033
-0.289144
-0.309382
0.0407657
-0.0598476
0.0190819
0.218647
-0.290255
0.0197444
0.565891
-0.137172
0.160378
-0.259461
-0.139234
0.398696
-0.404028
0.269704
0.115779
0.0573852
0.181702
-0.239088
0.301374
-0.402371
0.00539819
-0.416154
-0.218272
0.412655
0.150956
-0.56361
-0.180512
-0.125336
0.425975
-0.0217917
0.00278426
0.0190075
-0.328854
0.116851
-0.103367
0.330264
-0.428501
0.546794
-0.118293
0.0290785
-0.400991
0.626073
0.152045
-0.290199
0.0829828
-0.193674
-0.117782
0.311456
0.217399
-0.0320822
0.43432
0.212935
0.0521419
0.476834
-0.348424
-0.487155
0.137216
0.349939
0.0153066
-0.128312
0.113006
-0.438659
-0.008426
0.603928
-0.308686
-0.0980036
-0.0301937
0.128197
0.0811682
-0.101648
-0.017786
-0.103855
-0.115983
0.0126063
0.103376
-0.198727
-0.360514
0.0855613
-0.0757869
0.0368736
0.00910351
-0.0459771
0.529256
0.0904222
-0.0834821
0.249166
-0.423055
-0.00788043
0.1644
0.136034
0.0119179
0.4457
-0.252872
-0.0633709
0.227476
-0.164105
-0.40513
-0.183536
0.239961
-0.176538
-0.0634229
-0.2503
-0.250304
-0.0920743
-0.0279012
0.0573921
-0.156451
-0.0210705
0.177522
0.0261983
-0.164683
-0.0533647
0.0464828
0.00688189
0.087175
-0.0107155
0.10858
-0.0978645
-0.219543
-0.409942
0.105971
0.365495
0.0925736
-0.458069
0.565375
-0.152721
-0.587795
0.442638
0.145157
-0.403435
0.545156
-0.14172
-0.220806
-0.06686
0.0836872
-0.595385
0.432965
0.16242
0.0795534
0.248647
-0.148586
-0.254576
-0.118098
-0.228285
0.346384
0.178084
-0.0123925
-0.136177
0.0384403
0.0977368
-0.302393
0.11064
-0.54831
-0.205081
0.150085
0.0464436
-0.474944
-0.300306
0.268457
0.0247842
-0.0328917
-0.103518
-0.220936
0.324454
0.148635
0.313813
-0.462448
0.24462
-0.0829792
-0.432662
0.326142
-0.246588
0.0461228
-0.00924914
-0.017301
0.385242
-0.0977346
-0.287507
0.181326
-0.168513
-0.0128131
0.308522
-0.0856969
-0.222826
-0.0183964
0.00397563
-0.0371633
0.222945
-0.235811
0.151848
-0.0167752
0.0880408
0.541012
-0.0635255
-0.0968888
-0.0423056
-0.0967633
-0.424598
0.306586
-0.375083
0.215005
0.160078
0.521033
-0.00958904
-0.0884326
-0.0117686
0.519898
-0.50813
0.238872
-0.356971
-0.34457
0.0581503
0.275401
-0.14655
0.162142
-0.0155915
0.589154
-0.179626
-0.409529
0.114768
-0.061912
0.252603
0.0527235
0.0941827
0.00900221
0.217429
-0.444617
0.126344
0.318273
0.00723946
0.238557
0.122376
-0.360933
-0.0793633
0.31738
-0.238017
-0.497701
0.322687
0.175014
0.00447054
0.0187016
-0.0231722
-0.0142597
0.14752
-0.0335447
0.195275
-0.26416
0.0688843
0.00692032
-0.0284297
0.156638
0.0143431
-0.168119
-0.323718
-0.106437
0.177588
-0.0215574
0.378181
-0.567307
0.402995
-0.299057
-0.152378
0.00565217
0.146726
-0.230089
-0.183173
-0.179985
-0.077466
-0.194955
0.25234
-0.311188
0.117514
-0.118751
0.134058
0.0241425
0.109689
-0.471295
0.14131
-0.151075
0.155675
-0.00459977
-0.0903989
-0.249575
0.299739
0.110762
-0.353454
0.488997
-0.135542
0.185258
0.398979
0.0844265
-0.0662577
-0.0181688
0.0919699
-0.0925485
0.581688
-0.436054
-0.145634
0.154822
-0.607348
0.186365
0.420983
0.138647
-0.472201
0.0149135
0.356301
-0.432121
-0.160768
-0.338367
0.499134
0.0280807
0.492952
-0.277534
0.0346076
-0.49871
0.464102
0.320377
-0.0759316
0.0660937
0.0183328
0.114659
0.16828
-0.226295
0.0580148
0.41473
0.150645
-0.41317
-0.00235491
0.126085
-0.0210072
0.0617729
0.0254986
-0.0185783
-0.126719
-0.499405
0.548571
0.339806
-0.500574
-0.0910783
0.336544
0.039542
-0.425421
-0.158428
0.00566671
-0.066199
0.00978447
0.126862
-0.136646
-0.0928327
0.252973
-0.584913
0.178882
0.406031
0.296665
-0.0994312
-0.0140225
0.455203
-0.393833
-0.06137
-0.183266
0.222914
-0.039648
-0.398547
0.559734
-0.424875
-0.134858
-0.364337
0.221122
0.00775554
0.0352495
-0.043005
-0.178505
0.15082
-0.147023
0.561753
-0.137861
0.15055
-0.0126891
-0.406067
0.0096362
0.134293
-0.463766
0.212214
0.400267
0.165393
-0.56566
-0.0688271
-0.380019
0.0779504
0.377252
0.270149
0.115094
-0.0968734
-0.0163884
0.113262
-0.183116
0.243327
-0.0602103
-0.0915177
-0.206167
0.488383
0.00469332
0.123638
0.432199
0.114228
-0.542468
0.245045
-0.207566
0.0348075
0.173218
0.00505214
-0.178271
0.0145313
-0.0167723
-0.214899
0.191688
-0.198123
-0.145465
0.160619
-0.0151541
-0.0122899
0.168927
0.161241
0.4058
0.163309
0.0888168
0.116843
-0.0182565
-0.0902809
0.06968
0.0206009
0.0285221
0.0235351
-0.115002
0.360695
-0.245693
0.281599
-0.498113
0.216514
-0.0157534
-0.627724
0.289357
-0.498574
0.0975823
0.194507
0.0795947
-0.274102
0.0203959
-0.350607
0.129084
0.221523
-0.427665
0.0726232
0.0238621
-0.0964853
0.206572
-0.154703
0.0939295
-0.35363
0.2597
-0.183223
0.414273
0.042984
0.0764945
-0.119479
0.0700376
-0.0852225
0.0151849
-0.0225275
-0.00509186
0.360945
-0.48957
0.102226
-0.427731
0.325505
-0.136811
0.456286
0.112806
-0.495327
-0.0167316
-0.166576
0.190887
-0.0243111
0.105202
0.343801
-0.267749
0.0852694
0.18248
-0.197833
0.155842
0.041991
-0.314732
0.223215
0.0638327
-0.0792773
0.130357
0.362731
-0.493088
-0.120842
0.381614
-0.260772
-0.131094
-0.180094
-0.225955
0.507553
-0.0174116
-0.0728693
0.112466
-0.473905
0.361439
0.558657
-0.197708
0.024764
0.108209
-0.123947
0.015738
-0.137158
0.121574
0.0155833
-0.0171359
0.0894866
-0.0723507
-0.157432
-0.27405
0.431481
0.10518
0.0823395
-0.18752
-0.357211
0.529636
0.0589976
0.316023
-0.529049
0.521132
-0.190501
0.359732
0.0786288
-0.0960404
0.0352184
0.321083
0.136828
-0.16916
0.449148
-0.0836533
-0.573831
0.409217
0.164614
0.136636
-0.435014
-0.140891
0.575905
-0.16058
-0.00481994
0.0219037
0.43809
-0.588266
0.150176
0.348318
0.109206
-0.123688
-0.540817
-0.118528
-0.087837
-0.109996
-0.0710066
0.176187
0.289538
0.114465
-0.404003
-0.51009
-0.153502
-0.371076
0.524577
0.416262
0.143472
-0.569443
0.419278
0.150165
-0.246187
-0.138215
0.493333
-0.355118
0.326007
0.217195
0.0416519
-0.511409
-0.403277
-0.114448
0.517725
-0.0702163
0.259897
-0.18968
-0.181638
0.0164713
0.0487278
0.0123695
-0.15892
0.140796
-0.357719
0.527834
-0.170114
0.553624
-0.449094
-0.10453
0.147581
0.0145603
-0.556215
0.159193
0.397022
0.129391
-0.309835
-0.274797
-0.290374
-0.30581
-0.388573
0.163888
-0.367596
0.256998
0.110598
-0.0825313
0.0634083
0.443502
0.145653
0.583187
-0.145097
0.247944
-0.0597422
-0.188202
-0.602497
0.17548
0.427017
0.626216
-0.189916
-0.4363
-0.033056
0.314014
0.101482
-0.324564
0.0134818
-0.180058
-0.142742
-0.00272759
0.175237
-0.0588131
0.224426
0.190002
-0.17652
-0.157242
-0.398973
-0.460186
0.529608
-0.0694217