/*--------------------------------*- C++ -*----------------------------------*\
| =========                 |                                                 |
| \\      /  F ield         | OpenFOAM: The Open Source CFD Toolbox           |
|  \\    /   O peration     | Version:  v2012                                 |
|   \\  /    A nd           | Website:  www.openfoam.com                      |
|    \\/     M anipulation  |                                                 |
\*---------------------------------------------------------------------------*/
FoamFile
{
    version     2.0;
    format      ascii;
    class       volVectorField;
    location    "50";
    object      U;
}
// * * * * * * * * * * * * * * * * * * * * * * * * * * * * * * * * * * * * * //

dimensions      [0 1 -1 0 0 0 0];


internalField   nonuniform List<vector> 
13917
(
(0.625746 0.0376078 0)
(1.03117 -0.00581017 -3.98846e-21)
(1.05776 0.108359 -4.83595e-21)
(1.03207 0.0135051 7.68646e-21)
(1.01966 -0.00869833 2.09539e-22)
(1.03323 -0.00269506 0)
(1.04536 0.0287704 1.10709e-20)
(0.960955 -0.0982133 0)
(1.05657 0.0188859 -1.68941e-20)
(0.0737859 -0.194174 8.29098e-22)
(0.976592 -0.0833304 -4.54821e-22)
(1.02321 0.0107854 0)
(1.0122 0.000204074 0)
(0.697069 -0.0837693 -1.66081e-22)
(1.01815 0.013044 0)
(0.603804 0.0265235 0)
(1.00649 0.000196723 5.84905e-22)
(0.97091 -0.0475841 -3.60605e-21)
(1.03986 0.0796316 0)
(0.704406 0.149904 0)
(1.00217 0.031653 0)
(1.01358 0.00397589 0)
(1.05061 0.0462067 3.54397e-22)
(1.01355 0.00398247 0)
(1.02869 0.0208648 0)
(0.995315 0.0283407 0)
(1.08575 0.290748 0)
(0.0564545 -0.125456 0)
(0.975262 0.00346054 9.08507e-21)
(1.00025 0.00151588 0)
(0.0190259 -0.141991 9.8984e-20)
(1.06494 0.0602961 0)
(1.02767 0.0148407 7.16582e-21)
(0.639804 0.0619187 0)
(1.01587 -0.0013309 -3.95423e-22)
(0.943361 -0.123443 0)
(1.01644 0.0169439 6.82363e-22)
(1.00505 6.38213e-05 2.68372e-21)
(1.04678 0.0283817 0)
(1.02107 0.0504504 -2.51628e-21)
(1.00082 -6.24561e-06 0)
(1.01649 0.00409913 -3.2181e-23)
(1.05198 0.0148848 2.90018e-20)
(1.05572 0.0803 0)
(1.05324 0.079638 -9.20362e-21)
(1.01556 -0.0440154 0)
(1.00495 0.0296729 0)
(0.359248 0.377048 1.72774e-20)
(0.97715 -0.0953717 0)
(1.0157 -0.00141774 4.4694e-22)
(1.02281 0.0102874 -3.42472e-21)
(1.02351 0.0218381 -4.93203e-22)
(0.395746 0.00440772 0)
(1.0171 0.00910788 0)
(1.018 0.0100526 -2.7964e-21)
(1.02178 0.0250875 1.36212e-21)
(0.0259854 0.0246346 -8.34657e-20)
(1.0495 0.0457114 4.52998e-22)
(1.01605 0.00405267 -1.0123e-21)
(1.02934 -0.0463658 -5.34501e-21)
(0.214651 0.0156646 -4.64044e-21)
(1.01977 -0.000940252 0)
(1.00087 6.04898e-05 0)
(1.02861 0.0197315 0)
(0.975925 0.150185 -9.19563e-21)
(0.998675 0.00138776 -1.30627e-23)
(0.971642 -0.0110306 0)
(0.963669 -0.143085 0)
(0.957704 -0.0655075 3.44677e-21)
(0.513456 0.0198046 -4.85733e-20)
(1.03904 0.138839 3.30823e-20)
(0.620846 0.0546924 0)
(1.02998 0.00618343 4.8094e-21)
(1.01582 0.0036994 1.46593e-21)
(1.00216 0.0331655 0)
(1.0241 0.0218296 0)
(1.01401 -4.01963e-05 -6.90634e-22)
(1.01545 0.00363803 -9.23097e-22)
(1.02429 0.0207562 0)
(1.02785 0.0155291 5.84039e-21)
(1.01518 0.00892145 0)
(1.00698 0.000147051 0)
(1.02971 0.00559658 0)
(1.05545 0.13027 7.68712e-21)
(1.01341 0.00156948 -8.3919e-24)
(0.848118 0.0232765 1.05887e-20)
(1.06463 0.05832 0)
(1.01241 0.00100768 -3.74271e-22)
(1.01936 0.0521221 1.48384e-21)
(1.00666 0.000178821 -6.82264e-22)
(1.00813 0.000418775 2.67654e-22)
(1.05325 0.0149572 -3.56661e-20)
(0.986691 -0.0202928 -3.58362e-20)
(1.01543 -0.000471345 1.94961e-22)
(1.01704 0.0115022 0)
(0.967191 -0.00464164 -1.05953e-20)
(0.96871 0.231198 5.1461e-21)
(1.00665 -0.000112896 0)
(1.01279 0.000912043 1.87978e-21)
(1.01174 0.158252 0)
(1.0012 6.65073e-05 1.38987e-22)
(1.00127 6.82565e-05 0)
(1.01522 0.00910717 3.96874e-22)
(1.00823 0.00014141 -6.75078e-22)
(1.01464 -0.000471778 2.88795e-23)
(1.0419 0.107872 0)
(0.672422 0.24806 0)
(1.01932 -0.00175875 0)
(1.01681 0.00458182 -5.94021e-22)
(1.06875 0.297838 3.26914e-21)
(1.01729 0.000184346 -1.27012e-21)
(0.660438 0.0705503 -5.72158e-20)
(0.973312 0.00673569 -4.32217e-22)
(0.30464 0.40461 -5.67134e-20)
(0.981674 0.147092 4.58293e-21)
(1.02208 0.0227533 -3.7807e-22)
(1.042 0.07456 1.38541e-20)
(1.00568 0.000592807 1.7632e-22)
(1.0523 0.101331 -7.75935e-21)
(1.02877 0.00241747 -1.3755e-20)
(1.00762 0.000153775 -1.56272e-22)
(1.01533 0.0025085 4.49178e-22)
(0.962875 -0.0195097 -1.64844e-20)
(1.0294 0.0560348 6.48154e-21)
(0.427342 0.0176145 -4.17636e-21)
(1.04307 0.130238 -1.24323e-20)
(1.02934 0.0189792 -8.01445e-21)
(0.998363 0.0359422 3.1687e-21)
(1.01278 0.000183802 -2.22012e-22)
(1.03031 0.0577351 0)
(1.0605 0.0340913 2.80625e-22)
(1.14934 0.0281036 0)
(0.732036 0.0812053 0)
(1.02132 0.0220619 -2.76212e-21)
(1.06397 0.0664558 -1.85631e-20)
(1.04293 0.325722 2.11775e-20)
(0.232648 -0.0989757 0)
(0.350409 0.0145264 -3.94932e-23)
(0.989675 0.0258569 7.60392e-22)
(1.00349 0.000122704 -1.2441e-21)
(0.835574 -0.221731 1.0101e-20)
(1.01527 0.00332131 4.53454e-22)
(1.0467 0.10688 -8.54846e-21)
(1.01271 0.00332737 5.26962e-23)
(1.02791 0.00584864 0)
(1.01736 0.0070239 7.68054e-22)
(1.0399 0.136327 -1.3465e-20)
(0.852719 -0.137787 -6.73532e-21)
(0.41671 0.392157 0)
(1.01728 0.00951637 5.97437e-22)
(1.01882 0.0470479 0)
(1.00122 3.46791e-05 -2.24288e-24)
(1.02752 0.00537283 0)
(1.02905 0.00231023 1.21331e-22)
(0.948382 0.274286 1.56536e-21)
(1.01485 0.00243057 -5.0325e-23)
(1.00825 6.32717e-05 9.48627e-22)
(0.678823 0.0723963 5.38479e-20)
(1.0031 0.000304032 -8.90979e-24)
(1.00509 0.000520842 0)
(1.01308 0.00303819 0)
(0.775073 0.183085 -1.03062e-20)
(1.0136 0.0130543 1.48281e-22)
(0.85155 -0.251666 -2.87086e-21)
(0.435839 0.207413 -3.33173e-21)
(1.00782 0.187474 -2.87721e-21)
(0.384716 0.00830114 0)
(0.253606 0.265595 -1.17408e-20)
(1.00089 0.000459949 0)
(0.98469 0.0231499 1.07793e-21)
(1.01358 0.00356647 -5.77086e-23)
(0.769364 0.0902338 4.29696e-20)
(1.05702 0.0191294 1.50282e-20)
(0.31598 -0.0130392 3.36853e-20)
(1.04876 0.036491 0)
(1.00198 6.96274e-05 -1.01395e-22)
(1.03276 0.0134494 0)
(1.02266 0.0133088 2.96586e-21)
(1.0603 0.0329724 3.68481e-20)
(1.01291 0.0124096 -5.52381e-22)
(1.05033 0.0158014 -9.98098e-21)
(1.01356 0.0036231 0)
(1.02243 0.0106426 1.9297e-21)
(0.98187 0.0410795 1.02314e-22)
(1.04889 0.102278 0)
(1.15951 0.0449421 0)
(1.02212 0.0100663 0)
(0.980985 0.0379748 -5.85968e-22)
(1.00026 0.00159525 9.94402e-24)
(0.868396 0.0103566 9.60153e-21)
(1.0509 0.0385654 5.0013e-21)
(1.05426 0.0757852 9.27946e-21)
(1.00306 0.0468622 3.07292e-21)
(0.653958 0.050383 1.01866e-19)
(1.01522 -0.000600056 -1.23446e-21)
(0.443531 0.0187344 -3.36401e-20)
(1.03166 0.029384 -5.17424e-21)
(0.778147 0.0864863 -4.62595e-20)
(1.01587 -0.00135101 1.76696e-22)
(1.01445 0.00254066 3.31354e-22)
(1.00934 0.0291537 -3.18717e-22)
(0.529565 0.0200205 0)
(0.342308 0.0130595 -4.78432e-20)
(1.01612 0.0140204 0)
(1.12883 0.225002 -3.77278e-20)
(1.00139 0.000903607 9.96538e-22)
(1.02025 0.0455252 0)
(1.01552 0.00291621 2.63734e-23)
(1.0196 0.0168313 -2.7416e-22)
(1.01486 0.00849878 1.93303e-22)
(1.01162 0.000183232 -3.9648e-22)
(1.03226 -0.0182281 -3.09448e-21)
(1.0333 -0.0256838 4.59877e-22)
(0.400539 0.370913 -1.80735e-20)
(1.06422 0.0648506 1.00128e-20)
(0.991519 0.0290513 -2.16886e-21)
(0.818924 0.18245 3.46197e-20)
(1.00896 0.000393708 0)
(1.00994 0.00310754 5.76392e-22)
(1.00981 0.00339002 0)
(0.24261 0.293697 1.23449e-20)
(0.994214 0.0416622 2.08185e-21)
(0.966439 0.0300814 -3.97404e-21)
(1.0176 0.00129847 0)
(1.00068 4.7162e-05 1.14716e-23)
(1.00989 0.338151 -4.58496e-20)
(0.438694 0.0147136 -3.63015e-20)
(1.00985 0.00268233 -3.38507e-22)
(1.00989 0.00262858 3.02854e-22)
(1.00091 1.59904e-05 0)
(1.00977 0.00355337 0)
(1.00966 0.00372115 5.44673e-22)
(0.615947 0.0502064 2.40356e-20)
(0.450579 0.32596 0)
(1.01404 0.00614663 -3.54851e-23)
(1.00081 0.000796598 7.24141e-24)
(1.03795 0.0395714 0)
(0.567138 0.0395462 0)
(1.0047 0.000279619 -2.6294e-23)
(1.01739 0.0012513 0)
(1.11284 0.256161 2.37087e-20)
(1.03839 0.102561 0)
(0.990402 0.0448327 -4.91203e-22)
(0.812737 0.182519 0)
(1.05509 0.0226324 0)
(1.01281 0.00336768 -1.22368e-21)
(0.316134 0.243789 1.22965e-21)
(1.03604 0.0402862 1.47441e-21)
(0.979346 0.0110062 -9.99153e-21)
(1.04746 0.0611984 4.73108e-21)
(1.01653 0.0138856 0)
(0.456533 0.339834 2.228e-20)
(1.02896 0.00347066 5.62984e-21)
(1.03935 0.0467953 -3.71116e-21)
(1.04816 0.0397152 0)
(1.01384 0.00590905 2.87713e-22)
(1.00064 -6.2674e-06 0)
(1.02936 0.0197646 0)
(1.0237 0.00279613 4.02146e-22)
(1.01743 -0.000898391 0)
(0.464887 0.0282978 3.3066e-20)
(0.828749 -0.362347 -2.00307e-20)
(1.01606 0.000906157 4.55102e-22)
(1.01006 0.00228561 0)
(1.01497 0.00235725 4.0448e-22)
(1.01015 0.00214026 0)
(1.02916 0.00325708 1.00539e-20)
(1.01326 0.000166747 -3.21265e-21)
(1.04448 0.0404702 -6.47355e-21)
(1.01645 0.00123885 4.83297e-22)
(0.349235 0.0175854 4.44981e-21)
(0.671777 0.248189 0)
(1.0196 0.00795323 -1.91801e-21)
(1.01894 0.000143253 0)
(1.01378 -0.0752232 8.65775e-21)
(1.00729 0.00415156 9.17463e-23)
(1.00898 0.12662 -8.30934e-22)
(0.485314 0.0350461 1.46269e-22)
(1.00748 0.004132 -9.40457e-23)
(0.531565 0.0268273 4.41368e-20)
(1.0172 -0.000720883 0)
(0.774521 0.177901 0)
(1.00176 9.53365e-05 -1.39652e-24)
(1.0159 0.0125555 -3.02609e-21)
(1.01376 0.00606072 -2.32521e-23)
(1.0124 0.00271592 7.26617e-22)
(1.01727 0.0840211 0)
(1.00708 0.00016471 -2.23701e-21)
(1.01455 0.197668 -4.57711e-21)
(1.0289 0.0344727 0)
(0.831304 -0.350285 7.90313e-21)
(1.01786 0.00746408 0)
(1.15328 0.187308 0)
(0.327692 0.0128813 -4.67829e-21)
(1.00581 0.000456858 5.16944e-22)
(1.04513 0.0454611 -9.95816e-21)
(1.02419 -0.00179651 4.71895e-22)
(1.01986 0.0222126 -2.76004e-21)
(1.02141 -0.00605409 4.53917e-23)
(1.02517 0.0209784 -8.30277e-21)
(1.01601 -0.000532587 4.47685e-22)
(1.00777 0.000124038 1.08636e-21)
(1.03409 0.00893346 -1.38447e-21)
(0.984606 -0.0146036 0)
(1.0386 0.0464026 6.4108e-21)
(1.02526 0.0205281 2.73299e-21)
(1.01708 0.00129246 -2.41451e-21)
(0.712355 0.0775345 -5.29911e-20)
(0.522154 0.0187676 0)
(1.01284 -0.000181144 3.10786e-22)
(1.0007 0.00632242 -6.40104e-24)
(1.02061 0.023111 0)
(1.08406 -0.0689498 0)
(1.07884 0.0822529 -6.57671e-20)
(0.710812 0.20984 -1.2967e-20)
(0.367148 -0.00794365 -2.76994e-20)
(0.998843 0.00122447 4.22049e-24)
(1.12815 0.0309182 1.06758e-20)
(1.01877 0.0016019 -4.30922e-22)
(1.05614 0.12766 -3.97365e-20)
(1.06021 -0.133409 1.77511e-21)
(1.06045 0.106442 0)
(1.01363 0.000183242 0)
(1.01731 0.0135925 0)
(1.10719 0.255456 0)
(1.01401 0.00296374 8.87444e-23)
(1.03658 -0.00961959 2.17608e-21)
(1.05219 0.0757475 9.0236e-21)
(1.00562 0.000164394 6.95884e-22)
(0.782002 0.0926092 -2.34274e-22)
(1.01308 0.00121724 0)
(1.07331 0.0381369 0)
(1.00487 0.005528 2.84226e-22)
(0.694336 0.13344 1.7475e-19)
(1.01017 0.000463844 1.33502e-21)
(1.03824 0.0444425 -9.66138e-22)
(0.998145 0.00377914 9.27441e-22)
(0.998939 0.00121354 -3.65638e-24)
(1.00681 0.000224316 -4.36671e-22)
(1.05073 0.0628857 1.22881e-20)
(1.06539 0.114922 1.3184e-20)
(1.01744 0.0115368 1.22322e-21)
(1.01407 0.00295052 -2.89188e-22)
(0.684704 0.080017 -3.06684e-20)
(1.06001 0.111668 0)
(0.699243 0.0699524 4.17075e-20)
(0.709667 -0.12808 0)
(1.00768 0.00387274 -4.67623e-23)
(1.01452 0.00694567 -3.67753e-22)
(1.02718 0.0979012 0)
(1.12307 0.0238689 -8.77712e-21)
(1.00792 0.00379408 4.04126e-22)
(1.02404 -0.00451567 4.62068e-22)
(1.01971 0.0102136 2.68856e-21)
(0.98017 0.0606256 0)
(1.03893 0.044732 -3.13587e-21)
(1.01814 0.0503562 3.6388e-22)
(1.07692 0.0416639 2.21597e-21)
(1.00263 0.126878 -5.60664e-22)
(1.06898 0.039846 3.00866e-20)
(0.666921 0.0728259 0)
(1.01285 0.00025396 5.36648e-22)
(1.01787 0.0117153 0)
(1.01865 -0.0107609 8.98639e-22)
(1.02542 0.0963116 -1.13166e-20)
(1.0047 0.000226655 -2.12699e-22)
(0.634454 0.035341 -1.26904e-19)
(1.06952 0.0398387 -2.09319e-20)
(0.955319 -0.000214013 7.97114e-23)
(1.01788 0.0102177 3.55786e-21)
(1.09857 0.0305477 0)
(1.00092 0.0067182 4.22025e-24)
(1.03383 0.146916 0)
(1.01519 0.00507629 5.27637e-22)
(0.968919 0.0324865 4.38561e-21)
(1.01146 -0.0687793 -7.38659e-21)
(0.994131 3.11014e-05 1.0045e-21)
(1.01969 0.00845976 -6.08045e-21)
(1.01524 0.129697 0)
(1.00423 0.00605743 0)
(0.399676 0.197266 3.098e-21)
(0.996766 0.0509656 -2.15537e-21)
(1.01492 0.00534466 5.02466e-22)
(1.03174 0.0962776 2.86138e-20)
(1.01336 0.00604088 -3.95151e-22)
(1.00296 0.0101106 1.41041e-22)
(1.01298 -0.000343722 -4.74238e-22)
(0.70389 0.167997 0)
(1.00328 0.0104524 -5.28647e-23)
(1.01867 0.0173784 -6.73803e-23)
(0.996095 0.322129 2.68468e-20)
(0.996853 0.1108 0)
(1.01685 0.0132428 1.63673e-21)
(0.582073 0.153382 5.48329e-21)
(1.10791 0.0838928 -1.89176e-20)
(1.0198 0.0171279 -6.25742e-22)
(1.01335 0.0781544 6.20356e-21)
(1.01492 0.00736578 6.38721e-22)
(0.986555 0.108372 1.6877e-21)
(1.05452 0.106604 3.487e-20)
(1.01316 0.00116044 0)
(1.05041 0.0256653 -1.52022e-20)
(1.02609 0.0203637 3.62519e-21)
(1.01242 0.00284115 7.25294e-22)
(1.01078 0.0012211 2.59706e-23)
(1.01278 0.000521515 -4.50921e-22)
(0.208605 -0.118486 0)
(1.03049 0.172626 2.95011e-21)
(1.01792 0.0110302 1.74653e-21)
(1.01307 0.00023611 -1.59127e-22)
(1.01338 0.00380632 -1.72229e-22)
(1.04422 0.0429421 -1.48314e-20)
(1.03529 -0.158929 0)
(1.00592 0.00471431 0)
(1.00095 0.000386155 0)
(1.07628 0.0811963 4.37867e-20)
(1.10119 0.0393864 0)
(1.01255 0.00293742 7.66358e-22)
(1.01889 0.0172814 5.60507e-23)
(0.55452 -0.0395548 0)
(0.860994 0.278055 -2.5271e-22)
(0.998625 0.00125172 0)
(1.04105 0.0798654 0)
(1.06791 0.126568 7.66222e-21)
(1.01052 0.00573949 -8.52164e-22)
(1.00627 0.00449524 2.70695e-22)
(1.00435 0.0237788 -2.12111e-21)
(1.01074 0.00115999 2.30935e-23)
(1.00611 0.0047903 -2.76324e-22)
(1.01394 0.00643748 -3.48553e-22)
(1.00646 0.00456896 5.35125e-24)
(1.01028 0.00550133 0)
(0.343488 0.279239 -1.06824e-21)
(1.01508 0.00761491 -7.62697e-23)
(1.02679 0.0536059 0)
(0.36711 0.0210558 0)
(1.04451 0.0457265 0)
(1.01171 0.00022134 1.08335e-21)
(1.0269 0.00535772 0)
(0.617769 0.162271 0)
(1.00764 0.0277389 -8.68552e-23)
(0.408679 0.0139747 4.1991e-20)
(1.00522 0.00530652 0)
(1.01829 0.00323067 -4.60108e-21)
(1.00433 0.00622491 0)
(1.0096 0.00394688 -5.73593e-22)
(1.01659 0.0163302 1.03709e-21)
(1.01315 0.00536066 4.59858e-22)
(0.586857 -0.060608 0)
(1.0152 0.00804845 0)
(1.02731 0.102922 5.45239e-21)
(1.01801 0.00349258 0)
(1.05588 0.0393503 -1.308e-20)
(1.01574 0.00813516 4.75546e-22)
(1.01482 0.00825836 0)
(1.04971 0.0219999 0)
(0.679725 0.0571234 -7.54562e-21)
(1.01978 0.0100485 -2.78959e-21)
(0.873103 0.352295 -6.01846e-21)
(1.01176 0.000398282 5.20166e-23)
(1.00966 0.000443347 1.68894e-21)
(1.01332 0.00349676 -1.97077e-22)
(1.01346 0.0061752 1.68895e-22)
(1.01134 0.000183095 2.21133e-22)
(1.0109 0.000548864 0)
(0.700357 0.0769032 6.28787e-21)
(0.265619 0.023016 -2.23663e-20)
(1.01127 0.00013675 0)
(1.16103 0.183458 -2.68892e-20)
(1.07245 0.0828314 0)
(1.01619 0.000342219 5.32732e-21)
(1.04327 0.0449056 -8.42315e-21)
(1.08378 0.055866 1.17407e-20)
(0.55899 0.197441 1.70326e-21)
(1.05297 0.0267615 -1.76856e-20)
(1.04171 0.109277 1.93938e-20)
(1.00319 0.0103273 6.05939e-23)
(1.00516 0.0102107 -9.37328e-23)
(1.01313 0.00556285 5.33037e-22)
(0.998781 0.0013545 1.27925e-23)
(1.01604 0.0084851 0)
(1.01657 0.0134557 -1.43034e-22)
(0.89482 0.0550123 0)
(1.00806 0.000427103 3.0813e-22)
(1.01715 0.00881916 0)
(1.01735 0.0118093 2.69775e-21)
(1.05321 0.0235953 -1.21039e-20)
(1.00854 0.0370494 -4.25395e-23)
(1.04509 0.0967526 -1.52924e-20)
(1.05338 0.0512815 -2.20804e-20)
(1.01951 0.00611323 0)
(1.02076 -7.30148e-05 8.70212e-22)
(0.958745 -0.03949 0)
(1.03689 0.0650635 -3.68988e-21)
(1.01767 0.0110632 -1.65813e-21)
(0.70092 -0.107864 2.18909e-21)
(1.04709 0.0400593 -9.71035e-21)
(1.03008 0.0344556 4.5258e-21)
(0.380937 0.155172 -1.15966e-20)
(1.01345 0.00150249 -4.04214e-21)
(1.03966 0.0677679 4.03283e-21)
(1.01934 0.00435817 0)
(1.01013 0.00059954 1.60094e-23)
(0.565182 0.0562108 -3.40881e-21)
(1.00961 0.000444375 0)
(1.00946 0.00410704 0)
(1.04402 0.0433581 1.59715e-20)
(1.00542 0.00538873 0)
(1.00913 0.000337158 -8.72843e-22)
(1.03949 0.00448298 0)
(0.632718 0.0615625 0)
(0.927925 0.334661 2.55921e-20)
(1.01307 0.00289651 1.6206e-21)
(1.03744 0.0132074 1.38432e-20)
(1.02068 0.00406736 -8.66648e-22)
(0.905619 0.0160104 -1.27593e-20)
(0.922211 -0.132511 4.09221e-21)
(1.01728 0.0102147 3.08729e-21)
(1.01773 0.00983011 1.99513e-21)
(1.01283 0.00260948 0)
(1.04604 0.0413961 9.70967e-21)
(0.93097 0.0987081 1.10433e-20)
(1.01319 -0.000192382 2.27104e-22)
(1.00495 0.000271272 -8.81616e-23)
(1.01436 0.00246309 -4.75984e-22)
(1.01231 0.00278258 -2.32763e-21)
(1.01368 -0.00814425 0)
(1.0382 0.0338709 0)
(1.00748 0.00037863 -5.28485e-22)
(1.05232 0.0510916 2.29787e-20)
(1.01008 0.00057255 -7.41295e-22)
(1.01351 0.00425478 -1.0852e-21)
(1.0262 0.0199211 1.73344e-21)
(0.726749 0.164317 7.46953e-20)
(1.00968 0.000181494 8.43926e-22)
(1.04381 0.0194386 4.81551e-21)
(1.01721 -0.000914047 0)
(1.05568 0.037466 -2.26226e-20)
(1.04034 0.0477215 -5.03484e-21)
(0.95846 0.0408943 5.94921e-21)
(1.04762 0.0386947 0)
(1.02536 0.157899 0)
(1.02435 0.0184188 0)
(0.969981 -0.0280656 7.62667e-21)
(0.813003 0.0915399 2.40168e-20)
(0.386247 0.28415 0)
(0.389634 0.02604 -3.18836e-20)
(1.01295 -0.000392188 -3.41702e-22)
(1.01324 0.00321632 0)
(1.01944 0.00656554 8.14065e-22)
(1.01967 0.00595231 0)
(0.977967 0.142014 1.82739e-20)
(1.00708 0.00448548 0)
(0.854197 -0.160407 0)
(1.03267 0.0290613 7.63224e-21)
(0.925018 0.11099 4.1264e-20)
(1.01732 0.137601 7.25427e-22)
(1.05141 0.0161019 2.98761e-21)
(0.437737 0.228541 5.18363e-20)
(1.01132 0.000121477 -1.30865e-21)
(1.078 0.0539799 4.45296e-20)
(1.00694 -0.000111423 -9.08551e-22)
(1.02078 -0.00100469 -2.7023e-21)
(0.890869 0.107047 3.08068e-20)
(1.00556 0.00504263 -5.90619e-23)
(1.07753 0.101394 7.98305e-20)
(1.00084 5.36416e-06 -3.88035e-23)
(1.01523 0.000336355 -2.90035e-21)
(1.01331 0.00343759 0)
(1.04546 0.0973527 1.45775e-20)
(1.01487 -0.00921794 -2.01627e-22)
(1.01028 0.0015412 3.94434e-22)
(1.05966 0.0802991 0)
(1.04338 0.0443102 -1.6814e-21)
(0.832361 0.154038 4.84968e-21)
(1.05154 0.135527 0)
(0.727746 0.0769165 2.26825e-20)
(0.527314 0.204261 -2.30944e-21)
(1.00968 0.000130061 -1.00655e-21)
(0.46881 0.0198648 -1.18771e-20)
(1.00143 9.68135e-05 -3.52477e-23)
(0.237281 -0.0631936 0)
(0.851123 -0.105341 0)
(1.02203 -0.00125026 7.528e-22)
(1.00122 0.00720584 1.0603e-23)
(1.00118 5.33006e-05 -1.56504e-22)
(1.04697 0.0396801 0)
(1.04996 0.0141054 1.09033e-20)
(1.00577 0.00508667 6.07735e-23)
(1.00689 -6.23341e-05 0)
(1.01262 0.000158723 -2.27944e-21)
(1.05237 0.131263 -2.31378e-20)
(1.01377 0.00340335 -1.02238e-21)
(1.06605 0.0558918 2.98368e-20)
(1.01692 0.00854016 0)
(1.01011 0.00148314 -9.4545e-22)
(1.00373 0.000309317 -4.8937e-22)
(1.01618 -0.0330604 -8.9926e-22)
(0.889975 0.125423 -3.09982e-21)
(0.658889 0.30447 -7.13081e-20)
(1.04839 0.0590837 -1.41676e-20)
(1.03887 0.0332172 0)
(0.979512 0.0990148 -2.96129e-21)
(0.567758 0.0422688 -4.75419e-20)
(1.01329 -0.000403658 4.80614e-22)
(0.806367 0.0541771 0)
(1.01248 0.000129006 4.88997e-21)
(1.08849 0.065651 -5.6392e-20)
(1.01943 0.00599817 7.81514e-21)
(1.0209 0.127762 9.3182e-21)
(1.01216 0.00261612 8.93721e-22)
(1.01209 -0.00828842 0)
(1.02856 0.00575995 0)
(0.826426 0.124578 -1.50039e-21)
(1.04537 0.0404035 -1.18018e-20)
(0.930195 0.159181 -1.9141e-20)
(1.00826 0.000374324 1.17094e-23)
(1.04448 0.0392792 -7.18421e-21)
(1.01466 -0.00122616 0)
(1.00084 2.94437e-05 2.29822e-22)
(0.684881 0.0860316 -1.33e-21)
(0.976547 0.177383 -2.37728e-23)
(1.01543 -0.00171804 7.24292e-23)
(1.01322 0.048555 -1.10143e-21)
(1.01728 0.00141588 3.65177e-21)
(1.02044 -0.000603009 0)
(1.00103 3.48867e-05 0)
(0.698854 0.0955736 8.05196e-20)
(1.01398 0.00352758 1.04466e-21)
(1.02455 -0.000436545 0)
(1.00689 0.00444126 -2.11906e-22)
(1.01516 -0.00147194 5.50001e-22)
(1.02115 0.0965977 0)
(1.00123 4.52663e-05 4.75583e-23)
(1.01877 0.0589152 -3.5918e-21)
(1.00696 1.41764e-05 1.14611e-23)
(1.01016 0.000590037 0)
(0.203294 -0.0227223 -6.72332e-22)
(1.06668 0.056244 0)
(1.01715 0.00967373 -1.8065e-21)
(0.283626 0.00529555 0)
(1.07782 0.102086 -7.12891e-20)
(1.1296 -0.0369723 1.03488e-21)
(1.01914 0.00462411 0)
(1.01125 9.07731e-05 8.71713e-22)
(1.0191 0.014737 -3.28679e-21)
(0.719422 0.160472 -2.53687e-22)
(1.09742 0.0965927 3.73554e-22)
(1.00697 0.0247091 0)
(1.01674 0.0174698 -3.26877e-22)
(1.01034 -0.00768113 -9.55418e-22)
(1.00751 1.78399e-05 -8.41753e-22)
(1.01262 0.000980123 0)
(0.998783 0.00110612 1.80677e-24)
(1.03793 0.0464973 0)
(1.02805 0.0263652 -2.18834e-21)
(0.309137 0.173141 -2.23936e-21)
(1.04591 0.0408045 1.42688e-20)
(1.03958 -0.165043 5.99705e-21)
(0.864364 -0.143825 1.17217e-20)
(0.982864 -0.0114026 0)
(1.03951 0.0418616 -9.30295e-21)
(1.00565 0.0541635 0)
(0.550049 0.032176 4.30005e-20)
(1.01587 -0.000605256 0)
(0.998839 0.00748392 1.51186e-21)
(0.998818 0.00105944 0)
(1.01017 0.000603576 0)
(1.00871 0.000191701 -6.35542e-22)
(1.00345 0.000275132 1.34744e-22)
(1.02124 0.00471939 0)
(1.00979 0.000461825 0)
(0.473836 0.0186651 1.30947e-20)
(1.06738 0.0339952 1.69349e-20)
(1.00885 0.000138679 0)
(1.05351 0.0715523 -9.24625e-21)
(1.0084 0.000344498 -1.18717e-21)
(0.719958 0.210691 -2.69713e-20)
(1.01738 -0.000676459 0)
(1.01287 7.5149e-05 0)
(0.594298 0.0569353 0)
(1.04246 0.0485472 1.31295e-20)
(0.917772 -0.0353185 5.41708e-22)
(1.03003 0.0080305 0)
(1.00229 0.00591771 0)
(1.01335 -0.000467454 8.07572e-24)
(1.0348 0.0108133 -6.11409e-21)
(1.04713 0.0320942 -7.22951e-22)
(1.0123 0.00233716 9.50473e-22)
(0.381419 0.0145661 -3.57333e-20)
(1.0297 0.0375674 0)
(0.900343 -0.0880587 -1.79562e-20)
(0.94651 -0.0214621 9.80425e-22)
(0.998374 0.00812718 -1.41027e-21)
(0.729813 0.0764589 0)
(1.0371 0.0136173 0)
(1.00746 0.000110905 -1.01529e-21)
(1.01485 -0.00145999 -5.10728e-22)
(0.505114 0.0397626 -3.17333e-20)
(0.947123 0.308352 0)
(1.0317 0.0296401 -5.61446e-21)
(0.410909 0.0160344 0)
(0.887333 0.0235241 -7.90467e-21)
(1.01024 0.000549972 -1.60147e-21)
(1.0129 -9.81807e-05 0)
(1.01625 0.0156054 1.52007e-21)
(1.05671 0.113382 0)
(0.984135 -0.00598662 0)
(1.04494 0.040838 -3.83487e-21)
(1.03414 0.0108272 5.10786e-21)
(1.04333 0.0191382 0)
(1.09035 0.065617 6.12261e-20)
(1.01742 0.0013157 4.10386e-22)
(1.0193 0.0515757 6.36088e-21)
(1.06662 0.0344915 0)
(1.01697 0.0110935 -1.60861e-21)
(1.02748 0.0153227 -9.98403e-21)
(1.00731 9.9416e-05 1.06131e-21)
(1.04643 0.0318309 0)
(1.02113 0.00120674 -8.76277e-22)
(1.1091 0.0866009 -7.55931e-20)
(1.01835 0.0223548 1.07318e-21)
(1.02482 0.00122736 -9.61419e-22)
(0.393424 0.0141792 -4.79987e-20)
(0.999482 0.00176208 0)
(0.886046 -0.00206341 -8.31703e-21)
(1.01737 0.0170627 -1.44082e-21)
(1.02179 0.00308664 1.47388e-21)
(1.03603 0.0285313 -4.00893e-21)
(1.09473 0.095892 3.12061e-20)
(1.00765 0.000191824 5.96219e-22)
(1.07846 0.0506827 -1.93381e-20)
(0.911889 0.128739 6.80214e-21)
(0.998278 9.76043e-05 -9.12986e-24)
(1.0204 0.0059978 2.53877e-21)
(1.01912 0.023392 2.9423e-21)
(1.00852 0.000389219 5.94646e-22)
(1.01806 0.00473339 4.6215e-21)
(1.02854 0.00474374 1.35518e-21)
(0.996179 0.00887846 0)
(1.01555 0.00835713 0)
(1.03286 -0.028232 -4.91324e-21)
(1.01744 0.056454 0)
(1.01121 3.93654e-05 9.19281e-22)
(1.10938 0.0902723 -2.35073e-20)
(1.05571 0.0201123 2.92969e-20)
(1.05277 0.022925 1.98613e-20)
(1.0112 0.0521473 0)
(1.01442 0.00718478 -2.83793e-22)
(1.07658 0.0539864 2.21922e-20)
(0.992316 0.234361 -4.79095e-21)
(1.00983 0.000909163 6.48907e-22)
(1.04298 0.0491734 0)
(1.05731 0.0319188 2.65504e-21)
(1.06522 0.0342887 0)
(1.01205 0.000769734 2.64104e-22)
(1.01139 0.000270031 -1.81613e-21)
(1.01262 0.000932234 0)
(0.509883 0.0165196 1.96708e-22)
(1.02696 0.0147008 -5.1267e-21)
(1.01815 -0.000779981 2.15136e-23)
(1.07175 0.03907 0)
(1.01242 0.00253606 -1.269e-21)
(1.01202 0.000231977 -1.97254e-22)
(1.02444 0.02679 -2.32984e-22)
(0.98667 0.21389 2.47259e-21)
(0.983098 -0.00505085 1.16297e-21)
(0.877086 0.295981 2.43437e-21)
(0.983456 0.0549624 0)
(1.01866 0.0932517 0)
(1.02901 0.00448864 -1.47885e-20)
(1.01394 -0.00106131 4.76105e-22)
(1.00211 0.113232 1.19432e-20)
(1.02231 -0.00146283 1.57326e-21)
(1.01938 -0.00054193 -3.7129e-22)
(1.00658 0.000217043 -2.87118e-22)
(1.00877 0.00013679 -7.30486e-22)
(1.02869 0.00848135 5.76028e-21)
(1.01688 0.0220012 -1.00313e-21)
(0.957031 0.0494508 1.95073e-21)
(1.01206 0.00078955 1.7904e-23)
(0.998674 0.00776355 4.19467e-23)
(1.01399 0.00226474 -7.27904e-23)
(0.842499 -0.0455814 0)
(1.01772 0.0178115 0)
(1.05345 0.0261778 2.01729e-20)
(1.00508 0.00562905 2.27864e-22)
(1.04598 0.0609654 -3.35962e-20)
(1.01653 0.0124496 2.78699e-21)
(0.727381 0.148793 5.17019e-22)
(0.979152 0.0031463 1.29987e-21)
(1.00587 0.000165673 -1.5895e-22)
(0.718861 0.194096 -4.87918e-20)
(1.02686 0.0162798 3.75905e-21)
(0.463225 0.025198 -3.29482e-20)
(1.04984 0.0125316 0)
(0.947715 0.00740503 -2.64973e-21)
(1.01626 0.00138878 1.85723e-23)
(1.01305 -0.00043689 3.74501e-22)
(1.0202 0.00555213 -1.02039e-22)
(0.812682 0.0994524 0)
(1.04495 0.0320428 -7.87918e-21)
(1.10384 -0.0826574 -1.06677e-21)
(0.833864 0.269646 5.70121e-23)
(1.0179 0.00448348 0)
(1.0646 0.0349525 0)
(1.00076 0.00072434 0)
(1.01995 -0.00286773 5.35981e-22)
(0.897187 0.122451 1.84246e-21)
(1.00082 0.00083283 7.77754e-24)
(0.360174 0.251734 1.33774e-21)
(1.04533 0.0191176 0)
(0.946067 0.0208742 0)
(1.04046 0.0740334 -7.16326e-22)
(1.08787 0.0674317 -3.93063e-21)
(1.01138 0.00115838 0)
(1.00872 -3.36846e-05 1.13255e-21)
(1.08298 0.0370495 2.63437e-21)
(1.01132 6.96628e-05 -4.6664e-22)
(1.01658 0.00853972 2.46139e-21)
(1.02075 0.0169994 -2.95477e-21)
(1.01312 0.00286454 1.54014e-22)
(1.07103 0.0390808 -3.19744e-21)
(1.01125 0.00113288 2.19821e-22)
(0.891299 0.0656987 2.64668e-21)
(1.01671 0.01077 1.46848e-21)
(0.592964 0.0292522 1.0859e-19)
(0.447072 0.0241089 4.20189e-21)
(1.05175 -0.159261 0)
(1.01266 0.0985067 -1.10827e-20)
(0.904056 0.359596 7.11484e-21)
(0.590396 0.0274884 -1.12534e-19)
(1.09406 -0.00978039 0)
(1.01015 0.000292366 1.18102e-21)
(1.0201 -0.000366421 7.31795e-22)
(1.0235 0.00731627 6.46557e-21)
(1.02373 0.0160856 -4.55195e-21)
(1.01285 0.00272037 0)
(1.04579 0.032372 1.79054e-21)
(1.0139 0.0042378 -1.01602e-21)
(1.00165 -0.174629 1.3017e-21)
(1.01679 0.00885979 -3.78728e-21)
(1.06658 0.122747 -3.11045e-20)
(1.02688 0.0138943 0)
(1.06558 0.0284638 3.0372e-20)
(1.07639 0.0538864 0)
(1.01351 -0.000596744 -7.1932e-22)
(1.02164 0.0528185 1.37135e-21)
(1.02639 0.0159031 9.46116e-22)
(1.02051 -0.0015354 -3.61613e-23)
(1.04015 0.0288744 -1.03203e-20)
(1.00398 0.00589034 0)
(0.72087 0.0699177 0)
(1.03566 0.0469283 0)
(0.997909 0.00695801 0)
(1.01298 -0.000241401 0)
(1.02186 0.000694211 0)
(1.01383 0.00329341 1.50888e-22)
(1.01419 0.00233392 0)
(0.422308 0.168644 0)
(1.0102 0.000348139 5.63667e-22)
(0.996776 0.173642 0)
(1.01206 0.00254663 4.58781e-22)
(0.992763 0.00944997 0)
(1.01327 0.0120774 8.41844e-22)
(1.01307 0.00373622 1.99091e-21)
(1.07871 0.0526679 1.11192e-21)
(1.02019 -0.00020079 0)
(1.01027 0.000398454 -2.71615e-22)
(0.947958 -0.011671 -3.0935e-21)
(0.858181 0.0603649 0)
(1.01564 0.0127984 0)
(1.0492 0.0627357 1.35672e-20)
(1.01157 -5.55596e-05 -4.4272e-22)
(0.996237 0.15461 0)
(1.00305 0.00613779 -4.223e-23)
(1.01421 0.0023719 0)
(0.655242 0.0628654 4.95963e-20)
(1.00816 -4.79722e-05 -9.06664e-22)
(1.03221 0.0143194 0)
(1.05161 0.071553 1.71063e-20)
(0.635615 0.0493963 -9.47777e-20)
(1.0028 0.00658488 4.3363e-23)
(1.07834 0.0349984 0)
(0.999919 0.120353 0)
(1.01598 0.00484655 0)
(1.0134 0.00294833 -3.98873e-22)
(1.01321 0.00314357 1.30707e-22)
(1.06678 0.126002 0)
(1.02111 0.00132206 1.18951e-21)
(1.05906 0.0830404 -2.77945e-20)
(1.02377 0.00918902 1.28811e-22)
(0.575562 0.0578739 0)
(1.01519 0.0128529 5.01795e-22)
(0.807285 -0.198987 -5.58842e-21)
(1.01296 0.00036238 0)
(1.0035 0.00391057 7.31637e-23)
(1.00445 0.010805 -8.26571e-23)
(1.01002 0.00052559 1.2373e-21)
(0.999557 0.00163582 6.07612e-25)
(0.860671 0.0965681 -4.64936e-20)
(1.01821 0.0149137 7.97697e-22)
(1.01069 0.00120832 -1.67606e-21)
(1.00421 -0.195985 7.21017e-21)
(1.01564 0.00517634 0)
(1.02015 -0.000129502 -7.23663e-22)
(1.03842 0.0480076 -6.16242e-21)
(1.01952 0.0167805 -1.19873e-21)
(0.968523 0.144963 0)
(1.02633 0.0507567 3.83683e-22)
(1.08127 0.0578709 2.28833e-20)
(1.03137 -0.00225884 0)
(1.04241 0.0196998 4.81096e-21)
(0.603227 0.0627544 -5.14195e-24)
(1.01666 0.0113553 1.82229e-21)
(1.04098 0.0485769 0)
(1.01938 0.00335982 4.7464e-21)
(0.407777 0.0253058 -3.65018e-20)
(1.00014 0.00915819 -5.85847e-23)
(1.03178 0.00767656 7.83306e-21)
(1.00328 0.00645223 -4.68896e-23)
(1.01958 -0.00109598 -1.83083e-21)
(1.01756 0.0102571 0)
(1.0035 0.00606063 6.38136e-24)
(1.01291 0.00390046 -3.99775e-22)
(1.01654 0.000304673 1.66993e-21)
(1.02024 0.00511535 1.01055e-20)
(1.03693 0.0347954 0)
(1.0097 0.000909742 -7.29195e-22)
(1.01853 0.0145629 8.41694e-22)
(1.05932 0.0632641 1.96932e-21)
(0.454861 0.24283 0)
(0.709317 0.163408 -5.80556e-22)
(1.05286 0.0670064 1.49878e-20)
(1.01367 0.00342045 -8.75881e-23)
(1.00456 0.0103292 0)
(1.01352 0.00372995 0)
(1.00883 0.113996 -3.82202e-20)
(0.909894 0.117541 0)
(0.253724 0.0043365 0)
(1.00877 0.00434108 8.89025e-22)
(1.0102 0.000346342 -1.06144e-21)
(1.01431 0.000890917 -2.03302e-21)
(1.015 0.00695508 -8.21996e-22)
(1.00852 0.00416995 -8.50783e-22)
(1.00461 0.00636236 -9.58798e-23)
(1.01522 0.00430846 4.9238e-21)
(1.04015 0.0419841 -4.86972e-21)
(1.01075 0.00123584 0)
(0.682397 0.260063 -7.12303e-20)
(1.0415 -0.106409 6.67125e-21)
(1.01116 0.00121721 -6.66594e-22)
(0.841894 0.103893 2.83445e-20)
(1.01974 0.0035804 -5.6332e-21)
(1.01274 0.000592937 2.57415e-22)
(1.01942 -0.00285322 2.29671e-22)
(0.714973 0.107759 -3.98084e-20)
(1.03699 0.0721388 -4.44327e-21)
(1.00311 0.000266855 1.3333e-22)
(0.91776 -0.0347975 -5.47964e-22)
(1.01504 -0.00115147 0)
(1.01304 0.000122812 0)
(1.11007 0.0957711 3.43011e-20)
(1.02057 -0.000705205 -3.69862e-22)
(0.902579 0.247658 6.03989e-25)
(1.0329 0.0149788 1.14737e-20)
(0.927632 0.0248164 8.86242e-21)
(1.01163 0.000304602 -6.09035e-22)
(1.01596 0.00165666 5.21316e-22)
(1.0101 0.0307228 -3.60499e-22)