/*--------------------------------*- C++ -*----------------------------------*\
| =========                 |                                                 |
| \\      /  F ield         | OpenFOAM: The Open Source CFD Toolbox           |
|  \\    /   O peration     | Version:  v2012                                 |
|   \\  /    A nd           | Website:  www.openfoam.com                      |
|    \\/     M anipulation  |                                                 |
\*---------------------------------------------------------------------------*/
FoamFile
{
    version     2.0;
    format      ascii;
    class       volVectorField;
    location    "550";
    object      ddtCorrDdt0(U);
}
// * * * * * * * * * * * * * * * * * * * * * * * * * * * * * * * * * * * * * //

dimensions      [0 1 -2 0 0 0 0];


internalField   nonuniform List<vector> 
13308
(
(0.00599292 0.00229518 0)
(-0.235481 0.701099 -1.13658e-19)
(-0.0536026 -0.0648815 -2.01321e-21)
(-0.000327024 5.01607e-06 -7.1102e-22)
(-0.000830767 0.0118021 -1.4851e-21)
(-0.000412137 8.18079e-06 -1.33071e-22)
(-0.0433661 0.0391799 -2.59644e-20)
(-0.00132007 0.00174668 0)
(-0.0250529 0.047743 0)
(-0.0663045 -0.132198 4.72441e-20)
(0.173894 0.190464 0)
(0.106753 -0.0165628 2.26127e-20)
(-0.000401444 6.50805e-05 0)
(-0.000629162 0.000149683 0)
(-0.000437143 3.25896e-05 0)
(-0.0821354 -0.0959212 0)
(0.000233607 -0.0040503 1.45378e-21)
(-0.179479 0.668779 -6.99886e-20)
(-0.0790316 0.0265674 1.60187e-21)
(-0.152511 -0.0296362 1.77966e-21)
(-0.0117738 0.00229339 -1.92301e-22)
(0.0208357 -0.116661 1.36608e-20)
(0.107777 0.0548503 7.60011e-20)
(-0.00738309 0.0122296 -3.73304e-21)
(-0.0876192 -0.0987623 0)
(0.0260329 -0.081192 -3.11056e-20)
(-0.0103821 0.024377 -4.46596e-21)
(0.16596 0.23166 8.41407e-21)
(-0.00705636 0.0159108 -2.61542e-21)
(-0.0444671 -0.00708497 0)
(-0.17581 0.709761 -1.26114e-19)
(-0.0344171 -0.00457594 0)
(0.0922372 -0.0326704 0)
(0.00910897 0.0441979 0)
(0.114424 0.0236561 -1.38777e-20)
(-0.00110996 -0.00263707 -2.21369e-21)
(-0.0365734 0.0349492 4.87244e-20)
(0.101323 0.0668713 -2.65488e-20)
(-0.00582042 -0.00121193 -2.74303e-22)
(-0.0679635 -0.0718798 1.26524e-21)
(-0.000691105 -4.04175e-05 0)
(-0.00140447 0.00216449 -2.00186e-22)
(0.141085 0.0389277 1.01479e-21)
(-0.000387849 -4.62414e-06 7.81195e-22)
(-0.00515007 -0.00118606 0)
(-2.4221e-05 0.0856717 0)
(-0.000442764 8.41459e-06 2.06847e-24)
(-0.000306126 1.02265e-05 3.13303e-23)
(-0.00056233 0.00627519 1.93182e-21)
(-0.0460515 -0.0534886 1.68572e-21)
(-0.000467099 -7.27121e-05 -9.06472e-23)
(0.00142266 0.000102293 0)
(-0.0831562 -0.197832 -1.58e-20)
(-0.0543822 -0.297619 4.11745e-20)
(-0.0765558 -0.0238751 -1.87304e-20)
(-0.0381868 -0.0188391 -2.95498e-21)
(-0.000379655 -4.62291e-05 3.72578e-22)
(0.00134698 0.00139916 4.62356e-22)
(-0.00857668 0.00402182 -2.11739e-21)
(-0.00760453 0.00336544 0)
(-0.0546103 0.020761 -3.20233e-22)
(0.0467749 -0.0636131 -4.39691e-20)
(0.0016637 0.00105459 -6.72359e-22)
(-0.000870154 0.000681954 0)
(-0.000269173 -5.72938e-05 1.64493e-22)
(0.0992343 -0.028262 4.56111e-20)
(-0.000496704 2.58408e-05 3.63561e-22)
(-0.0115256 0.127831 0)
(-0.00022413 3.11092e-05 -1.48059e-21)
(-0.0876432 -0.0770903 0)
(-0.150062 0.745397 0)
(-0.00570049 -0.00156764 -1.55192e-21)
(0.00555185 0.00256522 -7.66772e-22)
(-0.038116 -0.00563171 3.77392e-21)
(-0.0635369 0.181274 -1.1017e-20)
(-0.00307796 0.000105008 -6.34816e-22)
(-0.000401354 4.66137e-05 0)
(-0.0334253 -0.0152209 1.43218e-21)
(4.79588e-05 -0.00034751 5.80393e-22)
(0.022291 0.0100642 -3.89609e-22)
(0.000684933 -0.00325223 -1.37811e-21)
(-0.000528121 0.000106578 0)
(-0.00246635 0.000357635 -1.45451e-21)
(-0.00709214 0.00441271 0)
(-0.0686029 0.139722 0)
(-0.00312432 -0.000166001 0)
(-0.0937408 -0.0228478 1.78362e-21)
(-0.118842 -0.00474561 7.12218e-21)
(-0.0854826 0.0763089 4.39258e-21)
(-0.163105 -0.0446993 -1.42681e-21)
(-0.00259934 0.000511337 2.86744e-22)
(-0.000528671 2.92315e-05 0)
(-0.0136679 0.0260062 1.13829e-21)
(-0.0112199 0.000513306 1.38552e-21)
(-0.000487665 -6.58659e-05 -6.66764e-22)
(-0.00266525 0.00176993 -1.29711e-21)
(0.000225004 0.00274499 -2.12125e-22)
(0.0204909 0.00481926 -8.65768e-22)
(-0.135281 0.665694 -4.52413e-20)
(-0.0841172 -0.0585987 0)
(-0.00206926 0.000222326 7.98058e-23)
(-0.000511729 0.000210312 5.88382e-22)
(-0.000303151 -0.000111053 -1.72432e-22)
(-0.0137117 0.00407426 0)
(0.107997 0.0723105 -5.72305e-21)
(-0.225913 0.646769 -1.07725e-19)
(-0.0496074 -0.067622 2.27089e-21)
(-0.00022887 2.21781e-05 1.29457e-21)
(-0.00905046 -0.0718098 0)
(0.0357539 -0.0779713 1.85337e-20)
(-0.00134224 0.0046241 -2.40426e-22)
(0.0279951 -0.0249902 6.45372e-20)
(-0.00868771 0.00769417 -7.1013e-21)
(-0.000124486 -0.000293308 -5.48532e-22)
(-0.00572098 0.00758738 7.72622e-21)
(-0.0800786 0.0453216 -1.21294e-21)
(-0.00121256 0.101381 -5.21224e-20)
(0.0583571 0.0270945 4.74203e-21)
(-0.0126386 0.0239898 5.56771e-21)
(0.000566076 0.00353615 0)
(-0.00501119 0.0156374 -9.45419e-22)
(-0.0153577 -0.000272036 0)
(7.9968e-05 -0.000590334 1.01877e-21)
(0.000188845 -0.015181 -3.18171e-22)
(0.0399039 0.0165306 8.20483e-22)
(-0.0769434 0.0287029 0)
(-0.104885 0.0522769 2.41156e-19)
(-0.0937125 0.154479 -2.07334e-19)
(0.00558383 0.00242009 2.86785e-22)
(-0.09531 -0.0608475 0)
(-0.114562 0.855945 0)
(-0.00842883 0.0359995 4.02804e-21)
(-0.000960958 0.000570368 -1.16314e-22)
(-0.00287121 0.00296318 7.01924e-22)
(-0.00914219 0.036819 -1.31523e-21)
(0.00406953 -0.0168135 8.0615e-22)
(-0.00051947 4.89287e-05 0)
(0.0414247 -0.000532394 0)
(0.0360613 0.049695 0)
(0.000598314 0.00464387 -1.50618e-21)
(-0.0297996 -0.0308536 8.85757e-23)
(-0.00104391 0.005983 0)
(-0.0010021 7.11396e-05 0)
(-0.00920021 0.00827287 0)
(-0.00368591 0.00268958 -9.15751e-22)
(0.0459901 -0.00805665 -7.13237e-21)
(0.0166318 -0.00117924 0)
(-0.169726 -0.0606623 -4.89806e-21)
(-8.56051e-05 -0.00230808 2.39928e-21)
(-0.00454118 0.0256512 -6.87833e-21)
(-0.0950439 -0.0306601 -3.87457e-20)
(-0.00043877 -4.14488e-05 0)
(-0.0184977 -0.0302493 -4.81368e-20)
(-0.0659391 0.0478441 -6.84611e-21)
(0.0696576 0.199184 0)
(0.0275829 0.0480627 1.09066e-20)
(-0.000113079 -1.11064e-05 8.08691e-22)
(-0.000454763 -0.000180653 -7.98108e-22)
(-0.000646392 8.01466e-05 0)
(-0.155766 0.132078 0)
(-0.0175616 -0.0546085 -4.03811e-20)
(0.00206626 -0.000246498 -5.13281e-22)
(-0.000963316 -9.35442e-05 1.74256e-22)
(0.0413883 -0.0643906 3.7772e-20)
(0.0197641 0.0641898 -1.2295e-20)
(-0.0435133 0.011982 0)
(0.00792653 -0.124402 2.10352e-20)
(-0.000426909 -0.000204368 -7.8991e-23)
(-0.0136558 -0.0727652 -4.71727e-21)
(0.00130967 0.00570805 6.94962e-21)
(-0.001118 0.00274484 -9.57975e-22)
(0.0530083 0.0196136 -2.61595e-20)
(-0.00045663 3.55096e-06 2.53644e-22)
(-0.0451483 -0.043635 -8.3203e-22)
(-0.0745847 -0.0206001 -9.07007e-22)
(0.0180886 -0.102543 -2.96498e-20)
(0.0289653 -0.102473 3.89146e-20)
(-0.0476694 -0.058076 7.89298e-22)
(-0.00970858 0.0439508 5.47118e-21)
(-0.000194118 -2.15207e-05 1.16485e-21)
(0.0661319 0.00253673 1.48025e-20)
(-0.0676458 -0.207234 7.49323e-22)
(-0.00048351 -2.91611e-05 -3.2133e-22)
(-0.0692446 -0.118813 -1.38623e-21)
(-0.019114 -0.0608488 0)
(-0.000194944 0.000106577 -1.28334e-25)
(-0.0376043 -0.0209205 2.54006e-21)
(-0.156427 0.710368 0)
(-0.0470541 0.00150129 0)
(0.109931 -0.024625 0)
(0.114405 -0.0289713 0)
(-0.152722 -0.0308472 0)
(-0.00407942 0.000271119 3.00186e-23)
(0.121305 -0.00735959 1.35183e-20)
(-0.0030965 0.00211244 2.04645e-20)
(0.0228842 -0.0990676 2.13779e-20)
(-0.00114003 0.00281982 7.3469e-22)
(0.0107854 0.00603658 2.62389e-22)
(-0.0526959 0.11592 3.29188e-20)
(-0.00191392 0.00198293 -3.90438e-22)
(-0.0778937 -0.10689 -2.64808e-21)
(-0.0845036 -0.203768 2.77976e-20)
(0.1862 0.0666137 2.12125e-21)
(-0.00552419 0.0392153 3.21004e-22)
(-0.0988291 -0.0687607 0)
(0.0161558 0.0569748 -1.67589e-20)
(-0.0793059 -0.0711491 1.26869e-21)
(-0.0504139 0.184287 1.91239e-20)
(0.11865 0.00609324 4.12432e-21)
(-0.071028 -0.021552 1.02368e-20)
(0.14933 -0.0351397 -8.65742e-21)
(0.0288176 -0.0833845 -3.02061e-20)
(0.0153815 -0.00301016 3.81963e-21)
(-0.029007 -0.0326539 3.06101e-22)
(0.0530727 -0.065271 1.64617e-20)
(-0.0124673 -0.00877422 0)
(-0.000124485 -1.14074e-05 -1.09588e-21)
(-0.0839153 0.0146809 1.83533e-20)
(-0.119349 0.145364 -1.90988e-20)
(-0.0106389 0.0866677 6.79354e-21)
(0.100722 0.311509 -1.39328e-20)
(-0.000474642 -6.17468e-06 6.78746e-22)
(0.0125437 0.0545964 0)
(-0.000389422 0.000182134 -7.88881e-23)
(-0.0172798 -0.00465961 0)
(-0.101844 -0.126189 1.01793e-19)
(0.0292476 -0.0109007 0)
(0.095325 0.0823859 9.4884e-21)
(-0.0345483 -0.017029 -1.67988e-22)
(0.0185171 0.0950745 1.33968e-20)
(-0.06521 -0.0553638 -1.2748e-21)
(-0.00514337 -0.0181983 -5.0929e-22)
(-0.0520046 -0.0599197 -4.87072e-22)
(-0.0704363 0.125978 0)
(0.00806493 0.00238309 0)
(0.00867063 -0.00787887 -3.56545e-20)
(0.119716 -0.0764181 0)
(-0.000130123 -0.0575509 0)
(0.0419452 0.25235 -1.19699e-20)
(-0.00340451 -0.0209012 3.74226e-21)
(-0.00751334 0.00803664 0)
(0.0096789 0.00318147 0)
(-0.0112512 0.00196976 7.17343e-22)
(-0.000465439 9.56249e-05 3.66085e-23)
(0.0624532 0.0818063 -7.06305e-21)
(0.022362 0.0739476 -2.56347e-20)
(0.0330221 -0.0801189 3.99036e-20)
(-0.148687 -0.0240268 6.94982e-21)
(-0.000350231 0.000190652 0)
(-0.0171716 -0.0476293 4.48171e-21)
(0.0528357 -0.0650494 -1.61916e-20)
(0.0769307 -0.0445725 -2.24449e-20)
(-0.00057234 4.60274e-05 -1.35842e-22)
(0.0522938 -0.0658417 7.42736e-21)
(-0.0660947 0.13266 3.25101e-20)
(-0.0156563 -0.0128523 2.13717e-21)
(0.00778811 -0.0122527 4.73496e-20)
(-0.000483507 -1.00867e-05 -4.20758e-22)
(-0.0696922 -0.475871 0)
(-0.0366654 -0.0170088 6.36637e-21)
(-0.0437789 -0.0112634 0)
(-0.13909 0.00790864 0)
(0.0114705 0.022977 0)
(0.00212611 -0.00157352 2.499e-21)
(0.0091057 0.0527309 7.32399e-21)
(-0.00920069 0.0226448 -5.28268e-22)
(0.11924 0.0326993 -2.56785e-20)
(-0.000836639 0.000600999 0)
(0.0667625 0.300317 0)
(-0.0764889 -0.149577 0)
(0.047275 -0.122666 -5.65064e-20)
(-0.00488636 0.0158812 1.53323e-21)
(-0.000663879 -1.69383e-05 4.23842e-22)
(0.0260425 0.0746616 0)
(5.4253e-05 -0.000708331 1.08938e-22)
(-0.000321203 -4.4676e-05 -8.23111e-23)
(-0.00340448 0.00289835 4.63975e-22)
(0.0632263 0.122251 -4.51805e-21)
(-0.00536817 0.0168905 -2.67088e-21)
(0.0386503 0.0130644 -1.69941e-21)
(0.0341886 -0.0955343 1.18281e-20)
(-0.000767909 -5.89494e-05 -1.81351e-22)
(-0.081278 0.0484285 -4.42351e-21)
(-0.0130645 -0.0212845 -1.14889e-21)
(-0.152156 0.742061 0)
(-0.12595 -0.308822 3.57251e-20)
(0.00199715 -0.00158349 -9.00391e-22)
(0.00654401 0.00212563 0)
(0.0472266 -0.0035336 1.92099e-22)
(-0.121817 -0.341329 7.12788e-20)
(-0.0173001 0.0196678 7.81023e-22)
(-0.000509564 -0.000108648 -3.06767e-22)
(-0.0647922 -0.078254 9.83399e-23)
(-0.0706523 -0.201145 -1.80689e-21)
(-0.00119619 0.000179683 0)
(0.12119 0.0269806 -1.33532e-20)
(-0.0293766 -0.015749 -4.22997e-20)
(-0.0408483 -0.0119926 -6.80228e-22)
(0.0386046 0.0072356 -4.83634e-21)
(-0.0940222 -0.121267 1.8539e-20)
(0.085214 -0.0447065 -9.71251e-21)
(0.0143569 -0.00377331 -1.91851e-21)
(0.0228221 -0.0798859 3.48081e-20)
(-0.118716 0.0991378 -3.02669e-20)
(-0.117918 0.106289 2.34254e-20)
(0.00132351 0.00281299 1.47764e-21)
(-0.0244712 0.00613401 -4.76317e-21)
(-0.0417229 -0.0448473 1.65739e-21)
(-0.153707 -0.0228237 -4.66726e-21)
(-0.000227519 0.000120307 0)
(0.0791459 0.0440328 4.98325e-21)
(-0.0902449 -0.402365 3.75521e-20)
(-0.0147354 0.0198067 -2.54822e-21)
(0.209607 0.0685465 -6.62916e-22)
(0.134172 0.0251904 0)
(-0.0697864 -0.0196771 0)
(-0.000171342 1.51859e-05 2.44893e-22)
(-0.00117623 0.000197715 0)
(-0.00083186 -0.000179256 -9.83501e-23)
(-0.054777 -0.0596215 5.66952e-22)
(-0.000616659 -4.97324e-06 6.88821e-22)
(-0.000447468 1.98974e-05 0)
(-0.0905684 -0.0574992 0)
(-0.000359759 2.7528e-05 0)
(-0.21523 -0.157742 1.52761e-20)
(-0.00970613 0.00911488 1.11892e-21)
(-0.00852008 -0.0171356 2.25773e-22)
(-0.00117659 0.00086943 0)
(-0.00498895 -0.00153857 1.7448e-21)
(-0.0393554 0.0237474 2.19265e-21)
(0.0716471 -0.0678748 2.01567e-20)
(-0.00045461 -3.96369e-05 4.6074e-22)
(-0.150851 -0.0187114 1.24863e-21)
(-0.00124536 -0.000929681 0)
(-0.00032925 -3.63849e-06 -1.65397e-21)
(0.0585093 0.0901912 7.08557e-22)
(-0.062062 -0.100033 0)
(-0.000375897 -0.000474093 3.54855e-22)
(0.0287374 -0.00167638 0)
(-0.176061 -0.0761689 0)
(-0.000880104 0.00576045 -8.82198e-22)
(-0.00112528 0.000313971 0)
(-0.000424493 -0.000446869 -1.08467e-21)
(0.010593 0.0240924 9.49776e-21)
(0.072426 0.0440021 0)
(-0.127875 -0.312117 1.39746e-19)
(0.0492239 -0.00474249 -1.21665e-23)
(0.0467496 -0.0140418 1.81205e-21)
(-0.000560735 -2.93032e-06 0)
(-0.0106847 0.0104745 -2.25322e-21)
(0.00905788 0.00433698 -3.7543e-21)
(0.242866 0.260681 -2.77605e-19)
(-0.074664 -0.390496 0)
(-0.000449623 -0.000268923 0)
(0.000334432 0.00477242 1.59047e-21)
(-0.00390606 0.000199647 -1.6174e-22)
(-0.0615272 -0.23528 0)
(-0.000555929 0.00193402 0)
(0.0467842 0.00265575 2.92984e-23)
(-0.0658638 0.15277 1.29146e-20)
(0.165581 0.0441073 6.69592e-21)
(-0.0184857 0.0464357 1.34395e-21)
(0.00274959 0.0110594 0)
(0.0439533 -0.106556 4.67865e-20)
(-0.0345761 -0.181143 5.67807e-21)
(0.0546666 -0.0739434 -5.85373e-21)
(-0.000492255 -0.000357289 1.03341e-21)
(-0.000470398 0.000104333 -7.31034e-23)
(0.00157743 0.00109302 2.65426e-22)
(0.00158988 -0.000418238 5.66612e-23)
(-0.0764744 -0.106415 0)
(-0.12093 -0.343167 2.9431e-20)
(-0.1392 -0.0231698 0)
(-0.000434721 -0.000116762 -8.37433e-22)
(0.00199809 0.00245535 -6.44998e-22)
(0.0280944 0.0137283 0)
(0.0366263 -0.0610506 -8.03283e-20)
(0.0624244 -0.0631806 -5.88403e-21)
(0.000574803 -0.00291506 1.39278e-21)
(0.0514033 0.151039 -5.44337e-22)
(-0.00403566 -0.00170383 4.53391e-23)
(-0.00130553 -0.00128537 3.44877e-23)
(-0.0522339 0.133238 -8.03066e-20)
(0.00877858 0.0246162 -2.41389e-20)
(-0.00366769 0.00181781 -1.56892e-21)
(-0.0430784 -0.190177 0)
(0.024775 0.000847988 1.86626e-20)
(-0.0100823 0.00230182 0)
(-0.000493882 6.15003e-06 -3.56958e-22)
(-0.0856988 -0.158779 9.03959e-20)
(-0.0087749 0.00615804 2.22504e-21)
(0.0128958 0.00888768 -1.8803e-21)
(-0.0588792 0.0161666 -7.87067e-22)
(-0.0777783 -0.109237 -4.98454e-20)
(0.0617367 -0.0294703 1.94196e-20)
(-0.040137 -0.0108593 4.00777e-21)
(-0.00860219 -0.255116 2.48997e-20)
(-0.000418633 -0.000223494 0)
(0.0677637 0.0515228 0)
(-0.00123274 0.00233929 2.32506e-22)
(-0.118389 0.0972396 0)
(-0.000204806 -1.41373e-05 -1.57669e-21)
(-0.0847137 -0.0581392 0)
(0.0506414 -0.0725059 3.71076e-21)
(0.000161946 0.000219254 -2.18164e-23)
(0.113331 0.0311926 1.4213e-20)
(-0.000106092 -1.27099e-05 1.26851e-21)
(8.80682e-05 -0.000503951 -1.03086e-21)
(-0.0915991 0.591801 1.3199e-19)
(0.0920614 0.0846975 1.15503e-21)
(0.000246552 -0.00498909 -3.00711e-21)
(-0.142929 -0.0103747 -3.16716e-20)
(0.0691785 0.0047024 0)
(-0.00041878 -0.000236875 -8.69312e-25)
(-0.00051353 7.79587e-05 -2.81712e-22)
(0.0219376 0.0718649 -1.29376e-20)
(-0.00334411 -0.00125229 4.05336e-21)
(-0.000468822 -6.9665e-05 0)
(-0.00932513 0.00167922 -1.8647e-21)
(0.0330419 0.0127885 9.10921e-22)
(0.049215 0.00295712 2.34447e-21)
(0.0011254 0.00300993 0)
(-0.00121307 0.0102022 2.12811e-21)
(-0.000849818 -0.00339938 0)
(-0.00362191 0.00867481 5.10451e-21)
(-0.0501075 -0.0725803 -4.97255e-21)
(-0.180417 -0.0886639 0)
(-0.00341253 0.00220648 1.17664e-21)
(-0.0196333 -0.244195 -2.59643e-20)
(-0.0343505 0.14639 7.11558e-20)
(-0.131288 -0.307003 0)
(7.91442e-05 -2.9658e-07 -1.32268e-21)
(-0.0550818 0.00876267 -1.38019e-20)
(0.115267 0.257474 1.60162e-22)
(0.00109741 -0.000708347 -1.05592e-21)
(-0.00032526 2.85253e-05 6.52024e-22)
(0.0283798 -0.0616305 3.66327e-20)
(-0.000535139 5.22739e-05 -5.6957e-22)
(-0.0193241 0.0181648 -1.3307e-21)
(-0.0661985 -0.0657981 -2.66465e-21)
(-0.0123754 -0.0295116 3.44003e-22)
(0.0987723 -0.0228995 0)
(-0.0388272 -0.0542938 -4.63821e-20)
(0.000632607 0.00224769 8.63526e-22)
(0.0522483 -0.121994 -9.01191e-20)
(0.000843205 0.00466678 2.4031e-21)
(0.0798311 0.018402 5.01291e-21)
(-0.0768249 -0.194234 0)
(-0.000498303 -5.72708e-05 4.82422e-22)
(-0.00156782 -0.0227523 0)
(0.00478387 0.000945793 0)
(0.0680797 0.358262 1.10177e-19)
(0.0842404 -0.0383593 1.37429e-20)
(0.296231 0.0687915 0)
(-0.00592161 0.012955 2.00393e-21)
(-0.0226306 0.0106006 -1.67777e-21)
(0.00465192 0.00791757 -2.30584e-22)
(0.0963179 -0.0377044 -9.43542e-21)
(0.0859374 0.05535 0)
(-0.0717797 -0.0575287 0)
(-0.105227 0.0952491 0)
(0.144905 -0.0784858 -7.51026e-21)
(-0.000476411 4.09665e-05 8.64615e-22)
(-0.0216828 -0.0687657 0)
(1.28744e-05 0.00295477 0)
(-0.0255269 -0.0065942 6.21007e-21)
(-0.000328743 -0.000493729 -6.02577e-22)
(-0.00119066 -0.0027434 0)
(-0.000233539 0.000159221 8.33101e-22)
(-0.0742542 -0.152972 -9.63752e-21)
(-0.0188698 0.148781 -4.42655e-20)
(-0.00108261 0.000547048 0)
(0.0747185 0.0659422 2.92011e-20)
(-0.00217632 -0.000965132 -9.33022e-22)
(0.0839336 -0.0260386 1.65246e-20)
(0.0585659 -0.0692518 5.38064e-21)
(-0.000588676 0.0255453 2.95301e-21)
(-0.00269553 8.66413e-05 0)
(0.00621794 -0.0378787 9.43244e-21)
(-0.000406324 -0.000475687 0)
(0.0259567 0.0105366 2.15756e-22)
(-0.00059107 2.95462e-06 0)
(0.0283994 0.00397824 0)
(0.00117029 -0.00111335 1.70941e-21)
(0.00229955 -0.0634755 4.88674e-20)
(-0.000961873 -0.00247818 0)
(0.000348048 0.00588847 0)
(0.00964531 -0.0570753 1.53616e-20)
(-0.00309164 0.00497179 2.5107e-22)
(-0.000509184 7.01021e-05 5.58768e-22)
(-0.000550117 -9.01438e-05 -6.09217e-22)
(-0.0284038 0.006572 4.01765e-21)
(0.0125727 -0.0435309 -2.54848e-20)
(-0.000390575 5.16014e-05 8.69628e-24)
(0.000188797 0.00028545 8.02456e-23)
(-0.00116277 -0.00263134 4.41287e-22)
(-0.000427104 1.30509e-05 0)
(-0.0511237 -0.245247 -5.25868e-20)
(-0.257873 0.680688 -8.28467e-19)
(-0.00183859 0.354396 -9.54507e-20)
(0.0487252 0.0444586 -9.76364e-21)
(-0.0263163 -0.00761065 0)
(0.140379 0.0182899 2.52072e-20)
(0.12952 0.0382681 4.4293e-21)
(-0.00970861 0.000772237 0)
(0.00297625 -4.02825e-06 -1.11546e-21)
(-0.0100826 -0.104471 -1.3327e-20)
(-0.0364929 -0.0519739 6.8526e-20)
(-0.000158204 -9.28806e-07 -4.02658e-22)
(-0.0137748 -0.0809851 -1.60806e-21)
(-0.00138818 0.0225747 0)
(-0.0894115 -0.00441598 -9.85632e-21)
(-0.00203988 -0.00299342 7.2557e-22)
(-0.00142596 0.000450001 0)
(-0.00726736 0.00760814 8.82028e-23)
(0.0114286 0.00479959 0)
(0.014484 0.0337366 4.38339e-21)
(-0.000754752 -9.75455e-07 0)
(-0.0474178 -0.0185427 -8.42116e-22)
(0.0576461 -0.0694387 -3.32134e-21)
(0.183746 0.00465703 0)
(-0.0838625 -0.387163 0)
(-0.0220294 -0.0438004 0)
(0.0103211 0.00468998 1.63022e-21)
(-9.93461e-05 -1.306e-06 0)
(-0.0749959 -0.0835669 -2.25039e-22)
(-0.000417958 -0.000288049 -2.63324e-22)
(-0.000311289 2.51046e-05 -6.57118e-22)
(-0.0351602 -0.170522 9.25999e-21)
(-0.0663931 0.037566 0)
(-0.00926713 -0.0597518 -1.08374e-20)
(0.0140862 0.00478529 1.00319e-21)
(0.0403958 -0.0703226 -1.30732e-20)
(-0.043933 -0.161648 2.23352e-20)
(-0.000220542 0.000105574 -2.80094e-22)
(0.0631691 0.08136 -1.35733e-21)
(-0.0445212 0.101837 2.16042e-21)
(-0.0681431 -0.244298 -1.67745e-20)
(-0.00042701 2.54974e-05 8.51498e-22)
(0.00842407 0.117856 -4.55363e-20)
(-0.000418334 -0.00028992 -3.94431e-22)
(-0.0751717 -0.0397678 1.37231e-20)
(-0.000553367 0.000115337 1.93418e-22)
(0.105175 0.0648781 1.22672e-20)
(-0.00336868 -0.00249676 -1.81118e-21)
(-0.201853 -0.165789 2.80457e-20)
(-0.171769 0.607383 5.38565e-20)
(0.09279 -0.0204672 2.33519e-21)
(-0.000531202 2.34691e-05 5.98301e-22)
(0.0017543 -0.000160447 2.47009e-21)
(0.0425086 -0.0705526 0)
(0.0991786 -0.0292573 5.66277e-21)
(-0.250999 0.759339 0)
(-0.0715966 -0.0102436 0)
(0.0406572 -0.078796 -1.82053e-20)
(0.00438222 -0.0243014 -2.36204e-21)
(0.113113 -0.0169762 1.86537e-20)
(-0.0304832 -0.0164932 2.938e-20)
(0.225015 0.194624 0)
(0.117312 7.30021e-05 -2.44896e-20)
(0.00799765 0.00439715 0)
(-0.000494993 0.000112728 -3.74101e-22)
(0.00194674 -0.00075592 0)
(0.098223 0.0323076 0)
(-0.000102105 -6.83512e-05 -5.32383e-22)
(-0.0127849 -0.0561211 2.60876e-20)
(-0.0255071 -0.0143621 2.36075e-21)
(-0.00108919 0.000717864 0)
(0.0178913 0.0173952 6.20866e-20)
(0.0299465 0.028442 -2.02381e-20)
(-0.192722 0.750941 1.0624e-19)
(-0.00043803 0.000210219 0)
(-8.2989e-05 -0.000181377 5.41643e-22)
(-0.000430878 0.000101242 0)
(0.135165 0.148705 -9.3285e-21)
(-0.023799 0.0209825 2.78955e-21)
(-0.000484888 -0.000224428 -1.27496e-22)
(-0.00162205 0.00176279 -9.19548e-23)
(0.130252 0.323323 6.41327e-20)
(-0.000331732 -7.8663e-05 0)
(-0.0701913 -0.127192 1.31056e-20)
(0.00521383 0.0287525 -1.59766e-21)
(0.0056964 0.00226098 -7.22549e-22)
(-0.0288319 -0.0447937 -2.38363e-20)
(-0.000932225 0.000624592 0)
(-0.000460442 -0.000284922 0)
(-0.000897322 6.25937e-05 0)
(-0.0121228 -0.0236551 9.16373e-21)
(-0.0095179 0.00218891 3.04987e-21)
(-0.00010943 -1.20248e-05 -2.34962e-21)
(0.0894547 0.170092 7.68959e-21)
(-0.000375186 -0.000187774 1.04553e-23)
(0.00147873 0.000271677 1.86864e-23)
(-0.000394391 0.000188349 0)
(-0.000478271 -2.22028e-05 0)
(0.00901365 -0.0518069 0)
(0.0602004 -0.0689806 3.44205e-22)
(-0.000545582 -0.00016225 1.302e-22)
(-0.0394689 -0.0231987 0)
(0.000136657 1.06001e-05 8.96993e-23)
(-0.000481048 -2.89912e-05 0)
(-0.000570367 3.98968e-05 0)
(0.0130267 0.00931144 -2.4115e-21)
(0.0123638 -0.00551473 2.18457e-21)
(-0.00309199 -0.00360226 0)
(0.00550186 0.0198952 -9.11811e-20)
(-0.000449941 -0.000357 7.8204e-23)
(-0.113525 0.142312 -3.96698e-20)
(0.00475295 0.00365852 5.92298e-22)
(-0.0157255 -0.298764 -5.0087e-19)
(-0.0909345 -0.237583 -3.63875e-20)
(0.00616815 0.00650408 -8.44367e-21)
(0.00243613 0.011103 7.63328e-21)
(-0.000130448 1.46338e-05 -1.26799e-21)
(0.313798 0.132094 0)
(0.093041 0.143623 3.61457e-20)
(-0.0240453 0.00808409 0)
(-0.000228216 3.04444e-05 2.22549e-21)
(0.0518628 0.120248 7.33747e-21)
(0.0494604 0.0825214 -5.72934e-21)
(-0.0254691 -0.0281986 -1.17151e-20)
(-0.00098013 -0.000280502 0)
(0.00547616 0.00677553 -5.37167e-22)
(0.0529202 0.146575 1.8654e-21)
(0.00334787 0.0272209 -2.02614e-21)
(-0.0434063 -0.0124806 5.76181e-21)
(-0.000679007 -0.00172599 -3.53745e-21)
(-0.000442224 1.34582e-05 -9.26699e-22)
(-0.0409605 -0.0197616 0)
(-0.0409108 -0.0127687 1.07473e-20)
(0.00118346 -0.0159685 6.05262e-22)
(0.125507 0.0130544 0)
(-0.0255214 -0.0759904 -7.98266e-20)
(-0.0597993 -0.0588133 -1.14972e-21)
(0.101111 -0.0312035 -2.29153e-20)
(-0.0236681 -0.149156 0)
(-0.00626286 -0.0242911 -8.89847e-21)
(-0.00500235 -0.00256863 2.02733e-21)
(-0.0607294 -0.25819 0)
(-0.0148466 -0.0778914 1.48533e-22)
(-3.74918e-05 -0.0021144 -4.11659e-21)
(-0.000774448 -0.00131038 -3.67937e-22)
(-0.0282641 -0.0164377 0)
(0.135063 0.0217182 1.79209e-20)
(0.0221376 0.000344765 -2.79927e-22)
(-0.0537608 0.116284 5.95123e-21)
(0.000168638 0.00868797 -5.8656e-21)
(-0.000976262 -8.2473e-05 -5.83025e-23)
(-0.000418009 0.000144813 0)
(-0.0429191 -0.283836 2.21785e-20)
(-0.134295 0.0523244 0)
(-0.000339602 -7.49424e-05 0)
(-0.0356402 -0.156593 -7.81669e-21)
(-0.00316263 -0.000318598 7.18833e-22)
(0.155581 0.321277 0)
(-0.000904342 0.00056597 0)
(-0.000509089 6.95753e-05 0)
(-0.0646473 0.139601 0)
(0.128467 -0.015712 0)
(0.00171191 0.0363089 0)
(-0.0257295 -0.149747 1.07422e-20)
(0.0747951 -0.0473146 1.54106e-20)
(-0.0244349 -0.03748 1.92348e-20)
(-0.0118937 0.11686 4.92736e-20)
(-0.000816874 -0.0148824 0)
(-0.0294935 0.0478432 0)
(-0.0941406 -0.237328 1.66626e-20)
(-0.000341146 -6.23578e-06 1.12895e-21)
(-0.0726331 -0.0744312 -1.03499e-21)
(-0.00949144 -0.0309537 -2.67302e-22)
(-0.086585 0.0874182 -4.2496e-21)
(-0.000504104 0.00246161 1.23051e-21)
(0.0380602 0.0803594 0)
(-0.00039611 1.25657e-05 -1.43061e-22)
(-0.000514177 -1.64426e-06 0)
(-0.00614756 -0.0660524 0)
(-0.0670188 0.102384 -5.52877e-22)
(-0.00961224 0.124015 5.92376e-20)
(-0.0681291 -0.0627154 1.01078e-21)
(-0.140352 -0.162284 0)
(-0.00709168 0.00838065 2.04582e-21)
(-0.0512025 0.029889 -6.60297e-21)
(0.0120817 -0.0249222 7.84412e-21)
(-0.000415449 0.000141491 0)
(0.0102029 0.0103473 0)
(-0.000295062 -4.91861e-06 8.1702e-22)
(-0.00297732 -0.0601169 -8.65811e-21)
(-0.0108691 -0.0673643 0)
(-0.00400061 0.0821151 -2.02054e-22)
(-0.150323 -0.013719 3.78079e-21)
(8.12187e-05 -6.42618e-05 1.38253e-21)
(-0.147507 -0.0127287 -2.01635e-21)
(0.0154134 -0.0216254 0)
(0.00765016 0.123118 -4.13399e-20)
(-0.016739 -0.26792 -5.35635e-20)
(0.00521234 0.000444415 -5.25414e-22)
(-0.000163428 -0.000563177 1.05816e-21)
(0.00246975 -2.90408e-05 -1.11587e-21)
(-5.9674e-05 -0.000493529 0)
(0.122085 0.249362 1.36687e-20)
(-0.00101891 -0.00124054 2.43607e-22)
(0.0648103 -0.00785238 0)
(-0.151468 -0.0286349 -7.37621e-21)
(-0.0402917 -0.0304932 3.62978e-21)
(-0.00028314 0.00968576 1.79557e-21)
(-0.00142001 0.00161217 6.2498e-22)
(0.0467421 -0.0395039 0)
(-0.0247194 -0.12147 -1.65227e-20)
(0.254431 -0.0132777 2.04353e-20)
(0.00084928 0.00211615 -9.55585e-22)
(-0.000453128 -4.58912e-05 0)
(-0.000386718 -0.000138451 3.08649e-24)
(-0.0520503 -0.01758 -3.22189e-20)
(-0.000780185 -2.56486e-06 7.16108e-23)
(0.0369314 -0.040148 -3.24412e-21)
(-0.00589833 0.0179678 0)
(-0.000976899 -0.00158412 2.83091e-22)
(-0.000216759 0.000106881 3.4199e-22)
(-0.000667202 0.000331227 0)
(-0.000393507 -7.74055e-05 -2.93551e-22)
(-0.000805586 0.00326549 -3.75378e-22)
(-0.00140424 0.00429324 0)
(0.0139665 0.00634412 0)
(0.202751 -0.0463541 -1.2596e-21)
(-0.0198966 0.106348 -6.53574e-20)
(-0.000631256 3.81185e-05 0)
(-0.103231 0.00503013 1.0853e-20)
(-0.081303 -0.248304 0)
(0.0234627 -0.00972421 -8.88055e-22)
(0.0534181 -0.0688336 -2.12229e-20)
(-0.00213857 -0.0114868 -3.91977e-21)
(-0.00297131 0.000616259 2.4651e-22)
(-0.000671956 -0.00956625 6.86647e-21)
(-0.00140961 -0.00236397 5.49497e-21)
(-0.0580034 -0.0569983 2.39978e-21)
(-0.0100524 -0.000133212 -5.31273e-23)
(-0.0581689 -0.204191 0)
(0.0706138 0.0778397 -3.63395e-22)
(-0.191067 -0.232278 0)
(-0.000300403 0.000451121 -2.60421e-22)
(-0.000403261 2.88907e-05 -7.68505e-22)
(0.256116 0.286463 2.43921e-19)
(-0.00175054 -0.000570582 -4.435e-21)
(0.0536603 -0.0623559 0)
(-0.000116455 -0.000499503 -1.07626e-21)
(0.00155621 -0.0011874 0)
(-0.149368 -0.192856 0)
(0.00169336 0.0039235 -1.83714e-21)
(-0.000592027 0.000225217 0)
(-0.0608488 -0.0494314 3.24252e-20)
(-0.0233982 0.0434417 0)
(-0.0497303 -0.0189324 1.67922e-20)
(0.196593 -0.0658587 1.07894e-19)
(-0.107499 0.775782 1.40034e-19)
(-0.0550552 -0.352641 2.2919e-20)
(-0.000321724 3.87013e-07 -7.18516e-22)
(-0.000162295 1.34888e-05 0)
(-0.00727507 0.0116058 -1.53332e-21)
(0.237894 0.0376009 -1.52694e-21)
(0.0558994 0.0599167 0)
(0.000853988 0.00219155 0)
(-0.0010162 0.000930286 2.78656e-22)
(0.0520998 0.00229793 0)
(0.0135977 -0.0491934 2.359e-21)
(0.00121325 -3.02211e-06 -1.94539e-22)
(-0.000493228 7.07655e-05 -1.15683e-22)
(0.140979 -0.00193008 0)
(-0.0125804 -0.089001 -9.57331e-21)
(0.00138409 0.0278124 0)
(-0.00106444 -0.00250742 0)
(-0.000377788 3.05326e-05 -8.5444e-22)
(-0.00014307 -0.00087374 -1.56855e-22)
(0.00032799 -0.0016267 1.59549e-21)
(-0.000126686 -0.00109132 2.07582e-22)
(-0.000332459 2.44148e-05 0)
(-0.00245523 0.00121884 -4.13572e-22)
(-0.00353356 -0.000331734 9.45488e-23)
(0.0505415 -0.0672588 2.93814e-20)
(-0.000316605 3.08483e-05 -3.09669e-22)
(0.0260693 0.0085548 -2.37943e-21)
(-0.0830143 0.150976 0)
(-0.0579558 0.0484962 4.43131e-21)
(-0.047077 -0.0246529 -3.3992e-22)
(-0.000480028 -2.55593e-06 -1.65816e-22)
(-0.000154115 0.000211514 0)
(-0.15411 -0.021941 -1.35644e-21)
(-0.0545493 0.134167 -4.30545e-20)
(-0.0645189 -0.0837092 -1.65429e-21)
(0.0525135 0.0757096 -2.60855e-21)
(-0.0761313 0.0200336 0)
(0.119417 0.0250134 -5.42001e-21)
(-0.000392322 -4.85029e-05 -7.51739e-22)
(0.000624482 -0.0548952 0)
(-0.00808478 0.000132602 -1.83654e-20)
(-0.157097 -0.230122 0)
(-0.00048013 -2.60468e-05 0)
(-0.0748395 -0.0689512 -1.22782e-21)
(-0.000663203 -0.00026221 4.62569e-22)
(-0.0110862 0.00449305 1.03507e-20)
(0.0170429 0.00401746 3.62762e-22)
(-0.0479688 0.00580935 3.74058e-21)
(-0.000499684 9.94996e-05 0)
(-0.000594665 -9.6132e-05 9.90637e-24)
(-0.0027599 0.0046269 -1.35252e-21)
(-0.000407435 -3.42803e-05 0)
(-0.0253971 -0.0161451 -2.43247e-21)
(-0.146625 -0.237444 0)
(-0.120291 0.0493168 0)
(0.0150976 -0.0031848 1.3759e-21)
(-0.00147693 0.000378932 -2.82301e-22)
(-0.106327 -0.0716489 0)
(0.000805022 0.00499118 0)
(-0.000540913 0.000243929 1.69589e-23)
(0.0463173 0.145565 -1.07297e-20)
(0.224033 0.233068 -1.37234e-19)
(0.089393 0.0423054 2.07405e-20)
(0.0656005 0.0259142 -5.98569e-20)
(-0.0619306 -0.0544308 -1.47232e-21)
(-0.00106903 0.00201547 0)
(0.0114356 0.00148941 -2.49174e-22)
(-0.139062 -0.16093 -2.5444e-20)
(-7.57862e-05 -6.37919e-05 0)
(-0.0102271 0.00176545 0)
(0.0568029 -0.0878979 -2.16455e-19)
(0.00266729 0.000746719 1.06073e-22)
(0.00263366 -6.98035e-05 -1.11818e-21)
(-0.143636 0.133287 3.30552e-21)
(-0.0448804 -0.0746498 5.67084e-21)
(-0.000526663 0.000284549 7.71134e-22)
(0.130958 -0.0530094 1.15809e-19)
(-8.05709e-05 -5.49676e-05 0)
(-0.00795383 0.01305 -3.01113e-21)
(-0.109653 -0.0146953 -2.97999e-21)
(0.0358062 0.0165624 0)
(0.0223805 -0.0194022 4.34411e-21)
(0.0302009 -0.00200319 -2.12218e-21)
(-0.000315822 3.97378e-05 1.41722e-21)
(-0.0151566 0.000731085 2.83425e-21)
(-0.00369667 0.00158334 0)
(0.0609263 0.117407 4.48809e-21)
(-0.0587694 -0.0227993 7.6758e-20)
(-0.000789338 -0.000674762 4.08067e-22)
(0.0741382 -0.0422985 8.86092e-21)
(-0.0508786 -0.00473787 -5.87904e-21)
(0.0269351 -0.0283204 0)
(-0.000342798 2.45441e-05 0)
(0.00138572 -0.000932561 -7.15938e-22)
(-0.0824722 -0.0799142 0)
(-0.000469447 6.88738e-06 -5.80233e-22)
(0.0100706 -0.012992 0)
(-0.0124391 -0.0929495 2.03834e-20)
(-0.0396869 -0.164926 0)
(0.000676835 -0.000892697 2.7068e-22)
(-0.0780229 0.141818 -5.05853e-20)
(0.166337 0.302036 -2.21573e-21)
(-0.0230526 -0.171954 -4.46375e-21)
(0.0654366 -0.0104866 6.8044e-22)
(-0.0649089 -0.0065251 0)
(-0.00172723 0.00165014 0)
(-0.000329615 0.000224903 0)
(0.000287363 -0.00260141 2.18256e-21)
(-0.0116973 0.0047876 0)
(-0.0209009 -0.0380202 7.60472e-23)
(-0.0182871 -0.0844311 1.43688e-20)
(0.023694 0.0158004 -1.64605e-21)
(0.0416 0.0167633 3.48832e-21)
(0.0897609 0.0479008 -6.16123e-21)
(0.0472947 -0.0807686 -1.49778e-20)
(-0.0677794 -0.0610475 0)