/*--------------------------------*- C++ -*----------------------------------*\
| =========                 |                                                 |
| \\      /  F ield         | OpenFOAM: The Open Source CFD Toolbox           |
|  \\    /   O peration     | Version:  v2012                                 |
|   \\  /    A nd           | Website:  www.openfoam.com                      |
|    \\/     M anipulation  |                                                 |
\*---------------------------------------------------------------------------*/
FoamFile
{
    version     2.0;
    format      ascii;
    class       volScalarField;
    location    "550";
    object      omega;
}
// * * * * * * * * * * * * * * * * * * * * * * * * * * * * * * * * * * * * * //

dimensions      [0 0 -1 0 0 0 0];


internalField   nonuniform List<scalar> 
13308
(
0.0303379
2.60614
1.86957
0.0243222
0.0611259
0.0233843
0.107642
0.0272014
0.114127
1.2285
1.22037
0.695268
0.0233196
0.0219496
0.0235099
1.9981
0.0499254
2.436
0.0786709
2.00745
0.0352388
2.12809
2.54191
0.0421768
2.04474
1.97538
0.0672551
1.31012
0.0688664
0.0682292
2.36881
0.0619846
2.43335
0.103592
0.170221
0.0355974
0.105501
2.54701
0.0302033
1.97643
0.021389
0.0258456
0.160547
0.0218235
0.0304007
0.234855
0.0234735
0.0237148
0.0286503
1.89925
0.0263996
0.0265097
2.38743
0.746722
6.1793
3.84754
0.0217759
0.0270884
0.0355788
0.0345443
0.309071
2.45699
0.0268748
0.0222358
0.0255048
2.42088
0.0212728
0.24654
0.0237056
0.127595
2.65023
0.0301176
0.0329847
0.0645143
0.341647
0.0249863
0.0204353
4.31853
0.0232334
0.128225
0.0273436
0.0208636
0.0247908
0.0391897
0.236825
0.0270811
10.2854
0.644264
0.402219
1.99942
0.0257378
0.0213505
0.0685849
0.036711
0.0241362
0.0259024
0.0262644
0.104231
3.1052
0.123103
0.0254448
0.0217894
0.0228719
0.0387763
0.378561
2.41739
1.82145
0.0248272
1.75506
2.03189
0.0298221
0.167063
0.0394545
0.0230446
0.0392593
0.119065
0.242678
0.425452
0.0708046
0.0274469
0.0541547
0.0396838
0.0222721
0.206899
0.333411
0.64616
0.241164
0.258961
0.0353871
2.76501
3.1848
0.0581233
0.022314
0.0265925
0.111824
0.172219
0.0213319
0.34255
0.10611
0.0263487
2.04766
0.0294172
0.0221121
0.0379836
0.0284067
0.0784303
0.130736
1.97163
0.0267854
0.074646
6.89795
0.0260328
0.754796
0.221425
0.556553
0.105111
0.0247046
0.0219167
0.0216125
0.930381
1.12558
0.0269512
0.0220471
2.49294
0.111516
0.443111
2.09623
0.0218589
1.74748
0.0540995
0.0291049
0.26965
0.0273726
2.03627
12.9431
2.02268
2.13436
1.8691
0.0745382
0.024875
0.483062
2.48351
0.0213563
1.30298
2.69068
0.0213879
3.31101
2.45835
0.0724083
0.134997
0.129022
1.97998
0.0288991
0.683797
0.0286042
2.03626
0.0286392
0.109871
2.48416
0.025831
1.93439
2.43824
1.02913
0.105657
2.57989
0.233023
2.16805
0.352251
0.132917
8.46205
0.118822
0.0993938
0.0827497
1.97267
2.21876
0.0367219
0.0251151
0.655065
0.732687
0.368945
1.3499
0.0252028
0.101886
0.0202418
0.0422578
2.19461
0.0648072
0.257044
3.88637
0.236431
2.16644
0.0384236
1.90166
0.243185
0.0333118
0.0736573
2.77421
0.279433
0.562021
0.0400333
0.0404904
0.0357603
0.0374509
0.0204856
0.555311
2.17851
0.110103
1.39194
0.020346
2.66734
2.241
2.40988
0.0225315
2.42386
2.45465
0.0385804
0.488798
0.0252396
1.24008
4.24531
0.0670128
1.0315
0.0746907
0.0258277
0.104073
0.0519322
0.740245
0.0221782
1.32861
2.00172
0.108431
0.056324
0.0226318
0.112548
0.0234339
0.0267699
0.0292552
0.571004
0.0617268
0.0769591
2.08166
0.0238758
0.404047
0.0394906
2.44286
1.48715
0.025554
0.0320949
0.0859606
1.41654
0.0676546
0.0218138
2.91617
2.42891
0.0227602
0.179678
3.38467
0.0630264
0.0812906
2.15001
2.39928
0.0382581
1.93517
0.56178
0.663979
0.0255901
0.0566137
1.99552
1.95728
0.0213378
0.216612
13.7892
0.0705915
1.10107
0.17806
12.9582
0.0252769
0.0227029
0.0222431
2.94011
0.0215705
0.0207759
2.77511
0.0203317
3.81885
0.0387319
0.0386234
0.0231059
0.0305724
0.430599
2.29127
0.0218842
1.90423
0.0235716
0.0240808
0.12903
1.97122
0.0222472
0.0622579
1.92921
0.0498218
0.022998
0.0219702
0.101469
0.142729
1.39772
0.082021
0.0778917
0.0299583
0.0368777
0.0851684
3.17254
1.27344
0.0216762
0.0300548
0.0258594
2.85285
0.025965
0.0814885
2.47662
0.158478
0.107783
0.0563428
0.112417
2.36302
2.28438
0.0219148
0.0203117
0.0273787
0.0436479
1.8968
6.09798
0.285095
0.0252765
0.0270172
0.0724738
2.52224
2.36264
0.0278567
0.57047
0.0282199
0.0237646
0.676558
0.0694704
0.0281194
2.39069
0.15289
0.0369174
0.0211498
1.34745
0.0353498
0.0413939
0.753224
1.99223
0.558849
0.0615474
0.759063
0.021663
0.156786
0.0243432
0.537214
0.0256804
0.119126
2.26274
0.0212784
0.153314
0.0248468
0.0221252
3.22388
0.436872
0.0291252
0.275459
0.108687
0.0216123
0.0216296
2.34383
0.0280041
0.0216484
0.0363355
0.0765799
0.0858066
0.027499
0.0471695
0.0268599
0.0385678
1.80784
1.93558
0.0284311
0.740789
0.676676
1.49119
0.0216099
0.666947
3.02932
0.0240277
0.0201567
2.55642
0.0213726
0.0694483
2.01011
1.77241
2.40246
1.82203
0.0272283
2.57776
0.0418179
0.23543
2.3459
0.0211234
2.58484
0.0295572
2.83265
0.104222
3.13381
0.0413011
0.0557492
0.0567903
0.118309
2.54958
0.105467
0.415975
2.84382
0.0231546
1.06509
0.0268926
11.5227
0.0222587
0.0271389
0.0229698
1.96821
0.318358
0.0227634
2.5534
0.0257009
0.124188
2.33568
0.086469
0.0303435
0.266605
0.0219528
0.23943
0.0295912
0.252395
0.0242699
0.0781167
0.0268308
0.0270658
0.328608
0.0304844
0.0214257
0.0217681
0.0582416
0.334627
0.0203828
0.0213662
0.0267423
0.0236217
0.749274
2.75146
2.69012
1.94579
7.33164
0.176809
0.72923
0.0357237
0.0265818
0.110686
1.81437
0.0261163
1.77942
0.0829104
0.677477
0.0283335
0.0230858
0.0413532
0.0858827
0.10586
0.0250936
0.424641
2.30109
0.118013
1.28691
2.66187
0.038095
0.0233177
2.96559
0.0220048
0.0201456
0.440593
0.555958
0.073946
0.0898022
2.46116
2.15208
0.0212277
0.126734
0.566938
2.89595
0.0205385
0.336303
0.021804
0.72801
0.0215401
0.20831
0.0283775
3.25513
2.75787
0.358604
0.0213021
0.0250005
2.46312
0.491626
2.77475
0.426623
2.0725
0.262532
2.43792
3.42804
2.54261
2.49526
0.0409612
0.0217245
0.0251496
0.136168
0.0231349
2.62662
3.08965
0.0228754
2.42737
2.27238
2.50655
0.021765
0.0230757
0.0217877
2.78622
0.0673023
0.0217246
0.0241391
3.08599
0.0229322
2.00814
0.095237
0.0326043
0.0602832
0.0221043
0.0218305
0.0221737
0.0470721
0.0368094
0.0252621
0.770327
0.0215219
0.0228681
0.0201813
0.0251665
1.72879
2.32499
0.0218422
3.10359
0.0262155
0.0247428
0.0217475
0.0476565
0.0367664
0.0284172
0.0619694
0.0218636
2.11698
0.0387994
3.13089
2.75731
0.0552846
0.0624293
0.0251611
3.14479
2.80228
0.0576832
0.0230672
0.565405
0.505327
0.0646671
0.0222177
0.0299552
0.559015
0.0939704
12.2706
0.0263604
0.0222796
0.0659015
8.32581
0.0397986
2.53593
0.458922
2.02132
0.612546
0.392243
0.0466641
0.0298574
3.65126
1.76109
0.0282172
0.022624
3.09915
0.156098
0.118357
0.556274
0.0361955
0.0242595
0.0200185
0.752682
1.11819
0.0238964
2.15658
0.0260081
3.1288
0.0220312
0.0217003
0.29314
2.68045
0.093456
0.372562
0.24707
0.0587054
0.296906
0.0405902
0.315404
2.75243
0.0241812
2.01979
1.74316
2.34886
0.0240904
0.353251
0.0238146
0.0212505
1.73976
2.43244
0.24227
0.470962
1.50229
0.0395891
0.739895
0.040166
0.0200381
0.0450553
0.0243091
1.72762
1.73516
0.210302
2.06908
0.0215342
2.05341
0.0397548
0.222548
1.20517
0.032027
0.0218534
0.0260024
0.0217953
3.04939
0.0237662
0.475263
0.49955
0.0650466
0.0507781
0.0244038
0.297701
0.451459
1.24297
0.0276616
0.0218378
0.0218496
6.42752
0.0238321
0.174642
0.0590834
0.0239282
0.021193
0.0217872
0.021598
0.0252069
0.030624
0.0443971
0.308009
0.221279
0.0220193
0.607318
3.08528
0.123178
2.32736
0.0321036
0.0261383
0.0423616
0.0251594
2.00862
0.0352442
1.32852
0.334359
0.592267
0.0285273
0.0217577
3.18686
0.0243549
2.22445
0.0234325
0.0248976
1.52149
0.0262418
0.0213759
0.0890213
0.109625
5.36488
2.94835
2.63384
1.22513
0.0242986
0.026341
0.053409
1.20462
0.190333
0.0252286
0.0225866
0.0906677
1.73505
0.0224367
0.023111
2.73889
1.80297
0.0999754
0.0248928
0.0204268
0.023315
0.0249164
0.028786
0.0202374
0.0251002
0.0256574
2.352
0.0208752
0.0762727
2.36312
0.0881282
0.414427
0.0221923
0.0231407
2.05334
2.50606
0.481953
0.140438
0.392338
0.162737
0.0321628
1.71875
0.0341855
2.71961
0.0215514
2.11444
0.0218788
0.0398839
0.169364
0.402028
0.0229167
0.0217778
0.0310083
0.0246001
2.78045
2.736
0.704606
0.039324
0.02302
2.66793
0.0260055
0.0214204
0.571604
3.13607
0.196292
0.520273
2.12478
0.0277339
0.083546
0.469542
0.0211984
0.037304
2.16751
0.0252573
0.0263778
1.0286
1.77917
0.0218213
2.74994
0.0211716
0.0543207
0.659175
0.330048
0.270546
0.0618201
0.0246961
0.0419113
0.0280539
0.566611
4.99535
0.0216141
0.924614
0.460216
0.147784
0.0201893
0.024597
2.11268
0.0269229
0.0451458
0.35271
0.452112
0.0234753
2.44082
3.12673
2.38793
0.434086
0.679084
0.023104
0.0204214
0.0263354
0.0406168
1.78132
1.782
0.0716106
0.0859537
0.171665
2.09721
2.10697
0.0218213
2.84876
0.0270031
2.30411
0.0995596
0.0331615
0.644864
0.0244491
2.63524
0.578546
0.0296224
1.84126
2.23743
1.16762
0.133091
0.0609463
0.0452519
0.0227765
2.57953
0.0218027
0.718124
0.0251038
0.0221887
0.0228341
0.0466889
8.02998
0.0217962
0.731235
0.26153
0.303215
0.055549
0.0209599
2.5811
0.025871
0.0260525
2.12195
0.0217425
0.022171
0.0844673
0.0309606
0.0217994
0.347474
2.19939
5.60454
1.25038
0.0211644
0.0267775
0.100848
0.214107
1.79271
0.0219516
1.65544
0.0307006
0.0313143
3.01192
0.0215904
0.0230293
0.0438695
0.0239034
0.0217928
0.0267472
0.26378
1.28711
0.025586
0.757731
1.45231
0.0873383
0.0338633
0.0238838
0.0226465
0.0259224
0.571354
0.10819
1.97748
2.89024
0.571077
0.0247613
0.038797
2.66363
0.0414428
0.0336505
0.0248061
0.487383
0.274404
0.0267272
2.32573
0.419177
0.0248012
0.0372143
0.0219858
0.133765
0.316253
0.720709
0.0391643
0.756147
0.0415385
0.0263636
0.289531
0.0261178
0.624606
0.0637562
0.0284965
0.0430106
0.0300361
0.0672148
0.021719
0.0247961
0.699252
0.0224313
0.32809
0.0424594
0.0382822
0.665426
3.00073
0.0228069
0.0203608
0.0636226
0.496195
0.0246135
0.0286099
0.674209
0.497995
0.0823778
0.0708573
7.86822
0.0227709
0.0234196
0.322876
0.152083
0.635066
0.0247685
0.0670865
0.0253684
0.0434007
7.70665
0.0269069
0.0217751
0.0631259
2.95495
0.0230386
0.0218817
0.0292984
0.0385737
0.211951
0.0226258
3.14792
0.0681919
1.94451
2.68108
0.0436386
2.86537
0.0289755
2.96802
0.197369
0.310654
0.0232806
2.02703
0.0544049
0.0829229
0.0411308
0.0394712
2.32861
0.0256659
0.0265465
0.0258226
0.411135
0.364006
2.31295
2.54613
0.751223
2.02537
0.0240758
1.95573
0.022341
0.0220909
0.0274683
0.0242575
1.67953
0.162174
0.0213245
2.30239
0.372888
2.32556
2.46935
0.18649
0.0224632
0.0218102
0.0950405
0.0204675
0.0250032
0.0232909
2.18045
0.0408346
0.455924
0.0810671
0.0506724
0.200386
0.0234747
1.72357
0.0259875
0.062869
4.37522
2.05537
0.0361801
1.25456
0.159667
1.03251
0.368475
0.0258439
2.1848
0.0272848
0.122481
0.0254398
0.0230382
0.0232173
6.0187
2.30464
2.95367
0.104609
1.86429
2.27226
0.0217234
2.1092
0.058728
0.0264771
1.01756
2.59221
0.0203424
1.40556
0.0836562
0.0218947
2.50471
0.0240001
0.023465
1.74723
0.0257421
0.0633934
2.73394
0.103282
1.79552
0.0229552
0.0199863
0.0283654
2.00064
0.0445917
0.0651407
0.554208
0.0223061
0.0210165
0.042855
0.126787
0.0219868
1.4321
0.0254984
0.133968
2.3043
0.0314714
2.50316
0.0210112
0.0382219
1.78512
0.0231149
0.0520022
2.21917
2.9021
0.925593
0.0404574
0.0977746
0.0266178
0.458503
0.222373
0.0553665
0.756654
0.125756
3.10833
2.98814
0.0228725
0.113642
0.0663221
0.026872
0.039868
0.636403
0.0222294
0.0225886
0.0253899
0.0247489
0.0238424
0.0218111
0.0231796
0.0323956
0.323232
0.0630784
0.0244897
1.57606
0.28155
0.488963
0.0450248
0.415757
0.0224965
2.6854
0.0386883
2.92136
0.0441666
2.04942
2.82118
0.293196
0.332809
0.0243573
0.0250417
0.0238702
0.0273904
0.0483105
1.8653
0.023297
0.161469
0.652233
2.29869
0.122087
5.25507
2.83329
0.0915746
0.0306597
0.0243642
0.477384
0.0272125
0.0438409
2.36093
0.0477357
0.02371
0.0230198
0.0215294
0.174387
0.42423
1.29407
0.0760266
0.0301185
0.0218204
0.0219827
0.0246476
2.0599
0.0380362
0.0209884
0.0273518
0.76716
1.71504
0.022523
0.0218183
0.0630856
0.533979
0.0234379
0.0422381
0.0842483
2.93863
0.363856
2.2139
0.0794575
0.0529527
0.043488
2.48304
0.0515582
2.59013
0.0236748
2.97703
2.61016
2.27691
0.0248752
0.770742
0.0363388
0.629801
1.70794
0.549515
0.899517
2.25365
0.057998
0.0862755
3.89209
0.305783
0.383249
0.074268
2.55981
2.52666
2.25516
0.77131
3.09817
0.0248054
2.11979
0.0831049
11.6175
0.024509
0.149367
2.46778
0.17729
2.92227
0.0575631
0.0484319
0.0428814
3.89767
3.07977
0.0316343
0.942519
0.447308
0.0260812
0.517297
0.0259845
1.45689
0.204004
0.0338739
1.45719
2.21017
0.0253417
2.54286
0.410049
0.0217296
0.796358
2.11198
0.609327
1.8351
0.023963
0.0224548
0.403504
0.0224285
2.66685
0.466303
2.2801
2.3565
0.0274634
0.0901058
0.0253817
2.69871
2.5178
3.30819
0.0532016
0.0224691
1.77906
0.444658
0.05943
0.416739
0.0234529
2.39321
0.0221512
0.0259905
0.0719907
0.0222215
0.033703
0.085019
0.32053
2.00605
0.0211039
0.0209241
2.99625
0.83584
0.0926074
0.0365862
2.50762
0.0212323
1.8485
3.0046
2.95323
0.0239911
0.0254047
0.485722
1.76193
0.577672
0.02193
0.0487422
0.0203871
0.442825
2.78309
0.0217947
0.620461
0.728129
0.0479818
0.0954903
0.0251081
0.0319052
2.48046
0.0466259
0.360893
0.0230526
0.0226663
0.225387
0.0232566
0.078539
1.77882
0.0247721
0.329378
0.289891
0.0223065
2.06046
0.348123
0.0228969
2.95863
0.474718
2.99219
0.0257867
2.57578
0.0245585
0.0199978
0.0671972
1.0358
2.57807
0.0213293
0.0534541
0.0218389
0.0448268
0.0238504
0.990171
0.495871
2.77119
0.0475967
0.0553573
0.0448443
3.91761
2.54812
0.377443
1.1832
0.0249669
0.0236374
0.0224437
0.111908
0.0375207
0.0741167
2.65075
0.0219525
0.534649
2.37513
0.0493152
1.66589
0.0262524
0.0271942
2.38778
0.448689
0.0229852
0.0241797
0.0948797
0.185349
2.44613
0.519691
1.93079
0.0311219
0.144151
0.413875
0.0324797
0.0235722
1.87351
0.181021
0.0228553
0.0440265
0.085876
0.269505
0.0203559
1.20125
0.0277573
0.0233432
1.33123
0.41667
2.52429
2.12815
0.113091
0.678237
1.78544
0.0259146
1.90522
0.0869469
0.045478
0.0486402
0.0257689
0.025302
2.18562
0.0228911
2.77414
0.157207
0.147245
0.440525
0.0230886
3.25257
0.0404386
0.368383
1.32113
0.732884
0.101285
0.0224093
2.85307
0.023402
2.59393
3.17512
0.171341
0.625139
0.0205499
1.22645
0.0230781
0.0549474
0.0340281
0.0549428
0.0217919
0.192488
0.0223733
3.59759
0.0266924
2.42744
0.545127
0.0641071
0.0396555
0.204784
2.42826
0.926178
0.0219521
3.10003
0.19246
0.023275
0.0877689
0.0217573
0.0429614
1.15516
8.79037
0.0975273
0.0225885
0.70004
3.26807
0.713521
0.0278092
0.0223994
2.50028
4.02079
0.0516432
0.0617499
0.0361851
2.28901
0.0333175
0.023211
2.44991
2.51971
0.0542558
0.0582535
0.0219942
0.0522631
0.0260454
0.0747084
0.751833
0.508125
0.0625362
0.0212104
2.27421
0.025215
0.0466493
0.023006
2.24589
1.92086
0.328884
0.0468587
0.0210819
0.0237038
2.48822
3.19582
2.35122
0.121593
2.27603
0.26331
2.18499
0.0520489
0.109825
0.0236893
0.0246245
0.0228423
3.00241
0.0230349
0.062655
0.214109
1.97583
2.68698
0.766953
0.0220016
3.12323
0.0403707
0.159313
0.0217786
0.325856
0.0213276
0.0284638
0.416551
0.433368
0.0253963
0.0229749
0.0214519
0.259317
0.0617081
3.48897
0.185537
2.3972
2.99616
2.57258
2.06826
0.0233834
2.77967
0.288365
0.0433788
0.0265908
0.0278819
0.0217418
0.0246777
0.0216663
0.0215092
0.0255312
0.0254362
0.0266123
0.452442
2.18241
1.87529
0.0258523
0.0246195
0.360252
0.0224777
1.92181
0.0216861
0.355396
2.25544
0.590877
0.0438241
0.0381537
0.0446183
0.0364777
0.735182
0.0997365
1.89837
2.06613
0.181301
0.0322518
1.57334
0.0257811
0.0232197
0.0917231
0.0231417
0.0424258
0.0264022
0.119259
0.0266026
0.0209841
2.25927
0.0247696
0.0495589
2.28141
0.0210385
0.460403
0.0245001
0.0278724
0.0276958
0.112488
0.0216358
3.12199
1.90792
0.0225867
0.389514
0.0348008
1.8298
2.07763
0.0231321
0.0213882
0.0244205
0.022196
0.0221788
0.0230756
0.0206072
0.053296
0.0218186
0.161122
1.96721
0.0727389
0.0266214
0.0448463
0.0251966
0.272094
0.244633
0.0931216
0.276935
0.0213475
2.02686
2.44109
0.0242705
0.699203
0.491764
0.0273067
0.0221423
3.19003
0.0325903
0.0219962
0.073163
0.487235
2.29834
0.0963626
0.658481
0.0242418
2.99209
2.70866
0.0390019
0.0237595
0.0317766
0.0225967
0.0728174
0.187325
0.021831
0.45385
2.59941
3.22911
0.423679
0.0254909
3.32889
0.0262436
2.53262
1.98258
0.0217297
0.0232219
2.2492
0.0660839
3.33129
0.0252581
2.64955
0.421366
0.441809
0.0227475
1.89099
2.82983
1.86934
0.0540083
0.688889
3.35269
3.05935
1.24214
0.0661038
2.25519
2.33164
0.467977
2.36101
2.7695
1.75414
2.76244
1.02145
2.16945
3.30655
0.0250958
2.65541
3.07637
0.48063
0.100955
0.0212822
2.45304
0.0589886
0.119587
1.73439
0.616549
3.09875
3.05525
0.0219952
0.0228027
2.58573
3.31717
1.88346
0.0308484
1.3408
0.0251852
1.80551
0.0445829
2.11872
0.25149
0.0227239
1.69851
0.0256973
3.26419
0.142837
0.0237101
2.33017
0.0254794
0.118101
1.85117
0.0878943
1.61932
0.0243411
0.0227274
2.01634
2.40386
0.0225528
2.11019
0.302778
0.0333562
2.67963
0.0223504
0.0226551
0.032491
0.410918
0.023022
0.107292
0.0258112
0.02125
0.505202
1.7519
0.0216163
0.256098
1.23089
3.02534
2.08692
0.0256771
0.103517
0.0213953
0.085387
2.30986
0.0262647
1.47841
0.0255759
2.51815
0.0515785
0.393237
2.31779
2.8428
0.408222
0.112541
0.682005
2.39794
0.179961
2.53752
0.0235821
1.93288
2.49934
1.25143
0.0265822
0.0222344
0.0224256
2.49415
0.212541
0.0251278
1.77165
2.14803
1.21703
0.433614
0.182374
0.203314
0.106132
0.021945
0.698512
1.77644
0.0344475
3.07004
0.0222132
0.024151
0.0339343
2.15277
2.1555
0.0226435
0.0432155
0.0215996
2.49211
1.76665
2.06723
4.61102
3.24882
1.0524
0.123626
0.0595432
3.75605
0.0770966
0.0239074
0.0211832
0.0352228
0.0217358
3.35979
2.35169
0.234718
0.0215766
0.0354154
0.0216887
0.0990272
0.192994
3.06534
0.920157
0.0648288
0.159946
0.0343447
0.0213121
0.026093
0.08627
2.89175
0.0224814
0.0619279
0.0554341
2.20646
1.78771
2.5819
1.81513
0.0295326
1.84074
0.0238989
1.8403
1.71366
0.0260913
0.731517
0.441807
1.96768
0.0908584
2.62031
1.07648
0.0346347
1.92512
0.023108
0.0221281
2.13164
2.45795
1.32743
0.0455276
2.33418
0.619022
1.79476
2.51823
0.0253732
2.20728
0.0696473
0.121833
1.91147
0.0213182
2.52155
0.0826634
2.01646
2.54237
0.365517
0.0210649
0.0980054
1.30712
2.39366
0.488913
2.83443
1.8897
0.0231808
0.475315
0.196909
0.0245196
0.0234321
0.370519
0.187103
1.74792
0.0287552
0.0745216
3.30589
0.0218434
0.139077
0.0223711
2.37094
0.0305243
0.023139
3.00795
0.0267435
0.195788
0.0217184
0.0242896
2.09189
0.0236553
0.0263405
0.0213348
2.48106
0.0695174
0.0556087
3.83523
2.54329
1.9295
0.0566454
0.0218473
2.64796
0.0290052
0.0655741
0.0249101
0.443624
0.422871
0.0327286
0.0442454
0.564633
0.0351558
0.0262371
2.02642
1.7811
0.0562748
2.94206
0.0549648
3.36097
2.91388
0.0206969
0.022592
0.0218727
0.52099
5.86676
2.08241
3.34169
2.20881
1.97286
1.79742
0.565085
0.0216516
2.46098
2.56075
0.0227449
0.248786
0.195211
0.0284677
0.276877
2.3027
2.09295
2.32208
0.033126
0.0529969
10.7306
2.78067
0.0563981
1.21343
0.836367
1.81832
3.15647
0.879959
0.122587
3.147
2.26481
0.0227904
2.52422
0.0379797
0.0322414
2.87642
0.0222335
0.0215478
2.14139
0.0238179
0.0429097
1.25318
0.077602
0.0236966
1.8787
1.9058
1.75206
0.0499522
2.72004
0.0283528
0.0523492
2.08794
1.0079
2.99363
0.0241693
3.09715
0.0257484
2.78494
0.0291221
0.0371911
0.0300267
0.361288
0.0241185
0.0661476
2.2518
0.0242842
1.8505
1.91865
1.81499
0.21109
0.0219964
0.394472
2.60288
0.458103
0.0238021
3.03867
1.4214
2.35537
0.0651472
0.0529967
6.13248
0.31438
0.0631052
0.243847
2.34661
0.0217274
2.58968
0.0216735
0.398038
0.0278868
3.12355
2.51687
1.84773
1.92901
0.549089
0.0532649
0.492695
0.035215
2.1559
0.0265779
2.56835
0.0596039
2.99238
1.09066
5.30952
0.293747
0.0662638
2.32099
0.0286051
2.1819
0.0398048
0.0767422
1.91795
0.06117
0.571444
3.0925
2.12419
0.318828
2.2907
2.14272
2.40832
2.54804
0.0244804
0.025543
0.0674981
0.0226655
0.0274491
1.90661
3.06355
2.07421
0.0223368
1.96953
0.216526
0.164061
1.76232
1.26147
0.0216881
2.4501
0.185667
1.25915
0.0415208
2.13068
3.21184
0.106591
1.91038
0.023041
2.86614
2.38277
2.31035
5.93943
2.58543
2.50051
0.0423407
1.7359
0.0347067
1.81067
0.0410142
1.13779
0.024443
2.45565
2.67171
0.0371781
0.0216193
0.0795097
0.0450562
0.0237308
1.28781
2.25153
0.0221431
2.05187
2.49123
2.9764
2.05808
0.345151
2.43514
0.17104
3.34017
2.41155
0.0300106
2.33052
2.64323
0.0387235
1.74589
1.93713
0.0499645
4.95536
0.0713885
0.0275364
0.0224897
2.70462
3.27789
0.0568865
1.7386
2.63711
0.77079
2.16695
0.525729
0.163068
2.99161
0.469878
1.77479
0.0225419
1.83229
0.0215997
2.86781
0.0235138
2.23027
0.458649
0.021554
3.23266
1.24009
1.76743
1.81551
0.0518362
3.11862
2.62805
0.0211764
2.2511
2.98931
0.0236237
2.64514
0.0231478
2.44258
0.0261816
0.0256956
0.0212627
2.14157
2.51636
1.39645
2.51201
0.173786
0.458717
2.51947
0.0227116
0.0257973
2.59926
1.9889
0.0255004
2.721
0.171665
2.22491
2.47272
2.45055
2.55065
0.0537215
1.74057
0.0427991
2.19429
0.0264361
0.0317132
2.01638
2.69268
0.0920297
0.475196
0.0254293
0.0210115
0.0213401
0.024576
3.27616
2.51286
0.0228931
0.302165
2.80939
0.0626378
0.740738
2.48901
0.0212239
0.058924
0.0250591
1.3167
0.0387558
0.0667302
0.0215919
0.0259974
0.197173
0.02098
0.23141
3.02692
2.65443
0.0470946
0.0504893
1.73346
2.36004
2.65679
0.0302761
0.710313
2.25323
0.0205386
1.94804
0.130707
2.53543
0.18592
0.300876
2.42246
2.65836
0.128804
0.167379
1.80225
2.65315
1.78911
0.44753
0.718031
2.83438
1.50091
2.35478
0.0255646
3.098
0.646671
1.92708
2.11381
2.88377
0.0224925
0.446528
0.0409
0.0217624
0.192196
0.0569571
0.0333308
0.0354939
0.306724
2.44938
3.3605
3.22517
2.38575
0.119167
0.415596
2.51792
0.454615
0.0221428
2.33853
0.0497479
0.166296
2.9594
2.56546
0.239752
2.44122
3.21425
1.88975
0.0566214
1.74942
12.5683
2.53301
0.214472
1.78906
0.444527
1.82201
0.901523
1.88051
3.0361
2.32354
0.191185
2.49171
0.0394462
0.478446
0.022745
0.845379
1.7601
2.40215
0.17994
0.026916
0.117645
3.2537
0.184454
0.192017
0.0489922
0.0214916
2.47116
0.0243421
0.0224974
1.95118
0.0526984
0.0295971
2.70501
1.29665
2.33794
0.0208551
3.05519
2.76549
0.0268636
0.0523521
0.0241872
0.044506
0.0527143
0.029987
0.0556428
0.0385299
3.08922
0.378097
2.49299
3.21657
4.21984
0.166464
2.37562
0.166954
0.49776
0.0226549
0.320489
0.060553
2.68488
2.6164
0.0250042
2.98711
0.0585251
1.33484
2.5633
0.0215657
4.93849
3
0.188575
2.06018
1.96336
0.195498
0.0323272
0.18658
0.204397
0.0335024
0.175045
3.2577
0.778401
2.2169
1.81373
0.241526
0.611451
0.0707379
2.04706
2.90776
0.178892
0.0506016
1.91489
0.0398821
3.19168
2.73962
1.36795
0.28785
0.024868
0.462129
2.76224
0.0307011
4.23098
2.24105
0.192426
0.164809
0.0215228
0.0674894
3.11177
0.0576749
0.0263065
3.32055
0.0236534
0.0551094
0.310182
0.172257
2.29405
0.227695
1.86097
0.305594
2.17823
2.93991
0.970619
0.117416
0.034898
6.08257
1.70762
0.0485922
0.0507314
0.0498162
0.186926
0.0311734
0.0224578
0.507902
3.00113
1.74965
0.0310679
0.0543956
1.89801
2.58876
0.403363
2.56435
2.92127
1.76801
0.0221803
0.0585468
2.78046
0.0217094
3.11589
1.73952
0.0615478
0.063568
2.7721
2.21405
0.0233488
1.9684
0.0220965
0.0248788
3.28586
0.432424
0.502877
0.0521422
0.204802
0.449709
2.1656
2.61383
1.77424
1.68734
0.0219477
0.057425
2.31676
2.65065
0.111867
0.421998
0.0331206
0.239582
0.0305633
1.90061
3.16585
0.0243048
0.0536301
0.0595978
2.9715
3.09353
2.47825
0.0223163
0.17107
0.123016
1.86706
3.03909
0.0701957
0.0230548
0.0323076
1.91538
3.01515
0.116673
2.59325
3.14703
0.411394
0.0210813
2.25887
0.216248
0.0222437
2.70745
0.392402
0.312095
0.0247373
0.0453793
0.0250695
2.75848
3.31209
3.18415
4.0851
0.0442585
0.0630661
0.0286704
0.200085
2.15873
3.24815
1.24769
0.0223967
0.0252004
0.184953
0.0492844
0.0584353
0.0572029
0.0221878
0.509266
0.0221909
1.87488
0.0521595
0.0222487
0.393508
0.0212411
0.0217034
1.94093
0.0293015
0.0331919
0.0224778
2.02324
2.5501
0.567489
0.021119
0.0246386
1.17236
0.529313
2.27883
3.38391
2.93589
2.79031
0.04814
0.0223485
2.23102
0.0989229
0.172089
1.74544
0.0506221
0.0471229
0.0400634
0.0504845
2.21405
0.0228718
0.0222908
4.11447
0.024042
1.80457
0.0254571
0.0689863
0.19112
0.0238639
0.0223579
1.87411
0.406664
0.0442476
1.87086
0.0431669
0.0214875
0.424716
2.46925
0.0231715
0.486131
2.52168
0.0403056
0.0437844
0.158158
1.34435
0.112105
0.0216506
0.147803
0.0223932
2.23036
0.39264
0.0213363
0.0259813
0.062949
0.290124
1.05149
0.0314495
0.211584
1.3646
0.0226124
0.178177
0.0217723
3.07524
1.95574
0.0232017
2.8704
2.04437
0.180211
0.964086
2.47049
0.0582992
0.0466843
0.190117
0.0273815
2.90925
0.0384437
0.0331888
0.368582
1.35687
0.174297
0.135731
1.36749
0.0217666
0.0271825
0.0215629
0.452517
0.0364549
0.0735982
0.0240224
0.032622
0.0240634
2.44914
0.0292872
2.09759
1.90729
3.42527
3.36349
3.31098
0.0503217
3.09131
0.0450624
0.0459884
2.20348
0.0446529
2.75581
2.70335
0.0301568
0.0838948
0.088741
2.61322
0.0222795
1.10025
0.0804331
0.169392
1.42735
0.0216729
0.50306
7.93617
3.03205
0.0293557
0.0281174
0.0339616
0.0242323
0.0221587
1.18227
1.83846
0.941809
0.0217227
1.83036
0.693927
0.0996202
0.0219325
3.13371
1.36327
3.27681
2.25512
0.0564437
0.0375593
0.022061
0.828467
2.24543
2.03871
0.0253982
0.0952188
0.0243423
3.04262
1.71846
0.0215219
0.0302701
0.0232464
0.0226322
0.0387889
0.0220583
0.0322266
1.85785
1.2231
0.0227863
2.17321
0.129082
0.024762
2.60073
0.0229448
0.0584967
0.0217766
0.0823629
0.0254148
2.17632
1.33653
0.758552
0.303792
0.0394102
0.0237857
0.430235
0.0316799
0.0258272
0.414111
0.0896407
0.357989
0.0306796
5.36997
0.0256337
1.33919
1.35525
0.0330031
0.0414039
0.594839
2.32934
0.0297269
3.54223
0.0245173
1.96134
2.99033
0.0262014
1.89975
0.0228883
3.16748
0.0220214
3.0366
0.0215584
1.80743
2.58524
0.0373495
3.1986
0.161707
1.71004
1.31253
0.089564
0.45842
0.237995
1.79493
2.40049
0.0242133
3.0593
0.0209878
0.0653431
0.0372888
1.46041
1.80813
0.032481
0.0363693
0.0255387
0.0276405
0.0256714
0.739956
0.860746
2.38706
0.0277423
0.0547145
0.0324712
0.0351113
0.0266676
0.0341176
2.15099
0.719268
0.0253229
0.460494
3.26011
0.0399423
0.0209119
0.0276602
1.29896
0.0265321
1.19193
0.0373566
0.956647
2.59905
0.0244981
0.0221357
0.0401892
0.0304295
1.84638
0.0224036
0.0249574
1.711
0.150109
0.022699
0.0224608
0.0308309
0.0616543
2.56849
0.022238
0.0417347
0.0238527
1.85586
0.0235112
0.0253885
0.020964
0.0511316
0.175972
0.0511002
0.0315311
0.0342821
0.0217606
0.0454277
1.18835
0.0246111
0.0231337
0.02301
1.56554
0.0527469
1.33728
1.74439
0.0282021
0.691901
0.150904
0.0220199
2.80845
0.0276874
0.637123
0.527013
0.0316789
2.12954
0.0219731
0.025923
0.687769
0.102826
0.657613
0.0400623
0.0216501
1.52126
0.0217493
2.44087
0.151807
0.0222641
0.0254025
0.0302818
0.0266659
0.0318979
1.57373
0.0253554
0.0218544
2.5533
1.78359
0.0216818
0.0345867
0.0917989
0.0250767
0.0251024
2.17733
0.123236
0.0224406
0.0329667
0.0223492
0.233142
1.87412
0.0323383
0.0264505
0.036265
0.108303
0.0278817
0.0227504
0.0262658
2.29689
0.132892
0.0230056
0.0341461
0.0307055
0.0225688
0.0314506
1.39168
2.49016
0.419451
0.0514542
1.29797
0.0299629
0.320566
3.32176
0.0370037
0.0294527
0.537902
0.0289701
0.412214
0.0297646
0.260878
0.745997
0.0221032
0.0578279
0.0222151
0.025957
0.742033
0.0251015
0.156541
3.23814
0.0794507
0.0278335
0.0308599
2.11032
2.43908
0.588644
0.0337988
2.87817
0.153364
0.106694
3.72832
1.24626
0.0268239
0.0220111
0.0223008
0.0228101
0.0210185
0.0223083
0.0278711
3.08799
0.0479076
0.032551
0.122075
0.0507446
0.0946792
0.102579
0.0215301
2.31333
0.022574
2.38327
0.0692596
0.0211819
0.0288581
2.57891
0.0291113
2.34012
0.166374
0.190852
0.34085
0.027528
0.0243076
0.190271
1.90157
0.599022
1.21482
0.0244158
1.23762
0.0250558
0.0227466
0.025136
0.0217799
0.0309436
0.0238545
2.62237
1.85073
1.28685
0.0219382
0.567874
0.0215986
1.76378
0.0250629
0.0322255
0.0214737
2.10198
0.0502728
0.0237618
0.189105
0.0254915
0.182274
0.0236294
0.0332775
0.616365
1.22657
0.215341
0.743666
2.22104
2.50392
1.28095
0.435294
0.0363201
0.0256875
0.025396
0.0240496
1.14872
0.71544
0.160572
0.0263645
0.143039
0.558662
0.418607
0.0523524
0.0256615
0.023419
0.0335245
0.0251652
1.98024
0.0223416
0.0241304
2.17347
1.82942
1.38663
0.0388426
0.0231821
0.0227513
0.0332758
2.52
0.0214073
1.88642
0.0978208
0.0560341
4.37989
0.0228584
2.09028
2.70612
0.0208056
0.112285
0.0224126
0.0247166
0.0224021
0.0219523
0.049575
0.0327262
0.726341
0.0267105
2.21666
0.194438
0.0316774
0.0629842
0.0723808
1.90789
0.0239346
0.0725439
0.0216919
0.0252328
0.0280343
0.0216206
0.0351015
0.14849
1.83186
0.0245335
0.0248334
3.10116
0.0683612
0.199195
0.0241415
0.0250887
0.0243177
4.87959
0.0272928
1.74855
0.021932
0.0233103
1.85163
0.0219139
0.0492471
0.459464
0.0242668
0.0682367
0.0258779
0.0248104
0.07269
0.448899
1.44981
1.811
2.50083
0.572696
0.0247427
0.0276249
0.479274
0.0334228
0.0686775
2.15273
0.14834
0.0253235
2.56914
0.038892
0.231707
1.24378
2.77582
1.17883
0.0218076
0.743213
0.0237753
2.97315
0.128898
0.0280844
0.0223283
0.0226135
0.0253323
0.291185
2.48264
2.54525
0.0202556
2.56737
0.730765
1.73746
2.76784
0.0231915
0.0220734
0.0446156
0.021662
2.07065
0.0224987
0.0225689
0.0636304
0.181554
0.030229
0.024515
0.0219138
0.205377
0.13593
0.116331
0.0227177
0.445467
4.7993
0.0217051
0.025845
0.237681
1.55041
1.27036
0.0524668
0.644728
1.2982
2.14033
0.0258993
0.0252594
0.0220328
3.12923
0.022532
1.36443
0.348234
0.24163
0.687455
0.0211197
0.181913
0.0221366
0.395888
0.0424029
0.2337
0.0643118
0.021619
1.21873
0.0521527
0.826936
0.0257496
2.9085
0.0219994
0.0220877
0.0296116
0.0221906
1.79616
0.0237817
0.279689
0.850299
0.0216715
1.72906
2.04778
2.8328
0.803337
0.0219471
1.10669
0.0253125
1.18847
0.0221212
2.69699
0.0219829
2.49074
2.55783
0.730092
0.352205
2.26412
0.0290252
0.0342687
0.191257
0.0336885
0.0902532
0.984049
0.0572156
0.0636717
0.839871
0.0236279
0.0224892
0.200655
0.338566
0.0361279
2.67412
0.022669
0.0325901
0.0376226
2.51046
0.0217084
0.0355071
0.02515
0.160901
1.22812
0.0221934
0.0310664
2.02477
1.24784
2.28831
0.0492818
0.0306152
0.939514
0.0234963
2.56153
0.0220279
0.269471
0.169852
0.0262304
0.402892
0.0373492
2.65417
0.0433166
4.45259
1.72187
0.0307462
1.71628
0.0330715
2.52719
0.145547
0.0248616
0.0983054
0.0244358
2.3788
0.0243905
0.223215