/*--------------------------------*- C++ -*----------------------------------*\
| =========                 |                                                 |
| \\      /  F ield         | OpenFOAM: The Open Source CFD Toolbox           |
|  \\    /   O peration     | Version:  v2012                                 |
|   \\  /    A nd           | Website:  www.openfoam.com                      |
|    \\/     M anipulation  |                                                 |
\*---------------------------------------------------------------------------*/
FoamFile
{
    version     2.0;
    format      ascii;
    class       volScalarField;
    location    "400";
    object      k;
}
// * * * * * * * * * * * * * * * * * * * * * * * * * * * * * * * * * * * * * //

dimensions      [0 2 -2 0 0 0 0];


internalField   nonuniform List<scalar> 
14315
(
0.0778014
0.090499
0.000108873
0.000151705
0.000211218
0.000101372
0.0813604
0.000111777
0.000115425
0.000109233
0.000234544
0.0284301
0.0885542
9.70863e-05
0.0295765
0.000119132
0.000111623
0.000123107
0.000127357
0.000124654
0.000120759
0.104643
0.000119997
0.0290616
0.00017453
0.089808
0.00012633
0.0827458
0.000135726
0.000286624
0.000103094
0.000121587
9.63931e-05
0.0921963
0.0812292
0.1048
0.00434044
0.000111115
0.000448027
0.000222619
0.0127559
0.03237
0.000111818
0.000106344
0.000114094
0.000161799
0.000146338
0.0233047
0.0259938
0.000124203
0.0211297
0.000151512
0.0288045
0.0271273
9.99997e-05
0.105927
0.0368006
0.000116373
0.000118238
0.000108835
0.000420114
0.0843384
0.105465
0.000118692
0.000304753
0.00887625
0.093756
0.000137628
0.000119506
0.00010016
0.0276598
0.00011507
0.0842306
0.0361247
0.000116203
0.0792123
0.000105345
0.106266
0.000113567
9.20182e-05
0.000107402
0.0475714
0.000114157
0.106855
0.000120119
9.38492e-05
0.0922087
0.0263889
0.0262092
0.000235211
0.00010732
0.000172851
0.000106895
9.52342e-05
0.0314343
0.0519561
0.000111932
0.0486631
0.0747376
0.000288373
0.000138112
0.0255053
0.10444
0.000106182
0.000304183
0.000406032
0.0535024
0.0547531
0.000106395
0.000191417
0.0500485
0.000116569
0.0565476
0.000123734
0.000111248
0.0270427
0.000124065
0.0253488
0.0512606
0.0130031
0.00164953
9.99777e-05
0.000106029
0.026722
0.000133127
0.000106751
0.000945617
0.000109073
9.74521e-05
0.000168994
0.047577
0.0833202
0.00227997
0.0527485
0.000306088
0.000118057
0.000114988
0.0931973
9.25555e-05
0.000117002
0.0933204
0.0266638
0.000116697
0.0512164
0.000188379
0.0500147
0.000250197
0.0778438
9.96667e-05
0.000129193
0.000108283
0.00997892
0.000111044
9.96158e-05
0.000200561
0.0285508
0.000111646
0.000119093
0.000101209
0.0926219
0.00011773
0.0254377
0.0903471
0.0295327
0.000106771
0.0569842
0.0296194
0.000211592
0.0242317
0.0783397
0.0574409
0.00012313
0.029914
0.000109138
0.000114245
0.00760215
0.000147946
0.105009
0.0978332
0.0460999
0.000574864
0.000105036
0.000106324
0.0134337
0.000114473
0.000111033
0.000205089
0.000567823
0.0851599
0.0133849
0.000118938
0.000213436
0.0493118
0.0283512
9.36847e-05
0.0459211
0.00047504
0.000106926
0.000110212
0.000218871
0.0306192
0.00010746
0.0254173
0.0514784
0.000101865
0.00054232
0.000278892
0.000111147
0.000118525
0.0503935
0.000479905
9.71694e-05
0.0305515
0.000149243
0.0679184
0.0520868
0.107116
0.0781577
0.0652133
0.000164748
0.000107265
0.000105814
0.000141844
0.000109912
0.0871928
0.00010795
0.00011361
0.0120048
0.0824112
0.100906
0.000112507
0.000106979
0.000125973
0.000143029
0.000149273
0.000448902
0.000113152
0.000111967
0.0830204
0.0759534
9.49686e-05
0.000104535
0.0417924
0.0266185
0.0121585
0.000226964
0.10115
0.000138301
0.0784064
0.0374282
9.84542e-05
0.000105882
0.0866175
0.00665936
0.000113271
0.095498
0.000106679
0.000657443
0.0545953
0.000258467
0.00165252
9.99868e-05
0.0307695
0.0320567
0.0502805
0.000106513
0.00012973
0.000104975
9.41431e-05
0.0523972
0.091894
0.000102396
0.0196571
0.0304338
0.000116479
0.102451
0.0162391
0.00011374
0.0508916
0.000570822
0.000103261
9.97676e-05
0.0763848
0.0484696
0.00011185
0.0301273
0.103918
0.0560377
0.0503275
0.0364328
0.000114886
0.0256094
0.050363
0.053785
0.000343551
0.000130162
0.0545539
0.000152387
0.000121019
0.000110753
0.000107623
0.0204962
0.0856793
0.0903883
0.00011103
0.000119743
0.0466237
0.103551
0.000120628
9.71627e-05
0.102704
0.000104031
0.0484618
0.0531273
0.000163802
0.000656404
9.73302e-05
0.000106514
0.000107441
0.000124133
0.0278366
0.00950373
0.0528367
0.000106509
0.0459587
9.38384e-05
0.0563909
0.000418127
0.000238969
9.78085e-05
0.000106379
0.0464874
0.000141818
0.0806437
0.0540629
0.000125548
0.0526697
0.0890997
0.0875344
0.0870743
0.000106758
0.0711074
0.00011567
0.000138995
0.0936886
0.0001232
9.86824e-05
0.0546057
0.000235053
0.0510152
0.000146865
0.000114563
0.0420836
0.0267088
0.0211459
0.000117528
0.000101492
0.000149307
0.000119945
0.0546558
0.000141415
0.0566687
0.0800057
0.056447
0.10234
0.0530193
0.000109055
0.030033
0.0744642
0.000103477
0.00165178
0.000111316
0.000147059
0.101651
0.0481912
0.000127582
0.000107626
0.000126243
0.000117943
0.0333754
0.0220904
0.000113951
0.000122453
0.0621328
0.000181648
0.0911297
0.000146862
0.0942604
0.0929306
0.00977622
0.000107196
0.0267084
0.0910972
0.0944431
0.0507957
0.0879714
0.000122623
0.000145971
0.0001062
0.0608681
0.000107258
0.0001122
9.67659e-05
0.0219333
0.0923122
0.000518221
0.0537134
0.00927963
0.0526779
0.00823827
0.000113519
0.0692747
0.0338961
0.000132934
9.84579e-05
0.000104157
0.00027209
0.0530521
0.000121384
0.00559005
0.000102174
0.0997077
0.000375512
0.000112449
0.000142186
0.0488881
0.0481382
0.000140901
0.000112545
9.97397e-05
0.0395638
0.0927373
0.000146071
0.0001143
0.00565735
9.67995e-05
0.000166437
0.0520918
0.000192681
0.000121699
0.00544351
0.000117494
0.0494364
0.000120207
0.00011101
0.000323475
0.00016736
0.0510447
0.000127343
0.000109982
0.0586279
0.0250767
0.000137211
0.000116249
0.000100059
0.0366153
0.0152422
0.051322
0.0713261
0.000189508
0.000114154
0.0907481
0.0289255
0.000162144
0.0938759
0.0646345
0.0259848
0.000186989
0.000116839
0.0454157
9.95787e-05
0.000195743
0.0490836
0.000115034
0.0267628
0.00011027
9.82385e-05
0.000103835
0.0513343
0.0294317
0.000142809
0.0563184
0.000191532
0.0247351
0.0505726
0.00050193
0.000148373
0.0850045
0.000111362
0.000156663
0.000114222
0.0130956
0.000107709
0.000158214
0.00123811
0.0489342
0.000137987
0.000112276
0.0628111
0.0938183
0.00021553
0.0417963
0.0258458
0.000106616
0.000148304
9.86545e-05
0.0629642
0.000297817
0.000115038
9.68725e-05
0.0919022
0.000109574
9.97186e-05
0.000102512
0.000643521
0.100564
0.000197092
0.0858469
0.0849908
0.000174589
0.0297046
9.70411e-05
9.6734e-05
0.000129629
0.0174589
0.0494531
0.000108914
0.000137393
0.000160307
9.27735e-05
0.000117189
0.000140995
0.000122147
9.67522e-05
0.0234223
0.0247856
0.0001131
0.0261629
0.000185247
0.00014201
0.0514791
9.70348e-05
0.0545538
0.00411498
9.97631e-05
0.000122947
0.000105213
0.000223256
0.000138499
0.0303378
9.94096e-05
0.000106682
0.0789008
0.0347111
0.09402
0.0443524
0.000127359
0.000118938
0.000114829
0.000112936
0.0470346
0.0814441
0.0444472
0.000299694
0.00050871
0.000321492
0.000125935
0.000142781
0.000109762
9.8485e-05
0.0890877
0.000107066
0.028919
0.000359508
0.0552994
0.000112188
0.000114278
0.000121414
0.0831616
9.68151e-05
0.101707
0.000154365
0.000127051
0.0413627
0.000120963
0.000105409
9.41417e-05
9.91705e-05
0.000285809
0.000108072
0.0279247
0.000120358
0.000215819
0.000147486
0.000218026
0.000119687
0.0841601
0.000112944
0.0912416
0.0467024
0.000122925
0.0112184
0.0557384
0.0813515
9.9177e-05
0.000137257
0.0599308
0.000113398
0.000112216
0.0820039
0.0260049
0.000327149
0.0548956
9.76376e-05
0.000420534
0.000112492
0.000214771
0.000582641
0.000138384
0.000113556
0.000331565
0.000639371
0.000108802
0.000307857
0.0466345
9.14842e-05
9.44247e-05
0.0945636
0.000526587
0.0535441
9.41565e-05
0.000143237
0.000123552
9.60878e-05
0.0456509
0.000138034
0.0477197
0.000113375
0.103705
0.000107108
0.000117498
0.000123226
0.000105914
0.0451903
0.0932983
0.0286893
0.000108433
0.000115763
0.000147138
0.000103068
0.00681306
0.0455862
0.0835685
0.000145963
0.000290229
0.0874654
0.000113805
0.000102579
0.000176617
0.0811782
9.86614e-05
0.000102991
0.00706331
0.106978
0.00038566
0.0998663
0.000115281
0.000109638
0.0501205
0.000111509
0.0252402
9.42115e-05
0.000273599
0.00011534
0.000115221
9.75983e-05
0.00910311
0.0790749
0.000130939
0.0983792
0.000130357
0.000147509
0.0181663
0.0485502
0.000108808
0.0543141
0.00754302
0.0671401
0.0398307
9.66589e-05
0.000112171
9.28471e-05
9.73179e-05
0.000120323
9.77603e-05
0.0510663
0.101475
0.000111989
0.000104462
0.000113149
9.59888e-05
0.0421458
0.000112621
0.000150363
0.00014127
0.000113
0.029959
0.000425525
0.000224903
0.0966773
0.000112648
0.0164659
0.00012494
9.68771e-05
0.000124202
0.000114284
0.000117277
0.000104095
0.000118887
0.000105486
0.000109552
0.0180605
9.39103e-05
0.000110333
0.0001851
9.51778e-05
0.000112909
0.000167965
0.000111801
0.115078
0.000106446
0.000145135
0.10224
0.0861486
0.0445324
0.00293687
0.000117785
0.0514892
0.000120598
0.00011822
0.0887846
0.000128536
0.000122311
0.000122574
0.000126674
0.0299373
0.000104971
0.0381527
0.000110075
0.10238
0.000883137
0.000174801
0.000113467
0.0222982
0.0939661
0.0525342
0.000114596
0.0326355
0.000120721
0.0529972
0.0001473
0.0476278
0.0304624
0.00372147
0.106095
0.000128414
0.0129553
9.98599e-05
0.000122883
0.00496828
0.0754957
0.000108002
0.000113393
0.00456558
0.0292281
0.0775243
0.000115924
0.0101379
0.0814314
0.0782629
0.0465178
0.000105725
0.0151992
0.0909887
0.0739847
0.000116685
0.0522908
0.000119227
9.65198e-05
0.000112892
0.000127929
0.000113707
0.000361734
0.0976122
0.000128657
0.000111493
0.000107416
0.104977
0.000149902
0.000111159
0.000922942
0.0530104
0.0259008
9.85035e-05
0.0978191
0.000146304
0.000100665
0.000109297
0.000364817
0.025801
0.000117967
0.057676
0.000335634
0.0824269
0.000455703
0.000165511
0.0868147
0.000122925
0.0342983
0.00014
9.40195e-05
0.000121097
0.000163736
9.53093e-05
0.000114547
0.000112981
0.00011685
0.0952098
9.61627e-05
0.000107934
0.101974
0.0375243
0.0219247
0.000151865
0.000108504
0.0444776
0.000105184
0.00011348
0.0253548
0.00011258
0.0557138
0.0835221
0.0513553
0.0334901
0.0908096
0.000299904
0.0839138
0.0799263
0.000112339
0.000134561
0.000120339
0.000397596
0.10239
0.000294583
0.0226502
0.000112135
0.0270417
0.000981844
0.000102438
0.097704
0.000124986
0.0415991
0.000112913
0.000110579
0.000103934
0.000144232
0.000332664
0.000108788
0.00158245
0.000115314
0.000144525
0.000113623
0.0631087
0.000121328
9.44591e-05
0.00011558
0.000315818
0.000100344
0.000123597
0.00011053
0.0260836
0.000111872
0.000107151
0.000111121
0.000678238
9.54056e-05
0.0125153
0.000130561
0.0893327
0.000105393
0.0530834
0.0263799
0.000146195
0.0955033
0.0918811
0.0689808
0.0736849
0.000106382
0.000251028
0.0530676
0.0299416
9.45785e-05
0.000116427
0.00109748
0.000108409
0.0574717
0.000106392
0.0230903
0.0535916
0.0286228
0.000115985
0.102794
0.0988903
9.76985e-05
0.0122126
0.000117983
9.50179e-05
0.0503912
0.033469
0.000120972
0.000158409
0.0636964
0.000110639
0.0808532
0.000120551
0.000342463
0.000135262
0.0883298
0.0774068
0.0651699
9.69805e-05
0.000146621
0.0928949
0.000112277
0.00693278
0.000116688
0.000100105
0.000730222
0.00276545
0.0423168
0.00420507
0.000104909
0.0483813
0.000110402
0.000113853
0.025459
0.0561676
0.0765102
0.0462879
0.0281757
0.000310176
0.0649135
0.106073
0.0240964
0.000351284
0.0689937
0.000108276
0.000108863
0.000120536
0.000157513
0.0101828
0.0210381
0.000146334
0.0956861
0.0221648
0.000133614
0.0663401
0.00011302
0.00508439
0.00019636
0.000296546
0.0448068
0.0832788
0.00012537
0.100012
0.000140038
0.000110528
0.000106943
9.64665e-05
0.00287552
0.000105578
0.000115025
0.105688
9.52192e-05
0.0485962
9.88178e-05
0.0547355
0.000352362
0.000100625
0.0804168
0.0323224
0.0256108
0.0256986
0.0549849
0.0007802
0.0576575
0.0225606
0.000194736
0.000109901
0.0267252
0.000108638
0.0264176
0.000155045
9.84421e-05
0.10308
0.000126931
0.048308
0.000143704
0.000110283
0.0344041
0.0385629
0.0523369
0.000112989
0.0557102
0.00032714
0.000159489
0.0410003
0.051301
0.000251429
0.000183578
0.000103442
0.000126593
0.000113673
0.0344254
0.0916748
9.1367e-05
0.0793708
0.0507531
0.000117952
0.000122178
0.0324771
0.00012172
0.056127
0.0526445
0.000100256
9.65364e-05
0.0121259
0.000110989
0.0133068
0.0686569
0.000115355
0.105303
0.000715876
0.000128755
0.000148453
0.000111301
0.000122798
0.000128277
0.026401
0.020907
0.000104303
0.000203846
0.0582648
9.91903e-05
0.000128427
0.000151932
0.00010754
0.000111583
0.0302529
0.000104694
0.000155282
0.0904847
0.00012813
0.0353846
0.0746929
0.0001674
0.000139282
0.000123074
0.0666647
9.35662e-05
0.000107024
0.0585244
0.0508135
0.000216238
0.0470431
0.0833188
0.089794
0.000153015
0.0615299
0.000302232
0.0541543
0.00394595
0.000110572
0.0991998
0.000122321
0.0805877
0.000146206
0.0775999
0.000111362
0.022324
0.000573599
9.8181e-05
9.91448e-05
0.000142451
0.0113203
0.000122032
0.0799781
0.0117212
0.101623
0.000121241
0.0273643
0.0264588
0.000118398
0.0518736
0.000122403
0.033445
0.0289152
0.000110582
0.0745983
0.0763197
9.81778e-05
0.0295396
9.37591e-05
0.0533796
0.000112949
0.00186337
0.0310211
0.000102338
0.0125864
0.000112583
0.000152546
0.000617173
0.000122206
0.00237948
0.0228312
0.000137432
0.000192349
0.000217685
0.000124413
0.0239178
0.000106952
0.0868446
0.0137595
0.000110202
0.0367175
0.000332153
0.0487522
0.000119079
0.000104782
0.103473
0.000377425
9.566e-05
0.0634834
0.0827946
0.000358497
0.0349716
0.000141075
0.0669214
0.000146465
0.00859261
0.0559379
0.000106399
0.0013163
0.000138007
0.0508866
0.000467946
0.000110931
0.102514
0.000136654
9.93617e-05
0.000309834
0.0945222
0.000157354
0.000100178
0.000313781
0.0639247
0.00010017
0.000364482
0.00013916
9.42489e-05
0.000129426
9.71754e-05
0.028321
0.000113628
0.0520074
9.23962e-05
0.0186521
0.000111409
0.0807649
0.00161395
0.00010468
0.000128929
0.000106339
0.000150094
0.00451389
9.49815e-05
0.0495272
0.000185554
0.000111322
0.0429294
0.106637
0.00803657
0.0261832
0.000145154
0.091502
0.0523747
0.00113265
0.0277469
0.02772
0.000118022
0.00042922
9.6932e-05
0.000203612
0.000218394
9.77487e-05
0.000179127
0.000108472
0.000129061
0.0652845
0.0792783
0.089
0.000148271
0.0328543
0.103675
0.000109932
0.000100667
0.0932311
0.00018236
0.000102347
0.0136222
0.0840909
0.0270819
0.0476267
0.095924
9.57181e-05
0.00191065
9.6916e-05
0.0125252
0.000111649
0.000192861
0.00306266
0.000502748
9.9237e-05
0.000122186
0.0455549
9.99825e-05
0.0626726
0.000118739
0.0696949
0.0634168
0.0951203
0.0754481
0.000142224
0.00024424
0.000101161
0.0513925
0.0713793
0.000692485
0.0932879
0.000114011
0.000223243
0.000121511
0.00140393
0.00010771
0.069798
0.000118052
0.102157
0.012414
0.0111589
0.0541347
0.000110634
0.000107367
0.0712328
0.000137926
0.0558831
0.000111819
0.0261747
0.000124805
0.087716
0.111091
0.000197735
0.000112534
0.000980251
0.0927545
0.00011432
0.000139141
0.000111716
0.0729285
0.000108609
0.00167114
0.0479848
0.0497732
0.0731662
0.0441057
0.000214215
0.000111218
0.0635307
0.000189813
0.000118232
0.000740688
0.000137195
0.000105871
9.38846e-05
0.000201301
0.000137246
0.0261923
0.0672669
0.000197026
0.000111175
0.000109987
0.0789314
0.0539013
0.0954608
0.000118974
0.00014429
0.03504
0.000243431
9.99667e-05
0.00271632
0.000154755
0.000111721
0.000117463
0.000264895
9.85521e-05
0.00607877
0.000345359
0.000109251
0.00012768
0.00618983
0.0924327
0.0455427
0.0114012
0.000105128
0.000108337
0.000895483
0.000106447
0.061313
0.000136105
0.000124489
0.00011216
0.000817676
0.000106956
0.000125449
0.000112664
0.000131018
0.000146342
0.0259226
0.0721081
0.101108
0.0786261
0.0842685
0.0738369
0.000162209
0.000147582
0.000145131
0.000198958
0.000122352
0.00011338
0.000122829
0.00463125
0.00423985
0.00010283
0.000111276
0.0727605
0.000332805
0.000204191
0.0301316
0.0356857
0.0739865
0.000118192
0.000107992
0.000103571
0.000134382
0.0494076
0.106404
0.0502061
0.000550297
0.000141762
0.0855848
0.0226015
9.6448e-05
0.00514425
0.000112998
0.000113849
0.000389564
0.000102155
0.000106282
0.0903073
0.0265407
0.0829545
0.0512438
0.0823916
0.000131817
0.000140405
0.0699345
0.00016091
0.000134404
0.0822693
0.0942033
0.000124048
0.000108799
0.000111668
0.000118669
0.00385189
0.000110334
0.000114721
0.000192973
0.000171911
0.000190469
0.000117839
0.000129082
0.00993066
0.000927874
0.000112256
0.00018882
0.000346305
0.00259964
0.0477839
0.000139394
0.0742791
0.000150853
0.000102002
0.030534
0.000145036
9.81321e-05
0.000111706
0.0368255
0.0221881
0.0281821
0.0812766
0.0984504
0.00598573
0.000585746
0.000105847
0.00012148
0.00191648
9.67185e-05
0.00010961
0.0862846
0.000117652
0.0625749
0.000155614
0.000130483
0.000110719
0.000158919
0.0552366
0.000183267
9.35175e-05
0.000127959
0.102009
0.000170197
9.76142e-05
0.0001082
0.0947757
0.000107801
0.0297423
0.0773476
9.84847e-05
0.043704
0.000109377
0.00011043
0.000104899
0.000107611
0.000106259
0.0859947
0.0869233
0.0480965
0.0163466
0.000110903
0.0435294
0.000119028
0.0723394
0.0552149
0.000100382
0.102067
0.00010989
0.000179906
0.000120888
0.000111344
0.000112052
0.0716669
0.0518305
0.0832629
0.0630783
0.000105896
0.000220996
0.104115
0.0929786
0.0286528
0.0612639
0.00012051
0.000108526
0.000289654
0.000127592
0.000128852
9.69647e-05
0.0624526
0.000132352
0.000148816
0.0295349
0.000106113
0.000144347
0.111368
0.000128579
0.0429733
0.000112426
0.00897914
0.0720727
0.0420763
0.0995644
0.000107042
0.0751268
0.000203607
0.000144624
9.1636e-05
0.0473548
0.000115735
0.000147249
0.0997614
0.000145366
0.0816205
0.000106347
0.0117794
0.000189661
0.00238953
0.000135025
0.0341389
9.47321e-05
0.000145176
0.000111014
0.000119779
0.000105763
0.104297
0.00104409
0.0488896
0.00104963
0.000184199
0.000117721
9.85509e-05
0.0865078
0.000109759
0.000124016
0.107314
0.000109293
0.101393
0.0940568
0.0916854
0.000218668
0.000111882
0.06292
0.041333
9.7824e-05
0.000105273
0.0846436
0.00568273
0.0719673
0.000122546
9.95319e-05
0.000111509
0.0822881
0.00617462
9.73343e-05
0.0199029
0.104886
0.000112203
0.000117569
9.77719e-05
0.000104728
9.73853e-05
0.000100495
0.0714425
0.0763711
0.025751
0.00012467
0.000105877
0.00194916
0.00224586
0.000118226
0.0502055
0.000103229
0.000124516
0.000111501
9.31755e-05
9.81339e-05
0.00155462
0.000112935
0.0179237
0.0967929
0.00010014
0.000188667
0.0180956
0.000155598
9.89857e-05
0.0918883
0.000108667
0.000104921
0.000127223
0.000112112
0.0516269
0.0301285
0.000167091
0.000147312
0.0979439
0.0928487
0.000110149
0.000138122
0.0959464
0.0961648
0.0481119
0.0782947
0.0927369
9.90401e-05
9.5368e-05
0.000105997
0.0268788
0.000110458
0.0344308
0.079524
0.00191213
0.000119632
0.106036
0.078603
0.000130572
0.00011806
9.59904e-05
0.0294819
0.000120328
0.0375424
9.87136e-05
0.087545
0.000114122
0.0950485
0.024876
0.018017
0.000122463
0.090782
0.000121894
0.000116058
0.0922143
0.000116304
0.000112546
0.00010106
0.000131763
0.0190068
9.80004e-05
0.00621946
0.00010731
0.052642
0.0746595
0.000119108
0.000707668
9.95685e-05
0.000127266
0.0802173
0.0684899
0.0862973
0.0288313
0.100138
0.00168576
0.0907994
0.0524656
0.000121264
0.000110439
9.35302e-05
0.000121545
0.000118535
0.0939331
0.0957062
0.000108306
0.000129246
0.000136079
0.0791359
0.00010628
9.62084e-05
0.0847717
9.9458e-05
0.000372721
0.000112654
0.000141368
0.00014832
0.0167352
9.36787e-05
0.000653636
0.00039974
0.000119593
0.000113198
0.000101904
0.000107486
0.000110057
0.0835006
0.054883
0.000135084
0.0489795
0.0532472
0.000130132
0.000137724
0.0949294
0.000235883
0.0959646
0.000108693
0.00203265
0.000125669
0.0485566
0.000113766
0.000958135
0.000148269
0.000130079
0.000142946
0.066702
0.106473
0.0461343
0.000138054
0.0433809
0.0385441
0.107081
0.000119293
0.000110864
0.0219663
0.0486275
0.000112258
0.0978395
0.000103744
0.0449402
0.0970379
0.0491636
0.000104837
0.000111425
0.0819867
0.0604888
0.0158649
0.00010198
0.000126132
9.84706e-05
0.000123796
9.75177e-05
0.000188713
0.000112081
0.000108088
0.0398874
0.0497705
0.01703
0.000111341
0.000102202
0.090119
0.0435658
0.000111779
0.0962669
0.0779942
9.46156e-05
0.0947513
0.0449472
0.0349652
0.0815148
0.000124499
0.0869158
0.00017559
0.000231339
0.000161031
0.000111145
0.0415636
0.0524763
0.0815631
0.000309553
0.000117083
0.0534415
0.000165487
0.000138868
0.0251368
0.000111649
0.000298083
0.000104044
0.000116582
0.0480931
0.000104783
0.000217657
0.000115344
0.0816848
0.000233113
0.000111997
0.000110707
0.000127018
0.000124065
0.0954965
0.000112781
0.000122007
0.000105874
0.0118411
0.000657965
0.0276538
0.0610131
0.000108702
0.000120909
0.00011646
0.00018009
0.000111318
0.0767592
0.0901233
0.00012162
0.000211143
0.000126569
0.000116529
0.000122034
0.00012603
0.094805
0.000112579
0.00011473
0.0663743
0.000131487
0.000104572
0.1053
0.0001115
0.0924686
0.0507523
0.0929561
0.0928726
0.0011269
0.024591
0.0266582
0.000102627
0.0344304
0.000122513
0.000131236
0.000105581
0.069836
9.84097e-05
9.45744e-05
0.0969935
0.0939614
0.106583
0.000100239
0.000111962
9.59846e-05
0.000112341
0.000419212
0.000116355
0.000103683
0.0474773
0.0494048
0.0577193
0.0936291
0.041514
0.000359412
9.54928e-05
0.000137542
0.0530912
0.00010832
0.000119937
0.0975188
9.81063e-05
0.000113721
9.7874e-05
0.000128869
0.000131383
9.51897e-05
0.107093
0.02917
0.000137828
0.000262187
0.000230527
0.0537823
0.000111239
0.000112116
0.000105587
0.000108295
0.0610627
9.39044e-05
0.000108503
0.000146582
0.0504294
0.000112804
0.000112251
0.0258598
0.000104564
0.000146995
0.000126111
9.14738e-05
9.52139e-05
9.27778e-05
0.00010817
0.000110324
0.00011813
0.000354482
0.000128211
0.107222
0.000116776
0.0557855
0.000112317
0.000107369
9.87552e-05
0.000143846
0.000109015
0.00223325
0.0977987
0.000116092
0.050889
0.000112185
0.067345
0.000100598
0.000108366
0.00012098
0.0558628
0.0906975
0.0297318
0.0994279
9.97926e-05
9.57864e-05
0.0265732
0.00067869
0.000297088
0.000112556
0.000111144
0.000271018
0.00015249
9.76092e-05
0.00357089
0.0969661
0.000103633
0.101224
0.0287267
0.0530463
0.000146246
0.0275939
0.0893244
0.000114787
9.62309e-05
0.000124265
0.000105662
0.0861484
0.000107157
0.00117738
0.0625719
0.0421411
0.0444031
0.00022498
0.000120613
0.00516907
0.0864376
0.000176805
0.000541326
9.74923e-05
0.0026181
0.000131317
0.0209927
0.0139343
9.40575e-05
9.81572e-05
9.63052e-05
0.0650628
0.000109855
0.000150082
0.0511735
9.46998e-05
0.0358657
9.99397e-05
9.61554e-05
0.000207249
9.92732e-05
0.0457013
0.000134585
0.0728432
0.000111029
0.0550348
0.000771795
0.100648
0.000108411
9.28747e-05
0.000108537
0.000120692
0.000108355
0.00411078
0.00384534
0.107093
0.0844775
0.0145886
0.00158378
0.000128227
0.000103272
9.8757e-05
9.52462e-05
0.000110727
0.0899606
0.000119385
0.0486919
0.0001159
0.0701214
0.0478796
0.000108472
0.000112786
0.000210647
0.106549
0.000113733
0.000112518
0.000120411
0.0896737
0.0580313
0.0355933
0.00826232
9.15585e-05
0.0264691
9.86496e-05
0.0805666
0.0898731
0.000112436
0.000111702
9.40695e-05
0.0294395
0.0320225
0.000110358
0.0865177
0.0238286
0.00025341
0.0484786
0.000103511
0.0650417
0.00184699
0.0790495
0.000153055
0.0397488
0.00033294
0.0530016
0.000117888
0.000105474
0.0551546
0.0241626
0.0114235
0.000101397
0.101684
0.0324618
0.000101591
9.88011e-05
0.000104417
0.000141189
0.000108708
0.000127299
0.00010563
0.000108282
0.0897505
0.0262803
0.000127022
0.0280851
0.0904521
0.0281442
0.000110973
0.000106356
0.000112029
0.0873758
0.0854949
0.032883
0.0609215
0.000172829
0.00106882
0.0224506
0.000142488
0.000116053
0.000144203
0.0767156
0.000134673
0.0817717
0.000353866
0.0115506
0.020188
0.09241
0.0920279
0.000112205
0.000213387
0.0970867
0.0586349
0.0936663
0.0485233
0.000111744
0.0313263
0.0539386
0.0507793
0.00374593
0.040523
0.000212271
0.000115262
0.00404394
0.0916643
0.000116067
9.93149e-05
0.0326753
0.000292836
9.73554e-05
0.0667668
0.0939643
0.0270333
0.0799391
0.059462
0.0995368
0.0887503
0.000137132
0.0599546
0.0893043
0.0881798
0.100123
0.087539
0.000441013
0.0916686
0.100138
0.000115225
0.000111338
0.000110114
0.000605828
0.001626
0.0909171
0.0791407
0.078098
0.000208535
0.0988578
0.000854777
0.000107764
0.0380223
0.000109718
0.0312953
0.000117278
0.00724549
0.0852528
0.000106304
9.52517e-05
9.93809e-05
0.00012395
0.000118296
0.000115588
0.0119118
0.000111647
0.000348912
0.0597296
0.000118762
0.0268566
9.54382e-05
0.106827
0.000662885
0.0001183
0.0892418
0.000110991
0.000184299
0.0420385
0.0874246
0.0368166
0.0199735
0.000185049
0.000117343
0.00907203
0.00465209
0.0313487
0.000102317
0.056667
0.000131234
0.0838793
0.0282967
0.000111705
0.00122739
0.000103794
0.000115259
0.0376122
0.000127367
0.00010982
0.0985888
0.000112351
0.0999602
0.000116018
0.0470306
0.0573081
0.000115579
0.0570198
0.000141608
0.000397978
0.000117028
0.0310301
0.000107133
0.070032
0.00011568
9.89743e-05
0.000379153
0.000117909
0.000111035
0.000101345
0.000184005
0.0591014
9.77825e-05
0.103309
0.0934172
0.000322534
0.106448
0.09446
0.000216371
0.000104412
0.00498463
0.0517556
0.0815317
9.82714e-05
0.000118033
9.51408e-05
9.51304e-05
0.000113326
0.0930845
0.0175366
0.000391854
0.0252009
0.000188636
0.0518148
0.000107327
0.000240754
0.000490379
9.90326e-05
0.0348782
0.000134247
0.0195545
0.0220768
0.109734
9.40061e-05
0.0553015
0.000109716
9.94554e-05
0.0869633
0.000128041
0.000155393
0.000112736
9.88535e-05
0.053419
0.000121326
0.000143267
0.000101117
0.0562232
0.000105278
0.000111634
9.62017e-05
0.000328258
0.0022672
0.000185431
0.000119162
0.00175908
0.000110442
0.000145407
0.000109789
0.000151792
0.0253183
0.000104049
0.000241679
0.000467466
0.000103735
0.10344
0.096288
0.000137785
0.000401415
0.0729388
0.0679278
0.00774029
0.000407706
0.000415843
0.000113953
0.000135624
0.000112324
0.0816832
0.0806313
0.0886659
0.000103141
0.000131531
0.0580147
0.000138016
0.0736797
0.00010507
0.0563085
0.000111344
0.0468438
0.00010419
0.0151729
0.085075
0.00012675
0.000106105
0.000109925
0.000105821
0.000648795
0.0878452
0.0725858
0.000136949
0.000130203
0.0333652
0.0329377
9.60772e-05
0.0832554
0.0800393
0.000312197
0.000110236
0.0997167
0.000222969
0.000103124
0.0709064
0.0402228
0.0740653
0.0849573
0.0518802
0.000668341
0.0359812
0.000105572
0.000136255
0.00011197
0.000111808
0.000102573
0.077915
0.0851909
0.000112742
0.00618738
0.0343455
0.0543974
0.0544067
0.0800317
0.0817426
0.000111206
0.0392737
0.0907664
9.77365e-05
0.000223293
0.00010599
0.058614
0.0368577
0.000116842
0.000119236
0.0363266
0.000112249
0.00010064
0.000112212
0.000117173
0.0986666
9.62664e-05
0.090208
0.000146922
0.0381577
0.000134932
0.000994339
0.0854235
0.0835246
0.00012001
0.000375798
0.0350507
9.84963e-05
0.0385096
0.0799923
0.0373108
0.000987415
0.102862
0.000390003
0.000108283
0.000144008
0.000137291
0.0120533
0.00166824
0.0784878
0.000121027
0.000539844
0.000101105
0.0972544
0.000119906
0.100533
0.0935078
0.000132365
0.0309453
0.000103897
0.000113418
0.000112581
0.000103951
0.000113223
0.00011703
9.76062e-05
0.0001524
0.000142301
0.0203923
0.000119219
9.62483e-05
0.00102323
0.000705041
0.000100769
0.000113771
0.000107366
0.101623
0.0729038
0.00012984
0.000138533
0.0097757
0.000126577
0.000103441
0.0157153
0.0361645
0.0799645
0.000118041
0.000157818
9.89649e-05
0.106255
0.000299031
0.0001038
0.0990158
0.000111028
0.000109404
0.000103387
0.105353
9.61757e-05
9.68884e-05
0.0798638
0.103379
0.0501298
0.000112824
0.101247
0.000112879
0.000116027
0.051104
9.9881e-05
0.0838657
0.0927222
0.000111212
0.000102745
9.87622e-05
0.0436475
0.00327646
0.107073
0.000111078
0.00225632
0.000104411
0.0278817
0.000116589
0.000234051
0.0860609
0.00264925
0.000117187
0.0223306
0.0299979
0.0895855
0.00215958
0.000116623
9.34946e-05
0.000818955
0.0437648
0.000374712
0.000102696
0.000151356
0.0972037
9.7849e-05
0.000107191
0.0945136
0.0337784
0.0001182
0.00262102
0.0266287
9.82593e-05
0.000136303
0.0215295
0.000126585
0.000118433
0.0730448
0.000222821
0.0472153
0.000117443
0.00296903
0.000120448
0.00011858
0.000136021
0.000272664
0.0779224
0.0754101
0.0360105
9.62569e-05
0.000230475
0.000137752
0.000101545
0.0756513
0.0489022
0.000201246
0.0620953
0.0739194
0.000108775
0.000105718
0.0259378
0.00026661
0.000120462
0.000136172
0.00825083
0.00338587
0.00401271
0.00011038
0.000106003
0.000103454
0.00761211
0.000112166
0.000102911
0.000179875
0.000120819
9.57615e-05
9.94779e-05
0.0758845
0.0903939
0.00309754
0.00014634
0.000110914
0.0559687
0.00123108
0.000106141
0.000182098
0.000128844
0.106867
0.000102531
0.000186707
0.000103491
0.000544627
0.000104424
0.000112423
0.000119669
0.00020956
0.000131673
0.000122908
0.000117065
0.000111923
0.000111664
0.033064
0.037716
0.090383
9.58568e-05
0.000108359
0.000107741
0.000108962
0.00394621
9.82138e-05
9.88115e-05
0.00601037
0.090721
0.000104442
0.000110842
0.103768
0.000106126
0.000214432
0.038927
0.000126043
0.000166539
0.0668601
0.0996989
0.000152667
0.000106193
0.0733142
0.00113392
9.7065e-05
0.0275575
0.0987784
9.62707e-05
0.0997425
0.000105757
0.000183611
0.0541208
0.0870991
0.000117197
0.000116585
0.000118323
0.0957836
0.00163661
0.0961431
9.31023e-05
0.000154306
0.000111204
0.0503459
0.0786347
0.000115541
0.0341297
9.44574e-05
0.000117943
0.000109666
0.00141843
0.0960256
9.45637e-05
0.000141732
0.000109012
0.0515393
0.00234929
0.000119446
0.000115413
0.0521179
0.00783322
0.000163418
0.00023709
0.0770738
0.000147243
0.0484285
0.000122917
0.0867132
0.000224686
0.025738
0.0739295
0.0788959
0.00171321
0.000111303
0.000180908
0.0506247
0.0207612
0.0770725
0.000238319
0.04967
9.5973e-05
0.0844046
0.100688
0.00010019
0.00165486
9.56924e-05
0.0146031
0.000104817
9.47535e-05
0.00168774
0.000291349
0.000108702
9.82379e-05
0.000156554
0.000102834
0.000117638
0.000234496
0.000113074
0.000147355
0.0636234
0.000104187
0.0512525
0.0834037
0.000105294
0.03501
0.000130732
0.0286721
0.000104277
0.000110897
0.000148796
0.0911922
0.000112023
0.0509327
0.000421189
0.000148238
0.000119114
0.101213
0.100265
0.000127931
0.0304268
0.0494443
0.0317322
0.000128754
0.000173309
0.0429644
0.000103663
0.00228558
0.0947053
0.000127734
0.000107563
0.000182325
0.000729074
0.000122234
0.00014432
0.0678083
0.0593423
9.94299e-05