/*--------------------------------*- C++ -*----------------------------------*\
| =========                 |                                                 |
| \\      /  F ield         | OpenFOAM: The Open Source CFD Toolbox           |
|  \\    /   O peration     | Version:  v2012                                 |
|   \\  /    A nd           | Website:  www.openfoam.com                      |
|    \\/     M anipulation  |                                                 |
\*---------------------------------------------------------------------------*/
FoamFile
{
    version     2.0;
    format      ascii;
    class       volScalarField;
    location    "400";
    object      k_0;
}
// * * * * * * * * * * * * * * * * * * * * * * * * * * * * * * * * * * * * * //

dimensions      [0 2 -2 0 0 0 0];


internalField   nonuniform List<scalar> 
14315
(
0.0777208
0.0905019
0.000108873
0.000151702
0.000211202
0.000101373
0.0813619
0.000111778
0.000115426
0.000109231
0.000230245
0.0284289
0.0884991
9.70863e-05
0.0295756
0.000119132
0.000111625
0.000123107
0.00012736
0.000124657
0.00012076
0.104651
0.000119995
0.0290603
0.000174527
0.0898111
0.00012633
0.0827471
0.000136075
0.000287079
0.000103095
0.000121586
9.63933e-05
0.0922042
0.0812328
0.10481
0.00435134
0.000111115
0.00044529
0.000222584
0.0127551
0.0323939
0.000111818
0.000106344
0.000114094
0.000161795
0.00014639
0.0233048
0.0259939
0.0001242
0.0211276
0.000151509
0.0288032
0.027127
0.0001
0.105935
0.0367683
0.000116375
0.000118239
0.000108835
0.000420203
0.084336
0.105474
0.000118691
0.000306031
0.00889954
0.0936974
0.000137633
0.000119505
0.00010016
0.0276597
0.000115072
0.084236
0.0360958
0.000116203
0.0791943
0.000105346
0.106259
0.000113567
9.20179e-05
0.000107401
0.0475731
0.000114158
0.10685
0.00012012
9.38484e-05
0.0921684
0.0263887
0.0262083
0.000232072
0.00010732
0.000172283
0.000106894
9.52348e-05
0.0314345
0.0519551
0.000111932
0.0486668
0.0747385
0.000287495
0.000138113
0.0255035
0.10445
0.000106182
0.000307017
0.00040565
0.053494
0.0547506
0.000106395
0.000191499
0.0500477
0.000116569
0.0565379
0.000123733
0.000111249
0.027043
0.000124065
0.0253477
0.0512633
0.0130033
0.00166038
9.9978e-05
0.00010603
0.0267221
0.000132997
0.000106751
0.000942169
0.000109073
9.74515e-05
0.000168875
0.0475762
0.0833236
0.0022898
0.0527496
0.000305916
0.000118057
0.000114985
0.0931967
9.25551e-05
0.000117002
0.09332
0.0266643
0.000116692
0.0512206
0.000188378
0.0500138
0.000250186
0.0778168
9.96674e-05
0.000129227
0.000108285
0.00997766
0.000111044
9.9616e-05
0.000200548
0.0285495
0.000111645
0.000119093
0.000101209
0.0926225
0.000117732
0.0254355
0.0903209
0.0295319
0.000106772
0.0569815
0.029619
0.000210445
0.0242207
0.0783447
0.0573819
0.000123129
0.0299138
0.000109136
0.000114244
0.0076208
0.000147947
0.105017
0.0978372
0.0460991
0.000576603
0.000105037
0.000106324
0.0134091
0.000114474
0.000111033
0.000204962
0.000566275
0.0851675
0.0133368
0.000118937
0.000212561
0.0493127
0.0283844
9.3685e-05
0.0459381
0.000475795
0.000106925
0.000110213
0.000220321
0.0306195
0.000107458
0.0254166
0.0514794
0.000101864
0.000544872
0.000279531
0.000111148
0.000118526
0.0503939
0.00047766
9.7168e-05
0.030552
0.000149238
0.0679191
0.0520946
0.107099
0.0781587
0.0652138
0.000164685
0.000107263
0.000105814
0.000141844
0.000109911
0.0871901
0.00010795
0.00011361
0.0119775
0.082417
0.100852
0.000112507
0.00010698
0.000126019
0.000143029
0.000149273
0.000452108
0.000113152
0.000111967
0.0830227
0.0759483
9.49688e-05
0.000104536
0.0417702
0.0266193
0.012161
0.000226116
0.101153
0.000138301
0.0784011
0.037483
9.84539e-05
0.000105883
0.0865894
0.00666533
0.000113271
0.0954993
0.000106678
0.000658205
0.0545875
0.000258723
0.00169379
9.99874e-05
0.0307695
0.0321004
0.0502742
0.000106512
0.000129731
0.000104977
9.41424e-05
0.0523978
0.0918957
0.000102397
0.0196283
0.0304341
0.000116478
0.102453
0.0162394
0.00011374
0.0508882
0.000569469
0.000103262
9.97668e-05
0.07638
0.0484729
0.000111852
0.0301263
0.103927
0.0560271
0.0503285
0.0364409
0.000114886
0.0256121
0.0503639
0.0537794
0.000342866
0.00013016
0.0545513
0.00015238
0.000121017
0.000110753
0.000107623
0.0204973
0.0856599
0.090391
0.000111031
0.000119743
0.0466229
0.103559
0.000120627
9.71625e-05
0.102709
0.000104031
0.0484685
0.0531257
0.000163799
0.000649816
9.73302e-05
0.000106513
0.000107442
0.000124133
0.0278369
0.00954283
0.0528371
0.000106509
0.0458897
9.38384e-05
0.0563881
0.000418731
0.000236271
9.78082e-05
0.000106378
0.0464876
0.00014182
0.080646
0.0540894
0.000125545
0.0526706
0.0890704
0.0875078
0.0870756
0.000106757
0.0710686
0.00011567
0.000138995
0.093702
0.0001232
9.86827e-05
0.0545281
0.000235009
0.0510147
0.000146863
0.000114559
0.0420829
0.0267095
0.0211525
0.000117528
0.000101492
0.000149308
0.000119945
0.0546566
0.000141511
0.0566609
0.0799763
0.056441
0.102344
0.0530103
0.000109054
0.0300338
0.0744596
0.000103478
0.00166813
0.000111316
0.00014706
0.101654
0.0481914
0.000127583
0.000107627
0.000126243
0.000117942
0.0333404
0.0220917
0.000113952
0.000122453
0.0620781
0.000181709
0.0911301
0.000146861
0.0942614
0.0929311
0.00988966
0.000107197
0.0267075
0.0910693
0.0944506
0.0507944
0.087973
0.000122636
0.000145974
0.0001062
0.0608668
0.000107259
0.000112202
9.67661e-05
0.0219321
0.0923133
0.000516375
0.0537142
0.00933047
0.0526701
0.00824625
0.000113519
0.0692754
0.0338948
0.000132933
9.84584e-05
0.000104157
0.000271903
0.0530507
0.000121384
0.0055911
0.000102174
0.0997481
0.000376211
0.000112451
0.000142187
0.0488918
0.048141
0.0001409
0.000112545
9.97393e-05
0.0395608
0.092738
0.000146069
0.000114301
0.00580393
9.67992e-05
0.000166438
0.0520923
0.00019267
0.000121698
0.00545826
0.000117495
0.0494368
0.000120207
0.00011101
0.0003229
0.000167248
0.0510488
0.000127347
0.000109982
0.0585626
0.0250772
0.00013721
0.000116249
0.000100058
0.0366155
0.0151673
0.0513258
0.0713268
0.000189375
0.000114152
0.0907467
0.0289245
0.000162144
0.0938773
0.0646563
0.0259863
0.000186943
0.000116839
0.0454149
9.95797e-05
0.000195837
0.0490831
0.000115033
0.0267632
0.000110268
9.82384e-05
0.000103834
0.0513337
0.0294322
0.000142809
0.056335
0.000191609
0.0247347
0.0505716
0.000499886
0.000148372
0.0850056
0.000111362
0.000156646
0.000114223
0.0130339
0.000107709
0.000158208
0.00123003
0.0489333
0.000137988
0.000112277
0.0628302
0.0938173
0.00021505
0.0418075
0.0258452
0.000106616
0.000148301
9.86553e-05
0.0629971
0.000298199
0.000115036
9.68721e-05
0.0919016
0.000109572
9.97198e-05
0.000102513
0.000644369
0.100572
0.000196633
0.0858482
0.0850081
0.000174608
0.0297039
9.70405e-05
9.67333e-05
0.000129576
0.0174653
0.0494524
0.000108913
0.000137394
0.000160311
9.27724e-05
0.000117189
0.000140971
0.000122148
9.67527e-05
0.0233933
0.0247845
0.0001131
0.0261623
0.000185173
0.000142011
0.0514739
9.70342e-05
0.0545548
0.00418688
9.97637e-05
0.000122948
0.000105213
0.000223083
0.000138498
0.0303385
9.94108e-05
0.000106681
0.0789025
0.0346833
0.0940181
0.0443134
0.000127382
0.000118938
0.000114829
0.000112936
0.0470349
0.0814551
0.0444464
0.000300008
0.000507421
0.000321574
0.000125937
0.000142778
0.00010976
9.84842e-05
0.0890789
0.000107066
0.0289185
0.000357947
0.0553013
0.000112188
0.000114277
0.000121415
0.0832203
9.68152e-05
0.101709
0.000154363
0.000127051
0.0413735
0.000120962
0.000105409
9.41417e-05
9.917e-05
0.000285705
0.000108071
0.0279243
0.000120359
0.000215694
0.00014748
0.00021806
0.000119687
0.0841726
0.000112943
0.091244
0.0467034
0.000122922
0.0113217
0.0557279
0.0812769
9.9178e-05
0.000137257
0.0599644
0.000113398
0.000112214
0.082115
0.0260046
0.000327727
0.0548966
9.76383e-05
0.000407682
0.000112494
0.000214621
0.000598566
0.000138384
0.000113556
0.000330482
0.000636532
0.000108801
0.000308059
0.046634
9.1484e-05
9.44256e-05
0.0945654
0.000536219
0.0535443
9.41563e-05
0.000143239
0.000123551
9.60888e-05
0.0456501
0.000138033
0.0477188
0.000113375
0.103707
0.000107107
0.0001175
0.000123227
0.000105915
0.0451863
0.0932947
0.028689
0.000108433
0.000115762
0.000147139
0.000103069
0.00683587
0.0456093
0.0835693
0.000145969
0.000289973
0.0874328
0.000113804
0.000102579
0.000176613
0.0811803
9.86608e-05
0.000102992
0.00710873
0.106983
0.000385079
0.0999048
0.000115281
0.000109638
0.050121
0.00011151
0.025239
9.42121e-05
0.000273681
0.00011534
0.00011522
9.75973e-05
0.00914439
0.0790701
0.000130938
0.0984265
0.000130357
0.000147509
0.0181555
0.0485537
0.000108808
0.0543142
0.00764844
0.0671655
0.0398003
9.66587e-05
0.000112171
9.28471e-05
9.73182e-05
0.00012032
9.77603e-05
0.0510148
0.101478
0.000111988
0.000104463
0.000113148
9.59897e-05
0.0421451
0.000112621
0.000150362
0.000141266
0.000113001
0.0299598
0.000420248
0.000225186
0.0966793
0.000112648
0.0164651
0.000124942
9.6877e-05
0.0001242
0.000114284
0.000117279
0.000104095
0.000118886
0.000105485
0.000109552
0.0180625
9.391e-05
0.000110332
0.000185084
9.51781e-05
0.00011291
0.000167904
0.000111801
0.115161
0.000106446
0.000145134
0.102243
0.0861581
0.0445318
0.00294209
0.000117786
0.0514901
0.000120599
0.000118219
0.0887172
0.000128536
0.000122312
0.000122577
0.000126678
0.0299369
0.000104971
0.0381346
0.000110073
0.102382
0.000909859
0.00017482
0.000113467
0.0222987
0.0939624
0.0525352
0.000114595
0.0326111
0.000120717
0.0529881
0.000147305
0.0476279
0.030464
0.00372749
0.106078
0.000128414
0.0129545
9.98603e-05
0.000122884
0.00499856
0.0754913
0.000108002
0.000113393
0.00457151
0.0292287
0.0775474
0.000115925
0.0100968
0.0814263
0.0782611
0.0465109
0.000105724
0.0152152
0.0909877
0.0739815
0.000116684
0.0522879
0.000119219
9.652e-05
0.000112893
0.000127924
0.000113705
0.000361566
0.0976178
0.000128656
0.000111492
0.000107416
0.10498
0.000149841
0.000111159
0.000910882
0.0530114
0.0259014
9.85029e-05
0.0978174
0.000146305
0.000100664
0.000109297
0.000375542
0.0258015
0.000117967
0.0576736
0.000335899
0.0824273
0.000455641
0.000165491
0.0868153
0.000122926
0.0342791
0.000139997
9.40186e-05
0.000121096
0.000163732
9.53101e-05
0.000114547
0.00011298
0.000116852
0.0952516
9.61635e-05
0.000107934
0.101979
0.0375247
0.0219272
0.000151683
0.000108504
0.0444769
0.000105184
0.000113481
0.0253545
0.000112578
0.055711
0.0835229
0.0513557
0.0334577
0.0908093
0.000299684
0.0838264
0.0799263
0.000112339
0.00013456
0.000120339
0.000407884
0.102392
0.000295274
0.0226485
0.000112136
0.0270454
0.000985763
0.000102438
0.0976674
0.000124998
0.0415997
0.00011291
0.000110579
0.000103934
0.000144232
0.000332999
0.000108788
0.00158265
0.000115315
0.000144528
0.000113623
0.063126
0.00012133
9.44591e-05
0.000115579
0.000315545
0.000100344
0.000123588
0.000110529
0.0260853
0.000111873
0.000107153
0.000111123
0.000679482
9.54059e-05
0.0125141
0.000130563
0.0893356
0.000105392
0.0530844
0.0263801
0.000146195
0.0954724
0.0918822
0.0689936
0.0736807
0.000106382
0.000251145
0.0530622
0.0299418
9.45786e-05
0.000116425
0.00111194
0.000108408
0.0574768
0.000106392
0.0230919
0.0535898
0.0286224
0.000115986
0.1028
0.0988935
9.76977e-05
0.0122111
0.000117982
9.50182e-05
0.0503917
0.0334356
0.000120976
0.000158404
0.0636881
0.000110639
0.0808503
0.000120551
0.000342449
0.00013526
0.088304
0.0774243
0.0652185
9.69794e-05
0.000146621
0.092894
0.000112275
0.00693066
0.000116695
0.000100105
0.000729548
0.00280848
0.0423148
0.00418055
0.000104909
0.0483764
0.000110402
0.000113853
0.0254531
0.0561485
0.0765053
0.0462887
0.0281434
0.000310423
0.064838
0.10608
0.0240965
0.000351205
0.0689292
0.000108277
0.000108862
0.000120537
0.00015746
0.010182
0.0210407
0.000146333
0.0956796
0.0221358
0.000133615
0.0663568
0.000113018
0.00508455
0.000194963
0.000296236
0.0447947
0.083243
0.00012537
0.100018
0.000140033
0.000110527
0.000106943
9.64668e-05
0.00282452
0.000105578
0.000115025
0.105689
9.52194e-05
0.048601
9.8818e-05
0.0547331
0.000351633
0.000100626
0.0804172
0.032322
0.0256121
0.0256994
0.0549825
0.000773669
0.0576489
0.0225586
0.000194722
0.000109902
0.0267269
0.000108638
0.0264
0.000155042
9.84416e-05
0.103086
0.000126934
0.0483084
0.000143706
0.00011028
0.0344045
0.038563
0.0523369
0.000112989
0.0557129
0.000325734
0.000159241
0.0409816
0.0512995
0.000251563
0.000183698
0.000103442
0.000126595
0.000113672
0.0344258
0.0916749
9.13668e-05
0.0793815
0.0507569
0.000117954
0.000122179
0.0324773
0.00012172
0.0561562
0.0526392
0.000100256
9.65368e-05
0.0121304
0.000110988
0.0132434
0.0686581
0.000115355
0.105307
0.000727252
0.000128752
0.000148453
0.000111301
0.000122797
0.000128276
0.0264012
0.0208995
0.000104303
0.000204002
0.0582628
9.91914e-05
0.000128428
0.000152272
0.00010754
0.000111582
0.0302533
0.000104694
0.000155312
0.0904849
0.000128129
0.0353558
0.0746891
0.000167633
0.000139281
0.000123075
0.0667083
9.35661e-05
0.000107025
0.0585516
0.0508142
0.000216205
0.0470194
0.0833265
0.0897929
0.000153003
0.0615513
0.000306585
0.0541544
0.0040452
0.000110572
0.0992012
0.000122321
0.0806084
0.000146206
0.0776583
0.000111363
0.0223218
0.000570568
9.81813e-05
9.91464e-05
0.000142453
0.0113378
0.000121996
0.079974
0.0117204
0.101625
0.000121235
0.0273639
0.0264596
0.000118397
0.051877
0.000122402
0.0334119
0.0289153
0.000110581
0.0745981
0.076322
9.81779e-05
0.0295397
9.37593e-05
0.0533814
0.000112949
0.00175827
0.030976
0.000102339
0.0126293
0.000112585
0.00015257
0.000622649
0.000122206
0.00237845
0.0228327
0.000137436
0.000192335
0.000217673
0.000124413
0.0239175
0.000106952
0.086818
0.0138059
0.000110201
0.0366861
0.000332438
0.0487531
0.000119079
0.000104783
0.1035
0.000375325
9.56622e-05
0.0634845
0.082755
0.000358093
0.0349724
0.00014085
0.0668841
0.000146465
0.00861
0.0559357
0.000106399
0.00131042
0.000138008
0.0508868
0.000464426
0.00011093
0.102544
0.000136651
9.93616e-05
0.000309534
0.0945783
0.00015731
0.000100178
0.00031364
0.0639259
0.00010017
0.000363529
0.000139156
9.42489e-05
0.000129427
9.71745e-05
0.0283218
0.000113628
0.0520076
9.23968e-05
0.0186596
0.00011141
0.0807746
0.00163562
0.000104681
0.000128923
0.00010634
0.000149855
0.00450928
9.49823e-05
0.049528
0.000185721
0.000111323
0.0429294
0.106629
0.00806899
0.0261836
0.000145154
0.0914975
0.0523764
0.00114057
0.0277466
0.0276987
0.000118024
0.000415825
9.69325e-05
0.000203264
0.000218371
9.77482e-05
0.000179161
0.000108473
0.000129061
0.065284
0.0792349
0.0890001
0.000148282
0.0328354
0.10371
0.000109932
0.000100666
0.0932308
0.000182044
0.000102347
0.0136988
0.0840933
0.0270826
0.0476262
0.095923
9.57192e-05
0.00194391
9.69165e-05
0.0125233
0.000111649
0.00019279
0.00306512
0.00050069
9.92374e-05
0.000122185
0.0455543
9.9983e-05
0.0626714
0.000118753
0.0696975
0.0634161
0.0950431
0.0754487
0.000142259
0.000244638
0.000101161
0.0513931
0.0713808
0.000691148
0.0932817
0.000114011
0.000223576
0.000121512
0.00141305
0.000107711
0.0698186
0.000118052
0.10216
0.0124123
0.0111891
0.0541326
0.000110634
0.000107366
0.0711799
0.000137926
0.055833
0.00011182
0.0261733
0.000124805
0.087702
0.111052
0.000197719
0.000112532
0.000973201
0.0927496
0.000114319
0.000139157
0.000111715
0.0729248
0.00010861
0.00167528
0.0479814
0.0497738
0.0731659
0.044105
0.000215765
0.00011122
0.063502
0.000188767
0.000118234
0.000735645
0.000137195
0.000105872
9.38843e-05
0.000201299
0.000137248
0.0261669
0.0672146
0.00019699
0.000111176
0.000109987
0.0788651
0.0538987
0.0954573
0.000118974
0.000144289
0.0350075
0.000243411
9.99668e-05
0.00273538
0.000154753
0.000111723
0.000117464
0.000264644
9.85522e-05
0.00617179
0.000346057
0.000109251
0.00012768
0.00619346
0.0924323
0.0455274
0.011401
0.000105129
0.000108336
0.000888932
0.000106447
0.0612436
0.000136219
0.000124489
0.00011216
0.000806312
0.000106954
0.000125449
0.000112664
0.000131022
0.000146342
0.0259243
0.0721086
0.101114
0.0786488
0.0842707
0.0738397
0.000162206
0.000147581
0.000145132
0.000198887
0.000122353
0.000113378
0.000122831
0.00457813
0.00426336
0.00010283
0.000111275
0.0727822
0.000333928
0.000204037
0.0301319
0.0356861
0.0739854
0.000118194
0.000107992
0.000103571
0.000134382
0.0494111
0.106393
0.0502068
0.000548642
0.000142008
0.0855862
0.0226006
9.64484e-05
0.00516947
0.000112995
0.000113848
0.000390538
0.000102156
0.000106281
0.090307
0.0265403
0.0830147
0.0512412
0.0823928
0.00013182
0.000140405
0.0699517
0.000160891
0.000134403
0.0822588
0.094184
0.000124048
0.000108799
0.000111668
0.000118669
0.00380288
0.000110334
0.000114717
0.000193062
0.000171583
0.000190443
0.000117838
0.000129082
0.00999326
0.000922306
0.000112256
0.000188498
0.00034859
0.00259558
0.0477782
0.000139394
0.0742757
0.00015085
0.000102
0.0305278
0.000145036
9.81315e-05
0.000111708
0.0368176
0.022189
0.028182
0.0812788
0.0984509
0.00594685
0.000583276
0.000105847
0.000121481
0.00190918
9.6718e-05
0.000109609
0.0862786
0.000117653
0.0625598
0.00015561
0.000130482
0.000110718
0.000158905
0.055234
0.000183366
9.35173e-05
0.000127954
0.102011
0.000169737
9.76128e-05
0.000108201
0.0947736
0.000107801
0.0297606
0.0773432
9.84852e-05
0.0436938
0.000109376
0.00011043
0.000104898
0.000107611
0.000106258
0.0859958
0.0869248
0.0480975
0.0163032
0.000110903
0.043532
0.00011903
0.0723363
0.0552104
0.000100382
0.102045
0.00010989
0.0001799
0.000120889
0.000111344
0.00011205
0.0716644
0.0518287
0.0832641
0.0630761
0.000105897
0.000220975
0.104103
0.092949
0.0286534
0.0612628
0.00012051
0.000108526
0.000289384
0.0001276
0.00012885
9.69652e-05
0.0624024
0.000132351
0.000148811
0.0295355
0.000106114
0.000144347
0.111353
0.00012858
0.042974
0.000112427
0.00901067
0.0720918
0.0421836
0.0994957
0.000107042
0.0751261
0.000203921
0.000144656
9.16362e-05
0.0473556
0.000115734
0.000147249
0.0997554
0.000145366
0.0816404
0.000106347
0.011749
0.000188699
0.00238851
0.000135022
0.0341121
9.47325e-05
0.000145176
0.000111013
0.000119776
0.000105763
0.10433
0.00103811
0.0488906
0.00103482
0.000184263
0.000117725
9.85513e-05
0.0865142
0.00010976
0.000124031
0.107311
0.000109293
0.101402
0.0940544
0.0917413
0.000221019
0.000111883
0.0629879
0.0412942
9.78244e-05
0.000105273
0.084645
0.00570406
0.0719689
0.000122546
9.95319e-05
0.000111508
0.0822903
0.00611887
9.73347e-05
0.0198824
0.104893
0.000112205
0.000117568
9.77718e-05
0.000104728
9.73843e-05
0.000100495
0.0714437
0.0763697
0.0257524
0.00012467
0.000105878
0.00195891
0.00220749
0.000118226
0.0502069
0.000103228
0.000124515
0.000111501
9.31754e-05
9.81331e-05
0.00155291
0.000112936
0.0179079
0.0968044
0.00010014
0.000188755
0.0180988
0.000155593
9.89855e-05
0.0918915
0.000108668
0.000104922
0.000127226
0.000112113
0.051628
0.0301292
0.000167086
0.000147306
0.0979461
0.092848
0.000110148
0.000138123
0.0959411
0.0961678
0.0481113
0.078291
0.0927363
9.90404e-05
9.53681e-05
0.000105997
0.0268609
0.000110459
0.0343964
0.0795248
0.00190722
0.000119632
0.106018
0.0786124
0.000130572
0.000118059
9.59918e-05
0.0294816
0.000120328
0.0375429
9.87141e-05
0.0875461
0.000114123
0.0950549
0.0248756
0.0180173
0.000122466
0.0907808
0.000121888
0.000116059
0.0922084
0.000116305
0.000112548
0.000101059
0.000131765
0.0190387
9.79998e-05
0.00616387
0.000107309
0.0526423
0.0746192
0.000119106
0.000707937
9.95694e-05
0.000127266
0.0802184
0.0684297
0.0863096
0.028824
0.10014
0.0016658
0.0907802
0.0524666
0.000121264
0.000110437
9.35303e-05
0.000121545
0.000118534
0.0939394
0.0956955
0.000108306
0.000129244
0.000136074
0.0791333
0.00010628
9.62084e-05
0.084774
9.94586e-05
0.000376061
0.000112655
0.000141211
0.00014832
0.016735
9.36787e-05
0.000654386
0.000399725
0.000119594
0.000113198
0.000101902
0.000107486
0.000110057
0.0835019
0.0548718
0.000135083
0.0489792
0.0532176
0.000130132
0.000137731
0.0949266
0.000236008
0.0959612
0.000108693
0.002027
0.000125669
0.0485562
0.000113766
0.000992892
0.000148265
0.000130081
0.000142949
0.0667123
0.106391
0.0461344
0.000138054
0.0433728
0.0385337
0.107062
0.000119293
0.000110863
0.0219679
0.0486309
0.000112258
0.0977671
0.000103744
0.0449401
0.0970304
0.0491642
0.000104838
0.000111424
0.0819887
0.0604532
0.0159618
0.000101981
0.000126132
9.84707e-05
0.000123794
9.75177e-05
0.000188639
0.000112081
0.000108088
0.0398792
0.0497661
0.0171479
0.000111341
0.000102201
0.0901137
0.0435365
0.000111781
0.0962603
0.0780021
9.46155e-05
0.094753
0.0449466
0.034946
0.081516
0.000124504
0.086918
0.000175566
0.00023116
0.000161033
0.000111147
0.0416313
0.0524743
0.0815463
0.000309315
0.000117083
0.053439
0.000165597
0.00013886
0.0252325
0.000111649
0.000298472
0.000104044
0.000116583
0.0480939
0.000104782
0.000217562
0.000115344
0.0816857
0.000233152
0.000111996
0.000110707
0.000127021
0.000124067
0.0954971
0.000112783
0.000122008
0.000105874
0.0119181
0.000655092
0.0276534
0.0611266
0.000108702
0.000120908
0.00011646
0.000180149
0.000111318
0.0767562
0.0901274
0.000121621
0.000213983
0.000126571
0.000116532
0.000122035
0.000126031
0.094803
0.00011258
0.000114732
0.0662929
0.000131488
0.000104571
0.105213
0.000111501
0.0924534
0.0507136
0.0929575
0.0928797
0.00113029
0.02459
0.0266579
0.000102626
0.0344311
0.000122547
0.000131236
0.000105583
0.0698917
9.84094e-05
9.45742e-05
0.0969683
0.0939581
0.106588
0.000100238
0.000111961
9.59858e-05
0.000112341
0.000419685
0.000116355
0.000103683
0.0474727
0.0494057
0.0577491
0.0936234
0.0415145
0.000360826
9.54937e-05
0.000137548
0.053061
0.000108321
0.000119956
0.0975195
9.81064e-05
0.000113719
9.78739e-05
0.00012887
0.000131383
9.51897e-05
0.107096
0.0291701
0.000137827
0.000262186
0.00023039
0.0537833
0.000111239
0.000112116
0.000105588
0.000108295
0.0610794
9.39041e-05
0.000108503
0.000146576
0.0504296
0.000112805
0.000112255
0.025861
0.000104564
0.000147327
0.000126111
9.1474e-05
9.5215e-05
9.27778e-05
0.000108169
0.000110324
0.000118129
0.000347441
0.000128211
0.107225
0.000116776
0.055786
0.000112317
0.000107369
9.87552e-05
0.000143845
0.000109015
0.00222914
0.0978043
0.000116091
0.050881
0.000112187
0.067386
0.000100598
0.000108365
0.000120982
0.0558672
0.0906959
0.0297618
0.0994294
9.97922e-05
9.57865e-05
0.0265729
0.000673698
0.000299082
0.000112556
0.000111146
0.000271149
0.000152487
9.7608e-05
0.00348802
0.0969715
0.000103633
0.101233
0.0287263
0.053044
0.000146244
0.0275942
0.0893257
0.000114787
9.62322e-05
0.000124265
0.000105663
0.0861584
0.000107158
0.00116921
0.0625971
0.0421376
0.0443942
0.000225032
0.000120614
0.00520627
0.0864379
0.000176829
0.000536812
9.74911e-05
0.00267975
0.000131315
0.0209947
0.0139609
9.40571e-05
9.81574e-05
9.63057e-05
0.0650573
0.000109854
0.00015032
0.0511177
9.47011e-05
0.0358643
9.99404e-05
9.61557e-05
0.000207306
9.92737e-05
0.0457037
0.000134583
0.0727725
0.00011103
0.0550397
0.000758988
0.100652
0.000108412
9.2875e-05
0.000108536
0.000120692
0.000108354
0.00411258
0.00392153
0.107079
0.0844712
0.0146162
0.00157921
0.000128229
0.000103271
9.87564e-05
9.52462e-05
0.000110727
0.0899569
0.000119373
0.0486926
0.000115899
0.0700594
0.0478784
0.000108472
0.000112785
0.000210929
0.106546
0.000113731
0.000112516
0.000120412
0.0896467
0.0580383
0.0355918
0.00823557
9.15584e-05
0.0264756
9.86499e-05
0.0805687
0.089873
0.000112438
0.000111703
9.40695e-05
0.0294384
0.0320159
0.000110358
0.0865157
0.0238278
0.000253558
0.0484794
0.000103509
0.0650428
0.00184711
0.0791331
0.000153044
0.0397515
0.000337489
0.0529931
0.000117875
0.000105474
0.0550656
0.0241413
0.0113831
0.000101398
0.101692
0.0324266
0.000101591
9.88006e-05
0.000104418
0.000141191
0.000108708
0.000127299
0.000105629
0.000108282
0.0897527
0.0262694
0.000127022
0.0280848
0.0904503
0.0281442
0.000110974
0.000106355
0.000112031
0.0873735
0.0854956
0.0328777
0.0609084
0.000172873
0.00107189
0.0224581
0.000142481
0.000116053
0.000144201
0.0767164
0.000134675
0.0817758
0.000344342
0.01155
0.020265
0.0924092
0.0920295
0.000112206
0.000213824
0.0970846
0.0586288
0.0936679
0.0485398
0.000111743
0.0313257
0.0539381
0.050779
0.00372559
0.0405474
0.000212625
0.000115265
0.00406598
0.0916726
0.000116066
9.93158e-05
0.0327607
0.000293207
9.73543e-05
0.0667688
0.0939437
0.0270424
0.080014
0.059463
0.099541
0.0887592
0.000137132
0.0599434
0.089281
0.0881898
0.100121
0.0875431
0.000440102
0.0916666
0.100147
0.000115222
0.000111339
0.000110113
0.000604209
0.00160002
0.0909145
0.0791411
0.0781055
0.00020862
0.0988551
0.000843635
0.000107764
0.0380232
0.000109718
0.0312931
0.000117278
0.00731172
0.0852541
0.000106304
9.52515e-05
9.93818e-05
0.000123948
0.000118298
0.000115587
0.0119621
0.000111648
0.000348844
0.0597265
0.000118766
0.0268079
9.54389e-05
0.106828
0.000656855
0.000118315
0.0892549
0.000110991
0.000184394
0.0419554
0.0874248
0.0368175
0.0199828
0.000185073
0.000117341
0.00915382
0.00454784
0.031347
0.000102317
0.0566693
0.000131234
0.0838805
0.028285
0.000111706
0.00119313
0.000103793
0.000115259
0.0376118
0.000127365
0.000109819
0.0985825
0.000112354
0.0999622
0.000116017
0.0470297
0.0572964
0.000115578
0.0570179
0.000141608
0.000398377
0.00011703
0.0310307
0.000107132
0.0700307
0.000115676
9.89741e-05
0.000377353
0.000117877
0.000111037
0.000101345
0.000186439
0.0591838
9.77811e-05
0.103305
0.0934251
0.000322089
0.106438
0.0944718
0.000216478
0.000104412
0.00500555
0.0517565
0.0816079
9.82711e-05
0.000118033
9.51405e-05
9.51313e-05
0.000113326
0.0930912
0.0174741
0.000392936
0.0252005
0.000188709
0.0518138
0.000107326
0.000237238
0.000489982
9.90344e-05
0.0348773
0.000134244
0.0195367
0.0220874
0.109706
9.40056e-05
0.0553026
0.000109716
9.94556e-05
0.0869584
0.000128042
0.000155712
0.000112736
9.88538e-05
0.05342
0.000121327
0.000143257
0.000101117
0.0562243
0.000105276
0.000111635
9.62028e-05
0.000327575
0.00225435
0.00018533
0.000119154
0.00177009
0.000110442
0.000145394
0.00010979
0.00015179
0.0253253
0.000104049
0.000239608
0.00046924
0.000103735
0.103444
0.0962883
0.000137784
0.00040162
0.0729397
0.0679056
0.00776002
0.000407509
0.000408075
0.000113954
0.000135627
0.000112324
0.0816817
0.0806258
0.0886674
0.000103141
0.000131689
0.0580149
0.000137779
0.0736798
0.000105069
0.0563095
0.000111344
0.0468431
0.00010419
0.0151897
0.0850728
0.000126749
0.000106106
0.000109924
0.000105821
0.000663008
0.0878471
0.0725866
0.000136951
0.000130202
0.0333659
0.0329195
9.60775e-05
0.0832507
0.0800401
0.000308059
0.000110236
0.0997188
0.000223056
0.000103124
0.0709078
0.040232
0.0740194
0.0849543
0.0518735
0.000642391
0.035981
0.000105571
0.000136252
0.00011197
0.000111808
0.000102572
0.0779112
0.0852021
0.00011274
0.00618937
0.0343445
0.054397
0.0544073
0.0800448
0.0817427
0.000111207
0.039272
0.0907665
9.77355e-05
0.00022432
0.00010599
0.0586111
0.0368562
0.000116842
0.000119238
0.0363254
0.000112249
0.000100641
0.000112213
0.000117173
0.098669
9.6268e-05
0.090211
0.000146923
0.0381631
0.00013492
0.000988645
0.0854282
0.0835234
0.000120013
0.000375139
0.035051
9.84965e-05
0.038508
0.0799932
0.0373669
0.000974972
0.102858
0.000395182
0.000108282
0.000144011
0.00013729
0.0120985
0.00169028
0.0784884
0.000121029
0.000537139
0.000101105
0.0972561
0.000119902
0.100522
0.0935211
0.000132352
0.0309466
0.000103897
0.000113416
0.000112581
0.00010395
0.000113223
0.00011703
9.7605e-05
0.00015238
0.000142301
0.0204065
0.000119218
9.62484e-05
0.00101542
0.000701135
0.00010077
0.00011377
0.000107366
0.101662
0.0728364
0.000129841
0.000138554
0.00978635
0.00012658
0.00010344
0.0157144
0.036136
0.0799666
0.000118053
0.000157799
9.89665e-05
0.106262
0.000299258
0.000103801
0.0990161
0.000111029
0.000109409
0.000103386
0.105357
9.61756e-05
9.68891e-05
0.0798626
0.103376
0.0501322
0.000112825
0.101241
0.000112879
0.000116027
0.051155
9.98804e-05
0.0838615
0.0927212
0.000111211
0.000102746
9.87631e-05
0.0436493
0.00328247
0.107073
0.000111079
0.00231721
0.00010441
0.0278804
0.000116589
0.000234087
0.0860588
0.00266003
0.000117188
0.0223317
0.0299914
0.0895945
0.00215439
0.000116623
9.34944e-05
0.000807711
0.0437966
0.000373932
0.000102696
0.000151347
0.0972109
9.78472e-05
0.000107191
0.094507
0.033778
0.000118198
0.00264386
0.0266294
9.82589e-05
0.000136304
0.0215406
0.000126584
0.000118431
0.0730421
0.0002231
0.0472161
0.00011744
0.00289434
0.000120448
0.00011858
0.000136009
0.000269669
0.0779196
0.0754469
0.0360108
9.62583e-05
0.000227713
0.000137753
0.000101545
0.0756557
0.0489013
0.000201236
0.0620824
0.0739152
0.000108776
0.000105717
0.0259382
0.000263215
0.000120462
0.000136175
0.00824592
0.00338226
0.00407173
0.000110379
0.000106002
0.000103454
0.00761383
0.000112168
0.000102912
0.000179927
0.000120819
9.57618e-05
9.94786e-05
0.0758854
0.0903966
0.0031419
0.00014634
0.000110913
0.0559674
0.00121954
0.000106142
0.000181964
0.000128844
0.106874
0.000102531
0.000186125
0.000103491
0.000542447
0.000104424
0.000112423
0.000119668
0.000209375
0.000131671
0.00012291
0.000117077
0.00011192
0.000111665
0.0330446
0.0377097
0.090392
9.58566e-05
0.000108358
0.000107741
0.000108962
0.0039584
9.82138e-05
9.88116e-05
0.00602437
0.0907236
0.000104442
0.000110842
0.103806
0.000106125
0.000214523
0.0389272
0.000126042
0.000166492
0.0668611
0.0996939
0.000152692
0.000106193
0.0733135
0.00113241
9.70648e-05
0.0275649
0.0987177
9.62719e-05
0.0997389
0.000105757
0.000183747
0.054144
0.0871102
0.000117199
0.000116586
0.000118324
0.0957884
0.00162475
0.0961539
9.31024e-05
0.000154379
0.000111205
0.050312
0.0786365
0.000115545
0.0341251
9.44574e-05
0.000117941
0.000109666
0.00139918
0.0960259
9.45633e-05
0.000141922
0.000109013
0.0515389
0.00238363
0.000119444
0.000115413
0.0521187
0.00789413
0.000163511
0.000236899
0.0770696
0.000147242
0.0483776
0.000122919
0.0866576
0.000224501
0.0257396
0.0739434
0.0788969
0.00170481
0.000111302
0.000182421
0.0506281
0.0207734
0.0770725
0.000237487
0.049671
9.59741e-05
0.0844227
0.100616
0.00010019
0.00169643
9.56921e-05
0.014628
0.000104817
9.47533e-05
0.00168563
0.000297527
0.000108701
9.8238e-05
0.000156551
0.000102836
0.000117638
0.000230554
0.000113077
0.000147358
0.0635688
0.000104187
0.0512532
0.083419
0.000105293
0.0349917
0.000130733
0.0286648
0.000104277
0.000110893
0.000148594
0.0911734
0.000112022
0.0509319
0.000416052
0.00014824
0.000119115
0.101152
0.10026
0.000127882
0.0304381
0.0494043
0.0317397
0.000128756
0.000173315
0.0429649
0.000103663
0.00228152
0.0947118
0.000127734
0.000107563
0.000182341
0.000737384
0.000122232
0.000144321
0.0678006
0.0593352
9.94306e-05
0.000171422