/*--------------------------------*- C++ -*----------------------------------*\
| =========                 |                                                 |
| \\      /  F ield         | OpenFOAM: The Open Source CFD Toolbox           |
|  \\    /   O peration     | Version:  v2012                                 |
|   \\  /    A nd           | Website:  www.openfoam.com                      |
|    \\/     M anipulation  |                                                 |
\*---------------------------------------------------------------------------*/
FoamFile
{
    version     2.0;
    format      ascii;
    class       volScalarField;
    location    "400";
    object      p;
}
// * * * * * * * * * * * * * * * * * * * * * * * * * * * * * * * * * * * * * //

dimensions      [0 2 -2 0 0 0 0];


internalField   nonuniform List<scalar> 
14315
(
-0.455461
-0.199359
-0.0143599
-0.119759
-0.150877
-0.108908
-0.233494
0.0985117
-0.093571
-0.0127264
0.288034
-0.382804
-0.457441
-0.0451971
-0.417148
-0.0194885
0.0946888
0.00433678
-0.137721
-0.130293
-0.00143206
-0.378924
-0.172381
-0.385265
-0.0670698
-0.19706
0.032249
-0.240527
0.217471
-0.282597
-0.130392
0.00692271
-0.0470603
-0.321219
-0.387061
-0.399464
0.437615
0.0583858
-0.301726
-0.0108386
-0.380889
0.492007
0.0614556
-0.033268
-0.168175
-0.0600849
0.229327
-0.473697
-0.472266
0.00377033
-0.490684
-0.129743
-0.406911
-0.426572
-0.116502
-0.39031
0.373827
-0.109314
0.00344528
-0.0122507
-0.30422
-0.243452
-0.388572
-0.00183897
-0.288342
0.370256
-0.474062
0.00345861
-0.00243361
-0.117719
-0.428897
-0.110858
-0.393868
-0.510143
0.00968798
-0.492526
-0.106875
-0.428185
-0.16494
-0.0637365
-0.0320276
-0.0359916
-0.108671
-0.424316
-0.004985
-0.0816159
-0.496878
-0.232471
-0.415654
0.283112
-0.149039
0.0792903
-0.0326582
-0.0838235
-0.334482
-0.35003
0.0578733
-0.442096
-0.301932
0.266369
0.00403943
-0.483797
-0.391289
-0.0349008
0.266933
-0.297326
-0.478476
-0.386983
-0.144221
-0.219713
-0.352341
0.0550563
-0.477118
0.0320356
-0.0110577
-0.253011
0.0327505
-0.410797
-0.489436
-0.260036
-0.320126
-0.118515
-0.0349184
-0.342775
0.208448
-0.0324936
0.40458
-0.0294582
-0.060452
0.0891279
-0.204251
-0.435814
0.115689
-0.272834
-0.287788
0.00933397
0.0675863
-0.220825
-0.0661159
0.00895114
-0.225732
-0.326081
0.0555572
-0.439116
-0.218597
-0.197458
-0.227952
-0.375572
-0.112682
0.212411
-0.021361
-0.487744
0.0134251
-0.110964
-0.146985
-0.409251
0.068344
-0.0193531
-0.108083
-0.215495
0.00241902
-0.489485
-0.387334
-0.368309
-0.0369643
-0.38344
-0.199066
0.177029
-0.513666
-0.439296
-0.382089
-0.016561
-0.23139
-0.0111304
-0.169218
0.436852
0.0186784
-0.384265
-0.375805
-0.206149
-0.291265
-0.10453
-0.0340407
-0.319386
-0.158544
0.0616206
-0.00186076
-0.293908
-0.398671
-0.284453
-0.167863
0.150431
-0.29062
0.479313
-0.0520342
-0.498701
-0.311654
-0.0356892
-0.0265315
0.284933
-0.331276
-0.0749853
-0.36595
-0.289167
-0.0575708
-0.187612
-0.280405
-0.10243
-0.0191979
-0.317179
-0.195966
-0.0632794
-0.325323
-0.223136
-0.217326
-0.491907
-0.434083
-0.299961
-0.218663
-0.234256
-0.0770329
-0.141788
-0.172139
0.0225722
-0.239011
-0.0222773
-0.0292278
-0.317724
-0.396915
-0.48309
-0.0283409
-0.0371464
0.204331
-0.0094353
0.0192965
0.369686
-0.162048
-0.104634
-0.39136
-0.360544
-0.0820295
-0.132605
0.279294
-0.30225
-0.236303
0.190316
-0.310882
-0.0102439
-0.364856
-0.397383
-0.048959
-0.0351102
-0.456813
0.452185
0.0622665
-0.305987
-0.136158
-0.186958
-0.4644
-0.173432
0.140386
-0.119794
-0.341849
-0.39757
-0.217057
-0.132806
-0.0560664
-0.135149
-0.0829744
-0.41493
-0.209277
-0.0943758
-0.285688
-0.252153
0.0240862
-0.293102
-0.261075
-0.165565
-0.458863
-0.256392
-0.13108
-0.102257
-0.356303
-0.0331925
-0.0107912
-0.372321
-0.384414
-0.474101
-0.270998
-0.0179551
-0.171573
-0.502519
-0.29232
-0.4611
-0.29481
-0.191257
-0.380799
-0.226757
0.0260838
-0.0262157
-0.151102
-0.503049
-0.372317
-0.208704
0.0586738
-0.00493285
-0.201284
-0.37987
-0.00923833
-0.050853
-0.415834
-0.0369426
-0.491704
-0.357847
-0.113821
-0.29829
-0.0594511
-0.132022
-0.0305276
-0.016032
-0.332778
-0.381891
-0.319852
-0.140084
-0.426862
-0.0526463
-0.379503
-0.300679
0.291465
-0.050032
-0.128503
-0.237561
0.0177608
-0.397038
-0.497454
0.00356014
-0.295001
-0.457544
-0.464292
-0.285763
-0.0364865
-0.373614
-0.0198707
-0.0101174
-0.340967
-0.0163059
-0.0487617
-0.486918
-0.227745
-0.343672
0.030385
0.0687826
-0.193886
-0.280125
0.36986
0.0273435
-0.0593623
0.0211432
-0.00819977
-0.412051
0.225399
-0.212853
-0.374091
-0.22472
-0.330649
-0.474564
-0.0293909
-0.30099
-0.359474
-0.132516
-0.340793
0.0134328
0.0287179
-0.299451
-0.235099
-0.055659
-0.0273188
0.00385579
0.0274598
0.508953
-0.446321
-0.113506
-0.0161776
-0.38838
0.03853
-0.265414
-0.174072
-0.306148
-0.271803
-0.240487
-0.0352397
-0.371071
-0.459356
-0.325022
-0.355412
-0.290789
0.114206
0.0299279
-0.144932
-0.194927
-0.0322543
0.112595
-0.0590758
-0.482698
-0.273369
-0.192125
-0.298362
-0.377344
-0.213427
0.468941
-0.0207798
-0.307291
-0.407005
-0.195423
-0.0583551
-0.036797
-0.231335
-0.456271
-0.00901256
-0.203382
-0.0944635
-0.482554
-0.296628
0.114656
0.0180772
-0.437124
-0.489663
-0.210591
-0.158019
-0.113679
-0.486874
-0.214658
0.0293181
-0.0933975
-0.239574
-0.0955647
-0.228001
-0.317156
-0.153132
0.026537
0.45666
0.0236786
-0.238183
-0.001274
0.0545835
-0.238754
0.0445613
-0.436152
0.00523612
0.0194586
-0.264122
-0.318966
0.0204598
-0.17279
-0.104354
-0.337523
-0.397159
-0.441394
-0.308777
-0.222529
0.0204357
-0.209795
-0.413563
-0.225454
-0.27499
-0.312676
-0.448243
-0.221335
-0.174715
-0.202839
-0.115184
-0.213456
-0.344174
-0.172333
-0.329807
0.0322751
-0.0447412
-0.0702534
-0.346682
-0.320833
-0.200437
-0.087638
-0.212017
-0.203765
-0.457048
-0.282691
0.0128599
-0.284149
0.0868042
-0.228678
-0.0207012
-0.383698
-0.0275721
-0.10638
-0.205015
-0.198623
0.000545333
-0.0852852
-0.0904719
-0.212937
0.164943
-0.49707
-0.362195
-0.0408158
0.0203843
-0.0591217
-0.500345
-0.276038
0.0267384
-0.0600332
-0.210614
-0.0118277
-0.0792635
-0.0732566
-0.191556
-0.414059
0.205424
-0.288175
-0.328295
-0.208425
-0.3647
-0.0959986
-0.0972547
0.203464
-0.338691
-0.348058
-0.0124679
0.000895648
-0.226188
-0.0655174
0.0221879
-0.197517
-0.00614366
-0.0513446
-0.34353
-0.411157
0.0648695
-0.366188
-0.248129
0.00572824
-0.463913
-0.0944854
-0.279326
-0.24434
-0.0772824
-0.160302
-0.0653143
-0.264038
-0.20589
-0.278618
-0.0801501
-0.04095
-0.211138
0.50194
-0.214415
-0.360362
0.195233
0.0422563
0.0200406
-0.110793
-0.235347
-0.413656
-0.199591
-0.276753
-0.249011
-0.251422
0.0331247
0.00595644
-0.142843
-0.0696375
-0.3639
-0.0320672
-0.361247
-0.228878
-0.414815
-0.0434302
-0.170756
0.0080876
-0.398969
-0.0458987
-0.303165
-0.16652
0.0321544
-0.394253
-0.00823147
-0.0635364
-0.0449516
-0.112018
-0.268388
-0.0205256
-0.205277
-0.0027195
-0.260194
-0.183255
-0.26137
-0.00905549
-0.315478
0.143465
-0.208281
-0.275838
-0.153771
-0.259996
-0.470458
-0.51495
-0.0820874
-0.000341206
-0.498693
0.0380162
-0.038943
0.24591
-0.197746
-0.234785
-0.282839
-0.0447848
0.273189
0.122608
-0.257471
0.352384
0.0196597
-0.0224777
-0.22544
-0.195505
-0.0109996
-0.249913
-0.212354
-0.0569997
-0.0638331
-0.279771
0.357648
-0.324387
-0.0484972
-0.215704
0.00969295
-0.0473684
-0.198712
-0.000724212
-0.195844
-0.161954
-0.330622
-0.0350453
0.0496183
-0.161367
-0.136371
-0.468524
-0.225593
-0.196712
-0.0188803
-0.172967
0.027193
-0.131384
0.349957
-0.399187
-0.280341
-0.180316
-0.235112
-0.464946
-0.154545
-0.126288
-0.243628
-0.208595
-0.0681087
-0.127781
-0.259434
-0.401855
-0.203178
-0.481708
-0.0229542
-0.00230585
-0.320092
0.0665414
-0.408005
-0.0636558
-0.267128
0.0212162
-0.172836
-0.0631149
0.302492
-0.368956
-0.000901648
-0.124185
-0.00119054
0.0179848
-0.253591
-0.43836
-0.153729
-0.408053
-0.244224
-0.50003
0.350223
-0.0650222
0.0562833
-0.0451955
-0.072721
-0.151449
-0.0728163
-0.440337
-0.309338
-0.153782
-0.129824
0.0359492
-0.0676753
-0.193691
-0.025302
-0.158837
-0.210934
-0.0861243
-0.298377
0.361989
-0.195919
-0.279061
0.00102274
-0.376034
-0.124994
-0.0463186
0.0104169
0.0427471
-0.105567
-0.0690676
-0.180592
-0.0598798
-0.00654109
-0.508395
-0.0489379
0.0338553
-0.205362
-0.0849918
0.00978664
-0.236715
0.0524193
0.191053
-0.0335751
0.032605
-0.310087
-0.401629
-0.210416
0.422978
0.00761552
-0.296687
0.170944
0.00717431
-0.502179
-0.0138177
0.00633909
-0.163233
0.0050082
-0.210833
-0.0712013
0.302191
0.0260468
-0.30587
-0.331136
-0.203354
0.0355783
-0.470781
-0.363955
-0.411136
0.0213708
-0.226425
0.146506
-0.472036
0.0129912
-0.231807
-0.445914
-0.189681
-0.430697
-0.00426086
-0.381592
-0.118192
-0.163575
0.298003
-0.35306
-0.0206679
0.0338355
0.461416
-0.269184
-0.246344
-0.0191512
-0.370895
-0.441957
-0.441472
-0.222632
-0.0581283
0.382559
-0.252599
-0.345728
-0.175291
-0.0462554
0.168437
-0.0519247
0.004569
0.0280534
-0.0536886
-0.20031
-0.307947
0.0311434
0.0725162
-0.14973
-0.430027
0.223705
0.0606596
-0.301888
-0.280934
-0.267535
-0.0862091
-0.316038
0.0324209
-0.11557
-0.156174
0.30647
-0.469828
-0.019887
-0.386743
-0.231065
-0.386543
0.372692
0.0354717
-0.24168
0.0611907
0.498971
0.0194642
-0.0854919
0.15209
-0.228716
-0.0941939
0.0435025
-0.0498886
-0.169288
-0.490656
-0.066333
-0.0282252
-0.372214
-0.251943
-0.50732
0.245643
-0.0139489
-0.195506
-0.0693798
-0.0228586
-0.195412
0.131417
-0.375621
-0.281915
-0.32271
-0.375982
-0.262758
-0.252373
-0.459716
-0.441975
-0.00202372
0.0330783
-0.00702005
0.343828
-0.309562
-0.284603
-0.485318
-0.0908135
-0.507064
0.398386
-0.127691
-0.478822
0.198942
-0.25479
0.134561
0.0455666
-0.126458
-0.00947716
-0.245517
-0.0221629
-0.317354
-0.106375
0.0053857
0.032802
-0.497013
0.0479612
-0.0448748
-0.0224314
-0.242456
-0.119742
0.106481
-0.145523
-0.456799
0.0515407
-0.0319762
-0.0128926
0.38069
-0.0799901
-0.485778
0.0352422
-0.206912
-0.0374566
-0.284946
-0.247453
-0.00944034
-0.464672
-0.208265
-0.275267
-0.354473
-0.136671
-0.274332
-0.211064
-0.249395
-0.0482374
-0.174808
-0.317058
-0.0174285
-0.0669322
-0.0427596
-0.45569
-0.361229
-0.201084
-0.0990301
-0.33505
-0.376846
-0.0615788
-0.488717
0.00556136
-0.0808115
-0.241098
0.44142
0.0489557
-0.179133
-0.210128
0.0471434
-0.377312
0.0271647
-0.234908
0.0323652
-0.388308
-0.316698
-0.090472
-0.064977
-0.00935992
-0.250674
-0.143496
-0.267791
0.0866802
-0.0507951
0.396796
-0.248669
-0.487726
-0.267269
-0.0384081
-0.216443
0.00288085
0.0290556
-0.205173
-0.342811
-0.368076
-0.258035
-0.341881
-0.244309
-0.379773
-0.394422
-0.335754
-0.232205
-0.0452523
-0.0193941
-0.0298506
-0.00604913
-0.226415
-0.48238
-0.507629
0.0279015
-0.34012
-0.236568
0.0291563
-0.306382
-0.0428749
0.446854
0.277938
-0.254969
-0.227806
-0.385541
-0.0126878
-0.379069
0.0185323
0.0231106
-0.140702
-0.0665081
-0.02348
-0.128111
-0.0209304
-0.341386
-0.0476486
-0.0645508
-0.0834649
-0.368322
-0.294527
-0.0501661
-0.387127
-0.220421
-0.44616
-0.467082
-0.383106
-0.153132
-0.207355
-0.488344
-0.00815749
0.005899
-0.452674
-0.0189946
-0.371065
-0.22708
-0.084395
-0.375616
0.046591
-0.239862
0.00525341
-0.127002
-0.255864
-0.339871
-0.408976
-0.157899
-0.418337
0.299976
0.260798
0.254717
-0.35982
-0.253101
-0.223604
-0.133335
0.0130905
0.0313101
-0.25632
-0.269699
-0.0561663
-0.414905
-0.433163
0.000186194
-0.152415
-0.337227
-0.00719184
-0.498536
-0.222007
-0.0452549
-0.0762761
-0.234589
-0.0378312
-0.385426
-0.259946
-0.0228491
-0.339907
-0.32277
0.0186246
0.0109398
0.0847586
0.0658361
0.0304618
-0.250194
-0.198935
-0.103318
0.27017
-0.390809
-0.0834709
0.0233956
0.110144
-0.0336772
-0.0416083
-0.327723
-0.105782
-0.226457
-0.273731
0.0195696
0.51579
-0.349491
0.113335
0.00562739
-0.152611
0.368461
-0.0444499
-0.147433
-0.497858
-0.310146
-0.196358
-0.347244
-0.401535
-0.206336
-0.225909
-0.308625
0.337817
-0.327479
0.257082
0.00122345
-0.269173
-0.184335
-0.279221
-0.179416
0.330924
0.0900534
-0.490296
-0.165917
-0.0590523
-0.112928
0.0249941
-0.322028
0.191589
-0.373071
-0.483361
-0.295842
0.0465415
-0.217021
-0.299442
0.00505421
-0.444363
-0.156019
0.476389
-0.337756
-0.140713
-0.323835
-0.435484
-0.0614981
-0.246585
-0.0626187
-0.417227
0.0604997
-0.333474
-0.355061
-0.0758085
-0.371362
0.120866
0.0391812
0.381026
-0.18555
0.449628
-0.453556
-0.192336
-0.159449
-0.224252
-0.158593
-0.217855
-0.137434
-0.453266
-0.375557
0.0284419
0.389076
-0.248027
-0.259613
0.0411579
-0.077736
-0.446464
0.348254
-0.0962144
-0.234992
-0.396008
-0.261634
-0.298588
0.228883
-0.252464
0.00179133
-0.369139
-0.389388
-0.0369324
0.194372
-0.00201907
-0.231708
0.36323
-0.0268154
-0.443941
-0.20111
-0.0400782
-0.256367
-0.44289
0.25653
-0.119209
-0.253781
-0.236502
-0.120516
-0.17524
-0.205848
-0.0449157
0.0115744
-0.0619792
-0.280957
0.0271305
-0.326082
-0.067233
-0.340641
-0.0896909
-0.40978
-0.341929
-0.0762374
0.0271472
-0.143009
0.241219
-0.263327
-0.0651236
-0.303658
-0.248433
-0.0251062
-0.339439
-0.416623
-0.263959
-0.325464
-0.00807897
-0.21997
-0.450391
-0.283152
-0.219978
-0.222152
0.0479113
0.291139
-0.0764152
0.202344
-0.190389
-0.0451403
-0.000673639
-0.0153461
-0.00365323
-0.202622
-0.391725
-0.239413
-0.180168
0.470788
-0.476525
-0.0276199
-0.114268
-0.261601
0.194509
-0.0723487
-0.391004
-0.207079
-0.276881
-0.214924
-0.310291
-0.0676818
0.171862
-0.0748096
-0.490335
-0.0246543
-0.207125
0.434983
-0.291969
-0.114441
0.0253968
-0.213983
-0.119802
-0.196324
0.152964
-0.0711131
-0.201319
-0.369367
-0.311375
-0.195737
-0.175418
-0.110886
-0.313483
-0.239792
0.374544
-0.337675
-0.0232243
-0.195782
-0.00610527
-0.285112
-0.0255191
-0.32559
-0.0202375
-0.37365
-0.497514
0.333234
-0.364676
0.044392
-0.0340916
-0.500722
-0.003216
-0.00649214
0.0905026
-0.481281
0.0322286
-0.444152
-0.3687
-0.157866
0.138789
-0.331841
-0.333921
-0.0214621
-0.184797
0.0234677
-0.350557
-0.0142618
-0.341041
-0.48458
-0.314803
-0.325314
-0.191353
0.279565
0.084239
-0.238008
0.120801
-0.172059
-0.27547
-0.00286003
-0.141132
-0.0450606
-0.256738
-0.00163764
-0.349739
-0.38
-0.253391
0.080663
-0.028451
-0.470812
-0.376962
-0.236944
-0.0185609
-0.00882253
0.427558
-0.269302
-0.0398489
0.315256
-0.119096
0.0927543
0.0100467
-0.275732
-0.0440246
-0.249255
-0.26573
-0.105187
-0.00394424
-0.369733
-0.213206
0.48598
-0.227687
-0.0344728
-0.0307893
-0.206045
-0.139786
-0.451691
0.219167
-0.0149413
0.0533522
-0.32486
-0.0355707
-0.0398779
-0.0242864
0.035584
-0.00802944
-0.453728
-0.312347
-0.473836
-0.10356
-0.223416
-0.0755372
-0.229012
-0.149308
-0.008585
-0.210455
-0.165849
-0.146072
-0.118231
-0.277286
-0.360362
-0.128738
0.0925259
-0.0972569
-0.222268
0.283246
-0.337853
-0.253375
-0.325082
0.000424093
-0.022254
-0.123528
0.0289498
-0.443759
-0.439038
-0.306728
-0.20318
0.230584
-0.2334
-0.479194
-0.0960615
0.314587
0.102162
-0.0227136
-0.302727
-0.097559
-0.0825304
-0.245064
-0.209473
-0.433815
-0.0498205
-0.295742
0.0350489
-0.0100544
-0.308222
-0.229188
0.0342824
-0.44605
-0.462537
-0.0155695
-0.0412222
-0.128362
0.0293715
-0.0558573
0.0233422
0.0227184
-0.204574
0.103745
-0.251039
-0.16142
-0.0133122
-0.382302
-0.201438
-0.0218629
0.14722
-0.218283
0.408146
-0.46941
-0.0102116
-0.192476
-0.0875474
-0.0704532
0.490692
-0.00926467
-0.0702481
-0.012642
-0.203773
-0.468156
-0.233305
-0.221987
-0.35817
-0.361859
-0.198929
-0.128315
-0.00394646
0.393769
-0.0971548
-0.0130524
-0.223586
0.0199283
-0.400947
-0.0952315
-0.00760401
0.0457084
-0.228915
-0.37208
-0.20156
-0.0485647
0.00836667
-0.296429
0.0681981
-0.0918646
-0.109129
-0.231463
-0.0408933
-0.385216
-0.372
-0.0437387
-0.195397
-0.013752
-0.0274453
-0.123169
-0.0413358
-0.0445446
-0.28354
-0.293059
-0.27439
-0.220361
-0.106315
-0.448094
-0.148299
-0.346767
-0.401053
-0.120968
-0.348494
-0.107464
-0.225218
0.0477587
0.089228
-0.0252554
-0.343378
-0.363453
-0.298126
-0.067781
-0.0340566
-0.258295
-0.429652
-0.449887
-0.314892
-0.199656
-0.0163099
-0.0304867
-0.159596
0.0552134
0.00851252
-0.0578746
-0.351327
0.0354654
-0.128248
-0.272473
-0.102128
-0.00917203
-0.263359
-0.197792
-0.25606
-0.0210736
-0.144775
-0.0962626
0.0306915
-0.491073
-0.0391262
-0.327526
-0.192814
-0.188123
-0.0543888
-0.302064
-0.0140875
0.0329122
-0.374816
0.00169536
-0.328231
-0.03546
-0.312915
0.106363
-0.350832
0.0336857
0.469135
-0.0505087
-0.00896107
-0.0315841
0.0660213
-0.137127
-0.475019
-0.173327
-0.277537
-0.268353
-0.208961
-0.120899
-0.11121
-0.279572
0.00650176
0.190301
-0.421589
-0.116136
-0.335399
-0.365008
-0.436469
0.136828
0.0111016
-0.0216761
-0.351453
-0.0482911
-0.0344077
-0.295986
0.383176
-0.240505
-0.0344068
-0.102777
-0.0258634
-0.221711
-0.281395
-0.0747148
-0.352099
-0.436497
-0.00873552
0.0540802
-0.0718688
-0.138951
-0.089933
-0.0703836
-0.259515
-0.326199
-0.461983
-0.0132832
-0.0989954
0.303602
-0.27316
0.0292963
-0.451706
-0.133111
-0.000255859
-0.11575
-0.0446366
-0.108215
-0.162398
-0.00992305
-0.402265
-0.340419
-0.0450357
-0.224961
-0.369713
-0.0219053
-0.111684
-0.133596
-0.113695
-0.132788
0.0382367
-0.0121207
-0.27396
-0.275545
-0.0284927
0.0108588
-0.280933
-0.259862
-0.128961
-0.127738
-0.332818
-0.425929
-0.487396
-0.375194
-0.253997
-0.11372
-0.0812569
-0.0363089
0.0638101
0.0267438
0.0152533
-0.283557
0.43954
0.043762
-0.429682
-0.410655
-0.00948157
-0.177843
-0.0966704
-0.225882
-0.0115584
-0.254637
-0.112107
-0.2329
-0.0222907
-0.310564
-0.215604
-0.257461
0.022733
-0.256649
0.0455078
0.0778578
-0.343938
-0.0214733
-0.0102342
-0.110468
0.00157134
0.475121
-0.0470177
-0.277619
-0.0343776
-0.452814
-0.383484
-0.166641
0.38968
-0.115953
-0.0638831
-0.302513
-0.460578
-0.411755
0.460359
-0.276622
-0.272638
-0.493238
-0.277577
-0.0098223
0.0382657
-0.0480504
-0.0175613
-0.178664
-0.313702
-0.378696
-0.0436576
0.0354144
-0.190791
-0.3795
-0.0858994
-0.044446
-0.218317
-0.11661
-0.22163
-0.0085671
0.216468
0.0221254
-0.226457
-0.0628328
0.38848
-0.269726
0.0421513
-0.0237054
-0.072714
-0.150695
0.0145744
-0.293882
-0.399118
0.0313973
-0.341258
-0.355029
-0.00500947
0.20708
-0.231689
-0.24705
-0.237146
-0.0298534
0.42073
-0.0637842
-0.218069
-0.0244658
-0.331298
-0.146608
-0.199756
0.0241757
-0.270975
-0.364462
-0.232359
-0.0101504
-0.393849
-0.195647
-0.427104
0.0450779
0.0217651
-0.451809
-0.434123
0.137267
-0.482936
-0.0730763
-0.341238
-0.462569
-0.311107
-0.100616
0.0859858
-0.207345
-0.364762
-0.387963
-0.0981644
-0.0119815
-0.11086
0.00242069
-0.0438333
-0.179085
0.129189
-0.0310818
-0.188982
-0.484365
-0.392945
0.0100054
-0.0562439
-0.223925
-0.354356
0.117804
-0.352245
-0.408144
-0.0488138
-0.299178
-0.0420605
0.50592
-0.242359
-0.155868
-0.218358
-0.195777
0.0523975
-0.175494
0.0728539
0.420713
-0.366888
-0.22009
-0.287867
0.0505432
-0.373388
0.150792
0.00647218
0.341929
0.0119761
-0.199537
-0.104784
0.145922
-0.305012
-0.0422104
-0.258321
0.0656928
-0.285637
-0.263772
0.0250379
-0.113056
-0.19634
0.0308029
-0.36034
0.103752
-0.015112
-0.0472835
-0.240267
-0.311667
-0.214886
0.300456
-0.0280905
-0.0166468
-0.0129857
-0.232657
0.0886641
-0.341218
-0.279023
-0.0157174
0.122825
0.0304809
-0.118144
0.0238054
0.0120266
-0.233
-0.162154
-0.167532
-0.446749
0.0109707
-0.119754
-0.379982
0.103843
-0.461827
0.0583046
-0.277801
-0.143721
-0.282971
-0.374195
-0.22964
-0.0389647
-0.272562
0.182849
0.000700478
-0.138595
-0.0804554
-0.109424
-0.0499962
-0.148699
-0.229239
-0.402025
-0.115933
0.138891
-0.0908671
-0.0259128
-0.305633
0.0447446
-0.0690093
-0.467695
-0.25619
-0.497465
-0.340598
-0.252356
-0.225121
-0.0663666
-0.190853
-0.354269
-0.0308447
0.116842
-0.270981
-0.10877
0.0581875
-0.060468
0.0104953
-0.00767156
-0.0754011
-0.405622
-0.243973
-0.00432896
-0.147539
-0.261085
-0.283918
-0.0942579
-0.0297891
-0.111013
-0.0299032
-0.327614
-0.0772958
-0.0303236
-0.219917
-0.454292
-0.0114002
0.115336
-0.464705
-0.13745
0.243975
-0.0492742
-0.0548984
-0.0663954
-0.0458756
-0.0300803
0.0323275
-0.0786707
0.181734
-0.0128125
-0.395344
-0.154778
-0.316511
-0.148528
-0.044934
-0.0431282
-0.0213844
-0.0129672
0.0925648
-0.299835
0.0480746
-0.225257
0.105292
-0.494726
-0.0713072
-0.0417317
-0.00386599
-0.441603
-0.26125
-0.412533
-0.264827
-0.109922
-0.0789716
-0.226931
-0.150922
0.0548135
0.0341285
0.0671278
-0.272354
-0.0279653
-0.106373
-0.353137
-0.312074
-0.0433979
-0.346562
-0.208068
-0.370029
0.0231463
-0.257409
-0.198787
-0.0224779
-0.09287
-0.01587
-0.141582
-0.30475
-0.0456631
-0.321165
-0.492844
-0.485909
-0.193837
-0.25732
-0.0810113
-0.362585
-0.437826
-0.229153
-0.302043
-0.0474895
-0.343696
-0.188056
-0.504308
0.23822
-0.0789722
-0.0473994
-0.059318
-0.479197
-0.00883809
0.0970011
-0.382448
-0.0651456
-0.405433
-0.116844
-0.0777383
-0.258656
-0.113504
-0.448885
0.0312524
-0.454603
0.0576593
-0.432667
-0.322105
-0.320941
-0.106377
-0.0461742
-0.0156861
-0.0182255
-0.0303416
0.460155
-0.354761
-0.42712
-0.220861
0.46424
-0.276111
-0.199659
-0.0367259
-0.0540608
-0.0770144
0.0478848
-0.216265
0.126811
-0.308239
0.0495905
-0.457983
-0.402426
-0.143633
0.0561045
-0.220796
-0.41135
0.0469465
0.0824482
-0.0780224
-0.46455
-0.487651
-0.402185
-0.379726
-0.0535644
0.488633
-0.042834
-0.212949
-0.26562
0.0838594
-0.146231
-0.0441389
-0.37564
-0.214522
-0.0968361
-0.244206
-0.479048
-0.270505
-0.252231
-0.0748301
-0.231635
0.278606
-0.426956
-0.220566
-0.0339328
0.097695
-0.468507
0.146874
-0.136122
-0.449912
-0.399418
-0.216581
-0.107005
-0.34481
0.485687
-0.0802339
-0.0548058
-0.136693
0.00621302
-0.0219614
-0.013298
-0.116415
-0.059206
-0.196162
-0.196028
-0.0141295
-0.355146
-0.264197
-0.34314
0.0569122
-0.0444555
0.103524
-0.205523
-0.248278
0.501655
-0.466305
-0.219037
-0.291458
0.349226
-0.214711
0.0462581
0.0321592
-0.308742
-0.11926
-0.347661
0.187615
-0.413947
0.406241
-0.243654
-0.211371
-0.100301
-0.1755
-0.317129
-0.457622
-0.301329
-0.495691
0.0883388
-0.472496
-0.404272
-0.339757
-0.35365
0.475941
-0.177522
-0.166239
0.264256
-0.293878
-0.0151819
-0.104731
0.394267
-0.231049
-0.0933209
-0.338883
-0.493801
-0.414327
-0.43727
-0.287279
-0.297858
-0.306942
-0.00399737
-0.463752
-0.454984
-0.301136
-0.316765
-0.388605
-0.295326
-0.436296
-0.424692
0.0750095
-0.130002
-0.00822187
-0.299133
-0.264497
-0.214092
-0.197992
-0.275224
-0.249686
-0.319989
-0.264542
-0.0301348
-0.285167
0.0113491
-0.48083
0.0456024
-0.369311
-0.300429
-0.0406165
-0.0783294
-0.106939
0.000654993
-0.17035
0.16341
0.390758
0.0733379
-0.294781
-0.375248
0.0897353
-0.373049
-0.0936262
-0.400985
-0.167472
0.17126
-0.413324
0.0521146
0.0472735
-0.438224
-0.197407
-0.2972
0.163929
0.171852
-0.0721216
0.295629
-0.361916
-0.478272
-0.0689395
-0.44706
-0.00897786
-0.302402
-0.18789
0.0632895
-0.331747
-0.102302
-0.0222561
-0.219276
0.0289392
-0.138181
-0.33883
0.0978832
-0.274428
-0.174193
-0.191553
-0.379831
-0.173298
-0.357668
-0.00983393
-0.180205
-0.168019
-0.466938
-0.0348622
-0.345694
0.139595
-0.0422501
-0.193304
0.121155
-0.0124939
-0.0471651
0.27156
-0.423367
-0.106957
-0.259408
-0.296129
-0.29279
-0.436811
-0.417474
-0.262708
-0.0980658
0.397501
-0.252338
-0.425441
-0.110275
0.0170868
-0.0916241
-0.0639598
0.143888
-0.289268
-0.367432
0.343624
-0.356426
-0.187124
-0.402248
-0.135428
0.3073
-0.28966
-0.10231
-0.368539
-0.191586
-0.211878
0.208573
-0.338721
-0.0797651
-0.265637
-0.0951372
-0.0454131
-0.214587
0.0224312
0.0868037
-0.0221458
-0.0859129
-0.258292
-0.00500131
-0.215898
-0.046673
-0.27312
-0.0454018
0.107717
-0.0967656
-0.162487
0.350649
-0.194585
-0.145164
0.0818208
-0.144679
-0.185439
0.0110679
-0.17379
0.270536
-0.116741
0.319456
-0.312477
-0.117242
-0.337465
-0.265568
-0.00536477
-0.286397
-0.3056
-0.408392
0.237357
-0.299918
0.262393
-0.157543
0.0294727
0.0845075
-0.381285
-0.35542
-0.299622
-0.120476
0.189507
-0.40381
0.198505
-0.319353
-0.0475357
-0.286957
-0.153589
-0.204643
-0.0996646
0.476241
-0.376158
-0.00170646
-0.143732
-0.0175097
-0.0473529
-0.317247
-0.225074
-0.274077
-0.156933
0.0117223
-0.315146
0.423529
-0.0760798
-0.368051
-0.308478
0.0869578
0.0190935
-0.368657
-0.249898
-0.0383687
-0.22886
-0.0181475
-0.391865
-0.263845
-0.334601
-0.303757
-0.423027
-0.132664
0.0234614
-0.0130772
-0.11214
-0.129927
-0.344394
-0.29108
0.0799564
0.462279
-0.413616
-0.339358
-0.30979
-0.298273
-0.316114
0.0690275
-0.395718
-0.236007
-0.0864635
0.297549
-0.132785
-0.368063
-0.38169
-0.0175816
-0.162414
-0.375579
0.0236898
-0.0598504
0.0128253
-0.0203545
-0.285226
-0.0900868
-0.196579
0.0222511
0.498848
-0.195506
-0.253166
-0.434787
-0.324229
-0.00603347
-0.289021
-0.250072
-0.0483769
-0.389054
-0.252909
0.442012
-0.260845
-0.30318
0.357565
-0.0383634
0.0167445
0.0297404
-0.367016
0.275517
-0.272654
-0.116495
-0.300377
-0.0597316
-0.297366
0.0714031
-0.501458
-0.413209
0.215617
-0.461699
-0.0425004
-0.16729
-0.153667
-0.097468
0.0565798
-0.019657
-0.0846477
-0.224389
-0.108192
0.479567
0.110995
-0.0583695
-0.271868
-0.286372
-0.0488323
-0.168143
-0.0341249
-0.435334
-0.466962
-0.0118342
-0.199185
0.4663
-0.194075
-0.0366916
-0.416232
0.519104
-0.224518
0.168907
-0.231562
-0.0798464
-0.376294
-0.200948
-0.131181
-0.308066
0.00120778
-0.126649
-0.114336
-0.364719
-0.0461754
-0.0569794
-0.383415
-0.351934
-0.448316
0.0753808
-0.338627
-0.0238974
-0.0219183
-0.422451
-0.0924877
-0.33969
-0.26391
0.0106773
-0.0680004
-0.0782637
-0.453195
0.342558
-0.40883
0.054691
-0.29757
-0.0538512
-0.397195
-0.0200347
-0.223666
-0.250911
0.449223
0.0253939
-0.465935
0.482466
-0.39695
-0.110658
-0.0147959
-0.0775412
-0.322302
0.460924
-0.29844
-0.0442084
-0.225492
-0.317242
-0.107767
-0.0335223
-0.354785
-0.219078
-0.160093
0.258274
-0.273834
-0.054583
0.0300651
-0.330952
-0.0138121
0.0538628
-0.381988
0.256631
-0.253978
0.0553736
-0.351587
-0.0108023
-0.00982125
0.224793
0.324462
-0.34059
-0.495045
-0.33134
-0.0977894
0.308989
-0.00630594
-0.0821548
-0.442063
-0.194204
-0.230035
-0.387405
-0.238181
-0.0270492
-0.125501
-0.261691
0.0603871
-0.148065
0.0251569
-0.230086
0.452328
0.221372
-0.0284004
-0.145248
-0.134086
-0.290063
0.118826
-0.125277
-0.225483
-0.00709748
-0.0803511
-0.115693
-0.260615
-0.197326
-0.344372
-0.00745138
0.0474153
-0.349849
-0.286791
-0.14284
0.178756
-0.00209109
-0.401989
-0.0440889
0.131489
-0.0444922
-0.204739
-0.130091
0.057949
-0.0205939
-0.168806
-0.190373
0.00712371
0.162151
0.0856817
0.113137
0.483265
-0.211621
-0.303875
-0.0511589
-0.0158177
-0.140799
-0.108437
-0.358603
-0.0538729
-0.04567
-0.141496
-0.199397
-0.0432365
0.0499466
-0.482292
-0.073085
-0.249888
-0.335859
0.0393663
0.0599903
-0.224287
-0.330218
0.0518777
-0.11897
-0.331148
0.239618
-0.0897531
0.49427
-0.478066
-0.0886715
-0.323476
-0.0354935
0.156777
-0.49344
-0.40636
-0.166114
-0.0181873
0.0206267
-0.288741
0.337426
-0.418592
-0.0767108
0.0735139
-0.010367
-0.165471
-0.211127
0.0641087
0.504665
-0.0596561
0.0522758
-0.0287048
0.314697
-0.261753
-0.0606966
0.238435
-0.154109
-0.218097
-0.334221
0.0466029
0.0442347
-0.247672
-0.237685
0.136172
0.25463
-0.233072
-0.00711434
-0.0207673
-0.166445
-0.461767
0.298939
-0.459446
-0.306278
-0.296432
0.376643
-0.016695
0.234321
-0.430356
-0.307111
-0.318838
0.321426
-0.289798
-0.0895505
-0.322579
-0.494157
-0.0743177
-0.241601
-0.0505506
-0.302359
-0.0346527
-0.0762592
-0.137669
0.334654
-0.0126879
-0.060574
-0.0649784
-0.0656724
0.043789
0.309987
0.0730191
0.00904707
-0.511405
-0.0357396
-0.244535
-0.266849
-0.0455778
-0.358096
0.010792
0.446891
-0.0347196
0.120095
0.118659
-0.445437
0.124854
-0.203722
0.350355
0.0287492
0.0977817
-0.492787
-0.346762
0.209336
0.499501
-0.413607
-0.00930217
-0.0207283
-0.210907
-0.250809
-0.0428846
0.445658
-0.29234
0.0063669
-0.0328575
-0.176078
-0.308503
0.0442647
0.0240503
-0.476984
-0.323602
-0.115483
-0.00756603
-0.270207
0.0422358
-0.41789
-0.339742
-0.202736
0.0176493
-0.0250621
-0.251928
-0.256559
-0.452099
-0.0477754
0.00226832
-0.304213
-0.204258
-0.331456
-0.46649
-0.0949455
0.133306
-0.425162
-0.0913999
-0.0460452
-0.244275
-0.0284138
0.024391
-0.21804
-0.321785
-0.380033
-0.0697778
-0.226789
-0.178252
0.520347
-0.128983
-0.0252054
-0.436677
-0.00960842
-0.0766416
0.257378
0.342121
-0.196333
0.00671305
0.0137303
-0.447562
-0.277244
-0.486767
-0.236135
-0.398337
0.0617238
-0.0878335
-0.225835
-0.451863
-0.00601059
0.490014
-0.185949
-0.442752
-0.0435303
0.134837
-0.028837
-0.142807
-0.258829
0.00137764
-0.136754
-0.160811
0.0370876
-0.0219189
-0.140438
-0.168118
0.0488541
-0.109591
-0.0677008
0.307693
0.433633
-0.343492
-0.233344
-0.20593
-0.485548
-0.334159
0.019947
-0.159269
-0.100435
-0.481733
0.51518
-0.295835
-0.430785
-0.0201849
-0.382089
-0.0216343
-0.422029
0.0180378
0.175632
0.127127
-0.0515652
-0.0573715
0.0317295
0.157784
0.384104
-0.00541108
-0.456961
-0.252078
0.0428376
0.232932
-0.199863
-0.0190197
-0.100295
-0.215894
-0.169344
-0.25853
0.100897
0.211733
0.0509588
0.175645
-0.247625
-0.0349019
-0.336035
0.0255523
0.0473728
0.0288486
-0.238532
-0.0751014
-0.379694
0.0455073
0.019032
-0.405678
-0.289563
-0.394725
-0.225024
-0.0595329
-0.290643
-0.298386
-0.206436
0.0243766
-0.223358
-0.132455
0.392253
-0.0606542
-0.422789
-0.0529451
-0.00397734
0.0249481
-0.152788
-0.282993
-0.185351
-0.318166
-0.0758024
-0.22123
-0.290845
0.0338433
-0.230871
0.445959
-0.441631
-0.204705
-0.106285
-0.39726
-0.233833
0.378846
-0.138042
0.0177961
0.039173
-0.259045
0.157505
0.171319
-0.0213055
-0.420074
-0.025532
-0.0446134
-0.0467674
-0.284017
-0.234328
-0.369311
0.0387384
-0.295777
-0.0987086
-0.330791
-0.293674
-0.172598
0.12221
-0.332008
-0.00954308
-0.264579
0.00505767
-0.291784
-0.0479155
-0.0113479
0.271766
-0.284199
-0.337498
-0.283658
-0.46567
-0.405601
-0.107437
0.0358103
-0.359665
-0.32124
-0.267068
-0.0497654
-0.0932761
0.0293878
-0.164747
-0.370393
-0.230617
0.0850899
0.0274946
-0.011859
-0.424808
-0.329307
-0.342062
-0.297248
-0.0863756
0.0177955
-0.0783111
-0.371128
-0.238633
-0.403656
0.106153
-0.102099
-0.218265
0.129545
-0.35559
-0.431242
0.0509054
-0.318961
0.00413744
0.424997
0.0247311
-0.0295999
-0.256983
-0.0697598
0.113424
-0.0332156
-0.0520915
-0.312994
-0.00504669
-0.216948
-0.398056
-0.423396
-0.37436
-0.305863
-0.308609
0.0763325
0.302748
0.0866069
-0.299921
0.0207375
-0.333928
-0.479028
0.12524
-0.357577
-0.162762
-0.254315
0.00749344
-0.0867923
-0.322496
-0.345908
-0.224075
0.0813051
0.348867