/*--------------------------------*- C++ -*----------------------------------*\
| =========                 |                                                 |
| \\      /  F ield         | OpenFOAM: The Open Source CFD Toolbox           |
|  \\    /   O peration     | Version:  v2012                                 |
|   \\  /    A nd           | Website:  www.openfoam.com                      |
|    \\/     M anipulation  |                                                 |
\*---------------------------------------------------------------------------*/
FoamFile
{
    version     2.0;
    format      ascii;
    class       volVectorField;
    location    "400";
    object      U;
}
// * * * * * * * * * * * * * * * * * * * * * * * * * * * * * * * * * * * * * //

dimensions      [0 1 -1 0 0 0 0];


internalField   nonuniform List<vector> 
14315
(
(0.946318 -0.312609 2.48149e-19)
(0.396015 0.0762692 0)
(1.02955 -0.120287 -1.83058e-21)
(1.11033 -0.249998 3.622e-20)
(1.12701 -0.30416 3.49515e-20)
(1.11745 -0.0404718 -5.33727e-20)
(0.13179 0.0420268 9.66199e-20)
(0.923561 -0.0949914 0)
(1.09974 -0.165682 -4.28337e-20)
(1.02723 -0.078892 4.61157e-21)
(0.677642 -0.166577 -9.02936e-20)
(-0.268967 -0.0230619 -5.69181e-20)
(0.834516 -0.260866 -1.50808e-19)
(1.03742 -0.00590563 1.05437e-20)
(-0.280999 -0.0234907 -2.09569e-19)
(1.01031 -0.00282728 7.23433e-21)
(0.927528 -0.0977729 -2.97215e-20)
(1.0052 -0.0253402 2.89253e-21)
(1.13775 -0.183341 0)
(1.13146 -0.181035 0)
(1.0087 -0.0279802 1.71811e-22)
(0.323212 0.0205231 0)
(1.17623 -0.104321 -1.16815e-20)
(-0.269696 -0.0215021 5.71793e-20)
(1.04957 -0.30183 -3.37214e-20)
(0.371022 0.0760173 1.69874e-20)
(0.994183 -0.021183 0)
(0.142452 0.0434149 -9.76896e-20)
(0.787109 -0.0978571 8.51622e-20)
(1.26921 -0.120295 1.66992e-19)
(1.14042 0.0085854 3.68091e-20)
(1.00524 -0.0305686 -4.95288e-21)
(1.04011 -0.006512 2.29837e-20)
(0.747919 0.04157 1.06234e-19)
(0.0075934 0.00806419 -1.99576e-19)
(0.333982 0.0116029 -1.86574e-19)
(0.364869 -0.211997 -1.50631e-19)
(0.961048 -0.118709 2.07272e-20)
(1.28812 -0.0759743 1.79832e-19)
(0.978778 -0.354072 -3.68699e-21)
(-0.213597 -0.0171645 -1.84428e-19)
(0.194253 0.112459 -1.87215e-19)
(0.962962 -0.0751176 6.56173e-23)
(1.02434 -0.00148314 1.75318e-20)
(1.17431 -0.0629184 8.58041e-21)
(1.04557 -0.291761 2.43672e-20)
(0.777434 0.0517761 -5.65193e-20)
(-0.286424 -0.0265222 0)
(-0.278527 -0.0249108 0)
(1.00524 -0.0244398 -2.10106e-21)
(-0.280967 -0.0246047 -1.4721e-19)
(1.11948 -0.247135 -2.00311e-20)
(-0.278087 -0.0223041 0)
(-0.286972 -0.026652 0)
(1.12676 0.0188527 8.30637e-22)
(0.367866 0.0144428 2.52897e-19)
(0.142937 -0.530172 -1.7856e-19)
(1.11474 -0.164532 1.17664e-20)
(1.00831 -0.0366944 7.54178e-22)
(1.02751 -0.116502 5.00923e-21)
(1.28424 -0.144979 1.34756e-19)
(0.734496 0.0811345 -7.36496e-20)
(0.35024 0.0160651 0)
(1.01002 -0.0314677 3.10388e-22)
(1.27206 -0.140182 7.05368e-22)
(0.384966 -0.391542 -1.11341e-19)
(0.734665 -0.260774 3.56788e-20)
(1.00123 -0.00864071 1.22599e-21)
(1.00998 -0.0300769 8.92093e-22)
(1.12797 0.0204418 -1.53941e-20)
(-0.287406 -0.024753 1.32226e-19)
(1.1169 -0.154448 0)
(0.0315048 0.00744571 1.99048e-19)
(-0.124128 -0.0444486 1.62844e-19)
(1.00586 -0.045317 0)
(0.119747 -0.0765963 0)
(1.11648 -0.0833943 3.5167e-20)
(0.431209 -0.0200305 -2.213e-20)
(1.17126 -0.0650786 7.60435e-21)
(1.06391 0.00202518 -2.65991e-20)
(1.02555 -0.0132118 0)
(0.366992 0.0133637 -8.57604e-21)
(1.11542 -0.149575 -4.44282e-20)
(0.46414 -0.0218131 -1.93512e-20)
(1.01005 -0.0265317 0)
(1.08714 0.00486386 -2.39161e-20)
(0.230453 -0.120359 0)
(-0.142459 -0.00875456 0)
(-0.288041 -0.0256672 2.28127e-19)
(0.688551 -0.152778 2.82759e-21)
(1.15782 -0.0229195 -5.27903e-20)
(0.901574 -0.297097 2.24824e-20)
(1.02646 -0.0137887 0)
(1.08917 -0.00372139 1.42851e-20)
(-0.23408 -0.0172183 1.26008e-19)
(-0.169557 -0.00603098 5.34808e-20)
(0.966337 -0.0755247 0)
(-0.199327 -0.018874 0)
(-0.00144741 0.0208286 4.2355e-20)
(0.711966 0.1527 -8.26102e-20)
(1.00095 -0.00813441 -1.21221e-21)
(-0.273412 -0.026625 0)
(0.322717 0.0157676 -8.79491e-20)
(1.02993 -0.0167695 -7.60816e-21)
(0.707877 0.171636 0)
(1.28463 -0.0785092 -1.96542e-19)
(-0.130445 -0.0236183 0)
(-0.169497 -0.00727316 3.75136e-21)
(1.15415 -0.000821574 0)
(1.22305 0.0194111 1.64179e-20)
(-0.177863 -0.0078865 -2.86857e-20)
(0.974774 -0.0321395 -5.06738e-22)
(-0.115169 -0.0231205 0)
(0.993259 -0.025963 -6.56213e-21)
(1.02238 -0.0545602 0)
(-0.165575 -0.0115466 -1.30209e-19)
(0.993043 -0.0250443 8.42814e-21)
(-0.286476 -0.0242692 -2.22353e-19)
(-0.13118 -0.0272239 -1.26725e-19)
(-0.146831 -0.0126675 -8.44781e-20)
(1.31133 -0.06123 -7.47482e-22)
(1.12809 0.00108577 0)
(1.02921 -0.0151066 -5.3787e-21)
(-0.249532 -0.0187012 0)
(0.798063 -0.100715 -4.0035e-20)
(1.02367 -0.00177569 -9.95753e-21)
(0.491413 -0.0989872 -2.04445e-19)
(1.0215 -0.00899609 -7.11585e-21)
(1.06049 -0.0160524 -2.44799e-20)
(0.894451 -0.286159 3.70352e-20)
(-0.0409773 0.0113067 1.6478e-20)
(0.0501507 -0.0115873 6.19396e-20)
(0.731724 -0.544384 -7.06791e-20)
(-0.103945 0.00498461 0)
(1.27379 -0.115634 -1.14585e-19)
(1.00549 -0.0409085 -3.71051e-21)
(0.964059 -0.027219 -1.23909e-20)
(0.43103 0.0759623 -1.66549e-20)
(1.06684 0.00115596 2.28009e-22)
(1.00617 -0.0440257 0)
(0.410146 0.0742474 -9.154e-21)
(-0.235645 -0.0184221 2.04557e-19)
(0.974501 -0.0310857 0)
(-0.187849 -0.0173934 3.68692e-20)
(1.22236 0.0161126 0)
(-0.0197282 0.0151502 -6.19216e-20)
(1.23074 0.0282753 -8.99417e-20)
(0.934914 -0.0151978 1.76089e-19)
(1.12132 -0.0169478 5.692e-20)
(0.800509 0.00639223 0)
(1.03605 -0.110004 -1.08183e-20)
(-0.218195 -0.0197069 -1.99189e-20)
(1.00502 -0.0794581 -1.513e-21)
(1.11952 -0.0186356 -7.35594e-20)
(1.12529 -0.295221 1.66092e-21)
(-0.279127 -0.0223896 2.08025e-19)
(0.956659 -0.0741913 3.20177e-20)
(1.01031 -0.00332398 0)
(1.11685 -0.0380777 4.96002e-20)
(0.423633 0.0748647 -3.37556e-20)
(1.0092 -0.0379143 3.93128e-22)
(-0.269072 -0.0246519 1.30247e-19)
(0.823635 -0.0175273 0)
(-0.258885 -0.021588 1.32271e-19)
(1.05022 -0.0884335 0)
(-0.159037 -0.00534028 0)
(-0.093511 -0.00283206 8.43714e-20)
(0.795376 -0.276514 0)
(-0.188111 -0.030278 1.80972e-19)
(0.00436798 -0.0121191 0)
(1.0865 -0.0511302 6.8837e-20)
(1.00738 -0.00220712 -1.71854e-22)
(-0.1347 -0.00705465 1.48543e-20)
(1.02589 -0.0809991 -4.08086e-21)
(1.17609 -0.049977 -6.31028e-20)
(0.340081 -0.239845 1.36856e-19)
(1.00009 -0.0014274 1.66226e-21)
(0.33482 0.0181266 0)
(0.189196 0.0199395 4.54683e-20)
(-0.0478547 0.00948416 -4.85821e-21)
(1.25074 -0.283419 4.69313e-20)
(1.11396 -0.080926 0)
(1.02823 -0.0149633 9.78787e-21)
(1.26351 -0.0113809 5.21088e-20)
(1.16403 -0.0940194 -8.49497e-21)
(0.959385 -0.109648 -2.98225e-21)
(0.972875 -0.341339 -1.61802e-21)
(1.2834 -0.0372291 -7.77701e-20)
(0.0399332 0.00740672 -2.49118e-20)
(1.23696 0.0284807 0)
(1.17197 -0.105521 -3.01763e-20)
(0.820159 -0.299527 -4.45523e-20)
(-0.134831 -0.000768812 1.24055e-19)
(0.228887 0.140616 1.99423e-19)
(1.04666 -0.00363195 8.21202e-21)
(-0.13486 -0.032927 0)
(1.2906 -0.146926 -8.03586e-20)
(1.04139 -0.0453964 1.61198e-20)
(1.02569 -0.0256361 5.49337e-21)
(0.69262 -0.120829 -9.22092e-20)
(-0.232312 -0.0175953 4.16067e-20)
(1.0859 -0.116639 2.84079e-20)
(-0.2646 -0.0225442 -2.47799e-19)
(-0.125514 0.00195179 -1.03177e-19)
(1.06136 -0.0357957 7.21883e-21)
(1.19734 0.0860969 -8.61253e-21)
(1.26585 -0.136933 0)
(1.11067 -0.134739 0)
(1.01131 -0.00781848 2.98049e-21)
(-0.155488 -0.00313419 1.03132e-19)
(1.20412 0.0800189 -1.36062e-19)
(1.06409 -0.0162479 1.22373e-20)
(-0.228296 -0.0166671 -1.67397e-19)
(1.22309 -0.069388 9.14787e-20)
(0.0503257 0.0313523 0)
(-0.119867 -0.0297584 0)
(0.533899 -0.0421779 1.30413e-20)
(0.0248012 0.0240331 0)
(0.0322525 0.0281415 -5.81027e-20)
(1.2329 -0.0580791 9.13571e-20)
(1.08798 -0.113699 -3.36808e-20)
(1.15179 0.00096905 4.60842e-20)
(1.18142 0.0431525 -3.38429e-20)
(0.996008 -0.111253 -1.69086e-21)
(0.693471 0.0817119 6.23898e-20)
(1.03658 -0.0969874 1.21606e-21)
(1.01356 -0.000595286 0)
(1.27772 -0.0115286 -5.41175e-20)
(0.0153607 0.00652702 -3.41785e-20)
(0.435186 -0.271625 1.91881e-19)
(1.01954 -0.000783544 0)
(1.04983 -0.0863004 1.47419e-20)
(0.810781 0.00586605 7.50245e-20)
(1.00028 -0.000449641 5.54286e-21)
(1.00003 -0.000593713 0)
(0.563942 -0.0761064 -1.99973e-20)
(1.16828 -0.0713318 7.92275e-21)
(1.11223 -0.139815 0)
(0.019937 0.00933571 -9.75216e-20)
(-0.0309747 0.0104574 0)
(1.08704 -0.00320434 -2.01725e-20)
(1.1412 -0.0452955 1.12746e-20)
(0.27506 -0.629524 6.17665e-20)
(-0.216122 -0.0158708 1.11562e-20)
(1.10795 -0.589645 -7.01423e-21)
(0.777606 -0.275917 1.3125e-21)
(0.579095 0.0491563 1.08041e-19)
(1.00115 -0.00105534 5.38113e-21)
(-0.0141183 0.0108892 0)
(1.213 -0.133576 6.91435e-20)
(1.04455 -0.0123183 0)
(1.02995 -0.0162062 7.47127e-21)
(0.113676 -0.0263112 -1.92921e-19)
(0.352303 0.109647 -8.99594e-20)
(0.964746 -0.0541103 -2.70485e-20)
(0.208889 0.0394545 0)
(1.14454 -0.0659381 5.85763e-20)
(1.19693 0.0883472 -1.53339e-22)
(-0.143177 -0.0198547 -4.48505e-20)
(1.18318 0.079032 7.46652e-20)
(0.719683 -0.512737 2.91424e-20)
(1.12941 0.00283377 -1.67613e-20)
(-0.240538 -0.0177735 2.74654e-21)
(1.24094 -0.135749 0)
(0.979412 0.0954139 -1.10602e-19)
(1.14127 -0.066436 -8.16586e-20)
(1.05581 -0.233947 -2.2224e-20)
(1.14384 -0.0437083 1.17361e-20)
(1.08847 0.00361832 2.72633e-20)
(-0.187471 -0.0117913 0)
(0.412082 0.0755395 -3.37793e-20)
(1.10304 -0.057442 0)
(1.19928 0.0338194 0)
(-0.15818 -0.00964038 1.54587e-19)
(0.985698 -0.186262 0)
(0.500805 0.0541893 0)
(-0.192529 -0.0127569 8.38878e-20)
(1.17187 -0.0699359 0)
(-0.168368 -0.0196238 0)
(1.20835 -0.341257 3.63623e-20)
(1.14105 0.0109504 3.06438e-20)
(1.1104 -0.0287357 -4.3975e-20)
(-0.0239623 0.0101899 0)
(0.383494 0.0133391 -8.13873e-21)
(1.02176 -0.0525988 0)
(-0.26047 -0.0206258 0)
(0.305196 0.0170352 0)
(-0.122219 -0.0212536 2.56132e-22)
(-0.113115 0.00319795 0)
(0.394418 0.0227844 0)
(1.17783 -0.0533077 4.51109e-20)
(-0.235161 -0.0262142 -1.32498e-19)
(-0.135798 0.000643758 1.11084e-19)
(-0.15159 -0.0198883 -1.84294e-20)
(1.27757 -0.136504 5.76602e-22)
(1.19743 -0.00783842 2.60638e-20)
(-0.170806 -0.00713924 -3.25866e-20)
(1.22558 -0.0734526 -8.09851e-20)
(0.995613 -0.0340432 -1.72397e-20)
(1.02495 -0.0248125 0)
(1.15977 -0.0207533 -1.65734e-20)
(-0.2555 -0.0251583 -8.91167e-20)
(0.859815 -0.00750786 -1.55454e-19)
(0.345235 0.0697107 -1.95041e-20)
(0.96226 -0.10728 8.9513e-21)
(1.01047 -0.0273335 2.47785e-22)
(-0.0411302 0.0107735 0)
(0.294469 0.0191539 1.13678e-20)
(1.01032 -0.0210012 4.28209e-21)
(1.04682 -0.0114913 1.1932e-22)
(0.28705 -0.00901157 0)
(1.03015 -0.0119942 0)
(-0.137597 -0.0286972 1.02217e-19)
(-0.167848 -0.00602255 3.45009e-20)
(1.10024 -0.275026 1.32896e-20)
(1.28828 -0.0353431 -5.5094e-20)
(1.05908 -0.0151379 -1.16146e-20)
(1.14058 -0.0709341 5.18798e-23)
(1.04407 -0.0943546 0)
(1.00685 -0.00245496 0)
(-0.240158 -0.019302 -2.1339e-19)
(1.33994 -0.21775 8.73445e-21)
(-0.146661 -0.00212501 -9.28542e-20)
(1.14864 -0.0550279 -6.20107e-20)
(1.17572 -0.456025 1.13397e-19)
(1.04758 -0.00400491 -1.7247e-20)
(-0.160898 -0.00571891 5.71138e-20)
(1.28681 -0.0849418 0)
(0.680379 -0.133017 -3.70257e-21)
(1.04559 -0.0114154 -1.56427e-20)
(1.13707 -0.0715927 -2.0181e-20)
(-0.0877727 0.00494183 -1.00555e-20)
(1.0001 -0.00650784 1.42832e-20)
(0.00355442 0.00755621 1.06703e-19)
(-0.0827563 -0.0371877 0)
(1.00475 -0.0222076 0)
(-0.127081 0.00179152 -8.28086e-20)
(0.135758 -0.0277211 1.31365e-19)
(0.129834 -0.0275141 8.85855e-21)
(0.12259 0.0365605 6.55263e-20)
(1.04162 -0.0439749 1.49262e-20)
(0.986069 -0.025249 -3.27801e-20)
(1.01568 -0.0166903 9.52644e-21)
(1.00095 -0.000835023 -3.3468e-21)
(0.750917 0.0318051 1.31621e-19)
(1.00742 -0.00364036 5.94303e-21)
(1.04449 -0.0128276 8.49905e-21)
(0.465698 -1.01446 0)
(1.23056 0.0245071 4.61261e-20)
(-0.170138 -0.0055909 -5.94682e-20)
(0.999914 -0.00170101 -1.68383e-20)
(0.962712 -0.0262103 -7.56462e-21)
(-0.0482985 0.0075409 0)
(-0.195011 -0.0136854 -8.03252e-20)
(0.318429 -0.438802 -1.38113e-19)
(0.994198 -0.0448526 0)
(1.06349 -0.0364351 0)
(1.00002 -0.000557922 0)
(1.01046 -0.0227005 2.07859e-21)
(-0.177551 -0.0101246 3.31649e-20)
(0.783508 0.0402527 4.96635e-20)
(0.935338 0.0944905 0)
(0.910552 -0.0159515 1.91735e-22)
(0.945297 0.0925206 1.45739e-19)
(0.59713 0.0376219 3.14398e-20)
(-0.139915 -0.0221854 -9.34736e-20)
(1.02169 -0.00985653 -7.36272e-21)
(-0.208501 -0.01396 1.91764e-20)
(-0.0374218 0.00834306 4.70725e-20)
(1.14251 0.00680464 1.30252e-22)
(1.31121 -0.195314 9.92354e-20)
(1.00501 -0.0768971 0)
(0.99992 -0.00182807 1.36832e-20)
(0.538008 0.0515222 0)
(-0.0807053 0.00681631 -1.91483e-20)
(1.05603 -0.228201 1.13006e-21)
(1.04113 -0.093949 0)
(1.00437 -0.0211798 0)
(0.994189 -0.0429413 0)
(0.083675 -0.160856 8.06036e-20)
(-0.295005 -0.0269782 -1.41507e-19)
(1.12004 -0.145946 0)
(1.00747 -0.00419902 -6.21471e-21)
(1.05566 -0.0506678 -1.07219e-19)
(0.939535 -0.316133 0)
(0.195411 0.046693 0)
(1.18346 0.0451872 -6.45126e-20)
(0.190358 0.0377318 4.32704e-21)
(0.219203 0.0473671 -2.329e-20)
(1.21219 0.0675843 -3.87293e-20)
(1.04813 -0.0910869 6.98612e-21)
(-0.266931 -0.0225668 0)
(0.161017 -0.0283925 -1.65074e-20)
(0.720244 0.0407635 -1.14024e-19)
(-0.177475 -0.00690833 1.48321e-20)
(0.127726 0.0362598 -6.62186e-20)
(0.89374 -0.176392 1.44021e-20)
(0.999926 -0.00227325 1.01534e-20)
(1.15436 -0.00307503 1.04225e-19)
(0.043251 0.0281784 2.80558e-20)
(1.04541 -0.0906568 -1.85105e-20)
(0.909433 -0.0927837 3.70831e-20)
(1.05805 -0.0130675 -1.19859e-20)
(-0.285511 -0.0268189 -4.24374e-21)
(0.204461 0.0463123 -1.10119e-19)
(1.20114 0.0832275 0)
(-0.124905 0.00236847 2.63097e-20)
(1.3415 -0.213618 0)
(0.959745 0.0956908 0)
(0.324917 0.0127746 0)
(1.01856 -0.0208935 -7.04504e-21)
(-0.044198 0.0146825 -9.97059e-23)
(-0.264206 -0.020208 -2.05861e-19)
(1.20115 -0.00770629 -3.24689e-20)
(1.05833 -0.0188496 0)
(1.02969 -0.0112424 0)
(1.23398 0.029766 9.66931e-20)
(-0.161326 -0.020885 -8.04203e-20)
(1.00961 -0.0196855 0)
(1.08202 -0.573879 4.01861e-20)
(1.10333 -0.0550583 0)
(0.344108 -0.0779648 3.96276e-20)
(1.28348 -0.0878675 0)
(0.906716 -0.097274 -5.01096e-20)
(0.999989 -0.00586363 -2.80784e-23)
(-0.201069 -0.0182733 1.24614e-19)
(-0.147813 -0.0275109 1.08291e-19)
(1.20956 -0.109724 1.05439e-19)
(1.16444 -0.0771499 -5.90181e-20)
(1.1246 0.0237856 4.37803e-20)
(-0.204708 -0.0244048 1.30148e-19)
(0.404006 0.0731281 0)
(0.999799 -0.00236192 -1.31217e-20)
(1.10001 -0.160779 -3.71546e-20)
(1.23513 0.0631173 0)
(1.10284 -0.0066889 -2.65762e-20)
(1.22891 -0.0222091 4.11391e-20)
(-0.147102 -0.00176185 -7.42175e-20)
(1.13339 -0.282007 4.05663e-20)
(0.995455 -0.0324368 1.87705e-20)
(0.358875 0.0744246 1.51994e-19)
(0.99665 -0.0444102 0)
(-0.079923 0.00714087 0)
(1.00901 -0.0290017 -7.86619e-23)
(0.965165 -0.118414 3.55349e-20)
(1.2404 0.0290262 1.57889e-19)
(0.93862 -0.30108 0)
(-0.190341 -0.0172105 -1.45752e-19)
(1.00353 -0.0198891 0)
(0.999035 -0.109396 1.40182e-21)
(0.651185 -1.01461 0)
(-0.232535 -0.0190581 5.10807e-20)
(0.999596 -0.00943406 -1.69609e-22)
(1.18014 -0.020005 -5.21376e-20)
(1.11262 -0.0298825 5.37017e-20)
(-0.221135 -0.0145246 -1.44607e-19)
(1.32728 -0.307832 0)
(-0.184031 -0.0185591 0)
(-0.0315753 0.0162202 2.31859e-20)
(1.2255 0.0133609 0)
(0.999004 -0.0578351 -6.23442e-21)
(0.537714 0.084491 -9.83888e-20)
(-0.279921 -0.0244834 -5.24191e-20)
(1.22661 -0.0251894 -3.7008e-20)
(0.225463 0.0480431 1.4612e-19)
(0.979241 0.0317929 -5.15541e-20)
(-0.288061 -0.0273163 0)
(1.22448 0.0107055 1.85694e-20)
(1.18177 -0.017375 8.4933e-20)
(-0.0476972 0.00926517 0)
(1.12415 -0.00549804 -2.95964e-20)
(1.21798 0.0299451 0)
(-0.179635 -0.00709403 6.63788e-20)
(1.17927 -0.0316025 4.19429e-20)
(-0.238914 -0.0191694 2.48171e-20)
(0.986738 -0.11341 -9.21548e-21)
(1.0375 -0.00769667 0)
(1.07959 -0.0675973 1.49868e-20)
(-0.170708 -0.00573265 -5.58456e-20)
(-0.227537 -0.0182676 0)
(1.20584 0.00191934 -3.57253e-20)
(0.215858 -0.00169767 3.1857e-20)
(1.217 0.0276445 0)
(-0.109317 -0.00768899 1.86299e-20)
(-0.173457 -0.0219562 0)
(1.2454 -0.275516 -1.12983e-19)
(1.00003 -0.00104839 0)
(0.103415 0.0348182 -8.63926e-20)
(0.938214 -0.0744185 -5.8286e-20)
(1.22794 -0.0579848 0)
(1.01803 -0.0202425 -1.37269e-22)
(1.32894 -0.313692 -3.79159e-20)
(1.03958 -0.0728246 8.7257e-21)
(1.09442 -0.268796 0)
(1.2142 0.0818603 0)
(-0.0268416 0.0136975 1.62426e-20)
(1.00112 -0.00735905 -2.08331e-23)
(1.09382 -0.15163 0)
(0.236499 -0.00505048 0)
(0.41948 0.0750242 0)
(0.802035 -0.298799 1.16142e-20)
(-0.16154 -0.0301363 2.78778e-20)
(-0.262134 -0.0212695 1.61311e-19)
(1.05319 -0.0852554 -2.13594e-20)
(1.00002 -0.00126392 9.75376e-22)
(1.05953 -0.0197509 0)
(-0.00650521 -0.0497091 0)
(1.25473 -0.192328 1.08962e-21)
(0.984738 -0.17975 0)
(1.05945 -0.0139125 3.79564e-20)
(0.487526 0.080953 -6.70169e-20)
(1.02613 -0.0761685 0)
(1.08532 -0.0336974 1.55276e-20)
(1.08132 -0.0546821 0)
(1.2013 0.085852 1.05619e-20)
(0.254467 -0.00328837 1.56894e-20)
(0.770319 -0.241063 0)
(0.106822 0.0344713 6.97713e-20)
(0.833827 0.0288494 -5.39027e-20)
(1.19594 -0.206488 1.8451e-19)
(-0.256122 -0.0197456 5.97143e-20)
(1.10331 -0.00934086 -1.05869e-20)
(1.10464 -0.00588608 3.9039e-20)
(0.805646 -0.08937 -3.70752e-20)
(1.24367 -0.487443 7.41006e-20)
(-0.179805 -0.00733941 -6.11198e-20)
(1.02739 -0.0843015 4.20261e-21)
(1.00114 -0.00794241 6.30346e-23)
(1.22694 -0.0325485 0)
(1.06595 0.000190977 0)
(0.997657 -0.0452851 -3.28403e-21)
(1.2034 0.00429221 0)
(1.00875 -0.0213442 -5.13503e-21)
(1.04683 -0.00976369 2.47216e-20)
(1.24462 -0.0350102 -8.50573e-20)
(-0.287464 -0.0254759 -3.29112e-20)
(0.962253 -0.0543416 2.20382e-20)
(-0.263699 -0.0213701 1.25098e-20)
(1.2426 -0.0954875 -5.60656e-20)
(1.00042 -0.00541376 -2.95622e-21)
(-0.16412 -0.0200023 0)
(1.10153 -0.0102422 -8.74723e-21)
(-0.102548 0.0054713 -4.66877e-20)
(1.24475 0.0588984 1.70288e-20)
(1.08312 -0.0337182 -4.01723e-20)
(1.17044 0.032246 -5.3836e-20)
(1.07644 -0.0866503 2.37557e-20)
(1.25721 -0.0615597 0)
(1.20507 -0.111274 -6.11095e-20)
(-0.186919 -0.0121065 -8.91294e-20)
(1.08613 -0.031358 -2.6665e-20)
(1.05309 -0.08239 -1.08976e-20)
(0.154711 0.0481341 0)
(0.114272 -0.158952 -2.09159e-19)
(0.448644 0.073909 0)
(1.14139 -0.0301118 0)
(0.815345 -0.0931127 -5.6892e-20)
(0.985038 -0.0334297 2.65495e-20)
(0.999153 -0.054354 0)
(1.11796 -0.140843 -4.94355e-20)
(-0.087657 0.00557749 0)
(0.0115135 0.00162115 1.05685e-19)
(-0.0477961 0.00881682 0)
(1.2544 -0.198384 6.95544e-20)
(1.20566 -0.329825 -6.81718e-20)
(1.24988 0.0122972 1.50072e-20)
(0.993561 -0.0216272 -3.63836e-21)
(1.00032 -0.00485809 0)
(1.15342 0.0236622 -1.29581e-20)
(1.073 -0.0238601 0)
(0.821713 0.00539984 -1.41507e-19)
(1.02384 -0.00826892 -1.59512e-20)
(-0.254949 -0.0198429 -1.7707e-19)
(1.23289 0.0456949 0)
(-0.173149 -0.0111263 4.20321e-21)
(1.02135 -0.00026231 -1.64416e-22)
(1.17742 -0.0436773 4.43974e-20)
(1.00469 -0.0308244 0)
(0.57228 0.927565 7.51021e-20)
(1.03835 -0.00586426 0)
(0.517642 0.0556596 -1.57048e-19)
(1.15749 -0.223016 0)
(0.994488 -0.0200206 0)
(1.19037 -0.11664 -1.36431e-19)
(1.00997 -0.0215739 -2.08409e-21)
(1.07459 -0.088466 -3.72417e-20)
(1.03738 8.92124e-05 1.62733e-20)
(1.12253 0.022578 1.43281e-20)
(1.24617 -0.209242 1.32341e-19)
(1.03472 -0.0875818 7.75746e-21)
(-0.105221 -0.00631441 3.28627e-20)
(1.00929 -0.02766 -2.85622e-22)
(1.25383 -0.0635642 -4.80171e-20)
(1.19184 0.0360683 1.40851e-20)
(1.25562 -0.0722052 -7.25471e-21)
(1.01128 -0.023302 0)
(0.828123 0.0399349 -5.05685e-20)
(0.880581 -0.0475653 1.85456e-20)
(0.385142 0.0736058 0)
(-0.13368 -0.000958684 5.27735e-20)
(1.1644 0.0416629 -3.19646e-20)
(1.21655 0.052956 0)
(-0.128566 -0.0205199 9.1871e-20)
(0.132018 -0.138309 0)
(1.08834 -0.031343 -1.53783e-20)
(1.0012 -0.00748351 2.51558e-22)
(-0.0390721 -0.0428688 -1.07944e-19)
(0.984663 -0.0642219 1.22472e-20)
(1.04929 -0.16431 -5.48453e-21)
(0.344337 0.632176 2.40572e-20)
(-0.0984169 -0.00463419 -9.92957e-20)
(1.23721 0.0347616 -4.7407e-20)
(-0.104182 0.0053874 4.44565e-20)
(1.03714 -0.00642907 1.15483e-20)
(0.656139 -0.292867 3.2857e-20)
(0.899929 -0.0838212 -3.17062e-20)
(1.25254 -0.0697024 -6.72312e-21)
(0.565017 -0.190402 1.463e-19)
(0.99973 -0.00919278 -1.31669e-20)
(1.01836 -0.0175742 -6.21552e-21)
(1.22961 0.046644 -4.64895e-20)
(1.20472 0.0828552 6.94124e-20)
(1.02619 -0.0869088 -3.39741e-21)
(1.24876 0.0100382 -2.61175e-20)
(-0.0579516 0.00898375 -2.16153e-21)
(1.05405 0.00102759 3.40418e-20)
(1.06365 -0.00646211 3.49689e-21)
(0.230056 0.0471184 0)
(0.5625 -0.173308 0)
(-0.146056 -0.00184483 0)
(1.04128 -0.00361791 1.22053e-20)
(1.21436 -0.102637 -8.69811e-20)
(1.00337 -0.0270592 -8.13238e-21)
(1.04039 -0.00599526 1.02215e-21)
(-0.0410686 0.010153 1.71663e-20)
(1.00112 -0.00692283 -2.3021e-22)
(-0.0279695 0.0129461 5.76694e-20)
(1.16845 -0.0757826 7.1881e-20)
(0.548284 0.0403684 3.22625e-20)
(1.03981 -0.0423197 -1.71584e-20)
(0.978994 -0.0345533 -2.79748e-20)
(1.17102 0.0342143 9.46076e-20)
(1.14497 -0.053652 6.01443e-20)
(-0.195034 -0.0212314 0)
(0.52257 0.0801122 -1.04088e-20)
(-0.0913208 -0.0032973 -4.13611e-20)
(1.03383 -0.112827 -1.47052e-20)
(1.18005 -0.0257714 9.57215e-21)
(0.999902 -0.00186977 0)
(1.14122 0.00382263 -4.03454e-20)
(0.421326 -0.416125 -9.11033e-20)
(1.16482 -0.11832 0)
(0.0933234 0.0347218 0)
(1.18902 0.0365565 1.27189e-20)
(1.23709 0.0276004 0)
(0.858675 -0.23689 1.24172e-19)
(1.16014 -0.0957737 0)
(1.13559 -0.0307068 0)
(1.23864 -0.0981383 5.66813e-20)
(0.178941 0.0509767 4.25096e-20)
(1.0712 -0.0240361 0)
(1.13713 -0.0329303 -5.94706e-21)
(1.24522 0.0482293 -4.26613e-20)
(0.427709 0.00288575 0)
(1.21028 0.0715626 -1.32248e-19)
(0.325802 -0.0745243 1.27049e-19)
(1.01375 -0.00179445 -1.98685e-20)
(1.01788 -0.130542 0)
(-0.155492 -0.0037602 -2.98639e-20)
(0.957762 -0.0767913 -5.51482e-20)
(-0.285858 -0.0230287 0)
(1.06351 -0.00563128 1.26996e-20)
(1.24622 -0.20273 -1.94713e-19)
(0.998244 -0.0527524 0)
(1.1792 -0.0469767 1.06909e-20)
(1.06405 -0.0175006 -2.91173e-20)
(0.452787 -0.497058 6.80711e-20)
(-0.00927991 0.0108736 -2.35456e-20)
(1.00317 -0.0127758 5.18389e-22)
(0.715107 0.767373 -5.53751e-20)
(1.00356 -0.0135578 -9.04787e-22)
(1.0001 -0.00133651 0)
(1.10731 -0.616548 7.88971e-21)
(-0.198149 -0.0183884 0)
(1.16203 -0.0322853 7.54153e-20)
(-0.178669 -0.00999592 -7.33416e-20)
(1.22679 0.0625502 1.76341e-20)
(0.0325462 -0.0633785 4.8195e-20)
(0.183254 -0.560087 1.6797e-19)
(1.06598 -0.0144632 -4.24518e-20)
(0.968079 -0.0714726 -1.17972e-20)
(1.03753 9.77175e-05 0)
(1.07645 -0.0195001 5.90629e-20)
(1.16208 0.0395237 -3.214e-20)
(1.07664 -0.0209329 -6.26163e-20)
(1.15284 -0.463491 -1.20668e-19)
(0.560545 0.0507749 -1.067e-19)
(1.16032 -0.0827224 0)
(1.13848 -0.0501594 0)
(0.986319 -0.0655455 0)
(1.06912 -0.0119582 -1.74677e-20)
(-0.046016 0.00799729 -2.02383e-20)
(1.01608 -0.00156808 -1.0035e-20)
(1.15054 -0.220632 0)
(1.21012 -0.103554 9.96125e-20)
(1.09393 -0.157141 0)
(-0.20624 -0.0141304 -1.69556e-19)
(0.581731 -0.0354671 8.17719e-20)
(1.20329 0.0571848 -7.15622e-20)
(0.272315 0.0506073 -6.01487e-20)
(1.01198 -0.167249 1.33599e-21)
(-0.279699 -0.0262074 -6.80223e-20)
(1.12603 -0.186283 -4.09729e-20)
(1.03911 -0.0065015 -1.62e-20)
(1.00293 -0.0263363 7.93799e-21)
(0.981458 -0.0560954 -1.74091e-20)
(1.11064 -0.168557 2.38856e-22)
(1.07832 -0.0694496 0)
(1.18682 -0.0385153 4.55774e-20)
(1.07128 -0.0871469 -3.00383e-20)
(1.02174 -0.13204 -7.61897e-22)
(-0.253282 -0.0251578 0)
(1.04208 -0.00393999 -4.05835e-20)
(0.985542 -0.109083 0)
(1.19022 -0.225484 1.24483e-19)
(1.09065 -0.00246731 0)
(1.00287 -0.165428 -2.50891e-23)
(1.23489 -0.0617556 9.23489e-20)
(0.971182 -0.0772419 1.39735e-20)
(0.475469 0.710799 0)
(1.02739 -0.0137847 0)
(0.999755 -0.00245885 -7.5317e-21)
(0.537688 0.049363 -8.92525e-20)
(0.0511467 0.00731509 2.84199e-20)
(-0.064376 0.00732722 9.17769e-21)
(0.399749 -0.224501 1.31589e-19)
(1.00656 -0.0408748 0)
(-0.134011 0.000772649 -1.43964e-20)
(0.843442 -0.0982476 0)
(1.00661 -0.0389044 2.81822e-21)
(0.202792 -0.127019 0)
(1.00449 -0.00130362 3.32341e-21)
(1.00528 -0.0291338 3.16375e-21)
(1.17287 0.0277578 -1.78817e-20)
(1.00388 -0.021002 -1.63987e-21)
(-0.109972 -0.00465091 -3.01624e-20)
(1.08201 -0.0858628 -8.98806e-21)
(0.280932 -0.584867 -7.37285e-20)
(0.992705 -0.109431 0)
(0.519402 0.0505543 1.48358e-19)
(1.29988 -0.196531 -9.3166e-20)
(1.19104 -0.211515 -3.87145e-20)
(0.977875 -0.164214 0)
(-0.28868 -0.0252243 -1.71271e-20)
(0.760959 0.0108205 2.00958e-19)
(-0.186531 -0.0114365 -3.49294e-20)
(0.998228 -0.0562857 3.40199e-21)
(1.092 0.0841159 -1.60686e-20)
(0.866111 -0.135129 1.36837e-20)
(-0.144422 -0.0207878 2.48051e-20)
(1.00003 -0.00197634 0)
(-0.0789653 0.00639436 -5.68517e-20)
(-0.275774 -0.0242073 -1.41052e-20)
(1.08293 -0.542932 0)
(0.602007 -0.0447358 5.74687e-20)
(1.00467 -0.0136846 9.37538e-22)
(-0.287791 -0.0202482 7.27934e-20)
(1.12803 0.0055946 0)
(1.17321 0.0299537 0)
(0.49345 -0.473934 1.33932e-21)
(-0.0287232 0.0106615 -5.39116e-22)
(1.0351 -0.0937252 8.31606e-21)
(0.988434 -0.0644363 -1.06144e-20)
(0.358407 -0.00551019 0)
(-0.179605 -0.0126514 -5.77601e-20)
(1.03825 0.465203 0)
(1.01547 -0.0173967 -2.63215e-21)
(1.32007 -0.329132 -1.57803e-19)
(0.0413454 -0.0152879 -1.29588e-19)
(0.0125646 -0.0145454 1.12371e-19)
(1.01151 0.0880991 1.53563e-20)
(1.06957 -0.0889971 4.13688e-20)
(0.342161 -0.399642 1.33457e-19)
(0.659219 0.0768767 4.508e-20)
(-0.036243 0.0113682 -7.74902e-20)
(1.18226 -0.023341 -1.04104e-20)
(0.338213 0.00748565 -6.72562e-21)
(0.847423 -0.0908014 0)
(1.04792 -0.0103409 -8.82287e-21)
(1.00738 -0.167686 -2.793e-21)
(0.996287 -0.0201032 4.30027e-21)
(1.06251 -0.171475 -2.51002e-20)
(1.2074 0.0708886 8.46638e-20)
(0.649956 0.0493049 -5.59257e-20)
(0.995534 -0.0178878 7.35464e-21)
(0.952699 -0.07366 0)
(1.15829 -0.031481 -1.4656e-20)
(0.345062 -0.0104071 1.36018e-19)
(0.78331 0.0607511 -1.81491e-20)
(0.959011 -0.114388 -2.30556e-20)
(1.29347 -0.0377342 -3.04601e-20)
(-0.111387 0.00379967 -6.25838e-20)
(-0.184104 -0.0140926 0)
(1.09248 -0.02576 5.06026e-20)
(0.230449 0.038029 8.21894e-22)
(0.999864 -0.00179295 6.90332e-21)
(1.12422 -0.0244727 0)
(1.16435 -0.02965 -5.43668e-20)
(0.656953 0.150562 0)
(-0.279949 -0.0247466 0)
(1.01204 -0.00799655 1.11374e-21)
(-0.156337 -0.00607688 0)
(1.23431 0.0399375 0)
(0.0157267 0.00935026 -1.08278e-19)
(0.560859 -0.0524996 2.26675e-20)
(0.950311 -0.294023 6.26916e-21)
(0.186366 0.0499435 -5.3601e-20)
(0.944194 -0.209414 4.33025e-21)
(0.138082 -0.130848 1.1284e-19)
(0.999739 -0.00790222 -4.19258e-21)
(1.09206 0.00854777 -1.45299e-20)
(0.860416 -0.129649 -1.56988e-20)
(1.22916 -0.0293774 3.89036e-20)
(1.10234 0.0112448 0)
(0.981035 -0.0545833 1.45382e-20)
(1.05904 -0.167692 3.05732e-20)
(1.17781 -0.000507042 7.96906e-20)
(0.25743 -0.0718316 -5.3043e-20)
(1.06745 -0.0125703 -1.85533e-22)
(1.03989 -0.0705385 1.0944e-21)
(0.260745 0.0237054 0)
(-0.139578 -0.00507384 0)
(-0.241852 -0.0253186 0)
(0.75737 0.017796 -6.77475e-20)
(1.02934 -0.102374 -2.67144e-21)
(-0.0413148 0.00953715 0)
(1.08006 -0.0879016 9.3732e-21)
(1.01831 -0.0166421 0)
(-0.0959305 -0.00509278 -1.62363e-20)
(0.892292 -0.0652273 0)
(-0.16289 -0.0056609 0)
(0.0963084 0.033979 -7.71958e-20)
(-0.155371 -0.00325431 -3.66659e-21)
(1.21994 -0.0784453 5.82002e-20)
(0.202899 0.0482886 5.69023e-20)
(1.25044 0.00375272 0)
(0.898731 -0.332139 0)
(0.023988 -0.0148673 -1.28303e-19)
(1.01503 -0.164081 3.93221e-22)
(0.997314 -0.00968079 0)
(1.01046 -0.0243776 -1.0405e-21)
(0.611507 0.0482725 -1.68318e-19)
(0.490734 0.0539885 1.07549e-19)
(1.27066 -0.126213 -5.62083e-20)
(-0.281779 -0.0267631 0)
(1.09893 -0.149037 0)
(-0.209726 -0.0276672 1.39715e-19)
(0.495948 -0.129534 -4.18616e-21)
(1.13666 -0.0262194 3.74001e-20)
(0.739341 -0.253081 0)
(0.817227 0.015618 -8.20078e-20)
(-0.129899 -0.00246253 1.01258e-19)
(0.888529 -0.0692144 -4.29899e-20)
(0.974534 -0.11102 0)
(1.13525 -0.0484935 0)
(1.00023 -0.00033041 -7.46688e-21)
(1.24574 0.0212379 -1.56538e-19)
(1.03647 -0.124159 2.1134e-21)
(1.3094 -0.0578614 -1.17288e-19)
(1.11232 -0.158957 3.19009e-20)
(1.00017 -0.00349799 1.51508e-22)
(0.989304 -0.06269 0)
(0.0102953 -0.0596039 0)
(0.984111 -0.0195027 -2.24621e-20)
(1.03758 -3.35928e-05 -1.87328e-20)
(1.01339 -0.00393508 7.14439e-21)
(1.24312 0.0231802 2.6923e-20)
(1.12894 -0.00772621 0)
(0.901362 -0.181518 -8.98974e-20)
(1.15597 0.0224354 2.87911e-20)
(-0.285548 -0.026235 -1.45054e-19)
(0.972233 -0.0752165 -2.63066e-20)
(1.02401 -0.00906039 -8.30085e-21)
(1.02402 -0.0554874 -4.12912e-21)
(0.529452 -0.139239 -9.32254e-20)
(1.08445 -0.00720289 -1.5791e-22)
(-0.300214 -0.0279993 0)
(0.995279 -0.0128368 -2.6418e-21)
(0.321637 0.0679273 6.06848e-20)
(1.03507 -0.0226112 -2.27903e-20)
(-0.113362 0.00351131 2.70523e-20)
(-0.161292 -0.0108016 -1.80511e-20)
(1.00015 -0.000190059 2.04399e-21)
(0.694554 -0.440124 -1.70723e-19)
(0.456893 0.0793142 1.00655e-19)
(0.913178 0.0660678 8.1558e-20)
(-0.0426247 0.00879618 1.00104e-19)
(1.14553 -0.0602544 2.35015e-20)
(1.26023 -0.140503 0)
(0.95891 0.0916821 -1.61721e-20)
(-0.156188 -0.00937921 -6.61645e-20)
(1.04133 -0.00479194 1.60546e-20)
(1.18171 -0.0289968 -8.68012e-20)
(1.3057 -0.065066 0)
(1.0319 -0.0876123 -1.18185e-20)
(0.270746 0.00109617 -2.28481e-20)
(1.03198 -0.000156283 -1.48757e-20)
(-0.293573 -0.0269736 1.47525e-19)
(-0.167163 -0.00589361 0)
(-0.0973766 -0.00313126 -3.95308e-20)
(1.10493 -0.167758 4.29344e-20)
(0.595068 0.0336818 1.33477e-19)
(0.205057 0.0208314 -1.49702e-19)
(1.06225 -0.0180644 -2.88323e-20)
(-0.302911 -0.0263671 1.36848e-19)
(1.00747 -0.0387353 -2.60043e-22)
(1.08549 -0.00431592 0)
(-0.0799697 0.00784657 -9.55379e-21)
(0.108941 -0.387446 1.14568e-19)
(0.983285 -0.0192162 3.02784e-20)
(1.16939 -0.21682 -3.32664e-20)
(0.878007 0.0972414 6.76913e-20)
(0.973348 -0.106765 1.47185e-20)
(0.00359295 0.0104704 -5.41005e-20)
(0.994872 -0.0350387 1.17435e-20)
(1.23737 0.0373054 0)
(0.997659 -0.0095135 2.65495e-21)
(0.851222 -0.017885 3.76237e-20)
(0.890571 0.0350811 5.15372e-20)
(0.952443 0.566729 1.56589e-20)
(1.06606 -0.0157207 3.0797e-20)
(1.00008 -0.000175562 -3.42335e-21)
(0.621062 0.076612 0)
(1.15439 0.0320177 0)
(1.25071 0.0421028 9.91578e-20)