/*--------------------------------*- C++ -*----------------------------------*\
| =========                 |                                                 |
| \\      /  F ield         | OpenFOAM: The Open Source CFD Toolbox           |
|  \\    /   O peration     | Version:  v2012                                 |
|   \\  /    A nd           | Website:  www.openfoam.com                      |
|    \\/     M anipulation  |                                                 |
\*---------------------------------------------------------------------------*/
FoamFile
{
    version     2.0;
    format      ascii;
    class       volScalarField;
    location    "500";
    object      k;
}
// * * * * * * * * * * * * * * * * * * * * * * * * * * * * * * * * * * * * * //

dimensions      [0 2 -2 0 0 0 0];


internalField   nonuniform List<scalar> 
13308
(
0.000183107
0.000171095
0.000196852
0.000149638
0.000149289
0.00016269
0.000152623
0.000184598
0.000150702
0.000146901
0.000173513
0.00606114
0.000197935
0.000152592
0.000150944
0.000149185
0.000150126
0.000146959
0.000181434
0.000166636
0.000148123
0.000145413
0.000145334
0.000136435
0.000191051
0.00014997
0.00523558
0.000145405
0.00419833
0.000145268
1.31956e-05
0.000283474
0.000208014
0.00461088
0.000182124
0.000149782
0.000145343
0.000148326
0.000149648
0.000155213
0.000158738
0.000154143
0.000186034
0.000159576
0.000796411
0.00558174
0.000149195
0.000148584
0.000160255
0.00014978
0.000140974
0.00017168
0.000145223
0.00433826
0.000162475
0.000153943
0.000158296
0.000147868
0.000146912
0.00016806
0.000150221
0.000147917
0.00016086
0.000154923
0.000149878
0.00015344
0.000170405
0.00475359
0.00546995
0.000146848
0.000149294
0.000160624
0.000146584
0.000158296
0.000152839
0.000148841
0.00472944
0.000177956
0.000206507
0.000160771
0.000145178
0.0001685
0.00014922
0.000148316
0.000704707
0.000152821
0.000147038
0.000166454
0.000166814
0.000148022
0.000147017
0.00496975
0.000178639
0.000174243
0.000158911
0.000177868
0.000145095
0.000187074
0.000159668
0.000174877
0.000177614
0.000148555
0.00014916
0.000152161
0.000146406
0.000147867
0.000189031
0.000167791
0.000166344
0.000197113
0.000177337
0.00045154
0.000146974
0.000656926
0.000177208
0.000200942
0.000157918
0.000164136
0.000156296
0.000177312
0.000158574
0.000148715
0.000149074
0.000152518
0.000183281
0.000153033
0.000552596
0.000149455
0.000149708
0.000193092
0.000186021
0.000165467
0.000149697
0.000173366
0.000149038
0.000160559
0.00015098
0.000149167
0.000199428
0.000152133
0.000211041
0.00475314
0.00471344
0.00016297
0.00638838
0.000177547
0.000160571
0.000145894
0.00014852
0.00457542
0.000662648
0.00015099
0.000166826
0.000148253
0.000145204
0.000160114
0.000148041
0.000158334
0.00018406
0.0047311
0.000174973
0.00028149
0.000164375
0.000150952
0.000145091
0.000174971
0.000165894
0.00020494
0.000188108
0.000188097
0.000184042
0.000171006
0.000663523
0.000196205
0.00016531
0.000149617
0.00015877
0.000185365
0.000149096
0.00014871
0.000173765
0.000156196
0.000150144
0.00175006
0.000155314
0.000151381
0.000149023
0.00015386
0.000148291
0.000163015
0.000165176
0.000165561
0.000175502
0.000343719
0.000189814
0.000185579
0.000178517
0.000149169
0.000149871
0.000183592
0.000214436
0.000166516
0.000171549
0.000153218
0.000164424
0.000185864
0.000155548
0.000157044
0.00014855
0.000161299
0.000174959
0.00023348
0.00014937
0.000190698
0.000171111
0.000169213
0.000146156
0.000179737
0.000146971
0.000147136
0.000150654
0.000148843
0.00014944
0.000176718
0.00014597
0.000191151
0.000165497
0.000149871
0.000717797
0.000168295
0.000160914
0.000148774
0.000148532
0.000153618
0.000161106
0.000153417
0.000146607
0.000144556
0.000165311
0.000147253
0.000154596
0.000164554
0.000148742
0.00018484
0.000162883
0.000155105
0.000208666
0.000157216
0.000149114
0.000164908
0.000178619
0.000145945
0.000176601
0.000149085
0.000149538
0.000169768
0.000145235
0.000147163
0.00014917
0.000164265
0.000173883
0.000146346
0.000149964
0.000153235
0.00480671
0.000148957
0.000201828
0.000174054
0.000641666
0.000176496
0.000144999
0.000171438
0.000152322
0.000159774
0.000183695
0.000190823
0.000144539
0.000157787
0.000187064
0.000158539
0.000153154
0.000149236
0.00018655
0.000187323
0.000184532
0.000148901
0.000149166
0.000173934
0.000149204
0.000164949
0.000206297
0.00485694
0.000206711
0.00481222
0.00016818
0.000145341
0.000157238
0.000149575
0.00433319
0.000149208
0.00476076
0.000162448
0.000174493
0.00014598
0.000177591
0.000148484
0.000180246
0.000168225
0.000152216
0.000145819
0.00016961
0.000178617
0.000314949
0.000151954
0.000184546
0.00463261
0.000187862
0.000165957
0.000184815
0.000169389
0.000152407
0.000176861
0.000162205
0.000148938
0.000173863
0.000175851
0.000152933
0.000148249
0.000171992
0.000151262
0.00018727
0.000188358
0.000164316
0.000154821
0.000166392
0.000465413
0.000182999
0.000156528
0.000150223
0.000166836
0.000210548
0.000149026
0.000160758
0.000154591
0.000171532
0.000148734
0.000154279
0.000150556
0.000149532
8.80874e-05
0.000158605
0.000153508
0.00016657
0.000157412
0.000174533
0.000151028
0.000170651
0.000211748
0.000188944
0.000149105
0.000167959
0.000166574
0.00585297
0.000153222
0.000189388
0.000155993
0.000163389
0.000187578
0.000149837
0.000169248
0.00018671
0.00471343
0.000187946
0.000178002
0.000164345
0.000155456
0.000179848
0.000152843
0.000177007
0.000156862
0.000149085
0.000177246
0.000149517
0.000170938
0.000172938
0.000148459
0.000157795
0.000174175
0.000150195
0.000475665
0.00464491
0.000163246
0.000159778
0.0073827
0.000163526
0.000170766
0.000148225
0.000154547
0.000188733
0.00489217
0.000184899
0.000171374
0.000148398
0.000176771
0.000163375
0.000145258
0.00015121
0.000148
0.000207125
0.000176954
0.00017774
0.00495495
0.000188967
0.000150519
0.000284457
0.000162044
0.000185598
0.000148288
0.000147091
0.00015612
0.000162656
0.000148771
0.000184765
0.000163552
0.000123185
0.000180665
0.000154505
0.000343923
0.000197551
0.00020097
0.000151869
0.000782072
0.00485088
0.000170702
0.000146476
0.000179898
0.000148942
0.000152741
0.000161523
0.000156975
0.000147267
0.000147589
0.000149505
0.000167053
0.000149017
0.00464021
0.000183114
0.000147987
0.000155754
0.000186734
0.000188744
0.000150272
0.000156033
0.000161661
0.000171501
0.00643842
0.000149381
0.000152388
0.000185966
0.00018799
0.000155829
0.000177297
0.000162384
0.000149142
0.000156398
0.000169085
0.000148748
0.00143549
0.000162078
0.000150788
0.000164212
0.000155072
0.000184544
0.000183069
0.000147311
0.000149518
0.000161952
0.000149545
0.00017481
0.000149944
0.000174734
0.000148041
0.000171058
0.000168327
0.000147364
0.000267371
0.000154908
0.000243426
0.000145017
0.000169253
0.000170691
0.00294225
0.000148978
0.000184603
0.000158791
0.000180578
0.000189757
0.0001483
0.00015126
0.000150284
0.000156634
0.00611605
0.000177854
0.00031474
0.000172729
0.00493181
0.000148481
0.000186991
0.00017184
0.000346904
0.000154952
0.0039172
0.00172738
0.00017786
0.000156954
0.000202042
0.000211911
0.000149108
0.000179145
0.000154764
0.000184709
0.00470873
0.000152694
0.000190545
0.000191179
0.000324872
0.000189121
0.000173096
0.000172608
0.000183017
0.000147771
0.000149063
0.000665351
0.000179586
0.000163446
0.000159438
0.000170005
0.00016473
0.000189525
0.000149148
0.000185816
0.00463245
0.00883555
0.000159743
0.000147793
0.000177928
0.00014942
0.00781483
0.000198096
0.000188769
0.000147487
0.000148801
0.000179732
0.000147992
0.000183523
0.000144642
0.000186113
0.000149268
0.000187451
0.000145039
0.000147204
0.000148219
0.00018091
0.000155601
0.000148766
0.00015948
0.000185414
0.000182747
0.000149715
0.000148109
0.000495048
0.000147043
0.000149576
0.00420684
0.00014744
0.00667358
0.000160911
0.000149713
0.000164581
0.000157076
0.000163302
0.000161738
0.000171343
0.000152247
0.000180891
0.000147972
0.000169767
0.00014905
0.000178897
0.000182576
0.000153724
0.000148907
0.000156387
0.000188175
0.000159691
0.000168841
0.000159764
0.000180184
0.000161926
0.00484808
0.000221381
0.000147916
0.000147352
0.000148644
0.00015283
0.00015739
0.000129512
0.000169214
0.000189959
0.000156409
0.000147352
0.000144987
0.000170164
0.000566412
0.000156023
0.00021504
0.000153335
0.000145841
0.000134801
0.000190943
0.000216137
0.000173574
0.000180543
0.000285928
0.000207208
0.000148147
0.00489039
0.00018566
0.000186345
0.000163284
0.00476466
0.000153614
0.000147094
0.000145832
0.000176824
0.000149025
0.000149246
0.000151529
0.000172011
0.000209349
0.0087044
0.000177184
0.000179488
0.000147504
0.000149553
0.000149157
0.000152748
0.000147888
0.00014758
0.000174723
0.000183714
0.000149145
0.000127451
0.000146319
0.000240524
0.000170359
0.000153193
0.000150202
0.000146151
0.000174029
0.000154443
0.000156059
0.000152875
0.00367163
0.000180559
0.000148237
0.000184614
0.000149052
0.000148996
0.000148606
0.000587116
0.000177222
0.000173315
0.000155222
0.000148364
0.000173441
0.000164062
0.00014646
0.000162477
0.000811791
0.00486967
0.000177306
0.000173178
0.00014881
0.000158603
0.00474904
0.000148969
0.000174294
0.000162592
0.000147504
0.000152809
0.000157328
0.0047143
0.000149787
0.000157811
0.000168653
0.000205116
0.000144472
0.000148081
0.000162151
0.000146168
0.000165957
0.00466443
0.000178417
0.000145862
0.00317532
0.000186872
0.000180267
0.000146168
0.000208051
0.000165903
0.00457189
0.000155241
0.00014709
0.00014591
0.000152641
0.00014791
0.000168402
0.000153417
0.00018589
0.000149036
0.000167067
0.00466284
0.000147776
0.00014582
0.000176642
0.00103395
0.000165483
0.000182007
0.000146515
0.000148909
0.00135816
0.000149715
0.000149601
0.000150546
0.00490225
0.000176899
0.000257996
0.000146474
0.000188877
0.000184525
0.000146198
0.000168684
0.000172739
0.000149018
0.000146568
0.000157027
0.000168358
0.000175914
0.000156802
0.000186775
0.000149328
0.000912367
0.00014859
0.000187302
0.000208139
0.000149457
0.000206305
0.000163065
0.000149038
0.00016144
0.000176515
0.000147505
0.000147427
0.00014915
0.000148904
0.000156718
0.00014827
8.18447e-05
0.000166602
0.000187488
0.000149185
0.000175865
0.000169153
0.00496759
0.000167349
0.000248391
0.000520715
0.000149942
0.000738851
0.000154421
0.000147544
0.000147982
0.000158115
0.000147072
0.000153058
0.00456321
0.00353642
0.00466138
0.000165682
0.000147895
0.000150418
0.000148304
0.000155867
0.000183759
0.000146082
0.00016178
0.000180152
0.00526896
0.000149469
0.000147665
0.000149243
0.000145945
0.00014943
0.000149005
0.000173613
0.000147309
0.000154877
0.000147111
0.000198621
0.000157341
0.000385916
0.00015653
0.000190288
0.000171326
0.000151373
0.000158204
0.000160017
0.000147144
0.000162982
0.000152601
0.000183825
0.000181595
0.00466208
0.000178889
0.000149214
0.000149138
0.000154793
0.000147465
0.000185486
0.000148916
4.45943e-05
0.000168142
0.000178452
0.000170629
0.000155029
0.000146293
0.000161077
0.000147904
0.000167237
0.000155731
0.000155591
0.00813244
0.000173075
0.000146575
0.00016322
0.000148136
0.000161272
0.000147343
0.00017507
0.000156042
0.00468396
0.000199988
0.000153209
0.000148544
0.000148304
0.000149174
0.000145105
0.000171525
0.000152622
0.000148051
0.000150484
0.000149097
0.000164948
0.000179705
0.000175551
0.000169281
0.00103094
0.000146411
0.000153033
0.000148534
0.000159813
0.00467833
0.000151153
0.000149786
0.000161005
0.000166339
0.000184588
0.000172644
0.000152223
0.000169433
0.000161401
0.000147045
0.000150677
0.000153761
0.000147765
0.00021146
0.000156599
0.00469786
0.0001954
0.000178382
0.000185414
0.000155495
0.00189147
0.000158867
0.000205308
0.0001275
0.000147631
0.000163193
0.000153432
0.000148388
0.000174635
0.00116634
0.000155217
0.000149888
0.000149532
0.000163319
0.000186788
0.000441361
0.00014922
0.00927767
0.000155154
0.000166052
0.00471849
0.000149288
0.000149502
0.000186803
0.00015016
0.000152035
0.000148268
0.00478267
0.000147977
0.0036601
0.000315774
0.000161021
0.000184256
0.000186361
0.000153756
0.000169803
0.00014602
0.000155858
0.0001854
0.000147839
0.000188452
0.000147452
0.000157723
0.00014798
0.00847876
0.000178439
0.000185273
0.000207887
0.000146912
0.00435118
0.000167864
0.000156538
0.000147237
0.00457767
0.000179297
0.000146378
0.000166029
0.0002135
0.000164284
0.000149496
0.00014858
0.000153232
0.000302778
0.000161141
0.000163828
0.000179683
0.000147729
0.000147384
0.000165133
0.00014757
0.000178191
0.000151376
0.000145672
0.000149914
0.000146842
0.00014687
0.000175731
0.000149282
0.000183756
0.000147021
0.000148847
0.000148022
0.00486264
0.000146124
0.000174223
0.000147358
0.00424109
0.000168653
0.00475545
0.000149777
0.000163786
0.00018568
0.000152919
0.00406708
0.00015454
0.000164584
0.000203643
0.000171859
0.000183181
0.000184606
0.00427126
0.000148278
0.000155436
0.000148026
0.000164011
0.000174243
0.00014586
0.000149234
0.000146438
0.000157651
0.000152428
0.000149501
0.00018555
0.000200996
6.34448e-05
0.000156279
0.00482223
0.000163492
0.000173016
0.000189853
0.000166755
0.000149944
0.0083438
0.000149774
0.000152651
0.00412583
0.000175173
0.000146467
0.000211035
0.000146458
0.000183328
0.000156856
0.000150163
0.000165411
0.000318001
0.000185415
0.000186606
0.000194983
0.000192291
0.000394139
0.000153887
0.000194216
0.000148645
0.000321781
0.000145848
0.000164594
0.000160839
0.000185628
0.000146849
0.000149149
0.000158914
0.000178045
0.000172751
0.000174403
0.000182523
0.000146772
0.000149893
0.000149887
0.000151583
0.000162739
0.000178759
0.000152292
0.000155425
0.000146915
0.000153532
0.000148718
0.000161323
0.000206366
0.000154005
8.83082e-05
0.000154478
0.000146103
0.000170335
0.000148534
0.000165537
0.000147175
0.000164121
0.00014668
0.000152889
0.000183189
0.000147208
0.000162933
0.00015885
0.000147921
0.000147196
0.000166141
0.000147538
0.00243793
0.000162734
0.000170268
0.000152158
0.000165423
0.000168505
0.00014716
0.000152328
0.000158035
0.000163447
0.000193485
0.00017844
0.000163309
0.000147287
0.000187153
0.000147928
0.000157883
0.000174454
0.000146124
0.000147512
0.000177564
0.000154711
0.000149329
0.000173061
0.000147504
0.000163265
0.00398698
0.00019661
0.000153434
0.000152752
0.000147262
0.000153741
0.000207103
0.000147198
0.000158856
0.000146962
0.000149951
0.000186436
0.000158709
0.000147147
0.000185092
0.00014927
0.000947544
0.000172423
0.000152601
0.000152807
0.000347579
0.000151347
0.000172437
0.000145904
0.000169576
0.000169675
0.000179721
0.00017315
0.000171519
0.000146303
0.00014677
0.000160645
0.000149727
0.000153564
0.000154049
0.000171213
0.000177151
0.00016328
0.000146925
0.00563776
0.000144858
0.000148002
0.000148455
0.000159116
0.000152458
0.000148009
0.000146235
0.000185637
0.000153448
0.000169618
0.000147688
0.000148615
0.000409602
0.000160377
0.00505237
0.00018293
0.000175082
0.00500624
0.000149769
0.000152475
0.000146203
0.000158022
0.000145112
0.00017309
0.000187633
0.000148959
0.000170661
0.000153585
0.000156516
0.000868366
0.000187526
0.000148669
0.000186313
0.000146391
0.000158626
0.00713894
0.000160701
0.000147167
0.000146815
0.000152323
0.000152255
0.000144845
0.000149734
0.000205121
0.00447942
0.000153746
0.000147076
0.000146839
0.000147931
0.000147651
0.00016636
0.000146894
0.00472831
0.000165818
0.000185886
0.000205842
0.000144877
0.000155213
0.000147763
0.000150624
0.000118398
0.000191961
0.00015865
0.000182652
0.000178029
0.00484405
0.000149189
0.000161692
0.000146638
0.000211723
0.000155343
0.000163688
0.000189364
0.000164082
0.000588158
0.000150325
0.000181125
0.000147384
0.000184083
0.000187104
0.000150665
0.00151862
0.000156161
0.000149104
0.000188103
0.000177346
0.000147342
0.000170844
0.000145876
0.000146162
0.000146092
0.000167393
0.000169566
0.000168983
7.67777e-05
0.000172739
0.00014902
0.00485463
0.000154255
0.000146722
0.000184731
0.000185928
0.000152471
0.000149644
0.00024849
0.000159211
0.000148266
0.000148288
0.000168815
0.00015848
0.000153999
4.19107e-05
0.000149794
0.000149318
0.000151593
0.000155868
0.000145744
4.464e-05
0.000149553
0.000155767
0.000148516
0.000157194
0.000174289
0.000147961
0.00503541
0.000175495
0.000148348
0.000160375
0.000168807
0.000149816
0.000169029
0.00015293
0.000149834
0.000169846
0.000149467
0.000184674
0.000189057
0.00014902
0.000208201
0.000176935
0.00017819
0.000198057
0.000161648
0.000146632
0.000148759
0.00461877
0.000180774
0.000146891
0.000146953
0.00139695
0.000183904
0.000147819
0.00465012
0.00156343
0.00573166
0.000158485
0.000152589
0.000149763
0.000154081
0.000157041
0.000172169
0.000148947
0.000154655
0.000145329
0.000170016
0.00018694
0.000174575
0.00631441
0.000170855
0.000157663
0.000158831
0.000159527
0.000150864
0.000159409
0.000169218
0.000153254
0.000184926
0.000147165
0.000147495
0.000178277
0.000165356
0.000168484
0.000184838
0.000149402
0.000146473
0.000182406
0.00014847
0.000145238
0.000184324
0.000147158
0.00504499
0.000150915
0.000150275
0.00014972
0.00016372
0.000149122
0.000144758
0.000149483
0.00016563
0.000146875
0.000203791
0.000160831
0.00019035
0.00169939
0.000186879
0.000120864
0.000161087
0.000171334
0.000186729
0.00523358
0.000158251
0.000149884
0.000169625
0.000149484
0.000158636
0.00940833
0.000168833
0.000147223
0.000172173
0.000473379
0.000147246
0.000207637
0.000173529
0.000157765
0.000147179
0.000160204
0.000165732
0.000165825
0.000191819
0.000165671
0.000161019
0.000148724
0.000146997
0.000147933
0.000151823
0.000162881
4.93762e-05
0.000149268
0.00036241
0.000156492
0.000156187
0.000114242
0.0030876
8.27018e-05
0.000145752
0.000146139
0.000149049
0.00374075
0.000208008
0.000176863
0.000171227
0.000204749
0.000147166
0.000148836
0.000153788
0.000146441
0.000156903
0.000150589
0.000153075
0.000183992
0.000174944
0.000151455
0.000147295
0.000168752
0.000169834
0.000194034
0.000183772
0.000149425
0.00366244
0.000179102
0.000165108
0.000171216
0.000185773
0.000159498
0.00016297
0.00864951
0.000157189
0.000161308
0.000148531
0.000169581
0.000152202
0.00014731
0.000171949
0.00750253
0.000175155
0.000161621
0.000174611
0.00519161
0.00531821
0.000150695
0.00014523
0.00014632
0.00490349
0.000148433
0.000151762
3.42693e-05
0.000149846
0.000172165
0.000149626
0.0001499
0.000148496
0.000175417
0.000344226
0.000183991
0.000147891
0.000157502
0.000201699
0.000149207
0.0059476
0.00909245
0.00485773
0.000163666
0.000150803
0.000161595
0.000164252
0.000100486
0.000154055
0.000187221
0.000154131
0.000146978
0.000148537
0.000148168
0.00464574
0.000159169
0.000157177
0.000155129
0.000147213
0.000148388
0.000477376
0.000152805
0.000154832
0.000153772
0.00014973
0.000743857
0.000145798
0.00174273
0.000148919
0.000172759
0.00014643
0.000161241
0.000177452
0.000177451
0.000149443
0.000147539
0.00014923
0.000148562
0.000177833
0.000187454
0.000153712
0.000156918
0.000152026
0.000165615
0.000153095
0.000149676
0.00551712
0.000183769
0.000167629
0.000151973
0.000147639
6.3866e-05
0.000154094
0.00020248
0.000208434
0.000150282
0.000146992
0.000158029
0.000154223
0.00521645
0.000148177
0.000203723
0.00014824
0.00014912
0.000155355
0.000153329
0.000172717
0.0001871
0.000174444
0.000163792
0.000183006
0.000148342
0.00693744
0.000147346
0.000149892
0.00015017
0.000169179
0.000173437
0.000169654
0.000146211
0.00015364
0.00015228
0.000147183
0.00615237
0.000146596
0.000147646
0.000149267
0.000158978
0.000206277
0.000162245
0.000166461
0.000149464
0.000167299
0.000149414
0.000151166
0.00016176
0.000159402
0.000178636
0.000150572
0.000150108
0.000201153
0.00014636
0.000146754
0.000187994
0.000178669
0.000162021
0.000187331
0.000153523
0.000169175
0.0050845
0.000172632
0.000161126
0.000157691
0.00018693
0.000176416
0.000146408
0.000167335
0.000172269
0.000154769
0.000148265
0.000148116
0.000185361
0.000148498
0.00450941
0.000152282
0.000147496
0.000146926
0.00476164
0.000149146
0.000156326
0.000155271
0.000181062
0.000149666
0.000147171
0.000147247
0.000159797
0.000145227
0.000148604
0.000148425
0.00016583
0.000182784
0.000166413
0.00015525
0.00018344
0.00478465
0.000153374
0.000160135
0.000149321
0.00014918
0.000202597
0.00395718
0.000183324
0.000150591
0.00015414
0.000153277
0.000171722
0.0047521
0.00475224
0.000170929
0.000177133
0.000157937
0.000185347
0.000171763
0.000183793
0.000184012
0.00015267
0.000185932
0.000149288
0.000208514
0.000149392
0.000170585
0.00014734
0.000172828
0.000147757
0.000149695
0.000157758
2.05879e-05
0.000158083
0.000163388
0.000149947
0.00749542
0.000146002
2.21468e-05
0.000147171
0.000148973
0.000148205
0.000162062
0.00014583
0.000166458
0.000184315
0.000144756
0.000151892
0.000178348
0.000149085
0.000149745
0.000164607
0.000119194
0.00015193
0.00015643
0.000175307
0.000149081
0.000153875
0.000146501
0.00467334
0.000157414
0.000157746
0.000166265
0.000181571
0.000152678
0.000145988
0.000175612
0.0063799
0.000149849
0.000147199
0.000165022
0.000188547
0.00015026
0.000167534
0.000166038
0.000207339
0.000185895
0.000161991
0.000147933
0.000148533
0.000164032
0.000186079
0.000150693
0.00463387
0.000175021
0.000159297
0.000170198
0.000154398
0.000159045
0.00015948
0.000151208
0.000145311
0.00484078
0.000150254
0.0001701
0.000171449
0.000167906
0.000168398
0.00015431
0.000160318
0.000185711
0.000152613
0.000147263
0.000172038
0.000178096
0.000149262
0.000146648
0.00817104
0.000148245
0.00017272
0.000183389
0.000147061
0.000166671
0.0027377
0.000169031
0.000153402
0.000175342
0.00018131
0.00015844
0.00017534
0.000150861
0.000152719
0.000183056
0.000148983
0.00370416
0.000173866
0.000163289
0.000158977
0.000222413
0.000148623
0.000170968
0.000199136
0.000148411
0.000187107
0.000168138
0.000163775
8.84986e-05
0.00019513
0.00499645
0.000146406
0.000149325
0.000152108
0.000199548
0.000163856
8.93927e-05
0.000182358
0.000169652
0.000193093
0.000151888
0.000165184
0.000160743
0.000150539
0.000162916
0.000147214
0.000174556
0.000184999
0.000166723
0.000146113
0.000198355
0.000168584
0.000175482
0.000149339
0.000169394
0.000148977
0.000191758
0.000177496
0.000187153
0.000156925
0.000186463
0.00427073
0.000145376
2.5408e-05
0.000146312
0.000152474
0.000158858
0.000156211
0.000147955
0.000169661
0.00014843
0.00017657
0.000187867
0.000148969
0.000194061
0.000147577
0.000159898
0.00017398
0.000152081
0.000172541
2.49999e-05
0.000157882
0.000146805
0.000149553
0.000146286
0.000174917
0.000164944
0.00440149
0.000145787
0.000154189
0.000156469
0.000153534
0.00422807
0.000100539
0.000168083
3.41341e-05
0.00011456
0.000147068
2.57863e-05
0.000179351
0.00015746
0.000203769
0.000159229
4.29301e-05
0.00017304
0.000182867
0.000151801
0.000175034
4.83124e-05
0.00426564
0.000174092
0.000152587
0.000148347
0.000182767
0.000151619
0.00359287
0.000164236
0.000213822
0.00381232
0.000173328
0.00483355
0.000148804
0.000134051
0.000153883
0.000167885
0.000164036
0.000157282
0.000171641
3.80207e-05
0.00014835
0.000158715
0.000168248
0.000152044
0.000146321
0.000165984
0.000185686
0.000160479
0.000168499
0.000168862
0.000157912
0.00536051
0.000147232
0.00744102
0.000181829
0.000150654
0.000161807
0.000148236
0.000145489
1.81223e-05
0.000147864
0.000172599
0.000148612
0.000159656
0.000155795
0.000181894
0.000166899
0.000153769
0.000148491
0.000156539
0.000148198
0.000152276
0.000158469
0.000149269
0.000159701
0.000183252
0.000149723
0.000254851
0.000146169
0.000384493
0.000177566
0.000173161
0.000147911
0.000167858
0.000188522
0.000169111
0.000192969
0.000190287
0.000148572
0.000148851
0.000183885
0.000174164
0.000153152
0.000159887
0.000183531
0.00014633
0.000162544
0.000146908
0.00014672
0.000149046
0.000161768
0.000172819
0.00014642
0.000178004
0.000147998
0.000175479
0.000181323
0.000148783
0.000148861
0.000157339
0.000144932
0.000149124
0.000163736
0.000146566
0.000174644
0.000156798
0.000150174
0.000162075
0.000148234
0.000148161
8.13854e-05
0.000169755
0.0058411
0.000148366
0.000156492
0.00491614
0.000146252
0.000176866
0.00015626
0.000167776
0.000153306
0.000170333
0.000162764
0.000159862
0.000152916
0.000174421
0.000103035
0.000147742
0.000130671
6.37594e-05
0.000152401
0.000155799
0.0050313
0.000186995
0.000157951
0.000148672
0.000155437
0.000170042
0.000148458
0.000152181
0.000174596
0.000152898
0.000176874
0.000160799
0.00014863
0.00014904
0.000188656
0.00015556
0.000169178
0.000148066
0.000165267
0.00014714
0.000148541
0.000174465
0.000163579
0.000152415
0.000188898
0.000177084
0.000149424
0.000158923
0.000160366
0.000146661
0.000204791
0.000157118
0.0040135
0.000149799
0.000145754
0.000149414
0.000176303
0.000172232
0.000184308
0.000149622
0.000172166
0.000175982
0.000183806
0.00014789
0.000185835
0.000193731
6.14468e-05
0.000149563
0.000163502
0.000166003
0.000166246
0.000184391
0.00258047
0.00018712
0.000173935
0.000176319
0.00014971
0.00632306
0.000155516
0.0001886
0.000174014
0.000171639
0.000149124
0.000172663
0.000173453
0.00014899
0.000147979
0.000146391
0.000149021
0.000162216
1.3059e-05
0.0060534
0.000163655
0.000156807
0.00014702
0.000161645
0.000147447
0.000153175
0.000152271
0.000159583
0.000188228
0.000148876
0.000156918
0.000149192
0.000169288
0.000158234
0.000145474
0.000174064
0.000163211
2.60629e-05
0.000148188
0.000167228
0.000153965
0.000149212
0.000186948
0.000153988
0.00014953
0.000179005
0.000148835
0.000156909
0.00136473
0.000146919
0.00014744
0.000173605
0.000172019
0.000187546
0.000162128
0.000168068
0.000146936
0.000149564
0.000158202
0.000324134
0.000166404
0.000179543
0.000171097
0.000146227
0.00017839
0.000189488
0.000152806
0.000148133
0.000150459
0.00014792
0.000176487
0.000167524
0.000151245
0.00015196
0.00017467
0.00017236
5.16849e-05
0.000151745
0.000166954
0.000160259
7.71689e-05
0.000167574
0.000154326
0.000154265
0.000151609
0.000183655
0.000154585
0.000153038
0.000159513
0.000147828
0.000149271
0.000156467
0.000197074
0.000169154
0.000148954
0.000145657
0.000157243
0.000158983
0.000147956
0.000152928
0.000183771
0.000158322
0.000155466
0.000156089
0.000156313
0.000147241
0.000146396
0.00169368
0.000190979
0.000183443
0.00463845
0.000147118
0.00015697
0.000150485
0.000175874
8.60981e-05
0.000155053
0.000206448
0.000162265
0.000153333
0.00483183
8.76499e-05
0.000152758
0.000152694
0.000145588
0.00413254
0.000158667
0.000146472
0.000182017
0.000204493
0.000190746
0.000209179
0.000157806
0.000170755
0.00015745
0.000149767
0.000188438
0.000148003
0.000147009
0.000152737
0.000189975
0.000158538
0.000154384
0.00016857
0.000147941
0.00118879
0.000503552
0.000166308
0.000162719
5.33209e-05
0.000182578
0.000184662
0.000188999
0.000132953
0.000154634
0.000147875
0.000160902
0.00018006
0.000152323
0.000177601
0.000148928
0.00012823
0.000160849
0.000188554
0.000146247
0.000149654
6.37153e-05
0.000186168
0.00570002
0.000157614
0.000153583
0.00487351
0.000196081
0.000186299
0.000175489
0.000147017
0.000148007
0.00014896
0.000153143
0.000149085
0.000180458
6.38751e-05
0.000175348
0.00879971
0.000102342
0.000149507
0.0001724
0.000148427
0.000151621
0.000197143
0.000183713
0.000156927
0.000148945
0.000149198
0.000175256
0.000151883
0.000148611
0.000148976
0.000146111
0.00015502
0.000149742
0.000108621
0.000149116
0.000148875
0.000191678
0.000167751
0.000146878
0.000167533
6.74664e-05
0.000207586
0.000232368
0.000162934
0.000148222
0.000148758
0.000175781
0.000146936
0.00411649
0.00015292
0.000156631
0.000148542
0.00014771
0.000152103
0.000172184
0.00015213
0.000151775
2.02967e-05
0.000148859
0.000150731
0.000155917
0.000149384
0.000149395
0.000146447
0.000501267
0.000149977
0.000164386
0.000185795
0.000145077
0.000148899
0.000190165
0.000185387
0.000153774
0.000128909
0.000199628
0.000174962
0.000152473
0.000150267
0.000177328
0.000160985
0.000149202
0.000186746
0.000167263
7.72913e-05
0.000174043
0.000169833
0.00016252
0.000175837
0.000142285
0.000162645
0.00018726
0.000156334
0.00018661
0.000183726
0.000153833
0.000149964
0.000148949
0.00107616
0.000149469
0.000147091
0.000148369
0.000173071
0.00453322
0.00676056
0.000148621
0.000154662
0.000107403
0.000159118
0.000186088
0.000205546
0.000185402
0.0047426
0.000147957
0.000159715
0.000169053
0.000156904
0.00015056
0.000174904
5.85301e-05
0.000170479
0.000184858
0.000147972
0.000153192
0.000206697
0.000149529
0.000177256
0.000158247
0.000148784
0.000149911
0.00805698
0.00248148
0.000163808
0.000164059
0.000149249
0.000152155
0.000180419
0.000153617
0.000172976
0.00681646
0.000148666
0.000189634
0.000145833
0.0049316
0.00452758
0.000155958
0.000146689
0.000190037
0.000149819
0.00014802
0.000155222
0.000149588
0.00434439
0.000148946
0.000170214
7.29616e-05
0.000152401
3.14474e-05
0.000210188
3.02969e-05
0.000149247
0.000147954
0.000172121
0.000151749
0.000154907
0.000149917
0.000147216
0.000179605
0.000190267
0.000150323
0.00353869
0.000146157
0.000171845
0.000150754
0.000144953
0.000191321
0.000172978
0.00548321
0.000175702
0.000152112
0.000149161
0.00015661
0.000175625
0.000145686
0.00015436
0.000132521
0.000171941
0.000178991
0.0001579
0.000150218
0.00459002
0.000157416
0.00791424
0.000147269
0.000186889
0.000160234
0.000163919
0.000187713
0.000157337
0.000156654
0.000159951
0.000149856
0.000190835
0.000147414
0.00015752
0.0046192
0.000148618
2.62749e-05
3.56934e-05
0.000158383
0.000174452
0.00842492
0.00425822
0.000149161
0.00409995
0.000173076
0.00014887
0.000162143
0.00520771
0.000147765
0.000146842
2.69557e-05
0.00014798
0.0001584
0.000145669
0.000161623
0.000200173
0.00016626
0.000160166
0.000172925
0.000150809
0.000148127
9.9742e-05
0.000147929
0.000145776
8.68578e-05
0.000159206
0.000151463
0.000174029
0.000152557
0.000156918
0.000165472
0.000177968
0.000146804
0.000154627
2.92503e-05
0.000171722
0.000150668
0.000119867
0.000148838
0.000148561
0.000211091
0.000149325
0.000149181
0.000174822
0.000147531
0.000157488
0.000154673
0.000148945
0.00014801
0.000154017
0.0001682
0.000159712
0.00394435
0.00017515
0.000161532
0.000148963
0.000185087
0.000203938
0.000168076
0.000162207
6.27259e-05
0.000189676
0.000158721
0.000191352
0.00347915
0.000157923
5.84179e-05
0.00018751
0.000171282
5.73392e-05
0.000168762
0.000160513
0.00322054
0.000178037
0.000184639
0.000184433
2.3595e-06
0.000153222
0.000148085
0.000149839
0.000185632
0.000152933
0.000155386
0.00519087
0.000145689
0.000147829
0.000164321
0.000148501
0.00017288
0.000185826
0.000152634
0.000160199
0.000173174
0.000183698
0.000180128
0.000153921
0.000159498
0.000171316