/*--------------------------------*- C++ -*----------------------------------*\
| =========                 |                                                 |
| \\      /  F ield         | OpenFOAM: The Open Source CFD Toolbox           |
|  \\    /   O peration     | Version:  v2012                                 |
|   \\  /    A nd           | Website:  www.openfoam.com                      |
|    \\/     M anipulation  |                                                 |
\*---------------------------------------------------------------------------*/
FoamFile
{
    version     2.0;
    format      ascii;
    class       volScalarField;
    location    "500";
    object      omega_0;
}
// * * * * * * * * * * * * * * * * * * * * * * * * * * * * * * * * * * * * * //

dimensions      [0 0 -1 0 0 0 0];


internalField   nonuniform List<scalar> 
13308
(
0.0550308
0.0348261
0.183395
0.0220853
0.0221289
0.0281235
0.023138
0.122919
0.0224142
0.0218612
0.0409584
8.15949
0.137945
0.0231239
0.0225017
0.0221015
0.0221379
0.0217083
0.0509451
0.0307671
0.021962
0.0215795
0.0215698
0.620767
0.159599
0.0220989
8.30603
0.0215833
12.4662
0.021583
0.314558
1.3606
0.13554
5.18105
0.0522526
0.0221121
0.0215667
0.0219078
0.0220915
0.0241155
0.0264147
0.0234529
0.126955
0.0268518
1.8719
14.3215
0.0219848
0.0220897
0.0267939
0.0222674
1.18906
0.035151
0.0215819
16.9046
0.0280046
0.0233816
0.0254748
0.0219837
0.0218623
0.0403531
0.0221547
0.0219894
0.0270822
0.0239256
0.0220808
0.0231172
0.0341569
5.43913
6.59973
0.021704
0.0222035
0.0269315
0.021632
0.0253383
0.0229405
0.0221334
5.59518
0.0474117
0.102315
0.0270176
0.0215404
0.038195
0.0219461
0.0220164
1.79744
0.0232126
0.0218864
0.0367029
0.0372421
0.0219535
0.0218776
2.39736
0.0507968
0.0551055
0.0274178
0.0479968
0.0215343
0.079273
0.0268899
0.039822
0.0426172
0.0220837
0.0219603
0.0228262
0.0216184
0.0220039
0.101601
0.0400852
0.0305897
0.175038
0.0570966
1.49181
0.0218716
1.6529
0.0423436
0.145203
0.0277192
0.0320347
0.0245039
0.0572308
0.027119
0.0220962
0.022128
0.0230971
0.0933599
0.0233532
1.61935
0.0221497
0.022257
0.190371
0.105211
0.0302169
0.0220994
0.038893
0.0221223
0.0270003
0.0224923
0.0219652
0.171563
0.0228195
0.148248
5.33292
4.54048
0.031009
6.38479
0.110689
0.027002
0.0217045
0.0220541
5.25967
1.66331
0.0224846
0.0309624
0.0219029
0.0215881
0.0267357
0.022029
0.0261556
0.124314
4.25891
0.0506062
1.16104
0.0322981
0.0224775
0.0215252
0.0852888
0.0324593
0.142971
0.147692
0.0609247
0.103292
0.0345164
1.85921
0.137845
0.0310346
0.0222476
0.0256462
0.119028
0.0220015
0.0219676
0.0475831
0.0244437
0.0221329
2.67402
0.0245571
0.0225975
0.022125
0.0232768
0.0219974
0.0311188
0.0299596
0.0302111
0.0898921
1.22497
0.0852184
0.120812
0.0487524
0.0221155
0.0220794
0.0984353
0.142323
0.0329456
0.0391852
0.0230919
0.0353542
0.0864976
0.0247037
0.0250113
0.0220611
0.0273041
0.0397259
1.0416
0.0222139
0.1454
0.0385046
0.0393448
0.0215951
0.129294
0.0216937
0.0217078
0.0224057
0.0221408
0.0221381
0.0495682
0.0217146
0.127627
0.0320468
0.0222735
2.00827
0.0369627
0.0271116
0.0221285
0.0219372
0.023196
0.0295316
0.0233805
0.0216372
0.0214866
0.0299795
0.0218755
0.0238353
0.0354358
0.0221027
0.140689
0.0360826
0.0245248
0.137989
0.0251338
0.0221276
0.0306466
0.0501271
0.0217108
0.0980538
0.0221748
0.0222368
0.0390471
0.0215885
0.0218711
0.0220945
0.0321767
0.0412955
0.0216099
0.022098
0.0230431
4.36716
0.0219805
0.1891
0.0482225
1.6876
0.0494767
0.0215602
0.038369
0.0230134
0.0269577
0.120086
0.162386
0.0214882
0.0274132
0.0812214
0.0256132
0.0233834
0.0221016
0.0844023
0.0593764
0.057432
0.0221491
0.0221544
0.0630478
0.0219445
0.0295514
0.214664
5.06961
0.126154
4.51812
0.0369085
0.0215633
0.0251383
0.022183
15.4676
0.0220956
4.42235
0.0279816
0.0413311
0.0217408
0.0538404
0.0220364
0.0451484
0.0413014
0.0229047
0.0216952
0.0338079
0.0441161
1.4163
0.0228483
0.106194
7.18935
0.0743303
0.0303323
0.118095
0.0347735
0.0230082
0.0557818
0.0278391
0.0218938
0.0371898
0.0531696
0.0229975
0.0220123
0.0355054
0.0226072
0.0843993
0.144749
0.0337064
0.0243626
0.0328497
2.09201
0.0876555
0.0251582
0.0221583
0.0310007
0.131525
0.0221611
0.0292398
0.0242937
0.0351469
0.0221224
0.0236971
0.0223693
0.02215
0.526185
0.0258162
0.0234385
0.0366975
0.0251886
0.0678591
0.0225057
0.0383282
0.148572
0.122927
0.0221069
0.0411605
0.0308051
8.41845
0.0234442
0.116012
0.024352
0.0364311
0.138873
0.022266
0.0345398
0.084227
5.7982
0.080911
0.115058
0.0314935
0.0246507
0.0817016
0.0230993
0.0926818
0.0249201
0.0221094
0.0572129
0.0221559
0.0673311
0.0511654
0.0219989
0.0251762
0.0410382
0.0221554
1.43756
4.15791
0.0288447
0.0269678
9.56689
0.0290221
0.0567805
0.0220128
0.0243446
0.163289
5.18549
0.0571165
0.0423019
0.0219906
0.0532579
0.0289585
0.0215796
0.0225658
0.022023
0.285556
0.0437194
0.100124
4.30582
0.0889191
0.0223701
1.10541
0.0278192
0.0562799
0.0220175
0.0218949
0.0244308
0.0281378
0.0221103
0.0557134
0.0290449
0.968129
0.0456176
0.0240689
1.25175
0.200905
0.108204
0.0228293
1.71718
4.22728
0.0410263
0.0217801
0.0518275
0.0218962
0.0229139
0.0274471
0.0255388
0.02192
0.0219314
0.0221554
0.0380938
0.0219287
5.31094
0.092364
0.0220197
0.0249891
0.134012
0.095794
0.0223129
0.0249138
0.0275261
0.0427632
8.99658
0.0220503
0.0228103
0.0849099
0.0862947
0.0242938
0.0444267
0.0279586
0.0221826
0.0245402
0.0333045
0.0219495
2.94259
0.0277582
0.0223764
0.0354662
0.0240426
0.0553856
0.0995316
0.0219262
0.0222215
0.0291922
0.0222267
0.0424913
0.0222924
0.0496484
0.0220278
0.041061
0.0458831
0.0217655
1.0758
0.0241092
0.993866
0.0215598
0.0382083
0.034164
3.33575
0.0219477
0.0559253
0.0258899
0.052661
0.0785488
0.0220115
0.0226152
0.022295
0.0252725
6.54013
0.0479558
1.22347
0.0381573
5.27458
0.0220347
0.105999
0.0354803
1.37305
0.0241739
3.67311
2.33137
0.0420148
0.0250187
0.322261
0.117023
0.0221456
0.0507951
0.0238904
0.0574276
6.39987
0.0229157
0.176572
0.246076
1.59266
0.0876137
0.045668
0.904398
0.0539895
0.0219855
0.0221656
1.66934
0.0467748
0.0297695
0.0264447
0.0373814
0.0319428
0.14973
0.0221777
0.0786079
4.59912
8.38101
0.026626
0.0219881
0.0487414
0.0222154
7.81398
0.162061
0.092798
0.02195
0.022127
0.0855868
0.0220059
0.0568217
0.0214879
0.0563202
0.0219906
0.106013
0.0215244
0.0218695
0.0220543
0.0529202
0.0247506
0.022112
0.0287552
0.0989348
0.0540084
0.022261
0.0220367
1.49505
0.0218875
0.0221784
17.5745
0.0219436
8.33057
0.0272174
0.0222603
0.0397061
0.025076
0.0296674
0.029016
0.0380961
0.0227592
0.0530493
0.0220006
0.0332385
0.0221125
0.0616712
0.0877569
0.0233425
0.0220968
0.0251592
0.0791791
0.0265205
0.0374882
0.0265243
0.0515266
0.0277284
4.79712
1.18172
0.022011
0.0219313
0.0219295
0.0232372
0.0251625
0.917021
0.0501789
0.076257
0.0245368
0.0219311
0.0215191
0.0536897
1.48526
0.0247864
0.12938
0.0232071
0.021689
0.401515
0.195101
0.414461
0.0370032
0.0527209
1.25339
0.283738
0.0220428
4.72064
0.0779638
0.0844879
0.0327008
4.03657
0.0232922
0.0218946
0.0216985
0.0602072
0.0220822
0.0221063
0.0226509
0.0426842
0.116295
7.40337
1.47415
0.0772444
0.0219536
0.0221646
0.0220974
0.0232629
0.0220015
0.0219644
0.042385
0.0979125
0.0219468
0.851285
0.0216628
1.00699
0.0401514
0.0230291
0.0221489
0.0217577
0.0398502
0.024057
0.0244126
0.023042
3.3929
0.052785
0.0220568
0.0950721
0.022105
0.0221219
0.0219554
1.65072
0.0576592
0.0396207
0.0247129
0.0219709
0.0369785
0.0334017
0.0218103
0.0279597
2.1122
6.45625
0.0467283
1.26354
0.0221373
0.025584
3.33351
0.0221583
0.049456
0.028076
0.0218533
0.022887
0.0251465
6.37362
0.0222704
0.0257626
0.0342305
0.169626
0.0214636
0.0220199
0.0303383
0.0217326
0.0313864
4.14821
0.0437193
0.0217014
3.92828
0.13851
0.0531802
0.0217288
0.196106
0.0312875
6.51443
0.024685
0.0218943
0.0217097
0.0230224
0.0220097
0.045119
0.0232341
0.162771
0.0221554
0.0331104
5.001
0.0218616
0.0216858
0.0455304
2.10089
0.043929
0.0914383
0.021812
0.0221434
3.30198
0.0222611
0.0222392
0.0223463
4.47622
0.0581099
1.10841
0.0217803
0.0837978
0.110445
0.0217642
0.0372025
0.0388147
0.0221516
0.0218128
0.0250728
0.0339036
0.0618129
0.0249683
0.163522
0.022122
1.78146
0.0220231
0.0860057
0.11975
0.0222204
0.19432
0.0287575
0.022168
0.0278761
0.0650028
0.0218566
0.0218304
0.0220887
0.022116
0.0253856
0.0219579
0.339947
0.0308047
0.128416
0.0221824
0.0444703
0.049244
4.92886
0.0334401
0.986912
1.43701
0.022292
1.86498
0.0236001
0.0217809
0.0219522
0.0252879
0.0218911
0.0230189
8.34647
4.14317
3.50436
0.030129
0.0220015
0.0223696
0.0219722
0.0250647
0.119209
0.0217481
0.029932
0.0479159
5.25348
0.0222273
0.0219699
0.0221795
0.0217151
0.0221378
0.0221194
0.0777038
0.0219259
0.0239654
0.0218971
0.101452
0.0251562
1.24656
0.0245867
0.224107
0.0423729
0.022634
0.0260117
0.0267076
0.0219015
0.02877
0.0231122
0.109759
0.0884146
4.70169
0.0500655
0.0220889
0.022088
0.0242839
0.0217394
0.0555349
0.0221133
0.262571
0.0366763
0.0503139
0.0400839
0.0241799
0.0217802
0.0276126
0.0219486
0.0396069
0.0250314
0.0249225
6.96942
0.0367146
0.0218201
0.0289046
0.0219612
0.0288195
0.0218432
0.0503053
0.0248191
4.72752
0.144859
0.0234225
0.0220161
0.0219693
0.0221866
0.0215852
0.0352131
0.0228355
0.0220136
0.0223901
0.0221759
0.0298545
0.0873384
0.0438971
0.03722
1.89173
0.0217684
0.023344
0.0220978
0.029166
5.42215
0.0225377
0.0222674
0.0285921
0.042341
0.0934155
0.0362952
0.0229276
0.955741
0.0326471
0.0218879
0.022358
0.0233439
0.0219663
0.128841
0.0246329
7.25694
0.11314
0.0486699
0.110158
0.024362
2.81922
0.0257125
0.182759
0.628049
0.0219727
0.0288521
0.0232072
0.0219195
0.0423289
2.37578
0.0238491
0.0222847
0.0221594
0.0297522
0.0934217
1.44621
0.0221698
7.6848
0.0242251
0.0325005
6.14186
0.0219637
0.022157
0.131486
0.0222884
0.0226926
0.0220624
5.32201
0.021984
3.74557
1.28774
0.0287793
0.086952
0.0810335
0.0236565
0.0401645
0.0217281
0.0247058
0.0970313
0.022001
0.142631
0.0219464
0.0276584
0.0220144
6.87129
0.043073
0.0764389
0.159835
0.0218218
14.7646
0.0414212
1.18001
0.0219147
6.18633
0.0682978
0.0217923
0.0325771
0.121506
0.0381572
0.0221617
0.0221038
0.0233183
1.35412
0.0272105
0.0292201
0.0454452
0.0219617
0.0218175
0.0299794
0.0219326
0.060027
0.0226275
0.0216911
0.0222876
0.0218149
0.0218292
0.055185
0.0221962
0.0516759
0.0218523
0.0219272
0.0220203
3.22302
0.0217511
0.0406877
0.02183
11.1698
0.0330971
4.25473
0.0220604
0.0334842
0.0797661
0.0229374
3.34171
0.0235553
0.029613
0.170896
0.0417823
0.101805
0.117219
15.6329
0.0220628
0.0243269
0.0219332
0.0352994
0.0491251
0.021709
0.0221042
0.0218003
0.0266126
0.0229631
0.0221469
0.132524
0.248652
0.378104
0.024984
3.10667
0.0299473
0.0433729
0.0740298
0.0438416
0.0222924
9.46734
0.0222691
0.0231433
15.1993
0.053297
0.0216448
0.180337
0.0217734
0.0551801
0.025391
0.0222708
0.0300053
1.04032
0.0736384
0.0736225
0.139786
0.194324
1.36865
0.0235438
0.130232
0.0221106
1.32353
0.0217149
0.0293373
0.0293057
0.105786
0.0218234
0.0219395
0.0282187
0.0483813
0.039837
0.0484095
0.0871343
0.0216659
0.0222854
0.0222845
0.0227251
0.0281484
0.0437332
0.0229241
0.0239409
0.0218259
0.0235966
0.0221214
0.0291634
0.153298
0.0235741
0.211374
0.024014
0.021747
0.0623467
0.0220759
0.576478
0.0219069
0.0291114
0.0218194
0.0230264
0.106258
0.0218994
0.0296374
0.0279078
0.0220031
0.0218646
0.0304756
0.0218631
3.16179
0.0318855
0.0401539
0.0228894
0.0320777
0.0327845
0.0219044
0.0229587
0.0269648
0.0285165
0.136716
0.0490991
0.0310218
0.0218908
0.0826699
0.0220029
0.0256404
0.0849728
0.0215886
0.0219265
0.0416138
0.0242569
0.0221263
0.0426825
0.0218632
0.030941
3.21817
0.28562
0.0231224
0.0232001
0.0219179
0.0232751
0.178238
0.0218783
0.0257432
0.0216879
0.0222223
0.0795389
0.0262022
0.0218117
0.0936113
0.0221787
2.23448
0.0498336
0.0228514
0.0232231
1.56346
0.0226451
0.0425663
0.0217239
0.0407504
0.037677
0.0453461
0.0769338
0.046714
0.021635
0.0216903
0.0273568
0.0222622
0.0231743
0.0234147
0.597624
0.0492857
0.0299235
0.0216699
8.39254
0.0215378
0.0220244
0.022001
0.0283905
0.0229409
0.0219901
0.0217434
0.0873668
0.0234469
0.037032
0.0219735
0.0219574
1.39168
0.0282594
6.59379
0.0927102
0.0433336
3.51608
0.0222684
0.0230666
0.0217652
0.0257417
0.0215836
0.0429709
0.08957
0.0221532
0.0419837
0.0232945
0.0248172
1.97847
0.0865007
0.0218997
0.0579336
0.0217779
0.0264373
6.22976
0.0269799
0.0219062
0.0216643
0.0230282
0.0229742
0.0215329
0.0222633
0.162878
4.63038
0.023702
0.0218581
0.0218106
0.0219992
0.0219376
0.0472962
0.0216813
4.65184
0.0303008
0.0807807
0.178787
0.0215039
0.0247451
0.0218564
0.0223577
0.605099
0.23144
0.0264612
0.0524792
0.0427873
5.65653
0.0221726
0.0296286
0.0216596
0.0942144
0.0247763
0.0338071
0.0713409
0.0337143
1.63967
0.0223371
0.0501197
0.0219366
0.0942713
0.0970664
0.0223507
2.21908
0.0250261
0.0220857
0.0813639
0.0503733
0.0218206
0.0434776
0.0217073
0.0217589
0.0217456
0.0357343
0.0576533
0.0343396
0.608737
0.0513227
0.022084
5.59266
0.0235252
0.0218341
0.0737117
0.1314
0.0229548
0.0220304
0.835572
0.0267042
0.0219665
0.0219632
0.0364576
0.0269626
0.0238479
0.386578
0.0222716
0.0222011
0.022705
0.025086
0.0216893
0.463598
0.0222322
0.0246467
0.0220752
0.0247977
0.0605672
0.0220186
5.62992
0.0401711
0.0219812
0.0289789
0.0380266
0.0222743
0.0362113
0.0229837
0.0222756
0.0339957
0.0222271
0.12993
0.0922246
0.0221052
0.202652
0.0502827
0.0423529
0.123488
0.0275582
0.0218291
0.0221274
6.79877
0.115868
0.0216951
0.0218736
2.15306
0.0876517
0.0218624
4.72545
2.55027
5.36487
0.0257372
0.0231153
0.0222676
0.0237994
0.0255259
0.042797
0.0221494
0.0245511
0.0216112
0.0375833
0.130966
0.0560032
5.63786
0.0351277
0.0250783
0.0256833
0.0264978
0.0224811
0.0267929
0.0330906
0.023452
0.101341
0.0219053
0.0219279
0.0436603
0.0321151
0.0383074
0.0736202
0.0222182
0.0216747
0.0525653
0.0219031
0.0215961
0.052688
0.0218911
4.93127
0.0225057
0.022315
0.0222572
0.0288072
0.0221003
0.0215221
0.0220635
0.030136
0.0218636
0.297157
0.0274597
0.173611
3.29328
0.148172
0.784566
0.027199
0.0408536
0.0904306
4.94102
0.025627
0.0222841
0.0334271
0.0221477
0.026955
7.54141
0.0333079
0.0219135
0.048709
1.5403
0.0218703
0.182553
0.0709324
0.0250867
0.0218103
0.0293319
0.0324945
0.0324824
0.184575
0.0302156
0.0318913
0.0221256
0.0218461
0.022016
0.0227976
0.0287768
0.254059
0.0221168
1.33523
0.0252911
0.0253936
0.061772
3.24778
0.284424
0.0216999
0.0217526
0.0220902
4.59583
0.146603
0.0513433
0.0404521
0.139334
0.0218952
0.0221385
0.0236587
0.021676
0.0254354
0.0223919
0.0229941
0.0927862
0.0398096
0.0225477
0.0218714
0.0381064
0.0372188
0.179292
0.0861999
0.0221381
4.02471
0.0466198
0.0365113
0.0354978
0.119687
0.0261959
0.0282639
7.39575
0.0270073
0.0273209
0.0220501
0.0347834
0.0229853
0.0218714
0.0357277
10.0584
0.0398669
0.030984
0.0427193
6.08018
8.62764
0.0223613
0.0216113
0.0217835
7.27461
0.022068
0.0227971
0.519445
0.0222755
0.0694086
0.0220938
0.0222788
0.022044
0.0484787
1.30264
0.10991
0.0219509
0.0252523
0.142399
0.022102
15.5635
8.2009
3.19034
0.029847
0.0223802
0.0289231
0.0301586
1.1494
0.0238118
0.0765589
0.0236493
0.0218771
0.0220947
0.0220341
7.88963
0.0259829
0.0258909
0.0243853
0.0219022
0.0219849
1.62872
0.0231082
0.0242296
0.0232571
0.0222495
1.71166
0.0216767
2.56573
0.0218987
0.0567759
0.0217855
0.0290177
0.0524205
0.0439995
0.022134
0.0218321
0.0221112
0.0220163
0.0555872
0.0781195
0.0235831
0.0259265
0.0228643
0.0311167
0.0231466
0.0222557
6.40283
0.0597787
0.0340144
0.0227526
0.0218456
0.846314
0.0238198
0.156038
0.164659
0.0222984
0.0218802
0.0274724
0.0240428
8.54947
0.022037
0.144008
0.0218708
0.0219249
0.0247345
0.023485
0.0361554
0.0807518
0.0399075
0.836683
0.087842
0.0220151
9.06441
0.0219314
0.0222853
0.0222625
0.0343012
0.0576756
0.0604067
0.021738
0.0235779
0.0229824
0.0217626
6.85747
0.0218231
0.0218529
0.0221116
0.026357
0.16103
0.0279056
0.0307281
0.0220652
0.0337334
0.0219863
0.0225817
0.0276056
0.0268494
0.0430595
0.0223832
0.0222573
0.130195
0.0217076
0.0218382
0.138236
0.0586761
0.0277662
0.0754466
0.0234994
0.0346244
5.44521
0.0506718
0.0276621
0.0259381
0.0788961
0.0500452
0.0217448
0.0336333
0.0359639
0.0241735
0.0219621
0.0220399
0.123629
0.0220934
3.23909
0.0227432
0.021771
0.0216934
5.18152
0.0221158
0.0247219
0.0233568
0.0778244
0.0222499
0.0218967
0.021822
0.026655
0.0216086
0.0221049
0.0219921
0.0431885
0.114265
0.0354519
0.0242492
0.0577898
5.62019
0.0231438
0.0271936
0.0221853
0.0221073
0.145466
3.85428
0.054171
0.0223899
0.0234099
0.0231399
0.0406648
3.60714
4.96823
0.0386145
0.0415701
0.0259065
0.132878
0.053053
0.0772094
0.0992578
0.0231545
0.141883
0.0221048
0.142657
0.0221958
0.0522745
0.0217745
0.0589093
0.0219893
0.0222433
0.0257094
0.716981
0.0264555
0.028889
0.0222893
6.20133
0.0217241
0.870763
0.0218991
0.0220698
0.022018
0.0316377
0.0217038
0.0356851
0.085175
0.0215185
0.0226197
0.049266
0.0220878
0.0222543
0.0304574
0.231067
0.0227366
0.0255056
0.048402
0.0221743
0.0233775
0.0218091
4.02338
0.0255037
0.0264146
0.0324435
0.0758964
0.022841
0.0217242
0.0642251
7.33272
0.0222062
0.0219078
0.0417778
0.080755
0.0222606
0.0366856
0.0350363
0.155422
0.090239
0.0277266
0.0219435
0.0220831
0.0291617
0.0800927
0.0224155
4.18977
0.050744
0.0266717
0.033913
0.0239517
0.0282217
0.0264462
0.0226128
0.021612
4.74574
0.0222945
0.0388836
0.0689929
0.0335245
0.0377362
0.0240428
0.0271624
0.0723285
0.0230418
0.0218849
0.0483704
0.0543455
0.0221138
0.021832
7.06463
0.0220535
0.03641
0.0507357
0.0218438
0.0353519
3.02391
0.0370659
0.0231712
0.0840349
0.0540192
0.0274545
0.0630784
0.0224365
0.0231688
0.0864008
0.0220972
3.1964
0.0408602
0.0312594
0.0265568
1.36812
0.0218334
0.0396085
0.17799
0.0220813
0.131579
0.0355759
0.0299753
0.26328
1.34578
4.86721
0.0217761
0.0222077
0.022944
0.125511
0.0292368
1.44709
0.0516696
0.0374226
0.131362
0.0227336
0.0404931
0.028558
0.0224027
0.0331547
0.0219128
0.041986
0.0869849
0.0473005
0.0217207
0.142152
0.0356877
0.052099
0.0221311
0.0376679
0.0220762
0.128742
0.0577624
0.0999849
0.0258615
0.0897482
3.35539
0.0215837
0.0744129
0.0217395
0.0227914
0.0262444
0.0252217
0.022018
0.033728
0.0220705
0.0408637
0.0839062
0.0220533
0.16017
0.0217743
0.0277899
0.0392793
0.0228749
0.0605738
0.402887
0.0263652
0.0217646
0.0222388
0.0215981
0.0394005
0.0298881
3.61345
0.0216951
0.0238549
0.0252378
0.0233745
4.93845
1.01866
0.0362023
0.717202
0.214261
0.0218486
0.26426
0.0469162
0.0249982
0.159816
0.0263164
0.135949
0.0394652
0.0960339
0.0227772
0.0415096
0.351022
17.7679
0.0401168
0.0230469
0.0219183
0.104149
0.0222192
2.96522
0.0294419
0.143375
3.07484
0.0392607
6.74264
0.0221092
0.384055
0.0237004
0.0323413
0.0315805
0.0249285
0.0487429
0.659927
0.02198
0.0272469
0.0359679
0.0228852
0.0216409
0.0406549
0.122519
0.0281952
0.0323844
0.033038
0.025889
4.95189
0.021912
6.62317
0.0982935
0.0223664
0.0317695
0.022018
0.0216386
0.178948
0.0218647
0.0448242
0.022097
0.0269113
0.024315
0.0863608
0.0329749
0.0236013
0.0220578
0.0245372
0.0219614
0.0229485
0.0257345
0.0221137
0.0287114
0.0844299
0.0222621
1.21451
0.0216322
1.49868
0.041765
0.071754
0.0218395
0.0345529
0.0743421
0.0366051
0.110692
0.130045
0.0220596
0.022112
0.0918912
0.0490605
0.0235499
0.0266704
0.0873836
0.0217562
0.0285273
0.0218681
0.0218265
0.0221662
0.0288135
0.0393629
0.0217872
0.0449573
0.0220243
1.58509
0.0541159
0.0220549
0.0221444
0.0248381
0.0215098
0.0221697
0.0312912
0.0218185
0.0395726
0.024634
0.0222998
0.0289281
0.0220463
0.0220462
0.142574
0.0369056
6.91282
0.0220751
0.024516
5.73505
0.0217748
0.0543032
0.0246339
0.0320653
0.0232261
0.0372666
0.0349122
0.0270137
0.0232785
0.039594
0.767083
0.0218237
0.899361
0.730574
0.0227518
0.0247008
4.87693
0.0755033
0.0251801
0.0219682
0.0244994
0.0366089
0.0220564
0.0227162
0.0819597
0.0233331
0.0408385
0.0273292
0.0221118
0.0221282
0.0812901
0.0247982
0.0332901
0.0218867
0.0367782
0.0217372
0.0220946
0.0625941
0.0296198
0.0229736
0.0711412
0.0569797
0.0221343
0.0262053
0.0268799
0.0218324
0.261673
0.0252956
4.0391
0.0222723
0.0216927
0.0222199
0.0525949
0.0383814
0.0790461
0.0222483
0.345599
0.0401784
0.112784
0.0219978
0.0839051
0.115241
0.495397
0.0222403
0.0328915
0.0311968
0.0312447
0.0764872
3.3803
0.127645
0.0386995
0.0683414
0.0221052
5.95933
0.0250472
0.0781119
0.0479181
0.0355097
0.0221802
0.038405
0.0383565
0.0220681
0.022012
0.0217621
0.022074
0.0312556
0.946421
6.60259
0.0286474
0.0255957
0.0218841
0.028971
0.0217548
0.0233955
0.0229187
0.0265446
0.0713164
0.0218876
0.0247046
0.0221103
0.0392312
0.0258604
0.0216399
0.0393351
0.0298054
0.622405
0.0219626
0.0317233
0.0233417
0.0220999
0.114543
0.0234169
0.022154
0.0660922
0.0221164
0.0251405
2.55176
0.0218345
0.0219447
0.0813518
0.0582406
0.0843132
0.027835
0.0322483
0.0217228
0.0222404
0.026796
1.31603
0.0323761
0.0475596
0.0393884
0.0217084
0.0485369
0.113288
0.0232126
0.0220267
0.0223432
0.0220084
0.0404876
0.0452521
0.0224899
0.0226874
0.0831986
0.0678245
0.327383
0.0227804
0.0429886
0.0285557
0.517476
0.0342152
0.0240489
0.0237755
0.0225573
0.0763194
0.0242496
0.248784
0.0261577
0.0219365
0.0221035
0.0247407
0.288634
0.0328562
0.0220583
0.0216286
0.0253921
0.0262094
0.0219618
0.0232762
0.0550264
0.0259378
0.0241268
0.0243052
0.0243968
0.0219088
0.021748
2.36787
0.179272
0.0861079
3.72955
0.0218884
0.0265718
0.0223175
0.0629472
0.914852
0.0239754
0.0690304
0.0341318
0.0234373
4.46026
0.626171
0.022963
0.0231767
0.0216261
3.56266
0.0260816
0.0217833
0.0834431
0.219546
0.137012
0.19887
0.0256412
0.0393326
0.0248877
0.0222597
0.0727028
0.0219348
0.0217957
0.0230942
0.0911734
0.0279467
1.10317
0.0340381
0.0219227
2.13665
1.56481
0.041821
0.0342
0.302898
0.0999172
0.088999
0.163344
0.798028
0.0238285
0.0220063
0.0275264
0.0506266
0.0229504
0.0489286
0.0220662
0.260096
0.0304883
0.0780519
0.0216776
0.0221672
0.558207
0.0750403
5.86234
0.0251132
0.0232108
4.37789
0.167789
0.0897099
0.0526403
0.0218822
0.0218525
0.0221535
0.0232441
0.0220944
0.05242
0.477435
0.0406179
7.37716
0.0616584
0.0222223
0.0361564
0.0220127
0.0225734
0.246314
0.10651
0.0257381
0.0220465
0.0221802
0.0782153
0.0226387
0.0221053
0.0221019
0.0217176
0.024265
0.0222645
0.0261968
0.0221764
0.0221353
0.946093
0.036697
0.0216569
0.0337827
0.660786
0.141954
1.03744
0.0320636
0.0220237
0.0218927
0.0661589
0.0216634
8.03522
0.023022
0.0250042
0.0220994
0.0219826
0.0226604
0.0422754
0.0229152
0.0227764
0.535802
0.0220679
0.022428
0.0250933
0.0222158
0.0221394
0.0218017
1.64482
0.0222949
0.0295066
0.0772549
0.0215376
0.0220693
0.0782467
0.0859102
0.0232903
0.490191
0.175355
0.04305
0.0227829
0.0222805
0.060119
0.0302266
0.0221758
0.0720031
0.0424446
0.237411
0.0480527
0.0336688
0.0326768
0.0508992
0.906936
0.0318347
0.104675
0.0251124
0.164626
0.0953572
0.0236764
0.0222157
0.0219132
2.21998
0.0219986
0.0218927
0.0220086
0.0688183
3.45573
5.6537
0.0220936
0.0240537
0.346927
0.026382
0.0848441
0.265288
0.0917341
5.83871
0.0219583
0.028891
0.0574229
0.0249309
0.0224088
0.0467372
0.133075
0.0340715
0.0920889
0.0220199
0.0232212
0.245931
0.0221525
0.0534673
0.0254853
0.0218679
0.0222876
7.72998
3.52678
0.0344661
0.0293603
0.0221866
0.0229334
0.0490483
0.0235792
0.0813832
6.33161
0.0221021
0.113422
0.0217068
5.18612
3.42985
0.0250586
0.0217815
0.0830323
0.0222701
0.0219384
0.0245665
0.0222346
3.47399
0.0220749
0.0599503
0.186414
0.0227526
0.196691
0.218992
0.104906
0.0221022
0.0220182
0.0359684
0.0225741
0.0245409
0.0222873
0.0217505
0.0493767
0.0805648
0.0223314
4.41277
0.0217589
0.0662623
0.0223826
0.0215539
0.0995279
0.0390873
6.56292
0.041055
0.0228783
0.0220937
0.0255353
0.0419701
0.0216767
0.0238765
0.215421
0.0649939
0.0461677
0.026514
0.0222883
4.12003
0.0263727
6.91643
0.0219134
0.0901041
0.0291942
0.0313716
0.140437
0.0254591
0.0246185
0.0266912
0.0222761
0.141068
0.0217566
0.0265211
5.51139
0.0221007
0.474547
0.828183
0.0273497
0.0418464
6.95124
3.13107
0.0220865
3.7991
0.0381623
0.0221107
0.0312559
5.51933
0.0218508
0.0218519
0.093823
0.0220228
0.0269634
0.0216446
0.027544
0.177664
1.52088
0.0268005
0.0364286
0.0224818
0.0218539
0.671131
0.0218296
0.0216783
0.916473
0.0282454
0.0225187
0.0485802
0.0229046
0.0246704
0.0344088
0.0548324
0.0217931
0.0241267
0.426675
0.0706842
0.0224094
1.06572
0.0220706
0.0218649
0.157822
0.0221976
0.0221055
0.0793963
0.0219351
0.026073
0.0241055
0.0221455
0.0220254
0.0234414
0.0325697
0.0265462
3.07246
0.0612416
0.0313723
0.0220581
0.128128
0.141838
0.0376397
0.781128
0.287754
0.211164
0.0258691
0.113399
2.95981
0.0268651
0.23244
0.0889735
0.0415169
0.290343
0.0330847
0.0273196
2.81916
0.0421664
0.082613
0.0875132
0.467049
0.0230651
0.021946
0.0222759
0.0885941
0.0232819
0.0252719
5.00014
0.0216797
0.0219124
0.0293296
0.0220212
0.054878
0.111114
0.0229495
0.027039
0.0471014
0.0743952
0.0485628
0.0237907
0.0267585
0.0504948
0.0346452
0.0252015
0.768245
0.0247082
0.09336
0.0227787
0.0486908
0.0220435
0.0293778
0.021588
0.0216336
0.0288691
0.0321185
0.0220525
0.0653603
0.0424822
0.0330887
0.0218303
0.0291056
0.0373669
0.0285627
0.0501947
0.376752
0.0222915
0.0215562
0.0215755
0.0757332
0.0736895
0.021569
0.0225269
0.0226842
0.0898378
3.3045
0.0282122
1.11997
0.0296286
0.0822578
0.0306793
0.0297221
0.243674
0.0824372
0.0258136
0.0473882
0.0219493
0.0222654
0.483708
0.0723988
4.51067
0.0287441
0.0228061
0.0808287
0.022274
0.0281674
0.0222226
0.037685
3.2838
0.525801
0.0230214
0.0219999
4.27351
0.0228232
0.0462187
0.0219307
0.0892208
0.0390523
0.0654035
0.0476534
0.0220558
0.0763061
0.0216463
0.0244833
5.01199
0.0391386
0.137599
0.534843
0.0276266
0.0330884
0.0346263
1.05309
0.0220738
0.211209
0.0515126
0.0220159
0.0222882
0.0314141
0.0227164
0.0348002
0.0215494
0.674538
0.0253987
0.0302723
0.0220854
0.0218827
0.0336461
0.0221677
0.0314134
0.0218331
0.0221919
3.56114
0.0307365
0.0221032
0.0322871
0.0218005
4.3308
0.0236487
0.0218303
0.0251831
0.033197
0.02598
0.0272587
0.13615
0.0221067
0.0871657
0.0278374
0.0511287
0.0287755
0.0323938
0.0865899
0.0577724
3.14588
0.419579
0.0513166
0.0222666
0.0219495
0.0226634
0.0222397
0.0236913
1.11505
0.0751007
0.248906
0.0384877
0.0239895
0.0219512
0.0221216
0.0221635
0.141675
0.0243438
0.0221654
0.057475
0.491128
0.0220855
0.0221448
0.0221964
0.0219237
1.72
0.0368703
0.0219369
0.0217375
0.0802286
0.123216
0.0479025
0.021681
0.0220903
0.129633
0.0780626
0.0280442
0.0245039
4.82989
0.0838131
0.0851914
4.71953
0.0745944
0.0215441
0.0388509
0.0243159
0.447418
0.0311794
0.123842
0.0231473
0.0319884
0.035675
0.0499112
0.0396928
0.0228931
0.17087
1.69084
0.104259
0.0219846
0.022259
0.0216923
0.0218478
1.63638
0.0338182
0.0274797
0.100819
0.0603756
0.0265044
0.0546456
0.0244838
3.5845
0.0343066
0.0481983
0.025763
0.0346347
0.0443163
0.0498817
0.0829139
0.0220498
0.0391054
0.0221565
0.0793749
0.0287428
0.0218676
0.0802342
0.0219199
0.0252202
0.0228198
0.0345563
0.0216382
0.0513907
0.0249852
0.0411876
0.0227922
0.0218196
0.0264231
0.0221297
0.0233988
0.267988
0.0295002
0.025403
0.0217524
0.022078
0.0354187
0.0370246
0.240136
0.0216229
0.0274407
1.89202
0.101099
0.0221082
0.189196
0.0218888
0.0792473
0.10556
0.028454
0.599843
0.0219214
0.0398902
5.2784
0.0905681
0.0283175
0.0254996
0.0267061
0.0264472
4.41067
0.0220679
0.0351325
0.0322281
0.0233487
0.0596363
1.65848
1.87935
0.313014
0.0218369
0.411979
6.43896
0.03282
0.0250792
0.132422
0.0220191
0.0233536
0.288342
0.191768
0.0220532
0.0228024
0.0218851
0.0403742
0.0825256
0.0406634
0.0220222
0.128954
0.0333673
0.698236
1.17659
0.0800883
0.0284986
0.164322
0.116227
0.0220718
0.0216034
0.0224682
0.0421539
1.05177
3.04825
0.0894464
0.271313
0.171835
0.0218978
0.142242
0.0348188
0.0999153
0.0219686
0.0220709
0.0240853
0.0911655
0.0332559
0.0776938
0.0236091
2.33338
6.02571
0.0526488
0.050906
0.115494
0.0241337
0.0419227
0.022071
0.0246326
0.0599304
0.0222838
0.0351747
2.00089
0.0221165
0.0362047
0.0220373
0.0226413
0.393474
0.0220722
0.0817602
0.159509
0.944726
0.0222211
0.0222395
0.113239
0.0220786
0.0615512
0.0285088
0.0218218
0.105637
0.0222577
0.466228
0.0221769
3.98867
0.0216353
3.07449
0.100894
2.5235
0.564537
0.0224876
0.0251249
0.0261711
0.0231413
0.0220865
0.0892172
0.148263
0.142203
0.0218646
0.0842616
0.76312
0.0222873
0.0756208
0.0394724
0.0912624
0.0808546
0.0232953
0.091146
0.113555
0.0216052
0.0235763
0.0217023
0.074137
0.316407
0.113297
6.09322
0.089653
0.5883
0.0837059
0.0893283
0.0220646
0.169107
0.0237931
0.0220968
1.12002
0.0854991
0.0217998
0.0261549
0.025891
2.5342
0.0220364
0.024747
0.0760563
0.0757098
0.0261939
0.0925128
1.7172
0.0845914
0.0533781
0.520295
0.0220004
5.74408
0.0252807
0.0234851
0.0355192
2.57532
0.0216798
0.0453601
0.0221209
0.0218544
0.0418769
3.09201
3.15653
0.0379444
0.0235302
0.0771479
3.85785
0.0264836
0.0222764
0.0425509
0.0570025
0.0842583
0.0787351
0.0220999
0.0288651
0.0220225
0.0361609
6.88933
0.0304519
0.0387886
0.249989
0.0215436
0.021949
0.0437666
0.0355259
0.0221074
0.630957
0.0261999
0.422737
0.0912652
0.0220942
0.0237985
0.0828741
0.0269011
0.0215884
0.022061
4.79583
0.0275876
0.0217396
0.201961
2.56308
0.0239931
0.0408767
0.0301957
0.0245552
5.86599
0.0343088
0.0218256
0.111264
0.0411195
5.48133
0.0229839
0.0228898
0.0745619
0.0369324
0.0220516
0.0394631
3.87872
0.0648158
0.0221078
4.81767
0.0423273
0.02349
0.0223512
0.0495393
0.0227152
0.591747
0.0945049
0.024246
0.0339549
0.0414732
0.0850455
0.17729
0.0329021
0.0376568
0.0237313
0.0223219
0.0228769
0.0247881
0.0862679
0.0958556
4.79768
0.076933
0.0336659
0.023366
0.0242708
0.0230902
0.0263408
0.0278695
0.0835224
0.0231595
0.0226771
0.167346
0.0353842
0.0220694
0.0222697
0.236067
0.0218962
0.391724
0.0220873
0.0280596
0.0217294
0.0361885
0.0227352
0.972089
0.0233442
3.83893
0.0362039
0.0235034
0.0700596
0.0282297
0.04045
0.280984
0.0229225
0.4917
0.0569687
0.0281882
0.0222321
0.0224849
0.0747305
0.432506
0.0266082
0.0220547
0.0220791
0.0226003
0.0222407
0.0312297
0.0223127
0.0362444
0.0220591
0.022098
0.0220563
0.222559
0.408499
0.022276
0.0253088
0.0821363
0.0353569
0.0227446
0.0219761
0.0220538
0.0803462
0.073493
0.0414662
2.23455
0.0221827
0.180495
0.13726
3.87051
0.0221031
0.0271932
0.0243477
0.0221311
0.0268871
0.205914
0.0709248
0.0344128
0.0253083
0.0280246
0.0220632
0.0226553
0.0230125
4.6427
0.0284659
0.917871
0.029289
0.0222625
0.203887
0.135936
6.74687
3.64282
0.0270171
0.0538438
1.55598
0.046465
0.021993
0.0228172
0.0231867
0.02197
0.0954154