/*--------------------------------*- C++ -*----------------------------------*\
| =========                 |                                                 |
| \\      /  F ield         | OpenFOAM: The Open Source CFD Toolbox           |
|  \\    /   O peration     | Version:  v2012                                 |
|   \\  /    A nd           | Website:  www.openfoam.com                      |
|    \\/     M anipulation  |                                                 |
\*---------------------------------------------------------------------------*/
FoamFile
{
    version     2.0;
    format      ascii;
    class       surfaceScalarField;
    location    "500";
    object      phi_0;
}
// * * * * * * * * * * * * * * * * * * * * * * * * * * * * * * * * * * * * * //

dimensions      [0 3 -1 0 0 0 0];
oriented        oriented;


internalField   nonuniform List<scalar> 
19765
(
-0.0442883
-0.0453132
0.0896015
0.0101499
0.112517
-0.122666
-0.0313154
0.0579281
-0.0266127
-0.123402
-0.181874
0.305276
0.235328
-0.245878
0.0105497
-0.192483
0.011342
0.181141
0.138699
-0.212917
0.0742183
0.0135025
0.0599441
-0.0734466
0.167298
0.142801
-0.310099
-0.122712
0.447882
-0.32517
0.13285
-0.0705458
-0.0623047
-0.0415793
0.0426034
-0.00102406
-0.0731142
0.0152913
0.057823
0.240691
-0.101992
-0.138951
0.313504
-0.174554
0.329238
-0.0939096
-0.213878
-0.042512
0.25639
-0.301374
-0.111588
0.412963
0.0428046
0.0611816
-0.103986
-0.169995
-0.0122235
-0.16252
0.351732
-0.189211
0.33337
-0.542068
0.208698
0.514291
-0.180922
-0.047382
0.0654114
-0.0180293
0.042021
-0.0733364
0.162231
-0.290865
0.128634
-0.0365706
0.0408306
-0.00425994
-0.305888
-0.236179
-0.034396
0.00674357
0.0276524
-0.153329
0.460028
-0.306699
0.0155813
-0.061803
0.0462218
0.0591892
-0.053347
-0.00584219
0.0702971
-0.0635139
-0.00678328
0.0625396
-0.0332496
-0.02929
-0.0520332
0.0948379
-0.246339
0.122936
0.447578
0.0667137
-0.346274
0.262831
0.0834425
0.312633
-0.0856338
-0.226999
-0.228624
0.0185348
0.210089
-0.0424468
0.151663
-0.109216
-0.0610883
-0.12428
0.185368
0.0644286
-0.0509261
-0.110222
0.151986
-0.041764
-0.0563598
0.000294129
0.0560657
0.00723603
-0.161804
0.365559
-0.203754
0.296181
0.197029
-0.49321
0.169222
-0.162425
-0.00679682
0.636274
-0.375027
-0.261247
0.0527441
-0.0371628
-0.00559692
-0.126621
-0.504255
0.350926
-0.034396
-0.172132
-0.0203508
-0.22749
0.166402
0.173172
-0.00742008
-0.165752
-0.318779
-0.0499096
0.368689
-0.359772
0.23706
-0.134805
0.0604182
0.0743872
-0.318695
0.104817
0.0511749
-0.369954
0.14432
-0.171474
0.0271545
-0.210761
-0.0178626
-0.129467
0.291698
0.0426321
0.211109
-0.253741
-0.134376
0.144526
0.0506714
-0.0397948
-0.0108765
-0.0353288
-0.00124179
-0.3972
0.095826
-0.443511
-0.169515
0.613026
0.18244
-0.0381206
0.21913
-0.396937
0.177808
0.0452022
-0.204802
0.1596
-0.284246
0.126379
0.157867
0.322107
-0.548873
0.226766
-0.0430784
0.0516516
-0.00857316
-0.0574091
0.0994472
-0.0420381
0.0730291
-0.0219679
-0.0510611
-0.153521
0.173497
-0.0199763
0.18718
-0.39719
0.210011
0.0857809
-0.138318
0.0525366
-0.402851
0.217118
0.185734
-0.303736
0.429194
-0.125458
-0.056822
0.000462161
-0.277602
0.123157
0.154444
-0.333725
-0.200147
0.533873
-0.0127567
0.109322
-0.0965653
-0.0947182
0.0819615
-0.372402
0.209882
0.467296
-0.300844
-0.166452
0.0477042
-0.0441221
-0.00358205
0.10561
-0.0440268
-0.0615831
-0.0492503
0.10369
-0.0544392
-0.0358809
-0.107731
0.143612
-0.104442
0.0350222
0.0694196
0.458189
-0.271009
-0.0500473
-0.0197891
0.0698364
-0.151398
0.0411764
0.124103
-0.124689
0.000585388
-0.149044
0.0340304
0.115013
-0.0989683
0.395149
-0.370624
0.288138
0.082486
-0.250897
0.065138
0.185759
0.440598
-0.221468
-0.291559
-0.218707
0.510266
-0.00576301
0.0662269
-0.0604639
-0.0709322
-0.0638732
0.163933
-0.149925
-0.0140085
0.0784063
-0.0618087
-0.0165976
-0.101976
0.0785114
0.0234648
0.0534258
0.00576341
0.107524
0.0739438
-0.0366926
-0.0372512
-0.0773436
-0.0717
0.0699565
0.000340677
0.0324063
-0.16286
0.130454
-0.110841
0.141343
-0.0305024
0.168668
-0.221462
0.0527944
-0.0759553
-0.0260209
0.127609
-0.16349
-0.179223
-0.21113
0.390353
0.386734
-0.500373
-0.0755552
-0.202046
-0.0538495
0.0904196
-0.0365701
0.204717
-0.0178408
-0.186876
0.0459541
0.0141533
-0.0601073
0.355551
-0.167289
-0.188263
0.438744
0.197529
0.0258924
0.0388667
-0.0647591
0.071389
-0.0193326
-0.0520564
0.133681
-0.167203
0.033522
0.0662945
-0.108499
0.00716124
0.101337
-0.425816
0.0107064
0.41511
-0.0117518
0.156797
-0.145045
0.266855
-0.0995566
-0.265325
-0.1053
0.0705548
0.00785155
-0.0138957
-0.237001
-0.0217125
-0.0519686
0.0348859
0.00171607
-0.0366019
-0.0346637
-0.0106582
0.0453219
-0.122441
0.138978
-0.0165371
-0.0104931
-0.0310862
0.0142372
-0.0628591
0.048622
0.178703
-0.00948109
0.301614
-0.573589
0.271976
-0.447155
0.114793
0.332362
-0.0452271
0.0542205
-0.00899337
0.0430028
-0.058121
0.0151182
-0.294532
0.233364
0.0611685
-0.00606195
-0.218776
-0.127498
0.215513
-0.509826
0.294313
-0.17633
0.164578
0.330963
-0.573395
0.242433
0.132279
-0.174726
-0.0954174
0.0485536
0.0468638
0.0319267
0.030613
-0.00236419
0.0826584
-0.0802942
0.0608555
-0.0149014
-0.142661
0.0318208
-0.208658
-0.0858739
0.386518
-0.632617
0.246099
0.0426018
-0.0804717
0.0378699
-0.134285
0.00492374
0.129362
-0.0693298
0.0476173
-0.022791
0.064812
-0.00711235
-0.0732001
0.0418682
-0.0707303
0.028862
0.128138
-0.133735
0.0160545
-0.0572249
0.0411704
-0.0311068
-0.0420074
0.0157034
-0.115935
0.100232
0.450529
-0.668372
0.217843
-0.136257
0.0108243
0.0617267
-0.072551
-0.321861
0.142103
0.179758
0.211787
-0.336531
0.124744
-0.0383754
-0.0391189
0.0774943
0.20038
-0.031712
0.0999024
-0.249581
0.149679
0.062711
-0.0466565
-0.115127
0.184675
-0.0695488
-0.131075
-0.12315
0.254225
0.0309544
-0.456771
0.237117
-0.194484
-0.631652
0.674928
-0.0432762
-0.134375
0.0119343
0.154083
-0.0204016
0.14934
0.00474257
0.066444
-0.0238422
0.0609573
-0.0179545
-0.0763256
0.0705626
0.0485981
-0.083275
0.0258659
-0.237771
-0.142202
0.379973
-0.240548
0.198036
0.0781846
-0.0363163
0.0657065
-0.0620943
-0.00361225
-0.11027
-0.0151775
0.125448
-0.0127841
-0.0732252
0.0860093
-0.0820391
0.240448
-0.158409
-0.036464
-0.0632484
0.0997124
-0.0723264
0.0529938
-0.152699
-0.0197216
0.17242
0.0567558
-0.231422
0.174666
-0.293344
-0.15381
-0.159137
0.1781
-0.0189631
0.0956658
0.0284373
-0.0615454
0.0141634
-0.53494
0.0914293
0.0654055
-0.0395132
0.0863383
-0.0991223
0.0985407
-0.0127598
-0.24763
0.433888
-0.186258
-0.0679321
0.0584209
-0.0546604
0.307896
-0.253236
-0.291997
0.237337
-0.283852
0.144902
-0.678015
0.250873
0.427143
-0.136206
0.289039
-0.152834
-0.0887602
0.0852234
0.0035368
0.230958
-0.444156
0.213198
0.0316315
-0.0627383
-0.121374
-0.0129115
0.620334
-0.280226
-0.0316968
-0.0247111
0.0564079
-0.136447
0.0868515
0.0495953
0.0289193
0.263185
-0.460119
0.196934
0.468501
-0.166887
-0.020087
0.21484
-0.194753
-0.158279
0.00760053
0.150679
-0.20711
0.00617412
0.200936
-0.0229714
-0.373966
-0.423998
0.570174
-0.146176
0.155271
-0.00593119
-0.227384
0.426013
-0.198629
-0.0338805
0.221145
-0.187265
0.0744398
-0.110904
-0.433884
0.254661
0.057846
-0.0470217
0.122039
-0.0443218
-0.0777172
-0.0799472
-0.0673565
0.147304
0.0661907
-0.000484235
0.165641
-0.205299
0.0396581
0.417689
-0.121275
0.136978
0.034977
0.0706329
-0.177756
0.408714
0.0705942
-0.056357
-0.321035
-0.286626
0.607661
-0.111749
0.562278
-0.0658446
-0.0598571
0.125702
-0.288741
-0.404404
0.177019
0.318411
-0.201211
-0.1172
0.0350285
0.106314
0.0441729
0.0886775
0.192967
-0.190962
-0.0789644
0.00611213
-0.0407758
-0.146021
-0.17584
0.0115244
-0.0733331
-0.0824945
0.0441191
0.0495081
0.0244357
-0.0865912
-0.00216908
0.211355
0.318097
-0.529451
0.0892924
-0.124923
0.0356302
0.248411
-0.0848636
-0.163547
-0.137089
-0.0048837
0.141972
-0.0602009
-0.0352165
0.0910824
-0.0539041
-0.0371783
0.156577
-0.580575
-0.0990708
0.131477
-0.0717443
0.021697
-0.0118024
0.184975
-0.106366
0.229523
0.260051
0.0583602
0.0566234
-0.0764125
-0.0765602
0.0891035
-0.0111823
-0.0779213
-0.410255
-0.267761
0.516593
-0.274977
-0.03869
-0.0545075
0.0931975
-0.197241
-0.20561
0.0245709
-0.160888
0.136317
0.0117469
-0.0645405
0.0527936
-0.00331361
-0.0489548
0.0642461
0.0435869
-0.0390417
-0.00454521
-0.0555605
-0.0808863
0.197704
0.249873
0.183234
-0.017593
-0.0569172
-0.25174
0.308657
0.0387089
-0.0387089
-0.321197
0.276096
0.0451009
-0.0338556
0.045462
-0.0116064
0.165424
-0.170627
0.0052033
-0.123354
0.0932308
0.0301235
-0.284595
0.58419
-0.299595
-0.0491891
0.0795905
-0.0304014
0.212939
0.133314
-0.346253
0.122988
-0.0478177
-0.0751702
-0.135489
0.0645564
0.175443
-0.250999
-0.217881
-0.257001
0.474882
0.0140136
0.110674
-0.124688
0.0943743
-0.114173
0.0197989
-0.0342821
0.0561803
-0.0218982
-0.284766
0.0616173
0.223149
-0.0823048
0.0284552
0.0410018
-0.00611598
-0.0494884
0.0754145
-0.025926
0.153793
-0.142175
-0.0116172
-0.0337511
0.105889
-0.114509
0.00862053
0.141324
0.107086
-0.0411046
-0.0474562
0.0885608
0.183103
-0.0176786
-0.4142
0.216959
-0.131909
-0.0577715
0.0554073
-0.254281
0.172241
-0.252122
-0.097743
0.349865
-0.137363
0.010742
0.230103
-0.0361488
-0.193954
-0.0652873
0.0815401
-0.0162528
-0.029765
0.0692001
-0.0394351
0.0487228
-0.131381
0.0826582
-0.206948
0.127
-0.125738
0.0154679
-0.0522841
0.018002
0.0575918
0.0328279
-0.179502
0.0329658
0.146536
-0.322099
0.0725181
0.143405
-0.155159
0.0117536
0.0717488
-0.0184098
-0.053339
-0.253421
0.512776
-0.259355
-0.142313
-0.0159664
-0.0303132
-0.108739
-0.0286239
-0.186135
0.449319
-0.208148
0.174268
-0.125764
0.268565
0.128407
-0.264613
-0.0622095
0.0354018
0.0399397
-0.176973
0.137033
-0.237476
0.030366
0.00901879
0.100303
-0.141921
0.198677
0.0497065
-0.0883966
0.104846
-0.0693818
0.115634
-0.0462521
0.0170314
-0.0625578
0.0455265
0.069488
-0.0210439
-0.0484442
-0.424689
0.186918
-0.0727037
-0.0627849
0.00386792
-0.0397197
0.0406407
-0.000920973
0.209601
-0.00488417
-0.0389019
0.0705334
0.211603
-0.19521
-0.0163929
0.0439786
0.0780604
-0.0153459
0.0731919
0.39275
0.107024
-0.00113519
-0.0194061
-0.0519398
0.0713458
-0.0439227
-0.0013044
0.075472
-0.00582015
-0.0696519
-0.00358487
0.0142447
-0.115472
0.101227
-0.171747
0.0566207
0.0327173
-0.0714782
0.038761
-0.223228
0.183607
0.0396208
-0.0301465
-0.046774
0.0769206
-0.0450743
-0.186347
-0.198473
-0.226216
0.0374069
0.186299
0.169252
-0.0663371
0.080698
0.0549498
-0.1042
0.141053
-0.294521
0.153467
0.191266
-0.198686
-0.0679836
-0.0553708
-0.234673
-0.0874263
0.0525863
0.00837094
-0.0438435
0.0506787
-0.00683524
0.150214
-0.125912
-0.0243019
0.0148971
-0.0367036
0.000318765
0.0363849
0.142071
0.00814331
-0.0418755
-0.037019
0.0788945
-0.396604
0.144482
-0.177639
0.147326
0.0524049
-0.0811881
0.0287831
0.000508551
0.0412117
-0.0783916
0.0371799
0.0349498
-0.107769
0.0728189
0.308136
-0.167083
-0.0981337
0.0489446
-0.159015
0.0331033
0.415055
0.0449727
0.298952
-0.120311
0.525821
-0.194858
-0.0217167
0.0613292
-0.0396125
-0.074634
0.106459
-0.031825
0.0404477
0.0316325
0.0190388
0.0199996
-0.12924
-0.154612
0.0629647
-0.0103784
0.175541
-0.180374
0.00483283
0.0827668
0.00690267
-0.0896695
-0.401479
0.336387
-0.591077
0.25469
-0.00985933
0.132155
-0.173741
0.0415863
-0.214402
-0.219482
-0.0805294
-0.00424417
0.0847736
0.146282
-0.00421168
0.0344426
-0.0661393
0.115002
0.111931
-0.226933
-0.0490426
0.0622209
-0.0131782
0.0608295
-0.0490826
0.00951519
-0.097349
-0.187417
-0.00881489
0.0597647
-0.0509498
0.0424772
-0.0367681
-0.00570917
0.0509571
0.0591709
-0.110128
-0.108349
0.38775
-0.279402
-0.0704121
0.101002
-0.03059
-0.141655
-0.272545
-0.187904
-0.0963424
-0.174723
0.0155868
-0.189712
0.171391
0.0183212
-0.632128
0.413619
0.218509
-0.21537
-0.163803
0.379173
0.331407
-0.177333
-0.154074
-0.120259
0.0255405
-0.145939
-0.187802
0.333742
-0.0281857
-0.0162848
0.0444705
-0.0501386
0.0771304
-0.0269919
-0.423381
0.538885
-0.115504
0.157107
0.0214711
-0.178578
-0.0807093
0.0509444
0.0624121
0.0195539
-0.081966
-0.287094
0.157854
0.186248
-0.158675
-0.0275726
0.010557
0.167543
-0.0552718
0.0902217
-0.0383183
0.00536215
0.0329561
0.364492
-0.222388
0.0983921
0.162327
-0.260719
-0.0549818
-0.0179475
0.0729294
-0.079376
0.0658681
0.0135079
0.202751
-0.177222
-0.0255292
-0.105489
0.0308546
0.172237
-0.0400822
-0.49161
0.170575
-0.175904
0.211084
-0.03518
-0.129681
0.143695
0.161036
-0.307057
-0.0156391
0.0514297
-0.0357906
-0.16007
-0.287016
0.256931
0.0300848
-0.104667
-0.0134442
0.118111
-0.229392
0.0186311
-0.0847921
0.00426267
-0.0773092
0.0717972
0.00551204
-0.326746
-0.305382
-0.316726
0.488206
-0.17148
-0.101159
0.127042
-0.0258828
-0.555145
0.238419
-0.126351
0.0957721
0.0305789
0.281501
0.315514
0.102986
-0.0203272
0.154305
-0.577685
-0.0554924
0.112744
-0.0572513
0.0871848
0.0210003
-0.108185
0.16108
0.209454
-0.370534
0.0657101
-0.049467
-0.0162431
0.106351
-0.175995
0.0696441
-0.0479721
0.0607126
-0.0127405
0.521606
-0.310251
0.0318521
-0.0976967
-0.00532246
-0.0225443
-0.0288698
0.0514141
-0.3376
0.175796
-0.0435804
-0.120688
0.160628
-0.0752021
0.0885124
-0.0133103
-0.0140548
-0.0622707
0.286166
0.143027
0.105724
-0.280431
0.154667
-0.00983215
-0.16967
-0.03324
-0.00647971
-0.0818011
-0.0226408
0.0508639
0.0148462
0.000941431
-0.10944
0.0026824
-0.138458
0.351396
-0.0816045
0.0427026
-0.138298
0.029559
0.0128834
0.17966
-0.0733088
-0.0357728
0.0458149
-0.0100421
-0.0643904
0.0555614
0.00882904
0.102055
0.0110628
-0.113118
0.189996
-0.184975
-0.0050206
0.0314339
0.0360898
-0.0675237
0.059641
-0.0426096
0.262796
-0.0995599
0.0798368
0.0197231
-0.202771
-0.0266208
0.0107119
-0.0399529
0.0117672
-0.155889
-0.0835557
0.0452913
0.0382643
0.0385355
0.0290579
-0.0675934
-0.0571628
0.0415238
-0.0169959
-0.0617492
0.0787451
-0.0933347
0.0542158
-0.0377556
0.0585454
-0.0207898
-0.0669667
-0.0224715
0.0894382
-0.174967
0.434814
-0.259847
-0.52942
0.275999
0.0563185
-0.0531774
-0.00314103
0.014005
-0.100322
0.0863172
-0.104951
0.131664
-0.0267127
0.181323
-0.167738
-0.0135852
-0.0824647
0.0130829
-0.0963419
0.110587
0.03614
0.0549425
-0.271653
-0.257767
-0.0196579
-0.0526685
-0.0364594
-0.00746338
-0.00391332
0.030548
-0.0266347
0.0406416
0.140682
-0.409196
0.234229
-0.064419
0.0994413
-0.237877
0.490972
-0.253095
-0.0307966
-0.00590708
0.0119322
0.0586226
0.0788896
-0.0164775
0.583409
-0.239652
-0.343757
0.441908
-0.119801
-0.0423612
0.0750785
0.477122
-0.326109
-0.151012
-0.0784108
0.0341225
-0.438061
0.594638
-0.0982369
0.100234
-0.0569685
-0.024636
0.273844
0.184345
0.254275
0.171738
-0.533277
-0.004252
0.537529
0.0981999
-0.0700732
-0.0281267
0.0319767
0.202636
-0.417038
0.170922
-0.145373
-0.025549
-0.0540152
-0.0213872
0.0754024
-0.0973465
-0.291684
-0.316896
0.60858
-0.583451
0.427016
0.156435
-0.00513915
0.0502709
-0.0451318
-0.193409
-0.37131
0.56472
-0.250322
0.015377
0.234945
-0.0335086
0.0335086
0.419185
0.164224
-0.0078499
-0.0304684
0.00818332
0.148614
-0.480745
-0.0898825
0.570628
-0.0706758
0.0999078
-0.0292319
-0.0153033
-0.131085
0.0261333
-0.130628
0.0294697
-0.0187966
0.108089
-0.0945337
0.256861
0.0229978
0.331783
0.145339
-0.139518
0.184901
-0.412167
0.0270889
0.0561554
-0.0832443
-0.0704761
-0.00683307
0.15383
-0.206235
0.0524044
-0.147898
0.534416
0.0362935
0.149954
0.0794231
-0.00395113
0.166235
-0.156973
-0.00926197
0.108671
-0.0768185
-0.158389
-0.0179412
-0.0596023
-0.0363963
0.0959986
0.00457776
0.170963
0.0352662
0.0163854
-0.0626695
0.0538546
0.234262
0.122636
0.296549
-0.161218
0.322253
0.100607
0.140084
-0.180135
0.0382142
0.056372
-0.00550807
0.063014
-0.100497
0.0374827
0.0653887
-0.0794436
0.0244758
0.453162
-0.330526
0.466537
-0.192693
0.0389535
-0.080829
-0.0567787
-0.00411961
0.0608983
-0.191318
0.0884988
0.102819
0.00965457
0.255296
-0.153934
-0.101362
0.222523
0.187981
-0.410504
0.068148
-0.0296876
-0.0384604
-0.0311507
-0.0324943
0.0639281
-0.128634
-0.00327521
0.0884832
2.91839e-05
-0.0696764
0.0314342
0.0382422
0.0442167
-0.0659335
-0.400504
-0.182947
-0.0406552
0.00388711
0.0567724
-0.0764303
0.0578859
-0.077292
0.0176379
-0.11971
0.102072
-0.0104133
0.0456794
0.211878
-0.0580479
-0.527135
-0.483474
0.265593
-0.0403987
0.0918298
-0.051431
-0.114922
-0.203011
0.317933
-0.336748
0.211616
0.125133
0.106162
-0.237237
-0.118315
0.0798534
0.0384617
0.0311959
-0.056084
0.0248881
-0.0395578
0.0379422
0.00161555
0.0184247
0.0201028
-0.0612552
0.0411524
-0.573731
0.323434
0.250297
-0.29224
0.0419175
-0.108662
-0.212535
0.169361
-0.0280368
-0.0762928
-0.332903
-0.282254
-0.291477
0.0135796
-0.098002
0.0844224
0.028046
0.142199
0.0548383
-0.0599774
-0.102933
-0.528718
0.0556973
0.00067465
-0.1081
0.0482429
0.212529
-0.232616
-0.168973
-0.149722
-0.434375
-0.00368726
0.438062
-0.0994642
0.106625
0.0800688
-0.217662
0.137593
0.00754121
-0.148282
0.238129
-0.0898469
0.0125991
-0.0483719
0.0288809
-0.320261
0.595028
-0.274767
0.0543124
0.0218181
-0.0761305
-0.403073
0.2046
0.386497
0.0758154
-0.462312
-0.104161
0.315947
-0.0608352
0.0117926
-0.109896
0.0339407
0.0735653
-0.106173
0.0326075
0.211365
-0.0351691
-0.176196
0.0181802
0.196228
-0.214408
0.00217457
-0.130808
0.102075
-0.0533519
0.283091
0.257819
-0.54091
-0.151027
-0.0183607
0.169388
-0.0115199
0.0500899
-0.03857
-0.0421287
0.00308694
-0.00750034
0.0753844
-0.0678841
-0.0592647
0.0477448
0.649037
-0.378213
-0.270824
-0.0190187
0.192379
-0.17336
-0.032298
-0.00518279
0.0374808
-0.644016
0.233761
-0.0994413
0.0454263
0.0540151
0.0109704
-0.362374
0.298479
0.0638944
-0.259597
0.180632
0.166971
0.0162629
-0.0372587
0.00496066
0.170299
-0.651044
0.0287767
0.144057
-0.172834
-0.105203
0.105617
-0.000414313
-0.0545586
-0.0124855
0.0670442
-0.540994
0.483536
-0.269487
-0.21405
-0.0100738
0.108737
-0.0986628
0.447117
-0.262463
-0.184654
0.114541
-0.119568
0.00502694
0.0462317
-0.0421298
-0.00410189
-0.0169329
0.111307
-0.498791
0.24179
0.0491832
-0.0343991
-0.0147842
-0.0827585
0.0222419
0.0605165
-0.0933053
0.0228932
0.270847
0.17627
0.0588268
0.016869
-0.0756958
0.000853005
0.113688
-0.0370458
0.0439303
-0.00688449
0.144008
0.202706
-0.574016
-0.300929
-0.197862
-0.072366
-0.150862
-0.482082
0.263375
-0.00394736
0.0911321
0.148843
0.106452
0.0661562
-0.0486198
-0.0175364
0.291661
-0.450772
0.159111
0.0218866
-0.111245
0.0893589
-0.0395817
0.0025359
0.359195
-0.169613
-0.189581
0.433305
-0.210782
-0.0826292
0.0751289
-0.0160501
-0.0401808
0.0562309
-0.0852913
0.10638
-0.0210884
0.0430643
-0.0574356
0.0143713
-0.293387
-0.2411
0.534487
-0.278042
-0.270832
-0.0475486
0.0228375
-0.327608
-0.340764
0.364155
-0.617846
0.25369
0.118108
-0.310663
0.192555
-0.0410571
0.0072015
-0.063451
-0.0464451
-0.0519879
0.0627589
-0.0107709
-0.332738
0.224389
0.0622238
-0.0792197
0.0821667
-0.0222226
0.0800322
-0.514407
-0.00463378
0.113304
-0.0258143
0.0993796
0.445684
-0.154023
-0.177119
0.46021
-0.201726
0.0167508
-0.00486451
-0.100338
0.0417177
-0.0953077
0.05359
-0.172929
-0.0287972
0.053668
0.0124882
0.179273
-0.34974
0.170466
0.0578541
-0.00153559
-0.359605
0.265758
0.0938471
0.0248587
-0.090146
0.0605128
-0.0293169
0.225641
-0.463518
0.0703512
-0.148292
0.140721
0.00757085
-0.343807
-0.300208
-0.138473
0.00408531
0.134388
0.0874405
-0.0457228
-0.233725
-0.128649
-0.367158
0.173093
0.194065
0.322283
-0.197229
-0.125054
0.3279
0.137598
-0.465498
-0.153419
-0.212816
0.230996
0.0411407
0.0270073
-0.0116854
0.15509
-0.0633038
-0.0194546
-0.506272
0.234619
-0.0125229
-0.0701063
0.0840143
-0.0460798
0.00195769
-0.0788616
0.100748
-0.0096331
-0.0528628
0.0624959
-0.0302368
0.0582593
-0.0280225
0.292511
0.304504
-0.0247926
-0.030945
0.0557377
-0.228518
0.213473
0.0150451
0.361526
-0.200446
-0.201099
-0.171303
-0.194443
0.175425
-0.497269
0.297121
-0.0671231
0.193502
-0.0356977
-0.00425522
0.0362018
0.0129814
0.0390841
-0.037368
0.153861
-0.12929
-0.385615
0.309322
-0.18119
-0.0407438
0.221933
0.313943
-0.19321
-0.120733
-0.0019906
0.159097
0.0270033
0.0509092
-0.0779125
-0.453266
0.168671
-0.120839
0.110766
-0.0638079
0.0778129
0.0405227
-0.0425846
0.00206188
0.371971
0.2575
-0.629471
-0.214211
-0.238863
0.453074
0.31581
-0.484388
0.168577
-0.478685
-0.20715
0.386423
0.397203
0.0490493
-0.0808812
0.031832
0.603482
-0.33262
-0.270862
0.018374
-0.219136
0.486949
-0.267813
-0.0159582
0.0649368
-0.0489786
-0.0131636
-0.0430406
-0.0266358
-0.190263
0.206309
-0.0160462
0.0655388
-0.0568116
0.0183527
0.21175
0.161055
0.00784586
-0.46465
0.245514
0.153284
-0.134719
-0.018565
-0.103862
-0.108202
0.212064
0.0122401
-0.0567145
0.0444744
-0.0224653
0.0655295
0.0329056
-0.0389056
0.00600004
-0.0645829
0.121072
0.310457
-0.186004
-0.124452
-0.0431608
0.158163
-0.556732
0.0108957
0.545836
-0.01547
0.403715
-0.0630722
0.0337341
0.0293381
-0.021057
0.107909
-0.108446
0.0340011
-0.0894934
0.153782
0.0258785
-0.372637
-0.125611
0.498249
-0.135038
-0.00343565
-0.375331
0.174232
0.070625
0.0442454
-0.11487
-0.169314
0.0117162
0.157598
-0.171305
-0.0310324
-0.00852538
-0.124591
0.124424
0.000166424
0.233382
-0.526769
0.00499211
0.282816
0.0689162
-0.134774
0.125106
0.00966842
0.478314
0.196614
0.0596582
0.0433273
-0.158352
-0.00782207
0.0483448
-0.0537941
0.0681005
-0.0143064
-0.203101
0.144792
0.0583094
-0.166123
-0.193482
0.130844
0.183099
0.595975
-0.337786
-0.258188
0.209816
0.317107
-0.526923
-0.0257816
0.0657701
-0.261645
0.195874
0.157427
0.0397721
-0.220962
0.252167
0.152296
-0.142375
-0.00992075
-0.0513754
-0.083836
0.0713131
0.0976885
0.00732649
-0.105015
0.00658729
-0.180235
0.400259
-0.220024
-0.0566009
-0.1465
-0.591043
0.222351
0.368692
0.0968173
0.0741047
-0.000403029
-0.0352947
0.143705
0.69254
-0.32675
-0.365789
-0.0232205
-0.111554
0.0777689
0.022628
-0.100397
-0.0509936
-0.0244911
0.0754847
-0.123758
-0.00083262
0.126196
-0.230058
-0.0510304
-0.0116391
-0.0978238
-0.0234291
0.121253
0.539093
-0.0874436
-0.199572
-0.0751235
0.237497
-0.162373
0.223507
-0.410599
0.187091
-0.0709227
0.0208215
0.00747093
0.0101559
-0.06395
-0.0879755
0.00470047
0.0817687
-0.0200421
-0.1683
-0.00754762
0.175847
0.0401666
-0.17391
0.193403
-0.0194926
-0.0541727
-0.0115108
0.0656834
-0.0241879
0.0586305
-0.555044
-0.000607883
0.555652
-0.0182943
0.153523
-0.228647
0.018053
0.244778
-0.0821781
-0.00876908
0.049326
-0.040557
0.239914
-0.0474832
-0.192431
-0.317423
0.609934
0.200571
0.130835
-0.0849321
-0.0461527
-0.0703821
0.0184424
0.0102329
-0.490939
0.259405
0.231534
-0.0258374
0.178998
-0.025216
-0.117119
-0.00861897
-0.00800413
-0.0330529
-0.25099
-0.111551
0.362541
0.22825
-0.285167
-0.063442
-0.0177461
-0.15948
-0.127614
-0.265289
0.170755
-0.426671
-0.106606
0.00238818
-0.42076
0.188359
0.232401
-0.00698316
0.043996
-0.0370128
-0.0237015
-0.0334614
0.0289971
-0.140618
0.111621
-0.0219606
0.076273
0.0204326
0.235295
-0.173425
-0.0618693
-0.052681
-0.0598802
0.112561
0.361199
0.0380577
-0.399256
-0.056748
0.145247
0.0324669
-0.0763025
0.0438356
0.560839
-0.301586
-0.259253
-0.0272721
-0.0422038
0.0694759
0.584562
-0.261128
-0.182739
0.019879
-0.564901
0.179285
0.0300828
-0.0339961
0.0933972
0.0184915
-0.111889
0.0245617
0.0505724
-0.0751341
-0.0243228
0.0623007
-0.0379779
0.217789
-0.397445
0.179656
-0.0382953
0.116263
-0.0456381
0.0419815
-0.0667741
-0.160745
-0.303905
0.0400563
-0.00715075
-0.0539772
0.0810661
-0.599823
0.227186
0.0169376
-0.134057
-0.0669708
0.0493197
0.0176511
0.0263987
-0.0970746
-0.374438
-0.186602
-0.40444
-0.157802
-0.079674
-0.00727057
-0.169203
-0.00552084
-0.00799849
-0.138778
0.146776
0.0970938
-0.109461
0.0123668
0.366676
-0.143168
-0.376956
0.20313
0.173827
-0.0149071
0.168573
-0.383943
-0.0303827
0.0865381
0.270484
-0.189548
-0.0809359
-0.307542
0.549819
-0.242277
0.570914
-0.23048
-0.340434
0.40955
-0.191762
0.410097
-0.195158
-0.214939
0.0517999
-0.0921986
-0.238047
-0.268226
0.0183948
0.0786348
-0.0970295
-0.20378
0.399803
-0.196024
-0.143131
-0.194469
-0.269855
-0.295045
0.031759
0.0189197
0.377288
-0.458201
0.0809131
-0.0153783
0.108609
-0.177373
-0.189784
0.0281383
0.0105706
-0.116849
-0.00413768
0.120986
-0.0442651
0.00213533
-0.23984
0.348377
-0.108537
-0.0623074
0.0799453
0.070416
-0.0485979
0.249996
-0.184226
-0.0525943
0.0421811
-0.00804046
-0.217643
-0.00984372
0.149869
-0.140026
-0.0148869
-0.0548343
0.0697213
0.0958225
0.00394599
-0.0997685
-0.0468019
0.059042
0.0691096
-0.0775339
0.00842427
-0.00905677
-0.0296521
-0.569337
0.249075
-0.19208
0.0237803
-0.356843
0.155456
0.201386
-0.0983909
-0.00627595
-0.0559315
-0.0435098
0.226673
0.262853
-0.489526
0.113228
-0.314808
-0.285015
0.154461
-0.0102521
-0.144209
-0.244848
0.149479
0.0953691
-0.379063
0.127323
0.0547088
-0.0271335
0.0713502
0.0339575
-0.0576589
-0.0196667
0.170314
-0.150648
-0.0404425
-0.00563736
-0.127527
0.0425946
-0.112284
0.0743519
0.0379323
-0.0165716
0.0819603
0.0996536
-0.0218847
0.279592
0.031915
-0.619292
0.214732
-0.114124
-0.00259588
-0.0309127
0.0972261
-0.153448
-0.216063
0.369511
-0.0672111
0.0512529
0.207515
0.0226348
0.161559
-0.121942
-0.15849
0.156106
-0.140886
-0.0152195
-0.0402823
-0.0185933
0.0588756
-0.0202802
0.0770526
-0.0597193
-0.0199048
0.0796241
-0.0346242
-0.031497
0.0661212
-0.071923
0.0180188
-0.0151048
0.0612412
-0.0461364
0.214118
-0.0307405
-0.183377
-0.0769337
0.0220841
0.0548497
-0.50103
0.268462
0.232567
0.0117285
-0.563186
0.327461
0.235725
-0.0260722
-0.134815
-0.148132
0.00581882
0.0277535
0.194257
0.21584
0.0491508
-0.300141
0.033838
-0.15029
0.116452
-0.00641661
0.028662
-0.0992077
0.0996286
-0.0399704
0.0800155
-0.0434716
-0.0365439
0.347103
-0.14065
-0.206452
0.58495
-0.303449
-0.303778
-0.135059
-0.0997003
0.234759
0.0212097
-0.0388361
-0.0540906
0.0929267
-0.140604
-0.104243
0.0187634
0.221151
-0.203188
-0.196816
0.15463
0.0421856
-0.261922
-0.239108
0.055337
0.0852745
-0.140611
-0.0547431
0.0670659
-0.0123228
-0.176075
-0.0320737
0.0591275
-0.0179868
0.0417151
0.157794
-0.199509
-0.000109948
-0.429445
0.429555
-0.0897212
0.0586988
0.0310224
-0.0179194
0.311313
-0.293393
-0.0336505
-0.280128
-0.31095
-0.173386
0.147314
-0.436386
0.215892
0.220495
-0.220629
0.0723475
-0.0359283
0.0777613
-0.041833
0.411346
-0.196714
-0.214632
0.130405
-0.0187904
-0.111614
-0.0854947
0.119333
0.266472
-0.487386
0.220914
-0.180964
-0.213565
0.39453
-0.382734
0.149009
-0.0536396
-0.0125631
-0.107147
-0.0489291
0.0665767
-0.24294
0.176364
-0.115713
0.120853
-0.00513981
-0.00610657
-0.123574
-0.14595
-0.351318
0.24202
0.00610432
0.148357
-0.0219756
-0.145571
-0.0548334
0.0337895
-0.0173425
0.131372
-0.0963435
0.392108
-0.189189
-0.202919
0.0023232
0.0739375
-0.0762607
0.309048
0.165594
-0.474642
-0.152138
0.164373
-0.0122342
-0.0314224
0.178472
0.255415
-0.226927
0.3955
-0.00307122
0.105126
0.192
0.0479672
0.228129
-0.105862
0.0672656
0.0385966
-0.19766
-0.185074
0.0761083
0.0552638
-0.00966058
-0.0406814
0.050342
0.000138642
0.0468284
-0.0469671
-0.21908
-0.0103241
0.229404
0.208647
-0.226488
0.292417
-0.0422622
-0.162959
0.205221
0.0146424
-0.069201
-0.197656
-0.206747
0.0184682
0.16576
0.142136
-0.284745
0.162803
0.0752544
-0.018631
0.00827482
-0.153443
0.145168
0.378237
-0.182378
-0.195859
0.0564329
-0.0778201
-0.281978
-0.208961
-0.051254
0.0210172
-0.105185
0.052116
0.0530694
-0.0978135
0.255681
-0.227335
0.170734
-0.0582445
0.0494754
0.120405
-0.255463
-0.053981
-0.0583033
-0.286492
-0.276694
0.0493489
0.0605696
-0.109919
0.109881
-0.0121927
0.00643231
0.0906615
-0.0534974
-0.0273838
0.0619373
-0.110281
0.0483439
-0.392513
0.239065
0.202381
0.23721
-0.439591
-0.00910106
0.150002
-0.140901
-0.466161
0.376279
-0.25341
0.03433
0.118326
-0.160588
-0.0384794
-0.0245928
-0.0624375
-0.023811
0.0862485
0.124948
0.00545652
-0.131108
-0.20032
0.331428
0.0368958
-0.0367163
-0.000179543
0.628504
-0.282133
-0.346371
0.304239
0.248527
-0.552766
-0.0669693
-0.227552
-0.018303
-0.12707
-0.213744
0.199848
-0.245911
-0.17485
0.458297
-0.271438
-0.186859
-0.0517408
0.0573572
-0.215159
-0.00516614
0.102728
-0.0975616
0.220603
-0.190642
-0.145889
0.0455756
-0.0616256
-0.0144238
-0.127647
0.142071
0.0440821
-0.0107148
-0.0333673
0.0517822
0.0282333
-0.0702564
0.0248054
0.0206565
-0.59774
0.280844
-0.222516
0.0431172
0.179399
0.449496
-0.543073
0.0935772
0.012631
-0.164769
0.518495
-0.308679
-0.0322602
-0.073602
-0.0147888
-0.0645872
-0.28352
0.573296
-0.289776
0.0554102
-0.108091
-0.0573917
-0.0189539
0.181708
-0.162755
-0.0292745
-0.0275475
0.0667514
-0.327458
0.184327
-0.0696575
-0.445186
0.236404
0.208781
0.10191
-0.137905
0.0359949
0.0469506
-0.0168678
-0.121945
-0.0495296
0.267668
0.215994
-0.062589
0.207912
-0.145323
-0.177569
-0.0449479
0.400212
0.228291
-0.394091
0.56439
-0.0684343
0.0136912
-0.0475283
0.0131292
0.0480172
-0.189115
0.141097
-0.384744
0.194332
0.215218
-0.0206436
0.329692
0.204631
-0.368434
0.107814
-0.0428393
-0.0649748
0.334731
-0.168971
0.0308892
0.0233313
0.146333
0.00977223
0.0524684
0.067755
-0.0468841
-0.020871
-0.279303
-0.195409
0.144941
-0.181921
0.0369803
-0.243389
-0.0629639
0.306353
0.27115
-0.302815
-0.0214558
0.0605937
-0.0391379
0.0485469
-0.0484082
-0.0273658
0.129276
0.0230982
0.0691701
-0.0922683
0.0711739
-0.11001
0.0420324
-0.00798352
-0.0340489
-0.0869425
0.402753
0.131491
-0.0761535
-0.356713
-0.044687
-0.0222837
0.195738
-0.184022
-0.125556
-0.0808179
0.0642463
-0.111117
-0.0202643
-0.0167103
-0.0405146
-0.281682
0.122202
-0.0326879
0.0938695
0.257816
-0.013146
-0.0390294
0.0521754
0.0675613
-0.000831436
0.271982
-0.0399547
0.0146303
-0.173305
0.165919
-0.314896
0.148977
-0.0118193
0.0776874
-0.07948
0.0170426
-0.203864
0.104998
-0.0556489
-0.256802
0.445809
0.377178
-0.11808
0.0970227
-0.0306206
-0.0591006
-0.0907347
-0.0237745
-0.01596
-0.0451162
0.0610763
-0.054188
-0.0509974
-0.0383675
-0.268934
0.307302
0.0307995
-0.0340939
0.00329443
-0.0498765
-0.178642
-0.190926
-0.236561
0.427487
-0.0772459
0.0569657
0.0810543
-0.0425114
-0.0385429
0.0429577
-0.256701
0.103811
-0.343651
-0.0279194
0.0598377
-0.0319183
0.153408
-0.0304634
-0.122945
0.333435
-0.306455
-0.0269798
-0.227088
-0.30163
-0.109645
0.116972
-0.0220082
0.149617
0.168447
-0.12043
-0.0387856
-0.0230174
0.193442
-0.587533
0.252925
0.188146
0.0823383
0.0461109
0.133595
-0.179706
-0.269475
-0.224549
0.494024
0.052231
-0.0618641
0.519654
-0.155499
-0.167907
0.14824
0.269298
-0.287217
0.030873
-0.203971