/*--------------------------------*- C++ -*----------------------------------*\
| =========                 |                                                 |
| \\      /  F ield         | OpenFOAM: The Open Source CFD Toolbox           |
|  \\    /   O peration     | Version:  v2012                                 |
|   \\  /    A nd           | Website:  www.openfoam.com                      |
|    \\/     M anipulation  |                                                 |
\*---------------------------------------------------------------------------*/
FoamFile
{
    version     2.0;
    format      ascii;
    class       volScalarField;
    location    "150";
    object      ddt0(k);
}
// * * * * * * * * * * * * * * * * * * * * * * * * * * * * * * * * * * * * * //

dimensions      [0 2 -3 0 0 0 0];


internalField   nonuniform List<scalar> 
14479
(
-2.08929e-07
-2.5312e-08
-2.74268e-08
-1.8867e-05
0.000110127
-2.68216e-05
-4.23002e-08
9.89866e-10
9.49772e-09
0.000215764
-7.19532e-06
-1.9668e-05
-2.1402e-05
-1.87963e-05
-1.15518e-05
-8.16606e-07
0.000123427
1.40913e-05
-0.000214503
7.61725e-07
-1.14743e-08
-3.00742e-08
1.10457e-05
9.76272e-06
4.07167e-08
-6.59696e-06
-1.75925e-07
0.000221412
-0.000197317
-1.24758e-05
0.000256383
-1.56563e-05
-0.000222129
8.59248e-09
-1.6862e-09
2.28856e-09
9.37877e-08
-7.14062e-06
-2.81602e-08
1.3142e-05
-1.3459e-05
-3.05092e-08
-4.26942e-08
-1.28783e-08
4.62778e-05
4.53848e-07
-9.56082e-07
4.2382e-05
-1.83552e-08
1.88507e-05
-4.5283e-08
0.000367454
-1.39014e-05
5.10862e-07
5.19794e-08
-4.2495e-09
-2.64152e-07
6.19833e-05
2.3069e-09
7.42361e-07
-2.87358e-08
-6.45527e-08
0.000314933
1.38725e-06
-4.22797e-05
0.000132696
4.31056e-08
-2.84863e-08
-0.000286327
0.000649461
0.000198406
1.01682e-06
-0.000113611
-0.00013466
3.70238e-08
1.97391e-08
0.000204162
-1.31279e-05
-6.31537e-05
0.000197254
-0.000226068
-1.2642e-09
3.49636e-08
9.79437e-07
8.48414e-09
3.49805e-07
1.47005e-06
1.91677e-08
0.000199701
3.14582e-08
0.000171305
0.000125945
8.09163e-06
-4.59357e-05
-2.33196e-09
-0.000142125
-4.93946e-08
0.000174939
-7.17821e-10
6.22148e-05
0.00024909
4.82949e-05
7.31853e-07
-5.73249e-09
-3.53087e-09
-3.64085e-09
-0.000196738
-0.000136633
-3.41703e-07
-1.17269e-05
-1.63679e-08
1.17405e-09
0.000168172
4.86474e-07
-1.36668e-07
-3.76409e-08
7.67601e-09
-0.000103675
-2.68837e-08
1.13759e-06
5.42266e-08
-5.40337e-08
-1.58071e-05
2.3588e-08
-3.55165e-05
-4.00572e-08
-1.11471e-08
5.48484e-08
1.09827e-08
6.34631e-05
-4.8553e-09
0.000703607
-0.00015486
-3.457e-08
5.75394e-07
-6.88175e-07
0.000369457
1.60229e-08
0.000405463
-1.91749e-05
-5.57927e-08
-2.76071e-05
-8.91194e-09
-0.000105661
-2.3631e-07
-4.4645e-10
-9.38808e-05
7.45622e-08
2.41655e-07
-2.76154e-08
-0.000150676
-1.11266e-08
-8.57275e-08
7.12456e-06
8.29964e-05
-4.98585e-08
0.000247902
-4.82115e-08
-4.11637e-05
-5.98428e-05
0.000249546
-0.000354678
-6.556e-05
1.5153e-06
-3.9479e-05
4.18805e-05
-3.36062e-08
0.000221775
-9.20174e-10
1.62589e-08
-2.1791e-08
3.70648e-07
1.79922e-09
1.09946e-06
-1.59562e-08
1.60434e-06
-8.76021e-09
3.5248e-08
1.27313e-05
4.04758e-09
0.000566707
6.29727e-08
-3.89407e-08
8.65062e-06
3.41279e-08
-2.15405e-07
-4.74725e-08
-1.22169e-08
0.000337748
-0.000203622
-3.88038e-08
-8.43071e-07
-1.70886e-08
-4.22334e-09
-2.79182e-05
-6.89748e-05
0.000193958
-4.88427e-05
-9.90998e-09
-5.29981e-08
-3.56618e-08
0.000347146
0.00135524
-6.78378e-06
-2.89911e-05
-8.35549e-09
1.03544e-08
1.25502e-06
1.39067e-08
-2.5924e-07
-6.44825e-05
0.000171029
1.53786e-08
-2.46329e-08
1.92742e-08
1.2e-06
0.000117118
-2.78141e-07
4.41011e-08
-8.0399e-08
0.00038305
-1.09313e-05
-4.27089e-05
1.9953e-08
1.14362e-05
-2.07288e-05
-2.73367e-08
1.64305e-08
1.23375e-05
1.54006e-08
-3.02622e-08
-4.40623e-07
-1.12252e-08
-1.65199e-05
4.57898e-08
-3.64379e-08
-2.37997e-07
7.32446e-05
-2.35783e-08
-7.38136e-09
-2.07046e-05
1.07916e-06
-3.05078e-08
-3.50022e-06
0.000148696
-6.9919e-05
-9.41631e-09
7.80326e-08
0.000234717
0.000187873
5.55054e-09
1.09014e-06
3.9619e-09
-5.72702e-08
0.000189963
1.50902e-05
-4.97237e-08
-0.000160316
-8.03709e-06
-1.50434e-06
-0.000245325
-0.000228929
-2.88492e-05
5.68875e-07
-4.06353e-08
-2.54589e-08
-4.42123e-08
-4.26416e-05
-2.53244e-05
-0.000316331
-9.46695e-05
1.99941e-08
0.000136303
-8.36275e-08
6.18258e-08
6.99112e-05
-0.000148797
2.638e-08
7.21033e-05
-6.13627e-05
0.000140388
8.76297e-05
0.000249624
-0.000241838
-1.83295e-07
-2.70534e-08
0.000135768
-4.58509e-08
-0.000102494
-2.84736e-05
0.000264509
4.35353e-05
-5.46001e-07
-2.74816e-05
8.24655e-09
-2.73798e-07
3.68829e-09
-1.25991e-05
-2.97793e-08
-1.13212e-08
-1.91092e-08
-2.49677e-06
-8.50138e-09
5.63578e-08
1.24273e-07
-8.9716e-06
7.71971e-05
9.95479e-06
-5.59978e-08
5.25696e-09
-1.65849e-05
-4.59664e-06
-3.0816e-06
-1.31431e-08
-1.11278e-08
-8.59287e-08
-1.97375e-05
-8.77805e-08
-6.08158e-09
-4.59259e-14
1.42612e-08
4.4239e-08
-2.77757e-08
0.000163252
2.83362e-05
7.15145e-05
-0.00023963
-4.43325e-05
3.35497e-05
-2.65211e-07
-5.07358e-08
1.14967e-07
-5.45556e-05
-1.72812e-05
4.81684e-05
1.12415e-09
-3.21292e-08
5.10643e-07
2.30797e-05
-7.87813e-09
-0.000283092
4.60183e-08
-2.8156e-05
2.18352e-08
-2.83904e-05
-1.83982e-08
0.000117326
2.31778e-07
1.71895e-09
6.56635e-08
-3.89616e-05
8.84255e-05
-4.82517e-08
-6.14179e-09
8.01574e-05
-1.25512e-07
4.01123e-08
-6.38562e-06
1.21246e-08
-2.0329e-08
-2.3242e-08
-4.97928e-05
-3.02306e-06
-6.73307e-09
7.81615e-05
-2.06226e-08
-2.9533e-05
-1.55676e-05
3.86709e-05
-0.000359538
2.03873e-06
-0.000295226
5.00327e-07
0.000177044
-7.70506e-05
-4.38154e-05
7.30962e-07
4.65423e-07
-0.000157576
-1.66936e-08
8.74947e-08
2.88759e-09
-1.81717e-05
-1.37645e-05
-0.000268945
-1.23644e-07
1.08328e-07
-2.13796e-05
6.2394e-08
1.32282e-06
2.92519e-08
2.66479e-08
2.74738e-05
-5.14248e-06
0.000971489
0.000148641
7.34209e-05
0.000250215
4.08758e-07
-1.68248e-08
-0.000260316
0.000135804
-2.42556e-05
2.48581e-08
-6.97893e-05
6.97826e-09
-6.25657e-07
-3.08985e-07
2.62723e-05
1.92786e-08
0.000197049
0.000192153
2.91988e-08
1.34527e-08
0.000178438
-1.55142e-08
-4.00981e-05
-1.73148e-05
9.78837e-10
-1.5623e-08
1.3511e-08
-2.57913e-08
0.000971586
1.50566e-06
-0.000231224
-1.64885e-08
-1.45664e-05
1.42481e-08
-3.13683e-08
0.000312008
-0.000258396
-2.69465e-07
-2.38365e-06
2.5834e-08
-1.96108e-08
-6.81937e-05
5.14518e-08
0.000205029
6.502e-05
-1.25353e-05
0.00014166
0.000186755
-2.4219e-05
-4.6933e-08
3.83451e-07
-3.80327e-08
9.99616e-06
-2.77474e-05
2.48642e-09
2.58297e-08
-2.09134e-08
6.52832e-05
1.0774e-06
1.02402e-06
-6.86699e-09
-2.1915e-06
1.08855e-08
1.05976e-06
-0.000298057
-3.38852e-05
-3.03417e-08
-1.25156e-08
0.000163444
-3.13026e-06
0.000870417
-4.05351e-06
1.2548e-08
-0.000123913
-1.8262e-05
-2.87911e-08
2.71879e-09
8.04383e-10
-1.63398e-05
-0.000120136
-2.71991e-05
2.92247e-05
-2.82071e-05
-7.58786e-06
-3.88497e-07
1.89551e-05
-1.50448e-08
-0.000120684
1.48631e-07
0.000205385
-2.79612e-08
1.41654e-05
-4.51012e-10
-0.000340518
-9.90644e-05
0.000148976
-0.000226415
-3.35786e-08
9.22372e-09
8.00209e-05
2.25575e-06
6.89138e-08
2.9313e-07
-1.99482e-05
6.16982e-06
3.42361e-08
-5.29233e-09
5.26955e-06
1.04311e-08
1.79087e-08
-2.08813e-05
0.000176872
-0.000123255
2.9334e-08
1.09287e-08
-1.42387e-05
-1.49545e-08
4.26785e-07
-2.28097e-08
4.02728e-05
-1.64857e-08
-4.04586e-08
-1.30949e-07
-2.93491e-08
2.44391e-05
-4.83835e-06
5.64772e-05
-2.69915e-05
0.000117175
-8.46396e-05
0.000170396
-6.12824e-05
-1.71351e-08
-2.4077e-08
0.000745154
-1.24504e-05
-1.17296e-07
-4.75172e-06
0.00122889
-0.000270656
5.85885e-08
6.86476e-07
-3.83975e-06
1.74816e-05
0.000260066
-0.000353719
-2.72143e-05
-0.000245859
-1.46157e-08
6.3444e-05
2.43492e-08
1.27926e-07
-0.0002662
2.99154e-10
2.06883e-08
-2.0054e-08
4.22041e-08
-1.3571e-05
1.59971e-08
-3.72295e-08
-0.0002239
-2.11247e-08
0.00016678
-1.0196e-05
-2.03314e-05
-9.38987e-06
-2.28879e-08
-3.76391e-05
-5.7937e-07
0.000222206
2.4822e-08
7.55712e-06
4.01753e-07
-2.66081e-08
1.98451e-07
-1.3026e-08
-1.89607e-07
-7.52164e-09
0.000250429
0.000173796
1.38549e-08
-2.22678e-05
1.51084e-05
6.02643e-09
4.3619e-08
-8.69221e-07
-2.34373e-05
-3.36125e-08
-8.14186e-08
-1.17022e-08
-0.000243928
-5.50905e-09
-1.94442e-08
-1.72036e-05
4.21469e-05
7.44899e-05
6.9484e-07
1.79799e-08
-5.55792e-08
-0.00019592
-2.27219e-05
0.00150925
-3.47813e-09
3.22135e-08
-6.34703e-09
-5.75916e-08
-6.88872e-05
-2.26286e-08
0.000497055
3.05077e-05
-0.000169905
-4.25367e-08
-2.6643e-05
-4.02573e-05
-7.42061e-09
-1.7555e-07
-2.65876e-08
-2.07839e-05
-6.19507e-08
2.79918e-08
2.76179e-08
-5.00225e-08
3.99303e-05
-0.000105234
-7.66522e-05
2.83314e-08
-2.68116e-08
1.30189e-07
-4.93794e-08
2.03271e-08
-7.37192e-05
1.78141e-05
-3.99045e-08
-1.44852e-08
-4.44134e-08
1.83508e-05
1.80542e-07
3.19329e-08
2.26327e-08
-0.000215111
-5.34903e-08
-3.06562e-08
1.71676e-08
-7.00745e-05
-0.000283499
-4.18588e-08
-0.00028404
7.66118e-06
-3.28171e-08
0.000593528
2.01619e-05
9.13355e-08
2.70973e-09
1.49177e-08
4.6025e-08
-0.000213488
-0.000286442
1.44945e-06
-1.57458e-09
-2.05562e-05
0.000191889
-0.00023552
-0.000109019
-6.31117e-08
-4.05001e-08
-1.52968e-10
4.20876e-05
4.12769e-09
4.07364e-08
-5.16155e-05
-7.42994e-05
-3.55191e-08
2.79049e-08
0.00022829
-0.000301614
2.24744e-08
2.96084e-09
-4.08353e-08
-4.92476e-06
-1.11708e-05
-5.63459e-05
9.85742e-05
-0.000121306
-1.71209e-08
4.7753e-06
1.54467e-07
4.30276e-08
-2.81754e-08
0.000181403
4.79217e-09
0.000184567
2.65845e-08
-6.77986e-05
0.000146825
-2.41029e-07
0.000999564
-5.40401e-09
-6.03116e-08
-6.03467e-05
-1.32676e-05
-9.68202e-07
-0.00040465
-0.00013656
-0.000412023
-2.77579e-08
-7.12353e-05
-6.50408e-05
-6.96084e-05
-6.05891e-05
1.06302e-07
-0.000197569
-0.000257742
-2.43796e-05
-0.000305071
1.17574e-08
-0.000309082
-1.26164e-08
4.81355e-09
0.000172692
0.000195445
0.000206374
-6.93979e-08
1.45038e-08
0.000193881
4.41819e-05
2.30437e-06
0.00090863
-2.26398e-05
-6.416e-09
-6.66614e-05
0.001459
-4.46308e-08
0.000142108
0.000168263
-0.000371723
3.39502e-08
-1.21474e-08
-1.47577e-05
-2.47044e-08
3.00641e-08
-1.30923e-09
9.94287e-09
7.59241e-06
-2.12354e-05
-3.72714e-09
1.11855e-08
3.0193e-08
-4.60413e-08
-5.47568e-09
4.96847e-08
-3.02513e-08
-8.30042e-05
2.78256e-05
-1.27924e-05
-2.9886e-05
-2.04228e-05
7.90176e-07
-1.18139e-08
-5.05653e-08
1.76202e-08
2.17062e-05
5.06367e-06
-1.04411e-08
2.90777e-05
-1.34893e-06
-3.26701e-08
-3.16873e-05
7.61163e-07
3.44378e-05
-6.81966e-05
1.88914e-08
-0.000376573
8.08619e-08
3.38996e-05
0.000203529
1.32037e-06
-1.92747e-05
0.000101935
0.000124019
-1.63061e-07
3.88672e-08
5.66351e-05
-6.76847e-05
-2.05136e-05
-2.19576e-08
0.000199953
-0.000397467
3.07524e-08
0.000238299
1.89191e-05
1.56008e-08
-3.88903e-08
-1.18496e-05
6.68898e-06
-2.49366e-08
-9.45882e-05
-2.87753e-08
0.000237124
6.16603e-05
0.000253512
-0.000294098
-0.000113647
-1.25855e-05
4.98603e-05
1.21465e-05
3.20995e-06
-0.00013284
-1.95664e-05
4.25048e-07
5.83598e-07
-1.2867e-08
3.82069e-05
0.000852521
2.43875e-08
0.000143883
-1.59231e-05
-1.30114e-05
-0.000278503
-8.90344e-09
-2.5539e-08
-2.42536e-05
0.000133297
-7.87745e-05
-5.4744e-06
6.70448e-08
0.000244683
1.26603e-08
-2.58312e-05
-9.42768e-09
0.000200908
-1.43822e-06
9.90604e-05
1.47753e-06
-2.56672e-08
-7.88725e-08
-5.48575e-08
4.8517e-07
-0.000392057
5.57284e-06
-0.000392083
-3.30747e-05
1.01e-06
-8.06949e-05
9.5838e-09
3.5825e-05
0.000116608
0.000178814
-2.64387e-08
-2.53691e-08
5.61319e-07
7.29326e-05
3.42969e-08
-0.00041625
-4.61444e-05
-8.32092e-09
1.14806e-08
0.00122041
1.47021e-06
-0.000172527
-3.35271e-06
-1.30939e-05
5.25684e-08
0.000203226
-1.29164e-08
1.5375e-08
7.10087e-08
-3.43672e-08
-1.36681e-08
-5.12197e-09
0.000206816
-6.06032e-09
5.21527e-05
-4.43152e-08
3.94605e-10
-1.42558e-08
-4.42949e-08
-3.36352e-07
4.86924e-05
0.00014833
0.000118139
4.71723e-05
0.000544077
-3.59005e-08
-0.000106059
-0.000270009
-4.72271e-05
0.000113268
-0.000121019
2.86117e-05
-7.09562e-08
-2.95283e-08
5.09848e-08
-1.02292e-08
2.43158e-06
7.17923e-07
-2.13509e-08
3.30484e-08
1.37721e-07
-4.94208e-06
-5.43034e-05
2.41506e-08
1.79949e-09
4.87322e-07
0.000134439
-7.04724e-05
1.71553e-08
-1.57311e-05
3.89314e-09
9.84352e-07
4.24488e-08
6.21439e-09
1.17434e-09
2.81554e-08
-8.66974e-07
0.00148326
-4.64351e-05
6.57093e-05
0.000802403
5.06918e-08
1.55756e-05
-1.98185e-05
-2.7794e-08
-3.14821e-08
-0.000276092
-0.000283533
2.39447e-05
8.29827e-10
0.000175769
0.000181047
-0.000232695
-2.90952e-09
-2.85882e-08
-0.000247828
2.33223e-05
-1.79032e-05
4.38869e-08
0.000103547
-7.15634e-05
5.2095e-07
-4.01595e-08
4.95617e-05
-3.92763e-05
0.00111184
0.000427579
-7.32683e-05
0.000680998
-2.21586e-10
0.000240594
2.60984e-11
-3.139e-07
-2.69093e-09
1.95943e-08
-0.00027023
0.000181165
1.16007e-05
-3.50422e-08
0.000538437
-2.8359e-08
-3.9207e-05
-9.00002e-05
-5.14235e-08
2.18244e-09
-1.3527e-07
0.000187939
6.35568e-09
1.40581e-08
2.14941e-08
0.000216761
-1.78429e-08
9.66592e-10
0.000195193
6.58539e-05
-0.000584676
1.7812e-07
-1.75568e-09
1.06875e-08
0.000309055
2.49791e-05
-4.98678e-05
4.90278e-10
8.45411e-06
-3.26385e-05
-2.11205e-08
-3.25506e-09
-1.76384e-08
5.39361e-06
4.38005e-07
-1.16207e-05
2.51346e-09
-1.14745e-05
1.24844e-06
3.88086e-08
0.000104878
7.41132e-07
3.17614e-08
-0.00045123
2.65197e-08
-3.87346e-08
0.000142824
0.00011936
-1.78261e-08
-0.000272132
3.1652e-09
-1.92875e-08
2.10086e-08
1.77915e-08
5.97572e-05
6.37442e-08
-0.000108212
3.04049e-08
0.000162179
3.41701e-08
3.47302e-07
0.000174649
-9.17367e-08
-3.70822e-08
-3.14754e-05
0.000148615
1.63715e-05
-0.000218841
4.71794e-08
0.00025257
-5.0563e-08
-1.83562e-08
-0.000114545
-3.47044e-07
1.22775e-07
1.44688e-08
0.000252434
2.78448e-08
-0.000258308
0.000239461
2.26595e-07
1.19616e-06
2.00667e-06
6.35666e-05
-7.70854e-05
5.16829e-08
-3.01498e-08
-1.77418e-07
1.48969e-08
-6.53124e-08
6.00525e-07
0.00174005
3.99196e-07
-1.69522e-06
-2.39592e-08
-2.02726e-05
0.000189323
-0.000192458
1.7701e-05
9.36274e-05
2.48807e-08
2.07237e-07
-2.95186e-08
-0.000128882
7.19328e-05
-1.80573e-08
-1.42825e-05
-2.70457e-05
1.53687e-07
-0.000163322
1.03254e-06
0.000137589
0.000374697
-1.75774e-08
-9.84446e-06
9.84421e-09
6.5429e-08
-1.20102e-08
-2.72296e-08
-0.000283973
-0.000378672
-3.17263e-06
2.50199e-05
0.000121129
5.34771e-05
-4.10719e-05
0.00023979
-1.56635e-07
-2.67837e-08
-0.000254006
-0.000342884
-0.000291586
-1.30645e-08
-2.42071e-08
-8.25666e-05
-9.04811e-09
1.44983e-06
1.698e-08
7.62783e-07
5.39188e-08
-0.000107013
2.53917e-09
2.98226e-06
-2.18219e-08
0.000183564
-1.60255e-05
-0.000154656
-1.17894e-07
-7.48081e-09
7.29608e-07
-0.000274287
1.07146e-08
3.05893e-07
-1.82719e-08
-6.11618e-06
-6.82402e-05
-2.23648e-08
3.32903e-09
8.55685e-08
-7.92348e-06
3.01867e-08
-7.37316e-08
0.000371611
0.00134492
-1.26083e-05
-1.86401e-08
2.94438e-07
-4.33461e-09
6.24143e-10
-1.44045e-06
4.64391e-07
2.87673e-07
6.28394e-08
-2.97736e-05
6.33543e-05
-3.71052e-05
0.000977618
-5.36774e-08
-2.53375e-08
-7.99715e-05
-7.6719e-05
1.02034e-06
-4.07652e-05
3.41908e-07
2.81142e-08
3.92553e-10
-1.49367e-05
9.42578e-08
-4.94046e-05
5.78916e-06
1.04797e-08
-8.80929e-05
0.00041373
-7.901e-05
8.22755e-10
-1.30477e-08
0.00047129
6.67373e-08
4.69738e-05
-4.43532e-05
-7.48414e-06
-2.096e-08
4.78834e-07
2.96524e-08
1.71111e-05
3.0893e-08
3.10261e-09
0.000261852
-1.94569e-08
3.31465e-05
-2.8574e-08
2.31018e-08
0.000354588
0.000236727
-0.000338241
-7.58905e-07
-0.000125724
-8.73555e-10
4.5049e-08
2.44928e-08
-1.54374e-08
-2.10921e-09
0.00063067
2.96146e-05
-6.16413e-09
-1.90487e-08
1.64254e-07
0.000153328
7.13429e-07
-1.51881e-08
-1.2505e-05
-1.54454e-05
-3.57604e-05
-1.37285e-08
1.64772e-08
2.54378e-09
-0.00017061
0.00014487
-9.47364e-05
-0.000359609
0.000170462
9.20974e-07
-1.43322e-07
-2.30133e-08
-5.40382e-08
-0.000351387
0.000112956
-1.78578e-05
5.95317e-09
-2.09886e-08
1.48646e-08
1.86998e-08
-5.50502e-09
2.37434e-08
1.05115e-08
5.02421e-05
-2.53265e-05
-8.33884e-07
4.5492e-05
-2.86216e-05
1.81926e-08
4.15891e-08
4.9791e-05
2.6012e-08
9.92747e-09
7.24817e-05
-4.33246e-08
-6.93234e-09
2.66353e-08
-1.37019e-05
9.76591e-08
-6.61345e-06
-2.43584e-06
3.77498e-08
-6.57341e-08
0.000101337
5.64265e-05
0.000122937
6.77442e-09
2.0664e-08
2.64199e-05
-6.74667e-09
1.97462e-08
-9.87803e-05
-2.52878e-08
0.000224932
2.05252e-05
-3.66828e-05
7.54336e-08
7.39612e-05
2.65276e-08
-1.55983e-09
2.06163e-05
-0.00011513
-1.97579e-08
7.35217e-05
5.05327e-07
-3.84968e-08
-0.000116666
5.52375e-08
9.93796e-08
-1.13266e-05
-7.76583e-05
-0.000105583
0.000187032
-4.87703e-08
-1.88869e-07
-0.000217316
2.81779e-06
9.47433e-05
-8.38409e-09
-3.64538e-08
-1.94139e-07
5.11522e-08
1.39246e-09
1.53366e-08
-4.34126e-08
-8.95004e-07
-1.01867e-08
-3.74244e-08
-1.94583e-05
-4.6637e-05
5.31864e-05
-2.71546e-05
-1.13068e-08
-3.19602e-08
-0.000377
-1.02308e-07
-9.534e-05
7.34942e-07
-3.14373e-05
0.000274577
-5.19642e-08
-3.4094e-09
-0.00035943
-1.4582e-05
1.10844e-08
9.46106e-05
0.000204102
0.000326323
-1.28613e-08
-3.72221e-08
7.89635e-07
-5.10465e-05
-1.83385e-05
0.000168735
0.000108288
-2.50579e-08
4.01779e-09
-7.76548e-05
1.54015e-06
-8.72554e-05
2.80775e-05
-4.94671e-08
7.28798e-05
3.17069e-06
2.70783e-07
0.000101508
-3.39192e-08
-3.56823e-06
1.9683e-09
1.16129e-07
-1.95893e-08
1.30793e-06
-5.40477e-08
3.87736e-05
8.83178e-05
-4.96093e-05
-1.19397e-07
3.64603e-08
-1.33394e-08
1.38446e-08
-0.000126743
-1.60193e-08
-3.71646e-08
-1.77513e-08
6.73071e-05
3.87206e-08
-0.000490708
5.00011e-07
-3.28062e-07
7.67531e-06
-6.40255e-05
0.000247086
-0.000114147
-9.62772e-05
1.24431e-08
1.75379e-08
-7.91778e-06
1.46773e-08
-0.000280484
0.000205695
-1.29774e-08
4.31593e-08
-4.93464e-08
-2.24626e-08
0.000172427
-6.13847e-05
0.00019795
5.67555e-08
4.85592e-07
-1.20056e-07
-2.13952e-05
-2.60645e-08
2.32188e-08
-0.000101115
8.64109e-09
-3.6934e-05
3.54333e-06
3.81706e-05
-1.06945e-06
-7.39054e-05
-7.07341e-08
1.59874e-09
-0.000179416
-4.86044e-08
-0.000241048
-3.92095e-08
6.3708e-05
-5.22768e-08
-0.000123889
0.000103609
-3.91933e-09
1.26713e-06
-3.44451e-05
-7.50106e-05
-1.89985e-09
-8.8213e-05
4.15772e-05
-2.91923e-05
5.48259e-08
-1.17599e-08
-6.06702e-08
-5.30196e-05
3.82435e-05
2.71912e-06
-4.6345e-08
-6.45111e-05
-9.23572e-09
-4.85341e-08
-6.03103e-05
-6.47679e-08
7.84994e-09
-1.09402e-05
-1.59501e-06
7.07511e-05
-7.76449e-08
7.84205e-05
1.9142e-08
1.93268e-05
-9.82868e-08
-4.16586e-08
-2.59031e-08
1.74548e-05
-7.99764e-08
0.000364299
0.000205146
-2.58563e-07
5.03598e-09
9.98978e-05
-2.7904e-05
3.66309e-07
-8.35419e-08
-1.9898e-05
6.77765e-05
9.28878e-09
3.28604e-08
2.01782e-05
-5.53533e-05
1.57551e-06
-0.000157584
-1.96062e-05
9.4061e-09
1.63551e-06
-7.77071e-05
8.58147e-05
-0.000115555
4.80016e-05
-0.000304049
-0.000209397
-5.5014e-09
0.00023519
0.000158202
4.15066e-08
7.88473e-05
5.8e-10
-0.000296285
-8.64524e-06
0.000174315
1.17106e-08
-8.45832e-09
-7.93345e-08
3.6911e-08
4.90409e-05
1.57432e-07
-0.000125251
-1.20772e-08
-2.91841e-06
-2.67886e-05
4.4343e-09
-1.34839e-08
1.51733e-08
-4.12276e-09
-5.50261e-08
6.56296e-05
6.65007e-05
-2.69696e-08
1.42819e-08
6.28119e-09
0.00097893
0.000104634
5.89272e-05
9.60542e-06
4.12941e-08
2.56192e-08
-0.00011472
-8.89604e-05
-5.29441e-05
-2.28534e-05
-4.02619e-08
-3.13546e-05
2.14379e-05
-8.57909e-05
-1.92731e-10
-6.85255e-09
2.16455e-08
3.19397e-07
4.69067e-05
-8.0339e-08
2.59314e-07
3.99504e-08
-5.26038e-08
-2.39903e-08
0.000255598
3.46539e-09
0.000113672
9.32404e-10
2.65976e-08
0.000203408
3.54761e-08
1.72984e-06
-3.91295e-05
1.0601e-06
6.3636e-05
9.30995e-09
0.000108483
6.61828e-06
9.51016e-06
-9.68617e-05
-5.79291e-07
-9.9228e-05
-1.62839e-06
-1.20455e-05
2.26452e-07
0.000304248
7.38883e-07
0.000649846
3.41489e-06
9.17824e-07
-9.20397e-06
5.72871e-05
-0.000222109
4.00195e-07
4.86148e-05
8.23333e-05
0.000282553
-2.81074e-05
0.000106178
-7.94573e-06
2.27149e-08
-6.18289e-05
-9.16154e-09
0.000166619
-7.08185e-05
4.68647e-08
0.000100901
-0.000152684
2.23828e-08
0.000525968
-2.53165e-08
1.98333e-05
-4.85019e-05
1.55022e-08
5.90242e-06
0.000267871
4.6842e-05
-5.77747e-05
-3.14354e-08
-5.83317e-06
-1.4664e-06
1.75944e-08
-4.22575e-06
8.97048e-07
-5.42474e-09
0.000193253
0.000454577
2.16515e-05
0.000149773
8.90997e-07
0.000143914
3.85355e-06
-8.85803e-07
-4.76253e-05
0.000105067
-9.83634e-08
-2.66715e-09
1.52479e-08
2.02243e-05
-0.000210882
-2.27084e-09
1.32846e-05
-3.98502e-08
1.61065e-05
-2.28725e-05
-4.79547e-05
-8.18809e-05
4.89574e-09
-1.92285e-05
1.72448e-07
0.000273452
7.73814e-05
0.000167647
-1.11143e-08
-8.60955e-05
-8.53636e-09
-6.02141e-07
7.11468e-05
-1.6673e-05
-6.77766e-05
-3.50304e-07
-9.91214e-08
0.000147235
-5.49409e-05
-0.000313026
-2.74705e-08
-8.22953e-09
2.06881e-05
1.057e-07
3.66566e-09
-3.26448e-09
5.33007e-09
7.52778e-05
-0.000186209
-3.1449e-08
-3.50647e-05
0.00021547
-7.01131e-09
-1.79095e-08
1.01314e-08
7.1069e-06
-2.28677e-09
-3.49216e-08
-1.32597e-08
-0.00165376
0.000140768
5.74397e-05
-1.66515e-08
-5.84783e-05
9.11715e-05
0.000226544
1.08294e-07
-6.59214e-09
-2.86389e-08
-8.82758e-06
5.34878e-07
0.000114717
5.37388e-06
-2.38286e-08
-3.14079e-06
-1.46186e-08
-2.25207e-09
1.2216e-09
-3.6759e-07
-1.4314e-07
-3.93976e-06
-0.000161515
-6.20072e-09
5.42847e-05
9.62379e-09
5.69398e-07
1.0268e-06
2.20688e-08
1.64657e-08
6.57343e-05
-5.67205e-08
-1.41082e-10
2.53792e-06
-0.000245385
9.08534e-08
-2.38054e-05
-5.70952e-08
-1.79985e-05
5.62214e-07
0.000148027
4.61099e-05
-3.41244e-08
-0.000389211
1.64912e-08
8.12967e-08
2.85917e-05
-3.18665e-05
-2.12189e-08
-9.62264e-05
0.000654618
-2.06914e-07
-8.75625e-09
9.83273e-06
0.000189127
-4.19454e-07
-1.90664e-05
-8.03257e-06
4.8714e-08
-4.2875e-05
-3.5749e-08
4.30556e-05
0.000245071
3.46594e-08
2.16315e-06
5.72398e-09
-5.33538e-09
-2.38995e-10
-7.54782e-09
-0.000547974
8.1321e-05
-2.1872e-08
-1.07132e-07
-0.000362094
-1.36466e-08
2.03318e-08
-1.96413e-05
3.10109e-09
-2.19772e-05
0.000246877
3.06337e-08
7.03725e-08
1.64011e-10
-0.000245579
-4.54292e-08
4.61997e-08
-1.31125e-08
0.00137204
-5.13272e-05
-9.78726e-05
-5.69903e-09
0.000134141
4.20959e-05
-3.63841e-05
1.44051e-09
0.000780193
1.31805e-07
0.000154395
4.34943e-08
0.000222662
2.21467e-06
-4.27778e-05
-3.41075e-07
8.4993e-08
1.11549e-09
8.91564e-07
-5.30019e-05
6.91296e-11
-2.07388e-05
2.49494e-08
1.81403e-05
1.99208e-07
-5.3641e-05
2.61339e-05
4.00925e-08
-7.09192e-11
0.000183564
0.000569637
3.41438e-05
-1.54219e-05
9.45209e-05
6.43114e-05
7.22893e-05
-3.67285e-06
2.53969e-08
1.81705e-09
2.33586e-08
-0.000261595
4.24526e-06
3.36791e-07
-1.7332e-08
0.000127335
-7.42309e-05
-1.52738e-05
-2.80041e-05
-0.000110091
-2.0302e-08
-1.80216e-08
7.24567e-09
-2.12104e-07
1.93319e-05
-6.05638e-09
0.000191424
-1.24136e-08
-1.96304e-05
-3.67602e-05
4.98568e-09
-9.74512e-05
0.00124133
-1.17838e-05
-2.0753e-05
-1.48037e-07
1.35223e-06
-3.09178e-08
3.36149e-08
-2.34939e-07
-0.000166173
-4.12678e-06
-9.80577e-06
9.33043e-08
1.98334e-09
-9.42779e-08
0.000244752
-8.99573e-05
6.81397e-06
1.2383e-09
-2.03437e-08
2.53836e-08
-0.000216563
0.000151462
4.83925e-09
4.01875e-07
8.37685e-05
0.000844559
4.53449e-06
0.000136226
2.07687e-05
-8.22715e-09
-0.00014762
-8.22123e-07
1.31703e-08
1.40939e-08
1.00684e-08
-2.03443e-08
5.43889e-05
-1.67202e-08
2.41337e-08
-1.36615e-08
-1.49614e-06
-2.29663e-08
1.72e-08
-1.39442e-05
8.59478e-09
5.59486e-06
-0.000257347
2.05457e-08
0.000129165
-4.12301e-05
5.85365e-05
-2.06434e-09
2.19451e-05
0.000156892
7.49692e-05
0.000263135
-2.69803e-09
1.25114e-06
-3.40132e-06
-6.42418e-08
1.15489e-06
5.93784e-09
1.24343e-05
-1.60006e-07
-4.01198e-08
-1.20501e-07
0.00013499
-4.77908e-05
1.14889e-06
-2.93627e-09
2.52155e-05
-7.08635e-08
-9.57829e-05
-2.06619e-05
4.99352e-05
0.000141153
-7.48782e-08
-1.3187e-08
-6.59385e-08
0.000102237
1.49791e-08
4.67719e-07
1.01797e-08
0.000406409
-0.000391591
-3.15784e-05
1.04594e-08
0.000253889
0.000401022
6.50063e-09
-4.7744e-06
7.02341e-06
9.70434e-05
7.92669e-05
-4.36761e-08
4.40412e-09
0.00155172
-1.47741e-05
-1.09797e-05
-2.14751e-05
8.74291e-05
1.41495e-08
-7.35251e-05
-0.000442735
0.000369546
0.000155497
-8.01811e-09
2.33168e-08
-3.83964e-08
9.74733e-08
1.01845e-06
0.000379606
5.31978e-07
2.98921e-08
1.62253e-08
-6.36535e-06
-0.000188385
-1.48618e-05
0.000201439
-2.44268e-08
-0.000142494
-0.000100971
1.56645e-08
-5.54158e-05
-7.28038e-07
1.95778e-05
2.34995e-08
4.40193e-05
-5.70296e-08
2.47744e-08
-0.000145575
-1.26017e-05
1.0693e-06
-3.23486e-07
-1.34266e-05
1.65718e-07
0.000105655
8.33556e-09
-0.000219115
0.000153069
-0.000380062
0.00043073
-2.58584e-08
-9.20653e-05
5.6132e-08
1.81264e-09
6.83838e-08
2.46442e-06
9.99377e-09
-6.54712e-08
6.72968e-07
-4.21204e-06
5.45268e-09
-0.000173611
3.90788e-08
-4.49021e-09
-1.9744e-08
-4.31665e-08
-0.000325057
-8.33073e-08
-1.62019e-05
0.000205226
-3.69182e-07
-9.40055e-09
-1.22274e-05
-4.9264e-05
-1.0694e-08
-3.71348e-08
3.47291e-08
1.59984e-08
0.000337459
-0.00018838
0.000198098
0.000223348
-0.000262446
-1.08232e-09
5.48777e-05
-3.95856e-08
-6.01507e-08
0.000159515
-1.30875e-05
3.28381e-08
5.76964e-06
-1.97798e-07
-3.38163e-08
3.65292e-06
-8.58268e-09
0.000454531
4.10633e-08
0.000362844
0.000189934
-2.28837e-08
0.000113796
5.66999e-08
-3.42742e-08
9.56345e-05
4.90822e-08
-9.82077e-06
-1.93824e-05
0.000242265
-5.22675e-08
4.60107e-06
-1.24215e-05
1.11407e-08
-2.66015e-08
0.000235563
-4.77929e-08
-3.96023e-08
6.01987e-08
3.06966e-09
-1.61951e-05
0.000860119
-2.67973e-08
-1.33102e-07
-6.71447e-05
0.00018771
-6.56427e-08
-9.64873e-05
2.53842e-08
2.47174e-09
-1.25442e-07
-8.79726e-08
-2.27209e-08
2.47489e-08
0.000168632
1.06964e-05
-0.00031895
-2.73501e-05
0.000155152
0.000142552
-1.14079e-08
2.07328e-08
8.26748e-08
1.55924e-07
-0.000244263
0.000215881
-0.000133192
-2.45679e-08
-0.000126338
4.12394e-08
3.67336e-06
-1.62901e-05
-2.06178e-05
5.62894e-05
-1.68946e-06
0.000124414
0.000323518
-2.40055e-08
-8.26344e-09
-1.27785e-05
-1.36649e-08
-1.08965e-10
-2.11023e-08
0.000210203
0.000194463
7.35083e-07
0.00019543
2.40003e-08
-4.50074e-05
-1.64206e-06
0.000116131
-2.85557e-05
0.00140079
-1.95846e-08
-3.81339e-08
-0.000302914
-6.25163e-08
4.40415e-06
-2.66302e-07
-2.4905e-08
-5.48159e-06
3.89314e-08
5.62682e-05
0.000723981
0.000138505
-4.2527e-08
1.25985e-08
0.000149933
-0.000101602
-3.03484e-05
-9.27435e-09
-5.91066e-05
0.000232827
-4.15083e-05
-6.36861e-05
0.000136404
-2.38703e-09
-2.01394e-05
0.000203855
0.000123041
-7.6714e-09
0.000879307
6.94169e-09
-7.78457e-06
-3.16636e-06
8.78061e-05
0.000199538
-1.81993e-08
-1.19098e-08
-1.51594e-07
3.70228e-05
1.98851e-08
-0.000110204
1.12298e-08
-1.70784e-05
-1.45222e-05
-2.00439e-08
-1.11879e-07
-4.91891e-07
-2.60434e-08
-6.12072e-09
-0.000384193
-2.58445e-05
-5.24902e-08
-5.39608e-09
-9.19147e-06
-1.96203e-08
-6.11938e-10
-2.04541e-08
-1.76097e-05
1.69818e-06
-2.02901e-05
-1.32982e-08
0.000412327
-2.85323e-08
-4.0739e-05
7.42711e-05
-2.76174e-08
-5.20678e-08
-8.71805e-09
-7.48787e-05
-7.36948e-08
-1.98109e-07
0.000253355
5.27127e-08
0.000151464
2.69192e-08
7.25037e-09
1.91268e-09
1.87846e-08
-3.93762e-08
3.37923e-08
4.63915e-05
0.000106925
-0.000594857
3.89053e-08
1.23185e-06
4.89912e-05
5.62627e-05
-6.5738e-06
0.000104638
-1.08868e-08
-0.000392555
6.30204e-07
0.00178749
-1.1569e-08
0.00155363
6.26332e-08
1.57083e-07
-2.82787e-09
1.49229e-05
2.2616e-08
-1.13152e-05
-0.00026506
-3.98e-08
9.23941e-06
-1.09711e-05
-7.22987e-07
3.49779e-07
-4.15467e-08
-7.88504e-05
2.52255e-08
0.000261335
7.31752e-08
-1.51516e-08
-2.38853e-05
0.000165416
0.000208517
6.64024e-09
-1.6778e-08
-0.000382908
-3.29202e-08
1.74114e-08
0.000116604
-0.000223733
-4.6344e-06
-5.32844e-09
-1.24213e-08
5.76413e-08
-6.23507e-05
-4.77879e-08
-3.03947e-08
-5.1658e-05
-2.50221e-05
-4.72548e-08
0.000249271
-5.49645e-06
2.68398e-08
-4.8888e-10
2.1875e-09
-8.40104e-06
3.01725e-09
-1.80216e-08
3.58437e-10
2.06462e-06
-5.9826e-09
-3.64651e-08
-3.883e-08
0.000142888
8.92649e-09
-3.08439e-08
-1.84652e-08
1.4295e-07
-3.87726e-08
-1.01924e-05
-3.13338e-05
2.9268e-08
-2.99497e-09
2.16173e-06
3.45525e-06
-4.23097e-08
0.000204109
-1.91915e-05
-4.7313e-08
-6.3704e-06
-3.68854e-09
-0.000291107
-1.27123e-05
0.000159239
-2.63385e-08
-1.07742e-05
-5.33798e-08
-2.22348e-08
-1.38456e-07
-3.3111e-09
1.8984e-08
0.000153417
-1.92488e-08
-5.18461e-08
5.52095e-07
-2.94599e-05
7.50866e-08
2.52925e-07
0.000113912
1.40529e-08
-1.68714e-05
-1.79252e-08
1.93926e-05
-6.91862e-09
0.000539796
0.000159836
3.39211e-06
-1.83454e-08
1.13821e-08
-1.02208e-05
-2.56709e-05
-0.000321835
6.33538e-09
2.04427e-07
0.00025816
-4.02941e-08
1.50597e-08
-8.4415e-07
-3.44251e-09
-3.04698e-08
4.11678e-07
1.73581e-07
-2.01981e-05
-5.77482e-05
0.000318888
-3.45857e-08
-2.19443e-05
0.000204576
-4.9131e-05
-2.69815e-05
5.09639e-08
1.72717e-08
4.21865e-08
0.000146791
0.000407837
-1.05723e-07
-0.000375959
0.000128073
-6.9835e-08
-2.00648e-08
1.05911e-05
7.24852e-05
3.34964e-08
-0.000268309
1.23497e-09
2.79022e-05
-8.1341e-06
3.87938e-05
-4.45632e-08
-6.58729e-08
0.000113472
3.89634e-05
0.000178574
-9.93907e-05
-1.68863e-05
1.85644e-08
1.63078e-08
-3.15107e-08
-6.36332e-08
-6.92753e-08
0.000111369
0.000398607
5.9517e-08
-3.63076e-08
-9.28702e-07
-1.2398e-05
0.00013493
2.59981e-08
0.000209308
-3.69449e-08
-7.60583e-05
-0.000171038
-6.80053e-05
5.36628e-09
3.11907e-08
-2.50831e-05
0.000375652
-0.000439907
-5.99251e-05
4.60321e-06
6.54506e-05
0.000818526
1.95866e-09
-1.8274e-05
-6.41606e-08
3.2015e-08
-2.3964e-08
-3.14341e-05
-6.64425e-05
3.3107e-09
-1.822e-08
-0.000346786
-2.32349e-08
-0.00031275
-6.83634e-08
1.16812e-08
-0.00079194
-1.46256e-05
3.59429e-09
-2.19587e-05
0.000249497
2.98826e-08
-2.21005e-08
-3.06657e-06
2.56969e-07
8.04767e-07
-0.000134341
4.56385e-08
-0.000196281
-7.52122e-05
-8.97812e-05
-9.28565e-10
-7.90888e-05
2.65992e-11
-2.69515e-07
-1.95718e-08
0.000409546
0.000592888
-3.67505e-08
0.000107292
-5.42211e-05
-1.69602e-08
1.34925e-08
-1.66041e-08
0.000318202
-0.000106301
0.000136902
7.47498e-07
7.36781e-05
-0.000157257
3.21767e-05
-4.24012e-09
-8.00523e-05
-0.000216416
2.44743e-07
0.00014401
-0.000220976
-7.25387e-05
0.000111105
0.00119735
-6.63016e-09
-0.000141286
-0.000183934
-0.000275382
4.17048e-05
0.000108678
8.99133e-09
-4.41941e-08
0.000111777
-6.49594e-05
-1.72338e-08
-9.42895e-08
0.000210973
6.10862e-08
-2.23135e-05
0.000127419
0.000145708