/*--------------------------------*- C++ -*----------------------------------*\
| =========                 |                                                 |
| \\      /  F ield         | OpenFOAM: The Open Source CFD Toolbox           |
|  \\    /   O peration     | Version:  v2012                                 |
|   \\  /    A nd           | Website:  www.openfoam.com                      |
|    \\/     M anipulation  |                                                 |
\*---------------------------------------------------------------------------*/
FoamFile
{
    version     2.0;
    format      ascii;
    class       volVectorField;
    location    "150";
    object      ddtCorrDdt0(U);
}
// * * * * * * * * * * * * * * * * * * * * * * * * * * * * * * * * * * * * * //

dimensions      [0 1 -2 0 0 0 0];


internalField   nonuniform List<vector> 
14479
(
(-0.000373328 -0.000518333 0)
(-0.000615042 0.000108527 -3.72579e-22)
(-0.000292497 -0.000118174 6.19541e-22)
(0.00159893 -0.000135874 -3.99163e-23)
(-0.00090864 0.00107604 0)
(0.000886566 -3.15911e-05 -3.86089e-23)
(-7.37123e-07 1.47667e-05 5.22521e-22)
(-1.22989e-05 -1.45509e-05 3.14412e-21)
(-0.000129703 -4.89809e-05 0)
(-0.00361218 0.00197379 0)
(-0.00087959 0.000963087 5.05645e-22)
(0.00162547 -8.03824e-05 -1.81717e-22)
(0.00208345 0.000370141 7.24215e-22)
(0.00214997 0.000375119 -7.74395e-22)
(0.00155552 0.00060295 0)
(0.000742774 0.000103977 -7.32039e-23)
(-0.000746026 -0.00340009 -4.58165e-22)
(0.000436002 7.70525e-05 -9.29286e-22)
(-0.00286193 -0.00323256 6.49548e-22)
(-0.000152797 0.0019361 -1.90811e-21)
(-5.91739e-05 4.04618e-05 0)
(-0.000220041 -4.08518e-05 1.48118e-22)
(0.000819453 0.000207407 2.37377e-23)
(-0.00130045 -0.00203287 -7.32754e-22)
(-0.000133603 -4.82147e-05 -2.19711e-22)
(0.000233449 0.000838102 -1.85873e-21)
(-0.000608154 0.000535193 1.47571e-21)
(-0.00353238 0.00207018 3.58755e-22)
(-0.00259943 0.000449857 -1.19335e-22)
(0.00155832 0.000624713 -7.31685e-23)
(-0.000966973 -0.000605796 -1.52597e-21)
(-1.08684e-05 -0.000489898 0)
(-0.00247923 -0.00335501 -8.14162e-22)
(-1.61461e-05 -3.01627e-05 -4.09792e-21)
(-6.28114e-05 -8.47829e-05 0)
(3.50157e-05 -5.66867e-06 -1.22535e-21)
(-1.69205e-05 0.000221746 -7.27975e-22)
(0.000634693 0.000186747 9.5102e-25)
(-0.000314366 -8.77738e-05 -1.37267e-23)
(0.000677741 0.00185671 0)
(0.00134237 0.000658387 -5.41781e-22)
(-0.000302287 -8.65724e-05 0)
(-8.85638e-05 0.000389934 -1.2978e-21)
(-0.000143189 -0.000128134 0)
(0.0010013 0.000180443 6.76997e-23)
(0.000654665 -0.000651709 0)
(0.000497406 0.000116806 0)
(0.000512654 0.000196146 -7.98937e-22)
(-0.000109265 -9.9057e-05 -1.54148e-21)
(0.000332398 0.000881038 4.09032e-21)
(-8.70716e-05 3.56079e-05 0)
(-0.00568621 -0.00335553 -2.17053e-22)
(-0.00145992 0.00122301 0)
(-0.000379021 -0.00158869 5.84721e-22)
(-0.000103477 -9.66075e-05 1.73054e-21)
(-7.21875e-05 0.000166896 -6.48029e-24)
(-0.00116287 -8.59778e-05 2.60013e-22)
(-0.00472762 -0.000182735 0)
(3.96521e-05 -4.33305e-06 0)
(0.000616705 -0.00145952 0)
(-0.000310509 -0.000105647 7.48958e-23)
(-3.44424e-05 -6.60601e-05 0)
(-0.00105951 -0.000518172 -2.04883e-21)
(-0.00143751 -0.000849996 -2.63536e-22)
(0.00323114 0.00619201 -8.76812e-23)
(-0.00437406 -0.000506062 0)
(-9.51653e-05 -0.00021853 0)
(-0.000104112 0.000343604 1.78708e-21)
(-0.00291323 0.000381802 -5.73328e-22)
(-0.00830878 -0.00259704 0)
(-0.00182439 0.0007497 -1.10559e-21)
(0.000401866 0.00220012 0)
(0.00109557 -0.000824487 -1.58756e-21)
(0.000139048 0.000694209 2.48862e-22)
(-5.72088e-05 4.65897e-05 0)
(-0.000134432 -4.06265e-05 2.61076e-22)
(-0.00216424 0.000666525 7.32194e-22)
(0.00194267 0.00037973 2.06828e-22)
(-0.00197715 -0.00380142 1.011e-21)
(-0.0018609 0.000644003 8.14194e-22)
(4.58829e-05 0.000529314 0)
(-5.91254e-06 1.03095e-05 -1.98536e-22)
(-0.000104933 -8.11315e-05 1.31793e-21)
(0.000189447 0.00219298 0)
(5.07332e-05 -0.000161965 -4.54132e-21)
(0.000583826 -0.000565968 0)
(-0.000507215 0.00373798 1.63973e-21)
(-7.38844e-05 0.000106733 3.1542e-22)
(-0.00200443 0.00059643 -8.0716e-22)
(-0.000111617 2.64025e-05 -7.56609e-23)
(-0.00407727 0.000718053 3.59619e-22)
(-0.00440067 -0.000525636 2.07542e-22)
(-0.00206471 -0.000567764 0)
(0.00168944 0.000236112 -4.1698e-22)
(-0.000226074 -0.00010709 -3.01077e-21)
(-0.0024066 -0.00366876 -1.02701e-22)
(-1.31861e-05 -0.00010332 -1.73274e-21)
(-0.00399975 0.000637873 -5.52763e-22)
(-0.00010468 -0.000111413 0)
(-0.00491969 0.00130388 -4.00747e-22)
(-0.000740019 -0.000652577 0)
(-0.00478834 -0.000200151 0)
(0.000522977 -0.00156522 0)
(-3.67174e-05 -3.64651e-06 0)
(-0.000101887 -0.000107176 -2.67422e-21)
(3.36403e-05 -4.73598e-06 -3.61298e-21)
(0.00361647 0.00646645 5.38907e-23)
(0.000981759 -0.000782728 1.26066e-21)
(-0.00121434 -5.42808e-05 9.01696e-24)
(0.001415 0.000626106 8.6906e-22)
(-9.64643e-05 -0.000127692 -8.73122e-22)
(-0.000113705 -0.00010168 0)
(0.000326898 -0.000400192 -2.2623e-21)
(-0.000322933 -0.00168439 -7.37579e-22)
(-0.000601052 0.000514528 0)
(-0.000189947 0.000189613 2.97392e-21)
(-0.000132484 -3.42721e-05 0)
(-0.00135115 0.000955627 -1.66835e-21)
(-5.16839e-05 0.00019184 -7.20894e-23)
(-0.000526113 0.00312276 1.71147e-21)
(-5.71334e-05 -8.22775e-05 -1.19675e-21)
(-3.42011e-05 9.02284e-05 0)
(3.11578e-05 -0.000532851 0)
(-0.000329121 -0.000172669 4.36169e-22)
(0.000240463 -0.0014526 -1.65857e-22)
(2.68234e-05 -4.14532e-05 -4.16219e-21)
(-9.26184e-05 -0.000137764 -2.26754e-21)
(-3.15691e-05 0.000191527 -3.00037e-21)
(3.34314e-05 -3.58575e-05 0)
(-0.00471365 -0.00024915 0)
(2.13483e-05 -5.90639e-05 -2.81666e-21)
(-0.00252876 -0.00293288 3.11926e-22)
(0.000185901 0.00063568 0)
(1.99788e-05 -4.35571e-05 5.01283e-21)
(0.00098223 -0.000147371 1.04652e-21)
(-0.00119764 0.00029536 -1.08557e-23)
(-0.00202698 -0.00338708 -5.21861e-22)
(-5.64409e-05 0.00015989 -4.3033e-22)
(-0.00566605 -0.00333458 -4.59214e-23)
(0.00150979 -0.000207242 6.50585e-22)
(-4.51266e-05 -7.26514e-05 -3.35981e-21)
(0.00130666 0.00014116 4.28675e-22)
(-0.00014412 -0.000131985 0)
(0.000813596 -0.000392574 -1.05708e-21)
(-0.00134457 -0.000791332 -4.77535e-22)
(5.92132e-05 -0.000154966 7.5192e-21)
(-0.00188373 -0.00325274 0)
(-9.14679e-05 -9.06914e-05 -1.46107e-21)
(-0.000382568 -0.000418859 0)
(-0.000215057 -6.89944e-05 5.37716e-23)
(-0.0021733 -0.00362576 2.29036e-22)
(-0.000284298 -0.000124408 -6.84296e-22)
(-6.19395e-05 3.84764e-05 -1.1601e-22)
(-0.000739969 -0.00220326 3.66724e-22)
(-0.000311839 -0.00329961 0)
(-0.000603832 -0.000346719 -9.48408e-22)
(-0.00265731 0.00221006 3.49545e-22)
(-6.11958e-08 1.17664e-05 3.51286e-21)
(-0.000160579 0.00169459 -8.39394e-22)
(-0.00210101 -0.00379805 -5.89486e-22)
(-0.00258923 0.00234271 -1.16235e-21)
(-0.00443464 -0.00118054 8.9523e-22)
(-0.00209475 -0.00391025 -3.64436e-22)
(-0.000334413 0.00344667 -1.98442e-21)
(-0.00490041 -0.000282972 9.70147e-22)
(0.000509364 0.000280139 6.64287e-22)
(5.74559e-05 -4.91898e-05 -3.08855e-21)
(0.000129096 -0.000369736 0)
(-8.69551e-05 4.15e-05 0)
(-1.96152e-05 -0.00010547 -1.54513e-21)
(2.06711e-05 -7.36924e-05 6.25255e-21)
(0.000603193 -0.00048156 0)
(-6.81145e-05 0.000174243 -1.80895e-21)
(-0.000302054 0.00284522 -2.27328e-21)
(-9.07671e-05 0.000143002 -1.21663e-21)
(-0.000912945 0.000354671 -1.22693e-22)
(-6.53092e-05 0.000123428 -8.15405e-23)
(-2.54651e-05 -0.000127906 1.21369e-21)
(-0.000648787 0.000655067 0)
(-0.000181309 7.24153e-05 -1.02447e-21)
(-0.00156119 0.00017706 -2.58135e-22)
(-5.43123e-05 4.7732e-05 0)
(-5.5297e-05 0.000185669 0)
(-0.00205683 -0.000628647 -6.87897e-23)
(-4.92465e-05 9.37443e-05 0)
(-0.000922313 0.000366563 -3.35218e-22)
(-8.70126e-05 0.000373089 1.14658e-21)
(-3.4962e-05 0.000301271 -1.30633e-21)
(-0.000812576 -0.00471335 -1.84015e-21)
(0.000876036 -0.000711269 2.35771e-21)
(-4.02463e-05 0.000101961 2.1083e-22)
(-0.00496851 0.00157806 3.55005e-22)
(-8.65423e-05 -0.000118967 0)
(-2.38244e-07 8.48191e-06 -1.07202e-21)
(0.00142373 0.000157082 1.09219e-21)
(-0.00202287 -0.00386054 5.20766e-22)
(-0.000806463 -0.00437074 1.67728e-21)
(-0.00389947 0.00302592 1.44884e-21)
(-0.000277236 -0.000220622 1.40781e-22)
(-8.79433e-05 0.000149728 1.16131e-21)
(-0.000177056 0.000189509 -2.35907e-21)
(3.84294e-05 -0.0031659 2.72315e-22)
(-0.00851292 -0.00247058 -1.13187e-23)
(-0.00231454 -0.000119827 -1.09334e-22)
(0.00128137 0.000112164 -7.97422e-22)
(-0.000150751 0.000182024 -9.2413e-22)
(-5.80935e-05 0.000160551 0)
(0.000791283 0.00233598 1.53126e-21)
(-1.99843e-05 -0.000134326 0)
(-0.000960638 0.000393223 3.72342e-22)
(-9.42811e-05 -0.00229555 -2.27344e-22)
(-0.00389481 0.00392661 0)
(-0.000166189 0.000119156 0)
(-8.85089e-05 0.000335033 -2.45426e-21)
(-8.68025e-05 1.61394e-05 4.27119e-22)
(0.000909742 -0.00166789 -5.24976e-22)
(-0.00465871 0.00215171 -1.80843e-22)
(0.000798954 0.000241682 0)
(-1.34479e-05 0.000218671 0)
(-0.00041671 -0.000390285 -8.60615e-22)
(-0.000191682 0.00153941 0)
(-0.00311909 -0.00175077 -5.05764e-23)
(-0.00473039 0.00112387 0)
(-8.87729e-05 -4.09112e-05 2.80062e-21)
(-0.000539129 0.000467842 -9.90579e-22)
(0.00087681 -0.000515692 0)
(-0.00023208 -5.12606e-05 7.85612e-24)
(-0.000110477 -9.91076e-05 0)
(0.000428329 0.00069631 0)
(-7.05245e-05 0.000112255 -3.01868e-22)
(-0.000104787 0.000149455 1.6207e-21)
(-1.52633e-06 1.46327e-05 1.40456e-22)
(-0.000515018 7.58367e-05 0)
(0.0021122 0.000403578 1.32874e-22)
(-6.33785e-06 0.000285428 2.67432e-21)
(-0.000158245 0.000187743 -1.24255e-21)
(-0.00116147 -0.000145017 3.2595e-23)
(-8.4448e-05 0.000868016 1.39592e-23)
(-9.32021e-06 0.000220295 1.62561e-21)
(-0.000170155 -5.20723e-05 8.76166e-23)
(0.000859244 -0.000579748 2.20282e-22)
(0.00106208 -0.0013177 -2.67058e-22)
(-9.1159e-05 -0.000121651 1.16727e-21)
(0.000315371 0.000903683 4.10402e-21)
(-0.00428304 0.00325071 3.15202e-22)
(-6.84679e-05 -0.00240352 2.01287e-22)
(-3.74983e-05 -6.79658e-05 0)
(-0.000114774 2.02824e-05 0)
(-0.00149901 -0.000544114 -3.12476e-21)
(-0.00362805 0.000137407 -1.03807e-21)
(-1.33756e-05 -1.2416e-05 -3.14439e-21)
(0.00140012 -0.000694366 -2.59334e-22)
(-4.01743e-05 3.12525e-06 4.61518e-23)
(2.80375e-05 -3.79747e-05 2.38508e-21)
(-0.00352461 9.81694e-05 8.68273e-22)
(-0.000551919 -0.00259068 1.76673e-22)
(-2.971e-05 0.000215357 -1.37461e-21)
(-0.00257332 0.000602661 -3.85595e-22)
(0.00011109 0.000870356 0)
(-0.00118043 -0.00212508 8.13213e-22)
(-0.000191012 0.000539109 1.4134e-22)
(-0.00537877 -0.000904828 -2.2727e-22)
(0.00139797 0.000121742 -1.08216e-21)
(0.00101575 -0.000252986 -1.29589e-21)
(-4.94971e-05 0.000154177 0)
(-0.000569408 4.86136e-05 2.22096e-22)
(-4.66592e-05 0.000156669 0)
(-0.00482065 0.000984038 7.17599e-22)
(0.00165602 -0.000446278 1.01376e-21)
(-0.00244569 0.000489889 -5.54172e-22)
(-0.00185185 -0.00336175 0)
(-2.98906e-05 0.000187676 3.8821e-21)
(-0.00439207 -0.000660864 0)
(1.45544e-05 0.000166675 0)
(-0.000186721 6.46126e-05 -3.81179e-22)
(-0.0044551 -0.000855607 1.74425e-22)
(0.000941354 -0.000618822 -1.83603e-22)
(-4.84977e-05 -8.0555e-05 1.41304e-21)
(-0.00422448 -0.00104974 7.93482e-22)
(-0.00247862 -0.00235788 1.26913e-23)
(-0.00432993 -0.000633378 -1.78335e-22)
(-0.00436367 -0.000922566 0)
(-0.00275393 0.00250432 0)
(9.36607e-05 0.000434305 0)
(-8.14087e-06 4.31862e-05 5.27392e-23)
(-8.51383e-06 0.000212802 1.61925e-21)
(-0.000167373 0.00132468 1.60963e-21)
(5.7411e-06 0.000166337 -2.35721e-21)
(0.00125109 0.00033882 5.90105e-22)
(0.00111302 1.84124e-05 7.15983e-22)
(0.000300251 0.000257621 3.85643e-21)
(0.000617398 8.62012e-05 -3.77776e-21)
(-0.00114539 0.000283635 -1.22904e-25)
(0.00100194 2.49923e-05 1.72123e-22)
(-6.81354e-05 0.000176968 0)
(-0.000413932 -0.000420574 -3.91039e-22)
(-0.000131399 6.48851e-05 0)
(5.4505e-05 0.000715429 7.57903e-22)
(5.83396e-05 -5.43002e-05 3.54491e-23)
(-0.000435359 0.000199872 -6.68551e-22)
(-8.50219e-05 2.36499e-05 -3.64117e-22)
(-0.0018592 -0.00125597 -2.67199e-22)
(-2.8279e-05 -6.33846e-05 -3.20153e-23)
(-0.00011426 0.000261486 3.74116e-21)
(-0.000449273 -0.000385786 1.24138e-21)
(0.00179792 0.000395527 2.29446e-22)
(-0.00109046 -0.000175291 -9.04926e-22)
(-0.0021612 -0.000217137 0)
(-7.41458e-05 -0.000115739 1.83339e-21)
(-8.65405e-05 -0.000148452 -1.19113e-21)
(-0.00318109 -0.00181102 0)
(-0.000765644 0.00096816 0)
(-0.0012536 0.000664527 -2.8498e-23)
(-0.000100333 -9.36956e-05 1.32791e-21)
(-0.000171914 -5.65833e-05 -1.54342e-23)
(-2.55318e-07 1.94523e-05 -9.68944e-22)
(0.00153682 -0.000146225 -3.8167e-22)
(-0.000757335 0.000289246 0)
(-6.16353e-05 0.000122021 -1.54456e-22)
(-4.00379e-05 -1.03375e-06 1.99754e-21)
(-0.000171475 0.000121286 0)
(-1.65854e-06 0.000221702 -2.16034e-21)
(-0.000111854 0.000145173 -1.84834e-21)
(-0.00327618 -0.000353217 0)
(0.000694784 -0.00272968 0)
(5.43926e-05 -8.89642e-05 -1.81861e-22)
(-0.00315604 -0.00304144 0)
(-0.000868641 0.00082471 0)
(-0.00338582 -0.0012494 0)
(-8.7941e-05 -7.33962e-05 -4.15184e-22)
(-0.000625974 -0.000297456 0)
(-0.000335617 0.000388683 0)
(-0.00366968 0.00284459 -6.3674e-22)
(0.00206249 0.000407899 -4.74648e-22)
(0.000693575 -0.00284948 -1.30204e-22)
(-3.57695e-05 -3.88705e-06 0)
(-0.000385342 0.000146675 0)
(-0.000127696 -0.00171375 -4.10836e-23)
(0.000773563 0.00185585 -2.83545e-21)
(-0.000574668 -0.000621635 1.96065e-22)
(-0.0031383 -0.00269498 0)
(-0.000119487 -0.000215432 0)
(0.000981784 2.24426e-07 -4.60877e-22)
(-1.89415e-05 -3.03194e-05 0)
(0.00161809 -0.000510735 -6.3698e-22)
(5.05158e-05 -6.02984e-05 1.79911e-21)
(-0.00442435 -0.000613622 0)
(-0.0049212 0.00183918 1.3205e-21)
(4.87817e-05 -5.96724e-05 -3.94238e-21)
(-0.000570389 -0.000678398 4.07793e-22)
(0.0017269 0.000276338 4.53296e-22)
(-0.00434517 -0.000932291 0)
(-0.000297679 -0.000105311 1.37117e-22)
(-8.97411e-05 4.3723e-05 0)
(-0.0044559 -0.000870107 0)
(-4.20985e-05 6.40554e-05 1.82006e-22)
(-4.61943e-05 -7.32584e-05 -1.69909e-21)
(-0.00340073 -0.00170205 -4.36909e-22)
(-9.16566e-05 -0.000132145 0)
(-0.000132797 -7.42853e-06 -3.04917e-23)
(-0.000132568 -2.07819e-05 2.75334e-23)
(0.00103795 -0.00136097 0)
(-0.00109313 -0.000828626 1.90206e-23)
(-0.000135053 -2.78691e-05 0)
(-0.00425913 -0.00101309 -5.06786e-22)
(-7.13846e-05 -8.73056e-05 0)
(-1.27926e-05 0.000683274 8.00211e-22)
(0.00203877 0.000405606 -2.6232e-22)
(-0.00346336 -0.0011994 -1.20385e-22)
(-0.00152749 0.000374481 -9.78929e-22)
(0.00236327 -0.000318684 0)
(-0.000824054 -0.00156967 -7.60032e-23)
(0.000841747 -3.16802e-05 -1.30915e-21)
(0.000491231 0.000826119 0)
(0.000282272 0.000782762 -5.56007e-22)
(-0.00629212 -0.000958422 -2.10532e-22)
(6.24694e-05 0.00197088 1.91487e-21)
(-0.000380079 0.000620701 8.17007e-22)
(-0.00288238 -0.000253625 -2.98821e-22)
(-0.000130025 6.67851e-05 -9.61626e-22)
(-8.63851e-05 -8.96411e-05 0)
(-0.000216932 -8.71592e-05 1.10225e-21)
(-0.000891364 0.00083921 -5.02436e-22)
(-1.84637e-05 0.000796215 0)
(-0.00052848 -0.00147733 0)
(-0.00118181 -0.000818071 3.55282e-22)
(-3.58764e-05 5.68514e-05 -5.53618e-23)
(-0.00168601 -0.00116479 5.24718e-22)
(-2.43029e-06 0.000235458 1.93394e-21)
(0.00134574 -0.00144106 -5.07206e-23)
(-0.000482658 -0.000742153 -1.27634e-22)
(-2.76766e-05 -3.71809e-05 -1.33307e-21)
(0.00163302 -0.000157344 3.22127e-21)
(0.00162779 0.000369664 3.06473e-22)
(-0.00801499 -0.00270018 -1.49517e-22)
(-0.00398415 0.00411305 1.23806e-21)
(0.000642078 0.00499633 3.28091e-22)
(0.000483526 0.00157468 0)
(-8.91902e-05 -7.14951e-05 3.78167e-22)
(-7.24978e-06 2.65224e-05 -7.40085e-23)
(-0.00511903 -0.0010804 -8.5784e-22)
(-0.00438744 -0.000662533 -9.10435e-23)
(0.00170702 -0.000338719 -6.01591e-22)
(-0.000196441 -0.000280587 -6.5991e-22)
(0.000881307 0.00090479 1.2335e-21)
(-8.04394e-05 -0.000150437 2.30529e-21)
(0.000829695 0.000259818 1.7755e-22)
(-0.00180546 -0.00117628 2.20272e-22)
(0.000327525 0.000718943 0)
(-4.26325e-05 -7.181e-05 0)
(-0.00390113 0.00171957 0)
(-0.00159249 0.000789104 4.12195e-22)
(-5.24042e-05 9.60648e-05 -5.97458e-23)
(-8.91803e-06 3.11245e-05 5.30111e-23)
(-0.000157515 0.0015611 -2.59628e-21)
(-2.51666e-05 -2.48428e-05 1.69238e-21)
(0.00186118 -0.000146374 -6.14688e-21)
(-0.00112454 0.00150284 0)
(-4.71942e-06 9.65466e-06 1.9682e-22)
(-0.000507864 -9.02112e-05 -3.76826e-23)
(-0.000298627 -0.000157371 7.71632e-22)
(-0.000611735 0.000131479 4.33429e-22)
(-0.00341308 -0.00085585 7.53526e-22)
(0.00184294 -0.000450792 4.39509e-22)
(-0.00263123 -0.00313972 0)
(-0.000561188 0.00011658 1.94574e-22)
(-0.00331368 -0.00177335 4.19801e-22)
(-6.57267e-05 5.47499e-05 -6.63969e-23)
(-0.000377691 0.000130956 5.58118e-22)
(0.000812125 0.000691843 1.91487e-21)
(0.000344749 0.000283272 0)
(-0.00126093 -0.000840697 6.42723e-22)
(0.000416514 0.000153277 7.08146e-24)
(-0.000163995 -0.000109498 -1.76345e-21)
(-0.000562521 9.41449e-05 -6.13858e-23)
(-0.00474751 -0.00062197 0)
(-0.000157942 0.000241194 -4.24445e-21)
(-0.00280023 0.00513999 0)
(7.10409e-05 -7.87988e-05 2.07111e-22)
(-0.00179797 -0.00149966 7.5987e-22)
(-0.00433705 -0.000620882 -4.01663e-22)
(-0.00404118 0.00173849 0)
(0.00190063 0.000236212 0)
(-6.50753e-05 5.14152e-05 6.00009e-23)
(-0.000189708 -0.00164482 0)
(-0.000261504 -0.000222882 0)
(0.00037521 0.000947755 1.61889e-21)
(0.00169383 -0.000396992 5.36036e-22)
(-9.75477e-05 -0.000124261 1.1403e-21)
(-0.000210111 -0.000128556 5.01868e-22)
(1.17134e-06 0.000198918 0)
(0.000499581 0.00403568 -4.13486e-22)
(0.00130932 -0.00116037 -6.27853e-22)
(0.00107759 -0.0012332 1.46103e-22)
(-1.49996e-07 1.91076e-06 6.36132e-22)
(-0.000797191 -0.00206758 -2.19234e-22)
(-3.89906e-05 -6.87355e-05 0)
(0.00139075 -0.000826413 0)
(-0.000798709 0.000671602 -1.18251e-21)
(0.000124607 -0.00143705 0)
(-0.00018474 -0.000265865 1.63563e-21)
(-5.00521e-05 0.000181276 -7.04572e-22)
(-0.000863271 -0.000187811 -8.6355e-22)
(-0.00128005 0.000626069 -1.0697e-22)
(-0.00358029 -0.00129663 -2.82294e-22)
(0.00158345 0.000393081 -3.45639e-22)
(-0.000295418 -0.000149086 0)
(0.00109925 -0.000675755 0)
(0.00209666 0.000403197 1.30739e-22)
(3.18959e-05 -3.85641e-05 6.48793e-23)
(3.04853e-05 -5.6202e-06 5.84009e-21)
(-3.843e-05 4.00647e-06 3.73464e-22)
(0.00198334 0.000407472 0)
(-0.00079536 -0.00335576 -1.89221e-22)
(0.00124622 4.54625e-05 -6.01669e-22)
(-0.000368207 3.96202e-05 2.44021e-21)
(-5.75931e-05 -0.00129413 -8.18142e-23)
(0.00167497 0.000398785 0)
(-0.000378341 0.000595887 -7.78427e-22)
(-0.00178719 -0.00173412 -8.93143e-22)
(-0.000215652 -6.44713e-05 0)
(0.00115179 0.000267591 -7.13685e-22)
(-0.00071481 0.000773163 -1.34202e-21)
(-0.00103728 0.00342264 2.72299e-21)
(-9.03061e-05 -0.000116057 2.81304e-21)
(0.000351873 0.000923047 0)
(-5.12426e-05 -7.45571e-05 -6.33153e-22)
(-0.00263534 0.000370943 5.91048e-22)
(0.000869304 0.00151127 -1.27565e-21)
(-0.00421692 0.00356483 0)
(-0.000283598 0.000954965 -5.86898e-22)
(-1.56592e-05 7.40579e-05 6.18322e-22)
(-2.77774e-05 -2.53471e-05 0)
(-0.00485547 0.00141129 -4.1836e-22)
(0.000708142 0.000172529 5.19054e-23)
(-3.53992e-05 -7.09061e-05 -1.18612e-21)
(-0.000333039 -0.000523408 2.55962e-22)
(0.00130532 -0.000340884 -3.16386e-22)
(0.00299856 -0.000275969 -9.79176e-23)
(-0.000136527 -0.000158548 1.97928e-21)
(-3.56044e-05 0.00028714 -8.07471e-23)
(0.00307302 -0.000454115 3.02285e-24)
(-0.000261403 -0.000194014 5.5125e-22)
(-6.43518e-05 0.000183068 1.78175e-21)
(0.00186521 0.000180322 3.58799e-22)
(-0.00327235 -0.000259826 0)
(-0.00225998 -0.00380504 3.63325e-23)
(-1.77414e-05 -5.34381e-05 0)
(-5.3133e-05 -8.26558e-05 -2.89876e-21)
(0.00195725 0.000360032 -3.18769e-22)
(-0.000540496 7.49753e-05 -1.85772e-22)
(0.000740896 -3.16824e-06 0)
(-0.000255176 -0.000131724 0)
(-0.00348728 -0.000859727 4.51517e-22)
(-2.12902e-05 -5.55016e-05 -1.33236e-21)
(-3.75237e-05 9.42345e-05 7.19235e-23)
(-1.01433e-05 4.98213e-05 9.39118e-24)
(-6.59211e-05 0.000154958 1.71369e-22)
(0.000550518 0.000197167 -2.50187e-22)
(-0.00159472 -0.000430379 0)
(-0.00139184 -0.000284414 -1.24949e-21)
(0.000309998 -0.00114578 0)
(-0.00108143 -0.000405237 1.92697e-21)
(0.000812602 0.000920225 -1.26884e-21)
(-0.00400596 0.00365995 0)
(-0.00479857 -0.000475445 0)
(9.17135e-06 -6.00936e-05 -1.3501e-21)
(-0.000184622 -0.000290553 0)
(-0.00864654 -0.00257906 -1.50079e-22)
(0.00194244 0.000293744 7.38155e-22)
(-8.52546e-06 0.000196948 0)
(-0.00166399 -0.000513207 0)
(-0.00520645 -0.00164648 3.16255e-22)
(-0.000514364 0.00072994 1.31664e-21)
(-8.2542e-05 0.000234051 1.5823e-21)
(-0.000297782 0.00211511 0)
(-0.000797751 0.000810066 -2.26436e-22)
(-0.00284185 -0.000700369 7.08124e-22)
(0.00131192 0.000801564 0)
(-0.00106553 -0.000703335 -1.24348e-21)
(0.00111813 4.50518e-05 4.38296e-22)
(0.000219329 -3.5422e-05 1.51343e-21)
(-0.000474342 -3.73485e-05 1.20636e-21)
(0.000339786 0.000284554 -1.86362e-22)
(-9.49752e-05 -9.25966e-05 2.96011e-23)
(2.57926e-07 0.000237291 2.2711e-21)
(-0.00342444 -0.00280461 0)
(2.42741e-06 0.000208037 4.16032e-21)
(-0.000162386 -0.000110753 0)
(-0.000528106 -5.50413e-05 -2.46395e-21)
(7.08139e-06 -0.000110719 2.72106e-21)
(-0.000544742 0.000587726 1.81768e-22)
(-1.49659e-05 -4.60531e-05 -2.40122e-21)
(-4.29239e-06 0.000236162 -4.33256e-21)
(-0.00255667 0.000151279 1.2985e-22)
(-0.000128007 6.80218e-05 -8.14294e-22)
(-0.0017771 -4.668e-05 -4.07343e-22)
(0.00181174 0.00040705 -5.46853e-22)
(0.0011856 -0.00039634 -6.6371e-22)
(0.001738 0.000411399 3.71933e-22)
(-0.000589632 6.65757e-05 -3.37338e-22)
(-0.00109004 -0.00178899 -2.8954e-23)
(7.65316e-05 0.000414705 -1.03908e-21)
(-0.00260852 0.00495537 0)
(-3.22721e-05 -6.51395e-05 -2.70816e-21)
(-0.000624963 -0.00235359 -3.53083e-22)
(-0.000424613 0.000600858 3.51947e-22)
(-2.14581e-05 -5.5184e-05 1.96943e-21)
(-4.03741e-05 -7.35125e-05 1.37849e-21)
(-9.19971e-05 -0.000127364 1.15534e-21)
(6.59953e-05 0.000419336 0)
(-1.50689e-05 -4.67991e-05 4.03218e-21)
(-0.00211234 0.00427154 -5.37319e-22)
(-0.000137148 0.00152901 4.1807e-23)
(-0.000258275 -0.000179433 -1.78918e-21)
(0.00135808 -0.000149581 -3.26511e-22)
(0.000626989 0.00671853 -1.00925e-22)
(3.83047e-05 -7.02721e-05 0)
(-0.000275092 0.000284901 -3.10286e-21)
(-0.000883199 -0.00169151 -1.98948e-24)
(0.00187671 0.000216413 0)
(2.97694e-05 -7.20714e-05 6.21877e-21)
(-0.000818721 -0.00011308 0)
(-0.000133177 -0.000210333 1.40987e-21)
(0.000208803 0.000122227 7.8953e-22)
(-3.09868e-05 -6.42898e-05 1.66263e-21)
(-8.3203e-06 -4.08328e-05 2.71938e-21)
(-0.00494025 0.00140039 0)
(-0.00353482 -0.00120102 0)
(0.000239305 0.00032414 -1.93317e-22)
(0.000174194 0.000745995 5.48006e-22)
(-6.64374e-06 2.80187e-05 0)
(-7.80609e-05 0.000159232 0)
(-0.00336187 0.000397528 5.06759e-22)
(0.00207253 0.0003254 0)
(-0.00783935 -0.00227814 0)
(-4.01959e-05 -1.39321e-05 6.32973e-22)
(-9.63989e-06 0.000206896 0)
(-0.000228669 0.000130763 -1.63539e-21)
(-4.57649e-05 0.000187705 1.98374e-21)
(-0.00239378 -0.00359133 0)
(-5.12006e-05 0.000146103 9.41788e-22)
(0.000506227 0.00223388 4.85531e-22)
(-0.00195969 -0.000705993 5.33488e-22)
(0.000650193 0.000146428 2.53821e-23)
(2.275e-05 -4.11147e-05 -2.31408e-21)
(0.00197491 0.000285294 -2.71418e-22)
(-0.000968282 -0.00182578 2.27209e-23)
(-8.8901e-05 0.000157415 -1.97609e-21)
(-0.00101555 9.23362e-05 4.80573e-24)
(-0.000121866 0.000109666 0)
(0.000728804 -0.000647581 -4.33481e-22)
(-0.000751225 5.70457e-05 0)
(-8.61192e-05 6.0321e-05 1.18317e-22)
(-5.66361e-05 0.000126865 7.11248e-22)
(-7.3918e-05 0.000164292 4.79941e-22)
(-0.00357778 -0.00125029 0)
(-0.000133155 -0.00357936 1.50193e-21)
(-0.00208859 -0.00396899 3.31818e-22)
(-6.45521e-05 0.000184869 4.05964e-22)
(-1.00381e-05 -4.35e-05 -1.57264e-21)
(-0.000251082 0.000402856 -1.11592e-21)
(-0.000680159 -0.00028735 3.4079e-21)
(-0.000140317 -0.000153873 -2.0101e-21)
(-0.00233077 -0.00355413 -3.80045e-22)
(0.000652372 0.00020593 1.95151e-22)
(-5.25941e-05 -7.59692e-05 0)
(-5.98763e-05 7.70002e-05 -2.25101e-23)
(-0.000245867 -0.000162178 -4.97296e-21)
(-0.00492274 0.00201438 -1.25478e-21)
(0.000240796 -0.000498352 -1.31428e-21)
(-0.00010508 -6.77456e-05 0)
(-6.55321e-06 2.86017e-05 -7.89161e-23)
(-0.002358 0.000315077 -3.59632e-22)
(-0.000705347 8.83241e-05 -8.4326e-24)
(-5.97802e-05 8.30072e-05 -2.87645e-23)
(8.2431e-06 -2.34304e-05 0)
(0.00175059 0.00686969 3.73961e-22)
(-0.000669048 0.000297712 1.22969e-23)
(-2.50599e-05 0.000214041 -8.77503e-22)
(-1.18795e-05 0.000371507 0)
(-0.000761114 -0.00226068 0)
(-5.65169e-05 8.66285e-05 1.26561e-22)
(-0.00826574 -0.0023611 0)
(-0.00296344 -0.000730537 -6.54179e-22)
(4.29559e-05 -7.29544e-05 -2.0005e-21)
(-0.000265776 0.000104775 5.9245e-22)
(-0.000157022 2.64716e-05 0)
(-0.000124131 -4.86213e-05 -1.5185e-21)
(0.000425233 0.000184458 -1.08298e-22)
(-0.000807242 0.000816155 -1.15438e-21)
(-0.000817794 0.0037469 1.29868e-21)
(-6.27041e-05 7.27184e-05 1.36555e-24)
(0.000757326 -0.000575583 2.22747e-22)
(-0.00163679 0.000706124 5.07739e-22)
(-0.000316646 0.000656685 -3.01354e-22)
(-0.000706496 -0.00326345 3.852e-23)
(-0.000727437 0.000274908 0)
(-7.92853e-06 0.00022652 -2.03445e-21)
(-7.87055e-05 -0.000161337 0)
(0.000595482 8.76488e-05 3.64603e-21)
(-3.43479e-05 -4.85019e-06 -1.1909e-21)
(-3.52904e-05 -6.99419e-05 -1.4748e-21)
(-0.00486294 -0.000135315 3.25957e-22)
(0.0014679 0.000324036 3.94464e-22)
(-7.91492e-05 -0.000115688 -2.08128e-21)
(-0.000156821 3.21927e-05 0)
(-0.000730657 -0.00254901 7.7661e-23)
(-0.00211803 -0.00240064 0)
(-4.83459e-05 5.28065e-05 -2.29937e-22)
(-4.05056e-05 -1.14617e-05 0)
(-0.000382024 -1.48062e-05 0)
(-0.001012 -0.000858701 -9.09788e-24)
(0.00151492 0.000607376 0)
(-0.000456041 -0.000367418 2.95473e-22)
(0.00043676 0.00164489 -3.45404e-21)
(-0.000241494 -0.00283434 7.93832e-23)
(-0.000228037 0.000438617 0)
(-0.00191322 -0.000549235 3.29754e-23)
(-0.000603692 0.000719705 -1.30654e-21)
(-8.97848e-05 -6.63079e-05 -4.07118e-22)
(-0.000147811 -0.000212289 4.11579e-22)
(-0.00377075 4.89251e-05 0)
(-8.45589e-05 6.14536e-05 -5.12782e-23)
(-0.0036792 2.34189e-05 0)
(-0.000316495 -0.000178765 0)
(-0.00243759 -0.00247771 -1.74078e-22)
(-0.00083086 0.000205895 0)
(-0.000404914 0.000578741 -1.00876e-21)
(-0.00894636 -0.00242948 2.18848e-22)
(-0.000123706 0.000108919 0)
(-0.000724195 5.4548e-05 0)
(-0.00335272 -0.00194864 -6.01461e-22)
(-0.000208323 0.0070962 0)
(0.000384978 0.000133011 -8.61126e-24)
(-0.00286015 -0.00122816 0)
(-0.000289145 -0.00281249 8.5976e-23)
(-0.00211176 -0.000575268 1.57344e-22)
(-0.000382834 0.000103224 2.34291e-22)
(-0.00221536 0.000106103 -3.65221e-22)
(-0.00320991 -0.00229909 -2.80814e-22)
(0.00103332 -0.00140743 1.12706e-21)
(-0.000379797 0.00193334 -4.76694e-22)
(-5.93969e-05 -6.41704e-05 -1.87546e-21)
(-0.00274537 -4.1219e-05 0)
(-0.00287173 -0.00292258 0)
(-0.00178036 -0.0012215 -9.6269e-22)
(-0.00249029 -0.00250098 -7.13971e-22)
(-7.08001e-05 -0.000163437 1.16331e-21)
(-0.000423146 0.00031181 0)
(-6.6121e-05 3.94847e-05 4.05531e-22)
(-6.42733e-05 0.000262917 1.55676e-23)
(-0.00108962 0.000839825 -8.12048e-22)
(-0.00339771 0.000263121 -6.33782e-22)
(-0.0023922 0.000616735 1.94155e-22)
(-2.29877e-05 -6.77882e-05 0)
(-6.49624e-05 0.000156551 1.43808e-21)
(-0.00341942 0.00016516 1.11017e-21)
(-0.00370923 -0.00123274 2.54616e-22)
(0.00220079 -0.000451711 0)
(-0.000689905 -0.00122167 0)
(0.000647568 5.8687e-06 -9.84066e-23)
(-0.000217576 0.000128572 7.49513e-22)
(-0.00256942 -0.00331378 0)
(-0.00923802 -0.00232963 -6.04055e-23)
(-3.5893e-05 0.000187771 2.96107e-21)
(0.000224067 -0.000603003 1.21541e-21)
(-0.00423845 0.00154355 3.77621e-22)
(-0.00135769 -0.000835971 -6.27338e-25)
(-5.30571e-05 -3.42074e-05 -8.43634e-22)
(-0.000167766 -6.19808e-05 0)
(0.000523537 0.000131369 0)
(-3.20399e-07 4.79283e-06 -2.84445e-23)
(-6.12015e-05 -5.83714e-05 9.96857e-22)
(8.32179e-06 -2.26951e-05 0)
(2.26054e-05 -6.43682e-05 3.03571e-21)
(-0.000337975 0.000665366 0)
(4.93337e-05 0.000821419 2.39948e-21)
(-0.000258638 0.000124959 6.58543e-22)
(-4.44547e-05 0.000100872 2.06969e-22)
(-0.000112162 4.40778e-05 0)
(-1.78842e-05 -5.23011e-05 -4.40041e-21)
(-1.08175e-07 6.11033e-06 2.12062e-21)
(-1.76169e-07 3.83798e-06 -2.02864e-22)
(-2.81427e-05 0.000186296 1.90177e-21)
(0.000895775 0.000884636 6.9669e-23)
(0.00449651 0.0025421 6.91551e-24)
(0.00144346 0.000642407 -4.25192e-22)
(6.28476e-05 -0.00131833 2.74915e-22)
(0.00123699 -0.000330556 1.55525e-22)
(-0.00102722 0.000829025 1.5445e-22)
(-0.000499063 5.52094e-05 3.71326e-23)
(-0.000135237 -1.55857e-05 -9.97784e-23)
(-0.000237849 -7.15345e-05 0)
(-0.000269745 0.000477401 1.95175e-21)
(-0.00187361 -0.000590649 0)
(-0.000102317 -0.000171235 -5.21034e-21)
(-0.00322443 -0.00125645 -4.1845e-22)
(0.000122751 0.000561586 2.69845e-21)
(-0.000152597 -0.000238471 -3.22138e-21)
(-0.0021062 0.000369095 -8.1253e-22)
(0.000155144 0.000530746 -4.04383e-21)
(-0.00352412 -0.00080162 -1.03809e-22)
(-0.00328399 -0.00231736 0)
(-8.74663e-05 -5.73444e-05 0)
(-0.00262408 0.000217931 0)
(-5.56307e-05 0.00010307 2.87781e-22)
(-0.00330566 -0.00121205 4.74978e-22)
(-0.0022414 0.000558636 1.03498e-22)
(0.00138794 -0.00131748 -1.20497e-22)
(0.000309197 0.000668225 -6.5618e-21)
(-0.00442608 -0.000775534 0)
(-0.00440727 -0.000582878 0)
(-0.000395167 -0.000484257 0)
(-0.000115505 3.53629e-05 -2.20165e-22)
(-0.00428466 -0.000864702 1.54984e-22)
(0.00103988 0.000838225 -1.57923e-22)
(0.00112837 -0.000366116 6.43682e-22)
(-6.63383e-05 0.000184657 2.41915e-21)
(-0.00322331 0.000342743 -8.11817e-22)
(-0.0034505 -0.00114516 0)
(-5.97785e-05 0.000191593 -1.27359e-21)
(-0.00206913 -0.000258823 0)
(0.00425917 0.00275874 5.14821e-23)
(-3.55979e-05 -2.20162e-05 -4.72572e-22)
(-0.00067759 8.26009e-05 1.55121e-22)
(0.00192819 0.000380982 -1.98272e-22)
(0.00315395 0.000160567 -1.08642e-23)
(-0.000286841 -0.00010948 3.29607e-22)
(-0.00166041 -0.00356913 1.11116e-22)
(-3.90398e-05 5.85559e-05 0)
(-0.000444064 -0.000691897 5.68859e-21)
(-0.00424264 -0.000878565 0)
(-0.00222647 0.00404891 0)
(-0.00480831 -0.000971166 0)
(-0.000709587 -0.000428046 -3.39733e-22)
(0.00113168 0.000624524 1.34774e-22)
(-0.000519962 -0.0029837 3.51989e-22)
(0.000234096 0.00259205 4.83844e-22)
(-0.00152938 -0.000995783 3.62381e-22)
(-0.00205123 -0.00374747 -3.20298e-23)
(-0.000196215 0.00069939 1.09752e-21)
(0.000700111 8.3221e-05 0)
(0.000388373 -0.00138648 2.98043e-22)
(-2.41537e-05 -6.06044e-05 2.21967e-21)
(-0.00437145 -0.00111436 1.73375e-22)