/*--------------------------------*- C++ -*----------------------------------*\
| =========                 |                                                 |
| \\      /  F ield         | OpenFOAM: The Open Source CFD Toolbox           |
|  \\    /   O peration     | Version:  v2012                                 |
|   \\  /    A nd           | Website:  www.openfoam.com                      |
|    \\/     M anipulation  |                                                 |
\*---------------------------------------------------------------------------*/
FoamFile
{
    version     2.0;
    format      ascii;
    class       volScalarField;
    location    "150";
    object      epsilon_0;
}
// * * * * * * * * * * * * * * * * * * * * * * * * * * * * * * * * * * * * * //

dimensions      [0 2 -3 0 0 0 0];


internalField   nonuniform List<scalar> 
14479
(
2.58037e-06
2.60552e-06
2.20272e-06
0.00261083
2.39248e-05
0.00303125
4.07339e-06
2.24832e-06
2.44191e-06
0.00456971
1.00372e-05
0.00254301
0.00260205
0.00333019
0.00269919
0.0239348
0.00070533
0.0201461
0.0227782
3.26685e-06
2.87604e-06
2.33332e-06
0.0212272
1.8601e-05
2.43169e-06
4.72676e-06
3.68639e-06
0.00460411
0.00289253
0.00289342
0.0508652
0.0026484
0.0211202
2.23293e-06
1.97908e-06
1.73965e-06
3.225e-06
0.0125408
2.22897e-06
2.93994e-05
0.00293621
2.23168e-06
2.4698e-06
2.05853e-06
0.0445484
3.26533e-06
0.00503755
0.00587388
2.0907e-06
6.51329e-06
2.74936e-06
0.0304057
3.62222e-05
6.02197e-06
2.0864e-06
2.74005e-06
4.56998e-06
0.00430413
1.73112e-06
5.40236e-06
2.21732e-06
2.05091e-06
0.000168527
7.57507e-06
0.0006376
0.00313687
2.1322e-06
2.44277e-06
0.0455867
0.0335768
0.00345207
3.69664e-06
0.00797189
0.0488449
2.90876e-06
2.46481e-06
0.00341566
0.0024191
0.0157972
0.00346346
0.0725181
3.60487e-06
2.00324e-06
3.65696e-06
1.74321e-06
3.06332e-06
5.04322e-06
2.95711e-06
0.0034481
2.6559e-06
0.00373025
0.00314124
0.00439345
0.0051235
1.95462e-06
0.020655
1.8516e-06
0.00360409
1.96663e-06
0.00623107
0.0484201
0.00454062
5.42839e-06
2.54915e-06
1.97716e-06
1.80345e-06
0.0010569
0.00877098
5.00662e-06
0.00273488
2.01268e-06
2.05676e-06
0.0273992
6.27158e-06
3.60499e-06
2.41418e-06
2.47156e-06
0.000117885
2.47085e-06
4.1181e-06
1.98437e-06
3.27107e-06
0.00263111
2.21005e-06
0.00380395
1.82036e-06
1.90087e-06
2.76217e-06
1.7872e-06
0.00418835
1.82273e-06
0.00267989
0.0577481
1.84321e-06
3.29325e-06
6.01803e-06
0.000168325
2.61219e-06
0.0302855
0.00264257
2.01006e-06
0.00372379
2.05574e-06
0.000248954
6.59268e-06
1.73477e-06
0.00825171
2.22005e-06
2.45398e-06
2.2895e-06
0.0196338
2.19575e-06
2.84732e-06
3.60042e-05
0.00034792
1.95789e-06
0.004372
4.11222e-06
0.022457
0.0170028
0.004477
0.0337465
0.0176201
4.8461e-06
0.00684173
0.00487872
1.70262e-06
0.0311879
2.77071e-06
1.85833e-06
1.81212e-06
3.00987e-06
2.75766e-06
4.06921e-06
2.80063e-06
2.98868e-05
3.03061e-06
1.84442e-06
8.38691e-06
2.45637e-06
0.000476024
2.93914e-06
2.48221e-06
0.00376079
3.11898e-06
4.37462e-06
2.46044e-06
2.41339e-06
0.000103334
0.000187292
3.21105e-06
0.00833337
2.01422e-06
4.11806e-06
0.00360065
0.0164294
0.000110255
0.0132445
2.19604e-06
2.8106e-06
2.41896e-06
0.00105994
0.0265848
4.1587e-05
0.00318111
2.42924e-06
2.63168e-06
4.18558e-06
1.83215e-06
4.92824e-06
0.00580864
0.00746431
2.4588e-06
2.44032e-06
2.69302e-06
6.67296e-06
0.00632384
0.00200732
3.26759e-06
2.45699e-06
7.67851e-05
0.00348653
0.00995768
2.03717e-06
0.00725431
0.00266417
2.2955e-06
2.0731e-06
5.15648e-06
2.97939e-06
2.50681e-06
3.94687e-06
2.4262e-06
0.00290556
2.41239e-06
2.42498e-06
4.40102e-06
0.00907216
3.25903e-06
2.3768e-06
0.00273353
5.48515e-06
2.01004e-06
5.00284e-06
0.00717933
0.00635651
2.02996e-06
2.63473e-06
0.0542812
0.00325995
2.26114e-06
4.70941e-06
2.82337e-06
1.81199e-06
0.00328567
5.18799e-05
3.17198e-06
0.00125697
4.78869e-06
2.20889e-05
0.0726288
0.0405205
0.00321117
3.3045e-06
3.16335e-06
2.47316e-06
3.1878e-06
0.00951225
0.0039488
0.043036
0.00903706
2.73844e-06
0.00367212
2.54261e-06
2.4444e-06
0.00519022
0.00915541
1.96468e-06
0.0030415
0.00467801
0.00402449
0.0030779
0.00469545
0.0755384
3.66639e-06
3.30816e-06
0.0167066
2.55963e-06
0.00763702
0.00329895
0.0128214
0.0106618
5.79989e-06
0.00364538
2.78231e-06
2.47706e-06
2.61695e-06
4.2001e-06
1.70708e-06
2.45156e-06
2.72469e-06
0.00286326
2.00188e-06
2.19186e-06
2.46717e-06
0.00259946
0.0229235
4.04e-05
1.91752e-06
1.87899e-06
0.00361414
1.01475e-05
1.23792e-05
2.21656e-06
2.36613e-06
4.06113e-06
0.00257391
3.22272e-06
3.05989e-06
2.61882e-06
2.45371e-06
3.27213e-06
2.50103e-06
0.00525156
0.000121978
0.0152307
0.0238224
1.5295e-05
0.00293108
2.34859e-06
1.9709e-06
2.22572e-06
0.0139906
0.00260368
0.00027886
2.48495e-06
2.38837e-06
6.49918e-06
3.01371e-05
2.97872e-06
0.0240137
2.13236e-06
0.0031524
2.25038e-06
0.0041537
1.71602e-06
0.00313256
0.00868069
1.73561e-06
3.03447e-06
0.00479171
0.0030602
2.21541e-06
2.72489e-06
0.00436126
3.10123e-06
2.12828e-06
0.00349755
1.90971e-06
2.53503e-06
2.50613e-06
0.00536949
0.00275067
2.49257e-06
0.00303684
2.03384e-06
4.70595e-06
0.00262366
0.00292337
0.028662
6.89216e-06
0.0161943
3.03495e-06
0.0365127
0.0239724
0.0424385
3.28333e-06
3.51604e-06
0.00834966
2.60254e-06
2.21462e-06
1.966e-06
1.28517e-05
4.57124e-06
0.0149092
5.54035e-06
3.14973e-06
2.84036e-05
3.14417e-06
6.62851e-06
3.0424e-06
2.09436e-06
0.0155362
0.00256792
0.0307996
0.00800216
0.00192169
0.0674415
2.37151e-06
3.62864e-06
0.0374184
0.00393898
0.00389791
2.20997e-06
0.00744593
1.87534e-06
0.00200559
0.00282419
6.7337e-06
2.13866e-06
0.00453942
0.00348235
3.08682e-06
3.57935e-06
0.0330003
2.32519e-06
0.00835848
4.21983e-05
3.68035e-06
2.36177e-06
2.19161e-06
2.60117e-06
0.0237239
5.4904e-06
0.021797
2.50719e-06
0.00361527
2.88318e-06
2.37385e-06
0.0120253
0.0927239
6.11476e-06
0.00208435
2.13698e-06
2.48917e-06
0.00786012
2.18533e-06
0.00789973
0.0144933
3.39279e-05
0.00371112
0.0046905
0.00241347
2.87962e-06
6.20975e-06
2.19008e-06
5.05615e-06
0.00414885
1.99825e-06
2.14338e-06
3.36808e-06
0.00288875
5.53205e-06
5.2887e-06
4.22857e-06
2.11258e-05
2.05558e-06
4.83616e-06
0.0249125
0.00365382
1.858e-06
2.74241e-06
0.0246162
1.61884e-05
0.0253858
0.00230043
2.18994e-06
0.00826879
0.00280813
1.79361e-06
1.82389e-06
2.87205e-06
0.00231926
0.0116128
0.00383102
0.00507277
0.00329257
0.00237665
3.46548e-06
6.12234e-05
2.29519e-06
0.00832383
2.39501e-06
3.49003e-05
1.94661e-06
5.82688e-06
2.19093e-06
0.0409302
0.00219822
0.00745294
0.0236036
3.52486e-06
2.35425e-06
0.00601944
0.00372012
1.98586e-06
2.56135e-06
0.00267896
1.19369e-05
2.06846e-06
2.41211e-06
1.3763e-05
2.16909e-06
2.80263e-06
0.00237964
0.00432307
0.0198731
2.10539e-06
1.9692e-06
0.00236734
2.45409e-06
2.8921e-06
1.94394e-06
0.00360275
2.07052e-06
3.23494e-06
3.61151e-06
3.03075e-06
0.00729354
9.05779e-06
0.0218285
0.00327525
0.0237715
0.00858009
0.00719983
0.0077059
1.85821e-06
1.84834e-06
0.0340138
0.00268467
3.37641e-06
1.02959e-05
0.024097
0.0220046
2.19699e-06
3.26425e-06
2.54297e-05
0.00523099
0.00699468
0.0189177
0.00391673
0.0136129
2.02076e-06
0.00487476
2.20991e-06
3.12355e-06
0.024947
3.33466e-06
2.13458e-06
2.01846e-06
2.12672e-06
4.77369e-05
2.12995e-06
3.12231e-06
0.00252235
2.64221e-06
0.00541666
0.00247018
0.00267854
0.00234348
2.5053e-06
0.003651
2.45206e-06
0.0074513
2.02206e-06
2.49031e-05
3.50744e-06
2.08281e-06
1.99666e-06
2.01593e-06
2.44837e-06
2.09529e-06
0.00630235
0.0257326
2.16458e-06
0.00250774
0.000113826
1.77145e-06
2.44399e-06
1.005e-05
0.00239912
1.79122e-06
2.93146e-06
1.86673e-06
0.0139603
2.03113e-06
2.07801e-06
0.00871562
0.00293409
0.00458723
4.64181e-06
3.65551e-06
2.9216e-06
0.0525876
0.00382914
0.0238885
2.52421e-06
3.32466e-06
2.40471e-06
2.76477e-06
0.0139765
3.13026e-06
0.0421585
0.019886
0.0870532
1.83575e-06
0.00284933
0.00376188
2.51359e-06
3.87315e-06
2.5668e-06
0.00276602
2.79043e-06
2.7711e-06
3.09912e-06
2.94333e-06
0.00295034
8.97274e-05
0.0181294
2.82478e-06
2.06098e-06
2.24215e-06
1.98373e-06
2.06724e-06
0.0133339
0.00606313
2.17209e-06
2.97723e-06
1.92845e-06
0.00833519
2.63873e-06
2.0065e-06
3.66566e-06
0.000491295
2.73655e-06
3.00756e-06
1.97353e-06
0.000155547
0.0389194
3.19284e-06
0.076362
6.15444e-05
3.03264e-06
0.0346889
0.00402232
1.76279e-06
2.37913e-06
2.51506e-06
2.01079e-06
0.0125457
0.0280331
4.9885e-06
2.96517e-06
0.00269844
0.00349081
0.0686134
0.0103728
3.04189e-06
2.91574e-06
1.86243e-06
0.0115358
2.52075e-06
1.98086e-06
0.00777876
0.00638484
1.92458e-06
2.51468e-06
0.00018523
0.0203061
3.00714e-06
2.547e-06
2.29822e-06
0.0027389
0.00267956
0.0324418
7.66539e-05
0.0103882
2.6166e-06
0.00440918
2.37895e-06
2.38572e-06
1.86725e-06
0.00323479
2.81635e-06
0.00325658
2.20253e-06
0.00498199
0.00489606
3.4513e-06
0.0312245
2.59079e-06
2.75781e-06
0.0130925
0.00010156
0.00221152
0.0260867
0.0111574
0.0248006
2.35697e-06
0.000177458
0.00501921
0.00642448
0.0216903
2.33321e-06
0.00743368
0.0228344
4.67056e-05
0.0217763
1.85784e-06
0.057761
2.83154e-06
2.42212e-06
0.00354451
0.00328547
0.00338551
1.94128e-06
2.62288e-06
0.00329762
0.00296745
6.88784e-06
0.000169336
0.00405186
2.40763e-06
0.0137128
0.0232276
2.47748e-06
0.0297242
0.00472032
0.020146
2.47147e-06
2.34852e-06
0.00763152
4.11684e-06
2.37431e-06
2.00278e-06
1.8151e-06
4.41927e-06
4.54941e-06
2.38001e-06
3.17413e-06
2.67268e-06
2.07857e-06
4.17556e-06
4.14987e-06
2.46658e-06
0.00817278
0.000110186
0.00288574
0.0034011
0.00262437
2.15993e-05
2.39726e-06
2.51748e-06
2.26337e-06
5.06701e-06
0.00382087
1.87019e-06
0.0029157
2.68201e-06
1.85979e-06
0.000288342
2.61825e-06
0.0043394
0.00517966
2.43903e-06
0.0371944
3.0719e-06
0.00291081
0.00341346
6.37945e-06
8.68778e-06
0.0031061
0.00312796
2.55043e-06
2.66261e-06
0.00491199
0.00692759
0.00262048
2.47694e-06
0.00330629
0.0293404
2.84752e-06
0.181581
7.08621e-05
2.43728e-06
2.69221e-06
0.00257082
1.23097e-05
2.20469e-06
0.0105892
3.11791e-06
0.0458863
0.00428401
0.00610623
0.0369999
0.0364243
0.00277231
0.000251302
5.78931e-05
1.00651e-05
0.0189086
4.22927e-06
2.82689e-06
4.60597e-06
1.99901e-06
0.00359314
0.0232472
2.41318e-06
0.0031885
0.0095277
0.0027917
0.0209278
2.34424e-06
2.44282e-06
0.00347616
0.00621858
7.12428e-06
0.00223306
2.59388e-06
0.0522989
2.425e-06
0.00329024
2.40916e-06
0.00413725
2.68496e-06
0.0120156
5.65905e-06
2.48718e-06
3.02277e-06
2.40529e-06
3.29237e-06
0.0236817
0.136998
0.0263048
0.00366792
6.26657e-06
0.00752204
2.43105e-06
0.00738108
0.00028605
0.00447901
1.71848e-06
2.56292e-06
4.6133e-06
0.00443871
2.28965e-06
0.0277869
9.80279e-05
2.45858e-06
3.16844e-06
0.0290175
5.68223e-06
0.000129044
0.00276539
0.00256928
2.63735e-06
0.00615435
1.99448e-06
2.42587e-06
2.76432e-06
1.7984e-06
2.38966e-06
2.15821e-06
0.00336233
1.98998e-06
0.00686646
1.93962e-06
2.48674e-06
2.39853e-06
2.25965e-06
0.00200812
0.0036517
0.0246078
0.00605391
0.00374216
0.0339303
3.01968e-06
0.0192911
0.02347
0.0132359
0.00454472
0.000652626
0.00368896
2.70773e-06
2.78449e-06
2.36744e-06
2.68872e-06
7.81023e-06
3.3073e-06
1.83799e-06
2.3515e-06
2.59548e-06
6.19018e-06
0.00562944
1.77908e-06
4.00711e-06
3.2863e-06
0.00608102
0.00558957
2.00792e-06
0.00313274
2.62764e-06
5.15882e-06
2.53792e-06
2.26899e-06
3.13596e-06
2.1363e-06
2.49711e-06
0.0243589
0.0142571
0.0030277
0.0246667
2.92699e-06
8.58842e-06
0.00357602
1.72384e-06
3.46692e-06
0.0676762
0.0160579
0.00493597
2.37625e-06
0.00809796
0.00458078
0.0020087
2.58241e-06
3.24569e-06
0.0160049
9.6561e-05
0.00247503
2.44902e-06
0.00796457
0.000136153
3.30389e-06
1.79944e-06
0.000217707
0.00520565
0.0258331
0.0318018
0.00578718
0.000128946
2.42808e-06
0.134486
4.08714e-06
2.53648e-06
2.56944e-06
1.88391e-06
0.0476779
0.00593364
3.8154e-05
3.24779e-06
0.0322697
1.85674e-06
0.00711264
0.0186955
3.12015e-06
2.27027e-06
3.68748e-06
0.00652684
3.31627e-06
2.50119e-06
1.81978e-06
0.0246201
2.05168e-06
4.11674e-06
0.00120829
0.00552432
7.32247e-05
2.59749e-06
2.52568e-06
2.24009e-06
0.0464744
0.0041726
0.0232606
3.96719e-06
2.07612e-05
0.00498055
1.84744e-06
2.22664e-06
2.51455e-06
0.143304
3.26337e-06
0.00271657
2.36914e-06
0.00276898
4.11746e-06
2.12485e-06
7.04904e-05
3.30697e-06
3.49634e-06
7.96284e-05
2.86738e-06
2.29487e-06
0.00315346
0.00313631
2.92224e-06
0.0026578
2.39465e-06
1.83723e-06
2.67404e-06
2.15152e-06
0.00301278
2.77098e-06
0.00983523
2.02944e-06
0.00358315
2.70395e-06
2.70888e-06
0.0032131
3.06463e-06
2.36657e-06
0.00947493
0.00826267
4.0964e-06
0.0124593
3.48355e-06
0.0645064
2.04509e-06
2.40004e-06
0.0104761
5.02874e-06
3.45513e-06
2.5825e-06
0.00483329
2.89623e-06
0.030711
0.0315572
4.57945e-06
2.48899e-06
0.00339395
0.0111823
0.0168548
2.44894e-06
3.2414e-06
3.93882e-06
2.02726e-06
2.0894e-06
3.27871e-06
0.0173612
3.03211e-06
0.00224675
1.81559e-06
0.00240026
0.0387854
5.39845e-05
5.66119e-05
0.000540566
2.81989e-06
8.44206e-06
2.84273e-06
0.0232961
0.00302302
1.77233e-06
0.00221948
0.00498543
3.77094e-06
0.00156715
0.00209428
0.0195795
0.000225449
2.72457e-06
4.77608e-05
2.9724e-06
3.07368e-06
2.41403e-06
2.91311e-06
0.0262569
0.0200955
0.00380947
0.00289934
0.0240722
0.00919165
0.00377626
0.000685272
3.73322e-06
2.61816e-06
0.0676664
0.0204827
0.0639105
2.79625e-06
4.15928e-06
0.00889176
2.04886e-06
2.77749e-06
3.1291e-06
3.24795e-06
2.53826e-06
0.00936422
2.37373e-06
8.39998e-06
2.44142e-06
0.00613426
2.93017e-05
0.00981995
4.01e-06
2.60025e-06
5.3455e-06
0.000163309
2.39278e-06
2.6315e-06
2.38861e-06
2.4209e-05
0.0122482
1.94189e-06
2.52007e-06
2.4968e-06
0.00263684
2.99725e-06
3.17611e-06
0.00151608
0.0263741
0.00294841
2.38075e-06
0.0444369
1.83023e-06
3.97979e-06
0.00233371
1.20782e-05
5.02236e-06
3.24617e-06
1.12537e-05
0.00470446
0.00364021
0.00418965
2.55527e-06
1.80065e-06
0.0188775
0.00550347
3.66616e-06
0.00376643
2.958e-06
3.90588e-06
2.42703e-06
0.00770521
1.85234e-06
0.00801537
1.31368e-05
2.17759e-06
0.00686363
8.56264e-05
0.00688917
4.06961e-06
2.29572e-06
0.00104064
2.52311e-06
0.00666553
0.00399847
0.0027516
2.38977e-06
4.04732e-06
2.15498e-06
7.30695e-05
2.76989e-06
1.97883e-06
1.31283e-05
3.13576e-06
3.29678e-05
2.30196e-06
1.89406e-06
0.000578147
0.00399912
0.0194062
0.00470131
0.00111455
1.95577e-06
2.97077e-06
3.46116e-06
2.39044e-06
2.04222e-06
0.0303705
2.42018e-05
2.29512e-06
2.3803e-06
2.49129e-06
0.00640411
6.25743e-06
2.05279e-06
0.0029732
0.00226031
0.00519882
2.73675e-06
2.30751e-06
1.73529e-06
0.0537659
0.000333166
0.00964162
7.96704e-05
0.0211291
3.62673e-06
2.01727e-06
2.02524e-06
2.31442e-06
0.018577
0.0228978
0.00249963
2.27228e-06
2.55782e-06
2.50736e-06
2.28752e-06
1.80246e-06
2.16681e-06
2.51821e-06
0.00510008
0.000108196
3.56798e-06
0.00295131
0.00413045
1.89175e-06
2.12632e-06
0.0122355
1.88498e-06
2.39818e-06
0.00703688
3.18083e-06
2.43746e-06
2.16995e-06
0.00276385
2.97595e-06
0.00447481
4.46497e-05
3.43784e-06
3.04475e-06
0.00369026
0.10293
0.013259
2.36044e-06
3.30428e-06
5.79259e-05
2.2738e-06
2.46272e-06
0.00814182
2.68365e-06
0.000869098
1.15316e-05
0.00373384
2.47352e-06
0.0221053
2.19771e-06
1.65313e-06
7.11005e-05
0.00798659
2.53057e-06
0.0155536
3.10883e-06
2.02631e-06
0.0183924
1.75858e-06
3.19816e-06
0.00266611
0.0303008
0.00751079
0.00409561
2.03211e-06
4.05744e-06
0.00189413
0.00844484
0.00490076
2.38747e-06
2.22741e-06
5.18179e-06
2.0071e-06
2.28602e-06
2.15143e-06
1.82327e-06
0.00231091
2.28392e-06
3.14005e-06
0.00253324
0.000631516
0.000118576
0.00417198
2.05666e-06
4.06207e-06
0.0299464
3.07956e-06
0.0219871
5.64106e-06
0.00363407
0.000170093
2.53563e-06
2.32396e-06
0.0334322
0.0306959
2.34196e-06
0.00309203
0.00455922
0.0170025
2.30346e-06
1.81717e-06
5.43942e-06
0.00710408
0.00587318
0.0036929
0.0203229
2.04176e-06
3.57687e-06
0.0112784
4.55763e-06
0.00335791
0.000139213
2.2521e-06
0.0215707
4.26007e-06
3.30672e-06
0.00308831
2.87937e-06
1.75874e-05
2.36756e-06
2.63621e-06
2.869e-06
6.35037e-06
2.08777e-06
0.00371924
0.0433244
0.00973047
3.50943e-06
2.61135e-06
2.49211e-06
2.31743e-06
0.00991715
2.51371e-06
3.25655e-06
2.41077e-06
0.0132272
3.15515e-06
9.71619e-05
2.47987e-06
0.00204784
0.00471355
0.00592746
0.0128689
0.000735147
0.00263769
2.07611e-06
3.27008e-06
0.000454685
2.37503e-06
0.0199226
0.00334366
3.18618e-06
2.35058e-06
2.12633e-06
3.26667e-06
0.00321926
8.55694e-06
0.00331616
1.85726e-06
3.11347e-06
3.4559e-06
0.00251845
1.84306e-06
2.17415e-06
0.0179006
1.73924e-06
0.00363001
2.38716e-05
1.23567e-05
0.00391685
0.0131071
2.30963e-06
2.22602e-06
0.036709
2.75114e-06
0.0491769
2.42461e-06
0.00363635
3.58216e-06
0.0108192
0.00370315
5.0908e-06
0.00284617
0.0036254
0.00318187
2.4446e-06
0.0173292
0.000188169
0.00339968
3.22777e-06
2.51737e-06
3.06426e-06
0.000118801
0.000127519
1.1388e-05
2.3136e-06
8.93681e-06
2.0495e-06
2.52738e-06
0.00467908
3.08522e-06
2.64816e-06
0.00252482
2.35678e-05
0.0350698
3.13134e-06
0.00648807
2.97041e-06
0.00294941
3.43147e-06
1.91699e-06
2.43182e-06
0.008322
3.05952e-06
0.141333
0.00338891
5.62837e-06
2.8015e-06
0.0185819
0.00336835
3.15976e-06
2.8609e-06
0.00260172
0.000340747
2.19978e-06
2.1484e-06
0.00868358
0.0045276
8.60502e-06
0.000635665
9.24799e-06
1.92852e-06
0.00290678
0.000463235
0.00809279
0.0281827
0.00469451
0.0333785
0.0804421
2.27803e-06
0.000760617
0.00107757
2.23437e-06
0.0228378
4.06621e-06
0.0274965
0.00214429
0.00355204
3.0506e-06
1.90845e-06
3.00575e-06
2.4185e-06
0.0029837
2.66926e-06
0.000187276
2.00914e-06
9.85343e-06
0.00413365
2.45234e-06
1.86606e-06
2.27494e-06
2.47264e-06
2.8695e-06
0.00438422
0.0165724
2.47246e-06
2.20207e-06
1.9835e-06
0.0324188
0.00531981
0.0215084
1.16724e-05
3.03557e-06
2.2059e-06
0.0232731
1.81804e-05
0.0135239
0.00355903
2.66197e-06
5.65466e-05
0.0190602
0.00904642
4.14726e-06
2.99929e-06
2.46332e-06
3.33574e-06
0.00430041
1.714e-06
5.31487e-06
2.42316e-06
2.102e-06
2.01821e-06
0.00485976
3.02376e-06
0.00310943
2.08516e-06
2.12551e-06
0.00332534
2.92244e-06
0.00445257
0.00373754
5.40468e-06
0.012843
2.28092e-06
0.00310353
0.00960424
0.00458329
0.00875197
0.00288738
0.00784133
0.00212046
0.00268403
5.91736e-06
0.128275
3.32657e-06
0.0273523
8.77605e-06
3.56721e-06
0.0038575
0.0132196
0.0146296
5.42877e-06
0.0049965
0.0206534
0.0558072
0.00276336
0.0177171
0.00473102
3.34286e-06
0.000131494
2.56316e-06
0.00364503
0.00514972
2.23039e-06
0.00833254
0.00115745
2.23236e-06
0.0299003
2.79972e-06
6.58481e-06
0.00528942
2.17428e-06
0.121224
0.062361
5.82302e-05
0.0154001
2.47003e-06
4.2617e-06
0.00241006
3.99612e-06
6.65713e-05
3.62739e-06
2.53434e-06
0.0223617
6.13771e-05
0.00303243
0.0054872
1.06686e-05
0.00375844
0.000105533
1.18147e-05
0.0486036
0.0233238
3.50006e-06
3.4934e-06
2.47327e-06
0.00368888
0.0197244
2.39963e-06
0.00367896
2.93376e-06
0.00660348
0.00387729
0.0152664
0.0105316
1.90955e-06
0.0025767
2.46358e-06
0.0519165
0.0140073
0.00425415
2.48237e-06
0.00980345
1.98973e-06
4.62921e-06
0.0214286
1.04187e-05
0.012258
4.96891e-06
2.49324e-06
0.00361522
0.0141681
0.0572212
2.65391e-06
2.88171e-06
0.00560888
4.11017e-06
2.79801e-06
1.94518e-06
2.64201e-06
0.0562317
0.051206
1.69575e-06
0.00457108
0.003709
2.78516e-06
2.42861e-06
2.41427e-06
3.49334e-05
2.42198e-06
2.94487e-06
2.88845e-06
0.006467
0.00395397
0.00374227
1.84227e-06
0.00555065
0.00441375
0.000573877
2.95111e-06
1.91786e-06
2.09407e-06
6.85724e-06
3.82875e-06
0.0113046
4.59847e-06
2.13468e-06
3.37852e-05
2.49158e-06
3.46585e-06
1.88491e-06
5.47814e-06
3.75039e-06
0.00364255
0.00171032
3.54198e-06
0.00440718
2.11094e-06
3.09923e-06
7.68749e-06
2.03464e-06
2.14059e-06
0.0030088
2.11896e-06
4.03618e-06
0.00385202
0.0837638
2.21073e-06
0.00466839
2.8032e-06
0.00470701
1.37115e-05
0.00379269
0.00391796
3.25164e-06
0.0219531
2.21839e-06
2.85433e-06
0.0101659
0.0167016
3.01055e-06
0.00909823
0.0300874
5.30126e-06
2.89307e-06
3.07832e-05
0.00975732
6.54044e-06
0.00347151
0.00361891
2.69444e-06
0.00475177
2.58758e-06
0.00361018
0.0341967
2.89786e-06
0.00355761
2.17741e-06
2.84299e-06
2.16742e-06
3.10319e-06
5.89055e-05
0.0143834
2.21316e-06
8.95074e-06
4.61039e-05
2.52677e-06
2.44028e-06
0.00356531
1.92788e-06
0.00477624
0.0346745
2.33707e-06
2.19001e-06
2.76832e-06
0.1027
3.47299e-06
2.28204e-06
2.46274e-06
0.0239094
0.00056928
0.00883448
2.41481e-06
0.00656327
0.0190337
0.00467569
2.07378e-06
0.0339229
8.43179e-06
0.00367422
2.42637e-06
0.0415494
0.00325503
0.00489354
6.04684e-06
3.19258e-06
3.93356e-06
3.54779e-06
0.00426703
4.05773e-06
0.00415711
2.63059e-06
0.00285764
2.41516e-06
0.0051774
5.49212e-06
1.74098e-06
2.2181e-06
0.00351303
0.0329592
0.00453967
0.0129721
0.00307433
0.00300868
0.010411
3.5932e-06
2.33061e-06
1.92079e-06
2.41896e-06
0.0433586
6.86898e-05
2.66944e-06
2.35208e-06
0.0271975
0.00551022
0.00310681
0.00324055
0.00996479
1.91666e-06
2.25621e-06
2.02169e-06
4.82577e-06
0.00469528
2.67504e-06
0.00350138
3.39758e-06
0.00234918
0.00165493
1.79103e-06
0.00822963
0.0252241
0.00289887
0.00279334
2.50432e-06
8.62306e-06
2.42223e-06
2.39395e-06
4.63316e-06
0.00981037
2.70439e-05
2.2203e-05
2.86859e-06
3.01592e-06
2.68665e-06
0.0293235
0.0252591
1.48361e-05
3.02479e-06
1.7123e-06
2.64723e-06
0.0477861
0.000195756
2.44174e-06
4.04703e-06
0.0045035
0.0338026
2.81905e-06
0.0464345
0.00350795
2.93312e-06
0.0113453
7.27799e-06
3.13784e-06
2.58713e-06
1.7742e-06
1.69734e-06
0.021302
2.54933e-06
1.78434e-06
2.80604e-06
2.56501e-06
2.87125e-06
2.41833e-06
0.00224126
2.46946e-06
0.00498606
0.0149878
2.44539e-06
0.0201034
0.00383067
0.00525588
1.96466e-06
0.00359982
0.190731
0.00899686
0.0578541
4.06149e-06
4.242e-06
0.00203252
3.42676e-06
4.74333e-06
2.41512e-06
2.41011e-05
3.90244e-06
1.91444e-06
3.28466e-06
0.016364
7.16287e-06
4.76578e-06
1.8688e-06
0.000111471
2.62998e-06
0.0081776
0.00283307
0.00296558
0.0405006
4.12343e-06
2.05637e-06
2.98029e-06
0.00447894
2.22166e-06
4.08108e-06
3.24253e-06
0.115418
0.0333552
0.00375927
1.81094e-06
0.00472527
0.100337
2.32922e-06
0.00197641
1.26678e-05
0.00916635
0.00522871
2.3366e-06
2.48321e-06
0.00707332
0.00268671
0.00223175
0.00253688
0.00313853
3.18163e-06
0.00835265
0.0212347
0.00117411
0.00436543
1.84554e-06
2.14488e-06
2.52661e-06
2.28642e-06
5.55623e-06
0.0906812
6.19686e-06
2.4371e-06
3.43486e-06
0.0481381
0.00469482
1.96669e-05
0.00333475
2.54981e-06
0.00394419
0.00566491
2.24544e-06
0.0172192
0.00354624
0.00295458
2.82205e-06
0.0218094
2.97041e-06
2.1722e-06
0.00905153
0.00346469
3.65381e-05
5.02607e-06
0.00292117
0.0477693
0.00311047
2.59641e-06
0.0917442
0.0163448
7.60872e-05
0.0891276
2.45632e-06
0.00142107
2.61662e-06
2.39592e-06
2.38315e-06
4.05607e-06
2.3163e-06
3.16547e-06
3.28733e-06
1.20827e-05
2.47009e-06
0.0128792
2.443e-06
2.27936e-06
1.82805e-06
2.03682e-06
0.0426552
2.30247e-06
0.00334649
0.00336907
5.81854e-06
2.38284e-06
0.0029077
0.00484835
1.9219e-06
2.71278e-06
2.19755e-06
1.89188e-06
0.0245474
0.000795935
0.00367377
0.00432496
0.0148723
2.93894e-06
0.0123907
1.96041e-06
2.56035e-06
0.00357539
0.00261809
1.87296e-06
2.54279e-05
4.29657e-06
2.48523e-06
8.34268e-06
2.00543e-06
0.0312036
1.75199e-06
0.0623476
0.00815426
2.4208e-06
0.00367205
2.901e-06
3.43624e-06
0.017304
2.32413e-06
0.00235087
0.00279326
0.00457203
2.75617e-06
3.83994e-06
4.01916e-06
2.3219e-06
2.50579e-06
0.0396147
2.77298e-06
2.73471e-06
2.31661e-06
3.15487e-06
0.00254303
0.0312832
2.72539e-06
3.21205e-06
0.00619957
0.0242023
2.85058e-06
0.00787174
1.97691e-06
2.40354e-06
3.62214e-06
3.39384e-06
1.85184e-06
2.61289e-06
0.00672155
5.1693e-06
0.0209593
0.00366252
0.00396395
0.00317619
2.72894e-06
2.42283e-06
2.28335e-06
3.42376e-06
8.25282e-05
0.00434596
0.00856669
2.43069e-06
0.0036636
2.30651e-06
9.03077e-06
0.00329457
0.0028154
0.0040149
0.0019581
0.00380046
0.0670984
2.32083e-06
3.30587e-06
0.00272614
1.76266e-06
3.99451e-06
3.01032e-06
0.0155516
0.00578936
3.2903e-06
0.0036061
3.51097e-06
0.00500858
3.87741e-06
0.00311732
0.00323401
0.0255277
2.42268e-06
2.94447e-06
0.025069
2.87011e-06
1.34469e-05
8.38192e-06
2.3404e-06
8.8372e-06
2.42533e-06
0.0109672
0.0228003
0.00436646
2.04027e-06
1.68747e-06
0.025723
0.0130182
0.00511259
2.2868e-06
0.00576255
0.00449665
0.00380771
0.0159986
0.00314435
1.95079e-06
0.00519863
0.00335175
0.00887219
2.60235e-06
0.031686
2.2929e-06
0.000115827
0.00275591
0.046811
0.00330158
2.25237e-06
2.5796e-06
3.73342e-06
0.00301538
2.08463e-06
0.00907956
1.80096e-06
5.48901e-05
0.0178235
2.72922e-06
3.71394e-06
6.50853e-06
2.34933e-06
1.87779e-06
0.0326448
0.00292673
2.74458e-06
1.7957e-06
0.00383697
2.31388e-06
3.3793e-06
2.53927e-06
0.0027024
0.00364794
0.00272199
2.49422e-06
0.039983
4.02113e-06
0.0175963
0.0134287
2.90934e-06
2.88813e-06
2.34894e-06
0.0153545
3.18724e-06
4.10831e-06
0.0303116
2.42498e-06
0.0288832
2.26591e-06
2.40518e-06
2.78631e-06
3.39206e-06
1.97778e-06
1.754e-06
0.000447809
0.00309647
5.16493e-05
2.33257e-06
4.1538e-06
0.0130319
0.00927259
0.00389204
0.0145417
2.82569e-06
0.022551
3.23484e-06
0.0137542
2.03576e-06
0.0228918
2.44043e-06
5.9334e-06
2.02616e-06
0.00432924
3.28832e-06
0.00279887
0.101731
2.49468e-06
6.01553e-06
0.00372454
2.41249e-06
2.51011e-06
2.87008e-06
0.0403855
2.20024e-06
0.000149192
2.17299e-06
2.30247e-06
0.00433777
0.00874305
0.00341089
2.83926e-06
2.42772e-06
0.0266819
3.43557e-06
2.7687e-06
0.0193416
0.0311906
0.00299666
2.58164e-06
2.45846e-06
3.44063e-06
0.0134794
2.93772e-06
2.53243e-06
0.0136451
0.000574638
2.66936e-06
0.00478772
6.55645e-06
2.35691e-06
2.18689e-06
3.79457e-06
0.00295116
3.23311e-06
2.25619e-06
3.72079e-06
9.78072e-06
3.61624e-06
3.22405e-06
2.5012e-06
0.0150121
2.16963e-06
1.80281e-06
2.79498e-06
7.58532e-06
2.56312e-06
0.00245392
0.0098601
1.87608e-06
3.58294e-06
4.1447e-06
9.02965e-06
4.66834e-06
0.0720753
0.00411805
2.53874e-06
0.00249255
2.79821e-06
0.0176996
0.0021792
0.00405679
2.29224e-06
0.00718589
3.19523e-06
2.34824e-06
2.997e-06
2.70573e-06
2.00587e-06
0.00359921
2.34641e-06
2.2149e-06
6.70202e-06
0.0132569
2.3466e-06
2.78776e-06
0.0150476
2.04437e-06
0.00125823
2.51095e-06
0.00265303
2.40035e-06
0.00102224
0.000250731
8.53035e-06
2.47548e-06
2.43051e-06
0.00274095
0.00910092
0.0198335
2.47176e-06
2.70327e-06
0.0780856
2.64007e-06
1.89068e-06
3.84483e-06
2.48283e-06
2.52512e-06
6.41945e-06
2.87577e-06
0.00261993
0.011092
0.0612168
1.77276e-06
0.0029242
0.00343935
0.018144
0.00277918
2.41789e-06
3.40695e-06
2.00829e-06
0.0209759
0.000246261
2.47456e-06
0.0364382
0.00460665
2.44385e-06
2.59637e-06
0.00407393
0.00311002
2.64549e-06
0.0764071
3.04284e-06
0.00402298
2.17462e-05
0.0583937
1.92718e-06
2.82003e-06
0.0036779
4.06224e-05
0.00323446
0.0211678
0.00275345
2.355e-06
1.85933e-06
2.84615e-06
2.09408e-06
2.54247e-06
0.00375301
0.02272
4.06703e-06
1.72964e-06
9.28548e-06
0.00231228
0.00327693
1.96888e-06
0.00336031
2.1395e-06
0.0157668
3.59245e-05
0.00640122
1.98041e-06
2.43218e-06
0.00269637
0.0749556
0.0197211
0.00738986
1.69414e-05
0.00309351
0.0312135
1.68209e-06
0.0027856
1.9408e-06
3.07996e-06
2.74415e-06
0.00272895
5.78153e-05
1.84643e-06
2.96587e-06
0.0328742
2.54207e-06
6.97615e-05
2.05436e-06
2.7605e-06
6.07048e-05
0.00628095
2.63207e-06
0.00237417
0.000447351
2.74093e-06
2.52433e-06
1.55774e-05
7.4424e-06
3.50893e-06
0.0104438
2.19525e-06
0.0016062
0.00667734
4.14791e-05
2.4376e-06
0.00624543
2.3902e-06
4.68083e-06
2.06438e-06
0.000295587
0.00165206
2.70427e-06
6.76278e-05
0.0202937
2.28244e-06
3.27249e-06
2.55391e-06
0.109031
0.0224818
0.00322443
4.63803e-06
0.000107065
0.0521016
0.00465431
2.0784e-06
0.00985082
0.0004356
4.40198e-06
0.00405118
0.000101476
0.00991843
0.00317862
0.00463242
2.29443e-06
0.00885573
0.0983894
0.0785795
0.010143
0.0131835
2.44046e-06
1.97395e-06
0.00321851
0.0151928
3.02656e-06
2.73975e-06
0.0404254
4.05348e-06
0.00295152
0.00741013
0.0238583
0.00986018
2.32388e-06
0.000464721
0.0235183
2.10783e-06
4.06596e-06
2.15579e-06
0.000206104
0.00285985
0.0093626
0.00490154
0.0042758
1.94278e-06
0.0030612
0.00289754
0.00289485
4.43831e-06
3.50881e-06
0.00318741
0.0474205
2.59325e-06
0.00453989
6.40749e-06
3.15062e-06
2.47843e-06
0.0256438
0.00667778
3.02898e-06
2.32194e-06
1.85845e-06
2.79167e-06
0.00142223
0.004256
2.51803e-06
0.0158552
8.28429e-05
3.00359e-06
0.00538053
1.79306e-06
2.44477e-06
0.120109
3.53956e-06
2.43359e-06
0.00275561
2.24892e-06
5.55712e-06
2.3952e-06
2.41686e-06
0.0103773
2.71978e-06
0.0295383
0.00584665
0.0124025
0.00456421
1.67987e-06
0.0237715
2.4761e-06
0.00394386
3.2043e-06
0.030587
0.00370574
2.38123e-06
0.00872822
0.00395493
2.19733e-06
3.82674e-05
2.12368e-06
0.00527994
0.000130727
2.46543e-06
3.11036e-06
3.08088e-06
4.11309e-06
0.00270643
2.58966e-06
2.84341e-06
2.09617e-06
0.0240883
6.59284e-05
1.95435e-06
1.86009e-06
0.0623037
2.45286e-06
0.0058196
2.40438e-06
2.409e-06
2.42904e-06
3.48711e-06
2.88201e-06
4.62678e-05
2.21961e-06
0.00414102
2.24956e-06
2.1457e-06
0.000731193
0.0035195
2.4949e-06
0.0224289
1.83967e-06
2.42717e-06
3.12431e-06
0.000304434
0.000289419
1.13957e-05
0.0128607
3.17207e-06
5.86808e-06
0.000142434
0.00105013
0.00965618
2.93672e-06
0.00830019
0.00532016
4.72573e-06
0.00348342
2.42756e-06
4.02643e-06
0.0676593
1.75934e-06
2.36135e-06
0.00183648
0.00311722
2.67014e-06
3.90826e-06
0.00390279
2.49784e-06
0.00270632
0.00299784
0.00360923
0.000824064
2.45104e-06
0.0019968
2.14267e-06
2.49311e-06
0.000227353
3.23063e-06
4.11292e-06
2.27367e-06
2.09892e-06
2.17049e-06
2.84361e-06
2.67389e-06
2.3464e-06
2.29141e-06
2.77366e-06
1.88742e-06
2.81712e-06
0.000156105
0.00350459
2.19479e-06
1.7349e-06
3.04007e-06
0.00572034
1.92443e-06
1.88215e-06
2.19432e-06
0.00175462
1.70761e-06
0.0231973
1.87563e-06
3.44799e-06
2.47702e-06
3.06248e-06
6.21052e-06
1.95442e-06
4.67422e-06
1.97355e-06
0.00406192
0.0179063
3.3669e-06
3.46499e-06
1.90558e-06
0.0051321
0.00204927
0.00680687
9.66231e-06
3.67889e-05
2.30926e-06
2.38985e-06
0.000155607
0.00217858
0.00305397
3.7144e-06
0.0153637
2.48662e-06
7.77581e-05
2.35139e-06
7.34869e-05
3.92808e-06
0.0107163
2.48281e-06
3.05629e-06
3.03596e-06
3.43386e-05
0.0144311
1.93076e-06
0.00495521
0.0151896
0.00286298
0.000754839
2.29568e-06
2.28329e-06
3.56125e-06
0.00452246
1.96369e-06
4.64334e-06
0.00432025
2.68027e-06
1.94973e-06
2.43792e-06
1.98806e-06
0.00293259
2.42086e-06
2.33692e-06
0.00204083
2.95619e-06
2.008e-06
3.3107e-06
1.98252e-06
1.21796e-05
2.77131e-06
3.70737e-06
2.13221e-06