/*--------------------------------*- C++ -*----------------------------------*\
| =========                 |                                                 |
| \\      /  F ield         | OpenFOAM: The Open Source CFD Toolbox           |
|  \\    /   O peration     | Version:  v2012                                 |
|   \\  /    A nd           | Website:  www.openfoam.com                      |
|    \\/     M anipulation  |                                                 |
\*---------------------------------------------------------------------------*/
FoamFile
{
    version     2.0;
    format      ascii;
    class       volScalarField;
    location    "150";
    object      k_0;
}
// * * * * * * * * * * * * * * * * * * * * * * * * * * * * * * * * * * * * * //

dimensions      [0 2 -2 0 0 0 0];


internalField   nonuniform List<scalar> 
14479
(
0.000120961
0.000119989
0.00010673
0.0214442
0.000565002
0.013406
0.00014559
0.000106886
0.000111657
0.0468507
0.000308266
0.0204269
0.0114374
0.00969465
0.0191297
0.032285
0.00395919
0.00951578
0.0802734
0.000146238
0.000121439
0.000109265
0.0288416
0.000475346
0.000111394
0.000182655
0.000152929
0.0471918
0.0106245
0.0202993
0.0525695
0.0190523
0.0782382
0.000106502
0.000100292
9.3659e-05
0.000128914
0.0240916
0.000107342
0.000646677
0.0196646
0.00010733
0.000114225
0.000102864
0.041987
0.000144165
0.00378554
0.0191707
0.000103225
0.000228319
0.00011868
0.0883825
0.000773786
0.000220527
0.000103105
0.000118515
0.00017923
0.0428454
9.34756e-05
0.000205255
0.00010713
0.000102023
0.00229367
0.000256992
0.00396983
0.0277033
0.000106153
0.000113135
0.0827868
0.0825211
0.0300365
0.000159647
0.0443406
0.0686825
0.000122194
0.000112197
0.0297043
0.0183262
0.075742
0.0289239
0.0802927
0.000136626
0.000102572
0.000158155
9.39524e-05
0.000137839
0.000199445
0.000123256
0.028706
0.00011661
0.0386282
0.0286312
0.0131935
0.0323262
0.000101432
0.0792889
9.68667e-05
0.03713
0.000101118
0.0556034
0.0521868
0.0445138
0.000205632
0.000114119
0.00010148
9.55095e-05
0.00628172
0.0461693
0.00019143
0.0188436
0.000102198
0.000102439
0.0396169
0.000226617
0.000150448
0.000111632
0.000112348
0.00181484
0.000112629
0.000172665
0.000100433
0.000129889
0.0202397
0.000107547
0.0328644
9.58388e-05
9.87902e-05
0.000118995
9.49418e-05
0.0418933
9.59488e-05
0.00994548
0.0736816
9.64583e-05
0.000145537
0.000217004
0.00239622
0.00011567
0.0882219
0.0219248
0.000101035
0.0107897
0.000102828
0.00288151
0.000233647
9.37127e-05
0.0557861
0.000106298
0.000116593
0.000108248
0.0773864
0.00010659
0.000120839
0.000684613
0.00256368
0.000102294
0.0457649
0.00014632
0.0907211
0.0777623
0.0466996
0.083207
0.0781541
0.000193755
0.056702
0.0223129
9.25921e-05
0.0427379
0.000119164
9.71054e-05
9.57159e-05
0.000136095
0.000118903
0.000171173
0.000119896
0.000663361
0.000124838
9.68259e-05
0.00027358
0.000112165
0.00469774
0.000122841
0.000112859
0.0149335
0.000126723
0.000173296
0.000113901
0.000111911
0.0016415
0.00311826
0.000128662
0.0646786
0.00010254
0.000146423
0.0108902
0.0762739
0.00171241
0.0804118
0.000107478
0.000120112
0.000111647
0.0052326
0.0676589
0.000833106
0.0125033
0.000111824
0.000116099
0.000174084
9.64759e-05
0.00018812
0.0431605
0.0640409
0.000112301
0.00011307
0.00011742
0.000238718
0.0569733
0.00785338
0.000129826
0.000116505
0.00131124
0.0337269
0.0697535
0.000103905
0.0253933
0.0225537
0.000108419
0.000102806
0.000194011
0.000123737
0.000113348
0.000143191
0.00011403
0.00926645
0.00011176
0.000111751
0.000174938
0.0268831
0.000129669
0.000110184
0.0235316
0.000208073
0.000102269
0.000189563
0.0621303
0.0452376
0.000101475
0.000116119
0.0475042
0.0283292
0.000107202
0.000186687
0.000120331
9.56184e-05
0.0273143
0.000806544
0.000127839
0.00731673
0.000182667
0.00053363
0.081143
0.085972
0.0120767
0.000145922
0.00012769
0.000115751
0.000128182
0.0680958
0.0304829
0.0806968
0.0582389
0.000118471
0.0204441
0.000114097
0.000111967
0.0140278
0.0464603
9.99089e-05
0.0272513
0.0413508
0.0191072
0.0278334
0.0484304
0.0808668
0.000137818
0.000130678
0.0340452
0.00011447
0.0388214
0.0127584
0.0253315
0.0171249
0.000211393
0.0118456
0.000119446
0.000117268
0.000115743
0.000167716
9.27047e-05
0.000114164
0.000118138
0.0256379
0.000100745
0.000109832
0.000116806
0.0087911
0.090654
0.000815341
9.89558e-05
9.82244e-05
0.0348912
0.000310186
0.000363387
0.000106227
0.000109933
0.000145386
0.0209361
0.000139496
0.00012546
0.000115713
0.000112199
0.000129913
0.000113219
0.016575
0.00132788
0.0226399
0.0807869
0.000421623
0.0257438
0.000109375
0.000102737
0.000111335
0.0818669
0.0105283
0.0020768
0.000112614
0.000111924
0.000232626
0.00065512
0.000133606
0.0796491
0.000106078
0.0132226
0.000106937
0.0315682
9.29614e-05
0.028606
0.066203
9.35155e-05
0.000135464
0.0310144
0.0268427
0.000107002
0.000118118
0.015897
0.000126324
0.000103962
0.0340138
9.90301e-05
0.000113828
0.000113162
0.0387163
0.0213546
0.000112848
0.0264283
0.000103502
0.000179688
0.0102674
0.0248061
0.0700062
0.00024643
0.063748
0.000137327
0.0516207
0.0481763
0.0853627
0.000146792
0.00014756
0.0202728
0.000115406
0.000106141
0.000101773
0.000369176
0.000177981
0.0612255
0.000206225
0.000127355
0.000622535
0.000127282
0.000238112
0.000135853
0.000105808
0.0279101
0.0078313
0.0785758
0.0663353
0.0118666
0.0295542
0.000109865
0.000137095
0.0854957
0.0192244
0.0299021
0.000108466
0.0328958
9.79918e-05
0.00832774
0.0246506
0.000231495
0.000104206
0.0463791
0.0303945
0.000126049
0.000136146
0.0478711
0.000108757
0.0214895
0.000868841
0.000138114
0.000112181
0.000106789
0.00011981
0.0714437
0.0002083
0.0784152
0.000116581
0.0350064
0.000121625
0.000111517
0.0294952
0.0753949
0.000221281
0.00838791
0.000104528
0.000116126
0.0604489
0.00010962
0.0673928
0.0223767
0.000691656
0.0204452
0.0474199
0.014735
0.000121562
0.000225508
0.000107296
0.000191394
0.0311709
0.000101787
0.000104999
0.00013189
0.0163625
0.000209447
0.000202635
0.000148466
0.000514527
0.000102111
0.000190567
0.0635833
0.0320648
9.81557e-05
0.000118578
0.0894635
0.00043254
0.0766921
0.00912777
0.000106648
0.0445787
0.0101002
9.51022e-05
9.60305e-05
0.000121397
0.0122304
0.0618491
0.0112546
0.0213049
0.0296449
0.00949818
0.000145996
0.000937772
0.000108373
0.0408021
0.000117559
0.000736672
9.99067e-05
0.000209769
0.000105521
0.0805221
0.0135645
0.0635507
0.0582205
0.00013506
0.000109472
0.0546824
0.00428474
0.000100353
0.00012039
0.0225578
0.000353911
0.00010363
0.000111776
0.00039129
0.000106432
0.000119894
0.0171925
0.0192269
0.0788943
0.000106105
0.000100022
0.0176852
0.000114971
0.000133023
0.000101112
0.0167887
0.000102478
0.000129162
0.000136783
0.000124839
0.0170288
0.000290932
0.090222
0.0291523
0.0905323
0.0353978
0.0626457
0.060039
9.69408e-05
9.78672e-05
0.0800696
0.0210916
0.000132074
0.000318458
0.0688972
0.0596406
0.000109969
0.000146417
0.000594133
0.0123936
0.0204393
0.0642923
0.011345
0.052771
0.000104244
0.0220672
0.000106056
0.000126843
0.0813006
0.000131217
0.000104475
0.000104192
0.000106647
0.000947879
0.000103941
0.0001268
0.0103931
0.000116302
0.0175119
0.00958269
0.0226333
0.00998055
0.000116789
0.0333714
0.00011375
0.0654083
0.000101289
0.000564368
0.000147388
0.000102771
0.000100682
0.000102444
0.000113668
0.00010306
0.0596835
0.0452435
0.000106171
0.0192913
0.00109746
9.45689e-05
0.000113456
0.000314983
0.0153884
9.5132e-05
0.000131146
9.816e-05
0.0524932
0.000101506
0.000102628
0.0658477
0.0250028
0.0230996
0.000178163
0.00013766
0.000122509
0.0837344
0.00939373
0.0628319
0.000113517
0.000131038
0.00011132
0.000119066
0.0730589
0.000126938
0.0552443
0.0880946
0.074856
9.62541e-05
0.0115873
0.0340193
0.000113515
0.000159372
0.00011464
0.0239684
0.000126296
0.000119159
0.000126303
0.000122966
0.0260001
0.00148356
0.0783076
0.000120382
0.000102191
0.000111812
0.000103213
0.000103501
0.0713809
0.019445
0.000105071
0.000123692
0.00010058
0.0651598
0.000123839
0.000102767
0.000137825
0.00392699
0.000124432
0.000124344
9.99021e-05
0.00146538
0.0462763
0.000128282
0.0777403
0.000934755
0.000124878
0.0825717
0.0143447
9.43184e-05
0.000110746
0.000113404
0.000103066
0.0496902
0.0654001
0.000198002
0.000123436
0.0230436
0.0293317
0.0811424
0.058831
0.00013392
0.000122374
9.77041e-05
0.0162716
0.000113417
0.000100225
0.0607172
0.0356686
9.91889e-05
0.00011339
0.00249139
0.0733366
0.000124355
0.000114043
0.000109401
0.0217835
0.0188678
0.0480103
0.00138385
0.0570293
0.000119313
0.0131506
0.000116871
0.000110296
9.82088e-05
0.0281212
0.000120184
0.0273264
0.000107303
0.0429624
0.0201919
0.000145538
0.0750466
0.000115173
0.000125215
0.0743847
0.0010497
0.00695426
0.0760327
0.0586126
0.0715795
0.000111016
0.0019943
0.0441948
0.0421525
0.0907528
0.000108994
0.0182511
0.0790167
0.000831912
0.0758316
9.74708e-05
0.0625537
0.000120531
0.000111939
0.0309124
0.0285636
0.0295218
9.92092e-05
0.000115889
0.0275021
0.0262047
0.000244421
0.00239804
0.0102581
0.000111343
0.0731307
0.0562683
0.000112714
0.0403646
0.0474217
0.0666232
0.000112273
0.000109514
0.0206232
0.000146415
0.000109991
0.000100665
9.57636e-05
0.000173318
0.000176043
0.000110854
0.000127887
0.000116985
0.000102668
0.000147501
0.000147027
0.000112523
0.0352011
0.00118275
0.0197988
0.0303614
0.0218554
0.000528325
0.000112999
0.000113425
0.000107709
0.000192217
0.014676
9.81027e-05
0.0255202
0.000121989
9.80805e-05
0.0028051
0.000119699
0.0142848
0.0451522
0.00011154
0.0787638
0.000125735
0.024794
0.0286707
0.000230554
0.000280314
0.0282466
0.0277795
0.00011983
0.000116756
0.0137018
0.0328417
0.02183
0.000112743
0.0287612
0.0790956
0.000120888
0.0804521
0.000892948
0.000111467
0.000122972
0.0198292
0.000358416
0.000106733
0.0623043
0.000126672
0.0516546
0.0153335
0.0584405
0.0846808
0.0471637
0.0180015
0.00211895
0.00104461
0.000313585
0.0770106
0.000166738
0.000130792
0.000183258
0.000100682
0.035887
0.0713815
0.000110886
0.0254952
0.023366
0.0179475
0.0755052
0.000109418
0.000114742
0.0119118
0.0566274
0.00024613
0.00923481
0.000121791
0.0492495
0.000111938
0.0124633
0.00011158
0.0437011
0.000122196
0.00874697
0.00021416
0.000112962
0.000134214
0.000110739
0.000145148
0.0746857
0.0711364
0.077917
0.031922
0.000227092
0.0348154
0.00011201
0.0611126
0.00365022
0.0202245
9.3108e-05
0.000117489
0.000183307
0.0155207
0.000108219
0.075174
0.00157414
0.000111968
0.000139876
0.0680689
0.000214566
0.00193109
0.00768955
0.0200488
0.000116214
0.0573358
0.000101563
0.00011119
0.000126773
9.53137e-05
0.000111689
0.000105052
0.0293687
0.000101872
0.05884
9.915e-05
0.000112633
0.000110588
0.000107204
0.00780366
0.0366445
0.088494
0.0554478
0.0375507
0.0833006
0.000134382
0.0787283
0.0606765
0.0807003
0.0163213
0.004705
0.0367364
0.000122501
0.000119494
0.000109866
0.000117339
0.000258944
0.000146653
9.63775e-05
0.000116424
0.000121836
0.000219463
0.039459
9.47798e-05
0.000144378
0.00014497
0.0171233
0.0438678
0.000102686
0.0191098
0.000115894
0.00019929
0.00011394
0.000107806
0.000127104
0.000104624
0.000118239
0.0626282
0.0769512
0.0270705
0.0758658
0.000122603
0.000278493
0.0206883
9.31814e-05
0.000133874
0.0777906
0.0642329
0.0123001
0.000110637
0.027526
0.0465115
0.0120208
0.000114847
0.000129368
0.0536938
0.00119771
0.019417
0.000113624
0.0652186
0.00134106
0.000145668
9.52467e-05
0.0027198
0.0472116
0.0738804
0.0872888
0.0448621
0.00192427
0.000111716
0.0746481
0.000145844
0.000116733
0.000114554
9.84678e-05
0.0826176
0.0556534
0.000803459
0.000129412
0.0857045
9.80672e-05
0.0580366
0.0785074
0.000137536
0.00010775
0.000153735
0.0592501
0.000130835
0.000113254
9.58832e-05
0.0849965
0.000101955
0.000146491
0.00551154
0.013386
0.00119134
0.000122484
0.000113607
0.000106738
0.0531626
0.0142932
0.0895901
0.000143596
0.000466697
0.0458699
9.80772e-05
0.000106348
0.000115857
0.0712513
0.000144085
0.0226726
0.000110586
0.0198221
0.000172087
0.000106651
0.00120665
0.000146802
0.000134573
0.00139118
0.000121329
0.000109345
0.0268224
0.0251298
0.000122518
0.0133143
0.000110527
9.7756e-05
0.000116998
0.000104923
0.0268755
0.000119187
0.0565832
0.000103681
0.0301501
0.000117655
0.000127018
0.0279028
0.000125563
0.000111354
0.0684627
0.0676502
0.000163112
0.0503237
0.000146477
0.0525615
0.000101877
0.000113988
0.0584611
0.000189376
0.000133664
0.000114937
0.0495589
0.000121932
0.0656665
0.0430001
0.000181709
0.000118136
0.00457609
0.0211604
0.0763871
0.000111771
0.000139687
0.000161373
0.000103462
0.000102929
0.000145262
0.0478434
0.000136692
0.00782537
9.60692e-05
0.0177984
0.0471674
0.00104024
0.000856493
0.00327398
0.000120252
0.000277213
0.000129286
0.0854705
0.0263095
9.54185e-05
0.0143984
0.0462528
0.000155277
0.00772527
0.00655062
0.0339988
0.00280839
0.000118178
0.000949187
0.000123587
0.000125764
0.00011184
0.000122307
0.0819141
0.0918782
0.0138358
0.025281
0.0891959
0.0274562
0.0346481
0.00376327
0.000155345
0.000120432
0.065325
0.091534
0.070382
0.000119725
0.000147218
0.0636381
0.000102548
0.000124966
0.000126931
0.000144972
0.000113942
0.0384834
0.000112154
0.000284242
0.000113911
0.0568853
0.000670081
0.0440925
0.000144355
0.000117519
0.000203535
0.00249946
0.000110475
0.000120059
0.000113447
0.000571244
0.0727044
9.98096e-05
0.000113425
0.000119077
0.00863558
0.000124124
0.000137913
0.00666306
0.06868
0.0209014
0.000113017
0.065757
9.60739e-05
0.000143848
0.00652162
0.000355459
0.000193917
0.000129386
0.000347739
0.0459708
0.0336135
0.0141985
0.000114317
9.53177e-05
0.0429895
0.0453048
0.000158503
0.0342877
0.000134331
0.000142584
0.000111989
0.0222503
9.68649e-05
0.061827
0.000379248
0.000105537
0.0399574
0.00141163
0.0438754
0.000145542
0.000111094
0.0086186
0.000116109
0.0577071
0.0352503
0.00808695
0.000113343
0.000163056
0.000105241
0.000905032
0.000119145
0.000102241
0.000381123
0.000127032
0.000713082
0.00010856
9.78552e-05
0.00556117
0.0420806
0.0919626
0.00342323
0.00908449
0.000100785
0.000133481
0.000133793
0.000111731
0.000101666
0.0856654
0.000570461
0.00011093
0.000112947
0.000119033
0.0147439
0.000226886
0.000101976
0.0213564
0.0128621
0.0473631
0.000118413
0.000108376
9.3736e-05
0.0826685
0.0023502
0.0596907
0.00135555
0.0329058
0.000157975
0.000101173
0.000103242
0.000109855
0.0653095
0.0345477
0.019769
0.0001078
0.000117322
0.000113301
0.000107861
9.53644e-05
0.000104877
0.000113392
0.0210445
0.00118409
0.000149393
0.0252716
0.0318373
9.84945e-05
0.000105975
0.0176364
9.76295e-05
0.000111553
0.0242634
0.000128015
0.000111466
0.000107196
0.0238959
0.000123677
0.0120093
0.00087209
0.000133301
0.000125165
0.0321057
0.0632007
0.0333422
0.000111603
0.000130595
0.00101938
0.000109053
0.000112066
0.0570794
0.000117232
0.0045183
0.000342388
0.0328922
0.000118114
0.0879856
0.000108105
9.11121e-05
0.00089281
0.044834
0.000113879
0.0274482
0.000139894
0.000103139
0.0769037
9.4302e-05
0.000128404
0.0204692
0.0533539
0.0414269
0.0431877
0.000101429
0.000165062
0.0112301
0.0204652
0.015156
0.000112697
0.000107314
0.000195494
0.000102973
0.000110453
0.000105768
9.59275e-05
0.00761999
0.000109324
0.000127139
0.0116269
0.00629363
0.00179123
0.030384
0.000103144
0.000145388
0.0721703
0.000134864
0.0909428
0.000211128
0.0314678
0.00228182
0.000113863
0.000111974
0.0742968
0.0386851
0.000111027
0.0280355
0.0466108
0.0424214
0.000108246
9.57474e-05
0.000206092
0.057631
0.0213667
0.0269272
0.0247323
0.000101661
0.000136075
0.0701942
0.0001847
0.0126447
0.00148244
0.0001073
0.0885299
0.000167918
0.000145011
0.0273179
0.000121578
0.000464252
0.000112916
0.000123598
0.00012985
0.000229507
0.000102884
0.0371983
0.083417
0.0685563
0.000148539
0.000115597
0.000115915
0.000111624
0.040845
0.000113438
0.000129616
0.000114115
0.0245111
0.000127494
0.00151577
0.000117484
0.00798891
0.0450013
0.0347324
0.0351628
0.00518421
0.0148733
0.00010269
0.000129865
0.00383119
0.000110059
0.0735669
0.0291816
0.000128122
0.000112686
0.00010388
0.000129797
0.0295316
0.000275586
0.0277699
9.6988e-05
0.00013988
0.000133662
0.0198795
9.65048e-05
0.000107259
0.076798
9.37819e-05
0.0334303
0.000525536
0.000357247
0.0139634
0.0714709
0.000109779
0.000106313
0.0864618
0.000125468
0.0508956
0.000111866
0.0176815
0.000136184
0.0584651
0.0308925
0.000194475
0.0251272
0.0320934
0.0155478
0.000112752
0.0765168
0.00177133
0.0301512
0.00012901
0.000113597
0.000135645
0.0015227
0.0013005
0.00033624
0.000108854
0.000293096
0.000102529
0.000116656
0.0416802
0.00013483
0.000116438
0.0169583
0.000522654
0.0339654
0.000137719
0.0238482
0.000133144
0.0268165
0.00014522
0.000100235
0.000112644
0.0204447
0.000135384
0.0774178
0.0285343
0.000208213
0.000119851
0.0230445
0.0297354
0.000140696
0.000121138
0.0214125
0.00355491
0.000107355
0.000104412
0.0667028
0.0409375
0.000281851
0.0063898
0.000295538
9.93957e-05
0.0264001
0.00446824
0.0654914
0.036636
0.0456566
0.0847828
0.0787678
0.000109105
0.00404467
0.00524773
0.000112076
0.0882531
0.000145481
0.0822604
0.0113745
0.0298558
0.00012526
9.86902e-05
0.000133618
0.000111307
0.0264768
0.000124652
0.00256749
0.000102587
0.000304278
0.0306202
0.000112277
9.71117e-05
0.000107542
0.000113226
0.00012841
0.0152698
0.0289193
0.000115041
0.000108129
0.000101226
0.0709753
0.0144192
0.0339333
0.000341599
0.000124934
0.000107272
0.0887774
0.000486877
0.0804754
0.0340646
0.000116747
0.00105348
0.0868466
0.0639293
0.000146934
0.000124167
0.000112406
0.00014585
0.0425837
9.28744e-05
0.000201726
0.000111615
0.000103234
0.000101191
0.0499475
0.000124694
0.0258813
0.000102906
0.000104384
0.0289925
0.000122489
0.0128593
0.0336159
0.000205805
0.0251786
0.000109366
0.0275851
0.0313397
0.0440618
0.0609505
0.0260648
0.0466804
0.00863757
0.0179282
0.000217565
0.076552
0.000147526
0.0844121
0.000288485
0.000155253
0.0129799
0.0193032
0.0511031
0.000204771
0.0478107
0.0331208
0.0564473
0.0135339
0.0243537
0.0111708
0.00013138
0.0018803
0.000114483
0.0279538
0.0436199
0.000106958
0.0669053
0.00750158
0.000107038
0.0874717
0.000119826
0.000232915
0.031491
0.000105254
0.0407961
0.0543252
0.0011899
0.0840876
0.00011238
0.000170385
0.00774068
0.000144168
0.000866751
0.000157451
0.000113957
0.0470745
0.0010594
0.0188277
0.0174522
0.000325144
0.0274103
0.00116643
0.000352459
0.0731461
0.0890314
0.000147351
0.000134402
0.000112608
0.0365858
0.0540938
0.000111551
0.0363568
0.000122791
0.01766
0.0296293
0.0763433
0.0684106
9.89813e-05
0.0118457
0.000117924
0.054872
0.0261851
0.0436898
0.000115736
0.066183
0.000101829
0.000179141
0.0885017
0.000315339
0.0735812
0.000190244
0.000115212
0.0303201
0.0816043
0.0618179
0.00012244
0.000128007
0.0223521
0.000146314
0.000119787
0.000100426
0.000116313
0.044765
0.0519201
9.24038e-05
0.0337319
0.0385787
0.00012718
0.000112556
0.000111415
0.000644728
0.000111581
0.000123001
0.000121754
0.0279807
0.0406991
0.0377021
9.77915e-05
0.0414928
0.0160352
0.00355847
0.000123126
9.84359e-05
0.000103031
0.00023552
0.000156271
0.0330326
0.000178179
0.000105283
0.000726956
0.000112868
0.000133859
9.81035e-05
0.000204338
0.000155643
0.035597
0.0117309
0.000135395
0.014998
0.00010644
0.000139908
0.000256364
0.000104527
0.000104808
0.0261496
0.000103701
0.00014492
0.0143656
0.0775424
0.000110691
0.0215082
0.000126915
0.0196164
0.000391739
0.039138
0.039243
0.00012951
0.070125
0.000106151
0.00012102
0.0130659
0.0850023
0.00012442
0.0618309
0.0854486
0.00019949
0.000121894
0.000595972
0.0323636
0.000229918
0.0213662
0.0352508
0.000117437
0.0368191
0.000119645
0.0361147
0.0426957
0.000121985
0.00381684
0.000106691
0.000120785
0.00010532
0.000126401
0.00108169
0.0269375
0.000106075
0.000289834
0.000886905
0.000117131
0.000112047
0.0342794
9.86421e-05
0.0210563
0.0440808
0.000112038
0.000109912
0.00011911
0.076016
0.000134026
0.000113833
0.000112483
0.0663891
0.00552982
0.0592944
0.000116217
0.014947
0.0143113
0.0323974
0.000102478
0.0763225
0.000277269
0.0282285
0.000111485
0.0613742
0.0164957
0.0368376
0.000217854
0.000128275
0.000143009
0.000154467
0.0197392
0.000145305
0.0200556
0.000116068
0.0211482
0.000112057
0.0463754
0.000203221
9.36251e-05
0.000106385
0.0306576
0.0845769
0.04426
0.0283986
0.0271023
0.0234675
0.0222849
0.000150075
0.000108934
9.92634e-05
0.000111698
0.049276
0.000877825
0.000125535
0.000110679
0.0390462
0.0471133
0.0160457
0.0114043
0.0565321
9.83895e-05
0.000107417
0.000104099
0.000185826
0.0451401
0.000117055
0.0323809
0.000132491
0.0133082
0.00778817
9.55458e-05
0.0568533
0.0710932
0.0220102
0.0243623
0.00011593
0.000279211
0.000111691
0.000115375
0.000181693
0.0465854
0.000592419
0.00054565
0.000121345
0.00012449
0.000121964
0.0400602
0.0503379
0.00041024
0.000124704
9.29394e-05
0.000116394
0.0845816
0.00266272
0.000112013
0.00016696
0.0157922
0.0761703
0.000125878
0.0257522
0.0160388
0.000122731
0.0583654
0.000246358
0.000127107
0.000115041
9.5542e-05
9.24482e-05
0.0893788
0.000114262
9.53017e-05
0.000119967
0.000117845
0.000121405
0.000111131
0.0153389
0.000112527
0.046922
0.0626864
0.000112092
0.0329146
0.0354579
0.0130619
0.000100917
0.0356948
0.0792947
0.0693965
0.0527364
0.000145414
0.000176156
0.00984481
0.000133084
0.000188342
0.000111679
0.000504538
0.000160647
0.000100287
0.000140952
0.0277699
0.000243734
0.000188785
9.79897e-05
0.00119218
0.000119975
0.0561697
0.024509
0.0255355
0.025442
0.000146591
0.000103054
0.00012379
0.01618
0.000106273
0.000168158
0.000141921
0.0742886
0.0798951
0.035645
9.5915e-05
0.0488399
0.0730005
0.000109052
0.0110079
0.000363737
0.0271023
0.014093
0.000109546
0.000112804
0.0230728
0.0217482
0.0110391
0.0202149
0.0296234
0.000128046
0.0622241
0.0905601
0.00563785
0.0444918
9.71768e-05
0.000105574
0.000117778
0.000108014
0.000209451
0.0651495
0.000225171
0.000113238
0.000133252
0.0816726
0.014995
0.000497042
0.0280085
0.000118264
0.0162662
0.0158257
0.00010687
0.0287239
0.034682
0.0195359
0.000128499
0.014357
0.000123587
0.000108985
0.044552
0.0334674
0.000782157
0.000192238
0.0265097
0.074408
0.0246257
0.000115279
0.064722
0.0292164
0.00125483
0.0687516
0.000113703
0.0102705
0.000115729
0.000111709
0.000110239
0.000163276
0.000108762
0.000137114
0.000145867
0.000351756
0.000112514
0.0617773
0.000113441
0.000107693
9.64109e-05
0.000105145
0.0824723
0.000108251
0.023087
0.028421
0.000213313
0.000111344
0.0226327
0.038369
9.85925e-05
0.00012431
0.000105696
9.83199e-05
0.0449057
0.00666578
0.038083
0.0456836
0.0618505
0.000122852
0.0184585
9.96263e-05
0.000117687
0.0312576
0.0206406
9.74371e-05
0.000544474
0.000172143
0.0001127
0.00028037
0.000100818
0.0876443
9.41388e-05
0.0571197
0.0682145
0.000112039
0.0337939
0.000122041
0.000133261
0.0299537
0.000113344
0.0165075
0.0244871
0.0478994
0.000118814
0.000156598
0.000162792
0.00011145
0.000115466
0.0469662
0.000125253
0.00011837
0.000111127
0.000139322
0.0202791
0.080142
0.000118168
0.000138702
0.0340879
0.0827535
0.00012856
0.0554481
0.000100264
0.00011215
0.000150919
0.000132399
9.80836e-05
0.000115612
0.0600069
0.000194378
0.0738541
0.0104647
0.0409272
0.0295706
0.000118218
0.000111883
0.000112026
0.000133038
0.00141707
0.045012
0.0447186
0.000111933
0.0180453
0.000108335
0.000297496
0.0220805
0.024701
0.0402839
0.00899734
0.0191535
0.0616077
0.000109242
0.000130622
0.0216095
9.50876e-05
0.000144134
0.000124404
0.0378063
0.0196888
0.000146685
0.0372029
0.000134759
0.0455972
0.000157959
0.0277973
0.0116923
0.0623423
0.000112087
0.0001319
0.0800041
0.000129078
0.000387014
0.000275594
0.000111526
0.000282678
0.000112698
0.019846
0.0712858
0.0443123
0.00010527
9.21428e-05
0.0312781
0.0404821
0.0238282
0.000107881
0.0417044
0.0472988
0.0350898
0.0854842
0.0281183
0.000100477
0.0209843
0.0282286
0.0700158
0.00011541
0.0787544
0.00010817
0.00181677
0.0221804
0.0728185
0.0304229
0.000107037
0.000118121
0.000155398
0.0277777
0.000104812
0.0388191
9.57055e-05
0.000960561
0.0291852
0.000118274
0.00013872
0.000229537
0.000109829
9.75612e-05
0.0811938
0.0116035
0.000125001
9.52819e-05
0.0373657
0.000108767
0.000132123
0.000114039
0.0230296
0.0357959
0.0234097
0.000112921
0.0749077
0.000144634
0.0869893
0.0278214
0.0001222
0.000128208
0.00011048
0.0281275
0.000137794
0.000166131
0.0415661
0.000111332
0.0391228
0.000107326
0.000110841
0.000119541
0.000132385
0.000100117
9.42302e-05
0.00462797
0.0255915
0.000974915
0.000111746
0.00017338
0.0171212
0.023432
0.013404
0.026122
0.000120397
0.0715843
0.000145638
0.0389486
0.000102402
0.0569412
0.000111814
0.000214129
0.000102131
0.0135781
0.000130265
0.0202844
0.0717759
0.0001131
0.000217542
0.0129655
0.000115569
0.000115807
0.000121397
0.0860046
0.000106039
0.00209725
0.000105064
0.00010835
0.0213829
0.0705821
0.0315182
0.00012071
0.000111888
0.0788856
0.000133263
0.000119102
0.0259893
0.085597
0.0278764
0.00011489
0.000114801
0.000133406
0.073262
0.00013038
0.000113878
0.0827521
0.00393225
0.000122558
0.0496675
0.000229928
0.00010959
0.000106203
0.000140333
0.027159
0.000129108
0.000107367
0.000138894
0.000308473
0.000136859
0.000128886
0.000113213
0.0277075
0.000107039
9.58555e-05
0.00012722
0.000255626
0.000118931
0.0171506
0.0699722
9.83284e-05
0.000136207
0.000164075
0.000296732
0.000183075
0.0647364
0.0193284
0.000114043
0.0109347
0.000119763
0.068372
0.0135595
0.0418413
0.000108145
0.0258267
0.000128302
0.000110637
0.000132137
0.000124597
0.000103245
0.0332553
0.000109571
0.000106583
0.000238081
0.0837602
0.000113385
0.000128992
0.0263632
0.000102327
0.00986003
0.000115668
0.0149401
0.000111985
0.00886129
0.00304386
0.000283793
0.00011436
0.000111549
0.023098
0.028368
0.0916584
0.000112495
0.000126223
0.058177
0.00012169
9.77093e-05
0.000156566
0.000112869
0.000113758
0.000228481
0.000132025
0.0217335
0.0725253
0.0592473
9.49932e-05
0.014975
0.0317602
0.0880224
0.0149682
0.000111296
0.00013267
0.000100852
0.0311114
0.00299779
0.000114909
0.0786245
0.0460854
0.000111841
0.000120586
0.0141891
0.0291767
0.000116406
0.0663998
0.000125075
0.0146074
0.000511252
0.0481375
0.000100672
0.00012767
0.0311037
0.000812903
0.027111
0.0909025
0.0228228
0.000109735
9.74799e-05
0.000128758
0.000103021
0.000117506
0.0188894
0.0449313
0.000145491
9.33247e-05
0.000294696
0.0167633
0.0129125
0.000101749
0.031062
0.000104541
0.0856891
0.000756087
0.0440144
0.000100153
0.000111816
0.0156136
0.0640665
0.0922242
0.0272265
0.000452437
0.0289291
0.082144
9.2004e-05
0.0234423
0.00010152
0.00012589
0.00011856
0.0157839
0.00108251
9.65359e-05
0.000123456
0.0829903
0.000114096
0.00119043
0.000102084
0.000118971
0.00107792
0.0198754
0.000116075
0.0143048
0.00499846
0.000118492
0.000117292
0.000424154
0.000255023
0.000153991
0.0315052
0.000105936
0.0113789
0.0427045
0.000825957
0.000111759
0.047073
0.000110483
0.00018232
0.000102531
0.00344944
0.00743602
0.000117721
0.00116993
0.0817356
0.00010916
0.000129951
0.000117177
0.0696685
0.0825079
0.0310957
0.000184514
0.00174192
0.083463
0.0236973
0.000102709
0.0356117
0.00494776
0.000176838
0.04164
0.00159643
0.0213255
0.0302572
0.0162057
0.000110768
0.044767
0.0763628
0.069058
0.0310061
0.0345542
0.000111881
0.000102714
0.0311757
0.0843235
0.000124754
0.00011853
0.0821316
0.000145255
0.0261651
0.0629249
0.0904419
0.0231325
0.000110187
0.00539414
0.0830599
0.000103378
0.000145479
0.000108426
0.00201346
0.0254897
0.0595109
0.0211835
0.0452122
0.000100974
0.0284503
0.0260877
0.0245617
0.000173164
0.000147809
0.0303825
0.0538386
0.000115262
0.036983
0.000231098
0.000136583
0.000112476
0.0838205
0.0616772
0.000124816
0.00010873
9.69867e-05
0.000119649
0.0101805
0.0435336
0.000116389
0.0837889
0.00125242
0.00012426
0.0226348
9.58686e-05
0.000112144
0.0722763
0.000135338
0.000112013
0.0220304
0.000112182
0.000209847
0.000110587
0.000111045
0.062353
0.000124826
0.0850793
0.0336861
0.0816575
0.0449156
9.18665e-05
0.0830053
0.000112622
0.0404683
0.000128508
0.0344675
0.0344896
0.000110653
0.0644664
0.0414895
0.000106056
0.000792156
0.000103766
0.0144008
0.00199617
0.000114196
0.000126534
0.000135226
0.000146403
0.0168326
0.000120096
0.000120768
0.00010315
0.075419
0.00116819
0.000102018
9.68839e-05
0.0569
0.000116451
0.0233801
0.000111001
0.000111394
0.000111961
0.00014641
0.00012164
0.000892817
0.000106697
0.0435467
0.000107385
0.000104692
0.00686849
0.0296362
0.00011305
0.0715773
9.69343e-05
0.000115155
0.000126831
0.00222697
0.00346229
0.000342995
0.0715482
0.000127831
0.000222539
0.00138413
0.00516828
0.0223128
0.00012281
0.027556
0.0217441
0.000184684
0.0220499
0.000113057
0.000162478
0.0796246
9.4105e-05
0.000110201
0.0121233
0.0178921
0.000116968
0.000159473
0.0183643
0.000113176
0.0230649
0.0244095
0.0213504
0.00495081
0.000112207
0.0107595
0.000104849
0.000113084
0.00266322
0.000144776
0.000163653
0.000107682
0.000105729
0.00010923
0.00012082
0.00011705
0.000110286
0.000110347
0.000119221
9.813e-05
0.000120222
0.0026974
0.0341851
0.000110373
9.34704e-05
0.000137967
0.0221361
0.000100901
9.76116e-05
0.000105603
0.0111887
9.26488e-05
0.0397198
9.74982e-05
0.000145465
0.00011242
0.000138824
0.000218466
0.000101276
0.000181876
0.000100944
0.0420315
0.0308235
0.000131827
0.000133863
9.8229e-05
0.0397676
0.012004
0.0243446
0.00030354
0.000750198
0.000108391
0.000110454
0.00207855
0.00713076
0.0192371
0.000154224
0.0274426
0.000112653
0.00139836
0.000109422
0.00121644
0.000160283
0.072593
0.000112806
0.000133817
0.000124933
0.000728725
0.041197
0.000100508
0.0378873
0.0856175
0.0254741
0.00644763
0.000109148
0.000109109
0.000135761
0.0162493
0.000100638
0.000185258
0.0173527
0.000121875
9.93216e-05
0.000112
0.00010033
0.0091617
0.000111741
0.000109233
0.00856926
0.000123259
0.000103297
0.000146284
0.000100672
0.000357216
0.000119216
0.000153651
0.000105089
0.000306424
0.000119145
0.000112484
0.00144786
0.00103019
0.0697125
0.0176407
0.0132156
0.0583894
0.000136328
0.0121853
0.000244163
0.0211119
0.00236228
0.000106106
0.000178169
9.82789e-05
0.000111016
9.81452e-05
0.0206226
0.000362532
0.000117884
0.0220936
9.72521e-05
0.0308461
0.000107616
0.000142308
0.000113303
0.0395265
0.0264905
0.0208446
0.000111744
0.000111393
0.000104646
9.59757e-05
0.0179831
0.000621289
0.000110374
0.000116243
0.000350343
0.000179397
9.63102e-05
0.0809915
0.0285717
0.000114803
0.0225414
0.000138807
0.0398389
0.000112079
0.000165966
0.0633883
0.000267982
0.000113108
0.00238441
0.000144673
9.41195e-05
0.000130609
0.000131618
0.00095437
0.0375854
0.000102624
0.0260833
0.0338718
0.000266878
0.000155738
9.39289e-05