/*--------------------------------*- C++ -*----------------------------------*\
| =========                 |                                                 |
| \\      /  F ield         | OpenFOAM: The Open Source CFD Toolbox           |
|  \\    /   O peration     | Version:  v2012                                 |
|   \\  /    A nd           | Website:  www.openfoam.com                      |
|    \\/     M anipulation  |                                                 |
\*---------------------------------------------------------------------------*/
FoamFile
{
    version     2.0;
    format      ascii;
    class       volVectorField;
    location    "150";
    object      U;
}
// * * * * * * * * * * * * * * * * * * * * * * * * * * * * * * * * * * * * * //

dimensions      [0 1 -1 0 0 0 0];


internalField   nonuniform List<vector> 
14479
(
(1.17913 -0.156266 0)
(1.04713 -0.221696 -1.08618e-20)
(1.08301 -0.123127 -2.17477e-20)
(-0.223543 -0.0468607 7.54484e-21)
(0.9516 -0.472417 0)
(-0.267685 -0.0502603 1.03611e-20)
(0.999981 -0.00408369 -4.42558e-21)
(1.03221 -0.00531671 -1.71286e-20)
(1.02778 -0.0593451 0)
(-0.166621 -0.0168364 0)
(0.953932 -0.415692 -3.07282e-22)
(-0.227459 -0.0470469 3.54564e-20)
(-0.244206 -0.0453741 -1.37125e-19)
(-0.246905 -0.044439 1.44999e-19)
(-0.182142 -0.0434009 0)
(-0.0492142 -0.0403821 -6.45127e-20)
(1.33822 -0.174523 7.30482e-20)
(0.42511 0.0779939 2.0721e-21)
(0.275184 -0.0245311 -2.10734e-19)
(1.24806 -0.0102451 8.15871e-20)
(1.01225 -0.0209918 0)
(1.03034 -0.0987424 9.92253e-22)
(-0.0717434 -0.0345034 3.76874e-20)
(1.28646 -0.209899 9.80142e-20)
(1.02716 -0.0607188 1.71923e-21)
(0.742798 0.102619 5.41408e-20)
(0.924952 -0.297767 -3.90137e-20)
(-0.165415 -0.0168076 3.27069e-20)
(1.29641 -0.328463 2.27297e-20)
(-0.176232 -0.0432321 1.47886e-20)
(0.525046 0.0679808 3.99169e-21)
(-0.258376 -0.0484061 0)
(0.241604 -0.0208976 2.51525e-19)
(1.03446 -0.0115774 2.31217e-20)
(1.08411 -0.0443747 0)
(1.05367 -0.000787629 5.07673e-21)
(0.993477 -0.0185999 6.15487e-21)
(-0.0900058 -0.0320728 1.13209e-21)
(1.06909 -0.128639 6.00307e-22)
(0.871149 0.28422 0)
(-0.170794 -0.0426783 1.25583e-19)
(1.06678 -0.125835 0)
(0.869387 -0.0798182 3.25826e-20)
(1.10869 -0.0793393 0)
(0.000951311 -0.0542408 4.08954e-20)
(1.24429 -0.100565 0)
(-0.146025 -0.0276495 0)
(-0.244819 -0.0404746 -7.72456e-20)
(1.07783 -0.0630353 1.96375e-20)
(0.727077 0.146757 -1.20525e-19)
(1.01483 -0.0339594 0)
(0.602239 -0.0193298 -8.74665e-20)
(1.12796 -0.442063 0)
(1.26406 -0.17051 -7.02042e-20)
(1.07774 -0.0610391 -2.19319e-20)
(0.982726 -0.0447668 2.76721e-22)
(1.15399 -0.280226 -7.72528e-20)
(-0.181571 -0.0273447 0)
(1.05357 -0.000621428 0)
(1.27102 -0.126195 0)
(1.07634 -0.128161 -3.85045e-21)
(1.06062 -0.0332185 0)
(0.389719 -0.148344 1.16382e-19)
(1.23431 -0.249867 3.74755e-20)
(1.29514 0.00984934 -1.14239e-19)
(-0.256645 -0.0430683 0)
(1.15621 -0.094195 0)
(0.886518 -0.0829444 -4.1669e-20)
(0.459833 -0.0862098 6.68021e-20)
(0.768762 -0.0515628 0)
(-0.243222 -0.0353447 -1.30613e-19)
(1.25729 -0.0141552 0)
(-0.0560172 -0.0392176 1.87865e-19)
(0.275271 -0.0941979 -7.63569e-20)
(1.01128 -0.0205502 0)
(1.02551 -0.0606217 -1.95556e-21)
(-0.245162 -0.0364792 8.73542e-20)
(-0.211232 -0.0452017 -3.74166e-20)
(0.161062 -0.00727425 1.64402e-19)
(-0.246282 -0.0367778 1.00525e-19)
(0.525279 -0.159938 0)
(1.00196 -0.00258756 2.76051e-22)
(1.16199 -0.0476462 -2.49694e-20)
(1.25505 -0.0118221 0)
(1.09419 -0.00877582 2.97685e-20)
(1.23884 -0.0984465 0)
(1.26529 0.00620521 -8.43066e-20)
(1.00712 -0.0316785 -3.75444e-21)
(-0.247287 -0.0371627 -9.88727e-20)
(1.01476 -0.0473533 1.21603e-21)
(-0.209736 -0.0294098 3.56008e-20)
(-0.253383 -0.0424296 2.36816e-20)
(-0.284181 -0.0515739 0)
(-0.122955 -0.043428 5.64525e-20)
(1.16532 -0.026055 4.85063e-20)
(0.247231 -0.0209763 6.8139e-20)
(1.09037 -0.0244991 1.35338e-20)
(-0.217123 -0.0311313 -5.78302e-20)
(1.14783 -0.0491552 0)
(-0.0991298 -0.00910441 -2.95555e-20)
(0.583683 0.0752737 0)
(-0.170933 -0.0255806 0)
(1.27303 -0.131431 0)
(1.02017 -0.00401547 0)
(1.15083 -0.0508221 5.00183e-20)
(1.05168 -0.00109595 1.59139e-20)
(1.27636 0.0136697 9.10166e-20)
(-0.040274 -0.0397861 -1.5423e-19)
(1.15691 -0.288372 -2.90076e-21)
(-0.17769 -0.0427657 -2.01775e-19)
(1.14155 -0.0653207 1.67532e-20)
(1.08619 -0.0649205 0)
(0.792656 0.11406 8.19097e-21)
(1.26909 -0.168563 8.88789e-20)
(0.931948 -0.292223 0)
(0.947167 -0.105398 -5.94303e-20)
(1.02408 -0.0594982 0)
(0.415088 -0.130748 1.59014e-19)
(0.937181 -0.0530269 1.1491e-21)
(1.25917 0.00250713 -8.07388e-20)
(1.08247 -0.0424943 1.18828e-20)
(1.0044 -0.0176691 0)
(-0.253801 -0.0482679 0)
(1.10671 -0.132917 -1.73928e-20)
(-0.185611 -0.0429218 4.82163e-20)
(1.06311 -0.0114537 2.25742e-20)
(1.12746 -0.0384681 2.90097e-20)
(0.975837 -0.0328985 3.24873e-20)
(1.06118 -0.00845465 0)
(-0.186276 -0.0286711 0)
(1.07053 -0.014846 1.70415e-20)
(1.31179 -0.115681 -1.36719e-19)
(0.329163 -0.108349 0)
(1.06368 -0.0134627 -2.84249e-20)
(1.24987 -0.0744421 -7.82899e-20)
(1.1193 -0.333375 -3.48109e-21)
(0.685672 -0.559909 1.93676e-20)
(0.96526 -0.0457835 5.53046e-21)
(0.619746 -0.0190897 -8.48394e-24)
(-0.223846 -0.0468166 -1.28445e-19)
(1.07118 -0.0379295 2.98153e-20)
(-0.264574 -0.0479992 -9.2733e-20)
(1.11206 -0.0805459 0)
(0.660747 0.357979 3.00957e-20)
(1.22801 -0.245853 6.65753e-20)
(1.09201 -0.00784755 -4.87964e-20)
(-0.0443458 -0.0241242 0)
(1.05136 -0.0515371 1.46124e-20)
(1.16425 -0.153242 0)
(1.04357 -0.097141 -1.36585e-21)
(0.224595 -0.0214578 -1.29736e-19)
(1.08562 -0.121034 2.40143e-20)
(1.01282 -0.0222607 4.33709e-22)
(1.30175 -0.187427 -5.13843e-20)
(1.33155 -0.17221 0)
(1.1761 0.00160884 1.28806e-20)
(-0.176008 -0.0168511 3.67976e-20)
(0.999929 -0.0025982 -2.61945e-20)
(0.499384 0.0334592 -5.77165e-20)
(0.188987 -0.0081972 -9.86456e-20)
(-0.171526 -0.0154953 -1.15925e-19)
(0.408027 -0.0527917 -1.09866e-19)
(0.199488 -0.00971698 -7.64457e-20)
(1.26395 0.00339104 1.04021e-19)
(-0.0796681 -0.0111523 7.73335e-20)
(-0.242934 -0.0385196 6.60463e-20)
(1.06554 -0.00428906 1.45369e-20)
(0.729034 0.100109 0)
(1.0141 -0.0341921 0)
(1.09185 -0.0258041 1.26953e-20)
(1.07589 -0.0156276 -3.95755e-20)
(1.23773 -0.0940116 0)
(0.983285 -0.0427005 2.06933e-20)
(1.25826 -0.0011227 1.05019e-19)
(0.995326 -0.0455942 1.39942e-20)
(1.07349 -0.463706 -2.43766e-20)
(1.00512 -0.0293012 9.1052e-22)
(1.10026 -0.0253442 -1.10311e-20)
(0.901586 -0.400288 0)
(0.98765 -0.0902821 1.63373e-20)
(0.675923 -0.599845 1.0197e-20)
(1.01068 -0.0193627 0)
(0.94055 -0.0537576 0)
(-0.282044 -0.0510946 -4.2053e-20)
(1.00628 -0.0218641 0)
(1.05126 -0.32404 -1.91548e-20)
(0.874743 -0.0788625 -2.84381e-20)
(0.896689 -0.0524929 2.70328e-20)
(0.754375 -0.547432 4.66751e-20)
(0.705345 0.378838 -5.27691e-20)
(1.00456 -0.020166 -2.5159e-21)
(-0.0223158 0.00164337 2.41417e-20)
(1.15004 -0.0620242 0)
(0.999975 -0.00297947 8.92069e-21)
(-0.26391 -0.0475513 -2.34206e-19)
(0.171788 -0.00964225 1.10029e-19)
(0.728276 -0.537941 -5.02995e-20)
(0.151795 0.0237379 8.19952e-20)
(1.12705 -0.12545 -5.63024e-21)
(0.99572 -0.0442537 -1.29143e-20)
(0.945913 -0.100703 4.68683e-20)
(1.33375 -0.118592 -1.14453e-19)
(0.944019 -0.0512984 -5.10016e-20)
(1.22538 -0.352047 3.36007e-20)
(-0.263451 -0.0485546 1.8048e-19)
(0.945945 -0.0898016 1.73527e-20)
(0.967592 -0.0454735 0)
(1.26338 -0.0160159 -1.02247e-19)
(1.10034 -0.0234414 0)
(1.05713 -0.333144 2.12505e-20)
(-0.118109 -0.0366562 7.28448e-20)
(-0.0475032 0.00480273 0)
(0.970058 -0.088102 0)
(0.887955 -0.0774759 5.7232e-20)
(1.0175 -0.0340412 -1.49516e-21)
(1.28375 -0.121097 7.74135e-20)
(-0.0945423 -0.00628026 -1.28751e-20)
(-0.200347 -0.0391273 0)
(0.993618 -0.0174085 0)
(1.15766 -0.158884 5.62148e-20)
(0.834134 -0.555793 0)
(-0.216197 -0.041195 -1.06871e-20)
(0.0311174 0.0064559 0)
(1.17243 -0.0478554 -6.0049e-20)
(0.262357 -0.462456 7.73253e-20)
(-0.232894 -0.04762 0)
(1.03723 -0.103504 -8.04578e-22)
(1.08348 -0.0636488 0)
(0.788534 0.16687 0)
(1.00654 -0.0304907 3.54453e-21)
(0.958866 -0.0670013 -2.55079e-20)
(1.00043 -0.00471919 -1.60192e-21)
(1.03972 -0.194356 0)
(-0.240219 -0.0448749 -2.6305e-20)
(0.901061 -0.0425636 -5.03311e-20)
(0.944743 -0.0926908 2.40072e-20)
(1.16001 -0.274048 -2.07605e-21)
(0.213932 -0.411835 -1.08578e-21)
(0.993291 -0.0157789 -1.30794e-20)
(1.02941 -0.0781033 -1.71111e-21)
(-0.228866 -0.0470386 -5.8212e-20)
(1.27759 -0.109482 3.88371e-20)
(1.14652 -0.0623449 -2.27534e-20)
(0.742874 0.121243 -1.19691e-19)
(-0.0590666 0.00201093 2.21429e-20)
(-0.101798 -0.0354291 -6.70781e-20)
(1.06549 -0.0345904 0)
(1.01517 -0.0493537 0)
(0.389097 0.0485495 7.16061e-21)
(-0.253372 -0.0403718 -1.18024e-19)
(1.03117 -0.00454997 1.71392e-20)
(1.27142 -0.0864837 2.8952e-20)
(1.01272 -0.00180954 -2.29803e-22)
(1.06186 -0.0104393 -1.24372e-20)
(-0.256069 -0.0409228 9.9208e-20)
(1.3077 -0.177948 -2.59573e-20)
(0.994336 -0.0231425 1.2367e-20)
(1.29785 -0.33321 8.28635e-20)
(0.72836 0.0942835 0)
(1.29154 -0.206708 -1.10706e-19)
(0.60694 -0.173097 -3.98466e-20)
(0.528076 -0.0715881 2.62716e-20)
(-0.261841 -0.0474705 2.32139e-19)
(1.25199 -0.0782824 9.68123e-20)
(1.00181 -0.0262845 0)
(1.05582 -0.203208 1.73391e-20)
(1.00128 -0.0256972 0)
(0.0171027 0.00417677 4.57363e-20)
(-0.165584 -0.0442705 -1.52161e-19)
(0.409268 -0.0804177 6.74769e-20)
(-0.0224106 -0.021901 0)
(0.974224 -0.0330446 -4.19815e-20)
(-0.277861 -0.0480146 0)
(0.954137 -0.0257293 0)
(0.990703 -0.0916701 5.99798e-21)
(-0.289407 -0.049755 2.59146e-20)
(-0.0325431 -0.0402575 2.15928e-20)
(1.08219 -0.0389653 -1.36049e-20)
(-0.256358 -0.0445129 1.20573e-19)
(-0.162596 -0.0352958 -1.98841e-23)
(-0.280045 -0.04833 -2.23973e-20)
(-0.255225 -0.0440568 0)
(-0.161364 -0.0134695 0)
(0.577065 -0.174482 0)
(1.0015 -0.00898144 -7.13912e-22)
(0.994061 -0.0149676 -1.2789e-20)
(0.0919391 -0.01195 -1.17212e-19)
(0.954571 -0.0273344 2.85392e-20)
(-0.0654236 -0.0426517 -7.63514e-20)
(-0.264585 -0.0480369 -1.69413e-19)
(0.886061 0.132367 -1.47222e-20)
(0.67161 0.112069 1.09169e-20)
(1.11187 -0.328932 -4.5979e-23)
(-0.269668 -0.0490639 -4.51044e-20)
(0.985011 -0.0421274 0)
(1.16314 -0.158438 2.47778e-20)
(1.00136 -0.0616118 0)
(0.714127 -0.0219639 -2.91731e-20)
(1.0669 -0.00488323 6.02788e-23)
(0.98602 -0.187985 1.24048e-20)
(1.01641 -0.0335308 1.30889e-21)
(-0.24777 -0.0469913 -1.68236e-19)
(1.06542 -0.0314889 5.01099e-23)
(1.20172 -0.0356852 -9.47498e-20)
(1.15613 -0.163321 -8.03941e-20)
(-0.226587 -0.0423137 -5.28089e-20)
(0.467572 0.0250885 -6.44955e-20)
(1.22506 -0.345525 0)
(1.1114 -0.0417198 -2.16927e-20)
(1.12537 -0.0340917 1.45844e-20)
(-0.211376 -0.0399629 0)
(0.935007 -0.412853 0)
(1.09975 -0.398902 3.20083e-21)
(1.05286 -0.0555171 -1.3721e-20)
(1.03158 -0.0793975 3.07135e-22)
(0.99979 -0.00351582 7.32502e-21)
(-0.227829 -0.0469476 7.62178e-20)
(1.02962 -0.277577 0)
(1.00511 -0.0281045 1.74818e-21)
(1.01856 -0.00265396 -1.06175e-20)
(0.969523 -0.0909649 0)
(0.992976 -0.0128894 1.67595e-20)
(0.960517 -0.0696222 2.90908e-20)
(-0.2782 -0.0470394 0)
(1.3253 -0.148188 0)
(0.632158 0.104755 6.48154e-22)
(0.293494 -0.0271278 0)
(0.944799 -0.452409 0)
(-0.256965 -0.0465083 0)
(1.03727 -0.0443801 3.47497e-21)
(1.17938 0.00063365 0)
(1.20593 -0.0228536 0)
(0.173924 0.0243314 -3.72298e-20)
(-0.237944 -0.044867 9.09478e-20)
(1.33216 -0.145715 2.98811e-20)
(1.02275 -0.00231601 0)
(0.993708 -0.167053 0)
(1.27381 -0.160007 5.26502e-21)
(0.880119 0.275121 3.19609e-20)
(1.18931 -0.182406 -1.67012e-20)
(0.286829 -0.0314302 0)
(1.15293 -0.0952535 0)
(-0.265841 -0.0483185 1.16588e-19)
(1.0333 -0.0117928 0)
(-0.159423 -0.0438846 9.4007e-20)
(1.06854 -0.00628096 -9.21055e-21)
(-0.253393 -0.0425956 0)
(-0.0097217 0.00376423 8.76777e-20)
(1.06905 -0.00719705 2.01138e-20)
(1.19533 -0.180443 -3.54186e-20)
(-0.131193 -0.0435358 -6.19813e-20)
(-0.258539 -0.0449853 0)
(1.0756 -0.124739 -5.27838e-21)
(1.01406 -0.0368014 0)
(-0.287414 -0.0498754 0)
(1.00734 -0.0169629 6.99025e-22)
(1.05146 -0.03448 1.32893e-20)
(-0.216504 -0.0400178 -8.47322e-20)
(1.12711 -0.0407611 0)
(1.01816 -0.0588354 3.57893e-22)
(1.02111 -0.0591646 -6.26075e-22)
(-0.126242 -0.0409922 0)
(-0.258907 -0.0483163 -1.20034e-19)
(1.0226 -0.0604845 0)
(-0.25943 -0.0449131 -7.93582e-20)
(1.16445 -0.0567716 0)
(0.696652 -0.0636469 -3.79872e-20)
(-0.236156 -0.0439103 5.24385e-20)
(-0.260562 -0.0467782 -2.76437e-20)
(0.235628 -0.0549275 1.16234e-19)
(1.28952 -0.0672167 0)
(0.110039 -0.035872 9.05444e-21)
(1.24337 -0.0707423 8.4998e-20)
(0.746926 -0.886452 0)
(0.0820517 -0.0615708 1.95792e-19)
(0.637806 -0.0851792 2.52592e-20)
(1.25078 -0.0127868 -8.27742e-20)
(0.828905 -0.235145 -3.06389e-20)
(1.25099 -0.301822 4.46364e-20)
(0.99981 -0.0619402 1.23071e-20)
(1.05165 -0.050028 0)
(1.16803 -0.0274481 -1.88678e-20)
(0.959323 -0.43618 3.05317e-22)
(0.700154 -0.0136868 0)
(0.0877847 -0.0367927 0)
(1.22401 -0.232465 -4.71208e-20)
(1.00668 -0.0143752 -9.81101e-24)
(1.28119 -0.242856 -7.24777e-20)
(0.990309 -0.0152315 -1.58912e-20)
(1.28672 -0.106004 9.23099e-21)
(1.2018 -0.172417 1.12853e-20)
(1.17956 -0.0562704 3.2552e-20)
(0.972668 0.175282 -4.81696e-21)
(-0.221643 -0.0412822 -8.25564e-20)
(0.827738 -0.0418092 -1.65355e-19)
(-0.0273775 0.00758058 8.51276e-20)
(0.705489 -0.679517 -1.09433e-20)
(0.455292 -1.13221 0)
(1.03585 -0.0444308 -3.06658e-21)
(1.00183 -0.00616077 -1.50546e-21)
(0.477155 -0.0626879 1.05903e-19)
(-0.280244 -0.0485175 -1.16101e-20)
(-0.165208 -0.0443723 8.83669e-20)
(1.15137 -0.11681 2.45466e-20)
(-0.072712 -0.045051 -2.29605e-19)
(1.12283 -0.0324749 -2.68013e-20)
(-0.199716 -0.0389047 -1.11991e-19)
(-0.25149 -0.0475987 1.30575e-19)
(0.741754 0.153938 0)
(1.05055 -0.0335777 0)
(-0.168027 -0.0177156 0)
(-0.24124 -0.0344816 4.82774e-20)
(1.00646 -0.0231291 9.39322e-22)
(1.00215 -0.00690708 9.66569e-22)
(0.0763247 0.269282 1.5504e-19)
(1.02968 -0.0101745 -9.54754e-21)
(1.00041 0.189297 1.01818e-20)
(1.12041 -0.453016 0)
(1.00163 -0.00256739 -2.73665e-22)
(1.08401 -0.177151 4.1633e-21)
(1.10138 -0.126204 -2.77828e-20)
(1.04045 -0.223878 1.13772e-20)
(0.890727 -0.000262251 7.83142e-20)
(1.27953 -0.0749101 -6.56738e-20)
(0.252957 -0.0250718 0)
(1.03617 -0.209493 2.73658e-21)
(-0.211474 -0.0398626 7.98013e-20)
(1.01145 -0.0251525 -1.39329e-23)
(0.997457 -0.163433 -8.99712e-21)
(1.01392 0.301649 1.69813e-21)
(0.611941 -0.234601 0)
(1.22941 -0.23808 -8.77958e-20)
(-0.189456 -0.0326335 6.6278e-21)
(1.07709 -0.0822225 3.01837e-20)
(1.04224 -0.20777 -1.81595e-21)
(-0.0465531 -0.00712872 0)
(1.19975 -0.0336193 1.07256e-19)
(-0.0305464 0.00998777 0)
(0.627568 0.102651 -7.38164e-22)
(1.28869 -0.232851 -1.01226e-19)
(-0.277721 -0.0479128 -4.91521e-20)
(-0.161775 -0.0170382 0)
(-0.241172 -0.0457177 0)
(1.01174 -0.0243937 1.25907e-23)
(1.26951 -0.161277 0)
(1.12871 -0.122107 0)
(0.762083 0.139082 -4.36564e-20)
(-0.158176 -0.0436882 -7.68398e-20)
(1.13936 -0.0624405 -2.21474e-20)
(1.08865 -0.099244 -1.19993e-20)
(0.994644 -0.010604 0)
(0.665896 -0.697368 1.08831e-20)
(1.27897 -0.100201 8.43143e-20)
(1.27426 -0.107047 -1.70659e-20)
(1 -0.00117212 -5.28777e-21)
(1.29614 -0.189655 2.9698e-20)
(1.06116 -0.0347302 0)
(1.27409 -0.0902235 0)
(0.171915 -0.0553751 1.56458e-19)
(-0.192334 -0.0434738 0)
(1.14733 -0.0151013 -2.00956e-20)
(0.977393 -0.038565 7.70272e-21)
(0.576233 0.0242045 -6.43658e-20)
(1.11055 -0.405313 -1.75258e-20)
(0.834647 -0.00260416 -2.91413e-20)
(-0.219812 -0.0418431 8.95107e-20)
(1.09722 -0.124744 0)
(-0.0511253 -0.040005 0)
(-0.240237 -0.0452239 -2.51294e-20)
(1.06227 -0.00935034 -1.9384e-22)
(1.05169 -0.00150483 -2.58238e-20)
(1.01192 -0.00222415 -1.82845e-21)
(-0.231129 -0.0443028 0)
(0.0373093 -0.0253014 8.92235e-20)
(-0.265424 -0.0485303 1.42329e-19)
(0.289288 -0.454697 -1.93921e-19)
(-0.209266 -0.0446873 2.60114e-20)
(-0.221826 -0.0415279 0)
(0.839718 -0.234264 3.05729e-20)
(1.29553 -0.231108 1.16334e-19)
(1.04088 -0.0973225 0)
(-0.0531501 -0.0423744 9.07465e-20)
(1.21909 -0.00845714 3.39585e-20)
(0.614511 -0.380383 -1.53498e-19)
(1.11869 -0.049706 -3.99001e-20)
(0.754251 0.148282 0)
(1.04759 -0.0351285 4.78706e-21)
(0.396334 -0.0757221 -7.13634e-20)
(0.761515 0.446075 2.4806e-20)
(-0.0487474 0.0037787 0)
(0.132749 -0.0568488 9.31304e-20)
(1.00185 -0.0130403 -6.58063e-21)
(1.02869 -0.0105535 0)
(-0.106878 -0.010067 -3.10348e-20)
(-0.205733 -0.0377811 -5.24462e-20)
(1.07146 -0.0347383 1.01713e-20)
(1.1804 -0.152154 -1.64113e-20)
(-0.225634 -0.046851 6.49295e-20)
(1.30046 -0.0605162 4.72813e-20)
(1.13064 -0.0854497 -4.57489e-20)
(0.900709 -0.0532882 1.63012e-21)
(1.30343 -0.063035 -3.23072e-21)
(1.11841 -0.119344 -1.83816e-20)
(0.985389 -0.0400167 -1.96067e-20)
(-0.232783 -0.0461245 -6.78122e-20)
(-0.274728 -0.0459962 0)
(0.235348 -0.0183456 -1.27485e-19)
(1.17874 -0.0594261 0)
(1.08365 -0.0407509 2.83043e-20)
(-0.216123 -0.0452446 5.85941e-20)
(1.04421 -0.199726 -6.78232e-21)
(1.23872 -0.0699075 0)
(1.16544 -0.0229605 0)
(-0.283343 -0.0501118 1.03173e-19)
(1.05291 -0.0261744 9.01914e-21)
(1.00463 -0.0188309 -1.00864e-21)
(1.00164 -0.00992651 -1.14768e-22)
(1.00162 -0.0317414 -1.75445e-21)
(-0.241973 -0.0397476 -2.32098e-20)
(1.22449 -0.276918 0)
(0.413796 0.0248645 -8.70101e-20)
(-0.206903 -0.0448692 0)
(0.505169 0.0243375 1.40515e-19)
(-0.0580733 -0.044444 2.36702e-19)
(-0.0577786 0.0029629 0)
(-0.0499326 -0.00797541 0)
(1.07132 -0.0185768 8.47578e-21)
(1.14645 -0.0127273 0)
(0.807954 -0.0578787 4.68487e-20)
(-0.201675 -0.045302 -1.26722e-19)
(0.995212 -0.0141744 0)
(1.23161 -0.2752 0)
(0.920247 -0.0133213 4.76908e-20)
(0.139419 -0.053939 -1.73522e-19)
(1.20135 -0.0382805 -4.1961e-20)
(1.24938 -0.00679007 0)
(1.09293 -0.442383 -3.27652e-20)
(-0.287576 -0.0504713 2.37941e-19)
(1.0088 0.291145 0)
(0.1424 -0.0433686 1.42153e-19)
(-0.267626 -0.0477772 -1.09205e-19)
(0.0414906 -0.0430461 -1.74311e-19)
(1.18388 -0.012895 -2.06056e-20)
(-0.245751 -0.0390218 -1.91289e-20)
(1.05336 -0.053847 9.51436e-23)
(0.989747 -0.014781 -1.82915e-20)
(0.311059 -0.0309259 0)
(0.994008 -0.0111403 -3.07888e-20)
(1.07963 -0.0821702 0)
(1.18491 -0.0109112 4.08556e-20)
(1.17835 -0.0698898 -7.59426e-20)
(1.08677 -0.474324 2.0958e-20)
(1.04346 -0.0191765 1.48723e-20)
(0.989898 -0.0163677 3.51292e-20)
(1.29827 -0.323586 -2.46899e-20)
(1.00213 -0.0590822 1.03434e-20)
(-0.268695 -0.0461836 -4.3963e-20)
(-0.226256 -0.0426266 1.27388e-19)
(-0.227665 -0.0470972 1.48174e-19)
(-0.223404 -0.0421934 -8.83226e-20)
(1.05379 -0.209942 -1.62253e-20)
(-0.199493 -0.0423634 1.02929e-19)
(0.860155 -0.0119557 2.23766e-20)
(-0.048264 0.0075454 0)
(1.06434 -0.0327943 2.11257e-20)
(1.3009 -0.179745 4.90965e-20)
(0.854059 -0.251257 -1.27931e-20)
(1.05131 -0.0255378 -1.34048e-20)
(1.07241 -0.0370407 -1.18209e-20)
(1.14514 -0.0654116 -2.43069e-20)
(0.859029 -0.0182007 0)
(1.04478 -0.0197883 -2.50505e-20)
(-0.0930887 0.00100886 -4.22049e-20)
(0.102695 0.222588 3.60952e-21)
(1.11406 -0.117513 6.00168e-20)
(-0.239332 -0.0474172 6.97147e-20)
(1.29278 0.0163272 3.68089e-20)
(1.07333 -0.0108143 0)
(0.928997 -0.145982 7.67384e-20)
(1.27485 -0.196998 6.54621e-22)
(-0.240208 -0.0462642 0)
(1.07447 -0.0131604 -3.75363e-20)
(1.12049 -0.233443 0)
(1.14069 -0.0226806 -1.70466e-20)
(0.043923 -0.0429197 -9.2267e-20)
(1.06202 -0.0321927 -1.29768e-20)
(1.04619 -0.0178731 -1.64025e-20)
(-0.00947386 0.00233223 0)
(-0.260576 -0.0468064 0)
(-0.245796 -0.0385024 -2.01039e-20)
(0.728835 0.0777118 -1.8006e-20)
(1.00167 -0.00651701 0)
(0.998847 -0.0380832 0)
(0.610767 -0.115586 -6.16144e-20)
(-0.255416 -0.0446524 0)
(0.98346 -0.0435431 0)
(1.02199 -0.00987654 -3.49054e-21)
(0.994589 -0.0151289 0)
(0.97109 -0.113292 3.06174e-20)
(0.978425 -0.0365619 -2.19442e-20)
(0.117849 -0.00688645 0)
(1.00243 -0.0265221 -9.54816e-21)
(0.507014 -0.925119 -5.80177e-21)
(0.337147 0.0220157 3.67986e-20)
(0.405974 -0.165806 -5.39622e-20)
(1.06256 -0.0125312 1.29881e-20)
(-0.251755 -0.0455525 5.27829e-20)
(-0.194212 -0.0420181 -7.95314e-20)
(0.955498 -0.0617732 3.05616e-20)
(1.11287 -0.286499 8.72829e-21)
(0.98133 -0.0654152 0)
(-0.228939 -0.0470399 1.1738e-19)
(1.07987 -0.238837 0)
(1.01201 -0.0344172 -3.01773e-21)
(1.00441 -0.0267272 -7.74399e-21)
(0.999049 -0.0364418 -5.01998e-21)
(-0.257452 -0.0460677 0)
(0.531278 -0.382317 -9.10336e-20)
(0.207801 -0.0112719 9.53266e-20)
(0.986937 -0.0393878 -4.16712e-21)
(1.04692 -0.0192002 9.76984e-21)
(1.20707 -0.0257977 2.76295e-20)
(1.18195 0.00175167 -4.99029e-20)
(1.12746 -0.0851236 4.67344e-20)
(0.0999308 -0.00817341 -5.41968e-20)
(-0.241199 -0.0385595 1.85073e-20)
(1.04932 -0.0362985 0)
(1.00887 -0.0240559 -7.50142e-22)
(1.16182 -0.0215503 7.39857e-20)
(-0.0206833 0.0028962 -8.39064e-20)
(1.21708 -0.10494 7.64432e-20)
(1.16559 -0.0466218 0)
(1.0016 -0.00666272 2.98223e-21)
(1.28854 -0.318394 6.0868e-20)
(1.0678 -0.235319 -8.23112e-22)
(1.00842 -0.0244871 2.37152e-22)
(1.04647 -0.0106121 0)
(1.29284 0.0155978 -6.37589e-20)
(1.05999 -0.343682 -4.00375e-21)
(0.99427 -0.0221178 7.79655e-21)
(0.723603 -0.228687 0)
(1.30838 -0.191859 0)
(1.00764 -0.0236278 -2.83144e-21)
(0.760725 -0.0583154 0)
(-0.287015 -0.0507109 -2.0954e-19)
(1.07382 -0.00997746 1.08943e-20)
(0.981297 -0.121429 -1.10003e-20)
(1.00608 -0.0730136 0)
(1.16969 -0.0420964 2.86121e-20)
(0.0232806 -0.0430996 1.26718e-20)
(0.194909 -0.0610567 1.58521e-19)
(1.26346 0.00795376 -6.32061e-20)
(1.00955 -0.0247919 -9.8159e-22)
(-0.232734 -0.0473353 -6.45146e-20)
(-0.244614 -0.0358394 6.1566e-20)
(0.537541 -0.150376 7.45703e-20)
(0.00688317 -0.0267006 -1.81622e-20)
(1.0255 -0.269384 0)
(0.982973 -0.0214252 1.81896e-20)
(1.12333 -0.0298889 0)
(0.648216 0.109657 -1.05388e-20)
(1.02141 -0.00402653 6.41915e-21)
(1.07278 -0.0341022 1.23705e-20)
(-0.0464458 -0.00641579 2.63945e-20)
(-0.093022 -0.0429542 -5.22722e-20)
(1.11335 -0.043624 2.63378e-20)
(1.00423 -0.0734635 0)
(0.662319 -0.539216 -3.11605e-21)
(0.207164 -0.0326922 0)
(1.00928 -0.0175897 4.13498e-22)
(1.02127 -0.00896878 0)
(1.0474 -0.15111 0)
(-0.25678 -0.0481211 9.70891e-20)
(-0.181233 -0.042891 0)
(0.855704 -0.834719 3.55875e-20)
(0.658159 0.31678 9.17618e-20)
(0.00532962 -0.0294822 -1.89233e-20)
(0.867842 -0.143395 0)
(-0.284328 -0.0512578 2.44544e-20)
(1.2178 -0.0113883 3.53712e-20)
(1.03381 -0.0427992 3.16065e-21)
(1.14361 -0.0217878 -5.09868e-21)
(-0.254419 -0.0408264 0)
(1.01185 -0.0335299 1.47775e-21)
(-0.25676 -0.0413788 0)
(1.10949 -0.130201 0)
(-0.151225 -0.0339937 -3.9451e-20)
(-0.258983 -0.0420357 0)
(0.852136 -0.242059 3.71192e-20)
(0.86908 -0.0591148 -8.74687e-20)
(0.983367 -0.0651653 0)
(1.0758 -0.234435 0)
(0.109626 0.00319125 -4.74473e-20)
(1.29018 0.0205882 0)
(-0.195588 -0.0325319 -6.84443e-21)
(0.272896 -0.0445447 0)
(0.02219 -0.0293485 -1.6951e-20)
(0.230501 -0.051292 -1.78729e-20)
(1.00696 -0.161761 -3.15278e-21)
(1.27503 -0.310322 6.77418e-20)
(-0.150726 -0.0314422 -4.46491e-20)
(-0.0951089 -0.0398947 -1.69162e-19)
(0.465142 0.0340059 -3.33224e-20)
(1.03567 -0.0316482 1.32361e-20)
(1.26828 -0.312862 0)
(0.26904 -0.0287266 0)
(1.28856 -0.241278 1.33773e-19)
(0.234681 -0.0322434 1.18561e-19)
(1.12074 -0.0282227 -1.27359e-20)
(0.907668 -0.283432 0)
(1.01319 -0.0242722 -1.18524e-21)
(0.910992 -0.0653611 -5.37114e-22)
(-0.238071 -0.0329283 -8.87228e-20)
(-0.252469 -0.0395292 -7.50239e-20)
(-0.24666 -0.0369805 2.28656e-20)
(1.07406 -0.0296415 0)
(0.968672 -0.0479757 -1.84495e-20)
(-0.255493 -0.0407055 1.29868e-19)
(-0.257258 -0.0459296 5.23342e-20)
(1.28739 -0.0710757 0)
(0.75751 -0.574654 0)
(-0.270075 -0.0494631 3.11545e-20)
(0.970365 -0.110345 -1.38705e-20)
(0.11382 -0.00547406 0)
(1.03915 -0.0812455 2.18389e-20)
(0.939635 -0.0462764 -4.4948e-20)
(0.834803 0.121742 -3.51462e-21)
(-0.160659 -0.0177532 3.16614e-20)
(0.163207 -0.0427202 -2.90792e-22)
(1.02579 -0.0214106 5.06402e-21)
(1.03351 -0.077615 0)
(-0.1102 -0.0368409 0)
(1.00026 -0.00257804 3.09601e-22)
(1.03283 -0.0304752 -6.87677e-21)
(1.04552 -0.0101234 0)
(1.07234 -0.0146623 -1.81004e-20)
(0.765154 -0.219143 0)
(0.699958 -0.0462873 -1.00033e-19)
(0.97772 -0.123144 -1.24949e-20)
(1.00519 -0.0211603 -2.5379e-21)
(1.01206 -0.0480859 0)
(1.05059 -0.0240134 2.90503e-20)
(0.99999 -0.0022328 -1.75757e-20)
(1.00009 -0.00211485 2.11301e-21)
(0.938874 -0.0444634 -2.84257e-20)
(-0.0626937 -0.0442961 -1.26985e-20)
(1.31271 -0.0215813 1.65244e-21)
(-0.173666 -0.0431144 9.30886e-20)
(-0.203539 -0.044282 -1.04305e-19)
(-0.230432 -0.0470996 -3.4848e-20)
(1.09543 -0.428471 3.21176e-20)
(1.04241 -0.187236 -1.70278e-21)
(1.01965 -0.0603975 1.92367e-21)
(1.04943 -0.105331 0)
(0.751207 -0.217386 -8.60947e-20)
(-0.282022 -0.0507547 0)
(1.13197 -0.0292365 6.34694e-20)
(-0.256972 -0.046625 -1.03694e-19)
(0.815389 0.0134079 -6.96715e-20)
(1.14366 -0.0182116 3.85617e-20)
(1.27533 -0.328681 1.65429e-19)
(0.827649 0.0229914 9.38451e-20)
(-0.287176 -0.0506048 -2.42455e-20)
(-0.145275 -0.0305499 0)
(1.03128 -0.0407941 0)
(0.357129 -0.0653847 0)
(1.00624 -0.024701 -3.79895e-21)
(-0.260202 -0.0469802 1.21077e-19)
(-0.248727 -0.0376633 1.28753e-20)
(1.28432 -0.1019 1.79129e-20)
(0.708019 0.156408 2.0416e-19)
(-0.254372 -0.043279 0)
(-0.256593 -0.0432045 0)
(1.17385 -0.157115 0)
(1.01302 -0.0492519 3.18642e-21)
(-0.289478 -0.0515321 2.57314e-20)
(-0.0805874 -0.0425713 2.73329e-20)
(-0.232447 -0.0470603 -1.52309e-19)
(0.941225 -0.0574253 -3.89121e-20)
(-0.251313 -0.0390541 -9.40913e-20)
(0.325697 -0.048244 0)
(0.987287 -0.0375432 1.38436e-20)
(0.419157 0.0897589 0)
(1.30931 -0.0199186 2.28e-20)
(1.02521 -0.0111625 2.64797e-21)
(1.06216 -0.230918 1.00407e-20)
(-0.202842 -0.0451206 3.5274e-20)
(1.29965 -0.0529441 4.54227e-21)
(1.07886 -0.121369 -1.11495e-20)
(0.0197326 -0.0195159 3.33245e-20)
(1.00717 -0.0154053 0)
(0.683239 0.0889624 -1.41813e-20)
(-0.287919 -0.0510919 0)
(-0.100635 -0.000776339 0)
(0.458151 -0.0629203 0)
(0.878894 -0.801353 -4.65394e-20)
(-0.171029 -0.0422068 -3.65261e-20)
(1.32466 -0.181364 -5.3483e-20)
(0.899618 -0.526837 -6.98499e-21)
(1.248 -0.25068 -4.98148e-20)
(0.210981 -0.020007 9.6853e-20)
(0.751515 -0.187375 -4.97673e-20)
(1.2369 -0.0658335 0)
(1.26363 -0.133225 -3.14343e-20)
(1.06428 -0.0297689 -1.67019e-20)
(-0.215774 -0.0368004 2.15039e-20)
(0.886394 0.00440927 0)
(1.02602 -0.0108769 -1.6026e-22)
(-0.26444 -0.0448082 0)
(-0.0954786 -0.0377441 0)
(-0.17011 -0.0412656 -4.3433e-20)
(0.223247 -0.030267 -1.22945e-19)
(1.03547 -0.0787264 0)
(1.05099 -0.198021 7.26181e-21)
(-0.27024 -0.0504885 -2.99563e-20)
(-0.0978801 -0.00648523 4.92398e-20)
(0.755433 -0.306045 1.35424e-20)
(-0.219102 -0.0408059 1.30141e-20)
(1.19904 -0.133165 -7.13238e-20)
(0.42922 0.0502914 -1.01961e-20)
(0.913474 -0.0678793 -5.27286e-20)
(-0.267973 -0.0514943 0)
(0.902892 -0.037331 -8.18619e-20)
(-0.189927 -0.0169489 7.38376e-20)
(0.818013 0.0202961 1.12424e-21)
(-0.275295 -0.0471411 -9.38038e-20)
(1.28201 -0.0709423 0)
(0.944389 -0.0579355 3.65165e-20)
(1.13373 -0.230734 -3.22148e-21)
(1.03285 -0.0418499 -5.52617e-21)
(1.24842 -0.098131 -2.91198e-21)
(0.241073 -0.0410717 0)
(0.405729 -0.240997 -2.43389e-19)
(0.290422 -0.0407693 6.19868e-20)
(-0.190452 -0.0433767 -5.00439e-20)
(1.2808 -0.124361 -4.31925e-20)
(-0.0710299 -0.0440447 -6.19491e-21)
(0.922211 -0.0784122 0)
(-0.0559847 -0.00234296 0)
(1.01326 -0.581086 -6.49553e-20)
(-0.265765 -0.0446657 4.27912e-20)
(1.07701 -0.00641173 2.19409e-20)
(0.874642 -0.138898 6.48375e-20)
(1.26043 -0.136497 6.50271e-20)
(-0.287139 -0.0496921 0)
(1.0439 -0.0940358 1.39498e-21)
(0.275672 -0.0489729 3.44768e-20)
(0.45908 0.114581 0)
(1.02402 -0.0105707 -1.33919e-20)
(1.20665 -0.175951 -6.2425e-20)
(0.945529 -0.0704079 1.59827e-19)
(1.28217 -0.0788787 -1.7081e-20)
(0.40746 -0.0991926 -6.03855e-20)
(-0.220847 -0.0405351 0)
(-0.206245 -0.0455252 1.55681e-19)
(0.970911 -0.0476453 4.46465e-20)
(-0.0992015 -0.0032974 5.31354e-20)
(1.13579 -0.0624413 -1.98368e-20)
(1.02751 -0.0192612 5.05617e-21)
(1.17895 -0.177432 -3.11388e-20)
(1.07615 -0.0143549 3.24401e-20)
(0.977703 -0.15419 -1.50655e-20)
(1.07388 -0.0858763 1.38141e-20)
(-0.247749 -0.0374509 0)
(1.15139 -0.0540896 -5.91324e-20)
(-0.0747755 -0.00500567 -2.41598e-20)
(1.07555 -0.0312242 0)
(1.02328 -0.0100044 7.98826e-21)
(1.03159 -0.030655 3.26658e-21)
(1.04138 -0.0336167 8.55133e-21)
(-0.194508 -0.0348404 -1.04951e-19)
(-0.213649 -0.0358568 -7.79541e-20)
(0.612818 0.0258915 1.31367e-19)
(-0.104644 -0.00812671 4.6074e-20)
(-0.209069 -0.0348038 3.9497e-20)
(0.739948 -0.0504358 -4.89776e-20)
(1.15743 -0.216123 0)
(0.227026 -0.0157694 0)
(0.148548 -0.0533136 -1.92171e-19)
(0.153733 0.0237073 -1.74088e-20)
(-0.285334 -0.0498994 -4.58058e-20)
(1.28795 -0.326909 -7.25349e-20)
(-0.211213 -0.0363542 0)
(0.908029 -0.200613 -2.88827e-20)
(0.980017 -0.0364106 0)
(1.03638 -0.0564362 5.89848e-21)
(1.01055 -0.0478717 0)
(0.915068 -0.387174 0)
(1.25256 -0.0444596 -8.80455e-20)
(1.07017 -0.016047 0)
(1.21527 0.00734865 0)
(1.19613 -0.135209 8.44779e-22)
(0.76928 -0.297902 0)
(-0.11857 -0.0407088 5.08206e-21)
(1.07486 -0.0121106 0)
(1.00027 -0.00272202 2.81934e-21)
(1.24704 -0.092709 -9.04434e-20)
(-0.261434 -0.043124 0)
(-0.126755 -0.0351711 -8.96497e-20)
(1.16135 -0.0508698 -2.71072e-20)
(-0.160173 -0.0414713 0)
(1.01786 -0.00184174 1.0968e-20)
(1.2752 -0.102819 -1.03009e-19)
(1.00284 -0.0709727 0)
(1.04655 -0.102497 0)
(1.00285 -0.0265886 2.53047e-21)
(1.08472 -0.0900094 -1.80435e-20)
(1.17702 -0.147048 1.39227e-20)
(0.987606 -0.0517697 1.91627e-21)
(0.142248 0.00630387 0)
(-0.25636 -0.0447388 -1.09053e-19)
(0.839155 0.00442858 -6.90167e-20)
(1.01038 -0.0244426 0)
(0.884132 -0.394287 0)
(-0.149078 -0.0412766 0)
(1.0671 -0.00596673 -7.68247e-21)
(0.995914 -0.00922318 -1.29551e-20)
(0.716465 -0.199647 0)
(0.108758 -0.0342425 0)
(-0.287012 -0.0518248 -1.64143e-19)
(0.988492 -0.122606 -8.28333e-21)
(0.773004 0.487849 1.6608e-20)
(-0.16692 -0.0184397 0)
(1.17464 -0.520942 -1.08732e-20)
(1.01938 -0.00480077 0)
(0.9925 -0.0126542 -3.15325e-23)
(0.0654502 -0.0457931 0)
(1.3151 -0.183767 -3.00904e-20)
(-0.223741 -0.0461156 3.91366e-23)
(0.922993 -0.147567 -4.40769e-20)
(-0.0293211 0.00532499 0)
(1.2903 0.0194884 4.02154e-20)
(1.25021 -0.0898517 1.25775e-19)
(1.0598 -0.00865694 -1.83265e-20)
(1.20011 -0.434901 3.74628e-20)
(-0.1453 -0.0252598 7.00724e-20)
(0.871855 -0.015238 -1.87948e-19)
(0.63863 -0.0273712 4.99432e-20)