/*--------------------------------*- C++ -*----------------------------------*\
| =========                 |                                                 |
| \\      /  F ield         | OpenFOAM: The Open Source CFD Toolbox           |
|  \\    /   O peration     | Version:  v2012                                 |
|   \\  /    A nd           | Website:  www.openfoam.com                      |
|    \\/     M anipulation  |                                                 |
\*---------------------------------------------------------------------------*/
FoamFile
{
    version     2.0;
    format      ascii;
    class       volScalarField;
    location    "100";
    object      ddt0(omega);
}
// * * * * * * * * * * * * * * * * * * * * * * * * * * * * * * * * * * * * * //

dimensions      [0 0 -2 0 0 0 0];


internalField   nonuniform List<scalar> 
14033
(
2.84041e-07
-0.502112
-2.27653e-07
0.00310107
-0.0805435
0.00204436
-0.00516506
-0.0740496
1.14989e-05
2.92896e-06
1.19718
-0.087911
-0.0223073
-1.65578e-06
-0.0033273
1.62181e-06
5.89717e-07
-0.0340894
-1.92783
1.17318e-06
-0.00150075
0.0204481
0.054149
-0.00135679
-0.00513284
0.00191405
-0.000693282
-2.84017e-06
0.0202406
-0.013063
-8.44307e-06
-1.16892e-06
-0.0016968
-2.85516
9.04659e-05
6.51948e-05
0.00266166
-1.78054e-06
-0.00120305
-0.00311938
-0.000114924
0.000231408
-0.0109489
0.0733763
3.90649e-06
0.00196629
-0.00124155
0.000615393
1.66114e-06
0.00529751
0.0599975
-0.0826021
-0.0187192
0.00791117
0.0198054
-0.000620549
0.0175416
-6.97791e-06
-0.0103472
-9.20524e-05
-0.000909373
0.00010423
-5.77558
-0.00152403
0.000355611
-0.864091
-0.0504642
-0.26132
-3.96323e-07
-8.14542e-05
-0.00875526
0.000127051
0.0677791
-0.0267863
-0.0439848
-6.81299e-06
-0.0347023
-4.29865e-05
3.96945e-07
0.00514269
0.0277623
0.00135719
0.00990005
0.0128005
-3.92809e-05
4.00651e-06
-0.00346664
4.14017e-07
-0.0287995
0.0768477
-0.0010002
0.000136717
0.00584818
-0.479779
0.26014
-0.00340475
4.06217e-05
-0.610671
0.0181039
1.65591e-06
-0.000474946
0.0578801
-9.07114e-06
-1.73173e-07
0.0754081
-1.16287
0.00243511
-0.293179
-0.0272581
-0.00756997
-2.75125e-06
-4.14362e-07
-3.11593e-06
-0.0104594
-8.0353e-07
-0.0622823
-0.0220234
6.89271e-06
0.0500877
0.00136702
-0.000731797
-11.4109
0.000513381
-7.70561e-08
-0.0666591
-0.00839864
-0.0766259
-0.130226
-3.22535e-07
-0.00546086
0.0919794
-0.0590498
0.00218964
0.0362997
-0.735008
-3.45618e-06
-0.0581821
0.00815628
-0.000790812
0.0103064
-0.275604
-0.0122377
-0.000129721
0.0844696
6.13027e-06
3.66315e-06
0.00441976
-0.267263
2.99653e-08
-0.00620431
2.89288e-07
0.0384778
-0.000666729
-8.59707
-0.120911
9.9879e-05
-0.00986625
-1.64714e-07
0.000331
-0.0142229
-0.0546339
0.146363
0.00147727
-0.00156431
0.00750776
-0.000551278
-0.0253205
-0.0039388
-0.10119
-2.2577e-05
-0.047899
0.000175308
-0.00726098
-0.0101656
0.00436232
-0.00170658
1.00588e-06
2.8052e-07
1.02317e-06
0.0240764
0.0085894
-0.0355537
2.51805e-05
-0.00356918
-9.30648e-06
-0.000155659
-0.000171035
5.29022e-06
0.00243889
-0.0102817
-0.00049638
-0.000417529
4.37191
0.000183631
-0.000184711
0.00544819
-9.73443e-05
0.0301353
-0.822123
1.10082e-06
-0.0488812
-3.49409e-05
1.53545
-9.78648e-06
0.00609164
0.00153331
-1.69235e-05
-4.43965e-05
-0.0207965
0.0867903
-0.00129679
-2.46592e-06
-0.0914917
-9.41311e-06
0.00151625
-0.00014293
-0.00387725
-3.03464
0.231292
-1.42337e-05
0.00701315
-0.0124076
2.0894e-06
-0.000975247
8.46951e-07
0.0722229
0.051117
-0.000453017
-0.0267324
-0.000162275
-5.26221e-05
-0.00061634
-3.35983
0.0826323
-0.000203909
-8.68852e-07
-0.0498746
-9.72541e-05
0.000482934
0.0046348
1.30588e-05
-0.121224
-0.00196268
-0.0330747
6.49474e-05
0.193979
2.25783e-05
-0.0270028
-0.0861884
0.00142146
0.0109885
-0.0115784
3.98372e-07
-0.00145819
0.000584412
0.00795659
-2.55926e-07
-0.000586044
-2.82478e-08
-0.346832
2.07254e-06
-0.0560681
-2.42276e-07
7.45454e-06
-4.96931e-07
4.55994e-05
-0.0101391
-0.0315985
-0.000169308
-0.00744403
0.000859485
-7.51061e-07
-0.663476
-0.038442
-2.49823
2.15914e-06
3.53236e-07
-1.45815e-06
-0.00617595
-0.0055149
-1.65278e-06
1.12978e-05
-0.0554357
0.00147293
-1.11312e-06
-0.0383742
0.00823565
0.000365824
-8.27885e-05
0.00212555
2.99922e-07
-0.0347537
1.02238e-06
0.0536314
-0.00596164
-0.00788295
-0.0412685
-0.0041936
0.0271682
0.0023264
-0.0285091
-0.0032052
-0.00440612
0.00419449
-0.043502
3.88961e-07
-0.000845272
0.0120796
-0.0136603
4.79155e-08
-0.0201926
-0.129105
-5.64342e-07
0.72379
-0.000463424
-0.0452688
-0.00873583
2.11773e-07
0.12555
-0.000371826
7.13629e-05
-0.00166762
-2.07184e-05
8.20944e-06
0.00321722
0.000698127
-0.000811364
-3.30918e-07
-3.82723e-06
0.00128166
0.0344452
-1.05176e-05
-2.03185e-07
0.00491642
-0.000850275
-9.3006e-06
-1.56086e-07
-0.00048256
-0.0985245
1.42574e-05
0.000232324
0.0603564
-0.00167226
-0.00730089
-0.000161968
0.00272367
-0.00288836
0.0017488
-0.0950527
1.70474e-06
0.00126202
0.00584636
9.5245e-06
0.00571212
-0.000172577
-0.000666973
1.63882e-05
-0.498863
0.00735318
0.136834
3.47356e-06
-0.289189
0.000560671
1.42317
-6.91788e-08
1.76589e-06
0.0144552
4.33272e-07
-0.0119411
0.0678222
0.134608
1.02486e-05
-0.00075306
-0.00135704
7.40428e-06
0.198077
-0.0336434
2.0378e-05
-0.00745123
0.000211093
1.83461e-06
8.81304e-07
-0.00136896
1.14264e-05
-0.00567585
-1.17724
-0.0333062
-0.0120612
-2.68167e-05
-0.189126
0.0001843
-0.00333896
0.132388
5.42287e-08
0.00116811
1.85091
0.000637554
-0.00303511
3.50971
2.15679e-05
-3.05432e-07
0.0860629
1.22928e-08
0.0770436
-0.170105
3.7424
2.647e-05
0.00395614
0.00833705
-0.0293833
1.67811e-05
0.00514743
0.00100987
-1.21903
-1.82343e-06
-0.00643189
0.0302823
0.00112843
-0.000416309
-0.0417035
0.00113008
-4.47007e-05
-0.0427563
0.111916
-3.57437e-05
-0.00646904
0.00730753
0.0745266
-0.00127284
7.33809e-08
-4.61977e-06
3.53415e-06
-0.495218
0.00241223
-2.32474e-07
10.0405
-0.0814342
0.0112088
-1.77169e-05
-0.000140337
0.0478033
1.46856
-6.96993e-07
-0.000247279
0.0065183
-0.0198496
0.42478
-1.48074
-0.000446493
0.155451
4.87041e-06
0.030178
0.000549619
0.0358868
-0.107124
1.90118e-06
0.0405004
1.32515e-05
-0.21074
-0.117691
18.213
-0.023686
-0.00141894
-0.0455227
-0.0141098
-0.804402
-4.42286e-05
-0.00132984
0.494865
0.0175883
8.96208e-08
2.49462
0.00219599
-8.4879e-05
0.0504034
-0.0238623
-0.00358245
0.00145124
0.0215955
0.01459
0.0783268
0.000861091
0.0505561
-0.0030098
-0.000532415
-0.00477698
-2.6647e-06
-2.21603e-07
-1.11194
-1.03467e-07
-0.291259
-3.72354
1.03993e-07
-4.142e-05
-0.0067177
-2.81309
1.76975e-06
-0.000547135
-3.83274e-06
-2.90616e-05
-1.67643e-05
7.07997e-07
-0.0435626
-5.81332e-07
1.8384
-0.102003
-0.00256516
-3.17232e-07
0.0133122
-0.0131615
-0.0512511
8.22888e-07
0.0199878
0.0245423
5.13785e-05
6.46509e-06
2.97752e-06
0.096731
-0.0795489
-0.0219701
0.000300281
-0.00729689
0.0627253
-0.000714701
0.00424932
1.86865
-1.18053e-06
0.727613
0.0154596
0.000570089
0.00659522
0.0125241
-0.0566937
-4.60529e-06
-0.00431749
0.0325252
0.0235436
4.96077e-05
-0.00266088
0.145862
-0.000621431
1.58577e-06
-0.00424281
-0.0427793
0.0666023
0.0255125
-6.41246e-07
0.00228361
-0.106937
-0.000474306
6.52995e-08
0.00999726
-1.33099e-05
0.00313966
-0.00171244
-0.0314324
-0.0359373
1.33496e-06
-0.0908738
-0.0052511
0.00120241
-6.69122e-07
3.77081e-05
0.0118284
0.0743054
0.000446916
-0.00282924
0.0028874
-5.7372e-07
-0.00445207
-0.00666692
-0.0296008
-0.000519591
3.54593e-05
0.122999
0.0650962
-2.30631e-05
0.549207
0.0505743
2.80628e-07
0.00968877
-0.0045423
-0.00948532
0.000631239
-0.000225076
0.0424506
0.00725076
0.000373253
-0.0648122
-0.00457562
-2.08604
-1.37774e-07
3.55378e-05
-0.0312467
0.0150872
0.00752076
-4.82359e-06
-0.0136163
0.0404339
-0.0581283
0.0618066
-6.02836e-05
-0.0172414
0.037023
-0.00179298
-0.107792
-9.07375e-08
-0.0129143
0.00108704
-0.0162862
-2.34198e-06
-0.045769
0.00158681
0.00229642
-3.09762e-07
2.07149e-06
3.49037e-06
-0.000764123
0.0771832
0.00239667
-0.000947659
-0.0179358
0.0018711
0.0160978
0.0229719
0.0530537
-5.81335e-05
0.00571466
0.0948078
-0.0573637
0.00910874
-0.0211109
-3.49835e-09
-0.00222888
2.52741e-06
0.00449545
-0.00737236
0.0376746
2.17349e-06
0.782971
-0.048491
-0.185224
-1.14772e-06
0.0489802
7.23621e-07
1.08822e-05
-0.00125385
-1.53393e-06
0.000847726
-4.14725e-07
-2.54718e-06
-5.82525e-07
-0.000325717
20.1652
-0.44817
-0.000255404
-0.110426
0.00594908
-0.560627
-1.82767e-06
0.0350558
0.00340384
0.00463
-0.00453824
-0.18495
7.11168e-06
1.81662e-05
1.64064e-07
0.0993569
5.23809e-08
0.108984
-0.000146532
5.92346e-05
0.00506209
0.0079216
3.87099e-06
-2.03768e-05
0.0011522
0.000850714
-0.478597
0.0021336
5.64159
0.000919951
0.000158664
6.69112e-05
-0.128641
1.59662e-06
0.00436633
-0.000683339
-0.554093
-3.89283e-07
-0.120395
-3.28876
-1.35977e-05
-0.05202
-6.77768e-06
-3.40009e-06
-0.102086
0.116157
0.000443122
-0.00127183
0.000140175
0.0143479
6.65482e-06
0.302911
-1.28642e-05
0.0354877
-0.0943801
0.000504964
-0.000571541
0.0841484
4.88621e-09
0.0123095
-0.00353707
-0.000167134
0.00132646
0.0149099
0.0570852
-0.00698862
0.0294347
-0.00321494
-0.00621653
0.133717
0.000501305
-0.197736
5.49149e-06
5.6451
1.80284e-06
0.0044807
0.0246735
-0.00307742
-0.424211
-0.0294041
-2.88464e-07
2.81647e-05
-2.75081e-05
-0.0291857
0.00167951
-0.240813
0.0178907
-1.93368e-05
0.127725
-0.00351602
0.318155
-0.000704082
0.0024911
-0.0791284
-0.00715319
-0.0393077
3.6284e-05
-2.63127e-08
0.000415721
-0.00902068
0.00563703
-0.0230806
0.00244948
-3.15576e-07
-2.75202e-08
-0.0940834
-0.029855
-0.0084386
0.0250418
-4.7145e-06
3.9723e-08
2.22322e-07
-1.39311e-05
3.55601
0.00194163
-0.124331
-0.18521
7.55103e-07
0.0610798
-0.0899164
0.0125464
-1.75643
0.00224152
0.603906
-0.205779
-0.0731832
0.0669313
-4.77966e-07
0.00621864
0.015876
2.49791e-05
0.0259712
1.77469
0.00161627
0.00153533
0.101541
-0.0883094
0.0170599
-0.0225061
0.0333264
-0.0778517
-0.0391234
-0.00031036
-0.038336
-0.068162
-1.7078e-05
-8.08298e-05
0.0297486
7.79777e-07
2.57067e-07
-0.0796697
0.141693
0.00116661
8.76836e-07
-3.78182e-05
-0.101364
0.0366203
-5.31501
0.0449195
0.000193197
-0.433902
-0.0326416
-8.44029e-08
-0.183612
0.000823387
5.79426e-07
-9.89954e-07
-1.42123e-07
5.87918e-09
-0.000146717
-6.02033e-06
0.4123
-0.00116081
0.0467905
0.0463558
2.85354e-06
-3.14179e-08
-0.00134665
-0.0647468
-0.0997045
-0.0523032
-0.00346476
2.03045
0.00313772
2.66934
0.00226278
-1.38363
-2.80268e-05
0.00105823
-1.11208e-06
0.0554676
5.12141e-05
7.182e-10
9.61564e-05
-0.0746124
-1.29114e-05
-0.000529259
-2.77195e-06
-0.00216045
-0.0308293
0.00773029
0.0325029
0.151378
0.00919491
-0.0901428
5.39393e-05
-2.03358e-06
-0.000914637
0.108538
0.0675544
0.0362064
0.0404054
3.07383e-06
0.0273692
-1.99973e-06
0.00154074
-0.155327
1.57024e-05
-0.0164628
-3.97024e-06
3.54936e-06
-2.15549e-05
-0.000230196
0.00743422
0.000420426
-3.17289e-05
2.71753
-0.217012
0.00790996
-0.00109656
2.26396e-05
0.0330083
2.26319e-05
0.0136528
-0.000776409
0.100649
-0.0333938
1.44091e-07
-0.0050897
0.0272052
-0.000212851
0.00325424
-0.00456423
-0.000253238
-0.317105
-0.0249555
2.08375e-06
-0.00631051
-0.00134374
0.492485
-0.00204831
-0.725832
0.00456867
-0.00207479
-0.066149
0.00157659
-2.90413e-07
0.000602584
-8.95616e-05
-0.157473
0.109245
-0.00431959
-0.152164
-1.9545e-05
4.53931
-0.00176504
-6.16882e-08
-0.000237271
3.18304e-05
0.0222528
-0.00555471
-0.00246928
-0.0201228
2.00868e-07
0.00150734
0.0779052
-8.0482e-05
0.0203277
6.62069e-07
-0.0243021
-0.0805264
-0.0285436
-0.0162205
0.00643857
0.00134268
0.00719276
2.26467e-08
-1.25034e-07
0.041041
0.12219
1.40616e-07
-3.72625e-05
0.0174442
1.642e-06
0.00297037
-0.00110903
-0.0518703
0.021755
-8.29159e-07
-0.0102913
0.0303942
-0.948833
-2.90709e-06
2.15404e-05
0.0024905
-0.279039
-0.00135919
-0.192877
4.62451e-06
-9.62016e-06
-0.00618811
-0.297985
-0.0290102
0.000282741
-1.76258e-06
0.0335097
1.39266
3.83345e-07
-3.10922e-05
0.00245405
-2.02097e-06
-0.0103608
0.812743
-3.25543e-05
1.01432e-05
0.000309059
1.57902e-08
-9.86268e-08
0.288016
0.00618742
0.00132334
-0.00607076
0.000496213
3.00335e-05
-0.0698412
0.400843
0.115091
-0.000301332
7.47051e-09
-0.00074866
-0.01616
-1.65187
0.0161739
-1.4923e-05
-0.000209907
0.00225756
3.49504e-10
0.0620057
1.26894e-08
2.40334e-05
0.0732393
0.0050437
-8.34633e-07
0.391842
-1.66655
1.07532e-06
1.55239
6.47857e-06
-2.26848e-06
0.113928
-0.000541244
-1.37874
0.109758
-0.00132043
-0.0497296
-5.70202e-08
-1.5873e-05
-0.441196
0.000221756
-0.361222
4.2623e-07
-0.000573485
0.00243437
-0.00236804
0.219993
0.00207107
0.0564205
-1.39541e-07
-1.29548e-06
7.04982e-06
6.27098e-10
-0.0108785
0.00187608
-0.00600053
-8.58696e-05
0.010055
-0.00304519
1.78683e-06
3.85334e-05
-1.69739e-06
-2.39031e-07
0.491598
-0.0155931
-0.0479332
0.00591925
-0.00205669
0.073451
0.142689
-0.00104462
-0.0868663
0.0674975
-0.000954358
0.0884106
-0.000671506
-0.000219657
-0.0187155
-0.00010408
2.82683e-06
1.36477e-06
0.00562329
0.0779877
0.3286
-0.0117485
-0.167598
-0.00257983
-0.0499944
0.189736
0.00804337
0.0171479
-0.0406911
-0.0181942
-0.00388089
-0.00992575
-0.00103257
-0.00273129
1.18073
-0.0305031
-0.0396486
-0.09396
-0.0708487
0.0273559
-0.00526518
-0.00111004
0.0463913
0.0246856
-0.236419
-1.95315e-06
-0.00242645
-0.00330673
-0.300212
-0.000563822
0.000157972
7.43626e-06
0.0061036
0.00534213
0.508279
1.89379e-06
-0.0379563
-0.143271
-0.00185853
-0.0102559
-0.850389
-0.000128583
0.223889
-0.0231058
5.40682e-08
-0.0421681
-6.51146e-07
0.000446577
-0.000128075
-0.0026856
0.397524
0.00266649
-0.0269517
0.00437183
-0.0888399
-0.0072967
-0.000161011
6.19958e-05
-0.000859105
-5.59824e-05
5.07215e-07
-0.00493453
-0.000536972
0.000368855
0.0634424
0.115741
-0.000139318
-5.09258e-06
0.493462
-0.00162725
-0.0276996
1.93425e-07
0.0152057
-0.000654912
-0.00213443
0.00575599
0.115909
-0.113699
8.99441e-06
0.00699894
-0.0339092
-0.216847
0.0625448
-0.0104315
0.0334442
0.00240528
4.95507e-05
-0.00254196
3.58557e-05
1.79607e-05
-0.0179498
-3.52493e-05
1.9503e-07
0.00156941
-0.000104139
-1.47973e-06
0.078532
0.0140167
0.00727711
0.0310755
-0.0149772
0.00936803
-0.0298765
-6.16515e-07
-0.00594321
0.251052
-1.50876e-07
-0.059023
-0.00114212
5.89519e-06
5.35829e-06
-0.0420181
0.0474857
-0.000617119
1.64949e-06
7.64331e-06
1.0412e-06
-0.00818021
-6.00361
5.19751e-06
2.52696e-06
-4.47002e-08
-0.189662
-0.0403681
0.000491268
0.00159547
-0.0336754
-0.00266828
0.442105
0.0042613
-0.00228977
0.0026655
7.03942
-2.64733e-06
0.00056421
-10.5626
-0.0330677
-0.0981661
-0.00222882
-0.00169154
-0.00107541
0.00073433
-0.0167891
-4.35201e-05
-4.39659e-06
-4.69927e-05
-0.0118536
-0.0131033
-8.41304e-05
-5.86156e-07
0.012588
0.00577308
-0.0876112
0.000825112
0.250452
-0.0780659
4.61637e-07
-0.0219581
3.29509
0.000453459
0.120582
-0.00964504
0.00150629
-0.0739269
-0.000285761
0.000347434
0.00056025
-0.0223387
2.98879e-06
0.0728122
2.30167e-07
6.02428e-06
-0.10156
-0.0549662
2.11636e-07
0.013242
-1.20429e-07
-0.00458923
1.65773e-06
0.236155
1.16525e-06
0.0253397
3.88373
0.000140314
0.010411
0.0161781
0.0634988
3.83473
-0.0318419
-0.294615
-0.000103752
5.47625e-07
0.000679986
-0.00288642
-0.025083
1.82945e-05
0.00329474
-0.0261111
9.22838e-05
-0.0149114
-0.00185121
0.106957
0.0326398
-0.0151559
0.0310098
-1.86494
-4.19041e-05
1.73026e-05
-0.00952534
0.0087397
-4.97663e-06
7.59072
6.58616e-05
0.0554409
-0.000443208
-0.110877
-9.23189e-07
0.138403
-1.67108
-7.34361
-2.79215
-0.000412557
4.36571e-05
1.87182e-09
0.00708799
-5.96965e-05
0.0995225
-0.18141
-0.0038628
0.00154974
0.000609491
0.00776535
0.0138065
-9.31e-06
0.0135883
0.00209896
1.94498e-05
-8.07725e-08
0.0014287
0.00108887
-0.00172494
-7.35217e-06
1.42275e-06
-0.21221
1.34848e-10
0.000176849
7.91167e-06
0.000933977
-0.214052
0.0126246
-0.0212364
0.156084
-2.29857e-05
0.000402542
-0.00086237
0.0185154
-2.06808
0.0367621
3.87067e-06
7.26003e-06
-0.0752826
0.000862418
-0.0503535
-1.22262e-05
0.00392004
3.64976e-07
-0.0129406
-0.004414
-0.290633
0.0004379
-0.000728101
-0.00241165
0.0560803
0.00302514
-0.00751742
0.000472393
-0.000142734
-0.00163952
0.475967
-0.0750916
4.94902e-07
-0.000406784
0.000117561
0.0406705
1.16557
-0.0659512
0.0210761
-0.088987
-0.0903479
0.092841
5.15274e-06
-1.428e-05
8.53751e-05
-0.150345
-1.39309e-06
1.54743e-06
0.000205217
0.00879392
-0.686145
3.53914e-05
-12.3624
1.66512
4.40351e-06
-2.96456e-08
-1.92619e-07
2.38074e-06
4.44535
-0.748913
-3.41745e-06
0.0350667
-0.00346655
-3.72115e-06
0.000583487
0.130285
0.0505805
-0.00150167
0.000759354
0.00344791
-0.0020438
-0.0107384
0.163885
0.205094
0.0118534
-0.0210629
0.000866795
-0.0247383
-0.0802146
0.0314363
0.0397823
0.000387525
-0.126012
0.0254852
-0.0508564
-2.62627e-05
-0.00063754
0.0575257
-1.43504
-0.0658664
0.015432
0.000841167
-0.178251
1.89662e-06
0.247056
1.2411e-05
-3.25452e-06
0.000736863
9.16065e-07
-2.50884e-05
-4.20198e-07
-0.132721
0.0504598
-1.21512e-07
2.48188e-06
1.75321e-06
-0.00395218
-9.50291e-07
-0.0232363
-0.00186179
-0.00325203
-0.000152051
0.0012945
0.0769081
0.148652
-0.00392701
0.000776545
-6.89471e-06
-0.028466
0.00538125
-0.00045876
0.000561861
-0.0569575
-0.0358982
7.49042e-06
-0.0152393
0.433188
-0.00850241
-0.00174087
-0.00645225
1.72995e-06
0.0451801
-4.21184e-06
0.000591401
-1.64124e-05
-0.689747
0.41056
0.137277
0.00217368
-0.000195572
0.168664
-3.26724e-06
-0.00225427
-0.0502265
0.00346274
0.000578879
0.262038
0.000112876
0.000231433
0.0064903
-0.000252539
-0.000600113
1.62926e-07
2.32089e-06
0.00387015
-1.24078
-0.143796
0.000248692
-0.0681187
0.022331
0.114022
0.481517
3.45554e-06
1.57846e-05
-0.396209
0.00768991
0.0740906
-0.00802144
-5.24433
2.73708e-07
-0.453332
-0.0116034
0.00975668
0.000292499
0.00555826
0.0694533
-0.00104766
0.00314125
-0.00139219
-0.0021725
0.00751261
-9.66779e-07
0.000125342
0.00428441
0.000514619
0.611442
-0.00370674
0.0034746
-0.000663121
0.00783807
-0.114715
0.00503531
0.235731
-0.174468
0.000573776
0.00018997
0.000396224
0.00727374
-0.00577151
-0.00372033
0.000606205
-0.0085094
0.0333721
-0.0229175
0.0284293
-0.000735264
-0.000231307
0.00401546
0.11618
-1.02775e-05
0.00445293
-5.57007e-05
-0.000764444
-0.00192943
0.0210968
0.000956187
0.0034698
-0.255062
2.05865e-06
0.00024082
-0.00249737
-2.53084
0.000276905
8.16616e-06
-0.328615
0.0143928
0.0183164
0.000871035
3.18472e-05
-0.0493661
2.44154e-07
-4.51726e-06
0.0071278
4.36511e-06
-0.993463
0.00373613
-0.00200153
-4.14884e-05
-1.19119e-06
-2.16876e-05
2.8035e-05
0.00185588
-0.0941317
0.0182168
0.181887
-5.94364e-07
1.20647e-05
1.49255e-06
2.84499
-0.00194467
6.10283e-06
-0.000209928
5.46796e-06
-0.00111642
0.00147419
0.0984945
0.0802825
-0.00596072
0.190634
-4.80155e-06
0.00296755
0.0597927
0.000663039
-7.45662e-08
0.714259
-2.45184e-06
-0.00267422
0.860298
-2.56789e-06
-0.028863
0.136015
-0.000716111
-1.83466
0.135495
1.39346
-0.27081
0.163434
-0.00756839
0.015734
-4.69724
-0.065662
2.48727e-07
0.0532413
0.000754095
1.02209e-05
0.0452682
-0.00352903
-0.0010133
0.0279883
3.69895e-06
-1.50945
0.346059
-0.155601
0.01165
0.0168278
-2.10056e-07
0.489586
-1.75496e-07
-1.83183e-06
-0.0907336
2.17682e-07
0.000191015
-0.00218066
0.0342131
-0.00106635
-1.1681
-2.45408
6.27367e-07
-0.00102613
0.000410444
-0.000330399
-1.8367
0.00619614
0.00326733
-0.000230073
-2.61778e-06
8.5477e-05
0.000246343
0.00109758
-4.01307e-07
0.00272394
-0.0045401
0.000400827
-0.0823375
-0.0149267
5.27871e-05
2.52381e-06
3.23143
0.745575
-2.89187e-07
0.00320737
1.5562e-06
-0.00441403
8.76329e-05
0.126988
0.000240869
0.0169281
0.0336576
0.00268288
-0.0177605
0.00101737
2.42516e-05
-1.36633e-05
-0.000224151
-0.0071882
-0.00162275
-0.0611447
-0.0299279
0.265231
-0.0129801
5.16072e-06
-0.000523113
-0.0479402
-4.19924e-06
5.52529e-06
-0.000129456
0.00151768
0.192796
0.0641211
0.0376402
0.0150106
0.0215781
-0.00593174
0.0439594
-0.991257
-4.58e-07
-8.00946e-05
0.00352041
-0.590758
0.0542424
-0.0237308
0.162
0.00116171
0.000100259
-2.48303e-07
-4.70132e-06
1.01555
0.000160732
-1.72322e-07
0.2587
0.0634485
0.628564
-1.32109e-05
0.25819
0.0020158
-0.519664
5.32324e-06
0.0318143
2.31895e-05
0.000223234
0.00101636
0.00427469
-0.00298626
-0.00201177
0.0116036
-4.59452e-06
2.97134e-06
-1.43245e-06
0.000668617
0.0076348
2.03973e-06
-0.000527893
0.0837891
-1.42667e-07
-0.00457788
-1.96926e-06
0.000945986
-8.63986e-05
0.107214
-2.46762e-07
-0.118614
-0.0195269
0.000813569
0.000589964
3.63902
0.000703302
-0.00192339
-0.200567
0.864116
1.50866e-06
2.17844e-05
-2.92749e-08
-4.38697e-06
-0.0991525
-0.0382287
0.0355619
-0.00373225
-2.31875e-06
-1.24495
0.0136566
0.0673242
-0.125723
-0.000246105
4.70689e-06
-0.156236
1.94805e-07
-0.00017372
-0.100186
0.0262597
-0.0587748
-0.0194809
1.89241e-06
0.0464919
0.00998157
-0.332349
0.00108655
-0.0967821
0.0487809
2.85994e-07
-2.37745
-0.121005
0.133098
3.29392
-0.000103142
-0.0359065
-4.45e-06
-1.69785
-0.00103314
-1.69962e-06
6.78602e-06
-0.282053
-0.090075
0.0207549
1.02712
-0.0229435
-0.093815
0.0004679
6.37872e-08
-0.114801
0.0595209
-1.82434e-06
9.05886e-07
0.194217
-0.0161288
0.0315209
0.00080498
-0.00231281
3.30838
-0.00204939
-0.134508
0.0267755
4.03688e-05
-0.110667
-0.0304457
-0.090415
-0.00442747
-6.72668e-08
-5.8505e-06
-0.00448635
-0.0656781
-6.50211e-06
0.0286749
0.00546099
-0.00230379
0.00120047
-2.47298e-05
0.00151889
4.3551e-05
-0.0854393
0.142939
0.331646
-0.00174627
0.0875123
-0.000602446
-0.0488878
-0.39864
7.95906e-05
-0.000362459
2.87888e-05
-0.718624
-7.54066e-07
0.00033881
0.000148994
-0.00173839
-1.38403
-0.00729869
0.00277494
-0.0852985
0.0105037
-0.0116774
-0.0777577
-0.00157021
-0.00141794
-5.59288e-05
-0.00630004
0.00966446
0.000544915
-1.09653e-06
3.28342e-05
0.0163855
-0.000420856
1.38211e-06
-0.000980917
1.27863e-06
-0.00135922
0.00535101
0.0564998
-0.00190368
-0.0227152
7.8591e-07
-0.00431418
-0.0273928
0.0224118
-5.91991e-05
-0.000716202
0.0951015
-3.20901e-06
-0.00473945
-0.0282401
0.000427309
0.00352025
-1.5871e-07
-0.057503
0.00847823
0.00778101
5.22743e-07
-0.000643309
0.0747228
-0.000180365
-3.61664
0.0779057
-0.00112961
1.54135e-05
0.00295113
0.115695
0.182288
0.0181439
0.0201481
-0.000219765
2.12114e-06
-9.53132e-06
0.00594598
0.0588246
-0.00483597
-0.0277167
0.196136
0.124166
0.0249322
-0.0596426
-0.166512
0.000280882
-0.000334222
-0.00125312
-0.000391207
-0.0310752
0.062233
0.0259065
0.225038
-3.01809e-07
0.00213011
0.00176918
-0.00524708
-0.00208558
-0.040927
0.03068
0.000133393
0.000130187
0.144192
0.00271608
-0.00555986
-0.0177712
-2.51471e-07
0.000238441
-1.27493e-06
-0.0900731
0.0280856
0.0210769
-0.000861996
-0.00141191
0.000323164
-0.000845592
0.0677785
1.03824e-06
0.0110454
0.0180888
-0.113694
-0.0728421
-0.0133869
0.123784
-0.150519
0.0212898
0.0564573
0.0225278
-1.86221e-06
-0.327878
-0.0443246
0.00881935
-3.5697
0.231173
0.00959733
-6.2047e-06
0.121664
-0.01796
0.00679872
-0.000254351
-0.00638029
0.221004
-1.07204e-06
-2.52973
0.130205
1.0232e-06
-0.00230431
5.74123
-0.00777443
-0.00201832
-0.00993162
0.000997622
0.0159179
0.0463653
0.00262573
0.201005
-0.249963
-0.000327358
-0.00389971
-0.0986465
0.00847806
0.0243843
-0.0708155
0.1702
0.000272502
5.60018e-08
-0.00719558
-0.00362978
-1.25069e-06
0.221186
-0.00110632
-1.34355
0.000491714
0.00524031
3.33087e-06
-0.00398921
0.0120557
0.00191862
2.26744e-07
0.0593872
0.0124717
0.29303
0.002839
-1.98165e-07
0.00102803
0.00109221
-0.185115
-0.000541787
0.335046
0.0131422
0.114784
0.00058542
-0.0813174
0.0186766
-0.00242213
0.00570644
0.00312529
-0.000649238
-0.0175909
0.000106459
-0.000169739
-1.42199e-05
-0.0392513
0.113922
0.000210218
-0.00196027
-0.0119198
-0.36607
-0.000578124
0.00310196
0.060347
-0.0654879
-0.0883081
6.69495e-07
1.32626e-05
-0.00580897
-0.20557
1.80375e-06
0.00213796
0.0719919
4.78008e-06
0.0424114
-0.00282682
0.00186155
-0.0136877
-0.0176241
0.0169037
0.0552794
5.70103
0.181163
0.00182708
-0.0124237
-0.136657
-0.00127622
-0.0218942
-0.0221953
0.00287573
0.000284855
0.0925011
-0.000803591
0.337705
6.6125e-05
0.00305043
-0.204608
-0.0368316
0.000881653
0.0088765
0.00159708
-1.29454e-05
-5.63118e-06
-1.10255e-06
-0.0039315
-9.20451e-08
0.0895112
-0.359888
-0.00331157
-0.00941604
0.00109909
-0.00999619
-0.0139588
0.00390506
-0.0423719
2.826e-07
-0.00357957
-0.0177279
0.0330678
0.0196947
-0.00867964
2.44669e-05
-0.0015618
0.000914292
0.00727011
7.67995e-07
-0.00564742
0.000409598
0.000963959
-0.0238126
-0.00187972
-1.74298e-05
0.353525
5.99461e-05
-0.000886761
4.89658e-05
0.034289
-0.00544417
0.039646
-0.00206177
-0.00165372
-0.00041217
-0.00492808
0.000142971
-0.0848173
1.15168e-06
-0.0350008
-0.00619575
-0.00092573
-0.00451624
-0.0198117
-2.01016
-0.000169979
-8.7165e-05
0.128118
0.103196
-0.000213117
-0.00105009
-0.00312346
-0.16873
0.0504391
0.0540745
-0.00020617
-1.03229e-06
-0.0016111
0.0526041
2.80602e-07
0.00216251
0.000653795
-1.42097e-07
-0.00648561
-9.65623e-06
0.0447697
8.47901e-07
3.14304e-07
5.2277e-06
0.428555
-0.0933614
-0.00493043
-0.00460479
0.0730873
9.12173e-07
0.599997
-0.511007
0.000120989
0.00760377
1.59148e-06
3.26074
6.44961e-08
-0.124002
-0.0151584
0.000193002
-0.186533
0.195913
-0.00496639
-0.0366671
-0.0131001
-1.43105e-05
-0.0510345
0.000854016
-0.0114169
0.00254707
-0.00673568
-1.34368e-07
0.00176912
0.000379653
-0.00445868
0.0384951
-1.04526e-08
-0.0234636
-0.0222804
-0.00410267
0.000488776
8.53338e-06
0.0203553
-0.000728738
-0.0127381
0.00385848
0.0167493
0.00115773
2.80775e-05
-0.0085758
-0.0334477
2.18101e-05
-0.00433474
-7.67989e-07
0.349129
-0.000733307
-0.00345272
0.0500122
-0.0144005
0.140067
0.00233459
2.97684e-07
-0.000173603
-0.00545418
-0.00368595
0.000150508
2.45649e-05
0.0376429
0.134259
0.0699343
-1.20703
-0.0740955
0.0106256
-0.0597924
-0.0153815
0.0191949
-0.0292466
-0.00638405
-5.22392e-08
-0.051843
-0.037971
1.73361
-0.0209008
0.00436338
-0.0591974
-0.128556
2.76907e-08
0.0694174
-0.0143195
-7.56725e-08
3.44574e-07
-0.961318
1.00466
-0.00398705
0.00270551
0.0241328
-0.0550115
0.0387478
-1.09942e-06
0.0328656
0.0382599
0.000336072
0.0921555
0.00670766
0.346537
-0.000403603
0.00125801
0.0445175
-3.04786
-0.0663106
0.000441946
0.000561238
-1.72716e-07
-0.00126279
1.28917e-05
0.0468628
3.49948
0.0651587
0.0974911
0.00799162
0.00275198
0.000181488
-3.93892e-05
0.281191
-0.0166095
0.000867814
-0.00116863
0.00134684
-0.0401321
-0.00219975
3.40575e-06
-0.00740794
0.00882851
0.0468184
0.413836
0.00200907
0.00170002
0.0102483
0.0277742
-8.66902e-06
0.0908632
0.021647
-0.0299322
0.00022452
-0.507119
-2.18617e-07
0.00208626
-0.00266949
5.75143
0.271123
-0.0124269
0.00596515
-1.58496e-06
-0.796394
-0.000715888
-1.20201
1.61929e-05
-2.2638e-06
0.023181
-0.0322431
-0.0419924
0.629029
0.0095244
-0.0250262
-0.00028829
-0.00213895
-1.63761e-06
-0.00214468
-0.00332922
0.000300426
0.0640179
0.00763683
0.0517341
-1.09651
0.427457
0.0453338
-0.0114615
0.00321065
4.62274
-0.0274853
0.000948593
6.07473e-07
0.0536027
9.13593e-06
-0.0581334
-2.57036
0.00311543
-0.00825985
-2.65124e-06
-0.574893
-0.262311
1.15126e-05
0.139914
0.000125017
3.5299e-06
0.192639
-4.14321e-08
1.02271e-05
0.0501081
0.000217798
1.53285e-06
-0.000291405
-7.88747e-07
-0.000873236
-0.000421897
0.000240983
3.0959e-06
-0.119931
0.000703814
-0.00873978
0.0137208
-7.63293e-08
0.0112582
-0.00335912
-3.89919e-06
0.0494498
-8.1385e-05
-0.00410311
6.72693e-06
-0.00217467
-0.00110992
-0.000115168
0.000126255
0.00183697
-1.50878e-07
-4.09341e-07
0.00248433
-3.55405e-07
5.25529e-07
1.5122e-06
3.70152e-07
0.0408304
-0.32032
0.0104591
0.00156269
0.000358615
0.00463089
0.000403931
0.00060903
0.000324388
0.00174631
-0.00632692
0.108037
-0.000343115
-1.43875
8.34911e-05
-0.556877
0.00461536
0.666455
-0.0034283
0.0838734
-3.13091e-06
-0.146518
-0.00210765
-0.442081
-0.00539877
-8.77435e-06
-0.000404964
0.00122646
4.95374e-05
1.34638e-05
0.000682111
-0.00932919
-0.0292739
-0.00203618
-0.00123097
-1.2704
-1.25685
-0.119332
0.463609
0.000341671
-2.96758e-07
-4.08377e-06
-0.3577
0.000439892
4.34078e-07
-0.171777
-0.00125667
0.00787311
-2.96465
-0.00556328
-0.017196
0.00118289
1.4553e-05
-0.0197066
0.330256
0.00612768
1.68418
-0.514257
0.0509846
0.0720544
-0.00261902
4.91891e-05
-0.0164397
9.23904e-07
-0.998766
-6.46649e-06
-2.87904e-06
-0.00784494
0.0021063
-0.00293853
2.12792e-05
2.48327e-05
0.513354
-1.7616e-06
0.000237424
0.00527029
-0.054262
-0.00563654
-0.0072027
0.0018259
-0.000259144
-0.144492
-0.00161444
0.000300219
0.0195047
0.00582838
0.00398128
0.000614279
0.000297863
-0.028364
-0.036228
3.94798
-0.0583957
0.000653287
-0.00432727
-1.57287e-06
0.0129258
2.59535e-06
8.82495e-05
0.0152749
-0.000403439
-0.00746481
0.0110582
0.000339074
-0.00761919
0.00214312
-0.0636961
-0.000778123
-1.96938e-06
0.00815872
-0.0154081
-0.185511
0.323286
0.047128
-0.436491
-6.88087e-07
-0.0772975
0.000168065
-0.000984696
0.0015777
-0.00129472
-1.44459e-07
-0.0302607
0.0399106
-0.376726
0.000512268
5.64907e-06
-0.480923
-0.00813275
-0.000484412
0.00027136
0.00114132
-0.0221164
-0.0404134
0.00920023
0.00879946
0.00273818
-0.00360166
0.0402204
-5.11968e-07
-2.56703
3.89923e-07
-0.00892791
3.0733e-05
0.000277192
-1.90165
-0.5804
-3.31015
-0.300284
-1.27575e-05
0.0206921
-0.0374858
0.971586
1.3461
0.00498235
-0.00210178
-0.187017
0.0581704
-2.41336e-05
0.150293
-0.00228915
-0.000315153
-0.14335
0.0497381
-0.0233954
6.17919
-0.0198742
0.177971
0.00169159
0.252825
-0.738778
-0.00111858
0.0931327
0.104389
-5.37756e-06
1.7424
0.000190607
2.91952e-05
-0.00237797
-0.000204293
-0.00102838
0.0141969
0.159966
-0.191431
0.0788008
-2.93088e-07
-0.0390274
0.000284522
0.010151
0.43209
6.10593e-06
-0.0219201
0.0198818
-0.179932
-7.49154e-06
-0.061861
-0.711099
-0.0012235
-1.59649e-07
0.00070866
-0.111962
-7.48972e-05
-0.013635
-0.00231536
0.00161724
-7.68268e-06
0.613727
0.020224
0.115618
0.00140113
-2.10666e-07
-0.00180669
-9.55757
-1.00077
-0.0160282
-0.0294995
1.49242
-0.00241983
-0.25177
4.90619e-07
1.99572e-07
0.00177638
0.0286696
3.12328e-07
0.0412898
-0.585426
0.0530101
-0.0103793
-2.04913e-06
-2.11643e-08
-0.00380359
-3.80313e-05
-3.73688
0.057472
1.62505e-07
-0.00325396
0.115918
0.00214964
-0.31337
-0.509239
-0.00778109
0.271757
-0.0405373
3.21096
0.0996899
-0.279299
-0.000689261
-0.000148491
0.000342695
-0.000105377
7.32642e-05
-0.000421437
0.068163
3.40241e-05
0.000754533
0.0264784
0.000130013
0.0105208
0.000666596