/*--------------------------------*- C++ -*----------------------------------*\
| =========                 |                                                 |
| \\      /  F ield         | OpenFOAM: The Open Source CFD Toolbox           |
|  \\    /   O peration     | Version:  v2012                                 |
|   \\  /    A nd           | Website:  www.openfoam.com                      |
|    \\/     M anipulation  |                                                 |
\*---------------------------------------------------------------------------*/
FoamFile
{
    version     2.0;
    format      ascii;
    class       volScalarField;
    location    "100";
    object      k;
}
// * * * * * * * * * * * * * * * * * * * * * * * * * * * * * * * * * * * * * //

dimensions      [0 2 -2 0 0 0 0];


internalField   nonuniform List<scalar> 
14033
(
0.000145011
0.000254952
0.000147592
0.000160386
0.000170899
0.00015713
0.000162812
0.0124873
0.000149922
0.000147566
0.000179221
0.0229872
0.0745049
0.000147154
0.000155309
0.000147457
0.000146413
0.000182317
0.018647
0.000149814
0.00015866
0.0298539
0.0698433
0.000161467
0.0414338
0.000160082
0.000198898
0.000148141
0.0225992
0.0789565
0.000144532
0.000147607
0.000155245
0.0231922
0.000151574
0.000149815
0.000160662
0.000149753
0.000155735
0.000155615
0.000170086
0.000152542
0.0269123
0.0453517
0.000148885
0.0377992
0.000158325
0.000152681
0.000197965
0.0205962
0.000171419
0.00018256
0.0380317
0.0477461
0.000181789
0.0001563
0.0656002
0.000148202
0.000167504
0.000149195
0.000199091
0.000149607
0.00029944
0.000151297
0.000160627
0.000193772
0.037551
0.000204442
0.000147687
0.00015152
0.000165364
0.000149455
0.0730561
0.0643634
0.0305365
0.000149639
0.000169905
0.000149442
0.000148606
0.0001999
0.00018745
0.0350655
0.0215454
0.0195056
0.000149627
0.000149609
0.000155429
0.000146361
0.000174098
0.0195434
0.000153496
0.000151101
0.000161333
0.00773463
0.00641142
0.000166209
0.000160649
0.000198091
0.025452
0.000148947
0.00018418
0.0430122
0.00014993
0.000147607
0.0225805
0.0100153
0.000171413
0.000196197
0.000175837
0.065236
0.000148981
0.00014774
0.000148941
0.0422443
0.000148974
0.0167625
0.0247228
0.000149781
0.000190549
0.0388013
0.000151926
0.000345237
0.000154237
0.000147758
0.0666721
0.000163846
0.0725753
0.000216546
0.000147168
0.00018423
0.0777232
0.000188726
0.000199547
0.018688
0.000195353
0.000147061
0.0133374
0.0452487
0.000165672
0.000218091
0.00015926
0.0629109
0.000176326
0.00018981
0.000148586
0.000150866
0.0469053
0.000181244
0.000144524
0.000160424
0.000149641
0.000191088
0.000156331
0.000314769
0.000264646
0.000149413
0.0258964
0.000147865
0.000154745
0.0288452
0.0146395
0.000242944
0.000153579
0.000161268
0.0310616
0.00015477
0.068512
0.000175244
0.0203369
0.000149066
0.000227178
0.000150189
0.000160068
0.000166788
0.00017069
0.000199431
0.000149515
0.00014715
0.000147019
0.0241328
0.0591253
0.000219766
0.000148729
0.0410626
0.000150396
0.00015421
0.000149759
0.000148727
0.0494624
0.000183586
0.000160244
0.000151879
0.000381482
0.000150913
0.000154541
0.000160847
0.000149857
0.0673222
0.000566334
0.000148629
0.0687033
0.000151608
0.000137386
0.000150019
0.0674961
0.0775903
0.000149555
0.000152391
0.065015
0.0789351
0.000175474
0.0001488
0.000188018
0.000148993
0.000154937
0.000149761
0.000159327
0.00423661
0.000224608
0.000159167
0.0169623
0.0439935
0.000148919
0.000155135
0.000149603
0.0125606
0.0659359
0.000159425
0.0147818
0.000149678
0.000149237
0.000151804
0.000167823
0.0757174
0.00015515
0.000146697
0.0588544
0.000148984
0.000150246
0.000166212
0.00014905
0.00018059
0.000184262
0.0157801
0.000150312
0.0476682
0.0001488
0.0347277
0.000217826
0.000154447
0.000255617
0.035422
0.000147298
0.000159013
0.000158101
0.000227481
0.000148807
0.000155917
0.000148434
0.0774127
0.000148749
0.0281284
0.000149456
0.00014903
0.000147674
0.000149027
0.00018274
0.000203456
0.000149989
0.000171026
0.00015252
0.000148621
0.00025152
0.000204015
0.000252813
0.000147106
0.000147015
0.000147246
0.0450638
0.000159709
0.000149753
0.000148631
0.0602265
0.0288343
0.000147151
0.0590777
0.000166889
0.000160318
0.000151827
0.000155669
0.000149804
0.000183209
0.000147119
0.0776799
0.000159199
0.000162638
0.000196893
0.000164901
0.0795494
0.0529032
0.000166426
0.0461979
0.000175931
0.000153871
0.0605908
0.000147122
0.000154907
0.00018473
0.000181932
0.000148805
0.000180956
0.000242493
0.000147215
0.000472174
0.0358922
0.0753947
0.000181073
0.000149807
0.00745968
0.000152939
0.000149847
0.000178854
0.000149943
0.000148025
0.000154735
0.000159828
0.000176177
0.00014653
0.000147927
0.0712368
0.0643029
0.000152216
0.000147873
0.0348443
0.000152789
0.000148569
0.00014883
0.000152396
0.0709294
0.000148969
0.0328714
0.0229472
0.000154218
0.040027
0.000159654
0.000156857
0.000169018
0.000160007
0.00092451
0.000147206
0.0371336
0.000201123
0.000148531
0.000165847
0.000151245
0.000157661
0.000148873
0.000201984
0.0333152
0.0801818
0.000148763
0.0810889
0.000155478
0.000190708
0.000149384
0.000148846
0.00016515
0.000149745
0.0423221
0.0811721
0.000214012
0.000148655
0.000155311
0.000155773
0.000147977
0.0508962
0.000172604
0.000149562
0.0393826
0.000176982
0.000148874
0.000147865
0.0001549
0.000151802
0.043713
0.0119729
0.000224256
0.000207486
0.000148418
0.000189179
0.0506369
0.000157742
0.0367333
0.000147237
0.000159655
0.00019282
0.032386
0.000203156
0.0415156
0.00014987
0.000146368
0.0213452
0.000149143
0.0294878
0.00020854
0.000183134
0.000150465
0.000174876
0.0686054
0.00644104
0.000149024
0.000185163
0.000155334
0.0010645
0.000149816
0.0225767
0.0687784
0.000152321
0.000153989
0.000168015
0.000154594
0.000149209
0.0203835
0.020023
0.000149455
0.0457138
0.0197692
0.0443201
0.00015323
0.000146372
0.000148615
0.000148642
0.0232583
0.000156665
0.000148015
0.00044193
0.0704549
0.000198169
0.000231921
0.000150407
0.0682346
0.000197974
0.00015051
0.0388591
0.000161615
0.0393382
0.000293742
0.0038023
0.000149991
0.000337833
0.000149257
0.0671304
0.000165491
0.0241441
0.0687761
0.000149671
0.0669292
0.000149464
0.000205615
0.0129357
0.000532122
0.0225564
0.000161825
0.0582845
0.0418004
0.000257693
0.000151877
0.0440473
0.000203594
0.000200198
0.000146082
0.000253526
0.000155418
0.0001507
0.0711681
0.000206386
0.000158435
0.000166361
0.0653813
0.0293925
0.0847372
0.000183322
0.0760826
0.065427
0.000151968
0.0290135
0.000147665
0.000146014
0.000660493
0.000146149
0.000258482
0.0261486
0.000149697
0.000150577
0.000159591
0.000183269
0.000148636
0.000179246
0.000147848
0.000149098
0.000149153
0.000147405
0.000171126
0.000147618
0.000199155
0.00016947
0.000157318
0.000146922
0.0277194
0.0659218
0.0599774
0.000147431
0.000180115
0.000179711
0.000145772
0.0001492
0.000149564
0.0790151
0.000252945
0.0216058
0.000150763
0.000168745
0.0193639
0.000154788
0.000159838
0.000287501
0.000147646
0.000211437
0.0252467
0.000153186
0.000165395
0.00022664
0.0242721
0.000149149
0.000178187
0.000303881
0.000171563
0.000152212
0.0477811
0.0220286
0.000156413
0.000149616
0.000165608
0.083573
0.0749959
0.0309084
0.000147201
0.000165034
0.0700917
0.000152851
0.000149096
0.000165944
0.000148759
0.000165395
0.0214555
0.000227818
0.000255273
0.000149081
0.0127907
0.000172961
0.000155168
0.000147014
0.000150349
0.0223682
0.000221488
0.000166637
0.000152109
0.000184108
0.000149824
0.0699688
0.000166093
0.0478086
0.0399078
0.000149741
0.080626
0.0362718
0.000149108
0.00492263
0.0792404
0.000145864
0.0274624
0.000157161
0.0634079
0.000151805
0.000151736
0.0662533
0.000181594
0.000149746
0.000181803
0.0667757
0.000262895
0.000149773
0.000149678
0.000190162
0.000179352
0.0633002
0.000149684
0.000203814
0.000227137
0.000178374
0.000204319
0.000149785
0.0203819
0.0824165
0.00015958
0.0761831
0.000148584
0.000188627
0.000165057
0.0001887
0.000147827
0.0302692
0.000152759
0.000162195
0.00014948
0.000148866
0.000149028
0.000156692
0.0747473
0.000156784
0.000154359
0.00020789
0.0704548
0.0727488
0.0166559
0.0229591
0.000153221
0.0734419
0.0791945
0.0601256
0.000167919
0.0174644
0.000147838
0.000172575
0.000148542
0.0327916
0.000161184
0.0328241
0.000148281
0.00018966
0.0239222
0.0790195
0.000148961
0.0709651
0.000148432
0.000149153
0.000153419
0.000149769
0.000154503
0.000148475
0.000147574
0.000149683
0.000151591
0.000553457
0.000188226
0.000151904
0.000209643
0.0367967
0.000193145
0.000147392
0.000195872
0.000167081
0.000169704
0.064402
0.000310816
0.00014981
0.000148788
0.000148608
0.000220731
0.000147581
0.0434856
0.000149253
0.000151424
0.000163444
0.000186903
0.000148438
0.000149095
0.03859
0.0272259
0.000444743
0.0482462
0.015116
0.000153384
0.000151972
0.000148631
0.0198626
0.000149462
0.000156905
0.000152087
0.000188829
0.000146131
0.0641888
0.000116957
0.000148628
0.000189445
0.000148611
0.000147704
0.0215446
0.0501493
0.00015031
0.000160151
0.000151503
0.000181017
0.000148525
0.000182608
0.00014851
0.000169167
0.000260535
0.000178976
0.000151267
0.0775335
0.00014863
0.0246807
0.000165362
0.000168608
0.000158047
0.000200852
0.0725149
0.000164146
0.000192288
0.000179383
0.000199836
0.0189317
0.000156786
0.012807
0.000148856
0.0326599
0.000147001
0.000159672
0.0282885
0.0438621
0.000260718
0.00018847
0.000147269
0.00014924
0.000150772
0.0182574
0.000152888
0.0787034
0.073791
0.000149068
0.000221437
0.000155681
0.000304344
0.000151978
0.000159349
0.0625851
0.000156209
0.015057
0.000150594
0.00014661
0.000151012
0.000176275
0.000161624
0.000181093
0.000154627
0.000147098
0.000148434
0.0679493
0.0248216
0.00018612
0.0646622
0.000148441
0.000148121
0.000147737
0.000148929
0.0211653
0.000169213
0.0209706
0.0131646
0.000149442
0.0320881
0.0116503
0.000164072
0.000298358
0.000166238
0.000187796
0.0639191
0.0348424
0.0735237
0.0001485
0.0334419
0.0639468
0.000150172
0.0687069
5.60438e-05
0.000168262
0.000156678
0.0383153
0.0665564
0.000186745
0.000165608
0.0283361
0.0156411
0.0606114
0.000150726
0.000167164
0.062731
0.000148789
0.000152928
0.0745974
0.000147144
0.000149724
0.000204452
0.0808454
0.000158554
0.000149001
0.000149664
0.0749172
0.0678477
0.000325274
0.000187129
0.0346047
0.000188966
0.0586076
0.000148511
0.000214227
0.000151016
0.00014717
0.000148154
0.000146833
0.000148096
0.000149029
0.000149097
5.87293e-05
0.000158332
0.0676068
0.0667674
0.000148438
0.000148457
0.000151868
0.0160495
0.0503998
0.000491323
0.000159439
0.000356665
0.000199166
0.000506749
0.000179418
0.000214537
0.00014949
0.000153669
0.000147229
0.000190614
0.000152983
0.000149803
0.000151333
0.064099
0.000149636
0.000155126
0.0001482
0.000197719
0.0606988
0.000164636
0.0809824
0.0810102
0.00019291
0.0485206
0.000149351
0.000147555
0.000152431
0.0794419
0.0736496
0.000195729
0.0651258
0.000148368
0.000195032
0.000147338
0.000159744
0.000303237
0.000148874
0.000204
0.000148036
0.000149012
0.000149107
0.000173852
0.000165188
0.000150756
0.000150559
0.000205024
0.00022504
0.000163503
0.00019646
0.000150544
0.0787582
0.000148873
0.000164701
0.000152485
0.00881658
0.000165721
0.000149747
0.000167653
0.022304
0.00014923
0.000157447
0.0415777
0.000151915
0.0741161
0.0608619
0.000149501
0.000177771
0.000160195
0.000245669
0.000158455
0.000195562
0.0289531
0.000162899
0.0632673
0.00015756
0.000147902
0.000154253
0.000150773
0.0795059
0.0797265
0.000161913
0.00045579
0.000148997
0.0340093
0.000173537
0.000147854
0.000154668
0.000155354
0.019056
0.000165635
0.000185168
0.0728771
0.000149608
0.000175738
0.0642793
0.000149366
0.000179089
0.000149511
0.0591671
0.0718746
0.000199594
0.0192541
0.000159662
0.000151824
0.000221513
0.000149796
0.000146322
0.0652337
0.0414131
0.000149671
0.000149192
0.00019095
0.000147972
0.000156904
0.000152507
0.071732
0.000200699
0.000148009
0.000167471
0.0152837
0.000432534
0.000147601
0.000149453
0.000156655
0.0831343
0.000160755
0.000226822
0.000148788
0.000148769
0.0440507
0.000207977
0.000164933
0.000156407
0.000148552
0.000210487
0.03474
0.000149548
0.000149623
0.000153998
0.000149687
0.000165287
0.000242105
0.000149609
0.0001485
0.000160605
0.000147
0.000147862
0.000179911
0.000156638
0.000168172
0.000183672
0.000152644
0.000149975
0.0140596
0.000341627
0.00915128
0.000150315
0.000148677
0.000151007
0.000225479
0.000761874
0.0346926
0.000149392
0.000149497
0.000153561
0.000149425
0.0227105
0.000149524
0.0386387
0.0787371
0.0350534
0.000146608
0.000243513
0.0112725
0.000147093
0.000171697
0.000149335
0.000149082
0.0807233
0.00016156
0.017968
0.0760707
0.000160192
0.0731344
0.000144986
0.000149106
0.00126568
0.000152562
0.000183434
0.000149481
0.000152154
0.000159912
0.000160803
0.000182944
0.000156216
0.0764949
0.000149522
0.000148033
0.00014844
0.000147642
0.00018543
0.00019069
0.0443777
0.000148379
0.0429853
0.000160439
0.000149653
0.000149447
0.000148478
0.000146615
0.000271131
0.000170183
0.000187261
0.000165313
0.000158794
0.00022262
0.000216855
0.000177074
0.0707411
0.000614666
0.0384273
0.0871723
0.000155813
0.039448
0.0638544
0.000149319
0.000148758
0.000148075
0.0652919
0.083978
0.0087661
0.0450333
0.0848214
0.000160197
0.000201054
0.00754687
0.000179882
0.0660683
0.00715501
0.0782732
0.000167318
0.0183506
0.000152626
0.000168322
0.000961519
0.000166124
0.0294415
0.000495054
0.0645894
0.0652765
0.000203024
0.000168489
0.0670161
0.0656103
0.0483756
0.000147503
0.000185143
0.00016558
0.0429653
0.00014979
0.000157701
0.000150914
0.000165804
0.0351021
0.000264936
0.000148401
0.0490599
0.00025794
0.000157158
0.000171297
0.029068
0.000154098
0.000191244
0.0235447
0.000148047
0.0673065
0.000148669
0.000151662
0.00015083
0.0476473
0.000214053
0.0632001
0.000201717
0.0353324
0.000193402
0.0406656
0.000151737
0.000158611
0.00015267
0.000148109
0.000150454
0.000178519
0.000154696
0.000151094
0.0779768
0.033646
0.000151449
0.000148887
0.000193536
0.000156047
0.0586353
0.000149814
0.0700713
0.000152764
0.0414966
0.000168263
0.0458831
0.0708242
0.000148845
0.000165151
0.0663933
0.0661926
0.0520678
0.0458661
0.0215068
0.000157176
0.000150424
0.00015931
0.000151134
0.000148924
0.0606202
0.000149746
0.000146786
0.000153974
0.0335701
0.000148775
0.0761064
0.000164838
0.000159757
0.0687658
0.000164796
0.000165144
0.000165134
0.000149641
0.000165408
0.00023172
0.000146424
0.0638682
0.000167047
0.000148038
0.000149171
0.0238788
0.0225183
0.00015169
0.000149513
0.000150643
0.000148791
0.000190756
0.000194409
0.000148174
0.000148079
0.000150245
0.00516832
0.000457782
0.000160888
0.00015221
0.00019991
0.00015482
0.000188504
0.000186985
0.000166655
0.000172788
0.0283767
0.000148511
0.000154022
0.000377213
0.000169315
0.0704803
0.0477074
0.000168318
0.000152533
0.0373076
0.0769971
0.00015159
0.000150305
0.000148752
0.000202056
0.000200358
0.000151835
0.000147364
0.0412573
0.000173492
0.0659918
0.000195829
0.000194946
0.0736527
0.000148011
0.000187639
0.000345706
0.000151154
0.0795094
0.0435043
0.000152994
0.0720927
0.000150326
0.000154351
0.000151662
0.000169603
0.000147844
0.000183316
0.000146407
0.00014819
0.0657562
0.0753884
0.000146368
0.0671709
0.000149684
0.0444561
0.000147227
0.000183577
0.000148216
0.000241156
0.000105395
0.000151584
0.000166778
0.000288676
0.0598962
0.000171541
0.000164773
0.0706079
0.000150075
0.000148728
0.000167399
0.000155902
0.018773
0.000150724
0.00015458
0.000204599
0.000148962
0.0495497
0.00015649
0.0669139
0.0243824
0.000188993
0.000204758
0.000523552
0.000150804
0.00015174
0.0227055
0.000170287
0.000148585
0.000206785
0.000150964
0.0551348
0.000152079
0.070573
0.000150175
0.0187355
0.0169878
0.0269706
0.0237125
0.000162164
0.000150517
0.000149323
0.000157449
0.000148785
0.0777399
0.000180383
0.0464549
0.000151052
0.0373878
0.0467271
0.0447725
0.000150946
0.000183204
0.048283
0.000149144
0.000148561
0.000159619
0.0184057
0.000179783
0.0476664
0.000148244
0.0845845
0.000149774
0.000151176
0.000149121
0.000164308
0.0316683
0.0436826
0.0639706
0.0318429
0.000148425
0.000167261
0.000159039
0.000179351
0.0363521
0.000216207
0.000146915
0.000148916
0.000180777
0.000155481
0.000104664
0.000149384
0.000197066
0.000149914
0.0410216
0.0459038
0.000211053
0.000151284
0.0404468
0.0412045
0.0731063
0.000156114
0.00016191
0.000153156
0.00015054
0.0469416
0.000190847
0.0644053
0.000147677
0.000156619
0.000149975
0.000189022
0.0149981
0.0503899
0.000172542
0.0682417
0.000258307
0.000183004
0.000148751
0.000149652
0.000153926
0.00902449
0.000148512
0.000148511
0.000154149
0.000164896
0.00764115
0.00014898
0.00284764
0.000421256
0.000148591
0.000149106
0.000149477
0.000147872
0.000205579
0.000239788
0.000147958
0.000189926
0.000161617
0.000150733
0.000156592
0.083213
0.0193655
0.000176526
0.000153548
0.000180966
0.000154836
0.0888845
0.00434786
0.0789354
0.000183512
0.0369337
0.000168712
0.000166015
0.0443713
0.000189246
0.0649471
0.000150745
0.0814519
0.000189893
0.000191491
0.000148803
0.000152945
0.0227495
0.000305902
0.0674849
0.000161959
0.000155388
0.000203353
0.000148264
0.000510022
0.000148877
0.000148856
0.000151156
0.000146932
0.000149465
0.00014753
0.0210518
0.0679982
0.000147691
0.000148998
0.00014863
0.000171025
0.000146889
0.000186965
0.000161142
0.000173915
0.000177379
0.000156156
0.000185821
0.0809578
0.049992
0.000165332
0.000147923
0.000174239
0.000164404
0.000149979
0.000153088
0.0241734
0.020741
0.000153741
0.0468006
0.000198735
0.000199169
0.000153114
0.000171598
0.000148944
0.0705788
0.000148083
0.00016822
0.000149725
0.0190695
0.000234013
0.000181067
0.000165068
0.000150541
0.0873337
0.000149307
0.000160143
0.0207868
0.000157114
0.00015146
0.0001829
0.000149842
0.000152729
0.0798442
0.000151432
0.000153065
0.000148364
0.0001488
0.00015971
0.00111032
0.000185277
0.000174892
0.053046
0.000197483
0.000219026
0.0261168
0.000147944
0.000149063
0.0690415
0.000170808
0.022775
0.000196396
0.0422979
0.000147747
0.00325162
0.0195003
0.0191977
0.000178142
0.000162028
0.0731729
0.0417331
0.00022695
0.000159692
0.0481158
0.0341383
0.000147702
0.000151134
0.000177696
0.000159197
0.000535235
0.000162679
0.000154484
0.00015802
0.029361
0.000231867
0.000162091
0.00755216
0.000178743
0.000151033
0.00015173
0.000151443
0.000170232
0.000162601
0.000165236
0.000151234
0.0719346
0.0285504
0.000194215
0.0263482
0.0166471
0.000150766
0.000170038
0.0765646
0.000148996
0.0305575
0.000154268
0.000156284
0.00577231
0.000202956
0.000150869
0.000158936
0.0866303
0.000148135
0.000151073
0.000155398
0.000231575
0.000161538
0.000148696
0.000245866
0.0846446
0.017704
0.000158257
0.000149866
0.0681591
0.000149516
0.000148178
0.000157633
0.000147992
0.000989939
0.000167207
0.0401708
0.000148792
0.000147281
0.000149028
0.000149172
0.000154977
0.000222679
0.0682106
0.000189642
0.000148779
0.000148741
0.00014811
0.000811998
0.000159492
0.000150568
0.000154372
0.000148974
0.0380866
0.000165699
0.0204463
0.075125
0.0812898
0.00035409
0.000148429
0.0518708
0.0615364
0.0116856
0.000145766
0.000135827
0.000149142
0.000159904
0.000198854
0.000148776
0.000165223
0.08083
0.000151652
0.000362582
0.0760701
0.000187228
0.0434033
0.0588647
0.0151893
0.00016488
0.032864
0.0631332
0.000149607
0.000179096
0.000154071
0.000148053
0.000188292
0.000154858
0.000155757
0.000168426
0.000147911
0.000845483
0.000316096
0.00018238
0.0193371
0.0835633
0.000149467
0.000228899
0.000145858
0.00014935
0.000180505
0.000147546
0.000160203
0.000159944
0.0283672
0.000155434
0.000560994
0.0482404
0.000148999
0.000178231
0.000154738
0.000152708
0.000195325
0.000162914
0.000161083
0.000152444
0.000149794
0.000151078
0.000154784
0.000153292
0.000149699
0.000153068
0.0685338
0.000150991
0.0135801
0.0417694
0.000149151
0.000146822
0.000237976
0.000132467
0.000148541
0.00017498
0.000146918
0.00017302
0.0464622
0.0795713
0.000154047
0.0727075
0.07093
0.000161983
0.0183131
0.0370122
0.000148865
0.000149892
0.000151917
0.000156027
0.000152675
0.0690415
0.000175215
0.000187661
0.0424575
0.000146996
0.000151458
0.0285245
0.000148699
0.000148994
0.000151272
0.000155155
0.0441034
0.0242174
0.00019071
0.000177907
0.0739413
0.0249287
0.066118
0.000352911
0.000147382
0.000153008
0.000176031
0.000192203
0.000184858
0.0355101
0.0421985
0.000156564
0.000149795
0.000149062
0.000147804
8.98318e-05
0.000150068
0.000148655
0.000349496
0.069139
0.000206116
0.000148757
0.0398988
0.000162856
0.000280338
0.000148642
0.000195591
0.000150325
0.000152564
0.000152622
0.0142127
0.0415864
0.000165826
0.0374964
0.000148849
0.000148585
0.000149775
0.000159164
0.0323876
0.000147799
0.000163005
0.0216347
0.000147559
0.000166179
0.000149081
0.0348503
0.000150135
0.000216947
0.000149387
0.000238556
0.000196064
0.000162629
0.000152474
0.00021619
0.00015133
0.000159395
0.000182598
0.000199179
0.000149776
0.000149489
0.00014673
0.000149546
0.00980222
0.000211132
0.0645481
0.0376808
0.000145989
0.00279911
0.000200121
0.0747857
0.011629
0.000150827
0.000148528
0.000187542
0.000148737
0.000151632
0.00471102
0.0184775
0.078391
0.0369617
0.00014893
0.07796
0.0346359
0.0725377
0.000153089
0.0672962
0.000180416
0.000149805
0.000275821
0.0704904
0.0650608
0.000310492
0.000150951
0.0338477
0.000148918
0.000228133
0.00015398
0.000147704
0.00014838
0.000191366
0.0235686
0.000187806
0.00019117
0.0187189
0.0717019
0.000152974
0.000147601
0.0351912
0.0800323
0.000149775
0.000149444
0.000219034
0.0375745
0.0159267
0.000157649
0.000156525
0.0159834
0.0407799
0.00028441
0.000179012
0.000148975
0.0697529
0.0347396
0.082115
0.000174677
0.000148948
0.000154087
0.000165451
0.00020489
0.000148354
0.000223608
0.0330946
0.0397176
0.000177773
0.000148432
0.0339012
0.000149766
0.0661378
0.0273692
0.00369763
0.00015149
0.000207541
0.000153452
0.0693449
0.000293509
0.000149627
0.00015492
0.000149378
0.00259409
0.000149823
0.00015455
0.000153954
0.000181169
0.000130002
0.000225139
0.027181
0.000210931
0.0701175
0.000193659
0.0668933
0.000177583
0.000167347
0.000149332
0.0457844
0.000164457
0.000154136
0.000149201
0.000149001
0.000161357
0.000149748
0.000149222
0.000156223
0.00014802
0.0474222
0.000159652
0.0744713
0.000176944
0.000193367
0.000147811
0.000158914
0.0648683
0.000214747
0.000195341
0.000150886
0.030674
0.0001494
0.000170335
0.000169383
0.000161615
0.000166375
0.000148421
0.0172235
0.000202498
0.000190277
0.000149821
0.000156047
0.0748242
0.000150585
0.000357355
0.000220537
0.000152614
0.000149662
0.0364773
0.00020448
0.000284905
0.0307475
0.000176089
0.0386205
0.000149694
0.000148212
0.000194888
0.000172277
0.00016724
0.000203494
0.000272544
0.0185355
0.0369019
0.000226778
0.0837605
0.000153236
0.000154208
0.000152823
0.0382522
0.000196729
0.0747371
0.0215213
0.0871821
0.000149891
0.0440674
0.000164738
0.000157184
0.000162147
0.000174313
0.000330727
0.000150552
0.000154341
0.000219532
0.0651187
0.000196753
0.0178309
0.000147919
0.000152221
0.000148543
0.023058
0.000180283
0.0666736
0.000153029
0.000221651
0.000150962
0.000153253
0.0225904
0.000148037
0.000190563
0.000194407
0.0691813
0.0709687
0.0214043
0.0793752
0.0831078
0.000187014
0.0698787
0.0216861
0.000149778
0.00020449
0.0438638
0.000169436
0.0331184
0.000180344
0.0796396
0.000151651
0.00019101
0.00020316
0.000159744
0.000151269
0.0443772
0.000223364
0.000146638
0.00748055
0.0503261
0.000148209
0.000171822
0.00031325
0.0434247
0.000155472
0.0428711
0.000162921
0.000216809
0.000187941
0.00016288
0.0508638
0.0698931
0.000151613
0.000202218
0.0502643
0.000185659
0.000201116
0.033499
0.0382064
0.000154145
0.0001487
0.0391204
0.0281344
0.000149084
0.000319043
0.000170656
0.000192506
0.000166895
0.0503874
0.00014896
0.00019196
0.000164264
0.00019265
0.000148027
0.0342938
0.0485107
0.000230227
0.000168753
0.000148625
0.000156585
0.000153341
0.000209327
0.000151648
0.000191972
0.0280254
0.0792286
0.000151777
0.0684992
0.000174878
0.000179817
0.0514629
0.00017557
0.000152417
0.000196241
0.000150968
0.000201305
0.000148829
0.0718806
0.000187453
0.00015518
0.000160428
0.0452325
0.0454122
0.000151956
0.000165863
0.000200129
0.0129918
0.00017938
0.00014917
0.000149011
0.000163186
0.0163592
0.000148986
0.000266584
0.0774929
0.000148067
0.0779769
0.000180148
0.000156508
0.000186489
0.0453204
0.000218026
0.0696019
0.00658685
0.0571255
0.000162107
0.0654474
0.000199413
0.000152218
0.000167804
0.00017898
0.0349285
0.000151042
0.0198562
0.000152362
0.0460399
0.0001617
0.0491308
0.0686684
0.000186244
0.000176545
0.000186649
0.000155994
0.000148722
0.000148261
0.000147752
0.00017605
0.000148769
0.0770234
0.0292592
0.000174942
0.0416055
0.0502002
0.0447747
0.0610542
0.00016775
0.043624
0.000148284
0.0140201
0.000166015
0.0452198
0.00021224
0.0443814
0.000149367
0.000154948
0.000158856
0.000159363
0.000148292
0.0440488
0.000154687
0.0387325
0.0350255
0.000159075
0.000148324
0.000184628
0.000150487
0.000150731
0.000153211
0.000186745
0.000220794
0.0686247
0.0435208
0.000151964
0.000152309
0.0438526
0.000153952
0.0669164
0.000148078
0.000222598
0.0502453
0.0404408
0.0385478
0.000185085
0.000281664
0.000150396
0.000154668
0.0777378
0.0834433
0.000154532
0.000187178
0.0303823
0.0807877
0.000192055
0.0774558
0.000149018
0.000148478
0.00015466
0.0713103
0.000149847
0.00015981
0.000153833
0.000147949
0.000171428
0.00014925
0.000202721
0.000148792
0.00014806
0.000147942
0.000219955
0.000184341
0.000189653
0.000173655
0.000183563
0.000148042
0.000180897
0.000183599
0.000150648
0.0242448
0.000147828
0.0326477
0.000147767
0.000258554
0.0443832
0.000150317
0.000183546
0.0349794
0.000188666
0.000189499
0.000163802
0.000148931
0.0825499
0.000152539
0.0448059
0.000164614
0.0418651
0.000149507
0.000173718
0.000153932
0.000169288
0.0383601
0.000149484
0.00021566
0.070348
0.0199574
0.0386366
0.000149731
0.0320524
0.000156137
0.0461936
0.000192424
0.000211497
0.000152552
0.000148567
0.0427367
0.0657425
0.000148603
0.0467187
0.000149226
0.000196899
0.000152523
0.0472369
0.0790758
0.0337855
0.000189995
0.000162287
0.000148846
0.000153704
0.0486674
0.000169107
0.000150116
0.000151212
0.000190254
0.000231901
0.0734498
0.000187475
0.0524262
0.0305597
0.000213662
0.000236816
0.000211299
0.0356015
0.0458001
0.000148395
0.0221099
0.0324451
0.000201841
0.000199526
0.000167381
0.000171148
0.0285099
0.00014778
0.000319031
0.000195289
0.000149554
0.000147395
0.000338226
0.000284017
0.000176354
0.000197169
0.000191698
0.0678528
0.0647491
0.000148978
0.0277921
0.0646012
0.000149485
0.000183797
0.0515339
0.000277117
0.000150766
0.000163897
0.000198562
0.0142929
0.0711583
0.000160538
0.000153548
0.000146445
0.000150902
0.000150316
0.000196417
0.00136095
0.000198794
0.0225096
0.000188693
0.0486808
0.000150039
0.000150004
0.000312994
0.000184222
0.000151388
0.000164525
0.000155383
0.000168248
0.000165467
0.000149575
0.0441698
0.000185621
0.0176789
0.000200565
0.000161754
0.0371712
0.000166421
0.000186994
0.000149329
0.000184866
0.000211203
0.00020488
0.000149195
0.000199611
0.000149094
0.000158707
0.0511412
0.0319976
0.000308972
0.0290576
0.000165972
0.000149195
0.000201259
0.000158536
0.000281377
0.000149665
0.000149014
0.000271341
0.000196551
0.0736024
0.000224955
0.000173907
0.000193282
0.000152616
0.000166775
0.00014678
0.000166749
0.000161421
0.000156261
0.0732404
0.000165033
0.0717877
0.000286803
0.00717702
0.0418802
0.000166856
0.000161118
0.0213479
0.00018473
0.000154307
0.00014893
0.0594774
0.00014844
0.0647395
0.000280869
0.000160092
0.000164283
0.000149073
0.000245825
0.000185181
0.000148152
0.000189804
0.000149971
0.00014744
0.0833447
0.000149806
0.000149058
0.000165864
0.000151171
0.000148448
0.000154557
0.000148717
0.0429257
0.000153878
0.00015154
0.000148977
0.000188884
0.000160181
0.0441082
0.0423517
0.000149655
0.000195581
0.0452634
0.000149123
0.0239067
0.000154697
0.000160592
0.000148877
0.000154011
0.000170297
0.000165408
0.000161233
0.000164761
0.000149406
0.000145937
0.00016339
0.000146408
0.000148018
0.000148138
0.00014838
0.000166082
0.000319801
0.0411978
0.000159467
0.000159723
0.000178012
0.000154286
0.000152968
0.00015091
0.000160503
0.000180181
0.00030056
0.000158814
0.0103779
0.000150492
0.000187088
0.00016292
0.000839083
0.000165608
0.0794656
0.000148665
0.000243292
0.000155917
0.0665376
0.0249561
0.000152535
0.00017989
0.000151155
0.000150476
0.000148873
0.0001504
0.000174639
0.0160863
0.0467596
0.000161548
0.000185647
0.000301083
0.000271572
0.000390495
0.00015399
0.0001491
0.000148363
0.000197922
0.000151751
0.000146098
0.000220552
0.000159867
0.000181479
0.00537784
0.00016508
0.000167769
0.000155641
0.000152095
0.000202028
0.000235357
0.046433
0.000222262
0.00224982
0.0707529
0.0821379
0.0636715
0.000149259
0.000187334
0.000148219
0.0176883
0.000151691
0.000147744
0.000160676
0.000157379
0.000287724
0.000149836
0.000149077
0.000193161
0.000149104
0.000152098
0.000165159
0.0143234
0.000163519
0.000170431
0.000156912
0.000153374
0.0496993
0.000155826
0.000157098
0.000185419
0.000164273
0.000160818
0.000153895
0.000150717
0.000213146
0.0492199
0.0252885
0.060287
0.00015234
0.0390899
0.00014733
0.000164323
0.000149859
0.000149284
0.000159684
0.000149608
0.000163995
0.0289304
0.000150558
0.000158506
0.000158074
0.0140974
0.00015247
0.000147877
0.000182695
0.0466739
0.0814826
0.000186554
0.0684008
0.00020205
0.000148592
0.0237273
0.000155399
0.000155707
0.000169716
0.00015592
0.000149907
0.0144501
0.00018371
0.00026797
0.000153671
0.000148283
0.000208785
0.000166181
0.00016531
0.000154017
0.000158038
0.000180778
0.0854191
0.000164197
0.000177265
0.000159376
0.000167019
0.0742118
0.000148621
0.000256946
0.00014974
0.0431278
0.000149554
0.000151084
0.0201872
0.000177531
0.0543029
0.000192069
0.000152236
0.000217838
0.000187694
0.000236231
0.0348448
0.000183054
0.000154328
0.000179858
0.0762746
0.000167939
0.0808546
0.000158086
0.000150641
0.000255164
0.0755421
0.00016371
0.0101293
0.00018424
0.000189356
0.00015755
0.000272448
0.000330566
0.000158718
0.000178896
0.0783704
0.000153765
0.0109494
0.000170668
0.000149773
0.000166196
0.000152767
0.000158122
0.0741091
0.000187514
0.000349336
0.0450878
0.000148226
0.0665158
0.000150396
0.000173378
0.00019162
0.000149424
0.000185146
0.000170834
0.0851204
0.000150243
0.000214127
0.0172298
0.000156661
0.000146137
0.000166984
0.0415773
0.00015227
0.000179583
0.000159614
0.000155821
0.000149274
0.00889088
0.000164914
0.000182823
0.000153256
0.000148498
0.000154511
0.0102297