/*--------------------------------*- C++ -*----------------------------------*\
| =========                 |                                                 |
| \\      /  F ield         | OpenFOAM: The Open Source CFD Toolbox           |
|  \\    /   O peration     | Version:  v2012                                 |
|   \\  /    A nd           | Website:  www.openfoam.com                      |
|    \\/     M anipulation  |                                                 |
\*---------------------------------------------------------------------------*/
FoamFile
{
    version     2.0;
    format      ascii;
    class       volScalarField;
    location    "100";
    object      p;
}
// * * * * * * * * * * * * * * * * * * * * * * * * * * * * * * * * * * * * * //

dimensions      [0 2 -2 0 0 0 0];


internalField   nonuniform List<scalar> 
14033
(
-0.0322609
0.0875722
-0.0202178
-0.0336051
-0.0373326
0.145375
-0.119823
-0.43179
0.0107457
-0.0351013
-0.245695
-0.223857
-0.425549
-0.0225206
-0.0307836
-0.0342621
-0.0274714
-0.309023
-0.441119
0.0121121
-0.0782033
-0.431497
-0.217634
-0.0593821
-0.4175
-0.101699
-0.160846
-0.0216688
-0.17046
-0.220991
-0.0322032
-0.013327
-0.051933
-0.442993
-0.0531909
0.00762195
-0.104089
0.0116531
-0.0789884
-0.0683497
-0.144776
0.082244
-0.296339
-0.427685
0.0194339
-0.417079
-0.0765958
0.0866068
-0.147524
-0.400813
0.159404
-0.223969
-0.278816
-0.384773
-0.199091
-0.0717759
-0.210234
-0.0216145
-0.134442
0.0481069
-0.149312
0.0519259
0.351006
-0.0189575
-0.0924626
-0.113531
-0.198802
-0.302427
-0.0119991
-0.0539129
-0.129951
-0.0263033
-0.2191
-0.397935
-0.197259
0.0075831
0.157375
0.00514591
0.0113683
-0.161121
-0.169831
-0.398367
-0.29554
-0.454102
-0.00031204
0.0511664
-0.0287905
-0.0275306
-0.169811
-0.355111
-0.0656896
-0.0543363
0.217432
-0.170885
-0.442763
-0.0234249
-0.0944727
-0.137787
-0.173704
0.0255434
-0.164022
-0.428104
0.0489538
-0.0208371
-0.329813
-0.328539
-0.156978
0.381658
-0.177689
-0.404354
-0.0423352
-0.0121442
0.00443484
-0.279707
0.00378456
-0.452563
-0.199756
0.0481363
-0.230456
-0.171322
-0.0613658
0.219758
-0.0606954
-0.0117545
-0.404715
-0.123173
-0.351722
-0.248331
-0.0232961
-0.167089
-0.216275
-0.243717
-0.151936
-0.419375
-0.325914
-0.022439
-0.426458
-0.387036
-0.0867235
-0.24511
-0.322235
-0.33608
-0.126563
0.36344
0.0108607
-0.0319258
-0.359363
-0.175368
-0.0324158
0.172609
0.019062
-0.235695
-0.0818947
0.280707
-0.196126
-0.0246886
-0.312415
-0.00976092
-0.0507267
-0.193018
-0.432096
-0.270052
-0.02171
-0.0533374
-0.421833
-0.0747428
-0.397615
-0.132033
-0.198626
0.0240676
-0.329295
0.0630262
0.168768
-0.023511
-0.153138
-0.171689
0.00989987
-0.0331121
-0.0218392
-0.169836
-0.231173
-0.245623
0.00760621
-0.169859
-0.0296522
-0.068101
0.000962536
0.01812
-0.356542
-0.154733
0.201358
-0.0609542
0.443022
-0.053405
-0.0503923
0.210545
-0.0389926
-0.422915
-0.365586
0.0153702
-0.349438
-0.0521276
-0.18763
0.00887323
-0.329119
-0.225539
0.00543641
-0.0544795
-0.339071
-0.21733
-0.123953
0.0222201
-0.104796
0.0204444
-0.0527364
-0.0394217
0.187973
-0.324937
-0.173906
-0.0924014
-0.401874
-0.416797
0.0260392
0.0933837
0.00644083
-0.170589
-0.417543
-0.0916341
-0.419903
0.0485135
-0.017843
-0.0215623
-0.299098
-0.301071
-0.0767653
-0.0362977
-0.170864
-0.0160883
-0.00593188
-0.127316
-0.0400477
-0.164883
-0.13207
-0.426651
0.0633335
-0.188214
0.00815631
-0.222854
-0.24951
-0.0462328
-0.186412
-0.194605
-0.0284115
0.182918
-0.0902541
-0.193925
-0.0191483
-0.18557
-0.00838034
-0.410828
0.0175111
-0.223966
-0.00375476
0.0352138
-0.0122662
-0.0225254
-0.152712
-0.226659
0.0630269
-0.14967
-0.0543148
0.0148563
-0.275492
-0.284718
-0.356832
-0.0278344
-0.0214278
-0.0216847
-0.266353
0.19598
0.0130935
0.0239806
-0.171722
-0.424655
-0.0312712
-0.191632
-0.131327
-0.0352696
-0.057889
0.0642619
0.0136855
-0.225395
-0.0286039
-0.251589
-0.0590042
0.236046
-0.279224
-0.0789019
-0.414824
-0.23152
0.0416462
-0.314409
-0.135391
-0.0154776
-0.191383
-0.024233
0.089521
-0.162864
-0.195745
-0.0416428
-0.215508
-0.271049
-0.0210838
0.497527
-0.398588
-0.424361
-0.191884
0.0214944
-0.441248
0.0949803
0.0494421
-0.162954
0.0620398
-0.0116017
-0.055401
-0.0900338
-0.166217
-0.0331261
-0.0238433
-0.32938
-0.382256
-0.0540168
-0.0185857
-0.186734
-0.0634908
-0.0293101
-0.02387
0.015923
-0.174454
-0.0390993
-0.191965
-0.356449
-0.0639159
-0.401714
-0.0890186
0.142265
-0.137449
-0.103192
-0.125231
-0.0282052
-0.414355
-0.169642
0.00951585
-0.0331092
-0.0561519
-0.0877926
0.0265552
-0.244135
-0.183196
-0.37979
0.0190234
-0.411745
-0.0772403
-0.261658
-0.00383593
0.0259027
-0.0259994
0.0219471
-0.269362
-0.409764
0.409759
0.0231581
-0.0774412
0.0647482
-0.0110052
-0.184513
-0.068786
0.0450374
-0.403821
-0.169787
0.0254109
-0.00911643
-0.0489966
-0.0468298
-0.317092
-0.382912
-0.172337
-0.165903
-0.00192406
0.39622
-0.35357
-0.0805532
-0.18683
-0.01983
0.04479
-0.0362905
-0.425013
-0.270538
-0.420029
0.0101513
-0.032885
-0.313609
-0.00553778
-0.186536
0.456101
-0.31722
-0.0504779
-0.163652
-0.203065
-0.324531
0.0337252
-0.165693
-0.0761791
-0.170011
0.0150687
-0.172337
-0.317771
-0.0561222
-0.0721686
-0.263106
0.106181
0.0437093
-0.259593
-0.322232
0.0561975
-0.23943
-0.403155
-0.230717
-0.0644595
-0.0270116
0.0131018
-0.0406991
-0.448719
-0.0753747
-0.0196918
0.453026
-0.179916
-0.16873
-0.185502
0.0456949
-0.265215
0.146568
-0.0233934
-0.41559
0.0890193
-0.236268
-0.352585
-0.378741
-0.00524097
0.513108
0.0455035
-0.315611
-0.103006
-0.320693
-0.178228
0.00580678
-0.380605
0.0498772
0.116629
-0.4423
-0.0346048
-0.185249
0.22509
-0.166689
-0.238796
-0.16115
-0.0527914
-0.205236
0.40346
-0.169449
-0.0306763
-0.359526
-0.0722425
0.0483269
-0.414291
-0.167068
-0.0790927
-0.123604
-0.225
-0.188401
-0.378811
-0.130181
-0.246466
-0.20365
0.0154397
-0.191647
-0.032297
-0.0309218
-0.168451
-0.0271126
-0.316423
-0.412677
0.00221868
-0.0509338
-0.0641013
-0.0939077
0.0136049
-0.173455
-0.0332249
-0.019136
-0.0412238
-0.0382761
-0.0488229
-0.0129882
-0.0124416
0.287281
0.15247
-0.0368846
-0.433368
-0.338743
-0.170437
-0.037978
-0.208363
-0.207091
-0.032081
-0.0244432
0.018114
-0.300834
-0.190151
-0.174495
0.0330721
-0.138082
-0.360977
0.105085
0.169798
-0.284663
-0.0129017
-0.348933
-0.413196
0.0959906
0.17249
-0.235527
-0.261397
-0.0409087
-0.158399
-0.238396
-0.0646699
0.0468227
-0.204903
-0.452757
0.0238664
0.00255138
0.0938604
-0.388033
-0.30651
-0.358447
-0.0326347
-0.102081
-0.182524
0.0922372
-0.00578102
0.265161
-0.0319797
-0.103917
-0.388333
-0.241391
-0.188777
0.00181572
-0.441016
-0.110409
-0.0709242
-0.0374154
-0.0491393
-0.385319
-0.158841
0.266593
-0.048818
0.37579
0.0202694
-0.199577
-0.130387
-0.416526
-0.177772
0.0484484
-0.265412
-0.188332
0.0461516
-0.437735
-0.387097
-0.0266093
-0.421419
-0.0107771
-0.343662
0.0844045
-0.0560755
-0.26685
-0.197886
-0.0225035
-0.224156
-0.33384
0.0221231
0.0208715
-0.0243336
-0.261266
-0.203694
-0.206336
0.0459222
-0.151784
-0.234251
-0.162387
-0.307385
0.0452259
-0.432358
-0.40978
0.038333
-0.344893
-0.00120521
-0.191621
-0.102981
-0.256225
-0.0338243
-0.222003
-0.0575262
-0.0665324
0.00924024
0.00990029
0.0021928
0.146012
-0.216591
0.144939
-0.0741408
-0.317925
-0.203554
-0.199239
-0.404323
-0.362657
-0.0169904
-0.326439
-0.260617
-0.17809
-0.137302
-0.389656
-0.0102398
-0.107133
-0.0303442
-0.187334
-0.0922695
-0.430384
-0.0243766
0.0878663
-0.265432
-0.410156
0.0333565
-0.201518
-0.0292951
0.0238532
-0.0261982
0.0144295
-0.0666548
-0.00228
-0.0308815
0.0196635
0.01128
-0.0289744
-0.244874
-0.0575945
-0.271161
-0.177284
-0.0702816
-0.0323252
-0.183462
-0.119321
-0.148931
-0.335684
-0.340693
0.0438215
0.0111528
-0.000642515
-0.2308
-0.0131037
-0.233629
-0.0133093
0.0131734
-0.0786573
-0.167549
-0.00286345
-0.0231044
-0.187088
-0.185845
0.504705
-0.354782
-0.437508
-0.0285605
0.0445023
-0.00532206
-0.222525
0.0105261
-0.0767712
-0.0511408
0.166564
-0.0267179
-0.409079
-0.183068
-0.005381
-0.240896
0.012458
-0.031755
-0.200922
-0.191705
-0.0042883
0.17413
0.0805125
-0.195484
0.00909167
-0.0805309
-0.0180822
0.286226
-0.19284
-0.184498
0.0610106
-0.220371
-0.0073228
-0.175836
0.107093
-0.140931
0.0780158
-0.171998
-0.312447
-0.126289
-0.23894
-0.206533
-0.214367
-0.331725
0.0204793
-0.171814
0.021743
-0.434853
-0.0277672
-0.0159909
-0.330252
-0.20797
-0.240407
-0.194948
-0.0202494
-0.0191887
-0.0487499
-0.433095
-0.0581495
-0.413618
-0.200684
-0.0239744
-0.211441
0.132723
-0.344379
0.0119503
0.085003
-0.40831
-0.0357317
-0.427876
0.0308054
-0.0337643
-0.05184
-0.187068
0.0818426
-0.172257
-0.0423844
-0.0318207
-0.00788617
-0.182111
-0.20214
-0.164878
-0.228968
-0.0401502
-0.00963201
-0.0159602
0.0319152
-0.417343
-0.14442
-0.197926
-0.170055
0.00246458
-0.43261
-0.434197
0.149539
-0.184714
-0.115811
-0.341205
-0.414068
-0.198288
-0.21194
-0.00171879
-0.420539
-0.210266
-0.048047
-0.372409
-0.33668
-0.137785
0.0155876
-0.428492
-0.18129
-0.168444
0.0494396
-0.359809
-0.443809
-0.192773
0.0695759
0.0485889
-0.178944
0.01982
-0.0618277
-0.204448
-0.0288061
-0.00223496
-0.276203
-0.270955
0.169722
0.0205657
0.0496049
-0.349442
-0.375171
0.0183533
-0.221598
-0.193077
-0.23493
-0.196035
-0.00717253
0.460719
-0.00487225
-0.0241438
-0.0225961
-0.0221544
-0.00947774
-0.010715
0.0326892
-0.35013
0.12413
-0.269684
-0.281486
-0.0174852
-0.00725166
-0.0494999
-0.442821
-0.174155
0.519676
0.0263897
-0.357925
-0.163332
-0.341782
-0.175678
-0.174968
0.0208428
-0.0175505
-0.0314956
-0.211677
-0.0625569
-0.00541131
0.0119668
-0.180864
0.0199693
-0.0525933
-0.0206327
-0.144904
-0.194851
0.155681
-0.410617
-0.277147
-0.241606
-0.176044
-0.0147696
-0.032556
-0.0622032
-0.268412
-0.303843
-0.181976
-0.279665
0.00208727
-0.182459
-0.0239991
-0.0812965
0.511604
0.0201533
-0.148558
-0.023664
0.0197634
0.0355432
-0.159293
0.0854257
0.03215
-0.0503716
0.0233463
-0.323209
-0.0738971
-0.142547
-0.048246
-0.230741
0.0267584
0.0438499
-0.0632324
-0.450518
0.293206
-0.00183584
-0.130936
-0.414065
-0.0120216
-0.0430239
-0.16762
-0.0557677
-0.411995
-0.196344
0.0226973
-0.195544
-0.105708
0.486976
0.0836137
-0.154218
-0.187209
-0.115063
-0.186374
-0.0439231
-0.0146153
-0.0652805
-0.0481073
-0.345728
-0.412013
-0.111983
0.515698
0.0225626
-0.421293
-0.173902
-0.0100206
0.100564
-0.0772088
-0.405831
-0.0607133
-0.234342
-0.18518
-0.00354048
-0.167053
-0.418731
0.0234875
-0.198718
0.00814218
-0.196074
-0.188649
-0.219023
-0.427779
-0.0739061
-0.0443741
-0.169934
0.0264599
-0.0323382
-0.275329
-0.426909
-0.00327761
0.0430117
-0.214088
-0.0130644
0.0118031
-0.0184141
-0.183575
-0.271482
-0.0126168
-0.142049
-0.404928
-0.364494
-0.0303082
0.049063
-0.0777742
-0.41062
-0.107965
-0.256351
0.0211887
0.0383073
-0.188656
-0.313334
0.267901
0.136521
-0.0147724
-0.273288
-0.421568
0.00881887
0.046284
-0.0575479
0.0183794
0.039459
-0.291056
0.015087
-0.0134417
-0.107019
-0.0166463
-0.0107401
-0.139163
0.139355
-0.132538
-0.229142
-0.0602992
-0.0469546
-0.434764
-0.348166
-0.171409
0.0343598
-0.00726408
0.0706191
-0.183031
-0.322846
-0.189929
0.00674665
-0.0312597
-0.0210911
-0.00564054
-0.324658
0.024418
-0.419424
-0.22275
-0.184207
-0.0361939
-0.29787
-0.40213
-0.0237708
-0.249548
0.0223083
0.018838
-0.297084
-0.106893
-0.33106
-0.385204
-0.0904652
-0.184528
-0.0329277
0.0315627
-0.167089
-0.0530034
0.0789745
0.0241051
-0.0156488
0.0264715
-0.103431
-0.158999
-0.00536763
-0.254166
0.0252972
-0.0319549
0.00262754
-0.0125665
-0.162964
-0.254073
-0.281905
-0.00424266
-0.362033
-0.106287
0.0163811
0.0501111
-0.0270349
-0.0364606
0.471624
-0.0172348
-0.240049
0.23004
0.175908
-0.213923
-0.211794
-0.193831
-0.185692
0.528813
-0.193371
-0.375551
-0.00792198
-0.168174
-0.199745
-0.0294164
0.0147551
-0.00598274
-0.207175
-0.356734
-0.168335
-0.16805
-0.389976
-0.104256
-0.226514
-0.450903
-0.189285
-0.37448
-0.435329
-0.226254
-0.140575
-0.386389
0.044166
-0.118255
-0.377627
0.298441
-0.26564
0.525426
-0.185834
-0.378262
-0.223108
-0.133624
-0.275718
-0.210521
-0.288715
-0.0294556
-0.123735
0.299349
-0.292388
-0.00701476
-0.011763
-0.047139
0.183442
-0.419634
-0.25587
-0.0399877
-0.416735
0.458826
-0.0874059
0.257116
-0.429042
-0.0634814
0.438058
-0.195424
-0.0190519
-0.356741
-9.83346e-05
0.0589392
-0.00946415
-0.236825
-0.354925
-0.210929
-0.264696
-0.332963
0.440309
-0.415558
-0.0543677
0.0308703
-0.0521385
-0.00436313
-0.0494695
-0.203061
-0.0750085
-0.00341739
-0.254377
-0.431661
-0.0472663
-0.0318481
0.451762
-0.078354
-0.191294
0.0177138
-0.395912
0.091259
-0.331583
-0.140082
-0.19097
-0.18139
-0.0375374
-0.0518969
-0.359055
-0.415872
-0.425652
-0.187819
-0.371619
-0.0797505
-0.0476847
0.092206
-0.0475021
-0.0384522
-0.199412
0.0117339
-0.0283165
-0.0146119
-0.425034
0.014226
-0.383402
0.167488
-0.077575
-0.211619
0.222187
0.264811
0.272624
0.00929589
-0.0131871
0.481525
-0.0359487
-0.404779
-0.129975
-0.00672952
0.0206777
-0.194331
-0.365521
0.0617838
0.0021887
-0.0489408
0.0158205
-0.256608
0.0228159
-0.0284099
-0.0266238
-0.0216873
-0.43708
0.522785
-0.0377773
-0.042836
-0.279626
0.100025
0.370831
-0.246976
-0.0750308
-0.156264
-0.406162
0.000540813
-0.0681551
0.492371
0.251178
-0.185095
-0.208953
-0.119833
0.0411874
-0.331149
-0.327413
-0.0525996
-0.0287925
0.00517379
-0.276285
-0.146842
-0.0538949
-0.0175846
-0.380691
-0.174692
-0.177894
-0.150357
-0.249798
-0.344833
-0.00822358
-0.160734
0.252618
0.0578101
-0.27488
-0.263877
-0.0554831
-0.181891
0.0315219
-0.060737
-0.0412346
-0.123122
-0.0140845
-0.232296
-0.0320051
-0.0274826
-0.406437
-0.414348
-0.0314477
-0.397754
0.00913795
-0.311204
-0.0338942
-0.0607256
-0.0400555
-0.175957
-0.336829
0.0587503
-0.133088
0.492711
-0.419077
-0.362948
0.287885
-0.337168
0.0347999
0.0304232
-0.118689
0.129338
-0.431875
0.0157024
-0.0579431
-0.18272
-0.00788607
-0.204772
-0.0851497
-0.18773
-0.316211
-0.252409
-0.173646
-0.376977
0.0130093
-0.0284424
-0.429304
-0.137613
0.0115182
-0.330006
0.0189326
-0.427368
0.0791295
-0.181049
-0.0227044
-0.326204
-0.429809
-0.414547
-0.452187
-0.113664
-0.048505
-0.00581446
-0.0484487
0.00620328
-0.211876
0.217517
-0.257666
-0.0090375
-0.398293
-0.361606
-0.375967
-0.0479487
-0.142781
-0.282485
0.0494024
0.000972659
-0.100951
-0.398911
-0.165672
-0.304939
-0.0397983
-0.409228
-0.00536758
-0.0496814
0.041446
0.0052037
-0.290019
-0.379057
-0.360776
-0.434107
0.00109726
-0.0758991
0.032192
-0.200679
-0.411113
-0.195228
-0.0227958
0.0277863
0.358274
-0.077772
-0.27052
0.0340016
-0.14778
0.0190372
-0.225049
-0.262021
-0.358896
-0.0511474
-0.1882
-0.180362
-0.258732
0.132909
-0.0472286
-0.0541307
0.0430627
-0.309769
0.450983
-0.182044
-0.0133444
0.140391
0.0620755
-0.227092
-0.383293
-0.179412
-0.0595659
-0.186237
-0.195192
-0.226099
0.0163869
0.0169742
-0.0612433
-0.444071
0.00939882
0.00134627
-0.068925
-0.0531394
-0.378014
-0.0224355
-0.317417
-0.336485
0.0119823
0.0183549
0.0249536
-0.00959583
0.102682
-0.136068
-0.0141208
-0.188778
-0.0961739
-0.0515805
-0.0831886
-0.359173
-0.364003
-0.162238
-0.0193108
-0.153314
-0.0681205
-0.375092
-0.392599
-0.411505
-0.143138
-0.224778
-0.13651
-0.0608763
-0.209628
-0.207661
-0.271615
0.0406769
-0.331197
-0.190075
-0.213071
0.000157696
-0.0192756
-0.359543
-0.266183
-0.18922
0.234813
-0.0709336
-0.260537
-0.0234124
0.527703
0.0256239
0.0316771
-0.000953915
-0.0283893
0.036036
-0.0288059
-0.203164
-0.225943
-0.0129081
-0.000108589
0.000373451
-0.106492
-0.0215801
-0.163399
-0.107133
-0.111421
-0.166947
-0.000733452
-0.239923
-0.283398
-0.204389
-0.113967
-0.0248179
-0.171896
0.111041
-0.0102927
0.0646568
-0.204409
-0.263551
-0.0605603
-0.16709
0.45358
-0.145094
-0.0108424
-0.0745771
-0.0313648
-0.213288
-0.0256449
-0.140292
0.0137925
-0.432092
-0.214565
-0.0412521
-0.000787317
0.0385426
-0.354021
0.00229265
-0.0854142
-0.176357
0.14553
-0.0567025
0.353717
0.0598566
0.0615992
-0.231051
-0.0395715
0.0958114
-0.00352969
-0.0415587
-0.0805652
-0.43717
0.435733
-0.152521
-0.41666
-0.166056
-0.213287
-0.454263
-0.0208714
0.03884
-0.334282
-0.13338
-0.333833
-0.140061
-0.450287
-0.0113507
-0.378338
-0.391098
-0.378138
-0.113266
-0.10387
-0.228425
-0.207663
-0.267978
-0.0977095
-0.232664
-0.191745
-0.0121341
0.0135484
-0.13236
-0.0797553
0.417318
-0.117059
-0.055062
0.118214
-0.18272
-0.28626
0.236131
-0.44393
0.0970062
-0.0137464
-0.0567574
-0.0579408
-0.128925
-0.116873
-0.0992285
-0.0450208
-0.205033
-0.356843
-0.190139
-0.171656
-0.379741
-0.0172453
-0.153941
-0.196651
0.0304655
-0.42334
0.090412
0.133532
-0.44017
-0.172902
-0.0144795
-0.0791995
-0.389247
-0.0195965
0.0168156
0.123598
-0.354225
-0.0994042
0.0230608
-0.305194
-0.410487
-0.37298
-0.0907892
-0.046118
-0.353574
0.0261104
-0.024501
-0.0477418
-0.00741937
-0.369761
-0.132403
-0.194992
0.00297489
-0.0240824
0.0196493
0.0222999
0.1193
-0.279853
-0.323141
0.409452
-0.0223049
0.0123626
-0.00707199
-0.372279
-0.0962208
-0.0311141
-0.0468989
0.0293809
-0.417187
0.0750306
-0.317757
-0.21234
-0.409995
0.519937
-0.0213547
-0.181795
-0.418708
-0.451059
-0.0320244
-0.189203
0.0210599
0.057123
-0.268412
0.0386753
0.273067
-0.290396
-0.0596665
-0.355607
-0.195273
-0.354407
-0.40699
-0.186584
-0.377075
0.112925
-0.454097
-0.181588
0.0259363
-0.193115
-0.0700243
-0.029277
-0.225737
0.119483
-0.0788667
0.296072
-0.00884586
-0.368862
-0.16458
0.308526
-0.380735
-0.409154
0.0258325
-0.217789
-0.0322608
0.00203779
-0.217073
-0.0154193
0.0564217
-0.103701
-0.433013
0.124716
-0.359832
-0.44196
0.0283613
-0.169092
-0.0502715
0.00684194
0.0638939
-0.0679722
-0.10795
-0.0608827
-0.0382022
-0.025141
0.113686
-0.0298521
0.0169478
-0.0339488
-0.201065
0.0572258
-0.452384
-0.242165
0.0488063
-0.0235136
-0.341616
-0.182404
0.00990214
-0.123501
-0.0226919
-0.168597
-0.347489
-0.280993
-0.0608936
-0.224262
-0.224703
-0.108001
-0.396539
-0.424815
0.0255192
-0.039615
-0.0510184
-0.03008
-0.00807999
-0.190882
-0.161948
0.00648024
-0.411453
-0.0219941
-0.0589701
-0.217002
-0.0359311
0.0382887
-0.0469567
0.118194
-0.185426
-0.439506
-0.232785
-0.192545
-0.197807
-0.428561
-0.288067
0.410508
-0.0180046
0.067787
-0.156153
-0.289173
-0.23385
-0.276597
-0.429877
-0.0729216
-0.0357873
0.0245716
-0.0388779
-0.343825
-0.016656
-0.0263767
0.509653
-0.418656
-0.313351
0.012651
-0.430874
-0.0768002
0.510973
0.0220658
-0.163257
-0.048222
-0.00175463
0.00374132
-0.416302
-0.205947
-0.126595
-0.262951
0.0292689
0.00642277
0.018339
-0.0976674
-0.419983
-0.0145967
-0.0971159
-0.340919
-0.0337568
-0.117376
0.019392
-0.42365
-0.00878276
-0.166204
0.0172389
-0.287042
-0.190935
-0.0988621
0.00376352
-0.27327
-0.00656331
0.0517956
-0.34215
-0.180661
0.00592681
0.0468904
-0.0276666
0.00640453
-0.443308
-0.271948
-0.227765
-0.400892
-0.031962
-0.367219
-0.204067
-0.229845
-0.444328
0.00258299
0.00986515
-0.247613
0.0300975
-0.0392417
-0.444968
-0.407849
-0.330403
-0.220984
2.51416e-05
-0.246433
-0.163514
-0.334857
-0.032803
-0.174503
-0.202434
0.0227728
-0.296847
-0.178802
-0.187852
0.298107
0.00516598
-0.239036
0.0293402
-0.3481
0.0357351
-0.0334493
-0.0316945
-0.23786
-0.261064
-0.184948
-0.023546
-0.441315
-0.18571
0.0347292
-0.0133578
-0.209441
-0.253446
0.0169636
0.0116255
-0.164286
-0.217953
-0.407077
0.0774099
0.12263
-0.43228
-0.183903
-0.311181
-0.189618
-0.0236783
-0.179932
-0.223674
-0.412027
-0.119573
0.0288022
-0.0626786
-0.0977089
-0.25897
-0.0205532
-0.190482
-0.185147
-0.419794
-0.112182
-0.000830061
-0.422703
-0.0345248
-0.171985
-0.438604
-0.44613
-0.0170329
-0.163388
0.0345384
-0.193312
0.502489
0.0512148
-0.0667788
0.0098313
-0.374491
0.00534277
-0.0726115
-0.0634409
-0.127521
-0.331898
-0.176373
-0.423817
-0.289812
-0.20175
-0.184127
-0.18857
-0.13519
-0.126272
0.00348715
-0.234165
-0.0461635
-0.0708363
0.0149606
-0.0254892
0.220969
-0.0158472
0.0144164
-0.0759406
-0.0194684
-0.344242
0.00689711
-0.202979
-0.156386
-0.186689
-0.0230466
0.0810209
-0.357698
-0.168133
-0.185064
-0.0058962
-0.433605
0.00859522
-0.15311
-0.117988
-0.110348
-0.104762
-0.0408127
-0.444706
-0.1745
-0.192809
0.0190149
-0.0742005
-0.20749
0.00251419
0.243238
-0.193284
-0.0236382
0.0443933
-0.416804
-0.268991
-0.315773
-0.16284
-0.182998
-0.423479
-0.0454035
-0.00303419
-0.147768
0.123549
0.308105
-0.249462
0.477976
-0.3391
-0.428484
-0.175694
-0.348032
0.0364884
-0.0648211
-0.00471774
-0.420951
-0.269212
-0.234419
-0.441031
-0.359631
0.0227466
-0.348829
-0.117171
-0.0146731
0.0392351
-0.156521
0.340988
-0.048341
-0.0623396
0.45306
-0.33034
-0.168488
-0.394137
-0.00936422
0.0872096
0.0103254
-0.216348
-0.205905
-0.320345
0.0703183
-0.181544
-0.024779
0.0992119
-0.337433
-0.0206925
-0.212767
-0.17856
-0.17482
-0.190181
-0.43107
-0.287461
-0.328356
-0.238412
-0.228129
-0.301184
0.0157283
0.283841
-0.205253
-0.134577
-0.439617
-0.303147
-0.317792
0.0845866
0.435352
-0.184143
0.0972947
-0.03982
-0.276681
-0.303644
-0.0357934
-0.445315
-0.427369
-0.00593236
-0.152354
-0.0475547
-0.219992
0.0259541
-0.226917
-0.0956761
-0.162063
-0.227274
-0.094764
-0.188478
-0.410731
-0.0598546
-0.265749
-0.408828
-0.216233
-0.261694
-0.299723
-0.430593
-0.0693294
-0.00608808
-0.411042
-0.428407
0.0206165
0.490486
-0.150677
0.40039
0.297471
-0.25819
0.0019882
-0.175676
-0.0246331
-0.180289
-0.0226919
-0.432597
-0.376334
-0.29496
0.207222
0.00607623
0.142378
-0.0300421
-0.157152
-0.0473351
-0.251743
-0.419908
-0.293917
0.045274
-0.18529
-0.176763
-0.150326
-0.305552
-0.156826
0.0688436
-0.277782
-0.0488722
-0.162925
0.0280835
-0.193411
-0.172374
0.112484
-0.0892769
-0.175679
-0.3017
0.0832096
-0.102086
-0.267396
-0.427576
-0.210123
0.00218553
0.047437
-0.117935
-0.453783
0.0248459
-0.177665
-0.225194
-0.0284174
-0.315556
-0.211903
-0.084255
-0.199182
-0.415214
-0.174717
-0.288196
-0.405702
-0.187816
-0.0919274
-0.201133
0.432951
-0.0127991
0.27825
-0.193606
-0.191152
-0.0268803
-0.272718
-0.0619448
-0.42832
-0.0988971
-0.266685
-0.410276
-0.241415
-0.160567
-0.221186
-0.0769812
0.0177135
-0.031912
-0.0232442
-0.152666
-0.00501964
-0.202413
-0.400331
-0.150853
-0.218288
-0.315433
-0.180308
-0.207559
-0.120502
-0.178574
-0.00474132
-0.39748
0.00650684
-0.181333
-0.32625
-0.184328
0.0127952
0.0245679
-0.0956697
-0.0737239
-0.0041884
-0.190785
-0.0662311
-0.184795
-0.219104
0.00861754
0.00191814
-0.299819
0.010583
-0.0381165
-0.0252443
-0.218783
-0.283992
-0.391922
-0.333276
-0.050008
0.00909408
-0.195134
0.0859761
-0.182994
-0.0400243
-0.189039
-0.201924
-0.190382
-0.418563
-0.201143
0.471565
-0.0347442
-0.0627942
-0.195805
-0.297424
-0.07285
-0.187362
-0.200747
-0.348138
-0.257103
-0.234289
-0.00943756
0.00826944
0.0818467
-0.264821
0.010608
-0.0809781
-0.0670862
-0.00889806
-0.154771
0.0156323
-0.26399
0.0323848
-0.0083633
-0.00817019
0.455195
0.299013
-0.158888
-0.165484
-0.227012
-0.00806067
0.173798
0.0384534
0.0360027
-0.309246
-0.0201084
-0.419698
-0.011861
0.491848
-0.407466
-0.0304098
0.195552
-0.184346
-0.234761
-0.256182
0.000222703
-0.033765
-0.318365
0.00913572
-0.170283
-0.122416
-0.420752
-0.00345843
-0.121035
-0.062653
-0.107792
-0.429657
-0.0169927
-0.215029
-0.212458
-0.444787
-0.19143
-0.044332
-0.373739
0.0554054
-0.401244
-0.157997
-0.224865
-0.0020449
-0.0101403
-0.416296
-0.354803
-0.00985683
-0.227132
0.00191876
0.42575
0.0714547
-0.220284
-0.40842
-0.299911
0.426438
-0.0924976
0.0327207
-0.0623293
-0.396517
-0.117464
0.0645752
-0.0572656
-0.250087
0.477007
-0.212704
0.045327
-0.177483
-0.419352
-0.239089
0.498375
-0.250551
-0.237978
-0.242737
-0.00294025
-0.191846
-0.25359
0.450278
-0.256161
-0.121192
0.108152
-0.278316
-0.0109391
0.503779
-0.137731
-0.0435524
-0.0254951
0.434687
0.467546
-0.150779
-0.15077
-0.157911
-0.191743
-0.235098
0.0277292
-0.365759
-0.239079
-0.00359534
0.00371593
-0.384716
-0.331635
0.0546438
-0.114483
-0.260919
-0.397267
-0.357472
-0.0680512
-0.065644
-0.0310664
-0.014398
0.0230038
-0.20124
-0.347261
-0.262121
-0.222596
-0.156037
-0.277369
-0.0424424
-0.0451124
-0.318397
-0.199698
-0.0432013
-0.113535
-0.0140589
0.31627
-0.119691
-0.0437887
-0.186546
-0.216676
-0.415643
-0.277514
-0.0897126
-0.420513
-0.131975
-0.220051
0.014593
-0.238985
-0.298708
-0.254622
-0.00779256
0.459658
0.0238923
-0.0766641
-0.344835
-0.423768
0.44286
-0.299112
-0.106237
0.020301
-0.119329
-0.0908663
-0.340222
-0.0344907
0.026479
0.499816
-0.272401
-0.411129
0.450606
-0.176483
-0.262954
0.0295653
-0.129812
-0.0230811
-0.136096
-0.109518
0.117426
-0.232337
-0.12838
-0.259904
-0.342497
-0.314588
-0.403831
-0.0831005
0.211378
-0.436723
-0.22324
-0.0736969
-0.00179973
-0.273967
0.00597956
-0.189546
0.364066
0.18653
0.200584
0.00856427
0.47048
0.195457
-0.0302563
0.392956
0.0326779
-0.0261617
-0.276983
-0.00245627
0.0414438
0.268564
0.066785
0.00608152
-0.0668952
0.0355852
-0.337526
-0.0709489
0.0808263
0.0406822
0.434088
0.14837
-0.259306
-0.377321
0.0262377
-0.165584
-0.306661
0.0212861
-0.283235
-0.0733708
0.155132
0.00172406
-0.0500572
-0.155351
-0.115233
-0.0977152
0.0174209
-0.0430366
-0.0316197
-0.0964536
-0.0304828
-0.0085363
-0.0065835
-0.0406911
0.274013
0.508011
-0.360946
-0.0700542
0.103897
-0.19125
0.093895
0.0310282
-0.0153579
-0.102173
0.303223
0.514311
-0.0925136
-0.390281
-0.0487608
0.328421
-0.102327
-0.277025
-0.123883
-0.264816
0.00657618
-0.318475
-0.0157991
-0.325933
-0.430756
0.0881597
-0.15533
-0.0106464
0.0156039
0.0268672
-0.0329071
-0.182702
-0.392455
-0.338339
-0.0962763
0.130061
0.395416
0.448822
0.488491
-0.0632525
0.0155627
-0.0322035
-0.277443
-0.0409885
-0.0302256
-0.293653
-0.0985438
-0.155139
-0.336778
-0.121963
0.200591
-0.0751563
-0.0516753
-0.146813
0.480145
-0.357325
-0.192557
-0.169447
-0.417507
-0.405725
-0.205172
0.0376251
-0.204658
-0.00540085
-0.39785
-0.0318655
-0.0185269
0.00165178
0.0634236
0.492866
-0.0462477
0.0450942
0.439113
0.0163379
-0.0520869
-0.103981
-0.431321
-0.116213
-0.108543
0.131644
-0.0644007
-0.286214
-0.0764093
-0.0456129
-0.164258
0.0228074
-0.0713952
-0.0702685
0.04287
-0.277591
-0.415499
-0.442313
-0.406276
-0.0534678
-0.401117
-0.0178736
0.0753998
0.00513937
0.00321103
0.181691
-0.00359853
0.016617
-0.420441
-0.0451564
-0.0663783
-0.074823
-0.433404
0.0890301
-0.0380405
-0.187845
-0.169751
-0.343604
0.408087
-0.259352
-0.31158
0.0191886
-0.211207
0.0602129
0.0520858
-0.114682
0.0225417
0.00925544
-0.393339
0.313963
0.481657
0.0845866
-0.0293943
0.464322
-0.127692
0.0644404
-0.0677854
-0.0761351
-0.203604
-0.410623
0.0970309
-0.186342
0.161687
-0.123426
-0.20007
-0.00190976
-0.347005
0.0223903
-0.223318
-0.0444078
0.0637497
-0.446887
0.0246097
-0.45149
-0.289113
-0.0587942
-0.169707
0.351423
0.457065
-0.448223
-0.161094
0.116332
0.36228
-0.197447
-0.139945
-0.4066
-0.0736555
-0.0316844
0.407389
-0.231779
-0.0145535
-0.420808
-0.20237
0.445486
-0.0729616
-0.351683
-0.333285
-0.0155364
0.125918
-0.198591
-0.0613634
-0.379203
-0.117719
-0.0370308
-0.101898
0.0943009
-0.0888177
-0.18724
0.408127
0.521536
-0.192543
-0.0067233
-0.351073
-0.0319051
-0.171203
-0.249084
0.0153818
-0.195116
-0.0720027
-0.346191
-0.0470452
-0.167502
-0.452983
-0.0813039
-0.0356012
-0.0950495
-0.280654
0.00634875
-0.019632
0.159747
0.127891
0.00627085
-0.435134
-0.0311092
0.238107
-0.0323017
-0.0408094
0.109531
-0.344188
0.422576
-0.181902
-0.248639
-0.428172
-0.0344064
-0.409256
-0.00169522
-0.0073048
0.0915487
0.338344
0.0266231
-0.245344
0.395306
-0.303623
-0.0277498
0.00620935
-0.0320047
-0.202922
-0.0463477
-0.383657
-0.206282
0.0190549
-0.0475054
0.120543
0.00121306
-0.125536
0.0602356
-0.368195
0.418888
-0.179533
-0.351152
0.330525
0.503097
-0.0995847
-0.0540151
-0.0605685
-0.0608772
0.0491611
-0.0633759
-0.205891
-0.000952029
-0.189127
-0.186146
-0.0419184
-0.340193
-0.125525
0.412893
-0.0506124
-0.203117
-0.151984
0.426688
-0.305215
-0.235672
-0.154192
0.0137688
-0.408683
0.0136591
-0.107789
-0.328503
-0.0717189
-0.0533845
0.0148604
-0.0529957
-0.227032
-0.0474394
-0.0152396
-0.330605
0.269047
-0.0176215
0.190604
-0.0133933
-0.0810538
0.0236228
0.0405362
-0.080185
0.080954
-0.0522812
-0.277391
-0.255009
-0.0158058
-0.276714
-0.0763861
0.0759333
-0.453586
-0.390689
0.00501383
-0.0578465
-0.0019229
-0.022628
-0.0648596
0.0858846
0.169917
0.0709892
-0.0978359
-0.0194703
-0.135453
-0.448416
0.0484793
0.119599
-0.130634
-0.456
0.012411
0.212265
-0.268879
0.185413
-0.10736
-0.0753595
-0.322175
-0.382673
0.0661089
0.0702389
0.0672241
0.205158
0.0747742
-0.257814
-0.0618495
-0.09262
-0.211674
0.258623
-0.46344
-0.18226
0.0793592
0.202693
-0.0279167
0.0261372
0.0622157
-0.165667
0.170674
0.00418787
-0.436071
-0.446135
0.0204363
-0.0770273
-0.304809
0.424288
-0.125826
-0.00776552
-0.112419
-0.312872
-0.0305017
0.0526018
0.0279946
0.0630597
-0.403696
-0.0692666
0.232572
0.136024
-0.00970906
-0.000947086
-0.04655
0.00463982
0.00137872
-0.0693617
-0.00527545
-0.198534
-0.0620144
0.00541636
-0.436285
-0.458762
-0.160277
-0.163012
0.00084367
-0.0893812
-0.0529263
-0.175337
-0.447071
0.0257304
0.0365122
-0.432323
-0.0383392
-0.167021
-0.445816
-0.327747
0.0404378
0.103476
-0.225392
0.143285
-0.0928228
-0.427539
0.196545
-0.049224
0.208545
-0.043149
0.480274
-0.241366
-0.0332954
-0.116794
-0.353951
-0.0547827
-0.214044
0.118005
-0.243891
-0.00677955
0.112779
-0.42765
-0.42806
-0.323844
0.0747371
-0.0157434
0.0306793
0.0608322
0.0863672
-0.227241
-0.256655
-0.00456489
-0.0272816
-0.0738787
0.191337
-0.2584
0.0745719
-0.099574
-0.439059
-0.201061
0.0141751
-0.26792
0.0189219
-0.212829
-0.177982
-0.0110348
-0.158557
-0.19302
-0.00354934
-0.120716
-0.16274
-0.416912
-0.0529538
0.120786
-0.0355202
-0.411958
-0.191188
-0.406901
-0.0729677
-0.168869
-0.00663079
-0.0190701
-0.175053
-0.02564
-0.0174509
-0.0356483
-0.0527051
-0.267607
-0.227633
0.0436795
-0.0413294
-0.438458
-0.0400149
-0.00340873
-0.160703
0.0593247
-0.413425
-0.178687
-0.0228355
-0.0849409
-0.00288782
-0.372334
-0.0984803
-0.443663
0.000819484
-0.00985225
-0.209079
-0.112942
-0.453693
-0.396889
0.256159
0.057875
-0.217332
-0.212642
-0.44248
-0.132989
0.0201501
-0.185492
-0.391849
-0.438656
-0.0193772
-0.342387
-0.422484
-0.0138869
-0.0315395
0.116691
0.0633162
-0.415902
-0.212892
-0.00606197
-0.419412
-0.0782809
-0.392026
-0.261822
0.0391755
-0.0392771
-0.204369
-0.209797
-0.188885
-0.0728766
0.0066227
-0.0503485
0.410099
-0.260268
-0.155851
0.0233147
0.109484
-0.179937
0.0529273
0.0392748