/*--------------------------------*- C++ -*----------------------------------*\
| =========                 |                                                 |
| \\      /  F ield         | OpenFOAM: The Open Source CFD Toolbox           |
|  \\    /   O peration     | Version:  v2012                                 |
|   \\  /    A nd           | Website:  www.openfoam.com                      |
|    \\/     M anipulation  |                                                 |
\*---------------------------------------------------------------------------*/
FoamFile
{
    version     2.0;
    format      ascii;
    class       surfaceScalarField;
    location    "100";
    object      phi_0;
}
// * * * * * * * * * * * * * * * * * * * * * * * * * * * * * * * * * * * * * //

dimensions      [0 3 -1 0 0 0 0];
oriented        oriented;


internalField   nonuniform List<scalar> 
20823
(
0.726247
-0.2561
-0.470147
-0.0215809
0.0622544
-0.0406735
0.496009
-0.603579
0.10757
0.031177
0.134058
-0.165235
0.114621
-0.136458
0.0218373
-0.0517746
0.158372
-0.106598
0.15115
0.0629486
-0.214098
0.0127764
-0.0132465
0.000470111
0.398494
-0.30723
-0.0912645
-0.468758
0.439544
0.0292141
-0.0114974
-0.0879151
0.0994124
-0.000363398
-0.00596714
0.00633054
-0.00472051
0.0289809
-0.0242604
0.484264
0.0553836
-0.539648
-0.100899
0.247135
-0.146236
0.0116433
-0.480402
0.282328
-0.558647
0.276319
0.111191
-0.141446
0.0302553
0.000178958
-0.00329549
0.00311653
0.477344
0.175742
-0.653086
0.0665034
-0.263011
0.196507
0.00528394
0.00270587
-0.00798981
-0.00411914
-0.00335494
0.00747408
-0.211927
0.184829
0.0270978
-0.00189773
-0.00631551
0.00821324
-0.129028
0.280206
-0.151179
0.125448
-0.168068
0.0426203
-0.0363881
0.425702
-0.389314
-0.00282152
0.000903976
0.00191755
-0.0457905
0.0395403
0.00625013
0.319762
0.406485
-0.421296
-0.0680099
0.489306
-0.280899
0.132856
0.148044
0.00351229
-0.00333333
-0.385164
0.320564
0.0646003
-0.334064
-0.00296742
0.337032
0.10459
-0.233617
-0.0746149
0.551959
0.184803
0.0886523
-0.273455
0.253054
-0.0134205
-0.239634
-0.000270593
-0.152239
0.15251
0.202366
-0.238288
0.0359218
-0.00129867
0.0103112
-0.00901252
-0.00197675
0.00176301
0.000213737
0.317538
-0.397161
0.0796227
-0.0099717
0.00807398
-0.207519
0.274022
0.00288257
0.199483
-0.0292859
0.154488
-0.125202
0.0152092
-0.0175748
0.0023656
-0.0684499
0.0918477
-0.0233977
0.159425
-0.0544059
-0.105019
-0.00182523
-0.00614437
0.0079696
0.00769501
0.00106784
-0.00876284
0.171147
-0.114826
-0.0563206
0.25329
-0.000236167
0.00813622
-0.00667963
-0.00145659
-0.37494
0.338552
0.0730117
0.139901
-0.212913
0.359399
-0.272824
-0.0865751
-0.119608
0.0903225
0.0940417
-0.291827
0.197785
-0.0338843
0.0123228
0.0215615
0.330237
-0.201619
-0.128618
-0.348896
0.0968511
0.252045
0.0604707
0.0293191
-0.0897898
0.0712738
-0.0879343
0.0166605
0.12866
-0.0174693
0.414411
-0.529977
0.115566
-0.33803
-0.0471338
0.235326
-0.161811
-0.0735151
-0.384445
0.352812
0.0316331
0.0108597
-0.0149788
0.000567561
-0.000544922
-2.26391e-05
0.0905437
-0.0192699
0.0269651
-0.361029
0.0152964
-0.0837463
0.317554
-0.377388
0.0598347
-0.396087
0.0134003
0.382687
-0.0227654
0.148213
0.18469
-0.135969
-0.0487215
0.0153858
-0.0126351
-0.00275068
0.00875732
-0.010056
-0.00176914
-0.00614
0.00790914
-0.0474391
0.30955
-0.262111
-0.166982
0.261023
0.118993
-0.219891
-0.216138
0.498466
-0.00667324
0.144252
-0.137578
0.0134272
-0.0142201
0.000792862
0.248937
-0.311287
0.0623495
0.0962278
0.250053
-0.346281
-0.110345
0.00283336
0.107511
0.00434256
-0.00434256
0.00926885
-0.00930977
4.09165e-05
0.01634
-0.132072
0.115732
-0.0887361
-0.26016
0.0938662
-0.0333955
-0.00261749
0.0028196
-0.000202108
0.558795
-0.256959
-0.301835
-0.224062
0.155708
0.0683545
-0.00145152
-0.000525233
-0.311236
0.106432
0.204804
0.61146
-0.115451
0.0128778
-0.00262107
-0.0102568
0.0086282
0.0839601
-0.0925883
0.0622466
0.0952508
-0.157497
-0.0269779
-0.0130758
0.0400537
-0.119268
0.112595
0.00078629
-0.000218729
-0.346005
0.458567
-0.112561
-0.420026
0.461034
-0.0410079
-0.0639824
0.446627
-0.382645
0.00615204
-0.00797727
-0.474041
0.410059
0.0064171
-0.00818624
-0.00483177
0.00564207
-0.000810306
-0.208739
-0.102497
-0.116599
0.00109373
0.115505
0.00051631
-0.00136716
0.000850848
-0.315835
0.252821
0.0630144
-0.0154507
-0.0327467
0.304566
-0.181289
-0.123278
0.0658086
-0.485834
-0.00094264
0.000397718
-0.0547891
0.205939
0.00116146
0.00413619
-0.00529764
0.118408
0.00633626
-0.124744
0.476649
0.00761549
-0.0521573
-0.171905
-0.0198577
0.00466814
0.0151896
0.164733
-0.152027
-0.0127063
-0.147445
0.0278364
0.0117292
0.00294178
-0.014671
-0.119573
0.111807
0.007766
-0.445748
0.501132
0.0146843
-0.000458131
-0.0142262
0.00972218
-0.00202717
-0.150523
-0.0256126
0.176135
0.132664
-0.129783
-0.00288106
0.00907728
-0.0921109
0.0830336
0.00061928
-0.00199797
0.00137869
0.0398823
0.130929
-0.170811
-0.0450732
0.0180953
0.0667439
-0.462831
0.616002
-0.605188
-0.010814
-0.00731648
0.00934464
-0.00202815
-0.00210492
0.0954946
-0.0933896
0.268653
-0.524753
-0.152904
0.0950603
0.0578441
-0.282442
-0.266501
0.548943
-0.135809
0.0192097
0.296579
-0.111776
0.022391
-0.0378417
0.0196158
0.08831
-0.107926
-0.0511195
-0.333325
0.011159
-0.0120892
0.000930195
-0.17743
0.543543
-0.366113
-0.162255
-0.0670392
0.229295
-0.0731272
0.0881686
-0.0150413
0.00135723
0.0114192
0.0323714
-0.121954
0.089583
0.28212
-0.151197
-0.130923
-0.0614538
-0.150473
-0.00102414
-0.00947524
0.0104994
0.196061
-0.294098
0.0980369
0.00210934
-0.00132305
-0.099318
0.2151
-0.115782
-0.00626843
0.00143666
0.394612
-0.302106
-0.0925062
0.00740274
-0.126976
-0.0474373
0.24383
-0.196393
-0.0337758
-0.119129
-0.0945468
0.110887
-0.106022
0.168269
0.0528365
0.0974161
-0.150253
0.292612
0.18969
-0.482301
-0.570891
0.447865
0.123026
0.0824653
-0.528214
-0.00123407
-0.00158745
0.0239177
0.0348582
-0.058776
0.141676
-0.00901179
-0.511849
0.297994
0.213855
0.00208289
-0.00156659
-0.539179
-0.0261645
0.565343
0.267554
-0.0186171
-0.270398
0.222959
-0.536899
0.426931
0.109967
-0.00820539
0.000888909
0.00886402
0.10413
-0.112994
0.10259
-0.120007
0.0174172
-0.287186
-0.0286494
-0.0269063
0.00800558
0.0189008
-0.256563
0.352791
0.112821
-0.275076
-0.00775479
-0.0608375
0.347708
-0.28687
-0.0137115
0.00899096
-0.0324993
0.119312
-0.0868125
-0.466474
0.390931
0.0755424
0.000106746
0.00105471
0.328255
-0.419049
0.0907937
0.124249
-0.137165
0.0129158
0.219613
0.178881
-0.00211232
0.00134264
0.000769683
-0.0343467
-0.0114438
0.344519
-0.338269
0.299149
0.0391202
-0.00114551
0.00176479
-0.013799
-0.00605872
-0.145541
0.185423
0.415711
-0.328509
-0.087202
-0.0775416
0.106861
-0.0834675
0.401005
0.292046
-0.215598
-0.076448
0.239716
-0.300553
-0.122023
0.110173
0.0118498
-0.105106
0.113735
-0.0167943
-0.0923054
0.1091
0.289981
-0.242593
-0.0473881
0.0152147
-5.45536e-06
0.00180405
-0.00811956
0.301217
0.257578
-0.131671
0.175148
-0.0434767
-0.308241
0.610442
-0.3022
-0.123132
0.110136
0.0129956
0.0513869
0.00198257
-0.0533695
0.049616
0.240365
-0.00202306
0.0137522
0.275124
-0.0650522
-0.210071
-0.428222
0.275475
0.152746
0.153493
0.176744
-0.0951997
0.104277
-0.00382761
-0.00373013
0.00755774
0.297336
-0.101275
-0.0396014
0.518345
-0.478743
-0.0119944
0.00965797
0.00233642
-0.261354
-0.166867
-0.237719
-0.0735536
0.311273
0.106595
-0.231163
0.124568
-0.167645
0.341706
-0.174061
0.108208
-0.110313
0.077504
-0.192715
0.115211
0.0130525
0.00163178
-0.193766
0.146329
0.0767594
-0.00366368
-0.0730957
-0.274717
-0.237132
0.00102074
0.00424686
-0.0052676
-0.0113748
0.194904
-0.264835
0.0699306
-0.00136866
-0.112617
0.113986
0.0174165
0.0319352
0.352364
-0.384299
-0.108844
-0.0131784
-0.157909
0.257282
-0.0993732
-0.109544
0.12916
-0.547157
0.51393
0.0332271
0.122766
0.00148329
-0.583297
0.599353
-0.0160562
-0.00208763
-0.00972684
0.0118145
-0.0221763
-0.514722
-0.00548017
0.00511677
0.683678
-0.464127
-0.219551
-0.262763
0.36707
-0.104307
0.527531
-0.11312
0.388534
-0.0512623
-0.337272
0.147083
-0.138219
-0.115442
0.118376
-0.00293483
-0.171972
-0.0496414
0.221613
0.137858
-0.138128
0.174034
-0.311519
0.137484
-0.0170511
-0.449423
-0.07921
0.111581
0.100291
-0.125274
0.0249823
0.0847393
-0.117239
0.371427
0.114058
-0.485485
0.31558
0.29588
-0.371774
-0.126039
0.497813
0.00596028
-0.00581611
-0.000144175
-0.00983416
-0.374989
0.550731
-0.274958
0.374701
-0.0997424
-0.00401379
-0.0079806
0.000891009
-0.00996276
0.00907175
0.516983
-0.16332
-0.353663
0.00556833
-0.00726644
0.00169811
0.206693
-0.100099
-0.136474
0.167651
0.408229
-0.315113
-0.0931167
0.212514
-0.102648
-0.109867
0.200065
-0.575054
0.127593
0.0318322
-0.100238
0.471664
0.013456
-0.0113923
-0.00206373
0.225294
-0.201976
-0.0233182
-0.0919812
0.0766902
0.0152909
0.12244
-0.0221487
-0.1702
0.0196771
0.0245317
-0.0277025
0.00317088
-0.0451912
0.0691089
-0.109648
0.00252847
0.10712
0.00899824
-0.00853366
-0.000464578
0.0828201
-0.182138
-0.193632
0.279875
-0.0862435
-0.00178145
0.00734977
-0.0982507
-0.392188
0.490439
-0.175159
0.0434883
-0.18257
0.132783
0.0497875
-0.0824439
-0.0776169
0.160061
-0.490511
0.144505
-0.0296995
-0.104052
0.133752
-0.00958195
-0.112373
-0.517106
0.145331
-0.014635
0.00427538
0.0103596
0.00656875
0.00881704
-0.00453009
0.033511
-0.173288
0.0908442
0.462613
0.170886
-0.633499
0.00750185
0.00176701
-0.205667
0.0356125
0.170054
0.0910377
0.184086
0.0882204
0.0910744
-0.179295
-0.297505
0.125534
-0.0517041
0.406186
-0.354482
0.198471
0.0935749
0.310966
-0.214115
0.0991091
-0.190038
0.090929
0.108265
0.399523
-0.507788
-0.133458
0.454621
-0.321164
0.00186763
-0.00397995
-4.74983e-05
-3.25931e-06
5.07576e-05
0.0532932
-0.391563
-0.452195
-0.0949622
0.00215219
-0.000760772
-0.00139142
-0.303185
0.0709549
0.23223
-0.520968
-0.018211
-0.408421
-0.178264
0.586686
-0.159625
0.253925
-0.0942998
-0.044843
0.0442573
0.000585637
-0.363194
0.195548
0.000248768
0.00223275
-0.00248152
0.000231701
0.0131955
0.134152
0.170414
0.0121253
-0.00824015
-0.00388516
0.235881
0.0750847
0.0659264
-0.117701
0.0163712
-0.168611
0.177425
0.102781
-0.00952682
-0.0442642
0.053791
0.44078
-0.408845
0.0106452
-0.0105065
-0.00013872
-0.0927693
-0.0670801
0.159849
-0.324298
0.391042
-0.114568
-0.00668586
0.121254
-0.101657
0.35171
-0.267113
0.109204
-0.394831
0.323963
0.0708684
0.0867724
-0.0982698
0.00114384
0.000580984
-0.00172482
-0.00431572
-0.0061684
0.0104841
0.305847
0.064036
-0.369883
0.0190037
-0.0210914
0.339614
-0.0422777
-0.117756
0.100365
0.0173911
0.31065
0.373028
-0.0321894
0.333407
0.02363
-0.138198
0.0086492
0.453963
0.00705111
-0.00109083
0.0301941
-0.00566243
-0.0236019
0.0317187
-0.00811685
-0.40031
0.125352
-0.191924
0.280576
0.14507
0.0674446
0.327155
-0.378859
0.0701616
0.00659775
0.0120617
-0.107598
0.0955365
0.337948
-0.106617
-0.23133
0.00737942
0.00474589
0.177111
-0.0780018
0.336751
-0.368941
-0.485616
0.308186
-0.085995
0.140177
-0.262164
0.121987
-0.00017315
0.00917139
-0.0825115
-0.00644142
0.0889529
0.112086
-0.12888
-0.141753
0.141349
0.000403226
0.513612
-0.152667
-0.360944
-0.0111704
0.0376609
-0.0264905
0.00730737
-0.00761202
0.000304652
0.251139
-0.259402
0.00826278
-0.095791
0.0921273
0.374236
-0.510024
0.135789
0.0198169
-0.148197
0.12838
-0.0721414
0.0679825
0.00415891
0.00932987
-0.00843886
-0.143145
0.120387
0.0227579
0.00646342
0.0154005
-0.0218639
-0.310197
-0.385694
0.493959
0.0125968
-0.00143774
0.689266
-0.291384
-0.397882
-0.079073
-0.016718
0.0302541
-0.0248853
-0.00536876
-0.0623402
0.0962405
-0.0339003
0.355668
-0.219945
-0.135723
0.0709994
0.122951
-0.19395
0.00296171
0.00878219
-0.0117439
-0.375837
0.113074
-0.0268625
0.251138
0.0884756
0.126094
-0.0488367
-0.0772572
0.322873
0.247735
-0.570608
-0.00012174
-0.00249575
0.00203174
0.000270364
-0.0023021
0.279162
-0.105128
0.233506
0.0775235
-0.311029
-0.10333
-0.0144261
0.0868542
0.0939123
-0.180766
0.274092
0.0369071
-0.310999
0.00964006
0.000198871
-0.00983894
-0.0121351
0.0129845
-0.000849373
0.0685813
-0.303325
0.00158473
-0.00409346
0.00250873
0.0130792
0.00213548
-0.0983487
0.0531575
-0.217006
-0.0942805
0.339571
-0.555709
0.419897
-0.0119092
-0.407988
0.0068842
0.388803
-0.395688
0.0188735
-0.031008
0.0121345
-0.0727537
-0.162959
0.235713
-0.0896488
-0.0101458
-0.0167606
-0.0385866
-0.00625642
0.153362
-0.100525
0.112387
-0.113755
0.230452
0.0520378
-0.28249
-0.000804115
-0.00326741
0.00407153
-0.0352755
0.0685873
-0.0333118
-0.546578
0.138156
0.00895282
0.00169242
0.0184882
0.0949279
-0.113416
0.0032484
0.00166051
-0.00490891
-0.0949196
0.115286
-0.0203663
0.0100136
-0.0925251
0.0854247
-0.323144
-0.0105191
0.00942308
0.00109599
-0.0609169
0.335009
0.00182605
0.000205685
-0.168083
-0.0802678
0.24835
-0.0119258
-0.000209325
-0.0126086
-0.0314919
0.0441005
-0.597138
0.288896
0.000596823
-0.000644322
0.162059
0.19734
-0.0593191
0.0377382
-0.0133376
0.00577882
0.00755874
0.0384306
-0.0479574
-0.000339289
0.00356719
-0.0032279
-0.0801321
-0.0118491
-0.0110567
0.000416396
0.0106403
0.00483313
-0.0239197
-0.0968779
0.381548
-0.000927083
0.00205143
-0.00112434
-0.0366776
-0.141085
0.0483158
0.522973
-0.415868
-0.107105
0.0102357
-0.105155
-0.0377554
0.209941
-0.172186
0.309755
-0.0793034
-0.00158511
0.052972
-0.0325715
-0.109181
0.253345
-0.00220621
0.165965
0.000701345
-0.166667
-0.0759279
0.026871
0.049057
0.0873113
-0.0807934
-0.00651786
0.0153554
-0.0196711
0.175871
-0.0983671
0.0119104
0.00154567
-0.00573661
0.00869832
0.108546
-0.268171
0.00275984
-0.00251107
0.366779
-0.48321
0.116431
0.366342
0.156631
0.0964547
0.0296391
-0.211069
0.55064
-0.131727
0.128622
0.00310413
-0.0699739
0.0121047
0.0578692
0.511522
0.150272
-0.661794
0.319895
0.0357723
0.179313
0.0459806
-0.0224147
0.0683293
-0.0459146
0.402846
-0.174372
0.0389068
0.135466
0.526718
-0.159939
0.00342426
-0.34493
0.341506
-0.415153
0.0784484
0.336705
-0.549596
0.323572
0.226024
0.106399
0.00822193
0.106235
-0.0101817
-0.0619597
-0.077195
0.0378798
0.0393152
0.119159
0.0392136
0.477653
-0.517254
0.00715362
-0.00186969
0.00261558
-0.000954036
-0.00166154
-0.00139873
-0.299753
-0.249843
0.160371
-0.146004
-0.0143667
0.129016
0.0313549
-0.194769
-0.407645
0.356526
-0.0453837
0.305639
-0.260255
0.00843569
-0.0122633
0.108855
-0.0926965
-0.0161582
0.00276838
5.12165e-05
-0.245047
0.336872
-0.0918249
0.176428
-0.103416
0.0133701
-0.0137939
0.000423823
-0.0651223
0.151977
0.119661
-0.102995
-0.0166657
-0.104689
0.0423489
-0.494074
0.426064
0.107283
-0.115917
0.00863422
0.00949615
-0.0131642
0.00366803
-0.178036
-0.00113913
0.179175
0.00304803
-0.089904
0.086856
-0.113065
0.122908
-0.00984356
0.00981793
-0.000177866
-0.0734471
-0.123516
0.211736
0.0154963
-0.107157
0.0916604
0.112706
-0.100645
-0.167854
0.239058
-0.0712042
-0.000373875
-0.000553209
0.00231544
-0.00845544
0.208712
-0.125038
-0.0836738
0.515833
-0.00431016
-0.10191
0.0123779
0.0895323
0.000119295
-0.0166083
0.016489
-0.00172633
0.00653033
-0.00480399
0.01321
-0.0134693
0.000259302
-0.379797
-0.191094
-0.238233
0.0701503
0.00369446
0.0179673
-0.0216618
-0.202036
0.0240001
0.408812
0.280454
0.0850703
-0.0157463
-0.069324
-0.18708
-0.0511531
0.0134385
-0.0142026
0.000764114
0.0286108
-0.00376245
0.333335
-0.517891
0.184556
-0.00562239
-0.00771516
0.108976
0.111494
-0.22047
-0.216585
0.17883
0.0256036
0.452049
0.174947
-0.394891
0.0126734
-0.014657
0.0019836
-0.13656
0.0659471
0.0191232
0.262357
-0.12218
0.0327027
-0.0438732
0.33991
0.250898
-0.590808
-0.00344878
-0.00973943
0.0131882
0.0932086
0.142117
0.00547955
-0.0036755
0.000991818
-0.000996506
4.68876e-06
-0.213016
0.304054
0.0162005
-0.0133778
-0.00282265
0.00823824
-0.333741
-0.00531564
-0.00371772
0.00903336
0.00709664
-0.00697734
0.314204
-0.525273
0.00964916
-0.0106733
0.110676
0.0866868
-0.197363
0.000617612
-0.254571
0.174983
-0.171589
0.425132
-0.253543
-0.00298134
0.00217723
0.0585278
0.112619
0.346777
-0.102555
-0.244222
-0.123607
0.0939077
0.00209547
-0.000162048
-0.00193342
0.011925
0.0503294
0.510796
0.22927
0.117507
-0.105634
0.117955
-0.0123214
-0.155602
0.00959761
0.00721897
0.000917243
0.129208
0.154572
-0.155055
0.000483131
0.114412
0.00849674
-0.0111674
-0.101221
0.112389
-0.0653145
-0.0761318
0.169039
-0.353498
0.184459
0.0113555
-0.0123181
0.00096261
-0.0311472
-1.55433e-06
0.0311487
0.15716
-0.137343
-0.00267662
-0.00396616
0.00664278
-0.0274612
0.407222
-0.379761
-0.160457
0.133346
0.0271107
0.0585629
-0.245643
0.0197485
-0.125382
0.204163
0.322555
-0.00445943
-0.0742757
-0.225432
0.299708
-0.00745774
0.192287
-0.242515
0.535127
0.070485
-0.345202
0.511338
-0.178003
-0.0677233
-0.0528784
0.120602
0.0155278
0.0764886
-0.144212
-0.0605921
0.108096
0.00324676
-0.111343
0.0418397
-0.0476087
0.00576901
0.0134468
-0.0168956
0.0159166
-0.00283735
0.0137035
-0.000333396
0.198406
0.0815289
-0.279935
-0.00292253
0.00479016
0.0142744
0.00192604
-0.00285541
-0.0070836
0.00993901
-0.065557
-0.123321
0.188878
0.0151163
-0.00167773
-0.426369
0.597206
-0.170837
-0.153892
0.262868
-0.292423
0.434067
-0.141645
0.000303001
0.00184919
0.240111
-0.131986
-0.108125
0.00617683
-0.00347096
-0.443918
0.140282
0.303637
0.0262556
0.0559968
-0.0822524
0.000440068
-0.00936515
0.00892509
0.0203331
-0.0123283
-0.00800479
-0.288129
-0.0877081
-0.0348749
-0.0164665
0.0513414
0.141222
-0.433644
0.203432
0.19118
0.0987004
0.183419
0.522937
0.109705
-0.311581
0.201876
-0.0579006
0.466675
-0.408774
0.387914
-0.513541
0.125627
-0.575026
0.292585
-0.295096
0.201109
0.0939865
-0.016129
0.0545596
0.0307409
0.0827177
-0.113459
0.236641
-0.0823111
-0.0346968
0.117008
-3.69073e-05
0.00102873
0.0455678
-0.296736
-0.205389
0.502125
0.149646
-0.0846631
-0.0649825
0.109548
0.114911
-0.224458
0.0999002
0.10173
-0.20163
0.00114143
-0.107676
-0.00905669
0.116733
-0.0847597
0.253799
-0.247879
0.318364
-0.39115
0.363689
0.00526171
0.10915
-0.520031
-0.110601
0.630632
-0.0477389
-0.0506098
0.421052
-0.166868
-0.254183
-0.182756
-0.11234
-0.171929
0.00473688
0.167192
0.0895594
0.0951306
0.243652
0.26996
-0.0241744
-0.383471
0.000351039
-0.00111181
0.00230243
-0.00264172
-0.00430519
-0.0103298
-0.000898024
-0.0486419
0.0675154
0.0790143
0.182668
-0.261682
-0.251789
0.0839352
-0.289169
-0.122065
0.411234
0.000309302
-0.00627644
-0.297487
0.487176
0.144431
-0.217185
0.219748
0.0956891
-0.315437
-0.0678448
0.0325693
-0.235444
0.549648
8.38254e-05
0.00014337
-0.000227196
-0.105591
0.112833
-0.00724191
-0.405512
0.116343
0.0453691
0.119364
-0.324145
0.337546
-0.0952957
0.00540541
0.000236661
0.0715793
-0.0796825
0.0081032
0.233729
-0.307283
0.0858851
-0.0975656
0.0570245
-0.171851
-0.403505
0.0792065
-0.0985617
0.0210201
-0.309012
-0.0358602
0.344872
-0.0222967
-0.0548983
-0.11149
0.0187939
-0.0567554
0.169471
-0.112715
0.261307
-0.192071
-0.0692363
-0.018446
0.00464698
-0.0542352
0.537319
-0.483083
0.00298792
-0.000219536
-0.106306
0.00439548
0.0636865
-0.175812
0.112125
0.104982
-0.166634
0.0616526
-0.0436691
-0.00438428
0.00265795
-0.2166
0.143413
-0.0193777
-0.124035
-0.162896
0.00729457
-0.147275
0.0257717
0.121504
0.0128066
7.12252e-05
0.101955
0.106757
0.00422082
0.116713
0.298998
0.0688953
-0.0731319
0.0042366
0.492015
-0.377957
0.118076
0.0944885
-0.212564
-0.0128708
0.0102497
-0.00125474
-0.00108438
0.00233912
0.102269
-0.148851
-0.0116059
-0.14287
0.2789
0.350326
-0.371628
0.0213022
-3.99234e-05
0.0113955
0.206501
-0.280776
0.00450321
0.0158299
0.0493462
-0.00750652
0.36436
-0.140953
0.037765
0.103188
-0.0127711
0.00350915
-0.111185
0.309656
-0.0496161
-0.102682
0.152299
0.000616517
-0.000532691
0.168126
0.0790083
0.00161186
-0.0128397
0.0112278
-0.310613
0.0655661
0.538211
-0.138688
-0.346951
0.0903876
0.133277
0.0156206
-0.148898
-0.106215
0.124704
0.0970409
-0.237052
-0.0277829
0.137186
-0.49952
-0.083777
0.0163315
-0.012637
0.00543784
-3.24234e-05
-0.0399109
0.12947
-0.0410697
-0.351311
-0.397609
0.562202
-0.164593
0.606404
-0.465072
-0.141332
-0.37768
0.0895515
0.0680273
0.000867971
-0.138307
0.238207
-0.00399009
-0.00227834
-0.00343858
-0.432897
0.512933
-0.0800353
0.00675351
-0.000803211
-0.00595029
0.0117162
-0.011839
0.000122838
0.0857558
0.0239305
-0.109686
0.0171754
-0.153704
0.263252
-0.0986289
0.112085
-0.0134564
0.00453771
-0.00350368
-0.00103403
-0.0722691
-0.0156652
0.00246416
-0.0143823
0.0119182
0.349321
-0.0117124
0.00223715
-0.00863746
0.00195783
-0.274757
0.449704
-0.000820903
-0.000810223
0.00163113
0.0275029
-0.126034
0.0985311
0.182505
-0.118819
0.221544
-0.11959
0.00279854
-0.000226537
-0.002572
0.00274948
0.013582
0.0441646
-0.180133
0.0213166
-0.130965
0.000534234
0.0126757
-0.0125664
0.004378
0.00818845
-0.00413049
-0.00313595
0.16684
-0.269711
0.102871
0.0987507
-0.0962222
-0.0122663
0.00941093
-0.0452316
0.351078
0.347263
-0.131561
-0.215703
0.0144713
0.340542
-0.103439
-0.452246
0.555686
0.0296118
-0.111923
0.0172684
-0.0122851
-0.00498322
0.118178
-0.00959683
-0.108581
-0.152242
-0.265238
0.417479
-0.232034
0.00620801
-0.00207182
0.00110035
-0.000381677
-0.000718674
-0.0548483
0.0387193
-0.0588822
0.153712
-0.0948293
-0.000490766
0.00272352
0.132116
-0.101375
-0.00664215
0.00251166
0.416511
-0.603446
0.186935
0.0153446
0.0149095
-0.0659369
-0.210925
0.276862
0.32071
-0.418961
0.317408
0.108294
-0.537806
0.440969
0.0968373
-0.500019
0.10241
0.414493
-0.139523
-0.274971
0.206841
0.205512
-0.412353
-0.107625
0.00100107
0.106624
0.0052812
-0.117982
0.112701
0.000528649
-0.00350999
0.00290093
-0.00303945
0.000138527
0.0720332
-0.381045
-0.137864
0.554375
-0.216725
-0.0774902
0.294215
-0.00678763
-0.0706538
0.0108998
0.059754
0.00415495
-0.00674164
0.0025867
0.11276
-0.176076
0.0633159
0.102616
0.00466659
-0.0985159
-0.0695522
-0.0767828
0.104286
-0.133299
-0.0410731
-0.110523
0.0747263
0.0357965
0.271218
-0.0399481
-0.23127
0.24091
-0.0425035
-0.460056
0.106869
-0.157276
0.0504067
0.13603
0.211234
-0.550685
0.550685
-0.299427
0.116672
-0.00951686
0.225835
0.245676
-0.407813
0.0328729
0.0540823
0.100406
-0.00617311
0.00735846
-0.00118536
-0.0151353
0.100891
-0.000953053
0.0156798
-0.0110157
-0.00466414
-0.00906444
0.152477
-0.0620783
-0.00857549
0.261267
0.159784
0.266135
-0.471525
-0.307978
0.0909717
0.00389053
0.00280019
0.13903
0.010616
0.000891442
0.00200949
-0.496551
0.112627
0.383923
-0.159675
0.0750114
0.157712
0.290495
-0.448207
-0.226504
0.158275
0.0682289
-0.0126693
0.00215027
-0.280447
0.0382251
0.116347
0.297112
-0.430569
-0.363249
0.211007
0.122214
0.244856
-0.127243
0.198243
0.119346
-0.106968
0.175723
0.161149
0.116
0.253455
-0.369455
-0.0183536
-0.0445554
0.0629091
-0.0120732
0.12017
-0.166706
-0.00522315
0.160913
-0.106831
0.236325
-0.388088
0.151763
0.0402514
-0.0110295
-0.0292219
-0.296774
-0.0980569
0.100865
0.0294312
-0.130296
-0.0503638
-0.0106276
0.00161954
0.00900807
0.0232012
0.0520356
-0.0752368
-0.552474
0.449035
-0.0666658
0.206567
0.0132609
-0.00376475
0.247625
0.0706164
-0.213271
0.142655
-0.00105091
-0.00148807
0.00253898
0.165865
0.259267
0.0010319
-0.0107587
0.00777759
-0.00476458
-0.00301301
0.249681
-0.289629
-0.156045
0.116563
0.0394812
-0.0947444
0.258677
-0.163933
-0.00758204
0.0156309
-0.00804882
0.158694
-0.0537124
-0.0422692
-0.0682536
0.00260543
-0.153359
0.222389
-0.0690301
0.00991235
-0.0123787
0.00246631
0.226835
-0.156219
-0.338421
-0.0984802
0.436901
0.28137
-0.171665
0.37312
-0.0227941
-0.0117217
0.00904507
0.00677165
0.0224419
-0.0292135
0.0663136
-0.219672
-0.00418212
0.00833707
-0.385573
0.00928802
-0.0028246
-0.181375
0.0507571
0.130618
-0.540882
0.114513
0.121932
-0.187055
-0.304746
0.234919
0.0698268
-0.0132394
0.0136138
-0.000374409
-0.133633
-0.00134095
0.134974
0.141288
-0.0136948
0.0428576
-0.00733655
-0.0355211
-0.569049
0.427772
0.141277
-0.0670871
-0.00742934
0.00650068
0.000928656
-0.121087
-0.149127
0.270214
-0.153962
0.0279519
0.12601
-0.205691
-0.313242
0.518933
0.00160448
0.0227144
-0.0182716
-0.00444283
-0.000445725
-0.14683
-0.0100824
0.0116942
0.145887
0.0790129
-0.2249
-0.194149
-0.0680153
-0.00292886
0.115015
0.265245
-0.586719
-0.505372
0.119678
-0.00151483
0.00204348
0.00177003
0.0010285
-0.526472
-0.0425771
-0.280664
0.317571
-0.0316782
0.138548
-0.0843742
0.422652
-0.338278
0.121267
0.100278
-0.275745
0.176667
0.0990778
-0.0376041
0.0429065
-0.0053024
-0.067619
-0.0755261
0.321812
-0.21482
0.0827256
0.132094
0.00267712
-0.00624314
-0.0923899
0.098633
-0.389566
-0.123975
0.067579
-0.299613
-0.0840748
0.286879
-0.202804
-0.00207954
0.0210833
-0.256935
0.16219
0.0937883
0.00657628
-0.373741
-0.0544766
-0.274333
0.32881
0.000196999
0.000939491
-0.00113649
-0.0157413
-0.115985
0.0773207
-0.0783136
0.000992979
-0.135949
0.147889
-0.0119393
-0.497899
0.216601
0.281298
0.00747696
-0.122989
0.115512
-0.00194659
-0.448206
-0.319634
-0.29787
0.116581
-0.548939
0.282437
0.122182
-0.0693107
-0.0359998
0.10531
-0.071561
0.32063
-0.249069
-0.263477
-0.234422
-0.0795094
0.317939
0.288465
0.466246
0.077297
0.0889101
0.00869381
-0.0976039
-0.00694657
-0.0152716
-0.151594
0.166866
0.0548665
-0.109272
0.282561
-0.07606
0.105725
-0.380482
0.0115824
0.000133784
-0.104766
0.00613705
-0.0116004
-0.111532
0.076505
-0.303219
0.226714
0.436366
-0.490601
0.224939
-0.0580991
-0.00225843
0.114645
-0.00715663
-0.0979497
0.00412311
-0.0849165
-0.113519
-0.263869
-0.397927
0.255166
0.142762
0.0897127
0.647732
-0.296387
-0.351345
0.0105096
0.00247484
0.31922
0.193054
-0.512274
-0.00229187
0.00861948
-0.00632761
-0.0142824
-0.00416362
0.00183358
-0.000689737
0.114787
0.403558
-0.105241
0.0359304
0.089138
-0.0770334
0.0844609
0.0139111
-0.101826
-0.277942
0.156855
-0.385571
0.0328243
0.352746
0.0130462
-0.0046105
-0.119083
-0.0881688
0.207252
0.0968321
-0.012872
-0.00885815
0.00268974
0.26954
-0.0336593
0.0052535
-0.12742
-0.388173
-0.0889582
0.295799
-0.00450202
-0.110966
-0.0917704
-0.0537312
0.0799868
0.529394
-0.210174
-0.0981202
-0.177625
-0.0411493
0.15391
0.0984202
-0.217504
-0.0210034
0.109914
0.0643797
-0.185714
0.121334
-0.0140447
0.00265238
0.349779
0.217126
-0.566906
-0.517718
-0.0874697
-0.181572
-0.314979
0.0234325
-0.543463
0.100332
-0.140243
-0.146259
0.0197957
0.126463
-0.000864654
0.00701669
-0.315524
-0.0899886
-0.000533453
-0.00881865
0.0093521
0.0880385
0.170639
-0.298393
-0.240048
0.538441
0.229638
-0.643712
0.247487
0.396225
0.115061
-0.474194
0.359134
-0.0012343
0.0158333
-0.014599
-0.0403773
-0.0960807
-0.122219
-0.0298077
-0.0867185
0.0194642
0.0672543
0.00933377
-0.0706953
-0.0702572
-0.124421
0.101388
0.0230332
-0.0227674
0.0163897
0.00632467
0.000124223
0.00169312
-0.00181734
0.00115231
-0.00164308
-0.00364906
0.0190044
-0.13702
0.2014
0.00103198
0.00230652
-0.00909149
0.00678497
-0.280083
-0.117844
-0.384828
-0.0554004
0.440228
0.504535
-0.140856
-0.363679
-0.0045961
0.00788711
-0.00329101
-0.00579941
-0.00944442
0.0152438
0.0027413
-0.00422936
-0.00286201
-0.0137463
0.157165
-0.246098
0.0889333
-0.113177
-0.00226419
-0.000284058
-0.0103436
0.11476
-0.171516
0.000279448
-0.00232635
-0.0031913
0.00551764
0.0128592
0.0266812
-0.0962303
-0.118589
-0.00152924
0.00521992
-0.146449
0.141229
-0.259697
0.0926086
0.167089
-0.0850856
-0.0163037
0.101389
-0.0314502
0.0546514
-0.00780034
0.00824041
0.00201056
0.00260857
-0.00461913
0.0112082
-0.00129581
0.000215147
0.117931
0.163478
-0.147106
0.00345417
-0.00256273
-0.00473261
-0.00390484
-0.0539928
0.0777215
-0.0237287
-0.514107
0.124541
-0.167864
-0.0626163
-0.00120733
0.0638237
0.00397009
-0.0579629
0.328067
-0.242643
0.192881
-0.0822048
0.313061
-0.387027
0.0739663
0.0734387
-0.0703907
0.00824644
-0.0105383
-0.0129503
0.106739
0.281119
-0.274235
0.00168639
0.00379316
-0.0204875
0.0192532
-0.182967
-0.0841467
-0.0591815
-0.00271719
0.0618987
0.0133214
-0.0159933
0.00267192
0.312326
-0.0896571
-0.222668
0.0339494
-0.0107384
-0.023211
-0.00555024
0.00294994
0.0026003
0.272515
0.168571
-0.441086
0.000812229
0.000182445
-0.000994675
0.0634285
-0.454578
-0.244191
0.202642
0.0415488
-0.20575
0.289939
-0.0841887
-0.00280033
-0.00129313
0.00766101
0.00262288
0.131755
-0.0113682
-0.0105048
0.00976467
0.000740124
-0.03179
0.0069047
0.00716093
0.00227252
-0.00943345
0.417085
-0.25122
0.117332
0.0663909
-0.183723
0.226248
-0.303255
0.0770071
0.0908607
-0.406384
-0.26168
0.37768
-0.0463329
0.0724664
-0.26439
-0.260155
0.194218
-0.00306626
-0.0109784
0.00433548
0.00241802
0.0765661
-0.293291
-0.0514776
0.54059
-0.489112
0.0209698
0.0129797
-0.291534
0.0807324
0.210801
0.000716316
0.301119
0.281587
-0.582706
-0.00198295
0.00272203
-0.000739079
-0.154682
0.00139377
0.00899489
-0.0103887
0.116948
0.0757024
0.0223341
-0.0043668
0.283284
0.0890764
-0.37236
0.0266557
-0.160289
0.00111902
-0.00033125
-0.000787767
0.00262927
0.00190844
0.00485467
-0.00336121
-0.00149346
0.00143073
-0.00123373
0.0128843
0.000227716
-0.013112
0.19554
-0.279615
0.286231
-0.40034
0.114109
0.100704
-0.15032
-0.0958378
-0.0799099
0.00654677
-0.00424025
-0.0743098
-0.235888
-0.118736
-0.375858
0.494594
-0.236135
0.00212541
0.00720447
-0.448325
0.0634966
-0.00176151
-0.105039
-0.0806172
-0.009235
0.00777841
-0.0828277
-0.0038908
-0.0249621
0.0615744
-0.591717
0.143511
-0.151137
0.0190648
-0.0225147
0.0149327
-0.367175
0.482236
-0.000661666
-0.000280974
0.193312
-0.0273469
0.179348
0.325187
-0.334359
0.07451
0.259849
-0.00244644
-0.00310379
-0.0139384
0.000909686
0.0130287
0.0722271
0.18908
0.0829353
-0.135303
0.416277
-0.471678
-0.126468
-0.0197909
0.0403023
-0.0586559
-0.461784
0.119082
0.342702
0.354959
-0.478888
0.123929
0.457857
-0.142277
-0.00722481
0.00489847
-0.00473108
-0.0303769
0.164435
0.0731977
-0.267346
0.118714
0.00372615
-0.0236662
0.145598
-0.0342558
-0.0108174
0.00701595
0.119466
-0.126482
-0.0251879
0.137593
-0.112405
0.0701564
-0.1974
-0.0501469
0.0239352
0.0262117
-0.468437
0.149108
0.319328
0.224349
-0.305274
0.080925
-0.0101346
0.0177984
-0.00766382
-0.0631195
0.00393804
0.00291081
-0.0203386
0.0174278
-0.000463184
-0.000791554
-0.178514
-0.0811831
-0.183061
0.188281
-0.00911102
-0.00892333
0.0060008
-0.128137
-0.290912
-0.376382
-0.144586
-0.0147454
0.334393
-0.319647
0.116356
0.0023576
0.0523601
0.103588
-0.155948
0.288949
0.353581
0.146236
-0.499817
-0.00864713
-0.00149306
0.0101402
-0.0278669
-0.153508
0.0394044
-0.052013
0.0522683
0.105722
-0.15799
0.00683028
-0.121982
0.115152
0.00224185
0.564979