/*--------------------------------*- C++ -*----------------------------------*\
| =========                 |                                                 |
| \\      /  F ield         | OpenFOAM: The Open Source CFD Toolbox           |
|  \\    /   O peration     | Version:  v2012                                 |
|   \\  /    A nd           | Website:  www.openfoam.com                      |
|    \\/     M anipulation  |                                                 |
\*---------------------------------------------------------------------------*/
FoamFile
{
    version     2.0;
    format      ascii;
    class       volScalarField;
    location    "400";
    object      epsilon;
}
// * * * * * * * * * * * * * * * * * * * * * * * * * * * * * * * * * * * * * //

dimensions      [0 2 -3 0 0 0 0];


internalField   nonuniform List<scalar> 
14033
(
3.09609e-05
0.00309668
6.32374e-07
1.0487e-06
4.19085e-07
1.35615e-06
0.000199816
1.17324e-06
1.04504e-06
0.00220635
6.10785e-07
1.78643e-06
1.32328e-06
1.3222e-06
4.16073e-07
1.62589e-06
1.4963e-06
0.0114776
1.16878e-06
1.57625e-06
1.60237e-06
1.78901e-06
1.97103e-06
4.17575e-07
6.12694e-07
1.16238e-06
2.3483e-06
2.33277e-06
7.88389e-06
4.52381e-06
1.48249e-06
1.16541e-06
2.85472e-06
1.55871e-06
0.000148404
8.77872e-07
0.00230949
0.00284603
4.36254e-07
1.41979e-06
0.00230439
1.60707e-06
6.41622e-07
5.05189e-07
6.52355e-07
6.37574e-07
0.00336303
1.34494e-06
2.63175e-06
0.00205114
1.37152e-06
9.22211e-07
0.00513562
0.00160894
1.50203e-06
1.33169e-06
1.6807e-05
0.00560834
1.57258e-06
1.47758e-06
6.03107e-07
0.00209713
1.68331e-06
6.49287e-07
7.65442e-07
6.31991e-07
2.53846e-05
2.13308e-06
5.83859e-07
1.40092e-06
8.22112e-07
1.50434e-06
0.00332919
1.58422e-06
1.65638e-06
5.95806e-07
1.45284e-06
1.40237e-06
0.00623361
3.77313e-06
6.33854e-07
0.00667352
0.00555657
1.02122e-06
5.79138e-07
1.49087e-06
1.18143e-06
0.00167339
0.00360485
1.58364e-06
1.24485e-06
6.36805e-07
1.03658e-06
0.000649088
5.79556e-07
1.15739e-06
1.37702e-06
6.66685e-07
0.00240986
1.06989e-06
6.35965e-07
1.33886e-06
5.74763e-07
9.67648e-07
0.00341728
2.50487e-06
0.00358261
1.02281e-06
2.08304e-06
8.10573e-07
0.00325019
1.04027e-06
5.88783e-07
3.86315e-07
1.25234e-06
1.46324e-06
4.8191e-06
4.2431e-07
0.00042837
2.86561e-06
1.21401e-06
1.68862e-06
0.00212935
1.19437e-06
0.000725371
1.03027e-06
6.37975e-07
4.71588e-07
0.00397709
1.38247e-06
0.00329822
6.10455e-07
4.17876e-07
0.0026865
0.00329878
1.40626e-06
2.44756e-06
7.8932e-07
1.38853e-06
1.02955e-06
1.49731e-06
0.000376744
1.84657e-06
1.61716e-06
7.28608e-06
6.52008e-07
1.21068e-06
1.71108e-06
0.00228211
0.00056394
8.42748e-07
1.49321e-06
8.28305e-07
1.15383e-06
1.32845e-06
0.00286973
9.6218e-07
7.55538e-07
9.62816e-07
4.16696e-07
1.27134e-06
2.35465e-06
0.00247703
8.59263e-07
1.5759e-06
1.27299e-06
1.48078e-06
1.67e-06
0.0227098
1.22661e-06
1.62557e-06
2.45153e-06
1.78494e-06
0.0184468
5.92051e-07
1.23094e-06
2.91269e-06
0.00441188
1.7721e-06
1.62025e-06
5.48195e-06
0.00528082
1.48565e-06
6.84368e-07
8.22342e-07
0.00352732
0.00272821
1.41243e-06
0.022013
0.00343876
4.83794e-05
1.47542e-06
1.14762e-06
1.41936e-06
0.000661496
0.00168276
1.67294e-06
0.00363416
1.03425e-06
8.23131e-07
1.13057e-06
1.47598e-06
7.68923e-07
6.38998e-06
1.48554e-06
7.74126e-07
1.68128e-06
2.69154e-05
1.61348e-06
2.62512e-06
0.00507006
2.00181e-05
0.000148243
0.000496701
4.38243e-07
1.26502e-06
9.47203e-07
8.0576e-05
9.26001e-07
1.65578e-06
1.61435e-06
7.00614e-07
7.00066e-07
1.18778e-06
1.36863e-06
5.78388e-07
1.90563e-06
1.48372e-06
1.0309e-06
5.11616e-07
6.33965e-07
2.43007e-06
1.49571e-06
4.23839e-07
8.24395e-05
0.00268283
2.65e-06
5.17911e-07
1.0057e-06
8.99282e-07
0.00216896
1.40772e-06
1.10591e-06
6.09475e-07
1.48301e-06
5.15244e-07
0.00412551
0.0159059
1.16753e-06
6.0204e-07
1.34813e-06
0.00507996
5.03706e-07
0.0002013
1.01959e-06
0.00122252
8.91849e-07
1.21954e-06
4.97935e-07
6.47658e-05
4.45867e-07
0.00830391
8.69706e-06
1.66343e-06
1.50804e-06
1.66946e-05
1.48759e-06
3.6287e-06
1.8722e-05
0.00354093
1.58174e-06
0.00268901
5.012e-07
1.60138e-06
0.000195753
1.00145e-06
6.4067e-07
2.33165e-06
1.15969e-06
0.000486419
2.67382e-06
8.70546e-07
6.36635e-06
1.63484e-06
0.0214272
0.000797199
0.00337451
4.99905e-07
0.00671537
6.6746e-05
1.03323e-06
1.76145e-06
1.80928e-06
5.62094e-05
1.24183e-06
6.06421e-07
6.95499e-07
1.01587e-06
6.06215e-07
1.11541e-06
6.9412e-07
0.000277757
0.00119852
1.56382e-06
1.58981e-06
2.58469e-06
1.5131e-06
6.85059e-07
0.00407731
1.46342e-06
2.26884e-06
8.87894e-07
2.56122e-06
1.85906e-06
1.12818e-05
3.06549e-06
1.27582e-06
1.46335e-06
1.32489e-06
0.00553536
0.00310426
2.31505e-06
1.44553e-06
6.03352e-07
1.41663e-06
0.00185536
1.56694e-06
5.70042e-07
0.00346369
1.69688e-06
1.3329e-06
0.00493645
0.00377568
1.57615e-06
4.50541e-07
0.00259791
2.47847e-06
1.10909e-06
0.00280596
1.53303e-06
0.00440358
1.91179e-06
8.80857e-07
1.52719e-06
4.51998e-07
6.07901e-07
1.69021e-06
1.32456e-06
0.00201545
0.000204524
6.89335e-07
1.33855e-06
0.00358333
1.71249e-06
1.12112e-06
4.3689e-07
1.5204e-06
0.00263219
5.80926e-07
9.69381e-07
1.12718e-06
4.85062e-07
0.00215752
1.16286e-06
1.50259e-06
1.65003e-06
5.36274e-07
4.22977e-07
1.4475e-06
6.16016e-07
5.69222e-07
6.14706e-07
1.19511e-06
1.37813e-06
2.26069e-06
0.00519406
1.46499e-06
1.63666e-06
0.000850484
4.87995e-07
5.08255e-07
1.5581e-06
1.22643e-06
4.02995e-07
0.00190057
1.18412e-06
0.00325719
5.1858e-07
1.63176e-06
1.96986e-06
6.89977e-07
0.00410573
1.6112e-06
1.25768e-06
8.61565e-06
0.0043066
7.30935e-06
0.00729698
2.2042e-06
1.47963e-06
1.40166e-05
1.2178e-06
6.27068e-07
4.86637e-07
1.52946e-06
1.3651e-06
1.45237e-06
4.33792e-07
1.23326e-06
0.00110645
0.00283255
4.70392e-06
7.63471e-07
0.00554591
5.71894e-07
1.30224e-06
4.87704e-07
1.53547e-06
1.24071e-06
0.00232493
1.50826e-06
1.19473e-06
1.6643e-06
1.52574e-06
1.10944e-06
1.48057e-06
1.46314e-06
4.18244e-07
1.60198e-06
1.18721e-06
1.13596e-06
1.42157e-06
1.46798e-06
1.30332e-06
4.88315e-07
1.11658e-06
1.4268e-06
1.31908e-06
2.19092e-06
0.000205025
7.4068e-05
5.21648e-07
1.33194e-06
6.4319e-07
1.16587e-06
8.45895e-07
1.68966e-06
0.0021752
0.000204067
1.05392e-06
0.00419618
5.52371e-07
8.26818e-07
4.71077e-07
1.17482e-06
2.06659e-05
4.10709e-07
1.18058e-06
4.12666e-07
1.60279e-06
1.41616e-06
0.00325716
0.000349401
9.80123e-06
4.87414e-07
1.1813e-06
0.000552769
9.83367e-07
5.05624e-07
0.000364684
1.42798e-06
1.60461e-06
9.28651e-07
1.56887e-06
6.14804e-07
0.00566407
1.15327e-06
7.61291e-06
1.25078e-06
0.000911198
8.96449e-07
0.00390098
1.57011e-06
0.00191893
0.00349631
6.51734e-07
0.0129678
7.7478e-07
2.04779e-06
8.55817e-07
1.51028e-06
0.0166008
0.0111876
1.77178e-06
9.29265e-07
1.47086e-06
2.46743e-06
0.00162372
1.48432e-06
1.23364e-06
1.53041e-06
1.12953e-06
2.65027e-05
7.12119e-05
2.09558e-06
6.41499e-07
1.05776e-06
0.00114688
1.18289e-06
2.08665e-06
5.32094e-07
9.83214e-07
0.0039846
5.14798e-07
1.16061e-06
1.41178e-06
1.73012e-06
5.85253e-07
0.00104976
0.000485928
6.30355e-07
2.59881e-07
6.30017e-07
1.21139e-06
9.99831e-07
1.44526e-06
1.38283e-06
1.5479e-06
1.50433e-06
1.2516e-06
1.46792e-06
1.17445e-06
0.00269034
9.82557e-07
8.36735e-07
1.23134e-06
9.0314e-07
1.28315e-06
1.26157e-06
3.01559e-06
1.69891e-06
0.000187562
4.52047e-07
1.00079e-06
2.43649e-07
1.51326e-06
4.36199e-07
6.19684e-07
0.000222398
1.33204e-06
4.81065e-07
0.00380801
4.20189e-07
6.2066e-07
1.09345e-06
2.58434e-06
9.77585e-07
1.4727e-06
1.66101e-06
0.00261215
1.51521e-06
0.00355102
1.5811e-06
1.62536e-06
1.58069e-06
1.62259e-06
4.9907e-06
1.41246e-06
1.51199e-06
1.04915e-06
0.000449548
0.00263115
0.00114926
1.28018e-06
0.0145058
1.08124e-06
0.0225213
0.00366993
1.6295e-06
0.00267421
1.58215e-06
1.38883e-06
6.10298e-07
6.24601e-07
6.01165e-07
3.82198e-06
1.35772e-06
2.47623e-06
6.00771e-07
1.14693e-06
0.00293284
1.60863e-06
6.70505e-07
1.89818e-06
1.24362e-06
1.07334e-06
4.23199e-07
0.00236406
7.08206e-07
1.37722e-06
1.38377e-06
6.11421e-07
1.32495e-06
0.00099108
1.62235e-06
0.0189738
0.00202523
0.00301187
1.97373e-06
1.43047e-07
1.09398e-06
1.11619e-06
1.36214e-06
9.09181e-07
0.000975629
6.34254e-07
4.84262e-07
1.1632e-06
0.00331645
0.00565631
0.00462586
1.02183e-06
1.19458e-06
1.62241e-06
5.41849e-07
1.66627e-06
6.72183e-07
1.69522e-06
1.69221e-06
1.7163e-06
5.24046e-07
5.89703e-07
5.28357e-07
3.69183e-06
1.39703e-06
0.000691485
4.45038e-07
1.38282e-06
2.36839e-06
5.97901e-07
2.0525e-06
1.31047e-06
5.97912e-07
0.000973177
2.51598e-06
0.003209
2.00628e-06
1.08256e-06
8.67288e-07
5.49152e-07
1.64808e-06
1.62013e-06
1.57225e-06
1.15399e-06
1.32673e-06
4.65689e-07
5.61727e-07
1.27125e-06
0.00493566
6.24599e-07
4.36267e-07
5.80277e-07
0.000498896
0.0024269
1.5906e-06
0.000617606
5.37253e-07
0.000104101
4.69822e-07
5.8148e-07
5.31079e-07
0.0113121
1.43199e-05
1.39112e-06
1.12198e-06
1.38051e-06
1.08797e-06
0.000163858
1.84754e-06
1.58708e-06
0.000551317
4.05101e-06
4.18017e-07
1.72212e-06
0.00041656
5.11289e-07
1.58425e-06
0.00207806
2.45216e-06
6.25542e-07
0.00416963
1.41617e-06
0.00253578
1.59284e-06
1.38413e-06
0.00241729
0.00505127
5.32953e-06
7.64871e-07
5.97428e-07
0.0107799
1.51145e-06
1.93051e-06
1.43414e-06
1.59175e-06
1.32994e-06
1.36911e-06
0.000838304
1.35663e-06
1.31697e-06
7.53987e-05
1.35337e-06
9.10254e-07
7.50577e-07
0.000464835
1.51379e-06
1.44438e-06
1.27226e-06
8.30817e-07
1.60206e-06
6.10392e-07
2.9311e-06
1.71126e-06
7.52902e-07
0.0019082
7.74239e-07
3.32559e-06
1.67817e-06
5.48531e-07
1.43096e-06
1.03569e-06
4.08137e-06
5.3468e-07
1.4869e-06
1.62408e-06
1.45923e-06
0.00176015
1.19687e-06
0.00304683
1.6067e-06
0.00249131
1.5418e-06
6.01398e-07
0.00223341
0.00426968
1.21414e-06
5.54273e-07
5.69994e-07
0.00390471
0.000561576
1.65146e-06
5.65887e-07
1.19738e-06
1.39883e-06
1.67445e-06
0.0057505
6.25941e-07
1.35082e-06
0.00404139
0.00262599
6.33415e-07
2.04657e-06
1.27493e-06
1.386e-06
5.63044e-07
1.55874e-06
0.00305609
1.05591e-06
1.43011e-06
1.82208e-06
1.04063e-06
4.23424e-07
1.46944e-06
4.95967e-06
1.15474e-06
1.56888e-06
1.12539e-05
2.12494e-05
5.37613e-07
1.12987e-06
1.59834e-06
1.46462e-06
0.00521389
9.81727e-07
1.08104e-06
6.16284e-07
0.00279318
7.02934e-07
1.11289e-06
1.19956e-06
0.00246579
3.1529e-06
5.33381e-07
2.2978e-06
0.00235434
1.28405e-06
2.70468e-06
0.0179212
3.32129e-06
5.92356e-06
1.90937e-06
0.00508632
1.62051e-06
5.99254e-06
2.0975e-06
0.0227007
1.25073e-06
0.00298523
1.35365e-06
1.39346e-06
1.46516e-06
1.23938e-06
1.17216e-06
1.78736e-06
1.34678e-06
5.38815e-07
1.24531e-06
1.76932e-06
0.00138291
1.99802e-06
7.28724e-07
6.37221e-07
7.38654e-07
1.42473e-06
1.67787e-06
1.47775e-06
1.57929e-06
6.35398e-07
1.43227e-06
2.98683e-06
5.79022e-07
1.43222e-06
0.0159907
8.87494e-07
6.26478e-07
1.69428e-06
0.00288911
4.78739e-07
0.00266099
4.38815e-07
1.16837e-06
4.28839e-07
1.06334e-06
0.00251014
1.7986e-06
1.57368e-06
1.48325e-06
7.16848e-07
1.16515e-06
5.8221e-07
1.45859e-06
7.75107e-07
1.17274e-06
0.0022568
4.42512e-07
1.27793e-06
1.32418e-06
1.34773e-06
5.36863e-07
2.08566e-06
1.23935e-06
2.3833e-05
1.61973e-06
1.98743e-06
1.22708e-06
8.82069e-05
1.29674e-06
2.08113e-06
1.44795e-06
0.00252142
1.48792e-06
6.42215e-07
1.53271e-06
0.00322088
1.60827e-06
1.51919e-06
3.89399e-06
0.00269225
0.001917
5.53192e-06
1.24096e-06
1.58765e-06
0.00298896
1.70148e-06
1.63251e-06
0.00598518
1.40707e-06
4.31794e-07
5.88781e-07
1.59973e-06
1.38636e-06
1.58852e-06
1.4045e-06
1.32567e-06
1.6053e-06
1.32876e-06
1.18213e-06
1.41265e-06
0.00273291
4.83307e-07
1.06665e-06
0.00396234
0.00531435
5.28351e-07
1.49487e-06
4.19669e-07
0.00160784
0.00365906
1.41789e-06
1.54573e-06
1.32833e-06
5.37218e-07
5.29144e-05
1.38544e-06
1.45095e-06
1.54802e-06
5.49837e-07
9.21142e-07
0.00107909
1.23475e-06
5.61413e-07
0.000142454
1.10746e-06
1.47798e-06
0.0002053
4.0118e-06
1.73609e-06
4.62296e-07
5.38407e-07
1.50239e-06
9.5494e-07
1.46044e-06
0.00247251
1.06333e-06
3.40696e-06
8.92652e-07
4.67612e-07
5.61157e-07
4.21124e-07
9.04806e-07
2.61044e-06
2.18015e-06
0.00466397
1.62169e-06
1.47967e-06
0.000356327
6.48968e-07
1.38184e-06
2.27223e-06
1.39177e-06
4.96224e-05
1.67879e-06
7.62856e-07
1.41393e-06
4.25841e-07
0.00145787
1.21555e-06
5.36978e-07
0.00275763
7.54479e-07
0.00514394
5.65575e-07
9.89073e-07
9.54646e-07
4.94421e-07
0.00383204
0.00253691
1.46811e-06
9.02378e-07
2.05844e-06
8.68061e-07
4.9151e-07
7.99803e-07
5.65622e-07
1.06439e-06
0.00214642
0.00070216
9.24749e-07
0.0142324
0.00115923
1.49502e-06
1.63354e-06
6.37616e-07
1.2685e-06
1.55494e-06
1.47749e-06
1.71429e-06
1.55197e-06
1.37004e-06
0.000549017
1.14514e-06
8.85137e-07
9.0354e-07
8.8006e-07
4.29741e-07
1.17172e-06
1.92216e-06
0.00501243
1.12481e-06
5.10351e-07
7.95208e-07
9.70376e-07
1.25281e-06
5.23686e-07
1.33343e-06
0.0019625
0.000916131
9.94471e-07
4.42075e-07
1.01514e-05
3.80622e-06
4.09288e-06
1.78743e-06
1.38804e-06
7.54007e-07
1.57741e-06
5.1978e-07
1.2954e-06
0.00795926
7.93072e-07
1.58728e-06
2.332e-06
2.17668e-06
0.00357929
0.00187242
1.44691e-06
4.27645e-07
1.60996e-06
1.48871e-06
1.21531e-05
4.06737e-06
9.09021e-07
2.89967e-06
1.07147e-06
7.58034e-07
0.0013094
0.00191355
5.57173e-07
1.52941e-06
1.50049e-06
2.10881e-06
6.4795e-07
1.45908e-06
4.7304e-07
1.45662e-06
1.15126e-07
1.64975e-06
0.000783916
1.62095e-06
1.02248e-06
6.34094e-07
1.23512e-06
0.00361764
9.24602e-06
1.58854e-06
2.49317e-06
3.60891e-06
4.71562e-06
1.6216e-06
2.27732e-05
2.13904e-07
1.16559e-06
1.36174e-06
1.33387e-06
1.45912e-06
6.95977e-07
4.82497e-07
1.32948e-06
0.00439549
0.0035205
0.00242534
1.31021e-06
8.7631e-07
0.0160138
1.56141e-06
1.47069e-06
1.48149e-06
1.409e-06
1.44597e-06
1.59997e-06
1.88153e-06
1.25661e-06
1.92494e-06
0.00247521
1.61938e-06
1.30192e-06
1.44197e-06
1.30949e-06
9.88574e-07
1.50594e-06
1.17597e-06
9.36123e-07
1.60729e-06
2.0217e-06
1.31292e-06
5.38472e-07
5.44388e-07
1.1695e-06
0.00302906
1.38409e-06
1.12099e-06
4.25702e-07
0.000803929
6.83021e-07
2.57096e-06
0.00242318
1.28088e-06
1.27139e-06
1.11542e-06
2.0367e-06
5.50823e-07
0.000146733
1.59315e-06
2.03888e-06
1.62313e-06
2.47907e-05
2.17471e-06
0.000300677
1.52795e-06
1.15183e-06
1.5021e-06
0.000821753
2.50366e-07
1.32815e-06
1.03581e-06
4.49965e-07
4.18977e-07
0.000395216
5.63327e-07
0.00230833
2.07188e-07
5.81899e-07
0.00266553
6.87055e-07
1.10903e-06
0.00314893
1.33027e-06
5.83905e-07
1.49109e-06
0.00266764
1.10124e-06
5.44739e-07
0.00104987
5.82347e-07
2.36069e-06
3.84166e-07
0.00258734
1.57994e-06
1.45955e-06
7.27155e-07
1.59932e-06
4.75583e-07
4.24733e-07
0.00427293
7.2313e-07
6.19617e-07
5.03249e-07
1.06456e-06
0.000540068
4.26959e-07
1.07391e-06
5.34744e-07
1.12096e-06
1.25943e-06
0.00229392
4.56106e-07
5.41548e-07
8.2975e-07
0.00131475
0.000721221
6.48301e-07
1.63043e-06
8.3096e-07
0.000184171
1.5632e-06
6.88506e-07
4.27123e-07
7.56711e-05
0.00340995
2.40205e-06
1.52357e-06
1.66522e-06
1.68765e-06
8.66839e-07
8.68807e-07
5.37968e-07
4.21524e-07
7.58643e-07
1.65526e-06
9.92609e-07
1.62787e-06
8.04458e-07
1.4508e-06
1.6387e-06
5.332e-07
9.38982e-07
1.14737e-06
0.000532882
8.47108e-07
7.3457e-07
0.00370729
1.23713e-06
1.14654e-05
5.05773e-07
0.00351477
4.22328e-07
0.00231537
1.8589e-07
7.62045e-07
1.16183e-06
0.00242043
8.60286e-07
0.000234275
9.10673e-07
9.30519e-07
0.00208456
6.84306e-07
5.32735e-07
1.15985e-06
1.78708e-06
4.85824e-05
9.5426e-07
0.000522556
1.37582e-06
1.43976e-06
1.62412e-06
0.009229
0.00138168
0.00152832
0.00107626
1.30887e-06
0.0145662
1.20804e-06
8.7359e-07
6.22341e-07
5.88861e-07
1.03909e-06
1.43185e-06
4.90023e-08
0.00434038
1.43075e-06
8.09985e-07
5.55214e-07
1.37611e-06
1.43078e-06
9.29305e-07
4.57953e-07
5.34312e-07
7.18146e-07
1.66579e-06
8.14454e-07
0.00261649
6.85704e-07
1.28387e-06
4.30089e-07
1.45274e-06
1.52065e-06
7.14399e-07
1.47373e-06
0.000976946
5.54417e-07
0.000503697
0.00134941
1.48403e-06
1.24922e-06
2.08959e-06
1.31935e-06
0.0040992
0.00249113
8.68599e-07
1.24524e-05
1.59156e-06
1.5427e-06
0.0021197
1.36638e-06
1.18113e-06
1.85016e-06
8.58653e-07
0.00211469
6.74773e-05
1.37976e-06
1.54699e-06
5.09381e-07
5.50742e-07
7.14838e-07
1.76296e-06
0.00442528
7.00045e-07
1.21876e-06
0.000175344
7.13848e-07
1.66137e-06
2.59942e-06
1.5441e-06
1.58857e-05
5.70494e-07
0.0017888
1.29618e-06
6.05114e-06
0.00236859
0.00223012
2.78513e-06
1.3705e-06
0.0012549
8.6056e-07
2.82365e-07
2.38188e-05
1.64881e-06
0.010803
7.4317e-07
0.0107709
5.77027e-07
1.24428e-06
5.97583e-06
7.53021e-07
1.74074e-06
7.46855e-06
4.65305e-07
6.98762e-07
4.1871e-07
0.000589561
6.45507e-07
1.5801e-06
4.42773e-07
4.25495e-07
0.00504174
2.68136e-06
9.96106e-07
1.54863e-06
1.48368e-06
6.2377e-07
5.60175e-07
1.25269e-06
1.67934e-06
2.04186e-06
6.32463e-07
1.39169e-06
0.000705901
6.81611e-07
0.000728015
0.00307756
1.31026e-06
0.00344575
1.38818e-06
2.10264e-06
6.35799e-07
4.54546e-07
1.36373e-06
0.00564828
5.8017e-07
6.00373e-07
1.54166e-06
0.000345911
1.55119e-06
0.00327629
2.73711e-07
2.01223e-06
1.9258e-06
1.70117e-06
1.46281e-06
1.54792e-06
0.000311429
1.58308e-06
0.00355518
4.89723e-07
9.65757e-07
0.0203105
0.00722513
1.60886e-06
1.9734e-06
4.33525e-07
1.53602e-06
5.66644e-07
3.75334e-05
4.41696e-07
5.40081e-07
0.00216002
1.35818e-06
1.22145e-06
8.99633e-07
1.30476e-06
1.36408e-06
3.07553e-07
0.00273778
0.00195341
0.000138657
1.67702e-06
1.57895e-06
1.16281e-06
7.81812e-07
6.97366e-06
5.47239e-07
1.49891e-06
8.7515e-07
7.3851e-07
7.07392e-07
1.27256e-06
1.41532e-06
1.57198e-06
4.97211e-07
2.00428e-06
1.51594e-06
0.000825053
1.61302e-06
0.00197032
2.42088e-06
2.39161e-05
1.86152e-06
0.000942016
4.69961e-07
0.000272894
1.66833e-06
9.21382e-06
5.70963e-07
1.30257e-06
6.91456e-07
5.53697e-07
1.10386e-06
4.94419e-07
0.00227618
5.44503e-07
0.00564891
0.00747133
2.31658e-06
1.66455e-06
0.00702447
9.52976e-07
7.08477e-06
1.90563e-06
3.75123e-05
8.75896e-07
1.45604e-06
1.14092e-06
2.94472e-06
7.38753e-07
3.92772e-06
5.99095e-07
5.23229e-05
5.74447e-07
0.000105362
0.00361216
1.53076e-06
2.03079e-07
0.00363178
1.59212e-06
0.0204677
1.81821e-06
1.4971e-06
1.3598e-06
1.37055e-06
4.18052e-07
0.00351773
0.00103168
4.91005e-07
0.00158132
1.45873e-06
1.12679e-06
8.47591e-07
1.32375e-06
2.28951e-07
1.3964e-06
0.00384289
1.36978e-06
1.52883e-06
8.80728e-07
9.7901e-07
1.69806e-06
0.000949432
0.00352694
1.40186e-06
7.729e-07
0.00411584
5.49621e-05
1.52016e-06
0.00365833
1.67074e-06
0.00183833
0.000237592
1.7332e-06
0.00119553
5.26693e-07
1.24646e-06
1.4367e-06
1.42994e-06
0.00300557
0.00181349
1.55166e-06
0.00548767
5.33991e-07
1.32455e-06
0.000958862
9.85499e-07
1.62985e-06
1.3862e-06
0.000927456
9.47352e-05
1.59398e-06
1.49541e-06
0.00247958
0.0118577
1.56988e-06
1.88994e-06
7.78647e-07
6.48431e-07
1.73227e-06
1.53586e-06
1.30875e-06
6.98554e-07
1.53695e-06
2.67008e-06
1.25152e-06
1.42512e-06
2.86349e-06
1.34106e-06
1.52306e-06
0.0151276
9.72993e-07
2.80578e-06
9.99224e-07
9.85217e-07
3.20037e-06
1.31184e-06
1.51064e-06
4.25104e-07
1.53573e-06
1.55093e-06
1.29304e-06
3.69572e-07
6.03448e-07
1.06029e-06
9.669e-07
0.00437665
5.25015e-07
1.54104e-06
1.75137e-06
5.23954e-07
4.30615e-07
3.04057e-06
1.55713e-06
1.78307e-05
1.58307e-06
1.85271e-06
1.47021e-06
0.0017727
0.0017981
5.32867e-07
0.00314113
1.39459e-06
1.49496e-06
0.00392084
9.95732e-07
9.894e-05
4.27802e-06
1.11721e-06
4.58019e-06
1.68035e-06
1.13456e-06
7.8225e-07
4.67671e-07
6.89179e-07
1.58454e-06
9.98209e-07
3.61217e-06
1.24767e-06
0.00341408
1.34381e-06
0.000191251
2.91972e-06
9.77872e-07
1.5146e-06
2.02046e-05
4.75459e-07
0.00325211
0.011858
1.24402e-06
0.00335973
9.83516e-07
0.00194847
0.0192825
1.6961e-06
1.07372e-06
1.41915e-06
4.65445e-07
1.29168e-06
0.00339312
1.46727e-06
8.57751e-07
5.58559e-05
1.23609e-06
6.82928e-07
0.00350119
6.04365e-07
5.62125e-07
1.05412e-06
1.22887e-06
1.42592e-06
1.38628e-06
1.51225e-06
0.000186433
1.21087e-06
0.0036343
0.00142382
1.03255e-06
0.000199274
1.48496e-06
6.28948e-06
0.00092719
9.61775e-07
1.539e-06
0.00334544
0.00370427
0.00337846
0.00224606
4.88691e-07
4.43741e-07
1.1932e-06
2.21894e-06
1.2148e-06
3.65841e-06
1.30075e-06
1.44942e-06
4.91648e-07
0.00384395
1.58229e-06
0.00525065
1.63942e-06
0.00167616
1.03504e-06
1.76305e-06
1.48646e-06
1.5136e-06
4.31893e-07
0.00302776
1.21757e-06
1.17685e-06
0.00323324
1.62353e-06
1.42671e-06
5.49311e-07
1.61802e-06
0.00142556
0.00153837
9.1517e-07
0.0032144
1.33087e-06
1.37592e-06
1.40117e-06
1.00534e-06
0.00609797
6.01337e-06
1.02693e-06
0.000511766
7.7782e-06
1.63234e-06
0.00239546
0.000232268
0.00199953
1.64813e-06
9.49159e-07
1.21906e-06
5.37175e-07
8.17744e-07
0.00156983
0.000982172
1.60832e-06
2.29551e-06
1.37242e-06
6.08399e-07
0.00383722
1.36387e-06
0.000132949
0.000802147
9.17428e-07
0.00486987
7.77072e-07
0.000686574
1.46648e-06
1.79271e-06
0.00106642
0.00376335
8.55409e-07
0.000104143
5.85227e-07
6.84816e-06
1.74222e-06
1.38543e-06
0.000738832
1.28774e-06
1.478e-06
0.000140558
1.73254e-06
5.85846e-07
1.798e-06
5.23012e-05
0.000132897
1.75432e-06
1.39441e-06
3.64602e-07
2.27229e-06
1.78084e-06
1.55076e-06
3.35851e-06
2.2466e-06
1.88163e-06
4.77771e-07
3.00723e-06
1.55985e-05
1.48356e-06
2.7904e-06
9.02251e-07
8.91729e-07
0.00186783
1.07717e-06
1.57474e-06
0.00684961
0.00149531
4.35233e-07
0.00103558
0.00069698
0.00283627
7.60048e-07
1.11324e-06
1.66649e-06
8.55027e-07
4.78561e-07
8.69227e-07
0.00339935
1.31334e-06
4.72467e-07
1.47851e-06
1.52498e-06
0.00281395
8.05807e-07
1.72161e-06
0.000146724
1.83904e-06
1.22778e-06
0.0118326
1.23542e-06
1.08058e-06
0.00414794
9.16794e-07
0.000167395
1.24043e-06
1.54269e-06
6.91255e-07
8.63828e-07
8.72432e-07
8.64502e-07
2.2142e-06
1.94331e-06
0.0026865
7.37453e-07
1.78387e-06
0.00373675
4.5951e-07
1.54569e-06
6.62786e-07
1.53796e-06
1.46774e-06
1.39499e-06
1.40009e-06
0.00117504
0.000147908
0.00511968
9.85296e-07
1.55861e-06
5.37825e-07
1.0698e-06
9.8782e-07
1.49406e-06
1.36899e-06
9.90196e-07
6.26372e-07
1.5293e-06
1.22982e-06
0.00386068
8.43753e-07
1.48059e-06
6.2855e-07
0.00346981
0.00216682
2.73119e-05
1.34117e-06
7.70949e-07
1.51165e-06
0.000709655
1.09879e-06
0.00447938
4.77076e-07
1.39822e-06
1.3434e-06
1.05936e-06
5.31014e-07
1.11185e-06
0.00435582
6.32355e-06
8.33718e-07
0.00168872
1.37113e-06
0.00346282
4.23935e-07
0.0205552
0.00176554
1.584e-06
6.19069e-07
1.4292e-06
0.000626581
7.95314e-07
1.59323e-06
6.55551e-07
1.31988e-06
7.19314e-07
1.54183e-06
0.00373617
5.90394e-07
6.15911e-07
1.37001e-06
1.42383e-06
0.00012383
1.071e-06
1.51793e-06
3.1556e-05
1.75259e-06
1.32323e-06
0.00107532
1.61805e-06
1.73214e-06
1.4061e-06
1.40564e-06
4.27343e-07
8.96961e-07
5.97585e-06
1.24084e-06
1.70355e-06
0.00218555
0.000827763
1.56848e-06
1.60864e-06
1.5934e-06
1.60266e-06
5.06004e-07
5.63549e-07
0.000142246
5.60077e-06
5.05458e-07
1.47271e-06
5.22104e-07
0.000140412
0.00439989
0.0161112
1.22083e-06
0.00357303
7.41954e-07
1.97789e-06
6.74066e-07
5.1368e-06
0.000657302
6.9267e-07
1.22764e-06
1.09439e-06
2.1586e-06
5.12177e-07
5.09516e-07
5.0474e-07
0.00129983
2.58409e-06
8.5342e-07
0.00149311
1.57265e-06
1.024e-06
1.62504e-06
1.57351e-06
8.83258e-07
1.69155e-06
0.00359883
1.46623e-06
1.76829e-06
1.25852e-06
6.8765e-07
4.67255e-07
0.00185574
6.62739e-07
8.88815e-07
1.06448e-06
5.09203e-07
1.35173e-06
5.20125e-07
1.23245e-06
7.54012e-06
9.54072e-07
1.29952e-06
5.64415e-07
5.41015e-07
1.69911e-06
1.28997e-06
1.15848e-06
3.4962e-06
1.36401e-06
9.53874e-07
1.3775e-06
0.00291933
2.13202e-07
9.91916e-07
0.0026219
1.65478e-06
0.00012963
1.7039e-06
4.62216e-07
1.36038e-06
1.54479e-06
1.54008e-06
1.37693e-06
0.00269914
4.85188e-07
1.62383e-06
1.57319e-06
4.84764e-07
1.25855e-06
1.53354e-06
1.09836e-06
1.3662e-06
0.00965265
4.57683e-07
2.85087e-06
1.43873e-06
7.85072e-07
8.01789e-07
8.91162e-07
0.000132338
1.32981e-06
5.16501e-07
0.00230544
0.00206334
9.39224e-07
1.62711e-06
1.00631e-06
5.50749e-07
4.61297e-07
5.16194e-07
9.48499e-07
1.01893e-06
1.23008e-06
8.94522e-07
4.45713e-07
4.73182e-07
1.77233e-06
0.00344673
0.00346148
4.75535e-07
0.00309712
9.6725e-05
7.90022e-07
0.00401301
4.19467e-07
1.9379e-06
0.00204765
0.00242897
1.33251e-06
0.00318077
0.00185225
6.02789e-06
0.00420293
1.97101e-07
1.58217e-06
8.32381e-07
1.08142e-06
6.17469e-07
0.00404014
0.00364794
1.24339e-06
4.93938e-07
0.00435118
0.0210549
5.65585e-07
1.47254e-06
1.32798e-06
1.46192e-06
1.44388e-06
0.000206542
9.10003e-05
2.29713e-06
1.67666e-06
0.00197673
1.47791e-06
0.00242964
1.8745e-06
5.11658e-05
1.64134e-06
3.17851e-06
1.52242e-06
0.00220036
1.54101e-06
8.80988e-07
9.28716e-07
4.63133e-07
4.3837e-06
9.07702e-07
1.42465e-06
1.46024e-06
1.53519e-06
1.20806e-06
1.5002e-06
8.00273e-07
1.32158e-06
9.04367e-06
3.96352e-07
0.00954336
5.32518e-07
1.37952e-06
1.47501e-06
1.43388e-06
9.95907e-07
7.49206e-07
3.18109e-06
6.76322e-07
1.50731e-06
1.20784e-06
7.42056e-07
0.00293335
1.33622e-06
1.20525e-06
4.64596e-07
1.369e-06
1.3814e-06
1.06222e-06
1.43141e-06
5.492e-07
1.44597e-06
1.50266e-06
1.50581e-06
0.000160285
0.00459628
1.35436e-06
0.00159046
2.1926e-07
1.24621e-06
2.30433e-06
0.000331192
1.20497e-06
0.000794881
5.1605e-07
0.000211361
1.47699e-06
0.000663166
5.16105e-07
1.00251e-06
0.00170497
8.70862e-07
6.57396e-05
4.32523e-07
1.06105e-06
1.61931e-06
1.43879e-06
1.10856e-06
0.00202488
1.49003e-06
1.76588e-06
0.00224196
8.57997e-07
1.14638e-06
1.43975e-06
2.50547e-07
1.23768e-06
1.79787e-06
1.66418e-06
1.75291e-06
1.26498e-06
6.01974e-07
0.0201996
1.26566e-06
0.00113559
5.93895e-06
5.11066e-07
1.42648e-06
1.77606e-06
1.54621e-06
1.28955e-06
2.46336e-06
2.70288e-06
4.191e-07
1.26154e-06
0.000183783
1.64184e-06
1.39694e-06
5.30125e-07
4.33225e-07
1.58554e-06
4.68778e-07
0.000735544
1.1171e-06
0.00829304
1.3819e-06
1.2012e-06
0.00392842
9.81175e-07
0.00235916
1.61336e-06
0.00175926
1.0906e-06
0.0200403
1.49817e-06
1.27132e-06
0.00256871
1.31593e-06
0.00260335
1.24687e-06
1.96069e-06
0.00322478
1.22675e-06
1.19138e-06
5.54314e-05
1.5955e-06
4.25818e-07
1.63008e-06
0.00195945
0.00140418
0.00189268
8.01106e-07
2.07305e-06
1.57436e-06
1.16697e-06
1.39578e-06
1.46382e-06
1.05423e-06
1.3434e-06
0.00176026
1.31972e-06
1.48212e-06
0.00154283
0.00362338
6.8034e-07
1.44411e-06
1.55471e-06
3.50105e-06
0.00255427
1.43598e-06
0.00499615
0.010332
1.43902e-06
1.47543e-06
8.85033e-07
1.60031e-06
5.16945e-07
0.00329147
1.15421e-06
1.96899e-06
1.80627e-06
1.80337e-06
1.36831e-06
1.374e-06
1.50777e-06
1.4337e-06
0.00143048
0.000519419
1.02864e-06
5.09326e-07
0.00441663
4.23686e-07
7.9929e-07
1.44202e-06
1.2702e-06
0.00216296
1.23147e-06
0.0021216
5.00559e-07
1.27782e-06
5.70564e-05
1.11146e-06
1.38894e-06
1.44129e-06
1.43316e-06
1.56519e-06
9.37576e-07
0.00313539
0.00550502
1.41106e-06
1.94649e-06
0.00310741
2.02467e-07
1.5626e-06
1.65107e-06
0.00171815
1.74502e-06
0.00315128
1.28688e-06
1.30765e-06
1.50066e-06
1.10031e-06
0.00352817
0.00235113
1.56408e-06
0.00190075
9.06687e-08
0.0017137
0.00104063
1.02654e-06
4.42492e-07
1.42786e-06
4.24056e-07
1.02452e-06
1.02728e-06
1.55234e-06
0.0023049
0.00338779
1.44717e-06
2.20474e-06
1.37656e-06
0.0022005
1.85259e-06
0.00275359
1.27967e-06
1.65317e-06
9.88364e-07
0.00112229
3.55596e-06
1.55835e-06
4.41809e-07
5.62622e-07
0.000121699
1.92428e-06
0.00310062
1.41926e-06
0.000191096
1.52072e-06
5.6558e-07
1.59898e-06
1.16286e-06
1.15817e-06
0.00136492
5.1228e-07
1.10776e-06
0.00773977
0.00404024
1.49601e-06
9.81507e-07
1.54944e-06
0.00104482
1.63918e-06
1.59214e-06
0.000190313
1.29997e-06
0.00176763
2.5442e-06
0.00214788
0.00176031
0.00426513
1.01934e-06
1.07622e-05
1.1575e-06
0.00306532
1.76212e-06
3.56456e-06
0.00296794
0.000132077
1.97701e-06
0.00326334
0.00333593
1.94391e-06
0.00331651
1.43709e-06
1.29054e-06
1.03526e-05
1.78806e-06
1.74182e-06
1.53825e-06
1.25858e-06
1.14882e-06
1.59935e-06
5.09173e-07
0.0030795
5.72019e-05
5.7806e-07
1.74628e-06
5.52673e-07
9.02973e-07
1.19453e-06
1.45669e-06
1.4469e-06
1.45932e-06
8.99924e-07
5.59102e-07
2.15074e-06
9.61291e-07
1.08632e-06
1.56797e-06
1.75196e-06
0.000139055
1.90389e-06
0.00299192
9.40908e-07
0.00327018
0.00132543
1.62765e-06
0.00056411
2.91143e-06
2.39698e-05
1.15736e-06
0.00391708
1.33315e-06
2.08742e-06
0.00298145
1.09976e-06
5.62436e-07
0.000180381
1.14352e-06
0.00117125
1.54526e-06
1.31531e-06
2.31444e-06
9.00552e-07
2.5913e-05
1.28337e-06
1.75134e-06
0.00674621
1.4675e-06
0.00309634
1.86651e-06
0.00380385
2.1277e-06
7.9603e-05
2.01506e-06
1.04462e-06
5.4632e-07
8.84031e-07
1.47003e-06
1.30062e-06
1.78264e-06
1.20315e-06
0.00415542
1.67879e-06
1.5961e-06
8.52375e-07
1.4958e-06
1.53153e-06
9.78237e-07
0.000251166
3.03585e-06
1.39376e-06
1.99679e-06
0.00159675
1.55855e-06
1.43853e-06
2.04779e-06
0.00320609
0.0186724
0.000356262
7.74859e-07
1.44137e-06
1.58352e-06
0.00341978
1.1658e-06
0.0029474
7.95548e-07
1.81074e-06
1.43438e-06
1.52278e-06
9.67508e-07
1.61712e-06
2.19485e-06
1.26495e-06
1.0278e-06
9.41834e-07
2.0913e-06
0.000724748
1.92757e-06
8.44097e-07
0.00320101
2.34342e-06
8.16367e-07
4.98142e-07
1.99985e-06
0.00528446
0.00111746
1.31943e-06
0.021128
2.72006e-06
2.51106e-06
4.77775e-07
1.38958e-06
1.90037e-06
1.5037e-06
1.28963e-06
4.81946e-06
0.000745089
9.87563e-07
1.14304e-06
3.73921e-06
0.00130028
2.17424e-06
0.00543194
9.32928e-07
1.02255e-06
1.56683e-06
6.84993e-07
5.26345e-07
1.40971e-06
0.00319831
7.06813e-07
0.000338881
1.16172e-06
9.74349e-07
1.37406e-06
1.55576e-06
0.00314142
1.9506e-06
0.00986643
0.00430749
1.6009e-06
1.6891e-06
0.000839043
0.00190602
4.36882e-07
3.50127e-06
1.59767e-06
0.00468275
0.00158863
2.08379e-06
1.44549e-06
0.00208098
0.00116057
0.0195415
7.13302e-07
1.45917e-06
2.33564e-06
0.00166709
1.61613e-06
6.31851e-07
0.00361917
1.9534e-06
0.00316675
1.30074e-06
2.50958e-06
8.60525e-07
9.94138e-06
1.1812e-06
7.73283e-06
0.00305442
0.0032913
1.50007e-06
4.46286e-06
1.25049e-06
1.5109e-06
1.46344e-06
1.46581e-06
1.37403e-06
2.032e-06
2.22424e-06
2.11091e-06
2.35978e-06
2.51847e-06
2.76172e-06
1.60227e-06
2.10329e-06
5.66004e-05
1.89194e-06
0.00377768
2.51687e-05
1.50351e-06
9.15342e-07
1.57055e-06
1.46224e-06
1.31182e-06
0.0019631
0.00255233
2.06801e-06
4.2308e-07
0.00314658
2.09447e-06
1.85252e-06
5.10516e-05
0.00181968
2.30852e-06
0.00317008
1.15874e-06
1.49168e-06
1.4395e-06
1.46815e-06
0.000216642
1.62633e-06
7.60512e-07
1.67585e-06
1.49347e-06
2.39166e-06
1.2287e-06
0.00105064
0.0031517
0.00358495
1.38189e-06
1.56978e-06
0.000867187
1.49601e-06