/*--------------------------------*- C++ -*----------------------------------*\
| =========                 |                                                 |
| \\      /  F ield         | OpenFOAM: The Open Source CFD Toolbox           |
|  \\    /   O peration     | Version:  v2012                                 |
|   \\  /    A nd           | Website:  www.openfoam.com                      |
|    \\/     M anipulation  |                                                 |
\*---------------------------------------------------------------------------*/
FoamFile
{
    version     2.0;
    format      ascii;
    class       volScalarField;
    location    "400";
    object      k;
}
// * * * * * * * * * * * * * * * * * * * * * * * * * * * * * * * * * * * * * //

dimensions      [0 2 -2 0 0 0 0];


internalField   nonuniform List<scalar> 
14033
(
0.000440334
0.0230517
5.55704e-05
7.18261e-05
4.45456e-05
8.21221e-05
0.00616438
7.74543e-05
7.1701e-05
0.0155127
4.84227e-05
9.65714e-05
8.12132e-05
8.11355e-05
4.43827e-05
9.06107e-05
8.64709e-05
0.035454
7.60477e-05
8.89136e-05
8.98735e-05
9.66234e-05
0.000104819
4.44636e-05
4.82228e-05
7.58204e-05
0.000117798
0.000117212
0.000472389
0.000188817
8.62869e-05
7.68397e-05
0.000138689
9.00149e-05
0.00245232
6.59687e-05
0.0135956
0.0177753
4.54939e-05
8.41462e-05
0.0134957
8.99739e-05
5.57079e-05
4.91469e-05
5.84611e-05
5.55361e-05
0.0167317
8.17791e-05
0.000126764
0.0114984
8.26061e-05
6.75726e-05
0.015612
0.0114824
8.66466e-05
8.14664e-05
0.000594208
0.0267527
9.05464e-05
8.61171e-05
4.88883e-05
0.011967
9.40357e-05
5.60364e-05
6.10335e-05
5.51843e-05
0.000597124
0.000110184
5.36695e-05
8.38227e-05
6.33591e-05
8.67008e-05
0.0164258
8.9108e-05
9.14427e-05
5.35165e-05
8.51239e-05
8.39438e-05
0.0318836
0.000170621
5.53785e-05
0.0322986
0.0155123
7.08741e-05
5.27785e-05
8.63451e-05
7.66387e-05
0.0121499
0.0185087
8.91039e-05
7.87543e-05
5.55135e-05
7.179e-05
0.00697444
5.27166e-05
0.000112715
8.2793e-05
5.73154e-05
0.0143698
7.26536e-05
5.53507e-05
8.16007e-05
5.25861e-05
6.90552e-05
0.0170125
0.000123999
0.0186472
7.09329e-05
0.000108392
6.32928e-05
0.016156
7.37886e-05
5.33026e-05
2.6841e-05
8.31492e-05
8.54283e-05
0.000234368
4.48416e-05
0.00549077
0.000138206
7.75153e-05
9.32152e-05
0.00984913
7.70268e-05
0.00700108
7.15048e-05
5.54535e-05
4.29512e-05
0.0132583
8.29534e-05
0.0162096
5.42415e-05
4.44854e-05
0.0140174
0.0163977
8.39443e-05
0.00012144
6.21348e-05
8.3144e-05
7.14149e-05
8.7114e-05
0.00493582
9.95612e-05
9.04357e-05
0.000335819
5.88012e-05
7.74077e-05
9.44828e-05
0.0132104
0.00553618
0.000150694
8.69536e-05
6.36554e-05
7.69714e-05
8.128e-05
0.0128025
6.89292e-05
6.056e-05
6.89363e-05
4.44151e-05
7.97707e-05
0.000118268
0.0130493
6.47589e-05
8.92878e-05
7.95597e-05
8.65282e-05
9.22488e-05
0.0407729
7.79893e-05
9.06163e-05
0.000121663
9.65031e-05
0.00793612
5.3335e-05
7.81285e-05
0.000138364
0.00962702
9.61049e-05
9.05142e-05
0.00026509
0.00908669
8.63055e-05
5.76106e-05
6.37685e-05
0.0180406
0.0145131
8.39221e-05
0.0418829
0.0174424
0.00204712
8.62651e-05
7.63474e-05
8.41173e-05
0.00653648
0.0115211
9.35871e-05
0.012797
7.13072e-05
6.38944e-05
7.47929e-05
8.62453e-05
6.12458e-05
0.000211212
8.6717e-05
6.14881e-05
9.29383e-05
0.000754481
9.01596e-05
0.00023011
0.0114831
0.000569806
0.00256963
0.00566693
4.56022e-05
7.95538e-05
6.8192e-05
0.00114603
6.81453e-05
9.40086e-05
9.01745e-05
5.82741e-05
5.82339e-05
7.68235e-05
8.25121e-05
5.12014e-05
0.000102398
8.64539e-05
7.12021e-05
4.9442e-05
5.52836e-05
0.00012156
8.64335e-05
4.48151e-05
0.00150099
0.0144796
0.000127066
4.97899e-05
7.02763e-05
6.62938e-05
0.0115266
8.40307e-05
7.38998e-05
5.4188e-05
8.64604e-05
4.96474e-05
0.0210513
0.00756927
7.6135e-05
5.475e-05
8.18419e-05
0.0102653
4.91034e-05
0.00323188
7.07876e-05
0.0156352
6.59862e-05
7.77419e-05
4.87492e-05
0.000960517
4.62366e-05
0.0262808
0.000162519
9.43606e-05
8.69887e-05
0.000846993
8.61946e-05
0.00016622
0.000676475
0.0132871
8.90331e-05
0.0142705
4.8945e-05
9.0698e-05
0.00245912
7.01286e-05
5.55862e-05
0.000117199
7.58855e-05
0.00288586
0.000130823
6.5212e-05
0.000112181
9.08035e-05
0.0408896
0.0070119
0.0166789
4.88591e-05
0.0308853
0.00232494
7.16916e-05
9.57724e-05
9.81268e-05
0.00138546
7.84806e-05
5.41144e-05
5.80662e-05
7.06602e-05
5.40433e-05
7.43349e-05
5.79899e-05
0.00245399
0.0158655
8.8563e-05
9.34684e-05
0.000415774
8.69314e-05
5.76222e-05
0.0210473
8.55137e-05
0.000115046
6.58611e-05
0.000125359
0.00010004
0.000537717
0.000352798
8.00497e-05
8.64501e-05
8.17321e-05
0.00940609
0.0235396
0.000117452
8.53354e-05
4.95883e-05
0.000147174
0.013298
8.86626e-05
5.19357e-05
0.0177341
9.43392e-05
8.20149e-05
0.0290474
0.0154104
8.92882e-05
4.62643e-05
0.0136308
0.000122517
7.41345e-05
0.0145723
8.75788e-05
0.0113295
0.00010213
6.55824e-05
8.74094e-05
3.36294e-05
4.95503e-05
9.29102e-05
8.11461e-05
0.0126181
0.00604937
5.77946e-05
8.15915e-05
0.0183232
9.50399e-05
7.44711e-05
4.55255e-05
8.716e-05
0.0135939
5.06207e-05
6.91676e-05
7.46775e-05
0.000140691
0.0108736
7.6149e-05
8.68345e-05
9.32899e-05
0.000139808
4.46939e-05
8.50919e-05
5.44881e-05
5.35422e-05
5.44239e-05
8.16733e-05
8.28207e-05
0.000114734
0.0285393
8.56351e-05
9.07123e-05
0.00781996
4.82243e-05
4.96527e-05
9.9e-05
7.79671e-05
2.63058e-05
0.0135876
7.65158e-05
0.016459
4.98588e-05
9.0741e-05
0.000103961
5.78329e-05
0.0108317
8.99575e-05
7.93121e-05
0.000168182
0.0286629
0.00034673
0.00922939
0.000113114
8.59215e-05
0.000252498
7.76887e-05
5.49586e-05
4.71496e-05
8.79306e-05
8.24078e-05
8.62217e-05
4.5361e-05
7.81938e-05
0.00851394
0.0135164
0.000232492
6.13229e-05
0.0259356
5.12219e-05
8.04483e-05
5.03008e-05
8.76239e-05
7.84492e-05
0.00985702
8.7559e-05
4.9758e-05
9.22231e-05
8.73372e-05
7.40734e-05
8.59463e-05
8.66525e-05
4.45034e-05
9.0831e-05
7.68325e-05
7.63271e-05
8.41908e-05
8.59415e-05
8.04631e-05
5.10952e-05
7.42916e-05
8.45231e-05
8.09796e-05
0.00013979
0.00652057
0.00108529
5.00334e-05
8.13815e-05
5.64087e-05
7.63254e-05
6.43323e-05
9.28762e-05
0.0116888
0.0068002
7.20066e-05
0.0215062
5.11618e-05
6.40374e-05
8.02118e-05
8.05911e-05
0.00137753
4.28481e-05
7.64115e-05
4.41981e-05
9.03454e-05
8.40272e-05
0.0160621
0.00189186
0.000266485
4.81996e-05
7.64328e-05
0.00621764
7.02247e-05
4.91812e-05
0.00231694
8.45743e-05
9.09457e-05
6.74935e-05
8.85876e-05
4.73241e-05
0.00936998
7.56775e-05
0.000201959
7.9089e-05
0.00588648
6.63011e-05
0.0203409
8.86281e-05
0.0123317
0.0177427
5.61151e-05
0.0233899
6.145e-05
0.000106931
6.4616e-05
8.68983e-05
0.0285
0.0260187
9.60952e-05
6.75017e-05
8.58013e-05
0.000121952
0.0129257
8.62914e-05
0.000138563
8.74862e-05
7.56652e-05
0.00154411
0.00220674
0.000109699
5.56115e-05
7.21908e-05
0.00959581
7.64823e-05
0.000108559
5.04595e-05
6.95143e-05
0.0207017
4.96442e-05
7.59215e-05
8.40885e-05
9.51929e-05
5.30133e-05
0.0138829
0.00605422
5.51262e-05
7.57749e-05
5.5099e-05
7.7485e-05
7.02263e-05
8.50174e-05
8.33161e-05
8.79641e-05
8.67333e-05
7.88272e-05
8.60721e-05
7.63958e-05
0.0132444
6.94899e-05
6.47346e-05
7.81716e-05
6.65072e-05
7.98128e-05
7.91183e-05
0.000140958
9.77489e-05
0.00237614
4.63435e-05
7.02966e-05
9.81784e-05
8.71428e-05
7.72374e-05
5.46535e-05
0.00336379
8.20464e-05
4.72516e-05
0.0140187
4.46123e-05
5.4699e-05
7.58477e-05
0.000126465
6.93042e-05
8.60926e-05
9.20497e-05
0.0139323
8.82432e-05
0.0180422
8.95719e-05
9.02745e-05
8.93301e-05
9.01359e-05
0.000246115
8.41316e-05
8.69652e-05
7.18517e-05
0.00557615
0.0161111
0.00684705
7.97153e-05
0.031124
7.30118e-05
0.0401471
0.0154813
9.04931e-05
0.0140794
8.93666e-05
8.33327e-05
5.42211e-05
5.48481e-05
5.37643e-05
0.000182706
8.22954e-05
0.000123155
5.37449e-05
7.54736e-05
0.0211504
8.98807e-05
5.74555e-05
0.00010844
7.8596e-05
7.27159e-05
4.47801e-05
0.0151969
5.92734e-05
8.3103e-05
8.2981e-05
5.42759e-05
8.18006e-05
0.0132558
9.04053e-05
0.0119715
0.0141803
0.0147642
0.000104246
3.71552e-05
7.52665e-05
7.58318e-05
8.2439e-05
6.67219e-05
0.0137234
5.52863e-05
4.73061e-05
7.58378e-05
0.0121954
0.0091554
0.00949848
7.09242e-05
7.70304e-05
9.04107e-05
5.05633e-05
9.20658e-05
3.65318e-05
9.51621e-05
9.75828e-05
9.3933e-05
5.00797e-05
5.40305e-05
5.02904e-05
0.000166712
8.35709e-05
0.00648675
4.59634e-05
8.31204e-05
0.000119148
5.36158e-05
0.000107458
8.07014e-05
4.95231e-05
0.00830726
0.000124736
0.0163726
0.000105444
7.31428e-05
6.50826e-05
5.54661e-05
9.12235e-05
9.36965e-05
8.8757e-05
7.57166e-05
8.19916e-05
5.54662e-05
5.21017e-05
7.94108e-05
0.0164433
5.48712e-05
4.54904e-05
5.28475e-05
0.00484619
0.0128363
8.92935e-05
0.00614224
4.25007e-05
0.00187546
4.73165e-05
5.28906e-05
4.57155e-05
0.0372186
0.000289928
8.33734e-05
7.44689e-05
8.28806e-05
7.32333e-05
0.00143468
9.22356e-05
8.91083e-05
0.00607094
8.8437e-05
4.44865e-05
0.00016207
0.00251257
4.98969e-05
8.90468e-05
0.0139456
0.000122453
5.49222e-05
0.0212585
8.65092e-05
0.0133285
9.03582e-05
7.71215e-05
0.0128074
0.00911935
0.000279673
6.0945e-05
5.35868e-05
0.0282763
8.89525e-05
0.000102616
8.46148e-05
8.94061e-05
8.13389e-05
8.25251e-05
0.0119819
8.27044e-05
8.1579e-05
0.00244693
8.20333e-05
6.69209e-05
6.03448e-05
0.00532794
8.7746e-05
8.52442e-05
7.97906e-05
6.3698e-05
8.98579e-05
5.51378e-05
0.000158596
9.3737e-05
6.04376e-05
0.0137441
6.19763e-05
0.000139894
9.25079e-05
5.06369e-05
8.4442e-05
7.14197e-05
0.000184521
5.12341e-05
8.76786e-05
9.02571e-05
8.63608e-05
0.0119503
7.6949e-05
0.0123667
9.34764e-05
0.0143462
8.79719e-05
5.47651e-05
0.0144097
0.00962989
7.7597e-05
5.45163e-05
5.22864e-05
0.010804
0.00536956
9.5657e-05
5.2153e-05
7.69765e-05
8.35072e-05
9.42919e-05
0.0088686
5.50505e-05
8.3762e-05
0.0207431
0.0141528
5.52384e-05
0.000247295
0.000119246
8.3472e-05
5.19882e-05
8.82868e-05
0.014923
7.21751e-05
8.44795e-05
9.87397e-05
7.15549e-05
4.46695e-05
8.60811e-05
0.00031045
7.79695e-05
8.91888e-05
0.00043768
0.000461201
4.18578e-05
7.47792e-05
8.95986e-05
8.55478e-05
0.00893368
7.19182e-05
7.29951e-05
5.44638e-05
0.0144907
5.83277e-05
7.55805e-05
7.9822e-05
0.014021
0.000241788
5.31884e-05
0.000170767
0.0144088
7.99605e-05
0.000130986
0.0415227
0.000151918
0.000336103
0.000102051
0.00981015
9.03288e-05
0.00024323
0.00012546
0.0131167
7.87408e-05
0.0122667
8.26559e-05
8.33521e-05
8.56371e-05
7.84393e-05
7.61339e-05
9.73599e-05
8.19374e-05
5.06694e-05
7.86142e-05
9.81753e-05
0.0105891
0.000104966
6.13102e-05
5.58552e-05
5.98533e-05
8.42692e-05
4.56312e-05
8.72933e-05
8.94861e-05
5.53447e-05
8.46535e-05
0.000211673
5.27244e-05
8.74439e-05
0.0315503
6.59031e-05
5.54462e-05
0.000100668
0.00799429
4.74092e-05
0.0139236
4.56307e-05
7.62851e-05
4.50889e-05
7.25194e-05
0.0143812
9.77581e-05
8.93502e-05
8.60896e-05
5.90085e-05
7.59265e-05
5.28684e-05
8.54416e-05
6.14551e-05
7.63207e-05
0.00924384
4.58247e-05
7.97647e-05
8.11565e-05
8.19828e-05
5.06882e-05
0.000108227
7.84015e-05
0.000405189
9.01041e-05
0.000105237
7.80082e-05
0.00434837
8.02754e-05
0.000108914
8.51078e-05
0.0139723
8.62391e-05
5.56633e-05
8.75108e-05
0.0131994
8.98061e-05
8.7751e-05
0.000192774
0.0140684
0.0133078
0.000245554
7.84227e-05
9.0097e-05
0.0145327
9.41423e-05
9.07993e-05
0.00870072
8.37572e-05
4.5252e-05
5.31793e-05
8.95715e-05
8.3099e-05
8.9494e-05
8.36674e-05
8.12358e-05
9.09057e-05
8.12623e-05
7.67818e-05
8.38746e-05
0.0144208
4.79865e-05
7.25435e-05
0.020416
0.0116774
4.57253e-05
8.63706e-05
4.45807e-05
0.0133283
0.0192111
8.42794e-05
8.79068e-05
8.12867e-05
5.33945e-05
0.00169162
8.34093e-05
8.5517e-05
8.95675e-05
4.83028e-05
6.71879e-05
0.0145787
7.83169e-05
5.18754e-05
0.00265972
8.87076e-05
8.59437e-05
0.00407653
0.000184761
9.39928e-05
4.69868e-05
4.2692e-05
8.8897e-05
6.85447e-05
8.54038e-05
0.0216104
7.24321e-05
0.000155068
6.60924e-05
4.7239e-05
5.18683e-05
4.46734e-05
6.65576e-05
0.000127877
0.00011218
0.0113133
9.03494e-05
8.63209e-05
0.0044966
5.60524e-05
8.3358e-05
0.000114689
8.36766e-05
0.00189544
9.29963e-05
6.08657e-05
8.39518e-05
4.49382e-05
0.00847365
7.76318e-05
5.08821e-05
0.0138677
6.05468e-05
0.0104464
5.20724e-05
7.20591e-05
7.0561e-05
4.85596e-05
0.0203005
0.0133906
8.56556e-05
6.63995e-05
0.000107177
6.51062e-05
4.84499e-05
6.23709e-05
5.20795e-05
7.23806e-05
0.0141006
0.00864613
8.16885e-05
0.0387596
0.00660811
8.64065e-05
9.05985e-05
5.54339e-05
7.93176e-05
8.8239e-05
8.5888e-05
9.5219e-05
8.80762e-05
8.2825e-05
0.0054348
7.56033e-05
6.58794e-05
6.6546e-05
6.5674e-05
3.40485e-05
7.61298e-05
0.000102125
0.00975118
7.46081e-05
4.94402e-05
6.21866e-05
7.13214e-05
7.88176e-05
5.00296e-05
8.22044e-05
0.0128067
0.00712405
6.99215e-05
4.60124e-05
0.000179296
0.000174795
0.0001864
9.73789e-05
8.31544e-05
6.05343e-05
8.89033e-05
4.98328e-05
8.04076e-05
0.0256088
6.21016e-05
8.94386e-05
0.000117685
0.000111847
0.0188221
0.0156883
8.50729e-05
4.73783e-05
9.05992e-05
8.62605e-05
0.000502471
0.000189147
6.67554e-05
0.000138233
7.26565e-05
6.06586e-05
0.00742035
0.0125801
5.16803e-05
8.79862e-05
8.65839e-05
0.00011025
5.59507e-05
8.5611e-05
4.74053e-05
8.5545e-05
0.000220245
9.12571e-05
0.0071682
9.09131e-05
7.09177e-05
5.52918e-05
7.83431e-05
0.0107799
0.000220764
8.97091e-05
0.000122583
0.000162351
0.000308857
9.09026e-05
0.000435723
0.00010128
7.58955e-05
8.22925e-05
8.18854e-05
8.53845e-05
5.80226e-05
4.79453e-05
8.13047e-05
0.00956012
0.0174954
0.0137807
8.13601e-05
6.54187e-05
0.040773
9.02068e-05
8.59914e-05
8.64914e-05
8.37748e-05
8.55009e-05
9.08439e-05
0.000100493
7.98465e-05
0.000102207
0.0143309
9.08084e-05
8.06053e-05
8.49255e-05
8.06815e-05
0.000112507
8.69242e-05
7.65521e-05
6.77858e-05
9.05732e-05
0.000107312
8.08508e-05
4.27485e-05
5.10632e-05
7.60212e-05
0.0151193
8.33812e-05
7.44093e-05
4.49553e-05
0.0110034
5.76823e-05
0.00012617
0.0143836
8.00759e-05
7.95412e-05
7.44278e-05
0.000107552
4.84725e-05
0.00323871
9.2229e-05
0.000114577
9.04975e-05
0.000572974
0.000111562
0.0035186
8.8799e-05
7.58317e-05
8.65733e-05
0.00592559
1.22642e-05
8.38009e-05
7.13982e-05
4.62344e-05
4.45423e-05
0.0022971
5.35743e-05
0.0149299
0.000130244
5.28535e-05
0.0142662
5.76359e-05
7.42028e-05
0.0163249
8.18581e-05
5.29541e-05
8.62908e-05
0.0144673
7.36876e-05
5.45061e-05
0.00808912
5.2876e-05
0.00011828
2.26245e-05
0.0124013
8.98048e-05
8.56933e-05
5.93611e-05
9.02306e-05
4.76702e-05
4.48704e-05
0.00965087
5.91934e-05
5.46132e-05
2.87635e-05
7.2511e-05
0.0103177
4.49909e-05
7.27343e-05
5.05863e-05
7.44777e-05
7.9009e-05
0.0143714
4.65642e-05
5.09121e-05
6.37763e-05
0.0112377
0.0055841
5.5938e-05
9.03894e-05
6.36626e-05
0.00321093
9.08734e-05
5.76985e-05
4.49997e-05
0.00124232
0.0107556
0.000117071
8.85211e-05
9.19592e-05
9.33141e-05
6.50563e-05
6.52105e-05
5.07347e-05
0.000288015
6.06947e-05
9.40981e-05
0.000357242
9.11459e-05
6.25524e-05
8.56449e-05
9.55338e-05
5.05211e-05
6.78009e-05
7.5531e-05
0.00715007
6.38454e-05
5.98412e-05
0.0199118
7.87541e-05
0.000609163
4.93921e-05
0.0175226
4.47603e-05
0.0142849
0.000227217
6.08367e-05
7.60492e-05
0.0150091
6.4797e-05
0.00323601
6.68e-05
6.82925e-05
0.0195567
5.75222e-05
5.04919e-05
7.57159e-05
9.81334e-05
0.00084693
7.5624e-05
0.00509698
8.3019e-05
8.52818e-05
9.05109e-05
0.010291
0.0105748
0.0113961
0.00916805
8.08334e-05
0.039636
7.73955e-05
6.541e-05
5.47392e-05
3.30717e-05
7.20222e-05
8.46546e-05
8.64543e-05
0.0282141
8.49343e-05
6.27866e-05
5.09108e-05
8.29019e-05
8.66353e-05
6.77375e-05
4.66661e-05
5.05593e-05
5.89818e-05
9.18615e-05
6.29709e-05
0.0144303
5.75782e-05
8.01828e-05
3.34678e-05
8.51352e-05
8.78595e-05
5.88669e-05
8.62937e-05
0.01471
5.15431e-05
0.0103819
0.0110538
8.61309e-05
7.95315e-05
5.96482e-05
8.10169e-05
0.0179881
0.0151478
6.68138e-05
0.000818046
9.05167e-05
9.03039e-05
0.0189377
8.25634e-05
7.64391e-05
9.91984e-05
6.47393e-05
0.0132776
0.00128352
8.33666e-05
8.79735e-05
4.93684e-05
5.13589e-05
5.88883e-05
9.63966e-05
0.0282828
5.81963e-05
8.00991e-05
0.00646107
5.87992e-05
9.35172e-05
0.000129293
8.80321e-05
0.000262153
5.23103e-05
0.0128035
8.02528e-05
0.00024154
0.0143747
0.0141015
0.000134267
8.26764e-05
0.00896969
6.47988e-05
1.70486e-05
0.000538835
9.32462e-05
0.026596
6.00472e-05
0.030784
6.56044e-05
7.85228e-05
0.000171472
9.80213e-05
9.58293e-05
0.000301806
4.70696e-05
5.81401e-05
4.45289e-05
0.00387553
5.5835e-05
8.95598e-05
5.9261e-05
4.69551e-05
0.00903649
0.00013013
8.83089e-05
8.9834e-05
8.601e-05
5.44801e-05
5.18207e-05
7.87914e-05
9.24604e-05
0.00013014
5.52005e-05
8.33693e-05
0.0076444
5.73991e-05
0.0119809
0.015304
8.07391e-05
0.0142119
8.35789e-05
2.97883e-05
5.53475e-05
4.64777e-05
8.23655e-05
0.0212915
5.29281e-05
5.42141e-05
8.76411e-05
0.00402722
8.86364e-05
0.0161554
9.2671e-06
0.000106774
0.000102613
9.33088e-05
8.63982e-05
2.02104e-05
0.00446819
8.89937e-05
0.0190478
4.74797e-05
7.41548e-05
0.0402906
0.00984827
9.11667e-05
0.000104015
4.53792e-05
8.82325e-05
5.21342e-05
9.26116e-05
4.59795e-05
5.08489e-05
0.0128477
8.24933e-05
7.81022e-05
6.6371e-05
8.04858e-05
8.2661e-05
1.94277e-05
0.0142901
0.0139271
0.00203453
9.23892e-05
8.90329e-05
7.58295e-05
6.16459e-05
0.000317761
5.11964e-05
8.67068e-05
6.53866e-05
5.98959e-05
5.85287e-05
8.23229e-05
8.39974e-05
8.87504e-05
4.8733e-05
0.000105175
8.79713e-05
0.00983075
9.0777e-05
0.0125875
0.000122936
0.00152522
0.000100115
0.00898109
4.73009e-05
0.00396929
9.21146e-05
0.000188509
5.23415e-05
8.06153e-05
5.85156e-05
5.15065e-05
7.38267e-05
4.85421e-05
0.0214974
4.96909e-05
0.0209315
0.0143053
0.000116927
9.18524e-05
0.0105024
6.83899e-05
0.000478113
0.000101928
0.000315501
6.54429e-05
8.55783e-05
7.51218e-05
0.000134788
5.98925e-05
0.000165472
5.36693e-05
0.00209422
5.25108e-05
0.00166128
0.0194913
8.75485e-05
0.000124121
0.0147232
8.92707e-05
0.0411969
9.85389e-05
8.64473e-05
8.23321e-05
8.31478e-05
4.44942e-05
0.0190546
0.0142258
4.89625e-05
0.0117479
8.78551e-05
7.46139e-05
6.46664e-05
8.11025e-05
0.000102082
8.34113e-05
0.0170186
8.27037e-05
8.78285e-05
6.56198e-05
6.99468e-05
9.66477e-05
0.0148059
0.0113068
8.36695e-05
6.13088e-05
0.0139882
0.00038457
8.71456e-05
0.0190247
9.20102e-05
0.0134512
0.00328787
9.66839e-05
0.00692238
5.01876e-05
7.86272e-05
8.51195e-05
8.44707e-05
0.0151178
0.0123727
8.81902e-05
0.0114737
5.05493e-05
8.11508e-05
0.00633521
6.96231e-05
9.05835e-05
8.35786e-05
0.0124896
0.00112195
8.98464e-05
8.645e-05
0.0132056
0.0234274
8.86457e-05
0.000102484
6.1527e-05
5.59492e-05
9.55099e-05
8.77183e-05
8.08261e-05
0.000141708
8.78364e-05
0.000130022
7.87861e-05
8.47596e-05
0.000131339
8.2131e-05
8.83995e-05
0.0426311
7.38178e-05
0.000135374
7.00477e-05
6.87422e-05
0.00014003
8.07236e-05
8.68957e-05
4.48772e-05
8.76089e-05
8.86002e-05
8.01571e-05
4.9277e-05
5.38703e-05
7.23505e-05
6.88495e-05
0.0110686
5.0103e-05
8.93265e-05
9.67242e-05
5.00528e-05
4.52443e-05
0.000136629
8.88373e-05
0.00131111
9.0226e-05
9.98851e-05
8.57155e-05
0.0104496
0.0110052
5.04909e-05
0.0124633
8.3514e-05
8.64319e-05
0.0207706
6.99769e-05
0.00172344
0.000179019
7.43553e-05
0.000318352
9.35216e-05
7.49109e-05
6.16658e-05
4.71919e-05
5.77272e-05
8.91261e-05
7.02133e-05
0.000162326
7.86845e-05
0.0161386
8.17215e-05
0.00687928
0.00013252
7.24723e-05
8.70223e-05
0.00141838
4.73709e-05
0.0124761
0.0252483
7.89659e-05
0.0174672
6.94727e-05
0.0200553
0.0138226
9.45544e-05
7.52984e-05
8.41225e-05
4.50645e-05
8.01129e-05
0.0108066
8.57998e-05
6.47717e-05
0.000319313
7.82628e-05
5.74563e-05
0.018213
5.39124e-05
5.19157e-05
7.20246e-05
7.80601e-05
8.65537e-05
8.39616e-05
8.71032e-05
0.00717896
7.75095e-05
0.0160643
0.0106912
7.18414e-05
0.00313297
8.61498e-05
0.000196672
0.0107805
6.8666e-05
8.77892e-05
0.0125479
0.0161841
0.0171
0.019984
4.88015e-05
4.59213e-05
7.68209e-05
0.000109564
7.78788e-05
0.000168853
8.03527e-05
8.50048e-05
4.89354e-05
0.0164791
8.91412e-05
0.0177695
9.09548e-05
0.0126668
7.13425e-05
9.62214e-05
8.62008e-05
8.69792e-05
4.52554e-05
0.0146468
7.77158e-05
7.62968e-05
0.0164977
9.03216e-05
8.44853e-05
5.13034e-05
9.03913e-05
0.0110195
0.0116889
6.69587e-05
0.0113234
8.17225e-05
8.27424e-05
8.35512e-05
7.03989e-05
0.0314166
0.000243005
7.10732e-05
0.00516589
0.000396667
9.06347e-05
0.0142307
0.00402838
0.0140301
9.29786e-05
6.82417e-05
7.77478e-05
5.0702e-05
6.31978e-05
0.00890488
0.00779564
8.97604e-05
0.000115926
8.68766e-05
4.86778e-05
0.0156907
8.2639e-05
0.00183255
0.00662189
6.70628e-05
0.0289818
6.15143e-05
0.0114978
8.58398e-05
9.73904e-05
0.00860234
0.020368
6.46041e-05
0.001733
5.33132e-05
0.000191331
9.55303e-05
8.36434e-05
0.00946202
8.00954e-05
8.71598e-05
0.0039863
0.000100017
5.30492e-05
9.7752e-05
0.000950187
0.00325376
9.68179e-05
8.35077e-05
5.92226e-05
0.000115384
9.69308e-05
9.01108e-05
0.000153224
0.000114205
0.000100478
4.77274e-05
0.000136457
0.00120432
8.62191e-05
0.000134702
6.65219e-05
6.61267e-05
0.0113223
7.28363e-05
8.99708e-05
0.0104265
0.0117463
4.55192e-05
0.00906525
0.0113436
0.0102437
6.074e-05
7.41372e-05
9.3008e-05
6.67084e-05
4.04988e-05
6.51757e-05
0.0174047
8.16196e-05
4.74292e-05
8.61222e-05
8.72888e-05
0.0111972
6.27813e-05
9.40764e-05
0.0051155
9.88391e-05
7.833e-05
0.0301779
7.82864e-05
7.54896e-05
0.0215312
6.70486e-05
0.00292475
7.84367e-05
8.79483e-05
5.78148e-05
6.49404e-05
7.11717e-05
6.50104e-05
5.94566e-05
0.000104627
0.0145396
5.97946e-05
9.68372e-05
0.0174198
4.67835e-05
8.83858e-05
5.65826e-05
8.77103e-05
8.57755e-05
8.33306e-05
8.37331e-05
0.00995393
0.00492531
0.00900779
6.95391e-05
8.82862e-05
6.27383e-05
7.2572e-05
6.96368e-05
8.64032e-05
8.26188e-05
6.97818e-05
5.49269e-05
8.74259e-05
7.81368e-05
0.0177309
6.4143e-05
8.68879e-05
5.49217e-05
0.0111126
0.00934183
0.000710641
8.17866e-05
6.21119e-05
8.6884e-05
0.00693277
7.36022e-05
0.00949071
4.19148e-05
8.35494e-05
8.17446e-05
7.22869e-05
5.03991e-05
7.4109e-05
0.0125718
3.622e-05
6.37921e-05
0.0104878
8.29222e-05
0.0167743
4.48691e-05
0.0333554
0.0127115
9.033e-05
5.45894e-05
8.4436e-05
0.00525809
6.23453e-05
8.96058e-05
5.6261e-05
8.17834e-05
6.32415e-05
8.78836e-05
0.0198885
3.32465e-05
5.4443e-05
8.27854e-05
8.42743e-05
0.00162823
7.42916e-05
8.70762e-05
0.00013338
9.58783e-05
8.14728e-05
0.00793734
9.0153e-05
9.51628e-05
8.37142e-05
8.36957e-05
7.34157e-05
6.62746e-05
9.60398e-05
7.92109e-05
9.47156e-05
0.0201269
0.00561703
8.86446e-05
9.01162e-05
8.95534e-05
8.95814e-05
5.01109e-05
5.19905e-05
0.00528446
0.000176146
4.86532e-05
8.5732e-05
4.99608e-05
0.00527985
0.0134698
0.0298931
7.77798e-05
0.0159246
6.26044e-05
0.000111789
5.72026e-05
0.000334008
0.0108848
7.0269e-05
7.87323e-05
7.34779e-05
0.000111382
4.94616e-05
5.01929e-05
5.15996e-05
0.0102575
8.52096e-05
6.45678e-05
0.0112547
8.91341e-05
7.09543e-05
9.02482e-05
8.87172e-05
6.60563e-05
9.39686e-05
0.015368
8.55403e-05
9.58325e-05
7.98808e-05
5.76594e-05
4.71459e-05
0.0131393
5.70546e-05
6.59213e-05
7.25094e-05
4.91555e-05
8.22541e-05
4.98562e-05
7.81764e-05
0.000307751
6.84154e-05
8.03627e-05
5.22229e-05
5.08962e-05
0.000100638
8.02113e-05
7.59409e-05
0.000150115
8.25698e-05
6.83609e-05
8.28193e-05
0.0138656
0.000113973
6.97687e-05
0.0141106
9.25314e-05
0.00517142
9.45637e-05
4.68948e-05
8.23323e-05
8.79169e-05
8.78114e-05
8.29258e-05
0.0160144
2.52911e-05
9.28984e-05
8.96015e-05
0.000228512
7.91411e-05
8.80291e-05
7.36267e-05
8.30403e-05
0.0098865
4.74025e-05
0.000134457
8.48271e-05
6.19071e-05
6.26287e-05
6.60645e-05
0.00524316
8.15079e-05
4.51289e-05
0.0124035
0.0126944
6.78219e-05
9.03287e-05
7.0471e-05
5.13712e-05
4.76401e-05
4.96602e-05
6.81727e-05
0.000230877
7.84994e-05
6.63542e-05
4.60253e-05
4.74682e-05
9.66547e-05
0.0148433
0.0107665
4.17312e-05
0.0150691
0.00140486
6.21524e-05
0.0163456
4.45713e-05
0.000102628
0.01111
0.013686
8.14006e-05
0.0124434
0.0200003
0.000208855
0.00935782
0.0002234
8.90518e-05
7.70131e-05
7.30048e-05
6.04008e-05
0.0212177
0.0194747
7.85973e-05
4.85539e-05
0.0133407
0.0418542
5.23639e-05
8.58659e-05
8.1728e-05
8.55974e-05
8.49731e-05
0.00498927
0.00241875
0.000116022
9.26571e-05
0.0115822
8.60426e-05
0.0131142
0.00010203
0.00204631
9.2921e-05
0.000147697
8.76473e-05
0.0133535
8.78e-05
6.60339e-05
6.80297e-05
4.2716e-05
0.000221254
6.66323e-05
8.42929e-05
8.53376e-05
8.88845e-05
7.76294e-05
8.72894e-05
6.25981e-05
8.15234e-05
0.000479686
0.000154678
0.0288895
1.90027e-05
8.32558e-05
8.58442e-05
8.52523e-05
6.89593e-05
6.04711e-05
0.000147667
5.71643e-05
8.69407e-05
7.74801e-05
5.99754e-05
0.0144226
8.1501e-05
7.72399e-05
4.70864e-05
8.26094e-05
8.30041e-05
7.23061e-05
8.53504e-05
5.1459e-05
8.52012e-05
8.68254e-05
8.67335e-05
0.00699043
0.00922156
8.20704e-05
0.0121749
0.000219246
7.86191e-05
0.000116704
0.00464728
7.72181e-05
0.00773149
4.52508e-05
0.00606596
8.58932e-05
0.0105434
5.16147e-05
6.99073e-05
0.00977093
6.52138e-05
0.00229566
4.55127e-05
7.22653e-05
9.01751e-05
8.53115e-05
7.40178e-05
0.0131686
8.64384e-05
9.61098e-05
0.0142587
6.47449e-05
7.52316e-05
8.48343e-05
4.40757e-05
7.83448e-05
9.68817e-05
9.88112e-05
0.000293859
7.93547e-05
5.39941e-05
0.0248584
7.93433e-05
0.00774032
0.000392192
5.3995e-05
8.49685e-05
9.69832e-05
8.79724e-05
8.02818e-05
0.000125165
0.00013174
4.45463e-05
8.06288e-05
0.00719552
9.20809e-05
8.35412e-05
5.03555e-05
4.46932e-05
8.91396e-05
4.48112e-05
0.0124185
7.42897e-05
0.0244247
8.42247e-05
7.98163e-05
0.0207023
6.93923e-05
0.0150767
9.16477e-05
0.0101925
7.33742e-05
0.0416846
8.65436e-05
7.9533e-05
0.0141066
8.08593e-05
0.0144285
7.89704e-05
0.000105976
0.0174157
7.79923e-05
7.92925e-05
0.000481115
8.94979e-05
4.47402e-05
9.03969e-05
0.0160833
0.0104372
0.0136493
6.24595e-05
0.000373675
8.92007e-05
7.59673e-05
8.33647e-05
8.54413e-05
7.20284e-05
8.22929e-05
0.0130373
8.10098e-05
8.60235e-05
0.00920206
0.0170797
5.73432e-05
8.60618e-05
8.99242e-05
0.000151422
0.0138507
8.46179e-05
0.0184066
0.0164568
8.48496e-05
8.58769e-05
6.57459e-05
8.96381e-05
5.32267e-05
0.0113413
7.56716e-05
0.000107255
9.81113e-05
9.98715e-05
8.25088e-05
8.26919e-05
8.6769e-05
8.61334e-05
0.0111485
0.0053258
7.11239e-05
4.93118e-05
0.0107793
4.48072e-05
6.23547e-05
8.48812e-05
7.97043e-05
0.0141927
7.81451e-05
0.011554
5.10877e-05
7.96638e-05
0.000642016
7.41342e-05
8.54433e-05
8.5089e-05
8.51394e-05
8.92976e-05
6.69892e-05
0.0151874
0.0104704
8.40499e-05
0.000102852
0.012978
6.76583e-05
8.89827e-05
9.23237e-05
0.0129465
9.65706e-05
0.0157006
7.99624e-05
8.05795e-05
8.65692e-05
7.37062e-05
0.0194274
0.0144012
8.8466e-05
0.0108817
5.66376e-05
0.0112284
0.00779983
7.10658e-05
4.58278e-05
8.48966e-05
4.48438e-05
7.09802e-05
7.14555e-05
8.8092e-05
0.0133749
0.0129155
8.50458e-05
0.000113007
8.3573e-05
0.0120278
9.96953e-05
0.0149652
7.9717e-05
9.13088e-05
6.8596e-05
0.00883635
0.000125168
9.01353e-05
4.58015e-05
5.41854e-05
0.00240103
0.000102564
0.0142696
8.41049e-05
0.00712807
8.87099e-05
5.20922e-05
8.94867e-05
7.58401e-05
7.57206e-05
0.0101153
4.94661e-05
7.39926e-05
0.015943
0.0211141
8.65844e-05
7.00315e-05
8.81403e-05
0.007301
9.0843e-05
9.06153e-05
0.00717633
8.03469e-05
0.0130962
0.000125493
0.0140138
0.0110952
0.0269547
7.0823e-05
0.000959238
7.56635e-05
0.0147566
9.6142e-05
0.00015908
0.0127752
0.00189516
0.000104618
0.0113585
0.017048
0.000104865
0.0167845
8.54526e-05
8.00863e-05
0.000181529
9.92737e-05
9.54812e-05
8.93867e-05
7.91277e-05
7.53592e-05
9.10786e-05
5.26959e-05
0.0129247
0.00109028
5.27101e-05
9.51492e-05
5.14685e-05
6.68279e-05
7.737e-05
8.54778e-05
8.58709e-05
8.54591e-05
6.99432e-05
5.17755e-05
0.000110634
6.87993e-05
7.31948e-05
8.96655e-05
9.60101e-05
0.00300031
0.000103993
0.0156136
6.78828e-05
0.0171616
0.00798636
9.09702e-05
0.00632759
0.000134335
0.000793695
7.56479e-05
0.0157904
8.14209e-05
0.000108482
0.0149884
7.36667e-05
5.56334e-05
0.00715184
7.51959e-05
0.00890152
8.83714e-05
8.08644e-05
0.000119764
6.66252e-05
0.000703666
7.98064e-05
9.54634e-05
0.0311774
8.56865e-05
0.0157601
0.000100447
0.0112843
0.000109258
0.00149416
0.000105913
7.1815e-05
5.11621e-05
6.57398e-05
8.57291e-05
8.03729e-05
9.70625e-05
7.7148e-05
0.0273197
9.23755e-05
8.94988e-05
6.44796e-05
8.64651e-05
8.90774e-05
6.92677e-05
0.00419467
0.000118996
8.3547e-05
0.000104797
0.0113341
8.87527e-05
8.46767e-05
0.000107101
0.0130088
0.0385805
0.00487801
6.13658e-05
8.47628e-05
8.90234e-05
0.017977
7.59844e-05
0.0127727
6.22137e-05
9.83405e-05
8.49886e-05
8.72532e-05
6.88937e-05
9.00334e-05
0.000113939
7.94827e-05
7.10848e-05
6.79347e-05
0.000106639
0.00450691
0.000103349
6.42532e-05
0.0161613
0.00013326
6.32855e-05
4.87538e-05
0.000104593
0.00896063
0.00909859
8.09513e-05
0.0288839
0.000132336
0.000125325
4.15102e-05
8.31984e-05
0.000102592
8.66832e-05
8.01655e-05
0.000235102
0.00726811
6.97962e-05
7.51186e-05
0.000296135
0.00972809
0.000113645
0.0120168
6.76066e-05
7.09596e-05
8.85224e-05
5.75479e-05
5.15554e-05
8.38315e-05
0.0167624
5.84807e-05
0.00492324
7.57899e-05
6.92868e-05
8.26826e-05
8.86309e-05
0.0129471
0.00010303
0.0253717
0.0107262
8.95767e-05
9.31174e-05
0.00741802
0.0198076
4.12976e-05
0.000157088
8.94841e-05
0.0155832
0.0122317
0.000109832
8.55556e-05
0.013828
0.00976292
0.0344399
5.87632e-05
8.53964e-05
0.000117621
0.0101924
9.14084e-05
5.52726e-05
0.0139034
0.000103408
0.0156547
8.09702e-05
0.000124114
7.1555e-05
0.00064688
7.64558e-05
0.000358679
0.0153297
0.0131082
8.65344e-05
0.000220623
7.99224e-05
8.73836e-05
8.55323e-05
8.56522e-05
8.49891e-05
0.000106321
0.000113509
0.000109302
0.000118625
0.000124374
0.000133583
8.98116e-05
0.00011759
0.00113049
0.000101101
0.0163005
0.0011699
8.83691e-05
6.6937e-05
8.90239e-05
8.54116e-05
8.28941e-05
0.0122165
0.0173266
0.00011007
4.24828e-05
0.0158917
0.000108975
0.000100883
0.00020224
0.0106426
0.000116851
0.01299
7.56849e-05
8.63362e-05
8.54022e-05
8.64778e-05
0.00579734
9.02578e-05
6.07812e-05
9.32738e-05
8.63461e-05
0.000120196
7.80377e-05
0.0084856
0.016054
0.0197763
8.31666e-05
9.06401e-05
0.0074273
8.65806e-05
7.23777e-05
8.16359e-05
9.25793e-05
8.52018e-05
0.0159741
0.0114948
8.53947e-05
0.000164476
7.74496e-05
6.85252e-05
0.000145368
8.6344e-05
0.0130286
8.85009e-05
0.000107513
8.56001e-05
0.000112057
6.35628e-05
0.000102526
0.00809141
0.0207064
0.014141
5.64928e-05
0.000149698
0.017573
0.00011132
0.000127018
0.0145748
0.0158444
0.0140563
0.000102916
8.11515e-05
0.0149843
0.000100343
9.63131e-05
0.0170793
5.24387e-05
0.0109623
0.0109183
0.0183927
0.00672194
8.95885e-05
0.000832677
0.00787844
0.011412
4.9118e-05