/*--------------------------------*- C++ -*----------------------------------*\
| =========                 |                                                 |
| \\      /  F ield         | OpenFOAM: The Open Source CFD Toolbox           |
|  \\    /   O peration     | Version:  v2012                                 |
|   \\  /    A nd           | Website:  www.openfoam.com                      |
|    \\/     M anipulation  |                                                 |
\*---------------------------------------------------------------------------*/
FoamFile
{
    version     2.0;
    format      ascii;
    class       volVectorField;
    location    "350";
    object      ddt0(U);
}
// * * * * * * * * * * * * * * * * * * * * * * * * * * * * * * * * * * * * * //

dimensions      [0 1 -2 0 0 0 0];


internalField   nonuniform List<vector> 
13726
(
(-0.000357357 -0.000187231 4.61316e-22)
(-0.000217905 4.71264e-05 0)
(2.43289e-06 5.81356e-06 -8.00852e-22)
(7.12063e-05 -2.99556e-05 1.05206e-22)
(0.000336722 -0.00015965 -1.30612e-22)
(-0.000175783 -0.000173342 -2.60993e-22)
(3.08994e-05 4.0766e-05 0)
(3.19408e-05 7.1969e-06 -8.20168e-24)
(0.000549539 0.000189891 -9.98853e-22)
(-4.45698e-06 3.30491e-05 -1.80543e-22)
(0.000481011 6.77119e-05 6.62455e-22)
(-1.56782e-05 3.86897e-05 5.83044e-23)
(2.08356e-06 1.21033e-07 0)
(0.000234006 0.000410395 0)
(7.03761e-05 -2.37344e-05 -1.51634e-22)
(1.36612e-06 3.83199e-08 7.59376e-23)
(-0.00039278 0.000602931 -8.1955e-22)
(-2.43988e-05 -5.11532e-06 8.53461e-22)
(-0.000886035 -9.55995e-05 0)
(-0.00166243 -0.000730677 -4.91527e-22)
(-0.000301331 0.00226162 0)
(-7.81353e-06 -4.98473e-06 5.36506e-23)
(-9.51741e-06 -8.92612e-06 0)
(2.74597e-06 5.93633e-06 0)
(-1.03359e-05 1.7732e-06 0)
(2.42848e-05 -2.10949e-05 0)
(1.4643e-05 2.25646e-05 -9.13263e-22)
(2.72169e-05 -1.88452e-05 0)
(-1.00941e-05 2.18307e-06 1.21582e-23)
(-0.000354019 -5.30747e-05 4.83726e-22)
(-0.00136185 0.00168887 0)
(0.000135686 -4.07303e-05 0)
(-0.000381922 0.000451427 9.43671e-23)
(-7.44311e-05 -1.15984e-05 8.30419e-22)
(-0.000343647 0.000919412 -3.29642e-22)
(0.000201152 1.30364e-05 -5.22046e-22)
(6.83141e-06 8.71711e-06 -4.35589e-22)
(-0.00023059 6.00778e-05 0)
(4.97551e-06 -2.13128e-05 3.71068e-22)
(-1.54188e-05 -5.31924e-06 -4.00485e-23)
(0.000395968 -4.44392e-05 0)
(-0.000510911 0.000730322 0)
(-2.2915e-07 1.84634e-07 0)
(1.40705e-05 -1.42118e-05 -4.00161e-22)
(-0.000400267 -0.0002652 -3.65679e-22)
(-6.09061e-06 4.19859e-06 -7.98687e-22)
(-0.000373119 -0.00250404 -2.62072e-22)
(-2.52093e-05 2.97662e-05 -3.97987e-24)
(-9.38e-05 -5.67657e-05 4.72372e-22)
(-3.59906e-06 1.66761e-06 1.10505e-22)
(0.000304996 0.000251198 5.64771e-22)
(-2.50351e-05 3.19274e-05 9.03656e-23)
(0.000647593 0.000390707 0)
(-2.4195e-05 -6.22519e-06 8.07876e-22)
(4.39229e-06 7.19269e-06 8.46373e-22)
(-7.61301e-07 1.00552e-08 -4.34847e-22)
(0.000559765 5.93527e-05 -9.05098e-23)
(0.00076813 0.000244973 9.74263e-23)
(1.87036e-06 1.08184e-05 -5.47354e-22)
(2.91832e-06 4.57608e-06 -8.71033e-22)
(-2.21232e-05 -0.000646628 6.9822e-21)
(1.49084e-05 -1.33366e-05 3.90331e-22)
(0.000148999 0.00022415 8.40111e-22)
(-7.04047e-06 -5.32684e-06 -4.20264e-23)
(-0.000268483 1.62793e-05 0)
(6.67894e-05 -4.91352e-05 0)
(-0.000347349 0.00246182 0)
(-0.000596522 -9.84156e-05 9.90092e-23)
(-2.13428e-05 3.57914e-05 7.13348e-23)
(0.000239906 0.000177075 1.55162e-22)
(-0.00036085 -0.00200362 0)
(3.03071e-05 1.02358e-05 0)
(3.13451e-06 1.01011e-07 4.53841e-23)
(2.10165e-06 2.46708e-06 5.90704e-25)
(-0.00089464 2.52685e-05 1.37231e-22)
(0.000345573 0.00102303 -3.2823e-21)
(0.00030222 0.000236325 0)
(0.00059425 0.000582218 0)
(-0.00083164 6.59859e-05 0)
(8.69181e-05 0.000145708 6.21951e-22)
(0.00107605 -0.000242545 0)
(-3.5209e-05 -7.10313e-05 5.77229e-22)
(0.000297381 8.93052e-05 3.56981e-22)
(1.3994e-06 -1.42594e-08 1.51677e-22)
(6.2531e-06 -2.3147e-05 -2.47272e-22)
(0.000200938 0.00032674 4.34083e-22)
(-0.000243462 0.000145047 0)
(-2.90753e-07 4.73403e-06 -4.73665e-22)
(-5.15188e-06 9.09594e-07 9.63e-23)
(0.000926927 -0.00144928 -6.35644e-22)
(-9.18073e-07 1.57971e-07 2.29688e-22)
(0.000486481 -0.000109077 1.29067e-22)
(-5.40053e-06 3.79846e-06 4.50016e-22)
(4.17449e-06 7.03709e-06 -3.5405e-22)
(0.000160076 0.000274006 0)
(-0.000330322 0.000405505 -1.10334e-22)
(5.22915e-05 7.19358e-05 -5.74515e-22)
(-1.61937e-05 3.88417e-05 -5.98753e-23)
(-4.20769e-06 -1.18259e-05 0)
(-0.000129573 -0.000134987 3.16066e-22)
(-3.19587e-06 5.21869e-06 -1.19001e-22)
(-1.00353e-05 3.3294e-05 -3.31245e-22)
(0.00148547 0.000189146 2.4498e-22)
(1.74207e-06 -5.93442e-08 -2.59911e-22)
(0.0020128 -0.000552951 -1.64563e-22)
(-0.000503805 0.0004595 0)
(0.000330691 1.22181e-05 0)
(-7.73959e-06 -1.6599e-05 0)
(-1.49316e-05 -4.48027e-06 2.87206e-22)
(5.2493e-05 6.24396e-05 3.23684e-22)
(-2.938e-05 9.14895e-05 2.45134e-22)
(1.19193e-06 8.82489e-08 0)
(-0.00105663 -0.000483309 -2.89957e-22)
(0.000464723 0.000773565 4.55895e-23)
(0.00045365 0.000857871 0)
(3.95834e-07 -2.22497e-05 3.65082e-22)
(-0.00015749 0.000137241 0)
(0.000694294 -0.0017288 -2.53526e-22)
(0.00161258 -1.41991e-05 0)
(2.38161e-06 5.61386e-06 6.28315e-22)
(-0.000310699 -1.78877e-05 -5.57554e-22)
(3.10585e-06 1.13667e-07 3.83571e-23)
(1.88861e-06 6.00762e-06 2.8826e-22)
(-0.000836761 -0.000137571 0)
(-0.00141785 0.000182986 -7.23763e-23)
(-0.000335578 3.78529e-05 0)
(-4.11404e-06 -1.29578e-05 1.91657e-22)
(0.00059541 -8.91938e-05 0)
(1.34973e-06 8.48101e-08 -1.19854e-22)
(8.237e-05 -9.37383e-05 -1.5379e-22)
(-6.69349e-05 -0.000621124 0)
(-1.81805e-06 -0.00103383 6.6442e-22)
(9.655e-05 -9.47265e-05 1.38481e-22)
(-7.37507e-05 -6.29549e-05 -4.66763e-22)
(-0.000512127 0.000272301 8.61137e-22)
(0.000120059 -0.000231194 -2.70671e-22)
(-0.000253548 3.06642e-05 0)
(0.000346514 0.000489242 3.84344e-23)
(7.56905e-05 0.000136021 -4.43177e-22)
(-0.000200429 0.000744259 -6.57882e-21)
(0.000150041 -0.000111905 0)
(-0.000629437 0.000233513 -3.10576e-22)
(-6.97625e-06 1.39657e-05 0)
(-2.22849e-05 2.50518e-05 2.70427e-23)
(-0.000176416 -0.000229545 3.51995e-22)
(6.83235e-06 8.95265e-06 2.23619e-22)
(0.000730879 -0.00125436 3.11684e-22)
(6.48582e-06 2.93409e-06 0)
(2.54502e-08 4.98219e-06 5.74407e-22)
(-0.000847513 -3.40069e-05 -1.57354e-22)
(-5.12479e-06 -1.37803e-05 1.17052e-22)
(1.41665e-06 -5.51382e-08 -1.10544e-22)
(-4.3898e-05 -9.25196e-05 -1.08096e-22)
(6.04662e-06 2.9503e-06 0)
(-2.15211e-05 3.36134e-05 2.4179e-23)
(-1.16248e-05 2.72339e-05 4.72488e-22)
(8.46116e-06 6.6174e-06 -2.8565e-22)
(-0.000298934 -0.0007126 8.47928e-23)
(0.000157793 0.000258354 0)
(-1.05358e-05 9.27202e-07 8.74806e-23)
(-3.5969e-06 1.29083e-06 -1.06856e-22)
(2.22746e-06 3.70324e-08 0)
(0.000160702 0.000253683 -7.68628e-22)
(0.000337273 0.000439912 -2.03477e-22)
(4.2316e-05 -2.96251e-05 0)
(0.00198165 -0.000858139 2.85352e-22)
(-0.000289328 0.00089213 0)
(3.15931e-05 4.58748e-05 0)
(-2.96727e-06 4.59503e-06 0)
(1.17119e-06 6.29088e-07 1.31173e-22)
(-0.000587869 -0.000353103 -8.3964e-23)
(-1.26269e-05 2.49903e-05 -4.59712e-22)
(-0.000534388 -0.000733638 5.96476e-23)
(3.57883e-06 6.7461e-06 3.89236e-22)
(0.00040235 9.62072e-05 -9.51593e-23)
(9.26205e-05 0.000209871 0)
(-1.5945e-05 2.33632e-05 -5.1053e-23)
(-0.00112945 0.00168363 0)
(-0.00155812 0.000690189 -3.75349e-23)
(1.49372e-06 -6.07396e-08 1.06273e-22)
(-0.00069516 0.00112768 -5.55058e-22)
(1.54466e-07 2.14135e-06 2.36117e-22)
(-0.000332042 5.44168e-05 -1.71465e-22)
(3.57047e-05 0.000179829 0)
(-2.05668e-05 2.36735e-05 2.99071e-24)
(-6.22445e-06 1.20432e-05 -6.78924e-23)
(1.8752e-06 -8.35274e-08 0)
(-3.08058e-06 4.10258e-06 4.96896e-22)
(-8.88933e-06 -1.00795e-05 8.84353e-22)
(8.99935e-06 6.96664e-06 8.83089e-22)
(0.000463118 0.000712651 2.01576e-22)
(0.000574686 -0.000962632 0)
(-0.000344007 -5.68983e-05 -6.37526e-22)
(-0.000363408 -5.77326e-05 0)
(2.67791e-05 1.02525e-05 1.35721e-23)
(4.93351e-05 -3.47601e-05 -4.91528e-24)
(2.16151e-06 -2.3051e-05 0)
(-0.000212861 -0.000748809 0)
(0.000541863 -0.00158359 1.69397e-22)
(-5.66821e-07 1.21831e-08 1.84033e-22)
(6.22797e-05 6.01017e-05 0)
(0.000289791 0.000583323 0)
(-0.000393598 -2.49951e-05 -4.95916e-22)
(-6.65849e-05 -1.05268e-05 -6.247e-22)
(1.44916e-06 -3.2691e-08 0)
(7.74039e-06 1.41585e-05 0)
(-6.33503e-06 4.69115e-06 0)
(0.000210099 2.27976e-05 -2.84929e-22)
(3.7727e-06 3.81173e-06 -3.16226e-22)
(-3.06705e-05 -0.00014779 -1.14145e-22)
(0.000229615 -0.000300029 -1.47498e-22)
(0.000176344 0.000276863 0)
(-0.000399828 -2.93167e-05 5.0278e-22)
(2.92373e-06 -4.03313e-06 -8.13964e-24)
(0.000459485 0.000215218 -3.91792e-22)
(-0.000839178 0.000126436 -3.55772e-22)
(2.94064e-06 6.22792e-06 1.67026e-22)
(-4.95463e-07 1.32657e-07 2.84749e-22)
(-2.7238e-05 6.98981e-07 -4.34054e-22)
(-0.000241016 -0.000832923 0)
(6.01633e-06 5.49555e-06 -7.68354e-22)
(3.37399e-05 1.33484e-05 0)
(0.00040183 7.21281e-05 -1.79895e-22)
(0.000174742 -1.70145e-05 9.86448e-22)
(-7.53619e-07 -1.25389e-05 -3.73633e-22)
(-0.000151249 -0.000703667 0)
(0.000186841 0.000413674 7.756e-22)
(0.000288881 -0.000123376 -4.88645e-22)
(-0.000775098 -0.000502717 -1.98422e-22)
(-2.78437e-06 3.49075e-06 -4.6321e-22)
(0.000227813 0.000190924 9.71399e-22)
(8.97028e-05 8.90316e-05 0)
(-0.000514196 0.00104477 6.35182e-22)
(0.000618438 0.000603581 -5.18558e-22)
(2.00923e-06 2.39329e-06 0)
(-1.12135e-07 1.34146e-06 3.28314e-22)
(5.47032e-05 0.000293762 1.01182e-21)
(0.000833066 -0.00190299 -2.35676e-22)
(-0.000969337 -0.000220144 -4.53308e-23)
(-0.000885532 -3.85077e-06 -6.27042e-22)
(1.61103e-06 6.83568e-09 -1.57202e-22)
(-1.33684e-05 -4.56529e-06 1.10808e-21)
(-1.11694e-05 -1.581e-05 0)
(-0.000410531 -0.00026091 2.14636e-22)
(0.000424186 -1.41123e-05 0)
(0.000286234 -0.00131966 2.75838e-22)
(1.19531e-06 1.22132e-05 5.9294e-22)
(9.99688e-06 4.07686e-05 -1.99284e-22)
(-3.53276e-07 -1.00864e-06 1.06389e-23)
(-0.000447154 -0.000473438 5.92989e-22)
(-0.000975388 -0.000533855 3.78035e-22)
(2.17322e-06 2.51986e-06 2.69606e-22)
(-0.000910277 -0.000409234 -2.5244e-22)
(1.51584e-05 3.01539e-05 -2.15533e-22)
(8.77572e-05 8.75098e-06 2.09958e-22)
(-0.000410614 -0.000226098 0)
(1.68846e-06 6.24515e-06 -3.05987e-22)
(-0.000315961 0.00125913 -4.79596e-22)
(0.000361108 0.000396974 -9.89632e-23)
(1.37121e-05 2.72144e-05 2.19496e-23)
(0.000145829 9.40227e-05 -6.83373e-22)
(6.05132e-05 0.000286543 -8.25326e-22)
(3.6719e-05 -9.61426e-07 -5.58496e-22)
(-4.32076e-06 -1.21398e-06 -7.52152e-23)
(0.000356231 0.000402337 -1.66048e-21)
(-0.00155419 0.000548983 1.1687e-22)
(1.50857e-06 6.90825e-08 -9.6465e-24)
(-1.23784e-07 1.44775e-06 -1.04729e-21)
(-9.39094e-06 2.21894e-06 -8.2848e-23)
(-3.13635e-05 0.000195404 -1.62888e-22)
(-0.000870391 -0.00137381 0)
(1.19208e-05 3.31122e-05 0)
(0.00015008 -0.0011418 2.96522e-22)
(-6.12389e-05 -1.54731e-05 0)
(0.000241158 0.000186495 -1.85262e-22)
(-3.47098e-05 -0.000592559 -9.41132e-21)
(-0.000791587 -0.000250246 2.84419e-22)
(-0.000175032 0.000113327 0)
(3.41645e-06 5.53639e-06 -9.79712e-22)
(0.000154435 -5.68311e-05 1.24499e-24)
(-0.000287973 0.00082118 0)
(4.14206e-06 7.04145e-06 -6.58285e-22)
(0.000162013 0.0003574 0)
(2.791e-06 4.54059e-05 2.44567e-22)
(-0.000543252 -3.56935e-05 0)
(1.43524e-06 5.99435e-08 -6.97007e-23)
(-5.74872e-05 0.000144546 3.60607e-22)
(-0.000182581 -0.00119101 -3.30235e-23)
(1.60447e-05 2.46797e-05 8.37099e-22)
(5.41449e-05 -5.27078e-05 0)
(-0.000327647 3.1883e-05 0)
(6.2947e-06 4.08999e-05 -1.22387e-22)
(8.83663e-06 -9.44377e-06 0)
(0.000325199 0.000415504 -1.10844e-22)
(0.000228519 3.90127e-05 1.0814e-21)
(6.13157e-06 3.75483e-06 -1.02022e-25)
(-7.22495e-05 0.000108664 0)
(1.00325e-05 1.19689e-05 4.98448e-23)
(0.000159018 -0.000646115 -1.57845e-21)
(2.15346e-06 -6.10588e-08 2.87932e-25)
(0.00214493 0.00142316 0)
(0.000118138 -9.94711e-05 2.29204e-22)
(-0.000126521 0.00014901 0)
(-1.72305e-06 2.11575e-07 0)
(0.000339278 -0.000277288 -9.34145e-23)
(-1.23136e-05 0.000191284 3.42792e-22)
(0.00068211 0.000435666 1.57209e-22)
(-0.000972356 0.00109002 -5.18824e-22)
(-9.47914e-06 0.00021263 -2.10605e-22)
(1.29616e-05 9.30602e-06 0)
(0.000419212 0.000460196 -1.44453e-21)
(-0.00140345 -0.000776986 0)
(-0.00140817 0.00144522 0)
(-0.000413346 -3.62322e-05 0)
(1.7817e-05 -9.46501e-06 6.85457e-23)
(-0.00119236 -0.00158358 0)
(-2.05978e-06 -2.17046e-05 0)
(0.000188293 0.000303827 -3.41208e-22)
(-0.000953788 3.78687e-05 3.08863e-22)
(0.000208337 6.07158e-05 0)
(-3.9974e-06 -0.000353112 -5.50791e-23)
(-3.37934e-05 0.000144128 0)
(3.10717e-07 2.20735e-06 -2.42756e-22)
(-0.000503084 -0.000244167 0)
(0.00166983 -0.000427012 -3.21247e-23)
(1.29019e-05 3.59241e-05 2.46803e-22)
(-1.69558e-06 1.33351e-07 0)
(-0.00039734 0.000914426 -4.73102e-21)
(-4.28048e-07 7.11138e-07 0)
(0.000199953 0.000271913 -8.45618e-25)
(0.00147611 0.000601663 -2.39062e-22)
(-0.000115203 4.88472e-05 5.40313e-22)
(1.14483e-06 -3.91861e-08 6.402e-23)
(2.84419e-06 4.90308e-05 0)
(7.24022e-05 0.00015655 -3.58711e-22)
(-7.00922e-07 6.42425e-07 -3.15213e-22)
(1.23381e-06 -5.68177e-09 0)
(3.3726e-06 1.04325e-05 0)
(-1.26494e-05 7.01432e-05 -2.62656e-22)
(5.61754e-05 8.39283e-05 4.35702e-22)
(-0.000525973 -0.00133242 5.43669e-22)
(-0.000567255 -7.53801e-05 -6.10897e-23)
(0.000348689 7.36944e-06 4.73799e-22)
(-7.97062e-05 0.000154956 0)
(-6.26923e-06 0.000212525 6.09474e-22)
(0.000148486 0.000172561 0)
(1.2628e-06 -6.40163e-08 0)
(-5.1305e-05 0.000180068 -3.02953e-22)
(-0.000131039 0.000920876 0)
(-4.633e-07 -5.779e-06 -1.48512e-22)
(-0.000433484 0.00021168 -6.82621e-22)
(-0.000580631 -4.17406e-05 5.48277e-23)
(-0.000733107 -0.000156454 -2.68624e-24)
(0.000347021 3.87516e-05 -1.24292e-24)
(-6.64895e-06 2.05588e-05 2.09599e-22)
(-2.68764e-06 3.97253e-06 -7.17014e-22)
(2.21008e-05 -2.42586e-06 1.45254e-22)
(0.000632315 0.000440077 -3.95443e-22)
(6.65925e-06 9.29574e-06 0)
(6.11521e-06 6.02061e-06 5.46622e-22)
(-1.28997e-05 -3.94249e-06 -1.17919e-21)
(2.97907e-05 1.90687e-05 0)
(9.54102e-05 8.61331e-05 4.9164e-22)
(2.34941e-05 -3.63227e-06 -1.58345e-22)
(2.82959e-05 -1.64407e-06 -7.64772e-22)
(-0.000799609 0.00104628 7.65763e-22)
(0.000351482 -0.00132631 -2.67761e-22)
(-7.80713e-06 -9.916e-06 3.33912e-22)
(2.61704e-05 6.08538e-05 2.03208e-22)
(5.67202e-05 1.78972e-05 0)
(-0.000373053 -0.000408517 2.98158e-21)
(1.9853e-06 1.70954e-07 0)
(0.000302235 2.62977e-05 1.37504e-24)
(-2.75042e-05 -8.47375e-07 -3.14315e-22)
(0.00152662 0.00129276 -6.17282e-23)
(2.67281e-05 6.83532e-05 0)
(-1.05511e-05 9.91503e-07 6.49463e-23)
(0.000497387 -0.0025127 -2.84757e-22)
(2.07971e-05 0.000118807 -5.35341e-22)
(1.67445e-06 0.000167339 -2.52932e-22)
(-2.33395e-06 -1.44513e-05 2.05556e-22)
(-4.05486e-06 6.79118e-07 6.19144e-23)
(-3.19804e-06 -1.11344e-05 0)
(0.000268051 0.000417731 0)
(-0.000223161 -0.000914286 7.58209e-23)
(-0.00159117 0.000560089 -1.28679e-22)
(0.000822574 0.000629357 1.69482e-22)
(3.44168e-05 1.58628e-05 -1.22483e-22)
(8.86205e-06 -1.97321e-05 -3.6252e-22)
(5.21191e-06 1.48303e-05 0)
(4.4241e-06 1.65668e-05 5.36376e-23)
(-6.93909e-07 7.14122e-07 5.35075e-22)
(-3.51123e-06 5.36242e-06 0)
(2.97536e-05 4.29165e-06 6.7566e-24)
(1.61301e-06 2.60868e-07 2.50231e-23)
(7.06694e-06 1.0994e-05 -5.13029e-22)
(-0.000143354 -0.000640965 1.7847e-23)
(0.000352327 0.000385808 0)
(4.39866e-05 1.78861e-05 4.74505e-22)
(-3.38361e-07 8.59968e-08 -2.22051e-22)
(3.68285e-06 1.81916e-05 0)
(1.19454e-06 -3.50847e-07 3.22786e-22)
(-2.1493e-06 1.09213e-05 0)
(4.93678e-05 7.71574e-05 1.42859e-22)
(3.21882e-06 4.1656e-06 -8.04923e-22)
(3.28255e-05 1.88033e-05 2.06399e-22)
(6.91727e-06 1.16911e-05 5.18557e-22)
(-5.11544e-06 -1.08134e-05 -9.18683e-22)
(-0.000400736 0.00140744 2.87133e-22)
(-0.00190306 -0.0028664 1.00818e-22)
(0.000138235 0.000254982 3.17676e-22)
(4.26593e-07 1.4042e-05 -2.20477e-22)
(0.00014301 0.000184234 -4.38119e-23)
(0.000260792 0.000886637 1.29631e-21)
(0.000220869 -0.00150667 0)
(-5.21117e-06 3.34258e-06 0)
(-9.01617e-05 -0.000197626 -4.25702e-22)
(-0.000309396 0.00090673 2.04696e-20)
(-0.000223723 8.29092e-05 1.82605e-22)
(0.000298872 0.000672739 0)
(0.00102031 -0.00167657 -6.63071e-22)
(-0.000994282 -0.00189507 0)
(2.88042e-06 -4.79609e-06 7.7259e-24)
(-0.000213709 0.000135288 0)
(0.000186554 0.000350131 -4.66777e-22)
(-0.000241743 0.000197592 1.16398e-22)
(0.0001993 0.000343211 0)
(-1.06364e-06 -7.23139e-06 -1.75206e-22)
(-8.35909e-07 2.02094e-06 1.93703e-22)
(6.49987e-05 8.17167e-05 0)
(-0.00161099 0.000751301 0)
(-0.00145007 0.000454146 -3.59133e-22)
(-0.000676112 -0.00014371 1.84626e-22)
(-0.00138775 0.000525706 3.94517e-22)
(1.02843e-05 4.57416e-06 0)
(-7.48083e-05 0.000146427 7.82342e-23)
(1.67797e-05 -8.18675e-06 -6.04529e-23)
(-0.000202259 0.000223697 0)
(7.76297e-06 7.42976e-06 -2.40497e-22)
(-0.000259335 0.000129791 1.87407e-22)
(1.05588e-05 -1.87029e-05 7.61156e-23)
(0.000160689 0.000349211 -4.78645e-22)
(-5.51721e-05 0.000131609 -7.98718e-23)
(0.000343047 0.00147215 -3.4359e-25)
(5.37582e-05 0.00019767 0)
(2.51091e-05 1.31967e-05 1.55168e-24)
(0.000212005 6.86393e-05 6.05083e-22)
(-9.55405e-06 1.85144e-06 1.00343e-22)
(6.74804e-05 -3.7292e-05 -1.67241e-24)
(-0.000719688 -0.000971571 0)
(-0.00023044 0.000120444 2.26748e-22)
(-0.000499555 0.000174146 7.63109e-22)
(0.000427042 0.000967369 2.14051e-21)
(-1.48891e-05 3.84129e-05 -3.70653e-23)
(0.000283185 0.000243246 4.41719e-22)
(1.64472e-06 3.35355e-07 0)
(-0.00106221 -9.05553e-05 -3.05847e-22)
(0.000265039 0.000250724 0)
(-7.85833e-07 4.24842e-06 -1.97342e-22)
(5.91139e-06 3.10284e-06 0)
(1.32575e-06 1.57816e-05 -3.61489e-22)
(0.000218009 -0.00046766 -2.27378e-22)
(2.72729e-05 9.9536e-07 8.42547e-22)
(0.000209393 -0.000810333 3.39216e-23)
(-0.00105091 -0.000955924 -1.99813e-23)
(1.07027e-05 4.5453e-06 9.04577e-24)
(-0.0010945 -8.59836e-05 0)
(0.000207229 0.000333193 -6.72484e-22)
(1.435e-06 1.07968e-07 -7.62311e-23)
(-0.00146397 0.000174275 1.34184e-22)
(-1.71074e-05 -6.94149e-05 -4.8038e-22)
(8.32117e-07 1.70518e-07 -1.91481e-22)
(-3.14958e-05 7.24244e-05 -1.5341e-22)
(7.02804e-06 1.60799e-05 4.23171e-23)
(-0.000578725 -0.000437703 1.78195e-22)
(-1.82026e-05 1.9836e-05 4.78702e-23)
(-0.000634282 -0.000132693 -6.19317e-23)
(0.00281202 0.00167255 -5.86651e-22)
(0.000212349 0.00104108 2.36112e-21)
(-0.000112251 6.07156e-05 1.32515e-22)
(0.000306641 0.000552087 0)
(5.80225e-05 -4.36188e-05 -7.68443e-23)
(3.19382e-05 -2.27773e-05 -6.27718e-24)
(0.000199862 5.55555e-05 0)
(7.32063e-06 -9.07888e-06 -1.24312e-23)
(-0.000192421 9.81021e-05 0)
(2.20902e-06 -1.17844e-07 1.82352e-23)
(-4.20648e-05 7.94893e-05 -1.98865e-22)
(0.000160342 -6.30836e-05 0)
(-0.000636857 -0.000451784 0)
(-5.41971e-07 1.40734e-05 0)
(-0.000372247 3.61692e-05 0)
(0.000635311 0.000635941 0)
(0.000280812 -3.56899e-05 -8.71821e-22)
(0.00022187 0.000420946 2.96155e-22)
(-2.3853e-05 3.21808e-05 0)
(6.2614e-06 9.09238e-06 -3.92277e-22)
(0.000730378 2.21612e-05 1.47584e-22)
(-8.10663e-05 0.000262065 -2.74057e-22)
(-9.14711e-07 1.29936e-07 0)
(-5.14914e-07 7.14168e-07 -9.1195e-23)
(0.000356953 0.00105553 -3.79609e-24)
(0.000488768 0.000691961 0)
(-0.000138963 0.000116839 -5.67969e-22)
(-2.97191e-05 1.29637e-06 4.50847e-22)
(8.64444e-07 -1.17569e-06 0)
(2.49632e-05 -0.000567584 0)
(5.26205e-05 0.000263882 3.81733e-22)
(5.53307e-05 -2.14844e-05 2.39531e-22)
(-6.06676e-07 -6.73002e-06 0)
(1.67383e-06 2.4881e-06 -6.74069e-22)
(0.000189626 0.000281838 3.57397e-22)
(-1.8121e-06 3.76849e-06 0)
(3.45952e-05 0.000130511 0)
(3.54682e-05 -2.02117e-05 6.14914e-24)
(0.000385712 0.000455267 5.31338e-23)
(-0.000545453 -0.000370859 -1.0195e-21)
(-1.16155e-05 -4.01081e-06 0)
(-2.59113e-05 2.9655e-05 -5.19239e-22)
(1.19875e-05 2.27086e-05 6.3213e-22)
(-5.16105e-06 -1.1679e-05 7.03149e-22)
(-6.44256e-05 -0.000155388 0)
(0.000207196 0.000347078 -4.53109e-22)
(-0.00143683 -0.00209464 -6.66019e-23)
(0.000192884 -0.00015176 4.55526e-22)
(9.45465e-05 0.000148351 3.36743e-22)
(-0.000241148 -0.000856351 -1.66671e-23)
(-9.8585e-05 8.07742e-05 -1.39214e-22)
(4.04806e-06 -5.99926e-06 0)
(0.00235265 0.00223416 5.47619e-22)
(-4.61316e-05 9.51411e-05 -5.70035e-22)
(-1.04773e-06 3.6978e-05 6.04347e-22)
(0.000426544 0.000795387 0)
(1.62392e-06 2.82125e-06 -5.46713e-22)
(0.000888246 -0.00298591 -2.85457e-23)
(0.000165871 2.25042e-05 0)
(0.00064315 -0.000129086 0)
(4.72499e-05 0.00093915 0)
(3.29698e-05 -3.57456e-06 0)
(6.12047e-06 4.47296e-06 -2.06556e-22)
(0.000106674 0.000136583 -4.45423e-22)
(-1.34241e-07 7.41939e-07 -9.20741e-23)
(0.000350984 -0.000146083 0)
(4.58909e-06 8.19839e-06 8.03354e-22)
(-4.09195e-05 -0.000279475 5.26647e-22)
(0.000214394 0.000343883 0)
(2.82672e-06 1.70004e-05 0)
(3.419e-06 -3.99324e-07 0)
(0.000853826 0.00136692 -1.51401e-22)
(-9.2643e-07 5.39809e-07 -2.80994e-22)
(-1.69556e-06 -1.14254e-06 0)
(0.000333735 0.000770825 8.25375e-25)
(1.68898e-05 7.05362e-05 0)
(0.000206616 0.000516561 1.60159e-21)
(1.71195e-06 2.42153e-06 1.02369e-21)
(0.000100699 -0.000130678 -1.75758e-22)
(1.98206e-06 -1.2765e-07 -6.70519e-26)
(-0.000525364 -0.000343651 3.89175e-22)
(0.000375028 0.00176501 -2.40221e-22)
(0.000176652 -0.000742008 -1.75527e-23)
(-1.47336e-05 -0.000958541 6.73858e-22)
(0.000158504 1.22795e-05 0)
(9.33966e-05 -0.000403925 0)
(-6.09031e-06 4.995e-06 1.59905e-22)
(-0.000841665 0.00173518 0)
(0.00101103 0.000865524 1.07982e-22)
(-0.000116707 4.66581e-05 7.6193e-22)
(-6.95002e-06 -1.08732e-05 7.73237e-22)
(-0.000424485 -0.000261605 0)
(-2.54173e-05 5.53088e-05 4.80843e-22)
(0.000924032 -2.03754e-05 0)
(-1.79313e-05 2.46292e-05 -3.4721e-24)
(4.86648e-05 -1.42127e-05 -8.11795e-25)
(-0.000600888 0.000164473 -7.52976e-22)
(-1.035e-06 -7.08177e-09 -2.92327e-22)
(0.000209918 7.10254e-05 0)
(8.60146e-05 -0.000136255 2.9878e-22)
(6.44181e-06 9.2635e-06 -4.55992e-22)
(-1.50633e-05 0.000107575 -3.16141e-22)
(-9.65583e-05 7.07807e-05 2.84732e-21)
(-0.000113273 0.000448027 -3.22172e-22)
(-0.000396865 -3.26291e-05 0)
(1.41662e-05 7.98142e-05 0)
(-4.38691e-06 -3.37991e-06 0)
(0.00172056 -0.00174136 0)
(-1.51e-06 5.23497e-08 2.67644e-22)
(-0.000848796 -0.00021913 0)
(0.000312369 0.000928689 -2.42162e-23)
(-1.6024e-05 2.14975e-05 5.5613e-23)
(0.000568582 0.000535866 0)
(5.50585e-05 2.25752e-05 8.8232e-23)
(-2.53531e-05 7.84966e-05 0)
(-2.06401e-05 7.80681e-05 2.11928e-22)
(6.03203e-06 3.37224e-06 0)
(0.000271004 7.43892e-05 -3.05997e-22)
(-1.11737e-05 -3.52655e-06 0)
(0.000690192 0.000316873 0)
(8.60977e-07 6.24054e-06 3.44002e-22)
(-0.000115611 0.000896196 0)
(-0.000331302 -0.00111686 5.1989e-22)
(-5.56463e-05 -1.42012e-05 7.76012e-22)
(-8.96272e-07 1.66499e-07 2.2233e-22)
(3.23776e-06 -2.14573e-05 -4.36617e-23)
(1.85409e-05 1.02206e-05 2.30812e-24)
(1.38803e-06 1.73239e-08 -1.00329e-22)
(-0.000363801 -0.000279762 -5.33113e-22)
(0.000231047 -0.00110092 1.47528e-22)
(-0.000341978 -4.27475e-05 1.40416e-21)
(-1.84719e-06 3.08045e-06 -9.42549e-22)
(0.000460769 -0.00285433 2.69996e-22)
(0.00038328 0.000735041 0)
(-0.00076515 -0.000338254 7.27574e-24)
(2.09864e-05 3.01692e-06 5.10931e-22)
(-0.000360037 0.000799509 9.34656e-21)
(0.000180445 0.000345823 3.47751e-24)
(-8.10485e-06 2.27844e-05 0)
(-7.68168e-09 3.8118e-06 -1.34213e-22)
(-1.95337e-05 1.63859e-05 0)
(-0.000240576 -0.000610858 -4.10113e-23)
(3.99667e-06 1.42287e-05 0)
(-8.42533e-07 1.5245e-07 0)
(0.000695239 -0.000226515 -2.78984e-24)
(-0.000967078 0.000571134 -6.04793e-22)
(-0.000507462 -0.000312347 0)
(-0.000143023 0.000183903 6.38589e-22)
(1.66652e-06 -7.28501e-07 1.7809e-22)
(1.18612e-05 9.14149e-06 0)
(0.000148068 -7.03192e-05 0)
(-1.89735e-05 1.4599e-05 0)
(2.17457e-06 -9.79268e-08 3.79195e-23)
(-0.000562809 -0.000403152 -3.51976e-22)
(0.000230838 0.000347029 0)
(-0.000717096 0.000316867 -1.91994e-22)
(-3.41708e-06 -1.95319e-06 0)
(-0.000197793 0.000125996 -5.18464e-22)
(4.08666e-05 6.99922e-06 -4.65809e-22)
(8.01416e-07 -1.07221e-06 -6.41016e-23)
(-0.000373219 -5.02911e-05 3.32383e-22)
(-9.32681e-05 5.7554e-05 0)
(1.7418e-06 2.65482e-06 2.83975e-22)
(0.000129747 -0.00216192 -8.11782e-22)
(2.98352e-06 5.01585e-06 6.03835e-22)
(-8.14475e-05 -4.75274e-06 7.97039e-22)
(7.17857e-05 0.000120256 2.27644e-22)
(-0.000321966 -0.000406172 0)
(0.000878958 0.000517001 -2.06763e-22)
(6.26594e-06 4.90492e-06 0)
(-0.000590255 -0.00120838 1.67849e-22)
(0.000261827 3.44205e-05 1.61849e-22)
(6.69139e-06 8.9213e-06 -2.18991e-22)
(0.000237038 0.000319291 -2.35663e-22)
(1.13263e-05 -2.34743e-06 0)
(-8.77742e-05 -0.000295374 -4.38686e-22)
(-1.45337e-05 -5.5021e-06 7.36978e-23)
(-0.000333526 3.5699e-05 -6.88282e-22)
(8.08928e-05 -6.78848e-05 0)
(-5.08498e-07 4.10656e-07 8.03529e-22)
(-5.18479e-06 5.69423e-06 -6.04371e-22)
(0.000489038 0.000550794 1.81382e-22)
(-1.41742e-05 -6.44611e-06 -3.15971e-24)
(-9.02276e-07 5.64416e-07 3.10115e-22)
(9.91023e-06 1.35847e-05 -2.40416e-23)
(0.00146004 -0.00232344 -1.11619e-22)
(-0.00213005 -0.00247149 -1.7229e-22)
(0.00160798 0.000777391 0)
(3.47727e-05 -1.22043e-05 -7.90401e-25)
(0.000355509 -4.8619e-05 3.16926e-22)
(0.000529078 0.000859907 -7.27254e-22)
(0.000519939 0.000818996 0)
(6.91687e-06 -1.33071e-05 0)
(-0.000360463 -5.9689e-05 -1.4039e-22)
(-0.00046133 -0.00109972 1.52597e-22)
(-0.000470685 -0.000431438 -1.08475e-23)
(0.000432173 0.000681421 1.25627e-21)
(0.00024891 0.000229966 -1.77535e-22)
(0.000107644 -3.50315e-05 -3.25993e-22)
(0.000104915 5.00062e-05 0)
(6.52679e-07 2.4845e-07 0)
(-3.23134e-06 -1.95396e-06 -2.29354e-22)
(4.74171e-05 -0.00104825 0)
(-2.99382e-05 2.80239e-05 5.53792e-22)
(8.79491e-05 -6.21166e-05 5.23775e-23)
(-0.00125889 0.000955645 2.96871e-23)
(9.17865e-05 8.11973e-05 9.25865e-22)
(-1.62285e-06 -6.70961e-07 0)
(-3.43755e-05 4.86937e-05 -2.00721e-22)
(-5.53282e-06 5.47164e-06 3.13521e-22)
(-9.39192e-07 1.0287e-05 5.67728e-22)
(0.000662153 -0.0026924 -3.38741e-22)
(-0.000134532 8.07727e-05 -1.9265e-21)
(1.7795e-06 3.79991e-07 4.07959e-23)
(-3.31453e-05 2.95055e-05 0)
(-1.41946e-08 1.41687e-07 0)
(1.381e-06 1.96954e-08 1.08469e-22)
(-4.11619e-06 5.13498e-06 0)
(7.94911e-07 5.98312e-06 -7.08965e-22)
(9.2618e-07 -1.9587e-07 -4.68775e-22)
(-0.00131748 -0.000120918 1.09292e-22)
(-2.53709e-05 4.83781e-05 -6.3652e-23)
(2.2636e-05 1.03535e-06 -2.94487e-22)
(0.00147727 -0.000304118 0)
(8.37137e-07 -6.60465e-06 5.33983e-24)
(6.77563e-06 -9.87065e-07 1.07814e-22)
(-6.75675e-05 -9.69233e-05 -1.9216e-22)
(-7.9477e-07 -5.64638e-07 -2.0348e-23)
(8.30656e-06 0.000239157 8.87145e-23)
(5.45558e-06 6.95679e-06 8.48579e-22)
(-0.000333407 -0.00028452 6.74673e-22)
(-6.18216e-06 -5.42861e-06 -1.85987e-22)
(-0.000650193 -9.98049e-05 0)
(1.12954e-07 1.11907e-06 1.69521e-22)
(-0.000826341 0.000338136 -1.82151e-22)
(0.000286908 0.000213864 -3.9132e-22)
(7.07535e-05 9.2128e-05 5.15574e-22)
(4.34409e-06 8.7651e-06 0)
(8.28067e-06 8.86884e-06 0)
(1.10502e-06 -6.23191e-06 2.74539e-22)
(-8.33168e-06 -8.7466e-06 0)
(-0.000111522 4.95542e-05 -2.68735e-21)
(-0.000494059 -0.000453175 -9.32045e-23)
(-7.80683e-06 -5.60689e-06 2.15815e-22)
(-0.00137193 -5.64963e-05 1.26309e-22)
(-0.00158272 0.000773322 2.60343e-22)
(0.00213649 0.00234436 1.07433e-22)
(0.000240793 6.96818e-05 3.68984e-22)
(-3.7757e-06 6.54086e-07 -6.54786e-23)
(-0.000394529 -4.05063e-05 0)
(3.92282e-05 -1.7383e-05 -8.08249e-25)
(2.18644e-06 -1.44161e-07 -2.00742e-23)
(-1.7811e-05 1.79615e-05 -1.58713e-22)
(3.71825e-06 3.40877e-06 2.15445e-22)
(-0.000393632 -4.24782e-05 6.51107e-22)
(-1.1634e-05 4.68642e-05 5.08188e-22)
(-0.000117595 -0.000919897 1.47369e-22)
(9.07712e-06 -3.68129e-06 2.88688e-22)
(-0.00022817 -0.00144054 0)
(-0.000692587 0.00155843 0)
(0.000442363 0.00103778 -5.7056e-23)
(0.00012205 8.14806e-05 0)
(-0.000119662 7.68562e-05 1.77405e-21)
(5.02001e-06 8.2331e-06 -7.8054e-22)
(-1.27903e-06 -8.98662e-06 -3.57815e-22)
(-5.35892e-06 2.89606e-06 0)
(0.00109719 0.000603908 2.53552e-22)
(-0.000499988 -0.000485497 -1.52539e-22)
(-0.000501179 -0.00053066 2.45274e-22)
(-2.27034e-05 -0.00011552 5.37239e-22)
(-9.31428e-06 -7.55256e-06 0)
(3.11727e-06 2.07062e-06 8.16173e-24)
(-0.00128278 -0.000149561 -7.44461e-23)
(3.54713e-06 4.21244e-06 2.8348e-22)
(5.228e-05 -5.65776e-05 -5.05435e-23)
(-9.73367e-06 9.51157e-06 1.94102e-22)
(6.16894e-06 3.24109e-06 0)
(0.000248822 4.37548e-05 3.12551e-24)
(2.45706e-05 -0.000245658 -1.15907e-23)
(8.21887e-05 2.13257e-05 4.5609e-22)
(3.01171e-06 6.61434e-08 -7.61162e-23)
(-0.000485532 0.000854676 -3.44592e-22)
(0.000209748 0.000172377 4.51844e-22)
(2.62601e-07 4.18694e-06 1.3496e-22)
(0.000109721 0.000207391 3.60193e-22)
(-0.00032188 -0.000150758 0)
(-5.16168e-06 -5.0175e-07 6.7102e-22)
(-0.000685259 0.00263372 -4.71454e-22)
(0.000422589 0.000370172 -3.62419e-22)
(0.000238789 0.000512532 4.51494e-22)
(-4.69081e-06 -7.53369e-07 6.57286e-23)
(-0.000188321 6.57284e-05 -4.17097e-23)
(-0.000319996 -7.39443e-06 6.15932e-22)
(-8.4398e-07 5.4928e-07 0)
(9.31175e-05 0.000322146 0)
(0.00040318 -2.84094e-05 -4.89815e-22)
(0.000114184 -5.50416e-05 3.41249e-22)
(0.0009178 0.000771261 -2.60699e-23)
(-2.62973e-06 4.39476e-07 2.26465e-22)
(0.000521671 -7.85344e-05 2.00536e-22)
(0.000214303 0.000292288 1.86889e-22)
(-1.62097e-06 1.11212e-07 0)
(-6.26716e-06 -2.16645e-05 0)
(-3.35635e-06 4.70031e-06 0)
(-0.00102516 0.000710009 -3.05812e-23)
(3.19102e-06 -4.37494e-07 3.26264e-24)
(0.000151241 -0.000755485 -1.76918e-25)
(-0.000170858 0.000104456 -6.13026e-22)
(1.74534e-06 -1.96828e-07 1.38083e-22)
(-1.13404e-05 6.95186e-07 -2.17739e-23)
(-1.03126e-05 7.43051e-06 0)
(-2.34325e-05 0.00145374 -1.92586e-22)
(1.41159e-06 5.38713e-07 1.30884e-22)
(0.00160584 0.000293611 3.6043e-22)
(0.000301667 0.000146845 9.11218e-22)
(-0.000597782 -0.00104752 2.72822e-22)
(4.19367e-05 3.15279e-05 -8.47462e-22)
(0.000307691 1.17962e-05 9.33307e-22)
(-0.00072644 0.000323182 4.95232e-22)
(-0.000419267 -0.000558307 0)
(-4.48855e-06 5.42322e-06 0)
(-1.37091e-06 -8.24607e-06 -9.83203e-23)
(0.000871901 -0.00199921 0)
(2.16859e-06 -1.00454e-07 0)
(9.93404e-05 -8.15014e-05 2.36354e-22)
(-0.000171626 -0.000844791 1.84209e-22)
(0.000357104 0.00029181 1.37033e-22)
(-4.01209e-06 2.09996e-06 0)
(-1.51552e-05 2.46827e-06 8.08572e-23)
(-1.05575e-06 1.63636e-06 -6.13992e-22)
(0.0008506 -0.00191315 4.56913e-22)
(0.000114038 -4.7198e-05 6.63099e-24)
(-8.11557e-05 -0.000835938 0)
(3.88658e-05 -0.000150581 0)
(0.000301773 0.00105222 -2.56329e-23)