/*--------------------------------*- C++ -*----------------------------------*\
| =========                 |                                                 |
| \\      /  F ield         | OpenFOAM: The Open Source CFD Toolbox           |
|  \\    /   O peration     | Version:  v2012                                 |
|   \\  /    A nd           | Website:  www.openfoam.com                      |
|    \\/     M anipulation  |                                                 |
\*---------------------------------------------------------------------------*/
FoamFile
{
    version     2.0;
    format      ascii;
    class       volScalarField;
    location    "350";
    object      epsilon_0;
}
// * * * * * * * * * * * * * * * * * * * * * * * * * * * * * * * * * * * * * //

dimensions      [0 2 -3 0 0 0 0];


internalField   nonuniform List<scalar> 
13726
(
9.05141e-07
0.00788647
1.57012e-06
1.06643e-06
5.62363e-06
8.60179e-07
9.44197e-07
9.74466e-07
5.84828e-06
2.08864e-06
5.79152e-06
5.30318e-07
6.71572e-07
0.00758844
1.05696e-06
8.75539e-07
5.05158e-06
1.3147e-06
0.0124311
2.1373e-05
0.0121603
4.50454e-07
1.2176e-06
1.57763e-06
4.93747e-07
4.2222e-07
1.64773e-06
4.20855e-07
4.97319e-07
0.0102187
0.0167529
4.32985e-07
0.0102803
1.53226e-06
5.49535e-05
0.0065174
1.67507e-06
0.00748247
1.10445e-06
1.26915e-06
0.000124745
3.92014e-05
1.66639e-06
1.05097e-06
9.28275e-07
1.37692e-06
7.67365e-05
5.10001e-07
2.54862e-06
5.71494e-07
0.00451053
5.11614e-07
7.55634e-07
1.30892e-06
1.61279e-06
2.02179e-06
6.62905e-07
8.4469e-07
1.84492e-06
1.60311e-06
0.00353068
1.04483e-06
0.00680582
4.47429e-07
0.00988779
4.31618e-07
0.0115073
0.00987457
5.17913e-07
5.7351e-06
6.62057e-05
9.64499e-07
1.00033e-06
1.67167e-06
0.0120982
0.00390974
5.89851e-06
0.00660554
0.0115355
3.11566e-06
5.51082e-06
2.38813e-06
3.20328e-06
8.06727e-07
1.10339e-06
0.00628442
3.71694e-06
1.4965e-06
6.15099e-07
0.011575
1.42499e-06
5.86204e-06
1.38536e-06
1.60057e-06
0.00342158
0.00974134
1.91257e-06
5.29383e-07
1.16332e-06
0.000898355
1.43538e-06
2.10378e-06
1.06891e-06
6.9399e-07
2.64328e-06
5.03529e-06
3.1906e-06
7.90198e-07
1.27424e-06
1.89621e-06
2.5538e-06
6.78384e-07
0.016941
0.00595758
0.00518183
1.13006e-06
0.000195383
0.0196298
1.06783e-06
1.57251e-06
0.0260132
9.77804e-07
1.544e-06
0.0122222
0.016086
0.00723376
1.16022e-06
7.34887e-07
6.79751e-07
1.16526e-06
0.00350208
0.00871319
1.16486e-06
2.49255e-06
0.0046207
5.50685e-06
0.00884545
0.000131141
0.00095971
0.00251527
2.78511e-06
0.00474441
8.55034e-07
5.0693e-07
8.62548e-07
1.68628e-06
0.0111936
1.72366e-06
1.5039e-06
0.0118725
1.16597e-06
9.01574e-07
2.49024e-06
1.71757e-06
5.17027e-07
1.50105e-06
1.72011e-06
0.000140951
0.00328035
4.93662e-07
6.05263e-07
7.06414e-07
0.00665934
0.00841961
4.23737e-07
3.19137e-06
0.00246032
9.41359e-07
1.43294e-06
6.00887e-07
1.12403e-06
1.48495e-06
0.000268926
1.58955e-06
0.0071367
5.24569e-05
5.16369e-07
0.0162268
0.0161927
8.14732e-07
0.0138443
1.56024e-06
0.00715566
0.00195948
5.11163e-07
8.52775e-07
8.15136e-07
1.42709e-06
1.2094e-06
1.7312e-06
0.00582433
3.1432e-05
0.00948367
0.00918005
9.6069e-07
4.26941e-07
1.12076e-06
0.00482951
4.01922e-05
2.16764e-06
0.00934992
0.00013845
0.00880349
1.50352e-06
7.83699e-07
9.0163e-07
1.37242e-06
0.00353348
1.63201e-06
2.66802e-06
5.8294e-06
0.00365653
0.00970462
4.15452e-07
0.00724401
0.0115873
1.57583e-06
1.6286e-06
1.35116e-06
0.0115229
1.6583e-06
2.04576e-06
8.75605e-05
0.00664052
7.77137e-07
0.00523191
0.0123273
0.00739488
0.0102509
1.42543e-06
0.00460161
0.00826197
0.0133361
0.00695971
1.65316e-06
1.5707e-06
0.00294768
0.019984
0.000228727
0.0107201
6.88949e-07
1.2653e-06
7.97166e-07
0.0102972
0.000175259
0.00970443
1.85482e-06
1.63756e-06
5.20402e-07
4.31799e-06
0.0167532
1.66267e-06
0.0107872
1.64757e-06
2.28401e-06
2.7151e-05
1.53897e-06
0.0140139
0.00811276
1.6413e-06
2.35198e-05
0.00281805
1.93234e-06
5.28487e-07
0.00433056
0.0175932
8.92578e-07
1.55678e-06
5.04656e-07
2.10888e-06
5.46742e-05
1.63535e-06
0.017657
1.48043e-06
0.00501836
0.00379912
0.0126316
0.000407677
1.6037e-06
4.37771e-07
0.00268276
1.60009e-06
0.00750949
1.62173e-06
0.00912088
8.69113e-07
0.00687341
0.000244167
1.65206e-06
4.32137e-07
0.00736199
1.62839e-06
4.15434e-07
0.00796438
0.00367255
1.68136e-06
5.85179e-06
9.11653e-07
0.00973043
6.33941e-07
0.000174655
0.0074813
3.07066e-06
1.33633e-06
6.56604e-07
0.00259752
0.00234425
0.0143267
0.00335258
1.81284e-06
0.0119213
1.23342e-05
0.0170254
0.0156643
1.01852e-06
0.000127901
7.81406e-07
0.00643419
0.0107967
0.00392103
0.00866119
1.27065e-05
1.56851e-06
9.71736e-07
1.7158e-06
1.64378e-06
1.32776e-06
0.00266342
1.56058e-06
0.0065952
9.94502e-07
0.00847251
1.14795e-06
1.63305e-06
3.22819e-06
1.49338e-06
1.10477e-06
1.80904e-06
9.08834e-07
2.6994e-06
0.000477205
0.00951012
0.00753849
0.00687447
0.00277854
3.16865e-06
1.66206e-06
2.03503e-06
3.57653e-05
1.1402e-06
0.00466535
0.00949226
0.0114174
4.45492e-07
1.4893e-06
1.43094e-06
9.90004e-07
0.00267801
1.67505e-06
1.65709e-06
1.27001e-06
2.02975e-06
0.000969539
9.9685e-07
1.87259e-06
0.013872
0.0183976
1.20202e-06
9.40015e-07
9.91465e-07
1.30573e-05
6.60256e-07
4.44075e-07
1.3489e-06
0.00010356
9.42412e-07
4.87334e-07
0.0163746
1.92008e-06
3.18486e-06
7.79459e-07
7.35609e-07
1.15782e-06
0.00772688
0.0162188
0.0172397
0.0127385
2.05364e-06
1.08649e-06
1.56548e-06
8.90751e-07
1.51258e-06
1.43181e-06
9.74369e-07
8.36931e-07
1.60948e-06
0.0108685
0.00767988
1.91467e-06
1.66885e-06
8.87837e-07
1.17332e-06
1.47829e-06
2.60696e-06
1.61414e-06
2.05882e-06
1.60264e-06
1.17635e-06
0.0145485
0.000408018
0.00306029
1.51266e-06
0.00953426
0.0117206
3.65912e-05
1.37672e-06
0.00982906
0.00210821
0.00711468
0.00431054
0.0115007
8.73671e-05
4.1731e-07
3.29551e-06
0.00570858
7.1421e-07
0.00667673
1.14398e-06
1.48074e-06
2.77267e-06
0.0167069
0.0155641
0.0108291
0.0150918
1.75854e-06
5.77913e-07
1.01144e-06
7.16105e-07
1.70156e-06
3.41445e-06
1.07837e-06
0.00461553
5.75899e-07
0.00903163
2.40199e-05
9.51565e-07
0.00437173
5.09159e-07
4.2856e-07
6.70608e-06
7.01656e-07
0.00464788
0.0043504
5.31287e-07
0.00601799
8.31615e-07
0.010992
0.00552904
6.81377e-07
1.70624e-06
1.89471e-06
0.0103393
1.85207e-06
0.00471667
6.43271e-06
1.76496e-06
0.0108471
0.00602575
8.17225e-07
0.0166929
2.33129e-06
6.71442e-07
9.00579e-07
8.98609e-07
0.0132477
5.10152e-07
0.000141691
3.84947e-05
0.00368094
1.76075e-06
0.000118005
6.11598e-07
4.22553e-07
0.00370883
4.15755e-07
6.97189e-07
7.65486e-07
9.01211e-07
0.00728067
0.0135531
1.50373e-06
3.73285e-06
7.34035e-07
0.00802851
0.0078282
1.49246e-06
1.66442e-06
0.0104866
0.00743748
1.41172e-06
6.32985e-07
0.000136013
7.04184e-07
2.97899e-06
1.36746e-06
1.11737e-06
0.00375878
0.00252507
6.03843e-07
1.13985e-06
1.61632e-06
0.00651009
6.76389e-07
1.97774e-06
4.21304e-07
0.00436047
4.65406e-06
1.26181e-06
1.48557e-06
1.62156e-06
1.17271e-06
2.76513e-06
0.00521635
0.000169163
2.95228e-06
3.34086e-06
0.00628921
3.17084e-06
4.16593e-07
9.18517e-05
2.57482e-06
2.10223e-06
0.00532678
1.59964e-06
0.0164959
1.14288e-06
4.81942e-07
0.00349216
1.91542e-06
1.66943e-06
0.0029185
6.50893e-07
6.06749e-07
1.59519e-06
6.73311e-06
0.00548938
1.89424e-06
9.58544e-07
2.9199e-05
1.45094e-06
1.27488e-06
0.000139151
9.34384e-07
0.00459327
1.62799e-06
1.22043e-06
7.90518e-07
0.00602834
0.00790471
0.00496295
0.0007443
1.12952e-06
0.00990328
1.38643e-06
0.015527
1.53662e-05
1.74221e-06
1.19211e-06
0.00940111
2.30642e-06
0.0131116
5.14513e-07
6.01447e-07
0.0103706
1.37985e-06
0.00409071
1.22494e-06
1.71581e-06
3.08781e-06
3.66873e-06
0.00925863
0.00743164
9.34216e-07
7.93085e-07
0.000470186
1.35383e-06
0.0128276
0.00011839
5.15124e-07
0.00430925
9.86402e-07
2.4387e-06
9.08482e-07
1.69353e-06
0.00376818
1.26637e-06
0.0129076
1.51452e-06
3.29951e-05
0.00492816
1.45786e-06
1.43377e-06
1.11322e-06
9.43113e-07
8.32871e-07
0.00751903
0.0175154
0.000564169
1.44126e-06
0.000462414
0.00512259
0.0132143
1.79763e-06
0.00265956
0.00477277
1.4935e-06
1.51059e-06
5.04513e-07
0.0108049
1.55555e-06
1.55169e-06
4.87599e-07
0.00996658
0.00987122
3.24268e-06
1.09761e-06
1.79873e-06
2.68265e-06
5.03749e-07
1.53805e-06
0.0057354
6.21563e-07
0.0111778
1.25284e-06
0.00698248
1.92994e-06
1.12233e-06
0.0105381
0.00824582
1.61059e-06
0.000349882
1.59906e-06
1.56494e-06
0.00284879
3.93313e-06
0.0126095
1.66869e-06
6.25926e-06
0.00364191
1.70378e-06
5.70593e-06
1.83329e-06
0.00945584
4.61175e-07
0.000527546
1.12315e-06
1.56429e-06
1.41024e-06
0.00460138
4.60209e-07
1.46841e-06
9.09264e-07
0.000471732
0.000354964
1.85827e-06
5.99971e-07
7.95564e-07
0.00592986
0.00606772
7.60633e-07
0.00615321
5.62598e-06
0.0103624
0.00408897
5.89706e-06
2.48866e-06
0.000105228
6.65488e-07
1.24788e-06
0.0117744
1.47857e-06
1.11863e-06
2.30354e-06
6.38386e-05
1.29247e-06
5.5101e-07
1.40233e-06
1.48936e-06
0.0170159
1.84368e-06
8.33653e-07
1.48201e-06
1.83131e-06
8.62495e-07
1.42044e-06
1.5167e-06
1.21032e-06
0.0177253
5.51195e-07
1.81892e-06
9.19231e-07
1.11597e-06
7.24066e-07
1.34292e-06
5.72594e-07
3.5774e-06
1.77078e-06
0.00798126
7.94785e-07
0.0103707
1.61703e-06
0.0116905
0.0061641
2.00725e-06
1.58452e-06
1.73875e-06
1.11245e-06
7.96269e-07
2.45948e-06
1.04541e-06
7.97665e-07
0.0172299
0.0175386
4.33163e-05
0.00637269
6.63102e-07
0.00906224
6.02865e-07
6.7374e-07
5.09236e-07
1.6347e-06
0.0090023
2.2067e-06
0.0147141
1.85001e-06
5.38813e-05
0.0150807
0.000125671
4.03044e-05
1.81634e-06
1.60632e-06
1.14171e-06
1.36005e-06
8.83968e-07
0.013467
0.0107804
2.55387e-06
1.22193e-06
8.73069e-07
0.0165308
1.62041e-06
6.1802e-07
8.42211e-07
1.70503e-06
0.00685869
5.76253e-06
2.196e-06
1.0508e-06
0.00259694
0.00406934
1.51643e-06
0.00266648
4.75368e-05
1.30166e-06
0.0139828
0.00834873
0.00912796
5.52677e-07
2.06514e-06
0.00594276
1.47109e-06
0.00336827
7.94226e-07
2.56571e-06
8.04292e-07
7.10196e-07
3.53e-06
0.00641488
1.34646e-06
7.88328e-07
1.42834e-06
1.38741e-06
9.78354e-07
0.00687
0.000266158
6.96459e-07
4.83786e-07
8.35234e-07
0.0114126
6.09712e-07
0.000773805
0.0111798
0.0186612
0.0010553
0.00786616
0.0103612
0.0140472
1.4155e-06
1.1443e-06
0.0111329
6.4342e-07
0.00709256
0.0065633
0.00506769
5.48943e-07
1.33713e-06
1.4657e-06
0.00028248
4.32384e-07
0.00629825
0.000538466
0.000138201
0.0091665
7.29221e-06
0.00788262
8.16314e-07
0.0155795
1.5971e-06
0.00493738
1.46304e-06
4.11281e-06
8.76249e-07
1.73246e-05
1.66034e-06
2.7275e-06
1.49384e-06
1.13974e-06
5.34223e-07
0.0113512
6.76994e-07
1.41204e-06
0.00779634
8.48148e-07
1.39658e-06
7.97841e-07
0.00994659
7.98763e-07
8.90375e-07
2.03767e-06
5.49451e-07
1.42624e-06
7.22956e-07
0.00726004
1.47222e-06
4.91469e-07
5.91538e-06
0.00092832
8.95462e-07
8.53286e-07
0.00882074
0.00850768
2.57145e-06
8.64804e-07
0.0107871
0.00976818
0.00294772
5.67991e-06
0.00697117
1.59404e-06
9.19881e-07
1.52367e-06
4.87653e-07
1.10928e-06
0.00262882
1.99723e-06
0.00374172
5.35853e-07
3.04151e-06
7.7832e-07
1.86578e-06
0.00200123
0.00412275
9.68708e-07
1.60576e-06
2.83601e-06
6.14356e-07
7.11018e-07
5.35928e-07
0.011737
0.00733592
1.62309e-06
7.21821e-07
1.49834e-06
8.62529e-07
0.00552324
1.45373e-06
1.13345e-06
0.00702233
1.79955e-06
3.70409e-06
1.34982e-06
0.0204476
0.000282283
1.59144e-06
1.55098e-06
0.00254306
0.000120948
1.5848e-06
0.00290234
0.00583819
0.0082706
0.0100571
0.0103951
0.00333992
2.59226e-06
7.85015e-05
5.21371e-07
6.97226e-07
0.0110485
7.9679e-07
0.00471468
1.15215e-06
0.00280205
0.00775433
1.67775e-06
0.00860776
0.00955159
0.00233616
1.5663e-06
9.41106e-07
6.61604e-07
3.74495e-06
0.00792431
6.05803e-07
0.0116993
1.78827e-06
0.00322624
3.18878e-06
1.21137e-06
0.000231116
8.2007e-07
0.000217664
1.59047e-06
8.42895e-07
8.88414e-07
0.00899046
2.60403e-06
1.58249e-06
0.0136584
1.37775e-06
0.000746409
1.47004e-06
0.000797837
0.0116785
0.0101946
1.01371e-06
5.23426e-07
2.20548e-06
1.14647e-06
0.0119636
0.00503013
5.05988e-07
1.48724e-06
3.42616e-06
0.00529949
1.94481e-05
1.1861e-06
0.000795942
9.51542e-07
1.12989e-06
0.0103328
0.00927843
0.00610391
1.3482e-06
0.0181962
2.29502e-06
0.0068661
3.24749e-06
0.00110725
0.0075496
1.81196e-06
0.000784976
0.00667068
0.0119613
0.0082748
1.11836e-06
0.0104193
3.36294e-06
2.04783e-06
9.91481e-07
9.49862e-07
0.0004052
9.76531e-07
0.0184768
0.00630433
0.00905612
0.00916367
0.00722306
0.0139829
0.0112336
0.00957616
5.6057e-07
0.00041611
6.95027e-07
0.00741181
0.00399999
4.9418e-07
0.00281585
7.13052e-07
5.83318e-07
1.44596e-06
1.45865e-06
0.0177241
0.00234321
1.12572e-06
1.10128e-06
0.000169989
0.0074109
1.79632e-06
3.28067e-06
0.000676704
1.54389e-06
1.69566e-06
5.59575e-07
0.00331835
9.44081e-07
1.19632e-06
0.00030789
1.69254e-06
0.0166529
0.00755893
1.52859e-06
0.0105433
1.6802e-06
0.010954
0.00754128
0.00707515
1.56449e-06
0.000192953
1.56052e-06
0.0096684
8.92848e-07
3.02698e-06
8.75432e-07
6.65431e-07
0.00402917
1.36227e-06
1.2266e-06
0.000771404
1.9006e-06
6.06065e-07
0.00966431
9.88554e-07
8.44822e-07
0.000795446
0.0111565
1.23397e-06
0.00242127
1.17064e-06
0.0203975
1.45074e-06
1.45196e-06
1.18629e-06
5.24546e-07
1.28325e-06
0.000129284
0.00364532
6.0328e-07
0.00705738
1.81874e-06
0.00296887
6.78135e-07
5.25756e-07
5.75362e-06
2.15985e-05
9.72594e-07
1.57045e-06
0.00318912
1.16382e-06
3.75127e-06
1.61051e-06
0.00708364
0.000153704
2.14355e-06
3.09329e-06
0.011966
4.18941e-07
6.0247e-07
3.67045e-05
0.0122113
2.13451e-06
0.0100034
1.54786e-06
0.0100527
0.00842323
7.20012e-07
1.22545e-06
0.00554903
3.31862e-06
1.63343e-06
0.000270477
1.80594e-06
1.6284e-06
2.35136e-06
1.54593e-06
2.20286e-05
2.20324e-05
1.13517e-06
0.0190887
0.00328112
6.29203e-07
3.31084e-06
0.00313627
0.00694825
4.99515e-05
7.61684e-07
1.81121e-06
0.0163466
1.31239e-06
1.06036e-06
0.0119269
1.17575e-06
0.00268449
9.96893e-07
7.8782e-07
0.0100566
9.79816e-06
0.000259185
2.8031e-06
1.67342e-06
6.88701e-07
0.010706
0.000701778
1.25548e-06
5.28624e-06
0.00499919
6.46771e-07
1.22574e-06
1.59479e-06
1.72407e-06
0.0105702
8.47589e-07
5.37497e-07
2.25889e-06
7.56329e-07
0.0094016
0.0176493
0.0136859
3.24152e-06
4.4946e-07
1.30272e-06
0.00885837
5.89526e-06
0.0069778
2.16568e-06
2.00003e-06
1.66709e-06
1.64187e-06
1.48022e-06
3.41407e-05
0.0159603
1.48854e-06
0.00754994
0.0150509
4.88963e-07
0.00549708
0.00790639
0.00766904
0.000475239
4.18741e-07
0.00067926
1.9513e-05
0.00295512
8.38678e-07
1.83483e-06
0.0155037
1.44546e-06
1.36598e-06
0.0186294
2.5823e-06
0.00514527
0.00913575
2.71124e-06
0.00713179
0.010162
9.47988e-07
0.00930571
0.000258722
1.10271e-06
1.10176e-06
0.00669789
1.5001e-06
1.65463e-06
5.55999e-07
1.42847e-06
0.0155301
8.74482e-07
4.32753e-06
0.000172527
5.29871e-05
1.17205e-06
1.63889e-06
0.0115803
4.50666e-07
8.83241e-07
1.47549e-06
1.42887e-06
1.23467e-06
0.00651334
1.6488e-06
1.4302e-06
0.00360892
1.21788e-06
0.0145351
1.28322e-06
0.0171464
1.28341e-06
0.0117915
0.000889298
1.14362e-06
0.00363002
4.03309e-05
1.68842e-06
1.09354e-06
8.23535e-07
0.00714206
6.89844e-07
0.000272079
9.59923e-07
1.10658e-06
3.08872e-05
0.00799335
6.89983e-07
1.6653e-06
5.43164e-07
1.37141e-06
1.53644e-06
2.04181e-06
4.50335e-07
0.0147382
0.000805578
8.94023e-07
9.35898e-07
0.0156941
0.0084736
1.56511e-06
4.88149e-07
0.0159647
0.00258634
0.0174629
2.00819e-06
1.55048e-06
0.000285946
2.12916e-06
0.00856307
0.0171781
8.98023e-07
1.28462e-06
0.00357918
3.16063e-06
8.74158e-07
0.0166621
0.00283235
0.0181706
5.3173e-07
1.9578e-06
1.77991e-06
1.07602e-06
1.58002e-06
0.000292382
2.02075e-06
6.75216e-07
0.00893683
1.45538e-06
5.29909e-07
2.04894e-06
0.000951078
9.41772e-07
0.0163843
1.40728e-06
1.46411e-06
1.47028e-06
1.57456e-06
7.69282e-07
0.0118804
0.0104898
9.87987e-07
0.00451398
7.58262e-07
1.0769e-06
0.00165729
0.0138594
5.12088e-07
0.0116812
1.2097e-06
6.10057e-07
1.25508e-06
0.0069169
0.00382672
4.85518e-07
0.00866446
0.0116703
0.00508777
2.11324e-06
0.0155543
0.00763042
1.75117e-06
0.000470491
8.50568e-07
1.42465e-06
1.41112e-06
0.0133101
0.0084545
0.00603817
0.000470325
6.96879e-07
7.20739e-07
9.65918e-07
2.10961e-06
1.65752e-06
4.27115e-07
1.60857e-06
1.16842e-06
0.00388493
9.86742e-07
1.55529e-06
4.512e-07
0.00282327
1.22348e-06
4.18562e-07
5.47171e-07
0.00504899
1.06445e-06
1.31613e-06
1.65227e-06
0.000152485
5.29908e-07
3.50989e-06
1.85298e-06
1.43888e-06
1.5808e-05
0.00041539
1.47525e-06
0.000198436
0.0090087
1.27378e-06
1.2707e-06
1.00593e-06
9.46234e-07
1.65065e-06
2.0856e-06
1.59399e-06
0.00750463
4.2622e-07
1.40221e-06
1.06226e-06
1.40713e-06
1.2595e-06
1.55907e-06
1.29995e-06
9.65226e-07
2.63121e-06
1.65619e-05
0.00305463
8.76128e-05
5.1951e-05
3.36732e-06
4.84077e-07
3.37862e-06
0.00619277
1.27746e-06
4.86339e-05
0.00203653
0.00705078
1.49117e-06
0.00398023
1.6611e-06
0.000707863
1.02729e-06
6.67123e-07
1.48131e-06
1.75029e-06
0.00281368
2.07833e-06
0.00773299
0.0068327
0.0180354
1.07012e-06
4.93781e-07
1.41172e-06
0.0166058
8.86434e-07
8.82917e-07
0.00649693
1.09569e-06
0.00940396
1.30519e-06
3.20974e-06
6.14312e-07
5.37577e-07
0.00391724
6.694e-07
0.00278073
0.0202098
3.1251e-05
1.01262e-06
1.73984e-06
0.0130778
0.00522455
0.00205063
1.0552e-06
3.43045e-06
0.000647683
0.017257
0.0188785
9.81892e-07
1.47236e-06
6.73566e-07
9.4785e-07
1.57361e-06
2.60557e-06
4.83276e-07
1.5749e-06
0.0132338
0.00911531
0.000259844
2.56818e-06
3.14176e-05
7.13995e-07
6.83411e-07
1.65617e-05
1.655e-06
3.41601e-06
2.27515e-06
1.78298e-06
5.52181e-07
0.00212204
0.00940826
0.00518592
8.46786e-07
0.00991363
1.08786e-06
1.78815e-06
0.000521558
4.15517e-07
1.64847e-06
0.0036885
0.00168582
1.8004e-06
2.23472e-05
1.20174e-06
0.00998442
1.06099e-06
0.000418057
1.31444e-06
1.81206e-06
0.00914158
0.00677816
0.00745027
8.39523e-07
8.13284e-07
4.92965e-06
1.77564e-06
1.7488e-06
4.97171e-06
0.00697467
7.87745e-07
9.61126e-07
2.15327e-06
1.42062e-06
1.58852e-06
1.80217e-06
1.44976e-06
8.77906e-07
0.00497852
0.000139402
1.26036e-06
5.47414e-07
1.71364e-06
1.071e-06
2.57222e-06
4.8639e-06
1.04152e-06
0.00295168
0.00376666
4.37272e-07
1.56748e-06
1.64701e-06
0.0134227
2.29045e-06
8.09763e-07
8.82323e-07
4.39552e-07
1.32367e-06
0.015862
1.22799e-05
1.73789e-06
0.00889434
1.42821e-06
1.17576e-06
9.66307e-07
2.35363e-06
0.0109598
4.47012e-07
0.0147989
0.00678812
1.67457e-06
1.32945e-06
1.76425e-06
1.58201e-06
1.38558e-06
0.0147437
4.95342e-06
0.00316945
1.52694e-06
6.68827e-07
0.00713481
0.0108464
0.00494448
0.000723293
2.75473e-06
7.12679e-07
0.00229002
0.00883582
4.91601e-07
0.0121507
0.0118546
8.52057e-07
3.83142e-06
1.41306e-06
6.6018e-07
1.1327e-06
4.53227e-07
1.64686e-05
0.00449164
9.31105e-07
4.51711e-07
0.0138423
4.41135e-05
0.00038772
0.00691931
0.00924656
1.60258e-06
1.78546e-06
1.26882e-06
4.65307e-07
8.52549e-07
4.31301e-07
0.00704772
2.51423e-06
9.99259e-07
0.00561056
4.74426e-07
4.67788e-05
1.06588e-06
0.00536834
0.000248671
1.52862e-06
1.00133e-06
0.0195062
0.00736218
0.00651676
0.00780263
7.85478e-05
0.0181098
2.64406e-06
0.000381936
0.00825385
8.02852e-07
1.06376e-06
0.00363263
6.90259e-07
1.43797e-06
7.96549e-07
9.29204e-07
1.91084e-06
0.0106049
1.22661e-06
9.122e-07
2.28467e-06
1.64572e-06
0.0123075
0.00032542
1.01198e-06
0.000841126
3.00254e-06
0.000437579
1.03257e-06
0.008538
2.07583e-06
0.0115201
0.0146272
1.68206e-06
1.53593e-06
0.000259849
1.77701e-06
0.0120067
0.000429223
0.011838
2.01679e-06
2.03478e-06
7.91073e-07
0.00570254
0.000354878
0.0112581
5.22212e-07
2.72453e-06
1.75032e-06
0.00817711
0.00238846
0.000449465
0.000402755
0.000122824
0.0138251
0.0105352
8.03301e-07
5.49123e-06
0.0129884
0.0144159
2.48153e-06
1.83984e-06
0.00705915
8.03448e-07
1.49794e-06
9.53183e-07
1.80283e-06
0.00300435
0.000308489
4.93154e-07
1.69556e-06
1.36135e-06
8.71025e-06
0.00982453
1.65165e-06
0.00354768
0.00310575
0.00364355
1.00109e-06
1.48135e-06
9.68089e-07
0.0038767
9.17869e-05
0.00912321
5.80889e-07
1.43272e-06
0.000529621
1.66942e-06
0.00825259
1.41257e-06
0.0080537
0.00735414
1.52027e-06
2.01964e-06
0.00788179
1.10913e-06
1.59406e-06
0.00362599
2.10253e-05
1.10611e-06
0.00984023
5.47992e-06
0.00681765
0.00573482
0.00492332
2.56866e-06
0.00382081
0.000483769
0.00740059
0.0044053
0.010163
1.69978e-06
2.97812e-06
7.99941e-07
7.48739e-07
0.000947286
1.35948e-06
0.0027573
1.56331e-06
3.792e-06
0.00018888
1.01616e-06
1.11625e-06
1.58918e-06
0.0143179
9.19258e-07
0.0103198
5.96606e-07
0.00977956
0.00805079
7.14173e-07
0.00226975
0.00993366
0.000300171
1.08914e-06
5.95327e-07
1.19782e-06
0.0105547
1.77645e-06
5.47924e-06
1.61922e-06
0.000175767
1.98294e-06
0.00710116
0.0052093
0.000445953
0.00188721
0.00219746
2.03249e-06
1.55483e-06
0.00474363
1.70121e-06
0.000896869
1.89097e-06
0.00251317
1.55712e-06
8.81791e-07
0.00874833
9.40772e-07
4.29633e-06
0.0073836
0.0172976
1.62056e-06
0.0144856
1.6588e-06
0.00950467
3.8362e-05
8.29637e-07
1.58472e-06
8.81763e-07
0.0142455
0.0114887
0.00951041
0.00352265
7.83772e-07
2.01599e-06
0.0167477
7.19812e-07
0.00894475
8.658e-07
0.0160555
1.94099e-06
3.04734e-06
8.63786e-07
0.00469785
0.000436518
2.03034e-06
1.55237e-06
1.47866e-06
0.00382268
1.49388e-06
1.48214e-06
3.08578e-06
0.00227162
0.00232049
9.76543e-07
7.68055e-07
2.30775e-06
0.0159119
2.83392e-06
0.00662774
1.94781e-06
2.1543e-06
0.015138
0.0143422
1.8286e-06
0.007008
1.17421e-06
0.0113619
0.00689985
0.00711023
8.8518e-07
5.46348e-06
0.00218052
9.93621e-07
0.00937016
1.55865e-06
7.1466e-07
1.64874e-06
1.57773e-06
8.49656e-06
0.00316514
1.14993e-06
1.42952e-06
0.00696679
1.06844e-06
8.64114e-07
9.38156e-07
0.00856024
5.76117e-07
1.6313e-06
1.00834e-06
8.81293e-07
0.00759653
1.89574e-06
0.0100214
5.9377e-07
0.00140069
0.0080031
1.64123e-06
5.17918e-07
0.011237
1.04667e-06
1.10557e-06
1.21946e-05
0.00222383
2.31563e-06
0.00516487
1.071e-06
0.00321996
1.22874e-06
1.59544e-06
1.69601e-06
0.00288773
5.16545e-07
0.0019903
0.00784487
0.0138241
1.57247e-05
0.00281506
0.00222773
0.00489284
0.00272379
0.00701804
1.35453e-06
1.56629e-06
0.0107076
1.44332e-06
0.00517686
0.00021946
1.69009e-06
0.0105287
0.0140431
1.66815e-06
5.08679e-07
0.00770347
0.0062237
5.39731e-07
0.011978
1.55448e-06
6.57388e-07
0.000874554
0.0153557
8.71501e-07
2.06021e-06
1.56546e-06
0.0104383
1.49828e-06
0.00436788
0.000334103
1.80074e-06
5.10085e-07
1.782e-06
0.0101041
5.87258e-07
9.50445e-07
0.00360959
5.73857e-07
1.75109e-06
0.0149232
9.5124e-07
0.00865866
1.38928e-06
1.47575e-06
0.00328619
1.62713e-06
0.00214609
0.00726561
0.0116719
1.4385e-06
0.00657452
0.0106866
1.37594e-06
6.6173e-07
0.000121205
1.61289e-06
1.3465e-06
3.91532e-06
0.00687429
1.35988e-06
0.014235
0.00667653
0.00954694
0.00906138
1.54805e-06
1.14656e-06
1.13753e-06
5.54519e-07
0.00535037
1.54745e-06
0.00441094
1.0993e-06
0.00711703
8.54095e-07
8.72742e-06
0.000374232
1.64351e-06
0.00170278
2.72154e-06
2.21983e-06
0.00683591
0.00816222
1.50631e-06
1.06905e-06
0.00390305
1.55561e-06
2.5452e-06
0.00803368
0.0163561
0.0144539
0.00435554
0.00403067
1.98133e-06
0.0195312
0.0149011
0.0155332
1.3552e-06
0.000243995
1.44733e-06
1.06771e-06
0.00213673
0.00864042
0.00726849
6.22522e-07
6.35376e-07
1.7878e-06
5.89329e-07
9.55866e-07
1.72965e-06
9.22739e-07
4.42046e-07
8.33388e-07
0.0112034
0.0140315
0.00717902
1.47677e-06
0.00664947
0.0102994
1.85216e-06
8.50786e-05
4.54842e-07
1.29818e-06
1.14781e-06
3.77763e-06
0.00452177
2.4035e-06
9.06022e-07
0.0067813
1.3694e-06
4.95406e-07
0.00506745
1.5857e-06
0.00208885
1.21327e-06
0.0107181
0.00328036
0.00729226
1.47591e-06
1.43934e-06
7.9533e-07
1.7577e-06
6.93245e-07
1.381e-06
0.013864
1.81635e-06
0.00580642
1.29874e-05
4.59912e-06
3.3582e-06
0.00715684
0.00678996
7.51143e-07
1.20705e-06
1.68691e-06
5.6734e-05
0.00656135
1.61285e-06
0.00697351
1.03667e-06
6.81919e-07
1.91637e-05
0.0141349
6.34997e-07
2.17471e-06
1.62137e-06
1.57705e-06
6.11628e-07
7.8509e-07
0.00305372
1.62737e-06
1.47602e-06
2.0024e-06
0.000529872
1.09551e-06
0.00475133
0.0147373
1.67618e-06
3.27444e-06
7.23463e-07
1.77569e-06
2.0742e-06
1.51366e-06
1.37932e-06
0.0112488
0.00874825
0.00782677
0.019903
1.39597e-06
1.46348e-06
3.38954e-06
0.00802868
0.00548411
0.006848
5.60156e-07
0.000363267
0.0076397
0.0090673
0.0115367
1.00469e-06
1.41182e-06
0.00840942
0.000474202
1.25554e-06
8.84779e-07
1.51447e-06
0.0147283
5.45984e-07
1.51429e-06
0.014476
2.32996e-06
1.60201e-06
0.00739286
2.0224e-06
1.82341e-06
2.02566e-06
0.00649921
0.00816714
0.0105953
0.0159403
0.00488132
0.00763544
0.0176983
6.48571e-07
0.00482119
9.24643e-07
0.0135627
0.0101006
0.00775287
0.00693011
0.000582769
2.26038e-06
0.00512575
0.00395764
6.01931e-07
1.37455e-05
0.013357
0.00721183
0.000484154
0.0120991
0.000519079
2.07779e-06
2.16021e-06
6.33465e-07
4.99531e-07
2.20454e-06
0.00651299
1.67104e-06
0.0106491
1.0727e-06
6.64303e-06
1.29837e-06
3.03471e-06
1.38647e-06
0.00392572
0.0186852
1.8108e-06
0.00711133
8.55233e-06
0.00759443
0.00208074
0.0167594
1.39624e-06
1.06009e-06
1.89501e-06
0.0181785
2.94395e-06
0.00693834
1.71998e-06
9.95279e-07
9.11203e-06
0.0131459
1.84956e-06
7.74102e-07
0.0151221
1.80278e-06
0.00454939
0.000254155
1.34964e-06
0.000544486
0.0120685
7.76653e-07
0.0121863
0.00765645
0.00772767
0.00640453
2.02389e-06
0.0190742
2.23554e-06
1.81621e-06
4.6954e-06
6.25462e-07
9.61353e-06
0.00743024
4.71039e-06
6.49199e-06
0.00651266
3.57456e-06
8.04471e-07
2.1054e-06
5.65753e-06
1.13134e-06
0.0072264
9.84698e-07
4.03877e-06
0.0110738
0.00771933
0.00796857
0.00250328
0.0159626
1.1358e-06
5.15801e-06
0.0116096
0.0136903
7.83852e-07
5.06642e-07
0.00705623
5.02263e-07
8.55167e-07
4.36214e-06
2.35841e-06
0.0201574
8.18475e-07
0.0058095
6.67872e-06
0.00438087
4.40893e-06
1.6846e-06
3.25819e-06
9.27758e-07
1.46294e-06
0.0087333
1.4471e-06
0.0135286
0.00678175
9.59325e-07
1.53673e-06
0.0050829
5.21277e-06
2.94417e-06
6.84339e-06
2.15213e-06
0.00763359
4.57319e-06
0.00917462
0.00724241
0.00319095
0.0079225
0.0101004
0.000988794
0.00731912
0.0065085
1.68682e-06
1.59876e-06
4.30094e-06
0.0112466
4.42801e-06
0.0138514
0.00650859
1.61426e-06
1.70843e-06
0.000137134
0.00274848
0.00492943
8.4592e-05
0.0179445
1.74683e-06
1.57437e-06
1.54335e-06
0.000720133
2.66476e-06
0.00857683
1.12318e-06
0.0164015
0.0097939
9.36403e-07
1.53618e-06
0.000226234
3.89271e-06
0.00676381
1.50798e-06
1.72728e-06
4.9801e-07
1.77574e-06
7.75191e-07
0.00769765
1.14439e-06
0.00402803
1.70396e-06
0.00819384
5.51046e-07
5.66216e-06
1.71452e-06
3.73572e-06
1.29261e-06
0.00628821
2.71865e-06
5.85461e-05
1.71561e-05
0.000296664
0.0187467
4.61792e-06
0.0146559
0.00982036
0.013113
0.0024753
1.01416e-05
7.0903e-07
9.63285e-07
6.73323e-06
2.72455e-06
1.14606e-06
9.77485e-05
0.0121993
3.74082e-06
0.0100665
0.000261149
7.1366e-07
1.84155e-06
0.00863596
1.7986e-06
0.019498
0.00405709
9.95316e-07
0.00795002
0.00638984
2.26393e-06
5.51083e-06
1.40801e-05
0.00698507
1.57173e-06
0.00742722
0.00812196
1.11348e-06
0.00777897
0.00306219
4.27046e-06
0.0129729
1.29006e-06
0.00627306
0.00026966
4.6945e-06
0.00503885
1.47782e-06
5.51265e-07
3.32357e-06
8.98884e-06
0.00617902
0.000584081
0.00731774
9.66949e-07
5.71078e-07
0.00882278
0.0051078
0.0162009
2.23246e-06
0.00567385
1.80259e-06
4.73568e-07
0.0138083
7.47999e-06
0.0134445
3.04766e-06
1.82491e-06
1.81913e-06
0.0094523
4.68461e-06
0.00494061
0.0065446
0.00462789
0.0149159
0.0145465
5.67396e-05
0.0065369
8.40428e-05
0.00959167
2.79174e-06
1.43648e-05
7.22472e-07
1.7138e-06
1.32218e-05
4.65104e-06
8.13901e-07
0.0183493
0.0205514
0.0167829
1.71639e-05
1.78661e-06
0.00378042
1.18817e-05
0.00756776
1.75083e-06
0.00759707
4.3303e-05
1.66659e-05
5.64365e-06
0.00776008
3.38053e-06
5.28902e-07
1.66028e-06
0.00797712
2.27882e-06
6.48987e-07
3.026e-06
9.46287e-06
1.61841e-06
1.56735e-06
0.00769955
0.0101104
1.86715e-06
1.80059e-06
3.37964e-06
1.19631e-06
0.0110098
0.00722929
1.17946e-06
0.0191323
5.02315e-07
1.6115e-06
0.00420553
1.78041e-06
1.8147e-06
2.34119e-06
0.00193234
0.00612757
0.00972692
1.63515e-06
0.0182006
1.59523e-06
1.77055e-06
8.89897e-06
0.00804487
2.3588e-06
0.00880126
0.000386684
0.000437005
2.89954e-06
0.00770244
0.00564261
0.000279346
2.2393e-06
0.0177301
3.2573e-06
1.70173e-06
7.10803e-06
2.55038e-06
4.9316e-07
3.13254e-06
3.21712e-06
1.20028e-06
2.16813e-06
2.72505e-06
1.81026e-06
4.97035e-06
6.96541e-07
7.96759e-07
0.000201501
1.09847e-06
2.94713e-06
0.000494821
1.58584e-06
8.02147e-07
1.84648e-06
0.0110896
0.0138619
0.00211993
2.13106e-06
1.82982e-06
0.0062281
1.44597e-06
0.00452866
3.27064e-06
0.000453197
1.31823e-05
0.0191092
1.77705e-06
0.000625893
8.55082e-07
1.47294e-06
0.00828049
0.00809529
0.018599
1.7759e-06
0.0153645
0.00838704
0.01467
4.90485e-06
2.57125e-06
1.14862e-06
0.00952811
5.67054e-05
1.86288e-06
6.78607e-07
2.27024e-05
0.0143254
5.87917e-07
0.00459402
2.38062e-06
1.45905e-06
1.64319e-06
1.54656e-06
0.0104665
0.00732349
0.0079382
1.31928e-06
1.14115e-06
2.70816e-06
1.14462e-06
0.0125224
5.68261e-07
0.0196771
2.25301e-06
0.0128685
2.58734e-06
0.00756727
0.00821533
0.00591702
0.00563153
0.0171757
7.93754e-07
0.00044247
1.7379e-06
7.17462e-07
0.00649965
2.02304e-06
7.20064e-07
8.09972e-07
1.63836e-06
0.000706608
0.00243625
1.59842e-06
1.58636e-06
1.74378e-06
2.55714e-06
1.57598e-06
0.00822869
0.00212846
1.52877e-06
1.76516e-06
0.00533042
0.00712933
2.60148e-06
0.00992888
0.00735711
0.000591979
0.00571232
1.76091e-06
1.50842e-06
0.0104187
1.41299e-06
1.48486e-06
0.0107152
6.53629e-07
2.45223e-06
1.9493e-06
1.37192e-06
0.0196368
1.7978e-06
2.04999e-06
1.06233e-06
7.13328e-07
1.79023e-06
0.00223103
5.93018e-07
1.91648e-06
1.80873e-06
0.00784462
6.66009e-07
1.72733e-06
2.97239e-06
1.43451e-06
2.28832e-06
0.0147706
0.0114804
1.33065e-06
1.66831e-06
1.62067e-06
0.00853153
0.0150698
0.00410838
1.31253e-06
1.59595e-06
8.74051e-07
0.00505896
1.31926e-06
5.47684e-06
2.02967e-06
0.000206211
0.0205002
3.08078e-06
2.00358e-06
4.04279e-06
0.000692696
0.00532253
3.63471e-05
1.48366e-06
1.10874e-06
1.99229e-06
0.00357063
0.000215693
1.53222e-06
0.00550219
0.00210932
1.59852e-06
0.00209096
6.20437e-07
0.0208293
0.00574234
8.74844e-07
0.0157049
0.0150452
1.56816e-06
1.04451e-05
1.57409e-06
0.000513812
0.00282417
1.69993e-06
7.14774e-07
0.0107019
6.38319e-07
0.00176825
6.32053e-05
0.0147566
0.0107196
0.00265426
1.52689e-06
1.7805e-06
0.010074
7.14033e-07
9.31822e-06
0.00982668
0.00186851
6.75239e-07
1.41357e-06
1.74772e-06
1.39035e-06
4.66656e-06
0.0118125
1.5784e-06
1.36387e-06
0.00813699
0.0047353