/*--------------------------------*- C++ -*----------------------------------*\
| =========                 |                                                 |
| \\      /  F ield         | OpenFOAM: The Open Source CFD Toolbox           |
|  \\    /   O peration     | Version:  v2012                                 |
|   \\  /    A nd           | Website:  www.openfoam.com                      |
|    \\/     M anipulation  |                                                 |
\*---------------------------------------------------------------------------*/
FoamFile
{
    version     2.0;
    format      ascii;
    class       surfaceScalarField;
    location    "350";
    object      phi;
}
// * * * * * * * * * * * * * * * * * * * * * * * * * * * * * * * * * * * * * //

dimensions      [0 3 -1 0 0 0 0];
oriented        oriented;


internalField   nonuniform List<scalar> 
20362
(
0.368318
0.110561
-0.478878
0.000353286
0.0003067
-0.000659985
-0.119386
-0.278669
0.398054
0.331134
0.112593
-0.443727
0.155053
-0.16421
0.00915699
0.381915
0.0592798
-0.441195
0.294856
-0.522514
0.227657
0.639363
-0.475644
-0.163719
-0.17516
-0.00609155
0.181252
0.24372
-0.284787
0.0410667
-0.174986
-0.000174288
0.693455
-0.347649
-0.345806
-0.474484
0.645891
-0.171407
0.00720802
-0.00837922
0.00117119
0.477339
-0.146205
-0.600167
0.605842
-0.00567507
0.208107
-0.0654609
-0.142646
0.530292
-0.2557
-0.274592
-0.0114241
0.0121595
-0.000735357
0.204615
-0.0875523
-0.117062
-0.112797
0.116288
-0.00349118
0.658687
-0.350312
-0.308374
0.501786
-0.397004
-0.104782
0.277699
-0.397085
-0.591492
0.598488
-0.00699617
0.639125
-0.582942
-0.0561825
0.304822
-0.00466512
-0.300157
0.0642924
0.574832
-0.562087
-0.029405
0.00391788
-0.00393264
1.47605e-05
0.00397076
-0.0579319
0.0539611
-0.375955
-0.225552
0.601507
0.00230353
-0.0115287
0.00922518
0.0576964
-0.340673
0.282976
0.618832
-0.29685
-0.321982
0.0153608
-0.0128538
-0.00250704
-0.333073
0.263373
0.0696997
-0.000722965
0.00107625
0.34319
-0.52976
0.186569
-0.451657
0.0254015
0.426256
-0.0882086
-0.132898
0.221107
0.315676
0.303157
0.294169
0.383552
0.532909
-0.433813
-0.0990961
-0.123716
0.492033
-0.338217
-0.0611651
0.399382
0.752885
-0.336634
-0.416251
-0.0626637
-0.381606
0.44427
0.233705
-0.243361
0.00965598
0.424818
0.128477
-0.553296
0.0735365
-0.0461944
-0.511255
0.448592
-0.691266
0.551345
0.139921
0.302585
0.227708
0.360697
-0.341868
-0.0188288
0.601943
-0.0652599
-0.536683
0.54024
-0.728417
0.188176
-0.151025
-0.266974
0.0262959
0.240678
-0.426817
0.314818
0.112
-0.190275
0.0398115
0.150464
0.0794761
0.453433
0.000768676
-0.00122516
0.000456482
0.253364
0.405322
-0.00166426
9.6827e-05
0.00156743
-0.426701
0.619991
-0.19329
0.000581094
-0.113378
0.00463988
-0.00101476
-0.00362512
0.063144
-0.532987
0.469843
-0.186698
0.176135
0.0105637
0.369463
0.383422
0.230189
0.409173
0.705412
-0.522439
-0.182973
0.355991
0.105304
0.0120666
-0.0109993
-0.0010673
-0.00721703
0.0909488
-0.0837318
-0.00538259
-0.181316
-0.0073618
-0.0871642
0.094526
0.0119803
8.62602e-05
-0.267873
0.246365
0.0215078
0.135548
-0.223756
-0.0124464
0.207484
-0.195038
-0.263374
0.171883
0.0914908
0.649959
-0.445306
-0.204652
0.507232
-0.164042
-0.00275964
0.00290909
-0.000149448
0.229994
0.0077632
-0.237757
-0.184037
-0.269892
0.453929
0.280012
-0.644981
0.364969
-0.0942352
0.107662
-0.0134268
0.634311
-0.439035
-0.195277
-0.0199328
0.134961
-0.473178
0.306036
0.0546613
0.000936372
-0.000956003
1.96307e-05
0.00743581
-0.00513227
-0.309305
0.0297813
0.279524
0.387014
0.306441
0.267715
0.284997
-0.552712
0.072344
0.261134
0.138417
-0.399551
0.240866
0.00285473
-0.60733
0.5481
0.0592301
0.668836
-0.434601
-0.234235
-0.343595
0.508712
-0.165118
0.0395419
0.168565
-0.118014
-0.14536
-0.661314
0.46614
0.195174
-0.0250466
-0.426611
-0.121353
-0.187952
0.197951
-0.00504204
-0.192909
-0.555151
0.116922
0.438229
-0.0304539
0.0291924
0.00126148
-0.00427479
-0.154122
0.158397
0.118956
-0.141154
0.0221974
0.567457
-0.27218
-0.295277
0.355736
-0.524957
0.169222
0.00790377
0.0274085
-0.0353123
-0.101902
-0.505428
0.0994039
-0.378073
-0.00388404
0.00388404
0.412768
0.292644
0.291928
-0.384894
0.0929662
-0.0115916
0.000167495
0.00106002
0.0269151
-0.0279752
-0.000850578
-0.000196131
0.00104671
-0.250066
0.517781
-0.517821
-0.210596
-0.498265
-0.0568868
0.522867
-0.487921
-0.0349462
-0.165432
-0.0248436
0.132434
-0.126151
-0.00628283
0.469697
0.0531702
0.207323
0.0263826
0.00429898
-0.00399682
-0.000302154
0.150856
-0.171106
0.0202499
-0.00049896
-0.0011653
0.0968164
0.37804
-0.474857
-0.274309
0.336012
0.266861
-0.156508
-0.110353
-0.0335933
0.224709
-0.191116
0.00277249
0.00152649
0.126487
-0.506939
0.380452
-0.368058
0.546168
-0.17811
-0.0990234
0.480938
-0.0880587
-0.245014
0.0093551
-0.10359
0.0836619
0.256235
0.185556
-0.369593
0.00116018
-0.451926
0.20186
-0.540023
0.597941
-0.0579181
0.209973
-0.22242
0.357664
-0.448111
0.120919
0.232481
-0.3534
-0.0646781
-0.216172
0.28085
-0.214664
0.465239
-0.250575
0.00125385
-0.000317474
0.0124666
0.486125
-0.498592
0.599692
-0.174874
-0.576315
0.101831
0.00158234
-0.000813666
0.0115749
-0.0118422
0.000267265
-0.101574
-0.476359
0.577933
0.335755
-0.67935
0.114278
0.152583
0.462432
-0.167576
0.136658
0.258039
-0.394697
-0.627989
0.255664
0.372325
-0.373261
0.523842
-0.150581
-0.244526
0.365444
0.216972
-0.431635
-0.364295
0.283333
0.0809619
0.0856964
-0.0907449
0.00504843
0.46981
-0.235226
-0.234584
0.405972
0.167239
-0.573211
0.0731754
-0.0692047
0.00557593
0.0260158
-0.0315917
-0.497263
-0.04276
0.0224554
-0.0266982
0.00424278
-0.150206
-0.262953
0.413159
-0.000399535
-0.000451043
-0.00227907
-0.599013
0.230956
-0.384749
0.511236
0.575134
-0.572982
-0.00215164
-0.267315
0.403973
0.169675
0.332111
-0.27364
0.208961
0.167829
-0.172104
-0.663424
0.40749
0.255934
0.0012458
0.00267207
-0.00298052
-0.000952118
0.557462
-0.327272
-0.587949
0.486375
0.232148
0.335309
0.217166
-0.0694095
-0.147756
-0.293961
0.601943
-0.000385577
0.000148723
0.000236854
0.432419
-0.335603
0.00288624
-0.00224473
-0.000641506
0.366257
-0.308561
0.382689
0.267269
0.292059
-0.527591
0.235532
-0.329455
0.26829
-0.00531494
0.00109908
0.00421587
-0.332523
0.43037
-0.0978474
-0.203347
0.00404189
0.199305
-0.013354
0.00022982
-0.00118582
0.000598056
0.00228818
-0.385096
0.570805
-0.185709
0.0913564
-0.00565993
0.00451505
0.00746526
-0.0993014
0.377001
-0.448858
0.625579
-0.176721
0.400886
-0.0790569
-0.321829
-0.0729382
0.0162537
0.0566845
0.244474
-0.343473
0.0989988
0.173569
0.0563002
-0.14798
-0.333684
0.481664
0.000472598
0.0148882
-0.216078
0.561762
-0.345684
0.0357818
0.181384
0.000445654
-0.00105261
0.000606954
0.0774735
0.0161174
-0.0935909
-0.0181225
-0.0947471
0.11287
-0.156086
-0.280047
0.436133
-0.00210923
-0.00255899
0.00466822
-9.27218e-08
-0.000385484
0.0262141
-0.00375867
0.10314
-0.110501
-0.435096
0.0678745
0.367221
0.337231
-0.488103
0.150872
-0.000637155
0.000392845
0.00024431
-0.0389827
0.0468865
-0.524614
0.594474
-0.0698605
0.0289647
0.0360705
-0.0650351
0.329699
0.339137
-0.447729
0.422683
-0.163671
-0.497644
-0.000996891
0.00325865
0.315677
-0.463657
0.141789
0.0383528
-0.305327
0.321863
-0.328029
0.00616639
-0.339389
0.644418
-0.305029
-0.178701
-0.00845908
0.18716
1.92029e-05
-0.0304731
-0.0791044
0.0688377
-0.0869602
-0.257791
0.326075
-0.0682838
0.01871
-0.255954
0.237244
0.401951
-0.170197
-0.231754
0.412093
-0.120165
0.00534038
-0.0281769
0.0228365
-0.0112154
0.011658
-0.000442622
-0.37183
0.114039
0.368744
-0.502306
0.133563
-9.40037e-05
-0.000543152
-0.290093
0.279205
0.0108879
-0.55739
0.680591
-0.123201
0.0608331
0.0127034
-0.00290637
0.0459136
-0.0430072
-0.0541732
0.520377
-0.466203
-0.149776
0.487008
0.343059
0.30197
-0.645028
0.319763
-0.306474
-0.0132882
0.387731
0.162198
-0.549929
0.214926
0.111149
0.00111567
-0.0229035
0.0217878
0.0968302
0.269427
-0.00729662
0.0051874
0.210732
-0.170921
0.0113681
-0.0118298
0.000461697
0.454269
-0.0985339
-0.288404
0.394574
-0.10617
0.254431
-0.630386
0.308191
-0.193913
-0.0582599
0.000780965
-0.000335311
-0.303771
0.137732
0.166039
-0.00384542
0.00368239
0.000163025
-0.509287
-0.0908804
-0.00146167
0.000742868
0.000718801
-0.156549
-0.015011
0.17156
-0.0670079
0.153722
-0.580423
-0.000687083
0.000490952
0.0180915
-0.283064
-0.306956
0.59002
0.000359526
-0.000673686
-0.00464126
-0.346393
0.254145
0.092248
-0.506441
0.206
0.300441
0.346776
-0.525186
0.178409
-0.114692
-0.0114587
-0.637978
0.273102
0.364876
0.142031
-0.138267
-0.00376435
-0.0195662
0.0200404
-0.000474187
0.204073
-0.0313648
-0.172708
0.481645
-0.49071
0.00906455
0.674726
-0.124415
-0.550312
-0.000765314
-0.00121979
0.277706
-0.116796
-0.16091
0.0271907
-0.00289934
-0.0242914
-0.000466954
0.000148499
0.000318454
0.283735
-0.285624
0.00188919
-0.114896
0.0200795
0.0948167
0.026464
0.178151
-0.00142864
-0.0565032
-0.00328598
0.0842478
-0.457488
0.37324
0.531722
-0.143991
-0.608988
0.242881
0.366107
-0.000776882
-0.00198276
-0.0491308
0.0780955
0.00449199
-0.0032731
-0.00121889
-0.124469
0.00977694
-0.205231
-0.30121
0.254697
-0.404904
-0.496977
0.0961484
0.496231
-0.59238
-0.113103
0.0334607
0.448184
0.128374
0.179816
0.32981
0.181203
-0.511013
-0.000805459
0.0014312
-0.00062574
0.182903
0.365197
-0.000926079
0.000660368
0.000265712
0.724734
-0.265124
-0.459609
0.292782
-0.15505
-0.1823
0.17769
0.00461069
-0.287688
0.485726
-0.198038
0.4484
0.276333
-0.241361
0.267657
0.380212
0.141146
-0.521358
0.0207272
-0.198864
0.178137
-0.169432
0.0128834
0.00391843
0.000721455
-0.0132714
-0.000962808
-0.000498862
-0.000900747
0.000433793
-0.183869
-0.0840041
0.611603
-0.611603
0.267802
0.0519605
0.300063
-0.0583444
-0.241719
0.50042
-0.177617
-0.322804
0.00578063
0.000301134
-0.00608176
7.30083e-05
0.000650963
-0.00812824
0.00747728
0.131251
-0.480605
0.349353
0.248416
0.108241
-0.356658
-0.423401
-0.328087
0.489277
-0.16119
0.0359641
0.241742
0.361945
-0.20335
-0.158594
-0.0910711
0.335545
-0.0203523
-0.427377
-0.212048
-0.0122668
0.224315
-0.0175984
-0.256711
0.228991
-0.557078
0.148802
0.080018
-0.22882
0.000492506
0.0308638
-0.0297481
0.570268
-0.400593
0.299591
-0.484959
0.185369
0.546519
-0.337113
-0.209406
0.105621
0.29633
0.345803
0.300088
-0.334769
0.46602
0.322054
0.0788324
0.00730092
0.13473
0.516707
-0.217117
-0.39092
0.403387
-0.0750742
0.00716663
0.0679076
-0.0869634
-0.220216
0.307179
0.24277
0.00359444
0.315077
-0.531155
-0.178503
0.458515
0.415732
-0.130735
-6.85316e-05
0.00727656
0.00207613
0.0724272
-0.0745033
0.0351167
-0.0380231
0.041925
-0.0274249
-0.0145001
0.236773
-0.0632033
0.52784
-0.150495
-0.377346
0.0620636
0.230164
-0.292227
0.267374
-0.478326
0.210951
-0.493815
0.206127
0.389317
-0.128183
-0.0424648
-0.433179
-0.509605
-0.043991
0.553596
0.301066
-0.00512728
-0.295938
0.0651752
-0.0452222
-0.0199531
-4.22873e-05
0.0117003
0.0795279
-0.316646
0.237118
-0.558007
0.109148
0.489514
-0.22214
-0.437969
0.653818
-0.215849
-0.366427
0.16327
0.203157
0.197137
-0.17641
-0.154796
-0.272021
0.0247243
0.00364906
0.297417
0.35692
-0.499162
0.142242
-0.032193
0.0375334
-0.349396
0.479074
-0.129679
0.000359517
0.000894329
0.358472
-0.259946
-0.0985257
0.00116024
-0.12563
-0.0512539
-0.0636423
-0.128947
-0.00989947
0.138846
0.42743
-0.292468
0.0136923
-0.088312
0.0746197
0.197873
-0.0376063
-0.000385579
-0.000337385
-0.0738019
0.0101059
0.063696
0.0713653
0.0362967
0.407416
0.124306
0.243477
-0.628572
0.143902
-0.189162
0.0452598
-0.000961497
0.000211375
0.000750122
-0.638751
0.392714
0.246038
-0.000180532
0.186476
0.285218
-0.471694
0.112973
0.330771
-0.443744
-0.0287986
-0.170066
0.0406926
0.0243898
-0.0264814
0.00209165
0.00609672
-0.00544575
0.000511782
0.023878
-0.262859
0.260354
0.00250442
-0.102342
-0.374009
0.476351
0.503186
-0.418938
-0.414297
-0.224454
-0.254571
0.322478
-0.0679063
0.201418
-0.0575164
0.198781
0.329059
0.000817553
0.000164391
-0.000981943
0.361447
-0.463789
0.127147
-0.019883
-0.107264
0.264578
0.32974
0.227722
0.00358457
0.000993237
-0.0045778
-0.221996
0.565054
0.18315
0.436841
-0.00462106
0.177433
-0.172812
-0.0549501
0.447664
0.00178381
0.0927514
-0.0999684
0.101438
-0.449087
0.000273805
0.00835542
-0.00862922
-0.460307
-0.0492976
0.0250614
-0.0741922
0.00637725
-0.00610344
0.63155
-0.411803
-0.219747
0.258583
0.099081
-0.276299
0.127037
0.149262
0.0315143
0.000332908
-0.0318472
-0.163456
0.312258
-0.00593183
0.0363702
-0.0304383
0.170043
-0.174665
-0.265091
0.00223203
0.0938992
0.000868272
0.00204081
0.428131
-0.482304
-0.0308506
0.0319106
0.00297071
0.204513
0.120291
-0.453284
0.332993
0.332735
-0.490732
0.157997
-0.186266
0.00970348
-0.0122164
0.00251296
-0.554392
0.120411
0.433982
-0.460268
-0.0643456
0.13936
-0.134296
-0.00506393
0.102006
-0.0110569
0.390683
-0.181719
-0.208964
0.534413
-0.0881433
-0.44627
-0.578507
0.146185
0.432322
0.531603
-0.46731
0.00273186
0.00176013
-0.612496
0.329433
-0.430515
0.375565
-0.0265635
0.485323
-0.458759
0.487649
-0.154914
-0.0190936
0.0114098
-0.00170631
0.230973
0.127499
0.00354
0.226454
0.688191
-0.299161
-0.38903
-0.0189173
0.0187079
0.000209413
-0.00417324
-0.00420598
0.368663
-0.348194
-0.020469
0.268244
0.093701
-0.0332349
0.0322102
0.00102473
-0.00188476
0.00358777
-0.001703
0.342593
0.291719
-0.631764
0.285441
0.346322
-0.404172
-0.0411023
0.445274
0.28321
0.404981
0.0162504
0.187822
-0.382784
0.303727
-0.364983
-0.17508
0.540063
0.0563624
0.15437
0.000904475
-0.00134239
0.000437915
0.204111
0.37894
-0.583051
-0.299002
0.485478
-0.40207
0.33173
0.0703403
0.326029
0.30552
-0.273426
0.186463
-0.0345609
0.566164
-0.193937
0.00442893
0.189508
0.0337226
-0.212423
-0.421512
0.40116
0.332985
0.0356773
0.224428
-0.229093
-0.195792
-0.00281324
-0.200534
-0.000917329
-0.000720988
0.00163832
0.52364
-0.116224
-0.197666
0.164072
-0.180735
-0.00156522
0.0340614
0.00833846
-0.0423999
-0.23428
0.242043
-0.633749
0.349978
0.283771
0.144638
-0.00527796
-0.0115534
0.209504
-0.196395
-0.0883923
0.128288
-0.00933164
-0.436092
0.334709
0.101383
0.0756979
-0.0628228
-0.012875
-0.38101
0.449811
-0.0688018
-0.503387
-0.0500629
0.553449
-0.0743508
-0.0240469
0.0983977
-0.210075
0.244253
-0.342243
0.0979908
0.00194285
0.00256239
-0.00450524
-0.485567
-0.146196
0.156905
-0.352476
0.291416
0.06106
0.0215175
0.15326
-0.00194032
0.00102299
-0.0993412
-0.176958
-0.567117
0.162712
0.404405
-0.474263
-0.101656
0.575919
-0.552132
0.196185
0.355947
-0.571486
0.188022
0.383464
0.103899
-0.508071
0.365262
0.151445
-0.36765
-0.0344204
-0.505667
0.197961
0.307705
0.195979
0.379155
0.0228419
-0.00930887
-0.013533
0.127607
-0.000460609
0.032477
-0.0384089
0.324522
-0.225768
0.0558918
-0.436901
-0.000513051
0.0320273
0.041938
-0.371393
-0.00269491
0.0430894
-0.0403945
-0.546914
0.0726504
0.242756
0.147927
0.200899
0.369368
0.00882704
-0.0343515
0.0255245
-0.236165
0.0413721
0.194793
-0.0925857
-0.00041169
0.0929974
-0.193041
-0.368472
0.572584
0.00550055
-0.0774821
0.0719816
0.468651
-0.533911
0.000311467
-0.194681
-0.310986
0.343335
-0.275127
-0.068208
0.00849037
0.487795
-0.281794
-0.000523967
0.0078271
-0.00730313
-0.00160597
0.00104346
0.00056251
-0.135757
0.50102
-0.215409
-0.318037
0.533445
-0.111577
-0.316126
0.427703
0.307884
0.208391
-0.516274
-0.000223503
0.493311
-0.387153
0.216415
-0.180451
0.26682
0.279699
0.184024
-0.189066
-0.11052
-0.35847
0.246105
0.112365
0.00461275
-0.000224869
-0.00438788
-0.442287
0.0207746
-0.0725062
-0.129719
-0.204883
0.334602
0.0258396
0.274223
-0.0018695
-0.0187921
0.0206616
0.361622
-0.264792
0.118012
-0.557046
-0.297612
0.538928
-0.231398
-0.307531
0.119084
-0.56439
0.00846371
0.018438
-0.0269017
0.000563687
-0.0234672
0.495909
-0.236413
-0.259496
-0.140274
0.441697
-0.301423
0.123887
0.324897
-0.448783
0.0610887
0.0671995
-0.00133308
-0.0104967
-0.0883172
0.291211
-0.202894
0.327184
-0.19881
-0.000644542
0.00146209
0.357768
-0.109352
-0.1305
0.407083
-0.276583
0.128187
-0.512622
0.384435
0.0279627
0.0372125
-0.275363
0.337427
0.634619
-0.447573
-0.187046
0.0706967
-0.574083
-0.00572755
0.114919
-0.109192
-0.0365511
0.0453781
0.158112
-0.189476
0.208097
0.338922
-0.547019
0.248222
0.0355123
0.0411556
0.183553
-0.403134
0.531321
0.526228
0.0853753
0.017065
0.0057769
0.636696
-0.400266
-0.23643
-0.00679361
-0.00317144
0.00996505
0.433431
-0.0133298
-0.420101
0.000687215
-0.00118374
0.000496526
0.27922
-0.230572
-0.0486476
-0.474362
0.109379
0.000297616
-0.00327814
-0.000496035
-0.000430045
-0.104362
-0.353566
0.477453
-0.0885153
0.403333
0.0154371
-0.35611
0.00199647
-0.00535097
0.00335449
-0.204387
0.195928
0.0202828
0.0216422
-0.09922
0.00183244
0.175601
0.00393906
0.255277
-0.175972
0.167032
0.00894
-0.288804
0.0420893
0.246715
0.0672609
-0.0535686
0.674095
-0.404051
-0.270044
0.216327
0.279582
0.564819
-0.329824
-0.234995
0.576606
-0.210592
-0.366014
0.41612
-0.379599
-0.0365212
0.0260371
0.190378
0.417576
0.256519
-0.42106
-0.131073
-0.180815
0.296398
-0.407975
0.134444
-0.48384
-0.324864
0.507767
-0.204123
0.592301
-0.388178
0.287843
0.23545
-0.523292
0.0382147
0.0654977
-0.103712
-0.115908
0.189481
-0.551197
0.361716
-0.0110687
-0.00521984
0.0162885
0.181876
-0.180044
0.00393899
-0.0404901
0.0714568
-0.0613509
0.000162271
-0.24555
0.225387
0.0201637
-0.349373
-0.113026
0.462399
-0.284785
0.405076
0.0111612
0.42227
-0.009332
-0.0636062
0.128691
0.204295
0.321874
0.242945
0.0882338
0.401036
-0.48927
0.47632
-0.107577
-0.496809
0.410036
0.0867727
-0.148998
-0.340145
0.489142
0.29414
0.12198
0.257737
0.105726
-0.363463
0.000623612
-0.126547
-0.163796
0.290344
-0.612679
0.37276
0.239919
0.283096
-0.154405
0.480844
-0.186675
0.181865
0.423978
0.207856
0.181461
-0.329777
0.200057
0.109222
-0.547191
-0.00138195
0.0381257
-0.0367438
0.358666
-0.507664
-0.251774
-0.475742
0.57189
0.173976
-0.519309
0.345334
0.337315
0.1675
-0.504815
0.306585
-0.422863
0.116279
-0.487445
0.148056
-0.177117
0.00332019
0.173797
-0.0684915
0.281208
-0.212717
-0.0259893
0.034453
-0.239104
-0.303679
0.542783
0.00508196
0.154983
0.330904
-0.485887
-0.0108403
0.00404664
-0.000293574
0.00864899
-0.290019
0.291667
-0.00164803
-0.378023
0.12351
0.254513
0.0638587
0.196748
-0.260607
0.51393
-0.339954
-0.249838
-0.310415
0.560253
0.1974
0.290395
0.169432
0.35441
-0.488942
-0.0322325
0.044103
0.00181055
0.121262
0.0233765
0.000897391
-0.00981871
0.00892132
-0.237731
0.49181
-0.254079
0.00330692
-0.001567
-0.00173992
-0.572595
0.416327
-0.442891
-0.392211
-0.044026
-0.288497
0.00148783
0.00181909
-0.277809
0.0465506
0.231259
-0.0821173
0.0841934
-0.00370096
-0.285103
-0.145329
0.0163819
-0.0348879
-0.181385
0.559425
0.126947
-0.308266
-0.0969392
-0.255537
-0.208132
-0.291605
0.499738
-0.125797
-0.311357
0.437155
0.696526
-0.33133
-0.0116921
-0.000524357
-0.0442164
0.0481554
0.214015
-0.0945103
-0.302494
0.552888
-0.191162
-0.361726
-0.0269427
0.0270861
-0.000143406
0.275574
-0.0944154
-0.484091
0.487176
-0.320222
-0.166954
-0.0998868
0.0134824
-0.012585
-0.236058
0.254768
0.0351905
-0.55763
0.132115
0.195069
0.00279186
-0.00178727
-0.00100459
0.275239
-0.405739
-0.00183915
-0.000535153
0.0023743
0.115603
-0.2858
-0.471167
0.346547
0.124619
0.102261
-0.0743733
-0.0278875
-2.1607e-05
-0.013846
0.0138676
-0.00119047
0.00950516
-0.00831469
0.00255989
-0.55995
0.326894
-0.113686
-0.213208
0.00401628
-0.015085
-0.522186
0.101126
0.000119585
-0.000243651
0.000124067
0.41472
-0.126877
-0.204395
0.397366
0.20736
-0.445091
0.118958
0.0915703
-0.210528
0.00168745
-0.000256253
-0.182826
-0.142848
0.396456
0.481747
-0.393513
-0.57939
0.151713
0.427676
0.176025
-0.140244
-0.30863
0.132277
-0.566878
-0.463158
0.581569
-0.118411
0.153452
0.333724
-0.100158
0.0802754
-0.180186
-0.447803
0.312527
-0.441687
0.12916
0.0959769
-0.00142035
0.0394933
-0.0380729
-0.312213
0.294615
-0.0176432
-0.0012741
-0.0874806
0.0929811
-5.15901e-05
-0.0116405
-0.171743
0.217904
-0.426036
0.111551
-0.101606
-0.0099447
-0.176866
-0.461112
0.00287802
0.0171624
0.0431023
-0.00904091
0.0172384
-0.211175
-0.369581
0.498059
-0.403769
0.204117
0.199651
-0.376035
0.447176
-0.0711411
0.0043695
-0.168942
0.164573
-0.498748
0.273196
-0.039664
-0.00326679
0.0429308
0.132782
-0.26568
0.536318
-0.116589
0.111616
0.00497233
-0.174811
0.0872583
0.00609878
-0.00612039
0.258786
-0.445961
0.187175
0.000433695
0.382536
-0.140564
-0.241972
0.0224052
-0.0242747
0.431345
-0.266096
-0.16525
-0.0940583
0.213016
0.194338
0.322794
-0.517132
0.348774
0.12819
-0.476965
0.228796
-0.322203
0.0934071
0.0229374
-0.179998
0.15706
0.206435
-0.343087
0.136652
0.503122
0.605029
-0.199562
-0.405467
0.100154
-0.095948
-0.00420578
-0.359604
-0.20549
0.565094
0.143176
-0.44987
0.306694
-0.00107619
-0.0014675
0.0025437
0.465699
-0.206914
0.659581
-0.239434
-0.420146
-0.085903
-0.487079
-0.0026335
0.000388765
-0.400753
0.0903381
0.48714
-0.376579
0.0958456
0.231048
0.628674
-0.184964
-0.443709
-0.326499
0.386938
-0.0604392
0.35488
0.201415
-0.556295
0.156672
0.0193537
0.0510572
-0.427092
-0.485274
0.545172
-0.0598987
-0.252454
0.358076
0.0777386
0.55619
-0.320658
0.410088
-0.350808
-0.00566149
-0.11632
0.121982
0.000159373
-0.000319787
0.000160414
0.179967
0.0171702
0.217503
0.335385
0.000678677
0.0124235
-0.0131021
-0.0100264
0.00950241
0.00184511
-0.0014856
-0.166296
0.00471874
0.161578
-0.00230495
0.00134214
0.343416
-0.48652
0.143104
0.360824
0.174091
-0.534915
0.430178
-0.128679
-0.301499
-0.481544
-0.00373009
-0.503961
-0.0425344
0.546495
0.000810471
-0.260238
0.234544
-0.178182
-0.15882
-0.353793
0.512612
-0.203611
0.283688
-0.0800773
0.557958
-0.211341
0.290869
-0.00307497
0.000795904
-0.000695194
0.000859585
-0.18095
-0.386168
-0.376919
-0.224596
0.233087
0.266233
0.370463
-0.220446
-0.340497
0.560943
-0.504626
0.0090906
-0.0106731
0.00158254
-0.00303181
0.110774
-0.107742
-0.0795837
0.285284
-0.205701
-0.156381
0.493695
-0.141759
-0.347353
0.564856
0.00453256
-0.0202846
0.015752
-0.116785
-0.251741
0.368526
-0.248355
-0.226007
0.000301636
-0.0760956
0.297419
-0.221323
0.228535
-0.224941
0.277711
-0.40082
0.123109
-0.00321913
0.0504584
-0.0472393
-0.349198
0.416782
-0.0675839
0.0938949
0.300679
0.506359
-0.176549
0.00060761
-0.000948474
0.000340865
0.376875
0.146765
-0.144688
-0.00118747
0.00313032
-0.00107204
-0.11418
0.114283
-0.000103114
0.061764
-0.0763074
0.0145434
-0.0932081
-6.22538e-05
0.000181838
-0.504195
0.582828
-0.078633
-0.124852
-0.0134155
0.356321
0.32427
-0.487162
0.127558
-0.00109823
0.0103002
-0.00920193
-0.519088
0.112719
-0.0516304
0.269424
0.384394
0.000520644
8.69656e-05
0.00301456
-0.00489933
-0.0626014
0.325975
-0.0425046
-0.00812754
0.0506322
0.00015928
0.36092
-0.228805
-0.109014
-0.249965
0.35898
-0.229332
0.6421
-0.208271
0.568508
-0.360237
-0.00922205
0.000592925
-0.00174676
0.00115384
0.182071
-0.577414
0.395343
-0.0963455
-0.000237333
0.0965828
0.20051
-0.269001
8.42743e-05
0.00043637
-0.0270328
0.165333
-0.138301
-0.466448
0.63424
-0.167792
0.368145
-0.525412
0.157266
-0.211551
0.548458
-0.336907
0.511319
0.200336
0.1822
-0.421658
-0.191021
0.208183
0.348007
-0.107076
-0.0095122
0.195561
-0.172624
-0.443274
0.123477
0.319797
0.0264595
0.0758013
0.373135
0.286446
0.402654
-0.0655262
-0.337128
-0.45671
0.507767
0.427235
-0.114708
0.0126251
-0.0137234
-0.0093477
-0.325786
-0.277902
0.603688
0.0803565
-0.613343
-0.110571
-0.167239
0.0865397
-0.378145
-0.00174965
-0.00147817
-0.0173139
-0.591453
0.350011
0.241442
0.296148
0.13403
0.114814
0.044639
-0.159453
-0.00664604
-0.00065058
0.174413
-0.454726
0.141037
0.313689
0.311211
0.116024
-0.1962
-0.326314
0.315557
0.184864
-0.0993773
-0.00742118
-0.106758
0.0034383
-0.126057
0.0316883
-0.0331086
-0.189615
0.0157702
0.00451638
-0.0202866
0.655494
-0.159263
-0.101017
-0.211196
-0.00502358
-0.0469827
0.0520062
-0.0944524
-0.191171
0.120432
-0.41222
0.291787
-0.0327508
0.0234419
0.0851433
-0.104065
0.0189214
-0.0119107
0.477521
-0.00411961
-0.0733625
0.152128
-0.0373137
0.0614331
-0.31523
0.253797
0.526132
-0.165308
-0.548209
0.200777
0.347432
0.150875
0.3282
0.268624
-0.475602
0.206978
0.00872308
0.0221407
-0.00379592
-0.152907
0.156703
0.00242541
-0.00183249
-0.00162769
-0.00240762
0.00403531
-0.000810004
0.000410469
-0.0144679
0.0131348
-0.0916851
-0.00377456
0.0954597
0.113323
0.00159574
0.638021
-0.210516
-0.427505
-0.400425
0.276655
0.12377
-0.454752
0.587029
-0.000392344
0.00086121
-0.000468866
-0.000358531
-0.000336664
0.149798
0.374536
-0.524334
0.00455886
-0.315831
0.514025
-0.198194
0.183919
-0.578562
0.394643
-0.433298
0.293023
-0.384465
0.537435
-0.15297
0.00251321
0.0356125
0.139823
0.221097
-0.203753
0.302752
-0.413957
0.111205
0.150198
-0.0289363
-0.000941106
-0.000664865
-0.053802
0.280364
-0.226562
-0.164479
-0.0243453
0.188824
0.461657
-0.341225
0.211336
0.36527
-0.317173
0.297876
0.000554123
-0.000149194
-0.00040493
0.357988
0.168144
-0.134656
-0.32007
0.49518
-0.127035
-0.100288
0.00271719
0.00116685
-0.000628612
0.0193365
0.333483
0.301135
-0.00160375
0.113154
-0.0880982
-0.00933682
-0.0238981
0.000502359
-0.000894703
0.0260211
-0.0310447
-0.289297
0.388701
0.0933696
-0.449325
0.355955
-0.105206
-0.506397
0.0126548
-0.0138453
0.331637
0.156013
-0.226346
0.0323996
0.193947
0.363667
-0.554829
-0.594484
0.386212
0.0643408
0.00711592
0.291138
0.106213
-0.397352
0.591933
-0.431545
-0.160389
-0.336602
-0.105085
0.20715
0.0720699
0.634255
-0.368022
-0.00621215
0.00458446
-0.525469
0.452953
0.0725161
0.172304
-0.442261
0.269957
-0.101009
0.304419
0.0887151
-0.393134
-0.000745301
-0.000203173
-0.142413
0.467255
-0.324843
-0.0422019
0.308795
0.122551
0.134185
0.274483
-0.408668
-0.298263
-0.608664
0.386668
0.309887
0.131378
-0.441265
0.468805
-0.375436
0.0276549
0.561011
-0.000512166
-0.000671575
-0.203521
-0.057398
0.260919
-0.12637
0.0856522
0.0407181
-0.336362
-0.588088
0.167439
0.420649
0.39244
-0.549768
0.157328
0.554638
0.577903
-0.30928
-0.401503
0.112206
-0.00147215
0.00226608
-0.000793925
-0.505609
0.162262
0.343347
-0.00705665
-0.170061
0.498009
-0.343026
-0.000710584
0.000316153
0.000394431
0.0253467
-0.214154
-0.0123544
0.226508
0.209167
-0.223013
0.0138456
0.0722985
-0.0816305
-0.356348
-0.2774
0.276523
0.357732
0.00545936
-0.138773
0.133314
0.0108731
-0.102558
-0.0983627
0.351791
-0.253428
-0.0010505
-0.00221355
0.00326405
0.209918
0.191293
-0.401211
-0.0867753
-0.00153674
0.0066495
-0.0491541
-0.59373
0.0105668
0.583163
0.340157
0.0313259
-0.371483
0.151449
-0.0089376
-0.142512
0.184626
-0.181306
0.252603
-0.296629
0.339098
-0.472131
0.133033
-0.0685203
0.296267
-0.227747
0.417665
-0.165062
-0.230872
-0.0250813
0.360356
-0.150438
0.228245
-0.388636
0.160392
0.00107286
-0.127969
0.126896
-0.468303
0.219948
0.0361316
0.000750904
-0.00222306
-0.153171
0.207972
-0.0706784
-0.137293
0.109049
-0.186416
0.0773665
0.0503825
-0.0536493
-0.1597
0.387944
0.359706
0.201846
-0.561552
-0.257323
0.00224966
-0.36306
-0.108107
-0.157801
0.515789
-0.00766654
0.322917
-0.46533
0.00151105
-0.0033502
-0.349672
0.519866
-0.170194
-0.335981
0.00287995
0.0972738
-0.189676
-0.467018
0.346489
0.120529
0.194674
-0.178423
0.350588
-0.25834
-0.434913
0.539476
-0.104563
-0.0103856
-0.0011431
-0.424612
0.322485
0.102127
-0.615805
0.363899
0.251906
-0.140082
0.417949
-0.277867
-0.00205366
0.0244588
0.455831
-0.200167
-0.0490534
0.38921
-0.0866066
0.258739
-0.194881
-0.00479208
0.00374158
0.421338
-0.249034
-0.184556
0.53868
-0.354124
0.219473
-0.216502
-0.114003
0.473709
0.114864
0.0329497
-0.0738208
0.000188889
0.0736319
0.0272368
0.341242
0.357294
-0.698535
-0.456423
-0.040386
0.00413357
-0.00735491
0.00322134
0.000736016
-0.263988
0.0108806
0.253107
0.480156
-0.282756
-0.0673631
0.335607
-0.29722
0.415512
-0.118292
0.113242
-0.135209
0.1353
-9.17061e-05
0.0348762
0.000460732
-0.0353369
-0.10869
0.000179756
0.00152405
-0.0017038
0.0745143
-0.00269883
-0.0718155
0.112007
-0.505862
0.393855
-0.0756562
-0.00182019
0.00483475
0.0018757
-0.00169594
-0.471767
0.349327
0.12244
0.346101
-0.653057
0.320894
0.140763
0.24551
0.204055
-0.449565
-0.00188458
-0.00346639
-0.033838
0.443926
-0.287436
0.0345409
0.000335242
-0.260512
0.301633
0.00167784
0.0378154
-0.0227709
0.249735
-0.226964
-0.0123673
0.0168998
-0.00396525
0.00809882
0.0183073
-0.238418
0.220111
-0.00559526
0.0213655
0.0576444
-0.207051
0.547382
-0.340331
0.100027
-0.115909
0.0158823
-0.12792
0.169845
0.344085
-0.118079
0.420832
-0.0111972
0.0109036
0.136764
-0.406656
-0.0969045
-0.254712
0.351616
0.637173
-0.368968
-0.268206
-0.155231
0.512794
-0.357562
0.04153
0.00155937
-0.542299
0.193283
0.349016
-0.179437
0.153391
0.0260461
0.195043
0.399431
0.410868
-0.165358
0.149905
0.321911
-0.471817
-0.375423
0.234858
0.0956756
-0.0105323
-0.158185
0.499427
-0.329066
0.53725
0.332901
-0.169631
0.298383
0.143314
0.401182
-0.096763
-0.0929173
0.00575314
0.130256
0.363626
-0.518858
0.000135068
0.000419055
0.216226
0.375708
-0.0839102
0.0100894
-0.425818
-0.189987
-0.0436548
0.0429797
0.000675082
0.069663
-0.372098
0.302435
0.0936689
-0.09348
-0.310709
0.405935
-0.0952261
-0.476619
0.0594848
0.175059
0.235729
0.175139
0.0853141
0.237164
0.356738
0.331447
-0.542998
-0.00124019
0.000529607
-0.171932
0.445997
-0.274066
-0.133695
-0.338436
-0.372083
-0.176126
-0.469807
0.144021
-0.012215
0.15186
-0.139645
0.000461804
-0.001538
-0.422287
0.250355
-0.0858959
0.314692
-0.605719
0.191368
0.414351
-0.1251
0.431684
0.321236
0.185123
-0.0138225
0.23126
-0.217438
-0.0901506
-0.390454
0.0702771
0.00423719
-0.401414
0.296459
0.104955
0.474358
-0.142721
0.204819
0.334109
0.0295165
-0.00350074
-0.00165996
0.00290577
0.32914
0.199977
-0.529118
0.507989
-0.395982
-0.000889012
-0.000546542
-0.000795848
-0.0731697
0.0103468
0.268499
-0.212199
-0.108168
0.308505
-0.437498
0.0882999
-0.0350704
-0.228918
0.0624477
0.0012494
-0.0636971
0.000448209
-0.114574
-0.16145
0.0696638
-0.0937107
0.210389
-0.00122155
0.382876
-0.188538
-0.00434707
0.0767743
0.220374
-0.0568587
-0.163515
-0.0300263
-0.00308233
-0.102265
-0.506399
-0.262371
0.323804
0.192443
0.287713
-0.447406
-0.0565543
-0.282347
-0.119155
0.141614
0.261274
-0.0270699
-0.234204
-0.189743
0.462845
0.108403
-0.112178
0.024098
0.503328
-0.527426
-0.420991
-0.167097
-0.294819
0.259748
-0.262209
0.260706
0.00150316
0.173407
-0.52059
0.347183
0.0423128
-0.0418521
-0.308644
0.45182