/*--------------------------------*- C++ -*----------------------------------*\
| =========                 |                                                 |
| \\      /  F ield         | OpenFOAM: The Open Source CFD Toolbox           |
|  \\    /   O peration     | Version:  v2012                                 |
|   \\  /    A nd           | Website:  www.openfoam.com                      |
|    \\/     M anipulation  |                                                 |
\*---------------------------------------------------------------------------*/
FoamFile
{
    version     2.0;
    format      ascii;
    class       surfaceScalarField;
    location    "200";
    object      ddtCorrDdt0(phi);
}
// * * * * * * * * * * * * * * * * * * * * * * * * * * * * * * * * * * * * * //

dimensions      [0 3 -2 0 0 0 0];
oriented        oriented;


internalField   nonuniform List<scalar> 
19765
(
-2.69936e-05
-6.63696e-05
9.33642e-05
-0.000125988
0.000215771
-8.97825e-05
-4.38798e-05
5.47673e-05
-1.08873e-05
2.35346e-05
-7.36318e-05
5.00968e-05
4.38318e-05
-4.39507e-05
1.19313e-07
-0.000226029
0.000134145
9.1882e-05
7.08706e-05
-7.42078e-05
3.33773e-06
1.34273e-05
4.99359e-05
-6.33636e-05
4.78374e-05
3.67363e-05
-8.45735e-05
1.25939e-05
2.92066e-05
-4.18004e-05
0.000105369
-6.94384e-05
-3.59308e-05
-8.03769e-05
8.40876e-05
-3.71133e-06
-6.75991e-05
1.64475e-05
5.11522e-05
8.29471e-05
-1.20764e-05
-3.42223e-05
8.81976e-05
-5.39756e-05
5.95153e-05
-1.56832e-05
0.000127009
-0.000126714
-2.95909e-07
-5.3649e-05
4.3572e-05
1.00757e-05
7.15874e-05
4.1225e-05
-0.000112812
-9.45527e-05
-0.000215459
-2.398e-05
4.45311e-05
-2.05515e-05
-3.3001e-05
1.4996e-05
1.80051e-05
-1.05247e-05
-2.24765e-05
-8.02603e-05
0.000100423
-2.01623e-05
2.17105e-05
-6.559e-05
-0.000103206
4.49009e-06
9.87153e-05
-5.50658e-05
6.14424e-05
-6.37644e-06
-1.13921e-05
2.6388e-05
-4.48494e-05
1.0609e-05
3.42407e-05
-1.63091e-05
2.69478e-06
1.36142e-05
3.78495e-06
-8.04068e-05
7.66216e-05
7.96985e-05
-6.60506e-05
-1.36478e-05
8.78672e-05
-8.21436e-05
-5.72292e-06
0.000132008
-7.03749e-05
-6.16326e-05
-3.47949e-05
0.000106382
-3.25306e-05
5.60653e-05
-2.87271e-05
1.82027e-05
-5.82466e-05
2.92757e-05
2.89702e-05
8.02429e-05
-5.61226e-05
-2.41199e-05
-0.00011553
3.03763e-05
8.51541e-05
-1.71525e-05
7.90356e-05
-6.18831e-05
-0.000110061
2.84468e-05
8.16141e-05
5.66621e-05
-4.3235e-05
-5.80131e-05
8.46384e-05
-2.66254e-05
-7.93041e-05
5.11645e-06
7.41879e-05
2.64733e-05
-7.83608e-05
6.0027e-05
1.83318e-05
-5.07668e-05
7.63765e-05
-2.5608e-05
0.00013758
-7.03017e-05
-6.72809e-05
2.90089e-06
1.2782e-05
-1.56826e-05
7.32171e-05
-6.94323e-05
-0.000165854
-5.66125e-05
1.65737e-06
-1.79664e-05
-4.48493e-05
-6.50412e-05
-0.000160989
-9.93652e-05
-1.06961e-05
0.000182001
-0.000177285
-4.71649e-06
-4.5102e-05
1.26705e-05
3.24319e-05
-1.87723e-05
3.13662e-05
-0.00010165
1.70734e-05
8.45771e-05
2.78515e-05
9.91575e-05
-1.67779e-05
-2.83245e-05
2.27584e-05
-9.905e-05
7.62905e-05
-8.39343e-05
-3.15957e-05
-8.0759e-05
-2.24462e-05
0.000219785
-0.000179707
-4.00784e-05
-0.000208194
8.22088e-05
8.49774e-05
-6.54583e-05
-1.95189e-05
-5.33149e-05
-1.75098e-06
-1.39428e-05
-3.97068e-05
-5.89342e-06
2.09573e-06
3.79737e-06
0.000126764
-0.000104007
-7.81908e-05
5.89278e-05
1.92652e-05
0.000288662
-0.000165287
-0.000123378
-8.06108e-05
0.000121368
-4.07581e-05
7.83451e-05
-1.50451e-05
-6.33016e-05
-8.16528e-05
0.00010027
-1.86171e-05
-3.1053e-05
8.65349e-05
-5.54811e-05
9.28547e-05
-2.63166e-05
-6.65377e-05
-3.8622e-05
0.000133856
-9.52336e-05
-3.63865e-05
2.93489e-05
7.03869e-06
5.2981e-05
-0.000103918
5.09365e-05
2.73725e-05
8.01913e-05
-0.000107565
2.84651e-06
4.28009e-05
-4.56468e-05
-7.42153e-05
-5.08862e-06
-8.22164e-06
-3.62487e-05
4.44701e-05
-2.28557e-05
4.87046e-07
2.2368e-05
-4.66723e-05
0.000103436
-5.67634e-05
-9.57269e-05
4.90546e-05
-4.38532e-05
1.98734e-05
4.2217e-05
-1.04802e-05
-3.17369e-05
7.76602e-05
-7.34243e-05
-4.23531e-06
9.44128e-05
-5.34305e-05
-4.09821e-05
-2.73423e-05
9.77506e-05
-7.04092e-05
2.6861e-05
-9.16661e-05
6.48059e-05
-9.40768e-05
5.10088e-05
4.30681e-05
-2.67684e-05
-9.61814e-06
-2.14297e-05
-3.55614e-05
5.69912e-05
-8.37017e-05
2.56888e-05
0.00015668
-0.000107049
-4.96311e-05
-0.000176314
7.76279e-05
9.86881e-05
-7.91282e-05
2.83632e-05
-7.05348e-05
-2.5758e-06
7.31075e-05
-7.50253e-05
9.17132e-06
6.58535e-05
-5.01664e-05
-2.80238e-05
1.38983e-06
-3.14753e-05
3.00852e-05
-1.6502e-06
8.00088e-05
-7.83571e-05
-8.53223e-05
-1.63276e-05
0.000244192
-5.27373e-05
-0.000191455
7.40518e-05
-5.20091e-05
-2.20423e-05
-6.22878e-05
4.77698e-05
1.45177e-05
6.72732e-05
1.24255e-05
2.34447e-05
0.000123781
-5.79099e-05
-6.58703e-05
-5.69973e-05
-0.000119316
9.16515e-05
-3.78367e-06
8.22646e-05
-4.9544e-05
-3.27187e-05
-8.2883e-05
9.19171e-05
-9.03347e-06
-5.83065e-06
-8.44982e-05
9.03286e-05
-4.5085e-05
-1.72032e-05
9.07535e-05
-6.38918e-05
8.54982e-05
-7.50011e-05
-1.04973e-05
9.33611e-05
2.77665e-07
3.24449e-05
-4.06685e-05
-1.80906e-05
6.09051e-05
-4.2815e-05
3.27041e-05
3.41656e-05
-6.68709e-05
5.60132e-05
2.49408e-05
-8.09536e-05
9.39131e-06
-4.96411e-05
4.02504e-05
-1.77839e-05
2.06848e-05
-4.53014e-06
9.46227e-05
-9.00926e-05
6.41775e-05
-2.90558e-05
-3.51215e-05
-1.08213e-05
-0.000116092
0.000126912
4.77118e-05
-0.000112661
4.43396e-05
6.83218e-05
-8.77525e-05
9.56143e-05
-7.86008e-06
-5.64218e-05
0.000117261
-6.08417e-05
7.64686e-05
-2.8631e-05
5.53577e-06
-7.6072e-05
6.17259e-05
1.23262e-05
4.68806e-06
-7.97133e-05
-1.92502e-05
-8.13402e-05
7.37611e-05
3.30625e-06
-7.7067e-05
-7.12936e-05
-2.30049e-05
9.42991e-05
-9.02279e-05
8.35018e-05
6.7267e-06
-1.4412e-05
-6.59652e-05
0.000116684
-0.000120385
3.69707e-06
9.11148e-05
4.64644e-05
-1.70964e-06
-2.37458e-06
4.08398e-06
-5.06402e-05
6.45241e-05
-1.38829e-05
-8.99909e-05
0.00010611
-1.61182e-05
6.75239e-05
-8.48827e-05
1.73594e-05
-8.39336e-05
6.84394e-05
1.54943e-05
0.000149638
-2.55294e-05
-3.27171e-05
1.18015e-05
1.67543e-06
-1.34767e-05
-0.000127282
7.08598e-05
-3.69517e-06
-2.59869e-05
2.96819e-05
7.03161e-05
-8.74685e-05
-6.54335e-05
5.13043e-05
1.41287e-05
6.75675e-05
6.44405e-05
4.29714e-06
5.1433e-05
-5.57303e-05
8.38226e-05
-2.78093e-05
-9.00369e-05
7.15403e-06
-6.18883e-05
-2.20455e-05
-8.25591e-06
8.2838e-06
-2.83104e-08
-3.07903e-05
-7.89355e-05
0.000109724
-9.19628e-05
8.52314e-06
8.34387e-05
-9.38971e-05
7.46484e-05
-3.3481e-05
5.51916e-05
-2.48487e-05
-9.77858e-05
3.41741e-05
-5.24579e-05
1.82835e-05
5.52591e-05
-0.00022111
2.10666e-05
-6.7783e-05
4.67166e-05
-3.10239e-05
-3.65749e-05
-2.40483e-05
-6.37557e-05
8.7804e-05
-6.51001e-06
-8.09846e-07
7.31974e-06
0.000168476
2.14793e-05
4.38829e-05
-6.53619e-05
-5.8968e-05
6.15209e-05
-2.55338e-06
2.48225e-05
-6.092e-05
3.60974e-05
-2.39653e-05
-3.06027e-05
5.45678e-05
8.35353e-05
-8.93662e-05
-9.98397e-05
1.38493e-05
8.59857e-05
7.90025e-05
-5.79358e-05
-8.18793e-05
7.27167e-05
9.16313e-06
-3.83753e-05
-3.93328e-05
7.77083e-05
-9.03606e-05
2.60919e-06
0.000104983
0.000114802
1.71594e-05
-1.68813e-05
-2.7758e-07
-8.18596e-05
-8.36763e-06
0.000123286
-0.000134106
1.25337e-05
0.000110751
5.22558e-05
-8.30475e-05
8.59343e-05
-1.84099e-05
-9.4011e-05
9.23617e-05
3.06966e-05
-6.71219e-05
3.60691e-05
-8.16758e-05
7.32416e-05
8.43488e-06
-2.6738e-05
-9.99765e-05
5.64338e-05
-2.22599e-05
8.25085e-05
-8.70411e-05
4.5336e-06
-6.47892e-05
-2.16125e-05
8.64014e-05
-1.62601e-05
-4.62313e-05
6.24916e-05
-0.000102787
9.35427e-05
9.24343e-06
-8.40414e-05
1.42217e-05
6.98197e-05
-6.6753e-05
3.76972e-05
-9.12667e-05
2.93939e-05
6.18734e-05
6.76438e-05
-0.000123143
5.54994e-05
1.19883e-05
-6.26281e-05
-3.8294e-05
0.000162761
-0.000124469
8.35736e-05
7.31074e-05
-9.76927e-05
1.74327e-05
-2.41231e-06
-3.48138e-06
8.35155e-05
-8.80458e-05
5.50318e-05
-7.12921e-05
7.3189e-05
-2.02084e-05
7.48411e-05
-4.77073e-05
-2.71331e-05
-4.07949e-05
0.000121088
6.08877e-05
-2.2517e-05
-3.83725e-05
2.71927e-05
3.36924e-05
-7.57782e-05
4.15558e-05
-1.89972e-06
-3.62967e-05
3.81968e-05
-3.20851e-05
6.36607e-05
-3.1575e-05
-6.62828e-05
6.23288e-05
3.95383e-06
-9.44245e-06
-1.07673e-05
2.02095e-05
2.13654e-05
-5.23892e-05
-7.71394e-05
-1.48237e-05
-3.28339e-06
1.72164e-05
-5.39888e-05
-4.94197e-05
0.000103409
-9.67043e-05
6.72101e-05
2.94931e-05
8.81424e-05
-5.17364e-05
-1.68086e-05
6.85455e-05
2.12884e-06
-3.83856e-06
-0.00019468
0.000117137
7.75431e-05
-6.61532e-05
-3.1748e-05
9.79013e-05
-8.06084e-05
4.94705e-06
7.56608e-05
4.61773e-05
1.27526e-05
2.61051e-06
-1.53511e-05
1.27386e-05
0.00014849
-0.000135957
-4.26146e-05
5.13884e-05
-8.77441e-06
-2.88759e-05
0.000100929
-7.20539e-05
5.14441e-06
-8.91859e-05
8.52356e-06
7.69746e-05
5.61278e-05
-3.46483e-05
5.93093e-05
-9.40219e-05
3.47115e-05
2.58574e-05
-6.46433e-05
3.87867e-05
9.15845e-05
-9.07545e-06
4.55132e-05
-9.76385e-05
5.21266e-05
3.0011e-06
-9.95116e-05
7.54632e-05
4.32804e-05
5.11327e-05
-2.01609e-05
1.07186e-05
0.000122551
-5.8659e-06
-4.53866e-07
-5.97902e-06
6.43258e-06
-1.02612e-05
3.7515e-06
-4.24597e-05
-4.43693e-05
8.68286e-05
1.34589e-05
-4.34053e-05
7.90861e-07
6.36213e-05
-4.0549e-05
-2.30718e-05
3.19425e-05
5.99744e-05
4.82736e-05
5.70958e-05
2.46751e-05
-9.53498e-05
-0.000186625
1.24386e-05
-8.37322e-05
-5.53625e-05
-3.60544e-06
1.76566e-05
-6.96656e-05
-5.84513e-05
3.44858e-05
8.50067e-05
3.87746e-05
-6.24498e-05
-3.83323e-06
7.57195e-06
-1.26508e-05
5.07832e-06
5.33047e-05
-8.90466e-05
3.57418e-05
2.92672e-05
2.16067e-05
-5.08724e-05
-7.09751e-05
-1.07287e-05
8.17034e-05
-5.73101e-05
-8.12355e-06
8.02018e-05
-2.68642e-05
-5.33377e-05
-9.92848e-06
1.25378e-05
4.54843e-05
3.67802e-05
-5.021e-05
2.87804e-05
0.000149784
3.22164e-05
-4.43517e-05
8.10255e-06
5.37153e-05
9.90646e-06
3.46964e-05
-7.02576e-05
-0.000116812
0.000112631
-3.32994e-05
-7.93299e-05
-3.61348e-05
3.42353e-05
3.04067e-06
7.97446e-05
-9.38766e-05
-1.48634e-05
0.000108738
-6.43774e-05
9.17494e-05
0.00017495
-0.00020173
2.67779e-05
2.54797e-05
-6.66215e-05
4.11419e-05
-5.89883e-06
-5.2637e-05
6.90845e-05
8.35732e-05
-7.27211e-05
-1.08519e-05
-4.73926e-05
-4.93117e-05
-2.9607e-05
8.79965e-07
8.99968e-05
-4.44832e-05
4.68649e-05
-4.41236e-05
-2.74112e-06
5.08697e-05
-5.08696e-05
-5.49661e-05
5.0815e-05
4.15092e-06
-5.94377e-05
8.11505e-05
-2.17127e-05
5.60503e-05
-0.000167729
0.000111677
-0.000104315
5.81735e-05
4.61417e-05
-8.53007e-06
7.99781e-06
5.31629e-07
-3.41317e-05
5.73575e-05
-2.32259e-05
-2.02643e-05
4.90887e-05
-2.88247e-05
0.000195059
-0.000120375
-7.46831e-05
-0.000107114
2.17924e-05
3.84428e-05
-5.99725e-06
-1.71392e-05
5.2769e-06
1.18622e-05
-7.78008e-05
0.00016215
-8.43493e-05
8.24877e-05
-0.000142412
5.9925e-05
-6.70981e-05
8.19853e-05
-1.48874e-05
-6.91416e-05
-6.6153e-06
7.57565e-05
-5.07093e-05
3.26185e-05
8.51356e-05
-1.13745e-05
-3.41323e-05
6.51412e-05
-3.10088e-05
0.000213988
-3.40959e-05
-0.000179894
5.9482e-07
5.75674e-05
-9.63327e-05
3.87661e-05
-9.96078e-06
3.92287e-05
-2.53022e-05
-2.97862e-05
5.50881e-05
0.000189676
-0.000133627
4.39196e-05
-0.000108297
-0.000164078
-3.54446e-05
3.97416e-05
-9.21955e-05
-1.05919e-05
4.88055e-06
-3.61522e-05
3.12718e-05
-0.000198449
0.000141838
4.44299e-05
1.28609e-05
-5.72911e-05
-5.41901e-05
7.81829e-05
-2.39923e-05
-4.75462e-05
6.57665e-05
-1.82199e-05
8.17004e-05
-0.000101161
1.94608e-05
-4.72427e-05
7.31005e-05
-8.52132e-05
2.04236e-05
-8.34401e-05
1.63419e-05
2.92037e-05
3.17011e-05
-9.72446e-05
3.85732e-05
5.86714e-05
-7.36486e-05
8.74946e-05
4.9157e-05
-0.000193336
0.000144178
9.20976e-05
-1.44562e-05
-7.76403e-05
-7.25215e-05
1.87207e-05
5.38001e-05
-9.63547e-05
3.02015e-05
5.79055e-05
-1.88865e-05
-0.00017956
-7.00903e-05
1.83546e-05
-8.90398e-05
6.01637e-05
-3.70571e-05
7.37938e-05
2.55496e-05
-5.7634e-05
-6.95945e-05
2.84447e-05
0.000120824
-0.00012779
6.96704e-06
-8.65031e-05
5.89482e-06
3.26344e-05
7.08019e-05
-3.09627e-05
9.86073e-05
1.95296e-05
-0.000113406
2.63094e-05
-5.16312e-05
7.96996e-05
-2.80686e-05
1.32543e-05
-5.26328e-05
3.93781e-05
5.99603e-05
-1.11839e-05
-4.87755e-05
-1.61684e-05
-6.55073e-05
-2.06353e-05
-8.64789e-05
0.00016125
-6.89245e-05
7.16613e-05
-2.73804e-06
6.48401e-05
-3.21368e-05
-3.6549e-05
5.79146e-05
0.000143109
-6.16819e-05
-8.14271e-05
9.53248e-05
-3.60153e-05
-5.86986e-06
6.19978e-05
2.00564e-05
9.77274e-05
-4.01599e-05
-2.78031e-05
-3.47376e-05
6.2541e-05
-8.69999e-05
-2.99069e-06
7.73822e-05
-1.30891e-05
-6.42923e-05
6.81288e-05
5.69541e-06
-7.10979e-05
6.54023e-05
-7.30138e-05
-8.86504e-06
7.48011e-05
-0.000105439
3.06395e-05
-8.02031e-05
6.23972e-05
1.78059e-05
-0.000119776
6.65476e-06
0.000113124
-6.02824e-05
-6.28601e-05
-8.01287e-05
6.39617e-05
2.24675e-05
4.56771e-05
-3.62855e-05
1.80546e-05
8.5444e-05
7.06547e-05
-9.79969e-05
1.70694e-05
-3.45965e-05
1.75269e-05
-2.57265e-05
-0.00015156
-3.90764e-05
-6.5239e-05
2.77767e-05
-0.000101428
7.94142e-05
6.52055e-06
-8.04564e-05
9.09998e-05
-1.05422e-05
0.00010712
-2.86855e-05
-7.84361e-05
1.36631e-05
-0.000103377
-1.84596e-06
0.000105222
4.55375e-05
6.15819e-05
1.81258e-05
-9.59181e-05
7.7793e-05
-3.16718e-05
3.65519e-05
1.22733e-05
4.56335e-05
6.98123e-05
-0.000112609
4.27966e-05
1.92059e-06
2.96033e-05
-8.70521e-05
5.745e-05
2.44009e-05
-7.73874e-05
5.29862e-05
3.84209e-05
-2.13516e-05
-6.91725e-05
3.50406e-05
-0.000101767
7.30811e-05
-1.18352e-05
1.45299e-05
6.77935e-07
3.00078e-05
2.63659e-05
-3.00614e-05
6.7741e-06
4.04341e-05
-4.72084e-05
-4.30983e-05
0.000101824
-5.87256e-05
2.77476e-06
5.18259e-05
3.31514e-05
2.58281e-05
-3.0099e-05
-4.56795e-05
8.66492e-05
-7.23437e-06
5.02382e-05
-0.000142869
9.26307e-05
0.000103201
2.80094e-05
-0.000131209
-3.33057e-05
1.8558e-05
-2.48136e-05
6.25518e-06
5.86113e-05
-6.74706e-05
-9.87939e-05
0.000166262
8.71287e-05
-7.86055e-05
-0.000113588
1.04132e-05
0.000103176
0.000119446
-7.39094e-05
5.60521e-05
-0.000110041
-3.81526e-05
5.60639e-05
-1.79135e-05
-8.0816e-05
9.44153e-05
-1.35988e-05
6.92615e-05
-4.37817e-05
1.07113e-05
-3.31511e-06
-6.58265e-05
-6.68276e-06
8.78167e-05
-8.11326e-05
7.05062e-05
-5.96742e-05
-1.0832e-05
3.40107e-05
4.56593e-05
-7.96707e-05
1.47513e-05
2.37674e-05
-3.85189e-05
-4.64999e-05
9.09079e-05
-4.44078e-05
8.73944e-05
-4.34741e-05
2.86056e-05
-0.000109217
-0.000154517
0.000116222
-7.74988e-05
9.70935e-05
-1.95948e-05
-3.31908e-05
1.71718e-05
1.60185e-05
-2.60741e-05
-1.33775e-05
3.94524e-05
2.96651e-05
-3.5726e-05
6.05837e-06
-8.89612e-05
-6.76554e-06
7.32761e-05
-8.04297e-05
7.15189e-06
-5.98677e-05
-3.41443e-05
9.40124e-05
-3.90427e-05
5.49771e-05
-1.59345e-05
1.76381e-06
3.18313e-05
-3.35954e-05
7.53533e-05
-5.32593e-05
-2.20929e-05
-8.13156e-05
3.3769e-05
6.62112e-05
1.7996e-05
-8.4206e-05
-7.22441e-05
4.21456e-05
7.30874e-05
-8.92987e-05
1.62116e-05
0.000120937
4.18229e-05
-4.03501e-05
6.47512e-05
-8.82079e-05
9.73477e-06
7.84731e-05
6.73507e-05
-5.82986e-06
0.000103719
-1.63598e-05
-8.73603e-05
-3.84909e-05
-2.54582e-05
6.39488e-05
-7.27512e-05
5.7355e-05
1.53966e-05
0.000119867
-4.70414e-05
-7.28248e-05
-9.50438e-05
5.19457e-05
0.000139018
-0.000206488
-3.38798e-06
2.93395e-06
8.24256e-06
9.46732e-05
-0.000102916
-0.000161464
8.36654e-05
-3.46914e-06
-5.1894e-05
-3.14243e-05
0.000102379
-7.09549e-05
-4.67934e-05
-8.30171e-05
5.4885e-05
2.81318e-05
-0.000108802
5.62236e-05
5.25785e-05
-0.000109787
2.58524e-05
-9.88438e-05
-1.47438e-05
-5.72621e-05
4.05434e-05
1.67183e-05
-1.40236e-05
-1.91674e-05
4.74183e-05
-2.88349e-06
-4.45352e-05
-5.36673e-05
7.60052e-05
-2.2338e-05
1.96521e-06
4.54532e-05
-0.000103304
6.36273e-05
3.96769e-05
-1.13633e-06
1.13599e-06
6.83803e-05
-1.69474e-05
3.39887e-05
-3.22253e-05
-3.75478e-05
7.5854e-05
-3.8307e-05
0.000123011
-4.24181e-05
-8.05934e-05
4.20319e-05
-1.05502e-05
-3.14824e-05
8.23208e-05
-6.04656e-05
-2.18552e-05
5.07068e-05
-7.71294e-05
2.64227e-05
-6.04507e-05
8.5035e-05
-2.45841e-05
-5.83172e-06
1.34035e-05
2.6215e-05
-6.86755e-05
-0.000171993
-3.01302e-05
-3.82568e-05
6.83873e-05
-4.5585e-05
-3.27769e-05
-6.92401e-05
9.2554e-06
0.000111569
-5.57046e-05
9.03654e-05
-3.46604e-05
-1.56638e-05
-7.83469e-05
6.62853e-06
3.61731e-05
2.47008e-05
-7.2202e-05
3.51448e-05
-2.90766e-05
-6.81677e-05
-6.14081e-05
-7.51701e-06
-5.66808e-05
-3.73963e-05
6.22696e-05
2.00513e-05
-3.30479e-05
-7.96131e-05
5.04777e-06
-4.75609e-05
2.72971e-05
-6.69337e-05
3.03849e-05
-0.000154083
0.000135197
2.3372e-05
7.76546e-05
-2.6948e-05
-5.28088e-05
6.59344e-05
-1.31254e-05
-0.000111634
9.8843e-05
1.27924e-05
0.000100895
8.646e-05
-0.000187352
0.000117977
-8.40475e-05
-3.39283e-05
7.55962e-05
1.27031e-06
-7.68665e-05
5.11085e-05
-3.78545e-05
8.30444e-05
-8.74677e-05
5.64152e-05
3.10526e-05
-7.95728e-05
-3.02136e-05
2.55789e-05
-8.17222e-05
2.18546e-05
1.15235e-05
-0.000116374
5.35821e-05
6.27921e-05
0.000108501
-1.24042e-05
-9.6099e-05
-0.000100763
6.93387e-05
-1.98448e-05
-6.83432e-05
8.81889e-05
-6.79281e-05
3.73251e-05
-6.66141e-05
7.88857e-05
-1.22717e-05
-5.46764e-05
-4.49082e-05
9.95851e-05
-3.41501e-05
3.61106e-05
-1.9606e-06
-2.09553e-05
-5.15675e-05
7.99709e-05
-8.2576e-05
2.60621e-06
4.85067e-05
-0.000117876
6.937e-05
-7.61729e-05
8.20624e-05
-5.88995e-06
0.000112946
-7.01894e-05
-4.27573e-05
-5.40428e-05
2.41158e-06
-6.38096e-05
6.95049e-05
4.04714e-05
3.973e-05
-7.49106e-05
5.39547e-05
-2.94874e-05
-3.72656e-05
-7.33713e-05
-1.36283e-05
-6.66405e-06
9.50247e-05
-8.83607e-05
5.77835e-05
5.51623e-05
-3.74723e-05
3.32344e-06
-3.75162e-05
8.85252e-05
-5.12271e-05
1.02608e-05
4.09656e-05
-9.33545e-05
-1.00223e-05
5.36531e-06
5.63608e-05
8.47383e-05
-1.85263e-05
3.62359e-05
-1.33919e-05
-2.28442e-05
1.09612e-05
6.73835e-05
-2.62534e-05
0.000101055
3.07383e-05
-4.85681e-05
1.78288e-05
-7.37141e-05
4.67209e-05
5.29732e-06
-1.52276e-05
-0.000148147
6.55623e-05
-5.25628e-05
-1.43707e-05
-3.79479e-05
1.11803e-05
2.24956e-05
2.88926e-05
-2.02496e-05
2.11434e-06
1.8135e-05
9.44749e-05
-5.01878e-05
-4.42867e-05
-1.85498e-05
7.83815e-05
8.74661e-06
7.22819e-05
5.88064e-06
-7.81619e-05
-3.46994e-05
-3.3134e-05
6.78336e-05
-0.000101164
-3.87242e-06
3.14606e-06
7.26083e-07
-1.29957e-05
3.40598e-05
-2.10637e-05
-1.65096e-05
8.11269e-05
-6.46171e-05
-8.4582e-07
-2.23987e-05
2.32439e-05
-4.6316e-05
8.07033e-06
3.82448e-05
-4.30287e-05
4.30288e-05
2.41123e-05
1.21238e-05
-1.19696e-05
-7.62387e-05
5.45115e-05
6.27482e-05
1.00811e-05
-1.37443e-05
3.66197e-06
5.01183e-05
4.62714e-05
-9.63903e-05
2.03388e-05
-8.00337e-05
3.86052e-06
-7.78628e-05
2.41956e-05
-2.7033e-05
8.03377e-05
-9.37469e-05
7.73866e-05
3.87704e-05
4.49905e-05
-1.42523e-05
-0.000219926
8.09733e-05
-6.81888e-06
1.28252e-05
3.98386e-05
-5.26642e-05
-4.12544e-05
-1.6008e-05
6.46677e-06
-7.11585e-05
6.46918e-05
1.46073e-06
-9.71645e-06
-1.21164e-05
8.5204e-05
7.82297e-05
-8.46793e-07
0.000113849
-6.50601e-05
-4.87902e-05
7.62789e-05
-5.00647e-05
-6.62324e-05
-6.10506e-05
-3.23043e-05
-5.58734e-05
8.81781e-05
-9.34067e-05
0.000143644
6.75487e-05
3.27216e-05
-9.14768e-05
8.47947e-05
2.77558e-05
2.1797e-06
2.19329e-05
-5.49314e-05
5.14621e-05
5.42433e-05
2.87037e-05
-8.8799e-05
5.78365e-05
7.15876e-05
-9.3179e-06
0.000115309
-8.66844e-05
-2.8624e-05
8.34227e-05
-9.90856e-05
9.1778e-05
2.44033e-05
-2.22236e-05
-2.79298e-05
-1.00177e-05
9.26955e-05
-7.45693e-05
-9.14392e-05
-1.11549e-05
0.000102595
-9.58471e-05
6.07812e-05
3.50655e-05
5.05681e-06
9.08108e-05
-1.81871e-05
-7.26245e-05
-6.73833e-06
1.81132e-05
-1.13751e-05
9.58106e-05
-6.07814e-05
-3.50298e-05
-4.6562e-05
1.14165e-05
6.41798e-05
-0.000256402
9.23241e-05
7.38052e-05
1.65605e-05
-0.000115407
5.27284e-05
6.26795e-05
4.53214e-05
-3.85474e-05
-3.50478e-05
2.20517e-05
-6.60811e-05
6.40685e-06
4.01123e-05
-6.95996e-05
4.27394e-05
-7.05422e-05
-4.71303e-05
-4.4689e-05
9.18202e-05
-2.24572e-05
9.00058e-05
8.14825e-05
-7.50157e-05
-2.37018e-05
-1.13536e-05
-5.78541e-06
-2.77553e-05
5.52345e-05
-2.74798e-05
-4.18111e-05
1.47994e-05
2.70111e-05
-3.60924e-05
5.82886e-06
3.0264e-05
3.38425e-05
-7.22178e-05
-7.72974e-05
5.08771e-05
2.642e-05
4.25206e-05
-5.16038e-05
9.08307e-06
-0.00011116
0.000107648
3.51156e-06
1.53712e-05
6.47551e-05
-0.000103749
3.89959e-05
-3.00408e-05
1.67774e-05
1.3263e-05
-4.58232e-05
-4.93081e-07
-1.7408e-05
-3.7558e-05
3.41459e-05
-4.41069e-05
-3.62945e-05
-1.17808e-06
-1.78143e-05
-1.22264e-05
3.15783e-05
-8.3421e-05
5.18427e-05
1.73911e-05
7.06999e-05
7.48827e-05
-9.13923e-05
5.88806e-06
1.12708e-05
6.90604e-05
2.5273e-06
-7.63859e-05
3.20162e-05
-0.000111733
-8.29476e-05
-7.29516e-05
0.000100803
-2.20714e-05
1.39735e-05
8.09764e-06
-6.256e-05
0.0001069
-4.66977e-05
-1.00213e-05
5.6718e-05
5.8185e-05
-1.61369e-05
8.24717e-05
-6.6336e-05
1.49674e-05
-6.77762e-05
4.15011e-05
1.13291e-05
2.57225e-05
-3.70523e-05
4.14207e-05
2.71943e-05
-6.8615e-05
-1.06006e-05
-6.95267e-05
-7.70637e-05
8.74713e-05
-1.04067e-05
-2.88616e-05
5.36839e-05
-9.40829e-05
1.32671e-05
-6.6592e-05
2.15066e-05
3.69595e-05
-7.89928e-05
4.20334e-05
7.96447e-05
-5.69864e-05
-2.26572e-05
-6.66728e-06
3.66668e-05
-2.99993e-05
-0.000120947
-0.000135454
7.61358e-05
5.56484e-06
1.44674e-06
1.19814e-05
-1.34285e-05
3.28377e-05
-0.000194294
0.000161456
-3.31051e-06
6.05318e-05
-5.72216e-05
-7.89277e-05
6.20662e-06
-2.73345e-05
7.15495e-05
-4.42152e-05
-6.90258e-05
6.57153e-05
1.19318e-05
-1.14727e-06
-1.07849e-05
-0.000223998
0.000180076
4.39188e-05
-5.72683e-05
-7.84595e-06
6.51156e-05
-2.17444e-06
-3.39593e-05
-6.26348e-05
3.10306e-05
3.16036e-05
0.000124635
-5.50037e-05
3.50598e-05
1.99441e-05
-1.33083e-05
-0.000173317
4.49994e-05
4.49978e-05
-6.53472e-05
8.07996e-06
1.15921e-05
-1.51155e-06
1.26641e-05
7.31402e-05
-8.58038e-05
-9.53795e-05
6.84219e-05
2.69594e-05
-4.23102e-05
-2.74229e-05
6.97334e-05
1.11851e-05
3.14552e-05
-5.18865e-05
2.04303e-05
1.93131e-05
5.66303e-05
-7.5943e-05
2.70658e-05
-2.29395e-06
-2.47716e-05
5.45935e-05
-8.87834e-05
3.41894e-05
8.45322e-05
-7.86759e-05
-5.8551e-06
-6.04981e-05
0.000142987
-1.37521e-05
1.90293e-05
9.24349e-05
-7.63682e-05
-1.60668e-05
-7.58083e-05
1.89548e-05
5.68538e-05
-8.30804e-05
3.65804e-05
3.90539e-06
2.31606e-05
6.30335e-05
2.51808e-05
-8.82142e-05
-3.98183e-05
9.44115e-05
-7.40721e-05
8.68435e-05
-1.27709e-05
1.50016e-05
2.58853e-06
-2.49875e-05
5.39337e-06
-1.91453e-05
-2.76207e-05
-5.25824e-05
-3.20581e-05
5.82458e-07
5.74592e-05
6.55515e-05
9.35254e-05
-2.71494e-06
6.28693e-05
-4.37797e-05
-1.90888e-05
-6.60733e-05
-4.81761e-06
7.08904e-05
3.47643e-05
-8.51549e-05
5.03904e-05
-8.05159e-05
6.44402e-06
5.70831e-05
-3.88318e-05
-1.82515e-05
1.06924e-05
-1.74305e-05
-7.57294e-05
4.83946e-05
-3.15105e-05
-6.17692e-05
9.328e-05
4.4454e-05
5.12329e-05
-9.56864e-05
2.99759e-05
-3.19334e-05
1.95724e-06
-1.1063e-07
-1.44137e-05
1.45239e-05
6.32301e-05
-7.8276e-05
-9.46239e-05
4.52044e-05
3.81732e-06
-4.62729e-06
4.11284e-05
-3.62084e-06
-3.75067e-05
-2.70831e-05
-2.62132e-06
2.97065e-05
-7.26582e-05
1.32207e-05
-3.60479e-05
-3.05445e-05
-8.43723e-05
9.33427e-05
-8.9697e-06
-1.51508e-05
2.99021e-05
6.90968e-05
-8.89406e-05
7.06901e-05
-2.07547e-05
-9.17841e-06
-1.28928e-05
1.02954e-06
7.52482e-05
-4.3296e-05
8.02557e-05
1.36981e-06
-6.74433e-05
-8.30297e-06
9.74958e-06
-0.000115863
3.18154e-05
-3.33917e-05
-6.19877e-05
3.09434e-05
-0.000100881
6.9937e-05
-7.55745e-05
-4.02881e-05
4.78079e-05
1.50619e-05
5.55215e-05
-7.13969e-07
-5.4807e-05
8.61413e-05
-6.1701e-06
-3.89719e-05
3.27922e-05
6.17931e-06
2.98479e-05
-8.40376e-05
4.97687e-05
-7.24826e-06
-3.98056e-05
-1.14214e-05
8.06902e-05
-8.55511e-05
0.000136668
-5.11178e-05
-3.46694e-05
3.24954e-05
-9.69468e-05
2.6531e-05
7.04148e-05
9.50125e-05
-6.40696e-05
-2.37929e-05
-3.1211e-05
-4.63209e-05
7.57909e-06
3.87416e-05
6.26716e-05
-3.87509e-05
-2.39202e-05
-8.10544e-05
8.56363e-05
-4.58193e-06
-8.96152e-05
-3.88569e-05
3.21899e-05
3.94709e-05
5.63395e-05
-0.000164326
0.000213481
-5.878e-05
-1.70282e-05
-1.78519e-05
-5.70599e-05
-3.12626e-05
-4.4467e-05
7.28914e-05
-7.62614e-05
2.83741e-06
-4.22758e-05
7.70397e-05
-5.95834e-06
-7.80617e-05
8.4021e-05
-4.5985e-05
6.99304e-05
-2.39455e-05
8.70651e-07
-8.70803e-07
-2.68727e-05
-3.75887e-05
6.44614e-05
-0.000114183
3.98615e-05
7.43215e-05
3.09699e-05
1.10614e-05
-2.56153e-05
-1.82378e-05
-0.000152691
-7.13104e-05
-2.10529e-05
2.15395e-05
7.63993e-05
4.49679e-05
-7.40865e-05
-7.63545e-06
7.60058e-05
1.64289e-05
8.04352e-05
-7.71287e-05
0.000198422
-2.34731e-05
-4.27443e-05
6.45145e-06
-3.90115e-05
9.44272e-06
2.95707e-05
4.16667e-05
-2.94481e-05
-1.22187e-05
5.58823e-05
1.94715e-05
3.57602e-06
0.00010178
-0.000105357
-6.63623e-06
-1.89414e-06
-6.02824e-05
7.95957e-05
-4.94228e-05
9.793e-05
5.86154e-05
-6.10348e-05
2.4193e-06
5.80358e-06
-4.33007e-06
-1.47393e-06
-2.85152e-05
-6.73031e-06
3.52456e-05
7.20731e-05
1.08437e-06
-7.31572e-05
-1.47673e-05
4.17152e-05
1.3807e-05
1.8551e-05
-5.61927e-06
-9.50887e-05
0.000100707
2.70142e-05
-1.68747e-05
-1.014e-05
2.13568e-05
4.40422e-07
2.5311e-05
-2.57515e-05
-2.17007e-05
6.8094e-05
-4.63932e-05
-4.37996e-05
-7.02639e-05
-4.51431e-05
-7.45462e-08
0.000108696
-0.000108622
0.000112076
-4.33767e-05
-1.62719e-05
6.07017e-05
8.29803e-05
4.76164e-05
-2.38349e-05
2.42753e-05
0.000132857
-6.67714e-05
-6.6086e-05
-1.88018e-05
-5.1859e-05
7.06608e-05
1.14597e-05
-2.96029e-05
1.81433e-05
-6.94491e-06
3.69206e-05
6.18583e-05
-7.48531e-05
1.29957e-05
-4.41873e-05
2.21227e-05
5.85508e-05
-3.54636e-05
-2.30866e-05
-5.52623e-05
1.71091e-05
6.64905e-06
-1.80825e-06
-4.84111e-06
-4.49457e-05
6.41724e-06
-7.76154e-05
1.72615e-05
6.03535e-05
-6.13535e-06
7.33448e-05
-9.09464e-05
2.30889e-05
-6.06373e-05
6.57987e-05
1.18556e-05
-1.5523e-06
-1.64472e-05
1.7999e-05
-6.85449e-05
-2.84026e-05
-4.17944e-05
1.61791e-05
1.60242e-05
7.53377e-05
-9.1362e-05
-7.84433e-05
5.61613e-05
2.22827e-05
-2.25605e-05
-8.89193e-05
-2.22401e-05
-0.000206537
0.000114328
9.22098e-05
1.66957e-05
-1.68067e-05
4.73061e-05
3.31515e-05
1.13792e-05
-7.12708e-05
7.91294e-05
-7.85809e-06
-1.48149e-05
-2.06694e-06
3.58475e-05
3.25324e-05
-5.72738e-05
-9.6643e-06
6.82797e-05
-8.44493e-05
9.45274e-05
-1.00771e-05
-2.71914e-05
6.06076e-05
-3.34151e-05
-1.18981e-05
-2.70738e-05
1.30363e-05
2.86306e-05
4.39988e-06
2.85137e-05
-3.2913e-05
6.24414e-06
-8.47247e-06
2.22806e-06
6.16886e-05
0.000151054
-7.128e-05
-7.97741e-05
-1.71132e-05
-1.0865e-05
-2.81448e-05
-3.02691e-05
0.000194495
-7.19319e-05
-0.000122563
-4.0683e-05
-7.57651e-05
4.45022e-05
6.49201e-05
3.42623e-06
-6.83469e-05
5.24088e-06
8.95169e-06
2.45048e-05
-3.34567e-05
2.96639e-05
-5.6854e-05
-4.44967e-05
4.91179e-05
-4.62185e-06
-1.89538e-05
9.12362e-05
-3.17609e-07
-7.37687e-05
3.71361e-05
1.75934e-07
-1.51747e-05
1.49995e-05
2.00246e-06
-7.3273e-05
-1.21059e-05
9.29113e-05
-8.08038e-05
-3.93334e-05
-2.47437e-05
6.40766e-05
-0.000112925
-9.36129e-05
5.40224e-05
-7.28244e-05
-8.1692e-05
-9.78408e-06
3.47696e-05
-8.08654e-05
4.60951e-05
2.11464e-05
-4.26345e-05
-4.03822e-05
-8.71697e-05
9.48206e-05
-7.6506e-06
2.87798e-05
-4.07012e-05
1.19215e-05
-7.89533e-05
9.45989e-05
1.34724e-05
5.36166e-06
-8.98104e-05
-8.54847e-05
1.83633e-05
7.42602e-05
-3.03772e-05
-7.04049e-05
-1.11398e-05
8.15447e-05
4.88723e-05
1.84743e-05
0.000207958
-0.000226435
-7.2745e-05
-7.0457e-06
7.97915e-05
-3.29221e-05
8.8974e-05
-2.54287e-05
1.60783e-06
2.38205e-05
3.49009e-05
-3.29381e-06
-8.38764e-05
-1.46463e-05
4.39217e-05
-5.50305e-05
-7.50712e-06
5.82794e-05
-5.07719e-05
0.000138341
-0.000212756
7.44158e-05
6.48292e-07
2.22129e-07
3.82534e-06
2.58388e-05
-4.22516e-05
-3.77824e-05
-5.71583e-05
2.24209e-05
1.00433e-05
8.34434e-07
7.63647e-05
-7.71989e-05
-7.22687e-05
7.9047e-05
-1.32484e-05
-6.93627e-05
-1.58509e-05
-1.53703e-05
-5.7288e-05
-7.52658e-05
7.88569e-05
-3.5914e-06
3.38105e-05
1.3054e-05
-7.91852e-05
-3.34251e-05
-4.36459e-05
-2.85983e-05
-7.73254e-05
-1.64221e-05
-1.24685e-05
-7.78125e-06
4.07588e-06
-4.06558e-05
3.07579e-05
9.89778e-06
-1.01192e-05
6.00349e-05
-4.99155e-05
-4.32349e-05
-5.75288e-05
-4.25982e-06
-7.11886e-05
7.54486e-05
-2.69541e-05
6.83745e-05
2.66503e-05
1.12152e-05
-4.92938e-05
3.80769e-05
-4.85811e-05
-3.561e-05
8.41903e-05
-2.72685e-06
2.04381e-05
-1.77109e-05
-5.2084e-06
6.59893e-05
3.14454e-05
-6.73107e-05
3.58649e-05
2.83742e-05
-3.9156e-06
-2.44589e-05
-2.18372e-05
-6.43256e-05
8.6162e-05
3.05987e-05
-1.38216e-05
1.77031e-05
-6.72462e-05
-2.90288e-05
-1.37146e-05
8.89973e-05
-9.56613e-05
0.000173372
-4.59592e-05
-0.000127411
2.44809e-05
3.91675e-05
-6.3649e-05
-4.85579e-06
4.9108e-05
-4.42524e-05
5.9746e-06
-4.18649e-05
3.58898e-05
-5.54559e-05
9.5144e-05
-7.91193e-05
4.66164e-05
-7.3489e-05
2.52456e-07
-2.4087e-05
7.43418e-05
-1.24831e-05
-3.89069e-05
5.17318e-05
-1.92332e-05
1.76806e-05
1.87621e-05
-8.81254e-05
-5.86871e-05
3.58226e-05
2.28646e-05
9.46995e-05
-4.4581e-05
-7.92554e-06
-5.0042e-05
5.5452e-06
-6.41588e-05
-2.23443e-05
-6.43222e-06
-4.72649e-05
-0.000107253
-7.52066e-05
-5.04151e-05
0.000125621
9.13637e-05
-0.000141085
4.97222e-05
3.36889e-05
-4.9088e-06
-4.5946e-05
3.91329e-05
6.81304e-06
7.84019e-05
1.22853e-05
-3.8358e-05
-1.65842e-05
5.64225e-05
7.8296e-06
-3.19339e-05
2.41059e-05
2.9453e-06
3.00246e-06
-5.94826e-06
3.48704e-07
-3.77982e-06
3.43096e-06
4.29767e-05
-3.70022e-05
4.06217e-05
-8.95361e-07
-3.97267e-05
2.91122e-05
-5.68679e-05
-6.73375e-05
4.94844e-05
5.46345e-05
9.3222e-05
-0.000147855
-1.95692e-06
4.05998e-05
-3.86428e-05
-6.50687e-05
1.94835e-05
1.5822e-05
-4.48511e-05
5.73257e-05
3.3675e-05
-2.36745e-06
-1.8302e-05
2.06697e-05
-4.00098e-05
9.81834e-05
-3.52982e-05
-1.10232e-05
3.4287e-05
1.65828e-05
-6.3675e-05
-6.72578e-05
0.000130933
-8.19072e-05
3.23175e-06
-7.58274e-05
-7.21864e-05
0.000148013
-7.02436e-05
2.31132e-05
6.45562e-05
-3.73621e-05
9.84277e-05
5.26263e-05
-9.34021e-05
7.09451e-05
-0.00017437
9.36973e-05
-0.000101597
0.00016693
-6.53341e-05
-5.54409e-06
-5.34456e-05
5.899e-05
6.3967e-05
1.13918e-06
-6.51067e-05
-2.18723e-05
3.33318e-05
1.96441e-05
-3.45353e-05
1.48907e-05
-1.36211e-05
-3.72484e-05
-2.30769e-05
3.44057e-05
-8.57312e-05
1.53263e-05
-5.003e-05
1.23211e-05
3.77098e-05
-4.75456e-05
-6.12564e-05
-3.19755e-05
-3.06596e-05
1.81326e-05
-6.0123e-06
-1.21202e-05
1.97998e-05
9.89353e-07
-2.02229e-05
3.23419e-05
5.18637e-05
-8.42047e-05
-8.29925e-05
5.0777e-05