/*--------------------------------*- C++ -*----------------------------------*\
| =========                 |                                                 |
| \\      /  F ield         | OpenFOAM: The Open Source CFD Toolbox           |
|  \\    /   O peration     | Version:  v2012                                 |
|   \\  /    A nd           | Website:  www.openfoam.com                      |
|    \\/     M anipulation  |                                                 |
\*---------------------------------------------------------------------------*/
FoamFile
{
    version     2.0;
    format      ascii;
    class       volScalarField;
    location    "200";
    object      epsilon_0;
}
// * * * * * * * * * * * * * * * * * * * * * * * * * * * * * * * * * * * * * //

dimensions      [0 2 -3 0 0 0 0];


internalField   nonuniform List<scalar> 
13308
(
2.47872e-06
1.86045e-06
7.13636e-05
1.90908e-06
2.33065e-06
1.78737e-06
2.178e-06
5.35752e-06
2.0673e-06
2.5047e-06
2.16487e-06
0.00776334
4.04662e-05
2.16908e-06
2.10306e-06
2.3206e-06
1.6733e-06
1.84255e-06
2.32642e-06
1.77325e-06
2.5323e-06
1.7634e-06
1.74666e-06
0.00119628
3.08358e-05
1.75863e-06
0.0073164
1.77693e-06
0.0144243
1.79711e-06
0.00388857
0.00232549
0.000324691
0.00561134
2.37888e-06
1.91471e-06
1.73508e-06
2.0308e-06
1.93367e-06
1.93729e-06
2.03504e-06
1.82191e-06
8.21101e-06
2.01052e-06
0.00239991
0.0186758
1.84418e-06
3.24593e-06
1.86703e-06
4.105e-06
0.0047599
1.84838e-06
1.81175e-06
0.014802
1.7908e-06
1.8225e-06
1.76479e-06
2.84628e-06
2.49188e-06
2.50662e-06
1.67824e-06
2.85549e-06
1.84179e-06
1.94545e-06
1.74859e-06
1.66972e-06
1.84712e-06
0.00510193
0.00568877
1.85043e-06
3.79765e-06
1.83715e-06
1.67467e-06
1.69739e-06
1.80842e-06
3.44599e-06
0.00535763
2.38441e-06
0.000361365
1.82844e-06
1.67986e-06
2.34895e-06
1.69317e-06
2.84572e-06
0.00238608
2.48059e-06
2.59338e-06
2.3707e-06
2.39226e-06
2.56046e-06
2.53414e-06
0.003941
2.46249e-06
3.12534e-06
2.19764e-06
2.29678e-06
1.6899e-06
4.21979e-06
2.01866e-06
2.01257e-06
2.04138e-06
3.20614e-06
1.82187e-06
1.99433e-06
1.67705e-06
2.96685e-06
5.46467e-06
2.50854e-06
1.77817e-06
6.58963e-05
2.9273e-06
0.00233012
2.5278e-06
0.00157467
2.04383e-06
0.000346693
2.38677e-06
2.18861e-06
1.83836e-06
2.93774e-06
2.19397e-06
3.20549e-06
3.27891e-06
2.49231e-06
5.94825e-06
2.2963e-06
0.00227679
2.89327e-06
4.05698e-06
0.000140591
6.87868e-06
1.82608e-06
1.92855e-06
2.04384e-06
3.24704e-06
1.8862e-06
2.05964e-06
1.82445e-06
6.34734e-05
2.00115e-06
0.000167262
0.00561977
0.00507405
2.18213e-06
0.00693135
8.94853e-06
1.86248e-06
2.14572e-06
2.99489e-06
0.00557098
0.00127863
2.07861e-06
1.77901e-06
2.04585e-06
1.83612e-06
1.88168e-06
3.0667e-06
2.03389e-06
5.67045e-06
0.00505996
2.70556e-06
0.00209505
2.1985e-06
2.0832e-06
1.77129e-06
7.21968e-06
2.08444e-06
6.93786e-05
1.97337e-05
2.63244e-06
5.06206e-06
1.83646e-06
0.00309727
4.29441e-05
1.96933e-06
4.03591e-06
1.69846e-06
5.25216e-06
1.93301e-06
2.05973e-06
2.58854e-06
1.83498e-06
1.77089e-06
0.00332904
2.18212e-06
2.04268e-06
3.2762e-06
1.66774e-06
1.69702e-06
2.19127e-06
1.81924e-06
1.81772e-06
8.18893e-06
0.00118265
3.80718e-06
5.92915e-06
2.43335e-06
3.02561e-06
1.67004e-06
4.74264e-06
0.000226307
2.05947e-06
2.18703e-06
1.83675e-06
2.404e-06
4.50565e-06
2.16764e-06
1.88936e-06
3.02631e-06
1.80357e-06
2.01063e-06
0.00133071
3.85363e-06
8.02217e-05
2.16765e-06
2.36978e-06
1.65816e-06
1.70073e-05
1.78937e-06
1.78578e-06
2.10927e-06
3.50668e-06
2.19556e-06
2.53742e-06
2.09914e-06
1.78327e-05
2.08688e-06
4.11734e-06
0.00649904
2.29095e-06
1.83365e-06
3.45434e-06
2.17161e-06
1.70396e-06
2.22063e-06
2.03797e-06
1.68957e-06
1.68264e-06
1.81243e-06
2.43332e-06
1.97132e-06
2.41737e-06
3.25278e-06
6.41966e-06
2.54165e-06
2.28356e-06
0.000246913
1.91795e-06
3.2495e-06
1.95922e-06
2.45704e-06
2.1042e-06
7.88239e-06
3.64776e-06
3.96737e-06
2.31226e-06
1.83146e-06
2.46156e-06
2.23836e-06
2.18709e-06
2.16015e-06
1.66174e-06
1.76998e-06
1.66416e-06
0.00624348
1.94511e-06
8.48246e-05
2.63687e-06
0.00157005
2.53288e-06
1.78928e-06
2.14653e-06
2.4254e-06
1.9996e-06
5.84825e-06
1.92023e-05
1.68984e-06
2.38625e-06
4.26174e-06
1.75988e-06
2.47411e-06
2.23523e-06
4.11701e-06
2.54748e-06
2.48672e-06
3.54462e-06
3.44014e-06
3.5569e-06
1.7028e-06
1.78499e-06
0.000209226
0.00575627
0.000122406
0.00516265
2.29624e-06
1.725e-06
1.91189e-06
2.80864e-06
0.0145946
2.36784e-06
0.00502898
1.80471e-06
2.13763e-06
2.22519e-06
2.74826e-06
2.90643e-06
2.0699e-06
2.54968e-06
2.49576e-06
2.07694e-06
1.8873e-06
2.07531e-06
0.00461024
2.22422e-06
6.43365e-06
0.00853099
9.07347e-06
1.78417e-06
6.55699e-06
1.99525e-06
2.41822e-06
2.81891e-06
1.79847e-06
1.70439e-06
1.89325e-06
2.74961e-06
1.83866e-06
2.84955e-06
1.85312e-06
2.29133e-06
3.84211e-06
7.30842e-06
2.33745e-06
2.28699e-06
2.06782e-06
0.0052016
5.8957e-06
2.11572e-06
1.78594e-06
1.80725e-06
0.000252069
3.57402e-06
2.22098e-06
2.42395e-06
1.85332e-06
3.41767e-06
1.96904e-06
2.05615e-06
2.20011e-06
0.00864968
1.8226e-06
2.04853e-06
2.37194e-06
1.88857e-06
3.71515e-06
2.09679e-06
2.18026e-06
0.000185004
1.39212e-05
3.04865e-06
2.55091e-06
1.78523e-06
0.00759708
2.28966e-06
9.90255e-06
1.84839e-06
2.5614e-06
1.26816e-05
4.0623e-06
1.98628e-06
4.26296e-06
0.00687516
3.6992e-06
1.34689e-05
2.12456e-06
2.19108e-06
6.83047e-06
2.01645e-06
7.05234e-06
1.89202e-06
3.07985e-06
2.93379e-06
2.86773e-06
4.96819e-06
2.95926e-06
2.55256e-06
1.75966e-06
2.13862e-06
1.78817e-06
0.00121682
0.00503389
1.88053e-06
2.00688e-06
0.0101686
1.87808e-06
3.62638e-06
2.8674e-06
2.42791e-06
9.21511e-06
0.00653431
2.47002e-06
2.41944e-06
2.54893e-06
2.68587e-06
1.88697e-06
1.79437e-06
2.57598e-06
3.03698e-06
0.000586367
2.12088e-06
7.62624e-06
0.00474998
1.06943e-05
2.12115e-06
0.00113711
1.82807e-06
2.43339e-06
2.86571e-06
2.62401e-06
1.84652e-06
1.75897e-06
3.3006e-06
2.44945e-06
1.87247e-06
0.00571516
2.06887e-06
2.40403e-06
0.00131038
0.00045046
0.000380476
2.23226e-06
0.00135628
0.00544717
2.37744e-06
2.24783e-06
2.42396e-06
1.71637e-06
1.81545e-06
1.80956e-06
2.13716e-06
2.69484e-06
2.62919e-06
2.66686e-06
2.42523e-06
1.80428e-06
0.0059204
4.4852e-06
3.02183e-06
2.33047e-06
7.03806e-06
4.14008e-06
2.12484e-06
2.13987e-06
1.80119e-06
2.44816e-06
0.00892322
1.92665e-06
1.84987e-06
7.01947e-06
4.25211e-06
1.86009e-06
2.13609e-06
1.75273e-06
3.71396e-06
1.82293e-06
1.87435e-06
1.95014e-06
0.00753693
1.80579e-06
1.9721e-06
2.45607e-06
1.9523e-06
2.42557e-06
6.06516e-06
2.70325e-06
3.82793e-06
2.08823e-06
3.86406e-06
2.1938e-06
4.26878e-06
2.67494e-06
3.05431e-06
2.33899e-06
2.86847e-06
1.92162e-06
0.00245445
2.03634e-06
0.00197359
1.78403e-06
2.29153e-06
1.82799e-06
0.00348583
1.85157e-06
2.4456e-06
1.82296e-06
2.44514e-06
3.809e-06
2.8203e-06
2.571e-06
2.06221e-06
2.12286e-06
0.00671793
2.29738e-06
0.00248816
2.04262e-06
0.00618592
2.88661e-06
4.92236e-06
1.86095e-06
0.00215172
2.03245e-06
0.00323326
0.00170123
1.99708e-06
1.92748e-06
0.000100671
0.000449508
3.40148e-06
2.53441e-06
1.9579e-06
2.50056e-06
0.0076645
1.84786e-06
9.85189e-06
2.05523e-05
0.00667423
3.88244e-06
2.54129e-06
0.00411685
2.45116e-06
2.88977e-06
3.5983e-06
0.00131904
2.17765e-06
2.01198e-06
1.9133e-06
2.16553e-06
2.13544e-06
1.45058e-05
3.64953e-06
4.64299e-06
0.00507162
0.00963756
1.91025e-06
2.89465e-06
2.34679e-06
3.83807e-06
0.00931539
6.44011e-05
4.04733e-06
2.77205e-06
3.41615e-06
6.33779e-06
2.90912e-06
2.52349e-06
1.68572e-06
2.41825e-06
1.83801e-06
5.72715e-06
1.66466e-06
2.43162e-06
3.13969e-06
2.46706e-06
2.17777e-06
3.3149e-06
2.36003e-06
4.64518e-06
2.43222e-06
4.09511e-06
3.08638e-06
0.00190506
2.59784e-06
2.39913e-06
0.0164588
2.76275e-06
0.00881342
1.88294e-06
4.08786e-06
2.82238e-06
1.92324e-06
2.01233e-06
2.08939e-06
2.13435e-06
1.84342e-06
2.46403e-06
2.89763e-06
1.81868e-06
3.1508e-06
3.06693e-06
5.9316e-06
1.88038e-06
1.81355e-06
2.13616e-06
3.73726e-06
1.89429e-06
2.26993e-06
1.88511e-06
2.40299e-06
1.82204e-06
0.00498277
0.00124212
2.99831e-06
2.71462e-06
1.94147e-06
2.15987e-06
1.89601e-06
0.0023354
3.09599e-06
3.6949e-06
1.82654e-06
2.72871e-06
1.66634e-06
3.34607e-06
0.00150673
2.10297e-06
0.000264031
1.89857e-06
2.03908e-06
0.00608704
1.08845e-05
0.000323544
1.89309e-06
2.44463e-06
0.00155504
0.000262038
3.09966e-06
0.00696991
4.29661e-06
3.84947e-06
2.34012e-06
0.00410172
1.87402e-06
2.62334e-06
2.08602e-06
3.10898e-06
2.77044e-06
2.61628e-06
2.05174e-06
2.37293e-06
0.000792514
0.00939618
0.00471681
7.97034e-06
2.80449e-06
2.41519e-06
2.37908e-06
2.41141e-06
2.94513e-06
2.8358e-06
2.18717e-06
4.69096e-06
1.80558e-06
0.00173234
1.70363e-06
0.00234853
2.34152e-06
1.70679e-06
1.68598e-06
2.24932e-06
2.06826e-06
2.39593e-06
1.85851e-06
1.90915e-06
0.0030487
2.44446e-06
3.16387e-06
4.1879e-06
3.09648e-06
3.27473e-06
2.04862e-06
0.0014095
2.99569e-06
2.10794e-06
2.29678e-06
2.32104e-06
1.89391e-06
2.32365e-06
2.40806e-06
1.7452e-06
0.00420395
0.00714465
2.29989e-06
0.00377629
3.49815e-06
1.72114e-06
0.00583957
3.58704e-06
2.77813e-06
1.79704e-06
2.22165e-06
1.66631e-06
1.90615e-06
0.00847636
4.14707e-06
2.01758e-06
2.0093e-06
0.000209775
1.68871e-06
2.97164e-06
2.20453e-06
2.12845e-06
1.94867e-06
0.00525981
2.06543e-06
2.09185e-06
0.00621635
1.30247e-05
2.46022e-06
2.1173e-06
0.000318265
1.94244e-06
0.00771812
2.29256e-06
2.62449e-06
2.10984e-06
2.02336e-06
2.98984e-06
2.8899e-06
1.89179e-06
1.08006e-05
3.52325e-06
2.03538e-06
0.00519397
2.11155e-06
2.03817e-06
2.26198e-06
0.00193459
2.98022e-06
4.62025e-06
2.39048e-06
3.48576e-06
0.0074471
4.09545e-06
3.95114e-06
2.64777e-06
0.00604183
3.00392e-06
0.00125235
2.23439e-06
3.70431e-06
5.12345e-06
2.26419e-06
2.26259e-06
2.08992e-06
3.49615e-06
2.39365e-06
1.93537e-06
2.00939e-06
3.57984e-06
1.93866e-06
1.03191e-05
2.90391e-06
0.00134401
2.60459e-06
3.91559e-06
0.000516138
3.86204e-06
0.000253844
1.8909e-06
3.62619e-06
1.94081e-06
3.93167e-06
2.22589e-06
2.1314e-06
2.26862e-06
3.27424e-06
2.13857e-06
2.31081e-06
0.00609814
1.80028e-06
1.27814e-05
3.67837e-06
2.2541e-06
3.09964e-06
0.00583368
2.04293e-06
0.0010902
0.00375533
4.26966e-06
0.00340651
1.84653e-06
1.91605e-06
2.5855e-06
1.71805e-06
2.60481e-06
1.80414e-06
0.00903697
0.00620997
0.00354107
1.79146e-06
2.92369e-06
2.44035e-06
2.4594e-06
2.32142e-06
1.46004e-05
2.25196e-06
2.19081e-06
2.20669e-06
0.00487302
3.9205e-06
2.8356e-06
3.61385e-06
2.12466e-06
2.87007e-06
3.24649e-06
5.64666e-06
2.71741e-06
1.96618e-06
2.62534e-06
0.000593938
1.90053e-06
0.00155277
1.81125e-06
1.87304e-05
2.41467e-06
2.27662e-06
2.02212e-06
1.89108e-06
2.64023e-06
1.89827e-06
2.13625e-06
5.26371e-06
4.46122e-06
0.00563976
2.53849e-06
2.25994e-06
2.29489e-06
2.39982e-06
1.84354e-06
2.41912e-06
3.246e-06
0.00730189
2.27582e-06
2.38301e-06
2.31827e-06
2.02277e-06
2.29322e-06
1.94296e-06
2.59664e-06
2.53576e-06
2.31224e-06
2.3212e-06
0.00934383
1.89898e-06
2.41036e-06
1.89837e-06
2.52688e-06
2.11752e-06
1.68903e-06
2.67069e-06
2.10794e-06
0.0045984
0.000327101
2.35609e-06
2.60988e-06
2.44861e-06
3.71098e-06
1.84747e-06
1.86156e-06
1.7512e-06
2.95058e-06
2.45125e-06
3.6687e-06
1.8294e-06
7.21447e-06
2.22108e-06
2.22514e-06
0.00138091
2.21626e-06
2.36455e-06
3.32926e-06
2.35944e-06
0.00613208
2.04731e-06
4.10991e-06
2.11751e-06
2.84909e-06
4.79627e-06
1.89651e-06
2.14077e-06
0.00118923
2.44255e-06
2.59995e-06
1.98377e-06
1.8587e-06
2.77139e-06
0.000173176
1.81542e-06
0.00762534
0.000406627
2.43051e-06
5.02387e-06
1.9893e-06
0.0033415
1.71196e-06
0.000204889
0.00454042
2.86085e-06
1.89e-06
1.86011e-06
2.02478e-06
2.19686e-06
0.00371735
1.69792e-06
4.22024e-06
2.65961e-06
2.01933e-06
4.44717e-06
0.00134851
3.54516e-06
0.00976799
2.01725e-06
2.06862e-06
0.00611109
1.74625e-06
2.79679e-06
9.74721e-06
2.13693e-06
1.84653e-06
3.19324e-06
0.00605289
2.7944e-06
0.0036795
0.00643034
2.13911e-06
4.13975e-06
7.57666e-06
2.42211e-06
2.3892e-06
2.15279e-06
2.09422e-06
4.67424e-06
2.96142e-06
3.02698e-05
2.77725e-06
2.38825e-06
2.98572e-06
0.00858577
2.02543e-06
4.59875e-06
0.000336599
2.30146e-06
0.0174296
2.59566e-06
0.00312332
2.67718e-06
0.00865819
3.31543e-06
2.33627e-06
2.07742e-06
0.000282917
2.72746e-06
2.90182e-06
3.34314e-06
2.0544e-06
0.00148516
1.81213e-06
1.86489e-06
2.10136e-06
2.75338e-06
2.10847e-06
1.82842e-06
2.64591e-06
2.99265e-06
2.55086e-06
2.10202e-06
4.23247e-06
2.2899e-06
2.35062e-06
2.9725e-06
3.74064e-06
2.25734e-06
2.4151e-06
1.86342e-06
2.99622e-06
0.00459878
2.22418e-06
2.1238e-06
2.14754e-06
0.0145891
1.90107e-06
0.0068104
1.6844e-06
2.35467e-06
5.43878e-06
1.75082e-06
0.002649
1.66937e-06
1.83642e-06
9.15955e-05
2.36432e-06
5.07082e-06
7.73775e-06
0.0133487
3.19517e-06
1.9976e-06
2.40113e-06
2.45666e-06
2.78362e-06
2.12109e-06
2.28264e-06
2.3479e-06
2.27777e-06
2.03872e-06
2.83384e-06
7.99801e-06
0.000167254
0.00540485
2.08423e-06
0.00445582
2.02324e-06
2.35122e-06
3.57774e-06
2.99944e-06
4.27332e-06
0.0105802
4.1392e-06
2.1509e-06
0.0154007
2.8825e-06
1.74584e-06
0.000286562
2.21862e-06
2.47372e-06
2.12714e-06
2.0741e-06
1.80565e-06
0.00341146
4.0935e-06
3.86735e-06
8.74168e-05
2.91576e-05
0.00260139
1.99225e-06
2.68167e-05
3.36881e-06
0.00129586
2.15833e-06
1.78501e-06
2.22875e-06
4.85352e-06
2.33331e-06
1.74919e-06
2.36987e-06
2.31733e-06
2.14576e-06
2.61331e-06
5.8529e-06
1.74357e-06
4.23075e-06
4.22206e-06
2.20377e-06
1.75053e-06
2.04438e-06
2.04847e-06
1.69118e-06
2.31817e-06
2.33787e-06
3.41381e-06
2.15843e-06
0.000109908
1.97736e-06
0.00491043
2.17252e-06
2.2153e-06
4.08216e-06
3.13587e-06
0.00874243
2.65761e-06
1.77855e-06
2.36448e-06
1.91388e-06
5.31829e-06
2.59713e-06
2.0386e-06
2.36348e-06
2.93694e-06
2.40786e-06
1.79175e-06
2.2456e-06
0.00352006
2.32637e-06
2.3464e-06
2.48432e-06
2.09392e-06
1.87218e-06
2.64923e-06
2.48148e-06
2.27897e-06
1.7398e-06
2.58945e-05
2.43279e-06
2.1653e-06
2.51676e-06
4.01281e-06
2.93055e-06
1.98727e-06
6.79263e-06
1.64551e-06
2.63323e-06
1.98586e-06
2.39306e-06
2.35401e-06
2.30308e-06
2.25488e-06
2.16411e-06
0.00287144
7.18125e-05
1.7424e-06
2.2968e-06
2.68264e-06
1.79929e-06
0.00025575
2.48271e-06
1.71745e-06
1.77363e-06
2.08037e-06
3.94741e-06
1.99527e-06
2.17434e-06
4.21326e-06
3.58629e-06
0.00419585
2.84149e-06
1.80169e-06
2.3677e-06
0.00340314
2.20981e-06
2.3538e-06
2.18009e-06
2.47235e-06
2.22498e-06
2.0989e-06
5.67535e-06
2.75144e-06
1.74898e-06
1.81734e-06
1.96114e-06
4.10376e-06
1.7497e-06
1.79804e-06
0.007469
2.47547e-06
2.0386e-06
1.72494e-06
0.00712223
1.74257e-06
3.05102e-06
2.58131e-06
2.35123e-06
2.00329e-06
2.81405e-06
2.15913e-06
5.06921e-06
2.06553e-06
2.18647e-06
2.8487e-06
2.07007e-06
0.00181365
2.14978e-06
0.00583261
5.93061e-06
2.21644e-06
0.00453747
4.13743e-06
2.28565e-06
2.26584e-06
1.99357e-06
1.84095e-06
2.30267e-06
4.37384e-06
3.53905e-06
2.42647e-06
1.88832e-06
1.95038e-06
0.00245483
3.83238e-06
1.869e-06
2.52124e-06
2.26587e-06
2.07741e-06
0.00823412
1.8454e-06
2.64164e-06
1.73096e-06
2.19435e-06
2.29462e-06
1.73532e-06
4.1005e-06
7.24621e-05
0.00652747
2.2501e-06
2.42949e-06
2.2736e-06
2.91661e-06
2.64102e-06
3.02644e-06
1.76692e-06
0.00498794
1.80501e-06
5.50336e-06
0.000251433
1.64479e-06
2.41177e-06
2.09521e-06
2.68307e-06
0.00437843
3.85328e-05
2.07348e-06
2.34339e-06
2.02748e-06
0.00571995
3.58337e-06
2.16388e-06
1.75423e-06
0.000290462
2.30925e-06
2.37808e-06
3.43522e-06
2.34585e-06
0.00303335
2.14556e-06
2.29554e-06
2.74866e-06
6.50516e-06
4.42422e-06
2.67014e-06
0.00169926
2.14937e-06
2.64988e-06
4.16066e-06
2.50273e-06
2.12283e-06
2.51969e-06
2.11043e-06
2.25194e-06
2.21152e-06
2.24662e-06
4.0891e-06
1.99321e-06
0.00169924
2.85171e-06
2.85028e-06
0.00595953
1.85401e-06
2.42531e-06
3.8346e-06
6.89246e-06
2.00986e-06
1.69806e-06
0.00757606
2.03641e-06
2.40427e-06
1.7333e-06
2.19147e-06
2.18232e-06
2.25043e-06
0.00366446
4.15678e-06
3.76824e-06
2.53702e-06
2.36112e-06
2.07231e-06
0.000970748
3.9096e-06
2.08293e-06
3.16137e-06
1.75133e-06
3.37864e-06
3.02439e-06
0.00487233
2.00152e-06
2.5169e-06
2.22606e-06
2.32797e-06
4.1552e-06
2.16026e-06
1.82304e-06
4.16988e-06
1.88739e-06
3.91927e-06
7.70192e-06
3.93279e-06
3.13169e-06
0.000164155
2.50473e-06
2.01522e-06
0.000882322
1.78698e-06
2.4388e-06
3.44592e-06
0.00732944
7.28732e-06
1.81031e-06
2.56531e-06
0.00165748
5.47253e-06
2.10794e-06
0.00545864
0.00204105
0.00765679
1.84317e-06
2.37647e-06
4.13349e-06
2.16123e-06
2.10554e-06
2.37919e-06
3.52438e-06
2.43742e-06
1.88482e-06
2.18094e-06
7.03109e-06
3.11504e-06
0.00677085
1.92173e-06
1.75246e-06
1.70825e-06
1.92007e-06
2.64184e-06
2.00907e-06
1.85002e-06
2.34483e-06
5.00185e-06
2.65404e-06
2.64988e-06
2.07531e-06
2.10177e-06
2.35943e-06
4.36411e-06
3.88207e-06
1.83823e-06
2.38542e-06
1.94589e-06
1.85526e-06
2.31783e-06
2.56863e-06
0.00459581
2.20575e-06
2.41685e-06
4.05577e-06
1.78087e-06
2.77236e-06
1.7098e-06
1.91667e-06
1.79939e-06
2.52846e-06
0.000381083
1.95254e-06
4.51349e-05
0.00752517
9.78456e-06
0.00184292
1.82584e-06
2.29679e-06
4.08711e-06
0.00550246
1.84381e-06
4.22037e-06
1.84477e-06
2.69023e-06
2.17238e-06
0.00924717
1.90642e-06
2.68497e-06
2.86404e-06
0.00381807
2.40461e-06
0.000251491
4.85902e-06
1.72195e-06
2.1593e-06
2.3283e-06
2.10426e-06
2.09637e-06
4.81087e-05
1.81156e-06
2.41875e-06
3.45467e-06
2.39573e-06
3.00906e-06
2.44315e-06
1.90701e-06
0.00578197
2.30648e-06
0.00280929
2.16266e-06
2.3614e-06
0.00541295
0.00241142
0.0049374
2.11756e-06
2.2266e-06
2.80616e-06
0.00744162
0.000135376
2.61561e-06
2.27925e-06
8.94117e-05
2.58576e-06
3.48912e-06
2.1687e-06
1.84985e-06
2.1133e-06
2.5449e-06
1.74274e-06
4.43572e-06
2.01494e-06
1.91605e-06
2.40845e-06
2.33166e-06
2.17666e-06
5.26614e-05
4.05328e-06
2.73015e-06
0.00533192
2.21239e-06
2.45128e-06
1.92678e-06
6.06733e-06
1.75673e-06
1.73565e-06
0.0107753
2.38778e-06
1.8176e-06
2.94389e-06
1.98101e-06
2.19649e-06
2.39813e-06
1.9026e-06
0.0110813
2.00741e-06
2.33723e-06
2.21825e-06
0.00572919
0.00704002
2.669e-06
1.90982e-06
2.31755e-06
0.0064486
3.15064e-06
2.21535e-06
0.00361086
4.15908e-06
4.72799e-06
1.95573e-06
4.15745e-06
2.93332e-06
2.48457e-06
0.00117122
5.8768e-06
2.62121e-06
1.88631e-06
0.000142304
2.63595e-06
0.0146651
0.00963325
0.00520809
1.9918e-06
1.9675e-06
2.09706e-06
1.96633e-06
0.0020343
2.41483e-06
3.53134e-06
1.98447e-06
2.55995e-06
3.30157e-06
3.03325e-06
0.00909635
1.7553e-06
2.20064e-06
2.16701e-06
2.60994e-06
2.49765e-06
0.00243057
2.05783e-06
2.18483e-06
1.70148e-06
3.96151e-06
0.00192755
2.0095e-06
0.00226207
1.74623e-06
3.20474e-06
2.28754e-06
2.14554e-06
2.56618e-06
2.13532e-06
2.1757e-06
2.09774e-06
2.74632e-06
2.57256e-06
2.86481e-06
3.4572e-06
2.08879e-06
2.34148e-06
2.43295e-06
1.94901e-06
1.94144e-06
4.07951e-06
0.00581488
2.70533e-06
2.0581e-06
1.97979e-06
2.1082e-06
0.00275096
2.40281e-06
0.000286805
0.000336461
2.66692e-06
2.57527e-06
2.37994e-06
2.4455e-06
0.00768748
3.05534e-06
0.000133805
1.94448e-06
1.64312e-06
2.30119e-06
2.28154e-06
1.86783e-06
3.94388e-06
2.04301e-06
0.00125154
6.18924e-06
2.80231e-06
0.00940333
2.74298e-06
4.22348e-06
2.05361e-06
1.97104e-06
3.20325e-06
4.25237e-06
2.14643e-06
2.43366e-06
2.30649e-06
1.96705e-06
0.00717474
2.41713e-06
2.12902e-06
2.48621e-06
1.98397e-06
0.000762642
1.82062e-06
1.80665e-06
1.93915e-06
2.05698e-06
1.69032e-06
2.20165e-06
1.79311e-06
2.03405e-06
2.02784e-06
2.07734e-06
2.68685e-06
7.08767e-05
1.79844e-06
2.43232e-06
7.76106e-06
2.70892e-06
1.78498e-06
3.34294e-06
2.09767e-06
2.00374e-06
0.00864466
2.97107e-06
1.95001e-06
2.10575e-06
4.01853e-06
2.54557e-06
2.11305e-06
2.05319e-06
1.89895e-06
2.17151e-06
2.39371e-06
3.1025e-06
6.8222e-06
3.3078e-06
0.00261963
1.80476e-06
1.8944e-06
1.80147e-06
0.00635824
3.03825e-06
1.94781e-06
1.90706e-06
4.97008e-06
4.00644e-06
2.59662e-06
2.18444e-06
1.93207e-06
1.90096e-06
3.34107e-06
2.52364e-06
2.8808e-06
8.36026e-06
2.30785e-06
2.00293e-06
2.57496e-06
0.00531085
1.82915e-06
1.98939e-06
3.62613e-06
2.59634e-06
0.000147437
0.00365416
2.40001e-06
2.5312e-06
1.75708e-06
1.85255e-06
2.2709e-06
0.00390084
0.00592304
2.18104e-06
1.99919e-06
2.03654e-06
7.78525e-06
3.00978e-06
4.63888e-06
5.21166e-06
2.26568e-06
8.25084e-06
2.215e-06
0.000121199
3.66981e-06
3.22353e-06
1.9588e-06
3.35395e-06
2.92342e-06
3.92834e-06
2.01039e-06
0.00230433
2.16622e-06
1.85976e-06
4.23e-06
0.0079978
2.14566e-06
0.00421729
2.61067e-06
2.68435e-06
2.91197e-06
2.35488e-06
2.10785e-06
2.324e-06
4.99621e-06
1.70597e-06
1.81674e-06
2.33942e-06
2.66704e-06
3.99966e-06
1.9659e-06
0.0033477
1.97152e-06
2.34145e-06
2.48542e-06
3.66311e-06
1.84195e-06
2.37813e-06
0.00345128
2.0478e-06
2.21736e-06
2.03497e-06
4.73282e-06
1.67336e-06
2.12642e-06
3.58083e-06
0.00786363
2.09361e-06
2.65102e-06
2.86684e-06
3.55547e-06
1.76675e-06
2.29548e-06
2.28253e-06
0.000239064
4.17924e-06
1.81377e-06
2.54832e-06
3.21614e-06
1.82951e-06
3.79658e-06
2.55504e-06
0.00553832
2.87484e-06
1.99839e-06
1.84065e-06
2.16205e-06
2.33845e-06
1.93445e-06
2.29212e-06
1.89272e-06
0.00470343
2.08337e-06
2.27723e-06
4.75294e-06
2.00533e-06
2.32478e-06
2.41077e-06
1.95538e-06
3.59657e-06
2.06644e-06
2.49671e-06
2.76631e-06
2.613e-06
2.49572e-06
2.45301e-06
0.00909699
3.13294e-06
1.9021e-06
2.23779e-06
2.35506e-06
2.26848e-06
0.00240882
2.23752e-06
1.845e-06
5.86009e-06
2.50028e-06
2.32704e-06
3.59736e-06
2.65992e-06
2.28462e-06
4.14393e-06
3.07895e-06
0.00265989
2.14941e-06
2.18187e-06
2.03261e-06
0.0023058
1.64416e-06
2.25001e-06
7.09207e-05
3.26699e-06
6.89986e-06
2.18735e-06
1.99865e-06
0.00428489
0.00476414
0.00563542
2.25246e-06
3.82945e-06
2.18721e-06
5.97002e-05
1.87096e-06
0.00999115
2.31131e-06
2.19992e-06
2.93355e-05
1.99048e-06
2.74085e-06
2.13942e-06
2.41332e-06
2.40401e-06
2.67514e-06
2.18519e-06
7.47535e-06
3.06735e-06
2.09082e-06
6.93683e-05
2.15751e-06
2.87581e-06
2.60045e-06
2.24616e-06
2.81147e-06
1.78555e-05
2.85729e-06
1.2381e-05
2.33436e-06
4.25239e-06
0.00301061
1.78615e-06
0.00344543
1.87173e-06
1.76025e-06
1.97584e-06
2.23552e-06
3.02617e-06
1.87881e-06
3.1688e-06
1.9891e-06
3.77118e-06
2.25507e-06
3.05346e-05
1.88297e-06
2.14312e-06
2.02698e-06
2.13247e-06
3.55912e-06
0.00296694
2.17733e-06
2.07943e-06
3.94209e-06
1.63979e-06
1.98147e-06
1.83669e-06
0.00292602
2.08608e-06
2.18856e-06
2.15187e-06
1.99003e-06
0.00828097
0.00766675
2.22218e-06
0.00350423
0.00419427
2.37612e-06
0.00122353
2.21043e-06
1.76418e-06
9.43674e-05
1.94432e-06
0.00103641
2.10654e-06
5.43801e-06
2.13604e-06
2.11088e-06
0.00099679
0.0143062
2.07873e-06
2.084e-06
2.05414e-06
4.90221e-06
2.28222e-06
0.00198506
1.85013e-06
0.000216168
0.00198722
2.07851e-06
0.00741046
3.27804e-06
0.00548089
2.19412e-06
1.8835e-06
2.16265e-06
1.77526e-06
2.7486e-06
0.00288131
2.48836e-06
2.20369e-06
2.20649e-06
2.31589e-06
1.76629e-06
2.70146e-06
6.296e-06
2.12289e-06
1.84021e-06
1.86834e-06
2.04592e-06
0.0059247
2.66276e-06
0.00998182
1.31176e-05
1.99936e-06
2.37938e-06
2.89202e-06
1.94433e-06
0.00144894
2.08462e-06
2.53525e-06
3.2818e-06
1.99679e-06
1.87277e-06
4.62697e-06
2.0328e-06
2.06306e-06
3.02756e-06
1.78888e-06
2.47915e-06
2.44114e-06
1.83435e-06
2.64715e-06
2.31822e-06
4.55165e-06
4.09381e-06
0.0014832
1.76941e-06
0.00399968
1.99025e-06
5.34874e-06
1.98259e-06
2.09265e-06
3.612e-06
2.17482e-06
2.25027e-05
3.64936e-05
3.02188e-06
3.27288e-06
4.85004e-06
2.67646e-06
2.39164e-06
1.90018e-06
6.5016e-06
2.18606e-06
1.90149e-06
2.54565e-06
2.38365e-06
3.61035e-06
2.06253e-06
2.11334e-06
2.30179e-06
2.15242e-06
3.05249e-06
0.0107658
2.49947e-06
2.78894e-06
3.54094e-06
1.7204e-06
1.64594e-06
3.5953e-06
2.16223e-06
2.40301e-06
2.01068e-06
1.7668e-06
2.15641e-06
2.0433e-06
3.08968e-06
3.12923e-06
0.00342647
2.14613e-06
0.00653392
3.23689e-06
1.79988e-06
0.0050836
2.28877e-06
2.7145e-06
1.89725e-06
1.86291e-06
1.93308e-06
2.13086e-06
2.49709e-06
1.98561e-06
2.30842e-06
2.02765e-06
0.00270954
1.99173e-06
0.00155235
0.00132756
1.67494e-06
2.1132e-06
0.004838
3.38059e-06
1.7115e-06
1.64931e-06
2.11066e-06
2.11711e-06
3.0535e-06
1.81362e-06
6.63762e-06
2.39668e-06
1.9653e-06
1.92025e-06
3.38356e-06
3.31296e-06
3.63013e-06
2.3511e-06
1.86867e-06
2.06916e-06
2.47691e-06
1.88668e-06
3.30078e-06
3.51949e-06
1.96989e-06
2.05404e-06
3.36057e-06
3.19573e-06
2.71627e-06
1.96509e-06
1.87249e-06
2.43834e-06
0.000143912
2.04252e-06
0.00404601
4.159e-06
2.08689e-06
3.87907e-06
2.65153e-06
2.07998e-06
3.82414e-06
4.02983e-06
0.00348302
1.97218e-06
5.27528e-06
2.91745e-06
8.20032e-06
1.77946e-05
0.0024255
3.9843e-06
2.32616e-06
1.92102e-06
1.9076e-06
3.80507e-06
0.00505757
2.04644e-05
1.99165e-06
3.85545e-06
1.94862e-06
0.00639519
2.40418e-06
3.74704e-06
2.65691e-06
1.90587e-06
3.69203e-06
2.05686e-06
1.99868e-06
2.58631e-06
2.97e-06
2.19426e-06
2.52334e-06
2.3062e-06
0.00618716
0.00675022
1.74704e-06
2.20146e-06
2.59e-06
2.10072e-06
1.86556e-06
2.1323e-06
2.08705e-06
1.94172e-06
3.45811e-06
1.73603e-06
1.77266e-06
2.58453e-06
2.35578e-06
1.98245e-06
1.9551e-06
2.02757e-06
2.03e-06
0.00250706
2.49362e-06
1.87483e-06
1.76251e-06
2.60096e-06
1.05751e-05
1.83759e-06
2.17996e-06
3.18672e-06
3.3137e-06
2.03583e-06
0.00370711
2.36388e-06
2.77568e-06
5.99778e-06
3.4395e-06
3.76321e-06
1.77659e-06
1.85726e-06
1.89571e-06
3.98077e-06
2.20914e-06
0.00326255
2.01848e-06
2.23346e-06
2.23292e-06
2.07527e-06
2.38387e-06
7.67403e-06
2.14226e-06
3.00377e-06
2.66399e-06
2.97847e-06
1.96745e-06
2.89723e-06
1.92369e-06
1.8562e-06
5.91986e-06
4.49802e-06
0.004794
2.19301e-06
2.76599e-06
2.19572e-06
0.00240573
2.0837e-06
2.30376e-06
2.02584e-06
1.84449e-06
4.1247e-06
2.30537e-06
0.00256481
1.72217e-06
2.56053e-06
2.18276e-06
1.89399e-06
5.86682e-05
1.8293e-06
2.46122e-06
1.87169e-06
2.00817e-06
1.94007e-06
2.65676e-06
2.26386e-06
2.40802e-06
1.99849e-06
1.87336e-06
1.78881e-06
1.76684e-06
2.63583e-06
2.13097e-06
0.00191427
1.56732e-05
4.23867e-06
0.0039609
2.56922e-06
2.38299e-06
1.98609e-06
3.61366e-06
0.00190784
1.89976e-06
0.000637407
2.54245e-06
2.44318e-06
0.00672766
0.00774046
1.87867e-06
2.31561e-06
1.8764e-06
0.00283899
1.96091e-06
2.26817e-06
5.49544e-06
0.000224584
3.30595e-05
0.000251398
1.9987e-06
2.25134e-06
1.71007e-06
4.04992e-06
3.47399e-06
2.41822e-06
2.09582e-06
2.07525e-06
4.08086e-06
2.37321e-06
0.00360456
2.00406e-06
2.38829e-06
0.00215227
0.00267701
2.81511e-06
2.50112e-06
0.00310697
5.11895e-06
4.06227e-06
3.07185e-05
0.00112991
1.94004e-06
2.98449e-06
1.95902e-06
2.36971e-06
2.45032e-06
2.44821e-06
2.70367e-06
0.00373446
2.3464e-06
3.48487e-06
1.89892e-06
2.09994e-06
0.00156244
3.70781e-06
0.00537274
1.77105e-06
1.78141e-06
0.00374203
6.40478e-05
6.31693e-06
2.74999e-06
2.57543e-06
1.98828e-06
3.54455e-06
2.02808e-06
2.93052e-06
2.42219e-06
0.00370602
2.04405e-06
0.0102184
0.00512486
3.85315e-06
1.9058e-06
2.77093e-06
1.85963e-06
0.000105616
5.12133e-06
2.212e-06
2.23371e-06
3.64145e-06
5.21491e-06
1.84096e-06
3.34297e-06
3.09992e-06
2.08628e-06
2.11676e-06
4.10819e-06
0.00307326
3.6593e-06
3.44756e-06
0.00158838
2.30188e-06
1.69171e-06
2.05338e-06
0.00163937
0.000306589
0.00167379
2.30669e-06
2.9369e-06
1.80361e-06
3.7843e-06
1.69729e-06
0.0158798
1.88507e-06
2.03299e-06
3.33996e-06
2.89758e-06
1.762e-06
2.37776e-06
2.15059e-06
2.45635e-06
0.00466269
2.90086e-06
2.54091e-06
2.35115e-06
3.8577e-06
2.6383e-06
2.36249e-06
0.00171951
4.27643e-06
1.84308e-06
3.76116e-06
1.70588e-06
2.77057e-06
3.53128e-06
3.9211e-06
1.78857e-06
0.006091
8.48964e-05
2.22239e-06
1.74507e-06
2.72298e-06
3.10195e-06
2.32356e-06
3.60497e-06
3.67916e-06
2.685e-06
0.0025713
2.65317e-06
1.8521e-06
2.38794e-06
2.57591e-06
0.00174641
2.3386e-06
1.10911e-05
2.12632e-06
1.20224e-05
4.42046e-06
2.1777e-06
2.06023e-06
1.78655e-06
0.00420492
1.64743e-06
2.60607e-06
2.72428e-06
4.92498e-06
0.0031242
0.00724979
3.25237e-06
2.11557e-06
0.00364396
1.97294e-06
3.86618e-06
0.000660402
4.11289e-06
0.00619579
2.63522e-06
2.32732e-06
4.25609e-06
1.88135e-06
2.30924e-06
2.41688e-06
0.00228538
1.83309e-06
4.21775e-06
3.0286e-06
1.98609e-06
0.000282851
2.51498e-06
2.7766e-06
1.78211e-06
1.70255e-06
4.24432e-06
0.00907279
0.00589928
2.40157e-06
1.85782e-06
3.67458e-06
2.36932e-06
2.26709e-06
2.19393e-06
6.04392e-06
0.0074731
3.29411e-06
7.00037e-06
2.12159e-06
0.00640079
0.00327832
2.23797e-06
2.20191e-06
3.67698e-06
4.11249e-06
2.44786e-06
2.3534e-06
3.91066e-06
0.0028733
2.78543e-06
3.9543e-06
0.00524805
1.72395e-06
0.00196883
0.000315631
0.00201077
2.20096e-06
3.02767e-06
1.90984e-06
1.81104e-06
2.41784e-06
4.22797e-06
1.91171e-06
2.30323e-06
3.60259e-06
2.69832e-06
0.0074693
2.2502e-06
4.52195e-06
1.99093e-06
1.77536e-06
2.90626e-05
2.08838e-06
0.00568184
2.05034e-06
2.4628e-06
2.4148e-06
2.21231e-06
2.10447e-06
2.03912e-06
2.06412e-06
0.00111227
4.30604e-06
2.19184e-06
2.21653e-06
2.71919e-06
0.00371597
2.36939e-06
0.00970353
2.65735e-06
8.81459e-06
2.31812e-06
2.15757e-06
1.68308e-05
2.02345e-06
1.80454e-06
1.90978e-06
4.16006e-06
2.13085e-05
1.87441e-06
2.29764e-06
0.00743193
3.30328e-06
0.00183223
0.00215594
2.35264e-06
2.17441e-06
0.00882155
0.00220173
2.21898e-06
0.00298197
2.00634e-06
3.25037e-06
2.3249e-06
0.00955204
2.07205e-06
2.47376e-06
0.00130145
3.05549e-06
2.20727e-06
1.92409e-06
1.82977e-06
7.9958e-05
0.00752546
1.90353e-06
1.87458e-06
2.21928e-06
1.93918e-06
0.00117952
1.94702e-06
2.02031e-06
0.00114207
2.32023e-06
1.85372e-06
2.681e-06
1.88156e-06
1.75562e-06
2.27621e-06
2.87008e-06
2.18778e-06
2.1895e-06
0.001394
4.9451e-06
2.08808e-06
0.00119387
2.93412e-06
1.81086e-06
0.000483407
3.72166e-06
2.7648e-06
5.29796e-06
2.67558e-06
2.17904e-06
2.15619e-06
3.4946e-06
3.05167e-06
1.8515e-06
1.87819e-06
1.92479e-06
0.00236432
3.40379e-06
2.37943e-06
2.43438e-06
5.48299e-06
6.58026e-05
2.32932e-06
0.00138753
0.000940334
3.2041e-05
1.83332e-06
1.88394e-05
0.0019542
2.29843e-06
0.000982369
9.67564e-06
2.34192e-06
0.00118155
1.88007e-06
1.97003e-06
0.00194925
1.99494e-06
8.26848e-06
6.89308e-06
0.00153521
1.78272e-06
2.42961e-06
4.16837e-06
9.83509e-06
2.27711e-06
2.40726e-06
0.0045228
2.05155e-06
2.40226e-06
1.82209e-06
2.76464e-06
3.0673e-06
6.75128e-06
1.89695e-06
1.94763e-06
2.59259e-06
4.43051e-06
2.26818e-06
2.30965e-06
1.98754e-06
2.92203e-06
2.26246e-06
1.70121e-06
0.00338328
1.74466e-06
7.7593e-06
2.15476e-06
2.61002e-06
3.12273e-06
1.8638e-06
1.66793e-06
1.94121e-06
2.3989e-06
2.03509e-06
3.15168e-06
4.62416e-06
2.01939e-06
1.82389e-06
2.36039e-06