/*--------------------------------*- C++ -*----------------------------------*\
| =========                 |                                                 |
| \\      /  F ield         | OpenFOAM: The Open Source CFD Toolbox           |
|  \\    /   O peration     | Version:  v2012                                 |
|   \\  /    A nd           | Website:  www.openfoam.com                      |
|    \\/     M anipulation  |                                                 |
\*---------------------------------------------------------------------------*/
FoamFile
{
    version     2.0;
    format      ascii;
    class       volScalarField;
    location    "200";
    object      k_0;
}
// * * * * * * * * * * * * * * * * * * * * * * * * * * * * * * * * * * * * * //

dimensions      [0 2 -2 0 0 0 0];


internalField   nonuniform List<scalar> 
13308
(
0.000121608
9.93102e-05
0.00095524
9.82665e-05
0.000108938
9.60782e-05
0.000105421
0.000226228
0.000102471
0.000113034
0.000108968
0.0122079
0.000707313
0.000105203
0.000103362
0.000108696
9.18063e-05
9.63865e-05
0.000116014
9.61611e-05
0.000113701
9.41786e-05
9.37175e-05
0.00660247
0.000572716
9.41807e-05
0.00970532
9.45528e-05
0.0077847
9.50985e-05
0.0130415
0.00984192
0.00258681
0.00840194
0.000117972
9.84114e-05
9.33924e-05
0.000101399
9.88884e-05
9.93764e-05
0.000102394
9.61582e-05
0.00028758
0.000101884
0.00995683
0.00955886
9.64932e-05
0.000129334
9.79849e-05
0.000146213
0.0148796
9.90475e-05
9.55067e-05
0.0074925
9.61412e-05
9.61644e-05
9.49528e-05
0.000120815
0.000112729
0.000117638
9.19581e-05
0.000121018
9.73682e-05
9.95716e-05
9.38905e-05
9.18988e-05
9.87816e-05
0.00918722
0.0102401
9.65993e-05
0.000140394
9.72203e-05
9.1714e-05
9.30653e-05
9.5716e-05
0.000133461
0.00887522
0.000117328
0.00275754
9.69838e-05
9.18295e-05
0.000112996
9.23223e-05
0.000120852
0.00995783
0.000112688
0.000115091
0.000113141
0.000113819
0.000114353
0.000113724
0.00763134
0.00011982
0.000137661
0.00010672
0.000114201
9.2108e-05
0.000194502
0.000102125
0.00010468
0.000105899
0.000128543
9.58929e-05
0.000100623
9.17885e-05
0.000123452
0.00025134
0.000117669
9.62652e-05
0.000924545
0.000133414
0.00985334
0.000113577
0.00773525
0.000105979
0.00268165
0.000111286
0.000107521
9.67823e-05
0.000133754
0.000106578
0.000128538
0.000130071
0.000112953
0.000219854
0.000108391
0.00968261
0.000121855
0.000145361
0.00182888
0.000266789
9.75029e-05
9.87735e-05
0.000105218
0.000129373
9.85719e-05
0.000102292
9.59628e-05
0.00091564
0.000100811
0.00163934
0.0084149
0.00864015
0.000107137
0.012623
0.000286537
9.78965e-05
0.000104273
0.000124058
0.0079856
0.006836
0.000102763
9.63033e-05
0.000101793
9.61719e-05
9.84077e-05
0.000125586
0.000102316
0.000210133
0.0083063
0.000125791
0.00924109
0.000107825
0.000102867
9.44363e-05
0.000245676
0.000105033
0.000950999
0.000436841
0.000128199
0.000200599
9.85448e-05
0.011633
0.000716254
0.000101615
0.000144921
9.3141e-05
0.000223702
9.8865e-05
0.000102181
0.000121668
9.66817e-05
9.45588e-05
0.0118316
0.000105767
0.000101859
0.000129956
9.18948e-05
9.2563e-05
0.000107378
9.72929e-05
9.72758e-05
0.000269033
0.00657413
0.000192561
0.000256605
0.000118921
0.000124771
9.17045e-05
0.000189959
0.00206637
0.000104407
0.000109102
9.65013e-05
0.000113673
0.000204684
0.00010543
9.82423e-05
0.000124712
9.63548e-05
0.000104616
0.00708862
0.000141468
0.00124529
0.00010841
0.000113727
9.12659e-05
0.00044905
9.49315e-05
9.48429e-05
0.000103524
0.00013466
0.00010562
0.000121433
0.00010311
0.000433003
0.000105082
0.000146446
0.0178639
0.000111274
9.71449e-05
0.000133592
0.000105087
9.28814e-05
0.000107787
0.000101861
9.21404e-05
9.19015e-05
9.71423e-05
0.000111359
0.000100224
0.000114062
0.000129539
0.000263775
0.000117306
0.000108279
0.00214996
9.9085e-05
0.000129457
0.000101198
0.000119643
0.000103242
0.000261572
0.000137396
0.000143662
0.000112231
9.60503e-05
0.000112048
0.000106677
0.000107507
0.000108835
9.1296e-05
9.44858e-05
9.1718e-05
0.00875307
9.92016e-05
0.00110739
0.000123195
0.00775096
0.000121246
9.48843e-05
0.000107943
0.00011138
0.000101605
0.000215868
0.00047215
9.21082e-05
0.000111295
0.000201623
9.48142e-05
0.000112548
0.000106602
0.000175747
0.0001251
0.000122204
0.000135444
0.000133327
0.000150299
9.25835e-05
9.63103e-05
0.00197183
0.0080024
0.00134203
0.00894921
0.000111398
9.31164e-05
9.89158e-05
0.000120018
0.00786087
0.000109849
0.00910486
9.6537e-05
0.000108372
0.000106264
0.000128239
0.000122109
0.000107421
0.000118955
0.000113023
0.000102542
9.99151e-05
0.000107188
0.0146491
0.000106495
0.000234281
0.00849688
0.000301247
9.64066e-05
0.000237231
0.000103101
0.000111229
0.000129924
9.63334e-05
9.26226e-05
0.000100744
0.000127418
9.65292e-05
0.000120877
9.91918e-05
0.000108078
0.000169757
0.000262417
0.00011166
0.000108313
0.000104642
0.0158526
0.000218977
0.000104238
9.49584e-05
9.7172e-05
0.00219161
0.000136025
0.000107737
0.000111578
9.91588e-05
0.000132861
0.000100151
0.000102175
0.000105745
0.0200762
9.65709e-05
0.000102126
0.000113217
9.83033e-05
0.000155033
0.000103217
0.000108746
0.0018803
0.000370031
0.00012524
0.000118983
9.64627e-05
0.011431
0.000108198
0.000310884
9.70294e-05
0.000118029
0.000357009
0.000145402
0.000102778
0.000192106
0.00826206
0.000158988
0.000384839
0.000105787
0.00010601
0.000241166
0.000101292
0.000241921
9.83109e-05
0.000125889
0.000133524
0.000121286
0.00018921
0.000132551
0.000114168
9.47869e-05
0.000108391
9.50201e-05
0.00667545
0.0078803
9.87719e-05
0.000101821
0.014115
9.8751e-05
0.000151933
0.000121299
0.000111643
0.000285925
0.0090308
0.000121678
0.000115858
0.000114099
0.000126088
9.90036e-05
9.50222e-05
0.000114834
0.000124949
0.0038403
0.000108325
0.000255713
0.00912434
0.000337462
0.000103815
0.0064201
9.71001e-05
0.000120676
0.000121232
0.00011582
9.69925e-05
9.52491e-05
0.000130522
0.000120996
9.85831e-05
0.0165096
0.000107396
0.000111055
0.00700152
0.00309406
0.00288809
0.000106684
0.00706401
0.00917629
0.00011436
0.000106859
0.000118784
9.29641e-05
9.58934e-05
9.65293e-05
0.000104827
0.000117404
0.000115941
0.000116831
0.000114856
9.54016e-05
0.00840178
0.000181655
0.000124662
0.000109498
0.000242648
0.000197336
0.000103908
0.000104786
9.63149e-05
0.000116932
0.0126038
9.87081e-05
9.67935e-05
0.00026594
0.000196473
9.7328e-05
0.000108818
9.50454e-05
0.000138717
9.63606e-05
9.94042e-05
9.93212e-05
0.0195596
9.65134e-05
9.99766e-05
0.000115199
9.97666e-05
0.00012001
0.000224289
0.000117591
0.000140997
0.000104343
0.000141677
0.000110094
0.000149191
0.000124842
0.000125328
0.000113409
0.000128652
9.85118e-05
0.0101388
0.000101993
0.00890544
9.47502e-05
0.000111491
9.82454e-05
0.0116252
9.66891e-05
0.000120754
9.6613e-05
0.000119529
0.000188376
0.000120225
0.000114723
0.000102319
0.000104418
0.0119861
0.000114182
0.0102964
0.000105133
0.00922164
0.000121656
0.000221834
9.94048e-05
0.00940576
0.000101872
0.0101627
0.00781671
0.00010462
9.92947e-05
0.0012203
0.00309491
0.000132547
0.000122346
9.98871e-05
0.00012278
0.00869859
9.67564e-05
0.000337132
0.000668871
0.018224
0.000180896
0.000120114
0.0136152
0.000120658
0.000121809
0.000136475
0.00697684
0.000110862
0.000102487
9.91616e-05
0.000108186
0.000106178
0.000433848
0.000137495
0.000207258
0.00806411
0.0153084
9.91235e-05
0.000121862
0.00011592
0.000141187
0.0144217
0.00092619
0.00018932
0.000119144
0.000132855
0.000226331
0.000122189
0.000123292
9.20067e-05
0.00012019
9.63412e-05
0.000235761
9.13911e-05
0.00011132
0.000127095
0.000120358
0.000105688
0.000130796
0.000111077
0.000198292
0.000119704
0.00014601
0.000126019
0.00874965
0.000115193
0.000110608
0.00776523
0.000118942
0.0125677
9.85304e-05
0.000145917
0.000126523
9.92034e-05
0.000102471
0.000104344
0.00010759
9.66105e-05
0.000120281
0.000121941
9.78758e-05
0.000127382
0.000139174
0.000217198
9.77171e-05
9.59634e-05
0.000104724
0.000165861
9.86752e-05
0.000110769
9.84441e-05
0.000118255
9.69238e-05
0.0088519
0.00679697
0.000124116
0.000117843
9.90816e-05
0.00010497
9.85318e-05
0.00983952
0.000135789
0.000165641
9.64679e-05
0.000118203
9.14532e-05
0.000143559
0.00757316
0.00010388
0.00227633
9.81816e-05
0.000101547
0.0164175
0.000359803
0.00255619
0.000100724
0.000119687
0.00775476
0.00240468
0.000126298
0.00924541
0.000181435
0.000170507
0.000111505
0.00876409
9.75415e-05
0.000115797
0.000102785
0.000139366
0.000119163
0.000115683
0.0001021
0.000115001
0.00465389
0.0187628
0.0149632
0.000270581
0.000119896
0.000110984
0.000110119
0.00011107
0.00012299
0.00012059
0.000109934
0.000188238
9.54477e-05
0.00829346
9.26207e-05
0.00991752
0.000113225
9.29216e-05
9.21749e-05
0.000106873
0.000106161
0.000110864
9.73025e-05
9.84187e-05
0.0104023
0.000119563
0.000127662
0.000182752
0.000126221
0.000129987
0.000101895
0.00725819
0.000135598
0.000107101
0.000108606
0.000108693
0.000100714
0.000111184
0.0001107
9.48389e-05
0.0139358
0.00911682
0.000114186
0.0131524
0.000134513
9.37651e-05
0.00828006
0.000136266
0.000128331
9.63441e-05
0.000106227
9.17627e-05
9.87854e-05
0.00863849
0.000147047
0.000101804
0.000103402
0.00189986
9.20977e-05
0.000123553
0.000107615
0.000103858
0.00010114
0.00791641
0.000106871
0.000102927
0.016986
0.000359484
0.000119963
0.000103576
0.00259664
0.000100916
0.00818165
0.000108505
0.0001158
0.000103383
0.000101441
0.000123935
0.000129366
9.8e-05
0.000329765
0.000135007
0.000103854
0.00808633
0.000103463
0.00010154
0.000112812
0.0086847
0.000131648
0.000183079
0.000110328
0.000134248
0.019438
0.000146039
0.000143279
0.000116432
0.00913114
0.000135884
0.00682066
0.000106523
0.000162869
0.000214267
0.000107242
0.000110551
0.000106505
0.000134464
0.000110393
9.9525e-05
0.000103373
0.000151832
9.95725e-05
0.000329151
0.000122123
0.00696806
0.000115394
0.000174862
0.00351996
0.000141612
0.00212559
9.90664e-05
0.000137063
0.000100177
0.000161773
0.00010633
0.000103976
0.000107425
0.000129937
0.000104873
0.00010844
0.0166601
9.6971e-05
0.000354699
0.000137992
0.000112485
0.000135814
0.00812778
0.000104165
0.00625925
0.0130387
0.000149207
0.0123018
9.68427e-05
9.83741e-05
0.000114958
9.36468e-05
0.000115351
9.56223e-05
0.00841229
0.0168138
0.00826015
9.65866e-05
0.000122489
0.000111601
0.000111999
0.000109351
0.000382096
0.000106942
0.000107132
0.000111991
0.0117271
0.000142731
0.000120558
0.000136752
0.000103759
0.00012137
0.000129369
0.000207274
0.000117922
0.000100119
0.00011584
0.00369234
9.86265e-05
0.00774495
9.60531e-05
0.000548139
0.000115636
0.000107747
0.000101968
9.86484e-05
0.000116159
9.92374e-05
0.000104339
0.000204264
0.000179066
0.00805905
0.000122502
0.000107212
0.000108076
0.000110988
9.64621e-05
0.000120175
0.000129392
0.0183257
0.000110814
0.000117125
0.000112684
0.000101624
0.000107957
0.000100199
0.000115225
0.000118338
0.00010909
0.000109243
0.0195757
0.000100774
0.000110785
9.92472e-05
0.000113573
0.000105047
9.23214e-05
0.000124744
0.000103979
0.012008
0.00259791
0.000109823
0.000115516
0.00011174
0.000138725
9.648e-05
9.93991e-05
9.41152e-05
0.0001231
0.000111875
0.000137871
9.75597e-05
0.0002487
0.000111206
0.000109754
0.00707661
0.000106079
0.000109972
0.000131086
0.000111114
0.0083385
0.000101961
0.000146322
0.000104998
0.000127725
0.00020003
0.000100666
0.000104396
0.00661315
0.000113933
0.000115278
0.000100272
9.71323e-05
0.000119151
0.0017538
9.6175e-05
0.00837443
0.00311221
0.000118833
0.000212901
0.000100773
0.0117656
9.35215e-05
0.00185237
0.0140413
0.000121119
9.90375e-05
9.71464e-05
0.000101247
0.000110187
0.0128508
9.28106e-05
0.000148342
0.000116665
0.000102627
0.000200674
0.00710723
0.000135418
0.0189083
0.000101491
0.000104657
0.00906175
9.38048e-05
0.000119749
0.000312991
0.000104196
9.66807e-05
0.000128229
0.0082579
0.000119655
0.0117191
0.0176758
0.000105523
0.000177843
0.000283214
0.000111384
0.00011449
0.00010447
0.000103616
0.000208128
0.000123354
0.000734817
0.000119283
0.000111253
0.000123855
0.0174415
0.000105611
0.000189367
0.00270311
0.000108173
0.00864376
0.000120331
0.01175
0.000117021
0.00829417
0.000146995
0.000109002
0.000104877
0.00238973
0.000123606
0.00012205
0.000131371
0.000102266
0.00754972
9.65688e-05
9.84029e-05
0.000108285
0.00011873
0.000103376
9.75404e-05
0.000116276
0.000136599
0.000114262
0.000103197
0.000148537
0.00010788
0.000109341
0.000134556
0.000139287
0.000114266
0.00011091
9.70032e-05
0.000124072
0.00793709
0.000106274
0.000107909
0.000104391
0.00820877
0.000100205
0.00836985
9.2104e-05
0.000111947
0.000217945
9.41266e-05
0.00874722
9.19551e-05
9.77213e-05
0.00116715
0.00011456
0.000196717
0.000273169
0.00827935
0.000128317
0.000101003
0.000110603
0.000115183
0.000128497
0.000103654
0.000107778
0.000109285
0.000108533
0.000101806
0.000120567
0.00026946
0.00168671
0.0157617
0.000103397
0.00778941
0.000102777
0.000114459
0.000162504
0.0001324
0.000149273
0.0144876
0.000146824
0.000104718
0.00828791
0.0001317
9.37058e-05
0.00242354
0.00010613
0.00012144
0.000104619
0.000102614
9.69791e-05
0.0122973
0.000176031
0.000166429
0.00106251
0.00060447
0.0105302
0.000100732
0.000541627
0.000131915
0.00695879
0.000104603
9.62736e-05
0.000107928
0.000209194
0.000108924
9.38838e-05
0.000111138
0.000114852
0.000108262
0.000122889
0.000214156
9.36502e-05
0.000148527
0.000148371
0.000105946
9.50032e-05
0.000106225
0.000102053
9.26371e-05
0.000108576
0.00010942
0.000132861
0.000106144
0.00124046
0.000100358
0.0142806
0.000105447
0.000106058
0.000164564
0.000127069
0.0198381
0.000116553
9.5993e-05
0.000109702
9.85523e-05
0.000199773
0.000115195
0.000103106
0.000110932
0.000122812
0.000110749
9.66313e-05
0.000106818
0.0119581
0.000111054
0.000113312
0.000112744
0.000105229
9.92656e-05
0.000116388
0.000112685
0.000108672
9.48162e-05
0.000538759
0.000118881
0.000106765
0.000113319
0.000180003
0.000122666
0.000101014
0.0002346
9.08892e-05
0.000116036
0.000104233
0.000110814
0.000109522
0.000113001
0.000107049
0.000106739
0.0088216
0.000954529
9.39338e-05
0.000108339
0.000117113
9.5527e-05
0.00222679
0.000112558
9.37043e-05
9.44915e-05
0.00010275
0.000170752
0.000101358
0.000105051
0.0001766
0.000136243
0.0139026
0.000128722
9.55158e-05
0.000110057
0.0123942
0.000106078
0.000114541
0.000105148
0.000117058
0.000109808
0.000108245
0.000207422
0.000125961
9.37941e-05
9.56985e-05
0.000100647
0.000146045
9.41339e-05
9.5516e-05
0.018386
0.00011993
0.000103162
9.31387e-05
0.0108471
9.35836e-05
0.000125252
0.00011481
0.000110683
0.000100882
0.000120101
0.000104633
0.000214936
0.000102565
0.000108766
0.000120883
0.000102441
0.00849413
0.000105758
0.00980256
0.000215824
0.000111026
0.00897524
0.000146779
0.000108054
0.000107295
0.000101209
9.63034e-05
0.000112973
0.000198095
0.000135331
0.000115756
9.79247e-05
9.98669e-05
0.0100922
0.000170656
9.71589e-05
0.000123915
0.000107281
0.000103528
0.0179721
9.7455e-05
0.000116186
9.33041e-05
0.000105803
0.000108233
9.33845e-05
0.000146146
0.00100071
0.0170567
0.000107316
0.000111268
0.000107485
0.00012236
0.000116201
0.000133049
9.43002e-05
0.00799382
9.69757e-05
0.000218166
0.00211849
9.07599e-05
0.000111321
0.000103058
0.000117233
0.0139644
0.000675362
0.000103408
0.000116769
0.00010561
0.00945743
0.000136229
0.000106401
9.39367e-05
0.00237967
0.000108922
0.000112686
0.000151225
0.000111833
0.0115307
0.000104408
0.000114911
0.000118631
0.000241215
0.000199083
0.000116939
0.00784556
0.000105033
0.000116434
0.000191476
0.000120749
0.000103761
0.000118708
0.000103391
0.000106944
0.000105959
0.000109766
0.000164586
0.000102951
0.00809266
0.000128993
0.000120918
0.00893072
9.70375e-05
0.000111151
0.000162366
0.000235023
0.000101067
9.24755e-05
0.0189284
0.000102504
0.000110694
9.35988e-05
0.000108564
0.000106289
0.000107333
0.0123781
0.000147126
0.000139807
0.000113954
0.000110237
0.000102436
0.00582027
0.000142541
0.000103309
0.00012762
9.44791e-05
0.000145015
0.000124701
0.00998874
0.00010442
0.000113372
0.000107778
0.000112469
0.000147011
0.000107812
9.611e-05
0.000147382
9.99484e-05
0.000142699
0.000272788
0.000186594
0.000126963
0.0017575
0.000120829
0.000105351
0.00480949
9.59462e-05
0.000111459
0.000133467
0.00822744
0.000249524
9.54982e-05
0.000114396
0.0077796
0.000215753
0.000103375
0.00808635
0.00877837
0.0182697
9.71567e-05
0.000110225
0.000146728
0.000105111
0.000104034
0.000115174
0.000135031
0.000111804
9.7492e-05
0.000108676
0.000272102
0.00013739
0.0158139
0.00010112
9.45483e-05
9.34283e-05
9.93679e-05
0.00011629
0.000101797
9.87486e-05
0.000109532
0.000211247
0.000116485
0.000116422
0.00010717
0.000105414
0.000113279
0.00018283
0.000142013
9.62594e-05
0.000118142
9.91975e-05
9.66954e-05
0.000116442
0.000114521
0.0100172
0.000105971
0.000111082
0.000145202
9.60087e-05
0.000119208
9.26623e-05
9.84468e-05
9.6815e-05
0.000113619
0.00274633
0.000100439
0.000995265
0.0195333
0.000323726
0.00853198
9.69396e-05
0.00011241
0.000194177
0.0143245
9.71797e-05
0.000148339
9.86305e-05
0.000117358
0.000106067
0.0166379
0.000100344
0.000117189
0.000129532
0.0132362
0.000110666
0.0022331
0.000186574
9.3725e-05
0.000104679
0.000110469
0.000105513
0.000105324
0.000767857
9.71317e-05
0.000113088
0.000133639
0.000110441
0.000124354
0.000111785
9.94484e-05
0.0159996
0.000108358
0.0110232
0.00010541
0.000110318
0.01537
0.00912267
0.0144329
0.000103581
0.000106338
0.00011996
0.0187666
0.00147794
0.000123864
0.000111799
0.0011204
0.00011491
0.000134373
0.000105284
9.65765e-05
0.000104228
0.00011405
9.39104e-05
0.000180294
0.000104704
9.85331e-05
0.000110763
0.00011252
0.000108501
0.000796059
0.000166942
0.000118248
0.0151515
0.000111994
0.000115307
0.000101334
0.000216449
9.4824e-05
9.46024e-05
0.0215873
0.000111127
9.67282e-05
0.000122918
0.000102674
0.000105843
0.000110511
0.000100749
0.0137506
0.000104565
0.000111018
0.000110888
0.00984073
0.00983493
0.000116904
9.8171e-05
0.000108562
0.00947963
0.000127439
0.000106249
0.0124901
0.000147189
0.000182675
9.94427e-05
0.000147164
0.000122707
0.000119601
0.00654373
0.000214343
0.000115783
9.82584e-05
0.00153399
0.000116136
0.0103671
0.0165401
0.00795364
0.000101952
9.98572e-05
0.000104502
0.000101313
0.00911406
0.000111257
0.000153631
0.000100538
0.000114342
0.000130493
0.000124907
0.00895273
9.47492e-05
0.000106504
0.000105373
0.000115509
0.00011292
0.0101193
0.000102343
0.000105797
9.28043e-05
0.000143529
0.00875346
0.000100805
0.00932207
9.37995e-05
0.000139592
0.00010783
0.000105801
0.000122674
0.000108991
0.000105141
0.000103115
0.000118619
0.000114633
0.000131915
0.000151241
0.000103248
0.000109971
0.000111557
0.000101085
9.9289e-05
0.000145723
0.0102651
0.000129824
0.000104533
0.000100236
0.000103386
0.010876
0.000110981
0.00237195
0.00271142
0.00011687
0.000114676
0.000111191
0.000111981
0.00970997
0.000125356
0.00148638
9.91385e-05
9.09068e-05
0.000108786
0.000108052
9.97579e-05
0.000175788
0.000105492
0.00683297
0.000216706
0.000119865
0.0133203
0.000118513
0.000148391
0.00010208
0.000102282
0.000139559
0.000169096
0.000104314
0.000111654
0.000108539
9.97081e-05
0.011993
0.000110977
0.000103915
0.000112637
0.000101075
0.00447373
9.69185e-05
9.71287e-05
9.90302e-05
0.000104451
9.22425e-05
0.000105879
9.61061e-05
0.000102493
0.000105781
0.000102731
0.000117323
0.000949256
9.51783e-05
0.000111321
0.000281193
0.000127885
9.58995e-05
0.000148941
0.000103445
0.000103337
0.0201392
0.000132829
0.000100417
0.000104151
0.000170746
0.000121641
0.000103474
0.000104408
0.000100685
0.000105449
0.000110456
0.000126351
0.00023896
0.000130637
0.00703909
9.55722e-05
9.77913e-05
9.52535e-05
0.00905533
0.000124983
9.9776e-05
0.000100061
0.000189833
0.000144341
0.000115205
0.000105293
9.97596e-05
9.79364e-05
0.000131341
0.000113534
0.000128611
0.000276924
0.000111342
0.000101122
0.000125099
0.00948221
9.6305e-05
0.000101356
0.000137042
0.000115223
0.00155625
0.0114837
0.000118933
0.000113728
9.43692e-05
9.69371e-05
0.000111739
0.0087312
0.00901482
0.000108787
0.000104561
0.000102336
0.000257271
0.000133556
0.000188452
0.000205138
0.000107591
0.000289173
0.000106104
0.00138426
0.000137914
0.000139935
9.9497e-05
0.000144034
0.000122491
0.000142885
0.000101583
0.00976219
0.000105786
9.8187e-05
0.000148501
0.0178872
0.000104292
0.0139327
0.00011551
0.000117209
0.000122259
0.000111614
0.000103332
0.000111819
0.000196443
9.2558e-05
9.58706e-05
0.000115666
0.000116826
0.000144228
0.000101353
0.011174
0.000100023
0.000109907
0.000119601
0.000137797
9.66778e-05
0.000110016
0.00913553
0.000102603
0.000107062
0.0001036
0.000184262
9.19563e-05
0.000103807
0.000151307
0.0123644
0.0001031
0.000116433
0.000127993
0.000159491
9.47401e-05
0.000111119
0.000110456
0.00209946
0.000180888
9.67188e-05
0.00011406
0.000128696
9.74338e-05
0.00016641
0.000114298
0.00803467
0.000131287
0.000101493
9.85653e-05
0.000105176
0.000110373
9.97709e-05
0.0001081
9.76976e-05
0.0121514
0.000102864
0.000111324
0.000183132
0.000103104
0.000112191
0.000111186
0.000100453
0.000154782
0.000102555
0.000112861
0.000126338
0.00012432
0.000112847
0.00011178
0.0185472
0.000126988
0.000100821
0.0001136
0.000109475
0.00011019
0.00920196
0.000109992
9.67357e-05
0.000213473
0.000121479
0.00010997
0.000151759
0.0001167
0.000108036
0.000169267
0.000125884
0.00880088
0.000108499
0.00010715
0.000102365
0.00982369
9.09135e-05
0.000110763
0.000982242
0.000129793
0.000232025
0.000108351
0.00010216
0.0133728
0.0149566
0.014397
0.000106967
0.000140941
0.000105574
0.00084884
9.85777e-05
0.0224149
0.000115742
0.000109067
0.000558708
0.000100511
0.000124092
0.000105522
0.000110963
0.000113343
0.000116932
0.000109833
0.000269136
0.000134458
0.000102899
0.000899394
0.000107659
0.000131357
0.000115313
0.000110259
0.000120061
0.000444638
0.000131989
0.000361935
0.000109814
0.000196171
0.00741592
9.47994e-05
0.0119131
9.72119e-05
9.43492e-05
0.000100824
0.000107235
0.000124744
9.96951e-05
0.000127721
0.000104166
0.000167555
0.000107083
0.000596878
9.74809e-05
0.000105494
0.000104815
0.000104181
0.000150473
0.0112178
0.000106022
0.00010262
0.000143095
9.07188e-05
0.000103646
9.77362e-05
0.00751655
0.000102789
0.000105827
0.000105173
0.000100657
0.0199732
0.0187859
0.00010924
0.0124268
0.0128624
0.000109963
0.00664959
0.000111977
9.48619e-05
0.00118406
0.000100015
0.00600598
0.000106968
0.000200412
0.000104235
0.000107681
0.00588373
0.0079063
0.000106506
0.000103004
0.00010201
0.000188564
0.000108051
0.0073293
9.80411e-05
0.00202342
0.00702344
0.000106323
0.00916946
0.000129993
0.0159201
0.000105932
9.95287e-05
0.000106833
9.516e-05
0.000125653
0.0110778
0.000112695
0.00010687
0.000108896
0.000108735
9.42786e-05
0.000123059
0.00022363
0.000105027
9.83665e-05
9.92099e-05
0.000102605
0.0151648
0.000116705
0.0215542
0.000371686
0.000100677
0.00011226
0.000121841
9.90795e-05
0.00726663
0.000102786
0.000119862
0.000130091
0.000101505
9.76593e-05
0.000183598
0.000103702
0.000102523
0.000124769
9.54595e-05
0.00011245
0.00011175
9.69353e-05
0.000116398
0.000110006
0.00018292
0.000146023
0.00753739
9.43548e-05
0.0135675
0.000104341
0.000199364
0.000100145
0.000105548
0.000156441
0.000108155
0.000503215
0.000607818
0.000124659
0.000129999
0.000193611
0.000125084
0.000110633
9.88772e-05
0.000234246
0.000105338
9.92143e-05
0.000113992
0.00011017
0.000136746
0.000103602
0.000107199
0.000108174
0.000109572
0.000125304
0.0228606
0.000121413
0.000119539
0.000135348
9.36234e-05
9.08985e-05
0.000136465
0.000106772
0.000110617
0.000104528
9.48737e-05
0.000104681
0.00010312
0.000126093
0.000126923
0.0117005
0.000107487
0.0109096
0.000129184
9.57513e-05
0.00944942
0.000107847
0.000126486
9.8362e-05
9.89043e-05
9.90826e-05
0.000107126
0.000115882
0.000101222
0.000108618
0.000104969
0.0106537
0.000100373
0.00775726
0.00707426
9.19809e-05
0.000104093
0.0126322
0.000149767
9.34362e-05
9.11126e-05
0.000103966
0.000106813
0.000125321
9.5815e-05
0.000231288
0.000110747
0.000103456
9.95473e-05
0.000132209
0.000130761
0.000162966
0.000109976
9.92707e-05
0.000102394
0.000116082
9.75824e-05
0.00013051
0.00014924
0.000101309
0.000102205
0.000151238
0.000141879
0.00011793
0.000100545
9.81725e-05
0.000111482
0.00157541
0.000102421
0.0122119
0.000147168
0.000102773
0.00014198
0.000124546
0.000105976
0.000162958
0.000144776
0.0116035
0.000103506
0.000197099
0.000122387
0.000302591
0.0004357
0.00989163
0.000143971
0.0001112
0.000100266
9.99417e-05
0.000162741
0.0150821
0.000664719
0.00010381
0.000159596
9.92815e-05
0.0137787
0.000111189
0.00016229
0.000123805
0.000100799
0.000138327
0.000105458
0.000103923
0.000114962
0.000123556
0.000105513
0.000113487
0.000110298
0.0169173
0.0116429
9.50372e-05
0.000106499
0.000115011
0.000104639
9.70146e-05
0.000104325
0.000103054
9.99964e-05
0.000153707
9.35168e-05
9.50544e-05
0.000114944
0.000113337
0.000100933
9.93616e-05
0.000104858
0.000102889
0.0102443
0.000112791
9.91874e-05
9.45269e-05
0.000115358
0.000324144
9.6568e-05
0.000105237
0.000143193
0.000130781
0.000102212
0.0127834
0.000109678
0.000119252
0.000216295
0.000146565
0.00016386
9.56807e-05
9.87729e-05
9.7819e-05
0.000143895
0.000106922
0.0120322
0.000103192
0.000112712
0.000110382
0.00010251
0.000117312
0.000282395
0.00010452
0.000124267
0.000116796
0.000123698
0.000103478
0.000129383
9.87154e-05
9.69324e-05
0.000214316
0.000176626
0.014345
0.000105676
0.000125254
0.000106956
0.00991594
0.000105311
0.000108688
0.000101608
9.66103e-05
0.000169218
0.000108743
0.00966794
9.38747e-05
0.000114333
0.000105337
9.82834e-05
0.000853228
9.8114e-05
0.000112036
9.71493e-05
0.000101479
9.98547e-05
0.000116616
0.000107553
0.000119192
0.000101391
9.7645e-05
9.54018e-05
9.48169e-05
0.000116093
0.000103918
0.00844246
0.000469008
0.000175169
0.00921601
0.000114542
0.00011099
0.000100324
0.000152608
0.00876112
9.8351e-05
0.00402396
0.000117267
0.000111835
0.00906195
0.0188291
9.76054e-05
0.000108817
9.72714e-05
0.00912906
0.000100385
0.000107359
0.000202584
0.00207649
0.000589219
0.002092
0.000101297
0.000110799
9.3333e-05
0.000145173
0.000151379
0.000111006
0.000103101
0.000102784
0.000215531
0.000111144
0.0126889
0.000103261
0.000110297
0.00923608
0.0107331
0.000126802
0.000116045
0.0112793
0.000194724
0.000171786
0.000565084
0.00639758
9.94104e-05
0.000123823
0.000100636
0.000117183
0.000111965
0.000119091
0.000117647
0.0119736
0.000111045
0.000156432
9.78794e-05
0.000103234
0.00770966
0.000162594
0.0107737
9.50885e-05
9.50284e-05
0.0100249
0.000883036
0.000238088
0.00012736
0.000114674
0.000100293
0.000135444
0.000101614
0.000122697
0.000118728
0.0122379
0.000105672
0.020319
0.0148043
0.000141426
0.000100887
0.000119157
9.70089e-05
0.00125122
0.000198677
0.000106729
0.000106554
0.000137348
0.000196791
9.65355e-05
0.000131392
0.000126324
0.000102783
0.00010408
0.000146224
0.0108323
0.000137693
0.000133472
0.00783688
0.000111389
9.22038e-05
0.000104463
0.00796678
0.00255976
0.00810401
0.000110451
0.000122792
9.53599e-05
0.000157356
9.23686e-05
0.00804525
9.77899e-05
0.000102094
0.000131301
0.000121945
9.43875e-05
0.000115031
0.000104636
0.000112082
0.0144392
0.000122009
0.000113967
0.000110048
0.000141579
0.000116186
0.000109643
0.00821857
0.000149341
9.78701e-05
0.000158337
9.25604e-05
0.000119128
0.000156737
0.000165576
9.52406e-05
0.015959
0.00106812
0.000111055
9.39304e-05
0.000118103
0.000139127
0.000110519
0.000136652
0.000159111
0.000122845
0.00985382
0.00012371
9.88832e-05
0.000112764
0.000122067
0.00830017
0.000111323
0.000372669
0.000104461
0.000360434
0.000181283
0.000105519
0.000102216
9.49113e-05
0.0139181
9.10337e-05
0.000115413
0.000118089
0.000188154
0.00879691
0.0169963
0.000129547
0.000103998
0.0117949
0.000100791
0.000170963
0.00403807
0.000180183
0.00916546
0.000116096
0.000110244
0.000169054
9.80198e-05
0.000108478
0.000117249
0.00932845
9.83522e-05
0.000177291
0.000124798
0.000100516
0.00227002
0.000113397
0.000128675
9.54317e-05
9.25697e-05
0.000148721
0.0160049
0.0166629
0.00011341
9.82356e-05
0.00013797
0.000110048
0.000113969
0.00010591
0.000217244
0.0147553
0.000130416
0.00028213
0.000103666
0.00828887
0.00865332
0.00010724
0.000105695
0.000177274
0.000146341
0.000111711
0.00010999
0.000142557
0.00876598
0.000119468
0.000161132
0.0149821
9.33465e-05
0.00858108
0.00267155
0.00878124
0.000105743
0.000124776
0.000100968
9.57104e-05
0.000111426
0.000148467
9.82469e-05
0.000114993
0.000166725
0.000117574
0.0189899
0.000106918
0.000177165
0.000100463
9.44971e-05
0.000557769
0.000106589
0.0107638
0.000105904
0.000112225
0.000110965
0.000106723
0.000107543
0.000101565
0.000102676
0.00585579
0.000171073
0.000111275
0.000107077
0.000118038
0.0107839
0.000110754
0.0202524
0.000116587
0.000307754
0.000110172
0.000106717
0.000516329
0.000101908
9.58951e-05
9.9136e-05
0.00014721
0.000518847
9.72549e-05
0.000108993
0.00831333
0.000130529
0.00842854
0.00939588
0.00011053
0.000109533
0.0186845
0.00684774
0.000106194
0.00954182
0.000104045
0.000129457
0.000110865
0.0216572
0.000102458
0.000112307
0.00681344
0.000125347
0.000106918
9.85662e-05
9.71161e-05
0.0010535
0.0193548
9.89999e-05
9.99679e-05
0.000106305
9.89818e-05
0.00657725
9.9187e-05
0.000101095
0.00647337
0.000109948
9.68557e-05
0.000124924
9.76587e-05
9.45752e-05
0.000110157
0.000132118
0.000105343
0.000105884
0.00719262
0.000188799
0.000102993
0.00664989
0.000122754
9.55535e-05
0.00348927
0.000138931
0.000119044
0.000198377
0.000117013
0.000106019
0.000105052
0.000134481
0.000125276
9.69464e-05
9.94109e-05
9.95351e-05
0.00778203
0.000145966
0.000112239
0.000111417
0.000234974
0.000925013
0.000112251
0.00721854
0.00562255
0.000591654
9.69027e-05
0.000445743
0.0070635
0.000109127
0.00573877
0.000352582
0.000113568
0.00644919
9.95333e-05
0.000100867
0.00737618
0.00010462
0.000281037
0.000236881
0.00760912
9.50404e-05
0.00011128
0.000147373
0.000314871
0.000107886
0.00011124
0.0111964
0.000101869
0.000110622
9.72544e-05
0.000119056
0.000135489
0.000241483
9.80698e-05
0.000100219
0.000121591
0.000181171
0.000113972
0.000108762
0.00010122
0.0001309
0.000109902
9.315e-05
0.012248
9.42799e-05
0.000256873
0.000104712
0.000122802
0.0001268
9.83993e-05
9.15259e-05
9.9005e-05
0.000111912
0.000103544
0.0001274
0.000180063
0.000105331
9.79918e-05
0.00010962
9.78061e-05
0.000110083
0.000107819
0.00013691
0.0120836
0.000118244
9.47511e-05
9.07028e-05
0.00018616
0.000146731
9.54127e-05
0.000108637
0.000112352
0.000474034
0.00841846
0.00011039
0.0189215