/*--------------------------------*- C++ -*----------------------------------*\
| =========                 |                                                 |
| \\      /  F ield         | OpenFOAM: The Open Source CFD Toolbox           |
|  \\    /   O peration     | Version:  v2012                                 |
|   \\  /    A nd           | Website:  www.openfoam.com                      |
|    \\/     M anipulation  |                                                 |
\*---------------------------------------------------------------------------*/
FoamFile
{
    version     2.0;
    format      ascii;
    class       volScalarField;
    location    "350";
    object      ddt0(k);
}
// * * * * * * * * * * * * * * * * * * * * * * * * * * * * * * * * * * * * * //

dimensions      [0 2 -3 0 0 0 0];


internalField   nonuniform List<scalar> 
14033
(
-1.64128e-10
0.00206927
3.71764e-11
9.04172e-09
3.99165e-07
-4.02216e-07
-9.40435e-10
-0.000731487
-2.41123e-08
1.87592e-09
-0.00158952
0.000180479
0.00119313
-2.20328e-09
3.40276e-08
-3.45685e-09
5.11072e-10
1.39595e-05
-0.00379746
5.32526e-08
-1.5715e-08
0.000946397
0.000349206
1.44655e-08
-0.00099483
-1.181e-08
-3.86683e-07
1.35314e-08
-0.000284086
0.000726922
2.63176e-10
-4.16426e-09
4.55417e-08
-0.00396608
1.08472e-10
-5.27747e-08
-9.54729e-08
-9.56686e-08
-2.57154e-09
2.40952e-08
-7.07229e-08
3.95625e-08
0.000171901
0.00188298
-1.25627e-08
-0.000877459
-1.685e-08
5.50399e-08
-9.4428e-07
0.000348586
4.9629e-06
-1.57219e-06
0.0002765
0.000178667
-2.69306e-07
-9.33669e-09
8.02307e-05
-1.06477e-08
-1.28919e-08
-2.39985e-08
-1.11598e-06
3.55199e-08
0.00500784
-1.21468e-07
5.57067e-09
-8.27916e-05
0.00290806
2.87889e-05
-6.73647e-10
-1.96538e-08
1.13028e-07
2.96378e-08
0.000439222
-0.000684354
0.00344093
-1.25783e-08
2.80364e-06
-2.05272e-08
-4.93996e-09
-8.76393e-07
2.7065e-07
0.000334213
0.000151668
0.00145724
3.8582e-08
3.02069e-08
2.167e-08
-1.21713e-10
-8.54081e-07
-0.000252532
8.73453e-08
1.76538e-08
7.25471e-07
-9.86056e-05
-5.65757e-05
1.02314e-07
1.15021e-08
-7.35033e-05
-0.000304266
2.99217e-08
1.88851e-07
0.00163607
-3.7801e-08
1.37761e-10
-5.6974e-05
0.00983275
9.51638e-08
0.00094605
-1.03855e-06
-0.000700048
-3.64132e-09
-1.49066e-09
5.79866e-09
0.000307809
1.27979e-09
0.00155507
7.9176e-05
-6.19816e-08
2.12535e-07
-0.000446623
1.30664e-08
0.00494476
2.97659e-08
3.02219e-09
-0.000697311
6.27904e-08
0.00019889
-1.55494e-05
5.80426e-09
1.87889e-07
0.000604322
1.03229e-06
-1.2518e-06
-8.38727e-05
-0.000274277
4.24487e-09
-0.000683079
0.000239519
3.26044e-09
-9.35974e-06
-0.000162048
7.00227e-05
3.61411e-08
0.00264088
-2.73003e-08
-8.88891e-11
-8.88412e-05
-3.519e-06
8.79733e-11
-1.6645e-07
-3.09374e-07
-7.08931e-07
-2.11639e-09
0.00618648
-0.000157289
2.6685e-08
9.8947e-05
-2.9584e-09
-1.02451e-08
0.00446111
-0.000663254
-2.44441e-05
2.12532e-08
1.32281e-08
-0.000944186
-3.1246e-08
-0.000742883
5.99874e-08
7.28114e-05
2.3745e-08
-0.00051421
-4.37398e-08
-1.55883e-06
2.83994e-07
8.54471e-08
7.02086e-07
-2.50278e-08
-1.29878e-08
1.30315e-09
-0.000309512
0.001026
-1.44977e-05
-2.51177e-08
-0.000470013
-1.87621e-10
7.91863e-08
-6.96019e-09
2.92093e-08
-5.69714e-05
7.67081e-08
-6.50875e-08
2.03708e-08
-0.00110177
-3.50439e-09
3.03872e-08
-2.02915e-06
-1.10957e-07
0.001508
-0.00280941
5.96132e-08
0.00021245
1.25834e-08
-0.000549897
1.09881e-08
0.000136555
0.000604757
-4.19058e-08
2.23329e-08
0.000126858
0.000733153
4.28297e-08
1.28899e-08
-4.075e-05
2.36755e-08
-1.97767e-08
-5.35108e-08
3.23074e-07
0.00892235
0.000751826
2.03069e-08
0.000355462
-0.000991423
-1.76519e-08
-8.74373e-08
-4.52153e-10
0.00276676
-0.00329054
2.27141e-08
-6.08605e-05
-7.71402e-08
4.30741e-08
-1.35157e-07
-4.02753e-05
0.000412976
-2.34877e-08
6.13243e-09
-0.000534634
8.74284e-08
3.70394e-08
-1.09312e-08
-1.31325e-08
-1.60443e-06
8.29106e-08
-0.000758171
-3.60098e-08
0.00139867
-1.95671e-08
0.000179087
-2.00183e-05
-3.69524e-08
-0.00120055
0.00351812
-1.02122e-08
-1.06865e-06
-3.1305e-08
-3.39213e-05
-9.06192e-11
-0.000412399
1.17154e-10
4.56577e-06
4.03184e-08
0.000184584
2.02859e-10
8.69662e-09
7.51961e-10
6.0661e-08
4.24497e-08
-3.08813e-07
-1.39927e-07
9.32058e-08
4.45343e-08
7.09586e-08
-4.64765e-05
1.53857e-05
-0.00318497
1.20117e-09
6.28907e-11
-7.79947e-09
0.000338653
8.48651e-07
3.63739e-07
2.94889e-08
-0.000513056
-0.000880917
3.84527e-09
-0.000154163
-1.42756e-08
-2.71102e-09
2.23128e-08
1.05058e-08
-2.32456e-07
-8.66818e-07
8.50073e-11
0.000656167
2.43684e-08
9.03346e-06
1.65009e-05
3.26306e-08
0.00260661
0.0013705
1.02525e-06
9.16692e-05
2.86688e-08
-2.18749e-09
-0.000181118
-5.03197e-09
-7.39321e-08
2.00652e-07
-2.3801e-07
3.71672e-09
-1.34648e-06
-1.56844e-05
-4.22496e-09
-0.00256403
0.000313703
0.00122012
-2.17204e-07
-1.54503e-08
-0.000894769
3.44146e-08
-3.15854e-08
1.09595e-07
-2.07736e-07
-1.88517e-08
4.37657e-09
1.09636e-08
2.07692e-08
-3.0632e-10
-9.59793e-09
0.000234688
-0.000814053
2.73544e-08
-5.80069e-11
-0.000166034
6.71496e-09
-3.74556e-10
4.3888e-11
1.75723e-08
-0.00104465
-3.69758e-09
-5.93678e-05
-0.000266954
-1.23061e-09
0.000171634
1.2652e-08
-3.6101e-08
-4.82414e-08
1.1956e-08
-0.000855474
1.15541e-09
-0.000594729
-3.2019e-07
-3.5731e-08
-4.3471e-08
3.36453e-09
-3.5301e-08
2.32881e-08
-0.000421165
-0.000226689
-0.00127428
6.45915e-09
0.000682101
-2.63793e-08
-0.000236486
2.82496e-10
-9.29123e-08
-3.81051e-08
2.14106e-08
0.000313939
0.00306291
-0.00111488
6.08754e-08
-9.02785e-09
1.71498e-08
-5.39025e-08
0.000731692
2.23017e-06
-6.15026e-08
0.000155282
1.19543e-09
9.13574e-08
-5.01007e-09
-2.86729e-08
-5.89576e-09
7.71713e-05
-0.00241567
0.000153256
-1.82102e-06
3.53761e-08
0.000693421
-8.03403e-05
-1.50686e-08
0.00429541
8.4553e-09
-4.63047e-08
0.000761915
-0.00081213
-1.44725e-06
-0.00406684
-2.21692e-08
9.2676e-10
8.21638e-05
-2.83032e-11
0.00568276
-0.000286675
-0.00143925
2.91417e-09
-7.0326e-09
-4.01668e-05
-7.61525e-05
-6.15472e-08
2.12909e-07
1.44383e-08
0.000944084
1.17143e-07
-0.000283694
0.000198392
2.89079e-08
-1.45686e-08
-5.70061e-05
-4.37676e-08
-2.7149e-08
0.000162651
9.15967e-06
5.05689e-08
0.000248016
0.00038393
0.00214441
5.51993e-08
1.02922e-10
-1.08919e-08
4.96681e-09
0.00423626
-4.03187e-08
4.34268e-11
-0.000720075
-0.0011049
5.76604e-07
-0.000103131
2.68637e-08
0.000583616
-0.000109441
-1.51691e-11
-0.000771606
-4.60862e-08
0.000216338
0.00296459
-0.00305508
7.15126e-08
-0.000222571
-6.12426e-08
0.000190857
-1.16973e-08
2.8745e-05
-0.00113781
-6.55908e-10
-0.00100758
-1.41836e-08
0.00111649
0.000500559
-0.00039202
-0.000120861
1.43633e-05
-0.00058836
0.000229018
0.000126326
4.55371e-08
7.91769e-05
0.000120368
2.76491e-08
-1.19358e-10
0.0025121
3.85736e-08
6.59111e-08
-0.00213178
-1.54671e-06
-8.77465e-09
1.29525e-08
0.000508538
0.00593852
-0.00114642
7.94004e-08
0.000680138
-4.46402e-05
4.78047e-08
-5.09817e-05
-8.27916e-09
-6.24524e-10
0.000786759
4.93349e-10
3.16144e-05
-0.00653311
3.19509e-10
-5.07925e-09
1.36655e-08
0.00308119
2.69079e-08
-4.42294e-09
8.11893e-09
-2.3385e-08
-1.08884e-08
4.82971e-10
6.42935e-06
-1.88084e-09
0.000827781
-0.000104703
-2.94224e-08
3.48511e-09
0.000757893
0.00010949
-0.000571898
-6.47115e-10
3.42613e-07
2.78975e-07
3.22169e-10
9.94378e-08
4.81967e-08
0.000482612
-0.00141962
-0.000260644
-3.42159e-08
-1.75179e-08
-0.000268665
-3.9843e-08
-1.0934e-06
-0.00175454
-3.70823e-09
0.000340947
0.00021983
-6.2669e-08
1.30109e-06
-9.74722e-06
0.000183347
-2.09976e-08
9.61331e-08
-0.000128782
1.37167e-07
1.02756e-08
6.61127e-05
0.00157898
-1.4417e-08
-2.7203e-10
3.81716e-06
-0.000940268
0.000362124
-0.000259093
-8.23401e-09
-1.58977e-08
-0.000487025
-2.05805e-08
1.05311e-11
3.94473e-05
-6.49857e-11
-1.52101e-08
9.92439e-05
-1.6886e-06
-0.00182622
-4.19106e-10
0.00037937
-9.55131e-08
2.58268e-08
-4.73876e-09
-1.25407e-08
3.38014e-05
-3.12592e-06
3.30635e-05
4.72185e-09
0.00051008
2.12073e-09
-0.000146552
1.00432e-07
-0.000960828
-0.000341931
-1.04606e-07
0.00056505
0.004369
-5.15154e-08
-0.000418781
-0.000980103
6.85546e-12
-0.000793387
-2.1326e-08
5.17452e-05
-5.18141e-08
-3.10102e-08
0.000560256
-2.81136e-07
-1.15038e-07
-7.91567e-06
0.000117035
0.00277952
-1.84758e-07
-7.04345e-08
1.22004e-06
2.10658e-07
5.06787e-05
-6.93185e-08
-2.56854e-06
-1.4002e-05
5.41005e-06
2.17595e-05
-1.57551e-07
-0.00032959
0.00374729
-9.35378e-08
0.000328214
2.29909e-09
2.14862e-07
-6.8217e-09
-1.46431e-07
7.59162e-09
0.00018113
-4.19087e-08
1.67752e-08
-1.39868e-08
3.26521e-08
4.14561e-09
-2.36635e-08
0.000461721
-3.87902e-08
-3.74237e-08
-9.83518e-05
0.00112894
-0.000145794
0.000391524
-0.000272939
-4.60113e-08
0.000296565
0.000576485
-0.000398832
1.52246e-08
0.000112019
1.99774e-10
-6.35529e-08
-1.29932e-08
-0.000141868
-3.21708e-08
0.00139057
-1.8964e-08
-0.000209092
0.000182495
0.00155417
-7.86481e-08
0.00120335
-1.98274e-09
6.91019e-09
2.77003e-08
-3.04523e-07
6.48143e-09
-1.8983e-09
8.90783e-09
1.12729e-07
6.8494e-08
-0.000271864
3.95835e-05
-1.52597e-08
-1.17644e-05
-0.000339003
0.00143064
1.03193e-08
1.35068e-06
3.92075e-09
8.81463e-09
6.41514e-05
-0.00238331
-1.57164e-07
1.83196e-08
-7.95792e-10
1.63534e-06
-5.40922e-11
0.00207567
1.74245e-08
2.78694e-08
1.22651e-08
2.43358e-07
1.10057e-07
3.44445e-08
-0.000168337
-0.000144172
-0.00257226
-0.000109193
0.00180901
5.57343e-08
2.45809e-08
-4.02135e-07
0.000175001
3.12328e-08
-7.43444e-09
2.80577e-08
-0.000385815
-2.25085e-10
-0.000701301
0.00105373
1.37688e-07
-4.37845e-07
-3.89164e-08
-2.42163e-08
9.7229e-05
0.0023123
1.39117e-08
-6.36051e-06
-5.82579e-08
-1.7432e-07
9.85474e-08
6.66551e-06
8.11453e-08
-8.91038e-05
-0.000754429
-1.60444e-07
3.17099e-09
0.000678991
1.28554e-11
-0.000278815
1.14014e-05
3.96705e-08
1.51735e-08
4.13467e-07
0.000309016
9.11268e-08
3.42575e-07
3.13867e-07
-9.20707e-08
-8.24547e-05
-1.6499e-08
-0.000179199
4.15789e-08
-0.00643441
-1.25316e-10
9.88207e-09
-5.49711e-05
0.000100361
-0.000381119
2.02078e-07
1.02817e-09
-5.73945e-08
-1.07455e-08
-0.000386843
-4.08462e-08
0.00113544
0.00115673
6.57841e-08
2.25239e-05
-7.8432e-07
-0.0027212
5.44388e-08
3.97823e-08
-0.000698206
3.66668e-08
-0.000783145
-3.02752e-08
-3.52146e-10
3.08249e-08
3.43636e-07
-3.37291e-07
-2.95111e-07
-9.20682e-08
7.99514e-09
-9.57738e-12
-0.000418132
0.000102769
1.63214e-07
0.00061598
-6.33958e-09
-4.00874e-10
-2.10037e-10
-4.69239e-08
-0.00641493
2.27108e-08
6.14364e-05
-0.000154211
-6.08597e-11
0.00174448
-0.000521406
6.71836e-07
0.000905069
2.73172e-08
-0.00180284
-0.000527973
0.00267354
0.000250968
-1.17333e-09
-0.000986996
0.000107495
-6.97508e-09
-0.000993545
-0.00358669
3.45248e-08
-1.49627e-08
0.00196853
-0.000412339
2.6101e-07
-4.87875e-07
-0.000267572
0.000994449
-0.000154931
5.69719e-08
1.14629e-05
-0.000404839
1.96636e-08
1.09533e-08
0.00114728
5.4525e-09
-5.44804e-10
-1.6609e-05
0.000558121
2.0525e-07
-5.15924e-08
-3.97896e-08
0.000208591
-0.00102396
0.00134949
-4.31311e-07
-4.33972e-05
3.25653e-05
-0.000124411
2.31641e-10
-0.0002445
1.60682e-08
-1.15666e-08
2.62774e-08
-3.07984e-10
1.66573e-10
1.83462e-08
-6.37013e-08
0.00327874
-1.27201e-08
0.000552676
0.000461378
7.08399e-08
5.35766e-10
2.01737e-08
0.000951272
-0.0021352
-0.0026801
-9.90951e-08
-0.000954986
-5.46739e-07
-0.0031331
-3.50854e-08
-0.000188949
-5.05228e-09
-8.18942e-09
7.12565e-09
-6.79375e-07
7.73676e-09
-3.54e-11
-5.83884e-08
-0.000387882
1.33989e-08
-1.56797e-08
-5.16428e-08
-8.23082e-07
-0.000126001
-8.44602e-06
0.00323685
0.000556485
-3.92233e-07
-0.00238539
-2.35412e-08
9.22644e-09
5.34838e-08
0.000561296
0.000359907
1.32079e-06
0.000471513
2.23749e-08
1.11075e-06
2.09875e-09
-4.46771e-08
0.000603591
5.47301e-08
-1.05916e-06
-1.361e-09
1.99029e-08
2.30054e-08
1.32277e-08
-5.35225e-06
-1.93209e-08
5.64429e-09
0.000617168
-0.000365637
2.12457e-08
-6.43746e-07
2.18065e-09
0.000503576
1.5501e-08
2.15846e-07
7.53068e-09
0.00113986
-4.11106e-06
1.6384e-10
-3.35925e-08
0.000271871
-5.55692e-08
5.53982e-08
-0.000495062
-2.68968e-08
-7.77157e-05
-0.000102456
-1.52265e-09
2.55042e-07
-9.53085e-10
-0.000111525
4.4563e-08
-0.000204827
-0.000131897
4.10041e-08
-0.00029276
5.51513e-08
5.37038e-08
1.4185e-08
-6.46226e-09
0.000284202
0.00232535
3.71541e-09
-0.00264765
5.1013e-08
-0.00536529
1.59572e-07
5.38475e-10
-1.1468e-08
4.90751e-08
0.000422755
1.28726e-08
1.18658e-07
-0.000956139
-5.39559e-10
3.03316e-09
0.00130378
-1.43137e-08
4.57528e-08
1.01404e-08
-9.55954e-05
-0.000486171
3.6432e-07
-0.000824969
-2.14822e-08
9.63435e-10
8.60236e-05
7.31279e-09
-1.416e-09
0.000529241
0.00219582
-6.70856e-10
3.35701e-08
-4.40041e-07
-6.32556e-09
-1.91982e-08
4.58152e-08
-0.00104777
-2.28567e-06
4.30141e-08
-1.0905e-08
0.000408129
-0.00273101
2.67111e-08
-4.70494e-08
-3.63065e-08
0.000681964
1.27441e-08
-2.26676e-05
-2.99409e-08
-1.22629e-08
-0.000141647
7.89891e-05
6.56848e-07
-3.54355e-08
1.22243e-08
-5.39834e-07
-0.00582509
6.77365e-09
-1.17589e-07
6.60577e-09
-2.1049e-08
-3.91592e-07
0.000145175
4.03056e-08
7.53616e-09
2.22627e-08
1.87781e-11
7.70355e-10
0.000113908
2.14817e-06
-2.92092e-08
-1.10929e-06
-3.07325e-08
-9.99818e-09
-0.000404388
-0.00214805
0.0027967
-4.08464e-08
1.31242e-10
1.02721e-07
-0.000216744
0.00454525
0.00445104
-2.13967e-08
-2.79643e-08
-4.2045e-09
-3.02497e-10
-1.12484e-05
-5.28344e-08
-0.00104251
0.000783063
-0.000210103
-3.00837e-09
0.000336258
-0.00459862
1.69865e-09
-0.00240223
-4.11572e-08
1.01473e-07
0.000535412
-7.14033e-09
0.00975122
-0.00120703
6.41602e-09
-0.000955474
2.03688e-09
-1.12405e-08
0.000656973
5.62225e-08
-9.87925e-05
-7.28608e-08
9.31512e-08
-9.47985e-08
1.89939e-08
0.000241844
7.91581e-09
0.000642492
-8.59887e-08
-7.34578e-11
-4.38668e-09
-3.31825e-11
1.57489e-07
2.93414e-06
0.000317783
8.79202e-09
-8.37506e-05
-2.5496e-08
-1.12359e-08
5.33046e-09
4.86832e-12
2.25692e-10
0.000563324
-4.30208e-06
1.85805e-06
-8.18716e-07
4.21893e-07
1.79164e-05
-3.62635e-05
2.89849e-07
-0.000448927
-0.00268759
-4.50946e-05
-0.00118945
3.59039e-09
-0.000472286
-0.000101748
-4.98282e-08
-1.72517e-08
9.31152e-08
9.15943e-06
-0.00210275
0.00216293
-0.000514736
-0.000910618
-9.6551e-09
-7.32018e-07
0.00124265
-1.97736e-07
-0.000797396
-0.00352375
0.000757104
-9.431e-09
4.45533e-05
-9.65451e-09
2.44993e-08
-0.000545926
-1.29411e-06
0.000216294
-0.00271114
-0.000320431
-0.000848149
-3.2159e-07
-3.87227e-08
0.000503454
0.000147301
-0.000170581
-1.13638e-08
1.20845e-07
1.70215e-05
-0.00142139
-1.14132e-07
-2.04248e-08
1.73858e-08
1.12133e-06
-0.000972471
-0.00049907
1.86852e-09
-0.000854033
0.00138893
-3.08835e-08
3.17336e-06
0.00147329
-1.65099e-08
-0.00143864
2.84497e-05
-8.04877e-10
8.636e-05
-2.12353e-10
-2.50393e-08
2.10245e-08
0.000248648
0.00366683
2.25333e-05
-7.70061e-07
-9.32196e-05
0.0011863
-0.000618757
-3.66055e-08
-7.38136e-08
-4.51337e-08
-6.89916e-08
1.5403e-08
3.47459e-07
-1.59826e-08
3.98736e-08
0.000625237
0.00210906
1.32369e-08
1.0415e-10
-9.21222e-05
5.3131e-08
-0.000113779
7.42545e-09
-0.000811725
-2.43895e-08
-8.78982e-05
3.72523e-08
0.00275857
-0.0005501
2.15504e-08
1.87714e-08
-6.39639e-07
-0.000405165
0.00173768
-0.000160804
-0.000212706
-6.91122e-09
1.36605e-08
1.64803e-08
2.64101e-10
1.32289e-08
-7.08855e-05
-2.78142e-09
5.1427e-10
-5.56237e-09
-0.000637746
1.16094e-08
-0.00107071
-3.14893e-06
2.12702e-09
9.7724e-05
-7.98338e-07
0.000136035
2.6319e-05
4.54176e-09
-1.36094e-07
-5.99402e-05
1.83693e-09
-0.000686266
2.38228e-08
-3.50387e-08
-2.95728e-08
1.30332e-05
-0.000258682
-2.19836e-09
1.02096e-10
-4.60917e-09
3.89939e-08
3.59658e-06
0.000929623
1.01572e-08
7.94726e-09
-9.00096e-13
-0.00221858
-0.00267248
2.06764e-08
-5.9547e-09
1.24772e-05
-1.68578e-08
-0.000380587
9.48414e-07
-5.61937e-09
2.63633e-08
0.00318622
-3.36468e-09
-1.56934e-08
-0.00163631
-1.17313e-05
-0.000475193
8.6576e-05
3.02616e-08
-9.44813e-09
-7.67387e-05
0.000426445
-7.5893e-09
1.92752e-11
-5.78238e-08
1.11491e-05
-1.40429e-06
-1.64175e-08
1.1003e-08
0.000236135
1.37572e-07
-0.00129224
-2.4909e-07
1.34875e-05
0.000314898
-1.20415e-09
1.79905e-07
0.000762283
5.35712e-08
0.000550141
0.000319948
-6.04798e-08
-0.00101107
-1.89628e-08
5.08362e-08
-3.99439e-08
-9.17803e-08
3.04497e-08
1.79618e-06
-6.34014e-10
1.84619e-08
-0.000693931
0.00135955
4.20111e-09
-0.000767144
-5.83906e-09
0.000121841
1.93847e-09
5.18881e-05
2.13858e-09
0.00113906
-0.0027864
-2.53828e-08
-3.57168e-08
0.00103879
0.00120452
0.000353058
3.06758e-06
-0.00890406
-1.40176e-08
-1.1909e-07
2.14057e-08
-3.60123e-08
-0.000530766
-1.15453e-07
4.18026e-08
1.74776e-06
-4.66482e-08
0.00159914
-2.72481e-08
-0.000684843
6.4059e-05
2.60008e-06
1.93744e-07
-0.00403673
7.83509e-08
-4.1694e-11
-0.000659228
-1.51613e-08
-1.32642e-08
-0.00122856
1.00412e-07
0.00164666
1.38274e-08
-0.00103455
-6.76295e-11
-3.23979e-05
0.00346996
0.00265448
-0.00281426
6.10309e-08
1.12109e-08
-8.52613e-11
-8.26824e-09
-3.7392e-08
0.000485669
0.000136759
0.000334953
2.38514e-08
0.000320658
-6.67211e-06
0.000206806
1.19999e-08
3.19277e-08
0.000345669
3.35876e-08
-2.14428e-09
1.77424e-08
0.000321142
1.1134e-07
0.000188452
1.6836e-09
0.00195458
-3.24521e-11
4.97e-08
3.2211e-08
-3.9639e-08
-0.00420704
0.000233868
5.42336e-05
0.0023093
-7.1777e-09
-6.11318e-08
-5.69995e-08
5.76841e-08
-0.0019472
6.566e-05
1.93144e-11
-5.4172e-08
-0.0019757
2.77277e-08
3.9808e-06
1.45882e-07
-7.34059e-07
-1.1548e-08
0.000179016
0.000339791
0.00081513
6.73552e-08
-0.000145632
-0.000320707
0.000614937
-9.88505e-08
3.09881e-08
-4.61171e-08
-2.75965e-08
0.000141243
-0.000114724
-0.000352529
3.10199e-09
1.07942e-06
-1.01394e-07
-2.83058e-07
0.00202884
-0.00216526
4.47675e-06
-0.000400885
-0.00101243
2.15671e-06
-1.56068e-08
1.37094e-08
1.88639e-08
0.000534778
-3.4356e-08
9.86946e-09
-2.74839e-08
3.97422e-08
-0.00234392
3.50266e-08
0.000439049
-0.00364496
-2.81e-08
3.37145e-08
-3.26592e-08
1.96097e-08
-0.000329797
0.00289388
1.16327e-08
4.48545e-07
-3.1247e-08
-1.56116e-09
1.12713e-08
-0.00227663
-0.000262992
4.48704e-08
1.82197e-09
5.06478e-08
3.94447e-08
-0.00105273
-0.00307483
0.00252037
2.24223e-08
0.000181072
-5.12851e-08
-6.55529e-09
0.00145
-3.72796e-07
0.000504761
-1.94884e-08
0.000644522
3.16553e-07
-1.37553e-07
-3.3234e-08
2.11131e-08
-0.000274618
-4.81237e-05
-0.000324261
2.73645e-06
3.6232e-08
-7.65354e-07
4.45042e-09
-0.00256846
-1.62016e-08
-2.65994e-08
1.14027e-08
9.19933e-10
2.3296e-08
-1.31843e-08
0.000116625
0.000430652
-4.51918e-09
-5.56513e-11
-4.06031e-10
-2.6677e-08
6.24559e-11
2.42361e-07
-4.69414e-09
-9.01281e-08
2.35441e-08
9.74491e-09
2.27207e-06
0.000550993
4.73244e-05
4.94161e-08
-1.63698e-08
-4.52731e-07
-2.57799e-06
-1.45156e-07
-2.21615e-08
0.000122774
0.000165305
-7.31487e-09
-0.00053883
0.000997676
-1.11247e-06
3.06059e-08
-3.63807e-06
3.8608e-10
0.000172362
-1.58349e-08
3.70928e-08
-2.98012e-08
0.00325571
0.000421295
1.89686e-05
-2.32634e-07
-7.82507e-08
-0.00283579
1.33007e-09
-3.65744e-08
-0.000238526
4.49868e-08
1.08014e-08
-0.00018119
-3.24372e-09
-2.67298e-08
0.000627824
-5.5617e-08
-9.94869e-09
5.51291e-09
6.95962e-09
-6.37374e-09
-0.00115071
-0.00120806
5.20946e-08
-0.000518277
1.55874e-07
-1.19149e-05
0.0010532
9.94111e-11
-6.93007e-10
-0.00670015
-1.46075e-07
-9.42216e-05
-4.25598e-07
-0.00447647
-6.54989e-10
-0.00329686
0.000159867
-0.000122531
-1.87143e-09
-3.78172e-08
0.000608786
9.33385e-05
-1.64781e-05
6.65607e-08
0.000228563
0.00402846
1.35219e-09
-4.34028e-08
1.86121e-08
-3.19588e-09
-0.00254566
2.18025e-08
8.49292e-08
-7.44095e-09
-0.000212814
7.14364e-05
-6.50853e-06
8.92485e-06
2.62371e-05
5.64368e-08
4.66554e-08
2.05959e-09
-1.70396e-07
2.05569e-08
-1.13849e-08
7.93731e-09
0.00107465
-0.000267127
9.49197e-07
-0.000322462
-9.24288e-05
-5.23941e-08
1.90311e-09
0.000837349
-5.98251e-08
-0.000945661
-1.17282e-08
-3.69309e-08
-0.00079054
1.94196e-07
8.27224e-08
-1.31466e-08
-0.00107884
-1.70584e-08
5.43272e-08
-3.06156e-08
0.000843727
5.54811e-09
3.1589e-08
3.99655e-05
0.00456897
-0.000201594
-3.92584e-08
9.91863e-09
0.00015346
5.32676e-08
-1.10351e-08
6.21966e-08
-1.17859e-07
-0.00263153
-3.5975e-09
-2.75532e-05
-5.17436e-08
-9.52394e-09
4.7017e-08
-4.12221e-08
8.43455e-09
-4.53267e-07
0.000165088
-0.00121127
-5.39741e-11
2.04884e-08
-3.84507e-10
-0.000165304
1.16026e-07
-5.16015e-11
7.6605e-08
-3.12308e-08
-0.000535758
-4.12285e-06
5.19874e-05
0.000366719
0.0032324
-0.00168335
1.13314e-08
-0.00187889
0.0011497
0.00093896
-5.38204e-10
-0.00120257
8.02872e-08
-2.69289e-10
-2.34032e-05
-2.49487e-08
-2.63127e-05
0.000544281
2.54344e-08
-5.12654e-06
0.000614569
-0.0014306
-0.00607712
-0.00039785
-0.000143353
7.74607e-06
-0.00391177
-0.000322587
6.55283e-08
-1.00715e-06
3.91861e-09
-7.29714e-09
-3.15397e-07
-3.75833e-08
6.56137e-08
0.000102882
-6.43606e-09
-0.003669
0.000174988
0.00200228
-5.66608e-05
0.00445177
-5.57401e-09
0.000361166
-7.95024e-10
-3.75307e-10
-1.3559e-06
-1.30784e-10
-6.23188e-08
3.52187e-09
0.00126348
-1.15637e-08
-0.00143908
-0.00560942
-1.12054e-08
3.20324e-08
2.42693e-08
-4.66942e-08
-7.2061e-05
2.07826e-08
-6.9484e-08
1.09398e-08
-2.8854e-08
-7.054e-10
1.32298e-08
-2.57671e-08
9.52346e-08
-8.29917e-08
-0.000108334
5.93104e-08
0.000910635
0.000243401
4.10053e-09
4.72096e-10
0.00286109
0.00177878
-3.11514e-08
4.79525e-08
4.9904e-10
1.32866e-07
-0.000180996
0.000537963
1.55569e-08
0.000477893
0.000418445
-4.38802e-08
0.000243434
-0.000355848
-2.08608e-08
-3.18904e-08
-4.54948e-08
3.12063e-08
1.80652e-08
-0.000343326
-7.22703e-07
1.13396e-05
-0.000328697
1.08362e-09
8.58249e-09
0.000175339
-2.04475e-08
-4.17705e-08
-1.80432e-08
-1.44224e-08
0.00030882
0.00190469
-6.11682e-07
3.39285e-08
-0.000172275
-0.000630035
0.000411484
-0.00108579
-2.9207e-08
-4.55064e-08
7.44426e-08
-7.80726e-06
1.66532e-06
0.00025948
0.00234108
-1.98248e-08
4.0767e-08
1.89619e-07
-8.74986e-10
-0.00176907
-1.30978e-07
-1.15718e-12
-0.000713264
0.00140728
7.79366e-05
9.76504e-09
0.00245948
1.09076e-08
-0.000276517
-3.53889e-08
9.55436e-08
5.11257e-09
-9.20212e-09
-4.49173e-09
0.000299345
9.97245e-05
6.77837e-08
0.000193534
1.88615e-08
2.08803e-08
-8.98619e-08
7.99904e-09
-0.000911393
1.00593e-08
2.87482e-09
-0.000158642
-6.96057e-09
-4.42671e-08
3.56928e-09
-0.000787453
4.84064e-08
8.09087e-05
2.13181e-08
3.85599e-05
1.23525e-06
-4.34333e-10
-2.34632e-08
6.66337e-05
3.38171e-08
-6.03639e-09
-0.000226218
0.00171638
9.18285e-10
-6.9309e-08
1.50827e-10
-5.91712e-10
0.000428416
-7.30403e-08
0.000354446
0.000251052
2.58065e-10
0.00105986
2.6676e-06
0.00067693
0.00078089
-8.11203e-09
1.52325e-08
-1.72317e-05
-9.30525e-08
-1.16286e-08
0.000386718
0.000427171
0.000501398
0.000171617
4.27572e-10
0.000699863
-0.00045747
-0.00721244
-6.40144e-08
-0.000544326
-2.33166e-06
7.18653e-09
0.00165201
-0.000574115
-0.000534644
0.00065156
-2.84004e-08
0.000207189
3.41851e-08
0.00193399
2.09263e-08
6.06496e-10
-3.03974e-09
7.38897e-06
-0.00223499
4.19142e-07
0.000276144
0.00119426
-0.000523974
-3.21359e-08
-1.30618e-10
0.00157
0.000632438
-7.72239e-08
2.05023e-08
1.61417e-05
0.000161604
0.000425432
3.4559e-08
-1.65229e-08
-0.0067519
-0.000233874
2.86946e-05
-1.2081e-06
1.05711e-09
-0.00051193
0.00178741
0.00262314
-1.24475e-08
6.96054e-08
-1.76545e-09
-1.60209e-08
-5.42445e-06
-3.63813e-08
-6.85031e-05
-0.000185789
-0.00101188
-1.78797e-08
-5.87293e-09
-0.000910346
3.86293e-08
-0.00057247
0.00228473
0.000278702
-8.06574e-09
2.52175e-06
1.38527e-08
-0.000302543
0.00144635
5.49117e-08
-2.05423e-08
3.12191e-08
0.000331291
5.08972e-11
-2.10758e-08
-3.35264e-08
8.10583e-08
-0.00387362
7.53966e-05
-0.000894218
0.000113025
-7.14681e-05
6.64287e-07
-0.00033297
1.72424e-08
-4.46586e-08
-5.25137e-09
0.000227201
5.7407e-08
1.58861e-08
-7.15534e-08
3.68805e-09
-1.07011e-05
-5.85717e-08
-4.47989e-08
3.42392e-08
-3.31631e-08
-0.000173943
-3.65257e-08
4.48288e-05
7.37267e-08
5.86645e-07
2.02418e-08
4.83018e-08
0.000115012
-5.34279e-06
1.28404e-06
3.48328e-08
0.0020325
2.70671e-08
-1.75163e-10
-1.73999e-07
4.73693e-08
-4.96726e-08
-1.42957e-09
0.00135048
9.08823e-07
2.90663e-07
-1.29008e-07
2.74108e-08
0.000245909
-2.02702e-08
-0.000864693
-1.01562e-05
1.79668e-08
-1.66251e-07
-0.000736961
-2.93263e-06
0.00329198
-0.000423521
8.08426e-07
-0.000505116
2.49168e-08
-3.46188e-08
-1.95264e-07
2.23543e-06
-0.000224165
-3.99084e-06
0.00222712
-0.000143561
0.000925835
0.000189955
-0.000211073
-1.63248e-08
-2.23001e-08
-2.48268e-08
-0.00095345
8.47008e-06
0.000709532
0.00167307
-0.00280358
-1.77495e-07
-0.000198461
1.41043e-09
-2.24468e-08
-4.19071e-08
-5.78871e-07
0.000309065
1.48098e-09
-1.15684e-09
-0.000253494
8.29406e-05
4.73696e-07
0.000229445
4.92117e-10
-3.68061e-08
-4.06573e-08
0.000175541
-2.42592e-06
0.000150856
1.17555e-08
1.41878e-05
-1.67436e-08
2.0167e-08
-0.00012773
-2.16031e-08
-4.20399e-07
9.93091e-07
-0.000586176
-0.00043527
-0.000461105
0.000521131
0.000739141
-6.63288e-06
0.000507208
0.000140839
1.41181e-07
0.000649218
0.00171649
-1.60782e-08
-0.00504645
-4.02327e-05
0.000512793
-3.1061e-08
0.000273922
1.94567e-06
1.68166e-07
1.48884e-08
0.000329514
4.24385e-05
5.74737e-09
-0.00112583
0.00208274
3.85567e-09
2.47411e-08
0.00146616
0.000157498
-1.52608e-08
0.000186147
1.19729e-08
-9.72381e-06
4.6036e-06
1.9039e-08
0.000354101
-0.000443175
8.14527e-09
-2.07081e-06
-0.00433931
-5.83666e-07
-3.45002e-06
-0.00692522
0.00239444
-3.79544e-08
-5.30205e-10
-0.000155574
-0.000423395
-1.36335e-08
-0.000417011
1.57754e-08
0.000171944
-2.37525e-05
0.000379098
2.49656e-09
5.68422e-07
-2.55826e-08
5.18467e-07
1.30628e-08
0.00175856
0.000202401
0.00391543
-2.3795e-06
-2.89452e-09
-7.1481e-09
-9.64915e-13
-0.000353348
-2.61297e-08
0.000563956
-0.000608816
0.000506085
4.23827e-08
-0.000379845
4.72476e-07
1.14244e-08
0.000188657
6.33985e-08
9.8544e-09
-4.31285e-05
7.27854e-08
-8.83588e-07
1.341e-08
-0.000356634
-0.000180215
-4.17239e-08
1.21889e-08
-0.000409169
-0.00286992
9.25423e-09
-3.51737e-08
-2.85655e-06
-0.000733013
-1.18141e-06
-2.65893e-09
-2.55342e-08
1.89053e-08
0.000281209
1.39642e-07
0.000784053
0.000738648
-3.48438e-09
0.000438673
4.82053e-07
1.74864e-08
-8.95282e-08
-0.000939108
2.99391e-06
0.000432768
-0.00428627
-0.000143276
2.88318e-08
-9.42944e-05
-0.000594002
4.29272e-08
-0.000587435
-3.74899e-07
-8.20943e-05
5.76303e-09
-0.00378919
2.22909e-08
0.00220084
5.08675e-09
0.00038
-0.000628127
-9.78575e-08
6.90394e-08
-6.57657e-07
-3.32973e-08
4.93861e-08
8.466e-09
3.60707e-09
5.31662e-08
6.96367e-11
0.000135679
-0.00785734
3.38729e-08
0.000153905
8.10959e-05
-0.000319696
0.00103879
1.90685e-08
-0.0027314
-7.26655e-09
0.000238974
-1.2999e-06
-0.00205914
-0.000226359
-0.000229452
2.59256e-08
-2.48931e-08
1.00815e-08
1.67921e-08
-5.53066e-09
-0.000100978
1.96516e-08
-0.000213442
0.000170073
-3.07526e-08
-2.74558e-08
2.37825e-06
-6.08956e-08
-6.31535e-09
-2.36907e-08
-5.14956e-07
-7.3849e-06
-0.000868407
-0.000113762
-1.197e-08
1.59187e-08
-3.0194e-05
4.28788e-08
-0.000392526
-1.43298e-09
3.99792e-05
2.60207e-05
-0.00010365
-0.000277636
-2.68965e-07
0.00102349
3.93623e-08
2.04386e-08
0.000627335
0.000645225
-1.87151e-08
1.93501e-07
7.25294e-05
0.00014211
1.5883e-06
0.000776507
9.33689e-08
-1.75111e-08
-6.37311e-08
0.000595795
2.29874e-09
-5.99183e-09
-8.57383e-09
-4.52029e-10
-8.18224e-09
-5.96804e-09
-6.6206e-06
2.66915e-08
-2.01699e-09
-4.43096e-08
0.00153368
0.000408106
5.05054e-08
-2.45582e-07
9.43169e-07
-1.53738e-09
1.6954e-05
2.74389e-05
-1.46094e-08
0.000106715
-6.27572e-11
-0.00359726
6.66873e-09
0.00136314
-0.000172656
2.26427e-08
0.000187079
0.00276223
-1.27024e-06
2.34208e-06
-7.36922e-08
2.98468e-08
0.000659967
-6.23021e-09
-0.000483729
-4.22141e-08
-0.000745196
-1.52021e-10
2.69885e-08
-2.93784e-08
-1.2625e-09
0.00127811
1.13393e-10
1.02875e-05
0.000750451
0.00174284
-8.41263e-05
3.63622e-08
-6.27386e-05
5.41695e-08
-6.57888e-05
-1.87002e-07
4.28214e-06
-9.50092e-09
-1.37326e-08
-0.000941026
0.000156665
-2.25635e-08
0.000191328
-5.93239e-10
0.00147861
1.36355e-08
0.000153985
0.00240676
0.000187137
-0.000147154
3.21218e-08
1.77752e-08
1.78737e-08
-3.19957e-05
-2.01555e-08
-8.48901e-08
1.02822e-08
5.92559e-07
0.000160367
0.000361783
-5.95492e-05
-0.00203504
-0.000690746
-5.64922e-06
0.00115863
-1.11511e-05
0.000208335
0.000268447
4.14822e-09
-1.449e-05
0.000222055
-7.12372e-05
-3.81124e-06
9.66902e-09
1.66761e-06
-0.00321445
7.14367e-10
-0.000367589
-3.14741e-07
1.87791e-08
3.13666e-09
-0.00153122
0.00244346
3.49474e-08
-6.74423e-07
-2.36699e-08
-0.000290622
0.000460055
-5.70935e-08
-0.000237732
0.000496658
6.82949e-09
2.78921e-05
1.72375e-05
-0.000901845
1.01581e-07
2.87812e-09
-1.47201e-06
0.00257438
-7.9074e-05
2.30973e-08
-2.49919e-08
1.36398e-10
-1.77997e-08
-6.70682e-08
1.39003e-06
-0.00223138
-1.2256e-06
0.00133725
6.17162e-08
0.000365242
6.56868e-08
-8.70016e-09
0.00553502
-3.04072e-07
-3.31363e-10
-3.10189e-09
1.31237e-09
-0.000253543
2.8927e-08
5.94525e-09
-0.000185257
-2.96927e-07
0.000293939
-3.50647e-05
2.81096e-08
-0.00102917
-2.29271e-08
-4.59244e-07
2.60461e-08
6.18632e-07
8.40178e-06
-6.16027e-06
-5.65575e-08
0.000978042
-3.23744e-07
4.56295e-09
-0.000138443
0.000588266
-0.000638393
0.000172767
-3.74607e-08
6.848e-08
0.00119258
-1.03623e-07
0.000838024
-3.43807e-08
4.04488e-09
0.00104521
5.46907e-06
0.0015704
0.00159951
4.30025e-07
4.46623e-06
6.65478e-09
9.31611e-09
4.26764e-10
5.19319e-08
-3.081e-08
-6.44554e-08
0.000660295
-1.50119e-08
0.00062731
-0.00257352
1.68369e-05
-0.00450382
2.61003e-08
-3.46145e-06
-0.00284502
-2.58101e-07
-7.71425e-09
-6.90915e-10
0.00185573
-2.1299e-08
-0.000258639
0.00104231
-2.3699e-06
-8.69496e-09
2.39791e-08
0.00235181
2.774e-05
-1.17209e-08
-0.00216982
4.24897e-09
6.50865e-09
0.000600563
6.61926e-10
1.26829e-08
4.88967e-05
-9.06121e-08
-1.85704e-08
1.02962e-08
-3.94467e-08
-0.000152559
-4.18e-08
6.14567e-09
-9.23081e-09
-0.00161012
1.23473e-09
0.000316502
0.000207817
-8.20777e-08
3.51532e-07
0.000167776
2.64859e-08
-0.0041283
-3.55897e-08
-1.12174e-07
-1.00011e-07
4.61621e-08
-1.84962e-08
1.69104e-08
4.77701e-09
-6.38063e-08
5.53822e-10
5.47458e-10
1.13565e-08
-4.41147e-09
-7.96188e-10
1.32668e-09
4.96293e-09
6.83514e-05
0.000315092
-0.000142349
-9.21512e-09
1.59201e-07
8.97733e-08
1.20626e-08
1.51195e-08
-1.7513e-07
-5.99911e-08
-0.000408373
-0.000141937
4.56747e-09
-0.00719074
-2.33553e-08
0.00168207
-2.26557e-08
-0.00114351