/*--------------------------------*- C++ -*----------------------------------*\
| =========                 |                                                 |
| \\      /  F ield         | OpenFOAM: The Open Source CFD Toolbox           |
|  \\    /   O peration     | Version:  v2012                                 |
|   \\  /    A nd           | Website:  www.openfoam.com                      |
|    \\/     M anipulation  |                                                 |
\*---------------------------------------------------------------------------*/
FoamFile
{
    version     2.0;
    format      ascii;
    class       surfaceScalarField;
    location    "350";
    object      ddtCorrDdt0(phi);
}
// * * * * * * * * * * * * * * * * * * * * * * * * * * * * * * * * * * * * * //

dimensions      [0 3 -2 0 0 0 0];
oriented        oriented;


internalField   nonuniform List<scalar> 
20823
(
1.23481e-07
-2.18368e-07
9.49803e-08
7.55674e-05
-7.19523e-05
-3.59058e-06
-2.87836e-07
3.25059e-07
-3.71183e-08
-7.65387e-06
1.82991e-06
5.82304e-06
6.59555e-05
-7.23816e-05
6.42151e-06
-1.72902e-06
-4.01284e-07
2.13077e-06
2.18399e-06
4.3628e-07
-2.62028e-06
-0.000301682
0.000303396
-1.70596e-06
-1.44226e-07
-1.68283e-07
3.13074e-07
6.93161e-07
-4.455e-07
-2.47664e-07
7.76889e-05
-4.41934e-05
-3.34795e-05
7.66004e-06
-0.000112392
0.000104732
0.000141395
-0.000200665
5.92413e-05
-1.90575e-07
-2.42519e-07
4.33117e-07
3.31401e-06
-3.36579e-06
5.14712e-08
5.73437e-08
6.35726e-07
-2.60157e-07
4.48285e-07
-1.87997e-07
-6.28663e-05
-0.000172761
0.000235628
-0.000446693
-0.000469343
0.000916034
-7.71336e-07
7.5039e-07
2.09261e-08
6.13992e-07
3.23494e-06
-3.84867e-06
-9.90036e-05
-0.000370137
0.000469323
0.000108488
-7.52387e-05
-3.32488e-05
9.76191e-06
-6.29403e-06
-3.46809e-06
-0.000268077
-0.000159963
0.000428127
-1.64437e-06
1.94038e-06
-2.95771e-07
0.00018452
1.05845e-05
-0.000195104
2.14061e-08
-4.99594e-07
4.78459e-07
0.000247519
-3.23503e-05
-0.000215168
-0.000285255
0.000310548
-2.52933e-05
1.50623e-07
-2.71469e-08
-1.81973e-07
7.2277e-07
-5.40765e-07
2.27642e-06
-7.68638e-07
-1.50767e-06
0.000390415
-0.000837109
4.44132e-07
-1.02386e-06
5.79992e-07
-1.72542e-07
3.73042e-07
-2.00887e-07
5.57739e-08
-1.6999e-06
-7.53029e-07
-1.82519e-08
-7.35525e-08
1.7679e-07
-1.02717e-07
-1.21197e-06
5.67087e-07
6.44648e-07
-3.07662e-05
2.16639e-05
9.1016e-06
-3.91979e-07
-3.88588e-07
7.80862e-07
-1.81382e-05
0.000126401
-0.000108265
0.000572953
-0.000211141
-0.000361815
9.01867e-07
3.74845e-07
-1.27678e-06
-0.000404193
0.000136126
3.33231e-06
-2.71808e-06
-7.72026e-07
3.80023e-07
0.000218752
-0.000212004
-6.74847e-06
8.90855e-05
-2.37735e-05
-6.53115e-05
5.93755e-06
-2.69656e-06
-3.24779e-06
4.01547e-05
-0.000107195
6.70391e-05
-3.27657e-05
-8.085e-05
0.000113616
3.49955e-05
-0.000260945
0.000225946
-2.35626e-05
-2.90344e-07
2.38535e-05
-4.28459e-07
-7.83649e-07
-9.18623e-05
3.8733e-05
5.31283e-05
3.41474e-07
-3.19929e-07
1.54438e-06
-5.56529e-08
-1.4886e-06
-4.9753e-08
-7.08025e-07
7.57973e-07
0.000232713
-1.39618e-05
4.75798e-08
-3.72176e-08
-1.03466e-08
-9.41107e-05
0.000213812
-0.0001197
-1.25096e-06
-1.80932e-07
1.43197e-06
4.13796e-06
-3.14912e-06
-9.88392e-07
3.6586e-05
0.000232653
-0.000269247
-0.000883411
0.000858214
2.51916e-05
2.29969e-05
-8.58644e-05
1.14457e-07
3.95106e-07
-5.09516e-07
1.09405e-06
-6.49805e-07
2.97655e-06
-2.83976e-06
-1.36867e-07
2.82335e-07
-8.71213e-07
5.89154e-07
0.000139475
-3.09866e-05
-0.000372628
-0.00013119
0.000503804
-0.000826051
-5.73661e-05
-4.04047e-07
2.31218e-07
1.05608e-05
-4.62686e-06
5.3363e-08
3.08155e-07
-3.61925e-07
-3.6327e-07
8.41924e-07
-4.78204e-07
0.000272226
-8.77063e-05
4.83004e-05
-5.61341e-05
7.83446e-06
1.41355e-05
-0.000137662
0.000123524
8.97444e-05
-0.000107884
0.000193084
-0.00052564
0.000332542
1.5339e-07
-4.00631e-07
2.47224e-07
-7.54087e-08
1.22899e-07
7.91811e-07
2.52205e-06
1.53561e-07
-4.13671e-07
-2.92197e-05
-2.75523e-05
5.67709e-05
-8.71266e-05
0.000106756
-1.9632e-05
-3.34602e-07
4.00756e-07
-6.56501e-08
1.73024e-07
-8.76491e-07
7.04186e-07
6.1746e-06
-3.11411e-06
-3.0606e-06
-0.000194671
0.000194672
0.000348079
-0.000214737
-0.000133347
2.68495e-05
-2.54701e-05
-1.38082e-06
2.95307e-06
1.18503e-06
0.00032558
-0.000289001
0.00020501
-0.000131885
-7.31244e-05
-1.32209e-08
-6.18501e-08
7.54513e-08
-3.67897e-05
3.53536e-05
1.43638e-06
0.000121486
0.000451457
-2.51017e-07
7.80557e-08
1.72718e-07
-2.8589e-07
-1.86785e-09
4.58638e-05
2.23267e-05
-6.81924e-05
0.00110519
-0.00202105
0.000915856
1.56896e-05
-2.40291e-06
-1.32877e-05
-2.74896e-05
0.000748038
-0.000720485
3.0527e-05
-5.97466e-05
-0.000795765
0.000423127
1.02584e-06
-4.51026e-07
-5.74681e-07
-1.42477e-07
-6.09673e-07
7.52142e-07
-3.92782e-07
-6.34235e-08
4.56436e-07
0.000102584
-0.00013535
1.44004e-08
-4.07008e-07
0.00041041
-0.000217335
-9.89693e-05
0.000130347
-3.13773e-05
-1.92813e-07
-5.8234e-08
9.78918e-05
-7.88558e-05
-1.90372e-05
9.95158e-05
-0.000198155
9.86398e-05
5.27642e-07
-5.13394e-07
-1.3867e-08
-7.5235e-05
0.000114871
-1.18926e-06
1.03399e-06
1.54843e-07
-7.02661e-07
5.60186e-07
0.000545676
-0.000676866
-4.8699e-08
2.2325e-06
-0.000433806
0.000459201
-2.53915e-05
-0.000164836
0.000220983
-5.61443e-05
-4.4315e-07
2.52596e-07
-7.67255e-06
-2.91164e-05
-9.68215e-05
-0.000114431
0.000211251
-4.18754e-06
-8.5937e-05
9.01266e-05
0.000102649
0.000130063
0.000101854
0.000106397
-0.000208274
0.000153346
-0.000472771
0.000319424
1.9779e-07
-4.40275e-07
-0.000148089
-2.53917e-05
0.000173479
-0.000130858
0.000165851
9.82128e-06
8.16459e-06
-1.79857e-05
-0.000120889
-0.000104592
0.000225486
-0.00056218
-1.16221e-05
0.000573796
0.000185159
8.80546e-05
-0.000273215
-2.88771e-05
6.69592e-06
2.21817e-05
-0.000642829
0.000615373
-5.83705e-07
2.20589e-07
3.72827e-08
-1.12156e-07
7.4864e-08
0.000327157
-0.000267758
-5.93993e-05
-0.000217838
3.97955e-05
0.000178042
-1.54984e-07
-6.33305e-08
-3.00186e-06
-1.23302e-06
4.23316e-06
1.26912e-06
-1.20884e-06
-5.96191e-08
1.4846e-05
8.30454e-05
1.89549e-07
-2.63045e-07
1.32757e-05
-8.85068e-05
0.00046152
-0.00041785
-4.367e-05
-5.30765e-07
8.1327e-07
0.000100467
-0.000127688
2.72184e-05
5.59287e-07
-5.49337e-07
-9.86462e-09
9.97323e-07
4.46262e-07
-1.44473e-06
0.000883021
-0.000756293
-0.000126741
-5.42194e-05
-0.000247456
-0.000425555
0.000207827
0.000217729
-1.66199e-06
-5.08947e-07
2.17052e-06
6.73004e-06
3.03099e-06
-0.000253474
0.000142137
0.000111339
-1.00499e-06
7.33411e-07
2.71748e-07
-0.000160255
-0.000635516
1.90862e-05
-5.34144e-06
-1.37443e-05
-0.000125513
2.65436e-05
-5.74204e-08
-1.00922e-06
1.06641e-06
-0.000283395
0.000436742
-2.11753e-07
5.75692e-08
1.54273e-07
-5.32084e-06
2.31846e-06
2.72822e-06
2.41201e-05
2.78485e-06
1.2904e-05
-0.000100016
0.000180101
-8.0085e-05
-8.76638e-07
8.57333e-07
1.94531e-08
7.1624e-07
-5.7644e-07
-1.39938e-07
-1.20845e-07
3.18648e-07
7.24963e-05
0.000175023
-0.000572908
7.07315e-05
0.000502173
0.000130842
-0.000251727
2.26612e-07
-9.10623e-07
6.84056e-07
0.000239882
-0.000140365
3.95582e-07
4.36308e-08
-4.39104e-07
-2.59785e-07
-7.46514e-08
3.29808e-07
-1.76497e-07
-1.33789e-08
-1.47445e-07
1.60768e-07
0.000189831
0.000137327
-3.84307e-05
3.65515e-05
1.8803e-06
-1.86578e-06
4.93347e-06
-3.06766e-06
5.17518e-07
1.02489e-08
-7.16998e-06
-5.00465e-05
5.72164e-05
8.26623e-07
-6.5359e-07
-8.51827e-07
1.84896e-06
4.30889e-06
4.50496e-07
-7.62095e-07
3.11841e-07
-1.82106e-05
0.000159582
0.000702626
0.000742014
-0.00144465
3.92289e-07
4.01658e-08
-4.32378e-07
-0.000397421
-3.63855e-05
-1.2867e-06
5.8309e-07
7.03771e-07
-0.000452911
0.000418808
3.4102e-05
1.17339e-07
-2.61141e-07
0.000269119
-8.2857e-05
-0.000186259
-0.000213304
-7.19512e-05
-3.51096e-07
1.40042e-06
-1.44464e-07
-1.25572e-06
0.000354516
-0.000169359
-0.000208357
0.000111535
-6.94134e-06
-2.19356e-05
-3.71356e-07
-5.48984e-07
9.20322e-07
-0.000137817
0.000370463
1.40591e-06
-5.04135e-07
-1.43051e-06
1.13241e-06
2.97038e-07
-3.13069e-07
7.63699e-07
4.47911e-06
-2.68667e-06
-1.79231e-06
0.000821377
0.00028381
-0.000890641
0.000105612
0.000785021
-2.6606e-06
7.7128e-07
1.88946e-06
5.69377e-05
3.21485e-05
0.000320772
-0.000480699
1.57788e-08
-2.86733e-08
-2.78397e-07
1.31079e-06
-1.03277e-06
-8.5717e-07
4.0952e-08
8.16469e-07
0.000345534
-0.000926654
0.000581156
0.000359401
-0.000233377
-0.000126132
-1.96792e-06
-6.92595e-07
-5.743e-05
0.000159283
4.83729e-08
2.09722e-07
-2.58111e-07
5.70182e-07
-3.67228e-07
-2.02903e-07
1.57587e-07
-1.40833e-06
-0.000801309
0.000239149
-5.14236e-06
0.000179798
-0.000174654
-9.24998e-07
-7.99492e-08
-4.86224e-07
-4.61342e-09
4.90899e-07
-0.000268339
9.24146e-05
0.000175926
5.67114e-07
3.07417e-09
2.14154e-07
4.39818e-07
-6.53737e-07
2.21015e-06
-2.48216e-06
2.71369e-07
3.51692e-07
-6.3053e-07
2.7913e-07
-0.000156536
-6.13012e-05
-5.44935e-05
5.38278e-05
6.65782e-07
-0.000219502
7.14139e-05
6.00579e-08
-2.71718e-07
0.000725444
-8.74468e-05
-0.00063801
1.03635e-06
-8.09637e-07
-4.89246e-06
0.000117627
-0.000112735
-0.000269428
-1.47831e-06
2.2671e-06
-7.88747e-07
-0.000193276
0.000146697
4.65784e-05
5.69678e-05
-2.18989e-07
-3.14486e-07
5.33819e-07
1.57976e-06
2.89957e-06
-2.27777e-08
-1.86997e-07
2.1019e-07
8.46467e-05
0.000376871
3.64833e-07
-3.52759e-07
-1.20365e-08
-0.000198031
-0.000254878
3.34567e-07
-3.22351e-07
-1.23254e-08
-0.000334217
0.000371369
-3.72928e-05
-2.97507e-07
2.84061e-07
-0.000101006
0.000108666
-6.12162e-08
3.27096e-07
-2.659e-07
-7.54558e-07
-2.10187e-07
9.64693e-07
-4.58456e-07
5.72936e-07
-2.34733e-07
-4.19289e-07
6.54275e-07
-4.52558e-09
-3.84261e-05
2.31865e-05
0.000113576
-0.000136761
2.82176e-08
7.82149e-08
-1.06343e-07
-2.12356e-05
-9.5307e-06
-1.69452e-07
6.16152e-07
-4.4644e-07
5.28501e-07
-1.36136e-07
-0.000250135
-0.000175419
9.45903e-05
-0.000150593
5.59911e-05
0.000541663
0.000160954
-3.45373e-07
-2.0229e-07
5.47875e-07
-1.51903e-07
-1.33875e-07
3.62365e-07
-1.88875e-09
-3.60457e-07
9.02696e-05
-8.62677e-05
-4.00232e-06
2.24697e-06
7.80919e-07
-3.05016e-08
6.10774e-07
1.83256e-07
-7.94131e-07
-0.000261054
-7.28349e-06
0.000269664
2.89229e-05
-0.000298579
-6.45007e-07
3.26868e-07
3.18288e-07
-0.000204238
6.87233e-05
0.000135514
2.39173e-06
-1.81544e-07
-1.04087e-06
-6.61343e-06
-8.85503e-07
1.0751e-06
-1.89489e-07
2.6098e-06
-1.71422e-06
-8.95483e-07
7.60009e-07
2.0902e-08
-4.97853e-05
8.99384e-05
2.08526e-07
-5.53735e-07
0.000109098
1.80498e-05
-0.000127148
-6.11256e-06
4.60074e-06
1.5118e-06
3.53738e-06
5.5223e-07
-4.09069e-06
0.000198939
-0.000104354
1.54809e-05
-5.65949e-06
0.000565687
0.00017929
-0.000744962
0.000142716
-0.000715625
-1.19134e-05
-1.41422e-05
2.60529e-05
0.000103072
-0.000161881
5.88041e-05
2.03659e-05
-1.2792e-06
-4.18863e-07
-1.69669e-06
2.11529e-06
-0.000201756
-2.48236e-06
4.92357e-07
4.67075e-09
-4.96963e-07
-1.10716e-06
8.28402e-07
-3.13591e-05
3.84141e-05
-7.05534e-06
1.11284e-05
1.17037e-05
-2.2832e-05
3.14512e-07
7.11379e-07
-4.12793e-05
9.43441e-05
-5.30669e-05
0.000303985
-9.61583e-05
3.65488e-07
-3.07376e-09
6.03861e-05
-1.5184e-05
-4.51719e-05
-0.000134743
0.00014888
4.31986e-05
-0.000243872
1.92355e-05
-8.10715e-06
9.23082e-07
-1.03818e-06
1.15646e-07
-3.43986e-05
0.000382475
3.92178e-07
3.1066e-07
-7.03051e-07
-1.30023e-08
6.10959e-08
8.17965e-06
5.54545e-06
-1.37251e-05
1.21588e-07
-9.33279e-08
6.77918e-07
-5.94304e-07
-8.33958e-08
-1.18769e-06
-2.43267e-07
-3.73797e-06
5.89084e-07
-5.33303e-06
3.16777e-06
2.16502e-06
5.70235e-07
-9.79265e-07
4.09017e-07
5.74701e-07
-6.3294e-07
5.84566e-08
0.000100609
0.000168505
-0.000300037
0.000330612
-3.05784e-05
8.72301e-07
5.28205e-07
3.53421e-07
1.14412e-08
5.48917e-05
-8.56088e-05
3.07175e-05
5.18324e-07
4.39149e-08
-5.61709e-07
3.90518e-07
5.11661e-09
2.03451e-07
1.72478e-07
-3.75879e-07
-1.42816e-06
1.2655e-07
1.30074e-06
-0.00037473
-6.72822e-05
0.000442008
6.24752e-07
-2.72904e-07
4.18346e-05
4.27339e-05
-8.45681e-05
3.93711e-05
-0.000126499
-8.91768e-07
-2.97709e-07
0.000228764
2.79296e-05
-0.000256692
-1.45116e-06
-2.28635e-06
-2.3915e-06
6.62603e-07
1.93497e-05
2.31444e-06
9.45089e-07
9.95513e-07
-1.69139e-05
9.37527e-05
-7.68196e-05
-5.20693e-07
3.01847e-07
0.000510965
-0.000434559
-7.63833e-05
-0.000232043
0.000126703
0.000105339
-1.95949e-07
-3.87391e-07
-1.95847e-05
2.33298e-05
-3.74677e-06
-8.28275e-08
-7.92937e-07
9.84576e-08
-1.20974e-07
2.36484e-07
7.9498e-07
-1.0317e-06
5.47016e-05
2.30037e-05
-5.44134e-05
6.70555e-05
-1.26412e-05
-0.000656186
0.000485449
0.000170734
4.42777e-07
-6.13027e-07
1.70157e-07
-0.000192471
-0.000141777
-9.35022e-07
1.01618e-08
0.000228983
0.00014728
-0.000376261
-3.81367e-07
3.20103e-07
-4.6314e-08
6.23123e-08
-1.83845e-05
-1.20137e-06
1.17776e-06
-2.54379e-07
0.000103882
-1.36123e-05
-0.000364041
0.000929734
-0.000243929
-5.32609e-05
0.000297338
2.5836e-08
5.84837e-07
1.80657e-07
-3.72937e-09
1.37627e-06
1.23293e-06
-4.20362e-08
7.20088e-07
0.000757992
-3.25508e-05
-5.76921e-05
-4.06031e-05
9.82945e-05
1.38261e-07
1.86117e-07
-3.24383e-07
2.4597e-06
0.000226307
-3.82832e-06
-1.5048e-06
-1.1064e-07
6.4421e-08
3.15313e-07
2.44026e-07
7.9845e-07
-2.63321e-07
7.87969e-07
-5.24945e-07
-4.76162e-05
0.000150686
-0.000337484
-0.000915964
0.00125345
-0.000304112
-0.000586528
-0.000144256
-0.000232374
0.000376629
-5.18954e-07
8.27695e-07
-3.0875e-07
0.000420505
-0.000248121
-0.000172396
-0.000294034
0.000126884
0.000167152
-2.72377e-06
2.45807e-06
2.66157e-07
0.000475981
-0.00056343
-5.62595e-07
3.328e-07
2.29892e-07
-4.04201e-06
-2.64766e-06
6.68797e-06
-0.000174289
-0.000187567
0.000361849
-0.000177597
0.000447269
9.0422e-05
-0.000411521
0.000321095
-0.00141174
0.000740345
0.000671393
2.04724e-07
7.55335e-07
-1.85067e-07
0.000120087
-1.96209e-05
-1.94514e-07
-1.53155e-07
3.47805e-07
0.000619594
-0.000143613
-0.000165811
1.22551e-05
0.000153521
-0.000968159
0.000690462
0.000277686
-9.51368e-07
1.48563e-06
-5.33932e-07
-1.72395e-07
-2.76125e-06
2.93371e-06
2.12854e-06
-6.35272e-05
6.13975e-05
2.71996e-07
-1.02665e-06
3.99445e-06
-8.81673e-07
-5.31325e-08
0.000503551
0.000427305
-0.000930898
-7.10495e-07
7.09907e-07
5.96901e-10
4.24982e-05
0.000162512
-0.00020476
6.78746e-05
0.000136883
-4.75779e-07
3.0651e-07
-1.0813e-06
4.77362e-07
6.04106e-07
-0.00017117
0.000400154
1.31514e-06
-8.80839e-07
-4.35229e-07
6.84464e-07
-9.77667e-07
2.93227e-07
0.000103254
1.16198e-06
-0.000104417
-7.79866e-05
9.40824e-05
-1.60982e-05
1.06521e-08
1.66646e-07
-1.01472e-05
-6.1005e-05
7.11521e-05
0.000118477
-6.15379e-05
0.000876054
-0.000733339
3.08441e-07
9.24811e-08
-2.88851e-07
4.42483e-07
-4.82934e-07
5.73479e-07
-9.04848e-08
1.01909e-06
-1.16739e-06
1.48384e-07
-0.000157929
0.000259583
-0.000101657
-1.13878e-06
1.04687e-06
9.18616e-08
-2.76911e-08
3.73731e-05
-4.45421e-05
0.000211355
-0.000586081
3.58036e-05
-0.00013582
0.000311283
-0.00050456
2.74823e-07
9.77125e-08
-3.73262e-07
0.000132918
-0.000113829
-1.90893e-05
0.000531847
0.000314922
-0.000846765
3.36899e-07
-1.33388e-07
0.000291896
0.000219103
2.00127e-06
4.81284e-06
-6.81546e-06
7.93404e-05
5.96624e-06
-8.53068e-05
-0.000717531
0.000973419
-0.000255887
0.000871491
-0.00120897
-3.08749e-07
5.22969e-07
0.000178838
1.05183e-05
-0.00018935
9.94807e-07
-3.10261e-07
-8.49276e-05
-0.000119833
-1.5702e-08
6.72563e-06
-6.70974e-06
-0.000103134
2.51456e-05
-0.000598749
0.000474754
0.000123998
5.41051e-08
-9.11114e-07
0.000113946
-0.000413983
-3.33746e-07
2.83945e-07
-0.000345007
0.000420594
-1.78514e-05
-0.000110289
0.000128168
-0.000218833
0.000201928
-4.1806e-05
1.18885e-05
2.99175e-05
-5.92757e-07
4.12948e-06
-0.000303041
0.000132114
0.000170927
6.91931e-05
-0.000432672
0.000603581
-4.14302e-07
3.74006e-06
0.000117679
-0.000121419
0.000504143
-7.74124e-05
-0.000154631
-3.3706e-07
4.70392e-07
-1.33231e-07
5.27098e-05
-0.00077024
3.05249e-07
-2.01579e-07
-1.03386e-07
5.04825e-07
-2.30539e-07
0.000333525
2.58442e-05
-0.000319938
0.000175682
-2.7481e-06
2.45092e-08
-5.96495e-06
1.02346e-05
-4.26948e-06
0.000135143
0.000136632
-0.000271777
-0.000506816
0.000782056
-0.000275247
-0.000169752
-0.000486438
-4.50635e-05
-9.4298e-06
4.92983e-05
5.98009e-05
8.6296e-05
-8.41679e-05
-1.60799e-06
1.79259e-07
6.37948e-05
-2.19602e-05
-3.6811e-07
6.79452e-07
-3.11092e-07
-5.38942e-07
2.01968e-07
0.000956381
-0.000452835
1.68505e-07
-4.57323e-07
-8.10164e-05
7.03877e-05
1.06149e-05
-0.00130961
-0.000116117
0.00142579
5.81738e-07
-6.73842e-07
9.22248e-08
-1.21912e-07
-8.29319e-07
-5.03851e-06
-1.07428e-06
0.000526097
-0.000162647
-0.000363466
4.56306e-08
-1.38847e-06
9.12945e-06
-7.74106e-06
-7.75124e-07
4.07183e-07
3.58366e-08
4.86954e-07
-5.22664e-07
5.78417e-07
2.71376e-07
-8.49592e-07
5.12866e-07
7.69914e-08
-5.89742e-07
8.46741e-05
-1.87215e-05
-6.40438e-07
-0.000150272
-2.40215e-05
-2.76121e-05
3.66967e-05
-9.09734e-06
-2.7519e-06
2.3509e-06
-5.56103e-07
6.99502e-08
-0.000265279
0.000166372
-0.000328884
-1.87485e-05
0.000347633
-0.000210625
-2.01503e-07
7.14403e-07
5.80015e-05
-3.38973e-05
-2.41037e-05
3.45387e-05
2.34626e-05
5.80852e-08
2.62437e-07
-7.93018e-07
6.91847e-07
-2.53389e-07
-4.38467e-07
-0.000198416
0.000193274
-0.00013249
-0.000118759
0.000251247
-0.000160354
2.84696e-05
-4.9391e-07
4.35514e-07
5.80812e-08
1.71546e-06
-1.71002e-07
-0.000134962
0.00015246
-1.75008e-05
7.77688e-07
5.37192e-07
1.58493e-06
1.20898e-06
-2.79508e-06
-0.000772385
-0.000195786
5.66432e-07
1.56327e-07
-0.000631421
0.00107523
-0.000443807
0.000204201
-0.000260621
5.64299e-05
5.26888e-07
-6.55121e-07
1.28117e-07
-8.28766e-06
1.78524e-06
6.49768e-06
-0.000307756
0.000134963
0.000172798
0.000103119
1.34995e-07
-5.20481e-08
-7.96403e-06
1.61439e-05
-4.83166e-05
-0.000201068
0.000249418
8.35923e-06
-6.60538e-05
-1.00671e-06
9.44708e-07
6.12171e-08
-0.000135371
0.000139111
-0.000276854
-0.000248786
1.11905e-06
-3.11996e-06
2.00078e-06
-2.77327e-07
8.59188e-07
-5.49743e-07
-5.67529e-06
6.22219e-06
0.000694437
-0.000472215
-0.000222226
0.000104854
-0.000197286
9.24321e-05
-0.000184806
0.00012888
5.59234e-05
3.67861e-07
3.48394e-07
5.10212e-06
-5.11768e-06
0.000362353
-0.000218514
-0.00014384
-6.21834e-08
5.89032e-07
-2.89885e-07
9.54746e-08
1.08104e-07
-2.09236e-05
2.08078e-05
-8.14224e-07
5.9166e-06
-8.67877e-05
0.000149069
-6.22842e-05
-0.000176913
1.42058e-05
3.63671e-07
3.05009e-07
-6.68274e-07
-9.5197e-05
7.73777e-05
-1.39804e-05
-3.57904e-06
1.756e-05
3.28365e-07
-2.30785e-08
-4.98446e-07
-5.76205e-08
8.75221e-07
6.10594e-07
-0.00011058
0.000177709
-6.71297e-05
0.000416391
1.92277e-05
-1.91248e-05
-7.50577e-07
4.87001e-07
0.000345954
7.4539e-05
8.23972e-07
-8.4428e-07
2.08418e-08
-4.18399e-05
0.000101309
-5.94709e-05
2.39206e-07
2.73716e-06
0.000424742
-0.000103931
0.000141017
-0.000134963
-6.05477e-06
-1.92586e-07
1.79602e-07
7.93362e-05
0.000142284
-0.000221619
0.000112773
2.86711e-07
0.000388327
9.60239e-05
-0.000484347
0.000421795
0.00027264
-2.69691e-07
4.38224e-07
-8.65795e-05
-0.0001669
3.10718e-06
-4.88504e-06
1.77762e-06
-0.00024083
5.62105e-07
-3.85915e-08
-1.83212e-07
-9.25109e-07
1.10849e-06
7.16029e-05
6.13151e-05
-1.4152e-05
-9.41027e-06
-8.12745e-07
7.98996e-07
1.37994e-08
7.38738e-05
-0.000115154
-0.000211623
-0.000121636
0.00033326
-4.58485e-05
-2.60888e-05
-2.14025e-07
-6.74117e-09
-8.059e-07
-5.09384e-05
0.000120172
-6.92335e-05
-6.28428e-05
2.89456e-05
-8.25539e-05
-9.30897e-06
-5.46454e-08
-0.000414215
0.00018033
0.00023389
0.000278424
-0.000143457
0.000140637
-1.67398e-05
-0.000123898
-0.000213349
4.05906e-05
3.27626e-08
-2.54547e-07
2.21539e-07
-0.000288295
0.000368947
-8.06122e-05
-0.000427293
0.000922664
-0.000495356
3.06128e-06
-7.10396e-06
0.000498508
-0.000426072
-7.24319e-05
2.30158e-07
-3.07264e-07
7.72386e-08
-4.49794e-05
8.3941e-06
3.65855e-05
-5.54931e-06
4.73531e-06
7.38323e-05
-0.000124771
-4.50712e-07
-3.24327e-07
-0.000105898
2.74498e-07
3.09862e-07
-5.84275e-07
3.77006e-06
-1.00645e-05
-5.43948e-07
-3.32635e-07
1.52548e-06
-4.88848e-07
-1.97887e-07
5.61825e-07
2.31651e-06
-7.55662e-07
-1.56114e-06
2.5044e-05
4.93657e-07
1.82281e-06
-3.47799e-07
-0.000553501
0.000367262
0.00018624
0.000261019
-0.000467505
0.000206488
-7.93954e-05
3.75537e-05
0.000108807
9.67234e-06
-0.000168597
3.36339e-05
1.85464e-07
-1.73696e-06
1.55139e-06
0.000308545
-0.000207935
-5.63191e-05
0.000135657
-0.000267795
8.77718e-05
0.000180021
-1.14834e-05
3.35186e-06
8.1311e-06
-0.000120934
3.41427e-05
1.67257e-07
-3.53044e-07
1.85907e-07
6.85806e-06
-2.08381e-05
6.5398e-08
-6.16768e-07
5.51422e-07
6.109e-05
-6.19816e-06
-2.99185e-06
5.07522e-06
-2.08378e-06
-0.000578072
0.000207994
6.47024e-07
-6.71369e-07
2.4636e-08
3.32382e-05
4.36463e-06
-3.76158e-05
5.09356e-06
-9.93731e-05
9.42795e-05
1.49443e-05
2.39286e-05
-3.88021e-05
-4.65657e-07
7.3759e-07
-0.000549059
6.27885e-05
0.000486282
-6.03938e-07
6.69461e-07
-8.85848e-07
8.28386e-07
4.7517e-07
-2.13726e-06
4.95489e-08
6.60246e-08
1.32581e-06
-1.39153e-06
4.34581e-08
-2.5574e-07
2.12416e-07
-4.29688e-07
6.76569e-07
-2.46541e-07
1.30064e-07
1.13949e-06
2.55894e-07
1.1237e-06
-1.38047e-06
6.08177e-05
-0.000279638
6.71807e-06
-0.000163333
0.000156614
-1.06869e-06
-0.000104794
0.000320015
-0.000215221
0.000122619
1.83984e-05
0.000338525
2.46271e-07
4.34949e-07
-6.81096e-07
9.38862e-05
-7.35671e-05
-2.03183e-05
-5.99689e-06
6.05497e-06
-5.75809e-08
-8.38684e-07
5.56556e-06
-4.72726e-06
-0.000230372
0.000299132
0.000420131
-0.000719269
-2.34554e-07
2.67146e-07
1.04015e-06
4.85363e-07
3.6283e-07
-1.3262e-07
0.000154507
0.000123919
2.08122e-07
9.1058e-08
-2.99192e-07
0.000735084
0.000140968
-5.65409e-07
-1.6756e-08
5.82122e-07
-7.88394e-07
1.04401e-06
1.16597e-05
-9.75314e-07
-1.06849e-05
-3.76727e-06
5.20684e-05
-1.07554e-06
5.56573e-07
-5.06673e-07
7.693e-07
-1.28001e-05
-7.28085e-05
-1.64668e-05
-2.5339e-05
1.30577e-05
4.73396e-05
-0.000104203
0.000550922
-0.000708855
-1.33916e-06
-2.22654e-07
1.56163e-06
-8.4547e-07
-1.6151e-07
-4.32357e-07
7.93279e-07
-3.60625e-07
-1.15177e-07
-0.000112277
6.5012e-07
2.0731e-07
-9.52667e-07
-1.86096e-07
-2.19061e-07
-4.94418e-07
7.13793e-07
0.000558515
-2.66695e-05
1.88076e-07
-4.57744e-07
-0.000260812
-0.000313966
0.000574653
0.000334818
8.49786e-05
-0.00041979
3.70846e-07
-8.03141e-07
-8.27424e-05
7.85556e-05
4.63956e-07
3.78194e-07
2.49856e-07
0.000121069
9.27847e-06
0.000232351
-0.000153764
-7.8597e-05
-2.12188e-08
4.61231e-07
-3.73618e-06
6.73312e-07
-1.75662e-05
1.72761e-05
1.93764e-07
-3.89434e-07
-0.000266888
0.000129066
6.59328e-07
-3.18206e-07
-3.40953e-07
-1.74959e-05
-1.01232e-05
0.000161544
-0.000280305
1.02437e-05
-1.24514e-05
2.2076e-06
7.26596e-07
-1.08905e-07
-6.18387e-07
-0.000100992
-0.000107365
7.08645e-08
-2.92833e-07
2.22065e-07
-0.000103296
-5.70576e-05
-6.76253e-06
6.21154e-06
1.52826e-05
-8.52313e-06
-6.7603e-06
2.33856e-06
-3.52342e-06
1.18389e-06
0.000102689
0.000183925
-7.90713e-05
-2.8885e-06
-5.06098e-05
-7.81565e-05
0.000128766
-3.26856e-05
-3.01571e-05
-0.000113244
0.000102973
1.02719e-05
6.17831e-05
-1.59207e-05
-2.29322e-06
3.4121e-06
-0.000152173
-1.11356e-06
7.42146e-07
0.00126661
-0.00168892
0.000422323
-5.08193e-07
3.05963e-07
-7.51605e-06
6.05752e-06
1.4577e-06
-5.3232e-05
7.55573e-05
-2.27813e-05
-0.000106717
0.000129498
6.39469e-06
-6.10657e-06
-3.88727e-05
-1.97089e-07
-3.31372e-07
8.86498e-08
6.86067e-07
-7.7456e-07
4.08008e-05
-0.000329092
-3.34355e-07
6.09124e-07
6.46696e-05
-4.98409e-05
0.000514705
-0.00025368
-7.41335e-07
-0.000156583
0.000142478
1.41081e-05
7.70706e-07
-0.000574412
0.000873541
-4.84359e-07
-1.90482e-06
-2.72648e-06
4.62953e-06
-0.000580184
0.00031936
-9.15571e-07
-2.44964e-06
3.61442e-05
0.000188561
-0.000224705
-3.36247e-07
-1.57731e-07
-4.62973e-07
-5.16309e-07
7.01897e-07
1.24962e-07
-2.01607e-05
4.40018e-05
-2.38424e-05
-5.48709e-06
7.48737e-06
-1.58993e-05
1.63214e-06
6.35183e-07
-2.77138e-07
2.38352e-07
9.62952e-08
0.000155735
0.000206615
0.000127734
-6.66563e-06
-4.7889e-05
4.41226e-05
0.000205874
1.30879e-07
2.11201e-07
-2.70161e-07
5.88231e-08
-4.67962e-07
2.66771e-07
2.01116e-07
1.39056e-07
-6.04665e-07
0.00164283
-0.00037622
-4.54835e-06
3.70956e-06
-9.22651e-05
-3.32476e-05
0.000162322
-4.21048e-07
-2.87795e-07
7.0907e-07
-0.000551239
0.000136922
0.00041444
-0.000260959
0.000234563
2.64052e-05
3.23226e-06
2.73387e-07
-3.5094e-06
0.000136788
-4.01799e-06
-1.97867e-06
-0.000247394
-0.000131002
0.000378416
-0.000368639
0.000348741
1.97352e-05
0.000627393
0.00023082
-9.3092e-05
2.82561e-06
9.02652e-05
-2.63779e-07
-0.000194825
0.000336964
7.64365e-05
-3.77039e-05
1.3844e-06
-5.08967e-07
6.07298e-05
-0.000246343
0.000185618
0.000942542
-0.000261002
-0.000681537
9.48033e-06
5.80195e-06
7.84245e-07
-3.07794e-06
-0.000552048
0.000163632
0.000388528
0.000324353
-0.000168619
-1.30521e-05
-4.30823e-05
5.14718e-06
-1.70615e-05
-4.0139e-05
-0.000144669
-0.000130031
0.000173662
-4.36274e-05
0.000218436
-0.000149714
3.46562e-07
7.29903e-08
-4.19628e-07
2.02066e-05
-3.43515e-05
-0.000183482
-8.43137e-05
7.80468e-07
-3.37669e-07
-1.26609e-06
1.11879e-06
1.4755e-07
-3.43523e-05
-3.12086e-07
2.96283e-07
-1.5095e-07
-1.45381e-07
-0.000543513
0.00043872
2.09741e-05
0.00019242
-0.000213394
-3.86838e-06
2.53395e-06
1.33421e-06
1.65166e-08
1.0519e-07
-1.2151e-07
1.34228e-07
1.52723e-05
0.000443931
0.000141579
0.000186749
-0.000328326
0.000280069
-0.000219237
7.27831e-05
-6.03771e-05
-1.24078e-05
-5.35075e-05
9.62416e-05
-0.00013233
0.000139048
0.000120036
9.83989e-05
-1.68469e-07
3.648e-07
-1.96265e-07
-0.000259585
9.38251e-05
1.42243e-06
-3.31026e-07
-1.09141e-06
9.82997e-09
4.82546e-07
-1.65826e-07
-3.33547e-07
3.18054e-07
-1.95798e-07
-1.22074e-07
2.6488e-07
-5.37693e-08
-4.87802e-07
-5.73694e-08
5.45342e-07
-1.18104e-06
9.44252e-07
2.36471e-07
-0.000754809
-0.000284264
0.00103907
2.75427e-06
-2.61113e-06
-1.4352e-07
0.000163773
-9.217e-05
-8.50622e-05
-9.17608e-05
0.000176823
3.23608e-07
3.35923e-07
1.66609e-07
-3.35093e-07
3.93664e-07
3.92447e-07
-7.85758e-07
-0.000240307
-0.000416371
0.000478133
-6.1783e-05
-2.44323e-05
3.35966e-05
-9.16139e-06
6.97097e-06
-2.89467e-06
-4.07684e-06
-0.0011366
0.000505201
-0.000154115
0.000164699
0.000974101
-3.15604e-05
8.02406e-06
-9.41263e-06
-0.000382129
4.9915e-05
0.000332195
-3.06628e-07
8.24442e-07
-5.17652e-07
-1.463e-06
1.64833e-06
5.73234e-07
-7.81951e-05
2.946e-05
4.87357e-05
-1.03696e-06
-2.28963e-07
3.14873e-09
-3.10423e-09
9.63943e-08
-8.84956e-07
0.000140868
3.85258e-07
-1.62087e-06
4.55886e-07
-1.14256e-07
-0.00018763
-2.4375e-05
0.000138067
8.46495e-07
-0.000138915
-8.64433e-06
1.18744e-05
-0.000791333
-3.09394e-05
0.000218769
-0.000187829
9.8503e-05
-0.000149112
-3.99992e-05
-0.000376354
-4.79633e-07
-8.58608e-08
-2.08489e-07
6.43557e-07
5.06391e-07
-1.97708e-07
0.000163258
-1.74876e-05
5.79957e-05
3.58909e-05
-0.000155643
7.05807e-05
1.43628e-07
3.02213e-07
-4.45688e-07
-8.22744e-05
8.70762e-06
-5.72477e-07
9.1667e-08
4.81002e-07
3.19153e-06
-5.07222e-06
1.88082e-06
-0.000100893
0.000279733
-7.38683e-07
-0.000253997
-0.000160219
1.68228e-08
5.58056e-07
8.22859e-08
-6.56271e-08
-1.02745e-06
8.17162e-07
6.2979e-07
-8.02422e-07
6.296e-06
-1.19728e-05
4.39925e-07
-4.80317e-09
6.7852e-07
-1.26918e-06
5.9103e-07
-4.19418e-05
-0.000166988
0.000208912
-0.000210967
-0.000342532
8.04569e-06
3.61375e-06
-0.00020273
1.51006e-05
-1.05751e-06
5.11101e-07
5.46536e-07
0.000244148
-0.000127509
-0.00011664
-5.56474e-07
7.92926e-07
1.36502e-05
-4.86116e-07
-1.3166e-05
5.04789e-09
-0.000475121
8.08616e-05
0.000394249
1.23237e-05
1.53354e-05
-2.76615e-05
6.02969e-08
2.35994e-07
-1.50337e-06
1.44822e-06
0.000259677
-5.54697e-05
-5.04564e-07
-2.20197e-06
3.61915e-06
-1.41658e-06
-0.00013296
-0.000119271
0.000252232
2.67285e-07
-1.19236e-06
0.000215695
0.000155507
-5.35286e-05
0.000144223
-9.06951e-05
5.42069e-07
2.82436e-07
-2.4754e-05
-1.51447e-05
3.98984e-05
-7.34402e-07
1.58025e-06
-8.45394e-07
0.000196936
0.00014822
-0.000345187
4.0247e-06
-1.68738e-06
-0.000108888
-0.000273249
4.46232e-05
-1.49862e-06
1.68248e-06
-1.83594e-07
-0.000203041
-2.01181e-05
0.000223155
-3.47097e-06
1.26915e-06
3.08527e-07
6.73308e-08
-3.7573e-07
-1.09254e-06
1.15875e-06
-6.51674e-07
7.40448e-07
0.000156661
0.000341851
0.0008251
-0.000843128
1.80414e-05
2.40167e-07
-1.73837e-06
1.16289e-05
-3.60489e-05
3.96622e-07
-0.00105885
-0.000352895
-2.51371e-05
1.09753e-05
1.41617e-05
2.40867e-07
-7.35211e-08
1.16816e-06
-3.9109e-07
1.23082e-06
-8.18472e-07
-4.11908e-07
-7.2386e-05
0.000139739
-6.73432e-05
-7.89389e-06
2.63364e-05
-1.84428e-05
7.75153e-05
-0.000127302
0.000168005
-0.0004017
0.000233709
2.42036e-07
1.11144e-07
-3.5317e-07
4.06492e-07
-0.000723513
3.61627e-05
0.000687361
-7.79994e-07
5.26999e-07
2.53087e-07
-8.08303e-06
-1.88401e-05
2.6921e-05
9.3936e-07
-6.67503e-07
-2.71736e-07
8.45383e-05
3.5041e-05
0.000262112
-0.000297148
-0.000111557
-1.6862e-06
0.000259272
-0.000223123
-4.26197e-06
8.92314e-07
3.3699e-06
3.9348e-07
3.94684e-07
-0.00054236
0.000238251
-1.08743e-06
2.81821e-08
3.63386e-07
3.91919e-07
0.000117053
4.67205e-05
-0.000557232
5.19251e-06
-5.80206e-08
3.00071e-07
-7.25616e-07
-2.5196e-07
-8.68532e-05
8.65853e-06
3.83803e-07
-4.69494e-07
8.58598e-08
3.52835e-06
-2.74443e-06
1.51713e-06
1.24445e-07
-1.64181e-06
0.000230642
0.000231229
-0.000461858
-0.000194405
0.000284822
-2.10437e-07
-9.16295e-06
4.22877e-06
4.93342e-06
3.64226e-05
0.000633158
0.000467215
-0.00110036
4.08672e-07
2.68141e-07
4.56332e-07
-3.22045e-07
1.12668e-06
-2.12001e-06
9.93538e-07
-0.000416639
0.000224187
-2.01785e-06
1.28373e-06
-0.000215649
0.00036294
2.3139e-07
1.22946e-07
-4.16215e-08
-8.1318e-08
-0.00010356
0.000101441
2.11916e-06
-3.63374e-05
-4.46801e-05
2.5175e-05
8.96945e-06
-3.41491e-05
1.97264e-06
-1.12359e-06
-8.49824e-07
6.83582e-07
-5.89659e-07
-9.38816e-08
1.487e-05
0.00042349
-0.000438359
0.000333256
3.95438e-07
-6.52414e-09
1.25111e-06
-2.17433e-07
9.79292e-09
-1.21831e-06
1.8797e-05
-0.000600894
0.000688056
-8.71616e-05
5.27388e-07
-1.76483e-07
-3.5092e-07
1.24981e-07
5.5875e-07
-1.07262e-06
-2.79312e-07
-1.88645e-07
7.90221e-08
-6.28356e-07
0.000198781
-0.000162312
-3.64786e-05
7.11787e-07
-1.72693e-05
1.23065e-05
4.96296e-06
-9.55154e-05
-1.16804e-05
-5.19245e-07
1.85043e-07
1.01276e-06
3.71799e-07
-0.00019365
-6.72873e-05