/*--------------------------------*- C++ -*----------------------------------*\
| =========                 |                                                 |
| \\      /  F ield         | OpenFOAM: The Open Source CFD Toolbox           |
|  \\    /   O peration     | Version:  v2012                                 |
|   \\  /    A nd           | Website:  www.openfoam.com                      |
|    \\/     M anipulation  |                                                 |
\*---------------------------------------------------------------------------*/
FoamFile
{
    version     2.0;
    format      ascii;
    class       volScalarField;
    location    "350";
    object      epsilon_0;
}
// * * * * * * * * * * * * * * * * * * * * * * * * * * * * * * * * * * * * * //

dimensions      [0 2 -3 0 0 0 0];


internalField   nonuniform List<scalar> 
14033
(
1.67225e-06
0.00869701
2.36475e-06
2.32602e-06
6.74167e-06
2.42332e-06
2.05093e-06
0.0273631
2.47223e-06
1.95099e-06
9.4385e-05
0.0128768
0.0983265
2.31093e-06
2.22149e-06
1.96773e-06
2.06792e-06
1.46599e-05
0.108171
4.16231e-06
1.72019e-06
0.0468513
0.0182927
2.30253e-06
0.0400957
2.02905e-06
3.80853e-06
2.33534e-06
0.0113342
0.019001
1.6543e-06
2.65724e-06
2.15017e-06
0.130362
1.79694e-06
2.48522e-06
2.04127e-06
4.09247e-06
1.96409e-06
2.08454e-06
2.58915e-06
2.43026e-06
0.0146613
0.0782746
2.72757e-06
0.0357079
1.71962e-06
2.41907e-06
3.46171e-06
0.0215441
1.09653e-05
4.82993e-06
0.0145472
0.0304076
2.76613e-06
2.08134e-06
0.0164247
2.32303e-06
2.03735e-06
2.6848e-06
3.61965e-06
2.61291e-06
0.0193465
2.27153e-06
1.82678e-06
8.65729e-05
0.0038331
1.3643e-05
2.74399e-06
1.81127e-06
2.08133e-06
2.26368e-06
0.0189119
0.0489301
0.00271757
2.49927e-06
8.40629e-06
2.51207e-06
2.79212e-06
3.91904e-06
2.67637e-06
0.0246333
0.0157153
0.0586024
2.43455e-06
2.62021e-06
2.22717e-06
2.05726e-06
3.69217e-06
0.0196892
1.99567e-06
1.94227e-06
2.92765e-06
0.0271641
0.0363256
3.15292e-06
1.83374e-06
0.000316829
0.00972595
3.45979e-06
2.46931e-06
0.071442
2.56969e-06
2.34826e-06
0.0168541
0.000828572
2.45854e-06
0.000198396
3.92571e-06
0.048344
1.79277e-06
2.68022e-06
3.46075e-06
0.0153041
3.50659e-06
0.0463325
0.0111702
2.58641e-06
3.89753e-06
0.00876617
1.9602e-06
0.0158798
2.10329e-06
2.70851e-06
0.0511209
2.05719e-06
0.035616
8.44905e-06
2.28454e-06
2.47221e-06
0.0194746
4.26507e-06
3.79729e-06
0.0247132
5.89427e-05
2.29721e-06
0.027076
0.0288055
2.5246e-06
8.66165e-06
0.00653989
0.02944
2.0226e-06
0.000123445
2.83171e-06
1.67876e-06
0.0238722
1.42595e-05
1.6792e-06
2.65686e-06
4.00036e-06
3.96159e-06
1.95693e-06
0.0203839
1.32381e-05
2.27953e-06
0.0158619
2.7757e-06
2.14588e-06
0.00227331
0.0268589
1.35278e-05
2.22796e-06
2.3107e-06
0.0321812
1.86833e-06
0.0498355
2.02845e-06
0.0129182
2.6867e-06
6.4357e-05
2.53538e-06
2.62281e-06
3.29724e-06
2.4183e-06
3.77359e-06
3.87571e-06
1.97376e-06
2.31743e-06
0.010542
0.0100405
8.97126e-06
2.66729e-06
0.00887541
1.93181e-06
1.98816e-06
2.4237e-06
3.20065e-06
0.0251003
2.37542e-06
2.76317e-06
1.97583e-06
0.0331341
1.93581e-06
2.15108e-06
2.83834e-06
2.09792e-06
0.0985605
0.00192665
2.98631e-06
0.033968
1.71004e-06
4.62225e-05
2.45832e-06
0.0290535
0.018566
2.48729e-06
1.69853e-06
0.0307209
0.0198615
2.00513e-06
2.78131e-06
6.33228e-05
2.70831e-06
2.13292e-06
2.10016e-06
2.63619e-06
0.000410611
1.33155e-05
1.85158e-06
0.0238701
0.0424814
3.43878e-06
2.37428e-06
3.95446e-06
8.26168e-05
0.0742174
1.84156e-06
0.027027
2.63378e-06
2.36595e-06
2.25825e-06
0.00335974
0.028455
1.85637e-06
1.78189e-06
0.011425
2.37245e-06
2.38035e-06
2.05183e-06
1.94469e-06
1.17931e-05
2.22338e-06
0.0260479
2.5448e-06
0.00521078
2.67656e-06
0.0115506
9.08399e-06
2.16132e-06
1.47476e-05
0.00331465
2.13386e-06
2.57147e-06
1.89189e-06
1.07438e-05
2.4183e-06
3.97449e-05
3.25664e-06
0.0596585
3.22878e-06
0.0118074
3.90676e-06
2.75261e-06
2.71614e-06
2.29795e-06
2.32819e-06
5.10002e-06
2.56457e-06
2.64359e-06
2.01322e-06
3.01603e-06
1.6347e-05
8.38734e-06
0.000925912
2.1206e-06
2.3174e-06
2.31225e-06
0.0152397
2.6698e-06
4.09963e-06
3.0326e-06
0.0117214
0.0329052
2.02676e-06
0.0130704
2.06123e-06
2.31425e-06
1.7682e-06
2.35683e-06
4.13809e-06
4.81286e-06
2.10485e-06
0.0236683
2.23204e-06
3.28719e-06
7.96628e-06
2.48065e-06
0.0755971
0.00786174
4.05737e-06
0.0186657
2.05798e-06
2.24715e-06
0.0132833
2.23354e-06
2.37357e-06
2.48647e-06
2.68957e-06
1.80765e-06
5.84919e-06
1.33013e-05
2.34866e-06
0.0170289
0.0255279
0.092712
2.63441e-06
4.14305e-06
0.041061
2.40651e-06
2.61442e-06
2.29325e-06
2.57288e-06
2.57426e-06
2.12401e-06
1.81591e-06
2.28197e-06
1.89874e-06
2.27991e-06
0.0306279
0.0420071
1.70879e-06
2.45975e-06
0.00941885
1.94418e-06
1.95298e-06
2.19787e-06
2.33484e-06
0.0127889
1.97064e-06
0.00972987
0.0185563
2.09486e-06
0.0291157
1.80531e-06
2.41751e-06
2.54012e-06
2.0217e-06
0.155202
2.1344e-06
0.0331493
4.14874e-06
2.82413e-06
3.01111e-06
1.92672e-06
1.89536e-06
2.77243e-06
3.71846e-05
0.00921878
0.0485381
2.82116e-06
0.0590597
1.85696e-06
4.32761e-05
3.85193e-06
3.36353e-06
2.89306e-06
4.09181e-06
0.0147072
0.0706511
0.000471451
3.05946e-06
1.95742e-06
2.35744e-06
2.56411e-06
0.00569299
6.86905e-06
2.62256e-06
0.0292355
2.29937e-06
3.40212e-06
2.78945e-06
2.16095e-06
2.11849e-06
0.0179679
0.00703737
1.04387e-05
5.31132e-06
2.76631e-06
0.000155714
0.0251755
1.76829e-06
0.00255759
2.393e-06
2.4381e-06
0.000223239
0.0374606
7.34541e-06
0.230105
2.48848e-06
1.89075e-06
0.0170029
3.69265e-06
0.0017023
0.000299992
0.00786546
1.83802e-06
2.25886e-06
0.0163873
0.0928405
2.77697e-06
2.49451e-06
1.84245e-06
2.14678e-05
4.14975e-06
0.0104615
0.0280865
2.00197e-06
1.88383e-06
4.02235e-05
2.38421e-06
2.72019e-06
0.0150643
0.0173857
2.63447e-06
0.0138005
0.0223926
0.00474452
2.00463e-06
2.07699e-06
3.03628e-06
1.82997e-06
0.31273
2.06791e-06
2.40496e-06
0.026356
0.0126116
3.55394e-06
1.08512e-05
2.51195e-06
0.0221918
0.000387222
2.24081e-06
0.0355511
2.72939e-06
0.0126812
0.000447946
0.0052506
2.39576e-06
0.00804986
2.7029e-06
0.0271211
1.82679e-06
0.0163005
0.0121602
4.03622e-06
0.0430405
2.67443e-06
0.00335042
0.0283928
0.0869129
0.0109717
3.07712e-06
0.0111593
0.013098
1.38711e-05
1.70222e-06
0.0114961
0.000238024
3.92995e-06
1.92358e-06
0.000618922
2.00502e-06
2.49199e-06
0.0808241
5.24186e-06
1.76448e-06
2.28654e-06
0.0131073
0.00186514
0.0488151
2.18493e-06
0.0231204
0.0156997
2.34926e-06
0.00996824
2.04933e-06
1.90291e-06
2.02253e-05
2.0651e-06
1.92973e-05
0.0746454
4.06348e-06
1.83483e-06
2.22588e-06
0.000873921
3.01439e-06
2.39302e-06
2.03295e-06
2.3535e-06
1.92361e-06
1.78766e-06
6.25274e-06
2.68558e-06
0.000248145
9.07946e-06
2.43686e-06
1.78443e-06
0.0429018
0.0299738
0.0114962
1.79373e-06
3.30236e-06
3.20775e-06
1.64896e-06
2.27221e-06
2.55688e-06
0.0292844
1.47785e-05
0.0108188
2.47702e-06
2.04595e-06
0.020181
2.38509e-06
2.58976e-06
0.00531259
2.66598e-06
0.00579874
0.0238193
2.40846e-06
4.36329e-06
8.43142e-06
0.0140846
1.94488e-06
2.25462e-06
1.72976e-05
6.04883e-06
2.38643e-06
0.0121475
0.0659486
2.31234e-06
3.99215e-06
3.83814e-06
0.0506579
0.0289711
0.0183448
1.99192e-06
1.82772e-06
0.0140456
2.41604e-06
3.66621e-06
4.91699e-06
1.66759e-06
1.83567e-06
0.0212995
8.81908e-06
1.80716e-05
3.58728e-06
0.0280645
1.89529e-06
2.00211e-06
1.77185e-06
1.85184e-06
0.0207835
1.05022e-05
5.11513e-06
2.10563e-06
0.000135071
4.16152e-06
0.0162006
2.07482e-06
0.0474818
0.00920211
2.60832e-06
0.0256924
0.00276574
2.71068e-06
0.092169
0.0505335
2.0852e-06
0.0288329
2.27475e-06
0.0290405
2.4416e-06
1.75212e-06
0.0217536
2.73908e-06
2.28194e-06
6.61741e-06
0.0295408
0.0131008
4.10501e-06
2.26603e-06
6.29858e-06
3.16658e-06
0.0158237
2.602e-06
4.54744e-06
8.56527e-06
8.89098e-06
1.49914e-05
2.58713e-06
0.0297835
0.0669947
2.43309e-06
0.0352978
3.24693e-06
2.89136e-06
1.83608e-06
5.83718e-06
2.01763e-06
0.0115784
2.03981e-06
2.32265e-06
3.86216e-06
2.6889e-06
3.55326e-06
2.4264e-06
0.0190007
2.41161e-06
1.8785e-06
5.09062e-05
0.0138832
0.0166805
0.0242628
0.0190072
2.25073e-06
0.0310121
0.0252897
0.0120679
2.28447e-06
0.022619
2.8176e-06
1.87677e-06
2.14978e-06
0.00946659
2.1794e-06
0.054587
2.27072e-06
0.000102457
0.0144613
0.0625623
2.79904e-06
0.0134444
2.17425e-06
2.66969e-06
2.2263e-06
4.10132e-06
1.74497e-06
3.1928e-06
2.0826e-06
4.05004e-06
2.34949e-06
0.0645576
2.21586e-05
1.75832e-06
1.01987e-05
0.00900148
0.000329757
2.01757e-06
3.50218e-06
1.92492e-06
2.18933e-06
0.0287699
0.000233679
2.57843e-06
2.67765e-06
3.24781e-06
8.2317e-06
2.76921e-06
0.00483086
2.39788e-06
2.36409e-06
2.35482e-06
2.6768e-06
2.73906e-06
2.28218e-06
0.00961352
0.00983461
0.0172095
0.0241091
0.191342
2.2168e-06
2.40279e-06
2.58069e-06
0.0140718
3.80156e-06
2.06767e-06
2.03215e-06
0.00013983
2.07515e-06
0.0531171
3.15127e-05
2.59832e-06
4.18287e-06
2.79985e-06
2.06666e-06
0.0124007
0.00634266
2.37967e-06
2.61932e-06
2.4486e-06
2.6833e-06
2.84538e-06
3.98838e-05
2.38725e-06
8.57254e-06
1.78082e-05
2.52101e-06
2.45883e-06
0.0199389
3.41704e-06
0.0098016
3.87536e-06
2.35232e-06
2.39656e-06
4.00296e-06
0.0284269
2.07294e-06
4.29358e-06
3.28941e-06
4.3348e-06
0.0179681
2.30984e-06
0.0189387
2.7575e-06
0.0932508
2.11641e-06
2.31975e-06
0.0161634
0.0116865
3.35989e-05
2.97639e-06
2.37028e-06
2.33443e-06
1.71013e-06
0.0284761
2.0445e-06
0.061616
0.0147369
2.28223e-06
8.8806e-06
2.3804e-06
0.000273051
2.34263e-06
2.45958e-06
0.0509488
2.21475e-06
0.0262862
2.49215e-06
1.87424e-06
1.9456e-06
3.1003e-06
2.7287e-06
1.03761e-05
2.17455e-06
2.00591e-06
3.31985e-06
0.013712
0.0113806
2.55514e-06
0.0127156
1.64241e-06
3.07745e-06
2.58656e-06
2.8227e-06
0.0716086
2.16421e-06
0.0122555
0.0207713
3.8717e-06
0.0569077
0.0278054
3.3985e-06
4.08345e-05
1.90845e-06
0.000207941
0.0588772
0.00347026
0.0181508
3.20118e-06
0.0343498
0.0162574
1.8454e-06
0.0414904
0.000297147
2.32285e-06
2.30488e-06
0.070528
0.0133463
2.63445e-06
3.74205e-06
0.0182766
0.031075
0.013507
2.50109e-06
4.31604e-06
0.0125458
2.79978e-06
1.83795e-06
0.0147912
2.10733e-06
4.09433e-06
1.09042e-05
0.0263782
2.50505e-06
3.46569e-06
2.64362e-06
0.0359225
0.0422399
0.0331997
3.43359e-06
0.00979848
1.60909e-05
0.0131668
3.29344e-06
0.000534713
2.32664e-06
2.22506e-06
2.31357e-06
2.29086e-06
3.11266e-06
2.4211e-06
2.74164e-06
0.000373737
2.43836e-06
0.0225228
0.0234831
2.40103e-06
3.25316e-06
2.09323e-06
0.031212
0.00703386
0.020335
2.3914e-06
0.00704193
3.82566e-06
0.00059392
2.41563e-06
9.9655e-05
2.58095e-06
2.2459e-06
2.03292e-06
3.45376e-06
1.83521e-06
4.0815e-06
2.36977e-06
0.0129028
2.55816e-06
2.14773e-06
2.35219e-06
3.3693e-06
0.013822
3.76366e-06
0.0712727
0.027071
4.3901e-06
0.00638749
2.38062e-06
2.02466e-06
2.01046e-06
0.0259088
0.0281493
3.57601e-06
0.0226392
3.06283e-06
3.37864e-06
2.26216e-06
2.16929e-06
0.00619296
2.75261e-06
4.48398e-06
2.28754e-06
3.47767e-06
2.73259e-06
2.22113e-06
3.68291e-06
2.46454e-06
1.8896e-06
0.000790996
6.72605e-05
2.37319e-06
3.2268e-06
1.72811e-06
0.0194436
2.79594e-06
3.24231e-06
1.9592e-06
0.0324712
4.88454e-06
4.09331e-06
2.02253e-06
0.0235319
2.40518e-06
2.20601e-06
0.0088071
1.74247e-06
0.0600776
0.0140878
2.56364e-06
3.16546e-06
2.00391e-06
0.000887205
2.42013e-06
0.000122901
0.00969898
2.01434e-06
0.0132445
2.2013e-06
2.50646e-06
1.7449e-06
1.69941e-06
0.0361209
0.0746778
2.00868e-06
0.0183921
2.71247e-06
0.208309
2.56097e-06
2.8482e-06
2.38944e-06
1.82961e-06
0.0225311
2.84162e-06
4.98578e-06
0.0132625
4.01821e-06
2.28121e-06
0.0798958
2.60031e-06
2.75057e-06
3.90551e-06
0.0136308
0.0149386
4.38328e-06
0.0266722
2.16814e-06
2.13168e-06
9.46894e-06
4.15699e-06
1.90701e-06
0.021866
0.0784063
4.05192e-06
2.71426e-06
3.66082e-06
2.5386e-06
2.30228e-06
2.25011e-06
0.0129412
7.32254e-06
2.54113e-06
2.2297e-06
0.0238883
0.00704932
2.10037e-06
2.66415e-06
1.78746e-06
0.0565546
2.01494e-06
3.10677e-05
2.80119e-06
2.89645e-06
0.0102696
1.93899e-05
4.61881e-06
2.39889e-06
2.43895e-06
8.87484e-06
0.0910905
3.93477e-06
2.6256e-06
2.10535e-06
4.0473e-06
3.53837e-06
2.40456e-05
2.53162e-06
2.44737e-06
2.02366e-06
2.56672e-06
2.7486e-06
1.62595e-05
2.39727e-06
2.41094e-06
5.2983e-06
2.03834e-06
1.85466e-06
0.0273448
0.000281728
5.70214e-05
2.51299e-06
3.39033e-06
2.48991e-06
9.92601e-06
0.000335925
0.00281441
2.52594e-06
2.19982e-06
2.235e-06
3.89494e-06
0.0164373
3.93681e-06
0.0397014
0.0203437
0.00930419
1.76688e-06
2.58732e-05
0.041087
2.26031e-06
0.000115707
2.63023e-06
3.5451e-06
0.0291975
2.08278e-06
0.0014003
0.0482977
1.805e-06
0.01349
1.6419e-06
2.72918e-06
1.83237e-05
2.02542e-06
7.33083e-05
3.89356e-06
2.26099e-06
2.41186e-06
2.0746e-06
2.11197e-05
2.27692e-06
0.0237512
3.9454e-06
1.69613e-06
3.1003e-06
2.81834e-06
2.52612e-06
5.18583e-06
0.0159666
2.63013e-06
0.0227274
1.99583e-06
3.99337e-06
2.637e-06
2.06011e-06
1.7382e-06
0.00555697
6.08819e-06
4.14928e-06
4.4746e-06
2.54831e-06
8.89398e-06
1.07923e-05
3.15707e-06
0.0146505
0.0204669
0.0100139
0.0474157
2.27125e-06
0.00870551
0.0149669
2.20606e-06
3.24851e-06
2.84072e-06
0.0159452
0.0405404
4.82423e-05
0.00918181
0.0510488
1.97636e-06
4.94287e-06
0.0309941
2.58777e-06
0.0405692
0.0699646
0.0185163
2.23634e-06
0.0225654
2.36537e-06
1.9158e-06
0.0160999
4.97544e-06
0.0135836
0.0199397
0.0134113
0.0413229
4.92815e-06
2.48012e-06
0.0230149
0.0167618
0.00738681
2.11701e-06
2.21575e-06
5.47924e-06
0.00550636
2.39128e-06
2.27919e-06
1.66119e-06
4.39481e-06
0.0351191
5.02092e-05
1.81331e-06
0.0503054
0.00393632
1.90484e-06
1.25354e-05
0.269027
1.71367e-06
0.000106022
0.0109988
2.39189e-06
0.0352764
3.28744e-06
2.43899e-06
2.30787e-06
0.0140997
0.000486246
0.0155989
6.92342e-06
0.0170241
0.000191387
0.0358155
1.73633e-06
2.36038e-06
2.06384e-06
2.64744e-06
1.88264e-06
3.21293e-06
1.95987e-06
2.32938e-06
0.0243202
0.064105
2.09884e-06
1.73911e-06
0.000153853
1.81698e-06
0.0133372
4.16033e-06
0.048981
2.41264e-06
0.0184859
2.30978e-06
0.00512285
0.0140158
1.99831e-06
2.77447e-06
0.0358056
0.0594508
0.0853546
0.0104504
0.0197493
1.79225e-06
1.749e-06
2.45751e-06
1.65647e-06
1.98535e-06
0.0142712
2.5074e-06
2.08724e-06
2.25247e-06
0.0403584
3.28158e-06
0.0491563
3.85275e-06
2.1763e-06
0.0170604
4.01557e-06
5.1982e-06
4.83174e-06
4.00255e-06
3.02267e-06
0.000618579
1.73233e-06
0.0502249
2.3036e-06
2.81002e-06
2.66736e-06
0.0107764
0.0192792
2.44818e-06
3.92827e-06
1.7181e-06
3.24735e-06
5.43279e-06
0.00123916
2.18623e-06
2.22068e-06
2.32579e-06
0.0442101
0.0175999
2.34484e-06
2.13741e-06
8.03597e-06
2.38611e-06
9.91945e-05
5.70507e-06
2.93197e-06
2.1867e-06
0.238739
3.19784e-06
1.91311e-06
0.0233658
9.19057e-06
0.0143503
0.0123319
1.92711e-06
2.37739e-06
0.0173097
0.032154
1.72013e-06
1.97138e-06
2.63912e-06
7.8713e-06
3.80643e-06
1.72676e-06
2.47764e-06
0.0251741
2.58842e-06
0.0112786
3.19094e-06
1.67032e-05
0.0349788
2.92946e-06
2.58322e-06
0.0190301
2.46987e-06
0.0265464
0.0147353
2.04566e-06
0.0131784
2.50841e-06
2.11045e-06
2.13477e-06
3.13228e-06
2.5307e-06
4.52872e-06
1.92582e-06
2.20382e-06
0.0523745
0.0717509
1.94102e-06
0.0479471
4.03696e-06
0.0178897
1.96073e-06
4.58367e-05
1.79989e-06
1.58352e-05
0.000301334
2.44946e-06
2.05954e-06
0.0105607
0.0781427
0.0111154
4.88352e-06
0.014511
2.52878e-06
3.29557e-06
1.91545e-06
2.39024e-06
0.0281872
2.41385e-06
2.11841e-06
4.8815e-06
2.44738e-06
0.00715833
1.90604e-06
0.0106626
0.0161339
5.07107e-06
4.82667e-06
0.0128801
2.4078e-06
1.99576e-06
0.0297638
2.04454e-06
3.06008e-06
0.0093436
2.40396e-06
0.0876429
2.43641e-06
0.012746
2.27547e-06
0.0180142
0.320885
0.242326
0.122006
1.96272e-06
1.74172e-06
3.83334e-06
2.18601e-06
2.63205e-06
0.0190109
6.24604e-05
0.0150562
2.31565e-06
0.0257521
0.0246795
0.0263876
1.67578e-06
2.25913e-06
0.0170398
2.69624e-06
3.2323e-06
2.00963e-06
0.0214458
2.32377e-06
0.0184241
1.81441e-06
0.0520529
4.16281e-06
1.96771e-06
2.7313e-06
2.85728e-06
0.00297806
0.0264053
0.034827
0.0645935
2.81808e-06
3.01567e-06
2.38094e-06
2.81475e-06
0.194078
9.59174e-06
2.27427e-06
2.75349e-06
5.90611e-05
1.84314e-06
4.2413e-05
2.66896e-06
3.32918e-06
4.22531e-06
0.0122482
0.0151812
0.00967382
1.95852e-06
0.00984138
0.00937825
0.0235186
2.39146e-06
2.36375e-06
2.05755e-06
2.50446e-06
0.0185527
0.000164253
0.0131859
2.61963e-06
2.39692e-06
2.5714e-06
3.63584e-06
0.138961
0.00656959
7.33873e-06
0.014
1.71329e-05
4.2298e-06
3.22277e-06
2.53804e-06
1.69869e-06
0.028435
2.89974e-06
2.79048e-06
1.9406e-06
2.68228e-06
0.00455474
2.29489e-06
0.0884998
0.00050683
3.02939e-06
3.57621e-06
3.89648e-06
2.7425e-06
0.000612895
0.00174826
2.5099e-06
3.00733e-06
2.17488e-06
1.88066e-06
1.95507e-06
0.0420915
0.0204098
2.25378e-06
2.24113e-06
2.28261e-06
2.03121e-06
0.0455829
0.0298556
0.0649464
2.28836e-06
0.0117817
2.45714e-06
2.90991e-06
0.00570689
3.13393e-06
0.0221186
2.48759e-06
0.0334818
2.94056e-06
3.72271e-06
2.57818e-06
2.24326e-06
0.0188252
2.1004e-05
0.0145423
3.12503e-06
2.02551e-06
2.20148e-05
2.29071e-06
0.0194473
2.84283e-06
2.84645e-06
2.34451e-06
2.09358e-06
2.64694e-06
2.13578e-06
0.0125484
0.018505
2.64828e-06
3.56465e-06
3.22927e-06
1.86271e-06
2.3186e-06
2.63185e-06
1.97878e-06
1.90391e-06
2.28908e-06
2.28408e-06
5.05177e-06
0.0277579
0.0124621
1.90093e-06
2.25755e-06
3.56917e-06
3.45426e-06
2.36868e-06
2.38975e-06
0.0115947
0.0155592
1.70433e-06
0.0093461
0.00020251
3.58826e-06
2.2675e-06
5.74055e-06
1.81114e-06
0.0176216
2.23997e-06
2.13837e-06
2.51294e-06
0.251674
2.37401e-05
2.7098e-05
3.01819e-06
2.50033e-06
0.0399062
3.75964e-06
2.17605e-06
0.0108372
2.42108e-06
1.96962e-06
0.000119752
2.58964e-06
2.39775e-06
0.0198821
2.14276e-06
2.40578e-06
3.13633e-06
1.82409e-06
1.74473e-06
0.0510664
0.000120069
2.1639e-06
0.0556543
3.46052e-06
1.05649e-05
0.0861646
2.3534e-06
2.74505e-06
0.014342
3.22529e-06
0.0169868
3.16433e-06
0.186353
2.77453e-06
0.00559395
0.0212594
0.0202547
1.97482e-06
2.14319e-06
0.0198718
0.0112164
1.05176e-05
2.07645e-06
0.0139818
0.00294028
2.70125e-06
2.38628e-06
2.07021e-06
1.75289e-06
0.0247721
1.96301e-06
2.11925e-06
2.43603e-06
0.00939608
1.44562e-05
3.12879e-06
0.0368298
4.69348e-05
2.30492e-06
1.77529e-06
1.97334e-06
3.10201e-06
2.03652e-06
2.46121e-06
2.10376e-06
0.0145643
0.0180144
3.50267e-06
0.00946833
0.0218377
2.27924e-06
2.20183e-06
0.0147528
2.74168e-06
0.0334505
2.38279e-06
2.39191e-06
0.0385967
4.43268e-06
2.296e-06
1.73164e-06
0.0492708
2.36146e-06
2.3893e-06
2.38463e-06
0.00712552
1.84204e-06
3.09002e-06
1.37267e-05
0.0597466
0.0212249
1.88986e-06
1.84948e-06
0.0346833
3.93805e-06
2.26718e-06
2.19361e-06
2.80197e-06
0.00217764
2.26061e-06
0.0102395
2.60794e-06
2.2563e-06
2.68166e-06
2.65502e-06
2.37584e-06
1.07939e-05
0.0285787
8.95317e-05
2.27458e-06
2.727e-06
2.97865e-06
0.0149277
2.06799e-06
1.81544e-06
2.16222e-06
2.7521e-06
0.0333526
3.82696e-06
0.017266
0.0186479
0.0638759
0.0120343
2.33307e-06
0.00665278
0.0762584
0.039981
1.82998e-06
4.4404e-05
3.62977e-06
2.47564e-06
2.29607e-05
2.90164e-06
4.47606e-06
0.0284626
1.93765e-06
0.000600744
0.0142764
0.00520575
0.0467875
0.0080457
0.0218169
3.57031e-06
0.162695
0.0130392
4.0012e-06
5.22668e-06
1.90966e-06
2.15848e-06
3.5497e-06
2.38424e-06
1.82981e-06
7.85273e-06
2.76516e-06
0.0030116
1.57213e-05
0.000140184
0.0208323
0.0634252
3.90017e-06
2.77852e-05
1.83336e-06
3.80496e-06
4.50845e-06
2.6309e-06
2.49917e-06
1.985e-06
0.0476484
2.3845e-06
0.000728394
0.189484
3.5534e-06
2.32971e-06
2.13675e-06
2.30513e-06
0.000269431
2.34408e-06
2.04143e-06
2.02175e-06
2.08958e-06
2.24848e-06
2.38413e-06
2.21262e-06
4.04501e-06
2.19575e-06
0.0160758
2.48279e-06
0.0454233
0.0133081
2.71966e-06
2.24111e-06
0.00546333
3.54651e-05
3.07482e-06
1.99274e-06
2.28015e-06
2.49864e-06
0.0221823
0.0272186
1.68213e-06
0.0163666
0.0157032
2.14252e-06
0.0214595
0.046256
2.81881e-06
2.07759e-06
2.01157e-06
2.22386e-06
2.27718e-06
0.0149415
5.07244e-06
6.28581e-05
0.0348338
2.30906e-06
1.94961e-06
0.0113693
2.02887e-06
2.76968e-06
2.09538e-06
2.38472e-06
0.0040199
0.0483354
3.95965e-06
2.67864e-06
0.0166868
0.0317203
0.023817
0.0134295
2.45634e-06
2.39949e-06
2.19634e-06
2.74974e-05
4.91351e-06
0.0141737
0.0827148
2.07115e-06
2.12683e-06
3.55741e-06
1.64397e-06
0.000359078
2.3231e-06
2.09001e-06
0.00874923
0.0857899
4.90233e-05
2.73834e-06
0.0838519
2.3301e-06
0.0114772
3.122e-06
3.29722e-06
1.89276e-06
2.29288e-06
2.30824e-06
0.02678
0.0113089
2.05545e-06
0.00464857
2.86283e-06
3.17002e-06
4.11221e-06
2.00698e-06
0.0325319
2.52393e-06
1.81801e-06
0.0176836
1.98276e-06
2.36641e-06
3.54433e-06
0.0403059
2.37419e-06
1.42857e-05
2.58069e-06
1.48884e-05
3.67707e-06
2.21326e-06
2.3159e-06
0.0019689
2.33295e-06
2.43455e-06
0.000305582
2.82515e-05
4.11196e-06
2.67979e-06
2.10742e-06
3.93425e-06
0.0302312
8.74657e-06
0.0176666
0.0272913
1.72166e-06
0.00126016
4.39006e-06
0.0204338
0.0285295
2.36925e-06
2.87719e-06
1.19855e-05
3.3169e-06
2.15354e-06
0.03573
0.0231494
0.0329561
0.0115908
3.5154e-06
0.0229716
0.00834095
0.0161357
2.2004e-06
0.0129255
5.61024e-06
4.14616e-06
0.00230703
0.0137277
0.0100254
0.0116061
2.35975e-06
0.012303
2.83435e-06
0.000336425
2.33754e-06
2.00711e-06
2.13229e-06
1.54208e-05
0.00223407
2.89694e-06
0.000120957
0.0352413
0.0146418
2.35865e-06
2.74172e-06
0.00337813
0.0239633
4.10687e-06
2.56108e-06
9.16279e-06
0.0114679
0.0242854
2.39052e-06
2.39896e-06
0.0592546
0.0095996
1.90018e-05
5.24233e-06
2.27584e-06
0.0137509
0.00298584
0.0625736
1.96839e-06
3.51023e-06
1.70172e-06
2.43558e-06
7.17108e-06
2.3468e-06
1.02325e-05
0.00934578
0.0420958
1.96554e-06
2.78021e-06
0.0379534
2.1396e-06
0.0126382
0.0589949
0.0535453
2.2748e-06
1.04801e-05
2.34256e-06
0.015255
0.00315403
2.63548e-06
1.71484e-06
2.55438e-06
0.00164772
4.15587e-06
1.85199e-06
1.73088e-06
2.12188e-06
0.000250157
9.90366e-06
0.0305967
1.50889e-05
0.0165336
3.26177e-06
0.0140823
2.07633e-06
2.38087e-06
2.50667e-06
0.0135994
2.5923e-06
1.84519e-06
3.63316e-06
2.27149e-06
3.00506e-06
2.33445e-06
3.65954e-06
1.80243e-06
2.38237e-06
0.0221362
2.37244e-06
0.0174358
2.21118e-06
3.3118e-06
2.29793e-06
2.42413e-06
0.0344157
8.19e-06
3.38881e-06
2.34087e-06
0.058315
2.53596e-06
2.19551e-06
3.22313e-06
1.95017e-06
2.45748e-06
1.72441e-06
0.0352638
4.29312e-06
3.01052e-06
4.16365e-06
1.79938e-06
0.0181852
2.37978e-06
0.0268255
8.42758e-06
2.23381e-06
2.60137e-06
0.0335504
8.60889e-06
0.00287583
0.00844923
3.67493e-06
0.0466601
1.83072e-06
2.92677e-06
3.04303e-06
1.07535e-05
6.68496e-06
5.94341e-06
0.00790057
0.0187886
0.0558885
1.05961e-05
0.0368385
2.35091e-06
1.71535e-06
2.2837e-06
0.0417423
6.62988e-06
0.0209125
0.0423815
0.0415013
4.21306e-06
0.0213067
1.94976e-06
2.27006e-06
2.64796e-06
4.67689e-06
0.0128082
1.92438e-06
1.68479e-06
0.000546889
0.0283721
3.34483e-06
0.0212272
2.88303e-06
2.42459e-06
3.04848e-06
0.0123491
5.53649e-06
0.0275869
2.40054e-06
8.43171e-06
2.25017e-06
2.39986e-06
0.0173116
2.36195e-06
3.27447e-06
3.43792e-06
0.0132081
0.0149643
0.0298507
0.0278799
0.0330683
1.0747e-05
0.0191385
0.0158243
4.10507e-06
0.00059671
0.00558791
2.0307e-06
0.177902
2.84974e-05
0.031481
2.44376e-06
0.000120014
4.85638e-06
2.4897e-06
2.13856e-06
0.0156759
1.35097e-05
1.79379e-06
0.135927
0.0924685
3.02736e-06
2.16001e-06
0.0332167
0.012333
2.31248e-06
0.012637
1.80753e-06
8.07965e-06
1.13364e-05
1.79722e-06
0.00572408
0.0580223
1.96521e-06
7.19542e-06
0.047758
3.24382e-06
6.80499e-06
0.00294091
0.0763385
1.93145e-06
3.39761e-06
0.0316255
0.0360588
3.53428e-06
0.0181166
2.17789e-06
0.00036096
5.3052e-06
0.016076
3.51178e-06
3.26806e-06
2.74137e-06
3.10807e-06
2.3095e-06
0.060299
0.0289127
0.00130664
8.73495e-06
3.20422e-06
2.40877e-06
2.20994e-06
0.000211373
2.11098e-06
0.000691627
0.0280203
0.0285732
2.41143e-06
0.0142812
3.4836e-06
2.23318e-06
0.0198203
2.19976e-06
2.41206e-06
2.25719e-05
1.96155e-06
4.15451e-06
2.88237e-06
0.0156581
5.8761e-05
2.38558e-06
1.79351e-06
0.00959138
0.00603142
2.43578e-06
2.41992e-06
6.45288e-06
0.0271305
4.18908e-06
3.64991e-06
2.75727e-06
1.96402e-06
0.0615086
3.50369e-06
1.29614e-05
0.0204178
2.17833e-06
0.0306857
3.27628e-06
1.93109e-06
3.00458e-06
0.042293
8.30728e-06
0.0250851
0.0336804
0.00753912
1.79088e-06
0.0154351
0.000640097
2.2667e-06
6.53858e-06
5.37424e-06
0.00969035
2.24201e-06
0.00190853
1.94559e-06
0.0979202
1.84048e-06
0.0163306
0.0562488
4.69339e-06
2.23339e-06
3.38314e-06
1.7753e-06
2.81015e-06
2.10973e-06
2.29156e-06
2.17767e-06
3.43499e-06
0.017722
0.0354647
2.14619e-06
0.011956
0.0202123
0.00979765
0.011056
1.9301e-06
0.00472913
3.08255e-06
0.0243507
3.43831e-06
0.00482015
0.000394886
0.0100237
2.57974e-06
2.31287e-06
1.99914e-06
2.15786e-06
3.0895e-06
0.0104199
1.76027e-06
0.00948915
0.0113782
2.34168e-06
2.84577e-06
1.30596e-05
2.42002e-06
2.1495e-06
2.22655e-06
3.29493e-06
1.14428e-05
0.04743
0.0193919
2.10069e-06
2.33226e-06
0.0107023
2.38439e-06
0.0136572
1.7055e-06
8.46851e-06
0.0123172
0.00997827
0.246806
2.89647e-06
0.015248
2.18062e-06
1.68078e-06
0.0150873
0.0293255
1.86138e-06
2.79285e-06
0.0103878
0.0368458
5.23702e-06
0.0214544
2.42805e-06
2.88515e-06
2.37235e-06
0.0232353
4.165e-06
1.74452e-06
1.89657e-06
2.89468e-06
2.20372e-06
2.60646e-06
7.18795e-06
2.87803e-06
2.98528e-06
2.77193e-06
0.0027388
0.00012922
2.62879e-06
3.39138e-06
4.44339e-06
2.96313e-06
5.65609e-05
7.03779e-05
2.49758e-06
0.0159265
2.37247e-06
0.232877
2.68725e-06
0.00301451
0.0345694
2.20633e-06
6.11701e-05
0.00214405
3.78314e-06
5.45991e-06
2.78687e-06
2.11293e-06
0.0317979
2.32306e-06
0.00928028
2.16196e-06
0.04738
3.93455e-06
1.96509e-06
1.73706e-06
1.86371e-06
0.0610207
2.53011e-06
6.9777e-06
0.0148614
0.0418771
0.00989056
1.90339e-06
0.0199819
2.34967e-06
0.0340826
3.08073e-06
7.01453e-06
2.30157e-06
2.50538e-06
0.0399816
0.0339206
2.5308e-06
0.0133552
3.6871e-06
0.000177451
2.40876e-06
0.0130316
0.0757336
0.0149247
0.000208685
1.79024e-06
2.85389e-06
1.75516e-06
0.0340073
3.0172e-06
2.5329e-06
1.95843e-06
4.84527e-06
0.000836678
0.0185736
9.51958e-05
0.0072654
0.0297557
7.13399e-06
0.00220619
7.20972e-06
0.0123183
0.014072
3.1448e-06
0.011525
0.0129285
0.00108297
5.90822e-06
1.92541e-06
9.96221e-06
0.00274481
2.78725e-06
0.00759241
3.02025e-06
1.89823e-06
2.21903e-06
0.0141208
0.0097931
2.15857e-06
3.37752e-06
2.95876e-06
0.0148636
0.0184219
3.52891e-06
0.0187263
0.0187463
2.43071e-06
4.44121e-05
0.0333814
6.13335e-05
2.495e-06
1.93913e-06
5.87028e-06
0.169147
0.0371973
2.2327e-06
1.89465e-06
1.96086e-06
2.29011e-06
2.47318e-06
3.73762e-06
0.000827851
5.81719e-06
0.00129184
2.55535e-06
0.0168359
2.0548e-06
1.9382e-06
0.000155751
2.87082e-06
2.11631e-06
1.90288e-06
2.25433e-06
8.67933e-06
2.26184e-06
1.87848e-06
0.0101358
3.19862e-06
0.0240899
2.88381e-05
1.78252e-06
0.0392818
2.05283e-06
3.33989e-06
2.58191e-06
4.97161e-06
1.32227e-05
6.7077e-06
2.46306e-06
0.000227445
3.58121e-06
1.74012e-06
0.0239713
0.251145
0.00952914
0.0146456
2.40106e-06
3.65761e-06
0.000884458
2.0563e-06
0.000126138
2.13392e-06
3.53801e-06
0.00893095
6.73509e-06
0.0632535
0.00180368
2.86343e-06
5.67767e-06
2.36152e-06
2.26738e-06
2.2558e-06
2.13038e-06
1.99806e-06
2.39477e-06
0.0203484
2.03415e-06
0.0228017
0.000716812
0.045471
0.0371548
2.83884e-06
2.85304e-06
0.218402
3.37675e-06
1.90968e-06
3.5134e-06
0.0111787
2.79357e-06
0.0140182
0.00788247
2.63657e-06
3.57807e-06
3.53974e-06
0.00427165
0.000138908
2.14366e-06
8.86825e-05
2.54545e-06
2.19564e-06
0.0270352
4.16086e-06
2.76153e-06
4.72621e-06
2.46653e-06
2.86682e-06
1.77351e-06
2.93346e-06
0.0195735
1.87784e-06
2.45238e-06
2.78627e-06
8.29545e-05
2.61163e-06
0.0146403
0.0252013
4.04495e-06
3.20112e-06
0.0178017
3.57344e-06
0.00227446
1.957e-06
2.69932e-06
2.58419e-06
2.13412e-06
2.21481e-06
1.91075e-06
1.84415e-06
3.08822e-06
1.87979e-06
1.8669e-06
1.80754e-06
1.97593e-06
2.95238e-06
2.98712e-06
1.70633e-06
5.55331e-06
0.00643672
0.0216554
2.17645e-06
2.50102e-06
2.716e-06
2.38542e-06
2.35555e-06
2.30365e-06
2.04476e-06
7.00568e-05
0.0099828
2.06553e-06
0.0184705
1.91149e-06
0.000183288
2.2086e-06
0.0474806
2.24286e-06
0.0250411
3.24313e-06
2.36119e-05
2.25836e-06
0.0135698
0.0345046
2.41147e-06
2.2421e-06
2.31472e-06
2.43792e-06
2.84819e-06
2.18979e-06
2.96399e-06
0.0231089
0.0211183
2.16045e-06
0.000117899
0.00884276
0.00700408
0.0139173
1.74787e-06
3.55692e-06
2.1155e-06
1.76107e-05
2.13623e-06
1.93957e-06
1.02234e-05
2.04358e-06
2.30249e-06
0.0725793
1.98057e-06
6.66676e-06
1.77073e-06
2.01535e-06
4.07447e-06
0.00151719
0.0240102
0.00177346
1.98618e-05
0.0882766
0.0539049
0.0154381
2.69019e-06
3.03887e-06
3.03581e-06
0.01959
1.72091e-06
2.41683e-06
2.41337e-06
2.37349e-06
0.00458144
1.83186e-06
2.73071e-06
0.000109672
3.5033e-06
1.99884e-06
2.37008e-06
0.026667
1.95178e-06
1.87596e-06
2.4111e-06
1.92754e-06
0.00769933
1.81479e-06
2.18526e-06
2.51594e-06
2.90904e-06
2.22688e-06
1.89782e-06
2.48932e-06
9.02096e-06
0.0472494
0.0816095
0.0447359
2.00793e-06
0.0278347
2.46695e-06
3.32494e-06
2.45851e-06
2.52452e-06
2.60286e-06
2.41289e-06
2.86724e-06
0.0291038
2.0748e-06
2.16972e-06
1.73069e-06
0.027174
2.42119e-06
1.85921e-06
2.6229e-06
0.00945248
0.0358561
0.000158453
0.0217086
2.82054e-05
3.0135e-06
0.0120785
2.35503e-06
2.34674e-06
1.90043e-06
2.30917e-06
4.22511e-06
0.0227539
0.000146202
0.00371963
2.38917e-06
2.16751e-06
0.000345755
2.00715e-06
3.7199e-06
1.92574e-06
1.72316e-06
2.87567e-06
0.0548926
3.39039e-06
2.64185e-06
2.53471e-06
2.39872e-06
0.017057
3.31649e-06
0.00105626
4.09562e-06
0.0124775
1.83521e-06
2.47859e-06
0.105937
2.56274e-05
0.184204
3.06817e-05
1.85875e-06
1.03708e-05
0.000250239
0.00148755
0.111123
2.38665e-06
2.38456e-06
3.86451e-05
0.0169107
2.15168e-06
0.0572965
1.70506e-06
2.19176e-06
0.00547334
0.0179102
2.72717e-06
0.0454369
2.91343e-06
0.000132099
2.11172e-06
0.000668001
0.000103715
2.29654e-06
4.55864e-05
0.0156383
1.71604e-06
0.107719
1.91711e-06
2.10536e-06
2.48245e-06
2.41369e-06
1.84991e-06
0.0136636
6.92875e-05
0.012835
0.00529058
3.07655e-06
0.0333889
2.19977e-06
2.77547e-06
1.53421e-05
2.56877e-06
2.85844e-06
5.20583e-06
0.0358875
1.76934e-06
9.35411e-06
0.0729074
2.04164e-06
1.68505e-06
1.79026e-06
0.00565454
2.32698e-06
3.019e-05
2.56406e-06
2.38955e-06
2.5491e-06
0.0874618
2.80929e-06
6.74758e-05
2.20037e-06
1.79413e-06
2.38652e-06
0.0931281
0.015734
1.08499e-05
5.65859e-06
0.192189
2.19409e-06
0.0621897
3.4752e-06
3.03742e-06
2.38964e-06
4.72249e-05