/*--------------------------------*- C++ -*----------------------------------*\
| =========                 |                                                 |
| \\      /  F ield         | OpenFOAM: The Open Source CFD Toolbox           |
|  \\    /   O peration     | Version:  v2012                                 |
|   \\  /    A nd           | Website:  www.openfoam.com                      |
|    \\/     M anipulation  |                                                 |
\*---------------------------------------------------------------------------*/
FoamFile
{
    version     2.0;
    format      ascii;
    class       surfaceScalarField;
    location    "350";
    object      phi_0;
}
// * * * * * * * * * * * * * * * * * * * * * * * * * * * * * * * * * * * * * //

dimensions      [0 3 -1 0 0 0 0];
oriented        oriented;


internalField   nonuniform List<scalar> 
20823
(
0.723977
-0.255344
-0.468633
-0.0211134
0.0662218
-0.0451084
0.495453
-0.602836
0.107383
0.0267471
0.138637
-0.165384
0.115893
-0.141247
0.0253537
-0.0527151
0.161529
-0.108814
0.151206
0.0583209
-0.209527
0.0129028
-0.0136217
0.000718874
0.398841
-0.309244
-0.0895971
-0.466971
0.43717
0.0298016
-0.0108998
-0.0832835
0.0941833
-0.000584933
0.00794138
-0.00735645
-0.00220645
0.0460898
-0.0438833
0.48353
0.0543545
-0.537884
-0.0972869
0.246326
-0.149039
0.0109381
-0.47791
0.281075
-0.556841
0.275766
0.101919
-0.137158
0.0352398
0.00560592
-0.0022762
-0.00332972
0.477229
0.175877
-0.653106
0.06622
-0.258776
0.192556
0.00318018
0.000234426
-0.00341461
-0.00634567
-0.0161322
0.0224778
-0.210971
0.188304
0.0226663
0.00165954
0.00101653
-0.00267607
-0.123469
0.275334
-0.151865
0.118257
-0.160393
0.0421364
-0.0346662
0.423826
-0.38916
0.0189426
-0.00322528
-0.0157174
-0.0676385
0.0608615
0.00677699
0.318977
0.405
-0.421299
-0.0670218
0.48832
-0.278541
0.128225
0.150315
0.00105486
0.00455106
-0.381359
0.31782
0.0635387
-0.336023
-0.000778564
0.336801
0.106489
-0.229958
-0.0747389
0.551968
0.185116
0.0846253
-0.269741
0.253613
-0.0165803
-0.237033
0.00722169
-0.155511
0.148289
0.204353
-0.240268
0.0359145
0.00115326
-0.00478376
0.0036305
0.0107459
0.000878078
-0.011624
0.318875
-0.397461
0.0785861
-0.00111822
0.00277775
-0.203664
0.269884
0.00355946
0.200794
-0.0306633
0.148528
-0.117865
0.00738858
-0.00764839
0.000259812
-0.0723531
0.09516
-0.0228069
0.155262
-0.0462404
-0.109022
-0.000275688
0.00711343
-0.00683775
-0.00268137
-0.00332597
0.00600734
0.164475
-0.113706
-0.0507694
0.250672
0.00294095
0.0273287
-0.0277738
0.00044513
-0.37287
0.338204
0.0736666
0.133881
-0.207548
0.359795
-0.273349
-0.0864459
-0.115415
0.0847513
0.094156
-0.292804
0.198648
-0.0362075
0.0142552
0.0219523
0.329423
-0.203122
-0.126301
-0.34184
0.0946649
0.247175
0.0660457
0.0273633
-0.093409
0.0796304
-0.0970132
0.0173828
0.126121
-0.0242027
0.414388
-0.52915
0.114762
-0.335234
-0.0461247
0.2302
-0.16175
-0.0684502
-0.384455
0.351306
0.03315
0.0316049
-0.0379506
0.0192643
-0.0217306
0.00246629
0.0983628
-0.0187324
0.0249512
-0.360974
0.0135574
-0.0859105
0.319319
-0.377186
0.0578672
-0.397216
0.0147139
0.382502
-0.0232931
0.14155
0.177206
-0.130592
-0.0466137
0.00116372
-0.00163074
0.000467017
-0.00206487
0.00321813
-0.00105015
-0.00238766
0.00343781
-0.045364
0.309079
-0.263715
-0.167685
0.261841
0.122273
-0.21956
-0.215686
0.496761
0.000260866
0.141396
-0.141657
0.00101761
-0.00137852
0.000360917
0.248263
-0.307555
0.0592916
0.0936623
0.249328
-0.34299
-0.110847
0.00287558
0.107971
-0.0132541
0.0132541
0.0127718
-0.0134834
0.000711577
0.0204147
-0.136747
0.116332
-0.0865918
-0.255248
0.0985884
-0.0325426
0.017285
-0.0146183
-0.00266671
0.559001
-0.257256
-0.301745
-0.215052
0.149939
0.0651123
7.56921e-05
0.0106702
-0.312334
0.10622
0.206114
0.610518
-0.115065
-0.000712331
-0.000350836
0.00106317
0.0019786
0.0885198
-0.0904984
0.0563012
0.0976752
-0.153976
-0.027707
-0.0140491
0.0417562
-0.115496
0.115757
0.0123298
0.00693449
-0.343981
0.455552
-0.111571
-0.419966
0.460033
-0.0400671
-0.0645781
0.446892
-0.382314
-0.0103235
0.0100478
-0.474256
0.409678
0.00634551
-0.00739566
0.0111406
-0.0119103
0.00076967
-0.209922
-0.102412
-0.108722
-0.00313708
0.111859
0.019309
-0.0221592
0.00285024
-0.31174
0.251302
0.0604377
-0.0207185
-0.0328963
0.302642
-0.183234
-0.119408
0.0648494
-0.484815
-0.0193019
-0.00242863
-0.0502253
0.201431
0.00344837
0.0254831
-0.0289314
0.112664
0.00454285
-0.117207
0.475159
0.00837028
-0.0495184
-0.165533
-0.041694
0.00691964
0.0347744
0.156436
-0.149388
-0.00704859
-0.140246
0.0248317
0.00920045
0.00137794
-0.0105784
-0.111527
0.113312
-0.00178505
-0.445219
0.499573
0.0131861
-0.000157478
-0.0130287
-0.0046694
0.00198803
-0.156857
-0.0214381
0.178295
0.126005
-0.12199
-0.00401495
0.00275615
-0.0909536
0.0881974
-0.0209201
0.0188504
0.00206961
0.0398285
0.126057
-0.165886
-0.0469112
0.0192042
0.0655165
-0.462733
0.615055
-0.604305
-0.01075
0.00414309
-0.00689054
0.00274745
-0.0081377
0.100943
-0.0928052
0.267477
-0.522822
-0.15522
0.097114
0.0581057
-0.282375
-0.266566
0.548941
-0.130712
0.02199
0.293014
-0.107898
0.0228971
-0.0436156
0.0191879
0.08331
-0.102498
-0.0534289
-0.331027
-0.00214091
0.00323637
-0.00109546
-0.176025
0.542378
-0.366353
-0.157601
-0.070255
0.227856
-0.080294
0.0948053
-0.0145113
0.000845818
0.012057
0.0325446
-0.114956
0.0824113
0.283507
-0.155071
-0.128436
-0.0575973
-0.153373
0.000802954
-0.00542552
0.00462257
0.19496
-0.290364
0.095404
0.0235235
-0.0111937
-0.096252
0.208389
-0.112137
0.0130952
-0.0019546
0.395527
-0.303916
-0.0916108
0.0148979
-0.126425
-0.0475237
0.244928
-0.197405
-0.0343493
-0.12087
-0.0943448
0.114759
-0.108484
0.164785
0.0513366
0.0920449
-0.143381
0.292255
0.190076
-0.482331
-0.568129
0.446232
0.121897
0.0815318
-0.52675
0.00791378
0.0110289
0.0306851
0.0416088
-0.0722939
0.133456
-0.00745062
-0.512302
0.297419
0.214882
0.0223745
-0.00306554
-0.538293
-0.0261794
0.564472
0.264011
-0.0157473
-0.269497
0.224133
-0.537585
0.426985
0.110601
0.00814239
-0.00399931
0.00883893
0.0999554
-0.108794
0.104116
-0.121298
0.0171816
-0.285022
-0.0267179
-0.0271932
0.00446726
0.0227259
-0.25546
0.349122
0.115688
-0.273289
-0.0067302
-0.0583306
0.345011
-0.286681
-0.0305454
0.0283389
-0.0430491
0.120974
-0.0779247
-0.467471
0.390891
0.0765793
-0.017809
0.0212574
0.325009
-0.415167
0.0901587
0.118464
-0.13037
0.0119058
0.221204
0.177637
-0.00508844
-0.0167591
0.0218475
-0.0540093
-0.0136292
0.34427
-0.334732
0.296274
0.0384578
-0.0021764
-0.0187437
-0.0330455
-0.00864845
-0.14029
0.180118
0.41607
-0.329717
-0.0863524
-0.0836383
0.111002
-0.0821325
0.401007
0.288919
-0.215889
-0.0730306
0.239486
-0.297817
-0.123749
0.112072
0.0116769
-0.103134
0.105112
-0.0146546
-0.0876694
0.102324
0.284074
-0.238457
-0.0456167
0.00709119
0.000297384
-0.00264132
0.00365785
0.301353
0.257648
-0.133747
0.177084
-0.0433374
-0.308505
0.610536
-0.302031
-0.117955
0.108716
0.00923967
0.0745407
-0.00602825
-0.0685125
0.04789
0.236184
-0.00117207
0.0103725
0.276099
-0.0650657
-0.211033
-0.427709
0.273729
0.15398
0.155575
0.173848
-0.103518
0.106274
-0.00637054
-0.0233418
0.0297124
0.293515
-0.0985553
-0.039272
0.515722
-0.47645
-0.0309264
0.0281963
0.00273011
-0.262631
-0.165078
-0.239389
-0.0707054
0.310095
0.107233
-0.22642
0.119187
-0.16772
0.339914
-0.172195
0.10803
-0.116168
0.0764712
-0.186543
0.110072
0.0123962
0.000789967
-0.194494
0.14697
0.0858257
-0.00306461
-0.0827611
-0.273742
-0.238559
0.000146035
-0.0120014
0.0118554
-0.00932581
0.196024
-0.262127
0.0661022
-0.000665695
-0.107408
0.108073
0.0180688
0.0307864
0.35163
-0.382416
-0.111154
-0.0125949
-0.157062
0.25341
-0.0963483
-0.103648
0.122836
-0.546475
0.51341
0.0330645
0.116534
0.0019304
-0.583388
0.59955
-0.0161619
-0.012044
-0.0252613
0.0373053
-0.0228049
-0.51478
0.00865231
-0.00923724
0.683632
-0.464
-0.219631
-0.26392
0.367908
-0.103988
0.52666
-0.112272
0.388555
-0.0531447
-0.335411
0.141856
-0.133017
-0.110251
0.111531
-0.00128078
-0.173093
-0.0494343
0.222527
0.140083
-0.132861
0.174922
-0.308692
0.13377
-0.0180268
-0.449444
-0.0721711
0.104716
0.0905652
-0.119436
0.0288712
0.0765255
-0.119575
0.37062
0.112882
-0.483502
0.315113
0.295405
-0.37185
-0.124967
0.496817
-0.00793292
0.0121832
-0.0042503
-0.00922582
-0.374876
0.550753
-0.27574
0.374986
-0.099246
-0.00554519
-0.0253812
-0.000716579
-0.0058443
0.00656088
0.514558
-0.16186
-0.352698
0.024006
-0.0268721
0.00286606
0.202954
-0.0957205
-0.140041
0.166788
0.403928
-0.311984
-0.0919447
0.215353
-0.105477
-0.109876
0.200225
-0.575101
0.13123
0.0240323
-0.0990033
0.469624
0.033768
-0.033801
3.30158e-05
0.222832
-0.203427
-0.0194051
-0.094115
0.0789701
0.0151449
0.117436
-0.0268707
-0.170645
0.0137886
0.0371063
-0.0495781
0.0124718
-0.0508946
0.0815797
-0.114071
0.00512446
0.108947
-0.00673465
0.00957395
-0.00283929
0.0799909
-0.176243
-0.196542
0.279994
-0.0834518
-0.00140107
0.0254071
-0.0969593
-0.391773
0.488732
-0.177021
0.0432738
-0.175395
0.127797
0.0475988
-0.0824645
-0.0724054
0.15487
-0.487273
0.143292
-0.0224574
-0.109301
0.131758
-0.0111742
-0.103782
-0.515816
0.143966
-0.0163557
0.00477106
0.0115847
-0.00116014
0.00232387
-0.0115043
0.0575941
-0.166647
0.0841821
0.462796
0.170718
-0.633513
0.0113723
0.00139949
-0.207501
0.0369713
0.17053
0.090998
0.185101
0.0837888
0.088808
-0.172597
-0.29879
0.125697
-0.0499049
0.404837
-0.354932
0.199729
0.0891908
0.304971
-0.210306
0.0986702
-0.184035
0.0853652
0.107402
0.398134
-0.505536
-0.131596
0.452681
-0.321086
0.0207987
-0.0258871
0.0142877
0.00494118
-0.0192289
0.0530088
-0.387741
-0.451812
-0.094663
-0.0132617
-0.00075237
0.0140141
-0.299432
0.0683964
0.231036
-0.520183
-0.0181095
-0.408224
-0.177747
0.585972
-0.16248
0.254872
-0.0923915
-0.0604471
0.0625884
-0.00214127
-0.361163
0.193443
0.0017087
-0.0143929
0.0126842
-0.000655341
0.00167295
0.135648
0.166994
-0.000449583
0.000962828
-0.000513245
0.23156
0.0734102
0.0663867
-0.119102
0.0100979
-0.165609
0.177444
0.0978907
-0.0111941
-0.0386197
0.0498139
0.438783
-0.407996
0.000105938
-0.00145413
0.00134819
-0.0872463
-0.0647474
0.151994
-0.325299
0.390816
-0.119707
-0.00337847
0.123086
-0.0992338
0.348562
-0.262839
0.105778
-0.395248
0.325188
0.0700604
0.0821744
-0.0930742
-0.0145773
0.000480588
0.0140967
-0.014365
-0.020325
0.03469
0.30695
0.0631344
-0.370085
0.0372076
-0.0492517
0.334006
-0.0404912
-0.110575
0.0944982
0.0160766
0.310537
0.373095
-0.0323912
0.333745
0.0201656
-0.139873
0.00884391
0.453952
-0.0112141
0.00328119
0.0531228
-0.0160165
-0.024556
0.0330722
-0.00851622
-0.400598
0.124858
-0.19151
0.276135
0.146117
0.0692357
0.327724
-0.377629
0.0789753
0.00685042
0.00862031
-0.109055
0.100435
0.339046
-0.106457
-0.232589
-0.00183998
0.0013904
0.172001
-0.0733303
0.336937
-0.369328
-0.484982
0.308957
-0.0825163
0.142187
-0.260786
0.1186
0.00212587
-0.00886052
-0.0885861
0.00184255
0.0867435
0.106327
-0.120981
-0.13377
0.134888
-0.00111841
0.513141
-0.151332
-0.361808
-0.012783
0.0402159
-0.0274329
-0.00570238
0.00907394
-0.00337156
0.247009
-0.255246
0.00823702
-0.101735
0.0986706
0.374015
-0.50873
0.134716
0.017314
-0.148863
0.131549
-0.0753777
0.0734333
0.00194437
0.00319631
-0.00391288
-0.13746
0.111327
0.0261332
0.0161969
0.0153992
-0.0315961
-0.310023
-0.384316
0.491718
-0.00271534
0.000574422
0.689218
-0.291434
-0.397784
-0.0850531
-0.0166821
0.0317049
-0.0261506
-0.00555428
-0.0706646
0.100393
-0.0297287
0.352842
-0.218753
-0.13409
0.0659003
0.121896
-0.187797
0.00521631
0.026285
-0.0315013
-0.376511
0.112591
-0.0254562
0.247825
0.086181
0.118245
-0.0473154
-0.0709294
0.322776
0.247858
-0.570634
0.00174032
0.0155447
0.0218656
-0.0180062
-0.00385941
0.277481
-0.102559
0.232085
0.0748743
-0.30696
-0.0968572
-0.0137176
0.0874887
0.0951318
-0.18262
0.275022
0.0367535
-0.311775
-0.00682383
0.000226303
0.00659753
0.00140036
-0.00175104
0.000350684
0.0691392
-0.304461
-0.00017908
0.014487
-0.014308
0.00684722
0.000243973
-0.110166
0.059271
-0.216797
-0.0907578
0.338224
-0.55391
0.420749
-0.0128507
-0.407898
0.00641635
0.386634
-0.39305
0.0164429
-0.0339694
0.0175265
-0.0672915
-0.164876
0.232167
-0.0894257
-0.0115118
-0.0156814
-0.0551754
-0.00527174
0.146626
-0.0952897
0.106952
-0.107617
0.232615
0.0510413
-0.283657
-0.0192801
-0.00434892
0.023629
-0.0390981
0.0733211
-0.034223
-0.546038
0.137814
0.00211766
-0.00201172
0.0167742
0.0977167
-0.114491
-0.0105951
-0.00127772
0.0118728
-0.0837209
0.111009
-0.0272879
0.000502508
-0.0890886
0.0830763
-0.322466
-0.0114141
0.0102934
0.00112068
-0.0612931
0.336315
0.00341654
0.0184491
-0.163621
-0.0789464
0.242567
0.00214886
-0.000748498
-0.012861
-0.0468631
0.0597242
-0.597123
0.288618
0.0206133
-0.00632556
0.162028
0.197766
-0.063345
0.0422316
-0.0152445
0.00608224
0.00916225
0.0407961
-0.0519902
-0.000453009
-0.0103671
0.0108201
-0.0824786
-0.0116364
-0.0266226
-0.00355188
0.0301745
-0.0107742
-0.0185795
-0.0930936
0.378017
-0.00483136
-0.0118531
0.0166844
-0.0386051
-0.134434
0.0471878
0.520943
-0.414466
-0.106477
0.0167739
-0.100495
-0.0404641
0.209028
-0.168564
0.311529
-0.078914
0.00300438
0.0715364
-0.0294077
-0.104362
0.248938
-0.00192976
0.167648
-0.00481214
-0.162836
-0.0962958
0.0331506
0.0631452
0.0932829
-0.0872375
-0.00604537
0.0335879
-0.047953
0.170513
-0.094042
0.0344476
-0.000679594
-0.0231101
0.0283264
0.106408
-0.268888
-0.00885931
0.010568
0.365741
-0.480776
0.115035
0.365088
0.155855
0.0885284
0.0297164
-0.210544
0.548768
-0.128863
0.119415
0.00944851
-0.0730978
0.00745083
0.065647
0.511697
0.150046
-0.661744
0.316919
0.035923
0.18122
0.0416123
-0.025633
0.0748523
-0.0492193
0.402722
-0.167554
0.0353488
0.132205
0.523969
-0.158227
0.00540885
-0.345248
0.33984
-0.412005
0.0769637
0.335041
-0.546635
0.321628
0.225006
0.111437
0.00445603
0.105361
-0.00996107
-0.0654167
-0.0801169
0.0398557
0.0402612
0.121796
0.039733
0.475287
-0.514559
0.00395491
-0.00077473
-0.0136412
0.0205082
-0.00686698
0.00157368
-0.297985
-0.24865
0.153187
-0.14464
-0.00854693
0.129017
0.0241702
-0.194385
-0.408053
0.354624
-0.0433829
0.305337
-0.261954
0.0290972
-0.0354678
0.103191
-0.0884898
-0.0147014
-0.015363
0.000744718
-0.247368
0.338038
-0.0906698
0.172642
-0.0989757
0.00171569
-0.00206115
0.000345455
-0.0661126
0.153601
0.122078
-0.104846
-0.0172323
-0.110509
0.0398441
-0.493082
0.42606
0.115974
-0.117116
0.00114205
0.005859
-0.00672535
0.000866342
-0.179973
-0.000853034
0.180826
0.00344935
-0.0927249
0.0892756
-0.105784
0.116175
-0.0103909
-0.00605762
-0.000766207
-0.0720911
-0.120364
0.204153
0.0148949
-0.101549
0.0866545
0.113831
-0.105211
-0.170391
0.240666
-0.0702754
0.016992
-0.0218234
0.00101523
-0.00340288
0.210174
-0.127997
-0.0821774
0.515696
-0.00399859
-0.103841
0.0108058
0.0930357
0.00296489
-0.0417261
0.0387612
-0.0183587
0.0292903
-0.0109316
0.000464152
0.000533534
-0.000997686
-0.378589
-0.189541
-0.232677
0.0690565
0.0040316
0.0372812
-0.0413128
-0.204212
0.0242394
0.408776
0.280442
0.0877492
-0.0162658
-0.0714834
-0.182343
-0.0503338
0.00513579
-0.00465526
-0.000480526
0.0276722
-0.00421648
0.333724
-0.517828
0.184104
-0.00651289
-0.00873159
0.10751
0.107116
-0.214626
-0.215914
0.17545
0.0255708
0.449717
0.172885
-0.391637
0.00443269
-0.00435759
-7.51031e-05
-0.126603
0.0681189
0.0196304
0.261654
-0.119468
0.032543
-0.045326
0.340072
0.250762
-0.590835
-0.00539663
-0.0278094
0.033206
0.0882916
0.141908
-0.00813553
0.0054942
0.00637391
-0.020549
0.014175
-0.214197
0.305195
0.0373992
-0.0357909
-0.00160834
0.00822984
-0.334642
-0.00446665
0.000496289
0.00397036
0.0273538
-0.0243889
0.313029
-0.523573
0.00711724
-0.00631428
0.114308
0.0835628
-0.197871
0.00520927
-0.255647
0.175734
-0.169761
0.420895
-0.251135
-0.0236366
0.00435645
0.0529236
0.111551
0.345036
-0.100126
-0.24491
-0.121913
0.0994554
-0.0167589
0.0216459
-0.00488706
0.011283
0.0549388
0.51079
0.230147
0.114889
-0.107823
0.113135
-0.00531285
-0.147381
0.00274071
0.0287216
-0.00139291
0.129124
0.148718
-0.146557
-0.00216089
0.107656
0.00851823
-0.00600326
-0.10592
0.111923
-0.0684702
-0.0686882
0.168927
-0.354838
0.185911
0.0112025
-0.0114458
0.00024331
-0.0483101
-0.00829366
0.0566038
0.158539
-0.141225
-0.00799382
-0.0219629
0.0299567
-0.0267211
0.406689
-0.379968
-0.152624
0.128228
0.0243958
0.0576029
-0.239946
0.0124391
-0.120262
0.202324
0.321644
0.00879834
-0.0710343
-0.22548
0.296515
-0.00235007
0.190654
-0.242712
0.534967
0.0723952
-0.346137
0.511361
-0.177637
-0.0682507
-0.0531056
0.121356
0.0385246
0.0780762
-0.146327
-0.0582785
0.113727
-0.00609922
-0.107628
0.0543998
-0.063874
0.00947416
0.0313279
-0.0367245
0.00812432
-0.00127711
0.00234121
-0.00062552
0.201206
0.0785769
-0.279783
-0.00633798
0.0271367
0.0368794
0.000519821
-0.00331272
-0.0249154
0.0282281
-0.0591301
-0.126063
0.185193
0.00546026
-0.000324469
-0.426408
0.596348
-0.16994
-0.148729
0.256239
-0.292637
0.43257
-0.139933
0.00211079
-0.0153725
0.238909
-0.134872
-0.104037
-0.000760267
0.000994693
-0.441933
0.138293
0.30364
0.0273554
0.0577915
-0.0851469
-0.00126433
0.00614897
-0.00488464
0.0502555
-0.0338936
-0.0163619
-0.289177
-0.0873337
-0.0478254
-0.0191837
0.0670091
0.139023
-0.43166
0.202904
0.192623
0.100997
0.18251
0.523001
0.108222
-0.307437
0.199215
-0.057133
0.466264
-0.409131
0.386835
-0.511018
0.124183
-0.575015
0.29264
-0.295816
0.203698
0.0921185
-0.0144157
0.0552118
0.0229256
0.0907414
-0.113667
0.234168
-0.0740851
-0.035868
0.109953
0.0154167
-0.0090428
0.0478003
-0.296043
-0.203624
0.499667
0.142729
-0.0806846
-0.0620447
0.106017
0.112601
-0.218618
0.0936718
0.102913
-0.196585
0.00374929
-0.100541
-0.017434
0.117975
-0.0857074
0.254635
-0.247135
0.319531
-0.390769
0.364048
0.00414122
0.103515
-0.520054
-0.110576
0.630629
-0.0554338
-0.0547317
0.419844
-0.164755
-0.255089
-0.185093
-0.110724
-0.17
-9.94356e-05
0.1701
0.085915
0.0912906
0.242323
0.270818
-0.0261818
-0.381871
-0.0173086
0.0165563
-0.0113166
0.0108636
-0.004961
-0.0113947
0.00244001
-0.0500913
0.0665342
0.0757663
0.185014
-0.26078
-0.253355
0.0829644
-0.290947
-0.120422
0.411369
6.832e-05
0.00787306
-0.297243
0.487319
0.145684
-0.212976
0.219917
0.0927307
-0.312648
-0.0719291
0.032831
-0.234958
0.547986
0.0218064
-0.0068245
-0.0149819
-0.100452
0.106862
-0.00641048
-0.405375
0.114427
0.0380336
0.118403
-0.323616
0.33833
-0.0939409
-0.0120667
0.000156408
0.0820267
-0.0903506
0.00832388
0.235561
-0.306267
0.0877292
-0.0976512
0.0514897
-0.165195
-0.403238
0.0779386
-0.102002
0.0183641
-0.3095
-0.0341446
0.343645
-0.0231396
-0.0569773
-0.105803
0.0173137
-0.0514372
0.163231
-0.111794
0.263031
-0.193726
-0.0693053
-0.0397101
0.00666458
-0.0541952
0.537238
-0.483043
-0.0136919
-0.00167113
-0.109396
0.00555427
0.0564236
-0.171629
0.115206
0.107459
-0.16884
0.0613808
-0.0423892
-0.0272505
0.00889183
-0.211975
0.138804
-0.0227064
-0.116097
-0.160789
0.0134086
-0.139161
0.022944
0.116217
-0.00101581
0.00030348
0.100485
0.109689
-0.0115138
0.115781
0.300289
0.0692296
-0.0763445
0.0071149
0.490039
-0.377158
0.115164
0.0981371
-0.213302
0.00226487
-0.0026157
0.000462547
0.0145222
-0.0149848
0.0970693
-0.142912
-0.00971222
-0.141802
0.279138
0.347563
-0.368541
0.0209787
0.000425995
0.0107765
0.206764
-0.277799
0.0192843
0.0309712
0.0665113
-0.0121115
0.362373
-0.133459
0.0357355
0.0977237
-0.0128957
0.0129403
-0.113481
0.310106
-0.0487081
-0.105744
0.154452
0.0171351
0.00467128
0.170828
0.0754973
0.000937811
-0.0119442
0.0110064
-0.311341
0.0639732
0.535893
-0.137759
-0.343618
0.0881583
0.136877
0.0084665
-0.145343
-0.109781
0.126555
0.102027
-0.237463
-0.0246633
0.135969
-0.499518
-0.0838701
0.0351041
-0.0310725
-0.0107668
-0.00129988
-0.0382199
0.124135
-0.054687
-0.349154
-0.39757
0.562045
-0.164475
0.605715
-0.46473
-0.140985
-0.378252
0.0890751
0.0733406
-0.004111
-0.138497
0.232169
0.00873046
0.00436474
0.0100288
-0.433052
0.512828
-0.0797761
-0.0021499
-2.81309e-05
0.00217803
0.0123951
-0.0127426
0.000347478
0.0887872
0.0231727
-0.11196
0.0160823
-0.150514
0.256531
-0.089439
0.111864
-0.0224251
0.0262664
-0.0263323
6.58789e-05
-0.0777899
-0.0192233
0.00202724
-0.0334712
0.0314439
0.349556
-0.00460421
-0.000821312
-0.0309706
0.00319679
-0.273105
0.44599
-0.0180176
-0.005812
0.0238296
0.0312148
-0.122076
0.0908615
0.178125
-0.121701
0.223266
-0.122781
-0.00417552
-0.00141776
0.00559329
0.0022213
0.0328828
0.0421704
-0.172762
0.0198269
-0.133898
0.000647045
-0.000182893
-0.0135284
0.00522744
0.00830098
-0.0206071
-0.00626496
0.167699
-0.270959
0.10326
0.102687
-0.097563
-0.0297727
0.0264599
-0.0442688
0.351219
0.343648
-0.130994
-0.212654
0.0186859
0.339779
-0.103312
-0.452311
0.555623
0.0307038
-0.104789
0.0409997
-0.0344427
-0.00655701
0.119732
-0.00902831
-0.110704
-0.152744
-0.26514
0.417884
-0.232751
0.0323298
-0.00684669
0.0220602
-0.0162087
-0.0058515
-0.0570682
0.0426524
-0.0522556
0.146512
-0.094256
-0.00223454
-0.0121583
0.130715
-0.10779
-0.0277744
0.00716722
0.416533
-0.603161
0.186628
0.0166073
0.0150975
-0.0632518
-0.213268
0.27652
0.320391
-0.41735
0.317326
0.1065
-0.536436
0.440088
0.0963486
-0.499837
0.102267
0.413539
-0.137734
-0.275805
0.20644
0.206762
-0.413202
-0.0976508
-0.00612962
0.10378
0.00457704
-0.11949
0.114913
-0.0154905
-0.00814603
0.0236089
-0.00603338
-0.0175755
0.0703502
-0.379851
-0.137503
0.554036
-0.216981
-0.0744324
0.291413
-0.00744618
-0.0776685
0.00888223
0.0687863
0.00433178
-0.00684178
0.00251
0.116746
-0.178097
0.0613519
0.102015
0.0139596
-0.0929575
-0.0674357
-0.0697574
0.100972
-0.13032
-0.0372336
-0.115277
0.0746523
0.0406248
0.270897
-0.0382022
-0.232694
0.240935
-0.0397291
-0.457903
0.103928
-0.150265
0.0463365
0.135297
0.208351
-0.550675
0.550675
-0.300285
0.115193
-0.0275514
0.227514
0.243914
-0.406978
0.0341078
0.0545882
0.0939402
-0.0260606
0.0259834
7.72601e-05
-0.014782
0.103569
0.00481272
0.0384877
-0.0322249
-0.00626278
-0.00471843
0.143522
-0.0716942
-0.00597433
0.262354
0.15749
0.265596
-0.469221
-0.304807
0.0880096
0.00520878
0.0059485
0.132722
0.0100071
0.0205041
0.00310485
-0.496099
0.111802
0.384297
-0.152374
0.0716893
0.156179
0.290394
-0.446573
-0.224933
0.161136
0.0637969
-0.0140408
0.00262667
-0.28168
0.0395667
0.109151
0.297155
-0.428751
-0.363469
0.210725
0.121872
0.246036
-0.125927
0.191828
0.121794
-0.110988
0.177409
0.160629
0.114082
0.252031
-0.366112
-0.0182429
-0.0484307
0.0666736
-0.00468557
0.118412
-0.169661
-0.000339056
0.154879
-0.10029
0.234219
-0.384884
0.150665
0.0606704
-0.0132446
-0.0474258
-0.297886
-0.0973614
0.104575
0.0280442
-0.132619
-0.0481301
-0.0136328
0.00120972
0.0124231
0.0238561
0.0542149
-0.078071
-0.5524
0.449088
-0.0669075
0.200789
0.00769841
-0.00183941
0.248785
0.0663757
-0.211899
0.145523
-0.0186808
-0.00246137
0.0211422
0.164321
0.256574
0.0108537
-0.036115
0.0286666
-0.0225953
-0.00607121
0.251348
-0.289551
-0.153334
0.12112
0.0322135
-0.090155
0.253709
-0.163554
-0.00842959
0.0174471
-0.00901755
0.160934
-0.0534748
-0.040924
-0.0743531
-0.00920578
-0.152933
0.217315
-0.0643812
0.0295124
-0.0331403
0.00362789
0.225438
-0.159062
-0.338712
-0.0967968
0.435509
0.277757
-0.169535
0.369999
-0.0224361
-0.0366272
0.0286333
0.003237
0.044214
-0.047451
0.0618986
-0.214832
-0.00461515
0.00894693
-0.386048
0.0211208
-0.0049239
-0.175163
0.0437907
0.131372
-0.540143
0.113734
0.122835
-0.188947
-0.299803
0.23193
0.0678731
-0.00646701
0.0072623
-0.000795294
-0.137714
0.00287876
0.134835
0.136001
-0.00477057
0.0597246
-0.00805273
-0.0516719
-0.568978
0.427767
0.141211
-0.0621391
-0.0234434
0.0279369
-0.00449357
-0.122752
-0.148542
0.271294
-0.146875
0.0220113
0.124863
-0.205422
-0.31342
0.518841
0.00260591
0.0454135
-0.0395403
-0.00587319
0.00105202
-0.140213
-0.00914088
0.0100787
0.148473
0.0746661
-0.223139
-0.195874
-0.0649121
-0.00118176
0.107509
0.265243
-0.586714
-0.503193
0.118877
-0.0228566
0.00736606
-0.0115952
0.00741971
-0.526504
-0.0424736
-0.281715
0.318468
-0.0281689
0.132097
-0.0826057
0.421271
-0.338665
0.124385
0.0988818
-0.275476
0.179324
0.0961518
-0.054115
0.0589804
-0.0048654
-0.0681766
-0.0692832
0.322232
-0.209746
0.0771881
0.132558
0.00165731
0.00257241
-0.0996429
0.0970705
-0.388536
-0.122482
0.0684051
-0.301156
-0.0825703
0.282422
-0.199852
-0.0101439
0.0473516
-0.251997
0.161842
0.0883132
0.00618501
-0.373986
-0.0545108
-0.274886
0.329397
0.0176383
0.00173411
-0.0193724
-0.0217597
-0.107104
0.0796598
-0.0802197
0.00055999
-0.136551
0.148415
-0.0118643
-0.497638
0.217644
0.279995
0.0113407
-0.118528
0.107188
0.000242838
-0.448133
-0.320654
-0.295514
0.112279
-0.54892
0.282354
0.124402
-0.0613622
-0.0364189
0.0977811
-0.0698643
0.320609
-0.250744
-0.262063
-0.235576
-0.0745537
0.3176
0.288115
0.466083
0.0762953
0.0945386
0.00421377
-0.0987524
-0.00643811
-0.00932079
-0.153889
0.163209
0.0605901
-0.106831
0.279459
-0.0726948
0.104244
-0.377349
0.0127138
-0.0003187
-0.102827
0.0133879
-0.00810273
-0.109853
0.0754783
-0.304093
0.228614
0.436286
-0.490482
0.226171
-0.0584722
-0.00144265
0.108394
-0.0123837
-0.0907501
0.00350023
-0.0907378
-0.111833
-0.265353
-0.397395
0.253294
0.144101
0.0858644
0.647703
-0.296345
-0.351358
-0.000620329
-0.00113072
0.319218
0.193137
-0.512356
0.00098173
-0.000478626
-0.000503105
-0.0349146
-0.00479552
-0.0124695
-0.00210785
0.114186
0.401536
-0.0971598
0.0357976
0.0883766
-0.0809257
0.0833861
0.0129783
-0.0962619
-0.278588
0.155835
-0.38594
0.0332215
0.352718
0.0359746
-0.00687741
-0.120689
-0.083097
0.203786
0.0985512
-0.0100313
-0.034757
0.014432
0.264249
-0.0326884
0.00560962
-0.127151
-0.386561
-0.0899664
0.296406
-0.00790697
-0.102265
-0.0887754
-0.056169
0.0835245
0.52949
-0.210271
-0.095585
-0.179891
-0.0390527
0.155798
0.093509
-0.214198
-0.0178992
0.112438
0.0614916
-0.185558
0.124066
-0.0352097
0.00140865
0.34978
0.217152
-0.566932
-0.516906
-0.0873988
-0.180706
-0.315393
0.0229941
-0.543048
0.096416
-0.134636
-0.137401
0.0121801
0.125221
-0.00222477
-0.00809875
-0.316663
-0.0887116
-0.00162238
0.00436648
-0.0027441
0.0836676
0.170041
-0.298243
-0.240295
0.538539
0.230434
-0.6426
0.247084
0.395516
0.114558
-0.471829
0.35727
-0.00130696
0.0163506
-0.0150436
-0.0442277
-0.0970192
-0.11543
-0.033958
-0.0890274
0.0198853
0.0691421
0.00857768
-0.0669857
-0.0664736
-0.117799
0.0960587
0.0217401
-0.0164571
0.034886
0.0105275
0.00133699
0.002096
-0.00343299
-0.0166777
0.0144431
-0.00977677
0.0433647
-0.140085
0.201577
0.00369375
0.00417687
-0.0283201
0.0241432
-0.278201
-0.119194
-0.385342
-0.0548175
0.440159
0.50387
-0.139792
-0.364077
-0.0215283
0.0273274
-0.0057991
-0.0157675
-0.0242464
0.0400139
0.0207993
-0.0232607
-0.00872666
-0.0329995
0.156576
-0.241287
0.0847103
-0.106544
-0.00370679
4.99461e-05
-0.0136827
0.113723
-0.16516
0.00404258
-0.00322965
-0.00216047
0.00539013
0.02085
0.0400115
-0.0904715
-0.119275
-0.000222571
0.00321881
-0.146533
0.143315
-0.25272
0.0900446
0.162675
-0.0916014
-0.0103064
0.101908
-0.0325967
0.0564528
0.00631799
-0.00758232
0.00150672
0.00235406
-0.00386078
0.0299635
-0.000451134
0.0044046
0.112583
0.159702
-0.149604
0.0227531
-0.00224901
-0.0220554
-0.00891516
-0.0607714
0.0905069
-0.0297355
-0.511631
0.123095
-0.16273
-0.0654281
0.000502897
0.0649252
0.00598688
-0.0667583
0.32711
-0.244033
0.194496
-0.080188
0.310193
-0.384117
0.0739238
0.0753425
-0.0718931
0.0040911
-0.00310937
-0.0124588
0.100772
0.279236
-0.272819
-0.00343675
-0.00469877
-0.0213779
0.020071
-0.181816
-0.0810231
-0.0609116
-0.00287824
0.0637898
0.013014
-0.022137
0.00912303
0.308661
-0.0890096
-0.219651
0.0349805
-0.0103228
-0.0246577
0.0146013
-0.00923578
-0.00536557
0.273166
0.166433
-0.4396
-0.0159181
0.0216693
-0.00575125
0.0639765
-0.454746
-0.245318
0.204223
0.0410955
-0.2078
0.289625
-0.0818245
0.0167493
-0.00226225
0.013358
0.00719329
0.127172
-0.0158454
0.00341246
-0.00426788
0.000855422
-0.0331037
0.00695316
0.00174522
-0.00217144
0.000426221
0.413039
-0.248718
0.121036
0.0645342
-0.18557
0.226466
-0.300401
0.0739348
0.0892804
-0.405944
-0.260282
0.374364
-0.0396687
0.0691663
-0.260676
-0.25939
0.196138
-0.0032292
-0.0319805
-0.00150319
-0.000646704
0.0736955
-0.290676
-0.0514088
0.539751
-0.488342
0.0204914
0.0144891
-0.28674
0.0785862
0.208154
-0.00179098
0.301213
0.281515
-0.582728
-0.0185603
0.0240794
-0.00551908
-0.155689
0.000867213
-0.00729123
0.00642401
0.118995
0.085527
0.0420146
-0.00473336
0.28267
0.0874723
-0.370142
0.0226303
-0.160344
-0.0146132
0.0203523
-0.00573911
0.00504065
0.0212257
0.0209623
-0.0213442
0.000381889
0.0197188
-0.00208046
0.00332191
-0.000590545
-0.00273136
0.19254
-0.27511
0.283909
-0.397127
0.113217
0.10354
-0.152248
-0.0956602
-0.0784934
0.0259439
-0.021767
-0.072588
-0.237435
-0.117647
-0.374969
0.492616
-0.236271
-0.000543469
0.00373977
-0.448225
0.0628825
-0.00740318
-0.107507
-0.0764596
-0.0248605
0.0253056
-0.0847219
-0.00430553
-0.0243931
0.0633939
-0.591844
0.143711
-0.152635
0.0158881
-0.0250343
0.0166047
-0.365374
0.479932
-0.0233472
0.00404532
0.189892
-0.0222442
0.178254
0.325616
-0.335446
0.0756838
0.259763
0.00647348
0.00812787
-0.00212412
-0.000504612
0.00262873
0.0718663
0.191165
0.0826439
-0.134322
0.416882
-0.4717
-0.124757
-0.012644
0.0443977
-0.0626405
-0.459593
0.11731
0.342283
0.354531
-0.476718
0.122186
0.457398
-0.142286
-0.0111815
0.00795186
-0.00533506
-0.0267912
0.165428
0.0696191
-0.265493
0.108988
0.00844739
-0.0242925
0.147127
-0.0358751
-0.0110361
-0.000491121
0.121734
-0.121243
-0.0209756
0.137692
-0.116716
0.065122
-0.191049
-0.0520996
0.0205235
0.0315761
-0.468026
0.148361
0.319665
0.222937
-0.30122
0.0782827
-0.00957072
0.0183576
-0.00878687
-0.0650125
0.00410087
0.00308356
-0.0396147
0.0365312
-0.0187443
0.0192069
-0.173981
-0.0787383
-0.185381
0.188599
0.00427967
-0.0323615
0.0260235
-0.127074
-0.288093
-0.376043
-0.14414
-0.0131305
0.333901
-0.32077
0.112529
-0.00354063
0.0528405
0.0965498
-0.14939
0.285965
0.353439
0.145192
-0.498631
0.00158525
0.0015703
-0.00315555
-0.0219668
-0.153196
0.0521661
-0.0650272
0.0519685
0.0993923
-0.151361
0.0146528
-0.127959
0.113306
0.0103669
0.564284
-0.421201
-0.143083
-0.171415
0.0547858
0.116629
-0.0443116
0.00743785
0.0368738
-0.263809
0.0700836
0.00404501
0.00983611
0.00234712
-0.295509
0.0700282
0.00380503
-0.235863
-0.28161
0.162203
-0.237413
-0.0695495
0.306963