/*--------------------------------*- C++ -*----------------------------------*\
| =========                 |                                                 |
| \\      /  F ield         | OpenFOAM: The Open Source CFD Toolbox           |
|  \\    /   O peration     | Version:  v2012                                 |
|   \\  /    A nd           | Website:  www.openfoam.com                      |
|    \\/     M anipulation  |                                                 |
\*---------------------------------------------------------------------------*/
FoamFile
{
    version     2.0;
    format      ascii;
    class       volScalarField;
    location    "400";
    object      ReThetat;
}
// * * * * * * * * * * * * * * * * * * * * * * * * * * * * * * * * * * * * * //

dimensions      [0 0 0 0 0 0 0];


internalField   nonuniform List<scalar> 
13917
(
634.384
613.526
40.8301
560.41
565.569
237.661
38.4526
39.9394
32.6466
645.969
421.63
508.819
561.095
32.8235
577.487
595.638
611.079
556.672
503.241
589.414
582.207
37.4381
589.004
42.6151
565.628
39.2684
336.055
324.092
382.738
632.641
638.976
627.186
362.607
406.572
552.21
507.232
589.156
32.9162
541.481
32.2384
596.527
583.184
606.628
315.732
617.976
388.975
541.046
495.515
228.654
592.531
609.85
472.694
225.652
401.789
609.938
633.715
424.826
587.49
632.081
618.048
41.6375
615.416
32.7845
589.478
241.961
147.282
558.312
534.093
447.748
619.558
564.409
33.6892
31.8859
571.689
224.241
494.412
32.2436
624.007
39.5666
583.754
585.914
560.655
245.087
32.9081
36.212
623.122
586.9
250.526
601.035
606.95
32.0542
653.251
611.431
565.569
231.605
242.684
449.047
516.746
447.681
287.022
601.228
367.833
303.594
622.451
606.19
33.9535
435.984
496.013
612.453
637.683
32.2245
32.2667
460.498
33.1365
438.453
227.92
590.431
229.377
31.4688
409.515
583.879
454.621
32.4479
327.964
594.632
566.928
617.474
593.838
605.696
238.121
32.3829
447.696
618.312
582.768
306.889
43.8828
632.715
281.837
559.437
406.176
436.174
609.658
478.805
295.862
534.125
40.1739
420.315
473.012
609.091
622.575
551.354
227.608
451.621
600.152
634.34
46.9206
618.362
185.099
32.2658
312.288
440.362
338.278
585.294
452.665
458.702
447.611
620.758
488.903
614.986
363.94
608.912
32.3912
471.829
607.96
48.9307
591.821
32.4588
228.965
43.0706
604.86
652.582
640.175
610.172
586.93
544.714
42.4381
636.712
49.5165
625.639
432.558
483.762
36.7574
622.087
586.671
276.046
341.702
585.797
612.248
480.47
402.414
564.931
591.802
494.408
540.409
31.9362
479.421
558.301
586.463
517.409
43.2896
493.781
37.683
32.004
436.204
605.589
277.152
517.114
31.9625
593.957
47.6691
605.011
595.276
597.176
32.6801
33.6036
595.851
523.236
635.08
605.027
493.92
474.726
623.83
45.0767
32.0297
601.915
629.021
31.9845
37.3904
584.627
596.11
33.8002
456.16
584.879
390.202
501.129
343.647
635.023
585.481
569.226
32.1009
607.395
648.396
277.34
617.143
586.645
464.479
33.566
457.933
547.394
580.752
584.824
32.3473
41.6908
408.096
604.811
31.824
32.8198
122.552
38.4365
493.011
585.097
595.76
536.615
32.5137
472.035
631.621
345.024
503.181
605.761
69.2858
589.964
46.1859
560.327
585.079
594.414
596.914
338.605
397.903
587.406
612.625
458.336
45.6339
37.9231
593.766
94.3492
572.736
611.635
590.123
419.204
589.45
607.902
633.287
614.6
483.052
622.285
226.489
592.433
653.42
612.712
586.918
32.2835
32.7005
591.583
596.237
83.6242
606.223
31.8651
612.111
32.6382
573.223
638.175
543.818
224.531
454.89
476.315
278.445
597.006
460.868
514.637
591.278
32.9817
278.404
32.8136
408.161
30.2594
631.024
33.5554
281.556
523.329
535.946
38.4155
581.12
612.159
32.2972
544.54
600.796
32.8614
470.869
612.663
424.259
365.919
599.496
31.5183
480.813
590.19
600.172
570.986
609.069
437.354
45.1971
244.85
32.3524
581.804
649.789
39.1805
518.164
36.9069
32.4671
32.9353
602.594
391.854
602.025
57.2864
618.303
222.86
512.149
552.339
580.075
524.919
643.495
509.81
208.348
33.3857
31.9583
571.084
644.367
596.409
37.6486
37.1398
593.363
518.648
569.938
437.549
571.228
581.625
620.486
40.5168
619.021
33.9072
60.1324
422.404
254.91
594.253
277.043
264.626
591.767
445.606
558.615
571.905
632.544
585.028
567.335
601.159
442.11
582.984
30.2912
47.1745
45.2983
648.443
32.5988
31.8916
506.718
583.414
474.292
538.031
629.473
587.1
41.5105
39.992
52.0727
586.802
484.213
416.187
532.619
523.712
613.853
399.064
612.779
589.396
31.8101
32.2642
32.3477
653.07
43.0845
33.073
31.9102
32.4691
604.976
540.339
615.402
584.473
540.02
522.328
595.625
616.712
525.925
32.5554
591.857
465.223
82.5144
581.894
30.3958
582.176
591.345
586.762
615.548
602.079
46.972
247.295
589.94
39.8615
632.061
456.279
31.9278
441.683
437.696
456.482
458.909
638.234
484.262
497.393
419.736
238.768
490.262
476.386
597.504
428.672
623.059
607.897
614.846
624.623
32.5165
33.551
605.927
605.097
48.4065
31.8992
585.036
30.3219
603.069
615.664
605.484
31.8882
267.235
624.746
622.285
33.2485
640.029
36.88
584.86
32.0265
226.966
74.6594
608.174
36.0293
32.6866
529.886
600.674
605.952
506.331
469.087
599.709
599.521
594.611
595.067
31.8524
547.937
519.853
550.114
594.278
599.929
495.465
31.592
639.638
616.779
573.031
550.042
62.374
36.8942
587.053
550.053
381.472
500.414
536.245
589.717
615.946
620.058
491.535
524.009
569.088
479.117
492.099
443.56
652.586
592.354
32.0526
550.464
600.671
571.837
481.511
572.144
598.692
626.583
572.903
132.633
503.02
468.67
529.596
578.604
35.7519
630.235
33.9224
613.029
630.635
544.254
32.4064
31.9769
518.058
652.872
592.646
629.336
590.104
509.169
300.691
495.252
515.855
277.599
34.0846
36.9766
618.807
461.219
344.181
596.107
492.034
205.048
40.0109
38.0433
545.726
605.705
31.6791
497.33
598.202
638.546
471.095
367.392
606.956
39.059
494.181
506.565
35.626
627.863
32.4739
585.276
587.031
83.2131
38.6381
241.385
627.397
609.163
551.952
507.069
224.127
454.668
629.943
432.369
519.184
605.968
557.603
456.449
443.022
595.395
498.339
625.982
72.7864
647.678
579.06
633.946
597.633
609.237
619.013
555.514
388.665
463.61
213.851
493.601
598.87
479.611
241.14
479.375
609.854
395.349
598.943
530.574
633.775
32.3455
583.448
415.09
537.449
420.367
653.082
31.8557
590.449
602.761
32.417
31.9466
601.303
565.464
284.299
557.019
472.926
585.583
623.503
643.203
560.125
513.029
466.906
609.528
496.874
41.0955
598.78
566.048
593.924
32.6237
583.053
586.725
32.4466
594.531
41.2296
633.844
359.354
594.472
593.981
589.475
644.272
596.896
619.279
598.564
122.9
248.695
31.6086
589.182
582.282
651.683
642.918
32.9086
31.7317
584.68
555.935
449.036
237.106
423.608
471.448
555.213
41.0952
628.353
503.943
496.777
469.349
588.252
231.207
605.649
559.618
465.679
599.126
609.17
531.377
638.37
620.826
587.399
595.058
502.585
615.13
523.182
557.58
564.544
583.322
613.764
606.7
625.358
593.223
31.8869
489.079
265.829
601.337
585.152
352.854
641.604
459.443
52.658
643.982
78.5965
535.259
485.346
617.815
582.582
595.367
621.758
33.1431
585.073
184.608
624.893
39.4889
560.421
646.357
424.671
607.168
584.384
491.002
529.811
576.285
73.0226
609.575
571.863
636.891
595.941
603.724
625.558
386.229
32.8729
630.435
594.991
598.63
32.3449
546.617
599.254
613.008
63.1786
298.514
32.0726
500.324
567.593
601.009
604.689
487.935
632.361
420.071
406.7
32.9406
614.741
542.245
32.1184
569.816
608.656
599.03
590.315
635.566
333.145
623.034
39.406
32.1654
654.23
593.121
607.928
438.509
243.596
585.068
586.121
607.785
638.019
591.873
609.092
485.822
617.088
164.783
641.307
583.174
606.494
521.291
600.679
565.091
212.899
609.015
611.26
32.4317
36.8693
509.014
640.832
523.335
620.938
610.271
388.495
31.9712
622.718
575.903
620.044
31.9164
630.462
32.5135
582.663
453.449
32.6777
589.579
622.284
33.9651
226.269
600.322
492.021
596.058
616.347
601.699
31.8034
605.999
581.448
610.333
102.708
540.527
605.989
308.803
608.945
366.486
586.89
32.4258
595.422
609.872
573.504
432.712
572.35
497.868
33.0325
48.0925
401.676
477.963
32.6073
588.771
31.7154
38.6994
32.6328
32.1923
32.3212
180.818
480.796
608.715
38.1809
599.225
35.8647
608.12
611.104
601.263
587.282
619.479
406.763
32.8523
611.14
555.651
38.1676
541.341
524.297
350.535
636.793
619.071
261.524
348.372
481.32
546.321
31.9209
32.1598
230.127
594.44
627.945
546.886
34.1724
32.7406
476.729
605.498
618.44
613.196
605.539
614.369
605.06
621.195
625.268
39.3798
457.831
582.329
486.565
31.8684
635.66
506.252
32.3758
614.05
582.352
353.476
41.1756
572.355
595.009
36.8633
419.25
370.89
478.28
504.738
600.213
504.188
504.411
593.512
499.408
43.8676
32.0816
610.796
606.637
599.265
229.489
614.526
628.329
537.414
611.248
489.595
608.238
646.288
609.985
32.2379
616.434
612.539
618.965
31.8601
31.8508
566.483
32.2017
524.046
226.757
572.813
39.3669
579.59
632.631
632.216
488.904
45.2473
440.501
454.779
38.7644
598.453
451.376
609.117
600.44
36.1096
586.757
579.868
622.398
619.907
38.659
606.021
588.913
512.027
640.69
521.291
239.092
487.771
33.5155
499.094
618.294
508.121
32.4192
505.41
69.3516
38.1745
580.407
607.453
34.4888
428.704
482.604
488.634
641.384
593.762
620.809
621.509
633.045
584.393
552.501
287.604
600.984
605.538
612.183
557.804
597.3
400.624
541.107
615.376
614.674
611.343
239.644
651.401
43.0887
569.079
616.826
493.496
598.404
549.485
651.803
590.004
499.959
611.917
52.0369
487.783
508.581
32.8623
462.369
598.409
604.902
32.6904
592.875
598.391
34.2471
31.7738
427.137
487.561
589.497
613.182
45.1655
622.6
607.247
463.612
610.265
292.654
585.107
607.085
596.181
477.129
30.7029
550.94
590.332
598.887
583.767
590.172
234.36
626.222
584.858
43.5627
567.391
455.204
33.1209
207.473
610.591
512.254
599.11
400.363
572.301
30.7005
32.3751
461.588
35.5873
222.986
525.485
484.255
591.594
242.534
46.6528
560.961
675.98
32.9383
470.475
589.246
32.4651
328.931
608.529
619.338
52.1342
605.22
606.202
597.592
559.45
630.837
32.6993
612.384
43.0389
505.41
472.616
506.521
613.733
635.48
611.821
611.889
43.9881
592.837
481.78
600.64
618.525
612.503
541.062
421.486
224.891
484.918
312.737
55.3052
537.571
613.42
244.227
47.4318
608.588
598.911
636.096
33.2302
580.876
567.359
556.273
624.178
530.186
589.675
611.607
513.475
599.941
593.695
152.492
40.4239
574.92
519.385
463.252
438.756
595.071
619.588
60.9118
419.228
473.362
261.95
630.49
580.613
613
616.685
554.499
469.836
606.508
597.121
430.973
596.395
636.33
609.185
646.924
428.486
605.639
588.985
639.219
613.518
62.3331
563.326
406.242
576.155
409.079
31.8792
443.518
597.86
463.635
605.869
630.46
31.8091
615.688
493.37
641.332
638.304
36.1935
596.591
580.965
562.575
587.279
399.485
606.909
601.967
472.722
32.0983
628.191
450.537
39.2503
603.169
30.9342
627.553
601.773
575.162
31.8917
558.966
603.215
507.921
433.253
602.086
52.2321
615
553.936
608.169
606.342
464.301
498.372
583.441
362.549
609.01
442.796
633.491
462.426
247.377
39.3552
532.356
469.253
464.837
33.1767
504.97
370.2
33.6363
615.195
57.6721
425.941
222.049
46.0743
607.794
585.024
596.444
598.112
641.838
608.91
422.873
484.886
628.484
546.765
32.0844
391.14
621.38
32.5536
622.396
30.4339
561.512
499.942
602.986
31.9112
32.2629
604.385
604.513
42.5994
385.946
36.081
592.398
611.589
34.4123
614.98
425.564
71.9695
554.581
625.614
631.815
606.495
597.453
39.5961
32.6707
619.099
621.15
584.999
624.145
354.659
32.4268
539.421
216.439
100.907
449.408
246.234
614.748
485.668
449.56
394.688
567.431
475.541
32.2634
480.467
358.701
40.9105
225.676
251.723
410.198
589.797
580.206
547.053
32.2972
513.924
602.224
595.729
631.087
583.775
597.777
536.914
468.312
503.828
45.194
481.088
52.4499
33.9657
579.361
542.009
601.945
598.753
31.9422
610.642
614.799
517.805
487.541
316.467
47.3361
421.252
613.746
32.899
606.584
618.967
537.955
582.975
598.818
471.725
46.8985
611.304
55.0564
616.325
610.331
615.103
216.001
628.26
567.206
47.8363
622.551
420.483
33.9269
585.369
485.791
592.837
33.5578
566.063
529.708
43.6566
555.191
325.006
584.767
32.2246
483.253
252.191
569.441
454.252
31.8723
611.257
250.014
554.263
602.774
339.026
585.366
36.913
594.955
487.507
627.954
284.968
572.956
538.706
550.374
41.1811
557.903
30.2476
535.53
466.528
615.977
640.683
537.991
500.679
46.7982
611.887
608.271
227.152
622.017
217.876
624.604
52.0626
477.086
629.082
593.909
597.491
566.751
605.5
566.165
544.887
347.451
624.307
590.253
383.873
621.2
627.509
789.45
544.981
81.2648
517.906
517.993
226.664
32.2339
501.685
53.666
143.051
602.999
602.896
33.714
245.912
587.051
496.543
435.862
42.3013
30.2797
606.651
576.637
496.092
618.862
32.8586
46.7463
515.265
463.96
613.091
650.414
478.049
587.15
578.929
58.3396
568.974
173.424
585.247
616.232
32.7292
32.1988
599.409
575.155
624.669
612.439
605.659
483.17
591.654
594.834
589.694
505.276
633.529
631.749
469.748
549.184
31.9369
34.4791
32.5056
445.756
639.826
482.738
625.328
38.6345
310.973
161.829
608.887
33.301
32.1324
602.242
588.72
629.298
32.9727
60.3829
608.044
604.382
32.1201
469.015
266.766
625.927
433.396
225.17
585.832
33.1003
46.5816
495.354
485.745
530.888
599.109
597.422
403.264
32.9126
521.111
568.776
464.337
616.63
32.5796
500.303
48.7829
38.92
31.3262
225.319
564.892
587.284
54.1576
605.796
609.617
594.661
226.472
621.98
48.21
517.821
585.794
31.6101
640.296
612.02
36.3833
356.396
409.932
609.581
51.5736
32.2637
574.336
49.18
88.3069
36.6338
422.968
649.557
601.708
624.572
549.581
635.15
55.5841
642.68
385.403
468.784
477.356
548.863
606.372
517.035
33.8005
30.4963
546.798
37.4112
519.303
602.803
499.65
597.133
501.132
623.376
230.001
516.124
603.71
597.672
287.702
32.422
625.586
614.953
643.015
540.995
627.949
588.935
32.3309
30.5014
32.5908
604.655
598.188
608.05
461.923
601.831
607.286
462.18
484.116
472.423
607.692
32.0144
30.4591
584.525
32.8298
454.022
515.201
222.587
609.495
39.13
526.909
563.001
444.707
605.682
392.621
584.869
575.767
373.169
33.2016
30.8494
585.367
592.388
628.478
616.17
490.753
488.421
565.503
618.267
32.3158
602.519
34.1892
604.952
31.7093
622.172
606.177
37.4847
288.992
279.216
500.139
407.509
550.195
541.985
31.9915
548.833
601.165
289.49
487.838
47.0448
33.7115
489.16
44.8378
547.873
521.583
598.766
630.195
592.239
31.7829
412.341
31.8015
32.1505
598.371
517.799
598.071
574.12
224.444
618.54
585.904
593.3
632.785
614.593
469.537
590.917
590.933
250.361
634.512
32.016
542.076
614.574
629.227
31.5712
596.937
562.185
42.9028
588.533
625.539
477.01
279.678
526.305
32.7926
630.651
458.257
505.105
565.613
616.312
32.3135
599.943
507.296
227.173
33.7027
627.239
650.909
574.151
507.055
581.971
34.0067
590.826
614.085
628.037
589.838
584.844
226.3
567.367
587.219
596.414
453.903
487.583
624.348
462.582
638.115
586.492
580.62
531.931
327.618
565.09
639.926
388.246
488.572
49.1806
607.398
584.538
79.5628
49.3091
584.545
630.436
605.561
242.049
651.392
609.368
228.928
31.7508
600.074
495.788
44.2223
32.1212
485.603
606.21
97.1564
35
211.905
588.793
31.7858
487.744
466.637
32.9979
631.458
605.326
635.387
617.467
624.384
44.0411
31.9649
608.528
44.8996
457.753
33.79
605.256
320.768
477.158
603.79
32.5455
248.679
455.036
138.397
578.724
625.296
588.868
32.697
30.5943
542.383
619.766
369.745
607.405
517.737
34.0115
44.5219
620.467
624.046
598.274
32.2749
496.429
548.186
608.593
597.543
634.342
221.608
513.587
216.474
587.324
454.552
588.026
515.308
44.5954
34.1158
570.944
584.492
511.908
418.057
499.311
32.5631
31.7407
611.738
604.669
575.265
594.593
225.931
609.87
45.2366
535.392
489.588
612.181
626.653
32.0533
596.844
481.019
38.4564
587.905
31.9768
369.2
356.398
489.489
31.91
33.6551
502.295
601.83
608.658
610.022
415.267
514.035
47.9603
553.512
402.034
392.041
595.475
566.771
606.277
620.252
584.816
251.138
605.609
510.283
633.534
519.34
50.3845
605.649
243.277
552.884
597.302
36.4982
33.0503
435.388
366.555
502.94
643.73
478.622
562.634
585.643
623.991
386.252
458.626
51.6907
547.956
448.514
493.564
616.75
32.6252
605.972
41.5679
426.686
32.3636
299.737
171.805
108.22
439.477
499.803
608.681
33.5539
490.975
527.272
32.1763
40.4319
483.93
586.792
633.051
634.578
551.533
31.9524
584.545
519.284
517.485
569.712
587.436
454.623
607.724
51.984
536.387
564.054
636.685
616.82
654.273
185.702
645.922
607.354
594.805
34.9998
77.7172
613.348
59.6476
632.39
237.652
548.996
583.625
33.0094
492.323
34.5267
31.9931
369.86
31.5778
607.871
607.496
31.9053
307.605
589.872
32.7089
630.815
524.156
568.088
651.644
618.431
48.8512
42.6192
38.0005
457.748
632.131
645.081
33.9577
589.759
577.496
650.31
603.536
339.408
41.649
30.7967
32.8491
483.106
612.739
31.8583
606.36
459.575
583.762
97.245
617.621
557.462
32.5273
521.108
592.362
573.871
69.2459
515.743
449.675
610.563
65.023
31.8857
459.3
293.128
596.091
453.239
422.736
627.274
610.632
598.957
588.153
481.41
568.487
450.873
503.156
612.045
33.0419
613.066
632.318
579.91
584.466
32.7861
611.455
611.992
32.3423
491.398
53.0525
526.323
32.4551
494.59
32.1741
613.149
439.032
590.569
557.345
433.977
432.275
481.837
31.7816
490.583
557.45
400.028
435.562
562.714
518.309
467.508
593.437
544.957
499.73
586.935
330.741
524.683
48.1228
54.2865
285.241
600.72
137.761
371.045
492.236
463.393
550.067
52.7314
536.035
30.8576
612.517
585.161
32.0204
585.226
563.348
548.357
32.0706
611.539
587.39
630.12
610.898
633.03
603.625
451.932
290.062
498.486
496.242
33.9207
32.649
31.876
604.217
588.472
510.69
613.765
450.54
58.4282
33.0278
606.028
545.597
34.3689
522.232
606.474
607.771
402.147
49.7597
41.623
634.223
626.433
582.688
458.064
429.512
281.728
369.814
562.883
481.496
639.295
449.562
471.874
620.266
632.824
40.455
546.004
32.8944
588.564
32.9732
599.328
386.858
602.651
598.109
580.425
63.6373
311.884
33.5048
43.3058
564.803
32.1438
479.913
596.697
81.7769
455.451
457.905
581.104
31.3978
34.0826
613.515
576.662
30.7969
626.279
595.245
611.742
621.061
619.882
607.286
466.14
294.161
648.625
601.975
591.885
53.3177
610.796
635.385
395.356
578.319
624.811
587.722
587.343
449.249
593.651
32.0567
577.73
244.079
32.6806
532.394
600.479
584.376
31.7272
605.93
626.837
485.925
643.141
541.455
638.535
32.942
545.593
395.601
468.303
474.974
610.234
579.509
37.0031
33.0829
498.059
624.1
481.079
489.318
37.4243
32.071
458.633
640.293
606.155
31.7867
614.443
617.761
459.106
436.049
489.707
314.25
530.844
595.51
633.695
31.5743
631.414
593.657
33.932
541.971
608.46
31.9944
592.049
586.42
494.409
649.622
56.1625
607.94
479.061
598.885
220.342
609.506
238.386
109.409
32.1727
33.2256
177.524
375.538
31.8157
239.017
580.752
559.3
507.779
401.458
232.477
32.2224
33.2607
33.1712
227.14
584.331
451.794
591.848
38.245
635.061
581.813
630.108
625.789
607.202
475.608
33.0417
604.281
629.144
598.044
32.0063
627.938
32.051
49.7871
440.467
565.95
606.99
32.748
247.947
574.821
573.643
584.342
656.788
386.271
498.933
489.823
121.423
608.944
607.283
380.33
33.7328
631.618
621.451
599.988
32.9572
581.127
594.766
626.577
588.194
54.6024
32.5751
446.969
491.05
31.713
488.785
605.469
559.058
606.908
241.149
616.332
570.335
577.409
598.389
611.58
389.441
573.369
225.066
599.955
369.161
582.656
227.091
589.305
613.342
514.661
632.436
34.2134
598.727
32.436
650.191
582.204
594.205
594.94
31.3361
32.8337
615.347
615.6
444.926
392.64
345.72
32.9304
586.427
501.387
554.39
605.377
47.8767
562.737
38.2234
552.44
623.808
586.294
32.5578
31.9892
605.931
260.392
390.398
591.124
614.427
596.008
256.526
32.2833
649.553
552.918
638.356
589.411
570.688
628.908
593.314
478.693
545.444
472.882
639.799
636.746
605.779
62.7171
488.401
589.49
650.542
622.001
409.757
414.45
40.393
612.137
604.626
631.414
600.55
632.681
32.2237
472.299
526.964
394.975
606.614
646.911
300.286
647.68
596.843
596.736
605.734
364.307
485.599
483.524
51.27
34.7987
48.9928
584.093
228.36
33.3913
32.2098
578.569
603.926
511.868
38.7329
583.899
537.372
163.704
32.332
274.789
281.963
495.612
33.7234
497.362
607.731
286.639
462.555
620.487
616.993
612.444
33.1206
578.164
41.5282
624.963
218.73
618.285
494.869
30.9252
585.3
566.694
31.7893
52.3173
644.27
626.014
584.634
483.691
588.079
435.607
339.919
32.2129
609.411
37.4848
659.103
614.348
592.128
587.487
772.336
253.302
598.626
640.357
298.788
349.48
53.2246
38.0679
32.3383
31.9819
578.488
608.994
303.252
30.6514
62.8404
613.952
357.764
289.462
259.004
576.954
584.548
240.073
158.235
206.44
227.202
32.8954
595.722
255.219
31.9553
516.802
307.628
483.686
606.546
467.219
33.0077
252.745
582.419
33.1859
473.814
113.346
606.516
587.419
612.123
558.219
611.352
644.605
567.28
519.841
260.455
571.431
32.2718
467.976
531.231
619.475
31.9686
311.812
33.2868
611.369
411.143
32.6651
286.442
525.012
532.563
181.706
38.566
440.888
602.922
605.992
608.117
449.139
602.576
224.39
227.947
255.646
624.447
514.494
32.8088
608.906
50.9235
576.994
326.356
612.48
613.408
610.263
31.7967
590.389
34.2447
614.092
289.527
598.522
610.593
591.904
621.42
576.948
100.339
108.717
528.364
592.127
606.165
617.551
620.738
579.728
34.6819
619.452
32.4915
298.658
576.26
242.279
426.795
31.8944
32.5105
623.409
609.058
574.338
565.84
240.348
270.426
31.8992
575.997
604.256
426.718
585.041
386.979
453.513
385.048
341.763
557.001
581.953
608.763
626.715
584.358
501.446
291.275
551.755
599.554
602.406
605.744
522.601
34.2753
234.194
570.438
290.644
593.347
568.31
626.265
578.802
399.602
32.2514
40.6084
294.146
595.911
579.131
634.472
46.8374
31.7197
582.017
31.768
629.814
611.259
312.809
31.7217
287.378
582.447
644.523
228.726
522.009
32.445
619.443
485.621
560.103
600.352
501.972
502.213
584.984
30.4421
34.1745
405.501
45.5989
249.442
32.7863
496.149
607.668
631.457
608.604
471.155
473.013
479.622
567.461
584.524
607.839
32.2523
531.871
641.729
37.8114
281.048
42.928
32.1053
598.673
34.4516
562.677
412.912
463.068
34.5107
428.701
416.788
560.194
290.44
633.167
41.5673
55.6737
368.915
34.8677
497.935
582.475
241.182
650.216
491.081
32.8149
55.1251
627.142
408.672
438.214
40.3073
596.365
621.312
605.708
606.78
474.992
40.5268
566.763
32.5261
595.14
613.696
239.597
617.968
576.897
588.679
565.607
296.972
611.303
38.7786
608.806
618.392
605.491
496.93
272.924
611.977
584.899
611.146
634.862
296.768
586.412
33.2228
607.244
525.575
625.505
31.7428
458.193
584.102
597.348
609.046
468.095
604.464
615.461
628.239
509.384
596.35
356.721
568.79
594.89
48.1989
38.7179
436.975
48.2745
579.337
442.402
515.566
282.784
445.236
613.64
286.46
508.537
58.4998
568.304
564.302
240.596
614.924
602.597
33.8274
599.934
589.773
35.0653
35.3873
477.189
535.162
602.285
45.9161
51.4764
606.638
595.104
618.358
585.791
583.666
539.875
359.797
31.9048
588.703
524.04
243.86
592.635
593.686
548.95
578.395
636.893
599.231
613.227
546.957
320.859
595.467
621.878
32.2248
32.9214
587.348
485.06
339.531
585.431
440.765
584.805
577.548
566.973
602.706
502.627
54.3252
600.324
89.5685
479.149
621.682
31.9589
488.033
33.7762
41.9677
31.9179
480.445
31.8148
33.6399
602.003
633.318
411.938
608.436
609.75
620.806
296.676
611.8
429.359
435.208
511.309
253.528
377.504
630.355
539.001
86.907
364.371
412.778
444.926
45.2576
32.8677
492.908
607.563
607.611
610.774
637.769
32.9657
623.371
604.038
31.9938
595.02
507.696
48.6602
294.537
650.492
291.715
260.64
495.959
367.638
603.833
412.534
596.494
626.107
607.676
424.053
585.154
417.462
32.1144
599.267
618.957
406.972
42.1414
609.156
540.385
344.784
588.106
34.3113
351.188
627.713
557.681
594.519
619.065
539.127
528.32
32.3688
605.94
608.753
328.203
602.568
458.472
384.627
572.857
593.139
39.9809
608.333
577.27
607.122
533.224
605.307
32.4009
631.197
627.873
594.856
614.897
595.518
32.0592
487.678
534.637
603.994
41.069
405.646
504.193
601.43
492.677
603.143
606.487
301.17
604.661
508.959
581.264
613.039
435.302
565.019
591.485
233.784
227.764
38.7085
496.852
37.4034
609.37
32.4698
594.993
44.3789
37.6539
600.712
40.0389
594.531
32.5421
50.0746
250.777
31.8079
32.6956
576.598
790.879
38.9821
40.8083
620.694
501.208
32.3289
456.073
607.454
537.003
629.397
430.547
85.1004
598.989
578.213
32.7734
37.3877
455.717
451.015
585.209
519.224
321.94
621.977
42.8067
620.024
280.771
606.878
590.816
46.0538
608.705
571.122
613.93
37.583
33.9882
361.805
594.243
594.62
43.7771
54.3575
574.808
623.409
583.376
583.349
479.347
479.203
371.507
586.197
575.216
549.435
555.767
486.491
52.3421
612.07
61.7163
616.904
210.111
316.086
577.647
144.356
434.754
606.038
315.765
543.973
515.934
547.826
583.926
46.5534
575.821
512.35
626.753
430.232
613.009
552.317
600.763
428.438
502.543
553.512
521.14
408.393
533.54
429.274
573.639
525.446
436.189
602.169
231.867
215.116
496.829
518.961
515.287
591.798
602.711
624.546
606.756
584.508
404.668
463.019
584.52
600.463
33.3938
44.7875
606.073
605.691
312.195
595.455
379.059
33.4583
32.6984
658.42
624.883
428.649
596.883
374.253
38.3688
32.56
422.672
434.936
61.448
589.127
631.672
475.469
577.67
431.711
607.294
606.812
651.22
453.78
57.0329
33.603
599.815
607.569
35.0627
32.6587
580.614
555.576
433.063
517.932
592.834
609.435
782.984
606.339
31.979
505.777
621.066
481.996
491.016
494.239
649.986
32.3749
432.572
620.005
391.484
490.2
38.5299
571.096
66.6998
31.7331
579.999
41.6454
633.448
600.798
581.186
607.225
32.1056
557.593
574.583
459.886
577.744
608.961
49.8463
623.174
48.1607
68.918
567.077
31.8574
602.466
596.853
438.162
44.2047
459.822
597.838
63.2998
590.257
581.918
37.4796
610.505
32.8487
584.671
32.8741
281.999
299.006
427.996
494.581
31.6147
603.914
34.3398
34.413
34.1615
35.5901
595.623
614.603
651.044
34.6695
32.082
32.8854
30.8748
607.235
34.2898
31.7912
549.452
359.675
371.675
622.892
64.4479
566.571
42.7742
595.462
575.531
623.693
620.216
38.184
583.138
30.99
50.1938
587.245
476.824
578.608
629.311
31.8062
591.403
606.381
556.874
33.1565
34.9675
634.158
33.2064
37.9252
597.411
36.5823
31.8287
447.734
32.4879
648.543
557.072
577.422
648.845
628.758
652.541
40.2616
34.3423
565.186
461.437
407.383
501.796
604.583
503.715
424.697
604.267
50.3678
247.311
220.075
607.774
465.354
476.556
31.787
440.745
34.2218
46.0927
31.6967
576.716
295.944
31.0229
51.7855
37.1767
590.125
44.8347
298.782
470.353
467.912
631.113
572.235
33.2348
349.905
586.144
33.8425
618.909
617.206
433.964
432.838
610.767
537.218
578.966
31.1065
91.1308
609.16
58.0122
599.832
597.17
476.533
58.1334
32.8497
31.5033
140.132
32.6396
578.335
613.936
136.07
219.945
581.409
517.663
606.312
606.418
616.961
556.194
31.7943
639.655
55.7049
33.5713
31.8577
491.963
32.7012
34.1399
32.2935
32.5316
481.919
98.3723
631.561
328.147
255.011
548.72
454.172
584.58
33.0162
604.367
627.881
41.6339
35.4509
587.292
32.0533
37.3538
524.159
609.845
32.4084
446.86
480.867
610.059
547.37
613.182
611.7
32.4136
32.2794
590.512
32.733
35.2135
623.858
490.19
33.018
317.047
293.508
32.1077
316.366
599.524
40.676
450.252
617.189
32.1891
32.4698
454.763
465.28
544.406
651.109
619.366
32.2063
622.323
187.89
33.6364
620.956
648.265
468.185
31.8937
620.094
32.1604
596.51
575.77
32.1861
535.535
621.559
588.29
33.1228
32.5178
495.151
621.575
399.655
574.022
32.802
342.204
473.489
32.1646
466.163
618.349
622.487
498.32
481.864
169.298
32.0728
451.857
232.124
634.084
485.874
454.604
501.667
453.852
606.659
33.5787
476.923
638.635
602.074
509.174
560.567
617.107
634.722
576.402
32.6658
65.118
376.817
600.479
621.559
483.696
31.4511
473.732
590.201
381.735
611.007
629.301
32.0933
639.409
32.8176
294.871
493.787
487.187
501.232
619.11
32.0241
33.0071
44.2824
146.491
99.3856
61.604
613.745
630.684
32.9127
41.3867
460.63
631.679
597.787
455.468
514.103
496.232
584.073
584.32
575.975
585.254
32.5271
615.111
609.493
371.298
500.557
571.101
630.032
385.438
284.725
642.257
57.8319
55.0891
39.9884
503.748
32.3953
633.838
630.209
629.374
604.142
440.907
420.177
31.818
354.908
650.188
31.783
374.77
585.295
439.421
578.423
34.2397
601.42
385.48
555.557
628.082
518.015
600.284
33.342
603.244
584.17
629.505
60.8677
280.918
499.259
434.458
559.642
418.398
31.2284
474.908
295.859
32.1023
30.5106
559.313
615.748
467.166
657.5
478.228
631.353
622.633
503.78
516.855
31.7445
604.905
384.698
595.883
32.8368
32.9493
583.978
606.71
54.1857
618.564
532.696
639.412
34.6239
31.8454
607.052
608.75
625.167
606.147
32.8097
626.354
455.532
61.2544
642.788
437.182
619.325
572.805
31.9678
320.498
32.3675
618.487
646.036
32.1579
626.851
474.861
605.451
492.292
410.068
636.785
55.0911
584.95
623.87
32.9418
608.395
36.6475
485.968
487.598
592.084
614.103
42.5802
43.6522
32.6284
30.6402
646.551
33.6539
32.6444
31.7239
31.7176
34.8003
31.9658
455.173
614.259
512.064
384.647
489.947
395.372
612.029
549.747
488.044
40.036
31.9955
32.1509
46.6618
625.314
620.829
619.222
578.652
32.5269
32.407
33.848
32.0866
527.518
634.399
51.3079
37.9845
31.7036
619.891
565.737
57.3943
587.551
637.396
466.601
503.827
33.1659
32.0239
491.955
52.2164
49.6194
31.6918
489.957
530.743
649.898
51.9844
628.47
478.112
33.0653
31.7991
32.5498
375.786
631.044
32.7022
45.2994
49.1052
488.891
555.403
629.053
485.844
32.8826
86.5706
433.27
445.406
634.841
531.762
608.521
31.8302
32.2134
43.1691
47.3378
635.937
32.0986
33.0978
33.4595
32.4632
32.3079
32.0146
31.9707
610.36
34.0614
441.861
605.297
394.846
630.957
49.2176
640.263
594.955
437.847
465.54
45.0433
350.223
32.7972
621.824
33.1251
34.9969
509.15
471.944
613.825
620.17
636.53
408.869
414.801
59.9058
35.3619
619.235
31.806
631.935
35.4797
616.606
615.952
462.149
39.7286
534.99
31.9752
311.131
32.7345
37.244
32.656
478.901
32.8863
467.303
251.083
605.195
435.873
630.429
438.104
517.881
31.7926
615.078
525.376
46.7953
617.046
627.575
32.7333
561.166
618.671
409.868
440.398
638.998
45.7904
598.758
44.0337
596.983
453.671
590.722
497.575
435.173
574.854
33.3392
457.139
598.967
335.121
50.122
393.549
470.348
492.175
515.876
621.008
626.901
36.1629
604.716
512.614
602.727
40.4578
379.704
597.25
34.7333
402.211
31.8791
364.622
615.968
53.6083
43.1123
448.814
616.88
616.171
135.892
585.47
127.905
629.865
485.565
430.689
595.95
572.856
36.5358
31.1358
385.45
620.879
524.112
515.377
621.499
426.312
34.121
454.132
38.8106
503.456
630.865
500.546
31.7673
515.962
476.391
611.343
54.378
370.574
628.006
465.474
55.8873
591.629
451.094
479.491
388.655
606.726
605.09
602.172
529.353
478.852
634.852
511.422
563.221
636.883
638.174
630.696
499.362
549.615
524.525
614.265
37.9004
622.43
650.556
629.596
479.344
514.728
32.7862
545.605
627.444
32.8798
34.1179
488.488
533.391
474.253
591.496
31.8162