/*--------------------------------*- C++ -*----------------------------------*\
| =========                 |                                                 |
| \\      /  F ield         | OpenFOAM: The Open Source CFD Toolbox           |
|  \\    /   O peration     | Version:  v2012                                 |
|   \\  /    A nd           | Website:  www.openfoam.com                      |
|    \\/     M anipulation  |                                                 |
\*---------------------------------------------------------------------------*/
FoamFile
{
    version     2.0;
    format      ascii;
    class       surfaceScalarField;
    location    "200";
    object      ddtCorrDdt0(phi);
}
// * * * * * * * * * * * * * * * * * * * * * * * * * * * * * * * * * * * * * //

dimensions      [0 3 -2 0 0 0 0];
oriented        oriented;


internalField   nonuniform List<scalar> 
20362
(
-0.002272
0.00143888
0.00083312
-6.97749e-07
-1.14115e-06
1.85018e-06
0.000110878
-2.66415e-05
-8.42444e-05
6.05836e-05
-0.000198339
0.000137773
-0.000498516
0.000444878
5.36252e-05
-0.00107864
0.00112164
-4.30052e-05
1.84068e-05
-5.83758e-05
3.99741e-05
5.95085e-05
-2.74589e-05
-3.20523e-05
-0.00040409
2.72971e-05
0.000376765
0.000585789
-0.000389423
-0.000196396
4.2259e-05
-0.000446382
-0.000161345
0.000262913
-0.000101571
-1.94252e-05
2.68382e-05
-7.4149e-06
-1.73127e-06
-2.16618e-05
2.34058e-05
-0.000144125
0.000204724
-2.37892e-05
3.38656e-05
-1.00773e-05
-0.000238534
1.12671e-05
0.00022728
-3.81722e-05
4.2253e-05
-4.11088e-06
-2.70892e-05
2.05711e-05
6.52052e-06
-0.000394156
-5.22514e-05
0.00044643
4.61908e-05
-0.000293974
0.000247822
3.35973e-05
-1.68757e-05
-1.67241e-05
5.31867e-05
2.38991e-05
-7.71068e-05
0.000147291
-3.64073e-05
-3.34002e-05
3.28607e-05
5.38915e-07
5.83378e-05
-8.40576e-05
2.57185e-05
0.000158356
-0.000272205
0.000113808
-3.54631e-05
9.38e-05
-3.08992e-05
-2.50181e-06
-5.81836e-06
5.15895e-06
6.5676e-07
0.000118084
-1.93438e-05
-9.87385e-05
-0.00108116
0.000527598
0.000553559
-5.64422e-06
-5.10373e-06
1.07571e-05
-0.000199968
0.000418715
-0.00021872
-0.00403908
-0.00064344
0.00468253
3.06924e-05
-9.17053e-05
6.09802e-05
0.000259674
-2.63072e-05
-0.000233372
3.03325e-06
-3.72925e-06
4.2279e-05
-2.16315e-05
-2.06763e-05
6.88071e-05
-9.33578e-05
2.45718e-05
0.000422292
-0.000521168
9.88855e-05
-0.00146896
-0.00257011
8.0515e-06
3.83556e-06
4.43306e-06
3.00968e-05
-3.45235e-05
-0.0015815
-0.000690493
-0.000130705
0.000144469
-1.3743e-05
0.00400016
-0.011351
0.0073508
-0.000135483
3.12031e-05
0.000104276
-0.000335724
-0.000512738
0.000848491
1.48816e-05
7.8637e-06
-2.27454e-05
0.00099307
0.00126422
-0.000101749
-3.37357e-05
-0.00468335
0.00320928
0.00147408
-0.000113683
7.55005e-05
0.000200322
2.13787e-05
-0.0002217
6.55052e-06
2.62361e-06
-9.17556e-06
0.000707878
-0.00655711
0.00584924
-0.00397548
-1.7974e-05
0.000115376
-9.73785e-05
0.000186676
0.000127709
-0.000314384
0.00291532
-0.0028563
-5.89914e-05
1.64127e-05
-1.19737e-05
-3.31163e-06
-8.55831e-06
1.18754e-05
1.23027e-05
2.1295e-05
2.92204e-06
-7.30661e-07
-2.19538e-06
0.000105581
0.000217923
-0.000323504
-0.000278285
0.00032448
1.09235e-05
1.9426e-06
-1.28669e-05
0.000181667
-0.000114064
-6.76021e-05
0.000159147
-0.000695642
0.000536506
0.008695
-0.00469484
4.9526e-05
9.98104e-06
1.72681e-05
-1.42428e-05
-3.02942e-06
8.32753e-05
-0.000102329
1.60055e-05
-2.56216e-05
9.62559e-06
-0.000884705
0.00155933
-0.000674639
-0.000228183
0.000387334
0.00117876
-0.00126494
8.61536e-05
2.51032e-05
-9.0959e-06
-0.000305095
-6.50022e-05
0.000370067
0.000591776
-0.00016948
-9.87311e-05
0.000152143
-5.33863e-05
0.000802053
-0.000279755
-0.000522317
1.25039e-05
-8.07667e-06
-4.43148e-06
-1.74373e-05
5.96986e-05
-6.38196e-06
2.54525e-05
-1.90504e-05
-9.54883e-06
2.24631e-05
-1.29146e-05
-0.000161735
0.000116139
4.55894e-05
1.08393e-05
-2.51373e-05
1.42981e-05
-0.000207003
0.000182694
2.4304e-05
6.89115e-06
1.14181e-05
-1.8318e-05
-0.000456265
-0.000136225
5.51944e-06
4.51286e-05
0.000155208
3.81004e-05
-2.39333e-05
-1.41731e-05
4.97534e-06
-1.06115e-05
-0.000174652
0.000191845
-1.71556e-05
0.000122135
-0.00028348
2.78229e-05
-1.84667e-05
-9.35557e-06
0.00956304
9.72139e-05
-0.000129958
3.27491e-05
-0.000347783
0.000933571
-0.00658072
0.00620761
0.000373111
2.88104e-05
-2.16325e-05
-7.17848e-06
-0.00704098
0.00775781
-0.000716834
-0.000766732
0.000528159
0.000498883
0.000303176
-6.66235e-05
-2.05203e-05
8.71417e-05
4.63445e-05
2.24656e-05
-0.000172394
-2.25383e-06
0.000330569
-0.00051229
0.000181703
-2.13165e-05
3.9617e-06
1.7354e-05
-5.44363e-05
3.78424e-05
1.65976e-05
-0.000664846
-0.00137191
0.00203676
0.000453819
-0.00161073
0.00115692
3.88172e-05
1.11515e-06
-3.99377e-05
-0.00849997
0.00557857
0.00292139
-4.63463e-05
7.77766e-05
-3.14365e-05
-0.00280746
-0.00377327
0.000163063
-0.000189677
2.97986e-06
-2.98883e-06
7.16445e-06
1.00995e-05
1.71867e-06
-1.95834e-05
1.78707e-05
-2.25861e-05
-4.50895e-06
3.71738e-05
9.16156e-06
-4.63498e-05
3.86071e-06
1.5176e-06
-5.37356e-06
3.84625e-06
2.39919e-05
0.00197446
-0.00853158
-1.72409e-05
-4.0758e-06
-0.000692739
0.000687184
5.55012e-06
-0.000360328
0.00327567
0.000218932
8.53315e-05
-0.000304239
-0.000573599
-0.000119147
-0.000283908
-5.18012e-05
0.000180895
-0.000258554
7.76246e-05
0.000208782
9.50047e-06
-0.000218324
1.73205e-06
1.19512e-06
0.0310357
-0.0223849
-0.00865078
0.00190369
0.00470963
0.00021227
0.00542899
-0.00564126
-0.000127386
-0.00012928
0.000256649
0.000295375
-0.00011444
-1.04777e-05
1.12654e-05
-7.7996e-07
4.17551e-05
4.00739e-05
-8.18318e-05
-0.00112779
4.91529e-05
0.000162758
9.68974e-05
-0.000131473
-7.55343e-05
-0.000251111
9.40472e-05
-8.83759e-05
-7.33742e-05
-5.05034e-06
-9.91839e-06
1.37664e-05
-1.55345e-05
1.7513e-05
-1.98115e-06
-2.23425e-05
-7.63976e-05
-0.000135907
7.99171e-05
0.000194814
-0.00011967
-7.51403e-05
-5.52452e-05
2.59271e-05
2.9317e-05
0.00460559
-0.00110393
-0.00350164
1.14491e-05
2.66622e-05
7.64605e-07
2.53824e-05
-2.61474e-05
2.17429e-05
-6.86231e-06
-2.27995e-05
3.37232e-06
1.11225e-05
-1.44298e-05
4.00964e-05
-6.81928e-06
-3.32709e-05
-0.000168713
-4.50156e-06
0.000173216
0.00200531
-0.00904629
0.00564278
-0.00543052
0.000246692
-0.000228283
-7.56824e-05
8.45181e-05
-8.84417e-06
-2.87172e-05
1.12191e-05
1.74996e-05
0.00341733
-0.00118608
-0.00223125
0.000103667
9.11678e-05
0.00630846
-0.00170285
6.28517e-05
0.00010764
-0.000170477
0.000894092
0.000345588
-0.00123964
0.00128462
0.00123045
-0.00251505
-4.94011e-05
6.993e-05
-2.05302e-05
5.67832e-05
6.12949e-05
4.84496e-05
-1.29284e-05
-3.5533e-05
-1.11251e-05
-4.41032e-06
4.68022e-06
-6.8145e-06
2.13027e-06
5.60886e-05
-4.53531e-05
-1.07343e-05
-3.27462e-06
7.13542e-06
3.31037e-06
-3.13087e-05
7.30623e-05
-1.04754e-05
-3.98709e-09
2.0278e-05
-2.01452e-05
-1.32418e-07
-4.22124e-05
-3.34827e-05
7.79123e-05
-2.47145e-05
-7.27153e-05
1.74667e-05
0.00114679
-0.00181164
-0.00931143
0.00173848
0.00757295
-2.97483e-06
-2.84525e-06
5.19232e-06
-3.1781e-08
5.85313e-05
-9.00839e-06
-0.000141991
-2.67202e-05
6.5683e-06
3.22151e-05
-0.000506942
0.000435279
7.1676e-05
-0.000616429
6.54701e-06
2.42307e-06
1.93276e-06
-4.36359e-06
0.013683
0.0173527
-5.1682e-06
4.8586e-06
3.19493e-07
-0.000235129
3.51905e-05
1.90895e-06
1.05945e-05
1.95573e-05
-2.41108e-05
4.54355e-06
5.58327e-05
8.86427e-05
9.31069e-05
-0.000154317
6.12008e-05
-0.000135716
-0.000319834
0.000455517
0.000365197
-2.28275e-06
-0.000362932
0.000653655
2.50164e-06
-2.64362e-05
9.9555e-07
-6.16685e-06
-1.44793e-05
2.8223e-05
-1.37419e-05
-0.000364286
0.00125838
1.79519e-05
7.15589e-06
0.000261618
-0.000114311
-7.16713e-06
9.91329e-06
-2.75019e-06
-0.00020209
0.00018694
1.51417e-05
-8.33483e-07
6.20825e-05
-6.12428e-05
0.000154672
9.61708e-05
-0.000250852
0.000192777
-0.000422338
0.00118962
-0.0045344
0.00334479
-8.06726e-05
0.000111342
-7.04448e-05
5.76693e-05
1.27823e-05
-0.000521321
1.43856e-05
6.53806e-06
1.75852e-05
-2.41394e-05
0.000893996
-0.00127348
0.000379543
-2.20367e-05
0.000200343
-0.000178324
2.68417e-05
-3.91642e-05
1.23188e-05
-5.01191e-05
-1.58626e-05
6.60009e-05
7.02559e-06
-4.59878e-06
5.72403e-06
-1.03998e-06
0.00124331
-6.45622e-05
0.000298101
-0.00020122
-9.68882e-05
-1.81225e-05
3.56473e-07
1.77655e-05
1.70647e-05
-1.51444e-05
-1.91944e-06
-0.000125891
7.95456e-05
0.0103905
-0.00864193
-0.0017486
-0.000213755
8.04875e-06
0.000205714
1.16529e-05
1.7158e-05
5.73307e-05
-1.0971e-05
-9.1717e-05
2.50936e-05
-1.03251e-05
1.1661e-05
0.00469812
-0.00350851
8.74461e-05
-0.000140344
0.000122385
0.000221822
-4.00347e-05
-0.00018177
-1.16119e-05
2.16315e-05
-1.00189e-05
0.000142235
-0.000213989
7.1752e-05
-5.78667e-06
-4.86489e-05
0.000381381
-0.000146071
0.000124042
-3.48823e-05
0.00024455
-0.000209679
0.000107371
-0.000162739
5.53737e-05
-0.00144043
0.0013297
0.000110754
-1.92939e-05
2.10258e-05
-2.33326e-05
4.23615e-06
1.90937e-05
-9.40873e-06
4.93904e-05
-3.99562e-05
-6.19728e-05
2.70767e-05
-0.0026701
-0.00128822
0.00395832
1.15943e-05
5.47079e-06
-3.52914e-05
-7.01021e-05
0.000105391
-2.12677e-05
2.57133e-05
-4.44666e-06
-0.00102468
0.00201779
-6.35514e-05
4.96955e-05
1.38496e-05
2.58795e-07
1.85953e-05
-1.88581e-05
-3.27791e-05
1.46639e-05
1.90945e-05
1.59853e-05
-3.50821e-05
7.5342e-05
-7.76475e-05
2.30232e-06
-0.0120323
0.00673485
0.00529743
5.38078e-05
0.000190745
-3.47865e-05
-5.55033e-06
4.03293e-05
-0.000101097
-0.00013405
-7.00738e-05
1.99763e-05
-0.00250707
-0.000349196
2.46653e-05
-2.52356e-05
5.75645e-07
-0.00524261
-0.00325737
1.87435e-05
0.000160943
-0.000179702
-0.000702276
-0.00037888
0.000443954
0.00519882
0.000107977
-1.08962e-05
1.74442e-05
-7.27174e-05
0.000402613
-0.000329881
-6.67086e-06
1.15768e-05
-4.90438e-06
-1.85706e-05
-5.22264e-06
-8.06488e-06
5.21621e-06
2.84851e-06
0.000117198
-1.03788e-05
-0.000106804
9.63749e-05
0.000189076
-8.34941e-05
3.23878e-06
-1.71989e-06
0.000149104
-2.3745e-05
-1.91687e-05
4.29141e-05
3.06905e-05
0.000178928
-8.58183e-05
-1.98555e-05
-0.000293622
0.000313448
-0.00238111
0.00207966
0.000301441
2.08959e-05
-2.57544e-05
4.85733e-06
-0.000160253
0.000245568
-2.98801e-05
1.32363e-05
1.66435e-05
4.05019e-05
0.000386807
-0.000427288
-1.10336e-05
0.00010239
-9.13641e-05
0.000577383
-0.000802737
0.000225393
2.09092e-05
-3.84627e-05
1.7554e-05
0.00376796
-0.00586193
0.00209397
1.2178e-06
-2.05837e-06
0.00217556
-0.00124683
-0.00092873
-8.92041e-08
1.49163e-05
-1.48218e-05
2.24816e-06
-5.75941e-06
3.51617e-06
5.26146e-05
-9.00283e-05
3.74241e-05
3.78311e-05
0.00020769
-0.000245506
0.000345893
-0.000740034
-8.48726e-05
6.55328e-05
3.97957e-06
-8.3664e-06
7.26211e-06
1.11082e-06
-0.00529122
-0.00674106
-6.53274e-05
8.86042e-05
-2.32773e-05
1.07631e-05
-1.71489e-05
7.26456e-05
-0.000286387
2.94625e-05
-0.000110585
8.1162e-05
0.000262086
-0.000422321
-0.00232702
-5.40746e-05
9.28339e-05
-3.67434e-05
0.00183583
0.0105015
-0.00774414
-0.00275733
1.37782e-05
4.14666e-05
-2.0561e-05
0.00516458
-0.00472064
-2.22297e-06
7.00278e-06
-4.78671e-06
-2.18855e-05
2.33907e-05
-1.51188e-06
0.00454785
0.00165976
1.75274e-06
-7.28706e-07
-1.03313e-06
2.10335e-05
-7.51543e-06
-1.35195e-05
0.000237268
0.000165352
-0.000318093
-0.000215743
0.000533867
-1.20401e-05
7.43165e-06
4.61144e-06
9.81202e-06
1.12211e-05
0.000209052
-9.36428e-05
0.00019632
-0.000108731
-8.75904e-05
1.0485e-05
8.14451e-05
-9.19572e-05
-9.00834e-05
0.000207299
1.2895e-05
-1.97195e-06
0.00123959
-3.6927e-06
-4.37582e-06
1.70857e-07
2.0688e-06
-0.000189705
-0.000115388
1.23864e-05
-1.23887e-05
0.000255113
-0.000179768
0.000930891
-0.000490233
-0.000440673
-6.53162e-06
4.03623e-05
-3.38257e-05
9.09796e-05
0.000138453
-0.000229422
6.22443e-06
-1.25993e-06
-1.75041e-05
1.87575e-05
0.0016007
-0.00223763
0.000636929
4.26945e-06
-0.000153438
0.000149195
-1.53719e-05
-5.77971e-05
2.54013e-05
3.24009e-05
0.000767738
0.00140783
2.87917e-05
0.000413854
-0.000442671
2.26059e-05
0.000132058
2.58155e-05
3.15165e-05
0.000154402
0.000359416
-0.000513805
0.00430825
-0.00240455
-4.60689e-05
-1.17323e-05
0.00031805
-0.000191664
-0.000126384
-6.89923e-06
2.0176e-05
-5.49643e-05
1.78877e-05
6.00016e-05
0.000282866
-0.000219508
-6.33646e-05
0.000143631
8.8284e-06
-0.000152446
-0.000782063
-0.000658366
1.39498e-05
1.28889e-05
-8.77509e-05
0.00168845
-7.63715e-05
-0.000125728
0.000361038
-0.000320533
0.000230985
5.18801e-05
-2.18078e-05
2.2571e-05
-0.000204201
-9.78437e-06
0.000213991
8.40238e-05
-8.69385e-05
2.90824e-06
0.000272629
-0.000337651
-1.79656e-05
-5.24796e-05
-4.44416e-06
1.52845e-05
1.23032e-05
-3.07751e-05
-2.79631e-05
2.62387e-05
0.000239852
7.85163e-05
-0.00031839
-1.49922e-05
-4.85611e-05
2.23919e-05
-6.74935e-05
4.51019e-05
-0.000262361
0.000455155
-8.24762e-06
4.73788e-05
-3.91415e-05
0.000134933
5.08241e-05
-0.000185759
3.89594e-05
-2.21425e-05
-1.68274e-05
2.58194e-06
-1.46249e-05
7.25542e-05
2.46641e-05
3.4035e-05
-6.14993e-05
-2.38151e-05
5.59044e-07
2.32536e-05
-0.00017771
0.000242901
-6.51779e-05
-3.19621e-05
-3.86109e-05
7.06058e-05
3.16405e-05
1.7762e-05
0.000132931
-0.000140983
8.0756e-06
-2.54986e-06
-4.61879e-06
2.9528e-05
9.4296e-06
-1.94826e-05
1.94012e-05
7.9014e-08
-0.00012113
-1.53007e-05
0.000136457
-0.000344287
0.000354798
0.000557532
-0.000370879
-0.000107953
9.21247e-05
-0.000269836
4.78754e-05
-7.59711e-08
-4.77857e-05
-2.1552e-06
-2.11769e-05
0.0164892
-0.00450061
-0.0119886
3.1023e-05
-1.9566e-05
0.000209807
1.36193e-05
-0.000223411
0.000360558
-9.84773e-05
-0.000168773
0.000206611
0.000405291
-0.000225288
-0.000179978
-3.42527e-05
-0.000101987
5.63826e-05
0.000246245
-0.000302646
0.00291132
0.00570673
5.26584e-06
-2.23141e-06
-0.00106282
0.00167113
-0.00060831
0.000117343
6.53463e-05
-0.0134558
0.00816456
1.74576e-05
-3.19361e-05
0.0004198
0.000576454
-0.000996216
-7.91461e-06
2.034e-05
-1.23965e-05
0.00102346
-0.000849142
-0.00017432
-1.88018e-05
-9.79168e-06
1.86693e-05
-8.88273e-06
4.61527e-05
-2.79697e-05
-1.81869e-05
1.72445e-08
8.14198e-05
3.34509e-05
2.6852e-06
-3.29384e-05
3.02416e-05
1.36542e-05
-1.49177e-05
-2.68038e-05
2.94865e-05
-0.000247244
-1.00732e-05
0.000257325
-0.000783508
0.00118129
-0.000397786
5.00848e-06
-1.33787e-05
0.000953149
7.03127e-05
0.000116969
0.000265454
-0.000382454
0.000378546
4.12681e-05
-1.78541e-05
9.6059e-06
-1.34583e-05
1.9209e-05
-5.7471e-06
-0.000958542
0.000175032
0.000359235
-0.000483587
0.000124351
-0.0010424
3.42498e-05
2.42762e-05
6.37468e-05
3.78054e-05
-0.000101533
-9.93077e-06
2.90246e-05
0.000262427
-4.45036e-05
1.41563e-05
-0.000361193
0.000347044
-7.75573e-05
-0.00077159
-0.000167561
0.000386067
-0.00127079
0.000171627
9.12847e-05
3.74448e-05
1.36209e-05
-5.10658e-05
-1.68831e-05
-6.93482e-06
-0.00012213
0.000194792
5.39138e-05
-1.64691e-05
7.12567e-06
6.97746e-06
-1.41076e-05
0.000132472
-0.00026838
-0.00024619
0.000162831
8.33509e-05
7.78027e-05
-7.98324e-05
2.04206e-06
6.13524e-05
0.000256688
0.00125496
-0.00112525
-0.000129694
-0.000438201
0.000452336
6.74196e-05
-0.000314662
-0.000268208
2.57951e-05
-3.33096e-07
1.41552e-05
-1.3899e-05
-1.47379e-05
5.19075e-05
0.000314403
-0.000162266
4.50873e-06
-1.54514e-05
1.09429e-05
0.000262901
5.00255e-05
-0.000312921
-2.58468e-06
9.5191e-06
-2.1975e-05
1.24616e-05
-4.74792e-05
5.71604e-05
-9.68209e-06
0.00586697
0.00452355
-0.000403169
0.000294321
0.00010883
0.000506009
0.00105332
-0.000207485
0.000440894
-0.000233398
-0.0205553
0.027442
-0.00688669
-0.000429087
0.000210405
0.000218683
5.53196e-05
-9.0782e-05
0.000103034
-7.35486e-05
-4.11827e-05
1.74362e-05
0.000535748
-0.000613309
6.24579e-07
1.72558e-05
-1.78809e-05
-0.000183652
0.000446547
-9.17139e-05
2.45444e-05
-1.50257e-05
0.000262652
-5.28294e-05
-8.14244e-05
7.18707e-05
0.00203872
0.00233241
-0.00437114
-1.22376e-05
8.54983e-05
-7.32833e-05
-2.41851e-05
2.52259e-06
-0.000149486
-7.16606e-05
0.000221142
-0.000236057
0.000264857
-7.22232e-05
4.90103e-06
6.73601e-05
-3.29675e-06
8.15832e-06
-4.8557e-06
8.37956e-06
-1.49255e-06
-2.52242e-05
1.02277e-05
1.49985e-05
-0.0186751
0.0225832
-0.00390802
-0.00299113
0.00502985
0.000469688
0.000107682
0.000226287
-3.93373e-05
-5.72011e-05
7.52593e-05
-1.80565e-05
-0.00157246
-0.000934617
-1.68823e-05
9.93492e-06
6.94195e-06
9.24842e-05
0.000222863
-0.000315348
-2.5628e-05
1.58306e-05
-0.000268496
-2.89805e-05
0.000297476
1.03643e-05
-3.23991e-06
-0.000174976
0.000259015
-6.17303e-05
0.000117051
-0.000386476
0.000630823
-0.000244373
4.28784e-05
9.93837e-05
5.40398e-05
-2.8215e-05
-5.08295e-05
-9.86715e-05
5.56643e-05
-0.000327874
3.8524e-05
0.000331349
3.38362e-05
-2.49595e-05
8.66639e-06
1.63065e-05
-0.00420201
-0.00925376
4.78995e-05
-0.000175312
5.49304e-05
-0.000373025
-0.000237459
-0.000241317
0.000478824
-0.000166467
0.00018891
-3.37785e-05
1.30952e-05
2.06833e-05
4.80552e-06
-0.000407966
0.000663779
-0.000333184
0.000159003
-0.000548414
0.00147884
-0.00102501
-7.63277e-05
4.18137e-05
3.45159e-05
0.000229746
-2.42718e-05
-0.000205447
0.000669325
0.00036656
-0.00103589
-0.00641641
0.00488454
0.00153187
-0.00193497
0.00219019
-0.000255224
-0.000226962
0.000288785
0.000101502
-0.000390318
-6.91812e-05
9.93941e-06
5.92808e-05
-2.07982e-05
-4.42753e-06
0.00574243
-7.07261e-05
-0.000142526
0.000213273
-0.000231876
-0.000203808
-1.10898e-05
-1.38546e-05
-0.000555544
0.000309344
-2.19495e-05
1.24448e-06
2.07037e-05
0.000203509
-0.00981164
0.00960813
-4.50764e-06
2.45348e-05
-2.00353e-05
-3.39102e-05
6.26221e-05
-2.87158e-05
-0.0241955
0.00552038
0.00034294
-0.000111952
-7.81794e-05
-0.000190322
0.000742491
-0.000245578
-0.000496923
6.85176e-06
1.34261e-05
-6.06432e-05
-0.000167936
0.000228599
-0.000112731
0.000471976
0.000347083
0.000907876
0.000564101
0.00346671
0.000603674
6.56487e-05
7.95314e-05
-1.71563e-06
5.58416e-05
-1.26468e-08
2.06955e-05
-4.80733e-05
2.73904e-05
-0.00660895
0.00681246
-0.000135373
-7.21112e-05
2.22003e-06
1.56683e-05
-0.000155848
7.0451e-05
8.54347e-05
-0.000113098
0.000220544
-0.000107447
-0.000131197
0.000136113
-4.9041e-06
-8.07108e-05
-0.000124291
0.000216773
-0.000142882
0.000297688
-0.000154823
7.47671e-06
-4.85671e-06
-4.6826e-05
-5.25607e-05
0.000795048
2.03261e-05
8.94568e-05
-0.000109834
0.000106184
0.00255208
-0.000472425
-1.57323e-06
8.75324e-06
-7.16941e-06
8.27045e-06
-8.5239e-06
2.55732e-07
0.000162547
0.00018039
-3.09164e-05
7.73808e-06
2.31789e-05
-0.00448916
-0.00222991
0.00671907
2.45551e-05
-3.90405e-05
1.44801e-05
2.08202e-06
0.00202788
2.24507e-05
0.00218584
-0.0014181
0.000130277
1.33567e-05
-0.00049251
-1.97958e-05
0.000246343
-0.000228935
-0.000154612
0.000383529
-8.216e-05
0.000200949
-0.000118789
3.77304e-05
1.63065e-05
7.64934e-05
0.000338413
-0.000273714
-6.46956e-05
0.000672176
0.000258719
0.000119937
0.000150455
-0.000270435
-0.000149529
4.84605e-05
-9.48869e-08
1.15094e-05
-1.50614e-05
3.38653e-05
-2.35661e-05
-1.02893e-05
1.73408e-05
-2.54186e-05
-0.000300988
9.08885e-05
0.000210093
3.6006e-05
-4.15541e-05
-0.006742
0.00418831
0.00255371
-0.000195465
5.64205e-05
0.000139057
0.00566138
-0.00441872
-0.00124266
0.00224015
-0.000761317
-6.96284e-06
-1.82694e-05
-3.10795e-05
6.39048e-05
-3.28541e-05
0.000436523
0.00472806
-2.04832e-05
7.03157e-06
-6.8165e-06
1.10976e-05
-5.19906e-05
4.28623e-05
9.12998e-06
4.20733e-05
-4.82032e-05
6.12979e-06
-6.15523e-05
2.9607e-05
5.02175e-05
8.47055e-05
9.29197e-06
-1.94945e-06
-7.34354e-06
-0.00614025
-0.000276168
0.000124046
-0.000402822
0.000278774
-2.62493e-05
-0.000129573
0.000170166
-0.000972876
7.31947e-06
7.98631e-06
-1.531e-05
-3.07731e-05
8.33856e-05
-0.000116838
-1.24404e-05
-4.09107e-06
4.61642e-05
1.21033e-05
2.82267e-07
-0.00027224
0.000211598
0.000174854
-0.00280142
0.00262656
5.41569e-06
-1.47512e-05
9.34702e-06
-5.18815e-05
2.1932e-05
2.99497e-05
-2.67634e-06
-3.15183e-06
5.83435e-06
5.78755e-06
-0.000130438
0.000124642
-2.72517e-05
-2.99534e-05
1.25749e-06
3.93969e-06
6.81462e-07
1.06735e-06
-0.000105312
0.00111642
0.00454497
5.58653e-05
7.18431e-05
0.000289465
0.000129278
-6.75584e-05
7.86769e-05
-1.10891e-05
-0.000248644
3.46688e-05
-3.5322e-05
5.77066e-05
0.000384956
4.87755e-05
-0.000410008
9.67548e-05
0.000183068
0.000305703
6.86558e-05
-0.000374399
-0.000187314
-0.000197586
0.0003849
-0.000272747
0.000329101
4.08022e-05
-2.07234e-05
-2.00784e-05
-3.90129e-06
-0.00673811
-0.000552397
0.000430976
0.000121415
2.94827e-06
1.76799e-06
-4.71702e-06
7.90356e-05
3.70021e-05
-0.00011603
0.000768381
0.00141746
1.98291e-05
2.09737e-05
4.4003e-06
-8.90774e-06
-3.21563e-06
-0.000822941
-0.00366622
0.00952302
0.00696616
-0.00244761
0.00699546
-8.90181e-05
0.000169821
-8.08036e-05
0.00112522
-0.000161414
-0.000963805
0.000189759
0.000922513
-0.00111224
-0.00118215
3.95291e-05
-7.1452e-05
3.19228e-05
0.000159922
-0.000213408
5.3485e-05
-0.000156924
0.000205707
-9.92423e-05
7.3029e-05
0.00118854
0.00048261
-0.00038994
0.000237131
0.000177855
-0.000415
0.0014848
-0.00429238
0.00280758
-8.141e-06
1.26494e-05
-8.21183e-06
-4.36701e-05
-2.00775e-05
1.92354e-05
-6.15602e-05
1.07124e-05
-6.75715e-05
-0.00048483
-0.00582788
0.00283515
0.00299274
0.00203543
-0.00470553
-3.21532e-05
2.52907e-05
6.86054e-06
0.000251791
0.00051025
-0.00076204
-5.2867e-05
0.000131908
7.46387e-05
-8.2848e-05
8.23374e-06
2.55548e-05
-0.000471364
0.000280465
0.000190922
-1.3279e-05
1.43255e-05
-1.05119e-06
-3.27869e-05
-2.87807e-05
4.0241e-06
4.02464e-06
6.8633e-06
2.70031e-05
2.92141e-05
4.33382e-05
0.000181004
0.000157399
-1.20697e-05
-7.42292e-06
-4.04934e-05
6.69681e-05
-2.64649e-05
-0.000207528
0.000459319
3.02764e-05
0.00465617
0.00584529
3.74907e-05
-2.44506e-05
-1.3061e-05
4.02818e-05
-1.40686e-08
-4.02669e-05
0.000941015
-0.000711741
-0.000229269
-1.45399e-05
2.92864e-06
0.000551927
0.000208082
-0.000760029
-2.01991e-08
3.01619e-05
-3.01425e-05
-4.91201e-05
-0.000251869
-4.42224e-05
1.84912e-05
2.57309e-05
1.55966e-05
-5.09778e-06
4.59185e-06
5.02457e-07
-1.37156e-05
1.91366e-05
-4.94211e-05
6.30261e-05
-0.000169962
0.000172887
-2.90155e-06
-0.000151447
0.000254513
-0.000103069
0.000379
-0.00029763
-8.13736e-05
1.9131e-05
1.83638e-05
3.10181e-05
-5.66755e-05
2.56569e-05
0.00161824
0.000933828
0.00167908
-0.00286515
-1.32078e-05
-5.52267e-05
-3.24854e-05
8.21673e-05
-0.000588546
0.000593367
-5.86099e-05
-1.80537e-05
7.66685e-05
-9.01731e-06
1.86711e-05
-9.65511e-06
-2.28984e-05
1.80114e-05
4.88241e-06
-0.000213309
1.98195e-05
-1.91951e-05
8.95706e-06
9.95706e-07
-0.000136718
-1.69504e-06
-2.12061e-05
0.000324481
0.000463833
-0.000788332
-0.000182856
0.000422725
-0.000480719
0.000293376
2.2628e-06
0.00040304
1.85423e-05
-0.0211134
-0.0012715
0.00352023
-3.04747e-05
0.000264236
-0.000334975
-1.91488e-05
2.30761e-05
-3.91938e-06
4.34892e-05
-9.60755e-05
5.25837e-05
0.00599754
-0.00433779
-3.23125e-05
1.03379e-05
-5.30164e-07
-9.87061e-05
-2.46261e-05
3.89699e-05
-1.50728e-05
1.50581e-05
-1.51505e-05
9.52884e-08
-4.8956e-05
2.45562e-05
2.4408e-05
0.000237689
-0.000276238
-0.000152847
-1.56421e-06
6.69635e-06
-5.13325e-06
-9.64647e-05
1.77483e-05
-7.63666e-05
-1.52191e-05
0.000122596
1.22561e-06
-1.5471e-05
0.00419632
-0.0037598
6.60871e-05
-3.63822e-05
-2.96858e-05
-0.000128517
7.65302e-05
3.7098e-05
-2.27589e-05
-1.4333e-05
0.000570852
0.000758843
-0.00011718
0.000103953
1.32333e-05
-0.000299055
0.000113405
0.000185646
4.89993e-05
-5.04238e-05
1.46098e-06
-2.93438e-05
2.72271e-05
2.12449e-06
1.58796e-07
-2.14277e-05
-0.000333923
0.000420831
-8.68934e-05
0.000241347
-8.14217e-05
-1.87055e-05
2.31089e-05
1.17135e-05
8.99936e-06
-2.07221e-05
0.000897671
0.000227555
0.000120291
0.00832995
5.11875e-06
-1.41361e-05
-0.000349903
0.000383532
-3.35941e-05
9.49989e-06
1.39038e-05
-1.39062e-05
-8.5849e-05
-4.54464e-05
-0.00435312
-0.00147476
-1.0758e-05
5.71023e-06
5.0456e-06
-0.000555799
3.44783e-05
0.00557467
1.90653e-06
-2.35336e-05
-2.62268e-05
3.26712e-05
-6.44644e-06
2.33097e-05
-2.4871e-05
-0.000335272
-0.000148329
-9.25298e-06
-1.94653e-05
0.0102272
-0.00679779
-0.00342938
0.000115052
-1.36905e-05
8.68745e-05
-7.31604e-05
0.00245285
0.00185541
-7.61426e-05
6.39017e-05
0.000214944
-0.000357835
-1.98355e-05
-1.24764e-05
6.62132e-05
-8.04974e-06
-1.10999e-05
0.000238063
-0.000165472
-7.25826e-05
-9.75289e-06
-2.01299e-05
0.000104866
-2.50754e-06
-0.000606924
0.00036948
-0.000673663
0.000287189
-1.64897e-05
2.43528e-05
-1.10551e-06
-5.25138e-07
1.66327e-06
-1.94204e-05
3.38333e-06
1.60439e-05
0.000210724
5.62903e-05
-0.000267037
5.07198e-05
0.000476879
0.000218514
0.000528705
-0.000747209
-0.000411546
-0.000109617
-0.0105125
0.00033401
-0.000236409
-9.75897e-05
7.3083e-05
-0.000125341
3.84165e-05
1.05953e-05
0.00440143
-0.001793
-0.00260844
-2.37786e-05
-6.27311e-05
0.000167007
-0.000104258
-0.000246945
0.000366887
-0.000201297
-4.12965e-05
0.000242593
-0.000464962
0.000115078
-3.30864e-05
2.52412e-05
7.83573e-06
0.00260192
0.00159984
-0.00420177
0.000332988
-0.000495828
0.000162839
-0.000423391
-0.000200107
0.000623493
9.46154e-05
0.000110176
-0.000204771
1.06178e-05
3.73013e-05
-0.000456925
0.000419623
-0.000275311
-0.00021154
0.000486862
-1.55291e-05
-1.02262e-05
2.57562e-05
-7.52505e-05
2.25835e-05
5.26545e-05
-2.77858e-06
6.14893e-06
-3.36033e-06
0.00177075
0.00263067
2.67948e-05
-4.33666e-05
1.65681e-05
-3.46182e-06
-1.6684e-05
5.00853e-06
-1.40286e-07
-1.05107e-05
-4.61669e-05
-0.000249472
0.00168835
-0.000423245
8.93232e-05
3.10098e-05
-1.04173e-05
-2.05937e-05
0.000357148
7.0005e-05
-0.000427132
3.28452e-05
1.26166e-06
-3.41035e-05
3.52765e-05
-0.00059107
-1.43289e-05
-5.09428e-06
-2.4961e-05
2.8065e-05
-3.10586e-06
0.000598205
-0.00138025
0.00756643
2.2488e-05
-1.79415e-05
0.000252515
0.000869128
-0.000204538
0.000217928
-1.34125e-05
-3.29083e-06
-8.31631e-06
1.16006e-05
0.000222483
-0.000566783
8.0851e-06
6.97229e-06
-9.93802e-07
6.97161e-06
-5.96238e-06
-6.99985e-06
5.4224e-06
1.48812e-06
2.95448e-05
3.98961e-06
-0.0001034
9.93892e-05
-8.05858e-06
4.365e-06
5.49963e-06
-3.76237e-06
-1.7499e-06
-0.00134208
0.00102064
0.000321457
0.00106338
-0.000512261
-0.000551129
-2.51288e-05
1.66461e-07
-1.24557e-05
6.93601e-08
1.23864e-05
-5.29432e-06
2.18759e-05
-0.00266175
0.0010893
0.000449133
-4.55338e-05
-0.000403598
-0.000281114
0.000257602
2.35259e-05
7.06388e-05
8.31968e-05
4.97384e-05
5.48376e-06
-2.15586e-06
7.8743e-06
1.13354e-05
-2.36404e-05
1.68449e-06
7.46004e-05
-1.28824e-05
0.000119042
-0.00112782
0.00130267
-4.7139e-06
-2.04356e-05
2.51495e-05
0.000347561
2.4903e-05
-1.54378e-05
-9.45853e-06
0.000357419
-7.77892e-05
-0.000279605
-0.000155736
-0.000208799
0.000364552
-1.73102e-06
4.20102e-05
2.29545e-05
-6.75148e-06
1.48382e-05
0.000133783
0.000125159
-0.000258987
0.000153213
-7.58257e-05
-7.73714e-05
-3.76533e-06
-2.34935e-05
2.59257e-06
-0.000248711
0.000200815
4.7926e-05
-0.000139542
-0.000198124
-1.32302e-06
1.4579e-05
-1.321e-05
7.94616e-05
7.81696e-05
-0.000157624
-0.00405879
0.00580706
-0.00174826
0.000529548
-0.000368622
6.62724e-06
-8.85951e-06
-6.8696e-06
3.04937e-06
3.83451e-06
-0.0121371
0.00793509
5.85825e-06
-3.57183e-05
-3.34557e-05
1.47104e-05
0.000231778
-6.08704e-05
-0.000170924
-0.000290623
0.000194101
9.65342e-05
0.000338976
2.55895e-05
-1.3882e-05
-0.00355249
0.0075004
-0.0039479
-0.000467854
0.000854671
1.45066e-05
1.12058e-05
-2.01704e-05
4.64017e-06
1.30093e-05
4.80645e-06
-1.78122e-05
-1.24247e-05
0.00169925
0.000540915
3.80836e-06
1.55915e-05
-3.52249e-06
-3.3635e-06
4.45594e-06
-7.7497e-06
-8.00425e-05
5.37235e-05
0.000304192
-5.56453e-05
-0.000248578
3.73627e-06
0.000766708
0.00342962
-0.000309658
0.000269914
3.97652e-05
-1.50477e-05
2.22162e-05
-9.38195e-06
2.16489e-05
-1.22664e-05
-0.000152462
-1.42659e-06
5.03171e-06
-3.60277e-06
5.78471e-05
-0.00043209
0.000374241
-0.00022624
0.000204152
2.20757e-05
5.51166e-06
-5.53683e-06
1.17633e-06
-4.69275e-06
0.00017138
2.20165e-06
-0.000173571
0.00340417
0.00419965
-0.00760383
-0.00688825
0.000198409
0.00668985
-1.90942e-05
1.58068e-05
3.28964e-06
-0.00261407
-0.000259574
0.000196843
-1.26355e-05
-6.45725e-07
-4.10418e-06
2.65885e-05
0.000293867
4.01369e-05
-0.00039868
-2.4689e-05
0.000137316
-0.000289531
0.000152207
-0.00023374
-6.53193e-05
1.11485e-05
1.56474e-05
0.00638345
9.15128e-05
-0.00647494
-2.24456e-05
8.11922e-06
0.00514351
0.00508367
1.71903e-05
-4.16852e-06
-7.99367e-06
-1.31251e-05
-1.02996e-05
2.34262e-05
-0.000235528
0.000121464
0.000586985
-0.000262507
1.99057e-05
3.17467e-06
1.11882e-05
2.65587e-05
0.000123904
-2.06189e-05
1.0919e-05
9.69996e-06
0.00146385
-0.000400479
-0.000369878
7.28219e-05
0.000297147
-2.33246e-05
-4.67573e-05
-0.000227456
-6.47938e-05
7.50118e-05
-1.02179e-05
0.0111068
-0.00596334
1.33678e-05
-7.17397e-05
-1.14072e-05
4.87264e-06
0.000131179
0.000138573
9.32194e-05
-0.000388396
-2.43847e-06
4.33405e-05
-5.70281e-05
0.000350714
-0.000128062
0.000172653
-4.45659e-05
0.0013883
-0.00913243
0.0030754
-0.000622545
-3.61429e-05
0.000403341
-0.000367213
-0.00013084
4.07925e-05
-0.00839009
-0.00248091
0.010871
0.00013131
-0.000299242
0.000132474
-0.000125981
-6.4904e-06
-3.47851e-05
1.11272e-05
0.000154458
0.000143231
-0.000251415
-0.00011844
-0.000343422
-7.07774e-05
0.000414218
0.000730188
-0.00207228
-2.09652e-05
2.39673e-05
-3.01392e-06
0.00981375
-0.0143144
5.60206e-06
-6.60832e-06
1.01134e-06
-1.90968e-05
3.92651e-05
0.000616794
-0.000578667
-3.81443e-05
-4.61593e-06
3.19936e-06
4.35713e-06
-1.2744e-05
8.39334e-06
4.12476e-06
-7.39208e-06
-2.91689e-05
2.22141e-05
-6.1862e-05
0.000217057
-0.000155177
-0.000289808
-0.000113018
-0.000932835
0.000584052
0.000348781
-0.00187677
0.00686884
-0.00499206
-2.16616e-05
2.35663e-05
-6.50373e-06
-1.88647e-06
8.39629e-06
-9.19221e-06
1.70628e-05
3.12386e-05
2.27004e-05
-5.39402e-05
-5.76131e-05
-2.79018e-05
2.8879e-05
-9.79463e-07
-0.000105108
-9.89889e-05
0.000204095
-1.71109e-05
-0.000178367
2.08738e-05
-2.78464e-05
6.96528e-06
6.50081e-05
1.94782e-06
0.00293763
-0.00217092
-3.58646e-05
2.14384e-05
9.00962e-05
-0.000111525
-0.000117849
-0.000470689
1.39058e-06
6.88964e-06
-0.000107083
0.000258179
-0.00015111
-0.000282345
0.000985369
-0.000703038
0.00290843
-0.0112985
-4.19711e-06
7.13855e-06
3.69099e-05
-0.000422585
-1.46636e-05
6.14506e-06
8.53287e-06
-0.00256982
0.00330001
-8.04798e-05
1.56838e-05
0.00127047
-0.00815871
-0.000174473