/*--------------------------------*- C++ -*----------------------------------*\
| =========                 |                                                 |
| \\      /  F ield         | OpenFOAM: The Open Source CFD Toolbox           |
|  \\    /   O peration     | Version:  v2012                                 |
|   \\  /    A nd           | Website:  www.openfoam.com                      |
|    \\/     M anipulation  |                                                 |
\*---------------------------------------------------------------------------*/
FoamFile
{
    version     2.0;
    format      ascii;
    class       volScalarField;
    location    "200";
    object      nut;
}
// * * * * * * * * * * * * * * * * * * * * * * * * * * * * * * * * * * * * * //

dimensions      [0 2 -1 0 0 0 0];


internalField   nonuniform List<scalar> 
13726
(
0.00506076
0.00650582
0.00375798
0.0059135
0.00122318
0.00559009
0.00648792
0.00671137
0.00110679
0.00141574
0.000978235
0.00679085
0.0064669
0.0327265
0.00597268
0.0063929
0.0012207
0.00623384
0.0326613
0.000876895
0.0239645
0.00681814
0.0067932
0.00352023
0.0067495
0.00695197
0.00283969
0.00695275
0.00677182
0.00286506
0.0231358
0.00671126
0.0324959
0.00454238
0.0101695
0.0383786
0.00223449
0.00841107
0.0067566
0.00662045
0.00147353
0.00941506
0.00670359
0.00684373
0.0049256
0.00678953
0.0120582
0.00692989
0.00135446
0.00650746
0.0331426
0.00691624
0.00460988
0.00623782
0.00209165
0.00589411
0.00425556
0.0045113
0.00171533
0.00361261
0.0424105
0.00684808
0.0145132
0.00682643
0.00299718
0.00686617
0.0229026
0.0289303
0.00687774
0.00129131
0.0106074
0.00672548
0.00642029
0.00448923
0.0326596
0.040747
0.00138156
0.0451891
0.0323082
0.00198227
0.000563285
0.0017411
0.00220243
0.00645101
0.00671613
0.0246556
0.00202692
0.00379491
0.00647
0.0265652
0.00678658
0.0015401
0.00680153
0.0021945
0.0296891
0.031633
0.00222665
0.00679321
0.00686649
0.0339288
0.00499242
0.0015922
0.00497998
0.00687408
0.00356166
0.00146386
0.00154049
0.00685022
0.00663829
0.00216078
0.00113017
0.00688372
0.0321529
0.0422821
0.0449811
0.00669533
0.0134148
0.0252732
0.00471438
0.00343249
0.000335602
0.00639241
0.00356127
0.032409
0.0320486
0.0118159
0.00683734
0.00416343
0.00688291
0.00509663
0.0423161
0.021991
0.00502864
0.00154068
0.0258325
0.00143223
0.00454629
0.0186864
0.0330492
0.0391987
0.00148873
0.0247675
0.00689785
0.00695136
0.00546398
0.00200497
0.0252546
0.00222046
0.00400125
0.0323583
0.00681123
0.00641712
0.00153029
0.0022192
0.00690332
0.00374651
0.00183517
0.00749088
0.0296318
0.00666438
0.00649508
0.00641229
0.0176567
0.0356124
0.00693638
0.00382343
0.039168
0.00643388
0.00487688
0.00653132
0.00359946
0.0035464
0.0089178
0.00273229
0.0453544
0.00440067
0.00695913
0.0240628
0.0299983
0.00637719
0.0339294
0.00689803
0.0146828
0.0154339
0.00695618
0.00691795
0.00640948
0.00494717
0.00680617
0.00195366
0.0387324
0.00719568
0.00387476
0.00438185
0.00677277
0.00692043
0.00670111
0.0211254
0.00823637
0.00238017
0.00318084
0.019086
0.00536266
0.00473036
0.00643392
0.00691659
0.00437777
0.0274256
0.00335366
0.0016833
0.00150375
0.0305982
0.00384609
0.006807
0.0451024
0.0324893
0.00335527
0.00661626
0.00609271
0.0320614
0.00242788
0.00114108
0.00565389
0.0384908
0.00690962
0.0231453
0.00115654
0.0452944
0.0302713
0.00536513
0.0352646
0.00469118
0.0335118
0.0441187
0.00513793
0.00684588
0.0169115
0.0270981
0.0206853
0.0294631
0.00687368
0.00669946
0.00683913
0.0283147
0.00741637
0.0240206
0.00149755
0.00211444
0.00658155
0.00158553
0.0326024
0.00420728
0.0309346
0.0020687
0.00258519
0.00227006
0.00319704
0.0313106
0.0364045
0.00248708
0.00466484
0.0188413
0.00151972
0.00656028
0.0342516
0.0281802
0.00640236
0.00685364
0.00670583
0.00315959
0.0117878
0.00275868
0.032236
0.00479699
0.0361682
0.0423169
0.0324764
0.0177399
0.00286831
0.00666872
0.0379744
0.00250694
0.00396835
0.00318808
0.0273743
0.00642598
0.0136876
0.00380888
0.00218097
0.00688935
0.0099669
0.00263575
0.006858
0.0355468
0.0281836
0.00218643
0.00184842
0.00693141
0.0233475
0.0065687
0.00336345
0.0387986
0.00104401
0.00684638
0.00378302
0.00411097
0.0142463
0.0335343
0.00292624
0.00159667
0.0257143
0.00130001
0.0248563
0.000922393
0.00687497
0.0153614
0.00683054
0.0221808
0.0343346
0.0316921
0.0212948
0.000779141
0.00689785
0.00470734
0.00938249
0.00217649
0.00684463
0.0378869
0.00678199
0.016125
0.00528577
0.00443939
0.00643502
0.00302538
0.00116582
0.00679492
0.00635314
0.00191496
0.00630387
0.00112029
0.005696
0.0281064
0.0449474
0.0150851
0.00485084
0.00209415
0.00626679
0.00324349
0.0016681
0.00696986
0.0300615
0.0284
0.0314914
0.00644239
0.00338181
0.00585869
0.00685176
0.0169157
0.00163742
0.0022895
0.0067112
0.00112618
0.0337206
0.00683063
0.001786
0.034116
0.0317466
0.00684214
0.00630459
0.00630628
0.00185097
0.00643577
0.00648268
0.00608038
0.0021378
0.00620689
0.00672326
0.0218402
0.00306488
0.00211225
0.00688908
0.00652111
0.00688123
0.0338001
0.022059
0.0281071
0.0351583
0.00132324
0.00677628
0.00232171
0.00689991
0.00679184
0.00505811
0.00675157
0.00653716
0.00178272
0.0362314
0.0363888
0.00195031
0.00652884
0.00688811
0.00644013
0.00395421
0.00125694
0.00301851
0.00115895
0.00187732
0.00688114
0.03231
0.0217046
0.0284387
0.0035927
0.0223695
0.0254282
0.00107714
0.00557913
0.0392221
0.0350969
0.0115306
0.0336325
0.0280263
0.0131275
0.00682186
0.00161152
0.0159167
0.00589401
0.0120123
0.00696808
0.00691757
0.000942018
0.0310788
0.0332171
0.0306663
0.0334487
0.0017564
0.00603052
0.00689804
0.00590061
0.00191637
0.00212868
0.00678516
0.0198682
0.00619661
0.0187329
0.00147768
0.00677995
0.0341941
0.00665284
0.00687549
0.0010665
0.00600979
0.0291761
0.0431349
0.00682609
0.0369926
0.00659157
0.0320063
0.0363235
0.00696806
0.00243347
0.00165436
0.0371116
0.00188176
0.0359481
0.000918986
0.00143156
0.0337995
0.0248692
0.00651957
0.0324872
0.00141524
0.00690458
0.00625588
0.00689983
0.0324463
0.00695908
0.0176734
0.000808785
0.038779
0.00382382
0.0218055
0.00673007
0.00695256
0.030296
0.0068419
0.00613834
0.00640767
0.00617335
0.0387414
0.0326597
0.00302836
0.00195574
0.00570567
0.0386152
0.0326438
0.00287409
0.00213786
0.0371756
0.0241301
0.00678656
0.00644644
0.0198716
0.00578074
0.00127361
0.00480625
0.00679097
0.0419632
0.0194964
0.00679096
0.00697187
0.00356831
0.0187237
0.00696972
0.00337012
0.00695034
0.021358
0.00166528
0.00676364
0.0038798
0.00261278
0.00686124
0.00155099
0.02448
0.0156134
0.00219941
0.00140602
0.0421453
0.00220918
0.0068238
0.00227049
0.00193303
0.00125469
0.0449091
0.00448538
0.0204517
0.0045529
0.0051443
0.0371405
0.00163492
0.00234545
0.0259647
0.00647571
0.00407859
0.00249779
0.0013428
0.0252413
0.00158521
0.00682175
0.0104118
0.00680146
0.00684777
0.020659
0.00623071
0.0324163
0.00399716
0.00459332
0.00640203
0.0385661
0.0174961
0.0389459
0.0333201
0.00470409
0.0375452
0.00420414
0.0302336
0.0102634
0.00384657
0.00684918
0.0366247
0.00123267
0.0254234
0.00695441
0.00682532
0.035107
0.00639359
0.0329457
0.00461899
0.00179811
0.0022958
0.00254354
0.0317453
0.0134588
0.00615369
0.00696123
0.0199487
0.00683587
0.0326912
0.0206575
0.00695855
0.0263262
0.00632338
0.00104045
0.00623333
0.00223789
0.0272259
0.00677297
0.0246675
0.00356534
0.000765641
0.0309022
0.00495592
0.0067912
0.00674812
0.00687657
0.00637038
0.0406511
0.0323136
0.0210545
0.00579928
0.0170798
0.0449599
0.0326924
0.00169177
0.0346116
0.0219326
0.00354982
0.00452186
0.00695227
0.0363405
0.00263882
0.00663162
0.00468347
0.0323552
0.0377502
0.00137866
0.00680726
0.00139495
0.00165838
0.00694353
0.00615711
0.0377674
0.00592134
0.0326265
0.00694997
0.0155655
0.00188142
0.00679359
0.00256475
0.00481847
0.00397768
0.0133214
0.00327317
0.00445517
0.0231271
0.0016364
0.0352552
0.00276491
0.00107854
0.0264018
0.00195968
0.00131184
0.00158038
0.0355531
0.00683287
0.0206719
0.00543697
0.00677719
0.00392258
0.0293553
0.00683191
0.00680279
0.00691534
0.0235534
0.0202397
0.00531868
0.00688439
0.005603
0.0445218
0.0431367
0.00689985
0.0380181
0.00147834
0.0369091
0.0366888
0.00152852
0.00182323
0.00760832
0.00691264
0.00694803
0.0334053
0.00544752
0.0054398
0.0015396
0.00716854
0.00683877
0.00651811
0.00375575
0.00346188
0.0240024
0.00355798
0.00664559
0.00411288
0.0065246
0.00640428
0.00487961
0.00284143
0.00628631
0.0299763
0.00658878
0.0015922
0.00701055
0.00697536
0.00696862
0.00437419
0.00662079
0.00125805
0.00176835
0.0409825
0.00693681
0.0300556
0.0068298
0.0330076
0.0373953
0.00245601
0.00249759
0.00180232
0.00696976
0.00690207
0.00233717
0.00434193
0.00692301
0.0299382
0.0267914
0.00140732
0.0381758
0.0064775
0.00377064
0.00685661
0.00649446
0.00695362
0.00302508
0.00406293
0.00141027
0.0215078
0.00152526
0.000766215
0.0294294
0.0173497
0.00511467
0.00365527
0.00253779
0.00693893
0.00686151
0.00540466
0.0324361
0.0364508
0.0016275
0.00680956
0.00685498
0.0313826
0.00307491
0.00670955
0.00690541
0.00213568
0.0384644
0.00133545
0.00228699
0.00629463
0.034593
0.033753
0.00437469
0.0257938
0.00228873
0.00693552
0.0238576
0.0372657
0.0343884
0.00656376
0.00312113
0.0374631
0.00679676
0.0188375
0.00554441
0.00173115
0.00567637
0.00650919
0.00194227
0.0165603
0.00684174
0.00682187
0.00464504
0.00347406
0.00683624
0.029127
0.0151015
0.00686171
0.00681038
0.00691077
0.0210403
0.00655213
0.0228557
0.0221952
0.0280677
0.0349156
0.0385758
0.0360527
0.0326229
0.00481236
0.00695294
0.0278098
0.00658044
0.0387415
0.0430744
0.0241849
0.00658618
0.00654404
0.0069101
0.00419793
0.00675717
0.0431508
0.00519346
0.0186771
0.0356649
0.0010811
0.0349657
0.00518765
0.03322
0.0036413
0.0342669
0.00370562
0.00223846
0.00683009
0.00253363
0.00202123
0.00103394
0.00445191
0.00696145
0.00652105
0.0183031
0.0065528
0.00642976
0.0159332
0.00505484
0.00656944
0.00641378
0.00333728
0.00688873
0.00521722
0.00319021
0.00665767
0.00463807
0.00696302
0.031503
0.00690366
0.00663302
0.00233687
0.03388
0.00693374
0.00571959
0.0258493
0.00471225
0.00136376
0.00685286
0.033707
0.0327425
0.0281028
0.00139054
0.0185459
0.00683757
0.00484569
0.00375241
0.00665984
0.00632296
0.0180196
0.00246826
0.0398324
0.00671227
0.00227958
0.00685985
0.00174815
0.0164104
0.0203454
0.00681849
0.00306735
0.00217332
0.0059431
0.00693838
0.00674859
0.0328234
0.0150616
0.00423744
0.00696214
0.00322216
0.00683948
0.037678
0.00358598
0.0067927
0.0124528
0.00195642
0.00203892
0.00656685
0.0252795
0.0132698
0.00299918
0.00678729
0.00821755
0.013251
0.00684532
0.0265181
0.0230711
0.0189602
0.038795
0.0345794
0.0217505
0.00503356
0.0017332
0.00653161
0.00649136
0.0328166
0.00695093
0.0445178
0.00651777
0.00649214
0.0262808
0.00208898
0.0423538
0.00279155
0.028756
0.00253502
0.00654327
0.00687599
0.00195128
0.00707852
0.00670157
0.0195759
0.00163746
0.00405815
0.000838269
0.00519115
0.0124811
0.00696984
0.0154617
0.00325434
0.0066305
0.00693799
0.0338165
0.00103211
0.00479295
0.0254173
0.00663896
0.0197664
0.00689081
0.0270602
0.0333421
0.0330751
0.00638119
0.00686124
0.00166394
0.00692981
0.0330742
0.0293401
0.00655048
0.00383931
0.000862222
0.0364987
0.00246662
0.00696501
0.0276574
0.00648166
0.00697123
0.0180468
0.0201284
0.0423232
0.00504661
0.0294139
0.00163
0.0387794
0.0106195
0.0351414
0.0437716
0.00173691
0.0314866
0.040091
0.0289968
0.0348035
0.006702
0.0355426
0.000748517
0.00320232
0.00438128
0.00697729
0.0192989
0.00697776
0.0316547
0.0317856
0.00426477
0.0279349
0.0166583
0.0329595
0.0207402
0.0315144
0.0064293
0.0284383
0.00684351
0.0171618
0.0180503
0.0069455
0.0241815
0.00697009
0.00686091
0.00550025
0.00678281
0.0279043
0.0283939
0.00697378
0.00615107
0.00254274
0.0148504
0.00163089
0.00112878
0.0271764
0.00678131
0.00207727
0.00642948
0.0135494
0.00470198
0.00696059
0.0139626
0.002165
0.000481544
0.038692
0.00670723
0.0269822
0.00234889
0.0367586
0.0188138
0.0431395
0.00333637
0.00453738
0.00610682
0.0349987
0.00619848
0.00183229
0.00686853
0.00689224
0.0379154
0.00579727
0.00680184
0.0225306
0.00200747
0.00601768
0.0292948
0.00678737
0.00634828
0.0305821
0.0258284
0.00543425
0.0109829
0.00678486
0.0248517
0.00423744
0.0050597
0.00687448
0.0065463
0.00695058
0.00356914
0.0396395
0.00674973
0.0174587
0.00147568
0.0353373
0.00690053
0.00651721
0.00368865
0.00782576
0.00697198
0.00317102
0.0296865
0.00688654
0.00138869
0.00682207
0.0147193
0.00312619
0.00171516
0.00226873
0.0301316
0.00682355
0.00599921
0.000446059
0.0228408
0.00270607
0.0279581
0.0062385
0.0388623
0.0420596
0.00653886
0.00602203
0.0218898
0.00127131
0.00257263
0.0196744
0.00213947
0.00339557
0.00217136
0.00689897
0.00817039
0.00128151
0.00680044
0.0282027
0.0300802
0.00648957
0.000881469
0.016089
0.0442931
0.0107036
0.0054035
0.00155517
0.0328145
0.00693056
0.00417704
0.0319023
0.00679017
0.0255953
0.00688918
0.00688286
0.0173147
0.000547275
0.0247399
0.00110688
0.0023811
0.00681991
0.0328286
0.0314757
0.00653336
0.000997494
0.0358874
0.0064918
0.00594644
0.00240934
0.00183117
0.0292234
0.00624322
0.00694301
0.00125114
0.00551045
0.0207136
0.03095
0.0201523
0.00119216
0.00675606
0.00684276
0.0313871
0.00151185
0.0385652
0.00153541
0.00290827
0.00223224
0.00688098
0.00330181
0.000771615
0.0293252
0.00378477
0.0125022
0.0269448
0.0069322
0.0449732
0.0275593
0.0101443
0.0277091
0.00687415
0.0278524
0.00300379
0.0237525
0.00582038
0.00217077
0.0314784
0.00456986
0.00660997
0.0270602
0.00260647
0.0351582
0.0322959
0.00190485
0.03903
0.0326076
0.00694759
0.0202982
0.0229079
0.0069701
0.00606945
0.0378301
0.0043908
0.0026646
0.00626347
0.00679955
0.0288764
0.00689446
0.00183979
0.0190833
0.00664733
0.00696145
0.0031303
0.0284277
0.0067132
0.00695236
0.00333499
0.00637974
0.00535695
0.0453854
0.00687691
0.00680682
0.0125804
0.00680141
0.0209442
0.00646288
0.0269017
0.00595332
0.0211882
0.0277488
0.0069731
0.0390865
0.00654097
0.00184858
0.00672847
0.00697566
0.0175285
0.00696943
0.0176206
0.00697669
0.00628283
0.00155707
0.018496
0.0069712
0.00245569
0.00629139
0.00420979
0.00678655
0.00135307
0.0063869
0.0247574
0.011979
0.00610613
0.00688281
0.0320332
0.00621418
0.00677112
0.00691972
0.033007
0.0216111
0.0241191
0.00113646
0.00335031
0.0114749
0.00191939
0.0435555
0.0280618
0.00640718
0.00684961
0.0343427
0.00222016
0.00684924
0.0237215
0.0396949
0.0309904
0.00654301
0.0034014
0.00305994
0.00637535
0.00310077
0.0117524
0.00129365
0.0065061
0.0191298
0.00675858
0.0064859
0.00189498
0.00728914
0.00674958
0.0292198
0.00669939
0.00381706
0.00313566
0.00261023
0.00691514
0.0246561
0.0190205
0.00697496
0.0340783
0.0069201
0.00676121
0.0299658
0.0215651
0.00686778
0.0203992
0.00628999
0.00677834
0.00682524
0.0401966
0.0316548
0.00680414
0.0436718
0.0360696
0.0257294
0.00156464
0.0235532
0.0186502
0.00159417
0.0173779
0.00652503
0.00621085
0.0067905
0.0344367
0.0178338
0.0138038
0.0186704
0.00683408
0.00696716
0.00697245
0.00128881
0.00225566
0.00682102
0.00683776
0.0069677
0.0371276
0.00682647
0.00677642
0.00682747
0.0393227
0.00694752
0.00684193
0.00629134
0.041084
0.00691152
0.00630227
0.00325612
0.0146685
0.00654717
0.00144007
0.00294131
0.00502018
0.000653231
0.0297364
0.00363021
0.0174562
0.0189612
0.00606016
0.00683622
0.00690293
0.00629675
0.00340464
0.00146955
0.0043293
0.0176956
0.00682509
0.0052452
0.00534108
0.00691792
0.00683487
0.00676827
0.00544592
0.006975
0.00260871
0.00161012
0.0348331
0.00957418
0.00196956
0.00101931
0.00691553
0.0016896
0.0243121
0.00695383
0.00479793
0.0177746
0.0196241
0.00679902
0.0358973
0.00253554
0.0308737
0.00686166
0.00676628
0.00691586
0.00204186
0.00384668
0.00243455
0.0162138
0.0453989
0.0278176
0.00689171
0.00656124
0.00476157
0.0214681
0.00696468
0.00687728
0.020625
0.00679314
0.0324344
0.00534249
0.00140632
0.00650013
0.0064365
0.0331389
0.00689425
0.0269501
0.0238334
0.00342826
0.00697803
0.00185565
0.0346713
0.0221051
0.0119483
0.00683838
0.00121693
0.0165142
0.0301788
0.0265778
0.00693319
0.00677659
0.00647863
0.00696877
0.00489344
0.0011753
0.00690055
0.00247009
0.0330541
0.0419502
0.0193781
0.00205695
0.0121579
0.00695075
0.00696769
0.000582285
0.0027914
0.00164352
0.00289659
0.00173769
0.00625368
0.0199899
0.0398223
0.0408023
0.00512613
0.0284653
0.00679025
0.00174946
0.00447106
0.00682278
0.00685434
0.0157343
0.0209738
0.00164374
0.00546158
0.00636401
0.0345525
0.00617903
0.0277625
0.00687382
0.00324123
0.0243191
0.0339661
0.0142462
0.00498681
0.00697029
0.0011325
0.00200885
0.00207601
0.000811535
0.0142528
0.00363573
0.00638574
0.00230498
0.00517781
0.00350478
0.00177779
0.00415453
0.0068824
0.0339344
0.0110658
0.0064908
0.00475183
0.00386745
0.0068223
0.00126496
0.00123987
0.00684608
0.0134892
0.025468
0.00662244
0.00676053
0.00266468
0.0315506
0.00268027
0.00696079
0.00697175
0.00682249
0.00605873
0.0249343
0.00398341
0.00193392
0.00496791
0.00524568
0.00426593
0.00438928
0.00189701
0.0340499
0.00678983
0.0213081
0.0155133
0.00394034
0.00532371
0.00188025
0.00653368
0.00538591
0.0217208
0.00118365
0.0167508
0.00679127
0.0067307
0.0155809
0.0203448
0.0140618
0.0183207
0.00240553
0.00625056
0.0127119
0.037117
0.00676451
0.0351364
0.0357798
0.00636618
0.00171485
0.00679789
0.00670361
0.00684504
0.00628503
0.00111592
0.0231279
0.006904
0.00687498
0.0305547
0.00276876
0.0289711
0.0451796
0.0390346
0.00436003
0.00164256
0.00642556
0.0069357
0.00682342
0.00682113
0.0204526
0.00130146
0.00670593
0.0192669
0.00690181
0.000825273
0.00682638
0.0389121
0.00470135
0.00655084
0.00579375
0.0258654
0.019268
0.0384266
0.0181864
0.0229365
0.0314289
0.00252721
0.0298842
0.029138
0.00644504
0.00684082
0.0318493
0.00682148
0.00402267
0.00638058
0.00695424
0.0035204
0.0348816
0.00535577
0.00511858
0.000994923
0.00212779
0.0219784
0.0269834
0.00574788
0.00732444
0.0011845
0.0221198
0.00435445
0.0292329
0.00133655
0.031753
0.0337397
0.00181974
0.00492524
0.0207521
0.00193969
0.021783
0.00785535
0.033592
0.00149877
0.00172837
0.00646371
0.0401509
0.0279358
0.0360903
0.00659592
0.00199274
0.00187211
0.0239866
0.0184546
0.0261349
0.0307401
0.00244433
0.0214945
0.0339345
0.00696019
0.00145217
0.0324876
0.0339171
0.00188628
0.00145395
0.0100357
0.00635541
0.00472104
0.00696076
0.00164972
0.0224013
0.0257201
0.00693594
0.00187007
0.0051411
0.000347273
0.0354868
0.00686348
0.0284306
0.0228168
0.0426073
0.0067109
0.00498178
0.00682833
0.0262151
0.00887571
0.0335798
0.00688726
0.0068869
0.00587028
0.00199392
0.0196646
0.00690683
0.0437083
0.0144057
0.00683143
0.00592784
0.00885127
0.00657136
0.00682096
0.0235492
0.0017313
0.00653526
0.0295764
0.00169627
0.0156544
0.0395587
0.0396396
0.00180456
0.0320622
0.0289296
0.01321
0.0346545
0.0292172
0.00283238
0.00204758
0.0069475
0.00693964
0.0139259
0.00336918
0.0226979
0.0068367
0.0018116
0.00301986
0.00585418
0.00651489
0.00681349
0.0321399
0.00692735
0.0381059
0.00498118
0.0333109
0.0205865
0.00647713
0.00875804
0.033277
0.015584
0.00697458
0.00689289
0.00684622
0.0324568
0.0021932
0.00170392
0.00368725
0.0257488
0.0015009
0.0127229
0.0352475
0.0256063
0.0178342
0.0165205
0.00132807
0.00337627
0.0393809
0.00208533
0.0248769
0.00565324
0.0117748
0.00373971
0.00697747
0.0349474
0.0069459
0.00622359
0.0375063
0.021412
0.00688685
0.0325992
0.00198253
0.0339106
0.00659051
0.00593116
0.00305623
0.00689734
0.0214261
0.0189257
0.0360091
0.0310448
0.0064871
0.00130191
0.0297939
0.00695193
0.0388881
0.00682807
0.0227318
0.00182251
0.00105257
0.00688947
0.0346023
0.0205157
0.00287343
0.00296515
0.00688416
0.00395669
0.00446185
0.00358025
0.00137463
0.0151871
0.0195418
0.00693504
0.00689354
0.00206339
0.0305835
0.00187328
0.0436615
0.00170328
0.00134596
0.0292557
0.0328929
0.00370748
0.0108378
0.0068891
0.0334322
0.0207842
0.0447206
0.00697801
0.00140074
0.0192843
0.00572956
0.0355563
0.00288781
0.00696777
0.00252823
0.00523512
0.000992308
0.0290639
0.00687036
0.00539786
0.0160972
0.00527754
0.00681672
0.00678903
0.00577811
0.00689441
0.00201388
0.00697929
0.00696952
0.0102396
0.0018972
0.0316262
0.00686853
0.0259452
0.0377141
0.00273819
0.00662027
0.0201124
0.00641072
0.00647485
0.00053182
0.0185253
0.00194451
0.0360155
0.0062288
0.0285028
0.00527431
0.00360255
0.00281753
0.0215203
0.00685694
0.0378155
0.0178969
0.0207366
0.000639335
0.0156272
0.0118634
0.0357826
0.0096908
0.0115316
0.00408451
0.00291556
0.034313
0.00692311
0.0296274
0.024709
0.00188414
0.00181988
0.0225267
0.0047797
0.00695842
0.0065653
0.038156
0.00693094
0.030374
0.00299295
0.00687266
0.027905
0.0312251
0.00687989
0.00222222
0.0043092
0.0346263
0.00512916
0.0336473
0.00382741
0.00172425
0.00689715
0.00300006
0.0349987
0.00606073
0.00501828
0.0326088
0.00691528
0.00201366
0.0217962
0.00673916
0.0342678
0.0067941
0.00387079
0.0347575
0.00313773
0.0102969
0.0108837
0.0199978
0.00689846
0.0423957
0.0370161
0.00686482
0.0067109
0.0154773
0.00371225
0.00690837
0.00167579
0.0190731
0.00617422
0.0301584
0.0206522
0.0214991
0.0427097
0.00296157
0.0068582
0.00683528
0.00667736
0.0444508
0.00379341
0.0348461
0.0069606
0.0136769
0.00683684
0.00113769
0.0227321
0.00322582
0.019753
0.00150874
0.00169056
0.0137419
0.024686
0.00329509
0.00683124
0.0304979
0.00257681
0.0026695
0.0270141
0.0278081
0.0238697
0.0330286
0.0318637
0.00294057
0.0271113
0.0335746
0.0296456
0.00556535
0.0255967
0.00509007
0.00692653
0.0133877
0.0206235
0.0192742
0.00682864
0.00657606
0.00242054
0.00687733
0.00683479
0.00588761
0.00501522
0.00687123
0.00515125
0.0213526
0.0212296
0.0094141
0.00691593
0.0442272
0.0342306
0.00166439
0.00438291
0.00693213
0.00682152
0.0066874
0.00201529
0.0345466
0.00115734
0.00465155
0.0214458
0.00544442
0.00662636
0.0338604
0.00343048
0.0187658
0.00695466
0.0303076
0.0294781
0.0137214
0.00500644
0.0068766
0.00697022
0.00188045
0.00683111
0.00596092
0.0214864
0.00607651
0.00905987
0.0112627
0.00173349
0.00131887
0.0184024
0.0192324
0.0069247
0.00424131
0.00229535
0.0224811
0.0212127
0.00219527
0.0164769
0.00643058
0.00644946
0.0112665
0.0323377
0.00662583
0.0024977
0.00610259
0.00426651
0.00668535
0.0055403
0.0267819
0.00688411
0.00684801
0.00128
0.00548108
0.00649457
0.0351094
0.0302994
0.00387685
0.00157664
0.0066863
0.00210163
0.00117242
0.00290041
0.00692565
0.0338577
0.0226259
0.0203249
0.0281625
0.00692392
0.00677201
0.00146046
0.0183815
0.0387147
0.0140928
0.00661352
0.0108463
0.0395147
0.0195607
0.0337091
0.00567798
0.00626794
0.0195378
0.0317609
0.00399028
0.00697701
0.00324394
0.0314437
0.00667525
0.00487108
0.0324997
0.00149333
0.00235753
0.0200713
0.00608607
0.00172431
0.00595506
0.014995
0.0172963
0.0194926
0.028527
0.035476
0.0145426
0.0294302
0.00650137
0.0406629
0.0069093
0.0223359
0.0367954
0.0095102
0.0145162
0.0308762
0.00159134
0.03404
0.0296375
0.00399379
0.000639297
0.0301484
0.00892852
0.0317831
0.0329168
0.00600446
0.00138305
0.00174807
0.00689886
0.00655752
0.00171146
0.0273487
0.00216381
0.0363344
0.0057971
0.00134605
0.00388647
0.000347443
0.00679097
0.0332158
0.026724
0.00228421
0.0378546
0.001321
0.00974332
0.0166256
0.0270481
0.00514358
0.00612298
0.00590055
0.027611
0.0011117
0.0191077
0.00209068
0.00679559
0.000804917
0.0349064
0.00282031
0.0068219
0.0301603
0.00149764
0.0415814
0.0236428
0.00692107
0.0320584
0.022245
0.00644143
0.03351
0.0193892
0.017537
0.0187494
0.00151187
0.026377
0.00137963
0.00148758
0.00111844
0.00693567
0.00120285
0.0181804
0.00152758
0.00146984
0.0184721
0.00139658
0.00697449
0.00130212
0.00118695
0.00629745
0.0166269
0.00697624
0.00129887
0.0335525
0.0108219
0.0208884
0.0321273
0.0301514
0.00685609
0.00145512
0.0299022
0.0198565
0.0064161
0.00662961
0.0165626
0.00664973
0.00634471
0.0018344
0.00173365
0.0268213
0.00637922
0.0372168
0.00141567
0.0324359
0.00150581
0.00146495
0.00138182
0.00683882
0.00319109
0.0275166
0.0069211
0.0316015
0.0256803
0.00697219
0.00301181
0.0361833
0.00158176
0.00124873
0.00104041
0.0013285
0.0414642
0.00134477
0.0366428
0.0184095
0.0335975
0.0187791
0.0371328
0.00761468
0.0118774
0.0236299
0.00253819
0.00222006
0.00177253
0.0322604
0.00177139
0.0228752
0.0179992
0.00267408
0.00190812
0.0156871
0.0267252
0.0311377
0.0130786
0.0263852
0.00181745
0.00277188
0.0027469
0.0238959
0.00249995
0.0392565
0.00637982
0.021616
0.0367053
0.00695595
0.00301038
0.025699
0.00130785
0.0155898
0.00331886
0.00194429
0.00660938
0.00224481
0.00683117
0.038047
0.00696625
0.0287535
0.00659645
0.0199454
0.00633454
0.00154303
0.0038069
0.00157777
0.00681097
0.0144208
0.00473701
0.00193496
0.000575023
0.00319759
0.0253398
0.00173669
0.0214625
0.0166121
0.0332902
0.0144394
0.00076594
0.00543803
0.00683746
0.00135063
0.00111246
0.00667273
0.00922142
0.0346958
0.00139891
0.0300103
0.0148273
0.00651457
0.00148559
0.0283366
0.00170285
0.0247991
0.0311011
0.00688841
0.0167755
0.0370989
0.00129367
0.00165422
0.000570021
0.0206566
0.00682804
0.0419595
0.0214383
0.00679253
0.0194928
0.00272857
0.00144782
0.0325534
0.00682807
0.0171854
0.0213084
0.00120203
0.0166725
0.00679008
0.00692118
0.0012879
0.00103014
0.0292052
0.0322458
0.016513
0.00637971
0.00630704
0.0267506
0.035336
0.0327978
0.0014652
0.0130338
0.00219189
0.00688583
0.0331365
0.00136836
0.033208
0.00139267
0.00150597
0.00326605
0.0371472
0.00136039
0.0114472
0.0229511
0.0425006
0.0329066
0.0329922
0.0160851
0.0222417
0.00914409
0.034292
0.00149192
0.00102455
0.00691758
0.00269759
0.000899707
0.00123449
0.00697654
0.0260044
0.023442
0.0294621
0.000419277
0.00340151
0.0163714
0.0010361
0.0437452
0.00179283
0.0127298
0.00333365
0.000743514
0.00135283
0.0172166
0.00172613
0.00656861
0.00265353
0.0393705
0.00098023
0.00688174
0.00129767
0.00136338
0.00681467
0.00689445
0.0177029
0.0361899
0.00335541
0.00203275
0.00188416
0.00622654
0.0298665
0.0157299
0.00687703
0.0248935
0.00659363
0.0018983
0.0387243
0.00322191
0.00144622
0.00141028
0.0367457
0.0166448
0.0305324
0.00275015
0.0289693
0.00512682
0.00172836
0.00178911
0.00738305
0.00274646
0.0433852
0.0294162
0.0315043
0.00105507
0.00742977
0.0377888
0.0136564
0.00147179
0.0320995
0.00137557
0.0058601
0.00143919
0.000964776
0.00654912
0.00130167
0.00142869
0.00694623
0.00150489
0.00245361
0.00294725
0.000977487
0.00683259
0.00545963
0.0190938
0.00697356
0.00136719
0.00544338
0.00258151
0.00696809
0.00288419
0.0175611
0.0336833
0.00956781
0.00153577
0.00210188
0.0412234
0.00678037
0.0336049
0.00143014
0.0316327
0.00103486
0.0276955
0.00183767
0.00495193
0.00681286
0.00343292
0.0441922
0.0261844
0.0313154
0.001996
0.032812
0.0226181
0.0318791
0.00119423
0.00211884
0.00689603
0.03801
0.013664
0.00301757
0.00686254
0.000717669
0.0308774
0.00685221
0.0346107
0.00174095
0.00688946
0.00680857
0.00299201
0.0329529
0.0174924
0.0278242
0.00685561
0.00695702
0.00109927
0.00688213
0.0349184
0.00629788
0.0263992
0.00228293
0.0331052
0.00247087
0.0156871
0.0427298
0.0160799
0.0433553
0.0321878
0.00694599
0.00508879
0.0020615
0.00669975
0.0215948
0.00144575
0.0061357
0.00642219
0.00414661
0.0327507
0.0136631
0.00680674
0.00682915
0.00200966
0.00248136
0.00638051
0.00707422
0.0155884
0.00682401
0.00190055
0.0429974
0.0104239
0.00110973
0.0366753
0.0126866
0.0302912
0.0216653
0.00207034
0.00315415
0.0357232
0.00575055
0.00493173
0.0199514
0.00688524
0.00190802
0.00236245
0.00682656
0.0289287
0.00230353
0.00596497
0.00694151
0.0067484
0.00169734
0.0207626
0.00648578
0.00219126
0.00164249
0.04194
0.00685176
0.00196484
0.00111791
0.00686507
0.00100283
0.0218053
0.0201733
0.0058455
0.00242175
0.00244791
0.0439045
0.0301901
0.0303595
0.00655605
0.00247667
0.00696902
0.0426375
0.00674059
0.001169
0.00127193
0.0240788
0.0260773
0.00225292
0.00129298
0.0012482
0.0323933
0.0122478
0.00126358
0.00392581
0.00682154
0.0014434
0.014751
0.0239568
0.00300302
0.0365981
0.0183134
0.00274969
0.0125352
0.00694062
0.0242443
0.0155962
0.00697396
0.0288082
0.0315916
0.00367328
0.0058011
0.00240692
0.0268064
0.0245135
0.0026707
0.00643983
0.0368233
0.0069024
0.0108359
0.00493829
0.0328199
0.0223793
0.0218206
0.0031229
0.00175188
0.00304421
0.00692737
0.000911159
0.0341125
0.0371288
0.00670815
0.00529081
0.00297737
0.0069193
0.00144219
0.0283871
0.00314874
0.00660562
0.00764295
0.0421969
0.00129158
0.00221284
0.0261168
0.0273406
0.00370287
0.00301465
0.00331001
0.0158832
0.0359429
0.00635964
0.00753911
0.0333685
0.0402226
0.00171157
0.00149892
0.0432876
0.00155291
0.00115661
0.0302932
0.00680789
0.0135483
0.0253951
0.00113553
0.0319284
0.00148779
0.00208943
0.0117119
0.00205862
0.0022521
0.0220314
0.00509078
0.00316398
0.00205238
0.00695429
0.00416047
0.00685147
0.00397507
0.0353079
0.00684801
0.0200587
0.0013008
0.00682423
0.00685373
0.0314583
0.0209222
0.0012439
0.0037833
0.0342413
0.00229263
0.00164903
0.00681774
0.0282813
0.00853054
0.00636162
0.00247849
0.00613041
0.00105968
0.00282648
0.00677472
0.0361017
0.00676015
0.00696
0.0151147
0.0344527
0.00158548
0.0161243
0.0192179
0.0067016
0.0215916
0.0411182
0.0135463
0.00291205
0.0243075
0.00298746
0.0389484
0.00288887
0.00285343
0.0311094
0.00278023
0.00200751
0.0445886
0.0245025
0.00687224
0.00311645
0.00358154
0.0294747
0.0358037
0.00951907
0.0069475
0.0069728
0.0361785
0.00676433
0.00317366
0.00686059
0.00682522
0.0231994
0.0375618
0.035854
0.00205869
0.0387922
0.00199202
0.00637889
0.0301768
0.00130046
0.0213502
0.00682849
0.00257304
0.00598922
0.00422501
0.0440335
0.0162905
0.00136661
0.0181566
0.00259434
0.00596178
0.00150501
0.0329714
0.00615766
0.00697101
0.0407476
0.0367901
0.0437408
0.0321467
0.00696827
0.00270558
0.00152169
0.00401925
0.00685541
0.00657118
0.00334081
0.00652037
0.00269977
0.036584
0.00346952
0.0208714
0.00689048
0.031448
0.0037116
0.0356496
0.00143942
0.00697358
0.0424728
0.00695749
0.00221434
0.00254532
0.00270855
0.00599072
0.044255
0.014605
0.00561469
0.00574332
0.00978856
0.00693374
0.026294
0.00285329
0.00810917
0.0412522
0.00480576
0.0223526
0.037272
0.00340559
0.0406718
0.00363443
0.00648744
0.00238798
0.00282826
0.00461873
0.0263672
0.00292694
0.00209077
0.0042184
0.00200999
0.00661522
0.029184
0.00689946
0.0406744
0.00159102
0.00183857
0.00413945
0.00202899
0.00119279
0.0421855
0.00237899
0.00211811
0.00150713
0.00602884
0.0287142
0.00343348
0.00243945
0.00154308
0.00214284
0.0442587
0.0344933
0.0349462
0.00639353
0.00270074
0.03233
0.00388034
0.0063659
0.00183672
0.0043057
0.00201471
0.00260296
0.0066568
0.0013339
0.00682811
0.0135024
0.00280687
0.0307383
0.00381341
0.00203489
0.00310459
0.00373416
0.0379319