/*--------------------------------*- C++ -*----------------------------------*\
| =========                 |                                                 |
| \\      /  F ield         | OpenFOAM: The Open Source CFD Toolbox           |
|  \\    /   O peration     | Version:  v2012                                 |
|   \\  /    A nd           | Website:  www.openfoam.com                      |
|    \\/     M anipulation  |                                                 |
\*---------------------------------------------------------------------------*/
FoamFile
{
    version     2.0;
    format      ascii;
    class       surfaceScalarField;
    location    "200";
    object      phi;
}
// * * * * * * * * * * * * * * * * * * * * * * * * * * * * * * * * * * * * * //

dimensions      [0 3 -1 0 0 0 0];
oriented        oriented;


internalField   nonuniform List<scalar> 
20362
(
0.369226
0.11206
-0.481286
0.00497515
0.00082527
-0.00580042
-0.121154
-0.279444
0.400598
0.331661
0.112614
-0.444276
0.155997
-0.168841
0.0128432
0.383256
0.0597063
-0.442962
0.29563
-0.523451
0.227821
0.640775
-0.476924
-0.163851
-0.176113
-0.00942725
0.18554
0.245726
-0.289406
0.0436799
-0.179656
0.00354365
0.695287
-0.348448
-0.346839
-0.475432
0.647069
-0.171637
-0.00482735
0.00554295
-0.000715597
0.478109
-0.146448
-0.600797
0.606457
-0.0056602
0.21372
-0.0687146
-0.145005
0.532208
-0.257398
-0.27481
0.00351471
-0.00100447
-0.00251025
0.208563
-0.0885615
-0.120001
-0.0941902
0.0971299
-0.00293967
0.660314
-0.351343
-0.308971
0.503447
-0.398817
-0.104631
0.278414
-0.399568
-0.592209
0.599147
-0.00693804
0.640488
-0.584289
-0.0561995
0.308201
-0.00531187
-0.302889
0.0643448
0.576144
-0.562696
-0.0295134
0.011459
-0.0113393
-0.000119664
0.00304219
-0.0411044
0.0380622
-0.376706
-0.226265
0.602971
0.00281806
0.00117544
-0.0039935
0.0557558
-0.340258
0.284502
0.606892
-0.283396
-0.323495
-0.00471223
0.000586146
0.00412608
-0.33662
0.265213
0.071407
-0.00328386
0.00825902
0.344458
-0.53104
0.186582
-0.453964
0.0261343
0.42783
-0.0940499
-0.130004
0.224054
0.300125
0.306767
0.294045
0.383317
0.534124
-0.435102
-0.0990222
-0.125874
0.4951
-0.339893
-0.0615708
0.401464
0.767176
-0.333095
-0.434081
-0.0626294
-0.382657
0.445286
0.23855
-0.247454
0.00890439
0.425592
0.128417
-0.55401
0.0595072
-0.032081
-0.512497
0.449868
-0.69471
0.560429
0.134282
0.304304
0.227904
0.364015
-0.343792
-0.0202233
0.606707
-0.0654442
-0.541263
0.549474
-0.735152
0.185678
-0.145236
-0.271224
0.0284088
0.242815
-0.429374
0.315375
0.113999
-0.168146
0.0413343
0.126812
0.0792528
0.454871
-0.0051544
0.00692213
-0.00176772
0.253972
0.406343
-0.00789465
0.000140092
0.00775456
-0.427534
0.621334
-0.193799
0.000847119
-0.0950374
-0.00340778
-0.00328534
0.00669312
0.0631512
-0.534331
0.471179
-0.193368
0.179426
0.0139424
0.361338
0.405839
0.230451
0.410324
0.706022
-0.52301
-0.183013
0.356534
0.107133
-0.000700131
0.00347123
-0.0027711
-0.00977193
0.072644
-0.062872
-0.00847448
-0.184894
-0.0114921
-0.0587491
0.0702412
-0.003631
0.00293087
-0.272692
0.252122
0.0205699
0.133413
-0.227463
-0.0133972
0.211533
-0.198136
-0.268781
0.17491
0.0938707
0.65039
-0.445575
-0.204815
0.508359
-0.163901
0.00740837
-0.0079518
0.000543434
0.235662
0.00589215
-0.241554
-0.185804
-0.270682
0.456486
0.281204
-0.647073
0.365869
-0.0777125
0.0881605
-0.0104479
0.636733
-0.440524
-0.196209
-0.0236591
0.135612
-0.475505
0.307821
0.0561948
-0.0063529
0.00133044
0.00502247
-0.00237824
0.0051963
-0.313325
0.0323475
0.280977
0.388
0.307288
0.269118
0.285317
-0.554435
0.0835397
0.262505
0.139373
-0.401878
0.245083
0.000643686
-0.600291
0.54868
0.0516118
0.670982
-0.436012
-0.23497
-0.332956
0.505626
-0.17267
0.0420777
0.171642
-0.12098
-0.147802
-0.66309
0.467533
0.195557
-0.026036
-0.427928
-0.124429
-0.188896
0.200083
-0.00273318
-0.19735
-0.55696
0.117334
0.439625
-0.01135
0.0119756
-0.000625686
-0.0117633
-0.121131
0.132895
0.0874646
-0.109493
0.0220279
0.568885
-0.273473
-0.295411
0.349638
-0.521798
0.17216
0.00446899
0.0145316
-0.0190006
-0.0925616
-0.50773
0.101059
-0.380503
-0.0117549
0.0117549
0.412981
0.293041
0.292751
-0.387436
0.0946852
0.000726325
0.00278839
-0.0013062
0.0111834
-0.00987718
-0.00361946
-0.00462891
0.00824837
-0.250174
0.519292
-0.525324
-0.209828
-0.499877
-0.0570827
0.52208
-0.487716
-0.0343647
-0.140036
-0.0281103
0.115056
-0.109536
-0.00552032
0.469901
0.0521797
0.210831
0.0277185
-0.0120602
7.35879e-05
0.0119866
0.151552
-0.175967
0.0244149
-0.00153397
-0.00636067
0.106902
0.398048
-0.50495
-0.275352
0.355216
0.252837
-0.143545
-0.109292
-0.0339378
0.228813
-0.194875
-0.000886384
-0.0111738
0.126687
-0.5082
0.381514
-0.369074
0.547514
-0.17844
-0.0996641
0.48292
-0.0900589
-0.246561
0.00769934
-0.0854119
0.0862006
0.255949
0.185967
-0.371771
0.00246677
-0.453296
0.203121
-0.540795
0.598836
-0.0580414
0.213605
-0.227002
0.35992
-0.449346
0.120627
0.234903
-0.35553
-0.0672619
-0.216362
0.283624
-0.211134
0.455733
-0.244599
0.000863259
-0.00721616
0.0123866
0.486423
-0.49881
0.600944
-0.175352
-0.577645
0.102213
-0.00656385
0.00140945
-0.00370324
0.00403148
-0.000328231
-0.101879
-0.477308
0.579187
0.345308
-0.678264
0.109171
0.143666
0.463231
-0.167601
0.137651
0.259295
-0.396946
-0.628392
0.256029
0.372363
-0.374389
0.528744
-0.154356
-0.246905
0.367532
0.213726
-0.42486
-0.3672
0.284589
0.0826108
0.0554327
-0.062781
0.0073483
0.469727
-0.23752
-0.232207
0.407064
0.167636
-0.5747
0.0559615
-0.0529193
0.00104362
0.0122274
-0.0132711
-0.497886
-0.0429083
0.00822186
-0.00781403
-0.000407824
-0.151684
-0.263169
0.414853
0.0058449
-0.00946436
-0.00274842
-0.600539
0.231464
-0.385934
0.512621
0.576332
-0.574211
-0.00212093
-0.26855
0.406201
0.169683
0.333765
-0.276576
0.209314
0.139023
-0.150787
-0.666947
0.425708
0.24124
0.0042045
0.00725448
-0.00897498
-0.00236434
0.558818
-0.328367
-0.58923
0.487351
0.232217
0.336668
0.200286
-0.0686753
-0.13161
-0.305609
0.606707
-0.00709802
3.585e-05
0.00706217
0.455517
-0.348615
0.0103141
-0.00856102
-0.00175306
0.366438
-0.310683
0.383094
0.267296
0.293059
-0.529061
0.236002
-0.331433
0.269862
-0.0163475
0.0112307
0.00511673
-0.333329
0.433197
-0.0998678
-0.207606
0.00466861
0.202937
-0.0172887
-0.00361977
0.00495021
0.00157936
0.00873472
-0.38613
0.572017
-0.185888
0.0650558
-0.00962309
-0.00305098
-0.000580013
-0.101138
0.379552
-0.448337
0.625305
-0.176968
0.401763
-0.0781125
-0.323651
-0.0465995
0.0116197
0.0349797
0.244268
-0.345818
0.101549
0.172071
0.0605128
-0.138395
-0.338128
0.476523
-0.0028525
-0.00185973
-0.21651
0.563303
-0.346793
0.0363072
0.163979
-0.00422977
-0.00436644
0.00859622
0.0476656
0.0146415
-0.0623071
-0.0117731
-0.0793174
0.0910905
-0.157183
-0.281312
0.438494
-0.000184002
0.00664785
-0.00646385
-0.00678506
-0.000312959
0.00720014
0.00102172
0.0757225
-0.0872145
-0.437386
0.0694162
0.36797
0.33764
-0.489776
0.152136
-0.00453001
0.00292654
0.00160346
-0.0238066
0.0282756
-0.510495
0.591877
-0.0813818
0.0155512
0.0244696
-0.0400208
0.3307
0.340282
-0.45018
0.424144
-0.16399
-0.4991
-0.00287578
-0.0050354
0.326106
-0.464501
0.122756
0.0372447
-0.308469
0.323464
-0.331182
0.00771828
-0.341051
0.647234
-0.306183
-0.183516
-0.00776833
0.191284
0.00121942
-0.0125694
-0.0808523
0.0547316
-0.0665047
-0.261096
0.329056
-0.0679602
0.0164611
-0.257781
0.24132
0.397696
-0.166662
-0.231034
0.414482
-0.121731
0.000742929
-0.00970944
0.00896652
0.00350248
-0.00357375
7.12623e-05
-0.375255
0.11416
0.372921
-0.503754
0.130833
-0.00158296
-0.00294704
-0.294092
0.282577
0.0115149
-0.559695
0.683302
-0.123607
0.0486786
0.0108286
-0.000618089
0.0268034
-0.0261853
-0.0542364
0.520941
-0.466704
-0.151075
0.488715
0.343307
0.302135
-0.645442
0.319625
-0.309219
-0.0104064
0.386765
0.164024
-0.550789
0.218012
0.111043
-0.000243105
-0.0079104
0.0081535
0.0953637
0.271075
0.00602456
-0.00620856
0.187193
-0.145858
-0.00292709
0.000260594
0.00266649
0.453465
-0.103828
-0.288899
0.397138
-0.10824
0.255468
-0.632173
0.292279
-0.183108
-0.0593794
0.00175097
-0.00598074
-0.306751
0.140659
0.166092
0.00222085
-0.00615452
0.00393367
-0.509804
-0.0909925
0.00835516
-0.00724855
-0.0011066
-0.15547
-0.0146487
0.170119
-0.067054
0.154173
-0.581707
-0.00618881
0.0015599
0.0167134
-0.283684
-0.307847
0.591531
-0.00020076
-0.00999522
-0.00635224
-0.348736
0.254104
0.0946315
-0.504545
0.201874
0.302671
0.347931
-0.526657
0.178726
-0.0998212
-0.00971489
-0.638305
0.273357
0.364948
0.144086
-0.138582
-0.00550425
0.00141703
0.00112284
-0.00253987
0.20893
-0.0341404
-0.174789
0.484015
-0.492933
0.00891763
0.683519
-0.127404
-0.556115
-0.00217241
-0.00144809
0.270152
-0.120274
-0.149877
0.00986361
-0.00302121
-0.0068424
0.000120537
-0.00106772
0.000947182
0.2874
-0.286723
-0.000677974
-0.0953427
0.0162271
0.0791156
0.0260735
0.182489
-0.000658764
-0.0404456
-0.0101756
0.0841452
-0.458606
0.37446
0.535303
-0.148538
-0.610607
0.243359
0.367248
0.00255427
0.0048541
-0.0365843
0.0521355
0.00950243
0.00381025
-0.0133127
-0.108706
0.00888429
-0.201289
-0.303256
0.254871
-0.406554
-0.500263
0.0960499
0.502075
-0.598125
-0.11317
0.0337641
0.450251
0.120561
0.171719
0.330469
0.182217
-0.512686
0.00400958
-0.00892892
0.00491933
0.192121
0.356558
-0.00801063
0.00324392
0.00476671
0.726738
-0.265765
-0.460973
0.295599
-0.15494
-0.187223
0.179883
0.00734007
-0.288225
0.487367
-0.199142
0.449559
0.277179
-0.242892
0.271301
0.380705
0.141223
-0.521928
0.0244464
-0.204312
0.179865
-0.167776
0.0123063
-0.00622839
0.00282062
-0.0151154
0.000254347
0.00810081
-0.00179864
0.00191918
-0.188134
-0.0845587
0.613845
-0.613845
0.27076
0.0488647
0.304003
-0.0637305
-0.240272
0.502247
-0.177907
-0.32434
-0.0152752
0.012879
0.00239626
-0.00400754
0.00307401
0.00138175
-0.00445576
0.129161
-0.481819
0.352657
0.2507
0.108204
-0.358905
-0.425733
-0.32865
0.490581
-0.161931
0.0394928
0.230659
0.36526
-0.2038
-0.16146
-0.0935121
0.33778
-0.0212303
-0.42895
-0.216596
-0.00885272
0.225449
-0.00310293
-0.272249
0.229856
-0.558506
0.150701
0.0812135
-0.231914
0.00204958
0.0135306
-0.0137737
0.572283
-0.4026
0.30037
-0.485821
0.185451
0.547562
-0.337997
-0.209565
0.103631
0.294065
0.346739
0.30033
-0.336835
0.465996
0.323555
0.0782084
0.00977391
0.134312
0.517327
-0.216957
-0.391315
0.403701
-0.0615388
0.00746381
0.054075
-0.0845734
-0.223765
0.308338
0.246618
0.00550412
0.31608
-0.53259
-0.179396
0.460599
0.417156
-0.131839
-0.000311624
-0.00451573
0.00301157
0.0566618
-0.0596733
0.0188222
-0.0194403
0.0166105
-0.0118232
-0.00478722
0.238902
-0.0668309
0.529132
-0.150441
-0.37869
0.0626437
0.232162
-0.294806
0.268234
-0.479609
0.211374
-0.495503
0.207278
0.391558
-0.129053
-0.0428506
-0.434073
-0.509869
-0.0440339
0.553903
0.304248
-0.00564395
-0.298604
0.0327494
-0.0251203
-0.00762911
-0.000179363
-0.00339438
0.0793411
-0.320136
0.240795
-0.557842
0.109505
0.490842
-0.222607
-0.438249
0.654139
-0.21589
-0.368925
0.164423
0.204502
0.201728
-0.177282
-0.157245
-0.272129
0.0223053
0.00410832
0.30014
0.358551
-0.500825
0.142274
-0.0153004
0.0160433
-0.360107
0.491074
-0.130967
-0.00469712
0.00556037
0.361082
-0.261874
-0.0992084
0.000801719
-0.109507
-0.042981
-0.0523617
-0.133327
-0.00617846
0.139505
0.42961
-0.293999
0.0134407
-0.0602292
0.0467885
0.203353
-0.0308857
-0.009016
0.00573214
-0.0640973
0.00909695
0.0550004
0.0586972
0.0294633
0.412617
0.122686
0.24404
-0.63017
0.145494
-0.193487
0.0479933
0.00504374
-0.00597132
0.000927577
-0.638339
0.393725
0.244614
0.00679471
0.186764
0.286586
-0.47335
0.114238
0.331782
-0.446021
-0.0316136
-0.172698
0.0198659
0.00987352
-0.0092837
-0.000589821
-0.00261487
0.00568888
0.00218642
0.0076871
-0.266516
0.261571
0.00494502
-0.100598
-0.374307
0.474905
0.504502
-0.420357
-0.414801
-0.223539
-0.256459
0.325948
-0.0694896
0.205734
-0.0602399
0.198983
0.330149
0.000324234
-0.004525
0.00420076
0.362364
-0.462962
0.111852
-0.0181409
-0.0937112
0.268438
0.330748
0.22807
0.00595768
-0.0114568
0.00549913
-0.222109
0.565416
0.183548
0.437786
-0.00531913
0.182217
-0.176898
-0.0535356
0.447261
-0.0152016
0.0665422
-0.0763141
0.101794
-0.450242
0.00015398
-0.00440979
0.00425581
-0.460541
-0.0493282
0.0152968
-0.0518811
-0.00514205
0.00529603
0.633346
-0.412927
-0.220419
0.258267
0.101653
-0.279421
0.126837
0.152585
0.0132498
-0.00122706
-0.0120228
-0.165624
0.316325
-0.00115061
0.0147293
-0.0135787
0.17353
-0.17885
-0.266022
-0.000494761
0.0700284
-0.00414003
-0.00381177
0.428311
-0.482547
-0.0150353
0.0137291
0.0037303
0.207803
0.120691
-0.454753
0.334062
0.333009
-0.49118
0.158171
-0.186549
-0.00257508
0.00110921
0.00146587
-0.555856
0.120656
0.4352
-0.454938
-0.0555578
0.139183
-0.137299
-0.00188367
0.0802553
-0.00761137
0.391415
-0.180419
-0.210996
0.559249
-0.0956129
-0.463637
-0.579497
0.145889
0.433608
0.532703
-0.468358
-0.00114659
0.010649
-0.614139
0.330455
-0.430451
0.376915
-0.0266713
0.48652
-0.459849
0.488094
-0.155085
-0.00143548
-0.000257948
-0.00231713
0.232714
0.128369
0.00595691
0.229705
0.681315
-0.292448
-0.388867
-0.000539039
0.00172855
-0.00118951
0.00185113
0.00369182
0.369488
-0.350473
-0.0190149
0.269583
0.0956764
-0.010651
0.0101316
0.00051939
-0.000905023
-0.0058898
0.00679483
0.343888
0.292845
-0.633468
0.286534
0.346935
-0.418285
-0.0503573
0.468642
0.279329
0.401986
0.0183711
0.190559
-0.383626
0.305513
-0.3669
-0.175765
0.542665
0.0553552
0.131837
0.00409816
-0.00392198
-0.000176181
0.204067
0.380072
-0.584138
-0.300439
0.487202
-0.404446
0.332376
0.0720704
0.326982
0.306365
-0.274402
0.189828
-0.0346678
0.56737
-0.17518
-0.00120307
0.176383
0.0337695
-0.217285
-0.423766
0.402535
0.335002
0.0344861
0.226307
-0.231619
-0.195884
-0.00354125
-0.204065
0.00491743
0.000262591
-0.00518003
0.530244
-0.117627
-0.201502
0.167564
-0.182516
-0.00470705
0.00577426
0.00541129
-0.0111855
-0.239761
0.245653
-0.635824
0.351216
0.284608
0.146944
-0.00776157
-0.0139022
0.213986
-0.197728
-0.0916788
0.101101
-0.0136361
-0.438349
0.335444
0.102905
0.0609087
-0.0519711
-0.00893754
-0.382254
0.451435
-0.0691809
-0.507319
-0.0511677
0.558487
-0.0615142
-0.0201039
0.0816181
-0.212878
0.244294
-0.344608
0.100314
0.00829842
0.00147782
-0.00977624
-0.486974
-0.146495
0.158194
-0.355669
0.29327
0.0623988
0.0262484
0.154194
0.00562097
-0.000703539
-0.0990996
-0.180322
-0.569634
0.163261
0.406373
-0.489783
-0.0870357
0.576819
-0.554391
0.197311
0.35708
-0.573977
0.188794
0.385183
0.113408
-0.531693
0.365942
0.151385
-0.368718
-0.0357277
-0.504473
0.196574
0.307899
0.196198
0.380134
-0.00462266
-0.00486108
0.00948374
0.111228
0.000624268
0.0127426
-0.0138932
0.330678
-0.242919
0.0560843
-0.438338
0.00146488
0.011785
0.0421291
-0.373562
-8.9708e-05
0.0225139
-0.0224242
-0.550812
0.0610296
0.244993
0.146422
0.201068
0.371215
1.94337e-05
-0.011273
0.0112536
-0.238699
0.0397647
0.198934
-0.0727442
-0.000156533
0.0729007
-0.193475
-0.369585
0.573651
-0.000197792
-0.050419
0.0506168
0.468662
-0.534106
0.00976793
-0.193548
-0.310924
0.347098
-0.276894
-0.0702041
0.00685763
0.485914
-0.28404
-0.00295577
-0.00203138
0.00498715
-0.00966647
0.00879707
0.000869396
-0.135546
0.501488
-0.215937
-0.319099
0.535037
-0.0928645
-0.345182
0.438047
0.309193
0.20936
-0.518553
-0.00220076
0.508892
-0.388221
0.199694
-0.160201
0.267133
0.280429
0.188209
-0.190942
-0.110475
-0.3609
0.245831
0.115069
0.0144932
-0.00892781
-0.00556535
-0.443998
0.020233
-0.0565171
-0.12976
-0.206628
0.336388
0.0318563
0.272146
0.000998482
-0.00367805
0.00267957
0.361807
-0.266444
0.118388
-0.558912
-0.298823
0.540316
-0.231784
-0.308531
0.11936
-0.564935
-0.00538457
0.0062342
-0.000849627
0.00112427
-0.00903467
0.484889
-0.225314
-0.259575
-0.141441
0.443982
-0.302542
0.110185
0.352634
-0.462819
0.0529815
0.0481193
-0.00212224
0.00238283
-0.0893442
0.294608
-0.205264
0.314106
-0.193546
0.00479817
-0.00447394
0.35994
-0.109239
-0.132027
0.409312
-0.277285
0.128458
-0.513973
0.385515
0.0135437
0.0192057
-0.277463
0.340106
0.63458
-0.447325
-0.187255
0.0720075
-0.579327
-0.00114051
0.0909181
-0.0897776
-0.0184369
0.0184563
0.160066
-0.194206
0.208184
0.339741
-0.547925
0.24892
0.0384803
0.0414639
0.187349
-0.404285
0.532743
0.528143
0.0857018
-0.00882803
0.00420537
0.633667
-0.399548
-0.234119
-0.00202721
0.00363832
-0.00161111
0.435282
-0.0132809
-0.422001
0.00261478
0.00543174
-0.00804652
0.282517
-0.233855
-0.0486622
-0.476638
0.109738
0.000657478
-0.00963246
-0.00236062
-0.00565001
-0.105973
-0.379272
0.489457
-0.0904963
0.405871
0.0173657
-0.357624
0.00679617
-0.00995854
0.00316237
-0.208549
0.20078
0.0082767
0.00833375
-0.101524
0.00228998
0.179927
0.00449793
0.257039
-0.181993
0.169816
0.0121764
-0.293006
0.0431848
0.249821
0.0385441
-0.0251034
0.676055
-0.405218
-0.270837
0.219227
0.265662
0.564934
-0.330136
-0.234798
0.578676
-0.211594
-0.367082
0.418677
-0.381909
-0.0367676
0.0285857
0.171108
0.418828
0.257227
-0.422469
-0.131922
-0.18113
0.325906
-0.41877
0.132651
-0.492758
-0.312727
0.504848
-0.204252
0.59356
-0.389308
0.289384
0.233759
-0.523144
0.0223581
0.0563261
-0.0786842
-0.0987732
0.18983
-0.552668
0.362838
0.0109005
-0.00578681
-0.00511369
0.186499
-0.184209
-0.00040334
-0.0180335
0.0530557
-0.0439588
-0.00256669
-0.249685
0.229722
0.0199632
-0.355592
-0.107615
0.463207
-0.285676
0.406367
0.0110523
0.42423
-0.00772892
-0.0388705
0.130682
0.20432
0.322294
0.24264
0.0945905
0.386192
-0.480782
0.477498
-0.104577
-0.499027
0.411839
0.0871884
-0.148188
-0.341452
0.489639
0.295974
0.122703
0.259395
0.106589
-0.365984
-0.000630083
-0.129625
-0.162186
0.291812
-0.613093
0.372927
0.240166
0.285062
-0.15438
0.480979
-0.186934
0.182022
0.424435
0.209101
0.182457
-0.331649
0.201889
0.109421
-0.54767
0.000367891
0.0202099
-0.0205778
0.35996
-0.508148
-0.254968
-0.480826
0.576876
0.174279
-0.521171
0.346892
0.33837
0.167883
-0.506253
0.306504
-0.421181
0.114677
-0.489983
0.148933
-0.182037
0.00591478
0.176122
-0.0704324
0.284708
-0.214275
-0.0119097
0.00652508
-0.239668
-0.304675
0.544343
-0.00590021
0.156275
0.331225
-0.4875
0.000903233
-0.00293045
-0.000383121
-0.00402666
-0.294127
0.2932
0.000927572
-0.381368
0.12524
0.256128
0.0663122
0.197313
-0.263626
0.515801
-0.341522
-0.250646
-0.311161
0.561807
0.193779
0.292135
0.17136
0.357385
-0.490314
-0.0146674
0.0262325
0.000570871
0.120167
0.0267774
-0.00208309
0.00391685
-0.00183375
-0.238706
0.493545
-0.254839
0.0110544
-0.0052245
-0.00582991
-0.573837
0.416532
-0.443203
-0.393317
-0.0428659
-0.290463
0.00561181
0.0054426
-0.281065
0.0451862
0.235879
-0.0676878
0.0706994
-0.00435373
-0.288652
-0.147125
0.0137988
-0.0153901
-0.193454
0.591503
0.121906
-0.310044
-0.0988098
-0.256859
-0.209222
-0.292233
0.501455
-0.126383
-0.312932
0.439315
0.689853
-0.333294
-0.00100171
0.00211092
-0.0251635
0.0247601
0.218274
-0.0954015
-0.303415
0.554843
-0.191726
-0.363117
-0.00981277
0.0111574
-0.00134466
0.275952
-0.0941061
-0.485391
0.488485
-0.321168
-0.167317
-0.102632
-0.00264459
0.000561496
-0.240174
0.256635
0.0352138
-0.558223
0.123914
0.190192
-0.00663001
-0.00113826
0.00776827
0.276019
-0.408046
-0.00623063
0.00263784
0.00359279
0.116106
-0.282768
-0.47331
0.348289
0.125021
0.0819426
-0.0601599
-0.0217827
-0.000172353
0.0011712
-0.000998848
-0.00117024
-0.00240881
0.00357905
0.00261699
-0.562312
0.325807
-0.110922
-0.214885
0.00697937
0.00392113
-0.524403
0.101933
-0.0047028
-0.000554122
0.00525692
0.414733
-0.125348
-0.208221
0.397405
0.20838
-0.447086
0.12424
0.089293
-0.213533
-0.00746928
-0.00145964
-0.183739
-0.143074
0.398668
0.477884
-0.383293
-0.581027
0.151891
0.429137
0.154366
-0.118059
-0.302571
0.132694
-0.568706
-0.464067
0.582839
-0.118771
0.153789
0.334696
-0.0856513
0.0675104
-0.180362
-0.44803
0.317198
-0.437116
0.119918
0.0799173
-0.000102116
0.0222838
-0.0221817
-0.307079
0.303976
-0.00176058
0.00122154
-0.067389
0.0671912
-0.00199099
0.000989282
-0.172809
0.218253
-0.427474
0.0919904
-0.0848786
-0.00711178
-0.17704
-0.461266
0.00330307
-0.00218023
0.014238
-0.00846371
0.0205588
-0.195739
-0.369738
0.498155
-0.405642
0.205775
0.199868
-0.377294
0.449247
-0.071953
0.00468827
-0.167548
0.162859
-0.499981
0.273716
-0.0103545
-0.00552641
0.0158809
0.13463
-0.264634
0.568924
-0.0951536
0.0873423
0.00781133
-0.178698
0.0901367
-0.00158345
0.0014111
0.259684
-0.443754
0.184069
0.00189969
0.384509
-0.139801
-0.244708
0.000851479
0.000147003
0.434023
-0.2676
-0.166423
-0.0919351
0.216175
0.194709
0.323678
-0.518387
0.352939
0.121405
-0.474344
0.230598
-0.325473
0.0948751
0.0266637
-0.183893
0.157229
0.208885
-0.344989
0.136104
0.504839
0.607167
-0.200402
-0.406765
0.0878677
-0.0822622
-0.00560545
-0.359773
-0.205659
0.565431
0.1442
-0.452225
0.308024
-0.00234269
-0.00836797
0.0107107
0.462762
-0.203077
0.659823
-0.23969
-0.420133
-0.0860888
-0.488123
-0.00963621
0.00107519
-0.401836
0.0906749
0.489408
-0.377348
0.0934866
0.23232
0.628921
-0.184916
-0.444005
-0.328055
0.386977
-0.0589228
0.356041
0.201967
-0.558009
0.133356
0.0210098
0.0518507
-0.429145
-0.485562
0.545474
-0.0599113
-0.252075
0.355706
0.0930851
0.557743
-0.321741
0.411556
-0.351849
-0.00293472
-0.101526
0.104461
0.00660269
0.000157061
-0.00675975
0.181402
0.0203262
0.218157
0.336686
0.00271562
-0.00247985
-0.000235771
0.00130816
-0.00426393
0.00223653
-0.00693365
-0.171671
0.00745815
0.164213
0.00711601
-0.00686166
0.343791
-0.488106
0.144315
0.363843
0.175036
-0.538879
0.428376
-0.12569
-0.302686
-0.481765
-0.00379767
-0.504445
-0.0428226
0.547268
0.0025152
-0.26178
0.213062
-0.157707
-0.158883
-0.354945
0.513828
-0.207072
0.283559
-0.0764865
0.559439
-0.214458
0.293799
-0.00386935
0.00112093
0.000422247
-0.00494724
-0.181608
-0.388025
-0.379395
-0.229453
0.236311
0.264943
0.368724
-0.221086
-0.341655
0.562741
-0.505722
-0.00335395
0.000922067
0.00243189
-0.00470291
0.0998791
-0.0951762
-0.0817994
0.286486
-0.204687
-0.156702
0.495072
-0.141589
-0.348707
0.566864
0.00339115
0.00175302
-0.00514416
-0.116725
-0.253864
0.370589
-0.249793
-0.226846
-0.00640122
-0.0761566
0.300511
-0.224355
0.234077
-0.228573
0.27967
-0.402791
0.123121
-0.0024648
0.0344496
-0.0319848
-0.389588
0.431071
-0.0414831
0.0957881
0.30135
0.508052
-0.177583
0.000580269
-0.00194236
0.00136209
0.388093
0.14215
-0.145984
0.00218997
0.00610845
0.00148094
-0.100048
0.0997006
0.000347504
0.0332461
-0.0443692
0.0111232
-0.0685295
-0.00575075
0.00104795
-0.515048
0.582369
-0.0673206
-0.127701
-0.010881
0.357496
0.325806
-0.4876
0.127827
-0.00320978
-0.000882022
0.0040918
-0.520613
0.089592
-0.0366105
0.269599
0.38454
0.00114129
-0.000561019
-0.00584355
0.00493852
-0.0641882
0.329401
-0.0151746
-0.00859803
0.0237726
-0.000182367
0.353449
-0.229535
-0.110692
-0.251036
0.361728
-0.229443
0.642424
-0.208926
0.570301
-0.361375
-0.00747717
0.00183658
-0.00865651
0.00681993
0.181777
-0.578274
0.396497
-0.0820906
-0.00217141
0.084262
0.202113
-0.272545
0.00128122
-0.000139936
-0.0315936
0.169668
-0.138075
-0.473127
0.642435
-0.169308
0.391725
-0.537744
0.146019
-0.212127
0.550219
-0.338092
0.520745
0.20011
0.184399
-0.421875
-0.191219
0.20863
0.349113
-0.0837943
-0.0113594
0.199862
-0.173198
-0.445659
0.125239
0.32042
0.0219029
0.0600397
0.373306
0.286517
0.401536
-0.0524227
-0.349113
-0.458312
0.510163
0.419999
-0.102801
-0.00184941
-0.00136037
0.00402379
-0.32638
-0.278072
0.604452
0.0806309
-0.614961
-0.110285
-0.170781
0.0872531
-0.379487
-0.00245072
-0.00421018
0.000532127
-0.594028
0.351782
0.242246
0.296944
0.131432
0.120678
0.0418053
-0.162484
0.00678336
-0.000758799
0.178219
-0.456426
0.141227
0.315199
0.311623
0.108376
-0.1963
-0.327151
0.316972
0.185275
-0.0867935
-0.0068409
-0.0932072
0.00388349
-0.125973
0.0161115
-0.0162136
-0.193512
-0.00531351
0.00491709
0.000396416
0.660995
-0.15892
-0.0861016
-0.220978
0.00358273
-0.0230446
0.0194618
-0.0928711
-0.193851
0.115868
-0.404304
0.288435
-0.000809475
-0.0040516
0.0654278
-0.0803957
0.0149679
0.00371985
0.477783
0.00167671
-0.0520957
0.154848
-0.0341698
0.0585818
-0.315216
0.256634
0.530603
-0.16676
-0.549973
0.201232
0.348741
0.145776
0.345298
0.269296
-0.47719
0.207894
0.00375036
0.00978021
-0.00945002
-0.12937
0.13882
0.00908211
-0.00724553
-0.00270488
0.00736295
-0.00465807
-0.00314972
0.00899462
-0.00205946
-6.27781e-05
-0.0780078
-0.00262974
0.0806375
0.0925846
-0.00166646
0.638829
-0.211769
-0.427059
-0.411512
0.304065
0.107447
-0.456276
0.58897
0.00682032
0.00226205
-0.00908236
0.00366644
-0.00324419
0.150107
0.375592
-0.525699
0.00827399
-0.31684
0.515535
-0.198695
0.184072
-0.579572
0.3955
-0.43565
0.294209
-0.385609
0.539471
-0.153861
0.000637762
0.0195721
0.132722
0.220727
-0.204199
0.303168
-0.414215
0.111048
0.150837
-0.0306704
-0.00199205
-0.00767442
-0.0565369
0.283672
-0.227136
-0.169269
-0.0229771
0.192247
0.4504
-0.334532
0.212243
0.366433
-0.320647
0.297377
0.00323545
-0.00237242
-0.000863032
0.36235
0.168253
-0.134818
-0.321608
0.508563
-0.116838
-0.102905
0.00787167
0.00388327
0.00205844
-0.000329892
0.333495
0.301084
-0.00216823
0.0941586
-0.0905035
-0.00353149
-0.00711955
0.0095669
-0.00274659
0.0110812
-0.00749849
-0.290108
0.391167
0.0775304
-0.455163
0.377633
-0.105345
-0.5085
-0.00201679
0.000846545
0.331751
0.156343
-0.231234
0.0345716
0.196662
0.365077
-0.556803
-0.596406
0.38748
0.0493081
0.00374763
0.293096
0.106229
-0.399325
0.594415
-0.433448
-0.160967
-0.344419
-0.0926965
0.210236
0.0722813
0.631771
-0.366828
0.00372545
-0.00643033
-0.526847
0.453918
0.0729284
0.172413
-0.443129
0.270716
-0.0926804
0.305191
0.0875927
-0.392783
-0.00133411
-0.00060825
-0.143337
0.469561
-0.326224
-0.0262714
0.310697
0.123326
0.135292
0.275777
-0.41107
-0.299757
-0.609379
0.38727
0.311378
0.131873
-0.44325
0.46325
-0.385719
0.0187411
0.561849
0.00821882
-0.00278708
-0.203949
-0.0600992
0.264048
-0.116928
0.0762312
0.0406969
-0.337419
-0.590192
0.167448
0.422744
0.393711
-0.552646
0.158935
0.557735
0.579845
-0.310549
-0.403996
0.113888
-0.00818467
0.00303988
0.00514479
-0.507673
0.162716
0.344958
-0.00985712
-0.17218
0.499764
-0.343488
-0.00282672
-0.00582442
0.00865114
0.0231367
-0.217253
-0.013047
0.2303
0.214588
-0.225799
0.0112108
0.0502404
-0.0579693
-0.357391
-0.278433
0.274914
0.356857
0.00906556
-0.14241
0.133344
0.0085942
-0.086602
-0.0966909
0.350578
-0.253887
-0.00242346
0.00776822
-0.00534475
0.209889
0.19305
-0.402939
-0.0551573
-0.00507192
0.00726022
-0.0224348
-0.59408
0.0105338
0.583546
0.341446
0.0302721
-0.371718
0.138283
-0.0117422
-0.12654
0.189493
-0.183579
0.255076
-0.297942
0.375233
-0.486888
0.111655
-0.0676428
0.298685
-0.231042
0.41986
-0.164784
-0.234189
-0.0235918
0.361679
-0.15179
0.217435
-0.38367
0.166235
-0.00082626
-0.130075
0.130901
-0.4706
0.220807
0.018282
-0.00522242
-0.00296225
-0.153528
0.212844
-0.0750392
-0.137805
0.100131
-0.177107
0.0769756
0.0209003
-0.0264267
-0.165572
0.383007
0.359609
0.199727
-0.559336
-0.260486
0.00216288
-0.364813
-0.108497
-0.157277
0.519627
0.00404824
0.324303
-0.46764
0.000677262
-0.0069079
-0.350808
0.521223
-0.170415
-0.337032
0.00458234
0.0832853
-0.193498
-0.480539
0.3782
0.102339
0.199185
-0.180814
0.352912
-0.25828
-0.436704
0.541654
-0.104951
0.00423665
-0.00306121
-0.41472
0.308372
0.106348
-0.616119
0.364077
0.252042
-0.137171
0.417254
-0.280083
-0.00168885
0.00254033
0.456652
-0.200624
-0.0480702
0.389516
-0.0880984
0.261499
-0.195187
0.00395042
-0.00637389
0.422223
-0.24981
-0.18506
0.540007
-0.354947
0.223367
-0.219636
-0.112789
0.472398
0.100548
0.0154858
-0.0619065
0.00142202
0.0604845
0.0303282
0.34161
0.357706
-0.699317
-0.458444
-0.0405836
-0.00465006
0.00424358
0.000406479
-0.00185468
-0.26817
0.0123472
0.255823
0.478723
-0.284945
-0.0693137
0.338897
-0.297283
0.417112
-0.119828
0.113034
-0.139093
0.135653
0.00344075
0.017458
-0.000968075
-0.0164899
-0.109529
-0.000953256
0.00878532
-0.00783206
0.0546238
-0.00165382
-0.05297
0.112229
-0.507173
0.394943
-0.0531665
-0.00129735
-0.0045462
0.00638667
-0.00733993
-0.469327
0.337286
0.132042
0.346836
-0.654682
0.31046
0.139941
0.236495
0.204204
-0.440698
-0.00653594
-0.0034226
-0.0341063
0.445662
-0.290615
0.0157252
0.00173274
-0.261654
0.303228
0.000708223
0.0215756
-0.0191181
0.249825
-0.230707
0.00791842
-0.00452728
-0.000948765
-0.00370129
0.0176391
-0.242393
0.224754
-0.00499133
-0.000322175
0.0349228
-0.207549
0.549258
-0.341708
0.0878518
-0.101263
0.0134107
-0.105306
0.170171
0.34563
-0.117982
0.421149
0.00267789
-0.00306101
0.138308
-0.40899
-0.0991399
-0.254814
0.353953
0.640381
-0.369469
-0.270913
-0.156156
0.514908
-0.358752
0.0224683
4.55794e-05
-0.544229
0.193851
0.350378
-0.184062
0.15603
0.0280328
0.20111
0.390767
0.401955
-0.16546
0.150078
0.323471
-0.473548
-0.377601
0.237801
0.074954
-0.00952626
-0.158211
0.499821
-0.330164
0.538794
0.335214
-0.170791
0.299629
0.144353
0.400853
-0.0956629
-0.0677431
0.00899402
0.131687
0.364857
-0.521012
0.0025112
0.000724253
0.217039
0.377375
-0.0691147
0.00720816
-0.426135
-0.189984
-0.0248727
0.0251496
-0.000276863
0.0686882
-0.372641
0.303953
0.0808035
-0.0793815
-0.322904
0.403028
-0.0801243
-0.478346
0.0586161
0.154446
0.22409
0.177865
0.0868394
0.239109
0.357918
0.332581
-0.544708
0.00552127
-0.00834799
-0.172474
0.447247
-0.274773
-0.110137
-0.376751
-0.373535
-0.176438
-0.470763
0.144383
-0.0136012
0.155426
-0.141825
0.00747343
-0.00981611
-0.42352
0.251046
-0.0873224
0.31792
-0.608603
0.192429
0.416174
-0.123133
0.429637
0.321922
0.18613
-0.0167595
0.235201
-0.218442
-0.0886993
-0.393119
0.0512958
0.00332807
-0.403967
0.304654
0.099313
0.47484
-0.143089
0.205163
0.335152
0.0120057
0.000221768
-0.00462422
0.00882872
0.329846
0.200987
-0.530833
0.509298
-0.397069
0.00128025
0.000173102
-0.00409508
-0.0592414
0.00727026
0.272358
-0.211845
-0.110443
0.310553
-0.455597
0.066009
-0.0366672
-0.231503
0.0314973
0.00616573
-0.0376631
0.00135978
-0.114792
-0.162138
0.0642462
-0.0843501
0.213234
0.00135369
0.383858
-0.189148
-0.00391226
0.060574
0.206674
-0.0587344
-0.14794
-0.0156551
-0.000558514
-0.102457
-0.506923
-0.26532
0.323902
0.189174
0.289549
-0.447961
-0.0564846
-0.28284
-0.121157
0.12929
0.265314
-0.0293151
-0.235999
-0.190017
0.463374
0.0954033
-0.0980331
0.0241504
0.503849
-0.527999
-0.422666
-0.167527
-0.299064
0.262397
-0.265163
0.257855
0.00730836
0.173615