/*--------------------------------*- C++ -*----------------------------------*\
| =========                 |                                                 |
| \\      /  F ield         | OpenFOAM: The Open Source CFD Toolbox           |
|  \\    /   O peration     | Version:  v2012                                 |
|   \\  /    A nd           | Website:  www.openfoam.com                      |
|    \\/     M anipulation  |                                                 |
\*---------------------------------------------------------------------------*/
FoamFile
{
    version     2.0;
    format      ascii;
    class       surfaceScalarField;
    location    "200";
    object      phi_0;
}
// * * * * * * * * * * * * * * * * * * * * * * * * * * * * * * * * * * * * * //

dimensions      [0 3 -1 0 0 0 0];
oriented        oriented;


internalField   nonuniform List<scalar> 
20362
(
0.369264
0.112036
-0.4813
0.00497513
0.000825288
-0.00580042
-0.121156
-0.279443
0.400599
0.33166
0.112618
-0.444278
0.156006
-0.168848
0.0128417
0.383274
0.0596876
-0.442962
0.29563
-0.52345
0.227821
0.640774
-0.476923
-0.163851
-0.176106
-0.00942699
0.185533
0.245716
-0.2894
0.0436832
-0.179657
0.00355151
0.69529
-0.348452
-0.346838
-0.475432
0.647069
-0.171637
-0.00482729
0.00554323
-0.000715941
0.478111
-0.146451
-0.600796
0.606456
-0.00566004
0.213725
-0.0687152
-0.14501
0.532208
-0.257399
-0.27481
0.00351511
-0.00100477
-0.00251035
0.208569
-0.0885608
-0.120008
-0.0941912
0.0971349
-0.00294369
0.660314
-0.351343
-0.308971
0.503446
-0.398817
-0.104629
0.278412
-0.399568
-0.592209
0.599147
-0.00693805
0.640487
-0.584287
-0.0562
0.308198
-0.00530709
-0.302891
0.0643454
0.576142
-0.562695
-0.0295133
0.011459
-0.0113394
-0.000119672
0.00304019
-0.041104
0.0380639
-0.376688
-0.226274
0.602962
0.00281817
0.00117547
-0.00399365
0.0557592
-0.340265
0.284506
0.606958
-0.283385
-0.323573
-0.00471273
0.000587604
0.00412513
-0.336624
0.265213
0.0714109
-0.00328391
0.00825904
0.344458
-0.53104
0.186582
-0.453964
0.0261342
0.42783
-0.0940569
-0.129996
0.224053
0.300148
0.30681
0.294045
0.383317
0.534124
-0.435102
-0.0990216
-0.125848
0.495112
-0.339891
-0.0615731
0.401464
0.767112
-0.332903
-0.434209
-0.0626271
-0.382658
0.445285
0.238555
-0.247446
0.00889081
0.425592
0.128417
-0.554009
0.0594907
-0.0321021
-0.512495
0.449868
-0.694632
0.560376
0.134257
0.304306
0.227903
0.364012
-0.343793
-0.0202196
0.606707
-0.0654442
-0.541262
0.549463
-0.735044
0.18558
-0.145169
-0.271224
0.0284066
0.242817
-0.429377
0.315373
0.114004
-0.168195
0.0413821
0.126813
0.0792525
0.454871
-0.00515433
0.00692221
-0.00176788
0.253972
0.406342
-0.00789466
0.000140106
0.00775456
-0.427536
0.62133
-0.193794
0.000851578
-0.0950427
-0.00340793
-0.00328536
0.00669329
0.0631481
-0.534329
0.471181
-0.193371
0.179438
0.0139327
0.361196
0.405916
0.23045
0.410324
0.706022
-0.523009
-0.183012
0.356531
0.107136
-0.000700354
0.00347161
-0.00277126
-0.00975763
0.0726183
-0.0628607
-0.00847177
-0.184899
-0.0115118
-0.0587281
0.0702399
-0.00363136
0.00293101
-0.272687
0.252123
0.0205637
0.133403
-0.22746
-0.0133957
0.211531
-0.198135
-0.268795
0.174916
0.0938786
0.65039
-0.445575
-0.204815
0.50836
-0.163902
0.00740842
-0.00795213
0.000543709
0.235662
0.00589181
-0.241554
-0.185801
-0.270684
0.456485
0.281203
-0.647072
0.365869
-0.0777091
0.0881575
-0.0104484
0.636733
-0.440524
-0.196209
-0.0236515
0.135614
-0.475505
0.30782
0.0561919
-0.00635346
0.00133075
0.00502271
-0.00237828
0.00519645
-0.313322
0.0323443
0.280977
0.387998
0.307293
0.269117
0.285318
-0.554435
0.0833819
0.262503
0.139375
-0.401878
0.245089
0.00062782
-0.600182
0.548577
0.051605
0.670981
-0.436011
-0.23497
-0.33284
0.505498
-0.172658
0.0420908
0.171634
-0.120988
-0.147806
-0.663089
0.467533
0.195556
-0.0260364
-0.427928
-0.124426
-0.188896
0.200082
-0.00272835
-0.197354
-0.556959
0.117334
0.439625
-0.0113491
0.0119751
-0.00062594
-0.0117525
-0.121108
0.132861
0.0874569
-0.109466
0.022009
0.568884
-0.273474
-0.295411
0.349778
-0.521891
0.172112
0.0044698
0.0145303
-0.0190001
-0.0925148
-0.507667
0.101056
-0.3805
-0.011755
0.011755
0.412981
0.293041
0.292751
-0.387436
0.0946852
0.000726659
0.00278845
-0.00130682
0.0111833
-0.00987646
-0.00361952
-0.00462891
0.00824843
-0.250175
0.519292
-0.525357
-0.209686
-0.499877
-0.0570826
0.522092
-0.487727
-0.0343647
-0.14003
-0.028165
0.115053
-0.109538
-0.00551522
0.46991
0.0521816
0.210836
0.0277192
-0.0120632
7.78619e-05
0.0119854
0.151548
-0.175967
0.0244195
-0.001534
-0.00636066
0.106388
0.398418
-0.504807
-0.275384
0.355138
0.252834
-0.143635
-0.109199
-0.0339354
0.228815
-0.194879
-0.000891333
-0.0111719
0.126687
-0.508201
0.381514
-0.369075
0.547514
-0.178439
-0.0996453
0.482919
-0.0900615
-0.246563
0.00770159
-0.0854107
0.0862048
0.255947
0.185969
-0.37177
0.00246685
-0.453296
0.203121
-0.540794
0.598836
-0.0580414
0.213605
-0.227001
0.359923
-0.449347
0.120624
0.234905
-0.355529
-0.0672612
-0.216362
0.283623
-0.21121
0.455751
-0.244541
0.000863143
-0.00721661
0.0123866
0.486423
-0.498809
0.600944
-0.175352
-0.577645
0.102213
-0.00656397
0.00140965
-0.00370382
0.00403154
-0.000327718
-0.101876
-0.477308
0.579184
0.345275
-0.678115
0.109078
0.143756
0.463227
-0.167598
0.137652
0.259294
-0.396946
-0.628392
0.256029
0.372363
-0.374445
0.528765
-0.154319
-0.246907
0.367531
0.213621
-0.424832
-0.367201
0.284588
0.0826135
0.0554179
-0.0627868
0.00736894
0.469706
-0.237541
-0.232165
0.407064
0.167635
-0.574699
0.0559604
-0.0529202
0.00104281
0.0122277
-0.0132705
-0.497886
-0.0429082
0.00822185
-0.00781396
-0.00040789
-0.151684
-0.263169
0.414853
0.00584492
-0.00946443
-0.00274855
-0.600538
0.231463
-0.385934
0.512621
0.576332
-0.574211
-0.00212093
-0.26855
0.406202
0.169681
0.333765
-0.276575
0.209314
0.139004
-0.150757
-0.666795
0.425681
0.241113
0.00420454
0.00725451
-0.00897504
-0.00236433
0.558817
-0.328367
-0.589227
0.487351
0.232217
0.336668
0.200294
-0.0686825
-0.131612
-0.305598
0.606707
-0.00709799
3.58185e-05
0.00706217
0.45529
-0.348902
0.0103141
-0.00856107
-0.00175308
0.366442
-0.310683
0.383094
0.267296
0.293059
-0.529061
0.236002
-0.331434
0.269861
-0.0163491
0.0112333
0.0051158
-0.333327
0.433202
-0.0998752
-0.207612
0.00466855
0.202943
-0.0173001
-0.00361984
0.0049506
0.00157937
0.00873478
-0.386129
0.572017
-0.185888
0.0650619
-0.00964406
-0.00305126
-0.000580102
-0.101142
0.379554
-0.448337
0.625305
-0.176968
0.401767
-0.0781156
-0.323651
-0.0465995
0.0116188
0.0349807
0.244266
-0.34582
0.101554
0.172067
0.06052
-0.138414
-0.338053
0.476467
-0.00285123
-0.00186151
-0.216509
0.563302
-0.346794
0.0363159
0.163978
-0.00422982
-0.00436665
0.00859647
0.0476508
0.0146627
-0.0623135
-0.0117726
-0.0793207
0.0910934
-0.157183
-0.281311
0.438494
-0.000183251
0.00664813
-0.00646488
-0.00678509
-0.0003129
0.0072001
0.00102175
0.0757018
-0.0872136
-0.437389
0.0694165
0.367973
0.33764
-0.489776
0.152136
-0.00453023
0.00292671
0.00160352
-0.0238045
0.0282743
-0.510667
0.592021
-0.0813536
0.0155548
0.0244695
-0.0400243
0.3307
0.340281
-0.450181
0.424144
-0.163989
-0.4991
-0.00287559
-0.00503556
0.326028
-0.464443
0.122755
0.0372471
-0.308471
0.32346
-0.331182
0.0077213
-0.34105
0.647233
-0.306183
-0.183518
-0.00776457
0.191283
0.0012195
-0.0125686
-0.080858
0.054734
-0.0665067
-0.261095
0.329052
-0.0679567
0.0164591
-0.257778
0.241319
0.39772
-0.166684
-0.231036
0.414482
-0.121732
0.000743279
-0.00970955
0.00896627
0.0035026
-0.00357447
7.1873e-05
-0.375254
0.114159
0.372966
-0.503733
0.130767
-0.00158307
-0.00294715
-0.294091
0.282578
0.0115135
-0.559695
0.683302
-0.123607
0.0486958
0.010795
-0.00061702
0.0268026
-0.0261855
-0.0542364
0.52094
-0.466704
-0.151075
0.488715
0.343307
0.302134
-0.645441
0.319624
-0.309217
-0.0104065
0.386965
0.163912
-0.550877
0.218011
0.11104
-0.000242506
-0.00791037
0.00815287
0.0953655
0.271077
0.00602564
-0.00620889
0.187234
-0.145852
-0.00292744
0.000260974
0.00266647
0.453553
-0.103774
-0.288899
0.397136
-0.108237
0.25548
-0.632167
0.292272
-0.183195
-0.059381
0.00175108
-0.00598091
-0.306749
0.140652
0.166097
0.00222093
-0.00615467
0.00393374
-0.509804
-0.0909924
0.00835522
-0.0072486
-0.00110663
-0.155472
-0.0146484
0.17012
-0.0670558
0.15417
-0.581706
-0.00618884
0.00155993
0.0167108
-0.283684
-0.307846
0.59153
-0.000201224
-0.00999815
-0.00635091
-0.348736
0.254109
0.0946261
-0.504505
0.201839
0.302666
0.347931
-0.526656
0.178725
-0.0998187
-0.00971901
-0.638305
0.273357
0.364948
0.144085
-0.138588
-0.00549687
0.00141721
0.0011212
-0.00253841
0.208919
-0.0341271
-0.174792
0.484015
-0.492932
0.00891733
0.683456
-0.127307
-0.556149
-0.00217245
-0.00144808
0.270116
-0.120254
-0.149862
0.00986368
-0.0030215
-0.00684218
0.000120532
-0.00106771
0.000947178
0.2874
-0.286721
-0.000678677
-0.0953435
0.0162237
0.0791198
0.0260677
0.182501
-0.000657315
-0.0404467
-0.0101756
0.0841454
-0.458606
0.37446
0.535391
-0.148426
-0.610606
0.243358
0.367248
0.0025541
0.00485432
-0.0365855
0.0521402
0.00950203
0.00381201
-0.013314
-0.10871
0.00889133
-0.20125
-0.303255
0.254869
-0.406554
-0.500293
0.0958847
0.502195
-0.598079
-0.11317
0.0337634
0.450251
0.120475
0.171797
0.330469
0.182217
-0.512686
0.00400987
-0.00892919
0.00491932
0.192048
0.35653
-0.00801061
0.00324392
0.00476669
0.726738
-0.265765
-0.460972
0.295595
-0.154943
-0.187219
0.179887
0.00733199
-0.288224
0.487367
-0.199143
0.449559
0.277179
-0.242896
0.271303
0.380702
0.141225
-0.521927
0.0244466
-0.204313
0.179866
-0.167775
0.0123027
-0.00622857
0.00282064
-0.015136
0.000254392
0.00810083
-0.00179868
0.00191921
-0.188131
-0.084556
0.613845
-0.613845
0.270756
0.0488675
0.303987
-0.0637225
-0.240265
0.502247
-0.177908
-0.324339
-0.0152767
0.0128767
0.00240005
-0.00400763
0.00307402
0.00138201
-0.00445603
0.129134
-0.481782
0.352647
0.2507
0.108207
-0.358907
-0.425733
-0.328649
0.49058
-0.161932
0.0394801
0.230636
0.365259
-0.203807
-0.161453
-0.0935126
0.337778
-0.0212305
-0.42895
-0.2166
-0.00885792
0.225458
-0.00317366
-0.27221
0.229857
-0.558506
0.150695
0.0812167
-0.231912
0.00204972
0.0135303
-0.0137728
0.572283
-0.402601
0.300366
-0.485818
0.185452
0.54756
-0.337997
-0.209563
0.103644
0.294076
0.346739
0.30033
-0.336834
0.465968
0.323556
0.0782105
0.00976726
0.134318
0.517324
-0.216958
-0.391314
0.403701
-0.0615356
0.00746413
0.0540714
-0.0845747
-0.223764
0.308338
0.246613
0.0055097
0.31608
-0.532589
-0.179396
0.460599
0.417156
-0.131838
-0.000311196
-0.00451609
0.00300771
0.0566604
-0.0596681
0.0188225
-0.0194395
0.0166101
-0.0118222
-0.00478795
0.238906
-0.0668385
0.529132
-0.150442
-0.37869
0.0626412
0.232161
-0.294803
0.268234
-0.479608
0.211374
-0.495503
0.207278
0.391557
-0.129053
-0.0428512
-0.434072
-0.509869
-0.0440339
0.553903
0.304251
-0.00564811
-0.298603
0.03275
-0.0251197
-0.00763025
-0.000179842
-0.00339463
0.0793386
-0.320134
0.240795
-0.557842
0.109505
0.490842
-0.222608
-0.438249
0.654139
-0.21589
-0.368923
0.164423
0.2045
0.201734
-0.177287
-0.157254
-0.272123
0.0223062
0.00410666
0.300145
0.35855
-0.500825
0.142275
-0.0153004
0.0160437
-0.360381
0.491149
-0.130768
-0.00469756
0.0055607
0.361079
-0.261874
-0.0992047
0.000795743
-0.109506
-0.0429782
-0.0523652
-0.133333
-0.00617466
0.139508
0.429611
-0.293997
0.0134398
-0.0602333
0.0467936
0.203305
-0.0309802
-0.00901604
0.00573214
-0.0640796
0.00906899
0.0550106
0.0586953
0.0294622
0.412841
0.12255
0.24404
-0.630169
0.145488
-0.193496
0.0480085
0.00504384
-0.00597157
0.000927731
-0.638356
0.39374
0.244617
0.00679492
0.186764
0.286585
-0.473349
0.114237
0.331783
-0.44602
-0.0316135
-0.172699
0.0198653
0.00987351
-0.00928319
-0.000590326
-0.00261507
0.00568908
0.00218687
0.00768664
-0.266512
0.261572
0.00494056
-0.100585
-0.374327
0.474912
0.504502
-0.420357
-0.414817
-0.22354
-0.256461
0.325944
-0.0694831
0.205728
-0.0602403
0.198983
0.330149
0.000324409
-0.00452524
0.00420083
0.36238
-0.462965
0.111846
-0.0181329
-0.0937133
0.268456
0.330747
0.22807
0.00595671
-0.0114575
0.00550075
-0.222109
0.565416
0.183544
0.437787
-0.00531948
0.182224
-0.176904
-0.0535343
0.447274
-0.0151989
0.0665356
-0.0762932
0.101792
-0.450244
0.000153416
-0.00441
0.00425658
-0.460541
-0.0493281
0.0152988
-0.0518843
-0.00514287
0.00529628
0.633346
-0.412927
-0.220419
0.258265
0.101658
-0.279417
0.126833
0.152584
0.0132486
-0.00122579
-0.0120228
-0.165625
0.316321
-0.00117142
0.014748
-0.0135766
0.173538
-0.178857
-0.266023
-0.000489381
0.0700328
-0.00414038
-0.00381175
0.42831
-0.482547
-0.0150351
0.0137283
0.00372512
0.207806
0.120691
-0.454753
0.334061
0.333004
-0.491181
0.158176
-0.186549
-0.00257518
0.00110953
0.00146566
-0.555856
0.120655
0.4352
-0.455035
-0.0556322
0.139189
-0.137304
-0.00188552
0.0802468
-0.0076285
0.391417
-0.180426
-0.210991
0.559593
-0.0960718
-0.463521
-0.57949
0.145886
0.433604
0.532702
-0.468356
-0.00114822
0.0106502
-0.614138
0.330455
-0.43046
0.376925
-0.0266713
0.486519
-0.459848
0.488097
-0.155092
-0.00143402
-0.000258317
-0.00231687
0.23271
0.12837
0.0059583
0.229704
0.68128
-0.292486
-0.388795
-0.000538844
0.00172719
-0.00118834
0.00185148
0.00369175
0.369491
-0.350472
-0.0190186
0.269588
0.0956718
-0.0106499
0.0101316
0.000518322
-0.000904994
-0.00588988
0.00679488
0.343888
0.292845
-0.633468
0.286534
0.346934
-0.417975
-0.0507337
0.468708
0.279379
0.401901
0.01836
0.190559
-0.38363
0.305514
-0.366899
-0.175766
0.542665
0.0553817
0.131852
0.00409837
-0.00392216
-0.000176216
0.204065
0.380068
-0.584133
-0.300438
0.487202
-0.404441
0.332376
0.0720652
0.326981
0.306365
-0.274399
0.189824
-0.0346667
0.567368
-0.175174
-0.00121364
0.176387
0.0337692
-0.217287
-0.423766
0.402536
0.335003
0.0344877
0.226307
-0.231614
-0.195885
-0.00354689
-0.204065
0.00491776
0.000262479
-0.00518024
0.530314
-0.117474
-0.201502
0.167567
-0.182516
-0.00470245
0.00577822
0.00541528
-0.0111935
-0.239758
0.24565
-0.635824
0.351216
0.284608
0.146945
-0.00775506
-0.0139186
0.214001
-0.197731
-0.0916692
0.101076
-0.0136194
-0.438348
0.335443
0.102905
0.060905
-0.0519709
-0.008934
-0.382265
0.451429
-0.0691639
-0.507213
-0.0512486
0.558462
-0.0614823
-0.02014
0.0816222
-0.212874
0.24429
-0.34461
0.10032
0.00829952
0.00147774
-0.00977725
-0.486973
-0.146495
0.158099
-0.355668
0.293272
0.0623955
0.0262525
0.154197
0.00562111
-0.000703346
-0.0990908
-0.180326
-0.569633
0.163261
0.406372
-0.489789
-0.086872
0.576661
-0.554391
0.19731
0.357081
-0.573976
0.188793
0.385183
0.11381
-0.531784
0.365937
0.151387
-0.368716
-0.035725
-0.504485
0.196578
0.307907
0.196198
0.380134
-0.00462164
-0.00485832
0.00947996
0.11123
0.000616376
0.0127369
-0.0139083
0.330668
-0.242978
0.0560743
-0.43834
0.00146361
0.011785
0.0421283
-0.373562
-9.00047e-05
0.0225147
-0.0224247
-0.550703
0.060915
0.244994
0.146423
0.201068
0.371215
2.19456e-05
-0.0112742
0.0112522
-0.238696
0.0397603
0.198936
-0.0727421
-0.000158778
0.0729009
-0.193474
-0.369583
0.573648
-0.000195481
-0.0504239
0.0506194
0.468662
-0.534106
0.00976872
-0.193547
-0.310938
0.347097
-0.276895
-0.0702024
0.0068556
0.485871
-0.284032
-0.00295576
-0.00203147
0.00498723
-0.00966656
0.00879716
0.000869401
-0.135548
0.501485
-0.215937
-0.3191
0.535036
-0.0927886
-0.345147
0.437936
0.309193
0.209361
-0.518554
-0.00220078
0.50886
-0.388221
0.199657
-0.160177
0.267131
0.280429
0.188214
-0.190943
-0.110479
-0.360896
0.245833
0.115063
0.0144946
-0.0089311
-0.00556346
-0.443999
0.0202327
-0.0565184
-0.129766
-0.206624
0.33639
0.0318451
0.272142
0.000996543
-0.00368054
0.002684
0.36181
-0.266444
0.118388
-0.558913
-0.298823
0.540315
-0.231784
-0.308531
0.11936
-0.564934
-0.00537962
0.00623272
-0.000853108
0.00112366
-0.00903402
0.485
-0.225383
-0.259618
-0.141437
0.443981
-0.302544
0.11009
0.352709
-0.462799
0.0529445
0.0481317
-0.00212211
0.00238309
-0.0893438
0.294607
-0.205263
0.314099
-0.193625
0.00479844
-0.00447403
0.35994
-0.10924
-0.132027
0.409312
-0.277285
0.128458
-0.513973
0.385515
0.0135447
0.0192052
-0.277463
0.340105
0.634579
-0.447325
-0.187255
0.0721088
-0.579322
-0.00114249
0.0909248
-0.0897823
-0.0184365
0.0184584
0.160063
-0.19419
0.208184
0.339741
-0.547925
0.248921
0.0384788
0.0414654
0.187349
-0.404284
0.532742
0.528143
0.0857018
-0.00882353
0.00420188
0.633664
-0.399502
-0.234163
-0.00202733
0.00363855
-0.00161122
0.435283
-0.0132813
-0.422002
0.00261483
0.00543175
-0.00804657
0.282517
-0.233852
-0.0486646
-0.476638
0.109739
0.000657469
-0.00963251
-0.00236062
-0.00564998
-0.105971
-0.379293
0.489383
-0.0904975
0.40587
0.0173609
-0.357626
0.00679723
-0.00995987
0.00316264
-0.208545
0.20078
0.00827729
0.00833285
-0.10153
0.00228924
0.179934
0.00449641
0.257036
-0.181998
0.169816
0.0121817
-0.293003
0.0431875
0.249815
0.0385487
-0.0251089
0.676055
-0.405218
-0.270837
0.219228
0.265773
0.564944
-0.330142
-0.234802
0.578676
-0.211594
-0.367082
0.418676
-0.38191
-0.0367657
0.0285731
0.171084
0.418828
0.257227
-0.42247
-0.131921
-0.18113
0.325921
-0.41871
0.132493
-0.492874
-0.312685
0.504732
-0.204251
0.593557
-0.389307
0.289365
0.233762
-0.523128
0.0223547
0.056311
-0.0786657
-0.0987537
0.189829
-0.552667
0.362838
0.0108979
-0.0057833
-0.00511457
0.186502
-0.184212
-0.000401762
-0.0180347
0.053036
-0.043967
-0.00255937
-0.249689
0.229719
0.0199696
-0.355617
-0.107544
0.46316
-0.285676
0.406367
0.0110525
0.424231
-0.00772863
-0.0388709
0.130683
0.20432
0.322296
0.242649
0.0946877
0.386144
-0.480831
0.477464
-0.104498
-0.499027
0.411838
0.0871883
-0.148192
-0.34146
0.489652
0.295975
0.122701
0.259394
0.10659
-0.365984
-0.000630612
-0.129618
-0.162191
0.291809
-0.613093
0.372927
0.240166
0.285062
-0.154379
0.480979
-0.186934
0.182021
0.424435
0.2091
0.182457
-0.331652
0.201886
0.109421
-0.54767
0.000368553
0.0202088
-0.0205774
0.359964
-0.508155
-0.254969
-0.480898
0.576782
0.174279
-0.521171
0.346892
0.338369
0.167883
-0.506252
0.306488
-0.421169
0.114681
-0.489983
0.148933
-0.182046
0.00591206
0.176134
-0.0704324
0.284707
-0.214274
-0.0119089
0.00652926
-0.239667
-0.304676
0.544343
-0.00590043
0.156275
0.331225
-0.4875
0.000903425
-0.00293076
-0.000382361
-0.00402764
-0.294125
0.293197
0.000927608
-0.381366
0.125236
0.25613
0.0663059
0.197318
-0.263624
0.515801
-0.341522
-0.250647
-0.31116
0.561807
0.193751
0.29212
0.171332
0.357433
-0.490314
-0.0146665
0.0262331
0.000569471
0.120176
0.0267682
-0.00208218
0.00391714
-0.00183497
-0.238706
0.493545
-0.254839
0.0110546
-0.00522462
-0.00582996
-0.573833
0.416531
-0.443202
-0.393317
-0.0428662
-0.29046
0.00561184
0.00544274
-0.281071
0.0451791
0.235892
-0.0676848
0.0706925
-0.00434557
-0.288657
-0.147125
0.0137919
-0.0153905
-0.193104
0.591522
0.121848
-0.310044
-0.0988144
-0.256853
-0.209221
-0.292234
0.501455
-0.126383
-0.312931
0.439314
0.689752
-0.333223
-0.00100121
0.00211073
-0.0251635
0.0247618
0.218274
-0.0954021
-0.303415
0.554843
-0.191725
-0.363117
-0.009812
0.0111571
-0.00134506
0.275948
-0.0941014
-0.485388
0.488486
-0.321168
-0.167317
-0.102631
-0.00264488
0.000562701
-0.240174
0.256633
0.0352138
-0.558223
0.123845
0.190255
-0.00663105
-0.00113773
0.00776877
0.276021
-0.408048
-0.00623121
0.00263814
0.00359307
0.116096
-0.282781
-0.473308
0.348288
0.125021
0.0819476
-0.0601619
-0.0217857
-0.000173109
0.00117196
-0.000998851
-0.00116978
-0.00240921
0.00357899
0.00261698
-0.562312
0.325812
-0.110929
-0.214883
0.00697541
0.00392246
-0.524403
0.101933
-0.00470298
-0.000554204
0.00525719
0.414718
-0.125353
-0.208223
0.397267
0.20838
-0.447086
0.124246
0.0892866
-0.213532
-0.00746938
-0.00145982
-0.183739
-0.143073
0.398669
0.477956
-0.383268
-0.581027
0.151891
0.429137
0.154375
-0.11806
-0.302663
0.132694
-0.568705
-0.464067
0.582838
-0.118771
0.153789
0.334697
-0.0856457
0.0675128
-0.180362
-0.448029
0.317028
-0.437003
0.119974
0.0799155
-0.000101916
0.0222824
-0.0221805
-0.30712
0.303946
-0.00175938
0.00122054
-0.0673927
0.0671972
-0.00199065
0.000989439
-0.17281
0.218253
-0.427474
0.0919865
-0.0848759
-0.00711058
-0.177039
-0.461265
0.0033014
-0.0021802
0.0142481
-0.00846983
0.0205701
-0.195744
-0.369737
0.498155
-0.405642
0.205775
0.199868
-0.377294
0.449247
-0.0719532
0.00468501
-0.167549
0.162864
-0.499982
0.273708
-0.0103581
-0.00553517
0.0158933
0.134637
-0.264632
0.5691
-0.0951592
0.0873463
0.00781295
-0.178699
0.0901385
-0.00158403
0.00141092
0.259612
-0.443724
0.184112
0.00190008
0.38451
-0.139803
-0.244706
0.000855589
0.000140954
0.434026
-0.267599
-0.166427
-0.0919273
0.216173
0.19471
0.323677
-0.518387
0.352896
0.121379
-0.474275
0.230592
-0.325465
0.0948725
0.0266702
-0.183889
0.157218
0.208883
-0.344991
0.136108
0.504838
0.607166
-0.200394
-0.406772
0.0878724
-0.0822588
-0.0056136
-0.359773
-0.205658
0.565431
0.144202
-0.452225
0.308023
-0.00234263
-0.00836804
0.0107107
0.462732
-0.20312
0.659823
-0.239689
-0.420133
-0.0860887
-0.488122
-0.00963627
0.0010752
-0.401836
0.0906757
0.489412
-0.377376
0.0934937
0.232319
0.628921
-0.184916
-0.444005
-0.328061
0.386976
-0.0589155
0.35604
0.201967
-0.558008
0.133356
0.0210196
0.051851
-0.429145
-0.485562
0.545473
-0.0599112
-0.252085
0.355729
0.0929603
0.557743
-0.32174
0.411551
-0.351864
-0.00293123
-0.10153
0.104461
0.00660268
0.000157182
-0.00675986
0.181399
0.0203351
0.218157
0.336686
0.00271566
-0.00247993
-0.000235727
0.00130822
-0.00426398
0.00223658
-0.00693414
-0.171672
0.00746074
0.164211
0.00711608
-0.00686169
0.343791
-0.488106
0.144315
0.363866
0.175019
-0.538885
0.428358
-0.125681
-0.302677
-0.481764
-0.00379767
-0.504445
-0.0428226
0.547268
0.0025153
-0.26178
0.213106
-0.157724
-0.15889
-0.354945
0.513835
-0.207068
0.283554
-0.0764869
0.559438
-0.21446
0.293798
-0.00386946
0.00112091
0.000422162
-0.0049474
-0.181608
-0.388025
-0.379396
-0.229453
0.236309
0.264962
0.368703
-0.221086
-0.341655
0.562741
-0.505728
-0.00335434
0.000922287
0.00243205
-0.00470901
0.0998806
-0.0951716
-0.0817968
0.28649
-0.204693
-0.156702
0.495071
-0.141589
-0.348707
0.566864
0.00338895
0.00175094
-0.00513989
-0.116727
-0.253863
0.37059
-0.249793
-0.226845
-0.00640122
-0.0761525
0.300508
-0.224356
0.23408
-0.22857
0.27967
-0.402791
0.123121
-0.00246616
0.0344484
-0.0319822
-0.389523
0.430975
-0.0414522
0.0957794
0.301356
0.508052
-0.177583
0.00058032
-0.00194243
0.00136211
0.388296
0.142019
-0.145984
0.00219048
0.00610903
0.00148073
-0.100052
0.0997017
0.000350162
0.0332509
-0.0443725
0.0111216
-0.0685351
-0.00575109
0.00104811
-0.51499
0.582245
-0.0672549
-0.127693
-0.0108954
0.357495
0.325806
-0.4876
0.127827
-0.00321
-0.000882058
0.00409206
-0.520613
0.0895638
-0.0366193
0.269599
0.38454
0.00114134
-0.000561017
-0.00584359
0.0049386
-0.0641873
0.329401
-0.0151797
-0.00859713
0.0237768
-0.000182411
0.353437
-0.229592
-0.110687
-0.251041
0.361728
-0.229443
0.642423
-0.208926
0.5703
-0.361375
-0.0074746
0.0018366
-0.00865657
0.00681996
0.181776
-0.578267
0.396491
-0.0820869
-0.00217498
0.0842619
0.202113
-0.272545
0.00128125
-0.000139911
-0.0315952
0.169667
-0.138072
-0.473181
0.642365
-0.169184
0.391841
-0.537748
0.145908
-0.212127
0.550219
-0.338092
0.520789
0.200114
0.184396
-0.421874
-0.191219
0.20863
0.349112
-0.0837992
-0.01136
0.199868
-0.173198
-0.445661
0.125244
0.320417
0.0219067
0.0600409
0.373306
0.286517
0.40143
-0.0524236
-0.349006
-0.458312
0.510163
0.419913
-0.102885
-0.00184966
-0.00136035
0.00402388
-0.326379
-0.278072
0.604451
0.0806348
-0.614963
-0.110295
-0.170776
0.0872528
-0.379487
-0.00245091
-0.00421062
0.000530084
-0.594028
0.351782
0.242246
0.29692
0.131438
0.120686
0.041803
-0.162489
0.00678373
-0.000758091
0.178223
-0.456425
0.141226
0.315199
0.311439
0.108474
-0.1963
-0.32715
0.316973
0.185275
-0.0867959
-0.00684302
-0.0932088
0.00388992
-0.125973
0.0161108
-0.0162127
-0.193517
-0.00531141
0.00491428
0.000397124
0.660969
-0.158774
-0.0861519
-0.220968
0.00358333
-0.0230513
0.019468
-0.0928689
-0.193852
0.116007
-0.404262
0.288255
-0.000811666
-0.00404665
0.0654256
-0.0803936
0.0149681
0.00372035
0.477783
0.00167419
-0.0520981
0.154852
-0.0341666
0.0585874
-0.315215
0.256628
0.530591
-0.166726
-0.549972
0.201231
0.348741
0.145613
0.345536
0.269296
-0.47719
0.207894
0.00375071
0.0097796
-0.00946038
-0.12936
0.13882
0.00908215
-0.00724555
-0.00270495
0.00736312
-0.00465817
-0.00314979
0.0089947
-0.00205902
-6.3098e-05
-0.0780066
-0.00263353
0.0806402
0.0925895
-0.00166468
0.638844
-0.211779
-0.427065
-0.411481
0.303951
0.10753
-0.456276
0.58897
0.00682038
0.00226208
-0.00908247
0.00366656
-0.0032444
0.150107
0.375592
-0.525698
0.00827497
-0.31684
0.515535
-0.198695
0.184074
-0.57957
0.395496
-0.43565
0.294212
-0.38561
0.539471
-0.153862
0.000636687
0.0195721
0.132673
0.220764
-0.204198
0.303167
-0.414217
0.11105
0.150839
-0.0306626
-0.00199208
-0.00767449
-0.0565351
0.283668
-0.227133
-0.169266
-0.0229923
0.192258
0.450351
-0.334344
0.212243
0.366433
-0.320648
0.297384
0.00323561
-0.00237251
-0.000863105
0.362393
0.168199
-0.134816
-0.321609
0.508542
-0.116702
-0.102902
0.00787167
0.00388332
0.00205727
-0.000330085
0.333495
0.301084
-0.00217047
0.0941569
-0.0905002
-0.00353034
-0.00711958
0.00956701
-0.00274663
0.0110865
-0.00750322
-0.290112
0.391168
0.0776261
-0.455033
0.377407
-0.105345
-0.5085
-0.00201667
0.00084689
0.33175
0.156347
-0.231234
0.0345697
0.196664
0.365077
-0.556802
-0.596405
0.38748
0.0493107
0.00372528
0.293097
0.106228
-0.399326
0.594412
-0.433449
-0.160963
-0.344273
-0.0927299
0.210238
0.0722787
0.631766
-0.366804
0.0037256
-0.00643055
-0.526847
0.453917
0.0729293
0.172417
-0.443133
0.270716
-0.0928229
0.305184
0.087595
-0.392779
-0.00133418
-0.000608248
-0.143336
0.469561
-0.326225
-0.0262707
0.310701
0.123325
0.135289
0.275779
-0.411068
-0.299757
-0.609379
0.38727
0.311378
0.131871
-0.443249
0.463134
-0.385508
0.0187645
0.561844
0.00821888
-0.00278714
-0.203953
-0.0600897
0.264043
-0.116964
0.076189
0.0407754
-0.337418
-0.590186
0.167434
0.422752
0.393844
-0.552677
0.158832
0.557757
0.579844
-0.310549
-0.403994
0.113882
-0.00818537
0.00303991
0.00514546
-0.507673
0.162715
0.344958
-0.00987128
-0.172175
0.499764
-0.343488
-0.00282678
-0.00582442
0.0086512
0.0231465
-0.217258
-0.0130411
0.230299
0.214587
-0.225801
0.0112138
0.0502404
-0.057969
-0.357391
-0.278433
0.274887
0.356878
0.00906919
-0.142417
0.133348
0.008597
-0.0866036
-0.0967
0.350594
-0.253894
-0.00242334
0.00776827
-0.00534493
0.20989
0.193049
-0.402939
-0.055163
-0.00507032
0.00725836
-0.022438
-0.594079
0.0105337
0.583546
0.341445
0.0302729
-0.371718
0.138288
-0.0117425
-0.126546
0.189487
-0.183575
0.255074
-0.29794
0.37506
-0.48678
0.11172
-0.0676391
0.298681
-0.231042
0.41986
-0.164785
-0.234187
-0.0235908
0.36168
-0.15179
0.217501
-0.383734
0.166233
-0.000824823
-0.130074
0.130899
-0.470599
0.220806
0.018281
-0.00522323
-0.00296214
-0.153527
0.212848
-0.075043
-0.137805
0.100124
-0.177108
0.0769845
0.0209029
-0.0264381
-0.165582
0.383082
0.35965
0.199705
-0.559354
-0.260489
0.00216306
-0.364815
-0.108493
-0.157196
0.519588
0.00404848
0.324303
-0.467639
0.000677293
-0.0069085
-0.350808
0.521223
-0.170414
-0.337033
0.00459038
0.083282
-0.193506
-0.480488
0.377928
0.10256
0.199185
-0.180825
0.352912
-0.258286
-0.436703
0.541654
-0.104951
0.00423685
-0.00306138
-0.414722
0.308234
0.106489
-0.616119
0.364077
0.252042
-0.137131
0.417224
-0.280093
-0.00169281
0.0025484
0.456652
-0.200624
-0.0480698
0.389515
-0.0880937
0.261498
-0.195193
0.00395063
-0.00637397
0.422227
-0.24981
-0.18506
0.540008
-0.354948
0.223363
-0.219638
-0.112767
0.472417
0.100553
0.0154849
-0.0619002
0.00141564
0.0604845
0.0303313
0.34161
0.357706
-0.699316
-0.458443
-0.0405835
-0.00465002
0.00424365
0.000406371
-0.00185573
-0.26817
0.012349
0.255821
0.478687
-0.284935
-0.0693101
0.338898
-0.297283
0.417112
-0.119829
0.113033
-0.139102
0.135655
0.00344663
0.0174584
-0.00096849
-0.0164899
-0.109529
-0.000953275
0.00878539
-0.00783212
0.0546277
-0.00165575
-0.0529719
0.112229
-0.507172
0.394943
-0.0531549
-0.00129729
-0.0045463
0.00638671
-0.00733998
-0.469453
0.337471
0.131982
0.346835
-0.654682
0.31029
0.140061
0.236415
0.204294
-0.440709
-0.0065373
-0.00342257
-0.0341177
0.445669
-0.290612
0.0157254
0.00173297
-0.261657
0.303227
0.000707634
0.0215748
-0.0191211
0.249821
-0.2307
0.00791447
-0.00452552
-0.000948646
-0.00370137
0.0176328
-0.242392
0.22476
-0.00498864
-0.000322767
0.0349251
-0.207549
0.549257
-0.341709
0.0878582
-0.101263
0.013405
-0.105428
0.170171
0.34563
-0.117985
0.421152
0.00267882
-0.00306118
0.138306
-0.40899
-0.0991439
-0.254812
0.353956
0.640395
-0.369491
-0.270904
-0.156156
0.514909
-0.358752
0.0224686
4.61394e-05
-0.544228
0.193851
0.350378
-0.184065
0.15603
0.0280352
0.20105
0.390971
0.401971
-0.165556
0.150078
0.323471
-0.473548
-0.377601
0.237798
0.0749537
-0.00952809
-0.15821
0.49982
-0.330164
0.538794
0.335215
-0.170792
0.299629
0.144353
0.400853
-0.0956688
-0.0677471
0.00901897
0.131688
0.364856
-0.521013
0.00251129
0.000724319
0.217036
0.377375
-0.0691125
0.0072123
-0.426135
-0.189984
-0.0248724
0.0251504
-0.00027797
0.068688
-0.372641
0.303953
0.0807964
-0.0793807
-0.322821
0.402941
-0.0801201
-0.478346
0.0586237
0.154482
0.224025
0.177946
0.0868334
0.23911
0.357918
0.332581
-0.544708
0.00552128
-0.00834806
-0.172474
0.447247
-0.274773
-0.110168
-0.376612
-0.373535
-0.176437
-0.470762
0.144383
-0.0136086
0.155426
-0.141817
0.00747351
-0.00981614
-0.423519
0.251046
-0.087334
0.317926
-0.608609
0.192417
0.416192
-0.123148
0.429636
0.321921
0.18613
-0.0167651
0.235201
-0.218436
-0.0886423
-0.393139
0.0512963
0.00333134
-0.403922
0.304607
0.0993148
0.474844
-0.143094
0.205163
0.335152
0.0120054
0.00022227
-0.00462422
0.00882875
0.329846
0.200987
-0.530833
0.509298
-0.397069
0.0012806
0.000173165
-0.00409532
-0.0592393
0.00726835
0.272362
-0.211842
-0.110437
0.310551
-0.455508
0.0659844
-0.0366698
-0.2315
0.0315024
0.00616714
-0.0376695
0.00136069
-0.114792
-0.162138
0.0642224
-0.0843624
0.213234
0.00135235
0.383858
-0.189148
-0.00390935
0.0605698
0.206683
-0.058664
-0.148019
-0.0156542
-0.000558517
-0.102457
-0.506922
-0.265316
0.323903
0.189155
0.289532
-0.447961
-0.0564846
-0.282844
-0.12115
0.12925
0.265316
-0.0293214
-0.235995
-0.190017
0.463373
0.0954019
-0.0980355
0.0241504
0.503849
-0.527999
-0.422673
-0.167513
-0.299067
0.262397
-0.265143
0.25784
0.00730323
0.173614
-0.521791