/*--------------------------------*- C++ -*----------------------------------*\
| =========                 |                                                 |
| \\      /  F ield         | OpenFOAM: The Open Source CFD Toolbox           |
|  \\    /   O peration     | Version:  v2012                                 |
|   \\  /    A nd           | Website:  www.openfoam.com                      |
|    \\/     M anipulation  |                                                 |
\*---------------------------------------------------------------------------*/
FoamFile
{
    version     2.0;
    format      ascii;
    class       volVectorField;
    location    "200";
    object      U_0;
}
// * * * * * * * * * * * * * * * * * * * * * * * * * * * * * * * * * * * * * //

dimensions      [0 1 -1 0 0 0 0];


internalField   nonuniform List<vector> 
13726
(
(1.02626 0.00480597 1.30396e-21)
(-0.152733 -0.00341467 0)
(1.07588 0.0182955 4.35118e-20)
(1.02344 0.017807 -3.60885e-21)
(1.19707 0.0583217 1.82442e-20)
(1.02337 0.00679023 -8.98975e-22)
(1.01897 0.0128604 0)
(1.01906 0.0138879 1.87447e-21)
(1.19408 0.0649866 1.41293e-19)
(1.13707 0.0496872 1.81859e-20)
(1.195 0.061824 -8.99368e-20)
(1.00896 0.00143466 1.07694e-22)
(0.994618 6.85187e-05 0)
(-0.0709135 -0.0133208 0)
(1.02332 0.0172405 5.08187e-21)
(0.998994 0.000462774 2.63862e-21)
(1.16432 0.0870199 9.32421e-20)
(1.04136 0.0364939 -1.07234e-20)
(-0.0264618 0.0262334 0)
(1.14801 0.105116 3.68297e-20)
(0.663229 0.0891131 0)
(0.995288 0.000252428 1.28312e-22)
(1.03452 0.0250892 0)
(1.07793 0.0186128 0)
(0.994993 0.000254707 0)
(1.00108 0.000789669 0)
(1.08163 0.0560925 4.50083e-20)
(1.00106 0.000792236 0)
(0.995249 0.000238182 3.99955e-23)
(-0.217289 -0.014665 -6.31986e-20)
(0.449509 0.0699645 0)
(1.00997 0.00204673 0)
(-0.0496089 0.0265873 -1.02412e-20)
(1.04091 0.0512238 -4.15831e-21)
(0.997749 -0.0110654 1.00188e-21)
(-0.0357007 0.0136636 3.63076e-20)
(1.09824 0.0391229 3.05543e-20)
(-0.152285 -0.00159027 0)
(1.02536 0.0209846 -5.15571e-21)
(1.03897 0.0300249 6.09781e-22)
(1.05921 0.113698 0)
(1.00449 -0.0114246 0)
(1.03706 -0.000243754 0)
(1.02211 0.0170105 7.96421e-21)
(1.02823 0.00567605 -1.00882e-21)
(1.05135 0.0249866 2.54134e-20)
(1.01373 0.034864 -1.97072e-21)
(1.00503 0.00151742 -1.2445e-23)
(1.13395 0.0754772 -4.60136e-20)
(0.993919 6.55065e-05 5.23017e-22)
(0.211759 -0.0103648 3.15422e-21)
(1.00566 0.00154889 1.75583e-22)
(1.02702 0.0158776 0)
(1.04028 0.0359058 -9.35462e-21)
(1.08583 0.0198563 -5.22208e-20)
(1.02783 0.000528733 1.48286e-20)
(1.02955 0.0109893 -3.33193e-22)
(1.02966 0.0142279 3.58775e-22)
(1.11697 0.0463456 4.67553e-20)
(1.07631 0.011822 4.87264e-20)
(0.474567 0.0087307 6.54631e-21)
(1.02177 0.0168762 -7.81114e-21)
(-0.122832 -0.0223433 -7.77291e-20)
(0.995315 0.000254125 -9.85055e-23)
(-0.163956 -0.00717914 0)
(1.00612 0.00111824 0)
(0.701186 0.0881783 0)
(-0.0992078 0.0147831 -1.36117e-20)
(1.00695 0.00157097 1.33806e-22)
(1.18778 0.0722271 -2.36372e-20)
(1.01411 0.0379618 0)
(1.01869 0.0136655 0)
(1.00652 0.00111634 -2.42461e-21)
(1.06688 -0.000916472 -2.05832e-22)
(-0.0293624 0.0271955 -2.13928e-20)
(0.270789 0.0275695 1.4407e-23)
(1.19018 0.0692072 0)
(0.31851 0.0652729 0)
(-0.0419653 0.0261214 0)
(1.10506 0.0982922 -5.70466e-20)
(1.06932 0.111399 0)
(1.12676 0.075716 -5.29863e-20)
(1.11215 0.0964463 -3.52452e-20)
(0.99876 0.000400019 3.58503e-21)
(1.0252 0.0208109 3.42867e-21)
(-0.103557 -0.0317069 -3.36986e-20)
(1.09833 0.105156 0)
(1.0639 0.0192084 2.22132e-20)
(0.993591 8.34817e-06 3.97235e-22)
(0.595823 0.0879587 4.63777e-20)
(1.03648 0.00219763 -8.25482e-21)
(1.19815 0.058458 -1.90381e-20)
(1.05171 0.0252637 -1.44819e-20)
(1.08362 0.0215853 2.21554e-20)
(-0.0856234 -0.0242154 0)
(-0.063662 0.0245169 1.18196e-20)
(1.07153 0.0748071 2.14234e-20)
(1.00895 0.00147083 -1.10883e-22)
(1.02963 0.0219806 0)
(0.699328 -0.0150936 -6.34987e-22)
(1.05889 0.0251156 4.76957e-21)
(1.13704 0.0501128 3.2623e-20)
(1.01806 0.0212656 4.15122e-22)
(1.00275 0.00247039 -3.19255e-21)
(1.02387 0.024803 -2.99505e-22)
(1.16144 0.0873501 0)
(1.11431 0.0974575 0)
(1.01255 0.00660294 0)
(1.03985 0.0304657 -4.83147e-21)
(1.07407 0.0749871 -1.35627e-20)
(1.15192 0.0621035 -2.50064e-20)
(1.0025 0.00234968 0)
(0.14016 0.04248 6.90003e-20)
(0.475857 0.0731607 3.97903e-23)
(0.350575 0.0540522 0)
(1.02712 0.0226415 -4.51893e-21)
(0.994391 0.00952992 0)
(0.235683 0.0447088 3.98946e-20)
(1.01926 0.0194141 0)
(1.07539 0.0169573 -3.40725e-20)
(-0.201216 -0.0154702 6.69896e-20)
(1.00646 0.000958777 -2.35828e-21)
(1.07389 0.0202508 -1.49589e-20)
(-0.0349944 0.0246391 0)
(0.125196 0.0448798 1.63004e-20)
(-0.160724 0.000211846 0)
(1.02968 0.0223668 -2.98549e-21)
(1.03164 0.00780691 0)
(1.00258 0.00243971 -1.33114e-21)
(1.02404 0.0191259 1.59908e-21)
(0.455516 0.00909272 0)
(0.767606 0.0973937 -4.50232e-20)
(1.02407 0.0181676 -1.20695e-21)
(1.13153 0.0749061 4.47393e-20)
(-0.0856499 0.0113551 -5.43168e-20)
(1.19937 0.0543046 3.52083e-20)
(-0.160178 -0.00552622 0)
(0.882309 -0.0031922 1.71066e-21)
(0.694434 -0.0281283 8.87571e-22)
(0.551195 0.0118148 -4.56519e-21)
(1.11815 0.0902522 0)
(-0.0757524 0.00750554 1.97068e-20)
(1.01336 0.00847796 0)
(1.0038 0.00139648 5.71569e-23)
(1.02438 0.00734902 1.24271e-21)
(1.10012 0.037545 -1.63303e-20)
(0.634233 0.0889605 -2.34085e-20)
(1.09612 0.00187434 0)
(1.06577 0.0196813 -2.69453e-20)
(-0.0389397 0.0252676 2.4455e-20)
(1.03015 0.0232584 -1.52647e-21)
(0.997283 0.000243524 -2.16437e-21)
(1.12815 0.0776509 1.0026e-20)
(1.09341 0.00252304 0)
(1.00617 0.00156718 4.6239e-23)
(1.06208 0.0493675 -1.29469e-20)
(1.10649 0.0203753 2.20404e-20)
(0.990754 0.0223221 -3.51508e-22)
(-0.087845 -0.020041 0)
(0.994026 0.000141444 2.65476e-22)
(0.993871 3.23843e-05 -5.08395e-22)
(0.994407 5.39102e-05 0)
(-0.117933 -0.0229453 6.91998e-20)
(-0.0400876 -0.00708663 1.55869e-20)
(1.00339 0.000989897 0)
(1.02652 0.0253415 6.01376e-22)
(0.553983 0.0160781 0)
(1.01899 0.0126535 0)
(1.0576 0.022996 0)
(0.99477 0.000124739 8.32219e-22)
(1.03255 0.00408789 -2.66321e-22)
(1.06117 0.0481091 1.25962e-20)
(0.977282 0.0232421 6.70157e-21)
(1.08228 0.0236558 -2.3528e-20)
(0.271806 0.0631825 -2.28678e-21)
(1.02609 0.0461873 0)
(1.00315 0.00131709 -1.27861e-22)
(0.514201 0.0737093 0)
(0.160543 0.0484655 8.02097e-21)
(0.99768 0.000324325 2.05117e-21)
(0.0921862 0.0397748 5.78128e-20)
(1.05362 0.00476749 -1.03498e-20)
(-0.154016 0.00312337 2.05837e-20)
(-0.0456752 0.0299563 0)
(1.00349 0.00135635 6.97963e-24)
(1.01293 0.00799811 -1.41214e-21)
(0.995734 0.000178866 0)
(1.05622 0.0215586 -1.91365e-20)
(1.03363 0.0250661 -1.48075e-20)
(1.10867 0.0219113 -7.04275e-20)
(0.556886 0.078789 9.2356e-22)
(1.0171 0.0392192 0)
(-0.216602 -0.0138447 8.48357e-20)
(-0.21137 -0.0129747 0)
(1.01825 0.0131073 -5.14434e-21)
(1.00443 0.00103173 4.98054e-25)
(1.02637 0.0223594 0)
(0.796263 0.112504 0)
(1.01861 0.0357656 6.65838e-22)
(1.02593 0.000923232 -6.37758e-21)
(-0.131821 -0.0103166 0)
(0.895309 0.00078109 0)
(-0.188602 -0.00905858 6.26568e-20)
(1.04131 0.0500945 4.85695e-21)
(0.998763 0.000424737 0)
(1.01471 0.00993741 0)
(1.05195 0.0265616 0)
(-0.118544 0.0191937 1.87567e-20)
(1.08074 0.0103941 1.86315e-20)
(1.12833 0.0822309 1.06056e-20)
(1.1999 0.0539906 1.90868e-20)
(-0.0853272 -0.0254237 0)
(-0.193987 -0.0110946 -6.32139e-20)
(0.994587 0.000175327 -1.43395e-23)
(0.30299 0.0671735 -7.16025e-21)
(-0.037976 0.0265822 5.29543e-20)
(1.07823 0.0199116 -9.42423e-21)
(1.03692 0.000271626 -1.01776e-20)
(1.04481 0.0388003 5.88439e-21)
(0.2827 0.0663546 0)
(1.09259 0.0146405 5.12292e-20)
(1.14868 0.0190314 0)
(1.00726 0.0300081 5.65259e-23)
(-0.0325597 0.0164741 -6.88566e-20)
(1.01108 0.00598583 -3.89729e-21)
(0.76394 0.109007 0)
(-0.0814377 -0.132487 -6.28555e-20)
(0.260128 0.0635448 -1.91312e-20)
(0.562486 0.0986841 2.65392e-20)
(1.0549 0.0202485 1.81748e-20)
(-0.0798245 -0.00926459 -6.4566e-20)
(-0.131979 -0.0116264 0)
(0.073322 0.0377605 -6.45555e-20)
(0.375393 0.0738202 -4.43066e-21)
(1.067 0.00081444 0)
(1.04777 0.0022 -1.33713e-20)
(-0.0541785 -0.0291325 -6.31119e-20)
(0.282589 0.0480959 3.64521e-20)
(0.961415 -0.0149176 -1.33775e-22)
(0.289498 0.0732402 6.47131e-20)
(1.0026 0.00245523 -1.80333e-21)
(1.03919 0.0284277 -1.95599e-20)
(1.0128 0.00668183 0)
(-0.109119 0.00883819 -3.15345e-20)
(0.997686 0.0341767 0)
(0.717339 0.0946793 -2.04147e-20)
(1.11965 0.0436682 -5.14404e-20)
(1.07141 0.0596502 7.73422e-21)
(0.993065 2.0938e-05 2.44594e-23)
(1.14109 0.0957291 -5.36111e-20)
(0.126494 0.0407065 -9.81325e-20)
(1.06756 0.000126715 -1.39815e-20)
(0.498997 0.0925629 3.14374e-20)
(1.07719 0.0588896 9.78337e-21)
(1.08122 0.0883281 -1.44317e-20)
(1.0236 0.0579456 0)
(1.07385 0.0222628 1.65807e-20)
(0.12464 0.0399047 4.45255e-20)
(-0.0363982 -0.00928978 7.26321e-21)
(1.07783 0.0568296 -1.03172e-21)
(1.03125 0.0234784 -8.72473e-22)
(-0.0583457 -0.0255303 5.16462e-20)
(1.09868 0.0699304 3.84849e-20)
(0.99302 -1.21241e-05 -1.97402e-22)
(0.212557 -0.00461771 -4.68847e-21)
(0.279395 0.0588036 -3.23235e-20)
(0.999989 0.000489147 -4.37556e-22)
(1.04833 0.00324626 4.26072e-20)
(0.994752 0.000207208 -2.81761e-22)
(1.05461 0.0774215 3.21965e-21)
(1.02047 0.00183404 0)
(1.0748 0.0585573 0)
(0.116382 0.0350757 -5.07734e-20)
(1.04036 0.0482366 0)
(-0.0720521 -0.00836258 1.23955e-20)
(0.526632 0.0173989 -9.5848e-21)
(-0.0292873 0.0240644 -4.74588e-20)
(0.958076 0.00746486 0)
(1.08013 0.0151677 5.66579e-20)
(1.01121 0.00171617 -3.16838e-24)
(0.608495 0.0259385 0)
(1.08388 0.0226838 4.02906e-20)
(-0.0807113 -0.0724934 0)
(1.06731 0.0606361 -8.03101e-21)
(-0.111806 0.0136665 0)
(0.999632 0.000457575 -2.40979e-21)
(-0.130342 0.000549263 -3.85476e-20)
(1.11182 0.10928 6.09472e-22)
(1.08055 0.0573296 -4.16966e-20)
(1.00562 0.000944865 0)
(-0.162609 -0.00119873 0)
(1.06921 0.062047 3.87365e-21)
(0.997108 0.000450397 0)
(-0.0463173 -0.0110739 8.35361e-21)
(-0.119097 0.0201102 -7.06457e-20)
(1.09278 0.00967067 2.53446e-22)
(1.02806 0.044745 0)
(1.01489 0.0102537 4.27177e-21)
(0.730868 0.09388 1.04698e-19)
(0.996084 0.00026548 -5.29103e-24)
(1.1553 0.0915132 0)
(-0.0024996 0.0232614 -1.65044e-20)
(1.15458 0.0718528 0)
(1.03781 0.00927267 0)
(1.03215 0.000853809 -3.22318e-22)
(-0.0191183 0.0559487 -2.26823e-20)
(0.882163 0.0920468 -1.75512e-21)
(0.0979964 0.0424168 6.08283e-20)
(-0.0146607 0.0297253 1.34261e-20)
(1.12197 0.0209229 0)
(0.633417 0.0849919 9.19029e-20)
(1.1466 0.1062 0)
(0.427229 0.0687182 0)
(-0.201917 -0.0155408 0)
(1.02022 0.0154334 -1.78823e-21)
(1.00241 0.00145029 0)
(1.01265 0.00650067 0)
(-0.108426 -0.0287867 2.7928e-20)
(0.338112 0.0800347 -3.26342e-20)
(-0.111 0.0147743 0)
(0.783237 0.0953658 1.72476e-22)
(1.02804 0.0449743 0)
(1.05496 0.00448382 1.06421e-20)
(1.02907 0.00338923 0)
(1.03368 0.00550089 -4.20996e-22)
(1.07412 0.0601449 -9.57838e-21)
(1.03689 0.00969105 0)
(0.611548 0.029774 -2.42591e-21)
(1.04109 0.00116566 0)
(-0.115406 -0.0367011 2.03563e-22)
(1.01386 0.0188101 -4.00354e-22)
(-0.143758 -0.0043977 -5.95217e-20)
(0.996351 4.25608e-05 1.19383e-21)
(1.06657 0.0617378 0)
(1.17023 0.0615907 4.36728e-20)
(1.04156 0.00315284 1.17767e-20)
(0.996062 -3.02334e-07 0)
(1.11535 0.0428003 0)
(1.01825 0.0107891 -1.99869e-21)
(1.165 0.0522665 -4.90154e-20)
(1.08426 0.108208 -4.13254e-20)
(-0.107106 0.0136934 8.38989e-21)
(0.296144 0.0691853 1.85597e-20)
(-0.130005 0.00258857 0)
(-0.0196936 0.0295796 -3.89799e-20)
(1.10855 0.0990394 0)
(1.00588 0.000688316 0)
(1.053 0.0776075 5.2217e-21)
(1.04334 0.0989624 0)
(1.02698 0.0155988 3.37408e-21)
(-0.100416 0.0209049 4.57673e-20)
(-0.103185 0.0147545 -7.4004e-21)
(-0.0598873 0.0202962 1.24756e-22)
(1.01678 0.00588157 -1.07238e-23)
(1.06465 0.0456793 -6.91791e-21)
(1.05614 0.0209067 2.78509e-20)
(1.0191 0.0140262 -5.51961e-21)
(0.851781 0.0905783 1.03582e-21)
(1.09917 0.0311053 0)
(1.09315 0.0179522 -3.64084e-20)
(1.03987 0.0285693 2.08154e-20)
(1.14555 0.0259003 0)
(0.683196 -0.0292603 -8.65855e-22)
(1.01943 0.0146734 5.86411e-21)
(1.10056 0.0659348 5.37286e-20)
(0.0815147 0.0403757 -8.68955e-20)
(0.152661 0.0387572 4.49388e-20)
(1.03293 0.0237459 -6.36361e-21)
(1.01924 0.0125285 2.50108e-21)
(1.02105 0.0147971 0)
(1.0251 0.0560455 1.1774e-21)
(0.994459 6.31845e-05 0)
(1.01597 0.00508671 1.19983e-23)
(1.04425 0.0398535 4.43732e-21)
(1.16705 0.0926096 1.81322e-20)
(1.01928 0.012655 0)
(0.994559 0.000184661 1.94482e-22)
(0.641408 0.0710082 6.12801e-20)
(1.06305 0.0750144 1.54379e-20)
(1.10268 0.100413 2.39538e-20)
(1.01154 0.00618299 2.07412e-21)
(0.994108 8.22301e-06 2.50194e-22)
(1.02934 0.0214678 0)
(-0.0631873 -0.0127898 0)
(0.607308 0.0727196 -2.68457e-20)
(0.231562 0.0548648 3.35376e-20)
(0.1334 0.0325614 -1.16971e-20)
(1.14935 0.0225281 1.32238e-20)
(1.02423 0.0194607 5.38285e-21)
(1.07912 0.0441051 0)
(1.01456 0.00960814 2.02958e-21)
(1.04135 0.00265771 -2.01326e-20)
(1.05889 0.0253136 0)
(1.01906 0.0139971 -5.88801e-22)
(1.00251 0.00100188 1.67888e-21)
(1.08701 0.0417317 2.97236e-20)
(0.190133 0.0559742 -2.6366e-21)
(-0.0417161 -0.01205 0)
(1.08877 0.0749197 -2.82538e-20)
(1.03654 0.000108942 7.838e-21)
(1.01456 0.00955305 0)
(1.01835 0.00171819 -1.00918e-20)
(1.06759 0.0343466 0)
(1.16324 0.0475566 -1.65341e-20)
(1.07725 0.0113074 4.55285e-20)
(1.14827 0.0229201 -2.23994e-20)
(1.08447 0.0435509 -2.99435e-20)
(1.03092 0.021964 1.66569e-20)
(0.159294 0.0433979 -2.70617e-20)
(0.924911 0.0164029 7.40376e-22)
(-0.0870841 -0.0180968 -2.03588e-20)
(1.0721 0.0391102 9.66074e-21)
(0.750358 0.0936402 6.50053e-22)
(0.650814 0.0874349 -8.44323e-20)
(1.20756 0.0680498 0)
(1.0508 0.0236902 0)
(0.278931 0.0795061 3.67344e-20)
(0.549285 -0.0156544 1.88445e-20)
(-0.147207 0.00140701 -2.08577e-20)
(0.245131 -0.00425425 0)
(0.594234 0.0883838 5.63245e-20)
(1.01517 0.00981402 0)
(0.994906 0.000198746 1.37859e-23)
(1.15362 0.0785038 0)
(-0.0921841 -0.0597181 3.219e-20)
(1.01625 0.0014143 2.14315e-22)
(-0.0958067 -0.0675001 0)
(1.02771 0.0174968 3.75118e-21)
(1.05211 0.00993592 -8.18469e-21)
(1.16766 0.0485911 0)
(0.199928 0.052094 0)
(0.115794 0.0448933 7.82501e-20)
(-0.0758188 0.017763 -2.73503e-20)
(0.0968001 0.0434969 -7.79911e-20)
(1.10957 0.0116844 0)
(1.01241 -0.000551357 3.54437e-23)
(1.01973 0.0145744 1.58295e-21)
(1.016 0.00132483 0)
(1.10027 0.043358 1.75686e-20)
(1.15384 0.0784779 -2.00264e-20)
(1.02378 0.019144 -1.19358e-21)
(-0.0818556 -0.0536202 3.18138e-20)
(1.01248 -0.000213058 -3.59949e-23)
(0.831534 0.0873832 -2.54311e-22)
(1.02759 0.0467731 0)
(1.01794 0.0128325 1.09916e-21)
(-0.0986042 0.0120961 -4.04367e-20)
(0.994178 0.000147309 3.45622e-22)
(1.00604 0.00121407 2.18534e-24)
(1.14451 0.104477 0)
(1.01635 0.0012441 4.73698e-22)
(-0.0967692 0.0183787 -4.99781e-20)
(0.285902 0.0385871 4.90128e-22)
(1.0082 0.0013442 -7.16515e-23)
(-0.0540826 -0.0129137 -3.01921e-20)
(1.00315 0.00105306 0)
(0.392133 0.083994 3.34813e-20)
(-0.0636796 -0.0156671 0)
(1.00603 0.00331061 -1.46843e-21)
(1.09228 0.0029868 0)
(1.12438 0.0424379 3.27233e-20)
(0.127486 0.0402773 1.74108e-20)
(1.09862 0.0661626 -5.89805e-20)
(0.0762198 -0.00138752 -1.30025e-20)
(1.14364 0.108901 6.11447e-22)
(1.11061 0.00865613 -7.25166e-22)
(0.445659 0.0907932 0)
(-0.100312 -0.0374382 5.19527e-20)
(1.00156 0.000750302 -3.24728e-21)
(0.160982 0.048216 -3.35685e-20)
(1.12433 0.0760119 4.32332e-20)
(1.00292 0.00249167 -1.85475e-21)
(1.01812 0.0102551 -1.13926e-21)
(1.01472 0.010006 1.91369e-21)
(-0.0223989 0.0222595 -3.06333e-20)
(1.00224 0.00126517 1.21094e-22)
(0.982549 -0.012441 -1.55681e-22)
(1.19131 0.0814885 8.29235e-20)
(0.279433 0.0218709 1.93883e-23)
(1.04528 0.0633187 -1.46094e-21)
(0.965036 0.0127353 0)
(1.0109 0.00381136 -2.4656e-22)
(1.00203 0.000857771 -8.54777e-24)
(-0.113175 0.0146657 0)
(0.996769 0.000425563 -2.44166e-23)
(1.01631 0.00178152 0)
(0.994996 0.000112036 1.81516e-22)
(1.01829 0.00958909 -1.18005e-21)
(-0.0102389 0.0198359 0)
(-0.0130425 0.0241243 0)
(1.07053 0.0389042 0)
(1.09628 0.10435 0)
(1.00944 0.00991798 0)
(0.0121556 0.0157807 6.165e-20)
(-0.0705022 -0.00905047 -2.40756e-20)
(1.05643 0.0504743 0)
(1.09728 0.0332955 2.68931e-20)
(0.083188 0.0207022 -1.01738e-20)
(-0.110827 0.00952993 2.7601e-20)
(1.03613 0.00260438 0)
(0.993925 2.31939e-05 -4.80905e-22)
(0.936217 0.026241 -6.74938e-23)
(1.0087 0.00893805 0)
(1.15146 0.0732807 6.01663e-20)
(1.04549 0.0412646 -6.08191e-21)
(1.02258 0.00526999 0)
(0.546785 0.0171187 0)
(-0.0589714 -0.0143876 -2.38395e-20)
(1.00957 0.00344475 7.59454e-22)
(1.02725 0.0167474 0)
(1.06557 0.00346285 3.42923e-20)
(-0.113933 -0.0311607 -3.00819e-20)
(1.00585 0.00327072 0)
(1.06323 0.0773471 0)
(1.00214 0.000901086 8.4819e-24)
(0.795616 0.10847 4.67959e-21)
(1.14458 0.0955717 9.33026e-20)
(1.0391 0.0272228 0)
(1.05467 0.0514378 9.60488e-21)
(1.08056 0.055232 -3.0327e-20)
(1.03062 0.0220652 -1.26559e-20)
(1.13072 0.0830092 0)
(-0.0909848 -0.0461997 3.1515e-20)
(0.997338 0.0109384 -6.27683e-22)
(1.1192 0.0929768 -4.36074e-20)
(1.17252 0.0584256 -4.07586e-20)
(0.0420657 0.0328072 1.54576e-21)
(1.09757 0.100615 1.14613e-20)
(0.995575 0.000279232 0)
(1.18 0.0820077 -7.02693e-20)
(1.15163 0.0633443 6.04944e-20)
(1.13958 0.0474367 -5.99587e-20)
(0.38049 0.0586218 0)
(1.06553 0.00558122 2.77e-20)
(0.652582 0.070702 8.46549e-22)
(1.02758 0.0168393 0)
(1.02489 0.0049558 0)
(0.303181 0.0144594 0)
(1.10063 0.0689537 0)
(1.0928 0.0126391 1.37042e-20)
(-0.105054 0.00778204 2.96141e-20)
(0.994059 1.79772e-06 -5.18017e-22)
(1.03056 0.00304708 0)
(1.08626 0.0310146 -4.96509e-20)
(1.20469 0.0543724 -6.27882e-20)
(-0.0939453 -0.0434242 0)
(1.12588 0.0421971 0)
(1.01286 0.00402614 0)
(1.01981 0.033428 -1.00916e-21)
(1.04055 0.00455217 1.05191e-20)
(1.03379 0.0100426 0)
(0.926721 0.00894013 8.7943e-24)
(1.01905 0.0121289 0)
(0.254743 -0.0110879 4.5467e-21)
(1.06703 0.00286661 -5.28462e-20)
(1.02371 0.0187695 1.33606e-21)
(0.9955 0.000117969 4.60595e-24)
(-0.0423854 0.0304041 -2.86321e-20)
(0.859663 0.0897039 3.67313e-20)
(0.0752023 0.0105786 -4.23499e-20)
(0.71242 0.0388791 -5.25428e-22)
(1.02692 0.0166862 0)
(0.108098 0.039373 0)
(1.0531 0.0268348 -5.26798e-21)
(0.228827 0.0530326 0)
(1.02804 0.0285476 8.3252e-22)
(1.04404 0.0616173 -5.86549e-21)
(1.03222 0.0233679 -1.30613e-20)
(0.104764 0.0484521 0)
(1.14429 0.0553979 -5.08245e-20)
(0.524349 0.0789752 0)
(1.00352 0.00135479 -8.13633e-24)
(1.00882 0.00322662 -2.21247e-24)
(0.337196 0.0845387 6.95596e-20)
(1.02987 0.00133969 9.76633e-21)
(-0.104372 0.0119105 0)
(1.02358 0.0188842 -1.64621e-21)
(1.10456 0.0374073 3.37181e-20)
(1.09939 0.0991757 2.81838e-20)
(1.02746 0.0436163 -2.17938e-22)
(-0.0660432 0.0190684 3.15657e-20)
(-0.173655 -0.00209979 0)
(1.01903 0.0119646 0)
(1.01004 0.00600449 0)
(0.857595 0.0562213 0)
(1.03833 0.00869631 -9.3848e-21)
(-0.0210061 0.0256297 0)
(0.961285 0.0205019 -5.65969e-22)
(1.00258 0.00127602 1.39277e-22)
(0.735921 0.0887065 0)
(1.02081 0.0148563 2.49493e-21)
(1.14955 0.0586281 0)
(1.01821 0.0105352 1.6807e-21)
(1.09266 0.00624871 0)
(-0.120704 0.0224215 1.96744e-20)
(1.03966 0.0270413 0)
(0.558928 0.0817811 0)
(1.07055 0.0239905 -1.66524e-20)
(1.03885 0.0988509 0)
(0.0149632 -0.0104649 -3.31558e-20)
(1.0407 0.0473719 -4.95919e-21)
(1.03653 0.00215112 -7.92261e-21)
(1.02595 0.0212633 6.12725e-22)
(1.01682 0.01191 -3.68231e-21)
(0.998259 0.00030999 -2.41357e-21)
(0.0204728 0.0444908 4.58604e-20)
(0.103728 0.0328545 -2.4117e-20)
(0.925696 0.00144194 -1.70772e-21)
(1.05435 0.0167244 3.83956e-20)
(0.904527 0.0461974 6.75118e-22)
(0.373983 0.0540096 0)
(-0.0162562 0.0250485 -3.89506e-22)
(1.09853 0.0606607 -3.4678e-20)
(0.683703 0.0371388 4.79074e-21)
(-0.0858147 -0.0511564 3.74876e-22)
(1.06395 0.0470737 0)
(1.06258 0.0152583 6.47878e-21)
(1.00138 0.001186 0)
(0.192586 0.0551155 3.49652e-21)
(1.07813 0.0416583 0)
(1.03632 0.000711576 0)
(1.02598 0.00216649 3.05527e-24)
(0.522425 0.0991219 5.93016e-20)
(0.13913 0.0529575 0)
(1.15674 0.0748369 -7.03927e-20)
(1.01936 0.00304664 -5.39858e-21)
(1.11952 0.0229692 0)
(1.11537 0.089032 0)
(1.00095 0.00111609 0)
(1.0065 0.000522261 -1.4562e-21)
(-0.0481971 0.0264284 2.59649e-20)
(1.01141 0.00464595 0)
(-0.038641 0.0294191 2.457e-20)
(1.03545 0.0158866 0)
(-0.137302 0.00532183 5.86972e-20)
(1.09464 0.0719418 3.19062e-20)
(1.02267 0.00505945 1.96411e-21)
(-0.215409 -0.0143878 -4.32428e-20)
(-0.14114 -0.00451257 0)
(1.06652 0.00544755 -1.45357e-20)
(0.942852 0.0463836 -2.07692e-21)
(1.07719 0.0133964 -3.38137e-20)
(1.04166 0.0527249 -5.49326e-21)
(-0.103009 0.0138627 -1.50474e-20)
(1.13957 0.0929796 0)
(0.135389 0.0302733 1.44472e-20)
(1.09372 0.0151752 0)
(1.14175 0.105597 -1.50553e-20)
(-0.12015 0.0218263 -1.04106e-20)
(1.10228 0.0400743 1.55692e-20)
(1.18387 0.075144 3.97048e-20)
(1.10615 0.0589566 0)
(0.210066 0.0719433 3.84234e-20)
(0.997048 0.00051858 1.71117e-22)
(0.932904 0.00245935 3.36843e-22)
(1.02405 0.0185989 0)
(1.0389 0.000735046 -2.91652e-20)
(1.05665 0.027309 2.10758e-20)
(0.69991 0.0867069 6.35516e-24)
(0.997025 0.000508592 -1.02843e-23)
(1.04108 0.00427397 -1.16793e-20)
(1.01492 0.0103404 -2.43297e-21)
(0.821554 0.0586527 -1.73613e-22)
(0.951872 0.0138396 -1.53369e-21)
(1.01143 0.0250689 0)
(1.00767 0.00293177 -2.20906e-24)
(1.01845 0.0099274 7.16676e-22)
(0.397785 0.0663839 -6.84775e-22)
(0.447769 0.0730002 0)
(1.01083 0.00576266 0)
(-0.0567539 0.0338945 1.05061e-20)
(1.13965 0.103362 -1.41573e-20)
(0.171005 0.05386 -2.12443e-22)
(0.214765 0.00881806 1.89018e-21)
(1.18697 0.0726793 2.88836e-20)
(1.11083 0.0869787 2.85832e-20)
(1.01713 0.0298351 0)
(1.00302 0.00242815 0)
(1.03475 0.0160588 6.29951e-21)
(0.306264 0.0676659 0)
(1.05333 0.0503803 -1.01823e-20)
(1.02409 0.0184202 -1.28385e-21)
(1.00445 -0.0128751 -1.64522e-22)
(1.02495 0.025296 1.17053e-21)
(1.03465 0.00951521 0)
(1.01202 -3.8353e-05 -2.47803e-22)
(1.05533 0.0278448 -1.13104e-20)
(1.06913 0.0332132 -2.4196e-20)
(0.618278 0.0696661 6.7738e-20)
(1.04416 0.0653518 1.56415e-20)
(1.00393 0.00118231 5.13048e-21)
(1.0528 0.0502415 0)
(1.03616 -1.19637e-05 0)
(0.998994 0.000389311 3.24151e-21)
(1.05756 0.0260744 0)
(1.06985 0.0223007 3.52825e-20)
(1.01847 0.00158328 1.45509e-20)
(0.22948 0.0525261 -3.64364e-20)
(1.01153 0.000491973 -1.10386e-22)
(1.09974 0.0632788 2.0268e-20)
(1.03268 0.00582435 0)
(1.02524 0.0155241 -1.73697e-22)
(1.00754 0.00438905 1.02458e-21)
(1.02308 0.0302628 3.49779e-22)
(0.993352 -1.64682e-06 -4.74165e-23)
(1.16849 0.0692334 -1.11641e-20)
(1.10864 0.0453922 -6.48233e-20)
(0.0476619 0.0500508 -5.67236e-20)
(1.01091 0.00624984 -2.42308e-21)
(-0.0853259 0.0170814 0)
(1.04705 -2.22282e-05 -6.74556e-21)
(-0.0263722 0.0303444 2.40868e-20)
(-0.049183 -0.00928744 2.68404e-20)
(1.06974 0.0787158 -2.01075e-20)
(1.08454 0.0338486 0)
(1.1102 0.027892 0)
(1.02483 0.0146671 -6.27687e-21)
(1.01174 0.00647537 0)
(1.02673 0.0431402 8.37075e-23)
(1.03277 0.00509054 -3.26241e-22)
(1.0113 0.00653588 2.81569e-21)
(0.186658 0.0490465 -3.65817e-20)
(0.298185 0.0599248 -6.45932e-20)
(1.18496 0.0846345 -2.01281e-20)
(-0.0394319 0.00650352 -2.55904e-20)
(0.993724 -2.89492e-05 -2.9465e-22)
(-0.200751 -0.0113037 0)
(1.00842 0.00315202 -2.18918e-24)
(0.995813 0.000244923 -1.995e-22)
(1.00173 0.00120273 -4.11758e-22)
(1.08019 0.00906442 -1.26812e-20)
(-0.202495 -0.0108888 -8.77985e-20)
(1.14294 0.052356 -5.26553e-20)
(0.67672 0.0759097 -5.37859e-20)
(1.10898 0.0573019 -2.26883e-20)
(1.20746 0.0655602 0)
(0.186089 0.0483238 0)
(0.879395 0.0101825 -2.31663e-21)
(1.02706 0.0279777 0)
(1.0454 0.0645331 -1.61654e-20)
(1.08806 0.0306265 4.87894e-20)
(1.02792 0.0189334 7.01068e-21)
(1.04865 0.0227011 0)
(1.01122 0.0157882 -5.02403e-23)
(-0.0208056 0.0223414 2.67816e-20)
(0.209509 0.0588559 -2.43281e-20)
(1.12685 0.0805992 -4.95408e-20)
(1.03529 0.0249993 0)
(1.00919 0.0050787 -2.49912e-21)
(0.134424 0.0439201 1.94169e-20)
(1.07974 0.0107792 -1.62686e-20)
(1.0113 0.00380098 -1.76571e-22)
(1.01287 0.00775874 3.54567e-21)
(1.09368 0.00534664 0)
(-0.0252975 0.0090476 -1.72885e-22)
(1.20225 0.0505836 4.42295e-22)
(1.08102 0.084811 -2.7739e-20)
(1.00647 0.000847277 4.32219e-21)
(0.685365 0.0411814 -4.33893e-22)
(-0.0906632 -0.00611663 -2.9794e-20)
(1.06421 0.0153631 -6.30344e-21)
(-0.0927343 -0.00160071 -2.35196e-20)
(1.02095 0.0600414 0)
(1.04139 0.0197846 -1.90524e-20)
(0.589226 0.0805496 4.06795e-20)
(-0.0170998 -0.0051961 2.61711e-20)
(-0.0428905 0.00427488 -3.6523e-20)
(0.993113 -4.36814e-05 1.72484e-22)
(1.04001 0.0671772 1.94451e-23)
(-0.0663499 0.0327514 -4.52844e-20)
(1.04085 0.00376103 0)
(-0.063225 -0.0401051 0)
(1.01844 0.00944395 -1.11447e-21)
(1.1137 0.0871446 -2.99908e-20)
(1.00889 0.0174428 2.80379e-23)
(0.993895 -1.91554e-05 1.01206e-21)
(1.07099 0.103683 -1.56652e-20)
(-0.111738 -0.0439763 -1.4835e-20)
(1.03843 0.00900921 0)
(1.01289 0.00658017 0)
(1.05753 0.0236753 0)
(1.0062 -0.0107799 1.7056e-22)
(1.01337 0.00314014 -5.45145e-23)
(0.656181 0.106669 1.79469e-20)
(0.980364 0.00640829 1.36122e-22)
(1.00263 0.00248017 1.72202e-21)
(0.995573 0.000291677 -6.09583e-23)
(1.01263 0.00765685 0)
(0.76024 0.0851352 4.45139e-20)
(0.995058 0.000132987 8.71219e-22)
(0.856482 0.0354331 -1.29179e-21)
(0.673281 0.0887243 -5.80251e-20)
(0.252376 0.0516545 -7.59333e-20)
(0.680136 -0.0244956 8.89308e-22)
(0.00454055 0.0119681 -6.55149e-20)
(0.403255 0.0903072 -4.68291e-20)
(-0.00798863 0.0228468 0)
(1.0577 0.0267344 0)
(1.02797 0.0183596 2.02233e-21)
(0.605757 0.0913502 0)
(0.996322 0.000281192 0)
(-0.0166383 0.0236644 -1.69086e-20)
(0.0657295 0.0381299 -2.11017e-20)
(0.749413 0.107247 1.06559e-20)
(0.994323 0.000110799 0)
(1.04721 0.0332842 -1.73676e-21)
(1.04917 0.0095355 2.50282e-20)
(1.10458 0.111366 -3.54558e-20)
(1.00909 0.00158453 -3.58504e-24)
(0.0775783 0.0348123 0)
(1.02877 0.117954 0)
(0.907118 0.0186109 -5.41926e-22)
(0.489404 0.0969793 -3.28719e-20)
(1.15223 0.102277 0)
(-0.0293248 -0.00892113 -3.94093e-20)
(1.01437 0.0108993 0)
(0.104319 0.0431004 4.95763e-21)
(1.05355 0.0587875 -1.15743e-20)
(0.00143563 0.00124462 -2.56738e-20)
(1.06444 0.0311225 -1.1545e-20)
(1.0692 0.102622 0)
(1.0149 0.00941437 -1.71394e-21)
(1.02367 0.0287305 -6.24101e-22)
(1.09389 0.0442394 -1.60152e-20)
(1.16946 0.047197 0)
(1.05935 0.0501878 -2.43907e-20)
(1.02754 0.0177747 0)
(1.01368 0.00167245 8.86892e-23)
(0.831722 0.0716564 1.1715e-19)
(0.996815 0.000337995 -1.67415e-21)
(1.05228 0.0183749 0)
(-0.182541 -0.00480014 2.968e-22)
(1.01318 0.011034 -1.07228e-23)
(1.03223 0.0013592 0)
(0.995818 0.000146652 0)
(-0.19069 -0.0103618 0)
(1.01206 0.00665432 -8.62816e-22)
(1.0255 0.00629257 -5.40925e-22)
(1.0389 0.0661823 -6.31083e-21)
(0.995087 0.000209768 2.87322e-22)
(1.03292 0.0414305 0)
(1.00601 0.00391929 0)
(0.616521 0.103238 1.52063e-20)
(1.04907 0.00856909 -8.24397e-21)
(0.993754 0.000117849 0)
(1.02735 0.0549313 7.88776e-22)
(0.690259 -0.0236241 -2.0528e-21)
(1.01418 0.00957581 9.18046e-22)
(1.0227 0.00736453 -3.43002e-22)
(0.683115 0.104338 0)
(-0.133208 -0.02032 1.26616e-20)
(1.16102 0.0507186 3.53946e-20)
(1.00879 0.00503451 0)
(-0.025926 0.0268829 0)
(-0.0521158 0.0212166 -2.07741e-20)
(-0.0892784 -0.0137016 -3.83237e-20)
(1.17997 0.0781234 4.39429e-20)
(-0.124014 0.00475863 3.79412e-20)
(1.04747 0.00104511 0)
(1.02991 0.00728955 5.79702e-22)
(1.02429 0.0365677 1.23935e-21)
(0.993924 0.000136307 -1.58038e-22)
(1.0084 0.00127453 3.44829e-21)
(-0.0550977 -0.0180646 5.56642e-20)
(1.0719 0.0781672 2.04548e-20)
(0.610735 0.0241851 -3.10616e-21)
(1.01037 0.00105559 0)
(1.04948 0.0895749 -6.81688e-21)
(1.0121 0.00621298 9.47193e-22)
(1.08805 0.070968 1.50143e-20)
(-0.0495022 0.0237389 -5.6091e-20)
(-0.0753735 -0.0502864 5.01645e-20)
(1.01335 0.004061 4.07396e-21)
(1.07947 0.0131768 -4.70325e-20)
(1.09885 0.0961511 4.07877e-20)
(1.01126 0.00372888 0)
(1.00487 0.00335319 9.58971e-22)
(1.00975 0.00124641 0)
(-0.0282158 0.0293873 -2.55554e-20)
(0.919878 0.0758118 0)
(1.04252 0.0559355 -3.48359e-21)
(1.00783 0.00433505 0)
(1.05847 0.0503372 2.5995e-20)
(1.0085 0.00453402 0)
(-0.0316369 0.0201902 2.4501e-20)
(1.06083 0.0425645 0)
(1.02334 0.00519877 5.09473e-21)
(-0.143186 0.00249725 1.97118e-20)
(1.08848 0.0669953 1.50164e-20)
(1.10367 0.104349 2.55095e-20)
(1.04904 0.0327317 -7.62062e-21)
(0.373757 0.0547328 4.03912e-20)
(0.887396 0.0647432 0)
(1.07879 0.0158862 -3.42381e-20)
(1.04146 0.00149914 0)
(-0.0276435 0.0132708 3.78329e-20)
(1.01007 0.0191622 -2.15143e-21)
(1.04813 0.0017625 7.2385e-21)
(-0.103005 0.00456346 0)
(-0.101069 -0.0420142 5.28884e-20)
(0.826298 0.0941399 -1.01693e-19)
(0.216801 0.0682251 2.85789e-20)
(0.447861 0.0930003 3.69223e-20)
(-0.0689018 -0.038207 0)
(1.02683 0.0228806 1.93615e-22)
(1.17463 0.0896198 -7.83399e-20)
(0.992937 -2.31541e-05 0)
(0.996324 0.000239536 1.86223e-21)
(-0.036882 0.0294479 6.52843e-20)
(1.01054 0.00628844 3.49699e-22)
(0.347134 0.048571 -1.27692e-21)
(1.0182 0.001751 0)
(-0.0232852 0.0106971 -4.89882e-20)
(-0.103141 0.0114277 0)
(1.09831 0.0397816 -1.62253e-20)
(0.129875 0.0589345 0)
(-0.132364 -0.0154236 -7.786e-21)
(0.771858 0.0458176 -6.37188e-23)
(1.08088 0.029305 -1.99235e-20)
(1.00679 0.00131992 6.5068e-22)
(1.00198 0.00211013 3.7555e-23)
(1.10133 0.104242 0)
(-0.175999 -0.0055069 -6.40803e-20)
(1.01082 0.00399456 0)
(0.80303 0.0748246 -5.40442e-20)
(1.11067 0.0482113 4.60933e-20)
(-0.0178392 0.0146447 2.8897e-20)
(1.18467 0.0398998 -5.20487e-20)
(1.03671 0.00390694 0)
(0.986726 0.0377243 0)
(1.00937 0.00606118 2.65755e-21)
(0.988252 0.0210649 4.33139e-21)
(1.05177 0.0589851 0)
(1.00392 0.00117458 -9.28654e-22)
(1.01383 0.00937106 2.85428e-21)
(0.531892 0.0995409 3.42848e-20)
(1.16609 0.0441103 7.27529e-20)
(1.06556 0.00738499 2.51491e-20)
(0.600539 0.0812687 -3.77061e-20)
(1.03194 0.00146596 -8.9388e-21)
(0.876428 0.0413658 3.94846e-22)
(1.04776 0.00817179 -1.37461e-20)
(0.821949 0.0344442 2.48133e-21)
(-0.0185286 0.0319489 -2.0542e-20)
(-0.0431211 0.0242965 -2.20309e-20)
(1.00493 0.000810343 -5.21052e-21)
(1.00737 0.00157019 -1.78579e-22)
(1.14394 0.051461 0)
(1.02836 0.0192379 -8.77383e-21)
(-0.0211567 0.0305069 -2.48937e-20)
(0.01559 -0.0138696 1.75051e-20)
(0.99288 -8.1989e-06 0)
(1.02368 0.0360564 4.46001e-22)
(1.18579 0.0460735 0)
(-0.066499 -0.0106594 -2.35845e-20)
(1.13743 0.1099 3.41138e-20)
(1.03107 0.0183094 0)