/*--------------------------------*- C++ -*----------------------------------*\
| =========                 |                                                 |
| \\      /  F ield         | OpenFOAM: The Open Source CFD Toolbox           |
|  \\    /   O peration     | Version:  v2012                                 |
|   \\  /    A nd           | Website:  www.openfoam.com                      |
|    \\/     M anipulation  |                                                 |
\*---------------------------------------------------------------------------*/
FoamFile
{
    version     2.0;
    format      ascii;
    class       surfaceScalarField;
    location    "250";
    object      ddtCorrDdt0(phi);
}
// * * * * * * * * * * * * * * * * * * * * * * * * * * * * * * * * * * * * * //

dimensions      [0 3 -2 0 0 0 0];
oriented        oriented;


internalField   nonuniform List<scalar> 
20580
(
0.00258246
-0.000298252
-0.00228422
0.00011016
0.000140219
-0.00025038
4.93249e-05
6.08631e-05
-0.00068902
0.000177498
0.000511531
-2.32513e-05
2.85717e-05
-5.298e-06
0.000124431
-0.000101478
-2.29685e-05
2.43669e-05
-0.000103755
-3.58048e-05
3.15683e-05
4.22561e-06
-0.000505478
0.00117884
-0.000673357
-2.4255e-05
4.75151e-05
-2.32134e-05
-2.71947e-05
0.000259606
-0.000232411
6.52235e-05
-0.000101762
3.65298e-05
0.000182473
-2.94031e-06
-0.000179507
0.00209085
-0.00103284
-0.00105801
-0.000107008
0.000176839
-6.98227e-05
-0.00117743
0.00149424
-0.000316845
-0.000180353
-0.00020785
0.000388215
8.23484e-05
-5.35099e-05
-2.88604e-05
-0.000882468
-5.94227e-05
0.00094198
0.000964335
0.00161811
-8.32303e-05
0.000233875
-0.000150625
-0.000250419
-0.00023201
0.000482473
-0.000382102
-0.00108864
0.00147066
-5.79842e-06
2.95963e-06
2.84552e-06
0.00080286
-0.000529271
-0.000273599
0.000782305
-0.000497396
-0.000284908
0.00275838
-0.0024439
-0.000314464
0.000512678
-0.00204042
0.00152772
0.00145507
-0.00235605
0.000900968
-7.56617e-05
-1.34535e-06
7.69531e-05
-0.000778279
0.000382784
0.000395528
-0.000167837
0.000192247
0.000517679
-0.00127619
0.000758519
0.00148317
-0.0011907
-0.000292466
0.000361905
-0.000642453
0.000280587
0.000824299
0.00128901
-0.00211328
4.01519e-07
-6.19264e-06
0.0031465
-0.000614215
-0.00253232
2.21008e-05
-0.000882507
0.000860405
0.000343163
-3.06078e-06
-0.000340122
0.000393374
-0.00128092
0.000887551
0.00228978
-0.000834695
-0.000677648
0.000677683
0.00926488
-0.00460241
-0.00466236
-0.000402768
0.00194633
-0.0015435
-5.4112e-05
3.58471e-05
1.82447e-05
-2.19806e-05
8.42937e-06
-0.00085486
-8.20168e-05
0.000936871
-0.000132091
-1.41852e-05
0.000146346
0.000114743
6.78286e-05
0.0013013
-0.00132304
2.17466e-05
0.000318505
-0.000588526
0.000270086
-0.000419799
-0.000757627
0.000271361
-0.000111956
-0.000159333
0.000579296
0.000356661
-0.000935944
0.000149215
0.000193938
-0.000663669
0.00118137
-0.000514765
0.000908144
0.00156558
0.00121725
-0.0027828
-0.00117346
0.00182459
-0.000651124
0.000103142
-3.79274e-05
0.00257666
0.00018173
0.00018713
-0.000202827
1.57428e-05
-6.92758e-05
-6.27894e-05
-0.0061268
-0.000373664
0.00650036
-0.0024789
-0.00364798
-0.00142016
0.00024671
4.95754e-05
0.00184339
-2.87247e-05
0.000198534
-0.000169838
4.23419e-05
-0.000285515
0.000243171
-0.000649669
-7.37166e-05
0.000723383
-0.000149479
0.000571302
-0.00042187
-3.42245e-05
1.94907e-05
1.47716e-05
0.00163991
0.000184693
-0.000194544
0.000415848
-0.000221354
-0.000415059
0.000602395
-0.000187268
-0.000588715
0.000408381
7.79228e-07
3.03198e-05
-3.11226e-05
0.00132141
-0.000518588
-5.46297e-05
-1.84533e-05
7.31399e-05
-4.91265e-05
2.04193e-05
0.000559188
0.000136817
-0.000696004
-0.000222779
0.000584708
-0.00174082
0.00196048
-0.000219656
0.00183706
-0.000197143
-0.000531215
0.000754105
-0.000222839
-0.000685751
0.000435422
-0.00205314
0.000257273
0.00179587
-7.69446e-06
-2.42997e-05
3.18889e-05
-0.000579385
-0.00019884
-0.0002194
0.000537907
0.000119935
-0.000287746
0.00117916
-0.00117915
-0.000814407
0.000283209
-0.000839846
0.00121849
-0.000378641
-0.00529025
0.00443008
0.000860357
-0.000346753
0.000112702
0.000234006
-0.00199871
0.0016105
0.000388261
0.000336925
-0.000469435
0.000132524
0.000323298
-0.000223127
-0.000100149
-0.00103541
-0.000963307
0.000171665
0.000721997
-0.000893744
-0.00165849
0.000388548
0.00126997
0.000208932
-0.0002037
-5.29012e-06
0.000100971
-8.57996e-05
-1.51753e-05
-0.000958712
0.000108452
0.000850348
9.15564e-05
9.40956e-06
-0.000717467
6.78088e-05
0.000242169
-0.000122162
2.63975e-05
5.59722e-05
-0.000381736
-3.33457e-05
0.000415041
-6.06201e-05
6.51618e-06
-0.000494658
-0.000144281
0.000638963
-0.000262595
0.000280833
-1.82511e-05
0.00173438
-0.000160964
-0.00157333
7.42232e-05
0.000197134
3.88035e-05
2.71396e-05
-6.59329e-05
-1.8045e-05
-1.7752e-05
7.97879e-05
-0.000768843
-0.00025882
0.000301224
-0.00100567
0.000973227
3.23746e-05
-0.000117013
6.2708e-05
5.43344e-05
7.41065e-05
-0.000117661
4.35648e-05
0.00147062
-9.29572e-05
-0.00137764
-0.00115725
0.000728754
0.000428496
0.00242435
-0.000869067
-0.0015552
-0.000248158
-9.86179e-05
-0.00282254
0.00340314
-0.000580523
0.000934583
0.000625355
-0.00155991
-0.000158878
-1.09847e-05
0.000169822
0.00046362
-0.000695649
-0.000530376
6.01606e-05
0.000470144
0.00358756
-0.000441076
0.000943734
0.000539433
0.00138858
-0.0014157
0.000488388
-0.00131184
0.000823479
0.000185356
0.000651388
0.000102727
-0.0013428
0.000599916
0.000742887
0.000445533
-0.000181353
-0.000264351
-0.000984741
0.00154397
-8.08294e-05
0.000283521
-0.000202636
1.10575e-05
-1.88289e-05
0.0014867
-0.0018505
0.000363736
-0.00106551
0.000420489
0.00064499
0.000415203
-0.000950514
0.00053533
-3.39562e-05
3.47473e-05
-0.000431619
-0.000181192
0.00072134
-0.000540148
-0.00410199
0.00127951
8.95576e-05
-0.00112492
-0.00224266
0.00174801
-0.000149548
-0.00011306
0.000437799
0.000836951
-0.00127473
0.000129115
-0.000162775
3.36803e-05
-0.00032592
0.000301646
2.42057e-05
-0.000133671
9.96951e-05
3.39361e-05
0.00065651
-0.000634417
0.000192008
-1.8155e-05
-0.00017394
0.000183624
-6.9009e-05
-0.000114531
-8.15573e-06
5.20574e-06
2.97478e-06
-0.00266097
0.00145047
0.00121053
-0.00104871
9.00173e-05
4.85793e-05
-0.000903459
0.00119067
0.000900179
0.000716162
-0.00104526
0.000329093
-0.000748797
0.00146495
0.00123752
6.37779e-05
-0.000481731
9.9932e-05
0.00120717
-0.00207089
0.000863684
-6.14517e-06
8.86496e-05
-8.25452e-05
-2.9233e-05
6.80297e-05
-0.000335444
0.00040299
-6.75704e-05
-1.36786e-05
1.2635e-05
1.03897e-06
-0.00109846
0.000258629
-0.00102893
0.00249419
-0.00146525
0.00119967
-0.000483353
-0.000716334
1.55751e-05
-4.4821e-05
2.55984e-05
-0.00010675
8.11378e-05
0.000602181
0.000597427
-0.000581152
-0.000576105
0.00397457
0.000334196
0.000255631
-0.000589905
-0.000232411
7.34476e-05
0.000537832
-0.000537767
0.000542422
-0.000723615
-0.000468216
-0.000807962
0.000207802
0.000627437
-0.000835215
-0.000200966
0.000277071
-7.6068e-05
0.000107636
-1.52653e-05
-9.23843e-05
-0.00108563
2.01206e-05
0.00028826
-9.62844e-05
-0.00136086
0.000328031
0.000272908
-0.000148464
0.000267744
0.000147494
-0.00092867
0.00135419
-0.000425485
-0.000586291
0.000118085
-2.91854e-05
-5.28478e-05
8.20168e-05
-0.00011763
0.000127239
-9.62186e-06
0.00514464
-0.000636616
-0.00450808
0.00028406
-0.00169609
0.00141202
0.000253635
0.000704228
-0.00095784
0.00104783
0.00021733
-0.00126516
-0.000277033
0.000170011
-0.0173611
0.00393229
0.0134287
0.000933981
-0.000680338
-2.44523e-05
-6.36061e-07
2.5122e-05
-0.000426188
1.66152e-05
0.00040949
0.000756609
0.000606252
-0.00136283
-0.000334166
0.000147674
0.000186479
-0.00200598
0.00148229
0.000523656
-3.84104e-05
0.000112536
-0.000700657
-6.83346e-05
0.000141146
-7.27981e-05
0.000188273
-5.4039e-05
-0.000134098
7.84847e-05
-0.000125975
4.75146e-05
0.000186922
-7.22079e-05
2.59404e-05
-0.00124012
0.0012142
-5.75462e-05
9.37396e-05
-3.61591e-05
-0.00608493
0.00304593
6.6705e-05
-5.11238e-05
-0.00102873
0.00109664
-6.79313e-05
-0.0019079
0.000167085
-0.0013213
0.00102369
0.000297604
-0.00169495
-0.000517491
0.0022124
-0.00016922
-0.000257014
-5.58002e-05
-3.30765e-05
8.8877e-05
-0.000403243
0.0018899
1.88505e-05
4.41608e-05
-6.30519e-05
-0.000454235
0.00105116
0.000331366
-0.00138255
0.000745731
-0.000537899
-8.13606e-05
-0.000252782
-9.57388e-06
-0.000210924
0.000912111
0.000135726
-7.3079e-05
-2.58634e-06
0.000372734
-0.000754793
0.000618989
0.000468312
-0.0010873
0.000477254
-0.000153947
-5.87188e-06
-2.27683e-06
0.00510859
-0.00175727
-0.00335131
-0.00173227
0.00211191
-0.000379626
0.0018808
-0.00228354
-0.000511745
0.000132578
0.000241688
-0.000374333
-0.0035026
-0.00270916
0.0062118
-0.000954637
0.000980588
9.11831e-05
-6.56281e-05
-0.000316207
0.00474634
-0.000641923
-0.000149926
0.000791791
0.000280694
0.00032768
-0.000608374
0.00206736
-5.92447e-05
-0.00200809
2.48259e-05
-5.15174e-05
2.66924e-05
0.000312944
-0.000318443
5.43644e-06
0.000681828
-0.00197728
-0.000683682
0.00182906
0.00055411
-0.00238318
7.61707e-05
3.14609e-05
0.000375384
-6.73873e-06
-6.10888e-06
1.27114e-05
-0.00195077
0.000170784
0.00177998
5.08542e-05
0.00082787
-0.000878721
0.000561456
-0.000248479
-0.000109672
-0.000939004
0.000823186
0.00124419
0.000118255
-8.78208e-05
-3.04168e-05
0.000316458
-0.000144842
-0.000682562
-0.000188901
0.000871454
-0.000865775
0.00220971
-0.00134392
3.19553e-05
-0.000153109
0.000121085
7.64454e-05
0.000110556
-0.000949238
-0.00163499
0.000709399
0.000925604
-0.00052069
-7.27385e-05
0.00059341
-0.000549936
0.000338635
0.000211279
-4.64964e-05
-7.05166e-05
-0.00105446
0.000473318
0.00100705
0.00039931
-0.0014064
-0.000735109
-0.000464581
0.00119977
-0.000335363
0.000225666
-0.00100206
-0.000632944
-0.000407009
0.00029327
0.000113755
-3.90512e-05
0.000264283
-0.000225218
3.58033e-05
3.68991e-05
-7.26436e-05
0.00150591
-0.00103292
-0.000472985
-2.77951e-05
-5.79874e-05
8.57762e-05
9.57209e-05
-0.000116067
2.03075e-05
0.000601842
-0.00133692
0.00102609
-0.00109867
7.25782e-05
6.35269e-05
-5.8013e-05
-5.45889e-06
0.000107087
-7.10038e-05
-3.60645e-05
-3.49281e-05
5.37915e-05
2.73e-05
-2.98863e-05
2.60651e-06
-1.88512e-05
3.93047e-05
-2.04479e-05
-3.79606e-05
-0.00128578
0.000780321
7.79001e-05
-0.000161143
-0.000277303
0.000146709
0.000130636
-0.00115298
0.00172418
-0.000253556
-0.000153159
-8.23884e-05
0.00023563
-6.44152e-05
0.000869512
7.58536e-05
-0.000945354
0.000133952
-0.000214754
-0.000389158
0.000236008
0.000279921
-0.000202048
0.00170387
-0.00184994
0.000146077
-0.000299168
-0.00060547
0.000904683
-0.000126577
-0.000310834
0.000437527
-2.60568e-05
2.81523e-06
0.00247849
-0.00127132
9.70054e-05
-0.000536641
0.000610623
-7.3899e-05
0.00100231
-0.000132792
-0.000969421
0.00188682
-0.000917385
3.10683e-05
0.000152561
8.82092e-05
0.00141768
-0.00393638
0.000543305
0.00339304
-0.000686272
0.000597269
8.90095e-05
0.00184874
-0.00114498
-0.000703777
-0.000907573
-0.000993305
0.00190084
0.00108754
-0.000599154
0.0015931
-0.000412022
-0.00118107
-0.00105529
0.00156798
-0.000115235
-2.34779e-06
0.000198753
-0.000727481
0.000528729
0.00193424
-0.00193426
-0.00476189
-0.00616746
0.0109291
-0.00928841
0.00452645
-0.000428504
0.000404001
-0.000326273
9.10414e-05
0.000235207
-7.11032e-05
0.000445518
-0.00037452
-0.000689279
-0.00136386
0.000289012
0.000508323
-0.000797305
1.60262e-06
3.00825e-05
-3.1678e-05
-2.34285e-05
1.44943e-06
0.00116607
0.000615753
-0.00178183
1.91508e-06
-0.000688191
-0.0132003
-5.85018e-05
3.06953e-05
-0.000102796
-0.00140733
0.000785527
0.000621817
0.000433885
-0.000964285
-4.99433e-05
-1.90249e-05
0.00181258
-0.000108707
-0.000551411
-0.000503046
0.000934383
0.000353753
-0.000275261
-0.0001612
7.98702e-05
0.00219462
-0.00186982
-0.0003248
-3.79042e-05
-0.000163093
0.00144485
-2.41576e-05
-1.49164e-05
0.000271438
8.48501e-06
-0.00280194
0.00139459
-3.10721e-05
-0.000197003
-8.02613e-05
-0.000644177
0.00042698
0.000217144
0.000237176
-0.000460363
0.00107572
-0.000453004
-0.000622702
-0.0003488
0.00159191
0.000602738
0.000434133
-0.00138461
0.000836318
0.00165836
-0.000368727
-0.00128962
-4.93707e-06
-3.52571e-05
4.02643e-05
-0.00172242
0.000753088
6.92763e-05
-0.000954598
0.00088547
0.000579301
-0.000242376
0.000648252
0.000517871
-0.000514754
0.000728915
-0.00100275
0.00256833
0.000717408
-6.04395e-05
-0.000656898
-0.000120566
0.00156989
-0.00144935
-0.00186504
0.00128592
0.000579137
-1.17735e-05
0.000157285
-0.000145522
-0.00194845
0.00091951
-0.000106382
-0.0005713
4.03114e-05
-4.84268e-05
8.17681e-06
-0.00022296
0.000503646
0.000266739
0.000229399
-0.000496104
-0.000212352
0.000956302
-0.000743954
-8.14464e-06
4.39603e-05
-2.83426e-05
3.67015e-05
-0.000231798
0.0009015
-0.000669656
0.00178958
-0.000209549
-0.00158016
-0.000144565
-0.000181343
-0.000276918
0.000357609
-8.07454e-05
-0.000120627
0.00114674
-0.000301328
7.31471e-05
-0.000107097
3.39041e-05
-0.000429198
-0.000120763
-0.000651036
-5.6272e-05
0.000707351
0.000142474
-0.000176669
-0.00073178
0.000748387
0.000755713
-0.000932769
0.000176982
-0.000164808
0.000193633
-2.87239e-05
-0.000641774
0.00136421
-0.000722448
-3.45496e-05
-2.9628e-05
6.41606e-05
0.000780835
-0.00108
-0.000186612
0.000334262
0.000703252
7.90217e-05
0.00303976
-0.0204008
0.000779611
-0.000478907
0.000420411
5.8573e-05
0.00290832
-0.00107927
0.000104783
0.000307113
0.00480151
0.000134301
-1.60609e-05
0.0012359
-0.00188008
-0.00075073
0.000112356
0.000638532
-0.000372634
-0.000142103
-0.00010677
-2.39773e-05
0.000130691
0.000658963
-0.000658953
-0.000860663
0.00137102
-0.000510346
5.46496e-05
8.67428e-05
-0.000141242
2.44087e-05
-0.00018557
0.000591404
-0.00149775
-0.000621657
0.0021194
-0.000676331
0.000155605
-4.20644e-05
6.70901e-05
-2.5043e-05
0.000601493
-0.000402752
-0.00215493
5.88094e-05
0.00209605
0.00363568
-0.00320382
-0.000431833
3.40576e-05
-0.000675961
-0.00228399
0.00122451
0.00105946
-8.40687e-05
8.11671e-05
2.97492e-06
-9.22213e-06
-4.46352e-06
-0.000128401
0.0007077
-0.00120044
0.00197654
-0.000776086
7.78545e-05
-0.000102102
-9.2969e-07
0.000141109
-7.37728e-05
-0.000658015
2.29349e-05
-5.28103e-05
2.98923e-05
-0.00157582
0.000715162
-0.000130708
-0.000195549
0.000442748
-0.000373465
-3.08391e-05
5.24045e-05
-2.14979e-05
-0.000262538
0.000250783
0.000382792
4.40427e-05
-0.000426738
-0.000647985
0.00136537
0.000118123
2.8613e-05
0.000315539
6.71685e-05
-0.00194338
0.00286955
-0.000926194
-0.000826316
0.00017529
0.000577638
-0.000113994
-0.00156466
-0.000795722
0.00236039
0.000169015
1.81108e-05
-2.81843e-05
-8.78764e-05
-6.02553e-05
-0.000104503
0.00101646
0.000135334
-8.62575e-05
-4.90613e-05
-3.31544e-05
0.000412109
-0.000378945
0.00019405
3.81809e-05
-0.000232199
-0.000480159
-0.000525495
0.000274772
-3.89745e-05
-0.000235763
0.00146785
-0.000795071
-0.000672726
-7.44717e-05
7.4967e-05
-5.66626e-07
-0.000254187
0.000347211
-9.3034e-05
-0.000286165
0.00223252
0.000269169
0.000358515
-0.00062773
6.50143e-07
1.67422e-05
-1.74052e-05
4.47124e-05
-0.000108456
6.37391e-05
0.000119938
-0.00015074
-8.68247e-05
0.000143579
-5.67088e-05
-0.00395701
0.00219076
0.00176636
0.00346104
-0.00213111
-0.00132991
-0.000183827
0.000316435
0.0553407
-0.0448405
-0.0105003
-3.58227e-05
3.15718e-05
5.26476e-06
-3.6801e-05
-0.00116599
0.00149933
-0.000333341
-0.00256741
0.00030287
0.000643588
-0.00094646
-3.56279e-05
-5.34793e-05
8.91368e-05
0.00150015
7.06363e-05
-0.00141339
-1.13119e-06
0.0034187
-0.00341759
0.00010478
0.000104111
-0.000635849
0.000593775
4.19864e-05
0.000306417
0.000131464
-3.7652e-05
-9.38316e-05
-0.00166748
0.00125546
0.000504199
-0.00200196
-0.00010877
0.000163436
-0.000132964
0.00117253
-0.00103951
-0.00039393
0.000196434
-7.13847e-05
-0.000125014
-0.000905583
-9.96974e-05
6.51202e-05
0.000388543
-0.000974819
-0.000124981
-0.000625768
-6.13253e-05
0.00109552
-0.000826375
-0.000244438
1.31442e-05
1.5422e-05
0.000405528
-0.000369902
-3.56176e-05
0.000325281
-0.00149127
0.000994935
0.000472918
0.000657162
-0.000327807
-0.000329469
0.00151765
0.000376055
-0.000312092
-6.39557e-05
0.00122717
-0.000511192
-0.00113127
0.00164241
1.95129e-05
-1.02039e-05
-9.22771e-06
0.000528585
-0.0011703
2.13451e-05
2.61984e-05
8.4577e-05
-1.14277e-05
0.00220267
9.10651e-05
-0.00229391
0.000945736
-0.00109644
0.00015072
0.000161723
-6.76298e-05
-9.41525e-05
-0.000195032
4.40386e-05
0.000151108
-0.00208007
0.00711436
-0.0050343
0.000111064
-0.000593982
0.000482947
9.29155e-06
1.38006e-06
-1.07511e-05
0.000113282
0.000989525
-0.00110276
-0.000183582
0.00019506
-1.15447e-05
0.00155355
-0.00108098
-0.000472561
0.00388842
-0.00784538
6.70962e-05
-0.000121709
7.94085e-05
0.000142041
-0.000221398
6.36236e-05
0.00163793
-0.00170142
0.00102105
-9.57104e-06
-0.000820712
0.00215031
-0.00132967
-2.67751e-05
0.000555357
8.88572e-05
5.60985e-06
-9.442e-05
-0.000165497
-0.000342021
0.000507503
-0.000895175
1.27319e-05
-0.000542716
0.00131621
-0.00077354
0.000462112
-0.000595054
0.00170042
0.00116911
0.00108666
-0.00040789
-0.000678767
4.93722e-05
3.95307e-05
-0.00136696
-6.19755e-05
0.00142899
-0.000222951
0.000188502
3.44488e-05
-7.08865e-05
0.00146428
-0.000645129
-0.000819155
-0.000870917
0.00065857
0.000144554
7.32716e-05
-0.000217881
-6.55557e-05
0.00020087
-3.12445e-06
2.16002e-05
-1.84958e-05
0.000295373
-0.000216227
-7.90312e-05
0.001557
-0.000622419
0.000454305
-0.00104278
0.000588483
-2.22185e-05
-5.668e-05
7.88869e-05
0.000333912
-0.000132422
-0.000201502
-0.000140261
-2.44024e-05
-0.000370416
-0.000305422
9.877e-05
0.000206762
3.36639e-05
-7.57144e-05
0.00026742
0.000335007
-0.000247445
-0.000375089
0.000622535
0.000511964
0.00127757
-0.000412928
1.93499e-05
0.000142399
2.96587e-05
-3.58247e-05
-0.00134853
0.000211942
0.00113659
0.00015932
-9.04062e-05
-6.89128e-05
-0.00302908
0.00176823
0.00126079
-0.000101681
-4.34302e-05
0.000145037
-9.63446e-05
0.000250993
-0.000154665
-0.000101823
0.000376287
-0.000274458
0.00085507
-0.00273769
0.00188264
-8.90596e-05
-0.000317939
0.000128007
-8.58584e-05
-4.20782e-05
-0.000687132
0.000580767
-4.70208e-05
4.07012e-05
6.35911e-06
8.31584e-08
-5.88458e-05
5.87825e-05
0.000657893
0.0016319
0.00105556
-0.000698885
3.47011e-05
2.01564e-05
-5.48484e-05
0.000108598
-0.000830499
-0.000827892
5.46988e-05
-0.00042975
0.000943281
-0.00167267
0.000729401
-1.10302e-05
0.000306497
-0.000870874
0.000869805
0.000103859
-0.000409236
0.000247934
-0.00025603
-0.000219466
0.0012707
-0.00144645
0.000764051
0.000682431
0.000462539
0.00199932
-0.00246175
0.00118583
0.000367724
0.00116699
0.000125909
-0.00129289
-0.000730829
-0.0014896
0.00222045
-6.38868e-05
0.000204564
-0.000140635
0.0024222
-0.00120493
-0.00111035
-0.00117363
-1.91765e-05
-6.30333e-05
8.23907e-05
0.00101688
0.000162276
0.000516088
-0.000683107
0.000167062
-0.000147579
0.000213096
-0.00019649
1.08282e-05
0.000185711
0.00390187
0.0514389
-0.000543888
0.00467256
-0.00412864
0.0003054
-4.27807e-06
-0.000301049
0.000123455
-5.31922e-06
6.65773e-06
-7.64376e-06
9.84602e-07
0.000228394
0.000282538
-0.000510884
6.30025e-06
0.000104771
1.06475e-05
-8.51228e-05
-0.00015273
-7.85346e-06
1.45243e-05
0.000306594
0.000860374
-0.000166772
0.0001062
6.06325e-05
6.36537e-05
-0.000436302
-8.74046e-05
-0.00011629
5.55074e-06
3.74289e-06
-0.00463619
0.00607468
-0.00143853
0.000256124
7.77967e-05
-4.32787e-05
0.000390927
-0.000347564
-0.000288139
-0.000575693
4.4583e-05
-6.56941e-05
2.11197e-05
6.87199e-05
-3.26656e-05
-3.60796e-05
0.000473388
-7.04162e-05
0.000316945
-0.000122868
-0.000439069
-0.000154665
0.00059384
0.000147259
-3.07281e-05
-0.000116607
-0.001097
0.00139984
0.00102113
0.00140108
-0.000153684
1.90091e-05
0.000134697
0.00206623
-0.00225173
0.00018549
-0.000101829
4.60254e-05
-0.000350625
0.00110741
-0.00075679
-0.00046141
-0.000225725
-0.000752143
0.00177316
-0.001021
-0.000662187
-0.000297949
0.000603274
0.00345309
-0.00553317
-0.00127388
0.00239462
-0.00112068
8.0747e-05
0.000435379
7.78436e-05
1.54368e-05
-9.33446e-05
0.000908827
-0.000795503
0.00071439
-9.93891e-06
5.02132e-05
0.000517999
0.000139202
0.000288937
0.00115819
-0.0014471
2.59161e-05
-3.08208e-05
0.000541653
-0.000980721
2.5616e-05
-5.4835e-05
0.00143959
-0.00217041
-0.00133087
0.000225344
0.00110552
0.000399921
-0.000210113
-0.000189833
0.00698798
-0.00034436
-0.00141005
0.00175442
1.31556e-06
1.71213e-05
-1.83661e-05
-1.87252e-05
2.00433e-05
0.000245035
-0.000742421
0.00228909
-0.000222847
0.000613059
-0.00212444
0.00151138
7.25882e-06
-0.000396402
-0.000505541
0.000776625
-0.000271044
8.9225e-05
0.000185553
2.81483e-05
-7.69948e-06
-2.04405e-05
0.00261094
-0.00219194
-0.000418984
0.000395983
-0.00166896
0.000879775
0.00078917
-7.30121e-05
4.37898e-05
2.92526e-05
0.000308749
-0.000991303
-0.000655234
2.94683e-05
0.000625738
-0.000469389
3.17698e-05
0.000437615
4.0727e-05
-0.000103839
6.3162e-05
0.00106234
-0.000794604
-0.00299776
0.00245385
4.72664e-05
0.000181174
-0.000408497
0.000457068
-9.23065e-06
-0.00014029
0.00052805
4.32021e-05
-0.000606922
0.00106952
-0.00105125
0.00446993
-0.000822571
0.000763176
0.000922445
0.000706991
-0.00162942
0.00125556
-0.00207618
-0.00071381
0.000803372
0.00175613
-0.000123044
-0.00163307
0.00536805
-0.00637521
0.00100716
0.000315244
0.00114905
0.000553909
-8.12237e-05
1.2399e-05
6.87995e-05
-4.77264e-05
0.000295693
0.000327812
-0.0011503
-0.000942914
-6.55776e-05
0.00100849
-7.73512e-05
5.89141e-05
3.44799e-05
1.08364e-05
-4.53109e-05
0.000853189
-0.000585484
-0.00026769
-0.000405968
-0.00145908
4.31004e-05
-0.00029721
-0.000342797
0.000811111
-7.77945e-06
5.2366e-05
-0.00187949
0.00249257
-0.000366677
-0.00131606
0.00168285
0.00104221
-3.98986e-05
0.00111467
-0.000572979
-0.000296709
0.000110029
-0.000155725
0.000205009
1.05503e-05
0.00103167
0.000201678
-0.00187063
0.00255572
0.00281232
-0.00182211
-0.000205806
-5.6687e-05
0.00251836
-3.69287e-05
-0.00248139
0.000502537
-0.000808779
0.00111535
-0.000406163
0.00070539
-0.000299258
-0.001974
0.000618648
0.00135531
-2.83233e-05
-5.571e-05
-0.000170173
-7.88615e-05
7.81838e-05
-1.79726e-06
2.99993e-05
-0.00203193
0.00160921
0.000422747
2.45601e-05
2.73749e-06
0.00216182
0.000449122
-0.000639123
-0.000436088
0.00155075
0.000534131
-0.00108801
0.000553871
-0.000369747
-9.96817e-05
0.000603081
-0.00141187
-0.00186915
0.000595329
-0.000526927
-0.000135282
-0.000132287
0.000124626
-4.81651e-05
-8.58038e-06
-1.97444e-05
2.83306e-05
2.28841e-05
4.58346e-05
4.778e-06
-2.14006e-05
-0.000437558
0.000458896
8.86837e-05
2.07702e-05
-0.000109416
0.000371311
-0.00102657
-0.00135461
-0.000685806
0.000493072
-0.000724678
0.000231605
-0.000529172
5.34793e-06
-5.37062e-06
-0.000579115
0.000756635
-0.000467613
-0.00023367
0.000701288
-1.69968e-05
2.23317e-05
-0.000218637
0.000223115
-4.58325e-06
-0.00113254
-0.000527241
0.00165979
-0.000386429
0.000284923
0.0021181
-0.00311584
0.000997788
0.000848273
-0.000767499
-0.000199535
0.000318017
-0.000244957
-7.29773e-05
-0.000328788
0.0002743
5.45028e-05
0.000174506
-0.0013652
0.0010861
-0.000366757
-0.000719267
-0.000164434
9.67876e-05
-0.00117079
0.000132734
-0.000133115
4.04603e-07
0.000318453
-3.48822e-05
3.55036e-05
1.82073e-05
-5.37341e-05
0.000576734
-0.000217296
-0.000359445
0.000625097
-0.00100812
0.000383043
-1.54896e-05
0.000106007
-9.04383e-05
-0.00020741
0.000375525
-0.000168059
0.00150787
-0.00366286
0.00102483
-0.000570531
0.000461074
0.000166399
-0.00187956
0.00052127
0.00135834
-0.0023557
0.00129985
0.00105587
9.0329e-06
-1.76019e-05
-0.00106669
1.02226e-06
-4.75629e-06
3.72094e-06
-1.64839e-05
-2.24634e-05
-0.00169885
0.000734557
0.000964243
0.00012064
0.000236086
-0.00035677
0.00164743
8.69763e-05
0.00284896
-0.00312125
0.000272289
0.000377169
-1.43863e-05
4.17379e-07
1.39312e-05
8.89364e-06
-8.91898e-06
-7.94058e-05
7.94349e-05
0.000237942
-0.000301818
-2.70878e-05
1.26817e-05
8.82638e-05
2.79818e-05
-0.000116239
-0.000268557
3.31005e-05
0.000235416
3.75546e-05
-1.95842e-05
-1.79336e-05
0.000253623
4.71552e-05
-0.000300683
0.00388257
0.000498708
-0.00330728
0.00280861
0.00254856
0.000300439
0.000463459
-0.000129518
-0.000333872
-0.00103039
0.00163033
4.36903e-07
0.000282766
-0.000588451
0.000305724
6.22201e-05
-4.50344e-05
-1.71873e-05
-0.00024634
-3.06573e-05
0.00240339
-0.00148094
-0.00178141
-8.83993e-05
-0.000537611
0.00252485
-0.00122497
0.000184979
-0.000164177
-2.08175e-05
0.000343877
5.60302e-05
0.00496656
-0.00457288
-0.000393836
-0.000104046
-0.000979112
0.00108315
-5.37259e-05
0.000135114
-8.14047e-05
0.000580978
-0.00166955
-0.000571383
-0.0013794
-0.000315507
0.000103183
0.000212325
0.000731978
-7.27084e-05
0.000193386
-4.24349e-05
-6.47979e-05
0.000107203
-4.6797e-05
4.54313e-05
0.000352113
0.00110065
-0.00145272
-0.000111442
0.000554187
2.84279e-06
-4.87042e-05
5.21012e-05
-3.47907e-06
0.000634252
-0.000795163
0.00095475
5.66516e-05
-0.00101134
0.000613505
-0.000186013
0.000315117
9.92112e-06
-8.15252e-05
7.1596e-05
0.000859691
-0.000234591
4.8348e-05
-7.6715e-06
7.54732e-05
-0.000383814
0.000308407
-3.49924e-05
5.79342e-05
0.00104676
-0.00101015
-3.6594e-05
3.80254e-05
-1.32063e-05
0.000827906
-0.000247173
-7.61494e-05
0.000109486
-3.34498e-05
0.00151784
-0.00104052
-0.000172776
0.000141849
3.09126e-05
0.00496997
0.00545788
-0.010428
-0.00061355
-6.5239e-05
8.47935e-05
0.000236245
-4.48048e-05
-0.000191459
-4.966e-05
2.9615e-05
2.00567e-05
-0.000497395
-0.00196455
0.00246193
0.00021182
-1.74605e-05
-0.00019431
0.00264046
-0.00208635
-0.000504441
-6.58435e-05
0.0005703
0.000127358
-0.0013252
0.00119788
0.000108234
-0.00138227
0.00127405
0.000283099
0.000249294
-0.000532371
4.13207e-05
-3.86655e-06
-3.74845e-05
-9.29893e-05
0.000685485
-0.000592524
0.00147764
0.00180268
-0.00328032
2.17672e-05
0.000106227
0.000104625
0.000131448
0.00021958
-9.49202e-05
0.00256885
-0.000124086
-0.00244478
-9.85025e-05
1.73248e-05
-0.000763964
0.00109181
-3.20677e-05
-3.25337e-05
6.46875e-05
-1.70823e-05
-3.25669e-05
-0.00105551
0.00317365
0.000139832
-0.000190665
0.000235391
5.34952e-05
-0.000165428
-0.00104881
-0.000157727
0.00120654
0.0161807
-0.0333835
0.0172028
-0.00179904
0.00145471
6.76154e-05
8.54665e-06
0.000109578
0.00164655
6.27672e-05
-3.08803e-05
4.15433e-05
-3.97302e-06
-5.60969e-05
-0.000106676
-2.07169e-05
-2.70849e-06
9.55268e-06
-2.55393e-05
1.60494e-05
0.00216394
-0.00172459
-0.000439344
-0.00148698
0.00177606
-0.000289068
3.90377e-05
-9.65976e-05
1.99352e-05
-5.40943e-06
0.000537869
-0.000393293
-5.65898e-06
-5.4971e-05
0.000912546
-0.00100558
0.00185266
-0.00118105
0.000590721
0.000496847
3.56308e-05
0.000200603
-0.000597416
-5.18972e-05
3.27902e-05
-0.000394619
0.000628514
-0.00111864
0.000752117
9.07999e-05
-1.29865e-05
4.13232e-06
-3.11082e-06
0.000257936
-0.0005998
0.000341937
-0.000498148
-0.00083271
-0.000495459
0.000813553
0.000330012
-0.000300179
-0.000205151
0.000505298
-4.29451e-05
-0.000159882
0.000346236
-0.000638267
0.000292099
0.000347216
-0.00024258
0.000127989
-4.5891e-05
-8.20675e-05
-4.65732e-05
2.77472e-05
0.00217669
-0.00247772
0.000301082
0.000358614
-0.000470031
9.88274e-05
8.25877e-06
-0.000686519
0.00139828
-0.000711737
-0.00103896
0.000352479
-0.000421445
-0.000630674
0.00105215
-0.000796679
0.00130746
-2.08672e-05
-0.00128666
0.00108666
8.59234e-05
-0.000199732
-0.00330284
0.000954493
-0.00252744
0.001573
-0.000352286
-0.000590542
3.27399e-05
-3.11356e-05
-0.00238251
0.00129282
0.00108974
0.000101473
-0.000375603
0.000274107
4.25816e-05
-1.27215e-06
0.000186527
-0.000151792
0.000318419
-0.000216962
-4.96826e-05
-5.81968e-05
-8.10968e-05
4.40558e-05
3.70455e-05
0.000625394
-0.000279156
-0.00166782
-0.000240077
-0.000442791
0.000426805
1.61089e-05
-1.76036e-05
-0.000520172
-0.00021494
0.00011144
0.000103505
-0.00122791
0.000313147
0.000914726
-0.0011482
0.000489354
0.00065886
0.000110312
0.00225587
-0.00131261
-0.000860009
-0.00100996
0.00186997
-0.00015609
0.000439169
-0.0253718
0.0415523
0.000117454
-0.00138582
0.002007
-0.00062123
0.000233894
2.74416e-05
-0.00107626
-1.85151e-05
-4.20423e-05
6.06057e-05
-0.000364594
0.0020959
-0.00173126
-0.000407842
0.000359276
0.00200853
-0.000394996
-0.00161353
-0.000734609
0.000761293
-2.66916e-05
-0.00217449
0.00180987
-0.000461672
0.000280475
0.000181132
0.000127433
-8.79432e-05
-3.95294e-05
-8.49504e-05
0.000269919
-3.19766e-05
2.2635e-05
9.30334e-06
9.71057e-05
6.57526e-05
-0.00026223
0.000196494
-0.00104212
-0.00159092
0.00184651
0.000851722
8.95608e-07
-0.000852613
0.00102654
-0.000565441
0.000637612
0.000449112
6.25685e-05
5.03648e-06
0.000225519
-5.59631e-05
-0.000169589
-0.000863976
0.000357038
0.000506972
0.000141098
-6.16488e-05
-0.000544306
-0.00014141
-7.4432e-05
0.000623895
-0.000549442
-0.000582461
-0.00186471
0.00244717
-0.000288672
0.00021726
7.15904e-05
0.00328533
-0.00449458
0.00120924
-0.000661851
-0.00172064
0.00012345
0.000656845
-5.95812e-05
3.02812e-05
-2.12446e-05
0.0010525
-0.000624571
-0.000427937
0.000120082
9.17648e-05
-4.65944e-05
-9.14316e-05
0.000138005
0.00140873
0.00290668
-0.00431545
5.8615e-05
-2.69964e-05
-3.61366e-05
-4.49565e-05
-0.000548821
-0.000358828
0.000288185
1.34246e-05
-0.000387879
0.000119309
0.000145676
0.000171311
-0.00101688
0.000145358
0.000871533
0.00239837
-0.00100801
-0.00139039
0.000646942
0.000890214
-0.00153715
-0.000396439
-0.000970496
-7.4119e-05
7.72234e-05
-3.03006e-06
-0.000508641
0.000956898
-0.00137592
0.000419022
7.01724e-05
-0.000929525
-9.38305e-05
0.000137996
0.000211899
0.000444924
0.000127339
-7.2201e-05
-5.53049e-05
0.000704993
-0.00200479
0.000282398
0.000800456
-4.484e-05
0.00232489
0.00256594
-0.00489082
-0.000115903
4.1608e-05
7.42943e-05
0.00273587
-1.93467e-05
-0.00198544
0.000662333
-0.00179463
0.000934634
-4.30839e-05
-2.26051e-05
-5.37307e-05
-3.92001e-05
9.29109e-05
-5.02931e-05
-7.62259e-05
-0.000104502
2.82136e-05
7.62336e-05
6.00025e-05
0.00102666
-0.0017932
8.20865e-05
-6.25698e-05
0.00128978
0.000368602
0.00101869
0.000957448
-0.00197615
7.46708e-05
-3.91549e-05
-0.000919468
0.000845047
0.000507094
0.000320809
-0.0019473
0.00137593
-0.000137029
-0.000367421
-0.00177421
-0.000963485
0.000451954
5.23676e-05
-6.79764e-05
1.56285e-05
-0.000266423
-4.90801e-05
-0.000592654
-0.00128693
-1.78306e-05
-8.12333e-06
2.58754e-05
-5.52075e-05
7.35231e-06
4.78381e-05
0.000168187
0.0002477
0.000236721
0.000145304