/*--------------------------------*- C++ -*----------------------------------*\
| =========                 |                                                 |
| \\      /  F ield         | OpenFOAM: The Open Source CFD Toolbox           |
|  \\    /   O peration     | Version:  v2012                                 |
|   \\  /    A nd           | Website:  www.openfoam.com                      |
|    \\/     M anipulation  |                                                 |
\*---------------------------------------------------------------------------*/
FoamFile
{
    version     2.0;
    format      ascii;
    class       surfaceScalarField;
    location    "250";
    object      phi;
}
// * * * * * * * * * * * * * * * * * * * * * * * * * * * * * * * * * * * * * //

dimensions      [0 3 -1 0 0 0 0];
oriented        oriented;


internalField   nonuniform List<scalar> 
20580
(
-0.130788
0.00798516
0.122802
0.126071
-0.24803
0.12196
0.25786
-0.131789
0.00524219
0.00232083
-0.00756301
0.583834
-0.619769
0.0359352
0.261831
-0.18641
-0.0754208
-0.299099
0.0466608
0.575374
-0.578222
0.0028476
-0.017304
0.0146832
0.0026208
0.423219
-0.246627
-0.176593
0.143668
0.00927206
-0.15294
-0.518641
0.312887
0.205754
-0.207645
0.285024
-0.0773787
0.00519142
-0.00172869
-0.00346274
0.189173
-0.0338786
-0.155294
-0.115225
0.0990155
0.0162096
0.00767248
0.00545407
-0.0131266
-0.170965
0.356028
-0.185064
0.0958177
-0.106997
0.0111788
-0.116974
-0.0138137
0.0622301
-0.191805
0.129575
0.233837
-0.201735
-0.0321026
0.0301351
-0.0525698
0.0224346
-0.584783
0.591839
-0.00705563
0.0849457
-0.103313
0.0183675
-0.00191746
0.115787
-0.11387
-0.0177336
-0.0663986
0.0841322
-0.0939275
0.0774676
0.0164599
-0.00925617
0.0293293
-0.0200731
0.484458
-0.323988
-0.16047
0.00310818
-0.00277137
-0.000336812
-0.223874
-0.0752244
-0.114234
0.127407
-0.0131729
0.030526
-0.0244246
-0.0061014
-0.155086
0.149034
0.00605236
-0.0195691
-0.00910273
0.0286718
-0.615191
0.0304082
0.00925688
-0.0750731
0.0658162
0.000926546
0.00238615
-0.00331269
-0.130373
-0.161272
0.291645
-0.0102881
-0.00482389
0.0151119
-0.0323589
0.0231028
0.0164762
-0.0164762
0.0929885
9.09552e-06
-0.0929976
0.0269726
-0.0356727
0.00870003
0.450498
-0.278307
-0.172191
-0.534748
-0.0695141
-0.129845
0.04885
0.080995
-0.050982
-0.212224
0.263206
-0.298776
0.0911305
0.00966372
-0.0100092
0.000345473
0.144355
-0.283933
0.139577
-0.0999329
-0.0152922
-0.0487309
-0.125532
0.174263
0.00665824
-0.000929365
-0.00572888
0.102861
-0.233234
0.00830147
-0.122536
-0.0146167
0.00432862
-0.0249863
0.0931685
-0.0681822
0.000194397
0.000894535
-0.00108893
-0.354796
-0.163845
0.0724437
-0.0901773
-0.217901
-0.196943
0.414844
-0.194527
0.143545
-0.0411261
0.0915959
-0.0504699
-0.0823437
0.0412176
0.000170683
2.37138e-05
-0.0955141
0.06585
0.353713
-0.248497
-0.105216
0.00342279
0.00274557
-0.00616836
0.00692218
-0.00041866
-0.00650352
0.164968
-0.184429
0.0194615
-0.032545
-0.221688
0.254233
0.000677038
0.000217497
0.179048
-0.0184564
-0.160591
0.221054
-0.215014
-0.00603981
0.0153233
-0.00765086
0.342358
-0.526027
0.183669
0.102237
-0.017291
0.449114
-0.216202
-0.232912
0.245676
0.108036
-0.105505
0.118969
-0.0134638
-0.0234205
-0.131666
-0.00299969
0.00461555
-0.00161586
0.00132445
-0.000647412
0.00362509
-0.00552027
0.00189518
0.0662125
0.167625
0.0139399
-0.00188969
-0.0120502
0.229941
0.146551
-0.376492
0.00181389
0.00129429
0.267589
-0.123234
-0.30375
0.0798755
0.0144678
-0.0144678
0.00688886
-0.00326376
-0.00218595
0.000986425
0.00119952
0.0275495
0.0694263
-0.0969758
0.147641
-0.351981
0.204339
-0.0886604
0.108215
-0.0195547
0.0044393
-0.00518444
0.000745139
0.0165524
0.0969837
-0.113536
-0.111247
0.0225863
0.124052
-0.0481666
-0.0758858
0.0840313
-0.120978
0.0369467
-0.169054
-0.0796171
0.248671
-0.468842
0.131067
0.337774
0.131192
-0.171423
0.0402309
-0.164162
-0.30468
0.00615251
0.000769667
-0.0755918
-0.228158
-0.337451
0.166487
-0.0102124
0.152624
-0.142411
0.337306
0.113192
-0.102954
0.115563
-0.0126093
0.0175474
0.110906
-0.128454
-0.117949
0.11083
0.00711939
0.162431
-0.211162
0.168944
-0.398172
0.229228
0.465285
0.110089
-0.00300736
0.00824955
0.00483627
-0.00141348
0.0706397
-0.10158
0.0309404
0.158788
-0.418207
0.259419
-0.275587
0.288512
-0.0129245
0.00570388
-0.000566483
-0.00513739
0.0831862
-0.111234
0.0280481
0.0280689
-0.0680694
0.0400006
0.342525
-0.194884
0.0560383
0.0940139
-0.150052
0.0135908
0.00335345
-0.0169442
0.146597
0.0169358
-0.163533
-0.199349
-0.00238593
-0.133307
0.186105
-0.0527984
-0.0752595
0.0845164
0.0205087
0.0100173
-0.00109406
0.144762
-0.00236975
-0.000687418
0.00305716
-0.0493766
-0.00396821
-0.00155206
-0.0118728
0.125233
-0.113361
-0.163794
0.0242076
0.139586
-0.108392
0.0028874
0.252192
-0.231483
-0.0207087
-0.0667695
0.296711
-0.0799117
0.0022217
0.07769
-0.00556051
-0.0699204
0.0754809
-0.0378375
0.230526
-0.192689
0.514688
-0.17233
0.00411749
0.0192461
-0.0167308
-0.00251522
-0.0652513
0.12129
-0.0578597
-0.053387
-0.111318
0.00836407
-0.104885
0.122432
0.101695
-0.0959252
-0.00576998
-0.215672
-0.0211522
0.236824
0.128816
0.188589
-0.317405
0.310193
0.213648
-0.523841
0.000272287
0.000654258
-0.186011
0.0903562
0.0956549
-0.050032
0.209052
-0.15902
-0.416263
-0.164235
0.580498
0.0313864
-0.0247216
-0.00666476
0.159066
-0.0278739
-0.043561
-0.086284
0.00259779
0.00259364
-0.0289076
0.00504603
0.0238616
-0.0210366
-0.007871
0.00978585
-0.000122126
0.155764
-0.165976
0.0577597
-0.0522428
-0.00551696
0.534944
-0.327172
-0.207772
0.438145
-0.269201
0.155956
-0.141629
-0.0143276
0.54989
-0.110271
-0.439619
0.00107788
-0.00326383
-0.0734842
-0.0193109
0.0927951
0.0908887
-0.105619
0.01473
0.256307
0.181838
0.183571
-0.165418
-0.0181527
0.110521
-0.0196321
0.10049
-0.0173034
0.120538
0.00877696
-0.174758
0.165981
0.18293
-0.0363327
-0.0172038
0.0172038
0.00603609
0.01321
0.0946058
0.0328015
-0.0725546
-0.0592472
0.131802
0.229421
0.00592589
-0.235347
-0.134473
-0.241234
0.375707
-0.0776498
0.0720893
-0.130144
-0.0558671
-0.00256409
0.000835405
0.130988
0.130843
-0.226249
0.188411
-0.0962326
0.115353
-0.0191203
0.118776
-0.0241704
0.201315
0.10363
-0.304945
0.127842
-0.313247
0.185406
-0.0118866
-0.0728088
0.0846954
0.114253
-0.113265
-0.000987592
0.00415306
-0.00583218
0.00167911
0.016177
-0.00985835
-0.00631863
0.0161734
0.172999
-0.00828531
-0.0482885
0.0565739
0.00137985
0.00277321
0.194703
-0.212052
0.0173486
0.119735
-0.135083
0.0153479
0.0178309
-0.00609908
-0.0117318
0.202196
-0.00974603
-0.19245
-0.102484
0.10486
-0.00237531
-0.244482
-0.0311055
0.00586079
-0.646384
0.3965
0.249884
-0.135227
0.159874
-0.0246475
-0.213311
0.182232
0.0310796
-0.24709
-0.0516859
-0.00567687
0.0838041
-0.0781272
-0.174672
-0.139375
0.314048
-0.0035449
0.0250085
-0.201863
0.45817
0.120117
-0.109218
-0.0108995
-0.00361143
0.000611734
0.000844363
0.00195797
-0.00280233
0.0341064
-0.139403
0.105297
0.140591
-0.0208568
0.668499
-0.366481
-0.302019
-0.0301927
-0.0497191
0.171385
-0.455316
0.283932
0.013807
0.0047965
-0.00251559
-0.00228092
0.0853664
-0.157921
-0.0356137
0.237809
-0.480482
0.221823
0.00402042
0.0121566
0.22779
0.256668
0.0817701
-0.051635
0.0129895
-0.00788035
-0.00510919
-0.103583
0.120135
0.143153
-0.559417
-0.0401255
0.085846
-0.0457205
-0.00108071
0.00205688
-0.000976172
-0.00894587
0.0359185
-0.00346898
0.178563
-0.17739
-0.00117278
0.0630561
-0.0617149
-0.00134115
0.0826941
-0.088371
0.0283606
0.15521
0.0998946
-0.0304683
0.152277
-0.156875
0.00459731
0.000651375
-0.006739
0.00608763
-0.105239
0.11485
-0.0096106
-0.30895
0.644957
-0.336007
0.0586215
0.153766
-0.212387
0.0119825
0.0290065
0.00237988
-0.0112009
-0.00483341
0.0160343
-0.347629
0.213156
0.051704
0.185833
0.154808
-0.34064
0.0991591
-0.0956755
-0.00348363
0.108807
-0.100787
-0.0080208
-0.0985017
0.157123
0.144408
0.0146577
-0.127535
0.0222958
-0.0937877
0.302074
-0.208286
0.0548818
0.0691706
-0.129456
0.0416615
0.0877941
0.0993188
-0.0795682
-0.0197506
0.458544
-0.190307
-0.268237
-0.293604
0.0465136
0.119473
-0.0191327
0.0256104
-0.0064776
0.0115458
-0.000136303
-0.0114095
0.152891
-0.0169823
-0.135908
0.387755
-0.228967
0.091969
0.0085205
-0.0962797
0.102311
-0.00603139
-0.0941198
0.11815
-0.0240302
0.157604
-0.0131952
-0.0232751
0.00414237
0.00257511
-0.00288037
0.000305259
0.146281
-0.194725
0.0484441
-0.101283
-0.0599502
0.161233
-0.0831272
0.0938021
-0.0106749
0.183207
0.167307
-0.350514
0.226523
0.296075
-0.522598
-0.112048
0.0179281
-0.0204262
0.141938
-0.121511
-0.459672
0.230012
0.22966
0.492182
0.131509
-0.623691
0.404816
-0.233431
-0.563927
0.570599
-0.00667244
-0.0176483
-0.15343
0.171079
0.536716
-0.013847
-0.00345698
-0.0892901
0.15152
0.151722
-0.288221
0.136499
0.00943744
0.00612526
-0.000421378
0.0578441
0.214249
-0.272093
0.00314325
0.00673121
0.000358273
-0.00708949
0.0710841
0.181108
-0.183229
0.241073
-0.212988
0.123698
0.0027994
-0.002519
-0.000280402
0.0160983
0.00279808
-0.0188964
0.157674
-0.0264279
-0.131246
0.46152
0.122314
0.0569481
0.000811602
0.180147
0.142557
-0.148784
0.00622676
0.00740757
-0.00067636
0.0911876
-0.0844444
-0.00674322
-0.253997
0.203965
-0.0966465
0.0135193
-0.00590774
0.0883575
-0.0824498
0.00353713
-0.00518194
0.00164481
0.109415
-0.00245387
-0.106961
0.0446551
-0.111132
0.0664773
-0.00291656
0.000546809
0.00872663
-0.00191959
-0.00680704
-0.0306511
-0.0632763
0.314965
-0.187123
-0.00458999
0.0126685
-0.00807849
-0.00968101
0.00968101
0.00230975
-0.0302096
0.0278998
-0.0397023
0.0420121
0.145087
0.0496161
0.159874
-0.0287483
-0.131126
0.0219922
-0.156599
0.134607
0.00573923
0.00820066
0.053206
-0.112676
0.0594698
-0.215991
-0.300652
0.516642
-0.105367
-0.429381
-0.0497858
0.179565
-0.129779
-0.00254934
0.00608647
0.028711
0.370455
-0.187248
0.00183079
0.0511597
0.11301
-0.16417
-0.179781
0.046474
-0.0460838
0.255136
0.00263693
0.00016247
0.0957617
-0.00379272
0.01542
-0.0101697
-0.203142
0.183085
-0.218699
-0.0350945
0.0286949
0.00639962
0.246453
-0.0170316
0.00541551
-0.0627564
0.209037
-0.125145
-0.0878427
0.14046
-0.0893002
0.332383
0.289698
-0.137976
0.1171
-0.132712
0.0156124
-0.0206558
0.11764
-0.112053
0.118176
-0.00612352
-0.0811672
-0.023708
-0.0113865
0.190725
0.0398016
0.0031312
-0.105727
0.0933327
0.0123943
-0.192752
0.430554
-0.237802
0.0926855
-0.0014979
-0.105073
0.124247
-0.019174
0.00512243
-0.000683129
0.167281
-0.217066
-0.134708
0.00760688
-0.0911889
0.0662026
-0.0881733
0.0807881
0.0073852
0.112915
-0.122197
0.00928221
0.0131698
-0.0102689
-0.00290095
0.28767
-0.236371
-0.0512982
0.0190695
-0.0925537
0.00167813
0.014798
0.0186218
-0.18276
0.164138
0.00740274
-0.00675137
-0.0291814
-0.151324
0.180505
-0.0159075
0.00572598
0.0101815
0.0817503
-0.183033
-0.0314148
-0.129263
0.116275
-0.113565
-0.00271071
0.0574628
-0.091296
0.0338332
0.307055
-0.178238
0.235454
-0.15312
-0.0823335
0.0929671
-0.113393
0.0136296
-0.294063
-0.0245288
0.318592
-0.00622707
0.159118
-0.0384638
-0.000838545
0.0393024
-0.209406
0.176861
-0.0741401
-0.0609425
-0.00936047
0.0104722
-0.00111177
0.103115
-0.253708
0.150594
-0.0424439
0.10708
-0.0646359
-0.155115
0.14998
0.00513479
-0.00491008
0.0210084
0.188205
-0.197951
0.128516
-0.130433
-0.0666752
0.0583899
-0.00242688
0.162519
-0.155295
-0.00722352
-0.0181009
0.00690005
0.000243737
-0.0871342
0.0470087
-0.279501
0.185713
0.116441
0.000659044
0.153441
-0.179085
0.0256443
-0.122077
-0.012631
0.416899
-0.206898
-0.210001
-0.0171665
0.0171665
-0.00748659
0.0361904
-0.0287039
-0.0846074
0.0926371
-0.00802972
-0.0553451
0.23843
-0.0112596
0.0863939
-0.079977
-0.0064169
0.0105487
0.000997086
0.482637
-0.213209
-0.269428
-0.0139024
0.00931241
-0.107366
0.103106
0.00425965
-0.0154187
-0.0136546
0.0290733
0.165394
-0.0131172
-0.0177324
-0.0735784
0.0913108
-0.0398258
-0.237803
0.277628
0.567714
-0.0178243
0.000288579
0.00636966
0.0895075
-0.00991906
-0.0795884
0.145598
0.277621
-0.206965
-0.0410656
-0.134893
0.0607531
-0.156594
0.459565
-0.302971
-0.0428185
0.0353319
0.0352218
0.124653
-0.122334
0.0172608
-0.222206
0.218239
0.00396753
0.0130761
0.274594
-0.329784
0.250995
0.0787893
-0.0795567
-0.00861668
-0.07936
-0.208861
-0.0302461
-0.299538
0.022435
-0.0719845
0.0495495
-0.0409055
0.00244162
-0.168709
-0.0306398
0.0220458
-0.0920209
0.0699751
0.216576
-0.434477
0.51524
-0.219165
0.27207
-0.168956
0.00279684
0.12518
-0.143714
0.0185333
-0.326475
0.0291959
0.297279
-0.314667
0.213357
0.10131
-0.0352907
0.10593
-0.120818
0.296364
-0.175546
-0.0310933
0.0260832
0.00501005
-0.170679
-0.379145
0.549825
-0.151898
-0.0584412
0.210339
-0.0157994
-0.0198733
0.00422403
-0.0948631
0.090639
0.429088
-0.606429
0.177341
0.498202
-0.199897
-0.298305
-0.195754
-0.0264528
0.319107
-0.124339
-0.194769
0.0842377
-0.0978871
0.0136495
-0.0679913
0.056868
0.0111233
0.190835
-0.0122725
-0.0112216
-0.0415994
0.052821
0.216725
0.266185
-0.485812
0.219627
-0.0103907
0.0164983
-0.00610758
-0.069143
-0.158613
0.0838497
0.0747636
-0.299642
0.273025
0.0266174
0.00816014
-0.126247
0.114374
0.0708084
-0.0200807
-0.0507277
-0.237285
0.0682311
-0.169177
0.00238044
0.166797
-0.0197972
-0.195208
0.168922
0.0262863
-0.0128714
0.0109518
0.0896019
-0.00320801
-0.0932025
0.00859506
-0.234207
0.0829551
0.151252
-0.00190341
-0.159824
-0.149412
0.309237
0.00460768
-0.135705
-0.0194092
0.0394208
0.0793554
0.178306
-0.0248648
0.210884
-0.110243
0.114467
0.127208
-0.446099
-0.17367
-0.012129
0.0114789
0.000650138
0.00395
-0.0143407
-0.00785272
-0.0232405
-0.00651802
-0.00115162
0.00766964
-0.0455563
0.0063879
-0.013933
0.00754512
0.00152451
0.149627
-0.0271543
-0.122472
0.577175
-0.305263
-0.271912
0.0479412
-0.090385
0.147672
-0.394299
-0.374355
0.0802925
0.0177528
-0.138212
0.12046
0.00101083
0.00303617
-0.004047
-0.0594562
-0.185193
0.244649
0.20582
-0.228313
0.0224929
-0.139468
0.0963187
0.0431496
-0.147189
0.0104812
0.136708
0.396265
-0.181425
-0.21484
-0.0316527
-0.0247315
0.0563842
0.460008
-0.286886
-0.173122
0.0185034
-0.0146989
-0.00380448
0.0867041
-0.00246648
0.165829
0.283285
-0.298502
0.205308
0.0931939
0.100954
-0.105317
0.00436265
0.0148744
-0.231882
0.0726842
-0.0857161
0.0130319
-0.042139
0.0900802
-0.143019
0.356419
-0.2134
-0.0030775
0.00310491
-2.74121e-05
-0.00931647
0.105134
0.106437
-0.102857
-0.00357938
-0.0492494
-0.184957
-0.0166355
-0.055349
-0.000654977
-0.000753326
0.0014083
-0.337182
0.194163
-0.00911201
-0.0804886
0.0896006
0.368578
-0.178174
-0.190404
0.108028
-0.0626519
0.0766398
-0.0139879
-0.0107679
-0.00513956
0.191861
-0.169681
-0.0221793
0.142934
-0.0177537
0.231211
-0.405441
0.17423
0.117922
-0.119909
0.00198749
0.0175882
-0.00399742
0.00238888
-0.000170075
-0.0022188
-0.256534
0.395532
-0.138998
-0.0155573
0.00898463
0.00657266
-0.351004
0.120081
-0.0089046
0.164266
-0.159403
-0.00486316
0.334716
0.14792
-0.0763816
-0.138632
0.00225674
-0.0019757
-0.000281036
0.116143
-0.0586798
-0.000820763
0.203421
-0.262877
-0.174209
0.329017
-0.0180763
0.0245929
-0.00651659
0.144957
0.406281
-0.551238
-0.114696
-0.00360182
0.118298
-0.177988
0.243528
-0.0655396
0.180792
-0.164709
-0.0160834
0.189025
-0.0360861
-0.152939
-0.0307314
0.0403677
-0.00963623
0.00322118
-0.000646075
0.0889062
-0.226763
0.137856
0.0135942
-0.0119161
0.0884212
0.179245
-0.267666
0.000640749
0.127425
-0.128066
-0.0220769
-0.010282
0.00754167
-0.00847103
0.282512
-0.315567
0.0330551
0.142249
-0.00782813
0.0918594
-0.00232281
0.000347112
0.013656
-0.0883015
0.0746455
-0.0172626
0.135184
0.0933001
-0.0224917
0.184972
-0.0207062
-0.0755476
0.157298
-0.00736023
0.0121567
0.0490979
-0.00757647
-0.0415214
-0.0586149
0.122665
-0.0640502
0.0154109
0.00309252
-0.0816324
0.0939306
-0.0122982
0.00714359
0.0266709
-0.0338145
0.309882
-0.208906
-0.100977
0.0800245
0.013144
0.0736525
-0.0913849
0.515919
-0.24506
-0.270859
0.0135471
0.000920707
0.0380919
-0.0144195
-0.0236724
0.164541
0.019136
0.310025
-0.133104
-0.176922
-0.0482603
0.0370387
-0.111618
0.12511
-0.0134921
-0.0325359
0.0550248
-0.022489
-0.262525
0.183165
0.603219
-0.0569409
-0.546278
-0.0966628
0.130762
-0.0340989
-0.129645
-0.0175444
-0.502966
0.332287
0.00208872
0.503114
0.100105
-0.0976157
0.0159833
0.223603
-0.214985
-0.00861865
0.00974188
-0.131819
-0.25403
0.174413
0.210176
0.186088
-0.132749
-0.00470867
0.137457
-0.00684929
-0.00870801
0.172049
-0.147851
-0.024198
0.00127055
0.016928
-0.286792
0.482801
-0.196009
-0.419006
0.0164796
0.402526
0.00468235
-0.146311
-0.147475
-0.167192
-0.0986985
0.124392
-0.0256937
-0.263778
0.174905
0.0888728
-0.115046
-0.0435678
0.0897122
-0.00968776
0.324971
-0.557943
0.232972
-0.013055
0.0157579
-0.00270287
0.311003
0.357496
-0.107058
0.0983936
0.00866487
0.0102913
0.00330292
-0.0212741
-0.00635052
0.0276246
0.0179021
0.0277043
-0.0602401
-0.0522697
-0.0871986
0.0951566
-0.113487
0.0183306
0.0297779
0.00831398
0.228065
-0.378153
0.150088
-0.0485177
0.016865
0.135002
-0.151447
0.170069
0.000689382
-0.0072074
0.00805293
0.0808193
-0.0888722
-0.350469
0.157717
-0.124058
0.0253592
-0.106261
0.307576
-0.0228249
0.0299685
-0.012596
0.00292432
0.00967169
0.0171812
0.191676
-0.208857
0.0539634
-0.0326524
-0.00790362
0.040556
0.61859
-0.333153
-0.285437
0.384601
0.233988
0.127658
-0.0118705
-0.0150132
0.00195822
-0.0584763
0.0743062
-0.0158299
-0.219574
0.0363457
0.120246
-0.108665
-0.0115814
0.159619
-0.280438
0.318595
-0.382303
0.0637081
0.0634218
-0.0837658
0.020344
0.00668116
0.137277
-0.0944908
-0.0427863
0.164088
0.311248
-0.475336
-0.064685
-0.0647706
0.0928775
0.0386102
-0.131488
0.0238412
-0.135397
0.111556
-0.266489
0.0857341
0.180755
-0.196667
-0.0295821
-0.127648
0.0160296
-0.178019
0.081356
-0.126854
0.0832933
0.0122109
0.152757
-0.124696
-0.0597334
-0.119532
0.0609175
-0.0894265
0.0693457
-0.0318717
-0.0751248
0.0324041
-0.0460646
0.0136606
-0.00993621
0.0826204
-0.0754851
0.0176255
0.00565609
0.000875643
-0.00653173
-0.0265332
-0.101708
0.128241
0.0129406
-0.0755925
-0.00278076
0.152862
0.187919
-0.340781
0.104293
-0.179841
-0.117994
0.0861221
-0.0141797
0.183781
-0.169601
0.220409
-0.436611
-0.45173
0.24557
0.20616
0.113841
-0.0998681
-0.0139727
0.00196655
0.0112033
-0.205276
0.0533783
-0.0111219
0.00324157
0.188972
-0.475765
0.0158332
-0.0743095
-0.0398841
0.0971013
-0.0572172
0.00792088
-0.00051331
-0.0859353
-0.0381224
-0.0193177
0.207523
0.101623
0.156236
3.3358e-05
0.00788753
0.0767023
0.0605749
-0.144318
0.117785
0.00953046
-0.315218
0.328294
-0.0848145
0.0986476
-0.0138331
0.00678231
-0.0621356
-0.0354801
0.183828
-0.0281032
-0.155725
0.110889
-0.109302
-0.0015877
-0.251407
0.211581
-0.33538
-0.0300489
-0.182003
0.340059
-0.021464
0.0298631
-0.00951121
-0.0203519
-0.412217
-0.151709
0.0852197
-0.0217979
0.00753408
-0.121026
0.0350903
0.00147666
0.00128254
-0.00275919
-0.00235812
-0.00282632
-0.0966604
0.0345248
-0.0138284
0.108985
0.167147
-0.149245
0.136342
-0.237182
-0.0564212
0.0238964
0.337132
-0.361028
-0.000980939
-0.418025
0.392843
0.145986
-0.129548
-0.0164375
-0.0248819
-0.0859885
0.11087
0.10465
-0.0117723
-0.0093895
0.0868571
-0.24382
0.0124045
0.231416
0.00398387
0.486988
0.110027
0.00560043
-0.00327961
0.0102993
-0.143238
0.132939
0.0436409
0.443347
0.232706
0.246605
-0.479311
-0.0185628
0.0268886
-0.00832581
0.0310664
-0.217477
0.02632
0.0342744
-0.0605944
0.0335669
-0.00378899
0.114564
0.0932586
-0.123757
0.0304986
-0.232939
-0.147748
0.380687
0.0011489
-0.0255735
0.00226231
0.158697
-0.160959
0.058337
-0.24353
0.00594645
0.343009
0.180985
-0.523994
0.0223546
-0.253838
-0.154213
-0.18372
0.337933
-0.0182608
0.146187
-0.127926
-0.00747397
0.00860167
-0.0011277
0.0286155
-0.193003
0.164388
-0.173438
0.174417
-0.000978318
-0.115719
0.00835367
0.00178145
0.000607424
-0.17443
0.115183
0.0141287
0.13768
-0.151809
0.0328471
-0.0082081
-0.024639
-0.356188
0.380085
0.0237443
-0.328621
-0.192489
0.52111
0.0472752
0.249089
-0.0818699
-0.0140707
0.0959406
-0.0745536
0.116767
-0.0422136
-0.0168594
-0.10109
0.117155
-0.0126852
-0.10447
0.0167536
-0.53932
0.31507
0.22425
0.377349
0.219666
0.118618
-0.117977
0.234323
0.0755591
-0.119057
-0.420263
0.198515
-0.222254
0.0237389
0.114457
-0.00431679
-0.11014
-0.398805
0.434326
-0.0355208
0.0947236
-0.107718
0.0129941
0.0222652
-0.0631573
0.0543596
0.0087977
9.31143e-05
0.117062
-0.00161685
0.0019507
-0.000333851
-0.00309876
0.128332
0.479351
0.1212
-0.117599
-0.00360079
-0.516897
0.237417
0.27948
0.138414
0.0970393
-0.0158559
0.04826
0.0322824
-0.0035875
0.000580167
-0.0370193
0.0288112
-0.179138
0.302564
-0.123426
-0.192638
0.209819
0.119291
-0.0772531
-0.0420374
0.224139
-0.208727
-0.0154119
-0.188022
-0.192484
0.380505
-0.0195665
-0.0330032
0.0957744
0.00338473
0.000864192
0.0070145
-0.00787869
-0.015302
-0.116656
0.0421028
-0.347212
0.30535
0.0418617
0.00752875
-0.331517
0.0997006
-0.0544694
-0.0452312
-0.0805388
-0.0417951
0.250696
0.490435
0.136173
-0.626608
0.0288157
0.0820141
0.105989
-0.0011722
-0.104816
-0.00539595
-0.253766
0.0380946
-0.628509
0.362501
0.266008
-0.00857827
0.0011043
-0.25347
-0.0130195
-0.0173879
-0.158352
0.17574
0.35904
-0.515634
-0.000552335
0.00474421
-0.00419187
-0.477074
0.168124
-0.0155078
0.00359177
-0.282613
-0.121589
0.404202
0.0102196
-0.113802
0.179035
-0.154157
-0.0248781
0.13308
-0.0714227
-0.0616573
0.0103897
-0.313472
0.0917848
-0.262109
0.151779
0.110329
0.597038
-0.346883
-0.250155
-0.0204415
-0.0639615
0.084403
0.0732972
-0.240859
0.167562
-0.0200904
0.015257
-0.048751
0.254613
-0.205862
-0.0891397
0.0282785
0.0608611
-0.00501413
-0.0138666
0.0188807
0.0170222
-0.174847
0.157825
-0.159189
0.411669
-0.25248
-0.000324462
-0.00699043
0.00731489
-0.0462946
-0.0138738
0.0601684
0.225215
-0.136308
0.0968183
0.0199489
0.0439001
-0.281082
-0.0154516
0.000866411
0.0145852
0.324965
-0.172103
-0.062913
-0.0550808
0.473558
-0.224356
-0.249202
0.426863
0.170175
0.0656526
-0.0393326
0.0116351
0.289065
0.209137
-0.18143
0.0558982
-0.0048681
-0.00807984
0.0129479
-0.0509962
0.0658773
-0.0148811
-0.0428996
0.0102472
-0.130497
-0.217133
-0.00171689
0.00737299
0.115329
0.343214
-0.606389
0.207584
-0.229016
0.207863
-0.403583
0.298216
0.28657
-0.550471
0.263901
0.0399643
-0.0118416
-0.0281227
0.0489868
-0.0127184
-0.0362684
-0.275947
0.101275
-0.434827
0.534932
0.144166
0.0476944
0.0700659
0.26724
-0.00591388
0.00558942
-0.000997538
-0.0025871
0.000424034
-0.00334059
-0.178891
-0.0832175
-0.0851928
0.249403
0.266516
-0.0288367
-0.162969
0.0681197
-0.108004
-0.141837
0.369902
0.186225
-0.514847
-0.101321
0.0912227
0.0100985
-0.00519407
-0.00740195
0.122343
-0.0290841
-0.0117497
0.152246
-0.0215056
-0.13074
-0.40985
0.212907
0.158073
-0.00920186
-0.148872
0.118302
-0.0214839
0.0129656
-0.0137765
0.000810849
0.154045
-0.171693
0.0647026
0.00973969
-0.0744423
-0.117589
0.0370502
0.0617403
0.430441
0.0188346
0.0100076
-0.0288423
-0.0054705
0.0243051
0.0016968
0.00936524
-0.011062
-0.0695969
-0.0583902
0.0729021
-0.0145119
-0.0967447
0.1797
0.0588066
0.00424946
-0.019299
0.0866443
-0.0673452
-0.191704
0.177524
-0.582676
0.366686
-0.0401203
0.0384584
0.0016619
-0.234519
0.222718
0.0118009
-0.476006
0.316817
0.0357869
0.246725
-0.218159
-0.0163599
0.00248383
-0.105242
0.225001
-0.381883
0.156882
0.00755282
0.150521
-0.00238139
-0.00123003
-0.124365
-0.117304
0.241669
0.00214482
0.015059
0.0786647
-0.221577
0.142912
0.00359575
0.105059
-0.108654
0.000456878
0.00888486
-0.00934174
-0.289319
0.0794167
-0.0657607
-0.219821
0.114027
0.105795
0.176585
-0.159563
-0.0679851
0.0169889
-0.0211022
-0.100443
-0.0038434
0.104286
0.152357
0.0120486
-0.0169167
-0.159639
0.319608
-0.159968
0.00213095
-0.0147092
0.0125782
-0.0212314
-0.161528
0.00505192
-0.00162621
-0.00342571
-0.0131235
0.0121105
0.00101296
0.0129122
-0.0107813
0.000689476
0.129267
-0.129957
-0.144406
-0.155784
0.300189
0.119586
-0.298723
-0.324322
0.657688
-0.333365
-0.172835
0.419359
-0.109552
-0.309807
-0.00951794
-0.161882
-0.0128758
0.0218377
-0.154099
0.132261
-0.0548673
-0.119563
0.11861
-0.215354
-0.36698
0.236483
0.00177157
-0.187814
0.186042
-0.174405
0.168284
0.00612176
-0.148955
-0.149547
-0.123868
0.19008
0.0178546
0.00791642
-0.025771
-0.0163459
-0.0669395
0.0832853
0.0240423
0.166421
-0.190464
-0.137786
-0.00474916
0.142536
-0.031927
-0.00819325
0.228175
-0.0029842
-0.00219774
-0.558534
0.202346
0.142355
-0.000370752
-0.141984
-0.135352
0.208649
-0.190069
0.354344
-0.164276
0.111415
-0.139935
0.0285197
-0.158245
0.42443
-0.147863
0.372864
-0.0608288
0.105484
-0.0928944
0.281484
0.101655
0.0128022
-0.299822
0.152347
-0.0135471
0.000880735
0.0126663
-0.0814712
0.0923961
-0.0109248
0.00961546
-0.0932712
0.0836558
0.078767
-0.087879
0.134015
-0.326935
0.192919
0.00130658
-0.112948
0.106393
0.00655482
0.528009
0.00937522
-0.0220871
-0.206226
0.00115655
-0.00414075
0.209822
-0.208001
-0.00182087
-0.0660962
0.0685612
0.0241243
-0.00984039
0.000479918
-0.124664
0.0899346
0.0347296
0.123805
0.189803
-0.313608
-0.0396773
-0.0185632
0.0871243
0.0182496
-0.10788
-0.111941
0.322201
0.1606
-0.257841
0.386287
-0.128446
0.062167
0.0955066
0.255002
-0.305539
0.0505368
0.000355044
-0.00101002
0.00174424
0.278687
0.298487
-0.044605
-0.061122
-0.104066
0.0254394
0.0786264
-0.303636
0.149423
-0.0101935
0.0280481
-0.00930073
-0.00620709
0.106046
-0.0102721
-0.214614
0.165863
0.00998263
0.030385
0.150668
-0.16144
0.477766
-0.316326
0.00650692
-0.00564272
-0.130657
0.144786
0.375785
-0.259627
-0.116159
0.424428
-0.1803
-0.244128
-0.188736
0.170279
-0.16306
0.138642
0.0244176
0.0146865
-0.0207855
0.00148468
0.000329206
0.0203799
0.133097
-0.153477
0.0237532
-0.00443475
-0.0193184
0.0670429
-0.213389
0.146347
0.164391
0.159053
-0.323444
-0.0869157
0.04041
0.0465056
-0.23634
-0.215391
-0.0111785
-0.0781303
0.0893089
-0.398371
0.591726
-0.245594
-0.346132
0.129961
0.0795285
-0.209489
-0.0808948
0.00501542
-0.0196682
0.0146528
-0.0125572
-0.00289447
-0.0787775
0.0921903
-0.0134128
-0.000463898
-0.00291446
0.00337836
-0.00869222
0.0327188
-0.0240266
0.121511
0.0281155
-0.0912389
-0.208403
-0.149775
-0.150046
0.0185258
0.137691
0.497575
0.0361666
-0.533741
0.14608
-0.13578
0.0203667
-0.0334209
-0.0488389
-0.1136
0.542687
-0.104388
0.142351
-0.0379631
-0.00466831
-0.0992151
0.108681
-0.00946566
-0.00570463
-0.0107715
0.12348
-0.0996229
0.434339
-0.165576
0.0971338
-0.0918972
-0.00523656
0.0189916
0.179523
-0.00411536
-0.0128289
0.0274728
-0.30056
-0.32795
0.141113
0.234672
0.441343
-0.272672
-0.168671
0.219848
-0.0376167
0.0958298
-0.0927179
-0.00311193
-0.00861897
0.0352898
0.00525084
-0.0238136
0.0562103
0.110937
0.313496
-0.471741
0.0142792
0.0843684
0.22743
0.0916777
0.0161739
-0.0897522
-0.00121128
0.000457958
0.132136
-0.114383
0.00133271
0.00765192
0.00778614
-0.00366195
0.0020451
0.0181215
0.112268
-0.13039
-0.0240417
0.178087
-0.00945275
0.00773585
0.18679
-0.162748
0.075466
0.0905416
-0.166008
0.0869337
0.0323568
-0.0187636
0.334744
-0.143446
-0.191298
0.0478914
0.0179858
0.325359
-0.160968
-0.0374773
-0.0125057
0.049983
0.0039313
-0.374555
-0.183979
0.174354
0.147747
-0.0363314
0.105347
-0.00439261
0.179928
-0.140136
-0.0397914
-0.344208
0.551384
-0.207175
0.0280856
-0.206074
-0.174644
0.213793
-0.0391484
-0.11765
-0.116032
0.233683
0.019478
0.0470149
-0.0664929
0.279381
-0.458495
0.179114
0.0104713
-0.0567659
0.00991112
-0.00821432
0.178836
0.146523
-0.179871
0.155829
-0.027968
-0.135092
-0.487773
0.242712
0.031958
0.000324454
-0.00771446
0.00170657
0.0164185
0.00425803
-0.0206766
0.208917
0.243886
-0.452803
0.0265361
-0.209104
0.182568
0.0190481
0.172527
-0.191575
-0.221567
-0.0239461
0.245514
-0.0990612
0.02025
0.0788113
0.0264973
0.380895
-0.598506
0.217611
-0.0143148
0.11364
-0.0993255
-0.132392
-0.0456264
-0.0713952
0.0173263
0.0540689
0.150198
0.000255539
0.0389756
-0.21362
-0.221252
0.0529692
0.168283
0.0901527
0.116962
-0.0138892
-0.103073
0.116129
-0.23299
0.367259
-0.134269
0.00779132
-0.00567792
0.00169732
0.0039806
-0.045373
0.0299544
-0.00329577
0.00968367
-0.0487523
0.011275
0.00271656
0.00375486
0.00129706
0.366137
-0.192314
-0.173823
-0.337839
0.163629
0.181488
0.117256
-0.298744
-0.0164976
-0.0718039
-0.106257
-0.0374566
-0.113562
-0.0123306
0.0118232
0.000507477
-0.317711
0.158072
0.185269
0.336517
-0.521786
0.378884
-0.0157383
-0.0743851
0.300854
0.213834
0.132312
-0.209406
0.0770944
0.0985669
0.0921579
0.0746997
-0.0599746
-0.0147251
-0.110393
0.215336
-0.104943
-0.334724
-0.182173
-0.447895
0.257588
-0.141566
0.329249
-0.187682
0.18585
-0.620677
0.122964
-0.112799
-0.0101646
-0.0793775
-0.0196838
-0.0457032
0.121169
-0.0531911
0.00886778
0.0443233
-0.200695
0.346343
-0.145648
0.154457
0.00288932
-0.0226866
0.0176724
-0.0108805
0.000611633
0.073576
-0.000824341
-0.0727517
0.0643063
0.0421434
-0.10645
0.0576707
0.0339218
0.425643
-0.12649
0.1121
0.0143901
0.0214126
-0.242665
-0.424984
0.142371
-0.185032
0.196625
-0.0115934
0.00336774
0.111822
-0.28188
0.170058
0.11291
0.00405183
-0.0759386
0.0647601
0.296566
-0.192936
-0.303305
0.113236
-0.159178
0.126024
0.0331539
-0.000830607
0.366467
0.206011
-0.572478
0.0310342
0.0436655
-0.124838
0.306326
0.0743434
-0.090841
0.463273
-0.230566
-0.0979641
-0.177983
0.0720945
-0.064663
-0.0272979
0.0919609
0.0567724
0.228252
0.0172024
-0.083601
0.00320114
0.00295137
-0.0908975
-0.0290187
0.00773528
0.0212834
-0.344058
0.106256
0.000859261
0.0121064
-0.0832201
0.063921
-0.394238
0.299934
0.0943036
-0.0047593
-0.0871379
0.0248852
-0.105336
0.0779223
0.0274142
-0.22309
-0.192244
-0.114142
0.306386
0.43062
-0.441453
0.0108327
0.308333
0.253357
-0.0464127
-0.206945
-0.138116
0.142323
-0.00420649
-0.110943
-0.0148111
0.125754
-0.183977
0.307782
-0.21552
0.432096
-0.103956
0.0311475
-0.241513
0.41932
-0.177807
-0.0466074
0.0343349
0.0122725
-0.180629
0.0202009
0.000473956
0.00146563
-0.00193959
0.0685441
-0.0991953
0.250249
-0.473776
0.223527
0.0133286
0.24475
-0.532166
0.287415
0.188002
-0.0255714
0.112118
-0.127466
0.0153477
0.0899117
-0.0163357
0.13042
-0.129731
0.336091
-0.593516
0.257425
0.113518
-0.0257238
-0.0877033
0.0373734
0.05033
0.108063
-0.104468
0.0223166
-0.0998979
0.0775813
0.133995
-0.101079
-0.0329164
0.103556
-0.128438
-0.0785324
-0.041377
0.12815
-0.0033989
-0.124751
0.080421
-0.190814
0.224735
0.192164
0.0698107
-0.00415814
0.00348181
-0.0412949
0.213131
-0.171836
-0.425649