/*--------------------------------*- C++ -*----------------------------------*\
| =========                 |                                                 |
| \\      /  F ield         | OpenFOAM: The Open Source CFD Toolbox           |
|  \\    /   O peration     | Version:  v2012                                 |
|   \\  /    A nd           | Website:  www.openfoam.com                      |
|    \\/     M anipulation  |                                                 |
\*---------------------------------------------------------------------------*/
FoamFile
{
    version     2.0;
    format      ascii;
    class       volScalarField;
    location    "400";
    object      k_0;
}
// * * * * * * * * * * * * * * * * * * * * * * * * * * * * * * * * * * * * * //

dimensions      [0 2 -2 0 0 0 0];


internalField   nonuniform List<scalar> 
14033
(
0.000223121
0.0184687
0.000153448
0.000141145
0.000130603
0.000143599
0.00517627
0.000167126
0.000141109
0.0214068
0.000165424
0.000168864
0.000150281
0.000149917
0.000130069
0.000157343
0.000148593
0.0274563
0.000146465
0.000149058
0.00015464
0.000168898
0.000178006
0.000130563
0.000170281
0.000146221
0.000181985
0.000181107
0.000195292
0.000192772
0.000154589
0.00016568
0.000185522
0.000169103
0.000166744
0.000153588
0.0131581
0.0264088
0.00013163
0.000148536
0.0140897
0.000154374
0.000142526
0.00013623
0.000152149
0.000142281
0.0217056
0.000143584
0.000184473
0.00810102
0.000145492
0.000152755
0.0147147
0.0065815
0.000148621
0.000150304
0.000195262
0.0345167
0.000169857
0.000154335
0.000161704
0.00886924
0.000171347
0.000142216
0.000140643
0.000137866
0.00021004
0.000178432
0.000147604
0.000155323
0.000139842
0.000143554
0.0215767
0.000148308
0.000155141
0.000135585
0.000144127
0.000155906
0.0389915
0.000191026
0.000143572
0.0412889
0.0145907
0.000144397
0.000137147
0.000146771
0.000152888
0.00728794
0.0223864
0.000148928
0.000148919
0.000143344
0.000154721
6.904e-05
0.000149072
0.000202312
0.000145699
0.000158365
0.0164331
0.00014445
0.000138143
0.000143465
0.000146804
0.000150336
0.0220171
0.000183724
0.0214635
0.000144726
0.000177824
0.000154115
0.0209904
0.000169834
0.000141548
0.000200176
0.000165491
0.000144069
0.000192005
0.000131767
0.000161332
0.000185501
0.000141532
0.00016609
0.00626944
0.000152184
0.000123467
0.000154422
0.000136507
0.000196955
0.016448
0.000143875
0.0214437
0.000138592
0.000131148
0.0140677
0.0212935
0.000154659
0.000182353
0.000144396
0.000143926
0.000156721
0.000160631
0.000197297
0.000173876
0.000158147
0.000193725
0.000154969
0.00014147
0.000169889
0.0123058
0.00248082
0.000134143
0.000160045
0.000144206
0.000166892
0.000143438
0.0167068
0.000152159
0.000138842
0.000151437
0.000130244
0.000157524
0.000182579
0.0115373
0.000139607
0.000157795
0.00014735
0.000159358
0.000161741
0.0288319
0.00014546
0.000157554
0.000182863
0.000168986
0.00560277
0.000135545
0.000145206
0.000185965
0.0123234
0.000168497
0.000158088
0.000190515
0.0107048
0.000153474
0.000144204
0.000152844
0.0220138
0.0178752
0.000143997
0.0305691
0.021751
0.000202641
0.00015823
0.000165831
0.00014405
0.000117587
0.00997386
0.000170776
0.0166067
0.000141018
0.000154517
0.000148149
0.000157665
0.000143576
0.000188128
0.000159931
0.000145311
0.000165592
0.000194969
0.000154328
0.00205884
0.0134725
0.0001962
0.000210436
0.000131838
0.000131341
0.000157003
0.000143081
0.00212383
0.000159393
0.000173697
0.00015405
0.000142169
0.000141728
0.000152146
0.000142998
0.000139327
0.000176844
0.000157226
0.000140879
0.000139222
0.000134942
0.000183027
0.000144031
0.000131944
0.00259365
0.0173354
0.000184436
0.000138911
0.000140618
0.000140582
0.00737722
0.000155124
0.000142306
0.00013607
0.000157745
0.000138848
0.0247269
0.00448294
0.000151185
0.000142438
0.000143029
0.0120298
0.000138647
0.000212525
0.000140803
0.0174223
0.000140633
0.000146862
0.000138363
0.000205919
0.000150184
0.0207408
0.000191687
0.000173881
0.000152707
0.00124149
0.000143932
0.00019045
0.000914059
0.017473
0.000148413
0.0161671
0.000135115
0.000165764
0.000172032
0.000140509
0.000135261
0.000181428
0.000151277
6.13746e-05
0.000184893
0.000139777
0.0001398
0.000156014
0.029938
0.00368247
0.0218657
0.000138655
0.0394461
0.000204777
0.0001564
0.000168414
0.000172954
0.000143675
0.000144935
0.00014174
0.000142497
0.000140685
0.000140931
0.000151451
0.000142275
8.74869e-05
0.0174503
0.00014926
0.000171939
0.000226614
0.000145159
0.000143395
0.0239616
0.000147929
0.000180637
0.000140405
0.000184027
0.000174275
0.00019539
0.000104995
0.000153711
0.000164765
0.00016019
0.011651
0.0196183
0.00018182
0.000157557
0.000161921
0.000188544
0.0107143
0.000149439
0.000146518
0.0215894
0.000171086
0.000160202
0.0344768
0.0143341
0.000157566
0.000131001
0.0132087
0.000183097
0.000151476
0.0169746
0.00014811
0.0139922
0.00017538
0.000140407
0.000147955
8.53763e-05
0.000164815
0.000162806
0.000143219
0.0120169
0.00564082
0.000142652
0.000145999
0.022371
0.000171959
0.000147073
0.000131514
0.000145303
0.0166212
0.000143429
0.000150988
0.000147377
6.25573e-05
0.00695454
0.000156224
0.000151452
0.000174405
6.70465e-05
0.000136834
0.000150274
0.000140088
0.000141337
0.000139796
0.000167487
0.000143916
0.000180122
0.036362
0.000150224
0.000151103
0.00177351
0.000132012
0.000139187
0.000185539
0.000146858
0.000440285
0.0114631
0.00014191
0.0205218
0.000137993
0.000156436
0.000175714
0.000143303
0.0137962
0.000150714
0.000156916
0.000177879
0.0319881
0.000195572
0.00957488
0.000181873
0.000144044
0.000114894
0.0001472
0.000136615
0.000135418
0.000183531
0.000143028
0.000165372
0.000131595
0.000147147
0.000582917
0.017676
0.000191345
0.000154437
0.0317517
0.000139104
0.000147593
0.000151509
0.000145409
0.00014515
0.00618077
0.000161988
0.000153765
0.000163318
0.000144734
0.000144762
0.000144104
0.000166126
0.000130124
0.00016659
0.000152765
0.000166889
0.000148273
0.000156168
0.000144675
0.000160312
0.000146401
0.000152616
0.000143116
0.000183352
0.00319297
0.000196052
0.000138176
0.000145809
0.000162786
0.000157145
0.000143923
0.000162435
0.00786008
0.00296464
0.000143129
0.0245774
0.000141635
0.00015652
7.82735e-05
0.000167446
0.000189574
3.46224e-05
0.000142556
0.000129965
0.000162321
0.000148569
0.0211829
0.000146504
0.000192799
0.00013196
0.00014183
0.000462411
0.000158225
0.000138929
0.000182938
0.00015299
0.000167031
0.000145109
0.000144336
0.000169469
0.0106089
0.00015213
0.000190894
0.000156598
0.000399673
0.000147367
0.0229322
0.000144259
0.0126787
0.0221445
0.000141725
0.0196568
0.000144161
0.000176967
0.000139587
0.000146467
0.022656
0.0205425
0.000168811
0.000144741
0.00015005
0.000182494
0.0224533
0.000153852
0.000197859
0.000145319
0.000165061
0.000191895
0.00393145
0.000180565
0.000136674
0.000141559
0.00302123
0.000142464
0.000178982
0.000134628
0.000140826
0.0233998
0.000139167
0.000151996
0.000154066
0.000170757
0.000135322
0.0206555
0.0129607
0.000138814
0.000171784
0.000138532
0.0001472
0.000150235
0.000150144
0.000155847
0.000144114
0.000146291
0.000147406
0.0001586
0.000152394
0.0162104
0.000144815
0.000159571
0.000148774
0.000144624
0.000143393
0.000142792
0.000186619
0.000174931
0.000168084
0.000131076
0.000151016
0.000308597
0.000152587
0.000153622
0.000139382
0.000211089
0.000161352
0.000134143
0.0177344
0.000131086
0.000139703
0.000169168
0.000184525
0.000144489
0.000156634
0.000162697
0.0149506
0.000166549
0.0224137
0.000160081
0.000148389
0.000156593
0.000144095
0.000206159
0.000154538
0.00014828
0.000142862
0.000170448
0.00811939
0.000940327
0.00014358
0.0228539
0.00014277
0.0294211
0.0197589
0.000150783
0.0153399
0.000156618
0.000152207
0.000140214
0.00013642
0.000136128
0.000188782
0.000150394
0.000183541
0.000135467
0.000153057
0.0137966
0.000150679
0.000156977
0.000177556
0.000149074
0.000142702
0.000131679
0.00295256
0.000162553
0.000155511
0.000143025
0.000140673
0.00016147
0.0198639
0.000153802
0.00735826
0.0137098
0.0197435
0.000175654
0.000130265
0.000167568
0.000170021
0.000150056
0.000145012
0.0195499
0.000136466
0.00013619
0.000145878
0.0141022
0.0107684
0.012076
0.000142024
0.000151712
0.000154102
0.000139017
0.000161116
3.21721e-05
0.000173725
0.000175001
0.000164902
0.000133702
0.000147924
0.000134576
0.00019067
0.000151653
0.00620896
0.000131263
0.000151866
0.000182809
0.000135931
0.000178323
0.000144685
0.000156254
6.93824e-05
0.000183289
0.0197829
0.000176256
0.000145766
0.000139761
0.000146656
0.000155584
0.000172553
0.000148112
0.000152918
0.000163057
0.000144901
0.00014747
0.00014222
0.0153042
0.000138918
0.000131302
0.000140966
0.00365706
0.00820947
0.000148306
0.000115576
0.000169903
9.27409e-05
0.000134774
0.000140216
0.000160709
0.0310684
0.000179618
0.000151433
0.000146697
0.000143062
0.000142498
0.000130686
0.000175325
0.000145459
0.000138809
0.000146102
0.000130362
0.00130607
9.7831e-05
0.000139375
0.000145563
0.00162063
0.000182705
0.000139277
0.0247381
0.000170626
0.0119301
0.000165011
0.000186285
0.0111641
0.0114912
0.000191953
0.000137917
0.000135429
0.0171187
0.000170523
0.00017503
0.000148665
0.00015218
0.000147517
0.000143176
0.0155417
0.000159976
0.000162047
0.000205934
0.000142976
0.000147666
0.000137551
0.00013187
0.000162043
0.000156938
0.000150976
0.000141278
0.000154759
0.000143084
0.000186836
0.000164569
0.000137505
0.0122641
0.000158809
0.000187992
0.000162135
0.000139648
0.000144834
0.000143058
0.000189524
0.00015694
0.000167778
0.000148579
0.000164868
0.0147306
0.000142077
0.0147461
0.000172211
0.0168757
0.000152497
0.000144402
0.00213409
0.0123036
0.000148135
0.000143266
0.000134045
0.0140731
0.000181522
0.000173603
0.000140834
0.000141985
0.000148763
0.000173085
0.0102545
0.000143531
0.000172119
0.0242301
0.0157822
0.000137558
0.000184118
0.000192635
0.000157991
0.000140185
0.0001441
0.0200178
0.000143741
0.000148701
0.000173843
0.000142846
0.000137721
0.000158179
0.00123816
0.000169111
0.000159803
0.000188561
0.000174056
0.000171226
0.000148571
0.000152203
0.000147721
0.0105598
0.000173184
0.000142617
0.00013618
0.0162875
0.000138808
0.000169158
0.000165797
0.0161226
0.000189573
0.000140309
0.000184081
0.0161527
0.00015251
0.000185147
0.0300902
0.000187333
0.000189557
0.000175512
0.0118309
0.00015346
0.000193741
0.000183097
0.00737003
0.000142103
0.0158903
0.000160324
0.000148557
0.000150476
0.000148763
0.000145554
0.000172457
0.000151202
0.000139502
0.000147448
0.00017586
0.00672389
0.000176324
0.000170882
0.00015534
0.000138808
0.000144814
0.00011909
0.000167271
0.000159711
0.000138476
0.000152174
0.000185883
0.0001356
0.000171627
0.024
0.000143516
0.000158971
0.000178945
0.00525609
0.000135371
0.0134999
0.000131271
0.000155018
0.000131421
0.000145891
0.0151103
0.00017253
0.000160304
0.000148296
0.000140755
0.000146706
0.000135817
0.000150448
0.000141606
0.000151645
0.00581918
0.000131158
0.000152593
0.000147483
0.000150951
0.000135289
0.000177628
0.000147132
0.00013537
0.000144098
0.000178287
0.000148477
0.00266427
0.000147338
0.000180944
0.000150476
0.0155395
0.000149351
0.000135483
0.000143948
0.00823308
0.000148436
0.000160624
0.000187988
0.0177475
0.00120009
0.000193134
0.000142043
0.000164284
0.0195237
0.000169524
0.000157386
0.0097194
0.000144018
0.000131438
0.000135369
0.00014849
0.000145992
0.000155566
0.000144197
0.000149547
0.000166373
0.000144391
0.000155398
0.000144657
0.0181437
0.000131867
0.000146699
0.0237478
0.0133509
0.000160374
0.000144979
0.000130785
0.0221175
0.0214002
0.000153978
0.000144007
0.000146884
0.000142737
0.00381234
0.000156387
0.00015798
0.00016844
0.000175215
0.000145276
0.020841
0.000149548
0.000134051
0.000206737
0.000143529
0.000148118
0.00141767
0.000189792
0.000174281
0.000134863
0.000167821
0.000170801
0.000145774
0.000147314
0.0305373
0.000146542
0.000188263
0.000143857
0.000135593
0.000134114
0.000136171
0.000144179
0.00018432
0.00018049
0.0137638
0.000153163
0.000156706
0.000371083
0.000142859
0.00015897
0.000184137
0.000157866
0.000213448
0.000166454
0.000137953
0.000148086
0.000133404
0.00206104
0.000147829
0.000156989
0.0148515
0.000141594
0.0119779
0.000134055
0.000171631
0.00017225
0.000137705
0.0212413
0.0127631
0.000148114
0.000140744
0.000177133
0.00013935
0.000137877
0.000139279
0.00013411
0.000142883
0.0193832
0.0162631
0.000155862
0.0271609
0.00042152
0.000144089
0.0001505
0.000137536
0.000142261
0.000148
0.000144808
0.000172266
0.000144194
0.000154405
0.00177649
0.000157008
0.000146951
0.000146592
0.000146409
0.000155663
0.00014585
0.000175077
0.0118265
0.000147813
0.000139152
0.000137587
0.00017238
0.000144703
0.000133096
0.000162807
0.00400258
0.000478948
0.000141829
0.000147465
7.87138e-05
0.000190756
0.000190195
0.000172782
0.000145785
0.000142001
0.000147928
0.000133051
0.00015385
0.0158002
0.000137524
0.000155589
0.000182661
0.00018088
0.0209062
0.0256843
0.000149793
0.000133667
0.00016309
0.000146093
0.000208269
0.000190407
0.000146608
0.000185528
0.000142911
0.000138695
0.00140428
0.003555
0.000135531
0.000160134
0.000143654
0.000180986
0.000141215
0.00015529
0.000135586
0.000155549
5.96434e-05
0.000155246
9.36006e-05
0.000162429
0.000142382
0.00013547
0.000149907
0.0135577
0.000184012
0.000158376
0.000183644
0.000188645
0.000193591
0.000161939
0.000192036
6.96325e-05
0.000141685
0.000143713
0.00015824
0.000147514
0.00013804
0.000131846
0.000146734
0.0122566
0.0226175
0.0134788
0.000162299
0.000139297
0.0299155
0.000169523
0.000155771
0.00015886
0.000144641
0.000160005
0.000167373
0.000174072
0.000163682
0.000174884
0.0167956
0.00016153
0.000153071
0.000149621
0.000147607
0.000153247
0.000152955
0.000154766
0.000141878
0.000163703
0.00017972
0.000149943
0.000167852
0.000135071
0.000141766
0.019765
0.000156658
0.000145397
0.000135113
0.0158615
0.000146927
0.000184022
0.0164949
0.00015537
0.000152165
0.000153804
0.000179651
0.000169618
0.000204613
0.000173455
0.000181927
0.000156795
0.00019561
0.000180317
0.000320899
0.000167508
0.000156737
0.000145129
0.000712297
7.24937e-05
0.000169959
0.000142606
0.000131094
0.000130224
6.27118e-05
0.000139902
0.00492335
0.000110419
0.000134204
0.0177233
0.000137815
0.000153939
0.0183441
0.000159505
0.000135472
0.000143889
0.017553
0.000140902
0.000143517
0.000404049
0.000134275
0.000182521
0.000314438
0.00787223
0.000163562
0.000156495
0.000139072
0.000162103
0.000138765
0.000133869
0.0123806
0.000138801
0.00013638
0.000181279
0.000149308
0.0133089
0.00013225
0.000141343
0.000134825
0.000148791
0.000142684
0.0063047
0.000131199
0.000133597
0.000146468
0.0175272
0.000289828
0.00013536
0.00014474
0.000138243
0.000209193
0.000170858
0.00013761
0.000132102
0.00123875
0.014213
0.000185605
0.000166633
0.000160402
0.000166911
0.000139464
0.000145979
0.000133548
1.25792e-05
0.000138251
0.000173812
0.000865594
0.00016292
0.000139464
0.000159843
0.000173496
0.000138242
0.00014152
0.000153867
0.0134694
0.000152736
0.00014518
0.0196851
0.000157322
0.000189427
0.000138995
0.0225816
0.000132274
0.0152164
0.000235637
0.000138284
0.000154429
0.00708066
0.000139446
0.000207525
0.000145975
0.000156635
0.0285644
0.000137413
0.000138578
0.000141255
0.000174823
0.000572689
0.000180834
0.00734634
0.000154792
0.000159425
0.000156375
0.00899833
0.00641548
8.48758e-05
0.0162475
0.000152433
0.0273523
0.000147472
0.000146471
0.000136065
6.56318e-05
0.000155461
0.000152509
0.000116256
0.0311313
0.000158136
0.000139487
0.000141523
0.000151914
0.000172474
0.000150379
0.000131349
0.000134161
0.000138794
0.000157957
0.000139704
0.0169258
0.000137245
0.000155912
0.000165296
0.000144891
0.000161195
0.000141944
0.000159247
0.0192799
0.000133939
0.0121081
0.0199688
0.000149219
0.000161822
7.05317e-05
0.000149242
0.0145517
0.00794969
0.000178779
0.000189411
0.000166515
0.000170263
0.028713
0.00014942
0.000145246
0.000172796
0.000138977
0.0115992
0.000199421
0.000160044
0.000143977
0.000138794
0.000133887
0.000141535
0.00017156
0.0318049
0.000138268
0.000169169
0.00541632
0.000138543
0.000171878
0.000185694
0.000152273
0.0020577
0.00013411
0.000849506
0.000147079
0.000193626
0.0150802
0.0140854
0.000184718
0.000149651
0.000844174
0.000138903
8.76933e-05
0.000194133
0.000171751
0.0159397
0.000139052
0.0190237
0.000188658
0.000142536
0.000190269
0.000179364
0.000172144
0.000192273
0.00013648
0.000138544
0.000131325
0.000139113
0.00014104
0.000160379
0.000135472
0.000134573
0.0107854
0.000184117
0.00018781
0.000169318
0.000144946
0.000141869
0.000135768
0.000142641
0.000161149
0.000182616
0.000136649
0.000151023
0.0158111
0.000137068
0.00745915
0.0200623
0.000149645
0.00888801
0.000158787
0.000277103
0.000137255
0.000131128
0.000143132
0.0192409
0.000144179
0.000158295
0.000176646
0.00149616
0.000159852
0.0140668
0.000139618
0.00017974
0.000175588
0.000163565
0.000164226
0.000217812
0.000979021
0.000143849
0.0194655
0.000139092
0.000171827
0.0291855
0.00994542
0.000167501
0.000175797
0.000135436
0.000160721
0.000136028
0.000226368
0.000144394
0.000135293
0.0109983
0.00015531
0.000155056
0.000143813
0.000142409
0.000155186
0.000144668
0.0158631
0.0129003
0.00667418
0.000161244
0.00015214
0.000141689
0.000137217
0.00019024
0.000135287
0.000153148
0.000139394
0.000142128
0.000138801
0.000166938
0.000147807
0.000147552
0.000133294
0.000176281
0.000175894
0.0178363
0.00016376
0.0096921
0.000184433
0.000191087
0.000173968
0.00843368
0.000131802
0.000122308
0.000160887
0.00019112
0.000135775
0.000153555
0.000160722
0.000135525
0.000145769
0.000138412
0.0300164
0.000164985
0.0181418
0.012114
0.000182032
0.000158814
0.0116032
0.000143945
0.000189649
0.000175519
0.000271266
0.000143187
0.000156453
0.000147628
0.00018634
0.000141713
0.000187895
0.000135776
0.000202762
0.000135789
0.000206246
0.0191107
0.000149708
8.19628e-05
0.0139763
0.000145182
0.0274569
0.000173588
0.00014371
0.000148442
0.000160407
0.000130693
0.018524
0.0204654
0.000163523
0.000891523
0.00017355
0.000145694
0.000158625
0.000144218
0.000107623
0.000143662
0.0162688
0.000152394
0.000158607
0.000143537
0.00015641
0.000175104
0.0186378
0.0152847
0.000148253
0.000137826
0.0172273
0.000212097
0.000143858
0.0219165
0.000157828
0.0114452
5.34021e-05
0.000175022
0.00100928
0.000134245
0.000144486
0.00015861
0.00014798
0.0194541
0.000265269
0.000149143
0.0131766
0.000135058
0.000145804
0.000302071
0.00014379
0.000153208
0.000159864
0.0183997
4.43818e-05
0.000158516
0.000146281
0.012416
0.0198968
0.000145366
0.000177445
0.000139625
0.000135772
0.000171831
0.000149893
0.000152879
0.000124915
0.000152501
0.000183968
0.000144925
0.000158311
0.000185691
0.000158857
0.000165913
0.0317685
0.000173223
0.000185312
0.000142333
0.000165088
0.000187024
0.000144496
0.000147434
0.000134731
0.000144952
0.000159285
0.000147908
0.000148474
0.000135807
0.000148248
0.000140121
0.0138548
0.000133931
0.000168432
0.000173218
0.00013407
0.000137737
0.000186493
0.00016042
0.000189669
0.000166452
0.000174437
0.000147305
0.00549629
0.00372425
0.000134446
0.0172459
0.000152187
0.000148173
0.0210628
0.000145132
0.000744655
0.000192401
0.000149197
0.000184965
0.000169434
0.000147298
0.0001372
0.000132412
0.000136863
0.000148636
0.000147978
0.000188418
0.000146839
0.0214977
0.000142991
0.00274507
0.000185746
0.000167085
0.000147631
0.000191718
0.000134289
0.0170848
0.0207614
0.000157186
0.0199264
0.00014145
0.0267997
0.00745786
0.000171988
0.000166852
0.000143828
0.000156516
0.000146823
0.0145771
0.000154195
0.000145574
0.000204616
0.000142498
0.000136929
0.0209184
0.000135629
0.00013632
0.00014047
0.000145916
0.000173279
0.000163952
0.000152239
0.00591835
0.000148873
0.0206564
5.24658e-05
0.000157342
0.000542454
0.000147476
0.000190447
0.00457115
0.000140007
0.000149043
0.0169141
0.0206074
0.0213897
0.0298988
0.000142487
0.000133396
0.000142237
0.000184293
0.000155202
0.00018948
0.000142436
0.00014504
0.000141412
0.0205973
0.000152421
0.0158241
0.000156037
0.00874361
0.000141978
0.000170279
0.000147271
0.000147217
0.000131293
0.0197756
0.00014885
0.000144992
0.0141262
0.000150792
0.000151911
0.000135802
0.000157559
0.000183216
0.000608966
0.000144966
0.0151003
0.000157472
0.00014314
0.000143665
0.00014939
0.03853
0.000193779
0.000142593
0.000181404
8.47075e-05
0.00015289
0.0152523
0.000185928
0.0132648
0.00017111
0.000143274
0.000148474
0.000134324
0.000141867
0.00263628
6.55266e-05
0.000145113
0.00018049
0.000166078
0.000167672
0.0196046
0.000154546
0.00302891
0.00062842
0.000145642
0.0339496
0.000138729
0.00784317
0.000155462
0.000171541
4.35405e-05
0.0184501
0.000138787
0.000114571
0.00015118
0.000198333
0.000170221
0.000160959
0.00158543
0.00015065
0.000174526
0.00286095
0.00017602
0.000135849
0.00017295
0.00019661
0.00336839
0.000174316
0.000151894
0.000117019
0.000181139
0.000171034
0.000162582
0.000188137
0.000180745
0.00017367
0.000139109
0.000186089
0.000190448
0.000152724
0.000185563
0.000147307
0.000146876
0.00689379
0.000141167
0.000166362
0.0107545
0.00665424
0.000135591
0.0084977
0.00613132
0.00649622
0.000139113
0.000145424
0.000168677
0.000174478
0.000102848
0.000143217
0.0211436
0.000163968
0.000137193
0.000153978
0.00014397
0.00704868
0.000151667
0.000164662
0.00209505
0.000172399
0.000155687
0.0183189
0.000144702
0.000169226
0.0232064
0.000146039
0.000472708
0.000146815
0.000151286
0.000138032
0.000139105
0.000179247
0.000142878
0.000277789
0.00017854
0.0122561
0.000137168
0.000170647
0.0222018
0.000134337
0.000158742
0.000135668
0.000147384
0.000153817
0.000144507
0.000154268
0.00020358
0.00228372
0.0107006
0.000140187
0.000143706
0.000176038
0.000141044
0.00014034
0.000148026
0.000148178
0.000144801
0.000136233
0.000145056
0.000149191
0.0222786
0.000138612
0.000174775
0.000143729
0.0151662
0.00595275
0.000195807
0.000151495
0.000161671
0.000143913
0.0117781
0.000140941
0.0121911
0.000125617
0.000150603
0.000145517
0.000145968
0.00013413
0.000145748
0.00760581
6.6064e-05
0.00013881
0.00295456
0.000155687
0.0221573
0.000134537
0.021765
0.00128155
0.000167168
0.000136022
0.000148191
0.000146163
0.000149159
0.000154754
0.000135333
0.000163729
8.99603e-05
0.000149184
0.0206385
0.000141214
0.000135232
0.000153822
0.000147778
0.000126794
0.000164733
0.000145032
0.000212578
0.000170212
0.000156946
0.00128205
0.000150572
0.000169775
0.000143777
0.000143602
9.58638e-05
0.000144678
0.000980764
0.000162984
0.00017185
0.0295865
0.000421681
0.000148132
0.000157162
0.000154374
0.000145217
0.000137869
0.000135773
0.00225214
0.000189557
0.000149845
0.00014589
0.000133782
0.0028232
0.0082603
0.0235382
0.000144469
0.0206536
0.000116657
0.000181875
0.000143045
0.000189105
0.00910134
0.000191124
0.000161955
0.000144844
0.000179728
0.000132547
0.000138425
0.000174176
0.000192526
0.000169664
0.000142563
0.00062928
0.000156825
0.000142159
0.00014728
0.000143805
0.000152442
0.000170069
0.0198186
0.000144781
0.000167981
0.000162825
0.000136973
0.000136114
0.00147152
0.000155584
0.000143129
0.000148847
0.000148824
0.000154818
0.000133529
0.000146031
0.000192196
0.000143587
0.000147897
0.000145372
0.000135049
0.000179668
0.000153551
0.000149925
0.000188378
0.000153431
0.000139948
0.000144639
0.0186306
0.000122014
0.000140302
0.0116559
0.000167988
0.00417079
0.000171105
0.000135896
0.0001482
0.000147587
0.000148855
0.000152333
0.00986479
2.15355e-05
0.000172664
0.000163498
5.6729e-05
0.000151839
0.000159191
0.000145467
0.000160599
0.00882
0.000149975
0.000185475
0.000151732
0.000148683
0.000151194
0.000144309
0.00357794
0.000151979
0.00014529
0.00875302
0.0102727
0.000141315
0.000145883
0.000150091
0.000135297
0.000151543
0.00013359
0.000139836
6.83099e-05
0.000156576
0.000151339
0.000133682
0.000131708
0.000171087
0.0195584
0.0145761
0.00013386
0.0202683
0.000202887
0.00014963
0.0147056
0.000130873
0.000175198
0.00631447
0.00907864
0.000146206
0.0171695
0.0255676
0.000189753
0.00576788
0.000192985
0.000147539
0.000175525
0.000141394
0.000186384
0.0219134
0.0201018
0.000149469
0.000132702
0.0160844
0.0311194
0.000150925
0.000152562
0.000158701
0.000153513
0.000149299
0.00361961
0.000200321
0.000180959
0.000164032
0.00773192
0.000152804
0.0122562
0.000177375
0.000202989
0.000171322
0.000187049
0.000158531
0.012155
0.000147187
0.000154599
0.000156237
0.000160005
0.000191596
0.000138749
0.000147569
0.00014608
0.000166871
0.000154592
0.000161351
0.000150127
0.000158168
0.000847187
0.000119618
0.0177955
0.000135404
0.000157489
0.000147496
0.000161686
0.000162448
0.000145326
0.000186718
0.000136533
0.000152029
0.000151899
0.000137279
0.0191985
0.000144736
0.000142225
0.000134249
0.000147955
0.000148369
0.000140994
0.000163484
0.000145482
0.000155237
0.000153191
0.000143946
0.00531716
0.0115974
0.000142443
0.00763836
0.000129284
0.000145489
0.000181301
0.000207156
0.000142263
0.00163287
0.000141078
0.00320724
0.000145717
0.00633425
0.000157357
0.00016985
0.00317329
0.000139159
0.000205824
0.000134563
0.000140565
0.000150327
0.000160411
0.000146433
0.0109601
0.000153335
0.000169775
0.0147904
0.000142899
0.000141255
0.000149137
0.000142451
0.000144477
0.000169293
0.000177247
0.000183254
0.000152254
0.000145894
0.0175336
0.000151265
0.000559558
0.000189754
0.000145387
0.000161033
0.000172247
0.00014497
0.000154833
0.000184758
0.000184737
0.000130514
0.000165143
0.00630743
0.000167272
0.000150945
0.000134275
0.000140005
0.000147344
0.000160592
0.00952741
0.000146041
0.014841
0.000167926
0.000170788
0.0218048
0.000141626
0.00288546
0.000169517
0.00348476
0.000143608
0.0307168
0.000144616
0.000151636
0.0155298
0.000144192
0.0171905
0.000151256
0.000179674
0.0189238
0.000144697
0.000170181
0.000207173
0.000151066
0.000139119
0.000147464
0.0254608
0.0045912
0.0121995
0.000142462
0.000178282
0.000157068
0.000145009
0.000143087
0.000145884
0.000140875
0.000159756
0.00970152
0.000146997
0.000144692
0.00218718
0.0220843
0.000136669
0.000166308
0.000163838
0.000187786
0.014703
0.0001438
0.015659
0.0135448
0.000152056
0.000148921
0.000139266
0.000150837
0.000174099
0.015539
0.000150779
0.000180899
0.000173369
0.000176959
0.000144449
0.000144623
0.000143801
0.000173146
0.000405432
0.00995787
0.000141779
0.000133633
0.0135639
0.000134115
0.000137766
0.000148857
0.000155167
0.0142156
0.000144262
0.00689167
0.000181598
0.000146598
0.000214881
0.000147569
0.000167366
0.000155824
0.000160596
0.000162798
0.000164569
0.0204841
0.0116954
0.000152911
0.000174822
0.0179844
4.40498e-05
0.000159835
0.000167413
0.0176846
0.000173846
0.0203765
0.000146312
0.000144014
0.000143681
0.00014684
0.0169176
0.016086
0.000144039
0.0065788
0.000311066
0.00281924
0.000156195
0.000144066
0.000133949
0.000159082
0.000133152
0.00014143
0.000154878
0.000144863
0.00770791
0.0140096
0.000148789
0.000180082
0.000163107
0.00752398
0.000173364
0.0128241
0.000146325
0.000154638
0.000171976
0.000556891
0.000198622
0.000170142
0.000134349
0.00017824
0.000439165
0.000175732
0.0196442
0.000143201
0.00407528
0.000168098
0.000136306
0.000144992
0.00014475
0.00014375
0.00717629
0.000133671
0.000146813
0.00972975
0.0225938
0.000151893
0.000155398
0.000151299
0.00144606
0.000152923
0.000167274
0.00514922
0.000142825
0.0105668
0.000183652
0.0135241
0.00615977
0.0295684
0.000143748
0.000190644
0.000146859
0.0200242
0.000169977
0.000188643
0.0172365
0.000108956
0.000177639
0.0155352
0.0207336
0.000179567
0.0209332
0.00016292
0.000148202
0.000193253
0.00017686
0.000169778
0.000169071
0.000151336
0.00014562
0.000168731
0.000182809
0.0178925
0.000123834
0.000139336
0.000167678
0.000135795
0.000151915
0.000154733
0.00015406
0.00016396
0.000149937
0.000174818
0.000136046
0.000180158
0.000149739
0.000144858
0.000165625
0.000171342
0.000207985
0.000179196
0.0165619
0.000139775
0.0187242
0.00152787
0.000160736
0.000117676
0.000186336
0.000140251
0.000145596
0.0195454
0.000145536
0.000177796
0.0194664
0.00014514
0.000166492
0.005344
0.000145334
5.67159e-05
0.00015817
0.000146749
0.000183612
0.000152466
0.000195203
0.000144305
0.000168397
0.0408548
0.000149613
0.0189572
0.000174707
0.0149395
0.000182687
0.000191214
0.000181087
0.000148813
0.000135548
0.000142789
0.000148751
0.000143252
0.000171527
0.000141675
0.02929
0.000160475
0.000150456
0.000138623
0.000147252
0.000168223
0.000140132
0.000184396
0.000190481
0.000154387
0.000175931
0.000334862
0.000157134
0.000143735
0.000177207
0.0179033
0.0271825
0.000184977
0.000139394
0.000143509
0.000144248
0.0198197
0.000148262
0.0170901
0.00013767
0.000173724
0.0001573
0.000147209
0.000139411
0.00014823
0.000182204
0.00015469
0.000140273
0.000143291
0.000182624
2.90725e-05
0.000179472
0.000142402
0.0201244
0.000183776
0.000149976
0.000134079
0.000180903
0.0105671
0.00409203
0.000142202
0.0198763
0.000184424
0.000184512
0.000106294
0.000144923
0.000177433
0.000147812
0.000152866
0.000192761
0.000113894
0.000150594
0.000141286
0.000187409
0.000848806
0.000182204
0.0138947
0.000143664
0.000144233
0.000144013
0.000136719
0.000119047
0.000147603
0.0181831
0.000136451
0.000169206
0.000142188
0.00015012
0.00014366
0.000156714
0.0179316
0.00017515
0.0192112
0.0138897
0.000148084
0.000165191
0.0118538
0.0255391
3.54129e-05
0.000187722
0.000147719
0.00958279
0.00766926
0.000180947
0.000160991
0.00389927
9.55589e-05
0.0218544
0.000136441
0.000148349
0.000181209
0.00483722
0.000162143
0.000144001
0.0180069
0.000175351
0.02064
0.000161305
0.000182773
0.000174431
0.00016806
0.000145532
0.000192568
0.0197247
0.0178056
0.000144866
0.000191046
0.000163814
0.000159469
0.000148778
0.000149878
0.000168026
0.000176721
0.000179913
0.000178197
0.000181762
0.000183422
0.000185056
0.000154051
0.000181746
0.000141557
0.00017419
0.0205613
0.000157987
0.000163726
0.000140267
0.000156098
0.000144915
0.000167102
0.00429408
0.0272634
0.000180945
7.05554e-05
0.0197345
0.000179361
0.000177953
0.000219746
0.00385852
0.000182559
0.0179538
0.000142821
0.00014866
0.000161431
0.000163567
0.0063954
0.00014563
0.0001412
0.000168779
0.000144722
0.000181907
0.000142837
0.00453074
0.0193633
0.0164244
0.000154092
0.000170288
8.81061e-05
0.000151585
0.000145847
0.000144408
0.000172497
0.000147941
0.0170419
0.0155924
0.000144646
0.000188372
0.00015213
0.000148435
0.000186561
0.000156298
0.0178303
0.000148938
0.000178781
0.00014917
0.000179085
0.000138557
0.000179204
8.23779e-05
0.0180566
0.00964991
0.000140884
0.000187903
0.0192791
0.000180359
0.00018454
0.0191798