/*--------------------------------*- C++ -*----------------------------------*\
| =========                 |                                                 |
| \\      /  F ield         | OpenFOAM: The Open Source CFD Toolbox           |
|  \\    /   O peration     | Version:  v2012                                 |
|   \\  /    A nd           | Website:  www.openfoam.com                      |
|    \\/     M anipulation  |                                                 |
\*---------------------------------------------------------------------------*/
FoamFile
{
    version     2.0;
    format      ascii;
    class       volScalarField;
    location    "400";
    object      omega_0;
}
// * * * * * * * * * * * * * * * * * * * * * * * * * * * * * * * * * * * * * //

dimensions      [0 0 -1 0 0 0 0];


internalField   nonuniform List<scalar> 
14033
(
0.159507
1.73295
0.0222343
0.0209871
0.0195628
0.0213133
0.343583
0.0313302
0.0209814
2.43226
0.0254351
0.0383144
0.0222255
0.022139
0.0195093
0.0252999
0.021843
2.97613
0.021509
0.0219408
0.023856
0.0383046
0.0603893
0.0195563
0.0253457
0.0214768
0.0762656
0.0716726
0.160362
0.134183
0.0237154
0.0304436
0.0960942
0.0372651
0.160511
0.022683
2.74035
2.46311
0.0196667
0.0218295
2.25048
0.023723
0.0210806
0.0202828
0.0258671
0.0209821
3.25453
0.021308
0.0876009
2.56432
0.0214567
0.0227262
4.31173
2.22333
0.0218479
0.0222305
0.179192
2.6332
0.0383691
0.0235992
0.0230941
2.62881
0.0412344
0.0210672
0.0209786
0.0204068
0.143019
0.0638109
0.0226857
0.0240419
0.0208391
0.021321
3.23068
0.0218118
0.0241634
0.0201981
0.0213924
0.0243408
2.04767
0.12296
0.0216212
2.26532
4.18308
0.0212385
0.0204504
0.0217112
0.023204
2.34386
3.41855
0.0219156
0.022134
0.0215458
0.0244697
0.00966663
0.0214307
0.0630518
0.021472
0.0226879
2.68002
0.0214729
0.0204328
0.0212966
0.0214545
0.0227631
3.28203
0.0833888
3.4537
0.0212777
0.0617511
0.0226616
3.20657
0.0241518
0.0209812
0.0342183
0.0237721
0.0213894
0.132877
0.019648
0.109493
0.0949358
0.021098
0.0332642
1.85366
0.0229217
0.310368
0.0243784
0.0203148
0.0286589
4.13264
0.0213441
3.20399
0.0206381
0.0195963
2.97338
3.22869
0.0237328
0.07732
0.0214775
0.0213502
0.0256305
0.0273839
0.144454
0.0482462
0.0257373
0.148455
0.027386
0.0210864
0.0392363
2.73099
1.06947
0.0494404
0.0269198
0.0214765
0.030813
0.0212906
2.92
0.0235832
0.020602
0.0231808
0.0195299
0.0253495
0.0782786
2.84727
0.0207469
0.0254722
0.0218662
0.0263739
0.0287269
5.41077
0.0214007
0.02542
0.0792265
0.03857
23.7711
0.02019
0.0213772
0.0955214
4.40629
0.0376498
0.0257148
0.113103
6.51484
0.0232286
0.0215218
0.0225193
3.38192
2.92625
0.021365
5.12001
3.32903
0.203548
0.0256173
0.0300861
0.0213715
0.231017
2.12824
0.0402858
3.79742
0.0209691
0.022724
0.0218245
0.0252784
0.021357
0.119167
0.0267983
0.021589
0.0325956
0.178852
0.0237069
0.32119
5.61006
0.17611
0.215819
0.134896
0.0196511
0.0250705
0.0213
0.266956
0.0233982
0.0466124
0.0235723
0.0209685
0.0208955
0.0229041
0.0212769
0.0239107
0.0566198
0.0250593
0.0209563
0.0205351
0.0201814
0.0799814
0.0214
0.0196639
0.298933
2.91782
0.0873171
0.0204648
0.0209225
0.0208458
1.54097
0.0239469
0.0211401
0.0203242
0.0253494
0.0205014
3.65121
22.2491
0.0225987
0.024059
0.0212717
6.66906
0.0204395
0.217046
0.0209445
0.975661
0.0208448
0.0215668
0.020307
0.139669
0.0215708
2.71061
0.0462461
0.0471905
0.0229435
0.21623
0.0213895
0.119148
0.183616
3.5697
0.0218257
2.95779
0.0201569
0.0324064
0.134331
0.0209118
0.0202244
0.073227
0.0226294
0.191644
0.0888443
0.0207679
0.053647
0.024578
5.30809
1.49676
3.25017
0.020313
2.52414
0.20195
0.0254952
0.0374839
0.0457035
0.0706733
0.0213589
0.0209898
0.020962
0.0209333
0.0209066
0.0227363
0.020975
0.0666384
0.964067
0.0219823
0.0443182
0.103428
0.021484
0.0213394
3.66453
0.0217348
0.0706898
0.0208246
0.0849075
0.0496501
0.155274
0.0812955
0.0230011
0.0314424
0.0268743
7.83082
1.741
0.075103
0.0252271
0.0233594
0.061117
2.44303
0.0220207
0.0204222
3.35768
0.0409959
0.0269014
1.88238
3.38872
0.025323
0.0196394
2.9213
0.0802078
0.0227449
3.02483
0.0217742
4.61782
0.0534914
0.0208203
0.0217513
0.0579753
0.0248343
0.0296464
0.0212734
2.21494
0.350318
0.0210259
0.0214845
3.40654
0.0426127
0.0216158
0.0196599
0.0214966
2.76355
0.0220308
0.0229961
0.0216688
0.0144619
1.62013
0.0247444
0.0225011
0.0513473
0.0142793
0.0204529
0.0222042
0.0206564
0.0250577
0.0206138
0.0236481
0.0213443
0.0687403
2.08597
0.0221924
0.0224916
1.1061
0.0197784
0.020226
0.0615659
0.0215672
0.0915174
2.47313
0.021116
3.25208
0.0204529
0.024811
0.0534071
0.0213433
4.08997
0.0223635
0.0250289
0.0268761
1.66856
0.108764
9.30633
0.0723819
0.0213942
0.0819766
0.021618
0.0203085
0.0199275
0.0587577
0.0212779
0.0322538
0.0196593
0.0216071
1.04237
2.89349
0.12955
0.0226416
2.63789
0.0230263
0.021672
0.0133072
0.0215102
0.0213761
2.19083
0.0284945
0.0292817
0.0301086
0.0214812
0.0215276
0.0213977
0.0332622
0.0195165
0.0335416
0.0231553
0.0303345
0.0217823
0.0245068
0.0213667
0.0144688
0.0215053
0.0228948
0.0212635
0.076577
0.332419
0.14682
0.0204677
0.0214663
0.0229979
0.0252969
0.0214324
0.029344
2.65795
0.330992
0.0211297
3.70829
0.0206215
0.0229316
0.0277735
0.0236895
0.150355
0.0696048
0.0211599
0.0194943
0.0290801
0.0218371
3.19253
0.153524
0.162747
0.0197714
0.0211079
0.592576
0.023467
0.0204666
0.152976
0.0230298
0.034168
0.0213556
0.0214496
0.0255505
6.52136
0.0229312
0.153392
0.0248659
0.803287
0.0219176
3.60082
0.0214419
2.22127
3.34983
0.0209498
6.09158
0.0214595
0.0593516
0.0207421
0.021579
6.25691
5.01667
0.0382181
0.0212902
0.0221472
0.0776442
1.45509
0.0233811
0.0620479
0.0215017
0.0293669
0.161915
0.247068
0.0677973
0.02033
0.0209896
1.60816
0.0211528
0.064694
0.0200401
0.0209403
3.63378
0.0204925
0.0228854
0.0234666
0.0407484
0.0201654
0.907269
0.850981
0.0204951
0.0224298
0.0204584
0.0216172
0.0226572
0.0221723
0.0243213
0.0214238
0.0215637
0.0216461
0.0258494
0.0230212
2.80793
0.0212894
0.0231627
0.0219078
0.0212851
0.0212792
0.0211468
0.0997787
0.0505753
0.104498
0.0196496
0.0229691
0.0121903
0.0229039
0.0499559
0.0205407
0.206212
0.0277981
0.0206873
3.76316
0.019596
0.0205992
0.0315327
0.0876805
0.0212458
0.0247381
0.0295063
2.92006
0.0334175
3.37383
0.0272205
0.0218373
0.0248055
0.0214495
0.115942
0.02368
0.0219762
0.0211072
0.113874
2.9824
1.12546
0.0213271
5.21549
0.0211197
5.67682
3.48016
0.0223938
2.95994
0.0248224
0.0227722
0.020688
0.0202918
0.0202409
0.116559
0.0222478
0.0820795
0.0201968
0.0232869
1.74677
0.0223526
0.022605
0.0632698
0.0219689
0.021111
0.0196388
2.46365
0.023172
0.0241575
0.0212851
0.0208465
0.0278765
0.892894
0.0234642
16.8096
2.43048
3.03484
0.0551565
0.0522596
0.0308003
0.0322545
0.0221599
0.02135
0.867381
0.0203066
0.0197213
0.021432
3.35376
5.94979
4.91665
0.0211068
0.0227392
0.0236022
0.0204918
0.0282042
0.0318166
0.0459995
0.0512082
0.0319312
0.0200033
0.0232931
0.0201102
0.121207
0.0225905
1.51348
0.0196603
0.0226678
0.0787612
0.0202234
0.0626804
0.0213706
0.0216876
0.0886113
0.0816319
3.246
0.0569848
0.0216899
0.020763
0.0256062
0.0243763
0.0466538
0.0217812
0.0232403
0.0292128
0.0389848
0.02155
0.0211792
4.02531
0.0205051
0.0196449
0.0210122
1.16696
1.46265
0.0218133
0.245787
0.0232092
0.0745159
0.0216678
0.0208061
0.0237421
2.9605
0.0856387
0.0225263
0.0215495
0.0212866
0.0211038
0.0800981
0.0578061
0.0215305
0.171955
0.0476582
0.0195436
0.248436
0.132203
0.0203736
0.0215382
1.94221
0.0793387
0.0205332
3.67871
0.0382347
2.88591
0.0315076
0.0500786
2.80792
5.44023
0.135404
0.0205478
0.0201891
3.17998
0.0410365
0.0528213
0.0218511
0.0228097
0.0216618
0.0212907
0.861383
0.0268128
0.0283935
0.201029
0.0212688
0.0220274
0.0205089
0.0889043
0.0285806
0.0248724
0.02251
0.0210514
0.0239219
0.0247463
0.0918836
0.0315518
0.0205074
2.4024
0.0230232
0.0981447
0.0290761
0.020409
0.0214312
0.0212725
0.122655
0.0248506
0.0358878
0.0218679
0.0315488
1.94636
0.0211352
3.02166
0.0447882
2.74783
0.0228904
0.0243214
2.15871
4.22882
0.0217838
0.0242719
0.0200564
4.32546
0.445775
0.0478466
0.0206711
0.0211269
0.0218673
0.044452
6.8411
0.0212485
0.044783
3.62858
2.9169
0.0203799
0.077057
0.0615477
0.0254665
0.0206347
0.0214255
3.06498
0.0213516
0.0218567
0.0480621
0.0211014
0.019751
0.0255755
0.24304
0.0245143
0.0269219
0.130885
0.0956379
0.0207532
0.0219198
0.022825
0.021707
6.60055
0.0240615
0.0211106
0.0202652
3.02854
0.0205478
0.0315637
0.0241181
2.66474
0.109751
0.0236888
0.0811417
2.66835
0.0229274
0.0901073
4.24929
0.103696
0.121915
0.0537766
6.58024
0.0233164
0.137594
0.0760618
20.4405
0.0211616
2.99118
0.0270204
0.0218305
0.0222555
0.0219033
0.0213959
0.0442863
0.0224696
0.0206461
0.0216519
0.0516713
2.00896
0.0554577
0.022336
0.0225011
0.0205829
0.0214264
0.019101
0.0350837
0.0268651
0.020458
0.0227479
0.0960599
0.0201755
0.0398981
5.65381
0.021117
0.0226602
0.0584789
2.93853
0.0203714
2.96253
0.019648
0.0241564
0.0196368
0.0217054
2.68047
0.0446032
0.0273708
0.0217929
0.0209665
0.0215426
0.0201944
0.0222487
0.021105
0.0227407
2.2334
0.0196485
0.0229618
0.0216561
0.0223984
0.020091
0.0597518
0.0216057
0.111171
0.0214475
0.0612822
0.0218494
0.221616
0.0216356
0.0678346
0.0222565
2.68372
0.0219842
0.0202536
0.021406
1.96071
0.0218396
0.027467
0.112757
2.8295
1.73397
0.145321
0.0211527
0.0306728
3.01348
0.0386058
0.0253352
7.5807
0.0213639
0.0196431
0.0201739
0.0218428
0.0215001
0.0243059
0.0213927
0.0220486
0.0332794
0.0213579
0.0243711
0.0214116
2.88991
0.0197591
0.0215744
3.60373
5.73926
0.0245019
0.0214645
0.0195755
1.41112
3.49903
0.0234316
0.0214155
0.021578
0.0236
0.248241
0.0245791
0.025463
0.0362569
0.0249178
0.0213907
0.882686
0.0220865
0.0200471
0.205614
0.0276081
0.0217639
0.337518
0.125312
0.0531318
0.0208694
0.0213693
0.0410593
0.0217046
0.0216528
1.42157
0.0215475
0.108582
0.0211632
0.0210548
0.0200504
0.020348
0.0212087
0.0881275
0.0700904
5.09781
0.0231935
0.0247872
0.351701
0.0212192
0.0261201
0.0779543
0.0253951
0.191728
0.0337276
0.0205476
0.0217534
0.0198019
1.76417
0.0217232
0.0246399
2.79851
0.0208593
6.67588
0.0200533
0.0239964
0.0240561
0.0205393
3.60497
2.88114
0.0217622
0.0208607
0.0582371
0.0207358
0.0207897
0.0206739
0.0200564
0.0211181
2.15816
0.908515
0.0274925
3.58149
1.06459
0.0214028
0.0223133
0.020384
0.0211813
0.0217623
0.0214459
0.0431775
0.0214322
0.0236389
1.1944
0.0250944
0.0218313
0.0216947
0.0217008
0.0240349
0.0214302
0.051291
6.72131
0.021758
0.0206151
0.0205503
0.0240073
0.0213464
0.0199221
0.0290218
2.44949
1.04168
0.0211043
0.0213102
0.024657
0.122919
0.125167
0.0450513
0.0214834
0.020906
0.0217555
0.019915
0.0234417
2.539
0.0205421
0.0243065
0.0779749
0.0705087
3.46378
1.4533
0.022088
0.0209065
0.0298073
0.0215435
0.113047
0.12789
0.021696
0.0956873
0.0211241
0.0205937
1.44978
2.44485
0.0201391
0.0270645
0.0213377
0.0686659
0.0208103
0.024072
0.0208672
0.0241904
0.00466781
0.0242005
0.101882
0.0290697
0.0210563
0.0202521
0.0221787
3.93247
0.0930787
0.0258054
0.0830656
0.116819
0.155766
0.0286579
0.156836
0.010346
0.0210896
0.0213243
0.0255931
0.0216787
0.0204857
0.0197557
0.0215589
4.51842
3.32459
2.24765
0.0285933
0.0207388
3.96878
0.0381898
0.0243111
0.0260206
0.021408
0.0268944
0.034594
0.0483931
0.0314515
0.0507188
2.71739
0.0283689
0.0231152
0.0220493
0.0216752
0.0264995
0.0230377
0.0240605
0.0211158
0.0303406
0.0644073
0.0221458
0.0209438
0.020089
0.021098
3.0815
0.0247097
0.0213702
0.0200815
0.863147
0.0216781
0.0860101
2.71194
0.0241575
0.0228206
0.0236018
0.0647608
0.023538
0.16577
0.0484485
0.071375
0.0249994
0.163255
0.069371
0.346014
0.0349192
0.0249833
0.0214775
0.79275
0.0301087
0.0253892
0.0210806
0.01965
0.0195294
0.105609
0.0240803
2.69248
0.00580622
0.0200806
2.84289
0.0204607
0.0236577
3.24174
0.0263767
0.0201738
0.0213879
2.89042
0.0210005
0.0240522
0.893731
0.0200879
0.0787483
0.0927749
1.62865
0.0299606
0.0246576
0.0205904
0.0289516
0.0199922
0.0198787
4.28919
0.0205671
0.0202829
0.0606352
0.0221798
0.587157
0.0196904
0.0210169
0.0200575
0.0219757
0.0212061
2.75841
0.0196659
0.0199859
0.0217884
1.33883
0.663914
0.0202377
0.0214955
0.0206257
0.211045
0.0425739
0.0204483
0.0196784
0.353038
3.56377
0.0838338
0.0335568
0.0276319
0.0344433
0.0207431
0.0216042
0.0199779
0.0870906
0.0205644
0.0500368
0.15327
0.0295159
0.0206901
0.0267914
0.0477784
0.0204211
0.0209396
0.0236171
0.870882
0.0277634
0.0215479
3.55545
0.0253778
0.135752
0.0202695
3.32394
0.0197632
2.69015
0.0941833
0.0205702
0.0238818
2.83283
0.020736
0.190534
0.0215433
0.0230411
1.32472
0.0204307
0.0204974
0.0210327
0.0499223
0.22681
0.03923
1.07724
0.0238116
0.0264615
0.0247773
9.50364
1.92552
0.839154
1.2929
0.0228746
3.46209
0.0216633
0.0217207
0.0202656
0.0462991
0.0232086
0.0228583
0.0413756
1.81524
0.0255813
0.0206971
0.0202831
0.0226842
0.0411193
0.0223979
0.0196846
0.0200124
0.020561
0.0256833
0.0207154
2.88025
0.0204205
0.0244007
0.0239114
0.0214428
0.0279317
0.0209069
0.0262685
0.804806
0.0200286
0.561166
1.38313
0.0219568
0.0291937
0.0118225
0.0219822
2.49955
2.89957
0.0287193
0.138252
0.0333998
0.0407069
1.36798
0.0220095
0.0213659
0.0453665
0.0207027
2.63049
0.195844
0.0268849
0.0214148
0.0205244
0.0200199
0.0208432
0.0424665
1.84464
0.0205052
0.0249868
0.328712
0.0205393
0.0418746
0.0880127
0.0228115
0.397791
0.020062
1.59027
0.0215994
0.140338
2.53638
2.66359
0.0916654
0.02206
1.28718
0.020699
0.0255498
0.168209
0.0418035
3.42788
0.0206038
2.93489
0.0261789
0.0211885
0.120987
0.0279449
0.0432833
0.143781
0.0197402
0.0205244
0.0196115
0.322518
0.0207713
0.0274728
0.0256221
0.0206337
6.3202
0.0870609
0.0397415
0.0379548
0.021458
0.0210316
0.0201598
0.0211995
0.0282738
0.0735248
0.0203168
0.0224067
0.931504
0.0204039
0.724377
3.10917
0.0220771
1.91188
0.0260116
0.0214184
0.0203639
0.0196566
0.021284
2.54218
0.0212709
0.022564
0.0484802
0.780326
0.0268293
2.36888
0.026104
0.0638964
0.0537514
0.0303864
0.0307697
0.0569279
0.50747
0.0214191
3.47559
0.0196599
0.0367162
5.16141
8.12758
0.0348899
0.0537648
0.0198012
0.0275214
0.0201873
0.159854
0.0210415
0.0200969
2.66021
0.0240483
0.02416
0.0211572
0.0212078
0.023995
0.0252213
2.9972
2.38834
0.585325
0.0283484
0.0227852
0.0210685
0.020494
0.125278
0.020108
0.0231084
0.0207447
0.0209494
0.020552
0.0245258
0.0217116
0.0217044
0.0199393
0.0552912
0.0473347
0.931983
0.0304572
2.5371
0.0822519
0.161644
0.0489924
1.92682
0.0197463
0.242012
0.0280303
0.153079
0.0201754
0.0233143
0.0229576
0.0201337
0.0214148
0.0202247
1.30843
0.0247647
2.50626
5.72907
0.075423
0.0263139
8.47773
0.0211744
0.126609
0.0538586
0.0755612
0.0210725
0.0246207
0.0217116
0.0963855
0.0208675
0.112368
0.0202152
0.196579
0.0201814
0.209554
3.51033
0.0220714
0.00689877
3.40342
0.021513
4.50471
0.0472402
0.0213776
0.021811
0.0271606
0.0195651
3.46467
0.872199
0.0227599
1.65325
0.0432039
0.0214063
0.0275933
0.0213426
0.00955464
0.0213185
2.38721
0.0228343
0.0259019
0.0211183
0.0232202
0.0505025
0.780375
3.73841
0.0219599
0.0205741
4.01539
0.152418
0.0213964
3.48441
0.0256089
2.351
0.268069
0.0493075
1.26382
0.0200056
0.0213278
0.0258777
0.0217376
3.08662
1.22535
0.0219541
6.15348
0.0200709
0.0214624
0.962434
0.0214038
0.023221
0.0267809
0.88143
0.372957
0.0259027
0.0215595
2.84366
5.74606
0.0215196
0.057002
0.0206778
0.0202929
0.0426371
0.0221159
0.0230383
0.01194
0.0228857
0.0856725
0.0213622
0.0256693
0.0922274
0.0259937
0.0326068
3.58673
0.0377253
0.0923974
0.0210381
0.0253749
0.105001
0.0213588
0.0216781
0.0198001
0.0214775
0.0264058
0.0217235
0.0347405
0.0202232
0.0219146
0.020862
4.58868
0.0199816
0.0362958
0.0453702
0.0199897
0.0203565
0.0994143
0.0272976
0.148584
0.0332201
0.0500278
0.021654
2.2774
2.31169
0.0200288
3.21655
0.0227656
0.0217751
3.65059
0.0213342
0.189599
0.132493
0.0220726
0.108427
0.038353
0.0216519
0.0204886
0.0198162
0.0203975
0.0218637
0.0220599
0.114586
0.0215644
3.2469
0.0212661
0.317374
0.0933946
0.0344877
0.0217039
0.160261
0.0214734
3.34556
5.47505
0.0252618
3.34874
0.0209656
1.19273
17.1491
0.0423816
0.0304518
0.0213551
0.0112483
0.0215662
3.60398
0.0235365
0.0215152
0.150642
0.0211818
0.0203953
3.41686
0.0202121
0.0202042
0.0209438
0.0214478
0.0422424
0.0301725
0.0227834
0.346377
0.0219409
3.39638
0.627012
0.0234824
0.300154
0.0216784
0.123437
0.810554
0.0208507
0.0219295
3.44096
3.4381
3.30528
1.36169
0.0208342
0.0197962
0.0211422
0.077494
0.0242454
0.116904
0.0212082
0.0214526
0.0211669
3.51228
0.0228801
3.9635
0.02459
2.27968
0.0210354
0.0404741
0.021653
0.0216523
0.0196331
3.03778
0.0219349
0.0213398
2.45296
0.0223933
0.022667
0.0201471
0.0253773
0.719981
1.35341
0.0213383
3.27611
0.0251494
0.0212898
0.0213366
0.0223406
2.00993
0.1399
0.0210749
0.155701
0.117445
0.023091
2.75735
0.146666
2.45246
0.0405712
0.0210969
0.021849
0.0200277
0.0211426
1.93229
0.177079
0.0215136
0.0700894
0.0243734
0.0242491
3.59643
0.023694
0.317524
0.864026
0.0214621
1.88034
0.0206995
0.69705
0.0241542
0.0427702
0.106601
3.59013
0.0206871
0.187392
0.0219101
0.0916731
0.040239
0.0276032
0.635648
0.0223804
0.0447404
0.282312
0.0532186
0.0202021
0.0454586
0.181465
0.292468
0.0480092
0.0226721
0.0228563
0.072278
0.0418247
0.0246437
0.107524
0.0709307
0.0475325
0.0198538
0.0978246
0.146371
0.0229428
0.0929083
0.0218883
0.0218001
2.43807
0.0210042
0.0331354
8.81715
2.09448
0.0197841
1.8136
0.684904
2.20205
0.0206244
0.0213717
0.0370198
0.0300074
0.00602459
0.0210744
3.33221
0.0301029
0.0196538
0.0234342
0.0214055
1.95797
0.0227136
0.0316387
0.263739
0.0443573
0.024459
3.28568
0.0213385
0.0241434
3.73404
0.0215537
0.336599
0.0215598
0.0225023
0.0204796
0.0207156
0.041351
0.021032
0.0397637
0.0603334
3.00438
0.0204701
0.0408566
3.37953
0.0209494
0.0260185
0.0202817
0.0216778
0.0233669
0.0213939
0.0235611
0.462158
0.270252
6.38596
0.0208797
0.0214003
0.0223233
0.0209918
0.0208913
0.0217546
0.0217645
0.0212882
0.0202812
0.0214825
0.0220065
3.43907
0.0206655
0.0454886
0.0214739
3.63874
1.97846
0.176476
0.0225595
0.023088
0.0213961
1.31779
0.0210021
4.64336
0.00961707
0.0222889
0.0214455
0.0214508
0.0200047
0.0214129
2.62841
0.0885301
0.020698
2.1549
0.0242354
3.25998
0.0198155
6.00434
1.83904
0.034207
0.0202576
0.02177
0.125415
0.0229306
0.0239001
0.020235
0.0298629
0.00519608
0.02196
3.56089
0.0120947
0.0202003
0.0233811
0.0217086
0.0655339
0.0292579
0.0214766
0.147619
0.0403574
0.0248775
1.2925
0.0223255
0.0394309
0.0213472
0.0213341
0.0282688
0.0212972
0.240105
0.0307804
0.0423175
1.31354
0.666971
0.021783
0.0251563
0.0237066
0.0215195
0.0217714
0.0201651
0.265145
0.116749
0.0211292
0.0215227
0.0199673
0.272008
2.86395
5.93738
0.0213145
3.36084
0.0103885
0.0704271
0.0212265
0.11971
0.691687
0.0317962
0.0296482
0.0213022
0.0670461
0.0198518
0.0214304
0.0245884
0.456344
0.056975
0.0209915
1.5353
0.024912
0.021042
0.0216876
0.0214127
0.0226795
0.0394267
3.42996
0.0214399
0.036602
0.0301444
0.0204039
0.019595
1.95369
0.0224988
0.0210657
0.0220541
0.022451
0.0238221
0.0199472
0.0214615
0.140626
0.0211316
0.0217223
0.0213419
0.0200824
0.0597812
0.0233282
0.0223504
0.110976
0.0232238
0.0208411
0.0214458
2.95657
0.00530997
0.0208916
2.96021
0.0358352
0.282145
0.041169
0.0195914
0.0217676
0.0217034
0.0218925
0.0228184
3.05331
0.0772373
0.0439643
0.0298608
0.0311531
0.0227252
0.0262994
0.0213763
0.0272738
10.9283
0.0230147
0.0936213
0.0226131
0.0227026
0.0228314
0.0212377
0.277463
0.0226445
0.0206026
2.75701
2.59963
0.0209261
0.0215757
0.0225907
0.0201137
0.0227686
0.0199448
0.0208297
0.043569
0.0249703
0.023059
0.0198164
0.019736
0.0418472
3.34539
3.67312
0.0120922
3.08877
0.201607
0.0229887
3.35574
0.0195805
0.0518636
2.54098
2.87031
0.0215035
3.26899
1.14681
0.119566
3.63108
0.0485006
0.0217062
0.0228322
0.0210236
0.0278549
3.70118
3.51932
0.0220632
0.0198676
4.41975
5.03679
0.02189
0.0228799
0.0258788
0.0232438
0.0219752
0.34599
0.181301
0.0718909
0.0308611
2.52842
0.0229658
2.81289
0.0565339
0.194557
0.040965
0.105308
0.0258454
2.68075
0.021655
0.0229419
0.023138
0.023237
0.133514
0.0207054
0.0216798
0.0215321
0.0338405
0.0239575
0.0279547
0.0231247
0.0255681
0.158678
0.0189007
2.73294
0.00732122
0.0251758
0.0216786
0.0282615
0.0285282
0.0215686
0.102976
0.0203612
0.0227155
0.0228013
0.0204818
2.97959
0.0213848
0.0211473
0.0215609
0.0217292
0.021797
0.0209833
0.0299969
0.0213592
0.0240187
0.0231299
0.021397
0.348411
4.78732
0.0212239
2.20623
0.0636313
0.0215212
0.0733381
0.163731
0.0211492
0.802195
0.0217928
0.341204
0.0215118
0.662987
0.0272271
0.0278644
2.1832
0.020725
0.201309
0.0205205
0.020954
0.0222591
0.0271925
0.0215104
2.57542
0.0231795
0.0394453
2.64358
0.0210321
0.02105
0.0219418
0.0383827
0.0213229
0.0388075
0.0552577
0.0748034
0.0228576
0.0214721
8.45544
0.022534
1.11669
0.12479
0.0166184
0.0277155
0.0437863
0.0214827
0.0238843
0.0835287
0.0897885
0.0195565
0.0338454
0.351984
0.0346382
0.0223838
0.0200131
0.0210653
0.0216835
0.0142675
0.741386
0.0214514
2.82447
0.0345485
0.0249255
3.64592
0.0209765
2.30241
0.0378699
2.26034
0.0213429
4.98239
0.0214403
0.0226415
2.87801
0.0213368
2.85391
0.0225465
0.0629623
2.45588
0.0213341
0.0249367
0.15025
0.0224588
0.0200065
0.0217089
1.47985
1.91894
2.34852
0.0209737
0.0723555
0.0250296
0.021338
0.0212945
0.0215186
0.020971
0.0266063
2.36241
0.0215915
0.0214397
1.9044
3.33231
0.0203745
0.0334575
0.0248664
0.106692
2.88146
0.0213599
3.70128
6.69236
0.0227126
0.0218973
0.0207434
0.0223929
0.0274293
3.40573
0.0224835
0.0664609
0.0467214
0.0545209
0.0213778
0.0213934
0.0213873
0.0424246
1.2285
1.22872
0.0210178
0.0199363
4.86214
0.0198526
0.0205706
0.0218848
0.0240951
2.5949
0.0213044
2.60929
0.0214805
0.0215366
0.14105
0.0217157
0.0253238
0.024296
0.0273307
0.0292353
0.026201
3.10756
7.24171
0.0229992
0.0515159
3.13601
0.0659664
0.0268836
0.0349504
2.22441
0.0466659
3.16235
0.0215041
0.021321
0.0213773
0.0215817
3.47813
2.63105
0.0214244
2.40952
0.15659
2.15083
0.167279
0.0212012
0.0198476
0.0261881
0.019762
0.0209907
0.0231578
0.0214767
2.78908
3.42175
0.0218722
0.0689153
0.0293514
2.67934
0.0474299
3.04666
0.0215035
0.0239006
0.0271008
1.00268
0.104684
0.0396068
0.0198856
0.0245555
0.300764
0.0544471
3.07497
0.0213121
0.335627
0.0360251
0.020208
0.0215027
0.0213126
0.0213582
1.91821
0.019944
0.0215755
4.81541
3.69108
0.0226713
0.0230847
0.0225084
1.18188
0.0231099
0.0343852
0.345087
0.0212351
2.29189
0.0842743
2.61458
2.33989
1.98098
0.0211676
0.131502
0.0215674
3.05954
0.0399087
0.112612
3.0025
0.181041
0.0597914
3.37951
3.30322
0.0624398
3.27924
0.0294018
0.0217757
0.163039
0.0540957
0.039579
0.0377597
0.0225585
0.0213991
0.0366206
0.0246125
3.11088
0.111673
0.0205355
0.036063
0.0201525
0.0225848
0.0231773
0.0234711
0.0305473
0.0221214
0.0376828
0.0201802
0.067785
0.0225573
0.0213013
0.0321469
0.0419601
0.209315
0.0616429
3.16116
0.02082
3.3163
1.57365
0.0278377
0.109441
0.0957295
0.0861638
0.0213981
3.63459
0.0214434
0.0613382
3.05743
0.0213361
0.0260205
0.349273
0.0213661
0.15873
0.0256523
0.0215598
0.078458
0.0234794
0.169742
0.0213313
0.037313
2.49044
0.0220422
3.18759
0.0511051
4.07808
0.0720796
0.102868
0.066757
0.022078
0.0201247
0.021026
0.0218656
0.0212702
0.0427074
0.021109
1.9616
0.0277264
0.0222848
0.0206735
0.0216531
0.0362023
0.0208707
0.151616
0.0905751
0.023617
0.0546962
0.854832
0.0250973
0.021357
0.0602437
3.23351
4.87717
0.138079
0.0206582
0.0213424
0.0214444
3.3899
0.0218289
2.98963
0.0205593
0.0476971
0.0250856
0.0216542
0.0207897
0.0218115
0.0727429
0.0238849
0.0209139
0.0210955
0.0715532
0.433749
0.0619868
0.0212134
3.22515
0.079093
0.0228027
0.0199473
0.0662882
6.62503
1.58101
0.0211887
8.03083
0.0898526
0.0858214
0.00454004
0.0214203
0.0574587
0.021727
0.0230493
0.152913
0.290999
0.0228348
0.0210505
0.100572
1.35264
0.0723992
5.76831
0.0211366
0.0214587
0.0214242
0.0203835
0.0123818
0.0216833
3.27959
0.0203901
0.123966
0.0211229
0.0226768
0.0213257
0.0248765
3.17669
0.0522775
4.48087
4.80022
0.0217856
0.0322106
1.15844
1.22735
0.0139789
0.11054
0.0217333
2.56494
2.18654
0.0678818
0.0276607
2.47322
0.399268
5.21811
0.0203915
0.0217958
0.0736909
2.16647
0.0245051
0.0212992
3.60535
0.0528657
3.15142
0.027841
0.0810514
0.0414808
0.0791037
0.0213958
0.143234
3.11901
3.29391
0.0214586
0.129545
0.0324267
0.0265527
0.0218688
0.0221061
0.0253868
0.0572975
0.0679026
0.0620261
0.0746267
0.0815266
0.0888059
0.0235651
0.0717346
0.106936
0.0491497
3.48424
0.0902136
0.0248417
0.0208356
0.0245391
0.0214483
0.0250956
2.53253
2.48471
0.0677457
0.0196092
3.19876
0.0657816
0.0576121
0.151186
2.36381
0.0771692
3.1983
0.0211651
0.0218534
0.0280392
0.0299891
0.366148
0.0215566
0.0208071
0.0372886
0.0214459
0.0769573
0.0212017
1.57922
3.21643
3.50477
0.0234954
0.0398472
0.117166
0.022577
0.0214306
0.0213632
0.0445236
0.0217346
3.19831
3.28286
0.021428
0.115437
0.0228889
0.0221234
0.102273
0.0245755
3.2724
0.0219141
0.0635232
0.0219453
0.0651584
0.0206493
0.061506
0.0834048
3.62177
2.9132
0.0207779
0.104314
3.35369
0.0687279
0.0870035
2.9882
3.32297
3.85002
0.0578066
0.0213323
3.09927
0.0539658
0.0417691
3.31338
0.0189805
2.38627
2.14529
3.42747
0.715846
0.0235647
0.192526
0.997637
3.3425
0.0199365
0.0986723
2.34552
0.021832
0.0212582
0.0233272
3.13959
0.0203857
0.177748
0.0761156
2.29063
0.0251289
3.12567
23.4545
0.0259164
0.0210967
0.0211657
0.0217575
0.144836
0.0694245
3.3516
0.0219404
0.0774956
0.021765
0.128785
0.30052
0.0218123
0.110574
0.0447007
0.0223913
2.15847
0.129805
0.0219962
0.0223532
0.0252692
0.0679967
1.41651
0.594624
0.0222752
0.125423
0.117215
0.0784013
0.0843688
0.152826
7.68368
0.0360058
1.58896
0.0210002
0.0543829
0.0213416
0.0543123
0.359741
0.0251596
0.0238002
3.66061
3.18395
0.0199607
1.74321
0.0636876
0.127228
0.0316394
0.139259
0.0571237
0.0216853
0.0208085
0.0303605
0.108893
0.0217301
0.0217073
0.104113
0.0291719
0.0211228
0.0672872
0.0537322
0.022444
0.0399257
0.0295461
0.022801
0.0211792
3.08787
0.0209674
0.0240386
0.0236003
0.0207847
0.0336039
0.0287303
0.0219108
0.105353
0.0390384
0.0203931
0.0213532
0.0217056
0.154965
2.71148
0.0876112
0.0210435
0.0216821
2.21466
0.0217606
0.135783
0.0458167
0.0291129
0.0648761
0.0215379
0.0280301
3.56425
0.0832018
0.0209243
0.0501624
0.0271695
0.0217017
0.0210984
0.0217922
0.0256276
3.38352
0.021906
0.0201934
0.0335089
3.44571
3.30057
0.0215508
0.0199387
0.0219081
0.0210809
0.0219517
0.0598702
0.0213684
0.0222355
4.14047
0.0214998
0.204788
0.0232682
0.0215008
0.0984167
0.119621
0.0217029
0.0211805
0.0288728
0.63868
2.68787
0.0238512
0.023356
1.98881
0.0747954
0.0417646
0.0219633
0.022288
0.022681
1.73552
0.0240294
0.0211358
0.105756
0.0209774
1.19077
0.0229642
0.0214403
0.0215676
0.0206371
0.0351139
0.0197537
0.204913
0.0209291
0.289227
0.0229488
0.0290756
0.0212176
4.42129
0.0211449
0.0302902
3.37979
0.0344711
2.67561
0.074207
0.0210073
3.40097
0.069645
0.0196274
0.0261492
0.703674
3.23756
0.0403584
0.0359158
0.0248731
0.0215197
0.0271355
2.49364
0.0386199
0.51682
0.0309
0.67311
1.20673
2.50775
0.0451535
0.0213809
0.163544
0.0369661
0.0217501
0.0428815
0.197845
2.73704
0.0215282
0.0338225
0.121111
0.024889
0.0304869
0.136964
2.44642
0.0215362
0.133052
2.16132
3.42443
0.0422605
0.0206773
0.149099
0.0249696
0.020721
0.0232786
0.0234904
0.0919401
0.19207
0.310434
0.021461
0.0215505
0.0505129
0.0277885
0.0239204
0.0214831
0.0325613
1.3787
0.0215207
0.0847743
0.0213783
0.0209885
0.0281492
3.77135
0.0199535
0.0353405
0.0597326
3.40225
0.0261728
0.132559
0.0226877
0.0542746
0.0412856
0.0278802
1.40961
0.0213975
3.06524
0.0439493
0.0214268
0.036707
0.031866
3.92618
3.35726
0.0814675
3.15295
0.0205538
3.57589
0.0268609
3.33549
0.0227415
0.0587494
0.0234451
0.0212141
0.0470217
0.0214401
0.0281839
0.0215326
0.0640594
3.38684
3.45109
0.0213737
1.04555
0.0359571
0.0214944
0.0201681
0.0217057
0.0213605
0.021323
0.0213055
0.0700234
0.0676623
0.0210261
0.0213145
0.0770823
0.0215318
0.0207185
0.0212159
0.0844865
0.0924716
0.0288441
3.53392
0.0841196
0.0215695
3.6474
0.0225429
0.0212446
0.021379
0.0213503
2.31182
0.0238419
0.0214433
0.0947798
0.0211302
0.022446
0.0213585
0.198638
0.0213587
0.234974
0.0216783
0.721826
0.59246
0.00556007
0.0242259
0.167282
0.0213648
0.0222405
1.16515
1.53975
0.623342
0.0199649
0.0282444
3.08314
0.145619
0.0211696
0.0218181
0.0214102
0.0293726
2.52684
0.0218879
0.184822
0.10892
2.64019
0.0617618
0.0201859
0.026304
2.6214
0.0932147
0.731893
0.109918
4.31378
0.02101
0.0217598
0.0377719
0.0214656
0.0220293
0.187413
0.12873
0.0214394
0.0213508
0.0220384
0.0277365
0.0217241
0.0398766
0.119481
0.0227601
0.0636401
0.0261624
0.023418
0.0219138
0.0231559
0.0209249
3.35563
1.6655
0.0497571
0.0408421
0.0213583
6.93063
0.023319
0.0225409
0.0216295
3.51108
0.02536
0.0213333
0.0205766
0.0201884
0.0216195
0.0207306
0.0214291
0.038168
0.0214066
0.0463711
0.0213753
0.0500995
3.40835
0.0214768
0.0434383
0.0255057
0.0223213
0.0198733
0.0230765
0.0220624
0.030264
0.0223432
0.0265038
0.0225421
0.023524
3.27701
0.0141067
0.0213912
0.0562455
0.0227202
0.0825258
0.332624
0.02136
0.021452
0.0227731
0.0213833
0.0256349
2.45401
0.0203981
0.0242095
0.021371
2.07406
0.0215616
0.0260036
0.0222109
0.0220424
0.0223312
0.0225465
0.0380294
0.0217313
2.30454
0.0215426
0.021733
2.19184
0.0197397
0.0226433
0.0322643
2.78026
0.0306306
0.0338127
0.0243388
0.0279856
0.0354324
0.0214524
0.0213369
0.0209836
0.0211795
0.0214698
0.0215977
0.0224851
0.0206847
0.0199804
0.0199591
0.517854
0.0233273
0.0250409
2.40875
0.0353812
0.0214185
3.06444
0.0635792
0.0279134
0.0213495
0.0214683
0.0224866
0.0235492
0.0213868
0.0401011
0.02134
0.0573836
0.0358569
0.209684
0.0222165
0.00924452
0.0216781
0.0234927
0.998158
0.0216845
0.0233927
0.0270919
0.0368953
0.0214339
0.020259
0.0761807
0.0213179
0.187212
0.0215374
0.0468399
0.0213418
0.0302839
3.17039
2.73073
0.0326785
0.0149801
0.0409581
0.0262886
0.0213624
0.0214429
0.0238698
0.0213288
0.0227549
0.0226514
0.0213083
0.0199366
0.0216046
0.0199659
0.0351465
0.0481484
0.0533944
0.0211651
0.0249645
0.0225566
0.0325185
0.110026
0.0225074
0.0358156
0.0225625
0.0211779
0.0213233
0.0225405
0.0213411
0.0296324
0.0803471
0.0219934
0.0226287
3.8189
0.0247668
0.0199573
0.0197291
0.0213907
0.0208715
0.0225069
0.0197157
0.0280788
0.177181
0.0215153
0.0204491
0.100891
2.56535
0.0224702
0.0221718
0.0230196
0.190233
0.0216574
0.0244098
0.0210031
0.0224436
0.0214088
1.3358
0.0204874
0.0212718
0.0213095
0.0213775
0.0577457
0.0233829
0.0239097