/*--------------------------------*- C++ -*----------------------------------*\
| =========                 |                                                 |
| \\      /  F ield         | OpenFOAM: The Open Source CFD Toolbox           |
|  \\    /   O peration     | Version:  v2012                                 |
|   \\  /    A nd           | Website:  www.openfoam.com                      |
|    \\/     M anipulation  |                                                 |
\*---------------------------------------------------------------------------*/
FoamFile
{
    version     2.0;
    format      ascii;
    class       volScalarField;
    location    "400";
    object      p;
}
// * * * * * * * * * * * * * * * * * * * * * * * * * * * * * * * * * * * * * //

dimensions      [0 2 -2 0 0 0 0];


internalField   nonuniform List<scalar> 
14033
(
-0.0294302
0.0145625
0.000181566
-0.00011928
1.82609e-05
-0.00360222
-0.00466015
0.0054938
-4.74723e-05
0.0188291
0.000499438
-0.0386431
-0.00433153
-0.0042103
4.03849e-06
-0.0271553
-0.0109299
-0.00459697
-0.000234113
-0.0137906
-0.0238192
-0.0384283
-0.0368131
1.19463e-05
0.000730812
-0.000179155
-0.0466817
-0.0432987
-0.0545905
-0.0448328
-0.0148825
0.00530512
-0.0504808
-0.0119037
-0.00576204
0.000374188
-0.0756616
0.0194023
4.71344e-05
-0.00844151
-0.00310513
-0.0234146
0.00025474
0.000127768
-7.34658e-05
0.000242441
-0.0575648
-0.00352216
-0.0482466
-0.0726194
-0.00542784
0.000364789
-0.0850084
-0.0697826
-0.0112082
-0.0046507
-0.048201
0.0239384
-0.0118658
-0.0143808
0.000778902
-0.0731647
-0.0285812
0.000262857
0.000448148
0.00031136
-0.0270284
-0.0441121
0.000422409
-0.00789532
0.000455714
-0.0015373
-0.056906
-0.0122674
-0.0260277
0.000275117
-0.00448149
-0.007725
0.018151
-0.0455039
0.000226039
0.017928
-0.0856417
0.00114996
0.000226247
-0.00165804
0.00203415
-0.0695992
-0.0519215
-0.0135077
-0.00142653
0.000221148
0.00308034
-0.0567761
0.000348333
0.0108165
-0.00562306
0.000202741
-0.0802071
-0.000537156
0.000314998
-0.003396
0.000287748
0.00231029
-0.0559347
-0.047447
-0.0525092
0.00121255
-0.043585
0.000401896
-0.0613881
0.000369047
0.000240869
0.00317183
0.000371709
-0.00429311
-0.0473815
1.80096e-05
-0.0562522
-0.0500246
-0.0015582
-0.0345073
-0.0912135
0.00143898
-0.0604603
0.00297025
0.000328686
0.0015972
-0.0455671
-0.00405329
-0.0598961
0.00026709
7.50068e-06
-0.0702745
-0.0598992
-0.00846699
-0.0439974
0.000402678
-0.00420482
0.00298
-0.0157261
-0.0541835
-0.0400831
-0.0275452
-0.0519999
-2.5237e-05
-0.00148525
-0.0348639
-0.0750102
0.0117324
0.0121738
-0.015325
0.000426956
0.00549881
-0.00334128
-0.0789685
0.00244498
0.000600223
0.00237353
8.81016e-06
0.0017045
-0.0471517
-0.0709026
0.000706821
-0.0242868
-0.00167277
-0.0142833
-0.0322872
-0.0949121
-0.00198421
-0.027497
-0.0442391
-0.0383616
-0.1033
0.000269599
-0.0020385
-0.0494311
-0.0629878
-0.0378845
-0.0276829
-0.0266167
-0.0621959
-0.0145771
0.000337342
0.000408336
-0.0550515
-0.0767259
-0.00421475
-0.0999118
-0.0561548
-0.05973
-0.0140689
0.00539319
-0.00434693
-0.061598
0.0047608
-0.0285543
-0.0498899
-7.70941e-06
0.000315396
0.00117827
-0.0142685
0.000396172
-0.0285157
-0.0146216
0.000428511
-0.033898
-0.0486603
-0.0237387
0.000347221
-0.0453707
-0.0476785
-0.0547408
-0.0613957
4.93474e-05
0.00154566
0.000130179
-0.000766871
0.000443714
-0.00872557
-0.0233651
0.000399978
0.000412549
0.00162674
-0.00277978
-1.1683e-05
-0.0359328
-0.0151963
-2.33355e-05
0.00019752
0.000308665
-0.0471221
-0.00384287
2.92468e-05
-0.00179205
-0.0764987
-0.0485588
0.000174485
0.000117297
0.00078656
-0.0912131
-0.00842683
-0.000767149
0.000282111
-0.0149727
0.000178019
-0.0452822
-0.0886426
0.00161523
0.000534193
-0.00292585
-0.0489314
0.00018124
-0.0546221
4.54058e-05
0.0125743
0.000817885
-0.00130325
0.000141403
-0.0585993
9.36898e-06
-0.00448619
0.00321819
-0.00755312
-0.0158108
-0.000577479
-0.00370198
-0.0451098
-0.00100307
-0.050505
-0.0125293
-0.0743427
0.000124514
-0.0262875
-0.0629732
0.000119925
0.000309355
-0.043498
0.00178617
-0.0611357
-0.0483024
0.00071271
0.00441482
-0.0262147
-0.0999061
0.0144857
-0.0563411
0.000190541
0.0221956
-0.0602465
0.00308091
-0.0375876
-0.0393689
-0.00900712
-0.0022998
0.000298096
0.000377706
4.85549e-05
0.000286566
0.0025222
0.000389699
-0.0396221
0.0114849
-0.0139302
-0.00429232
-0.00161208
-0.00616713
0.000343066
-0.0452754
-0.00934974
-0.0437522
0.000791166
-0.0457179
-0.0406788
-0.055552
0.000225326
-0.00135614
-0.00619107
0.000599337
-0.0521054
0.0164213
-0.0463915
-0.0108116
0.000656624
0.0107173
-0.0730601
-0.0143687
0.000248056
-0.0552297
-0.0311591
0.000153911
0.00597302
-0.0893566
-0.0242897
6.46216e-05
-0.0711233
-0.0439942
0.00259133
-0.0725805
-0.0111739
-0.0485437
-0.0408394
0.000807913
-0.0108021
0.000433435
0.000633224
-0.0337794
-0.00312355
-0.00123613
-0.00479004
0.000354455
-0.00475477
-0.0506171
-0.0313864
0.00095319
4.6558e-05
-0.00639123
-0.0795241
0.000112689
0.00237187
0.00097066
-0.000305416
-0.0915788
0.00329183
-0.00169588
0.00183844
0.000588823
5.77478e-05
-0.0109402
0.000277817
4.87334e-05
0.00028121
0.00021535
-0.00408306
-0.0436752
0.00535171
-0.012008
-0.0192031
-0.00750233
0.000118003
0.000247954
0.00929194
-0.00150091
0.000221024
-0.0720749
-0.00149029
-0.0609157
0.000164886
-0.0265915
-0.0419246
0.000358932
-0.0515131
-0.0179343
0.00185684
0.00352015
0.00667449
-0.00633313
-0.0815349
-0.0378202
-0.00407294
0.00419943
-0.0011735
0.000313666
3.10619e-05
0.00826763
-0.00287274
-0.00416342
4.12751e-05
-0.00159126
-0.061478
-0.0781799
-0.0477298
0.000356793
0.0225482
0.000108678
-0.00370452
0.000273244
-0.00656554
-0.00224708
-0.0904024
-0.0157267
0.00448453
-0.0325029
-0.00143977
-0.0007392
-0.00425605
-0.00430521
1.01783e-05
-0.0255259
0.00187585
0.00557633
-0.00828364
-0.0136758
-0.0035633
0.000457617
0.000765962
-0.0102889
-0.00299656
-0.0129471
-0.00201193
-0.0590991
0.000159769
-0.00450662
0.000153221
0.00350976
0.000362254
-0.033464
-0.0702827
-0.00194356
0.000496334
-0.0436723
5.34237e-05
0.000303531
0.00232929
0.000237313
-0.0578705
0.00104221
-0.00146005
3.74613e-06
-0.0278582
-0.00824409
-0.0607315
-0.0552429
-0.0469699
0.000116067
-0.0014441
-0.0101531
0.000419495
0.000164228
-0.0610395
-0.010336
-0.0258176
0.0015305
-0.00342852
0.000474408
-0.0812609
0.0022076
-0.0465819
0.00172704
-0.064398
0.00162271
-0.0470693
-0.00326967
0.00405847
-0.0546159
0.000276164
-0.0882326
0.000386324
-0.0432485
0.000718381
-0.00830219
-0.0894128
-0.0969053
-0.0379056
0.00146705
-0.0118347
-0.0437572
0.0121864
-0.0147175
0.0117805
-0.00632763
0.00531586
-0.0584244
0.000693013
-0.0368349
0.000333326
-0.000552787
-0.00798043
-0.00145021
-0.0436453
0.000183082
-4.01006e-05
-0.045792
0.000186282
0.00203026
-0.00901333
-0.0355601
0.000259147
0.0092151
-0.00109248
0.000300706
0.00477815
0.000304472
-0.000951938
0.00239113
-0.0105109
-0.00614994
-0.00324195
-0.00798251
-0.00209977
-0.0131482
0.00193665
-0.0799657
0.00143966
0.000335947
-0.000991787
0.00139246
-0.00179148
-0.00170453
-0.049772
-0.00626212
-0.0633295
7.04348e-05
0.00248185
0.00298936
-0.0161234
0.0109859
0.000288108
-0.0536542
0.00107002
2.01294e-05
-0.0462018
1.19583e-05
0.000284495
0.0054317
-0.0470466
0.00137512
-0.0140952
-0.0320506
-0.0741093
-0.0106567
-0.0553159
-0.0256242
-0.0128137
-0.0236315
-0.00112477
-0.00451115
-0.0089503
-0.00154186
0.000461211
-0.0550066
-0.0503238
-0.0677836
-0.00178703
-0.0972337
5.69884e-05
-0.0965848
-0.0463936
-0.0185259
-0.0732983
-0.0236893
-0.00761216
0.000282393
0.000309196
0.00028297
-0.051593
-0.00623561
-0.0476505
0.00027965
0.00261359
0.0121659
-0.0176195
0.000196465
-0.00127491
-0.00134463
0.000152219
1.02667e-05
-0.0454082
0.000244202
-0.00578067
-0.00273039
0.00029159
0.00145156
0.00584767
-0.0233409
-0.0878546
-0.0741125
-0.0698226
-0.042391
0.00268842
0.00500875
0.00584629
-0.00628384
0.00144909
0.00376585
0.000321918
2.36815e-05
-0.000319169
-0.0807064
-0.055173
-0.0613759
-0.000268803
0.00119181
-0.0236847
1.95745e-05
-0.0318177
0.00166648
-0.0187974
-0.00515635
-0.0354125
0.000164538
0.000505711
0.000163947
-0.0457345
-0.00827772
-0.000975175
5.90077e-05
-0.00730454
-0.0462735
0.000279736
-0.043029
-0.00369506
0.000622819
-0.0469728
-0.0456152
-0.0614948
-0.0427394
-0.000585493
0.00072104
-5.84652e-05
-0.026683
-0.00354322
-0.0118801
0.00246118
0.00243576
0.0103332
0.000170147
-0.0020584
-0.0893032
0.000297911
4.36849e-05
0.00033301
-0.000298779
-0.0909
-0.0123843
-0.0624368
0.000118238
-0.00240364
-3.05975e-05
0.000319578
0.000258797
0.000555406
-0.000284789
-0.00785467
0.000782005
-0.00281564
-0.000117841
-0.0363925
-0.0021001
-0.00649034
-0.0604245
0.0055544
1.32076e-05
-0.000717844
-0.0579193
0.00021182
-0.00681694
-0.0458516
-0.0453147
0.000291874
-0.0423659
0.00395755
-0.0699635
-0.0254989
0.00456903
-0.0717186
-0.058
-0.047578
0.000539284
0.000275401
-0.0868187
-0.000401465
-0.0418571
-0.00905962
-0.0197416
-0.00476205
-0.00309398
-0.00343138
-0.00169402
0.00230657
-0.0598044
-0.002833
0.00036295
0.000509627
-0.0621168
-0.0165317
-0.0109498
-0.00154844
0.000425034
-0.0236429
0.0005303
-0.0258874
-0.0348977
0.000504496
-0.0688766
0.000340007
-0.0276676
-0.0328753
4.18477e-05
-0.00554586
-0.000342571
-0.0507958
9.5021e-05
-0.00394967
-0.0132788
-0.00545216
-0.00509937
-0.00163662
-0.0805658
-0.00484962
-0.0787932
-0.0178036
0.000639625
-0.0445525
-0.0711443
-0.000684246
-1.41495e-05
0.000235379
-0.05491
-0.0403575
-0.0050859
0.00024432
-0.00158103
-0.00760571
-0.019403
-0.0582598
0.000263699
0.00464541
-0.0457409
-0.0750244
0.000313453
0.000137465
0.0106098
-0.00513278
0.000236254
-0.00301836
-0.0679703
-0.000448753
-0.00883332
-0.0394033
0.000538911
4.76746e-05
-0.0133786
0.00130396
0.000539949
-0.0241111
-0.0544901
-0.002013
0.000436856
0.00137998
-0.0200299
-0.00918509
-0.0722525
0.000209802
-5.91503e-05
0.000298876
-0.0714592
0.000454099
0.00549894
0.000372858
-0.0812312
-0.00893177
9.71725e-05
-0.0138128
-0.0802293
-0.00147644
-0.0486588
-0.0991136
-0.0465712
-0.0532908
-0.0409449
-0.0525009
-0.0227029
-0.0448869
-0.0108894
-0.0899407
-0.00193292
-0.0796676
-0.00122097
-0.0073466
-0.0118034
-0.00125787
-0.000625254
-0.0384917
-0.0053876
6.32747e-05
-0.00188518
-0.0189802
0.000496047
-0.042278
0.000268182
0.000326525
0.000555017
-0.00544591
0.00443808
-0.00374319
-0.0252342
0.000310266
-0.0106845
-0.0102192
0.000252454
0.00397026
-0.0971917
0.0012249
0.000153809
0.00268999
-0.0926875
8.91988e-06
-0.0692357
4.95517e-05
0.00291907
3.35799e-05
-0.000426231
-0.08677
-0.0388971
-0.0248046
-0.0102631
0.000369333
-0.000111439
0.000257006
-0.0114288
0.000414797
0.0016929
-0.0909354
5.51954e-05
-0.00110251
-0.00449003
-0.00543331
0.000186977
-0.0428907
-0.00180158
0.00341307
-0.00129629
-0.0363115
-0.000947859
-0.000900173
-0.00351489
-0.0326522
-0.0112025
-0.0825992
-0.011765
0.000310244
-0.00301037
-0.09143
-0.0128736
-0.0184126
-0.0515316
-0.0787151
-0.0466513
-0.0491318
-0.0018715
-0.0254211
-0.0696426
-0.0339874
-0.0275301
-0.0607296
-0.00428333
3.65918e-05
0.000264521
-0.0129031
-0.00600152
-0.0232513
-0.00189876
-0.00438231
-0.0263723
-0.00388806
0.00282316
-0.00518658
-0.0773793
0.000113819
0.00150002
-0.046458
-0.0433947
0.000353518
-0.00591353
1.06392e-05
0.0060481
-0.0502295
-0.00948298
-0.0029104
-0.00470806
8.74519e-05
0.000604391
-0.00612578
-0.0112831
-0.0113437
-0.000106361
0.00152282
0.00949437
-0.000889407
0.000224057
-0.0557049
0.00449519
-0.00986187
0.00593045
-0.051353
-0.00243387
5.1863e-05
6.58461e-05
0.000156001
0.000101845
-0.00861669
0.0200768
0.0014675
-0.0464716
0.00128241
-1.45069e-06
0.000223774
3.38402e-05
0.00134657
-0.0489308
-0.0452409
-0.0476381
-0.0223813
-0.014758
-0.00967196
0.000275901
-0.00427609
-0.0252289
-0.00572222
-0.0616903
-0.0339078
0.000543576
-0.00786336
4.14716e-05
-0.0690024
-0.00086577
7.44538e-05
-0.0826608
0.000669314
-0.0478594
0.000230098
0.000238634
0.000209935
0.000140712
-0.0469122
-0.071952
-0.00967622
0.000796987
-0.0425132
0.000627903
0.000110736
0.000695381
0.000229346
0.000321143
-0.00315083
0.00161252
0.00455057
-0.0993719
-0.0674877
-0.0040368
-0.0180399
0.000319437
-0.00208566
-0.0113126
-0.00565147
-0.0305959
-0.00336998
-0.00572801
0.0119342
0.0036979
0.00150622
0.00160913
0.0014367
0.000177941
-0.000500234
-0.0414014
-0.0509943
0.0011561
0.00013215
0.000464184
0.000211972
-0.0025393
0.000168911
0.00199574
-0.0568955
-0.0567268
-0.000106412
5.60971e-06
0.00476535
-0.0449123
-0.0501996
-0.0385884
-0.00580345
0.000671129
-0.0115427
0.000164712
-0.00139896
-0.0880387
0.000459807
-0.0231272
-0.0444738
-0.0435363
-0.0517299
0.0109718
-0.0104097
0.000111412
-0.0284581
-0.00759521
-0.00537919
-0.0507835
0.00163898
-0.0474372
0.000250122
0.00059747
-0.0683399
-0.0576177
0.0002194
-0.019873
-0.00163653
-0.0341091
0.000282515
-0.0129782
1.1732e-05
-0.0127486
0.00430696
-0.0261695
-0.0473957
-0.0294484
0.000573075
0.000300744
-0.000708683
-0.081689
-0.00137614
-0.0252376
-0.0468344
-0.0496495
-0.0515593
-0.0293998
-0.0503564
0.000597381
-0.00130028
-0.00380235
-0.00105964
-0.00880269
0.000438035
0.000109012
-0.0046334
-0.0668243
-0.0533446
-0.0101522
0.00271616
0.000582467
-0.0991833
-0.00947944
-0.0138683
-0.0145365
-0.00510372
-0.00966377
-0.02434
-0.0407454
0.0044189
-0.0412021
-0.0796369
-0.0289164
-0.00210421
-0.0100328
-0.00401899
0.00591173
-0.0160326
0.00273997
0.000173262
-0.0278446
-0.0338792
-0.00391404
0.000257471
0.00020037
-0.00134802
-0.0696087
-0.00579121
0.000318689
1.55992e-05
-0.00208005
0.000310215
-0.0484567
-0.079236
1.7016e-05
-0.00105741
0.00318941
-0.0350633
-0.000107
-0.0610814
0.00168401
-0.0105367
-0.0265155
-0.049644
-0.0445033
0.000266493
-0.0100502
0.00358823
-0.00614368
-0.0575317
0.000406346
3.36903e-05
0.000515998
6.42531e-05
1.265e-05
-0.0548775
-1.4109e-05
-0.0501543
0.000871834
0.000249193
-0.078101
0.000417107
0.003272
-0.0610868
-0.000339334
0.000258544
-0.00351941
-0.076978
-0.000770977
-2.39774e-05
-0.0626372
0.00024917
-0.0473222
-0.000609056
-0.0911023
-0.0246635
-0.0128591
0.000526852
-0.0270501
3.03688e-05
4.62593e-05
-0.0688821
0.000512986
0.000302377
-0.00117573
0.00228365
0.00138662
3.70646e-05
-0.000344254
0.000186405
0.00154962
-0.00231139
-0.0545577
7.92574e-05
0.000195535
0.000405926
0.000813608
-0.0528155
0.000313979
-0.00369244
0.000420061
-0.0556098
-0.0032324
0.00041942
3.23443e-05
0.00074514
-0.0733818
-0.0266447
-0.0115522
-0.0312767
-0.034536
0.00066015
0.00133772
0.000190916
0.00382443
0.000570248
-0.00318191
0.00042883
-0.029901
0.000716236
-0.0102252
-0.00446439
0.000150808
0.000874068
0.00285424
-0.00120868
0.0014144
0.000370398
-0.0472305
0.00262554
-0.0553796
0.000191456
-0.0547809
1.38113e-05
-0.07866
0.000425873
0.000568294
0.00280049
-0.0533589
0.000672736
-0.0519809
0.00159247
0.000495605
0.00776859
0.00041101
0.000146608
-0.00116549
-0.0329956
0.00140702
0.00351254
0.00963051
-0.0060102
-0.00931007
-0.0262531
-0.0855917
-0.00430907
-0.0465301
0.00292842
-0.00277172
-0.0404807
-0.000801084
0.00139585
0.000307498
-0.00132734
-2.61864e-06
-0.0107191
0.0123009
0.00181508
-0.00916804
0.000721746
8.27567e-05
-0.00691767
0.00588983
0.000277763
7.88996e-05
0.000186333
0.000498131
-0.0297473
0.000742318
-0.0766049
0.000411793
0.000217273
0.000116529
-0.00572545
-0.0182955
0.000460726
-0.0135773
0.00783352
0.000214164
-3.62668e-05
0.00848216
-0.0113757
0.0040935
0.00263836
-0.00422848
-0.0510825
-0.0539941
0.00169974
-0.0562101
-0.0235817
-0.00390252
0.0103938
-0.00639396
-0.00092112
-0.0401564
0.000569228
-0.0759046
-0.054864
-0.00339012
-0.00270323
0.000189953
0.000209121
0.000463738
-0.037662
0.00251322
0.000447759
0.000496972
2.06777e-05
0.000485295
-0.0228944
-0.0383329
-0.0176103
0.003805
0.000235245
-0.0477354
-0.00362367
-0.0458062
-0.0859721
-0.0780411
-0.0472595
-0.0066808
-0.0630763
0.000543428
0.000609888
-0.0502274
-0.0187918
-0.0871146
0.000571814
-0.0892474
0.00306445
-0.00211496
-0.0472436
0.00690584
-0.0353257
-0.0498873
4.75681e-05
0.000444369
1.1133e-05
-0.0654907
0.000284517
-0.0254953
0.000770136
9.84434e-05
-0.0699005
-0.0464893
0.00686228
-0.0085846
-0.00589484
0.000161465
0.000224564
-0.00221868
-0.0325138
-0.000692209
0.000321309
-0.00789209
0.00849972
0.000402495
-0.000210062
-0.0676739
-0.00375761
-0.0911611
-0.00482858
0.00361407
0.0003228
7.5108e-05
-0.00306269
0.00573151
0.000180323
0.000145834
0.00800617
0.00941005
-0.0224346
-0.0436666
0.00107445
-0.0312696
-0.0414937
-0.0341749
-0.00687628
0.00413483
0.0152658
-0.00134494
-0.0501144
5.98312e-05
0.00331691
-0.0999817
-0.0843577
-0.0253119
-0.0419919
8.76171e-05
-0.0205182
0.000234175
-0.0356893
1.2803e-05
0.000192432
-0.0747719
-0.00449602
0.00204899
0.00128883
-0.00221992
-0.00495908
0.000683331
-0.0726901
-0.0667914
0.00449209
-0.0324746
-0.0191365
-0.00117793
0.000449796
-0.0535971
0.000203572
-0.0154242
0.000614446
0.000583324
0.000468115
0.000327735
-0.00778927
-0.0106611
0.000123125
-0.0422546
0.00735077
0.00642595
-0.0284477
-0.0747252
-0.0375556
-0.0585836
-0.0406993
0.0129659
9.42823e-05
-0.00550713
-0.0318939
-0.0459048
0.000241157
-0.00183893
0.000180348
0.00021386
0.000719968
0.000140623
0.0185714
-5.39751e-05
2.82676e-05
-0.0818535
-0.0444462
-0.0303183
-0.0433412
0.00131805
-0.0545711
-0.0402418
0.00147173
0.00116486
-0.0123274
0.000823025
-0.0467123
0.000587567
-0.0524378
0.000279484
-0.0593908
0.000246351
-0.0514195
-0.0484101
-0.0137124
0.000874369
-0.0858668
-0.00573962
-0.0947163
-0.0392712
-0.00287757
-0.00593306
-0.00233883
9.9034e-06
-0.0495659
0.00709944
1.45543e-05
-0.0528245
0.00607659
0.000324468
0.00130424
-0.00371392
0.000548214
-0.00193114
0.00745584
-0.00641329
-0.02001
0.00121571
0.000308683
-0.00717836
0.00740294
-0.0572703
-0.00189048
0.000427196
-0.0445336
-0.0528818
-0.002904
-0.0510197
-0.0297908
-0.0611534
0.00282975
-0.0196531
-0.0676515
0.000175089
-0.00240088
-0.00951768
-0.00839907
-0.0702101
-0.0447288
-0.0133976
-0.044366
0.000184884
-0.00426944
-0.0645263
-1.96519e-05
-0.0226749
-0.00394264
0.00132595
0.00034112
-0.025714
-0.00789561
-0.072795
-0.0913877
-0.00638919
-0.0299993
0.000686853
0.000311873
-0.0343731
-0.014152
-0.00252137
0.00547862
-0.0174408
-0.04615
-0.00249588
-0.00861587
-0.0451905
-0.001268
-0.0128864
-0.043108
0.00352019
-0.0486423
0.000745758
0.00256925
-0.0506332
-0.00370999
-0.00974636
3.483e-05
-0.00570895
-0.0223905
-0.00333347
0.00113667
0.000282894
0.00207546
0.000273103
-0.0495559
0.000172927
-0.0102697
-0.0311802
0.000171963
1.59243e-05
-0.0491746
-0.0231064
-0.0579482
-0.022802
-0.0400154
-0.00878415
-0.072006
-0.064182
0.000184359
-0.0621642
-0.0080725
-0.0105691
-0.0450346
0.00148053
0.00519299
-0.0450456
0.0017126
-0.0234871
-0.0322127
0.000809113
0.000447346
8.49463e-05
0.00041173
-0.0129179
-7.29955e-06
-0.0491205
-0.00211129
-0.0512911
-0.00291612
0.00134196
-0.0471547
0.0033982
-0.0101197
-0.0587086
-6.50473e-06
-0.0574053
-0.0953075
0.00243367
-0.0564657
0.000608916
0.00801519
-0.0848291
-0.0294842
0.00494785
-0.00397659
0.00015359
-0.00346772
-0.0668832
-0.0135182
0.00125457
-0.0503709
-0.00203617
0.000402839
-0.0539767
0.000282763
0.000227308
-0.00044618
-0.00177729
0.00648075
-0.000637874
-0.0158806
0.00151127
-0.000332817
-0.0469459
-0.0460105
2.98154e-05
0.0139038
-0.00930631
-0.0498519
0.0149721
0.000271106
-0.0128657
-0.0543742
-0.0458932
-0.0578938
0.0162025
8.82451e-05
6.66394e-05
-0.00159571
-0.0231202
0.00223962
-0.0446124
-0.00226143
-0.0059043
0.000109954
-0.0438564
-0.0196806
-0.0917684
-0.0265287
-0.0584166
0.00033011
-0.0378779
-0.00908574
-0.00948067
3.51425e-05
-0.0686575
-0.000536068
-0.000856756
-0.0574697
-0.0183984
-0.0102334
0.000205438
-0.0272045
-0.0476425
-0.0511298
0.00145775
-0.0742334
-0.00143003
-0.00300532
-0.00381497
0.00231631
0.0134057
-0.0452098
0.000593898
-0.0472488
0.00361137
-0.0223362
-0.0771821
-0.060802
-0.0753523
-0.0222247
0.00119337
-0.000721416
0.000190169
0.000416028
-0.0690658
-0.0455786
-0.00530955
-0.0434178
0.000418146
0.000615975
-0.0445635
-0.00522197
-0.00284357
-0.0508117
0.00159807
0.00406037
0.000422338
0.005011
-0.0134453
-0.038921
-0.0460073
-0.0450346
0.0005316
0.0105829
0.000169001
0.000132637
-0.0370412
-0.00304115
0.0137671
-0.00168345
0.00753801
-0.0029709
-0.00642811
0.000261999
-0.0390757
-0.0548751
-0.00390334
-0.0321888
-0.00832049
0.000971029
-0.046027
-0.0384535
-0.00171745
-0.0444755
-0.0459579
-0.0405925
4.88638e-05
-0.0496083
-0.0577476
-0.0143059
-0.0487762
0.00165576
0.00154708
-0.0728762
-0.000402251
-0.021158
-0.0439875
-0.0533301
0.000109279
0.011375
0.00367567
-0.090554
0.000619087
0.000447647
-0.0312896
0.00172637
-0.000165141
0.00115372
-0.0568118
0.00361349
1.74926e-05
-0.0143258
-0.00320946
-0.0920959
0.00132176
-0.0356281
-0.00186214
-0.039848
0.00219666
-0.0891905
-0.00215442
0.000301712
-0.044031
0.00162833
0.0162017
-0.00191367
-0.0164144
0.000426047
0.000582663
0.00184434
0.00110779
0.000894578
-0.0312459
-0.0629931
0.000468938
-0.0384744
-0.045983
5.15722e-05
-0.021813
0.000321921
-0.0100158
-0.0134786
-0.00486844
-0.00802455
-0.0508041
-0.00288818
-0.0677348
0.000129974
-0.00150775
0.0033816
-0.000383423
0.000178407
-0.0102941
-0.00627147
0.00141354
0.00031119
-0.0059518
-0.000805743
-0.0439565
0.000531074
0.00807293
0.000182953
-0.060831
-0.091505
-0.0495067
-0.00502759
0.000267472
-0.0032779
0.0119847
-0.000745553
-0.0648955
-0.000259868
-0.00828923
-0.00468136
0.00138296
0.000181351
0.000590617
-0.0930638
0.00083791
0.000412666
-0.0643163
-0.00519507
-0.0520489
3.43315e-05
-0.0856716
-0.0506219
-0.0218246
0.000301281
-0.00853553
-0.0455513
0.00115885
-0.0230835
0.000319681
0.0032649
-0.000334156
-0.0132864
-0.0478874
-0.000218056
0.000295461
-0.00593327
-0.008041
-0.0298177
0.00459856
-0.00594235
-0.0326877
-0.0374864
-0.00132595
-0.0606702
-0.017943
-0.0364323
-0.00392066
-0.00370331
-0.000819046
0.00138594
-0.00166122
0.0042179
-0.0305214
0.0127319
-0.06103
-0.0117847
-0.0259749
-0.0224325
-0.0056417
0.000270106
0.000230252
-0.00166083
-0.0476065
0.00029211
-0.00719579
0.000169293
-0.000823978
-0.0922575
-0.0939778
-0.00186183
-0.0480878
-0.000488311
-0.00882976
0.000315016
-0.0538811
0.00727071
0.00395839
0.00413669
0.000535292
-0.0451778
0.000148261
0.000236991
-0.000135971
-0.0470519
0.00360572
0.00105329
-0.0540062
-0.0232748
0.000485343
-0.0102673
-0.00149211
0.000411412
-0.0324049
-0.047475
-0.00560816
-0.03787
0.00437263
0.000411987
1.42111e-05
-0.0493983
0.000235712
0.00118092
0.00216114
0.000330391
-0.00429628
0.000166502
-0.0019467
-0.049337
0.00124626
-0.00359424
0.000168738
0.000194654
0.00364833
-0.00126491
-0.000904495
-0.0481346
-0.00565657
0.000313836
-0.00192068
-0.0741044
0.000741623
0.000125649
-0.0645451
-0.0310298
-0.000893058
-0.0319574
3.0803e-05
-0.00597717
-0.0103881
-0.0125678
-0.00682471
-0.0534346
-0.00212298
-0.00936409
-0.0239578
0.00398402
-0.000698692
-0.0205866
0.000692745
-0.00183918
-0.0825511
8.99318e-05
-0.0486969
-0.0109911
0.00108777
0.00128439
0.00132908
-0.000920455
-0.00180372
0.000328866
-0.0686228
-0.0748183
0.000821739
-0.00700424
0.00241322
0.000209218
0.000123115
0.000161183
0.000311688
0.00528782
0.00248194
0.00173689
6.61803e-05
9.91313e-05
-0.0380549
-0.0506979
-0.0631525
-0.000137006
-0.0658824
-0.0507351
0.00114798
-0.0911879
1.46086e-05
-0.0414893
-0.0691946
-0.0622842
-0.00480199
-0.0607012
0.00551583
-0.050015
-0.0920987
0.000486212
-0.0107173
0.00198384
-0.000420321
2.3655e-05
-0.044408
-0.0490168
-0.00114971
0.000118736
-0.0439365
-0.099463
0.000155793
-0.0134803
-0.000524514
-0.0129934
-0.00992837
-0.00338301
-0.062129
-0.0436375
-0.0331771
-0.0730544
-0.0139525
-0.0735065
-0.0287277
-0.0599135
-0.0196537
-0.0485021
-0.0194116
-0.0756704
-0.009716
0.000402052
0.000391765
0.000228332
-0.0489087
0.0002604
-0.00794203
-0.00726064
-0.0131863
0.00211738
-0.0153432
0.00122751
-0.000393208
-0.000473729
0.00525462
-0.0902067
-0.000178873
-0.00490404
-0.00915158
-0.006927
0.00309585
0.000328823
-0.0480406
0.000386738
-0.0153691
0.000904267
0.000478249
-0.0733587
-0.0043506
-0.00168173
-1.12976e-05
-0.00628913
-0.00683424
-0.000311644
-0.00451309
0.000186742
-0.0116502
-0.0158454
-0.0034629
0.00298488
-0.0593823
-0.00206982
-0.06069
0.000542574
-0.00159122
-0.0459733
-0.0552828
-0.00168978
0.0172466
0.000227167
-0.00315877
-0.00700176
0.00669675
0.000122466
0.00270228
-0.067717
0.000568116
-0.0606251
0.000130698
-0.000474838
-0.0174896
-0.00852349
0.000902853
-0.0758273
-0.0148853
-0.0379482
-0.0792856
0.00109544
-0.0011159
-0.00957311
0.00173094
-0.00221829
-0.0387825
0.0036481
0.000921509
-0.00074003
0.000312453
-0.0827458
-0.00125995
-0.0652867
-0.054588
0.000613096
-0.00658624
-0.0379097
-0.00568055
-0.000330482
-0.0342812
-0.0479727
1.59131e-05
0.00471708
0.00185221
-0.0300443
-0.00827896
0.000180167
0.000155002
-0.0103333
-0.000268777
-0.00160329
0.000607409
-0.0881754
0.00334628
0.000415216
-0.0455526
0.000672259
-0.0449141
-0.0209191
-0.0669434
-0.000686655
-0.099734
-0.00525437
-0.00133042
-0.0754291
-0.00357839
-0.077328
-0.00131557
-0.021585
0.0209065
-0.00196428
0.000394777
-0.0534197
-0.018368
7.28488e-05
-0.0106389
0.0139952
-0.0655742
-0.0579286
0.000902281
0.00103715
-0.02387
-0.000688381
-0.00273269
-0.00708748
-0.000292545
-0.00101991
-0.0656111
-0.00438107
-0.00544732
-0.0666627
-0.0481414
0.00039453
-0.00231669
-0.00179306
-0.0482758
-0.0746854
-0.00389906
-0.0927948
-0.0807778
-0.0110717
-0.0107002
0.000533811
-0.0178905
0.000193958
-0.0640535
0.00173102
-0.0119886
-0.0387156
-0.0168251
-0.00446066
-0.00466618
-0.00298363
0.0072958
-0.052089
0.00909933
0.000326888
0.000151341
-0.0505843
3.78383e-05
0.000479572
-0.00943989
0.000475143
-0.0794094
-0.00210265
-0.0683854
-9.98145e-05
-0.00307935
-0.0561561
0.00127644
-0.000511155
-0.0111622
-0.00787152
-0.0232339
0.00152983
-0.0643266
-0.046969
-0.00905733
-0.0413923
-0.063023
-0.000553034
-0.0236109
-0.0312879
0.0119795
-0.0298129
-0.0647464
-0.00338545
-0.00342727
-0.00270825
0.00119462
-0.0471406
-0.0816153
-0.00258259
-0.0720443
-0.00209872
-0.0606937
-0.0447407
0.00103179
7.51589e-05
-0.00841085
3.38289e-05
0.000252265
-0.000139311
-0.00540989
-0.0612521
-0.0809085
-0.00966221
-0.0452645
-0.000562919
-0.0675165
-0.0405005
-0.0615218
-0.0031592
-0.025462
0.00261728
-0.0600384
-0.00342678
-0.00700158
7.71437e-05
7.07432e-05
0.00789216
-0.0416261
-0.0637745
-0.00272126
0.00188771
-0.00779438
0.000232992
-0.00509706
-0.000638282
-0.00112919
0.0094339
0.000155686
0.00106897
-0.0873897
-0.0447845
-0.0145723
0.000454031
-0.0167448
-0.0636129
-0.0225861
-0.0226472
0.00172092
-0.00265523
-0.0519779
-0.0471949
-0.0782757
-0.0723087
0.000378286
0.000984787
-0.0564743
0.000202672
-0.0669502
-0.0377801
-0.050318
-0.0743839
0.00192
-0.0411607
-0.0658546
-0.058505
-0.0199142
-0.0592202
-0.00578113
-0.00323449
-0.0456185
-0.0153503
-0.0369395
-0.00706826
-0.00095081
-0.00010905
-0.0203054
-0.000125569
-0.0649081
0.00247791
0.000291428
-0.037116
0.000211575
0.000379748
-0.000960247
-0.0125964
-0.00528009
-0.0110695
0.00171805
0.000221758
-0.0423262
0.00222961
0.000641329
-0.0213435
-0.0370337
-0.0573821
-0.0116513
-0.0632237
0.000350076
-0.0571212
-0.0684588
-0.0293967
-0.0593701
-0.0449215
0.00245312
-0.000276709
-0.0431904
-0.00449249
-0.0433439
-0.0710024
0.000555426
6.82589e-05
0.00264297
-9.51348e-05
-0.0451399
-0.0217534
-0.00417994
-0.0342494
0.0018957
-0.0490355
-0.00311598
-0.037275
0.0219601
-0.0111981
-0.0648341
-0.0400646
-0.0542017
-0.0218159
-0.0208753
-0.0190569
0.00224465
0.000201744
0.00113351
-0.0103169
-0.00183914
-0.0385398
-0.00155591
0.00100782
-0.031975
-0.0171476
0.000498325
-0.00922504
-0.00856893
0.000179382
-0.0583265
-0.00386436
-0.00751689
-0.0419337
-0.0452002
-0.0225172
-0.00376902
-0.0434134
-0.0582081
-0.0970628
-0.0564567
0.000665676
-0.00318365
-0.00300503
-0.054361
0.000567212
-0.0760587
0.000473701
-0.0387501
-0.00995334
-0.00958072
7.94486e-06
-0.0123844
-0.0326197
0.000469069
-0.00025836
0.00121241
-0.0198898
-0.0659566
-0.0165751
0.000376316
-0.0625365
-0.00718247
0.00123493
0.000135234
-0.0173583
-0.0657881
0.000548948
-0.00199129
-0.0826379
-0.0475394
-0.0440673
-0.000361919
-0.00509284
-0.0324787
-0.0102174
-0.0015698
-0.0484987
-0.0593632
0.00237072
-0.00109424
-0.0220687
-0.0597689
-0.0310262
-0.0422751
0.00129315
-0.000237684
-0.00237625
0.000402692
0.00225346
-0.00747053
-0.0586306
0.000405139
-0.0583734
-0.00118273
0.0023082
-0.00376865
-0.0219782
-0.0614324
-0.0415506
-0.0954075
-0.0533246
-0.0119952
-0.0344645
-0.00167507
0.00388643
-0.000334712
-0.0495452
-0.0111275
-0.0890803
-0.0500771
-0.0295882
-0.0089463
-0.0523874
-0.0491285
-0.0855805
0.00040589
-0.00958761
-0.045832
-0.0715934
-0.00182988
0.000214896
-0.0483197
-0.0418174
-0.0641041
0.00255378
-0.0467226
0.00231825
0.00227858
-0.000804424
-0.0487857
-0.0679321
-0.0553147
-0.00570033
-0.0484171
0.00450564
-0.0178857
-0.0101126
-0.0113578
-0.000403597
-0.0425793
-0.0440468
-0.0433605
-0.0446192
-0.0451622
-0.0455149
-0.022604
-0.00606359
-0.00238956
-0.0409864
-0.0449877
0.00449227
-0.00161175
0.000660666
-0.0225089
-0.00579429
-0.000119934
-0.0604302
0.0149531
-0.0280023
-0.000234705
-0.064227
-0.0432898
-0.0144232
-0.0499705
-0.0660745
-0.0429991
-0.0597876
-0.00102209
-0.0110026
-0.00756618
-0.00861855
-0.00358431
-0.00637144
0.00069054
-0.0324995
-0.00546824
-0.0459672
-0.00204905
0.0108011
-0.0631855
-0.0456163
-0.00668569
-0.00777758
-0.0464517
-0.0143664
0.00126832
-0.00407618
-0.00681456
-0.00911333
-0.0616444
-0.0699517
-0.00537267
-0.052906
0.00110884
0.0020327
-0.0488576
-0.0149602
-0.0567847
-0.0131758
-0.0422021
-0.010656
-0.0428801
0.000567593
-0.0149171
-0.0479391
-0.0436498
-0.0608204
0.000324062
-0.0446
-0.0556351
-0.0434118
-0.0456446
-0.0736778
-0.0490908
-0.0450423
-0.0337327
-0.00369169
-0.0635625
-0.0300806
-0.0376133
-0.0579905
0.000211904
-0.0651695
0.0157907
-0.0528062
-0.0649624
-0.0221616
-0.0524184
0.0197214
-0.0678649
0.000145628
0.00393034
-0.0667681
-0.00973749
-0.00269242
-0.00639542
-0.0903985
0.000405709
-0.0628027
-0.0460806
-0.0432921
-0.000962157
-0.0611225
-0.0839581
-0.0248582
-0.000283565
0.00116628
-0.0115493
-0.0564018
-0.0451759
-0.0538529
-0.0136211
-0.00565219
-0.00923168
-0.0562021
0.00312551
-0.0124231
-0.00802521