/*--------------------------------*- C++ -*----------------------------------*\
| =========                 |                                                 |
| \\      /  F ield         | OpenFOAM: The Open Source CFD Toolbox           |
|  \\    /   O peration     | Version:  v2012                                 |
|   \\  /    A nd           | Website:  www.openfoam.com                      |
|    \\/     M anipulation  |                                                 |
\*---------------------------------------------------------------------------*/
FoamFile
{
    version     2.0;
    format      ascii;
    class       surfaceScalarField;
    location    "400";
    object      phi_0;
}
// * * * * * * * * * * * * * * * * * * * * * * * * * * * * * * * * * * * * * //

dimensions      [0 3 -1 0 0 0 0];
oriented        oriented;


internalField   nonuniform List<scalar> 
20823
(
0.126567
0.0301093
-0.156677
0.2739
-0.181311
-0.0925893
0.662312
-0.092222
-0.57009
0.601806
-0.120068
-0.481738
0.611853
-0.0525741
-0.559279
0.507279
-0.376834
-0.130446
-0.495429
0.341933
0.279878
0.105923
-0.385801
0.549364
0.0524411
0.136199
-0.00343132
-0.132767
0.629253
-0.560582
-0.0686713
-0.150403
0.150507
-0.000103651
0.208335
-0.340852
0.132517
-0.134631
0.342966
-0.725836
0.42199
0.303845
0.141844
-0.216955
0.0751115
-0.320195
0.205635
0.11456
-0.0380986
0.084823
-0.0467244
0.354999
0.00450083
-0.3595
-0.190441
0.313602
-0.123161
-0.109656
0.197576
-0.08792
-0.0119048
-0.138498
-0.022398
0.136093
-0.113695
0.0392696
0.572584
0.483884
0.145369
-0.0944636
0.449462
0.119501
-0.118813
-0.000688852
0.120164
0.107369
-0.128496
0.0211271
0.0183188
0.0873734
0.148347
-0.200464
0.0521169
0.389502
-0.109624
0.125661
-0.0953693
-0.0302922
-0.0192549
0.156163
-0.136908
-0.136056
0.198303
-0.062247
-0.535333
-0.0715621
0.606895
-0.0902603
0.0707574
0.0195028
0.154161
-0.0179621
-0.249373
0.691573
-0.4422
-0.0508748
0.303267
-0.252392
0.0752346
-0.128929
0.0536942
-0.226175
0.116519
0.790015
-0.406572
-0.383443
0.697093
-0.260354
-0.43674
0.751623
-0.337562
-0.414061
0.355669
0.434346
0.048164
-0.0441523
-0.0040117
0.409235
0.0980437
-0.154876
0.0904268
0.0644487
0.121635
-0.0740843
-0.0475506
-0.136178
-0.221961
0.358139
-0.00392277
-0.524071
0.527994
-0.0845685
0.024411
0.0601575
0.137801
-0.0952257
-0.0425753
-0.195662
-0.124532
-0.240381
-0.100471
0.0639127
-0.0943982
0.0304856
0.0654022
-0.134179
0.0687764
0.127776
-0.147031
-0.0574605
0.205808
-0.622564
0.494527
0.128036
0.0322675
0.0893673
-0.109223
-0.0385455
0.147769
-0.408053
-0.178414
0.586467
0.401296
-0.646472
0.245176
-0.47312
-0.0960532
0.569174
-0.0401939
0.166761
-0.0561227
0.103733
-0.0476108
0.598235
-0.490484
-0.107751
0.0438123
-0.242271
0.198458
0.459127
-0.66372
0.204592
-0.637184
0.274071
0.363113
0.0494003
-0.00123634
0.168359
0.167804
-0.336162
0.181133
0.0322844
0.606546
-0.171653
-0.434893
-0.0901739
-0.277325
0.367499
0.218541
-0.174729
-0.0663024
0.0941704
-0.0912569
0.0982005
-0.00694351
-0.769977
0.35784
0.412137
-0.0877248
0.0214224
-0.0434739
-0.0410946
-0.334502
-0.152505
0.487008
0.0404912
-0.531462
0.490971
0.46354
-0.66696
0.20342
-0.441255
0.33319
0.108065
0.0430995
0.0947015
-0.00695062
0.0444041
-0.0374535
0.06693
-0.257371
0.490836
-0.619944
0.129108
-0.414308
0.578094
-0.301663
-0.276431
0.00989176
0.0575603
-0.0674521
0.462712
0.135523
0.0869579
-0.323771
0.236813
-0.304753
0.168575
-0.0119996
0.674311
0.00430455
0.0709613
-0.0752659
-0.134504
-0.382249
0.516754
0.0722119
-0.545332
0.493162
-0.0839263
0.668542
-0.20583
0.0878251
0.348293
-0.436119
-0.00747753
0.0496656
-0.0421881
0.0860106
0.0338046
-0.119815
-0.0492511
0.0423005
-0.466107
0.131605
0.0701421
-0.126265
-0.703723
0.502639
0.201084
-0.0047489
-0.0421135
0.0468624
-0.590527
0.0372998
0.553228
-0.401878
0.442369
0.175076
0.298768
-0.473845
-0.590527
-0.375
0.284826
0.0947411
-0.0201435
-0.0745976
-0.124443
0.553925
-0.429482
-0.0780332
0.087925
0.0241069
0.101555
0.617359
-0.507058
-0.110301
0.117933
-0.148656
0.0307223
-0.00188249
-0.00145891
0.0033414
0.425453
-0.261669
-0.163784
0.000242685
0.0785579
-0.0788006
0.228941
0.349153
-0.515774
0.652091
-0.136317
0.46646
-0.291384
0.0030209
0.0244258
-0.0274467
-0.492162
0.299534
0.192628
0.0380128
0.0113875
-0.478744
-0.106258
0.585002
-0.327759
-0.262114
0.589873
0.0574255
0.0190692
-0.0764947
0.0477109
-0.00969804
0.0663604
-0.246621
0.180261
0.116083
-0.102028
-0.0140554
0.567876
-0.16658
-0.318524
-0.173638
-0.490587
0.172536
0.318051
0.0716407
0.102326
-0.173967
-0.0107295
0.0777727
-0.0670432
-0.0135812
-0.115094
0.128675
-0.224801
0.168498
0.0563028
0.134293
-0.0269248
0.327834
0.423789
0.611194
0.00616433
0.0130597
0.125249
-0.138309
-0.0579927
-0.118652
0.199546
-0.0808943
0.319629
-0.232671
0.208617
-0.136977
0.574366
-0.115238
0.286633
0.102869
0.354937
0.138225
0.00312362
0.0344771
-0.0376008
0.0153463
0.321762
-0.337109
-0.275385
-0.352502
0.627887
-0.388748
0.404095
-0.334106
-0.273967
0.608073
0.238274
0.0889403
-0.327214
0.113448
0.00605348
-0.0664357
0.0741738
-0.00773818
0.520452
-0.480831
-0.0396207
-0.165488
-0.0328415
0.198329
-0.255406
-0.332286
0.587692
-0.0859971
-0.124599
0.210597
-0.0249065
-0.127372
0.152278
0.0290459
-0.00208302
-0.0269629
-0.0359329
-0.313313
0.349246
0.171816
-0.0299717
0.0964519
0.0196313
0.109987
0.0405203
0.0303447
-0.00590445
-0.0244403
0.434895
0.171651
-0.362235
0.326302
-0.0769106
-0.0219596
0.0988702
-0.027043
4.95768e-05
0.0269934
0.138245
-0.0282589
-0.0763606
-0.14844
-0.122087
-0.0536704
0.175757
-0.0286755
0.00163252
0.0487766
-0.215812
0.167036
-0.0880638
-0.394931
0.482995
-0.506992
-0.196731
0.0503899
-0.0454536
-0.00493631
0.0665208
-0.0107398
-0.055781
-0.49057
0.331067
0.159503
0.0356301
-0.0273629
-0.00826721
-0.0496482
0.0421706
-0.0918241
0.00390931
0.0879148
-0.137315
0.235901
-0.0985861
0.382706
-0.0960739
-0.186268
-0.304302
0.0766976
-0.0866175
0.00991987
-0.0747389
-0.0737663
0.148505
0.0477804
-0.157004
0.033031
-0.00153908
-0.031492
0.324521
0.224843
-0.629656
0.131345
0.498311
0.053688
0.339017
-0.392705
-0.22705
0.0897353
-0.474721
0.494179
-0.0194581
-0.162281
0.12262
0.0931554
0.145382
-0.0274488
-0.00512577
0.0690384
-0.130768
-0.0954073
0.406169
-0.532608
0.12644
-0.0219489
0.0249697
-0.0438836
-0.0505146
-0.0724814
0.0787725
-0.00629112
0.0848436
-0.00814593
0.595853
-0.204541
-0.391312
0.324878
-0.086604
-0.257101
0.635486
-0.378385
-0.53893
0.0409065
0.498024
-0.616954
0.0816209
0.178372
-0.034756
-0.143616
-0.218011
0.0872433
-0.0519767
0.436699
-0.384723
0.426202
-0.478179
0.200601
0.224852
0.152675
-0.474436
0.321761
-0.674247
0.471712
0.202535
-0.135377
0.112979
0.144293
0.0763941
-0.220687
0.508293
-0.183772
-0.748172
0.284781
0.46339
-0.637343
0.474735
0.162608
-0.0169781
0.102989
0.309261
0.12316
-0.432421
-0.504458
0.380015
-0.14298
-0.39595
-0.00256852
0.0690893
-0.0745319
-0.0803436
0.736064
-0.318249
-0.417815
0.386284
-0.504567
0.118283
0.550072
-0.531748
-0.0183237
0.00327236
-0.17591
0.428128
0.186299
-0.614427
0.153539
-0.632282
-0.0827573
0.32978
0.406283
0.0358657
-0.0476787
0.011813
0.00855037
0.0217944
0.412793
-0.307907
-0.104886
-0.483718
0.617771
-0.134053
-0.0587389
-0.366576
0.425315
-0.027464
0.027578
-0.000113964
0.635378
-0.490487
-0.144891
0.00620846
-0.0786898
0.359447
0.148846
-0.228062
0.260137
-0.0320749
0.503003
0.0470687
-0.431261
0.139633
0.291628
-0.546212
0.670524
-0.124312
-0.132649
0.0252475
0.107401
0.566694
-0.50991
-0.0567838
0.0620001
-0.100099
0.457098
0.0532685
-0.510366
0.00555931
0.172813
-0.242653
0.058766
0.183887
0.588579
-0.547672
-0.148079
0.45734
-0.0879604
-0.00329652
0.0450838
0.543495
0.00373439
0.0292967
-0.0678907
0.236249
0.0629665
-0.0656351
0.00266864
0.18474
0.512354
0.0795907
0.093839
-0.17343
0.118032
-0.0460494
-0.0719823
0.511668
-0.125384
-0.301915
-0.335429
0.0231976
0.0969665
0.127802
0.284991
-0.121224
0.0268183
0.0944054
0.108654
-0.0748494
0.576852
-0.441346
-0.135506
0.308794
-0.202983
-0.10581
0.133196
-0.222206
0.0890095
-0.00216887
0.0377989
0.0661634
-0.184815
0.00551329
0.0891664
0.0982419
-0.0328397
-0.0920057
0.00018162
-0.261646
-0.11542
-0.0181225
0.133543
0.116899
-0.13048
-0.167835
0.0317783
0.0934002
-0.383758
0.290358
-0.0565106
-0.430412
0.486923
-0.0258776
0.434029
-0.408151
-0.14512
-0.452474
0.395964
0.413174
-0.239963
-0.173212
0.410822
0.110163
0.0183358
-0.128499
-0.226388
-0.168204
-0.0986277
0.266832
0.164247
-0.251423
0.0871755
0.595621
-0.550537
-0.265379
0.386605
-0.121225
-0.464735
0.376671
0.0452911
-0.00942542
-0.109284
-0.198781
0.308066
0.106272
0.0140752
-0.120347
0.631348
-0.128345
-0.130012
-0.00750134
0.137513
-0.139487
0.024393
-0.0851295
-0.0433662
0.0430566
0.552564
0.566741
-0.0759053
0.262012
-0.176557
-0.0854556
-0.325047
0.14777
0.177277
-0.025677
0.0305412
-0.00486415
0.116057
0.157843
0.0905396
-0.107518
-0.0536323
-0.180008
0.23364
-0.138978
-0.483586
0.314126
-0.059338
-0.254788
0.125566
-0.0824669
-0.255211
0.0870071
0.189483
0.479059
-0.0423687
-0.00727943
0.107472
-0.178634
0.0711614
-0.201916
-0.12313
-0.053769
0.102409
-0.0704381
-0.00133346
0.0717716
-0.0103673
-0.15512
-0.536751
-0.0119671
0.548719
-0.0695206
0.00308491
-0.111423
0.00939549
0.246454
0.16672
-0.068111
0.0631003
0.00501075
0.174172
-0.270737
0.0965656
-0.0264432
-0.00102082
0.121795
-0.110083
-0.0117125
0.146342
0.485006
-0.11446
0.288632
-0.405827
0.522674
-0.116848
-0.136146
0.620031
-0.058295
-0.058337
0.116632
0.335099
0.115663
-0.450762
0.134717
-0.0594827
-0.0954086
-0.400021
0.0495062
0.384523
0.31999
0.0246411
-0.344631
0.0399395
0.00446463
0.170946
-0.0634737
-0.334469
-0.0702919
0.404761
-0.611855
0.362482
-0.387575
0.122196
-0.0543066
-0.00391504
0.0582216
-0.484764
-0.300923
0.0632983
-0.397767
0.575994
-0.532937
0.00138987
0.111573
0.234157
-0.34573
0.550708
-0.0871687
0.135668
0.126904
-0.262572
0.0433073
0.532687
0.084631
0.513961
-0.598592
0.239185
-0.0348751
-0.20431
-0.057307
0.453048
-0.395741
-0.603591
0.467264
0.136327
-0.456888
0.399581
0.574032
-0.574032
-0.0165956
0.316129
0.10193
0.004342
-0.1134
0.0596314
-0.00485066
0.178957
-0.174106
0.134786
0.151869
-0.0837083
-0.078381
0.162089
0.416194
0.202581
-0.618775
-0.687456
0.521811
0.165645
-0.19998
0.279202
-0.0792228
-0.308421
-0.122839
0.120714
-0.52654
0.037422
0.0881444
0.292429
-0.425277
0.132848
0.0438968
-0.0486457
-0.671951
0.353702
0.205491
-0.0722948
-0.0836181
-0.0339507
0.117569
-0.415229
-0.0273921
0.00171507
0.26878
-0.222594
-0.0461857
0.189271
0.135607
0.473813
-0.0167147
-0.0511343
0.201493
-0.113467
-0.0880254
0.0399482
-0.0313979
-0.0236617
0.13384
-0.110179
0.105692
-0.40666
0.300968
-0.470287
0.342658
0.127629
0.417669
-0.278036
0.448971
-0.610011
0.16104
0.469601
-0.619715
0.150114
0.0525318
-0.252511
0.438272
-0.285596
-0.194161
0.266104
-0.0719428
0.552396
0.139177
-0.445316
0.136895
-0.0675995
0.0678422
-0.0445778
0.0477014
0.0946313
0.000109775
0.519164
0.122764
-0.641927
-0.0761318
-0.0580468
-0.131879
0.249282
-0.390781
0.141498
0.608848
-0.565541
0.33191
-0.0332565
-0.298654
-0.268835
0.00335301
-0.23538
0.10881
0.12657
-0.367595
-0.106824
0.47442
-0.0651182
-0.0816772
0.146795
-0.310625
-0.326558
0.533541
-0.105413
-0.269307
0.0312754
-0.225436
-0.303976
-0.421859
0.0571474
-0.167635
0.110488
-0.240655
0.261259
0.121447
0.261242
-0.312116
-0.0830628
-0.140285
0.223347
-0.43979
0.309525
0.130265
0.0333298
0.575518
-0.335639
0.43093
-0.095291
0.0506602
-0.225611
0.174951
0.432697
-0.0975979
-0.091569
0.174259
-0.0826901
0.614874
-0.374989
-0.239885
-0.0818854
-0.0507635
-0.400566
-0.271385
0.405568
-0.0855784
-0.594174
0.565563
0.0286108
0.36866
-0.257088
0.543243
-0.547166
-0.168547
0.110252
0.00420925
-0.0745188
0.0703095
0.355274
0.2596
0.336851
0.152146
-0.488997
0.0457898
-0.00336049
0.634373
-0.48907
-0.145303
-0.417523
-0.212134
-0.328
0.485804
-0.157804
-0.625966
0.625966
-0.0930616
0.0935871
-0.000525425
0.125073
-0.453073
0.0820643
0.258983
-0.341047
-0.185945
-0.00535669
0.164769
-0.159413
0.279599
0.0236686
0.00559742
-0.129512
0.143518
-0.0140067
-0.0718461
0.0630695
0.00877661
0.546157
-0.129963
0.444363
-0.151934
0.0779787
-0.161687
-0.597372
0.0733006
0.105953
-0.59644
-0.0959762
-0.177719
0.228379
0.136202
-0.0790541
-0.0775039
0.440338
-0.362834
0.262792
-0.456752
0.19396
-0.527252
0.00743715
0.0325111
-0.42301
0.129083
0.293928
3.15303e-05
-0.0718776
0.283133
-0.0938619
0.120552
-0.0937336
-0.575527
0.431779
0.143748
-0.0416373
-0.00626744
0.0479047
0.464811
-0.202019
0.0599784
0.00802115
0.133812
-0.541865
0.0574017
-0.0329907
0.392881
-0.464443
-0.0363884
0.106531
0.506398
0.0140539
0.219172
0.12515
-0.344321
0.0542606
0.00314113
0.0629379
-0.0535337
-0.00940423
0.0228251
0.365115
-0.442619
0.219287
-0.224138
-0.0882257
0.27801
-0.0272113
-0.250799
0.213247
-0.16447
0.24478
0.0693453
-0.055665
-0.123587
0.384846
-0.0891523
-0.371709
0.580461
-0.208752
0.0998371
-0.123499
-0.535871
0.0200971
-0.46628
0.331776
0.0711676
-0.149549
0.377889
-0.295825
-0.0797242
-0.0449002
0.124624
-0.442935
-0.122749
0.565684
-0.563115
0.370458
0.192658
-0.0383133
0.0467065
-0.00839317
-0.418391
-0.295209
0.0741221
-0.234799
0.160677
-0.122737
0.135797
-0.618985
0.200301
0.418683
-0.258322
0.319079
-0.0607577
-0.331375
0.418346
-0.0869701
-0.0709667
0.468262
-0.397296
0.419086
-0.577396
0.15831
-0.485784
0.414817
0.157553
0.260116
0.0960992
-0.442119
0.34602
-0.0190367
0.258221
0.236469
0.00455599
-0.241025
-0.168042
-0.290163
0.458205
0.344714
-0.125542
0.38977
-0.158813
-0.230956
-0.135618
-0.0848135
0.220431
-0.0711971
0.404387
-0.00150904
-0.0527975
0.332469
-0.460764
0.128294
-0.0753659
0.59453
-0.384186
0.264172
0.120014
-0.400162
-0.109722
0.509884
0.613536
-0.588991
-0.0245443
-0.536457
0.281051
0.0168153
-0.093726
0.236393
-0.160311
-0.0760812
0.0254237
0.092608
-0.609618
0.0728669
-0.347045
0.443145
0.541513
-0.122428
-0.0548048
-0.187848
0.311945
-0.228063
-0.0838826
0.0416356
-0.460683
0.419048
-0.0816192
0.0708897
0.361633
-0.213863
-0.599649
0.474356
0.125293
-0.00398895
0.0284147
0.239547
-0.567306
-0.415253
0.276133
-0.38607
0.109937
-0.105008
-0.0250039
-0.126517
0.458986
-0.221883
0.13882
-0.160755
0.0956368
0.068326
-0.00535955
0.110378
-0.216602
0.106224
-0.00551412
-0.007772
0.165545
-0.157773
0.0964051
0.192348
-0.288753
-0.200574
0.0430694
0.157505
0.17604
0.339467
0.110626
0.0908669
-0.172499
-0.392889
0.499757
-0.162907
0.0718248
0.00594791
-0.00421225
-0.0511294
0.0553417
0.101765
-0.0730754
-0.0286895
0.0770783
0.00939151
0.0535464
0.549702
-0.325098
-0.224605
0.00168307
0.0272005
-0.0311894
-0.127488
0.262274
-0.00671467
-0.0589204
-0.171405
-0.0291695
0.189336
-0.30643
0.117094
0.0128724
0.440175
0.583243
-0.134272
0.438237
0.132474
-0.570711
0.0162867
-0.116787
0.1005
-0.0514397
0.266284
-0.214845
0.02476
-0.0992919
0.668009
-0.505905
-0.162105
-0.408865
0.133065
0.275801
-0.206985
0.0256746
0.182665
0.0861148
-0.321823
-0.259324
0.581147
-0.164427
-0.0535805
0.218008
0.278274
0.0620382
-0.340313
0.24592
0.303782
0.535223
0.0187013
0.0487891
-0.0670239
0.0182347
0.192007
-0.51383
-0.0613882
0.297857
0.163541
-0.496485
0.332944
-0.439602
0.135461
0.226172
0.344365
-0.0646468
-0.279718
0.131217
0.0915298
-0.222747
-0.0203845
-0.00522029
0.0256048
0.0874316
-0.10894
0.0215088
0.0381288
0.00353992
-0.0416687
-0.0700897
-0.0360475
0.106137
0.414117
0.127396
0.359941
-0.0838081
0.322198
0.0702736
-0.392472
0.220994
-0.272434
-0.54262
0.142459
0.293364
0.0510007
0.208676
0.443415
-0.130049
-0.393696
0.299233
0.0563352
-0.0471119
-0.00922333
-0.00380224
-0.0187173
0.0225195
-0.0215218
-0.00715369
-0.636158
0.477801
0.158357
-0.274186
0.0125174
-0.0867935
0.454443
0.143033
-0.597476
-0.153996
0.129089
0.565288
-0.15117
-0.148131
-0.0370491
0.185181
0.153212
0.0831804
0.0970906
-0.139297
0.0422069
-0.629798
0.173458
0.45634
0.119408
-0.609893
-0.413913
-0.215886
0.0383512
0.0598492
0.239419
0.0133342
-0.252753
0.177877
0.0475767
-0.225454
0.461911
0.0520723
-0.513984
0.297983
-0.108647
0.117558
-0.0927981
-0.151931
0.590168
0.0457179
-0.125442
-0.202746
-0.237044
0.613936
0.0595834
0.00959098
-0.0691744
0.0503016
0.0465344
-0.096836
-0.00601245
0.0499093
-0.106478
-0.497965
0.115716
0.0960211
-0.65979
0.174694
0.485096
-0.0470185
0.185953
-0.138935
-0.0637011
0.227948
-0.133461
0.301265
-0.279783
0.232652
-0.333586
0.100934
0.243189
0.0687563
-0.587017
0.547535
0.0394818
0.150596
-0.484852
0.334256
-0.070136
-0.000302112
0.0282488
0.440013
0.389028
0.206824
-0.149007
0.519957
-0.37095
-0.0805281
0.258405
0.00284448
-0.0026954
-0.199807
-0.136355
0.0777801
0.00706351
0.448301
-0.633983
0.185682
0.10461
0.0936933
0.475499
-0.616473
0.140974
-0.509229
0.360222
0.615905
-0.167604
0.0198226
0.0650004
-0.208453
0.107177
0.101276
-0.0766009
0.31602
-0.405931
-0.310895
0.0121296
0.407234
-0.419364
-0.0300516
0.140215
0.0607386
-0.225166
-0.0304185
0.27549
-0.245072
-0.00805959
0.143676
0.165118
-0.580195
0.246089
0.526882
-0.0105099
-0.119002
-0.402675
-0.281542
0.251123
-0.0175615
0.0663506
-0.0463218
0.0966234
-0.432434
-0.00188892
-0.213805
0.260321
-0.0465156
-0.012095
-0.0996609
0.179252
-0.126826
0.360395
-0.233569
-0.0674592
0.0716684
0.027569
-0.00300136
-0.0245677
-0.0838073
0.0636637
0.286322
-0.602031
0.31571
0.496356
-0.00281274
0.00376042
-0.000947681
0.30198
-0.108087
-0.193893
0.0818431
-0.117891
0.340154
-0.245662
-0.0944912
-0.226142
0.0932261
0.132916
0.373804
-0.195462
-0.178342
0.496246
-0.189011
-0.307235
-0.383398
0.297194
0.0862039
0.247083
-0.198331
-0.048752
0.322054
-0.089402
0.00539877
0.0837496
-0.0891483
0.379533
-0.634862
0.456996
0.177866
-0.297106
0.637601
-0.340495
-0.00919344
0.0869735
-0.0678194
-0.167561
0.18142
-0.235052
-0.346615
-0.273329
-0.310644
-0.353076
0.190468
0.00710761
-0.619864
-0.10174
-0.0729515
0.174691
-0.0220159
0.119107
0.161873
-0.458979
0.111699
-0.0242673
0.571225
-0.533925
-0.15541
0.0304212
-0.157793
0.196809
0.437564
0.423051
-0.177972
-0.245079
-0.255781
-0.380377
0.0967691
-0.0872155
-0.00955355
0.176754
-0.620266
0.443512
0.210348
-0.201041
-0.00930741
0.286788
-0.190383
0.177304
0.0847089
-0.179219
0.226796
0.194933
-0.410448
0.215514
0.0548262
-0.134411
-0.117012
0.0684003
-0.0119822
-0.0564181
-0.157975
0.255077
-0.0971021
0.478794
0.000680164
0.0621811
0.0288163
-0.0298777
0.00106141
-0.15781
-0.237944
0.395754
-0.462981
0.129098
-0.558182
0.429084
-0.0266233
0.022821
-0.113533
0.131868
0.271769
-0.118557
0.18464
0.288384
-0.473025
-0.230344
0.191673
0.0900178
-0.281691
0.0168156
-0.164947
0.0254631
0.00210595
-0.595999
0.48974
-0.341622
0.214796
0.00697778
0.0657575
-0.527249
0.431196
-0.158395
0.245958
-0.087563
-0.0789903
-0.307149
0.101915
0.205234
0.456247
-0.271607
0.304526
-0.472568
-0.00327704
0.0444084
-0.0411314
0.358117
0.158636
0.0877613
-0.122473
0.0133188
0.109154
0.35992
0.139837
-0.528469
0.6131
0.100284
-0.143465
-0.389143
-0.741511
0.290673
0.450838
-0.0838842
0.196257
-0.112373
0.0171822
-0.102312
-0.0978272
-0.607288
0.186645
0.420643
0.356182
-0.302495
-0.087241
-0.138901
0.203808
-0.313092
-0.000592488
0.0294087
0.04568
0.528352
-0.312968
-0.427551
-0.194909
0.62246
-0.0490419
0.441634
-0.584333
0.142699
-0.0638715
-0.436234
-0.305277
0.0631674
-0.0588629
-0.00999648
-0.103471
-0.634115
0.190858
0.443256
-0.169155
0.0775858
-0.00269342
0.0736547
0.34429
-0.27388
-0.0704106
0.0866945
-0.0125238
0.0173938
-0.00487002
-0.0753308
-0.00985464
0.0851855
0.11219
-0.0959032
0.111813
0.00998282
0.0202507
0.0102905
-0.134419
0.225949
0.0924133
0.0995762
0.0746829
-0.00212655
-0.018258
0.477206
-0.158499
-0.318706
-0.0105614
0.0450385
0.203609
0.0434731
-0.0946419
0.286315
0.287532
-0.108576
-0.105911
0.102173
-0.392
0.289827
0.126179
-0.0132305
-0.112949
-0.0152744
0.212102
-0.196828
0.590362
-0.135919
0.274779
0.114991
-0.132547
0.194527
-0.0619801
-0.15476
0.0809937
-0.128129
0.0445108
0.13927
-0.506508
0.367238
0.365275
-0.648925
0.28365
-0.4139
0.568272
-0.154371
0.289613
0.133438
0.0887221
-0.456317
0.241623
0.131168
-0.13894
-0.413572
0.0474422
0.194277
-0.241719
0.128325
-0.138322
-0.405377
0.596322
-0.190945
0.0471126
-0.260918
-0.0557026
-0.420171
0.544069
-0.123899
-0.213863
-0.380311
0.29712
-0.161452
0.0023619
0.00119763
-0.00355953
0.606492
-0.132136
-0.0373909
-0.0391038
0.360396
-0.564937
-0.379685
0.285006
0.0946791
-0.570573
0.0593018
0.511271
0.455183
-0.0970657
0.0750491
-0.0763826
0.128261
-0.0113619
-0.200213
0.116329
0.194769
-0.321486
0.126717
-0.126376
0.519262
-0.392887
0.269612
-0.265112
-0.581975
0.176598
0.168485
0.119047
-0.253591
-0.379104
0.00189411
-0.0550396
0.516951
0.241292
0.102998
0.237618
0.136186
0.227013
-0.242287
-0.600524
0.46055
0.139975
-0.0676404
0.0982938
-0.0306535
-0.170537
-0.128422
-0.341865
0.507555
-0.331515
0.127342
0.00875123
0.37026
-0.106088
-0.584431
0.324337
-0.113521
0.362803
-0.164201
0.0750722
0.089129
0.147156
-0.182031
-0.0133929
0.0765603
0.237441
-0.280724
0.0432825
-0.509278
0.207364
-0.472459
0.314554
0.157905
-0.00060958
-0.00208065
0.00269023
0.298173
-0.112121
-0.186052
0.101157
0.0900694
-0.191226
-0.0285959
-0.0881909
0.049907
-0.0617139
0.0118069
-0.012815
-0.0526186
0.0654336
-0.110438
-0.0193655
0.129803
0.145736
0.33147
0.081957
-0.181618
0.0430585
-0.00492975
0.157253
-0.032004
-0.110174
-0.106782
-0.0269248
0.00540297
0.303492
0.0275757
-0.0181765
-0.18409
0.0983656
0.0976948
-0.287521
0.189826
0.208641
-0.0636868
-0.144955
0.589363
-0.228326
-0.361037
0.226189
-0.36082
-0.0737962
0.289245
-0.400091
0.110846
0.27645
0.0865877
-0.363038
0.420668
-0.131055
0.0314676
-0.0422074
0.441106
0.105051
0.471598
-0.0300267
-0.441571
0.00506925
0.0189039
0.00379669
-0.0227006
0.181335
0.43457
-0.254059
0.403624
-0.149565
0.520005
-0.0335102
-0.486495
0.236973
-0.300977
0.0640044
-0.00850271
0.0489633
-0.0404606
-0.0784675
-0.156331
-0.167933
0.0218184
0.220961
-0.24278
-0.47148
-0.162635
-0.606492
0.234783
0.192861
-0.188305
-0.252733
0.0727249
0.227579
-0.0714162
-0.584175
0.438983
0.145192
0.473318
-0.0329799
0.0385094
-0.296831
0.0735825
0.226816
-0.300399
0.13736
-0.553791
0.416431
-0.0759256
-0.00862228
0.0845478
0.372205
-0.242217
-0.129988
0.305292
-0.110523
-0.143552
-0.310564
0.454116
0.0139598
0.0828093
-0.157903
0.218641
0.604502
-0.171958
-0.432544
-0.457229
0.132303
0.169677
0.20403
-0.461131
0.117468
-0.329608
0.21214
0.0698832
-0.173714
0.103831
0.0989805
0.372618
-0.0836505
0.00831961
-0.530084
0.109913
-0.122291
0.59779
-0.430471
0.567831
0.633142
-0.119182
0.398242
-0.507964
0.122124
-0.0980168
0.132236
-0.00551448
-0.126721
0.0282976
-0.0259792
-0.00231834
-0.22474
0.0903208
-0.145489
0.162748
-0.084769
-0.463155
0.284741
-0.270222
0.0830849
0.187137
-0.0825261
0.165359
-0.0828329
-0.170844
-0.136306
-0.0816542
0.0356049
-0.116904
-0.0286683
0.145572
-0.161196
0.447517
-0.0957014
0.356943
0.115244
0.437694
-0.552938
-0.103973
0.0879712
0.0160017
0.207424
-0.365234
-0.429408
-0.0568668
0.119168
0.39185
-0.511018
0.00185434
0.122896
-0.54865
0.425754
-0.433959
0.0399344
0.586031
0.625942
-0.224527
-0.401415
0.0431324
-0.0493998
0.10651
-0.266433
-0.265315
0.0450681
-0.112708
0.100031
-0.519824
0.419793
0.189066
0.436876
-0.397191
-0.116475
0.513666
-0.430896
-0.527667
0.366824
0.160843
-0.0172322
-0.161987
0.0536751
-0.385051
0.135534
0.236671
-0.010613
0.0524397
0.0493252
-0.2835
0.175179
-0.0221695
-0.50508
0.493754
-0.343158
-0.212709
-0.078134
0.290843
-0.258229
0.402195
-0.143966
0.00102608
0.125218
-0.126244
0.174648
-0.217935
0.289758
-0.0718224
0.124259
0.0752873
-0.371444
0.116548
0.254896
0.387835
-0.513754
0.125919
-0.571156
0.208617
0.362539
0.512893
-0.125058
0.615272
-0.463428
-0.151844
-0.291523
-0.133042
0.0990912
-0.0282639
0.000871864
0.402315
0.218957
-0.479311
0.606753
-0.0161401
-0.590613
-0.586031
0.285813
0.108978
-0.394791
0.572466
-0.420003
-0.152463
-0.198125
0.0792642
-0.0340033
-0.045261
-0.136401
0.111655
0.0247459
-0.390696
-0.172419
0.0249666
0.541728
0.43138
0.00107195
-0.0890324
0.0952469
-0.0192773
-0.0759696
0.0139857
0.112193
-0.207058
-0.38922
0.508388
0.189754
-0.323216
0.137691
0.434775
-0.2732
0.294971
-0.0217709
0.000845207
0.446866
0.159887
0.153936
0.0547053
-0.119269
0.111768
0.0100033
0.110371
-0.120374
-0.0426342
-0.00661689
0.230343
0.0476669
0.244314
-0.263351
0.559974
-0.513513
-0.0464617
0.149334
-0.15469
-0.219325
-0.129138
0.348463
0.112055
-0.200081
0.00803135
-0.231434
-0.339722
0.0815466
0.0218682
-0.103415
-0.281746
0.182142
-0.457527
-0.0865635
-0.0174094
0.0531665
0.0260977
-0.443958
0.588153
-0.144195
-0.0921479
0.198424
-0.106277
-0.0930447
0.456158
-0.0928887
-0.0713125
0.587838
-0.454026
0.152271
-0.176744
0.0244739
-0.461908
-0.154566
0.238086
-0.085815
0.139833
-0.396843
0.25701
0.134114
-0.0110179
0.0706013
-0.121821
-0.0427389
0.16456
-0.365767
-0.120801
0.486568
0.575875
-0.10114
-0.242105
0.315687
0.042237
-0.0347998
0.203086
-0.0959086
-0.199718
0.156511
0.0432068
-0.0145811
-0.0996931
0.0804158
0.0238557
-0.00253988
-0.119281
-0.0715271
-0.0127038
0.0842308
-0.576174
0.148236
0.427939
-0.348067
-0.110126
0.458193
-0.0419396
-0.334894
-0.215548
-0.0577005
0.273249
0.321276
-0.41779
0.551336
-0.133546
0.497658
-0.0565514
-0.222425
0.244243
-0.00172445
0.0297236
-0.0279992
0.0485747
-0.0129839
-0.0355907
-0.0807257
-0.0482031
0.0925726
0.229482
0.127358
0.41228
-0.539638
0.0165846
0.225913
-0.106169
-0.119744
0.0838236
-0.224108
-0.223186
0.305759
0.114909
-0.219354
0.160586
0.0587686
0.0643249
-0.1741
0.109775
0.0143991
-0.118547
0.104147
-0.277333
-0.030465
0.307798
-0.118643
0.0606829
0.00771738
0.133722
-0.136262
0.0499626
-0.280618
0.230656
-0.0439717
0.288286
-0.179504
-0.211276
0.383265
-0.280701
-0.102564
0.181073
-0.122307
-0.103235
0.159937
0.47555
-0.2094
0.0876957
0.121704
-0.168885
0.0759959
0.232186
0.110779
-0.425953
-0.44728
0.593739
-0.146459
0.096296
0.0505998
-0.0470599
0.255512
-0.0626505
-0.309522
0.424583
-0.115061
-0.00892313
-0.544753
0.553676
-0.111639
-0.271759
-0.49298
-0.0281965
0.521177
0.00565064
0.116473
-0.014583
-0.0736963
-0.198776
0.272472
0.331258
-0.0899661
0.411454
-0.158286
-0.253168
-0.0690475
-0.40948
-0.0795252
0.084924
-0.112659
0.239563
0.197062
-0.0974854
-0.124396
0.199508
0.0862636
-0.0711242
-0.0151394
0.0873354
0.187175
-0.082565
-0.121409
0.231787
-0.25551
-0.115934
0.132545
-0.0304251
-0.105976
0.449151
0.165143
-0.614294
0.0335431
-0.49237
0.458827
0.482788
-0.122867
0.550951
-0.562918
-0.577943
0.113093
-0.11552
0.582784
-0.0575026
0.0532903
0.467613
-0.609098
0.141486
0.12116
0.43348
-0.55464
-0.00928749
0.0591944
-0.127761
-0.433841
0.561602
0.135023
0.276431
0.0471552
-0.0531676
0.00137541
-0.203292
-0.407686
0.607988
-0.440954
0.292875
0.0598018
0.144866
0.371131
-0.515997
0.628129
-0.0713079
0.0812277
-0.43769
0.55885
-0.113162
0.42179
0.100884
0.0022349
0.186182
-0.104225
0.228237
-0.0907045
-0.137532
0.412306
0.151164
-0.563471
0.177716
-0.0129463
-0.470935
0.613749
-0.142813
0.507261
-0.392018
0.0303202
-0.0286225
-0.00169773
0.571452
-0.159146
0.155692
0.52661
-0.10482
-0.17038
0.435678
-0.265298
0.0504987
0.254194
-0.304693
0.284103
-0.518491
0.234388
-0.523241
0.220402
0.302839
0.121306
-0.564241
-0.0175347
0.373717
0.503827
-0.221188
-0.282639
-0.049222
0.0581824
-0.00896039
-0.650194
0.262563
0.387631
0.594568
-0.419797
-0.174771
-0.441476
-0.109032
0.550508
-0.31577
0.239243
0.0765273
0.135813
-0.0241575
0.431003
0.0760333
-0.507037
0.063858
0.354302
-0.208104
0.562443
-0.354339
0.00284694
-0.170262
0.239878
-0.0696155
0.424451
-0.552212
-0.220355
0.361131
-0.482503
0.121372
0.0332777
-0.0326618
-0.000615917
-0.155478
-0.111397
-0.105205
0.0287554
0.131178
-0.159933
0.025478
-0.142382
0.525075
-0.425043
-0.388355
0.510787
-0.122432
0.445799
0.148768
-0.389171
0.279978
0.109193
-0.34513
-0.0899344
0.435065
-0.221604
-0.115093
-0.462685
0.577778
0.0875709
-0.13031
-0.511153
0.113961
-0.159344
-0.0600108
0.137358
-0.137044
-0.305134
0.442178
-0.158016
0.480808
-0.322791
-0.248718
0.381782
0.306706
-0.572329
0.229336
0.342993
-0.516212
0.389836
0.0515655
-0.00843313
-0.352725
0.251608
0.101117
-0.0113567
-0.0989488
0.110305
0.627764
0.0430606
-0.525994
0.51707
0.0766197
-0.0793131
-0.585304
0.470211
0.0814276
-0.426558
0.404656
-0.11965
0.0625699
-0.0364952
-0.0260747
0.485454
-0.0131287
0.079646
-0.0665173
-0.573342
0.341908
-0.326281
-0.240059
0.048258
0.191801
-0.135698
0.560149
-0.423433
0.286389
-0.178123
0.562013
-0.38389
-0.0125796
0.114588
-0.102008
0.486205
0.340074
-0.452391
0.112317
-0.25691
0.327402
-0.0704916
-0.279324
-0.0795467
0.240133
0.0810951
-0.0374859
0.0322656
-0.0835924
-0.0707582
0.0579433
-0.0787974
0.0715428
0.207642
-0.279185
-0.0123705
-0.0427322
0.0551027
0.364977
0.124538
-0.466817
0.611929
-0.145112
-0.120799
-0.40672
0.527519
-0.428877
-0.0903834
0.51926
-0.178169
0.0915666
-0.128078
0.0775862
-0.182377
0.240066
-0.0576893
-0.352167
-0.158986
-0.60459
0.0971571
0.200826
-0.21278
0.288415
-0.0756353
-0.342452
-0.292409
-0.290684
-0.35951
-0.434483
0.570612
-0.136129
0.428655
0.142797
-0.190266
0.0586801
0.131586
0.151949
-0.504116
-0.00406696
0.0638688
0.422607
-0.558305
0.185415
-0.259111
0.425988
0.189284
0.136228
-0.391762
0.255534
-0.0789518
0.180109
-0.134538
0.508923
-0.374385
0.125783
-0.242886
0.281395
0.560676
-0.420402
-0.140274
0.290383
-0.0706339
0.255461
-0.0180201
0.0679421
0.245996
-0.313938
0.357383
-0.0986105
0.324799
0.082945
-0.0990952
0.0161502
0.0133479
-0.57983
0.413602
0.166228
-0.0134727
-0.0943972
0.10787
0.185206
-0.120881
-0.236665
0.0664026
-0.192392
-0.216146
0.270583
-0.054437
0.288595
0.110411
-0.399006
0.0157042
0.104085
-0.119789
-0.135292
-0.42517
0.560462
0.00846404
0.085109
-0.0935731
0.074808
-0.0834303
-0.26677
0.0873867
0.179383
-0.481275
0.313342
-0.13305
0.437322
0.123354
-0.504854
0.370315
-0.129835
0.116604
-0.0589807
0.128801
-0.546591
-0.717175
0.268329
0.448846
0.410813
-0.396262
0.589164
-0.160509
0.0714732
0.0862423
-0.157715
-0.0198268
-0.108007
0.127834
-0.225119
0.0671441
0.0802516
-0.446408
0.366157
-0.419552
-0.00763
-0.0538319
0.0614619
0.258282
-0.371803
0.00747658
0.07385
-0.0813266