/*--------------------------------*- C++ -*----------------------------------*\
| =========                 |                                                 |
| \\      /  F ield         | OpenFOAM: The Open Source CFD Toolbox           |
|  \\    /   O peration     | Version:  v2012                                 |
|   \\  /    A nd           | Website:  www.openfoam.com                      |
|    \\/     M anipulation  |                                                 |
\*---------------------------------------------------------------------------*/
FoamFile
{
    version     2.0;
    format      ascii;
    class       volVectorField;
    location    "400";
    object      U;
}
// * * * * * * * * * * * * * * * * * * * * * * * * * * * * * * * * * * * * * //

dimensions      [0 1 -1 0 0 0 0];


internalField   nonuniform List<vector> 
14033
(
(1.04207 -0.0594036 0)
(0.750946 -0.0517853 -2.62063e-21)
(1.0141 -7.30578e-05 0)
(1.02036 -0.00152558 2.76546e-24)
(1.0189 0.000392461 0)
(1.02418 -0.00121122 2.43898e-21)
(0.846639 0.0119448 1.77741e-21)
(1.01719 -0.0088523 -5.53954e-22)
(1.0203 -0.00149966 -3.75752e-23)
(0.787905 0.00247738 7.84315e-21)
(1.01987 -0.00257238 0)
(1.06218 -0.00390145 0)
(1.02922 -0.00764022 7.93806e-22)
(1.02905 -0.00721211 1.32795e-21)
(1.0183 0.00024938 5.89842e-25)
(1.05138 -0.0032406 0)
(1.03437 -0.00204707 -2.22505e-21)
(0.498579 -0.104849 0)
(1.02403 -0.00439018 0)
(1.03723 0.00111001 4.83173e-21)
(1.04786 -0.00254211 5.27716e-21)
(1.06211 -0.00357631 7.47178e-21)
(1.05763 -0.0297901 -1.86704e-20)
(1.01896 0.0004438 5.34796e-25)
(1.01897 -0.00161235 0)
(1.02386 -0.00430287 0)
(1.06897 -0.0186673 -2.65673e-22)
(1.06623 -0.00352606 -1.38542e-20)
(1.07444 -0.041962 7.4615e-21)
(1.06777 -0.00171088 0)
(1.03937 -0.00977125 -2.75846e-21)
(1.01719 -0.00798974 5.3192e-22)
(1.07294 -0.0169639 0)
(1.03557 -0.0210849 3.08392e-21)
(1.01405 -0.0457624 1.13715e-21)
(1.01503 -0.000220674 1.58141e-23)
(0.946695 -0.0285226 -1.69253e-20)
(0.746012 0.0036564 -8.86437e-21)
(1.01955 0.000213247 -2.91623e-23)
(1.03214 -0.00452963 7.04392e-21)
(0.752305 -0.0866416 -9.43482e-23)
(1.0476 -0.00184117 -8.28715e-21)
(1.02364 -0.000719316 0)
(1.01683 -0.000102664 4.49516e-23)
(1.02577 -0.00184807 -6.85726e-24)
(1.02363 -0.000727261 0)
(0.770016 0.00316881 1.12838e-20)
(1.02416 -0.00126015 -1.06472e-21)
(1.0696 -0.0261165 2.68219e-20)
(1.01471 -0.0271596 1.41964e-20)
(1.02768 -0.00258687 2.74904e-21)
(1.01553 -0.000261788 0)
(0.695897 -0.0196367 -2.15694e-20)
(1.0218 -0.0575075 3.0411e-20)
(1.03461 -0.00175564 2.75254e-21)
(1.0295 -0.00742961 0)
(1.07068 -0.00137637 -2.97187e-20)
(0.591893 -0.0260151 -8.81371e-21)
(1.03536 -0.0212435 -2.82831e-21)
(1.0389 -0.00960728 -2.64341e-21)
(1.02033 0.00239365 2.79339e-23)
(1.00972 -0.0279892 -4.20453e-20)
(1.05042 -0.023922 4.59021e-21)
(1.02345 -0.000654698 -1.24059e-23)
(1.0171 -0.000289056 0)
(1.02133 -0.000466204 -1.49477e-22)
(1.03982 -0.0595408 0)
(1.06707 -0.00835463 -2.96471e-20)
(1.02254 0.00265247 -1.1499e-22)
(1.03332 -0.0115494 -1.75318e-21)
(1.01723 -0.00031893 9.8476e-24)
(1.01953 0.000266489 -2.18831e-23)
(0.762123 0.00316583 -7.20507e-21)
(1.03539 0.00248492 0)
(1.05036 0.00113475 -1.08604e-20)
(1.01983 -0.000232429 5.34327e-23)
(1.02499 0.000327586 -8.30098e-22)
(1.03326 -0.0122148 -3.62831e-21)
(0.381428 0.00978422 0)
(1.06835 -0.0025547 -1.11533e-20)
(1.02394 -0.000830597 -7.72754e-23)
(0.433072 0.00270333 2.82998e-21)
(0.694335 -0.0194318 -4.23628e-20)
(1.02199 -0.00208407 -2.97217e-22)
(1.01701 -0.000177423 0)
(1.01923 9.25121e-05 2.96753e-22)
(1.02401 -0.00681932 0)
(1.02038 -0.0627631 -1.98061e-20)
(0.793027 0.00173237 1.13986e-20)
(1.03691 0.00160158 -9.30734e-21)
(1.01858 -0.000227624 -9.60596e-22)
(1.02396 -0.000902691 0)
(1.02336 -0.0012323 0)
(1.08212 -0.00296843 -2.6363e-22)
(1.02337 0.00270547 2.06032e-22)
(1.01268 -0.00497465 0)
(1.02804 -0.00266453 0)
(1.0128 -8.9371e-05 6.324e-23)
(0.832909 -0.0262836 0)
(1.018 -0.000378215 -2.03905e-22)
(1.02148 -0.000478231 2.00069e-22)
(1.02393 -0.00133749 5.74282e-22)
(1.02369 0.00227178 -6.92119e-23)
(1.02256 -0.00167484 0)
(0.763302 0.00333028 1.19665e-20)
(1.07009 -0.0105828 -1.53392e-20)
(0.829764 0.00208134 0)
(1.02209 -0.00227321 0)
(1.06657 -0.00830198 1.15714e-22)
(1.01486 -0.000231845 -6.93436e-23)
(0.792399 0.00186764 0)
(1.00883 -4.63426e-05 0)
(1.01623 -0.00019604 -1.26687e-22)
(1.00921 -0.00146474 0)
(1.00589 -1.73155e-06 0)
(1.02464 0.000516866 -7.33299e-22)
(1.07015 -0.00274341 2.17329e-20)
(1.02002 0.000426652 1.08497e-23)
(1.07973 -0.0038551 -4.37115e-20)
(1.07248 -0.017369 0)
(1.01999 -0.000596223 0)
(1.05819 -0.00801785 3.94616e-21)
(-0.0145364 0.0563678 2.57179e-20)
(1.02454 -0.00688672 -1.2729e-21)
(1.08424 -0.00768114 -1.43588e-20)
(1.0235 -0.00137593 0)
(1.02009 -0.000362623 -1.21058e-22)
(1.01226 0.0017056 4.72237e-22)
(0.568273 0.011204 1.15412e-20)
(1.02483 -0.000925376 0)
(0.760773 0.0040804 6.40119e-21)
(1.01677 -0.000157056 4.73571e-23)
(1.01967 0.000604903 -1.34529e-25)
(0.946346 -0.0106619 -2.85428e-21)
(0.783828 0.00264176 0)
(1.03377 -0.0110424 -2.25877e-21)
(1.06699 -0.00386778 1.2298e-20)
(1.0164 -0.000226471 0)
(1.02496 -0.000857145 2.53655e-21)
(1.02417 -0.00130202 -2.51575e-23)
(1.03996 -0.0155679 0)
(1.07732 -0.00188081 1.85248e-20)
(1.06311 -0.0122243 -6.54032e-21)
(1.05162 -0.00487999 0)
(1.07194 -0.0434773 1.16588e-20)
(1.02539 -0.00212359 -1.22349e-23)
(1.01988 -0.000607061 2.81752e-22)
(1.0578 -0.0154539 0)
(0.960762 -0.0270689 5.69485e-20)
(0.989059 -0.0040133 -2.26534e-21)
(1.01019 -0.0016598 4.34936e-21)
(1.03965 -0.0151833 2.61827e-21)
(1.01671 -0.000272266 -7.72318e-23)
(1.01653 -0.00743457 1.71396e-21)
(1.02392 -0.00136567 -1.10412e-21)
(0.726856 -0.00304293 1.79426e-20)
(1.02224 -0.00178427 1.0589e-22)
(1.02077 -0.000249603 2.43909e-22)
(1.02231 -0.00170907 -7.55895e-22)
(1.01852 0.000321857 0)
(1.02522 -0.00938724 0)
(1.06928 -0.0194916 -1.56268e-20)
(0.978758 -0.0140941 4.93986e-21)
(1.02007 -0.000579681 0)
(1.04833 -0.00820512 2.78775e-21)
(1.01905 -0.000248075 0)
(1.03881 -0.0145487 2.72777e-21)
(1.0562 -0.00427353 0)
(0.275292 0.00656027 4.15546e-20)
(1.02498 -0.00410451 7.78725e-22)
(1.05168 -0.00352055 4.84071e-22)
(1.0672 -0.00416451 -1.65573e-20)
(1.06194 -0.00411619 -8.38199e-21)
(0.49542 0.0226425 -8.29479e-22)
(1.01986 -0.000219071 -5.42408e-23)
(1.02486 -0.00389004 -7.72934e-22)
(1.07205 -0.0111067 1.09847e-20)
(0.610648 0.0143325 -1.16198e-20)
(1.0615 -0.00473317 0)
(1.05176 -0.00473558 -6.87176e-21)
(1.04106 -0.0520821 -4.56872e-22)
(0.592859 0.0156031 -5.9249e-21)
(1.03904 -0.00803724 4.57948e-21)
(1.02375 -0.0011915 1.56338e-22)
(1.01481 -0.000212819 -6.29151e-23)
(0.799519 0.00202636 1.10181e-20)
(0.845488 -0.0149186 0)
(1.02489 -0.000469756 0)
(0.271515 0.000105479 0)
(0.797325 0.00252465 -1.24065e-20)
(1.08153 -0.0198316 -1.34421e-20)
(1.03866 -0.0135621 4.87112e-21)
(1.01662 -0.00604081 -1.21701e-21)
(1.025 -0.000387763 1.67919e-21)
(1.08519 -0.00944626 0)
(0.848205 -0.0667939 2.24483e-21)
(1.05065 -0.0222789 0)
(0.595579 0.0113638 -1.41653e-20)
(1.02028 -0.00146348 6.80224e-24)
(1.01467 -0.000118183 1.7156e-22)
(1.02333 -0.00451603 -2.03711e-22)
(1.03887 -0.0129607 -4.3537e-23)
(1.01651 -0.000248834 -1.6643e-22)
(1.04336 -0.0502414 0)
(1.03907 -0.0151734 2.59243e-21)
(1.01646 -0.000212908 1.26309e-22)
(1.05756 -0.00821816 3.75414e-21)
(1.07106 -0.00168358 4.25914e-20)
(1.04785 -0.00140867 4.80434e-21)
(1.02584 0.0332154 0)
(0.543144 0.0128327 -2.0374e-20)
(1.07014 -0.00140512 0)
(1.07719 -0.00413947 0)
(1.08512 -0.0096925 0)
(1.01907 0.000162339 1.00292e-23)
(1.02533 -0.00916557 1.69197e-23)
(1.01735 -0.000343795 7.44281e-23)
(1.00179 -0.0343372 -4.65819e-22)
(1.01377 -0.000196818 1.81015e-22)
(1.03203 -0.0227838 -1.05132e-21)
(1.04754 -0.00099851 8.84353e-21)
(1.02359 -0.00072962 0)
(1.02337 -0.000654772 -1.6717e-22)
(1.02433 -0.00670844 8.76263e-23)
(1.0221 -0.000329545 1.53835e-21)
(1.02603 0.00311664 0)
(1.05711 -0.0272713 -3.58137e-21)
(1.0397 -0.0124417 -5.13885e-21)
(1.02012 -0.00137329 -6.90593e-24)
(1.02261 -0.000150816 -1.57512e-23)
(1.01763 -0.000217142 -1.11382e-22)
(1.06969 -0.0112532 1.65484e-20)
(1.02381 0.00114801 0)
(1.02016 0.000432229 4.97531e-24)
(1.00085 -0.0301685 5.92172e-22)
(0.863285 -0.0166264 2.01982e-20)
(1.07009 -0.02561 1.67056e-20)
(1.02265 -0.000458027 1.76244e-23)
(1.01992 -0.00127014 1.89166e-23)
(1.02055 -0.000813426 -1.26856e-23)
(-0.0219626 0.047491 1.17703e-20)
(1.03377 -0.0114427 4.66174e-21)
(1.01867 -0.000426469 3.34751e-22)
(1.01716 -0.000184843 -4.83178e-23)
(1.03949 -0.0130162 0)
(1.02258 -0.000373532 -9.11442e-23)
(0.760145 0.00059297 -2.55116e-20)
(0.47496 0.0187546 2.71083e-20)
(1.02392 -0.0062115 -7.59821e-22)
(1.02129 0.000537415 3.17758e-22)
(1.02257 -0.000667341 -1.08124e-21)
(0.550301 0.0140537 1.07051e-21)
(1.02254 0.00014087 9.4087e-23)
(1.07714 -0.00407331 -1.51733e-20)
(1.02009 -0.0013477 -2.19912e-23)
(0.751465 -0.0505181 -4.01395e-22)
(1.02061 -0.000767729 -3.52102e-22)
(1.02518 -0.00497736 0)
(1.02277 0.00033541 0)
(1.07858 -0.0429617 0)
(1.01498 1.42308e-05 5.05658e-24)
(0.601841 -0.0978477 0)
(1.0018 -0.0102849 -3.13365e-22)
(1.03121 -0.0214011 -8.34323e-22)
(1.04009 -0.00627374 2.15946e-21)
(1.01617 -0.0248754 -3.08881e-22)
(1.02358 0.000952952 2.97185e-22)
(1.06803 -0.00256102 0)
(1.01419 -0.0274963 1.79498e-22)
(0.608264 0.0111434 2.14761e-20)
(1.03567 0.00177076 -2.82325e-21)
(0.903513 -0.0154574 2.31177e-20)
(1.017 -0.000100398 0)
(1.04935 -0.0176732 -1.11221e-22)
(1.08532 -0.030231 -2.31529e-20)
(1.0198 -0.00119848 0)
(1.01757 -0.000216786 1.24701e-22)
(1.06644 -0.00370005 3.65152e-20)
(1.0237 -0.0059221 -3.90801e-22)
(1.08317 -0.0473305 0)
(1.07089 -0.0107431 8.42153e-21)
(1.02011 -0.000632901 -1.51322e-22)
(1.02714 -0.0315339 1.82013e-21)
(1.0504 -0.00145799 0)
(0.344877 -0.0171092 2.70732e-20)
(0.96939 -0.00478486 0)
(0.751544 0.00337654 -4.02074e-20)
(1.02271 0.000227292 0)
(0.503825 -0.0232881 0)
(1.08193 -0.0180534 2.99242e-20)
(1.02399 -0.00112953 -1.2261e-21)
(1.0612 -0.00517491 2.0935e-20)
(1.06242 -0.0117974 -1.89457e-20)
(1.02006 -0.0486334 -1.73959e-22)
(1.02489 -0.00364409 0)
(1.02258 -0.000780337 1.20606e-22)
(1.0238 -0.000925798 0)
(1.01995 -0.00127906 2.14248e-23)
(1.02249 -0.000588053 0)
(1.02246 -0.00480354 0)
(1.02359 -0.00080323 0)
(1.05371 -0.0664679 0)
(0.729939 -0.056091 0)
(1.03748 0.000406391 0)
(1.031 -0.0190674 7.01089e-22)
(1.02353 -0.0162328 1.25573e-22)
(1.02753 0.00119866 0)
(1.02366 -0.00106604 0)
(0.786647 -3.65652e-05 1.6197e-20)
(1.03258 -0.00246192 3.68327e-21)
(1.06681 -0.00474875 1.57283e-20)
(1.0205 -0.000738054 1.80703e-22)
(1.06687 -0.0295944 2.07944e-20)
(1.0637 -0.0115101 -2.24396e-21)
(1.07579 -0.0398853 2.76014e-20)
(1.02015 -0.0168057 0)
(1.01766 -0.000259326 1.13867e-21)
(1.03247 -0.0169712 -3.91025e-21)
(1.02618 -0.0120189 -3.00528e-22)
(0.557733 0.0137934 0)
(0.734607 -0.0530984 9.27331e-21)
(1.06901 -0.0113199 3.09805e-20)
(1.03591 -0.0134013 4.92423e-21)
(1.0201 0.0019447 3.81617e-22)
(1.01039 -0.0120823 0)
(0.965752 -0.0622868 0)
(1.03795 0.000574688 3.75851e-21)
(1.02432 0.00181831 -8.22471e-23)
(0.809464 0.00219584 -1.1869e-20)
(1.05353 -0.0214409 0)
(1.02654 -0.0126005 3.65479e-23)
(0.439058 0.0333267 1.8788e-21)
(0.748958 -0.0319591 2.86735e-20)
(1.04836 -0.00796516 -8.87853e-22)
(1.018 7.24993e-06 -2.16529e-23)
(0.957329 -0.0126803 -1.60001e-21)
(1.06696 -0.00364232 -1.69821e-20)
(1.02237 -0.00463495 -6.25317e-22)
(0.892929 -0.0110309 0)
(1.03433 0.000243443 -7.36611e-21)
(0.564861 0.0131052 -1.92756e-20)
(1.06345 -0.017536 9.17807e-21)
(1.02052 -0.000708526 0)
(1.03389 -6.95459e-05 6.77143e-21)
(1.03619 0.0192419 2.6473e-22)
(1.01939 0.000151636 1.13588e-22)
(1.0576 -0.00389325 1.57645e-20)
(1.02341 -0.00120856 -5.96968e-22)
(0.804727 -0.08076 0)
(0.851097 0.0278002 -1.15822e-21)
(1.02371 -0.000966396 0)
(1.02752 -0.00356771 0)
(0.791427 0.00172082 -1.11675e-21)
(1.0535 -0.0224107 9.82937e-21)
(1.02317 -0.00411511 2.7785e-22)
(1.01937 0.000185961 0)
(1.02787 0.00133126 0)
(0.770565 -0.0168714 0)
(1.02525 0.00324056 -6.40589e-23)
(1.02256 -0.00180792 8.6298e-22)
(1.02328 -0.00426435 0)
(1.02221 -0.00871821 -5.70758e-23)
(-0.01728 0.0521481 1.10355e-20)
(1.02274 -0.0073239 -8.89649e-22)
(1.01872 9.44876e-05 -5.92537e-22)
(1.02802 -0.0215463 9.90361e-22)
(1.02014 -0.00906247 -7.32099e-23)
(1.02189 0.000340553 0)
(1.03506 -0.00562649 0)
(1.02253 -0.000670311 0)
(1.02675 0.00220804 1.6337e-23)
(1.02237 -0.000615178 -1.147e-22)
(1.00482 -4.12721e-05 7.69122e-23)
(1.02496 -0.00104939 0)
(1.06677 -0.00500105 -1.56638e-20)
(0.504028 0.0246694 -1.94833e-21)
(1.03594 -0.00500755 3.21539e-21)
(1.04318 0.00372038 0)
(0.993844 -0.0623758 2.22685e-21)
(1.01794 -0.000103665 -2.90428e-23)
(1.02265 5.1013e-05 0)
(1.01342 -0.0134548 -3.70946e-21)
(1.02535 -0.00497917 -3.40364e-22)
(1.033 0.0222577 -1.61666e-22)
(0.950396 -0.0678395 -1.94876e-20)
(1.02115 -0.00152169 1.15104e-22)
(0.825576 0.000511415 0)
(1.02259 -0.000388268 6.74754e-23)
(1.05077 -0.00224807 -2.79314e-21)
(1.06516 -0.00679663 -1.13903e-20)
(1.0238 -0.00117598 -1.46337e-22)
(0.579176 0.0137474 0)
(1.04173 0.00209454 5.25745e-21)
(1.02513 -0.00889881 -6.49582e-22)
(1.00088 -0.00502169 0)
(0.399299 0.0351929 0)
(1.02032 -0.0359144 -7.38799e-22)
(0.611583 -0.00139657 2.31962e-20)
(1.05775 -0.0350622 -1.59658e-20)
(1.02423 0.000859542 0)
(1.00633 -0.019859 0)
(1.02522 -0.00515157 0)
(1.02038 -0.000361263 -1.19359e-22)
(1.02477 0.00128242 8.79058e-24)
(1.01463 -0.0149487 3.80187e-21)
(1.0223 -0.000410818 -8.97141e-22)
(1.03125 -0.0170243 -2.6348e-22)
(1.01955 0.000237848 2.6043e-23)
(1.02556 -0.00518509 1.00082e-21)
(1.08415 -0.00641356 -2.93731e-22)
(0.750836 -0.00531848 -3.071e-22)
(1.07049 -0.00293272 -1.10524e-20)
(1.01468 -0.000174152 2.32905e-22)
(0.607634 -0.0345989 4.15822e-21)
(1.02602 0.00245695 0)
(1.02759 -0.00538357 9.04594e-22)
(1.02063 -0.00527566 -1.60728e-22)
(1.02804 0.0017658 4.49573e-22)
(1.02498 -0.00387924 0)
(-0.0151873 0.0528425 -4.6165e-20)
(1.03983 -0.016699 -2.90006e-21)
(1.01006 -0.00944144 0)
(1.05631 -0.00724241 5.38511e-21)
(1.01937 0.000289091 0)
(1.0182 -0.000405977 -2.7822e-22)
(1.02453 0.000755445 0)
(1.03133 -0.0172661 -3.85606e-22)
(1.01829 0.000241356 -5.26999e-24)
(1.04845 -0.0187083 0)
(1.02424 -0.00701213 0)
(1.01637 -0.00490537 1.03396e-21)
(1.03185 -0.00409029 1.20849e-21)
(1.03834 -0.0117144 4.2833e-21)
(1.02562 -0.00292726 4.01414e-22)
(1.01958 -0.004237 1.38427e-22)
(1.02307 -0.00383959 0)
(1.03507 -0.00876232 -3.02437e-21)
(1.02319 -0.00125745 0)
(1.02959 -0.0352694 4.7e-21)
(0.899093 -0.045175 -5.82625e-22)
(1.0795 -0.0414498 -1.8038e-20)
(1.02266 -0.000440068 7.29229e-23)
(1.02719 -0.0035858 0)
(1.01161 -5.65343e-05 0)
(1.02265 -0.00790906 -1.79954e-21)
(1.017 -0.000329242 1.25057e-22)
(1.05738 -0.00304665 -5.90725e-21)
(1.02263 -0.0165193 0)
(0.897281 -0.0479878 -3.54418e-22)
(1.02175 -0.00231203 1.44857e-22)
(0.772486 -0.0010519 0)
(1.02552 0.000462664 -2.60021e-23)
(1.01423 -0.000192377 -7.56551e-23)
(1.02452 -0.0196006 5.08892e-22)
(1.00535 1.18494e-05 7.38884e-23)
(1.07974 -0.0206679 0)
(1.02815 -0.0205859 -3.39276e-22)
(1.02227 -0.00219905 -5.75119e-22)
(1.01829 0.00025392 0)
(1.05143 -0.0121422 -1.39856e-20)
(1.03197 -0.00446918 -5.43121e-21)
(0.772877 0.00290548 -3.54891e-21)
(1.07569 -0.0533399 0)
(1.06946 -0.00119775 -9.92887e-21)
(1.01787 -9.72121e-05 8.22028e-23)
(1.02101 -0.00145212 0)
(1.01487 -0.0636596 -2.41009e-21)
(1.01437 -0.000232992 -4.9286e-23)
(1.02258 8.8602e-05 -8.42144e-23)
(1.08321 -0.0436855 0)
(1.03515 -0.00920514 0)
(1.0485 -0.0193683 -9.40212e-21)
(1.02223 -0.000913348 -8.7408e-22)
(1.02326 0.0024158 -5.67901e-22)
(1.01995 -0.00322812 0)
(0.639095 -0.00257555 0)
(1.02334 -0.00596101 0)
(1.06913 -0.0013694 1.59783e-20)
(1.02517 -0.00863028 -4.75534e-23)
(1.08342 -0.0478696 0)
(1.02307 -0.000106897 1.97684e-22)
(0.807043 0.000307004 5.16027e-21)
(1.023 0.00217479 0)
(0.793458 -0.0736571 -2.40605e-21)
(0.785981 0.00321739 1.25858e-20)
(1.02333 -0.000640326 6.39685e-23)
(0.564109 -0.0177213 -1.29038e-22)
(1.01687 -0.000318324 -3.53988e-22)
(1.06626 -0.00872305 7.48322e-21)
(1.02007 -0.000560961 1.0105e-22)
(1.03065 0.000438871 7.27291e-21)
(0.504963 -0.0161553 4.94888e-20)
(0.599117 -0.046255 3.06217e-20)
(1.06151 -0.00496612 -2.28797e-20)
(1.02216 -0.000933978 -2.01943e-22)
(1.03578 -0.00456599 0)
(1.0667 -0.00336304 -7.94773e-21)
(0.846686 0.0188645 8.9354e-22)
(1.0392 -0.00880959 0)
(1.00999 -0.00916403 3.71045e-21)
(1.02778 0.00155218 0)
(1.01706 -0.00306153 -2.10355e-21)
(1.08031 -0.0192966 0)
(0.969559 0.0204268 -3.43811e-22)
(1.05725 -0.0323738 0)
(1.02021 -0.000373138 7.83774e-23)
(1.01855 -0.000475673 -1.30567e-22)
(0.9824 -0.0733482 1.52917e-21)
(1.0221 -0.00211654 0)
(1.06556 -0.0214778 1.89273e-20)
(1.02033 -0.000109562 0)
(1.01794 -0.000388528 -2.33036e-23)
(0.797974 -0.000118432 0)
(1.02266 -0.000330279 1.58102e-22)
(1.0236 -0.00633993 8.7028e-22)
(1.03416 -0.0105776 0)
(1.05842 -0.0164953 0)
(1.01976 -0.000193289 -5.13737e-23)
(0.784107 0.0257249 -1.58815e-21)
(0.949876 0.0256565 1.34298e-22)
(1.02193 -0.000537186 1.24587e-22)
(1.00741 0.00922698 0)
(1.02176 -0.000503448 -1.22348e-22)
(1.02503 -0.00517501 -1.85052e-22)
(1.02297 -0.00193566 0)
(1.03462 -0.00564031 0)
(1.03198 -0.0118652 0)
(1.02288 0.00180609 0)
(1.03023 0.00032658 -4.92217e-21)
(1.02613 -0.00538598 0)
(1.03787 -0.0139954 0)
(1.02395 -0.00671247 1.93108e-22)
(0.752763 -0.0149262 0)
(1.02205 -0.00171152 -4.24558e-22)
(1.01282 -0.000126096 -2.21203e-22)
(1.02578 -0.00619553 7.27654e-23)
(1.02235 -0.000621993 5.45334e-22)
(1.01968 -0.00027975 1.22804e-21)
(1.01967 -0.000303092 7.29482e-22)
(1.07242 -0.0105248 -3.60678e-20)
(1.03055 -0.0214388 -1.29985e-21)
(1.08558 -0.0316858 1.09955e-20)
(1.01793 -1.53716e-05 0)
(1.02311 -0.00199302 0)
(1.01085 0.0128803 0)
(1.04035 -0.0059359 0)
(1.01529 0.00283892 0)
(1.02222 -0.000584385 -1.42921e-23)
(1.07614 -0.00291401 -1.56936e-20)
(1.02567 -0.0125029 2.87089e-22)
(1.02514 0.000681494 0)
(0.584673 0.010248 -1.3954e-20)
(1.01953 0.000505733 2.53828e-24)
(1.02237 -0.000613149 1.26734e-22)
(1.01851 0.00193095 0)
(1.06819 -0.0296988 -3.51734e-20)
(1.02198 -0.00160751 1.45197e-23)
(1.03873 -0.0121518 0)
(1.05585 -0.00663721 0)
(0.925557 -0.0168213 -4.18422e-20)
(1.03523 -0.0191464 4.11731e-21)
(0.78339 0.00303824 1.07547e-21)
(1.04948 -0.0108436 -6.31494e-21)
(1.03593 0.00432622 -5.84313e-21)
(1.04776 -0.00628795 0)
(1.01976 0.00163854 2.71965e-22)
(1.01943 -0.0341459 -8.18039e-22)
(1.03414 -0.0108561 0)
(1.019 0.000155594 -5.76481e-22)
(1.02162 -0.00219395 -2.74123e-22)
(1.07854 -0.0025179 0)
(1.0071 0.00222599 0)
(1.08642 -0.0249664 -2.5409e-22)
(1.01964 -0.000284688 -1.51572e-21)
(0.55341 -0.0515388 -2.64205e-20)
(1.02174 -0.00235778 6.75526e-25)
(0.355111 -0.00680326 -4.01626e-20)
(0.60755 0.00851642 0)
(1.04241 0.00298504 0)
(0.921156 -0.0144952 2.08822e-20)
(1.04784 -0.00631659 0)
(1.03265 -0.00899201 -3.12486e-21)
(1.02247 -0.000619391 1.07552e-22)
(1.02023 -0.000346964 1.60101e-22)
(1.02034 -0.000264818 0)
(1.07305 -0.0317352 -1.42955e-20)
(1.03093 -0.00748177 0)
(1.06945 -0.0242942 7.17825e-21)
(1.01957 -0.000246703 4.96661e-23)
(1.0229 -0.00601 0)
(0.828835 -0.050584 0)
(1.04157 0.00197955 0)
(1.01325 -4.38032e-05 0)
(1.02969 -0.0175609 1.96603e-22)
(1.02622 -0.00639996 0)
(1.02164 -0.00234095 4.3365e-23)
(1.02 0.000525307 -3.82552e-25)
(1.05058 0.00240847 0)
(1.01216 -4.78905e-05 0)
(1.03159 -0.0117131 1.16138e-21)
(1.02189 -0.000128573 0)
(1.02262 -0.000779353 6.97598e-24)
(1.02538 -0.012188 0)
(0.804681 0.0395291 8.78561e-22)
(1.04752 -5.56257e-05 -8.65797e-21)
(0.449326 -0.00359718 -1.04495e-20)
(0.880849 -0.0741517 1.95653e-20)
(0.777099 -0.000264454 -4.23014e-20)
(1.06546 -0.00899173 0)
(1.0154 0.0189215 -6.96317e-22)
(1.01926 0.00290089 -5.93193e-22)
(1.01643 -0.000318401 0)
(1.03087 -0.00714176 0)
(1.02239 -0.000667397 -6.67166e-22)
(0.784661 0.0448842 4.57878e-23)
(1.02011 -0.000357402 0)
(1.02473 0.000827665 0)
(1.02382 -0.00413337 -1.19484e-22)
(0.705371 -0.0128323 -1.274e-20)
(0.565894 0.0144361 -1.84398e-20)
(0.602004 0.0145323 5.103e-21)
(1.01808 -0.000394699 0)
(1.02466 -0.00666638 8.35877e-22)
(1.04784 -0.000453256 4.73409e-21)
(1.02523 -0.000445894 3.19375e-25)
(1.05587 -0.00390498 -2.07596e-20)
(1.01738 0.0196712 3.46019e-22)
(1.03983 -0.0273856 0)
(1.02995 -0.0208265 2.24434e-22)
(1.05931 -0.00339302 3.0833e-20)
(1.0173 -0.000116885 -6.54196e-23)
(1.0222 0.00212375 0)
(1.01717 -0.000115645 0)
(1.06852 -0.00274969 1.34252e-20)
(1.0331 -0.008407 -1.97095e-21)
(0.999933 -0.0229558 0)
(1.01857 7.86874e-05 1.3502e-23)
(1.03229 -0.00868092 9.04767e-23)
(1.06801 -0.0238417 -2.96995e-20)
(1.02019 -0.000244234 -2.3981e-23)
(1.06519 -0.0206599 -2.33597e-20)
(1.02573 -0.00289815 -1.45068e-21)
(1.02123 0.00338909 -1.14507e-22)
(1.07147 0.00169136 -8.44981e-21)
(1.06841 -0.00612133 1.01807e-20)
(0.847244 -0.000363074 0)
(1.0658 -0.00869329 -7.36304e-21)
(1.01792 -0.000366023 2.25146e-22)
(1.0201 -0.000632383 9.60272e-23)
(1.0266 -0.000533865 6.3695e-24)
(1.0509 4.23403e-05 -5.77233e-21)
(1.03083 -0.0185919 -5.85451e-22)
(1.03488 0.00195899 0)
(1.02317 -0.00641119 0)
(1.02441 -0.0119516 -4.77499e-22)
(1.01844 0.00326515 1.91655e-21)
(1.01532 -0.000107121 -5.73309e-23)
(1.02105 -0.000805428 2.11704e-23)
(0.712456 -0.0264419 -4.98834e-20)
(1.022 -0.000534208 -1.15211e-22)
(1.01909 0.000186214 -2.51717e-23)
(1.02249 0.000522641 2.96966e-22)
(1.01441 -0.0309749 0)
(-0.0263459 0.0415289 0)
(1.03543 0.00237086 -4.37523e-21)
(1.08588 -0.0114365 0)
(1.02299 -0.0035462 7.3634e-23)
(1.01259 -0.0453798 1.24284e-22)
(1.02474 -0.000794642 0)
(1.02252 0.000418042 -1.92079e-24)
(1.02239 -0.00250723 -1.41311e-23)
(0.461939 -0.102455 0)
(1.01528 -0.0310501 3.69143e-22)
(1.03265 -0.00818155 1.50337e-21)
(1.02318 -0.00397365 -2.16555e-22)
(1.0221 -0.000281785 8.32176e-22)
(1.02164 -0.00226637 -6.05154e-24)
(1.05013 -0.0620039 3.7542e-21)
(1.02964 -0.0181129 -3.88743e-22)
(1.02788 0.00311819 4.41693e-22)
(1.08418 -0.00784855 3.14959e-20)
(1.02515 -0.0293881 -1.35951e-21)
(1.01855 0.000305579 0)
(1.03161 0.0290648 0)
(1.07904 -0.0536186 2.01209e-20)
(1.02265 -0.000124105 0)
(1.02825 0.00319433 -5.84731e-21)
(1.05719 0.00245989 0)
(1.06827 -0.00659689 -9.44623e-21)
(1.02218 -0.000575764 0)
(0.761411 -0.000899251 0)
(1.02238 -0.0155951 4.30123e-22)
(0.974566 -0.011616 -5.85626e-21)
(1.0486 -0.017171 -3.41883e-21)
(1.02624 -0.0142588 0)
(0.983495 -0.0163763 2.18472e-20)
(0.582926 0.0141168 -3.89051e-20)
(1.07033 -0.00243727 0)
(1.01944 -0.000322885 -3.45572e-22)
(1.01959 -0.000236784 0)
(0.0335886 0.0310032 2.99479e-21)
(1.02934 -0.0188516 9.26219e-23)
(1.06496 -0.00896085 -1.31205e-20)
(1.03275 -0.00432768 -3.27257e-21)
(1.04388 -0.000683068 -7.37748e-21)
(1.02845 -0.00503497 3.75274e-22)
(1.02276 -0.00050254 -1.81712e-21)
(0.874581 0.0216327 -1.48236e-21)
(1.02846 -0.0133775 -3.84195e-22)
(1.02447 -0.0113934 0)
(1.08158 -0.0160266 -2.98439e-20)
(1.02231 -0.000533482 1.74802e-21)
(1.01639 -0.000258062 -1.24027e-22)
(1.01915 -0.000312364 5.2383e-23)
(1.08572 -0.0116036 0)
(1.04048 -0.0167632 -1.08389e-20)
(1.03605 -0.0128604 0)
(1.01832 -0.000218515 -7.27511e-23)
(1.01713 -0.000308957 -3.76476e-22)
(1.04776 -0.002511 0)
(1.02093 -0.000471446 -4.24319e-22)
(1.04183 -0.0462587 7.47057e-21)
(1.05878 -0.00346309 -1.62771e-20)
(1.01902 -0.000318811 0)
(0.914289 -0.0765721 -1.93862e-20)
(1.0132 -0.000140918 1.08749e-22)
(1.0437 -0.0452637 0)
(1.05676 -0.00383941 5.50984e-21)
(1.02565 0.000242665 -2.06202e-23)
(1.02702 -0.000738985 0)
(1.018 -0.000398002 1.41009e-24)
(1.07355 -0.00720672 -1.28072e-20)
(1.02415 -0.00268646 7.54577e-23)
(1.03138 -0.0177988 1.75461e-22)
(1.03648 0.00409074 3.00297e-21)
(1.03192 -0.0169551 0)
(0.905063 -0.0245074 2.19976e-21)
(1.02141 -0.00154866 -5.43217e-22)
(0.720241 -0.013164 0)
(1.03109 -0.0191748 0)
(0.835608 -0.0226862 9.95846e-21)
(1.04194 -0.00440147 0)
(1.02142 0.000794654 -1.13784e-22)
(1.05609 0.0021106 0)
(0.635555 0.0133381 -2.72701e-20)
(1.02525 -0.00562821 3.35057e-22)
(1.02656 -0.000318144 -9.29069e-24)
(1.0181 -0.000170211 4.52176e-23)
(0.596415 0.0131087 5.31656e-21)
(1.05586 -0.0715217 -1.84879e-20)
(1.03051 -0.0201182 8.24295e-22)
(1.02325 0.000690005 5.3933e-24)
(1.02123 -0.00147465 1.18245e-22)
(1.03151 -0.00524311 4.09532e-22)
(1.04069 -0.0261303 0)
(0.574922 0.014975 1.10395e-20)
(1.01606 -0.000148899 4.48906e-23)
(1.02561 -0.0123041 -7.17324e-22)
(0.772441 0.000405072 2.84712e-21)
(0.90743 -0.0177279 4.29306e-20)
(1.02112 -0.00043318 3.27883e-23)
(1.02919 -0.0159031 0)
(1.01203 -0.00601185 -3.84187e-21)
(1.03128 -0.0132226 -3.41461e-21)
(1.02327 0.000595701 -5.63233e-23)
(1.02254 0.00188443 0)
(0.774497 0.00059784 1.46865e-20)
(1.01803 -0.000383395 -1.00146e-22)
(1.03257 -0.0043105 -1.5659e-21)
(1.06214 -0.0154332 0)
(1.02157 -0.00214001 -1.22918e-22)
(1.02216 0.000292071 -1.62244e-23)
(1.03806 -0.0134868 0)
(1.01907 0.0297924 1.10265e-21)
(1.01051 -0.000114659 2.03344e-22)
(1.04799 -0.0111282 2.05448e-20)
(1.07517 -0.0387726 -4.36699e-20)
(1.01597 -0.0325152 2.15507e-21)
(1.01994 -0.00196637 -2.88012e-22)
(1.02325 -0.00474723 3.08814e-22)
(1.04415 -0.00030846 -7.97421e-21)
(1.03232 -0.00195911 -1.50543e-21)
(0.621801 0.0155965 2.73917e-20)
(1.00726 -5.02087e-05 9.77834e-24)
(1.0217 -0.0023135 -3.03182e-23)
(1.0201 -0.000314297 0)
(0.907828 -0.0104082 0)
(1.02145 -0.000371275 9.40601e-23)
(1.01729 0.000749111 0)
(1.01001 -1.02771e-05 2.29363e-23)
(0.796525 -0.0231556 0)
(1.02451 -0.0365146 0)
(1.02446 -0.00215613 -3.56814e-23)
(1.02997 -0.0358234 4.49028e-21)
(0.855678 -0.0294818 3.29291e-20)
(1.0273 -0.0086497 0)
(1.07123 -0.0116552 -2.87947e-20)
(0.166506 0.00101835 0)
(1.06932 -0.00406032 -1.22642e-20)
(1.07453 -0.0327962 -1.72332e-20)
(1.06344 -0.0177829 -5.52042e-21)
(0.565666 0.013089 0)
(1.04687 -6.98561e-05 8.51968e-21)
(1.06765 -0.00161556 0)
(1.02829 -0.0330333 -3.43601e-21)
(0.353094 -0.000937949 0)
(1.02099 -0.000950589 5.84167e-22)
(0.716817 -0.00405372 0)
(1.02798 -0.0133018 2.49609e-22)
(1.03119 -0.00521598 0)
(1.03583 -0.0051542 4.57048e-23)
(1.02603 -0.0061698 2.70799e-22)
(1.02391 -0.0039946 3.99555e-22)
(1.06144 -0.0138272 2.06878e-20)
(1.03046 -0.00833272 2.49905e-21)
(1.02479 -0.000909878 0)
(1.02597 -0.00538682 0)
(1.03928 -0.0299552 -9.92989e-21)
(0.920021 -0.0679594 -1.43639e-22)
(1.0655 -0.00622482 2.28139e-20)
(1.0192 -0.00238731 2.89688e-22)
(1.014 -0.000119288 0)
(1.02101 -0.000250725 -1.20357e-22)
(1.02695 -0.000792286 -3.88224e-21)
(1.01196 -0.0115788 1.30164e-21)
(1.03119 -0.017795 0)
(1.04916 -0.0106879 0)
(1.02169 -0.000510054 -3.40837e-23)
(1.03534 -0.00815093 2.64296e-21)
(1.02536 -0.0357506 0)
(1.02024 -0.000154642 1.01253e-22)
(1.02246 -0.0162592 5.32556e-22)
(0.521479 -0.0331795 3.35405e-20)
(1.02214 -0.000602286 0)
(1.01266 -7.05981e-05 3.31029e-23)
(1.02753 -0.0233342 -6.17029e-22)
(-0.0240476 0.0593372 -3.29093e-20)
(1.02497 9.43396e-05 0)
(0.954212 -0.0102845 -2.57849e-20)
(1.01892 0.00015277 0)
(1.02326 -0.00704206 1.23858e-21)
(1.01953 0.000327037 1.38838e-23)
(1.01762 -0.000366707 0)
(0.79226 -0.0365968 -5.7975e-20)
(1.06195 -0.0123539 1.82883e-20)
(1.04867 -0.01175 -1.1459e-20)
(1.03361 -0.00213022 -6.8005e-21)
(1.01683 -0.000211037 -8.33721e-23)
(1.02405 -0.00453657 2.12948e-23)
(1.02039 -0.000164413 -8.01895e-23)
(1.03559 -0.00544626 0)
(1.01698 -0.000280269 7.9335e-23)
(1.02399 -0.00630079 5.51756e-22)
(-0.0134561 0.0570727 -2.95247e-20)
(1.01851 8.24201e-05 0)
(1.02698 -0.00856785 0)
(1.02816 -0.00518805 -4.39324e-22)
(1.0304 -0.00804208 -1.17202e-21)
(1.02087 -0.000104469 7.33269e-23)
(1.06608 -0.00583881 4.76014e-21)
(1.02574 -0.00517002 0)
(1.01066 -0.0258024 0)
(1.02004 0.00180518 0)
(1.05716 -0.0291992 1.90044e-20)
(1.02564 -0.0059105 1.62715e-22)
(0.903744 0.0425887 9.91766e-23)
(1.0273 -0.0052139 -1.32774e-21)
(1.05219 -0.0350602 0)
(1.03535 -0.00575239 -6.33881e-21)
(0.777653 -0.0233797 -1.53729e-20)
(1.0355 -0.0031434 0)
(1.01746 -0.000214681 0)
(1.02245 0.00150125 9.00637e-22)
(-0.0186455 0.0405326 -1.63263e-20)
(1.03601 0.00337422 -5.45656e-21)
(1.04237 -0.015172 4.6822e-21)
(1.07304 -0.0304872 0)
(0.790249 -0.0139915 -2.51555e-20)
(1.06207 0.00238232 0)
(1.0684 -0.0462094 3.75959e-20)
(1.02094 -0.000964213 -1.19251e-21)
(1.04866 -0.0160994 -7.79122e-21)
(0.768785 -0.000244645 4.37405e-20)
(1.05694 -0.0158381 -3.43667e-21)
(1.05171 -0.00274469 7.74754e-21)
(0.57856 0.0158115 0)
(1.02504 -0.00061887 0)
(1.01951 0.000258998 -2.51359e-23)
(1.01973 -0.000204337 0)
(1.03606 0.00296232 2.45766e-21)
(1.02854 -0.0026045 3.86758e-21)
(1.04743 -0.0045848 0)
(1.01981 -1.7962e-05 0)
(1.02904 -0.00705898 -1.32447e-21)
(1.0493 -0.0180491 7.81914e-21)
(1.02556 -0.00228953 -3.00204e-21)
(1.02374 -0.00741359 -6.72401e-22)
(1.02659 -0.00100448 1.24695e-21)
(0.816458 -0.0133479 0)
(1.01787 -9.7332e-05 5.94284e-24)
(1.02253 -0.00303897 0)
(0.783656 0.000420412 2.73615e-21)
(0.527681 0.0132253 7.51981e-21)
(1.02173 -0.00209207 -5.95269e-23)
(1.02721 0.00075227 0)
(1.01914 0.000465687 1.13197e-24)
(0.866417 0.0229446 0)
(0.835547 0.00106235 0)
(1.03455 -0.0103298 2.89895e-21)
(1.02233 0.00169054 -8.35522e-22)
(1.02806 -0.00451401 0)
(1.02498 -0.00206558 1.75796e-23)
(0.981426 0.0199321 2.49631e-22)
(1.03202 -0.0120454 0)
(1.03627 -0.0137289 -8.44099e-21)
(1.03529 -0.0208795 -1.23708e-21)
(1.02699 -0.00188881 6.42583e-23)
(1.02232 -0.00075793 1.08525e-21)
(0.741764 0.0168325 -8.80811e-22)
(1.02597 -0.00650982 -1.2631e-22)
(1.01842 -0.000158653 4.67102e-23)
(1.07823 -0.0054414 3.67038e-21)
(1.02971 -0.0157934 0)
(1.03314 -0.00217731 9.6006e-23)
(0.965376 -0.00917417 -1.49098e-21)
(1.07417 -0.00786836 6.55063e-21)
(1.03034 -0.018415 4.16164e-22)
(1.0237 -0.00125442 0)
(1.02408 -0.00404199 -2.35724e-23)
(1.02871 -0.0190526 6.40175e-23)
(1.01704 -0.000334141 1.71677e-23)
(1.03157 -0.0017834 -2.82497e-21)
(0.630414 -0.0174574 -4.08479e-21)
(1.0225 -0.00292377 0)
(1.06922 -0.00375921 -1.60134e-20)
(1.02221 -0.000634802 0)
(1.02433 -0.001061 0)
(1.01858 -0.000156859 -4.50116e-23)
(1.0218 0.000280134 0)