/*--------------------------------*- C++ -*----------------------------------*\
| =========                 |                                                 |
| \\      /  F ield         | OpenFOAM: The Open Source CFD Toolbox           |
|  \\    /   O peration     | Version:  v2012                                 |
|   \\  /    A nd           | Website:  www.openfoam.com                      |
|    \\/     M anipulation  |                                                 |
\*---------------------------------------------------------------------------*/
FoamFile
{
    version     2.0;
    format      ascii;
    class       volScalarField;
    location    "150";
    object      ddt0(k);
}
// * * * * * * * * * * * * * * * * * * * * * * * * * * * * * * * * * * * * * //

dimensions      [0 2 -3 0 0 0 0];


internalField   nonuniform List<scalar> 
14315
(
5.52793e-07
0.000194823
2.27932e-08
-1.59525e-08
-1.43966e-08
1.15442e-08
-4.09003e-09
2.84476e-09
0.000247868
8.80144e-09
-2.57564e-10
-8.2726e-08
-0.001198
8.10123e-09
-5.36592e-09
1.42476e-08
2.236e-09
0.000748846
-1.31701e-08
5.24133e-09
-7.64128e-08
5.2426e-09
-5.09286e-09
-3.38893e-09
0.00112983
-1.9348e-08
5.87625e-06
1.36623e-08
1.27739e-06
5.89379e-09
3.259e-08
2.62751e-09
2.63541e-05
-2.12519e-08
-2.77146e-08
5.2222e-09
5.77597e-09
-2.99614e-08
3.47991e-09
4.33303e-08
8.63032e-05
-2.94215e-08
-5.43055e-09
6.79125e-08
-3.74093e-08
4.39922e-08
1.60716e-08
8.19545e-09
2.4329e-10
-2.20062e-08
-8.16619e-10
-8.84972e-09
-2.5146e-09
5.87016e-09
-9.72953e-09
2.23749e-08
1.07999e-05
-8.88233e-09
-4.38662e-08
0.000908594
1.27287e-09
4.66781e-08
1.28303e-07
-2.14084e-09
-6.16412e-09
1.6023e-09
-2.02938e-09
4.38054e-08
-2.3572e-08
3.03282e-09
-6.37772e-09
-2.79938e-09
-4.64037e-09
-4.2963e-08
-3.62639e-09
-3.47085e-08
-1.11706e-08
1.79757e-08
1.806e-09
-1.86882e-07
6.0579e-10
-0.000640785
6.03556e-09
-3.05574e-10
-3.17778e-09
-0.000389067
-8.46875e-09
-4.01441e-09
-1.27761e-08
-9.08338e-10
3.71164e-08
0.000246748
-0.00153027
-6.68752e-09
-1.13048e-08
-1.26942e-10
2.04972e-10
-1.33912e-09
-1.04066e-08
-3.4018e-08
1.49047e-08
-2.92823e-07
-2.2557e-09
3.25698e-09
-5.53369e-09
1.47869e-09
2.79634e-08
-7.69058e-09
8.63273e-09
1.04653e-07
1.88751e-08
9.0841e-08
-3.50048e-08
-1.42667e-07
8.54066e-09
5.7363e-08
3.79759e-08
-2.92024e-08
0.000338335
-0.000269728
-4.37162e-09
1.06358e-08
-1.00858e-08
3.07751e-08
4.49652e-06
1.05408e-08
0.00038084
5.98441e-07
1.50918e-08
1.73442e-08
7.14674e-08
5.97994e-05
-2.83525e-05
-0.000468063
-4.10357e-08
1.2111e-08
0.00063669
-5.04584e-07
-0.000215777
0.000482563
2.22401e-07
1.86064e-05
1.88395e-09
-3.54008e-05
1.38838e-05
-2.3915e-08
-2.50105e-08
-2.12186e-09
1.6037e-08
9.97377e-08
4.64314e-09
-1.0438e-09
-3.8932e-09
7.44273e-07
5.39327e-10
2.27696e-08
-6.24229e-09
1.32538e-07
-1.93964e-05
4.69392e-07
-3.0338e-08
4.94581e-08
6.38128e-06
3.16943e-08
-4.82811e-09
-0.000280187
8.18846e-09
3.67259e-09
-7.51241e-09
1.38618e-08
0.000239052
-1.99479e-05
1.5542e-08
-1.18488e-08
0.000955145
-0.000305232
1.87972e-07
1.02949e-08
3.27061e-08
-1.86135e-07
-1.04021e-05
2.47835e-08
-3.01076e-09
5.24706e-08
-6.67683e-08
-0.000902003
4.01671e-08
2.66303e-08
-2.9704e-08
1.1209e-08
-2.92836e-08
0.000460308
-2.55157e-06
6.18412e-10
-3.40678e-09
8.77758e-09
-0.000457925
3.61981e-08
-3.49053e-08
6.2029e-08
8.67374e-06
-3.33479e-08
-7.26605e-07
-6.89392e-09
-1.62866e-08
2.99175e-09
-3.01341e-08
-5.67372e-08
-6.32076e-09
4.10039e-09
-2.86645e-08
-2.86501e-08
-1.18439e-07
2.67046e-09
5.49486e-05
4.01864e-08
6.70643e-06
4.57483e-08
-2.21572e-08
-1.17537e-08
3.44488e-06
1.60666e-08
-1.3715e-06
0.000134981
8.3967e-09
-2.03261e-08
4.72743e-08
5.98131e-08
-2.09034e-09
4.44214e-08
1.51533e-08
0.000118271
2.1242e-08
-6.02132e-07
-3.61609e-09
-1.85802e-08
1.35013e-07
5.54053e-09
-2.01848e-09
0.00064928
1.64144e-06
7.56069e-08
-4.28752e-09
-2.97878e-05
9.73768e-07
2.60095e-09
-0.000164958
-1.50518e-10
1.88194e-09
-7.30958e-10
-9.46215e-09
-5.51789e-09
-5.35793e-05
6.12869e-09
-6.31783e-09
-0.000565934
0.000792965
8.44857e-08
1.22787e-05
3.28974e-08
2.43236e-08
-9.92235e-09
3.29759e-08
0.000225357
-8.58734e-09
-1.56036e-06
-9.72998e-09
8.20403e-07
-7.86991e-08
3.67262e-08
2.06438e-06
-6.94283e-09
-4.2261e-09
-1.98558e-09
-8.52108e-09
-1.81753e-09
9.6099e-06
1.10775e-09
9.04165e-09
-9.84809e-08
-7.34862e-09
3.13429e-08
1.79998e-08
1.02845e-07
-9.91757e-09
0.000459379
-0.00066144
5.61185e-08
-5.04753e-10
3.08199e-09
3.33137e-07
9.7317e-09
-1.9444e-09
1.68906e-06
4.37496e-09
6.37318e-08
-2.86655e-09
8.19403e-06
2.94471e-09
2.70268e-06
2.31161e-08
7.54049e-09
-5.36407e-08
1.22166e-08
-1.29622e-08
-2.78705e-09
1.1401e-08
2.48715e-08
-3.13028e-08
1.36634e-07
1.08234e-09
1.28288e-09
7.26162e-08
7.339e-08
1.04005e-08
-0.000970348
-0.000202162
4.70294e-08
-8.61501e-09
0.00105308
5.03313e-08
-1.34128e-09
7.55444e-06
-3.61824e-08
8.88479e-10
5.39221e-08
6.04486e-06
-6.40422e-09
-0.000615504
-7.97657e-10
0.000738761
-5.51028e-07
0.00024613
-4.05521e-05
0.000123072
-3.61478e-09
1.10699e-05
5.807e-08
0.000959516
7.10345e-09
1.66755e-08
0.000347327
1.38398e-05
1.42495e-09
-4.21814e-09
0.000999373
9.20345e-06
0.00017321
2.89812e-09
9.85979e-09
0.000524985
-6.75471e-05
-3.51981e-09
-2.04263e-09
-1.22981e-07
1.48356e-07
5.04061e-08
0.0013571
-0.000267278
-1.17878e-09
1.24357e-08
9.69928e-06
-3.98259e-10
6.88269e-09
-2.29318e-09
5.25663e-08
6.74307e-08
1.16722e-09
2.05018e-09
-9.58097e-09
-2.65859e-06
-0.000141325
-8.75806e-08
-0.000908409
-1.99796e-09
3.45899e-08
5.85237e-06
-5.35717e-05
1.56658e-08
-3.26791e-09
-1.4474e-08
3.97011e-08
2.29919e-05
-3.22167e-09
-4.6792e-09
4.82555e-10
6.91981e-06
-1.13483e-08
-0.000400199
-7.69897e-09
0.00107196
4.61367e-08
1.68139e-09
-1.14248e-09
-4.41399e-08
1.95789e-08
-3.40221e-09
-1.60983e-08
-2.28163e-08
5.84699e-08
-7.1832e-09
8.09251e-09
2.00472e-06
4.66555e-08
0.000159899
-4.23024e-05
0.000658145
6.32592e-08
2.32772e-08
1.15577e-08
-2.36046e-09
2.90147e-08
1.75184e-09
1.16785e-05
6.75206e-08
5.12592e-08
2.12966e-08
1.44161e-08
-5.2727e-09
-0.000704689
2.89219e-06
0.000103177
-2.13088e-07
1.19446e-08
1.98523e-09
5.79784e-08
5.08346e-08
-2.33229e-08
1.38731e-05
6.13058e-05
3.97161e-06
4.58561e-09
2.17893e-09
-6.8479e-07
3.73186e-08
-1.18426e-09
0.0002904
-1.4551e-06
3.95813e-08
6.88792e-09
-1.40304e-06
3.99744e-10
4.53608e-08
-3.41799e-06
0.00112214
-1.97041e-07
1.28005e-09
-2.12417e-09
-3.50277e-09
6.08521e-09
-2.98213e-08
5.35287e-11
-0.000268251
-0.000481562
-2.4465e-09
0.000403695
5.17744e-11
-4.06924e-09
-2.96939e-08
-3.67057e-08
-0.000671171
2.08086e-08
-8.85388e-08
-0.000202334
-5.60263e-07
1.3946e-09
0.000762843
0.000676082
4.49521e-08
-6.03164e-09
-2.27974e-07
4.86249e-08
6.29179e-09
-4.12237e-09
5.98815e-09
1.39926e-08
8.93729e-08
-0.000183799
8.70859e-08
-6.10417e-09
3.946e-07
-3.6863e-09
-0.000198705
5.4254e-08
1.05095e-08
-0.000958334
-7.51777e-07
-1.15461e-08
0.0002006
-2.9435e-08
0.000908371
-2.16309e-08
-8.63999e-09
-3.15674e-08
0.00073132
3.5523e-08
3.41509e-06
5.05555e-09
-1.77525e-08
8.1795e-09
0.000321478
5.28426e-09
5.89997e-05
-2.11289e-09
-7.23405e-06
-4.95768e-09
1.02219e-09
-6.29843e-09
4.71374e-08
-6.97382e-10
-5.05677e-07
2.25621e-08
9.04908e-09
-0.000159451
3.6667e-09
3.54544e-08
4.3551e-08
-1.38546e-06
2.51943e-09
6.11071e-06
4.616e-09
-2.5389e-05
2.2726e-06
0.000701463
1.13584e-05
-1.47195e-07
5.89871e-08
1.02712e-07
0.000635158
-3.56295e-08
3.8764e-09
-2.27232e-06
2.61296e-09
5.21689e-09
3.87067e-09
1.04537e-08
1.09947e-07
-1.30988e-09
0.000223807
4.76007e-10
-5.99001e-09
0.00052631
1.26095e-05
3.79268e-09
8.76561e-09
1.9052e-09
-3.30763e-09
8.55153e-09
0.000280913
9.1812e-09
-6.02457e-09
1.19419e-08
-5.90491e-09
-7.72619e-09
-1.43496e-07
-2.4527e-08
2.68823e-08
3.86328e-08
-2.6396e-08
9.21418e-10
3.74041e-08
2.20712e-06
3.5702e-08
0.00116263
0.000225387
-2.42156e-09
9.18893e-09
-5.04208e-08
-0.000462656
5.25117e-08
-1.68287e-08
-1.87543e-09
1.17029e-07
7.10219e-10
4.44072e-05
3.67981e-08
4.62965e-07
-7.15538e-09
-1.85468e-06
0.000825985
6.25752e-09
0.000731988
-3.51815e-07
2.20774e-07
-4.43031e-09
0.000665142
1.85996e-09
-1.62116e-06
3.55228e-09
-0.000235769
-6.19995e-09
1.11799e-08
-1.20273e-06
0.000448849
0.000733296
1.16629e-05
1.57679e-08
-3.11245e-09
0.000780841
5.42819e-08
-0.000944273
4.78252e-08
-1.03118e-08
6.94448e-09
-5.32288e-09
-1.44326e-08
3.50487e-08
2.85974e-08
1.49771e-08
-1.97675e-09
2.65215e-07
-2.20865e-09
-8.81083e-08
-1.92018e-09
-2.79169e-09
9.52004e-08
-1.10817e-08
6.29707e-05
-5.42538e-08
-2.53538e-08
-0.000273793
-5.70709e-09
-1.76334e-06
-0.000310427
-1.0508e-08
-1.77806e-09
1.68672e-08
5.57339e-05
1.17225e-07
-9.90003e-09
1.46985e-05
9.99632e-07
3.48143e-08
-0.000108542
-1.08545e-09
7.45313e-08
-6.48251e-09
4.12426e-05
-4.22083e-09
-1.66487e-09
5.37005e-08
-2.09523e-09
-1.43641e-07
2.1423e-08
2.23672e-07
-2.98561e-06
1.3338e-07
-7.97959e-10
4.51625e-08
1.21168e-07
-4.68957e-06
2.5227e-08
0.00223565
1.46777e-09
1.57643e-07
8.71015e-10
-0.000323313
-8.07996e-09
4.38571e-07
-3.74341e-09
0.000293483
-6.75545e-09
-1.16757e-07
0.000110428
-6.54296e-09
-5.40685e-09
0.00011373
-6.27199e-06
2.23496e-09
-1.48998e-08
-1.78426e-07
-6.30739e-05
0.00021734
-1.21145e-08
-0.000455608
-3.46599e-08
1.31458e-08
-4.82124e-09
0.000157862
-1.69274e-09
1.45568e-08
-4.71876e-09
-4.23755e-09
4.407e-08
0.000561133
-0.000320148
-6.978e-09
1.28417e-08
-3.55634e-08
8.66261e-08
7.58999e-10
0.000222811
-1.26904e-08
-1.04365e-08
1.48694e-08
-3.0591e-09
-5.83034e-09
-0.000990424
-3.20636e-07
0.000996072
3.39563e-09
4.29317e-09
2.04997e-09
1.0834e-08
4.02054e-09
2.24237e-07
1.13916e-09
3.43073e-10
1.59379e-05
0.00100123
-2.06764e-06
-2.66928e-08
-1.28176e-08
0.00101846
7.69986e-05
4.71756e-09
-0.00025793
-8.43585e-09
9.49853e-08
2.51001e-07
4.66932e-08
-1.90846e-08
-0.00128874
0.000166228
3.53107e-08
-7.17262e-08
-8.66311e-09
-2.35998e-08
7.71476e-08
0.000399052
4.39031e-09
2.31888e-07
6.23974e-06
-2.24942e-07
-9.44748e-08
0.000341704
0.00105384
-7.43399e-09
-1.81004e-08
2.075e-08
-3.16416e-09
2.00572e-08
7.07127e-10
7.19374e-08
-9.7476e-05
-7.14376e-09
-1.83517e-08
-2.78093e-09
-0.000458141
1.70509e-09
1.10237e-08
-8.39853e-06
4.36937e-08
-2.31461e-09
3.87445e-08
0.000771968
4.90733e-05
0.000598206
7.5874e-09
-2.28086e-09
0.000225029
-0.000745872
9.48612e-05
-9.90091e-08
3.3891e-08
0.00117162
-1.44646e-09
3.5011e-09
1.249e-06
0.000375687
-1.31934e-08
1.39483e-09
0.000108369
-2.85159e-09
2.01045e-08
-3.49374e-09
0.000127351
-3.23093e-09
2.68343e-08
-0.0012815
3.99372e-09
6.24153e-07
1.04245e-08
8.16804e-10
-1.34604e-08
-3.22808e-09
0.0003573
0.000623138
1.03331e-07
-5.45827e-09
2.40251e-08
0.000454212
-1.08625e-08
2.53001e-08
9.37938e-08
5.91973e-06
0.000526164
-5.18633e-09
3.51727e-06
2.42258e-09
-3.09576e-09
-1.33282e-08
1.15684e-06
0.000168694
-1.22657e-06
1.26697e-08
-7.21124e-10
5.07956e-10
5.94887e-06
1.10738e-08
-1.4814e-08
-6.9453e-09
-5.83729e-05
0.000748835
-6.60321e-09
5.25651e-08
-0.000145175
4.56051e-08
-7.33989e-10
4.40683e-08
2.24133e-07
0.000170576
3.12528e-10
-4.91521e-08
-4.80723e-08
-0.000101822
3.35804e-08
-4.03132e-10
6.85252e-08
-2.34935e-08
-1.94281e-08
4.13719e-08
1.25612e-08
7.4311e-06
-1.36261e-05
0.000133617
1.71656e-08
-8.73657e-09
-2.14873e-05
1.91466e-08
-7.40108e-09
-0.000887245
-1.41615e-06
1.57771e-08
-2.25903e-09
3.46472e-08
-8.48853e-09
-6.14165e-05
-1.17678e-08
1.71716e-09
8.20367e-09
-2.81206e-08
1.8539e-07
7.02028e-08
6.67019e-09
-8.41761e-08
-0.00020387
2.98552e-08
0.00117571
-3.61399e-09
-5.7294e-08
1.41713e-08
-3.97892e-08
3.84664e-08
-5.88039e-10
-8.15107e-09
1.44809e-08
-1.05993e-07
2.21504e-05
-1.40718e-05
2.99536e-08
-5.11647e-09
-7.99875e-08
-0.000209514
5.13412e-09
-7.88003e-09
-1.07878e-09
-2.36086e-08
9.9751e-05
-0.00060184
4.32543e-08
-5.02497e-07
-3.524e-09
1.25477e-05
0.000138704
-0.000935613
2.17687e-07
-3.47058e-09
-0.000371665
-7.12758e-05
-2.06389e-08
-1.05307e-09
-5.73164e-08
-4.32273e-08
-0.000261297
-7.81382e-08
2.44395e-08
-3.04237e-09
-2.9149e-08
4.87707e-08
7.14774e-06
-1.73634e-06
-1.12966e-08
0.000658939
-2.18238e-08
-1.91916e-05
-2.21603e-09
-3.04973e-06
-4.81913e-09
-2.12254e-09
8.91624e-08
-5.02343e-08
-1.73281e-05
8.86729e-09
-5.90605e-08
5.18005e-08
-1.2541e-08
-3.4108e-09
0.000726093
-5.64535e-09
-4.07456e-09
-1.85217e-09
9.81732e-09
7.43846e-11
1.08701e-08
-2.71913e-08
-6.63502e-06
-2.45875e-09
-5.47666e-09
6.4216e-10
7.63809e-08
-4.42124e-09
-3.31945e-09
1.86008e-06
0.00092109
-4.39018e-09
0.00026743
-2.64422e-09
0.000675853
-2.81373e-08
6.20257e-09
1.4587e-08
4.52943e-08
0.000147718
-2.24162e-06
-0.000218041
0.000265856
-0.000183071
7.52799e-08
-4.12911e-07
-5.59656e-08
0.000212854
-0.000874596
-3.84564e-09
8.08693e-08
-0.000517902
-2.78293e-08
3.63325e-09
-0.000422184
7.2258e-09
-0.00478562
5.38763e-09
0.000759247
1.73225e-05
4.25509e-08
-1.03228e-09
-6.82081e-06
-9.57884e-10
5.58143e-09
-2.29911e-08
0.000661579
-6.37574e-09
-5.65055e-09
-3.20074e-09
0.000835526
1.36395e-08
-3.68357e-09
-2.44148e-08
1.00562e-08
-1.86214e-08
-3.12264e-09
-2.14128e-08
-0.00073031
0.000374832
1.8012e-06
-2.18675e-09
-1.67594e-08
-2.50699e-08
0.000387974
-2.49177e-08
5.79319e-09
2.89242e-07
3.23009e-08
7.95433e-08
-0.000432119
1.44843e-08
-7.90313e-09
-2.34175e-08
2.44118e-09
0.000808591
6.54513e-09
-3.63457e-08
7.18015e-10
0.000229708
4.26428e-09
-3.15334e-07
-0.00236939
8.79171e-09
1.46521e-07
9.73943e-08
-1.82187e-06
8.1655e-08
-5.83603e-09
2.28749e-06
-7.01141e-09
1.07217e-08
-6.86316e-09
-5.34935e-09
-1.83098e-08
0.00037187
-2.51617e-08
0.000807627
9.73983e-08
1.24672e-08
0.00114693
-3.44785e-09
3.30613e-08
-1.97879e-09
8.48922e-09
-9.84101e-09
-4.48714e-09
-1.07128e-08
-2.60444e-09
0.00131149
-6.21861e-05
-2.51733e-09
0.000899731
-1.64351e-08
-4.25249e-09
7.12117e-09
-1.60993e-07
2.35672e-08
1.13646e-07
-3.54518e-09
2.63587e-08
-9.15069e-08
-0.0004679
9.7051e-08
0.00045557
-6.84299e-08
1.90836e-07
-0.000572216
6.08823e-11
-1.0627e-08
2.10617e-08
5.96584e-09
1.17092e-07
-1.55394e-09
-1.48166e-08
-5.32392e-08
1.82483e-08
3.55725e-05
4.77452e-08
8.29174e-06
3.73316e-07
0.000114661
-1.00459e-07
2.85606e-07
4.84543e-08
-1.65952e-08
2.23363e-06
0.000743289
0.000818733
-1.29202e-08
-2.30089e-08
1.67287e-07
5.73293e-08
1.04103e-07
-3.64827e-09
7.63305e-09
-1.29264e-08
-4.18105e-08
1.61207e-08
-1.86935e-08
6.28498e-05
0.00116822
8.68656e-08
3.52436e-08
-8.01997e-09
-1.46061e-08
-1.61977e-08
1.76989e-09
5.11738e-09
8.24242e-06
0.000497872
1.179e-08
-0.000150826
1.76514e-08
-4.89946e-09
7.29514e-05
-1.28279e-06
8.0237e-09
-1.46555e-08
-8.60829e-08
-5.98266e-09
1.94626e-08
-1.47712e-08
2.19858e-08
-9.02761e-09
0.000700149
3.74762e-07
-3.74205e-05
-4.04777e-09
-1.74449e-06
-1.55783e-06
-4.29957e-09
8.20486e-09
0.00013834
1.28804e-06
-2.47934e-09
-4.91823e-09
-2.29589e-09
-0.00014598
-1.73079e-08
3.42539e-09
0.00118633
2.31335e-05
-1.65435e-08
1.6116e-08
1.18705e-08
3.38514e-08
1.92331e-08
-0.000524257
1.97071e-08
9.98086e-09
-2.45816e-10
-2.49645e-05
9.54299e-09
0.000439485
-0.0038542
-9.6202e-11
4.07186e-09
9.93108e-07
5.31841e-09
-3.32571e-09
0.000102837
-2.20966e-09
2.83564e-09
-7.16708e-07
0.000781249
-1.36278e-08
-0.000281569
-4.59592e-09
-2.28196e-09
-2.97258e-09
-0.000261716
-8.68426e-07
4.18448e-08
2.82682e-09
-0.000728583
-2.94723e-08
-5.9737e-09
-2.53402e-08
-2.06796e-06
1.20297e-07
3.15464e-05
-2.40616e-08
1.68673e-08
4.17807e-09
3.88487e-05
-1.63393e-08
-1.26237e-08
-1.0493e-08
4.31555e-09
6.73972e-11
-6.86337e-09
7.47238e-08
9.46938e-10
6.15594e-09
1.0726e-07
-1.36932e-09
-1.92512e-05
-2.69417e-08
1.56593e-07
5.57767e-08
-1.11201e-08
-2.83545e-08
7.2368e-08
1.91601e-08
-2.37158e-08
7.61029e-05
-3.40784e-09
-1.62858e-08
0.000142139
-1.79025e-08
-0.000805593
-1.34902e-09
0.000184897
6.79748e-09
-2.2259e-08
8.83862e-09
1.13671e-05
3.93544e-09
7.38301e-08
-1.26271e-08
-1.02965e-08
-2.95112e-10
4.48058e-08
5.08759e-05
-0.000582629
3.94769e-09
9.59262e-09
-8.04173e-09
-6.29548e-10
5.76475e-08
-4.07861e-09
0.00031778
1.20002e-08
1.74344e-05
1.1648e-07
3.37477e-05
-9.64368e-09
1.15533e-08
-1.86634e-08
1.62102e-08
-3.33132e-09
-3.3403e-09
3.99157e-09
-3.09401e-09
1.64502e-09
0.000140084
0.000667365
-2.46648e-08
-3.67486e-09
-5.39481e-08
9.23053e-05
8.19379e-07
-3.16545e-08
3.53291e-09
-0.000636515
1.72698e-08
1.11126e-08
-7.47044e-09
-5.51435e-09
2.4573e-08
-9.3955e-06
4.55872e-09
2.44764e-08
1.74185e-07
-5.31963e-09
-1.79973e-05
-2.57825e-09
0.00111295
0.00117143
2.2064e-08
1.73083e-09
-4.10775e-10
5.42215e-09
-1.56044e-08
-9.27358e-08
-4.71392e-09
-6.54843e-09
-4.27429e-08
7.60788e-06
4.98943e-08
-6.86761e-05
-2.50377e-09
-3.38829e-09
0.00299818
-3.58383e-06
-1.55472e-08
6.7715e-10
0.000394151
-4.64899e-08
-2.77331e-08
0.000657046
-2.10918e-07
-1.11288e-08
0.00033644
-1.18017e-09
-8.53093e-09
8.89765e-09
0.0004698
7.03642e-09
-7.15228e-10
1.71256e-08
-0.000337591
-2.53081e-08
7.08908e-08
-6.63365e-09
1.30842e-09
5.24483e-08
1.4492e-08
-1.80764e-08
8.6877e-08
5.35067e-09
-3.35036e-08
6.01785e-08
7.52073e-08
-3.64653e-07
-0.000270324
-7.56519e-09
-0.000280748
-5.64331e-08
0.000238772
3.3979e-05
-0.000424172
-1.43394e-09
1.55599e-09
-5.71103e-08
4.04629e-09
6.09743e-09
8.12974e-09
0.00109906
8.64036e-07
3.24827e-08
9.20461e-09
-2.17823e-08
3.73788e-06
-2.59675e-06
-5.63241e-08
-2.62295e-08
-1.2281e-08
-1.83077e-08
0.000486374
7.38393e-07
1.7576e-08
-0.000975161
0.000400495
-5.72171e-10
-2.65634e-09
-7.61182e-09
-8.60525e-10
3.61534e-09
0.00130535
7.86995e-08
1.53474e-05
2.46395e-09
-5.46613e-09
-1.71917e-08
1.54835e-10
3.9153e-09
-5.45745e-12
6.25215e-08
9.89869e-05
-6.95033e-08
-6.58068e-06
-2.61894e-09
0.001041
0.000284249
-1.2403e-07
0.00108298
-4.33703e-07
-8.9172e-10
2.20609e-08
0.000202532
1.12273e-09
6.1316e-08
-4.82577e-09
3.12464e-08
-1.24282e-07
-1.05199e-08
-6.082e-09
-2.10255e-09
2.1354e-09
2.07957e-08
0.000439803
6.7951e-09
3.95502e-10
0.000247344
3.94539e-09
-2.72667e-08
0.00056313
1.56076e-07
-9.40285e-09
0.000495496
-7.84875e-06
-1.37104e-08
0.000470093
-0.00105285
-2.319e-05
2.8553e-06
1.6192e-08
1.32349e-07
1.40645e-07
3.21965e-05
-4.11092e-08
-2.17931e-08
5.9053e-06
-3.71397e-08
8.38073e-10
-1.13502e-08
5.6935e-08
4.20824e-08
-8.27847e-09
-8.58196e-09
-2.50905e-09
-2.02271e-08
1.25e-08
3.70636e-08
-6.4476e-10
-5.94113e-09
8.46621e-09
1.04971e-08
-1.57657e-08
-1.97345e-08
-4.83226e-05
-9.56715e-07
5.54718e-08
-6.37411e-09
2.88204e-08
-8.74902e-09
5.01316e-09
-7.55048e-09
4.50405e-09
0.000112756
4.27255e-09
-1.78606e-07
1.39846e-07
0.000685794
3.84269e-07
-0.000255526
-1.9875e-09
-4.25278e-06
-2.78894e-08
-2.20945e-08
-2.60039e-05
1.33743e-09
-0.000322441
-9.20845e-09
3.91832e-08
6.02809e-08
-2.8907e-09
-1.96157e-08
-1.61799e-07
1.42147e-09
-1.13305e-05
-2.173e-08
1.68851e-07
-8.04366e-10
-3.23554e-09
0.000685595
0.000907304
-0.000362388
1.2206e-08
2.67846e-06
0.000435627
-8.51584e-09
-1.23991e-07
1.32164e-08
-1.52466e-08
-2.20334e-09
0.00075526
1.71085e-05
7.32467e-05
2.34497e-08
1.91678e-08
-2.0935e-08
-1.52693e-07
-5.25978e-08
2.82696e-09
-1.09558e-07
-4.1211e-07
-9.67984e-09
-2.94303e-08
-1.93379e-08
-3.70143e-08
-3.10313e-08
7.40676e-09
-0.000174528
2.11476e-05
0.00119452
-1.93751e-08
2.64035e-08
1.4034e-07
5.63877e-08
-1.36706e-08
-8.90768e-07
4.38813e-08
-2.44717e-06
3.63456e-08
2.84737e-05
2.86298e-09
-2.42845e-08
-1.10796e-09
-3.18228e-08
6.358e-08
-1.10769e-08
1.93439e-05
-4.91638e-09
-8.94462e-08
4.30559e-09
-1.22185e-08
0.00138529
-5.48775e-07
-9.17875e-08
6.14999e-07
-0.000334788
-1.52176e-05
-6.21186e-06
7.60642e-05
-1.51485e-06
-3.22483e-07
-2.49614e-08
-3.21554e-08
-1.61247e-08
-4.55799e-08
-7.09508e-07
-2.16754e-08
-1.6805e-05
-9.74108e-09
4.83963e-08
-7.32162e-09
-9.47999e-10
2.16626e-09
2.34529e-09
3.96034e-09
0.00096537
-6.80552e-08
1.41904e-09
5.98613e-08
-5.58127e-08
-4.26769e-08
-1.41195e-06
-1.00338e-05
-1.45306e-09
2.4171e-09
1.61147e-09
-1.46328e-07
0.00016964
-4.19158e-09
7.11478e-06
-6.12378e-10
1.62137e-08
-0.00013927
2.51594e-08
-2.37233e-05
-5.71588e-06
4.0496e-08
0.000635849
7.89803e-09
-1.69627e-05
3.82123e-06
0.000986307
-7.47846e-09
-2.33664e-08
4.44483e-09
-0.000989472
8.13615e-10
-0.000283988
4.2697e-08
-2.97291e-08
6.59868e-08
4.8303e-08
0.00115494
-2.91276e-08
-2.45616e-08
1.61047e-08
4.97742e-08
-2.35198e-09
-1.87238e-08
0.000118777
-1.75203e-07
-4.69056e-06
-4.99332e-08
-4.08144e-09
-1.25152e-08
0.000109238
-0.000429261
1.41858e-08
2.38281e-08
0.00102699
0.000666552
-4.29584e-09
-3.55726e-09
-4.35863e-09
-6.82264e-09
-3.67713e-10
2.01479e-08
-5.0009e-09
0.000565555
5.99326e-08
2.98166e-08
2.6115e-07
-0.000234553
-1.34793e-09
8.38119e-09
5.21822e-05
-0.000822747
1.54104e-08
1.11593e-10
-4.68957e-06
-1.19062e-08
3.57321e-08
1.70418e-08
-5.05236e-08
2.18284e-08
-5.97204e-05
9.68586e-09
-8.75672e-09
-1.55154e-06
-9.63161e-05
-0.000586959
-2.73709e-08
6.90946e-09
-1.22065e-09
-3.80166e-06
-4.61299e-09
9.89679e-08
3.29533e-09
6.69797e-08
6.56504e-08
0.00152596
0.000752726
1.44785e-08
8.15134e-09
-3.20653e-10
6.55067e-06
-2.21565e-09
8.50002e-06
-3.12821e-08
-2.88558e-09
1.29975e-08
-3.96329e-09
1.18638e-07
4.87933e-08
8.70437e-09
8.13543e-06
-8.11064e-06
-4.14054e-07
3.12268e-09
1.43365e-07
5.35061e-09
-1.34619e-08
3.35236e-08
8.62623e-10
6.8101e-09
1.28427e-09
2.38694e-08
-5.51177e-09
-0.000153359
-2.01481e-09
0.000798817
-2.285e-08
-2.5313e-06
1.2664e-08
3.04646e-08
-0.00014475
1.6433e-08
1.29318e-07
3.56512e-07
9.48786e-10
0.000539876
0.000904719
0.00201747
-5.75436e-09
0.000817404
-5.72609e-09
-3.88888e-08
1.52641e-05
-0.00110134
0.000189703
-2.47489e-09
-1.42585e-08
-5.83486e-08
3.36422e-09
-2.65566e-09
-2.39287e-08
4.88243e-08
-1.30649e-07
-0.000180428
7.1912e-08
-0.00013394
-2.16705e-05
-1.07147e-06
-2.71746e-09
5.73678e-08
3.8475e-08
0.000177376
1.08572e-08
9.68612e-09
-6.13485e-09
9.70615e-10
-1.02028e-07
-4.83529e-09
1.40346e-09
-2.77528e-09
0.000124376
-8.22746e-10
-2.1872e-08
-1.99171e-09
-2.03358e-09
-2.35796e-08
3.15997e-06
6.41822e-08
-4.78045e-09
-4.87169e-05
2.13743e-07
1.37628e-08
4.32889e-09
-2.00057e-07
-1.7767e-05
2.02473e-09
2.1563e-06
7.91268e-08
-1.02467e-05
8.17802e-09
1.68059e-09
1.92354e-08
1.87985e-08
-0.00113445
3.85219e-08
-4.34442e-08
1.37052e-07
3.22357e-08
0.00161287
-5.70057e-08
0.000325303
-2.53291e-07
1.45879e-08
2.90855e-07
-0.000257771
6.65095e-08
-1.4612e-08
-5.57841e-07
-7.51346e-09
8.99106e-09
-5.31096e-09
2.01934e-07
-5.00079e-09
-5.704e-09
-3.38775e-09
-6.603e-10
-1.28967e-09
0.0011252
8.46635e-08
-7.68751e-08
-1.09835e-09
2.9206e-07
8.73237e-08
-0.00101602
2.73997e-09
5.19794e-08
-0.000232891
-2.63352e-08
7.80816e-08
0.000652382
-9.46762e-09
2.90631e-08
-1.88771e-08
-3.87101e-08
3.75363e-08
-0.000157576
-1.62471e-08
-1.55147e-08
-1.0717e-08
-9.15247e-08
-1.76799e-08
-3.55097e-08
-3.65652e-08
2.35294e-05
4.15554e-08
-2.24866e-08
6.85812e-05
-8.85536e-08
-2.51829e-09
-7.28616e-09
-4.27963e-09
-3.51045e-08
-0.000169166
9.49422e-09
1.00238e-08
2.78012e-08
-3.91076e-09
-1.95153e-06
2.57039e-08
-0.00070127
0.000426594
-0.000338893
5.63076e-06
-3.6654e-08
-2.74481e-07
0.000103098
-1.01017e-09
4.04433e-08
-3.98313e-08
1.62584e-08
0.000152524
-7.68563e-09
-4.9662e-06
2.9256e-07
-4.25499e-09
5.26556e-09
7.32927e-09
9.73868e-10
-7.50752e-06
1.41985e-08
1.40837e-07
-1.89359e-08
0.000665315
4.42635e-08
-0.00020569
1.18402e-09
0.000502586
-2.7724e-09
-6.65457e-09
-1.86535e-09
1.17703e-08
0.000727008
9.7936e-05
3.10606e-08
-0.000785664
2.08901e-08
-1.65526e-07
-0.000270892
5.03178e-09
-2.74235e-08
-4.07503e-09
6.89822e-09
0.000324924
-0.00090358
3.02281e-09
-1.05558e-05
-4.65924e-07
-0.00102986
1.9353e-08
-1.49621e-08
-0.00138129
1.19571e-08
-1.82243e-08
1.04387e-08
-6.55072e-09
-2.49623e-08
3.88845e-09
-9.59773e-09
-4.19994e-09
4.77465e-09
-4.31254e-08
2.01445e-08
0.000574406
-1.13883e-08
3.2601e-08
-3.11245e-09
3.69726e-06
-6.60686e-09
0.000635086
5.67412e-08
-1.66319e-09
0.000198593
-2.21651e-08
6.07175e-09
4.69732e-09
4.09942e-08
1.09344e-08
-1.34165e-08
2.08176e-08
1.38814e-06
-2.2586e-08
3.21243e-07
0.000875023
0.000335794
6.40722e-09
6.53294e-09
1.29675e-08
-8.59389e-06
6.52547e-09
1.72042e-09
-0.000382092
-4.44578e-09
6.82136e-09
-1.09975e-08
-0.00172937
2.40227e-08
0.000875665
-1.15627e-08
-1.599e-08
3.75859e-10
1.40203e-08
0.000634194
6.68244e-08
-0.000229696
-0.000225579
0.000852116
-5.6796e-05
3.30643e-08
-1.13268e-08
-1.90278e-07
0.000974022
-2.37139e-08
-0.000438684
-6.99323e-10
0.000657442
-2.43068e-09
-1.37233e-08
6.12801e-06
-5.04841e-07
0.0005759
1.39973e-08
-9.97171e-08
0.000904691
-5.30122e-09
7.84264e-09
4.65357e-08
-1.30376e-07
4.52019e-08
-4.45934e-09
-2.80624e-08
-7.61043e-08
0.000518702
-2.36582e-08
2.74835e-05
2.55559e-05
6.83879e-08
2.67924e-08
0.000105227
-0.00151249
-7.25217e-09
-3.05336e-08
-1.10935e-08
3.59148e-07
0.00031796
-6.81713e-09
-3.84518e-08
-1.31161e-09
-1.49549e-06
-6.02633e-09
-2.98098e-08
-4.89497e-10
-1.02593e-08
0.00156423
2.24784e-08
0.000848392
-2.20146e-09
-0.00214635
-1.4552e-09
0.000958113
-2.0439e-08
-1.49969e-09
-1.09029e-09
0.00014087
-2.16712e-06
0.000114862
-6.73396e-06
0.00103635
6.20808e-08
-2.71958e-07
1.94242e-09
5.52752e-09
0.000113205
0.00108596
9.32612e-09
1.593e-08
-3.91259e-09
4.42024e-06
-2.91308e-07
2.83853e-09
-3.77584e-09
-1.44437e-08
-9.21033e-09
-8.1271e-09
6.28075e-10
1.71161e-09
-6.52382e-08
-2.80448e-08
3.00518e-08
-1.27152e-07
7.03815e-09
-8.58555e-09
-4.23847e-08
-2.61196e-08
0.000823517
0.000152028
5.30028e-09
3.42517e-10
4.07332e-08
1.82067e-09
2.08904e-10
0.00100362
-1.26784e-08
2.16106e-05
-0.00148295
3.09024e-09
4.9122e-09
1.17129e-08
-4.40324e-09
-0.000397701
-0.000348205
-1.15398e-08
-1.15668e-09
1.03326e-08
-1.23523e-08
3.73501e-08
-7.60332e-09
0.000942502
3.78467e-08
6.45349e-09
-0.000190527
-9.31447e-08
2.50346e-08
-1.17759e-10
1.73302e-07
7.35344e-10
-0.000114031
-1.39961e-05
7.97527e-09
6.74924e-09
-0.000176036
-0.000134975
1.31757e-06
8.86926e-09
2.23885e-08
6.96441e-08
-6.96321e-07
-1.28686e-08
0.000688001
1.30416e-09
8.52439e-09
1.53875e-09
-1.99829e-08
0.000232814
1.99768e-08
0.000163849
2.43575e-07
-0.00087366
5.79579e-08
2.1963e-08
-5.54787e-06
-1.01868e-07
-5.84347e-08
1.04748e-09
-4.81856e-08
1.43174e-09
4.11614e-08
-0.000528342
-9.09893e-09
1.24927e-08
2.87737e-06
-2.96156e-08
6.42288e-09
-3.9363e-09
1.43607e-08
-1.50762e-05
-0.000462147
1.12929e-05
5.11232e-09
5.82606e-09
0.0009974
3.21206e-08
-8.7619e-08
-1.08081e-08
6.26685e-05
1.15383e-07
0.00093184
5.98837e-07
2.2578e-05
4.87727e-08
-8.90332e-10
-3.86947e-08
8.19583e-09
2.29819e-08
-0.000460283
0.000894414
1.07762e-08
2.89564e-06
1.1886e-08
-6.12352e-09
0.000663849
8.32909e-09
-0.000162206
0.000209459
2.06777e-07
-0.000129875
-7.56148e-09
-0.000102138
2.99568e-11
1.19496e-09
0.000585921
-2.33693e-08
-2.58022e-08
6.72268e-05
0.00165683
2.0148e-08
3.55167e-09
-2.39045e-08
0.000881112
-3.93907e-09
-9.40892e-06
6.43865e-08
-1.02824e-08
-2.44123e-06
-2.39339e-08
3.62091e-08
1.47891e-07
-1.695e-08
-6.9787e-08
-0.000116671
8.46257e-07
8.31804e-09
-1.82605e-08
-0.000780452
8.70707e-09
2.63381e-08
-6.11447e-09
-1.24301e-05
-0.00102948
3.48791e-05
-2.12275e-09
-0.000822217
0.00116991
-3.33671e-09
6.2351e-06
2.65156e-08
5.48242e-06
1.7291e-08
-9.17065e-06
0.00108763
3.01219e-05
0.00205623
0.00100107
2.96144e-08
6.09148e-09
-6.24319e-08
8.53309e-09
0.000930783
4.97688e-10
0.000208276
0.000759799
6.57137e-09
-1.48929e-08
-3.02402e-08
-1.8336e-08
0.00116802
-9.76923e-10
7.10619e-09
1.62259e-08
-0.000167313
-3.33788e-10
3.63842e-09
-5.08013e-08
9.45274e-09
-2.10289e-08
1.79258e-07
-3.90108e-07
8.08422e-11
-1.25622e-08
-6.06023e-09
0.000953608
-7.92287e-09
-8.00165e-10
-9.68148e-09
1.83704e-07
3.03683e-06
-3.76715e-10
-3.12478e-09
-4.36951e-09
6.83694e-08
-0.00211003
-5.66055e-08
4.30152e-09
-0.000368302
-4.59089e-10
-8.70764e-10
-1.92478e-08
-2.60296e-05
-1.05979e-05
2.2458e-09
0.00127583
0.000405973
-1.59644e-05
-1.88914e-07
-0.000421543
4.1751e-05
-0.000850895
3.38678e-10
3.13392e-08
2.38015e-07
-2.063e-08
2.93607e-08
-0.00082972
-1.60728e-05
1.70709e-09
6.7241e-08
6.16114e-09
-3.47916e-10
-4.36508e-08
-1.63252e-08
-1.84735e-08
-4.16123e-07
1.74573e-07
-2.12377e-07
0.000924801
8.10819e-07
-3.40931e-08
3.8999e-09
0.000380198
2.37406e-08
0.000549688
3.42434e-06
-7.16611e-09
-8.74205e-09
-3.23719e-07
0.000392113
-5.05322e-09
-2.98269e-08
-2.05303e-08
3.17676e-06
-1.05308e-06
-1.5501e-08
-0.000187379
-7.11598e-07
-1.51663e-08
-0.000273685
0.00111091
1.13963e-07
-1.54415e-09
1.83982e-08
-3.51158e-08
1.3098e-06
-6.9336e-09
7.49448e-06
0.00164305
4.33157e-08
6.68055e-08
0.000415238
2.97211e-09
1.37706e-07
-8.15415e-09
1.52e-06
1.50748e-05
1.67769e-08
-7.30034e-07
0.00101387
0.000724372
9.7122e-07
5.19373e-05
6.46746e-09
-1.85214e-08
1.23941e-07
-7.11616e-05
2.20841e-08
9.16928e-09
3.46121e-08
3.68235e-10
0.00160559
4.80536e-09
8.16363e-10
-1.51798e-05
-5.22169e-08
0.000326055
-8.54605e-07
-4.07148e-11
1.02775e-05
-2.07548e-05
0.00108242
-3.43079e-08
-2.05647e-08
2.74314e-08
0.00117569
0.00069996
8.18773e-06
-2.01005e-08
9.41387e-08
1.14813e-07
0.000739558
-6.7409e-09
0.00115288
1.37426e-08
0.000499441
1.31785e-07
-0.000194035
-1.56885e-07
8.25678e-08
2.94917e-08
1.67018e-09
-1.65571e-09
1.74244e-08
1.77789e-08
-1.69513e-08
-7.51749e-07
0.000482143
-5.37173e-09
2.26802e-08
-2.62114e-08
-2.039e-05
0.000170871
4.49269e-08
3.95084e-08
0.000931301
-3.26415e-07
7.45763e-05
3.31519e-08
-4.55363e-06
9.47974e-09
0.00112119
-6.62231e-09
0.000635814
0.00111834
4.32233e-07
-5.12772e-09
1.66111e-08
4.7017e-08
-4.09182e-07
5.69253e-09
-2.35556e-07
3.4321e-07
-2.84254e-10
-0.000453382
1.17927e-08
-0.000523114
2.28741e-08
0.000418151
0.00116838
7.30378e-09
1.80069e-08
-0.00036589
-4.65009e-08
-1.33131e-09
3.47318e-08
8.88544e-09
1.029e-06
-3.06912e-08
6.29016e-07
2.32192e-08
5.31663e-05
0.00106093
2.15161e-08
5.84319e-09
-9.82133e-09
4.15577e-06
8.80905e-05
-1.24362e-08
-1.47872e-08
5.48733e-09
-1.17746e-06
-1.16729e-08
0.000918509
0.00115094
8.9087e-06
-3.8181e-09
4.53679e-07
5.06686e-08
3.07428e-08
-0.000205116
8.07552e-08
-8.58593e-09
0.00142263
0.00010131
3.00868e-10
1.94768e-08
1.05299e-06
-1.20121e-08
3.37582e-08
0.000909235
-2.05269e-05
-4.22194e-09
2.08829e-08
-0.000141306
-0.000393722
0.000513647
2.55403e-07
-6.9324e-09
0.00116221
-0.000204286
1.61051e-09
0.000267881