/*--------------------------------*- C++ -*----------------------------------*\
| =========                 |                                                 |
| \\      /  F ield         | OpenFOAM: The Open Source CFD Toolbox           |
|  \\    /   O peration     | Version:  v2012                                 |
|   \\  /    A nd           | Website:  www.openfoam.com                      |
|    \\/     M anipulation  |                                                 |
\*---------------------------------------------------------------------------*/
FoamFile
{
    version     2.0;
    format      ascii;
    class       surfaceScalarField;
    location    "350";
    object      ddtCorrDdt0(phi);
}
// * * * * * * * * * * * * * * * * * * * * * * * * * * * * * * * * * * * * * //

dimensions      [0 3 -2 0 0 0 0];
oriented        oriented;


internalField   nonuniform List<scalar> 
20392
(
0.00033142
-0.000807717
0.000476343
-1.32198e-05
4.01197e-05
-2.69001e-05
1.5186e-05
-2.86241e-06
-1.23232e-05
1.19958e-06
-1.39023e-06
1.90601e-07
-0.00111746
0.00114975
-3.2293e-05
1.89073e-06
-3.49596e-06
1.604e-06
6.39331e-07
0.000331989
-0.000332628
5.14336e-07
-2.58888e-07
-2.55456e-07
-0.000311392
2.84481e-05
0.000282939
1.57735e-06
-3.77821e-07
3.63133e-06
-1.74092e-06
-8.12248e-06
1.10265e-05
-2.90439e-06
1.35507e-05
1.63552e-06
0.00272507
-0.00142414
-0.00130095
-8.37263e-07
1.74042e-06
-9.03007e-07
0.00193917
0.000785894
-0.000519176
0.000859992
-0.000340816
-4.86411e-07
4.66892e-07
1.95254e-08
-0.000335885
0.000124149
0.000211736
1.86259e-06
-1.21902e-06
-6.43468e-07
-0.000228465
0.000442645
-0.000214181
-0.000138668
0.000393167
-0.000254499
0.000792601
5.89859e-05
-0.000851582
1.9707e-06
3.36099e-06
-5.33136e-06
-5.50119e-06
-6.64046e-06
1.21425e-05
4.26221e-06
-3.06574e-06
-1.19742e-06
-8.97951e-06
-5.56444e-06
1.45438e-05
-8.9739e-05
-1.42612e-05
0.000104008
-0.000227463
0.000341013
-0.000113549
0.000236125
-0.000145024
-9.11016e-05
0.00227021
-0.000932784
-0.00133742
7.29737e-06
6.70255e-05
-7.43225e-05
-0.000293299
-1.80989e-05
5.77335e-07
-1.41453e-06
0.00108424
-6.02896e-06
-0.00107822
8.49524e-05
-0.000164928
7.99765e-05
-6.62661e-05
-0.000234137
0.000300404
1.55983e-06
-2.81257e-06
1.2531e-06
-0.00185746
0.0029417
-0.000359313
1.36325e-05
0.00034568
-5.72215e-07
6.08871e-07
-3.65539e-08
0.000251233
0.000151479
-0.000402715
-6.40262e-07
3.71365e-07
2.68392e-07
-0.000362793
2.05701e-05
0.000342222
0.000123895
-0.000295236
0.000171344
-3.08771e-07
-3.31663e-07
9.48774e-05
-9.78408e-05
2.95932e-06
-0.000183052
0.000300342
-0.000117291
1.55486e-05
2.22883e-05
-3.7836e-05
-3.37119e-06
3.52316e-06
-1.52015e-07
5.31168e-06
-3.34075e-06
0.000220805
-9.69082e-05
-0.000219468
-6.85181e-05
0.000287985
8.08415e-07
5.68487e-07
-1.37733e-06
9.0946e-07
-3.29971e-06
2.39042e-06
-0.000315313
0.000315953
0.00041016
-0.000295346
-0.000114814
4.00565e-06
-1.06778e-05
6.67288e-06
5.82869e-05
0.000162517
0.000123447
1.93289e-06
-0.000125377
-3.46983e-05
4.19953e-05
-0.00059977
8.55131e-05
0.000514281
-0.000327671
-0.000212425
0.000540095
0.000640589
0.000152013
6.01834e-06
-7.80868e-05
7.20685e-05
0.00100977
-0.00282454
0.00181477
-2.97835e-06
-8.08583e-06
1.10651e-05
-0.00137649
0.00131015
6.63381e-05
5.85345e-05
-0.000278003
-3.05492e-05
0.000361978
-1.7887e-05
8.51888e-06
9.36759e-06
-0.00092653
0.000929388
-2.86867e-06
-2.49854e-06
2.18557e-06
3.13454e-07
-0.000229347
-0.000125609
0.000354956
-3.81996e-06
3.1213e-06
6.98803e-07
-0.000112403
3.4863e-06
0.000108931
2.83158e-07
-4.05057e-07
1.2194e-07
-2.32199e-07
-3.1662e-06
3.40198e-06
-0.00031312
-4.61922e-05
-3.28011e-05
1.95811e-05
-0.000755867
0.000668282
8.76015e-05
-1.01278e-05
-7.75848e-06
5.82333e-05
-7.61278e-05
1.78951e-05
1.61431e-05
3.63649e-05
-5.25061e-05
0.000247485
-4.3397e-05
-0.000204087
-5.3216e-07
6.46476e-07
-1.14162e-07
0.00167828
9.2286e-05
-0.00177057
7.56322e-06
-1.05411e-05
-0.000379856
-0.000115535
0.000495388
-5.76724e-05
6.36907e-05
-1.618e-07
-2.35415e-05
2.37028e-05
-0.000212922
-0.000542924
1.93958e-06
1.69069e-06
-0.00138437
0.000865197
3.90425e-06
-2.99478e-06
0.000411583
-0.000717061
0.000305467
0.000114187
-0.000158249
4.40591e-05
-2.33882e-05
8.16218e-05
0.000343844
-0.000296604
-4.72478e-05
-4.10837e-05
2.8338e-05
1.27474e-05
-4.01309e-05
2.71664e-06
3.74126e-05
0.000858307
-0.00039484
-0.000463465
7.5435e-06
-1.6523e-05
0.000238188
-0.000142659
-9.55283e-05
3.45403e-06
-1.51516e-06
3.44072e-07
-3.62863e-07
1.88219e-08
-8.85192e-06
8.68988e-06
0.000281401
-0.000556113
0.000274705
2.71592e-06
-2.94639e-06
3.97404e-05
0.000196386
3.30464e-06
-1.74467e-06
-0.000463671
0.000296467
0.000167204
0.000237546
-0.000229806
-7.74174e-06
1.9872e-06
-3.78193e-06
1.79503e-06
6.61624e-05
-9.27763e-05
2.66178e-05
-0.00154694
0.000170448
3.72077e-09
2.79508e-07
2.14494e-06
-1.02667e-05
-0.000123951
5.76554e-05
6.63014e-05
-2.29836e-08
-3.34799e-06
-3.74311e-08
-1.35152e-07
1.7255e-07
-0.0010191
0.000797347
0.00022175
-3.45721e-06
-1.75607e-07
3.6302e-06
-4.96412e-06
5.65555e-06
-6.92153e-07
-3.07962e-06
2.67571e-07
2.81074e-06
-0.000277139
4.96758e-05
-0.000206099
-0.000812995
-6.15797e-07
4.35972e-08
-2.30947e-07
-4.73353e-06
0.000822759
-0.000624936
-0.000197807
-1.20404e-05
0.000106919
0.000784374
0.000893898
-0.000163396
9.06679e-05
7.27278e-05
0.000281474
6.23673e-05
0.000431917
-0.000180681
-0.00014451
-0.000218282
-0.000151329
0.000236282
-7.22888e-05
-9.11064e-05
7.45237e-05
2.93737e-05
-0.000103902
2.15064e-07
-4.35394e-06
4.13899e-06
-0.000188332
-4.94406e-05
0.000237773
6.74578e-05
-2.10703e-05
-4.63847e-05
-1.60279e-07
-1.00475e-07
2.60795e-07
-2.89819e-05
1.20466e-06
-8.40176e-06
7.19688e-06
2.07832e-05
1.40762e-05
-3.48636e-05
0.000187929
-0.000567789
0.000163495
7.405e-05
-0.000399721
0.000170374
0.000295946
-0.000265927
-3.00187e-05
2.13054e-05
4.61531e-05
0.000169438
-0.000142014
-2.74225e-05
-3.54322e-06
8.51501e-08
-0.000710925
-0.000215611
0.000306324
-0.000158418
-0.000147906
3.29506e-07
1.45443e-08
0.000306206
0.000552101
-0.000215304
-0.000823071
0.00103838
0.000453016
-0.000780687
-6.33277e-07
-1.52772e-06
2.16115e-06
4.52315e-06
-1.53692e-05
1.08465e-05
1.12267e-06
2.33229e-06
-0.001687
0.000485589
0.00120141
-5.86456e-05
-1.76577e-06
6.04085e-05
0.00110549
-0.000803952
-0.000301535
-2.83658e-06
-2.71974e-06
5.55669e-06
-3.43932e-07
2.4759e-06
-2.13307e-06
-8.37784e-07
5.83208e-07
2.54587e-07
-1.48449e-06
0.000241652
-0.000240168
0.000724127
-0.00093943
7.2729e-07
-1.27147e-06
5.44057e-07
-1.87118e-06
2.99363e-06
3.07792e-05
0.000379381
-0.000557195
0.000107793
0.000449403
0.000963622
0.000346527
2.65139e-06
-5.48793e-06
-0.000339097
0.000259843
7.92544e-05
6.85014e-05
-8.32791e-05
-6.45779e-06
9.73387e-05
0.000655488
-0.000752832
2.61139e-06
-2.3414e-06
-2.69604e-07
-2.9038e-05
3.13708e-05
-2.33309e-06
-0.000260191
-7.89068e-05
-2.44454e-05
6.89011e-06
1.7555e-05
1.83967e-05
-4.84553e-06
4.86628e-06
-4.65167e-06
1.19249e-06
2.0239e-07
-1.39509e-06
8.15214e-07
-9.04e-07
8.91963e-08
-3.91804e-05
0.000110104
-7.09238e-05
0.000190734
-0.000403159
-0.000477213
-0.000640247
-0.000373492
0.000481832
-0.000108338
-6.86031e-07
-1.8246e-06
2.51107e-06
1.52575e-05
-1.0734e-05
1.31398e-07
-6.63645e-07
8.92885e-07
-7.7664e-08
-5.96798e-05
-6.42681e-05
5.39856e-05
-1.68521e-05
-3.7133e-05
-1.19935e-06
3.05783e-05
-2.93784e-05
4.70356e-05
0.000882356
-3.2583e-05
0.000117942
-8.53588e-05
3.02752e-06
0.000182382
0.000123941
0.000208237
2.94317e-05
-0.00023767
-5.24369e-08
5.90046e-08
-6.56147e-09
0.00191654
-0.00205132
0.000134779
0.000135599
0.000211539
-0.000347147
-0.00030912
0.000242854
2.31632e-05
-4.20752e-05
1.89139e-05
-2.46916e-06
-6.11029e-07
-1.91278e-06
-1.9071e-06
-0.00108677
0.00117906
8.9759e-06
-4.96977e-06
-2.21897e-05
1.74823e-05
4.70706e-06
0.000417845
-0.00012722
-0.000290624
-0.00102611
0.00314759
-0.00212148
2.50665e-06
1.27511e-05
4.47655e-05
0.000163472
2.88517e-07
-4.33804e-07
1.45274e-07
-1.9631e-07
3.59798e-08
3.19622e-05
-8.79598e-06
-0.000304994
0.000116662
0.000349023
-0.000197546
2.68061e-07
2.3435e-06
0.00315399
-0.00190154
-0.00125245
-0.000884136
0.000406923
-2.57226e-05
-8.83995e-07
2.6606e-05
0.000509375
-0.000374037
-0.000135331
-0.000492611
2.00619e-07
9.91757e-07
0.00117306
0.00198093
-1.56146e-05
3.98823e-05
-2.42673e-05
9.06926e-07
-1.68808e-06
7.8112e-07
2.40893e-06
1.85158e-06
-2.58972e-07
-5.29248e-07
7.88183e-07
9.04526e-06
-7.53582e-06
-1.51025e-06
-0.00085342
0.000280084
0.000573298
-0.000306932
0.000571344
-0.000264413
0.000823389
-9.10609e-05
-0.00073234
0.000134174
-5.96526e-05
-0.000168958
0.000138414
0.00120754
0.00106267
1.01078e-06
-0.000681414
0.000374482
1.68871e-07
2.72468e-06
-2.89548e-06
1.82902e-06
-2.17265e-06
-3.37713e-08
4.09217e-08
-7.34097e-09
-1.36501e-05
-8.53967e-06
-0.000838244
0.000464752
0.000296074
-0.000632275
-6.05712e-07
-2.31991e-07
-1.02638e-07
4.3474e-07
-3.32817e-07
-0.00059516
0.000761965
-0.000166806
0.000775696
-0.000530636
-0.000245056
0.00106504
-0.000612029
4.55505e-06
1.10184e-05
-1.55705e-05
-0.000425497
-0.000131698
0.000345918
-0.000138997
-0.000206886
-2.19046e-07
5.07566e-07
-2.46111e-07
-2.59613e-07
5.05513e-07
0.000149841
0.000268004
8.76574e-06
0.000163833
-0.000172594
8.39618e-07
-3.65203e-06
2.04261e-06
-2.66513e-05
2.46092e-05
3.29755e-05
3.82191e-05
-7.11958e-05
6.86607e-07
8.35781e-06
4.91759e-05
-2.83917e-05
0.00138533
-0.00119206
-0.000193271
0.000148666
-0.000287333
2.66881e-07
-1.49273e-07
-1.17498e-07
-9.05313e-05
0.000148817
-8.31689e-06
6.37043e-06
1.94823e-06
-0.000337624
0.00010916
1.74092e-05
9.67773e-05
0.000166526
-0.000349578
-0.000327871
0.000348629
-2.0758e-05
0.0022874
0.000744202
7.20102e-06
-1.27019e-05
0.00031736
-4.80934e-06
-0.000312548
2.01165e-06
-1.34143e-06
-6.70085e-07
0.000503503
-0.000437382
-3.46635e-05
1.90492e-05
7.4479e-06
-0.000314069
0.000306621
1.66201e-05
-1.41133e-05
-0.000656008
0.00149919
-0.000843153
3.97692e-08
2.2716e-07
-0.00081992
0.000460519
0.000359397
-0.00046755
3.87922e-06
-5.55714e-07
3.09605e-07
-0.000199719
0.000160538
-0.000197866
-0.00068627
0.000181659
0.000164269
-3.25763e-05
3.53845e-06
7.40151e-06
1.01373e-05
-1.75382e-05
-0.000156434
0.0001652
-0.000244264
1.01282e-05
1.53792e-07
-2.29512e-07
7.48947e-08
-2.6239e-06
-6.75795e-07
-0.000346829
0.000177874
4.90581e-07
-2.63813e-07
-2.26667e-07
3.2224e-06
-1.58014e-05
0.000839194
-0.000216379
0.000115278
0.000101282
-6.8309e-06
8.98437e-06
-2.15273e-06
0.000131238
-7.78888e-06
-0.000957556
0.000201244
0.000756313
0.000466026
-4.1119e-07
6.0051e-08
3.5069e-07
-0.000642529
-0.000260369
0.000902896
1.67263e-07
1.11409e-06
-1.28094e-06
6.38761e-06
-4.27125e-06
-2.11633e-06
1.54335e-06
-9.07684e-06
7.5345e-06
0.000872874
-0.00131879
0.000445916
3.71172e-05
-3.83161e-05
4.76747e-05
6.3112e-06
-3.75983e-08
3.68657e-09
0.000280439
9.52402e-07
6.15652e-06
-0.000157703
8.82467e-07
9.80292e-07
2.02928e-07
7.22513e-08
-2.75362e-07
-1.37827e-07
-8.35262e-06
1.52254e-06
-0.00142192
0.00243169
6.91043e-07
-3.18942e-06
-2.34576e-05
6.23143e-06
1.72263e-05
0.000277276
-0.000130502
-0.000146775
-3.60863e-07
5.63723e-07
-2.13198e-07
1.74062e-07
3.91449e-08
-0.000357486
0.000462219
-0.000104729
-0.000257456
0.000217239
4.0216e-05
-1.6387e-06
1.36896e-06
2.69932e-07
-3.51653e-07
7.34957e-07
-3.8362e-07
4.47986e-06
-2.63761e-05
2.1896e-05
5.34416e-06
-2.25654e-06
-3.08717e-06
-1.16359e-08
-4.08869e-08
1.85293e-05
3.6639e-06
-2.21932e-05
3.0417e-07
2.10142e-07
0.000119219
-0.000151802
-0.000443799
0.00117453
-0.000730732
-6.79387e-06
1.19275e-06
5.59649e-06
-0.00150103
-2.13972e-05
3.66057e-05
-3.21262e-05
6.09755e-06
4.92833e-06
-2.9783e-06
-3.39415e-06
6.37383e-06
-7.12663e-06
2.08145e-05
-1.36848e-05
1.07142e-05
-9.16994e-06
-1.50851e-05
1.67734e-05
-1.68779e-06
-1.64597e-07
4.97619e-07
-3.33012e-07
0.000153423
0.00207005
-0.00222347
-3.45849e-06
-4.85759e-06
0.000228821
4.7456e-05
-0.000276277
-3.25119e-06
1.20807e-05
-8.82921e-06
0.000541065
-3.16859e-05
3.41531e-05
-1.86043e-05
3.22244e-05
-9.93527e-06
3.43308e-07
-3.97675e-08
-3.03466e-07
0.000750479
-0.000601658
-0.000148821
8.50532e-06
4.70999e-07
-0.000365341
2.94521e-05
-1.2361e-06
1.47918e-06
-2.43036e-07
0.00012219
-0.000271791
0.000149601
8.13078e-05
-1.51428e-05
0.000371055
0.000778697
-9.95806e-06
6.98017e-06
0.000298261
0.000807232
8.28354e-07
-5.96245e-08
-7.68614e-07
0.000142028
-0.000140095
-4.77943e-07
-3.67974e-07
1.09524e-06
-0.000382596
0.000429633
6.40148e-07
-3.70646e-06
-4.1464e-07
-7.17752e-08
-0.000263039
0.000693977
-0.000430937
-1.10188e-07
-3.45235e-07
4.55724e-07
2.07363e-06
-1.25408e-06
-8.19605e-07
-4.55944e-05
-1.30504e-05
0.00010888
-3.2776e-05
-7.61042e-05
0.000278471
-0.000319327
4.08524e-05
0.00107657
-0.000420345
-0.000656226
-7.11651e-07
2.38793e-07
4.72797e-07
9.76018e-07
-2.2343e-06
1.25834e-06
-7.43483e-08
-4.42364e-07
5.16556e-07
0.000544248
-0.00120024
-8.48534e-05
2.77828e-05
5.70711e-05
-0.000537141
-0.000360783
-0.00114025
-0.000255361
9.66562e-05
0.000158705
-2.2202e-05
-0.000322414
0.000344616
0.000373163
3.97411e-05
-0.000412905
-8.9741e-08
-2.73115e-07
3.90886e-07
-5.55511e-07
6.7508e-05
4.13718e-05
-0.000691401
9.19078e-05
0.000227904
-0.000319812
-1.20877e-07
4.39154e-08
7.68719e-08
8.12111e-07
1.24437e-06
-2.05659e-06
1.07055e-06
-6.06902e-07
-4.63782e-07
-0.000518982
0.000241081
0.000277855
-6.04328e-05
0.00011614
-5.57061e-05
-1.19422e-05
4.81709e-06
-5.31633e-07
4.21579e-07
-0.000379812
0.000255144
0.000124667
-0.000419315
-0.000400611
-0.000702613
0.000826774
1.73641e-05
1.75257e-06
-1.91172e-05
-0.00018519
0.000283828
-9.86395e-05
8.66222e-08
-1.32282e-06
-0.000449499
-0.000473591
0.000923107
-0.00126238
0.00129934
-3.70025e-05
2.82259e-06
-2.65347e-06
0.000597068
-0.00104656
1.23555e-06
7.76109e-07
0.000756269
0.000312369
-0.00106864
1.90332e-07
3.40473e-06
-3.5918e-06
3.71375e-06
-2.94367e-05
0.000167764
0.000110708
2.47379e-06
1.4306e-06
-5.24911e-05
-0.000177316
0.000120401
4.9038e-05
2.93452e-07
-1.88335e-07
-1.05203e-07
-5.12896e-06
1.23304e-05
5.53642e-05
-1.54851e-05
8.16777e-06
7.31593e-06
3.44169e-05
-2.3936e-05
-1.04805e-05
-2.73519e-06
2.04933e-06
-3.5316e-05
1.95754e-05
1.57379e-05
2.17385e-05
1.26787e-05
-5.79045e-08
9.72189e-08
-3.93357e-08
5.21265e-07
5.4918e-07
0.000129663
-3.89942e-05
-7.48292e-05
-5.08175e-05
8.37926e-05
-6.09114e-07
7.76373e-07
-9.08408e-08
7.36481e-07
-6.4548e-07
1.14895e-05
-1.47406e-05
8.33418e-07
-1.2014e-06
2.36099e-05
-0.000227763
0.000204154
-0.000206788
-2.80349e-05
0.000234822
-0.000101558
-0.000609373
0.000969405
-9.65312e-05
-0.000912047
5.8614e-05
1.62873e-06
6.87647e-06
0.00167528
0.000196446
-3.29518e-05
-0.000302554
0.000310002
1.59244e-06
-4.58029e-05
4.42102e-05
-1.21271e-06
1.07966e-06
1.33204e-07
0.000599511
0.000489305
0.000266964
1.57854e-05
-7.34577e-05
-2.45784e-05
-0.000367761
0.00039234
2.47446e-05
-1.25437e-05
-1.21986e-05
9.32453e-05
-7.71028e-05
2.15524e-07
-1.43281e-07
-7.23033e-08
-6.96639e-06
3.22515e-07
-5.92787e-08
0.000175297
0.000272903
0.000169742
-0.000270008
8.48204e-05
6.59143e-05
-2.95508e-05
1.15374e-06
5.41695e-07
-1.69532e-06
-0.000170288
-1.97778e-05
0.000107404
0.000169872
-0.00185876
0.000771988
-2.32724e-06
2.30433e-06
3.0047e-05
-2.80041e-05
4.34492e-05
8.62133e-05
0.00042139
-6.9592e-05
-0.000351798
-1.3987e-05
7.34698e-06
0.000455408
-3.40173e-05
-8.02547e-08
8.60953e-08
-5.74596e-09
-2.04359e-06
4.031e-06
3.42243e-07
-1.5613e-06
-0.000314284
-3.25387e-05
0.000965048
-0.000370213
-0.000594842
-0.000762185
0.000342869
7.45591e-06
-4.4448e-06
-3.01044e-06
0.00191153
-0.00094213
6.13931e-06
-1.72326e-06
-4.41606e-06
-1.46621e-06
4.82745e-06
-7.43759e-08
2.2282e-07
-1.48533e-07
2.08413e-07
-2.72789e-07
6.3968e-08
2.19072e-07
-3.44471e-05
1.07073e-06
3.33769e-05
1.04385e-06
-1.67702e-06
4.65613e-07
-7.17578e-07
2.52165e-07
-3.6487e-05
3.80789e-05
-5.65251e-05
4.78441e-05
8.68164e-06
3.87737e-07
-4.90125e-07
0.000253185
0.000745628
-0.000998814
6.15737e-05
-6.4933e-05
3.35905e-06
1.07034e-06
1.00328e-06
0.000320228
-0.000137847
-0.000282503
1.52572e-05
0.000267248
0.000203921
-0.000129971
-7.39478e-05
-1.28008e-05
3.45395e-05
-0.000479454
-3.83045e-05
-4.65486e-05
0.00229493
-0.00159151
-0.000703417
0.000342693
-0.000349993
7.29811e-06
-2.69824e-05
1.47963e-05
1.21867e-05
1.31463e-06
2.7024e-05
-0.000373027
0.000380868
-7.84144e-06
-2.99319e-07
-2.97304e-07
5.96543e-07
8.66725e-06
-4.0647e-06
-4.60259e-06
7.56129e-05
-6.90377e-07
-7.49226e-05
0.00156089
-0.00146793
-9.29295e-05
1.441e-07
3.22795e-07
0.0024009
-0.00224748
0.000226742
-2.282e-05
1.17246e-05
1.59933e-06
-1.33234e-05
0.00193762
-0.000376698
0.00207161
-0.00128725
-2.44289e-07
6.07346e-07
-3.62977e-07
-0.000316746
0.0001004
3.62356e-06
2.51576e-06
-0.000674822
-0.000900797
0.00155671
-0.000655913
2.77047e-07
-6.90881e-08
-7.36566e-08
4.03138e-07
0.000310271
-0.000286661
2.67708e-07
-5.43935e-06
5.17177e-06
9.29597e-08
1.29818e-07
-0.000686084
0.00101125
-0.000325166
-0.000152362
-0.000105094
-0.00253247
0.000630928
4.83781e-07
1.12412e-05
0.00211947
-0.00020794
1.68088e-06
7.11471e-07
-2.39237e-06
-7.46547e-07
-8.92047e-07
-0.000236235
-0.000180224
0.000416459
-1.71911e-05
0.000349181
-2.77825e-05
2.10661e-05
6.71674e-06
-0.000967989
0.000281905
-0.000545338
0.000570378
-2.50392e-05
-3.70437e-06
6.47114e-05
-6.10074e-05
0.000622596
-0.000403922
-0.00021868
3.98822e-06
3.46791e-06
5.03004e-07
-3.11628e-07
-1.91407e-07
0.000771017
-2.52254e-05
-0.000745808
0.000243242
-0.000292682
-2.59194e-05
4.02e-05
-1.42802e-05
-2.38208e-07
-7.92544e-07
1.03074e-06
5.38155e-06
0.000248972
-0.000254353
6.96799e-06
-7.35117e-06
3.8325e-07
8.23062e-07
-3.57402e-07
0.000569404
0.000126019
-0.00069544
-0.000266886
-4.73974e-05
-0.000139664
-6.73798e-06
0.000146394
-2.69627e-07
1.10304e-06
-0.00042226
6.47795e-05
-7.4625e-07
3.13249e-05
-4.64145e-05
-1.01105e-05
8.78083e-07
1.49994e-08
0.000382238
0.000537472
-0.00091971
-0.000497052
-2.20862e-05
-2.78687e-05
1.5068e-05
6.50279e-06
3.06779e-06
-9.5694e-06
-7.50236e-07
-0.00023577
0.000977272
0.00102027
-0.00199754
-2.97574e-06
-0.00147045
0.000633657
0.000836794
-1.57812e-06
2.73595e-07
1.30432e-06
0.000539567
-0.000233361
0.000349172
-2.51692e-06
2.07487e-06
4.42221e-07
-8.52827e-05
8.49629e-05
3.19436e-07
8.65977e-08
2.56741e-07
-6.22445e-07
2.81669e-05
0.000267779
0.000123469
0.000114719
-5.2645e-06
5.53232e-06
0.000640854
-0.000205627
-0.000435229
5.17131e-05
-5.75101e-05
5.79904e-06
0.000165245
0.000605766
6.74798e-06
2.20388e-07
-3.47721e-07
1.50132e-06
-0.000368481
1.22092e-06
-8.06298e-06
3.20258e-05
-7.24601e-06
-2.47791e-05
-0.000328618
4.61211e-05
3.03845e-07
-2.63102e-06
2.36567e-05
1.43316e-06
-2.50904e-05
0.00145531
-3.49302e-06
1.10566e-05
-0.000342248
-1.14981e-06
1.1865e-05
0.000315977
-0.000349453
3.34757e-05
-5.61198e-05
-0.000199242
-0.00213762
-0.000394849
-0.00122088
-0.000395489
0.00161637
-0.000377028
-0.00038516
-1.23246e-05
-1.21207e-05
-0.000101773
0.000899121
0.000207869
-2.79851e-05
-0.000179885
9.57629e-05
0.000217307
-0.000313062
1.24526e-05
-2.40373e-05
1.15849e-05
-2.49101e-05
2.86237e-05
3.77812e-07
3.72963e-07
-7.50547e-07
-8.13432e-05
-5.83275e-05
0.000224346
0.000398255
0.000215357
-0.000281831
5.18514e-07
-7.77554e-07
3.25942e-05
-1.64278e-06
-3.09517e-05
1.76745e-06
4.28593e-08
-1.80981e-06
0.000566092
0.0025815
2.19125e-08
-7.98628e-08
-3.96329e-05
1.37134e-05
-4.12576e-05
2.4406e-05
0.000731845
-0.00130722
0.000575379
9.75536e-05
-5.41036e-05
0.00132976
-1.14832e-05
9.14283e-05
-2.03537e-05
-7.10714e-05
0.000190524
-0.000145759
-1.30814e-06
-4.11014e-07
0.000268332
-0.00071213
-0.000538079
0.00102367
6.49121e-07
-4.4709e-07
-2.01912e-07
-5.13742e-06
-6.42584e-06
1.15626e-05
-4.30168e-05
-4.12015e-05
8.42203e-05
0.000492833
-0.000296515
-0.000196317
-4.32142e-07
1.32808e-07
0.000207542
0.00015384
-0.000361384
1.0976e-05
1.37718e-05
-1.81152e-05
9.26283e-06
0.000145655
0.000345032
-0.000490689
0.000500496
-0.000591567
-5.89049e-05
0.000169412
-0.000110505
-4.09438e-05
5.67292e-05
0.000734651
-5.40309e-06
4.92863e-06
-2.30439e-05
-7.47787e-07
1.07397e-06
-3.26199e-07
-0.000281346
-0.00112884
0.000708493
-4.58338e-05
0.000361811
5.33076e-06
0.000112612
-0.000613588
0.000377354
-4.07601e-05
0.000450322
-0.000350785
-9.95375e-05
-5.85974e-07
-9.9224e-07
-0.000123608
0.00150895
-1.15599e-05
5.99536e-06
5.62822e-06
4.60851e-05
-6.20192e-05
-5.96848e-05
0.000121702
-0.000688936
0.00142078
-7.8688e-06
1.4759e-05
0.000101817
-0.00016072
2.15064e-06
3.19371e-06
-8.29467e-05
6.86894e-05
7.18097e-07
-4.20903e-07
-2.97182e-07
0.000747836
-0.000763642
-1.76367e-05
4.15988e-07
1.72203e-05
2.48599e-06
-2.0123e-05
-2.55851e-06
-1.22809e-06
3.7862e-06
0.000839468
-0.000299901
-0.000200824
5.009e-05
0.000150768
-0.000294849
-0.000422215
2.24438e-06
-0.000317557
0.000404632
-0.000131729
5.31991e-06
-1.81565e-06
0.00166589
-0.00233034
0.000664478
-3.31624e-07
7.09628e-07
-1.10359e-05
-1.67463e-05
-0.000104269
4.73343e-05
5.69401e-05
2.33421e-05
8.68392e-06
-0.000365265
0.000572805
6.24255e-07
-7.48431e-07
1.24351e-07
1.7651e-07
3.89745e-08
0.000623892
0.000259001
-0.000882893
-0.000783711
0.000301999
0.000481711
-2.41969e-06
4.06678e-06
-1.6466e-06
0.000332836
-0.00034433
1.14942e-05
1.60927e-05
8.52462e-06
-2.4618e-05
-1.53844e-05
2.03933e-05
-5.00853e-06
-3.7147e-07
6.06571e-07
-2.35233e-07
0.000254236
-0.00015866
-9.55769e-05
0.000424766
-0.000328994
-0.000263679
0.000986263
-0.000722586
-2.78547e-06
2.75929e-06
2.64978e-08
-0.000122083
-3.6166e-05
3.50073e-08
7.56101e-08
2.74221e-08
1.7402e-06
0.00278206
-0.00111615
-4.26294e-05
-6.16381e-05
9.48121e-05
0.000225416
2.08746e-05
1.10889e-05
-5.04286e-06
-1.74992e-06
-0.000100921
0.000308789
-1.9266e-05
-4.71923e-06
2.39837e-05
8.77913e-05
0.000134759
-0.000222549
7.72802e-07
1.0532e-07
0.000224018
-0.000218637
-1.23381e-05
-1.46437e-05
-5.59906e-05
1.29743e-05
-2.18963e-05
-1.34186e-05
0.00162662
-0.00143996
-0.000186661
-8.07111e-07
4.55718e-07
-0.000157758
0.000245549
-1.98201e-06
-0.00119593
-0.000749939
0.00194586
-0.00091932
0.000288966
0.000630354
6.41499e-05
4.00869e-07
-0.00223563
0.000378173
-3.18595e-05
0.000293155
-0.000261297
2.93872e-07
1.46445e-05
0.000330188
-0.000344912
7.69521e-08
2.76402e-07
-3.53308e-07
0.000312924
-2.24875e-06
-0.00214094
-0.00142937
0.000396967
-0.000579088
0.000182115
-0.000315988
0.00238604
-1.19304e-07
-2.16379e-06
2.13591e-06
2.79353e-08
9.36416e-05
-0.000118219
-7.43382e-07
1.1775e-06
-4.33833e-07
-5.42173e-07
-1.69479e-07
-0.000227763
-8.52709e-08
5.0096e-09
0.000336837
0.00146687
-0.00180371
1.409e-07
3.62058e-07
0.000440974
-0.000223662
0.00182362
0.000471317
0.000417793
3.87309e-05
-0.00031008
0.000271348
0.000444871
-0.000311338
-0.000133533
9.93732e-06
8.14923e-05
4.97444e-07
0.00126802
-0.00340897
-5.86796e-05
0.000519194
-0.00102808
-0.00083068
3.28476e-06
-4.75074e-06
-0.00144555
0.00095976
0.000485787
0.00044458
-0.00178221
0.00133763
1.65585e-06
-7.4894e-07
4.0061e-05
-0.00018272
-8.7687e-08
-3.17392e-07
-2.89295e-05
0.00033078
-0.000301851
9.14135e-05
-2.98388e-05
-2.98328e-06
1.60743e-05
-1.3088e-05
1.27817e-06
-2.36898e-06
1.09099e-06
5.68576e-06
3.29872e-06
0.000964129
0.000687083
-0.00165121
-5.90529e-07
5.60246e-07
2.85505e-05
-1.36212e-05
4.95012e-06
8.67163e-06
-4.77561e-05
0.000274136
-0.00022638
2.12838e-07
4.36404e-07
-1.58217e-05
4.37912e-07
2.10311e-05
1.03397e-05
0.000290576
-0.000292061
4.22997e-07
1.81456e-07
-6.0462e-07
-6.49262e-08
-5.59186e-08
-6.61844e-07
4.17818e-07
-0.000434882
0.000171844
-0.000256109
6.97522e-05
0.000186356
0.000255548
0.000194773
0.000813629
-2.98763e-05
0.000362713
-5.9125e-05
0.000344905
-0.00028578
0.00018356
-0.00165401
1.41209e-05
-0.000609281
5.17613e-06
-5.60399e-06
4.26001e-07
-0.000408187
0.000190173
0.000218013
0.000552552
0.000197927
8.64734e-06
-8.82534e-06
1.79423e-07
-5.04253e-07
1.327e-07
-0.000298302
-0.000550696
0.000291616
-0.000916547
-0.000359826
0.000343336
0.000432359
0.000272957
0.00023055
-0.000162537
-0.000132699
4.00976e-05
0.000238677
-0.000278774
-2.33525e-05
-0.000212418
5.64457e-06
-4.68183e-07
-1.49415e-05
2.66081e-05
-1.1666e-05
-7.34252e-05
0.000111644
2.11789e-06
-6.56613e-07
-3.07969e-07
9.647e-07
-4.66492e-07
-1.24368e-06
1.71003e-06
-0.000275561
0.000367469
1.2408e-07
7.9788e-07
-9.21971e-07
1.16246e-07
7.32886e-07
-6.08841e-07
-4.83798e-07
4.09477e-07
-9.67857e-05
4.54226e-07
9.63308e-05
-3.50281e-06
-2.14073e-05
0.00039867
8.31608e-05
7.66492e-06
-0.000335536
-0.000595574
-0.000264896
0.00086047
-0.000102274
-0.000656477
0.00075381
5.31748e-05
-8.12203e-07
4.6653e-07
3.45398e-07
0.000237012
-8.19076e-06
-1.23702e-07
1.63543e-07
0.000765684
-0.000469594
2.53909e-08
7.18185e-08
1.12951e-07
7.15647e-07
-0.000270389
-0.00052045
1.43523e-05
-0.00022114
4.11976e-07
-3.51882e-07
0.000447781
0.000837478
-0.00128526
-0.00101375
0.000418176
7.4917e-06
-2.98181e-06
-4.51043e-06
0.000163426
0.000118316
-0.000281742
-1.00308e-06
1.92719e-06
-9.23693e-07
-0.000201745
0.000153988
-0.000423353
0.000524024
-0.000100741
0.000113771
-3.9409e-05
-7.4362e-05
5.62173e-08
4.43214e-07
-4.99338e-07
1.04555e-05
5.64348e-07
-6.79599e-05
-0.000291221
-5.4631e-05
0.000345847
-0.00101656
-0.000175518
-1.72197e-06
1.29501e-07
1.59212e-06
-1.77936e-07
-2.97997e-07
4.76758e-07
4.40876e-06
3.08312e-06
-6.25897e-05
3.87109e-05
2.38798e-05
0.000689325
-9.99624e-05
-0.00058931
-2.59773e-05
-3.59337e-05
-0.000343878
-1.41766e-05
0.000382194
-0.000368017
3.37611e-06
-1.14618e-05
0.000131466
-1.70999e-06
-4.53739e-07
1.56762e-05
2.08085e-05
-3.64843e-05
-1.34826e-06
1.43482e-06
1.18944e-06
3.33689e-06
8.15268e-06
0.000313166
-7.15137e-05
-8.55411e-07
-1.10968e-06
1.96551e-06
0.000326216
-2.11429e-05
-0.000235669
0.000256812
3.04774e-06
-4.45874e-07
-2.59997e-06
-6.58521e-06
-8.54359e-08
2.93735e-07
-2.08233e-07
0.000459205
-1.43332e-05
-0.000485723
-0.000471823
2.21281e-06
-9.77238e-07
-4.12754e-07
-3.9927e-07
-0.000144104
8.20847e-05
-0.000142024
0.00163691
-0.00149489
0.000283593
-0.000106761
-0.000176828
-2.54874e-06
6.60817e-08
2.48259e-06
-1.32572e-06
3.42446e-07
9.83283e-07
-5.04516e-08
-1.62781e-07
2.61855e-08
4.11679e-07
-4.37612e-07
0.000311146
2.55712e-05
-5.17825e-06
5.76504e-05
3.99028e-05
-0.000334686
-0.00241613
0.00138805
2.09892e-05
-3.62517e-06
-7.61165e-07
-5.16084e-06
5.92226e-06
0.00154713
-0.00121029
0.000357049
-0.000145512
0.00140063
0.000670954
0.00104899
-0.00039351
5.74354e-08
-2.0666e-07
9.46785e-07
-1.35652e-06
4.09861e-07
0.000863484
-5.771e-07
-9.00942e-08
6.67263e-07
1.35387e-06
-7.4864e-05
-0.000525384
0.000600299
1.47417e-05
2.74038e-06
0.00103275
-0.00196553
-4.07748e-06
9.51087e-06
-5.43364e-06
3.8122e-05
1.99744e-06
0.00030808
-4.34139e-05
1.21802e-06
-1.57477e-07
-1.06008e-06
9.6305e-06
-3.94456e-06
-2.53304e-06
7.08566e-07
6.36065e-06
-1.13933e-05
5.03422e-06
-2.99001e-07
1.0741e-06
-7.75012e-07
-0.000268923
2.9952e-06
1.14487e-05
-8.112e-06
-5.77995e-06
-7.84099e-06
0.000521248
3.60902e-05
-0.000557397
0.000213561
0.000750568
9.32327e-07
-4.81232e-07
-4.51112e-07
-0.000913278
-0.000421073
-0.0002253
0.000646374
9.34913e-06
-8.66535e-06
1.05823e-06
-5.32719e-07
-5.25525e-07
-2.13093e-05
5.44023e-05
-3.30927e-05
-1.81979e-07
1.1288e-06
0.000124273
0.000268894
1.58351e-05
-1.95225e-05
3.68741e-06
0.000294387
5.46364e-05
6.64945e-07
2.36428e-06
-3.02931e-06
0.000154489
-0.000445715
-0.000150964
1.05415e-06
3.80149e-07
-1.43419e-06
-6.3189e-06
2.85584e-06
3.46271e-06
-1.13838e-06
6.36904e-06
-5.2306e-06
0.000225601
-0.000176003
-4.95987e-05
1.15319e-09
-8.63581e-08
8.53078e-08
1.35914e-05
-3.45354e-06
-5.20866e-07
-1.03554e-05
3.41623e-07
1.29144e-06
-1.63293e-06
-6.20051e-06
2.07187e-07
1.01098e-06
-1.48743e-06
3.70079e-05
-7.25375e-06
-2.97535e-05
3.5709e-06
-1.63594e-07
0.000216162
0.000224822
-1.07804e-06
8.39888e-07
1.49478e-06
-7.52401e-07
-7.42043e-07
0.000240026
0.000252808
-0.00014796
3.70118e-05
0.00011095
1.82992e-05
-6.01803e-05
2.69849e-05
3.31952e-05
-1.10316e-05
-1.24258e-05
7.37419e-06
-4.49333e-07
-6.92553e-06
0.000886541
-0.000237624
-0.000648859
0.000666928
-0.000156701
-0.000510231
1.04097e-08
-1.3052e-06
1.29469e-06
-3.28771e-07
-6.90564e-08
3.97972e-07
-0.00213048
0.000354564
0.00177592
-3.29081e-05
0.000417359
-0.000384451
0.00028196
1.45082e-05
-7.00595e-08
4.41228e-07
-0.000484591
0.000162178
2.71616e-06
3.35717e-06
-6.07231e-06
0.00044432
-0.000320049
-1.62848e-06
1.00828e-07
-0.000335378
4.59998e-05
0.000289299
0.000496533
9.16833e-06
-5.98346e-07
-1.48628e-07
7.47282e-07
-9.00087e-06
1.82474e-06
7.17702e-06
-4.55004e-05
0.000253416
-0.000207915
0.000329849
1.87808e-05
4.39258e-06
1.80281e-05
1.85775e-05
-4.11428e-06
6.96058e-07
3.41855e-06
-3.15577e-08
4.7484e-07
-6.25083e-06
2.19271e-05
-9.46055e-06
-5.66173e-06
3.54225e-05
0.000248175
-1.12913e-05
1.01424e-05
3.60071e-07
2.68774e-06
-8.40432e-05
0.000311947
-0.000200735
-0.000207451
3.99266e-07
-1.91837e-07
-0.000489448
-8.02031e-05
0.000569652
-1.78393e-06
1.45022e-06
3.33844e-07
-0.000208667
0.000138178
7.04895e-05
-2.5725e-05
2.49792e-05
3.72144e-06
1.01527e-06
-4.73671e-06
5.81457e-06
-9.20902e-06
-2.07024e-06
-1.33789e-06
1.42941e-06
-2.2846e-06
-4.52693e-05
-1.07207e-05
0.000811715
1.07929e-05
0.000216627
4.98346e-05
-2.26006e-05
-2.72319e-05
3.67611e-06
-4.88761e-05
-0.000418674
-0.000922278
0.000485674
0.000436634
7.98688e-06
8.28457e-07
-8.81837e-06
0.000119734
-0.000342352
0.000222619
0.000784625
0.000407729
-0.00119235
-1.18879e-05
1.53522e-05
-3.45957e-06
2.26322e-06
7.08432e-06
-1.64653e-05
4.57842e-06
-4.39908e-06
4.50042e-08
-8.36174e-07
6.45137e-07
1.90917e-07
0.000117472
-0.000304321
0.000186841
1.22785e-05
-0.00172596
-0.000404517
5.36567e-06
6.85933e-05
-0.00015425
8.56542e-05
1.61574e-06
-1.27416e-06
-6.40291e-06
1.8947e-07
-4.30369e-06
-0.000150108
0.000152567
-2.45927e-06
-2.7132e-07
-6.38205e-07
1.61405e-06
-0.000924986
2.0757e-07
5.1051e-07
-0.000265925
-6.9493e-05
-3.44494e-07
5.81214e-07
4.40574e-08
1.459e-05
-5.25534e-06
-9.33392e-06
1.86626e-05
1.12234e-05
-2.98856e-05
-2.77224e-05
4.72987e-05
-1.79361e-05
2.67309e-05
-8.7938e-06
6.12052e-06
-5.2159e-06
-9.06121e-07
7.88164e-06
2.4079e-06