/*--------------------------------*- C++ -*----------------------------------*\
| =========                 |                                                 |
| \\      /  F ield         | OpenFOAM: The Open Source CFD Toolbox           |
|  \\    /   O peration     | Version:  v2012                                 |
|   \\  /    A nd           | Website:  www.openfoam.com                      |
|    \\/     M anipulation  |                                                 |
\*---------------------------------------------------------------------------*/
FoamFile
{
    version     2.0;
    format      ascii;
    class       volScalarField;
    location    "350";
    object      epsilon_0;
}
// * * * * * * * * * * * * * * * * * * * * * * * * * * * * * * * * * * * * * //

dimensions      [0 2 -3 0 0 0 0];


internalField   nonuniform List<scalar> 
13749
(
0.00200156
8.52212e-07
1.51035e-06
1.05513e-06
0.00532165
4.50588e-07
0.00880937
1.41405e-06
3.66135e-06
1.04368e-06
4.53738e-07
1.54122e-06
1.51357e-06
0.00241151
1.18487e-06
0.00239281
1.65106e-06
1.37953e-06
9.50507e-05
5.61593e-07
0.00572712
0.00804112
8.04915e-07
1.67335e-06
1.67756e-06
4.48361e-07
1.20759e-06
2.38423e-06
0.00917374
0.00615519
5.74804e-06
1.06307e-06
3.81203e-06
1.18972e-06
0.000423002
0.00697505
0.0093848
1.24735e-06
0.000408504
0.00981334
1.43265e-06
4.26309e-06
8.81137e-07
0.00834763
5.45509e-07
8.61616e-07
5.26266e-07
9.73812e-07
1.87169e-06
1.3722e-06
1.68482e-06
5.43196e-07
0.00969558
9.50356e-07
1.40019e-06
0.00790891
0.00867928
1.72796e-06
5.37728e-07
2.64917e-06
1.05983e-06
2.6197e-05
9.96313e-07
7.0581e-07
2.25756e-06
0.00020957
1.64213e-06
8.53018e-06
0.00801057
0.00176812
1.66167e-06
6.3388e-05
1.30079e-06
0.00697658
1.4215e-06
0.00681397
1.07655e-06
4.16236e-07
0.00914096
8.61739e-07
2.43542e-05
1.67495e-06
1.6374e-06
5.19165e-07
0.0103273
7.26652e-07
0.00167686
1.64306e-06
0.00551936
2.21844e-06
9.65085e-07
7.20894e-05
4.50152e-07
2.34668e-06
1.40571e-06
0.00572495
0.00468003
1.66821e-06
0.00686033
5.41501e-07
1.06671e-06
0.00408834
1.21598e-06
4.02891e-06
4.51194e-07
1.4849e-06
9.57834e-07
0.000305843
4.18138e-07
0.00620687
1.23725e-06
0.000174967
0.00887038
1.38738e-06
2.27556e-06
5.6112e-06
1.06398e-06
1.54477e-06
2.43844e-06
1.37259e-06
9.44073e-07
1.35135e-06
4.40898e-07
8.27612e-07
5.36986e-07
0.00944904
1.5846e-06
1.43095e-06
8.23313e-07
0.00127802
5.24413e-07
0.00172771
2.47949e-06
0.00644258
4.41768e-06
0.00821014
0.00681308
2.56461e-06
4.30018e-07
7.73958e-07
0.00608752
5.44841e-07
9.44001e-07
0.00225879
1.22108e-06
4.21324e-07
0.00550639
0.00787996
0.006835
0.00873818
5.42275e-07
0.00631582
4.40551e-07
2.1263e-05
0.00966708
1.46342e-06
0.00288294
1.03662e-05
1.06998e-06
1.15976e-06
1.50362e-06
4.46679e-07
1.48244e-06
5.08552e-07
6.0958e-06
1.51655e-06
5.39535e-07
1.24772e-06
0.00750959
1.00359e-05
1.27133e-06
4.45026e-07
0.00889319
0.00540108
4.45445e-06
1.51778e-06
4.73974e-06
3.84194e-05
2.38161e-06
0.00574072
1.63237e-06
1.38146e-06
4.92802e-06
0.00196067
1.50358e-06
7.75104e-07
9.40487e-07
6.28527e-07
0.0189615
9.71771e-07
0.00529974
6.63175e-05
1.51899e-06
1.48789e-06
7.21195e-07
6.19108e-07
2.43888e-06
1.7156e-06
1.9579e-06
0.000129286
0.00701163
1.50165e-06
0.00973547
0.00722745
9.86648e-07
0.00109174
4.31885e-06
0.00949024
5.31605e-07
5.39278e-07
1.43006e-06
0.000951983
1.73764e-06
8.90343e-07
0.009444
0.000302269
1.49399e-06
0.00640047
1.44241e-06
9.47035e-07
5.30021e-07
0.00595714
3.93952e-06
1.63598e-06
0.000417645
0.00536582
0.00230884
5.42473e-07
0.00107477
9.33447e-07
0.000406555
0.00399471
9.21993e-07
4.43421e-07
1.34682e-06
4.19329e-07
0.00553012
9.12469e-07
1.99825e-05
4.34844e-07
0.00256945
3.24213e-06
9.4439e-07
1.01137e-06
4.69016e-07
4.86026e-07
1.0151e-06
8.99064e-07
0.00021953
1.72755e-05
1.26134e-06
7.30701e-07
0.00720745
0.00456629
1.32377e-06
4.7337e-07
0.00541532
3.20616e-06
1.42861e-06
8.36843e-07
0.00942163
0.0100702
1.2502e-06
1.656e-06
8.39791e-07
4.18532e-07
4.24211e-07
6.989e-05
0.00781211
1.57075e-06
5.35234e-07
1.4856e-06
0.00561562
0.00440644
9.8549e-07
0.00909964
0.000193097
1.68853e-06
0.00760837
1.22779e-06
8.46224e-05
0.0040033
0.00783044
1.48039e-06
0.00125766
1.5646e-06
8.20357e-06
3.03234e-05
8.32319e-07
0.0101939
0.00519259
3.48398e-06
1.3718e-06
1.70079e-06
0.0101105
0.00974593
7.54141e-07
1.4044e-06
0.00248686
1.48288e-06
0.010097
1.23464e-05
0.00575671
1.46176e-06
2.52795e-06
0.00607894
0.00783572
8.68023e-07
0.00555044
7.67424e-07
8.13118e-07
1.69056e-06
0.00101969
1.98294e-06
1.73666e-06
1.03737e-06
0.00017409
8.17595e-07
4.21112e-06
5.53565e-07
9.35388e-07
9.47341e-07
1.47295e-06
0.000210442
1.29173e-06
1.46204e-06
0.00704213
9.30398e-07
1.06804e-06
0.00851364
0.0109744
1.3397e-06
7.14557e-07
0.00233089
1.41227e-06
9.88523e-07
0.00163438
1.3981e-06
0.00683123
0.0022239
4.14758e-07
0.00566461
0.00242991
1.53944e-06
4.73106e-07
1.96311e-06
1.69771e-06
1.72772e-06
1.1083e-06
0.000344385
1.48677e-06
0.00606182
1.28647e-06
6.65834e-07
1.86013e-06
1.87042e-06
1.62278e-06
9.8388e-07
1.73936e-06
9.35324e-05
1.1302e-06
9.4372e-07
2.33413e-06
0.00503439
4.74076e-07
9.44749e-06
6.9226e-07
2.77595e-06
1.4227e-06
1.26677e-06
7.36362e-05
4.51198e-07
1.3821e-06
9.46766e-05
1.31444e-06
8.58183e-07
5.08134e-07
9.35864e-07
0.00790336
1.97008e-06
1.23834e-06
5.35809e-07
7.73153e-07
0.00139093
1.87662e-06
0.000196013
0.00476649
2.59026e-06
0.00572761
0.00457098
1.4856e-06
1.11466e-06
9.35725e-07
0.000408769
0.00747496
9.47559e-07
1.01099e-06
1.28692e-06
0.00562957
5.31699e-07
1.92857e-06
1.31069e-06
4.26483e-05
1.44785e-05
9.60944e-05
0.00263803
0.0115469
1.13374e-06
0.000318721
0.00150417
4.37341e-07
0.000327731
1.22038e-06
0.000239925
4.18724e-07
0.00222383
0.00762978
1.40256e-06
0.00841606
0.00646298
1.02585e-06
1.68749e-06
0.00741793
1.65489e-06
1.18018e-06
1.51511e-06
4.97998e-07
1.1801e-06
1.60114e-06
1.27317e-06
2.38236e-06
1.07276e-06
8.4759e-07
7.62127e-07
1.31054e-06
1.27944e-06
1.27618e-06
0.0170896
1.33261e-05
9.25851e-06
0.000957532
0.0052891
1.74122e-06
0.00413856
0.00903836
0.00791347
1.39356e-06
1.3797e-06
0.00554331
0.000242348
2.1907e-06
1.41111e-05
4.20749e-07
5.21334e-07
1.54401e-06
1.66703e-06
1.63604e-06
0.00498053
0.00587755
0.0118998
5.15266e-07
1.002e-06
0.00923227
5.43127e-07
0.00709613
0.000758923
1.35793e-06
1.69396e-06
2.32118e-06
0.00643442
1.68065e-06
0.00691267
9.62121e-07
1.39354e-06
5.7388e-07
0.0030927
2.60376e-05
1.56822e-05
1.61957e-06
0.0011759
7.94001e-07
1.6686e-06
1.01314e-06
7.63165e-07
1.02161e-06
5.202e-07
1.15708e-06
1.37422e-06
1.38151e-06
0.00858781
7.25598e-07
3.94969e-06
2.52225e-06
8.49658e-07
0.010022
0.00653089
0.00864427
1.17212e-06
2.30478e-06
1.82582e-06
0.000572705
8.98246e-07
1.80527e-06
5.37094e-07
0.00938847
1.30808e-06
7.30908e-07
0.00771171
0.00270032
1.36419e-06
0.000347473
0.00772816
1.7853e-06
0.00269098
0.00225647
6.49072e-07
0.00566726
7.99087e-07
0.00549702
0.000195688
8.02225e-07
1.4673e-06
0.00960942
1.65093e-06
1.00237e-06
0.00466164
0.0112792
0.000430635
1.79636e-06
0.00118874
1.54576e-06
1.34414e-06
0.00607648
0.00980811
1.81431e-06
0.00448664
0.00598444
8.56667e-07
0.00825852
1.61075e-06
1.05192e-06
0.00631452
0.00610766
1.49772e-06
1.2433e-06
0.00952392
1.55612e-06
1.36842e-06
0.00639849
0.00303027
0.0108253
1.26994e-06
0.00886962
1.93674e-06
0.00966828
6.21958e-07
4.21175e-06
0.0056464
1.16752e-06
1.55415e-06
1.28027e-06
0.00969612
0.000489363
4.19286e-07
1.02971e-05
1.04489e-06
0.00218079
0.000981997
1.62025e-06
2.08344e-06
1.61429e-06
1.31439e-06
0.0088946
3.91821e-06
1.6621e-06
0.00539779
2.01521e-06
0.0060707
1.55451e-06
9.97749e-07
0.00147351
1.75019e-06
1.72683e-06
0.00682927
1.3559e-06
0.00273213
0.000310514
1.63969e-06
0.00916006
1.68919e-06
0.00736141
2.33975e-06
0.000408996
1.83501e-05
4.3132e-05
0.00197429
2.00564e-06
0.0103644
0.00843296
1.19524e-06
0.00222176
1.3941e-06
0.0101626
0.00774715
0.00539697
0.00686926
1.3432e-06
5.08018e-07
1.47183e-06
0.000322852
1.61119e-06
1.48969e-06
1.66907e-06
2.846e-05
2.29007e-06
5.89568e-06
1.19038e-06
2.28348e-06
0.0061361
1.39086e-06
9.92475e-07
0.00200552
9.81825e-07
1.51719e-06
0.00189635
1.18289e-06
0.00761139
1.32444e-06
8.97401e-07
4.19239e-07
9.53172e-07
0.00240311
3.07341e-05
3.67038e-06
2.15035e-06
0.00623378
4.72291e-07
9.46588e-07
1.27188e-06
0.0066525
3.11721e-06
0.00817168
0.00688193
0.0055949
5.35871e-07
0.00625252
1.03901e-06
0.000420874
1.20911e-06
1.97924e-06
0.010387
4.66275e-05
0.001935
3.64615e-06
1.40659e-06
2.37059e-06
1.0797e-06
1.02267e-05
0.00245992
0.00262062
9.43303e-07
0.00107353
0.00665688
0.00576441
0.00781796
0.00616706
0.00656868
0.00262541
1.38969e-06
1.82105e-06
2.33403e-06
1.72544e-06
9.26507e-07
6.83919e-07
1.54544e-06
1.4258e-06
0.000194959
1.68036e-06
0.00669074
0.00230678
4.8767e-07
1.23493e-06
0.0074835
0.008424
0.00138146
1.40414e-06
0.00539167
1.62811e-06
1.46373e-06
0.00242371
2.34526e-06
0.0100385
5.25819e-07
4.16792e-07
0.0102011
1.04842e-06
0.0103371
6.21836e-07
0.00989528
1.81544e-06
1.18422e-06
4.97253e-07
3.38702e-06
7.09584e-07
0.0104791
1.47265e-06
0.000349677
0.00074131
5.13595e-07
1.47678e-06
0.000449923
0.00340645
1.35753e-06
0.0055866
6.62054e-07
9.50969e-07
1.622e-06
0.000904815
0.00709259
0.00030192
7.36304e-07
1.11882e-06
2.0041e-05
1.51488e-06
1.26834e-06
0.0235336
9.65646e-07
0.00265757
1.04615e-06
0.0080935
0.000538772
1.32956e-06
0.00980612
0.00728872
2.2207e-06
1.4164e-06
0.000928225
7.74396e-06
0.00115778
1.65723e-06
1.22348e-05
0.000198502
9.19968e-07
3.948e-06
1.08043e-06
0.00754076
3.71852e-06
5.18627e-07
1.26563e-06
1.46223e-06
0.000195103
1.64221e-06
9.55204e-07
1.69737e-06
0.00699524
1.51554e-06
4.87151e-07
1.38726e-06
0.00774173
8.00296e-07
9.55599e-07
6.46691e-07
5.61852e-05
1.33493e-06
0.00644304
1.98421e-06
0.00687629
0.00761575
4.61581e-06
0.00758227
4.48751e-07
0.00615831
1.1118e-06
1.53129e-06
1.25913e-06
9.45437e-06
0.000923467
0.00556239
0.00522903
8.45655e-05
5.50982e-07
0.000102094
0.00747245
4.48383e-07
1.81361e-06
8.39745e-07
1.26175e-06
6.06136e-07
9.08899e-07
0.00735601
9.09816e-07
6.20437e-07
9.12496e-07
7.7267e-07
8.61745e-07
0.00221344
6.82219e-05
0.0102769
0.00404513
0.00624128
0.00557105
0.00726302
7.4632e-07
0.00621452
1.57449e-06
1.84128e-05
1.58481e-06
6.90835e-07
0.00982573
9.94649e-07
3.7186e-06
6.88645e-07
0.0044423
0.00401024
4.60806e-07
0.00884884
1.48635e-06
0.00710938
0.0053733
8.24151e-07
1.46898e-06
4.76791e-07
2.24217e-06
4.86351e-06
1.56581e-05
5.31025e-07
6.18427e-07
4.60609e-07
2.0141e-06
0.00611114
1.82874e-06
8.59986e-05
0.00917664
1.65087e-06
0.0112281
1.12465e-06
0.00237373
1.12316e-06
9.11246e-07
1.2684e-06
0.00762073
1.53688e-06
9.16789e-05
3.52674e-06
4.32107e-07
1.70188e-06
1.50654e-06
0.00751754
0.0061903
1.21168e-06
7.43467e-07
0.0107407
8.24494e-05
4.51402e-07
1.11794e-06
1.36374e-06
1.09101e-06
6.35116e-07
0.00810076
4.92227e-07
2.22822e-06
0.00743792
0.00101538
0.00287347
1.64066e-06
0.00283297
4.19214e-06
0.00232522
0.00563591
1.5525e-06
1.62539e-06
5.07242e-05
1.44979e-06
1.00988e-06
7.8197e-06
8.89004e-07
8.35616e-06
1.67755e-06
8.52043e-07
0.00951966
1.29865e-06
1.45095e-06
1.53048e-06
4.82281e-07
1.36651e-06
0.00898189
1.26017e-06
1.69552e-06
0.00389382
0.000197805
1.10823e-06
1.15542e-05
0.00647036
4.19639e-07
1.25498e-06
2.0936e-06
1.6287e-06
0.0083221
1.20408e-06
3.68803e-06
1.51666e-06
4.81162e-06
5.36197e-07
8.47692e-07
7.20327e-07
1.68165e-06
1.56721e-06
1.59823e-06
1.69196e-06
1.46896e-06
1.22007e-06
1.56767e-06
1.6513e-06
1.30119e-06
9.29888e-07
1.9732e-06
4.16749e-07
0.00724454
1.24589e-06
1.52053e-06
0.00789571
2.69174e-06
5.28354e-07
9.01898e-07
1.44497e-06
4.65059e-07
1.02399e-05
0.00796984
1.11073e-06
1.53669e-06
0.00156724
1.38214e-05
0.000135322
9.02362e-07
0.00626155
4.36313e-07
0.00854285
1.17067e-06
0.00482996
9.15453e-07
1.99102e-06
1.5323e-06
1.59219e-06
0.00611818
0.0098574
4.64683e-07
0.00249279
0.00608813
1.64153e-06
1.48173e-06
0.00734433
0.00200011
4.82906e-07
1.7403e-06
4.65804e-07
1.69548e-06
4.28034e-07
0.00774682
0.00610442
1.29881e-06
0.000297364
1.40455e-06
0.00668263
1.91582e-06
7.57886e-07
4.69551e-07
1.52089e-06
0.00260215
1.12097e-06
1.53165e-06
1.17568e-06
9.14594e-06
1.52944e-06
0.00679014
4.87839e-07
4.92806e-07
1.25741e-05
0.00592042
4.19002e-07
0.00924692
0.00333736
4.21906e-07
4.18146e-07
4.20824e-07
7.66967e-07
1.23292e-06
0.000186296
0.00164249
0.00163092
4.68747e-07
0.00455608
1.56189e-06
1.67166e-06
1.63943e-06
8.09312e-07
1.55111e-06
6.58486e-07
6.0847e-06
1.0738e-06
0.00464711
1.38828e-06
6.87355e-07
1.65779e-06
0.00288762
5.02423e-07
1.81489e-06
4.52633e-07
0.00412561
1.67002e-06
0.0076129
0.00937812
1.41444e-06
0.0108781
0.00049308
0.01056
0.0075914
5.24538e-07
4.52398e-07
0.00695203
0.000209474
0.00548957
0.00919829
1.59548e-06
7.82948e-07
0.00271171
1.54531e-06
2.56603e-06
1.47962e-06
1.6036e-06
0.00636781
0.0022694
1.41361e-06
1.1411e-06
1.04567e-05
0.00875575
0.00019692
0.00916762
4.59545e-07
5.22668e-06
4.92717e-07
1.60248e-06
0.00131396
5.18796e-07
0.0084714
1.60856e-06
0.00673801
1.24329e-06
1.63251e-06
0.000197571
0.0017122
0.00232335
0.00512281
4.32902e-07
1.24547e-06
7.34698e-07
0.008372
0.0103627
1.53689e-06
1.108e-06
1.90676e-06
0.00670007
1.61922e-06
1.37428e-06
4.83617e-07
1.21853e-06
7.03744e-07
4.32749e-07
1.5294e-06
8.12256e-07
9.00304e-07
5.9142e-05
1.56457e-06
0.000206529
1.43143e-06
1.5663e-06
0.000188857
6.42198e-07
0.00589457
6.77285e-07
0.00110496
1.39935e-06
1.39702e-06
1.20438e-06
0.00720708
1.27686e-06
1.26177e-06
3.55717e-05
2.79298e-06
2.58879e-06
0.0120892
1.69691e-06
8.47696e-07
0.000453237
6.65176e-07
7.28688e-07
6.85369e-07
1.24892e-06
1.56696e-06
1.64267e-06
0.00042287
0.00264775
0.0121763
1.73052e-06
4.96932e-07
1.6997e-06
0.000380613
0.00591058
9.59215e-07
0.0022115
5.57913e-06
0.00523905
8.09381e-07
4.56651e-07
8.02233e-07
0.00810763
8.31936e-07
1.70902e-06
0.00226956
1.39218e-06
1.07551e-06
0.006251
4.91768e-07
1.38424e-06
1.60384e-06
0.00630425
0.000204329
0.00551349
0.00753387
3.49637e-06
4.76875e-07
1.21461e-06
6.75265e-07
0.000248617
0.00909479
8.68129e-07
8.20977e-05
8.97239e-07
2.1017e-06
1.55569e-06
2.30662e-06
1.37652e-06
1.58148e-06
7.35499e-06
0.0102648
4.34952e-07
5.9785e-07
1.94863e-06
1.4132e-06
0.00202553
1.62383e-06
1.56176e-06
5.89059e-07
0.00671036
0.00566333
4.4539e-07
5.09206e-07
0.0022557
9.4727e-07
0.0043549
1.60529e-06
1.11432e-06
0.00670222
0.00237507
5.90509e-07
7.64979e-07
9.10712e-07
0.010866
1.5223e-06
1.66729e-05
9.21319e-06
1.59098e-06
5.03596e-07
1.49621e-06
0.00833017
6.03874e-07
0.00439747
0.00638029
1.63881e-06
3.32523e-06
7.96128e-07
2.08645e-06
0.00130385
1.6608e-06
0.00570576
0.00937365
1.05705e-06
8.31967e-07
1.16501e-06
1.31851e-06
1.13271e-05
5.92119e-07
8.11088e-07
1.209e-06
4.56471e-07
0.000213512
1.21729e-06
2.13558e-06
6.29283e-06
1.18736e-06
1.15328e-05
0.00708654
6.2036e-07
1.26101e-06
7.81328e-07
7.96193e-06
1.58051e-06
1.65147e-06
1.05376e-06
0.00252363
1.06305e-06
0.000958776
0.00610985
0.000172308
0.0055554
1.371e-06
0.00030513
0.00726677
5.91424e-07
4.88057e-07
7.74843e-06
7.4871e-07
0.00933423
1.66784e-06
0.00123036
0.0028285
9.48003e-07
0.00735353
1.16917e-06
1.19865e-06
1.3716e-06
0.00685252
0.00725713
0.00754722
0.00789492
0.0110481
1.37328e-06
0.00892477
8.02659e-07
5.20211e-07
1.8742e-06
1.16573e-06
0.00363028
0.000139744
7.02863e-05
2.10849e-06
6.37762e-06
4.5547e-07
0.00661074
0.00768702
2.17673e-06
5.0878e-07
6.00711e-07
2.15571e-06
1.44201e-06
9.22176e-07
1.90243e-05
0.0077097
6.33249e-07
1.37486e-06
6.27642e-07
1.03288e-06
4.85114e-07
7.01097e-07
0.0032237
7.94267e-06
0.000180409
1.5097e-06
9.62188e-05
7.76783e-06
1.57138e-06
0.00689138
1.76225e-06
0.000201306
1.07427e-06
2.05564e-06
9.08919e-07
7.95151e-07
1.49845e-06
1.64715e-06
1.42016e-06
9.41466e-05
3.26755e-06
0.00715666
0.00724866
8.24216e-07
3.76644e-06
0.00697005
4.23119e-07
1.21582e-06
2.34546e-06
0.00698272
2.12881e-06
1.16519e-06
0.00887546
5.03303e-07
0.000367234
0.00718221
7.06019e-07
1.44158e-06
0.000171227
1.4175e-06
1.04767e-06
8.2665e-06
0.00674612
4.31251e-06
0.00462525
1.38067e-06
6.25627e-07
0.00433313
1.3038e-06
0.000312577
2.58731e-05
1.6513e-06
0.00968692
1.58984e-06
7.43848e-05
1.63483e-06
8.99907e-05
1.81363e-06
1.82665e-06
4.4498e-07
0.000175018
1.47838e-06
0.000178112
7.96354e-06
1.74872e-06
1.55057e-06
7.86019e-06
1.35633e-06
0.00693106
1.02378e-06
9.15221e-06
0.00693882
8.16729e-07
1.23123e-06
0.0063227
5.78511e-07
0.000174303
1.15124e-05
0.00690244
1.78348e-06
4.18374e-07
1.66e-06
1.25695e-06
1.64256e-06
0.0105859
8.79047e-07
0.000111285
1.64409e-06
1.61583e-06
1.22991e-06
4.44239e-07
0.00541708
7.29742e-07
9.72372e-07
0.00332334
0.000350482
9.19212e-07
3.47889e-06
2.95472e-06
0.00714099
5.52015e-07
1.78478e-06
9.31316e-07
0.00317508
1.33864e-06
2.78431e-06
1.56366e-06
0.00777823
0.00435947
1.01207e-06
5.80059e-07
0.00620056
0.00792082
1.05878e-06
1.48576e-06
0.000102946
7.24647e-06
7.31759e-07
9.32643e-07
1.64927e-06
0.0103629
4.1013e-06
6.00125e-07
0.000162413
0.00782146
0.0074316
4.80697e-07
9.12809e-07
1.29167e-06
1.51985e-06
1.50282e-06
0.010716
1.17651e-06
1.0774e-06
1.51962e-06
5.50488e-07
1.44455e-06
4.20135e-07
5.0946e-07
0.00227149
1.64355e-06
2.36703e-06
0.00749749
4.543e-07
4.66391e-07
0.00811454
8.49099e-07
0.00914229
6.3221e-07
7.23406e-07
1.30338e-06
0.00343421
0.00852457
1.07656e-06
1.44994e-06
9.96441e-07
0.000333629
5.32002e-07
9.38987e-07
1.43379e-06
1.16515e-06
9.01073e-07
4.2148e-07
1.16541e-06
8.61556e-07
0.00598309
0.00218215
0.000186907
1.42809e-05
1.62211e-06
1.47239e-06
1.34334e-06
1.62185e-05
0.00731886
6.62078e-06
1.49961e-06
1.62333e-06
1.70543e-06
1.51377e-06
0.00407103
1.66027e-06
8.29e-07
9.54257e-07
0.00810945
0.0111816
1.40521e-06
0.0102476
1.77054e-06
8.46286e-07
1.38943e-06
1.51621e-05
1.52143e-06
5.14936e-07
1.19678e-06
1.59791e-06
1.67347e-06
1.41803e-06
7.8563e-06
1.26308e-06
0.00801508
8.69347e-07
0.000158177
0.00707954
2.29573e-06
0.00288084
6.64983e-06
1.19752e-06
6.97534e-07
1.15332e-06
1.20987e-06
0.000839323
1.57049e-06
9.03895e-07
0.00191401
0.00407091
0.00797644
1.72559e-06
1.51772e-06
7.22323e-07
4.98287e-06
0.0035495
1.25204e-06
0.00781815
1.39319e-06
1.10178e-06
0.000156466
0.000171652
0.00709218
1.47119e-06
1.26138e-06
1.44e-06
8.5367e-07
1.41885e-06
0.0086219
1.4087e-06
1.62832e-06
2.61506e-06
2.17144e-06
4.39574e-07
1.51463e-06
0.00772168
4.40713e-06
9.87832e-07
0.00150765
1.8103e-06
1.42941e-06
1.64021e-06
1.05834e-06
1.23904e-06
2.02691e-05
1.08181e-06
1.72517e-06
0.00226847
7.89167e-07
0.00272026
0.00888792
3.56984e-06
0.00459413
0.00460176
0.00669481
8.19264e-05
1.63615e-06
6.0196e-07
0.00569683
1.45129e-06
0.00913436
4.90527e-07
9.29529e-07
1.52679e-06
0.00570062
0.0018796
0.000151919
1.14408e-06
0.00370942
0.00811982
0.00727219
3.59013e-06
0.000114106
0.00701906
1.22372e-05
0.00358994
1.76083e-06
3.37702e-06
1.48566e-06
6.89793e-07
9.81117e-06
0.0036795
0.000151782
1.56821e-06
9.85638e-07
1.35273e-06
0.00442324
0.00550179
1.51145e-06
8.32073e-07
4.96001e-06
0.0127491
1.50694e-06
9.08278e-07
7.22928e-07
1.17503e-06
8.85263e-06
0.00863072
1.11684e-06
0.000612851
8.45513e-07
9.1412e-07
1.64137e-06
0.00832532
0.000188974
1.61579e-06
8.18245e-07
4.67998e-07
0.000158758
0.0073956
6.84011e-07
7.36785e-07
0.00577446
1.38119e-06
5.99409e-07
1.5202e-06
0.00681628
8.26276e-07
9.91967e-07
1.83355e-06
4.75101e-07
1.30074e-06
0.000148134
0.0077227
1.46632e-06
9.79608e-07
4.11844e-07
0.00113591
9.36675e-07
8.91417e-06
0.00568238
1.49452e-06
0.00799843
0.00850738
3.89733e-06
7.91507e-07
4.71488e-05
0.00575517
6.18393e-06
8.06038e-07
1.63778e-06
1.8393e-06
1.89338e-06
1.60385e-06
1.48324e-06
6.02163e-07
0.000316144
2.55203e-06
0.00982721
1.47852e-06
1.43847e-06
0.00831693
7.54864e-07
0.00989168
0.00550856
1.06378e-06
1.54795e-06
5.02567e-07
1.70534e-06
1.47333e-06
0.00762014
0.00689879
1.67852e-06
6.24938e-07
1.03472e-06
4.68358e-07
7.58736e-05
1.54733e-06
0.00621428
2.10413e-06
0.00222074
0.000175952
1.6271e-06
0.0083112
0.000843249
0.00352204
0.00564499
1.20099e-06
7.91111e-07
4.14146e-07
1.15658e-05
0.00991189
7.14204e-07
0.000189095
0.00206896
6.61197e-05
0.00773232
9.55061e-07
0.00326152
1.16948e-06
7.10037e-06
1.55013e-06
3.72027e-06
2.3978e-05
0.0087317
1.12307e-06
4.35376e-07
0.00445287
1.52353e-06
0.000169784
1.40368e-06
0.000259141
0.00603472
9.18482e-07
1.52495e-06
0.00238732
1.02883e-06
6.64484e-07
0.00479304
0.000546189
1.70425e-06
1.08041e-06
0.00961951
4.5668e-06
1.56761e-06
2.5047e-06
2.41242e-06
0.00348068
0.0032207
0.00176787
0.000173146
4.26107e-06
9.78515e-07
3.42667e-06
0.00666346
1.72975e-06
1.69744e-06
4.62432e-07
1.60459e-06
1.50618e-06
1.56717e-06
4.22207e-06
0.00180674
0.0124036
0.00238893
0.00610159
1.66471e-06
3.8702e-06
9.05978e-07
0.00554973
0.00167848
0.000187853
0.000144807
0.00821661
1.76062e-06
1.79463e-06
6.67003e-07
0.00243051
1.38661e-06
9.18505e-07
1.59083e-06
1.4293e-06
0.00188718
0.000138233
0.00245528
4.18724e-07
0.00022942
0.00832666
4.98065e-07
7.21592e-07
3.03004e-06
0.00126321
8.57045e-07
1.54685e-06
0.00980824
9.91019e-07
1.08759e-06
1.61705e-06
9.31223e-07
7.51313e-07
1.18647e-06
9.57392e-07
0.00070853
1.13285e-06
5.10604e-07
1.64644e-06
0.000170043
1.74271e-06
0.00469662
1.87458e-06
1.81135e-06
1.41756e-06
1.56835e-06
0.0016121
1.61024e-06
0.00208104
0.00662061
0.00196601
0.00203759
9.53332e-07
0.00834102
1.91546e-06
8.01642e-07
0.00696749
0.00727197
0.00236487
1.55651e-06
8.13809e-07
0.00757858
0.00388633
9.24155e-07
1.51892e-06
1.81309e-06
1.13729e-06
0.00324843
5.92484e-07
1.20237e-06
0.00616717
1.56175e-06
0.00607567
1.60144e-06
9.23527e-07
1.34581e-06
1.23889e-06
0.00763577
0.00254495
7.51337e-06
0.00414328
4.74576e-07
8.85766e-07
1.00825e-06
1.76302e-06
7.64273e-07
1.09474e-06
7.11986e-07
1.04892e-06
0.00726191
8.55461e-07
0.00219715
0.00307873
0.000720633
0.00251899
2.58018e-06
1.2806e-06
1.29256e-06
0.00210974
0.00236075
1.64075e-06
0.00017526
0.00356564
0.00311332
1.11694e-06
0.00274775
1.07533e-06
1.57174e-06
8.16574e-07
9.10701e-07
1.46537e-06
0.000215922
0.00745128
1.42518e-05
0.00505691
0.000853659
1.18168e-06
0.00605187
1.34426e-06
8.0537e-07
1.33975e-06
9.17389e-07
0.00016408
0.00257611
1.58879e-06
0.00290666
0.0053072
0.00853562
1.38416e-06
6.91766e-07
0.00226735
1.18606e-06
0.00235492
2.99941e-06
1.01777e-05
0.000200386
0.00853812
0.0039983
0.00332519
0.00215341
2.99726e-06
2.20036e-06
1.22628e-06
1.64311e-06
1.54879e-06
0.006999
1.28295e-06
3.10203e-06
1.60247e-06
1.3945e-06
0.0113924
3.08112e-05
1.59326e-06
0.00576731
2.50171e-06
0.00667371
0.0079146
2.31412e-06
0.000128114
0.00311988
9.56156e-07
1.4487e-06
7.56106e-06
0.00560968
1.54683e-06
0.00850647
1.67382e-06
0.0104193
3.89441e-06
0.00382974
7.6066e-07
0.00267163
1.44686e-06
1.35081e-06
0.00408768
1.6049e-06
1.08384e-06
0.00817323
0.00227803
8.20956e-07
0.00605634
1.3894e-06
0.00781235
1.65384e-06
0.00203808
1.15596e-06
0.00665909
1.56332e-06
0.000169478
4.32405e-06
0.0102752
1.54615e-06
0.0106662
5.08093e-07
2.9452e-06
1.79137e-06
7.6772e-07
0.00788984
1.08002e-06
1.2008e-06
0.00124715
0.000312663
1.25828e-06
0.00655441
0.000515727
1.62213e-06
0.00547597
1.78373e-06
0.00551048
1.77732e-06
0.00746327
0.00323159
5.50463e-07
0.0067684
1.79591e-06
9.63148e-07
0.00204413
1.44035e-06
1.40943e-06
1.26975e-06
1.51392e-06
0.0065974
0.00290907
3.41796e-06
1.436e-06
0.00895047
0.00614078
0.00169634
0.00872212
9.89366e-07
4.33275e-06
0.000126184
1.00762e-06
1.13767e-06
1.16342e-06
0.000106874
4.78865e-07
1.57129e-06
1.52916e-06
0.00213154
0.00176963
1.39648e-06
2.309e-06
0.00340237
0.00462293
9.60443e-07
1.65048e-05
1.52259e-06
0.00725805
6.02089e-07
1.09094e-05
1.26727e-06
0.0046555
1.59703e-06
0.00505149
1.27208e-06
9.47391e-07
0.00296707
0.00795699
0.00970155
1.44877e-06
1.87982e-06
7.12632e-07
1.50594e-06
4.19556e-06
2.12015e-06
9.13297e-07
0.00231949
0.00438984
0.000313117
7.15387e-06
3.35637e-06
1.58135e-06
2.97293e-06
0.000182181
1.90177e-06
1.05121e-05
1.4429e-06
1.60145e-06
4.86989e-07
0.00737612
0.000255435
1.36102e-06
5.13215e-07
0.0024702
1.39949e-06
0.00209682
0.00221333
2.84625e-06
7.45206e-07
1.07876e-06
9.71012e-07
8.90083e-07
9.34222e-07
0.00583603
0.00754028
2.25216e-06
1.54454e-06
4.79166e-07
0.00706771
0.00634245
0.000608935
9.54365e-07
7.22651e-07
8.61733e-07
7.44965e-06
4.70241e-07
1.6289e-06
9.49857e-07
1.37485e-06
9.34051e-07
1.27707e-06
1.37799e-05
5.07954e-07
0.00797901
1.61398e-06
1.61209e-06
1.28241e-06
0.00933009
0.00690967
1.50799e-06
0.00672414
7.23295e-06
3.55425e-06
1.57688e-06
2.44523e-06
2.09897e-06
1.20698e-05
0.00883946
0.00642268
0.00330243
9.07555e-07
0.000124632
4.83414e-07
0.00717501
7.13823e-07
0.000146078
7.16322e-07
1.63666e-06
1.28786e-06
4.745e-07
9.38993e-07
0.00282092
0.00342425
1.58098e-06
1.4117e-06
0.00729492
0.0064425
0.000145806
8.45949e-07
7.29075e-07
4.24697e-07
0.0068955
0.000121828
0.00159036
6.7341e-07
0.00730551
1.4474e-06
8.91747e-07
0.00257836
0.00825599
2.19917e-06
0.00533815
0.00224204
1.76929e-05
1.36909e-06
8.5559e-07
7.03573e-06
6.75096e-07
7.29858e-07
7.26313e-07
2.16652e-06
0.00660237
1.3612e-06
1.62544e-06
1.06779e-05
0.00699977
0.0085338
0.00561772
1.85012e-06
0.0018043
1.39323e-06
1.21397e-06
0.00680438
0.000256679
1.59994e-06
1.56435e-06
0.00527893
7.82631e-06
1.74923e-06
1.2604e-06
1.76751e-06
0.00625736
1.77311e-06
0.00208418
2.94209e-06
1.09471e-06
5.97367e-07
0.00542113
0.00662634
3.30682e-06
1.89843e-06
0.00961066
4.204e-07
8.34438e-07
0.00648974
0.00532637
1.89154e-06
1.85158e-06
1.12534e-06
1.49848e-06
0.00268189
0.00627031
0.00976509
0.0089667
3.37672e-06
1.10758e-06
9.77885e-06
0.00273643
1.19224e-06
1.53739e-06
1.62933e-06
0.00546863
1.28407e-06
1.42032e-06
0.00834258
3.09847e-06
0.0075095
0.000133969
1.40772e-06
3.14764e-06
1.46929e-06
8.96082e-07
0.00811687
1.57226e-06
8.57835e-07
0.00585093
1.44099e-06
7.9613e-07
4.16764e-07
0.00983124
7.15968e-06
4.97452e-07
9.94421e-07
7.39766e-06
0.00714223
0.00681449
7.76997e-06
1.13499e-06
0.0106637
0.0103134
0.00661271
1.61086e-06
9.10738e-07
0.00863761
0.00751643
9.86519e-06
0.00211831
0.00770912
3.13059e-06
8.38412e-07
0.00564509
0.00216145
1.75773e-06
1.09414e-06
0.00818564
0.00178765
9.09607e-07
1.55466e-06
5.34328e-05
0.00658245
0.00675486
1.42469e-06
9.96793e-07
0.00772805
0.00573589
0.00188003
0.00619542
0.000211964
0.00650491
1.65309e-06
0.000677983
0.000461956
0.00773002
4.25096e-07
9.93495e-07
0.0111997
0.00297569
6.38187e-07
0.0075028
0.00471437
0.000167891
6.33141e-05
9.68505e-07
1.67055e-06
8.31186e-07
0.000105202
1.61466e-06
1.12092e-06
8.26161e-07
0.0072011
7.0647e-07
4.27875e-06
9.88078e-07
0.00247474
1.1939e-06
0.0102494
1.34025e-06
9.35316e-07
1.43194e-06
9.67496e-07
0.00464787
0.0061305
1.5071e-06
7.10774e-07
0.00545851
0.00740698
5.69742e-06
0.00801586
7.36346e-06
9.62127e-05
0.0076306
7.20271e-07
0.00716014
0.0061684
7.42964e-06
1.18519e-06
2.29169e-06
0.00871455
0.00652929
0.00684845
0.000148064
1.88585e-06
0.00857586
0.000158907
2.71944e-06
6.22643e-07
5.11127e-05
6.30843e-07
0.0065116
0.00238196
0.0105995
1.48586e-06
1.60619e-06
3.88371e-06
1.66202e-06
0.00229164
0.00609571
0.011924
1.47628e-06
3.35253e-06
0.00375592
0.00344602
0.00825132
0.00568265
0.0079975
8.73492e-05
9.89156e-07
0.00627911
0.00909735
0.0076449
0.00759643
0.000148863
1.07524e-06
1.8324e-06
1.63323e-06
0.00178803
1.60706e-06
1.91156e-06
1.59623e-06
3.38756e-06
1.53166e-06
0.00255303
1.64854e-06
0.000272863
0.00569968
0.0109799
1.001e-06
0.00520266
1.05889e-06
2.69303e-05
1.61949e-06
5.77877e-06
8.2419e-07
0.00450403
2.22762e-06
5.27841e-07
1.30301e-06
0.00529587
7.39448e-07
1.93635e-06
1.47797e-06
2.49525e-06
1.20556e-06
0.00770125
5.18689e-07
1.56181e-06
1.62419e-06
1.59685e-06
0.0073406
6.427e-07
0.00230274
0.00646632
7.37618e-05
7.14428e-06
1.61756e-06
1.5317e-06
0.00806573
0.00602604
1.83886e-06
1.45427e-06
7.54399e-07
6.9827e-07
1.42418e-06
9.23973e-06
0.00662958
0.005535
1.16444e-06
0.00489947
0.00810667
1.64483e-06
7.23108e-06
0.0114352
7.23717e-07
1.54818e-06
0.00225476
0.00474818
1.5423e-06
1.03494e-05
6.68033e-07
0.00532228
1.67061e-06
0.00826203
0.00799499
9.85751e-07
2.21037e-06
9.31593e-07
0.00228322
0.000141996
0.0116411
1.35655e-06
9.12429e-07
0.00766224
4.64052e-07
1.38559e-06
7.86406e-06
0.000407038
0.000276899
0.00661772
0.00706283
9.21034e-07
1.55904e-06
0.00964583
0.00779781
9.2433e-07
0.00610435
1.53439e-06
1.67721e-06
1.57929e-06
5.31635e-07
4.12295e-07
3.64728e-06
1.63195e-06
0.0105911
2.32647e-06
0.00225388
8.13881e-06
0.00279309
1.284e-05
1.79999e-06
0.00730705
1.33667e-06
1.6189e-06
1.61387e-06
0.00820359
0.00160136
4.06131e-06
0.00560403
0.00497234
2.20466e-06
1.63394e-06
0.00809497
4.88366e-07
0.00650535
5.09766e-07
0.00828522
1.14875e-06
1.66592e-06
0.00978593
2.20045e-06
7.28868e-06
1.53334e-06
0.0064137
0.0109657
1.35512e-06
1.3837e-06
0.000797571
9.92455e-07
1.47743e-06
3.68648e-06
1.32533e-06
1.33893e-06
1.60969e-06
0.00139853
0.00537672
0.0056044
7.61355e-07
1.39686e-06
9.44004e-07
7.427e-07
3.04862e-06
1.6604e-06
3.05022e-06
0.00841449
3.32386e-06
1.45741e-06
5.73163e-07
5.85124e-06
0.0061724
0.00474775
1.6562e-06
0.000127819
0.00589112
0.00250863
1.57221e-06
0.000475699
0.00458401
9.08801e-07
0.00881218
0.00830671
2.7025e-06
1.04803e-06
3.03821e-06
2.72651e-06
1.64924e-06
6.8604e-07
1.70362e-06
1.03583e-06
0.00544934
3.00613e-05
1.42012e-06
0.000139557
1.63825e-06
0.0070968
1.59092e-06
1.54021e-06
1.70647e-06
1.42835e-06
3.18219e-06
1.41932e-06
9.36596e-07
0.00851997
0.00763328
1.65772e-06
0.00790021
0.00923543
0.00751888
1.46966e-06
1.58147e-06
0.0116197
0.00514772
7.74693e-07
0.00826179
6.6624e-07
2.11617e-06
0.00219198
1.66817e-06
0.00482867
0.00339312
1.64658e-06
6.91913e-06
0.00901859
8.05541e-07
2.45455e-06
9.32222e-07
0.000312471
0.00472908
0.00143491
0.0011365
0.00502513
0.000603258
3.40445e-06
5.31188e-07
3.2551e-06
0.000956496
0.00246763
2.18256e-06
3.59608e-06
9.51752e-07
1.74637e-06
0.00012856
0.00700537
1.47712e-06
1.59906e-06
1.75613e-06
7.16439e-07
1.76339e-06
1.65723e-06
5.93085e-06
1.76521e-06
0.00586664
0.00345317
0.00298675
1.88406e-06
0.00316999
1.58015e-06
7.83023e-07
7.22088e-06
0.00664551
9.68437e-07
0.00476739
0.00495679
0.00174424
1.17149e-06
1.53178e-06
2.15168e-06
3.60786e-06
0.00644026