/*--------------------------------*- C++ -*----------------------------------*\
| =========                 |                                                 |
| \\      /  F ield         | OpenFOAM: The Open Source CFD Toolbox           |
|  \\    /   O peration     | Version:  v2012                                 |
|   \\  /    A nd           | Website:  www.openfoam.com                      |
|    \\/     M anipulation  |                                                 |
\*---------------------------------------------------------------------------*/
FoamFile
{
    version     2.0;
    format      ascii;
    class       volScalarField;
    location    "350";
    object      p;
}
// * * * * * * * * * * * * * * * * * * * * * * * * * * * * * * * * * * * * * //

dimensions      [0 2 -2 0 0 0 0];


internalField   nonuniform List<scalar> 
13749
(
-0.0215604
-0.00274889
-0.0230625
-0.00939056
0.00484463
-0.000381535
-0.0913504
-0.0235843
-0.0767827
-0.00918546
-0.000385423
-0.0282316
-0.0224149
0.00470723
-0.0136387
0.00443752
-0.000888254
-0.0220294
-0.000283028
-0.00112272
-0.088784
-0.0900903
-0.000573571
-0.053539
-0.0514973
-0.000297812
-0.00851369
-0.0412785
-0.0934522
-0.0924457
-0.000699919
-0.00269992
-0.0779837
-0.0137068
0.000988725
-0.09038
-0.091211
-0.012866
1.00152e-05
-0.0919393
-0.0246115
-0.0851835
-0.00644614
-0.0919271
-0.000486759
-0.00609911
-0.000495721
-0.00154657
-0.055958
-0.0214172
-0.0547334
-0.000539868
-0.0910553
-0.00574061
-0.0251687
-0.0916992
-0.0898675
-0.0601749
-0.000494146
-0.0601612
-0.00293352
-0.0927129
-0.00133382
-0.000543878
-0.080022
-0.000325973
-0.0456816
0.000775893
-0.0907227
-0.0169849
-0.0419142
0.00340569
-0.0152261
-0.0746006
-0.0270625
-0.0374101
-0.0134311
-3.71288e-05
-0.0926761
-0.00275284
-0.0913586
-0.0430256
-0.00756633
-0.000522935
-0.092456
-0.00366907
0.00554567
-0.0452661
-0.0514069
-0.0791602
-0.00298442
-0.0911921
-0.000365777
-0.000814979
-0.0254077
-0.0540396
-0.0999623
-0.00651868
-0.0726486
-0.000731913
-0.00323196
-0.0793997
-0.0082174
-0.0637619
-0.000363387
-0.0248681
-0.00315052
-0.0517304
-2.79656e-05
-0.0924491
-0.0123595
0.00156181
-0.0897365
-0.0232076
-0.0512745
0.000279667
-0.013109
-0.0290523
-0.0471572
-0.0215866
-0.00763681
-0.00077676
-0.000102647
-0.00397883
-0.000473443
-0.0915032
-0.000613383
-0.0247881
-0.00396036
-0.0878195
-0.000463712
0.00674056
-0.0681029
-0.0761595
-0.0863328
-0.091913
-0.09007
-0.0690121
-3.64417e-05
-0.00344166
-0.0926837
-0.000677
-0.00734986
-0.105825
-0.00979703
-3.06343e-05
-0.0525458
-0.0908611
-0.0702174
-0.0928148
-0.000669561
-0.0918242
-0.000110415
0.00321986
-0.0928056
-0.0245711
-0.0796763
-0.00100353
-0.0012483
-0.0124404
-0.0194402
-0.000332116
-0.000719694
-0.000470889
-0.000456482
-0.0334437
-0.0005582
-0.0193861
-0.0912401
-0.00108565
-0.0193423
-0.000334621
-0.092251
-0.0747728
0.000976602
-0.0341376
-0.0720609
-0.0924013
-0.0430166
-0.00150842
-0.0466683
-0.0089745
-0.0733857
-0.105026
-0.0214724
-0.00334974
-0.00543644
-0.00164458
-0.0983053
-0.00146054
0.00476394
-0.0808557
-0.0351959
-0.0188966
-0.00360211
-0.00161162
-0.0488123
-0.0123928
-0.0741937
0.00393452
-0.0904337
-0.020762
-0.0919599
-0.0922784
-0.00975543
0.00264064
-0.0771711
-0.0895744
-0.000661001
-0.000516885
-0.0279287
0.00424692
-0.0616258
-0.00327
-0.101235
-7.62963e-05
-0.0177168
-0.0934856
-0.0238082
-0.00731588
-0.000675158
-0.0927788
-0.0844199
-0.0460818
0.000635562
0.00142729
-0.101397
-0.000120803
0.00254246
-0.00535145
-0.000462157
-0.104416
-0.00502814
-0.0002185
-0.0230563
-9.12803e-05
-0.0399378
-0.000985388
-0.0864229
-2.1008e-05
-0.0162378
-0.000774434
-0.00566543
-0.000871458
-1.61255e-05
-0.000552948
-0.00972869
-0.00322786
-0.0819163
-0.0955139
-0.0196898
-0.00374505
-0.0836582
-0.046242
-0.00107122
-0.000398305
-0.0706453
-0.0364719
-0.0237223
-0.00611791
-0.0996007
-0.090738
-0.0129543
-0.017031
-0.0021848
-7.62479e-05
-5.24946e-05
-0.0258067
-0.0905068
-0.0284295
-0.000500328
-0.0270998
-0.0897066
-0.100364
-0.00152579
-0.091852
0.00071374
-0.0527432
-0.0883529
-0.0140187
0.000747769
-0.108233
-0.0927255
-0.0172653
0.0078367
-0.0280189
-0.081506
0.00175491
-0.00602105
-0.0958803
0.00281349
-0.036397
-0.00896903
-0.05122
-0.0921497
-0.0916405
-0.00299761
-0.0258367
-0.0146143
-0.0251233
-0.092371
-0.0862656
-0.0262067
-0.0246755
-0.0591807
-0.0031446
-0.0901907
-0.00189758
0.00320974
-0.00419577
-0.00377256
-0.0283603
0.00242566
-0.0753864
-0.0112576
-0.00971603
-0.0495841
-0.00381333
-0.0781026
-0.00101657
-0.00683046
-0.00761318
-0.0254366
-0.000544656
-0.0148377
-0.0139563
-0.0911163
-0.00676176
-0.0121114
-0.0875128
-0.0919016
-0.0202575
-0.00340555
-0.103258
-0.0244076
-0.00972112
-0.105877
-0.0232673
-0.0904606
0.0100465
-5.03699e-05
0.00986463
-0.103329
-0.0272472
-0.000426474
-0.0332149
-0.0272642
-0.0545001
-0.0147424
-0.00103684
-0.0279962
-0.0924391
-0.00983716
-9.40915e-05
-0.0565229
-0.0545624
-0.0324024
-0.00114442
-0.062686
-0.000260332
-0.0135977
-0.00169886
-0.0508178
0.0075959
-0.000424656
-0.000259292
-0.0030191
-0.0594542
-0.0237809
-0.0193289
0.00541161
-0.000256656
-0.0222497
-0.0717735
-0.0190262
-0.00512025
-0.000486269
-0.00222524
-0.036792
-0.000288544
-0.0185583
-0.000755895
-0.00469654
0.00486523
-0.00826579
-0.00116433
0.00552583
-0.00189388
-0.0913634
0.00195097
-0.0250544
-0.0147093
-0.00236541
-0.00101121
-0.0906
-0.00911436
-0.00696439
-0.0201053
-0.0254283
-0.000553304
-0.0343447
-0.0189925
-0.00121852
-0.0823408
0.000179379
-0.102069
-0.0949187
-0.0136346
-0.0861863
0.00317162
-2.76237e-05
-0.0864673
-0.0136497
0.00089057
-7.05507e-05
-0.102553
-0.0366589
-0.024808
-0.0894195
-0.0920453
-0.0113866
-0.0529932
-0.0387455
-0.0398841
-0.00635883
-0.0350377
-0.000467524
-0.00595873
-0.0259985
-0.0196941
-0.0686226
-0.00295513
-0.00219492
-0.00423763
-0.0195826
-0.00945855
-0.0196993
-0.0893423
-0.0123523
0.00315914
0.00445498
-0.0387472
-0.0623376
0.0114544
-0.0905463
-0.0923513
-0.00648646
-0.0252671
-0.0544441
0.000925693
-0.0776187
-0.0711537
-8.00568e-05
-0.000537219
-0.0252339
-0.0409839
-0.0316139
0.00100049
-0.0892258
-0.0953288
-0.000511483
-0.00699981
-0.0893642
-0.000721976
-0.0914755
0.00412633
-0.020914
-0.0166148
-0.0675841
-0.0704644
-0.0508129
-0.0724764
-0.00909597
-0.0233726
-0.00113412
-0.0114816
0.00338935
-0.0820765
-0.0464094
0.00457377
-0.00354645
-0.052522
-0.0109387
-0.00342072
-0.0112292
-0.000611035
-0.0125933
-0.0239765
-0.0068276
-0.0897708
-0.00374154
2.43958e-05
0.000990767
-0.00499972
-0.0924925
-0.068461
-0.0907532
-0.00565674
-0.000670194
-0.00936315
0.00131637
-0.00122656
-0.0441419
-0.000728739
-0.0914455
-0.0209341
-0.00242441
-0.0921818
0.0121986
-0.0217128
-0.000281041
-0.092315
-0.0668118
0.0124632
0.00444238
-0.00249643
-0.0287009
-0.00355695
0.00337586
-0.000583719
-0.00343274
-0.024416
-0.0902572
-0.0509944
-0.0107928
0.00822954
-0.0937108
-0.000272331
-0.0680709
0.00309242
-0.0374761
-0.0209002
-0.0767896
-0.0911109
-0.0605219
0.00884734
-0.074956
-0.00234203
-0.0879938
-0.0455722
-0.0122296
-0.0116427
-0.0915693
-0.00888463
-0.0171948
-0.0927074
-0.0365049
-0.0237692
-0.0148186
-0.0111028
-0.0940353
-0.0196041
-0.0893777
-0.074471
-0.0889097
-0.00153777
0.000678053
-0.0282467
-0.00567671
-0.0310957
-0.019701
-0.0879787
0.000798605
-6.55553e-05
-0.000409057
-0.00841302
-0.0796155
-0.0874609
-0.044416
-0.00674757
-0.0319475
-0.0196311
-0.0920825
-0.0622948
-0.0522621
-0.0644746
-0.0198243
-0.00937284
-0.0355708
-0.00713762
0.00628272
-0.063641
-0.0197518
-0.0647815
-0.0209617
-0.10015
0.000685037
-0.0440662
-0.0916245
-0.0259197
-0.0917169
-0.00305569
-0.00111087
0.00093647
-0.0826055
-0.105597
-0.000563406
-0.0911372
-0.0881799
-0.00673053
-0.103075
-0.0246427
-0.0956036
-0.0879595
-0.0693767
-0.0908609
-0.0232283
-0.000528686
-0.0308916
0.000814522
-0.025787
-0.00834944
-0.0128958
0.00113562
-0.066122
-9.57492e-05
-0.00679193
-0.0590329
-0.0931468
-0.0239393
-0.00186317
0.00984247
-0.000710467
-0.0278708
-0.105985
-0.00396556
-0.0903138
-0.0211345
-0.00110069
-5.14415e-05
-0.00322766
0.00864819
-0.0871577
-0.0665656
-0.0765928
-0.0136456
-0.000402191
-0.00315031
-0.0198513
-0.067747
-0.000342673
-0.094671
-0.0907446
-0.0756311
-0.000691659
-0.0756741
-0.00829836
-0.0245522
-0.00903595
-0.0188831
-0.0920763
0.00174075
-0.104573
-0.0673193
-0.0236827
-0.0399122
-0.0131341
-0.0853779
-0.101998
-0.101991
-0.00393201
-0.078903
-0.0274061
-0.049225
-0.0921527
-0.088199
-0.0328904
0.00957563
-0.0243476
-0.0606453
-0.0557176
-0.0187023
-0.00101946
-0.00296674
-0.0251015
-0.000788156
-0.0824495
-0.0535302
-0.0871083
-0.102589
-0.000463105
-0.0173279
-0.0898437
-0.0913911
0.00435017
-0.0260739
-0.0972124
-0.0265921
-0.0302557
0.00994983
-0.0570728
-0.0923982
-0.00065913
-6.34126e-05
-0.093971
-0.00347147
-0.0955197
-0.00154012
-0.0930039
-0.0456575
-0.00425595
-0.000480844
-0.000438144
-0.00333463
-0.095983
-0.026396
-0.000623645
-0.081495
-0.00048565
-0.0248973
0.000996387
0.00131772
-0.0232617
-0.0930614
-0.00270425
-0.00159296
-0.0452282
0.00306879
-0.0326852
-0.000976728
-0.0030826
-0.0116423
-0.07247
-0.0301557
-0.0190874
-0.0890994
-0.00906326
0.0110997
-0.0120204
-0.0875767
0.000550494
-0.000939111
-0.0908897
-0.0849489
-0.0577937
-0.0266351
0.00278477
-0.0803162
0.00317503
-0.0514999
-0.000446383
-0.000856312
-0.00518229
-0.065033
-0.0136904
-0.0917926
0.00129046
-0.000659141
-0.0137224
-0.0237018
-0.000370655
-0.0369712
-0.00168207
-0.0553984
-0.0904799
-0.0275402
-0.000471881
-0.00947149
-0.0913651
-0.00518182
-0.00931683
-0.00244163
-0.0700003
-0.00187075
-0.0764618
-0.000374672
-0.0879017
-0.0918704
-0.000349616
-0.0841791
-0.000315095
-0.0560863
-0.000972544
-0.029819
-0.0173451
-0.0951199
-0.0877596
-0.0910416
-0.0464983
5.77168e-05
-0.000495226
-0.000980659
-0.0884786
-0.000312806
-0.0580821
-0.00205296
-0.0136034
-0.00143632
-0.00520414
-0.0917358
-0.00628098
-0.0014411
-0.00634391
-0.0046986
-0.00206105
-0.103289
-0.0810889
-0.0919313
0.00973137
-0.091958
-0.0022735
-0.0892759
-0.00407419
-0.0926154
-0.0279617
-0.0950493
-0.025911
-0.0030366
-0.0903191
-0.00140799
-0.0139855
-0.00186743
0.00792989
0.0063184
-0.000378686
-0.0914658
-0.0312196
-0.0906494
-0.0128504
-0.00191407
-0.0257507
-0.000404654
-0.0840399
-0.0836899
-0.0270341
-0.00102877
-0.00206142
-0.000381584
-0.0165963
-0.00994413
-0.0594015
0.000498991
-0.0902332
-0.0469878
-0.0942398
-0.0119891
-0.105319
-0.0133103
-0.00508818
-0.0099239
-0.0912552
-0.0356072
-0.0725597
-0.0863943
-2.53507e-05
-0.0516405
-0.0254611
-0.0854952
-0.00491998
-0.0137482
-0.00397939
-0.0925114
-0.000484322
-6.29339e-05
-0.0111467
-0.0243647
-0.0121405
-0.00231428
-0.0911993
-0.000482498
-0.0650794
-0.0915646
0.00402548
-0.102108
-0.0495792
0.0102315
-0.0758187
0.00554342
0.00136411
-0.0285456
-0.0420463
0.003317
-0.0251889
-0.00712745
-0.0912468
-0.00317007
-0.0013586
-0.0331759
-0.00261282
-0.0934961
-0.0161201
-0.0228966
-0.0359313
-0.000464304
-0.0243331
-0.0927772
-0.00963942
-0.0555829
-0.0951758
-0.000420156
-0.0140874
-5.25748e-05
-0.0780583
-8.53932e-05
-0.0190257
-0.0740789
-0.0423217
-0.0903021
-0.00748672
-0.084713
-0.0354289
-0.0828573
-0.000530526
-0.00520709
-0.0024903
-0.0545025
-0.00204709
-0.0280887
-0.0498448
-0.0255013
-0.00927235
-0.0388886
-0.0507778
-0.0166535
-0.00510332
-0.0768011
-6.00019e-05
-0.0894556
-0.0171266
-0.033146
-0.0884763
-0.0563521
-0.000530666
-0.00255813
-0.0144555
-0.000398183
-0.091031
-0.0882369
-0.0130402
-0.027982
0.00312336
-0.00122806
0.00235953
-0.00655221
-0.0932126
-0.000222866
-0.0904032
-0.0127726
-0.0111481
-0.00111374
-0.0782721
-0.0305958
-0.0421904
-0.0915231
-0.0913546
-0.00039995
-0.103572
-0.093291
-0.0493068
-0.0256701
-0.0903893
-0.105834
-0.000459132
-0.0622543
-8.77342e-05
-0.0250778
-2.31837e-05
-0.0903483
-0.0514688
-0.0168169
-0.000234973
-0.0267272
-0.0909397
-0.0732096
-0.00320261
-0.000406497
-0.0356905
0.00900003
-0.0133977
-0.0355733
-0.00476744
-0.0916966
-0.0287751
-0.0829088
-0.000394292
-0.00047086
-2.49042e-05
-0.00352308
-7.72308e-05
-0.0916675
0.0108064
-7.95925e-05
-8.22023e-05
-8.72862e-05
-0.0033822
-0.0187715
-0.0449932
-0.106159
0.0024523
-0.000410673
-0.0968572
-0.038347
-0.053269
-0.0492426
-0.00170078
-0.0282361
-0.000758413
0.00096491
-0.0129112
-0.0119009
-0.0244654
-0.00304458
-0.0446154
-0.10826
-0.00048399
-0.0483324
-0.000339374
0.000685378
-0.0525341
-0.0913816
-0.0906039
-0.0273781
-0.0963452
0.000118398
-0.0455884
-0.084575
-0.000629462
-0.000341198
-0.0280346
0.000352854
-0.0879075
-0.093375
-0.0326134
-0.00139605
-0.10689
-0.0309177
-0.0343992
-0.00318297
-0.0265519
-0.0878977
-0.104078
-0.0268531
-0.0158357
0.00211235
-0.0899558
-0.0952253
-0.0907508
-0.000384748
0.000931713
-0.000430192
-0.0324507
0.00387611
-0.000620497
-0.0909903
-0.0446979
-0.0678909
-0.0190546
-0.0141697
0.000441827
-0.106017
-0.103658
-0.0861716
-0.000202386
-0.0185952
-0.00399862
-0.0923991
-0.0897258
-0.0365925
-0.0130721
-0.0371196
-0.0869294
-0.0227153
-0.0245716
-0.000333677
-0.0158158
-0.00247161
-0.000199499
-0.00252002
-0.0012925
-0.00610422
0.0008864
-0.0379217
8.42576e-05
-0.0139162
-0.00795317
-0.029258
-0.00234266
-0.0922014
-0.00273285
-0.0812186
-0.0256094
-0.0245262
-0.00704278
-0.090121
-0.0199845
-0.0196332
-0.0625398
-0.0577303
0.000857032
-0.0492201
-0.0542737
-0.00233881
6.33464e-05
-0.00273365
-0.00248499
-0.00295887
-0.0100287
-0.037864
-0.0421169
-0.00312767
-0.103578
-0.0958697
-0.0544031
-0.000441072
-0.0333324
-0.0832283
-0.00860048
-0.00746572
-0.104712
0.00127709
-0.012363
-0.00159631
-0.000364762
-0.00160904
-0.0921391
-0.00191684
-0.0531853
-0.103464
-0.0257719
-0.00330457
-0.0910821
-0.000401623
-0.0252017
-0.0431717
-0.0872633
-0.00154455
-0.0753186
-0.0917648
-0.0146559
-0.00052834
-0.0158861
-0.00273977
0.00187823
-0.0896197
-0.00323454
0.00104058
-0.00595226
0.00024115
-0.0301924
-0.00395704
-0.0204807
-0.0405088
-0.0658084
-0.0929301
-1.5456e-05
-0.00183191
-0.00772003
-0.0233475
-0.106822
-0.0367896
-0.0401284
-0.000588987
-0.091164
-0.0464283
-0.000236413
-0.000513814
-0.103665
-0.00378032
-0.0984698
-0.0443784
-0.0124752
-0.0173684
-0.102811
-0.00094044
-0.0045902
-0.00472166
-0.0944189
-0.0253174
-0.0256576
-0.0666411
-0.0414291
-0.000514642
-0.0260793
-0.0656079
-0.00126591
-0.0932556
-0.104785
-0.0353585
-0.085266
-0.000489861
-0.000118113
0.00543302
-0.0318918
-0.0234357
-0.0920573
-0.00349296
-0.00204582
-0.0164949
-0.00223204
-0.00319854
-0.000962463
-0.00523357
-0.0133745
-0.00036623
0.000972705
-0.0181168
-0.00156278
-0.000613477
-0.0133421
-0.0767928
-0.0909056
-0.00210537
-0.0193904
-0.00337774
-0.0847159
-0.0424876
-0.0438537
-0.00265492
-0.100492
-0.00197732
-0.0225291
-0.0804215
-0.000840087
-0.064299
-0.024584
-0.00108542
-0.0907285
-0.000564311
-0.000342685
-0.0713276
-0.00287489
-0.0917467
-0.0109543
0.00328636
0.00532081
-0.00787128
-0.0359382
-0.0148136
-0.0106115
-0.0205752
-0.091018
-0.0913161
-0.0887215
-0.0867907
-0.0938066
-0.0232196
-0.0901187
-0.00151332
-0.000649437
-0.0367272
-0.00495492
-0.0963621
0.000723416
0.000248609
-0.00615987
-0.0619953
-0.000389066
-0.0652061
-0.0918019
-0.00110044
-0.000729571
-0.001856
-0.0585356
-0.0233567
-0.00344581
-0.0883998
-0.091184
-0.00226433
-0.0248776
-0.00220938
-0.00754044
-0.00029086
-0.00317369
0.0056134
-0.0760103
-0.000795942
-0.0291388
0.000735943
-0.0785516
-0.0258269
-0.0299473
-0.0386115
2.97364e-06
-0.0104217
-0.0175269
-0.00257906
-0.00153911
-0.029299
-0.0376318
-0.0143649
0.000300662
-0.078554
-0.0991771
-0.0906805
-0.00179159
-0.0860682
-0.0751959
-4.57051e-05
-0.00770256
-0.0711284
-0.0910306
-0.0750617
-0.0148104
-0.0918458
-0.000476462
-0.00123035
-0.0913629
-0.00324814
-0.0274848
-0.000677496
-0.0242761
-0.00320775
-0.0797947
-0.0971376
-0.0871698
0.00982816
-0.0185927
-0.00215554
-0.0349477
-0.015902
-0.000550705
-0.00227603
-0.0504027
-0.0902004
-0.0282046
-0.0953537
-0.0182794
-0.00060606
-0.00193427
-0.0555404
-0.000288085
4.18746e-05
-0.0144955
0.000467878
-0.0947889
-0.0104237
-0.0377037
-0.00226796
-0.0237169
-0.0318741
-0.00741106
-0.088443
-0.0910361
-0.00168443
-0.010067
-0.00671393
-0.000894038
-0.000490702
-0.0878728
-0.0797388
-0.0654924
-5.86727e-05
-0.00611806
-0.0195644
-0.0224819
-0.092297
-0.00452148
0.000247461
-0.0201813
-0.0465235
-0.0178314
-0.000286924
-0.0882613
-0.0027768
-0.00872694
0.0077759
-0.00118031
-0.00338339
-0.000293116
-0.0611269
-0.0913097
-0.000663948
-0.0387153
-0.00871911
0.00711863
-0.0157796
-0.000319602
-0.0371282
-0.0911071
-0.041811
-0.0014603
-0.00090103
-0.0918098
-0.092964
-0.00206683
-0.0252379
-0.0842421
-0.0902188
-0.00273059
-0.00885187
-0.0474142
-0.0931726
-0.000663567
-0.00184343
-0.000920105
-0.0928249
-0.0914672
-0.000284952
-0.000619392
-0.00839537
-0.0362242
-0.000554713
-0.0950997
-0.01322
-0.0117421
-0.00884889
-0.000657648
-0.0292971
-7.91105e-06
-0.000592065
0.00754486
-0.0414107
-0.0712799
-0.0888418
-0.000215626
-0.000448853
-0.0938686
-0.00614235
-0.0922285
-0.00167903
-0.00272456
-0.00843245
0.0123409
-0.0949718
-0.0107133
-0.0297376
-0.00936261
-0.0466474
-0.00105614
-0.00887335
-0.0284745
-0.0151209
-0.00103226
-8.38264e-05
-0.000524149
-0.00220548
-0.0657302
-0.106854
2.42131e-05
-0.092315
-0.0474276
-0.0312341
-0.0202314
-0.0906235
-0.0902986
7.35242e-05
-0.0253951
-0.0352328
-0.0102747
-0.0325242
0.00782471
-0.0387346
-0.00486061
-0.00596176
-0.0896949
-0.0940335
-0.0242558
-0.0933849
-0.0642816
-0.00178433
-0.0256522
-0.0834008
-0.0271381
-0.000644399
-0.017227
-0.00830023
-0.04903
-0.00559097
-0.0878987
-0.0198186
-0.0933722
-0.00333252
-0.00032579
-0.0606
-0.0530796
0.00371908
-0.0552171
-0.0100934
-0.00308856
-0.0161227
-0.0108801
-3.47919e-05
-0.0143345
-0.00749912
-0.106548
-0.0928507
-0.0954321
-0.00084113
-0.0360113
-0.00244642
-0.0925715
-0.00673038
-0.0193718
-0.0548402
-0.0242678
-0.0138511
-0.000741942
-0.0530284
-0.0904485
-0.0155863
-0.0196717
-0.021195
-0.00204931
-0.0140414
-0.0949097
-0.0223006
-0.0271663
-0.00122185
-0.0654686
-2.29777e-05
-0.0345569
-0.092134
-0.0809437
-0.00157685
0.00248885
-0.0376789
-0.0262063
-0.0318064
-0.0117343
-0.00975451
-1.13334e-05
-0.011741
-0.0600013
-0.105454
-0.00436152
-0.102717
-0.0905895
0.00150584
0.00913978
-0.0958507
-0.0914978
-0.0832427
-0.0105625
-0.00189118
-0.066598
-0.0219461
-0.0911734
-0.000592332
-0.00804225
-0.0305843
-0.0441341
-0.10544
-0.000254717
-0.0143087
-0.0215751
-0.0933002
-0.00506966
-0.0752645
0.000194593
-0.0904826
-0.0913624
-0.00898079
-0.0651573
-0.0740511
-0.0159967
-0.000636351
0.00154842
0.0112667
-0.00082349
-0.0371095
-0.000987212
-0.0235151
-0.0850873
-0.095041
-0.0297625
-0.00155472
-0.0916613
-0.0402611
-0.0282611
-0.00769087
-0.00258197
-0.0167955
-0.0632906
-0.0948156
-0.0123813
-0.00179157
-0.00503916
-0.00766315
-0.0426298
-0.0941319
7.88447e-05
-0.0266722
-0.00214955
-0.000466323
0.00015321
-0.0899077
-0.00290177
-0.00246509
-0.090509
-0.0251531
-0.00174081
-0.033706
-0.0602607
-0.00216574
-0.010627
-0.000613334
-0.000509144
-0.0174133
-0.000211135
-0.0923222
-0.0305704
-0.00954283
-4.68362e-05
0.00255124
-0.00823243
0.000143544
-0.0897808
-0.0288698
-0.0879691
-0.0905941
-0.0581134
-0.00438071
-0.00208525
-0.0673348
-0.0112566
-0.00137341
-0.0313751
-0.0488468
-0.0748141
-0.0146252
-0.000281731
-0.00123203
0.00118783
-0.000516103
-0.0914934
-0.0315211
-0.0285317
-0.0886909
-0.00414979
-0.0927629
-0.0699159
-0.0101679
-0.0309374
-0.000445798
-0.056715
-0.0316055
-0.060425
-0.0914548
-0.0524176
-0.00133046
-0.00115486
-0.000384304
0.000149729
-0.0363424
-0.0749412
-0.0575152
-0.102427
0.000913698
-0.0422491
-0.0905717
0.000845381
0.0068083
-0.0296435
-0.0155231
-0.00137669
-4.20515e-05
-0.000542282
-0.0684294
-0.00354471
0.000720841
-0.104047
0.000293732
-0.0924148
-0.000926647
0.00911892
-0.0151558
-0.0638702
-0.0391742
-0.0565046
0.000860185
-0.0896711
-0.0115214
-0.000220566
0.00727261
-0.0275043
-0.00171035
-0.025815
-0.000257047
-0.0620554
-0.00241385
-0.0366287
-0.10228
-0.0105396
-0.00246816
-0.0937271
-0.0615894
-0.056682
-0.0121275
-0.0916695
-0.0899452
-0.0290105
-0.0574104
-0.0458216
0.0141269
0.0121875
-0.106982
-0.0791161
-0.0798811
-0.0101795
-0.0770755
-0.0886186
-0.0607706
-0.0309698
-0.000420864
-0.0450847
-0.0252749
-0.0267325
-0.090861
-0.00914473
-0.0955603
0.00678752
-0.00444793
-0.0476775
-0.074988
-0.0076917
0.0091754
-0.106609
0.000193648
-0.000186567
-0.101077
-0.0651777
-0.0467362
-0.00258758
0.00902351
-0.0235824
-0.00480304
-0.0425329
-0.0195575
-0.107215
0.000311883
-0.103998
-3.86824e-05
-0.000151747
-0.0946564
-0.000431292
-0.0027651
-0.0178518
0.00439925
-0.00247665
-0.0398632
-0.0565684
-0.010492
-0.00188487
-0.036192
-0.00848203
-0.00416738
-0.00983747
-0.00932467
-0.000160739
-0.0150355
-0.000727518
-0.0418139
-0.000250855
-0.0374195
-0.0871977
-0.0735151
-0.0564259
-0.00517242
-0.0412456
-0.106405
-0.00541385
-0.103632
-0.0765475
-0.0117486
-0.107648
-0.00723535
-0.0902145
-0.00111246
-0.00131405
-0.0866761
-0.0644092
0.00878094
-0.0399175
-0.00225887
-0.0823429
0.013856
-0.00245954
-0.0347511
-0.0257087
-0.00254453
0.00839446
-0.00167924
-0.015295
-0.0281598
-0.0265061
-0.00262502
-0.0217284
-0.00827197
-0.0155999
-0.0182356
-0.0911767
-0.00760955
-0.0696182
-0.0815953
-0.000288953
-0.00564903
-0.0109609
-0.00131254
-0.0032599
-0.00595707
-0.00145863
-0.00102444
-0.0767069
-0.0053277
-0.105913
0.0130324
0.00233604
-0.105143
-0.0304484
-0.00759744
-0.00774123
-0.104727
-0.104908
-0.0493445
-0.000201796
-0.100899
-0.102684
-0.0127742
-0.103576
-0.0110317
-0.0257439
-0.00179972
-0.00788025
-0.00367661
-0.000767916
-0.0915362
-0.0782193
-0.0963339
-0.0198594
-0.0161448
-0.0973208
-0.0223186
-0.00224266
-0.0222099
-0.00763777
-0.000214863
-0.103945
-0.0424782
-0.103282
0.0113152
-0.0920813
-0.0241853
-0.00122621
-0.104917
-0.00331954
0.00885211
-0.0309974
-0.0926727
0.000293408
-0.0894478
0.00783756
-0.101937
-0.104931
-0.0845633
-0.0425313
-0.018444
-0.0306975
-0.0374983
-0.0904066
-0.0192902
-0.0773528
-0.0112205
-0.0237523
-0.092744
-0.0840763
-0.0439108
-0.0867435
-0.0360021
-0.0899409
-0.0925489
-0.0491651
0.00406303
0.0105633
-0.00753687
-0.00289487
-0.0745258
-0.086723
-0.0385379
-0.0887661
-0.0536113
-0.0987366
-0.0897757
-0.0996081
-0.00159677
-0.105075
-0.0153055
-0.00296565
-0.0980673
-0.0453937
-0.00590986
-0.092984
-0.104642
-0.00564022
-0.0856381
-0.02433
-0.0933127
-0.00107075
-0.104455
-0.00104464
-0.0692687
-0.040571
4.91048e-05
-0.0819049
-0.0948852
-0.0369453
-0.0579689
-0.000636674
-0.083228
-0.0556966
-0.00159835
-0.0911599
-0.0225028
-0.00325771
-0.025893
-0.00023607
-0.00666947
-0.0913894
0.000911202
-0.0360886
-0.0407888
-0.04349
-0.0880137
-0.0541089
-0.0511309
0.0106451
-0.000827869
-0.0149358
-0.0492658
-0.00953818
0.00508223
-0.0202674
-0.0134627
-0.00689514
-0.0331481
-0.0912476
-0.019825
-0.000627718
-0.0273449
-0.0902554
-0.0712212
-0.106173
-0.0992747
-0.00699227
-0.000444452
-0.000226087
-0.0104818
-0.0151
-0.0149833
0.000250243
-0.000289933
-0.0387025
-0.000268277
-0.103207
-0.105677
-0.014223
-0.0365542
0.00762018
-0.0980037
-0.00829912
-3.67413e-05
-0.0365404
-0.0906609
-0.00134719
-0.0838503
-0.0199382
-0.093836
-0.0197027
-0.0943766
-0.0200734
-0.00908756
0.0105725
-0.0907581
-0.0951314
-0.0294117
-0.0702865
-0.0019522
-0.0268315
-0.0713647
-0.0642749
-0.00805535
-0.101985
-0.0960965
-0.00109155
-0.0627638
-0.0163652
-0.0419082
-0.0627094
-0.000503405
-0.071591
-0.0893946
-0.0247509
-0.0358112
-0.00037609
-0.0905406
-6.42569e-05
-0.0241383
-0.000616063
0.00546646
-0.026298
-0.105783
0.00626523
-0.000615371
-0.00260505
-0.0110517
-0.00976925
-0.00573049
-0.00712693
-0.0212247
-0.090985
-0.0436995
-0.030936
-0.000509732
-0.091313
-0.0177452
-0.0170401
-0.00888808
-0.00290327
-0.00290634
-0.0689184
-0.00027496
-0.0481015
-0.00910082
-0.0241867
-0.00866669
-0.0202673
-0.0850089
-0.000600848
-0.0919581
-0.0193302
-0.0261158
-0.0173564
-0.0926475
-0.0914648
-0.0350687
-0.0812993
-0.0669367
-0.0237151
-0.0417632
-0.0304004
-0.00495421
-0.0930177
-0.00645933
-0.093194
0.00834927
-0.00483684
0.000144469
-0.00031391
-0.091196
-0.00274873
-0.000574233
-0.00168566
-0.0372465
-0.0172303
-0.000275011
-0.00333801
-0.0995685
0.00639786
-0.0392571
-0.00343609
-0.0861123
-0.0675877
-0.000733752
-0.00191454
-0.00262906
-0.000132829
-0.0916762
-0.000458802
-0.106278
-0.00211083
-0.0801818
-0.0250901
-0.00712461
0.0103618
-0.0929341
-0.0730682
-0.0303223
-0.104257
-0.0897056
-0.0236831
-0.00511371
-0.0606671
-0.0020768
-0.0038544
-0.00300057
-0.0528416
-0.0899663
-0.0241892
-0.0306276
-0.0697893
-0.0909011
-0.0940023
-0.0243411
-0.0352132
-0.106068
-0.0248049
-0.0100836
-0.0893704
-0.000918839
-0.0391164
-0.0404187
-0.0867021
-0.0737992
-0.0637736
-0.0191065
-0.0461596
-0.0930745
-0.0487215
0.00790294
-0.000423154
-0.00195202
-0.00131505
-0.0616593
-0.0105375
-0.052534
-0.0733099
-0.0913481
-5.94519e-05
-0.00231203
-0.0851074
-0.0128563
-0.00699264
-0.0464766
-0.0102656
-0.0285298
-0.103457
-0.0617006
-0.0918338
-0.0905258
-0.0618728
-0.00709236
0.000205398
-3.74711e-05
-0.00800032
-0.0350326
-0.0401764
-0.0793445
-0.0166977
-0.0260776
-0.0875668
-0.082937
-0.0306269
0.000400855
-0.013836
-0.0608473
-0.0251471
-0.00731529
-0.0938867
-0.00166971
-0.00427212
-0.0599405
-0.0245793
-0.0014526
-1.60988e-05
-0.0916204
-0.0868796
-0.00051526
-0.000545675
-0.0722111
-0.0854917
-0.0913257
-0.0766259
-0.0134052
-0.0936693
-0.0932065
-0.0918697
-0.0459324
-0.00662292
-0.0900366
-0.0922379
-0.0868129
0.00396068
-0.0916237
-0.0855775
-0.00178046
-0.0323214
-0.10331
-0.0019599
-0.00632897
-0.0937103
0.00389244
-0.00696021
-0.0343804
-0.000853384
-0.0908173
-0.0913007
-0.0242686
-0.00994339
-0.0549771
-0.0771283
-0.00116962
-0.0681577
-0.000665575
-0.0921409
-0.0365031
-0.0792457
0.00231049
-0.0873156
-0.000135919
-0.0100184
-0.0936697
-0.105126
-0.00220095
-0.0916525
-0.101996
-0.000418738
-0.0857525
-0.00851125
-0.0224095
-0.00166804
-0.000459368
-0.0205673
-0.0121354
-0.00229808
-0.0911882
-0.0019221
-0.00175983
-0.0103938
0.00981997
-0.0133591
-0.0922404
-0.0229727
-0.00156601
-0.014682
-0.00798446
-0.0335697
-0.0203645
-0.0346759
-0.00345516
-0.0925532
-0.0915095
-0.059952
-0.0934821
-0.0820555
-0.00102292
-0.092075
-0.00361885
-0.0908451
-0.0921665
-0.00642004
-0.0161881
-0.00496448
-0.0909165
-0.0630966
-0.0151908
-0.000839887
-0.031126
-0.0881127
-0.000489504
-0.0651179
-0.00129238
-0.0781982
-0.00209059
-0.0914242
-0.10485
-0.0995243
-0.0280919
-0.0364737
-0.0885271
-0.0524779
-0.103684
-0.0996998
-0.0943518
-0.0317642
-0.0879916
0.014636
-0.0359581
-0.0899511
-0.00466714
-0.0928026
0.00151525
-0.0100625
-0.086547
-0.0923957
-0.0857707
-0.0917953
-0.000399361
-0.0130861
-0.00674709
-0.0486276
0.0081481
-0.023907
-0.0746968
-0.039203
-0.0824322
-0.00179932
0.00870042
-0.00444647
-0.000889028
0.00373924
-0.0930596
-0.010784
-0.0336249
-0.00582977
-0.0307416
-0.0460447
-0.0631504
-0.00156965
-0.0774522
-0.0459661
-0.000922903
-0.0211486
-0.0914752
-0.00308932
-0.0758814
-0.0281199
-0.0644705
-0.017585
-0.0909449
-0.000527122
-0.0397287
-0.0249127
-0.0383376
-0.0915169
-0.00224641
-0.10763
-0.064731
-0.000827608
-0.0852303
-0.0409734
-0.0248418
-0.0866906
-0.0254072
-0.0536323
-0.0247939
-0.00291224
-0.00194338
-0.0240909
-0.0933244
-0.0878291
-0.0889536
-0.00678573
-0.0889492
-0.0860764
-0.0502292
-0.0885259
-0.093658
-0.00303467
-0.0137284
-0.0777213
-0.01367
-0.0215129
-0.0943475
-0.0020704
-0.0912418
-0.0461643
-0.0925971
-0.0926467
-0.00711145
-0.0699825
-0.00720693
-0.102584
-0.000696343
-0.095035
-0.0226855
-0.00691754
-0.0905755
-0.000428413
-0.0237575
-0.0862662
0.00264067
0.000190884
-0.0856704
-0.085347
-0.00826251
-0.0384813
-0.0926526
-0.092154
-0.00729314
-0.091782
-0.0348161
-0.00208635
-0.0415943
-0.000623978
-2.92229e-05
-0.09021
-0.0329318
-0.0937487
-0.0639733
-0.104103
-0.0779882
-0.0773481
-0.0940829
-0.0517196
-0.091411
-0.0227869
-0.0283263
-0.00437998
-0.0932448
-0.00748182
-0.0817245
-0.0618736
-0.0912096
-0.0633944
-0.0294827
-0.0929531
-0.000367788
-0.0914138
-0.000629533
-0.0880337
-0.00652738
-0.034263
-0.0896974
-0.0560587
-0.0919774
-0.0361207
-0.0915447
-0.0931532
-0.022527
-0.00251652
-0.00708749
-0.00912704
-0.0280313
-0.0534223
-0.0215032
-0.0228747
-0.0185994
-0.0166367
-0.0039145
-0.0604102
-0.00423315
-0.00455059
-0.000980245
-0.00387248
-0.0759729
-0.0211884
-0.0872286
-0.0940681
-0.0726463
-0.0304286
-0.00060614
-0.0661981
-0.00304401
0.00668507
-0.0294739
0.0002082
-0.0842552
-0.103688
-0.0289039
0.00323203
0.00586806
-0.00671038
-0.0891117
-0.0936377
-0.000272532
-0.00573596
-0.0816149
-0.0273691
-0.0245792
-0.00303782
-0.0357834
-0.00896297
-0.0882872
-0.000403961
-0.00948592
-0.0101485
-0.0397563
-0.0913663
-0.01771
-0.0223886
-0.0298854
-0.0281135
-0.0743634
-0.0197836
-0.00867705
-0.0945156
-0.0919877
-0.0492155
-0.0922791
-0.0957187
-0.0916091
-0.0241024
-0.0139556
-0.0956761
0.00776325
-0.0014549
-0.0887658
-0.00210067
-0.0691333
-0.102697
-0.0511922
-0.0978702
0.00839981
-0.0341494
-0.0570092
-0.0920434
-0.00212471
-0.0334922
-0.00747635
-0.00753566
0.00887483
-0.00497657
-0.0133882
-0.0898733
-0.00519978
-0.063545
-0.000479679
-0.0839769
0.00801408
-0.00604829
-0.0796029
-0.0877033
-0.00610331
-0.0395713
0.000374686
-0.0512176
-0.0267307
-0.0438243
-0.0445811
-0.0017637
-0.0244893
-0.0191002
-0.0688203
-0.0495906
-0.00288492
-0.0936186
-0.104116
-0.033884
-0.0915985
-0.0377771
-0.00388388
-0.083742
-0.0698628
-0.00990098
-0.0881797
-0.00270249
0.00762287
-0.0157734
-0.0281617
-0.0453228
-0.0821467
-0.06399
0.00241206
-0.0918108
-0.0666397
-0.0531913
-0.0930475
0.00273464
-0.0389153
-0.0742024
5.21298e-05
-0.0307639
-0.0122487
-0.00208755
-0.0895443
-0.0534106
-0.0047921
-0.091119
-0.000270683
-0.0913131
-0.000738297
-0.0011268
-0.0371777
-0.0456194
-0.0867976
-0.0136627
-0.0907746
-0.0299382
-0.00472033
0.00608483
-0.0512201
-0.0869328
-0.0848749
-0.0350466
-0.0013187
-0.094629
-0.0230335
-0.0274077
0.00849216
-0.0454538
-0.00618344
-0.0921161
-0.0579435
0.00963313
-0.0527661
-0.00184564
-0.00721797
-0.0627449
-0.0929128
-0.0282767
-0.0896745
0.00854102
-0.0284683
-0.0017049
-0.00492976
0.00314946
-0.0864658
-0.043173
-0.0757973
0.000361728