/*--------------------------------*- C++ -*----------------------------------*\
| =========                 |                                                 |
| \\      /  F ield         | OpenFOAM: The Open Source CFD Toolbox           |
|  \\    /   O peration     | Version:  v2012                                 |
|   \\  /    A nd           | Website:  www.openfoam.com                      |
|    \\/     M anipulation  |                                                 |
\*---------------------------------------------------------------------------*/
FoamFile
{
    version     2.0;
    format      ascii;
    class       volVectorField;
    location    "100";
    object      ddt0(U);
}
// * * * * * * * * * * * * * * * * * * * * * * * * * * * * * * * * * * * * * //

dimensions      [0 1 -2 0 0 0 0];


internalField   nonuniform List<vector> 
13851
(
(9.04637e-05 -0.000434198 0)
(-0.0878334 -0.351773 -8.62688e-20)
(-0.0339747 0.0343862 -7.269e-22)
(0.000478892 -0.00223777 0)
(-0.0212787 -0.0155974 0)
(-0.121061 -0.0448539 0)
(-9.11722e-05 -7.96456e-05 0)
(-0.00826915 0.01175 -9.27271e-22)
(-7.66891e-05 9.72181e-05 4.24088e-21)
(0.0350578 0.0382282 -7.99269e-20)
(0.00316398 0.0638245 0)
(-0.167979 0.291823 -6.97904e-20)
(0.0177644 -0.0829331 -3.8177e-20)
(-0.14011 -0.362215 -3.24541e-20)
(-7.40749e-05 -5.07303e-05 6.71341e-23)
(0.00596907 0.000835344 -7.154e-24)
(-0.000188632 9.87666e-05 1.0976e-21)
(-0.00535502 0.00517024 4.11386e-21)
(-0.0141865 -0.0957014 -1.11732e-20)
(-7.86629e-05 8.42451e-05 -8.34879e-21)
(8.11849e-05 -0.000284699 -8.55614e-21)
(-0.0303745 0.0183057 -2.60504e-21)
(-5.91632e-05 3.90764e-06 1.21224e-21)
(-5.87986e-05 6.14231e-06 -6.58435e-21)
(-5.6987e-05 1.48905e-07 0)
(-0.00774405 0.0115302 2.74027e-22)
(0.000379037 0.000744393 0)
(-0.0195958 0.134686 2.18789e-20)
(0.000385999 -0.00146643 -6.04893e-22)
(-0.00172829 -0.000367539 2.04326e-22)
(-0.127324 0.0136587 0)
(-0.000492868 0.000376102 0)
(-0.0301751 0.0363255 -7.21151e-22)
(0.00590936 0.0993324 0)
(-6.70453e-05 1.3859e-05 1.03642e-20)
(0.023485 -0.000119234 -4.53438e-21)
(0.0341099 0.00955224 -3.91724e-20)
(-0.103414 -0.0509954 0)
(0.0339369 0.0862647 3.60347e-20)
(-0.0210273 0.155983 8.00069e-21)
(-0.000173311 6.75779e-05 -1.34111e-21)
(-7.18696e-05 5.64078e-05 -5.16249e-22)
(0.0527569 0.0817603 8.81722e-21)
(0.00416636 0.0212402 0)
(0.0111715 0.0551342 0)
(0.123598 -0.161223 -7.8902e-21)
(-0.000972942 0.00447161 -3.17523e-20)
(0.00992495 -0.173368 1.31488e-20)
(-5.94391e-05 -0.000344094 -1.87822e-20)
(0.0296286 0.00140486 -8.10064e-21)
(-0.000494104 -0.0116314 1.10751e-20)
(0.00544776 -0.031183 6.39414e-21)
(-0.0283085 0.344758 0)
(-9.68685e-05 1.10794e-06 -8.78608e-22)
(-0.000160453 2.22226e-06 0)
(-6.72429e-05 6.07047e-05 0)
(-5.2765e-05 6.75739e-07 -2.07837e-23)
(-0.117887 0.231296 -2.82735e-20)
(-0.00159531 -0.000123098 7.16894e-22)
(-0.0001563 -0.000157338 -1.36063e-21)
(-0.1108 -0.0170979 0)
(0.0758459 -0.220477 -2.80649e-23)
(0.031928 0.0757384 3.67519e-20)
(-0.0197341 -0.0202339 3.26475e-22)
(0.0316747 -0.140968 -5.12337e-20)
(4.17923e-05 -0.00534342 -1.25795e-20)
(0.0307475 0.00331899 0)
(-0.00410579 -0.0190425 9.03849e-21)
(-0.00369584 -0.0022029 2.53325e-22)
(-0.00430025 0.00704735 -4.69663e-21)
(-0.016233 0.00258386 3.52599e-20)
(0.00712611 0.0155465 0)
(-0.0873937 -0.358159 4.50227e-19)
(-9.49487e-05 -8.26597e-06 1.07285e-21)
(-0.000146711 8.73886e-06 -2.64456e-21)
(-0.00010491 6.72444e-05 6.66526e-21)
(-0.0301554 0.0171684 0)
(-0.0205721 -0.000659239 2.16125e-20)
(-0.00967742 -0.00240339 -2.07095e-21)
(-0.0060324 0.00333787 8.66771e-21)
(-0.00015615 -0.000386238 -2.76743e-21)
(0.00268313 -0.00658138 -2.23011e-22)
(-0.000226643 -9.25863e-05 2.45922e-22)
(0.206498 -0.0402614 0)
(0.0204914 0.0793963 -5.37221e-20)
(-0.132034 0.265851 2.88209e-20)
(-0.0546114 0.025311 -5.06271e-21)
(0.120803 -0.111224 1.94481e-20)
(-0.000814454 0.000432178 0)
(-0.000167011 -0.000286449 0)
(0.0259668 0.00417279 0)
(0.00582261 -0.030708 0)
(-0.00736657 -0.0372364 -3.23137e-23)
(-0.00190527 0.000661458 0)
(-0.000811401 0.000923003 1.4909e-21)
(-5.81952e-05 7.47092e-06 -1.48842e-21)
(-0.0187021 -0.0208912 0)
(0.0924111 -0.0552417 3.45545e-20)
(0.0279141 -0.00525114 6.73359e-21)
(-5.17838e-05 3.61318e-06 0)
(-0.157376 -0.266051 2.15479e-20)
(-0.00560134 -0.00761286 -2.4586e-21)
(-5.08826e-05 8.37048e-05 0)
(-0.000106286 0.000797565 6.94671e-22)
(-5.71129e-05 -2.84492e-07 0)
(0.00689963 0.121162 -1.36892e-20)
(-0.00477383 -0.00875842 0)
(-4.51389e-05 -1.91228e-05 3.34252e-22)
(-0.0189229 0.0226755 0)
(-0.0965724 -0.0796232 -2.18506e-20)
(-6.98261e-05 -1.00954e-06 -3.85427e-21)
(-7.56357e-05 -0.000459211 0)
(0.00667938 -0.0219647 -1.67526e-22)
(-6.37697e-05 5.19174e-06 0)
(-7.51386e-05 -4.19811e-07 0)
(-0.0204697 -0.205804 -6.23831e-22)
(0.0947462 -0.0641751 -8.45448e-21)
(-6.69217e-05 2.50388e-05 0)
(-0.00010998 1.02328e-06 -4.99231e-23)
(-0.000121351 1.55341e-05 -3.15043e-21)
(0.0773353 0.0843319 2.37924e-20)
(-0.000434256 -0.000293795 -1.20681e-21)
(0.024194 -0.0838412 0)
(0.0112959 -0.161445 -3.44334e-20)
(0.0117457 -0.166136 -1.29516e-20)
(-0.00127896 -0.000983415 6.8768e-22)
(0.00629393 -0.130049 1.13828e-19)
(-0.00864277 -0.00476572 5.41529e-22)
(-0.000959998 -0.00137008 -1.11774e-20)
(-0.0441647 -0.0253585 -8.34401e-21)
(-0.000204172 5.3223e-05 -3.49705e-21)
(-7.50097e-05 2.45984e-05 -4.29563e-21)
(-0.0163724 0.00366686 -2.74988e-20)
(-0.000238253 -9.6675e-05 -9.91009e-23)
(-0.00592463 -0.114386 -4.26302e-20)
(-9.04289e-05 5.50118e-06 -7.82752e-21)
(-7.17254e-05 1.66387e-05 1.10746e-21)
(0.00997463 0.0122692 3.33583e-21)
(-0.0416026 -0.301848 0)
(0.1377 -0.0651668 3.07634e-20)
(-0.172286 -0.238499 2.0062e-21)
(-0.000143166 -1.73157e-05 4.77063e-21)
(0.000572242 -0.00241927 2.17548e-20)
(-4.67991e-06 -8.74725e-05 0)
(-7.61563e-05 -0.000272663 -5.00215e-22)
(0.00577431 0.00938809 -3.83787e-20)
(0.000903951 -0.0012036 9.62533e-22)
(-0.0437336 -0.0407027 -3.47755e-21)
(-9.76209e-05 -0.000105423 4.17411e-21)
(0.0126734 0.0711599 1.64004e-20)
(0.00477368 -0.00180979 -2.58197e-20)
(-0.000133325 2.27304e-05 5.78822e-21)
(-0.130373 -0.413356 -5.19104e-20)
(-5.3792e-05 -8.7909e-07 -5.45763e-21)
(-0.00037848 0.00022904 0)
(-0.000122405 -0.000368356 2.20574e-21)
(-0.000112172 2.96303e-05 0)
(-0.000860187 -0.000428448 -8.74676e-22)
(0.00578158 -0.0354308 -7.62697e-21)
(-0.00103275 -0.0132661 -9.85361e-21)
(-1.79486e-05 -6.82837e-05 -3.26328e-24)
(-0.00136677 0.000433254 0)
(-0.102498 0.255904 1.96253e-20)
(-7.38973e-05 4.05104e-06 4.7699e-21)
(-0.00144818 -0.00594827 0)
(-6.00531e-05 -4.51313e-05 -1.45993e-21)
(0.00113377 -0.00207447 -9.46067e-22)
(-0.00316094 -0.00287795 1.34605e-22)
(-0.000527643 -0.000555136 0)
(0.132951 -0.065432 0)
(-0.0222529 -0.002733 -5.18554e-20)
(-7.47202e-05 -9.84284e-06 0)
(-0.000103476 1.41857e-05 -1.99527e-20)
(0.12429 -0.101373 -3.41319e-20)
(-7.19053e-05 -1.19995e-06 0)
(0.0105168 -0.186312 4.89867e-20)
(-0.00911723 -0.00379086 1.36728e-21)
(0.00171116 -0.000227995 0)
(-0.0142139 -0.0769349 -1.06962e-20)
(-4.27042e-05 -4.36047e-05 0)
(5.69097e-06 0.000375041 -1.20336e-21)
(-0.00175464 0.0163012 0)
(-0.000164924 -0.000113368 0)
(-0.0349512 0.0165724 8.40163e-21)
(-8.27503e-05 -6.18735e-06 -7.07197e-24)
(-5.04002e-05 4.97783e-06 0)
(0.00105319 -0.00211732 0)
(-0.000148096 -1.20454e-05 4.07224e-22)
(-0.0267889 -0.0117424 0)
(0.0670406 -0.0107505 2.4958e-20)
(-0.00655299 -0.00622107 -1.50366e-22)
(-0.0365153 0.330165 0)
(-0.000218833 -0.00071549 -4.076e-21)
(-0.00391899 -0.00123966 -9.37884e-22)
(0.0634003 -0.224792 8.39878e-22)
(-0.000300209 -0.000420512 1.65727e-22)
(-0.000123986 -0.00087192 1.51432e-20)
(0.010326 0.0583853 -2.82651e-20)
(0.00143144 -0.000417438 0)
(-0.000106011 5.37267e-05 -6.65997e-21)
(-0.00128438 -0.000467383 -7.08148e-22)
(0.133125 -0.145715 4.16352e-20)
(-0.000131102 1.636e-06 -7.23608e-21)
(-0.000163832 1.3181e-05 0)
(0.0513331 0.0200691 -4.25062e-21)
(-0.000166694 -8.6301e-05 -5.45691e-22)
(-0.0603798 -0.170527 -2.00834e-21)
(-0.000815608 0.000415677 2.33446e-21)
(-0.0223562 7.68688e-05 -2.20146e-20)
(-5.30145e-05 -7.16985e-05 -1.43089e-22)
(-0.013216 -0.00504619 -2.70635e-20)
(-3.8154e-05 2.40641e-05 0)
(-0.00665895 0.095013 -1.76927e-20)
(-5.8841e-05 -5.27595e-05 -1.40758e-22)
(-3.48146e-05 -8.35354e-05 0)
(0.00583673 0.0413845 1.26036e-20)
(-0.00590709 0.0277475 1.2249e-21)
(0.169787 -0.140501 8.38489e-21)
(-0.0001078 -0.000197204 8.36895e-22)
(-0.0212035 -0.000618607 2.21376e-20)
(-0.000922514 0.000859841 -4.32932e-21)
(-0.000189755 -0.000208523 3.99886e-21)
(0.0370675 -0.0379721 0)
(-0.00985021 -0.0441061 -1.79401e-21)
(-0.0153529 0.00954422 0)
(-5.07477e-05 -3.91924e-06 3.01528e-21)
(-0.00358831 -0.0002461 0)
(-4.98668e-05 -2.74537e-06 4.48188e-22)
(-0.00182889 0.29391 7.44956e-20)
(-6.41098e-05 -3.87854e-05 5.75221e-22)
(-0.00573813 0.0113051 7.20193e-21)
(-0.162187 -0.0579529 3.5993e-21)
(-7.51604e-05 6.41972e-06 -1.78516e-21)
(-0.000352879 -0.000598796 0)
(-0.000598899 -0.0102022 6.33963e-21)
(-0.0332631 -0.000798137 -2.43958e-21)
(-0.0710084 -0.176325 2.64848e-20)
(0.0591198 -0.165413 6.38562e-20)
(-9.97905e-06 -9.41043e-05 0)
(-0.000197335 8.35345e-06 -1.02153e-21)
(-0.114107 0.0992957 0)
(0.0162876 -0.0548623 0)
(0.000226567 -4.17775e-05 0)
(0.0463746 0.00359202 4.81427e-21)
(-6.57015e-05 -2.93817e-06 -5.0577e-22)
(-0.0149576 0.00551435 2.39686e-20)
(-0.00675372 -0.00814671 0)
(-0.00339987 0.111356 2.32898e-20)
(-0.000116851 -0.000492358 1.03583e-21)
(0.000851568 0.000228588 0)
(-0.00921543 0.0068842 -1.27647e-20)
(0.0106518 -0.0373603 0)
(-0.000298738 -0.000451208 0)
(1.18764e-05 -0.000445365 -4.97152e-22)
(4.80128e-06 -0.00677254 -1.54388e-20)
(0.0808177 -0.0333577 0)
(0.0689692 -0.00656238 -2.71595e-20)
(0.00472193 0.0112912 -8.28208e-21)
(-0.0420677 0.0347494 -3.85246e-22)
(-9.35142e-05 -8.46166e-05 0)
(-3.16502e-05 -8.66698e-05 0)
(-0.00208617 0.00570351 0)
(-0.0604862 0.0388366 0)
(-0.000268356 -7.20216e-05 -2.03266e-21)
(-0.0262994 -0.0930924 0)
(-0.000335144 -0.000454095 -4.52825e-21)
(-0.000379024 -0.000403605 -3.76124e-22)
(-0.00158712 -0.000117815 0)
(0.037811 -0.0425056 0)
(-0.00833123 0.00655142 2.48302e-21)
(-0.00842678 0.00520237 8.70254e-22)
(-0.000578589 -0.000253981 -6.186e-21)
(-0.104004 -0.0497912 -2.31531e-20)
(-0.00834383 -0.00192885 -1.66387e-22)
(0.0058847 0.00116275 -5.96067e-21)
(-7.85851e-05 1.95701e-05 9.40058e-21)
(0.00183255 -0.00100767 -1.63237e-21)
(0.00766769 0.0107319 -2.17156e-21)
(-0.0137004 0.0193335 0)
(0.00376733 0.0642181 1.94076e-20)
(0.000200814 -0.000305124 0)
(-6.79247e-05 -4.82755e-05 0)
(-6.12986e-05 -1.17609e-06 0)
(-0.000202386 -0.00511381 5.40404e-21)
(-0.0413212 0.088891 0)
(0.0305993 -0.142799 6.74418e-21)
(-8.35699e-05 6.22302e-05 1.00469e-20)
(-5.00236e-05 -1.70439e-05 -7.22266e-22)
(-0.101815 -0.0033592 3.06336e-20)
(0.00405886 -0.000649173 2.17987e-22)
(-0.0464465 -0.0330083 -1.18726e-20)
(-0.00131187 -0.000231349 -9.80955e-22)
(-0.000160571 -0.000205853 0)
(-0.004373 -0.00158914 0)
(0.00256287 -0.00117978 2.60047e-23)
(-0.0167504 -0.0978573 3.35794e-21)
(-0.000361104 -0.00348504 0)
(-0.105821 0.235236 3.53515e-21)
(-7.75303e-05 4.77867e-05 5.06672e-21)
(-0.0150217 0.00455836 -2.30186e-20)
(-0.00150324 0.00132671 4.12529e-21)
(-5.06693e-05 0.000176173 1.13642e-21)
(-0.0174862 0.0175644 1.67473e-20)
(-0.000228357 0.00017596 -1.94726e-21)
(-0.0153152 0.049586 0)
(0.00447178 -0.0180951 9.58521e-21)
(-8.60455e-05 6.9177e-05 0)
(-0.00212876 -0.00340079 -3.14667e-21)
(-0.00234017 0.00101642 0)
(-0.00130622 0.000261571 6.71532e-22)
(-0.0403909 -0.317921 1.47643e-20)
(0.000566067 -0.00147452 -7.34804e-21)
(-0.00027009 -8.06476e-05 -5.33899e-23)
(0.0581369 -0.0412239 1.03316e-20)
(-7.66348e-05 4.18186e-05 6.4212e-22)
(0.00119104 6.03685e-05 -7.35908e-22)
(-0.00152214 -0.00197335 -5.94217e-22)
(-0.0198283 0.0203364 -1.42941e-20)
(0.0139763 -0.00730402 0)
(-9.52965e-05 -7.73241e-05 0)
(-0.0040465 -0.00690818 0)
(-6.44147e-05 -6.27624e-05 0)
(-0.027865 0.0320526 -1.12237e-21)
(-0.0177718 0.000283518 -1.45642e-20)
(-6.34005e-05 5.3916e-08 -6.49154e-22)
(-9.74382e-05 6.17145e-05 -1.55594e-20)
(0.0181514 0.000285601 0)
(-0.00230461 -0.000272011 -3.1465e-21)
(-0.000283101 9.99306e-05 -2.7055e-21)
(-4.73534e-05 -1.94306e-05 -8.00222e-22)
(-0.000248693 8.49327e-05 0)
(-0.000331685 -5.7091e-05 4.76078e-23)
(0.00484251 0.0572073 -8.01475e-21)
(-0.186458 -0.43191 0)
(0.12272 -0.114638 4.06484e-20)
(0.00443392 0.0184018 6.67406e-21)
(-0.0216302 0.0184838 -7.38148e-21)
(-0.0877118 -0.15483 0)
(-8.25594e-05 -2.35838e-05 -5.02845e-22)
(-0.00446156 -0.00122607 -6.23447e-22)
(-0.0423716 -0.0565251 1.19076e-20)
(0.0197946 -0.0111818 1.73692e-20)
(-0.0556385 -0.00910262 -2.3987e-22)
(0.00650811 -0.0276761 0)
(-0.0250056 -0.0943355 8.64616e-21)
(-0.00290922 -0.00252753 0)
(0.00958249 0.146605 -1.02138e-19)
(-0.00825787 -0.00843531 0)
(-7.06748e-05 -2.73592e-05 0)
(0.00258151 -0.0134963 1.89915e-21)
(-0.00137524 -0.0125752 -1.78505e-21)
(-0.174525 0.140825 0)
(-0.000473428 -0.000273071 3.39405e-21)
(-0.0862572 0.000832196 -7.98819e-21)
(-0.0129584 0.271972 -9.03148e-20)
(-9.5229e-05 -1.04373e-06 6.77787e-21)
(0.023619 0.188471 4.40041e-20)
(-0.00011077 -2.46063e-05 -1.67775e-20)
(-6.45857e-05 -4.12926e-05 5.06495e-22)
(-6.81166e-05 -4.31939e-06 6.92933e-22)
(-4.14468e-05 -3.52285e-05 -1.58533e-22)
(-0.000116199 4.12551e-05 5.55568e-21)
(-0.00714698 -0.00960516 3.09253e-20)
(0.0073381 -0.0630078 0)
(-0.000216199 0.00011952 -9.55674e-22)
(-0.00262132 -0.00369942 -1.23592e-22)
(-7.65955e-05 3.48686e-05 0)
(-0.0677597 0.296383 0)
(0.0142746 0.000496913 -6.75073e-21)
(0.0192876 -0.162801 -2.89208e-21)
(0.126055 -0.0852488 -2.56953e-20)
(-0.000223505 8.07204e-05 -1.09848e-21)
(-0.0197835 0.0595904 -7.83825e-21)
(-0.00177321 0.000408645 -1.6177e-21)
(0.0115738 -0.184306 2.70959e-20)
(-0.000154976 0.000134351 2.34223e-21)
(-7.20952e-05 2.29624e-05 0)
(-0.00981549 -0.00437536 0)
(-0.284023 -0.223326 -1.04356e-19)
(-0.000158714 1.93221e-05 0)
(-0.0270898 -0.311996 0)
(0.0154821 -0.0146385 0)
(0.00670314 -0.0323722 0)
(0.144428 -0.0794068 0)
(-0.0219449 -0.0519805 -6.02334e-21)
(-0.0191299 -0.0415243 5.95553e-21)
(0.00474271 0.00561924 -1.16352e-20)
(-0.000100998 5.87523e-05 -4.89425e-21)
(-6.58323e-05 -1.1272e-05 -1.65268e-21)
(0.00517082 0.0107788 0)
(-0.0032905 -0.00655487 0)
(-0.0711167 -0.256309 3.67997e-20)
(-0.00221873 -0.00179612 0)
(-0.0179756 0.00949956 1.64812e-20)
(-0.000378253 -0.0153552 9.60658e-21)
(-7.52853e-05 2.53956e-05 -8.34376e-22)
(-7.21066e-05 -1.41312e-05 -2.70467e-21)
(0.130114 -0.100467 -1.45175e-20)
(-0.0123695 0.00418384 0)
(-0.182669 -0.00158878 -8.45126e-21)
(0.0888516 -0.0553428 0)
(-0.00853715 -0.00294135 8.3835e-21)
(-0.00209105 0.000688675 0)
(-6.12925e-05 -1.0504e-06 -5.69101e-22)
(-0.0834041 -0.131723 0)
(-4.99102e-05 -3.32839e-05 -4.37051e-21)
(0.00492347 0.00357597 1.85495e-21)
(0.00258649 0.00387521 1.7844e-20)
(-0.000104871 -0.000178055 0)
(-5.61197e-05 -6.38781e-07 1.04268e-22)
(-8.23947e-05 8.13937e-05 1.28985e-20)
(-6.13751e-05 -3.94567e-05 -8.96402e-22)
(-0.0131628 -0.0253955 2.18449e-21)
(-0.0413424 -0.0130943 -1.45051e-20)
(-0.0025306 0.0511397 5.29057e-20)
(-0.00213976 0.00855902 6.07101e-21)
(-0.00370995 -0.00846072 0)
(-0.0171294 -0.00460376 -4.00777e-20)
(-0.0319737 -0.133274 -8.4795e-20)
(0.00178894 -0.000474351 -2.08078e-23)
(-0.195961 0.160331 0)
(-7.55796e-05 -0.000297244 3.33358e-21)
(0.0141924 0.0340592 -1.29156e-20)
(-6.11687e-05 1.54206e-05 -9.30194e-22)
(-8.32766e-05 8.98561e-05 -2.46072e-21)
(-4.90326e-05 5.91553e-06 0)
(-0.137498 -0.0438025 0)
(-0.00870003 -0.128904 -1.82244e-19)
(-0.0190133 -0.0425826 1.00879e-20)
(-0.0153882 -0.00258897 2.60485e-20)
(-0.0195957 0.0539086 -3.68701e-20)
(0.00138336 0.123229 9.87126e-21)
(-0.0429086 0.029846 -1.39529e-20)
(-0.000129974 1.10148e-05 -5.59409e-21)
(0.000472979 -0.010694 0)
(-0.000176698 0.00012696 -2.3534e-21)
(-0.0390377 -0.0998089 1.22512e-19)
(-5.40404e-05 2.72035e-07 0)
(-0.170162 0.289482 -1.84812e-20)
(-0.00589986 -0.0960244 0)
(-0.0189188 0.0294895 2.16836e-21)
(-0.0237568 -0.00232074 0)
(0.00178841 -0.00117968 -9.14139e-21)
(0.00853752 -0.000915508 2.14686e-22)
(0.00512804 -0.125797 2.16732e-20)
(-0.306355 -0.238745 -1.10641e-19)
(-8.27903e-05 -8.53363e-06 1.02513e-22)
(-0.0025157 0.00196934 0)
(-0.0100606 -0.0031312 1.10977e-21)
(-0.00552363 0.0101581 -2.53264e-21)
(-5.40281e-05 -3.6272e-05 -2.0293e-21)
(-0.000334445 -9.68755e-05 -6.11615e-22)
(0.00522229 -0.00387548 -1.12724e-20)
(0.0048709 -0.0340382 0)
(-0.0062112 0.0148134 0)
(-0.07525 0.355217 0)
(-5.30227e-05 3.85743e-07 -6.49941e-21)
(-5.7517e-05 -8.91567e-05 -1.73161e-20)
(0.246189 0.225936 -2.92915e-20)
(-0.00224164 -0.00385335 2.55684e-21)
(-6.98308e-05 -3.79623e-05 -2.07273e-22)
(0.156782 -0.0616426 0)
(-0.000105187 6.11851e-05 1.03324e-20)
(0.000431921 0.000166798 6.4696e-21)
(-5.6351e-05 4.4684e-05 -4.35764e-21)
(0.00140651 -0.013219 -4.10441e-21)
(-0.000888664 2.44139e-05 1.14349e-21)
(-5.56154e-05 -6.96276e-05 1.52171e-22)
(0.00159832 -0.00202929 -8.96181e-21)
(0.0646884 -0.049387 4.1271e-21)
(-0.000182093 -2.0373e-06 0)
(-0.00312254 -0.00349212 0)
(-8.5348e-05 1.07141e-05 1.03032e-20)
(0.00943343 0.0187578 -3.50045e-21)
(0.0117346 0.0195115 -2.34518e-21)
(-8.54682e-05 -4.19346e-06 0)
(-0.000176693 0.000166228 -6.27767e-21)
(-6.69843e-05 6.25612e-06 0)
(-6.66337e-05 3.58771e-06 1.03468e-20)
(0.0625939 -0.0793201 4.39719e-21)
(-0.000236616 0.00018238 0)
(-0.0894127 0.0020406 -5.06206e-21)
(-0.000152973 -0.000107017 -9.745e-23)
(-6.05458e-05 -1.01434e-06 -2.11348e-21)
(-0.121863 -0.524682 7.67821e-20)
(-0.0251222 -0.00171615 7.51834e-21)
(-0.000153744 -9.67064e-05 4.72359e-22)
(0.0116695 0.0110263 0)
(0.0019241 0.000296147 -3.43091e-21)
(0.0175211 -0.0592849 1.38147e-20)
(0.250342 -0.105707 0)
(-5.91547e-06 -4.71461e-05 0)
(-0.00221411 -0.0607908 4.10737e-20)
(-0.000181565 0.000114607 0)
(-0.0294339 -0.0220059 0)
(-0.000133658 -0.000159717 0)
(0.027523 0.144803 5.57361e-20)
(-6.33594e-05 -1.25912e-06 -7.96984e-22)
(-0.00648354 0.359119 1.10875e-19)
(0.0493043 -0.00931214 2.39778e-20)
(-7.72594e-05 5.12511e-05 5.84602e-22)
(0.00860788 0.00658068 9.52876e-21)
(0.105207 -0.0353162 -2.79407e-20)
(-0.00651789 0.0143827 -1.88178e-20)
(0.00139879 -0.0409053 4.03708e-20)
(-0.000107628 9.6555e-06 -7.73181e-21)
(-0.0014415 -0.0263575 3.90801e-20)
(-0.000150299 3.56143e-06 5.12439e-22)
(-8.84282e-05 -1.80871e-05 -4.71387e-21)
(-7.51048e-05 2.00661e-05 4.76748e-21)
(-9.79475e-05 -6.53183e-05 0)
(-0.0109545 0.00584459 0)
(-0.00274686 -0.0113723 -6.02213e-22)
(0.0134505 -0.0241215 2.50555e-20)
(0.014657 -0.0662579 3.98312e-22)
(0.0145536 0.0758464 4.17148e-20)
(3.39946e-06 -7.90381e-05 0)
(0.069713 -0.108614 0)
(-0.00259121 -0.163147 1.86942e-19)
(-0.000270779 0.00130691 1.31513e-21)
(-0.00166048 -0.0013195 4.83463e-23)
(0.0293417 -0.0414479 -1.67199e-20)
(0.00384981 -0.110534 5.50515e-21)
(-0.0137898 -0.0057726 0)
(-0.000105788 1.22777e-05 0)
(0.0418315 0.0818933 1.97991e-20)
(0.155264 -0.11589 -8.73297e-21)
(0.183509 -0.118894 -1.8527e-20)
(-0.00106133 -0.00469163 5.88832e-21)
(0.00854838 -0.00199761 -2.03098e-20)
(-0.0548867 -0.166574 -9.22403e-20)
(0.0104113 0.00111344 8.52055e-22)
(0.0806476 -0.0312961 2.2253e-20)
(0.00255994 0.126832 -2.84962e-20)
(-0.295437 0.310256 4.45136e-20)
(-0.00112091 -0.00017277 8.13839e-22)
(-0.362078 0.291993 -4.30699e-20)
(0.0120442 -0.0125697 -3.35049e-22)
(-5.96837e-05 4.06219e-06 -9.04647e-22)
(0.00834083 0.00858409 6.8885e-22)
(-0.00178719 -0.0113656 0)
(-0.0272864 -0.00163671 1.20862e-20)
(-2.14955e-05 -0.000322654 5.45952e-22)
(-0.000193136 1.95901e-05 1.2944e-21)
(-0.000111344 4.33128e-05 -1.21484e-20)
(-0.000166585 -3.64031e-05 -4.32025e-21)
(-0.0258813 -0.013405 0)
(-0.0184653 -0.00772497 2.73713e-21)
(0.13986 -0.0767606 -1.71261e-20)
(-0.0684577 0.269742 -3.73359e-20)
(-8.68046e-05 5.01022e-06 4.12326e-21)
(0.170779 0.171439 5.11179e-20)
(-0.0168251 -0.00527206 1.08964e-20)
(0.0270358 0.130179 -1.44461e-20)
(-0.00534691 -0.150603 -5.76068e-20)
(-0.00328752 -0.0036684 -1.41026e-22)
(-7.05568e-05 -3.1412e-05 2.10709e-22)
(-7.797e-05 9.33586e-05 0)
(-0.00268205 -0.0131275 0)
(0.0866242 -0.111691 0)
(-0.000337114 -0.000323908 1.02716e-21)
(0.00933711 -0.00633335 6.80865e-21)
(0.0223498 -0.00803492 0)
(-6.47829e-05 6.25851e-05 0)
(-0.0315976 -0.0126456 -2.72322e-20)
(0.00163212 -0.208658 -3.90155e-20)
(-0.159196 0.134561 -1.01639e-19)
(-0.00176618 -0.0339962 -2.09048e-21)
(-0.0113942 0.00640283 0)
(0.0102835 -0.00436928 1.43401e-20)
(-0.000168873 0.000108871 -5.26566e-21)
(-9.67802e-05 -8.54238e-05 0)
(0.170505 -0.0405441 -4.02654e-20)
(3.87423e-05 -0.0153199 1.11493e-20)
(0.0190898 -0.00440154 1.20193e-20)
(-0.00195338 -0.00163623 -8.46716e-21)
(0.0423678 0.0410472 0)
(-3.87179e-05 -3.23167e-05 -1.82853e-22)
(-0.00017355 -3.56004e-05 -3.08685e-21)
(-0.222155 0.276077 0)
(-6.09055e-05 4.70028e-05 -9.07888e-22)
(3.43669e-05 -0.000625429 -4.40037e-22)
(-4.36966e-05 -5.77953e-05 0)
(-0.000115877 2.44743e-05 4.31364e-21)
(0.0149776 -0.0152879 -4.34596e-21)
(-0.0222957 -0.0230322 9.77597e-21)
(-0.011539 -0.00241184 0)
(-5.39829e-05 4.32218e-05 9.01027e-22)
(-0.0303108 -0.320236 1.15013e-20)
(0.0250335 0.0576332 -1.84574e-21)
(-8.46006e-05 6.59838e-05 0)
(-6.03684e-05 -5.27931e-06 0)
(-0.000259413 -5.97421e-05 2.25477e-21)
(-7.00146e-05 -5.2444e-05 2.98874e-21)
(-0.254292 -0.162433 0)
(-0.0156166 0.167525 5.87618e-20)
(-0.0144102 0.17525 -5.1277e-20)
(0.200295 -0.135465 0)
(0.0135279 0.0535261 -3.19278e-20)
(-0.00193923 -0.00158872 4.94658e-21)
(-0.0283459 -0.00138053 2.20887e-20)
(-0.0244963 3.8423e-06 -1.42337e-20)
(-0.00350856 -0.00689085 1.661e-21)
(-0.00375318 -0.00168901 -4.01718e-21)
(-7.71763e-05 -2.32021e-05 -2.1256e-22)
(-0.00158969 -0.00198933 0)
(0.00454359 0.00599502 -9.77492e-22)
(0.0738032 -0.0678927 -2.82806e-20)
(0.00166802 0.120757 0)
(0.0069003 -0.0046835 7.09027e-21)
(-0.00106528 0.00298064 0)
(-7.22171e-05 8.4494e-05 6.99689e-21)
(0.00655295 -0.00303858 -4.38022e-21)
(-0.00112547 -0.0015872 0)
(0.00227982 0.00591026 -6.25592e-20)
(-0.00473648 -0.0170608 0)
(-0.000245243 7.74882e-05 -3.60378e-22)
(0.00146269 0.0186158 -7.40252e-21)
(-5.4083e-05 -2.9026e-05 -4.22826e-21)
(-0.00144075 -0.000559027 -1.99104e-21)
(-0.0218681 -0.0365245 1.75814e-20)
(-0.000121752 -0.000237168 3.91739e-21)
(-0.000160021 0.000132916 -7.91849e-21)
(0.0143381 -0.00461924 0)
(-0.000217485 -0.000240143 3.88031e-22)
(-0.0248171 -0.011489 -3.37205e-21)
(-0.138928 -0.0185568 0)
(-0.0029326 -0.0362564 6.76095e-22)
(0.00755573 -0.00216169 -2.61126e-21)
(0.0203409 -0.000275174 0)
(-7.35125e-05 8.14132e-05 -6.96957e-21)
(-0.182723 0.0440337 1.72659e-21)
(-0.0114158 0.00464185 4.40923e-22)
(0.239891 -0.134866 0)
(-3.08097e-05 -1.18839e-07 -7.70581e-23)
(-6.84994e-05 6.61708e-06 -5.5572e-21)
(-0.0129446 0.0204121 1.48822e-20)
(-0.00095635 0.00146129 5.5244e-21)
(0.162922 -0.0677382 0)
(-0.0123362 -0.00366588 -2.12479e-20)
(0.18461 -0.10047 -8.81426e-20)
(0.175088 -0.0378661 2.00952e-22)
(-5.20294e-05 -2.02082e-05 2.29585e-21)
(-0.00619569 0.0195211 0)
(0.000276346 -0.000217256 0)
(-0.000108504 4.25141e-05 -4.92051e-21)
(-6.30453e-05 -2.54591e-06 4.42954e-22)
(-0.000120854 2.03008e-05 -1.32036e-20)
(0.000457709 -0.00056259 0)
(-0.000125737 0.0116898 -4.05965e-21)
(-0.00481479 -0.0101307 1.5808e-21)
(-5.28195e-05 1.69703e-05 -8.7732e-22)
(-0.209938 -0.12468 -2.20935e-20)
(0.0638927 -0.0215567 -2.52079e-20)
(-0.167425 -0.17298 0)
(-0.000119285 0.000101829 0)
(-6.87742e-05 -9.80175e-06 3.01755e-22)
(-5.98667e-05 4.04252e-06 4.24125e-21)
(-0.0615083 -0.039445 0)
(0.0347958 -0.246689 -1.38021e-20)
(0.00192396 -0.00367137 1.38028e-20)
(-0.00123201 0.000973408 4.92108e-21)
(0.000337983 -0.000245129 0)
(-5.59637e-05 -1.77651e-06 -4.16396e-21)
(-8.73743e-05 7.94936e-06 2.05533e-21)
(-0.000113597 5.62825e-05 1.79418e-20)
(0.0274661 -0.0229256 1.74567e-20)
(0.0100027 0.323742 0)
(-0.000227871 -0.000283834 -4.22334e-22)
(-4.4293e-05 9.67104e-06 0)
(-9.94841e-05 -8.96352e-05 0)
(-0.000113705 1.46651e-05 -1.29215e-20)
(-0.0769728 0.279846 -6.87776e-20)
(-0.0479502 0.290799 -5.24693e-21)
(0.00795729 -0.00147125 2.34085e-21)
(0.102907 -0.06957 0)
(0.0108114 -0.0865783 -1.77504e-20)
(-0.000169676 0.000151726 2.46767e-21)
(0.0129214 -0.0157819 -7.57917e-21)
(-0.307478 -0.292104 2.29086e-19)
(-0.00398399 -0.00214037 0)
(-0.20058 0.346077 -5.27167e-20)
(-0.00029393 -0.000550776 2.22649e-21)
(-0.00316229 0.00612816 4.59043e-21)
(0.00125607 -0.00157197 -1.20642e-20)
(-0.0011619 0.00724304 0)
(0.00941938 0.0545931 3.68566e-20)
(-0.000194059 -0.000145675 1.78855e-22)
(-0.04139 -0.324911 6.32861e-20)
(-5.51904e-05 1.03052e-06 0)
(-0.000205938 -0.00156559 2.8997e-21)
(-0.0213549 -0.00256243 2.47343e-20)
(-0.00017623 0.000183034 -2.24997e-20)
(-0.000190662 0.00102774 8.56469e-21)
(0.039254 0.0167349 5.82047e-20)
(-8.58074e-05 -1.90163e-05 9.5789e-21)
(0.000156081 0.000541214 0)
(-0.0641914 0.0259299 -2.06363e-19)
(0.0702254 -0.141835 1.32217e-20)
(-0.0062693 -0.0164838 -2.45219e-22)
(-0.0470038 -0.0962507 0)
(-0.0253488 -0.0433601 -3.78223e-21)
(-4.951e-05 -4.79022e-05 2.9279e-22)
(-0.000114606 0.000101493 0)
(-0.101849 -0.465923 1.0203e-19)
(0.0236891 -0.000778819 3.99436e-21)
(-0.0333719 0.00297426 -3.72919e-21)
(-0.0108557 -0.00545536 3.54588e-20)
(-5.1808e-05 -7.28967e-05 3.55946e-21)
(-4.36796e-05 6.80476e-06 0)
(-6.0813e-05 5.44496e-06 -6.58318e-23)
(0.0247287 0.160327 0)
(0.0329986 -0.00884387 0)
(-0.000503266 -0.0018994 -1.57962e-21)
(-0.000193193 -3.5895e-05 0)
(0.0106919 0.0200456 -1.12568e-21)
(-0.0013348 -0.000699406 0)
(-6.30516e-05 2.20669e-06 -3.17427e-21)
(0.0667946 0.154355 3.60475e-19)
(0.0932517 -0.0393584 -9.61076e-22)
(0.00403592 -0.00716241 0)
(-7.56904e-05 4.97708e-05 2.29819e-23)
(-0.000223601 -0.000292814 6.81844e-22)
(-0.026065 -0.00210825 -1.6196e-20)
(-0.0144565 0.247623 0)
(0.0219183 0.00470752 0)
(-0.000962107 -0.00115238 0)
(-0.0128324 0.00368776 5.00384e-23)
(-0.000147905 -0.000129314 3.46441e-22)
(0.0123405 0.019358 -4.64897e-21)
(-0.0823792 0.0695347 1.11822e-20)
(-0.0169801 0.0374738 1.35917e-20)
(0.000968336 0.000130619 2.0768e-21)
(0.272316 -0.150604 -2.38718e-21)
(0.00171542 0.0105166 3.9691e-20)
(-0.00249498 0.00353346 0)
(0.0345184 0.0011838 5.76476e-21)
(-6.75393e-05 6.53102e-06 -5.69978e-21)
(-0.000134947 -5.80441e-06 -6.86372e-21)
(-0.00089323 3.53187e-05 -1.15538e-21)
(-6.26611e-05 7.50458e-05 7.0318e-23)
(0.107998 0.264403 0)
(0.00142081 0.00613199 -9.42734e-22)
(0.00263708 -0.0232385 7.0041e-21)
(-0.00853187 -0.00115475 -1.0474e-20)
(0.00778883 0.014361 4.8687e-21)
(-7.84526e-05 8.40873e-05 4.86125e-21)
(-0.0585837 0.00511409 1.79203e-19)
(-7.87084e-05 4.84165e-06 0)
(0.00340916 0.0129098 2.73151e-21)
(-6.55923e-05 -4.49469e-06 1.16595e-21)
(-0.000167202 0.000141412 2.04978e-23)
(-0.000118844 2.74269e-06 0)
(0.00444721 -0.0173034 -2.78703e-20)
(-0.000112553 2.80381e-05 1.20537e-20)
(-8.16538e-05 2.194e-05 -1.00215e-22)
(0.0168391 -0.100344 1.07718e-20)
(-9.69077e-05 -8.03517e-05 -1.21673e-21)
(-0.024918 -0.00285368 -1.50783e-20)
(-5.8276e-05 1.60253e-06 0)
(-0.000539942 -0.00114644 -1.85911e-20)
(0.00381639 -0.0112128 0)
(-0.0948099 0.210353 0)
(0.00985045 -0.00758921 -5.87041e-21)
(-8.05456e-05 1.91015e-05 -3.98614e-21)
(-0.124576 -0.0839811 1.88822e-20)
(0.104281 -0.0769533 1.86454e-21)
(-0.00030656 -3.71074e-05 -8.68651e-24)
(0.00655797 -0.0232476 1.66584e-20)
(-0.000732362 -0.00178974 4.90199e-23)
(-5.56253e-05 5.94308e-05 0)
(0.00501876 0.016891 -2.26741e-21)
(0.0658284 0.0733358 0)
(-0.123154 -0.0670092 -1.28443e-20)
(0.00121215 0.00024486 2.63299e-21)
(-8.47896e-05 -4.3951e-06 0)
(-4.15154e-05 -5.60157e-06 -3.68135e-22)
(-0.00163511 -0.114652 7.97843e-20)
(-0.0107667 0.0620282 -2.129e-20)
(0.0119697 -0.0343654 0)
(-0.00047447 -0.00207497 0)
(0.00994099 0.0273289 0)
(-8.39773e-05 -2.16185e-05 -4.46544e-23)
(-0.000464808 -0.000909671 0)
(0.0100173 -0.00102797 1.58675e-20)
(-0.00186163 -0.0951145 -2.28434e-20)
(-0.0287807 -0.0268925 -5.67343e-21)
(-0.0204916 0.104208 0)
(-0.000157058 -0.000140097 4.34315e-21)
(-0.0256054 -0.0155274 -9.64758e-22)
(0.00208006 -0.0125805 0)
(-0.0218248 0.0215298 1.63943e-20)
(-0.00068036 -0.00162064 0)
(0.01177 -0.0596294 -6.42238e-21)
(0.00485819 -0.0653093 1.71756e-20)
(-0.000124022 -0.000104108 -1.19553e-21)
(0.188693 -0.0826485 0)
(-0.167006 0.0836317 4.5051e-20)
(0.0635669 -0.176293 0)
(0.0615142 -0.140662 0)
(0.0435229 -0.0269975 2.253e-20)
(-0.0212648 -0.0879809 1.963e-21)
(0.00768309 0.0132274 -1.54028e-22)
(-6.33386e-05 6.49012e-05 4.5424e-21)
(0.00678983 0.00427858 1.7496e-20)
(-0.115337 0.220518 1.91412e-20)
(0.165491 -0.0454734 4.65696e-20)
(-0.000163491 0.000106471 0)
(-5.96967e-05 5.54377e-07 8.20118e-23)
(-0.00092616 -0.00980683 -3.38707e-22)
(-0.0145718 -0.0169996 0)
(-8.10375e-05 7.97212e-06 0)
(-0.0433351 0.302475 4.9771e-21)
(-5.22603e-05 -5.74489e-05 -3.56423e-21)
(-0.000310219 -0.000189991 0)
(0.170993 0.230386 -1.82945e-20)
(-0.0243703 -0.00242428 -1.3529e-20)
(-0.0265343 -0.0502335 4.63952e-21)
(-8.63605e-05 5.59917e-05 0)
(-6.82337e-05 -4.11431e-05 -2.78295e-21)
(-0.0593861 0.26226 -3.32679e-20)
(0.0233081 -0.0337452 -2.06128e-20)
(0.0168161 -0.00393641 -1.02414e-20)
(0.000107828 -0.00295345 -1.60863e-20)
(0.112769 -0.109592 0)
(-0.136018 0.0709571 3.98789e-20)
(0.0160063 -0.231073 0)
(-0.00571745 -0.00865363 -7.60056e-22)
(-0.00236351 -0.0036982 6.44558e-21)
(-0.000356272 -7.64999e-05 1.75165e-22)
(-0.000131564 -0.000201978 0)
(-0.0275515 -0.222967 1.19661e-19)
(0.000768952 -0.00356088 0)
(-0.011309 0.00396027 0)
(-0.0102833 -0.00441642 4.64049e-20)
(-0.0025105 -0.00243981 0)
(0.0260437 0.384192 -1.94353e-19)
(0.0826408 -0.161517 0)
(-0.0186804 -0.00366944 -1.08658e-20)
(-0.000149454 -0.000233573 0)
(-0.00139451 -0.00178165 4.91896e-21)
(-7.83471e-05 6.48795e-05 0)
(0.00654822 -0.00464873 7.61893e-21)
(-2.97912e-05 0.0010387 6.13037e-21)
(-0.278253 0.501884 0)
(-9.89452e-05 -4.90583e-06 -9.37007e-22)
(-0.011148 0.00986823 -2.85625e-20)
(-8.09607e-05 -6.03705e-06 -5.0346e-22)
(0.00233304 -0.0105348 -5.35605e-21)