/*--------------------------------*- C++ -*----------------------------------*\
| =========                 |                                                 |
| \\      /  F ield         | OpenFOAM: The Open Source CFD Toolbox           |
|  \\    /   O peration     | Version:  v2012                                 |
|   \\  /    A nd           | Website:  www.openfoam.com                      |
|    \\/     M anipulation  |                                                 |
\*---------------------------------------------------------------------------*/
FoamFile
{
    version     2.0;
    format      ascii;
    class       surfaceScalarField;
    location    "250";
    object      ddtCorrDdt0(phi);
}
// * * * * * * * * * * * * * * * * * * * * * * * * * * * * * * * * * * * * * //

dimensions      [0 3 -2 0 0 0 0];
oriented        oriented;


internalField   nonuniform List<scalar> 
20537
(
7.34713e-05
0.000207389
-0.000280861
-0.0476797
0.0403837
0.0072959
-0.0017168
0.00103762
0.000679177
0.000135467
-0.000244531
0.000109065
-0.000794028
0.00014581
0.000648218
0.0132108
-0.00417533
-0.00903525
2.05129e-05
-4.64758e-06
-1.58632e-05
0.000791965
-0.000567236
-0.000224719
-2.08819e-05
1.53397e-05
5.54278e-06
0.0058815
-0.00343021
-0.00245117
-0.0268728
0.0528585
-0.0259857
-0.0142895
-0.014677
0.028966
-0.00169621
0.000216789
0.00147948
-0.0224767
0.0105567
0.0119198
1.60381e-05
-1.0218e-05
-5.8186e-06
-0.000461503
0.000375819
8.56949e-05
9.87471e-06
2.31293e-05
-3.30055e-05
-2.1269e-06
-0.000634317
0.000636462
0.000877082
-0.00250687
0.00162987
-1.23233e-05
-8.55824e-06
0.000172733
-3.72687e-05
-0.000879474
-0.000837345
-3.0623e-06
5.26577e-06
-2.20244e-06
-1.11522e-05
8.30294e-07
1.0323e-05
-4.55818e-06
1.49643e-06
0.000233566
0.000558401
-4.46683e-05
-1.0759e-05
5.54287e-05
0.000289214
0.00012034
0.000191417
-0.000117949
4.35691e-05
-0.000154906
0.000111384
-0.00167642
0.0148874
3.60811e-05
-2.62079e-05
-0.000950047
0.00198765
-0.0384404
-0.0151473
0.0535875
-1.21615e-05
1.00987e-06
-6.93556e-05
0.000105083
-3.57335e-05
3.77719e-05
-0.000144061
0.000106292
0.00158702
-0.00298214
0.00139512
0.00445467
0.00142695
-0.0535487
0.0151084
6.99168e-06
1.77376e-05
-2.47306e-05
5.80702e-06
-2.42665e-06
-3.3786e-06
0.00181325
-0.00206823
0.000255085
0.0426138
0.0149056
-0.0575194
-0.0182
0.0608138
0.00851679
0.000548502
-0.00906582
0.014134
-0.0577567
0.0436229
0.0849897
-0.0112451
-0.0737445
1.41486e-05
-5.8816e-05
-0.0179166
0.00872406
0.00919259
0.000170976
-0.000330593
0.000159618
-0.00059099
0.000621878
-3.08806e-05
0.00214033
-0.00324274
0.00110223
-1.81326e-05
1.14523e-05
6.68423e-06
2.83243e-05
-2.27155e-05
-5.60865e-06
1.19961e-07
5.68609e-06
3.46312e-06
3.97913e-07
-3.86009e-06
-0.00410932
0.000593138
0.00351624
-0.000106949
0.000150494
1.07097e-06
1.83743e-05
-1.94436e-05
-0.00242817
0.00401518
-0.00074289
0.0132348
-0.0124918
0.00734111
-0.00115022
-0.00619097
0.000151255
0.000644367
-0.00079561
-0.019752
0.02177
-0.00201808
-0.00059775
0.000477974
0.00011981
-0.000102914
0.000140688
0.00812334
-0.0452852
-0.000188145
8.31672e-05
0.00010498
-0.000680292
0.000678172
-0.000150984
0.000180005
-2.90158e-05
-0.000170525
0.000179538
-9.01355e-06
-0.0357211
-0.0119583
-9.329e-06
-8.80193e-06
9.69573e-06
-2.54789e-05
1.57843e-05
-1.25022e-05
2.49263e-05
-1.24224e-05
-0.0010694
0.000189897
-3.6049e-05
-0.00014333
0.000179395
0.000189114
-0.000436063
0.000246949
-0.000190284
2.23199e-05
-3.36149e-05
3.61394e-05
-2.52102e-06
0.00547928
-0.000789906
-0.00468935
-8.68943e-06
-2.08368e-05
2.95262e-05
0.00030709
-0.00669259
0.0063861
-0.000901096
0.00824218
0.0111984
-0.0254878
-0.0028232
0.00852693
-0.00570371
-0.0261398
-0.00576298
0.0319027
-6.57485e-05
8.29757e-05
-1.72314e-05
3.05239e-05
-5.2444e-05
2.19211e-05
3.04e-05
-9.97567e-05
0.00396326
-0.00532574
0.00136241
-0.013276
-3.53471e-05
0.000113423
-7.8073e-05
7.65741e-07
-6.65187e-05
5.30139e-06
-6.7597e-06
1.45944e-06
-0.000690664
-0.000103364
-0.00203437
-4.09318e-05
0.00207539
-0.0111034
-0.00681318
-9.38849e-07
6.24039e-06
-0.0113832
0.0052455
0.00613746
7.83196e-06
-0.000263332
0.000255511
7.15489e-06
1.44728e-05
-2.16282e-05
5.93358e-05
-5.26133e-05
1.58228e-06
2.50206e-06
-4.08296e-06
0.00786007
-0.000288795
-0.00757133
4.21641e-05
0.000249524
-0.000291678
8.65993e-06
4.46329e-06
-1.31238e-05
-0.000183829
-3.05698e-06
0.00795688
-0.0121321
-6.17348e-06
-2.17836e-07
6.39237e-06
0.000114464
-8.39395e-05
0.00358254
0.000380738
-1.05364e-05
1.05373e-05
-8.68328e-07
-5.3048e-06
-0.0234376
0.041315
0.00108919
-0.00312359
-1.56654e-06
-5.89394e-07
2.15402e-06
-1.7714e-05
1.85025e-05
-7.87052e-07
-6.83892e-06
2.42172e-05
-1.73779e-05
0.00111146
0.00070189
-5.10854e-07
5.98504e-05
-0.00154632
-0.000149871
-0.00473553
0.0206707
0.064319
0.000428
-0.000441747
1.37466e-05
0.0524281
-0.0317574
0.000421639
-0.000247338
-0.000174303
4.25389e-05
0.000130196
-0.000106778
0.00107937
-0.000972625
2.44446e-05
-1.74534e-05
8.68728e-06
7.75986e-06
-1.64471e-05
-0.000182754
3.1769e-05
-3.07851e-05
2.20953e-05
0.00623408
-1.10078e-05
1.5518e-05
-4.51049e-06
3.16161e-07
-1.88383e-06
0.000166621
-0.000165804
-8.19434e-07
0.0395223
-0.0148756
-0.0246466
0.0144995
-0.0235678
0.00906857
-0.00630154
-0.00508173
1.5888e-05
1.24353e-05
0.000332042
-0.000556718
0.000224674
2.33271e-05
-4.22383e-06
-1.91019e-05
5.23312e-05
-4.02526e-05
-1.20754e-05
0.0522765
-0.0373708
-0.00259039
0.00251781
7.25819e-05
-0.00169976
0.00159297
2.24127e-06
1.82723e-05
-0.0504992
0.0322991
0.000133615
-0.000111838
-1.88816e-05
2.45465e-05
-5.66485e-06
-0.00909449
-0.0133822
6.52215e-07
2.81133e-06
4.21073e-05
-3.81531e-05
-3.95239e-06
3.56247e-06
4.87702e-05
-1.80677e-05
9.00478e-06
9.06559e-06
6.73141e-05
1.96424e-05
-8.7007e-05
-0.000440139
-0.000150851
0.000330484
-0.000159509
8.755e-06
-1.8563e-06
-6.89837e-06
2.62247e-05
5.34377e-05
-7.96663e-05
-0.000414169
-0.00369509
-3.45253e-06
1.21404e-05
-3.22499e-05
-0.000359349
0.000391601
8.72081e-06
-8.68127e-06
-3.88052e-08
-0.00320867
0.000618281
-0.000123529
-6.46148e-05
-7.13937e-05
0.000113934
-0.00521114
0.00388897
0.00132272
4.85578e-05
-8.461e-05
7.33504e-06
-7.56655e-06
2.33492e-07
-1.24902e-05
-5.57678e-06
0.0272001
-0.0127004
9.59969e-06
-1.30529e-05
-0.088134
0.0768888
0.000225294
0.000196344
0.000157688
0.000225284
-0.000382969
-0.00110599
0.00198315
-9.09684e-06
-8.2074e-06
1.73039e-05
-1.55433e-05
-2.54106e-05
4.09502e-05
-3.90612e-06
-2.46545e-05
-2.57164e-06
2.72278e-05
0.000583802
-0.00142115
3.33973e-06
2.45944e-06
-5.79987e-06
-4.5142e-06
4.65374e-06
-1.3893e-07
-0.000745748
0.000148008
1.61209e-05
-2.29595e-05
-0.000135917
0.00107725
-0.000941341
-0.00601585
-0.000618921
0.0066348
-0.0311512
0.00317531
-0.00103502
-9.28959e-05
-0.000112088
0.000204986
0.00011593
-0.000206282
9.03495e-05
-0.0139897
0.0132467
4.29312e-05
-3.62236e-05
-6.70663e-06
0.000376544
-4.45032e-05
-0.0117332
-0.00343569
0.0151689
-0.000154925
0.000312616
-1.94128e-05
6.91134e-06
0.000651711
-0.00022371
0.0090183
-0.0107315
0.00171256
-1.92524e-05
3.26475e-06
1.5989e-05
-2.39094e-05
-3.99581e-07
2.43097e-05
0.00241088
-0.00421573
0.00180498
-2.60219e-05
1.36613e-06
0.000977075
-0.00821927
0.00724216
4.18169e-05
1.2772e-05
-5.45905e-05
-0.000174225
5.96111e-05
0.000114613
-1.07251e-05
6.93072e-07
1.00323e-05
-4.28687e-05
0.000209584
-0.00016671
6.64076e-06
5.10161e-07
-0.0108294
0.0290328
-0.0182033
3.00145e-06
8.33998e-06
-1.1343e-05
-1.96562e-05
7.73334e-06
1.19232e-05
-0.0204881
0.0229148
-0.00242668
0.00827367
-0.00453166
-0.00374208
0.00908179
-0.000565149
-1.17291e-05
-6.32254e-06
1.80521e-05
-0.000120351
-5.38748e-05
4.78696e-05
-6.05524e-06
-5.04477e-06
-2.85679e-05
-0.000491007
-0.000138682
0.000629689
0.000899248
-0.000511495
-0.000387752
-6.16483e-05
-0.000125828
0.000187477
-2.29562e-06
2.45339e-06
-1.57774e-07
-2.20527e-05
-0.000130234
0.00015229
2.54265e-06
-9.60187e-07
0.00361741
-0.00415459
0.000537229
-8.08773e-06
1.10871e-05
0.000800243
-0.000566685
0.0126985
-0.0193795
0.00668079
-3.3615e-08
7.36947e-06
2.15688e-05
-8.07992e-05
-0.000166594
0.000247399
0.000417004
-0.00277279
0.00235574
0.00852212
-0.00754498
-0.00633694
-0.013415
1.46892e-05
8.63832e-06
-2.73359e-05
3.42733e-06
-0.0146433
0.0129669
-0.0161282
-0.00977286
0.0259011
6.28625e-05
-2.29233e-06
-6.05705e-05
0.0046593
-0.00224838
-8.01896e-07
3.30355e-06
-0.000174871
2.96012e-05
0.00014527
0.000301186
-0.000293359
-0.00870369
-0.0135099
0.0222137
-5.03096e-05
1.42008e-07
5.01739e-05
9.17745e-06
3.7259e-05
-4.64358e-05
-0.00104712
0.00230822
-0.00126112
0.020595
-0.0367231
2.78515e-06
-3.69068e-05
3.41255e-05
-4.67459e-05
0.000254955
-0.000175341
-7.96112e-05
-0.0313781
0.00176469
0.0296128
-0.00814821
0.00213235
1.57308e-05
-0.000181534
-0.000176707
-0.000718606
0.000895435
-1.05098e-05
-4.42411e-06
1.49351e-05
-4.96683e-06
0.000249352
0.000334891
-0.000584235
0.0496046
-0.0312055
-0.0183992
3.45035e-05
-5.26042e-05
1.81031e-05
0.002919
-0.000254224
-0.00266479
4.81894e-06
3.81123e-05
-3.18885e-05
3.46764e-05
-8.29346e-05
4.75835e-05
-0.000718903
0.000227894
0.000786327
-0.00341787
0.00263157
0.00105514
-0.00210226
5.88407e-06
0.0263157
-0.0238423
-0.00247354
0.000377424
-0.000188309
-0.000455463
-6.03459e-06
-6.77139e-06
1.45318e-05
-0.00320246
0.00868167
-0.00472963
-0.00109224
0.00582187
-2.85398e-05
-0.000145638
0.000174179
-0.0304488
0.00357596
1.14544e-05
5.14084e-05
-3.96938e-06
9.88912e-06
-5.92068e-06
3.05888e-06
-5.42395e-06
2.36437e-06
7.5456e-05
0.000179502
0.0260728
0.0235318
0.00696342
0.0663987
-0.0733622
-6.52138e-06
1.72323e-05
-1.07097e-05
-3.97238e-06
1.01758e-05
-6.20201e-06
0.0279511
-0.00163546
-0.0102023
0.0331899
-0.0229876
-0.000462823
-0.00123696
7.79105e-06
-0.000114778
-1.70774e-05
1.81493e-05
-9.98868e-05
0.000230155
-0.000130269
-0.00127048
-0.00893179
0.00240068
0.000518383
-0.000273265
0.000310957
-3.76897e-05
0.0358074
-0.0246088
1.76711e-05
-8.52289e-06
-9.14721e-06
-0.000146116
-2.87514e-05
8.18027e-05
-5.55812e-05
5.49908e-06
1.76303e-05
1.69774e-05
0.000156801
-0.00017378
-2.88848e-05
2.62269e-05
2.65651e-06
-0.00400013
0.0118602
0.000230393
7.91192e-05
-0.000309517
6.2494e-06
-1.27704e-05
0.000193204
-0.000188694
-4.50282e-06
9.27016e-05
2.0723e-05
-9.80131e-05
0.000105744
0.0101781
0.0293437
-5.64407e-05
-0.000216818
4.90403e-05
-2.70616e-05
-2.1973e-05
-0.00143489
0.000718645
0.000716275
3.85885e-06
-3.97557e-06
1.16411e-07
-3.23213e-05
4.14983e-05
-0.000202209
0.000806686
-0.000604472
0.000174038
-0.000202578
-5.84507e-05
-6.43771e-05
0.000122818
-1.72091e-05
5.48043e-06
-1.10492e-05
-0.000230642
0.0002417
-5.14439e-07
9.87981e-06
-9.36436e-06
0.000951944
-0.00112861
-0.00361568
0.00211188
0.0015038
-1.85273e-06
4.22954e-06
-2.3778e-06
3.18545e-05
-2.30204e-05
-8.83677e-06
-0.000157568
9.9114e-05
0.000105303
-0.000127352
-2.86003e-05
-8.49594e-06
3.70976e-05
5.634e-06
-2.76139e-05
-1.26863e-06
2.32844e-05
2.57573e-05
0.0326108
0.0202477
0.0124083
-0.00631745
0.00639162
-0.00124129
-0.00515009
-0.00125748
0.0017279
-0.000470437
-0.000181536
0.000198511
0.00725405
-0.00561982
-0.00163432
6.7105e-06
-9.93403e-05
0.000215268
0.00152456
-0.0019874
0.00167681
-0.00521421
0.00353738
0.00366583
0.00180673
-0.00547261
-0.000329491
-5.3899e-05
0.000383386
-0.000106201
-0.000610084
0.00119177
-0.000581689
0.0488601
-0.0379458
-0.0109143
-0.000108317
0.000208415
-0.000100094
2.35737e-06
-1.25753e-05
0.0114898
-4.92785e-05
-0.0114406
0.00541817
0.00607164
0.0078684
-0.00213843
-0.00573014
5.66092e-06
-3.42601e-05
-0.00276394
0.00642967
0.00382301
-0.00020557
-1.7721e-05
5.2331e-06
0.0534641
-0.00460399
2.01779e-05
1.16762e-05
-9.82736e-06
9.3133e-06
4.16608e-06
-4.9676e-06
1.55388e-05
-6.8792e-06
-9.45991e-06
1.92174e-05
-9.75636e-06
-0.000237167
0.000128852
0.0150449
-0.0686067
0.0535618
2.83783e-05
-2.60949e-05
-2.28335e-06
0.000178159
1.50474e-05
-5.96279e-06
3.23799e-06
2.72507e-06
0.00573088
0.0300767
0.00114845
-0.00130966
0.000161189
0.0803295
-0.0188132
-0.00273389
-0.0024772
3.6975e-06
2.46801e-05
0.00219178
0.0060818
2.28521e-05
-0.000102035
7.91826e-05
0.0603488
0.0199806
-2.39938e-06
-2.26258e-05
2.50287e-05
1.33891e-06
-1.92876e-06
0.0030465
-0.000553933
-0.00249257
-0.00944419
0.00779835
0.00164579
2.58164e-05
0.0402477
-0.0300698
-0.00364898
0.00010287
-0.000432356
0.00165718
0.00223203
-0.0240626
0.0182552
0.0058074
-0.00771087
-0.0163517
0.000247603
0.00122358
-0.00147116
1.53406e-05
3.46831e-06
-1.88083e-05
1.04882e-05
-1.2085e-05
1.59732e-06
-0.00143059
0.000173083
0.000159497
-0.000170544
0.0196748
-0.00911821
-8.17067e-05
0.0001834
-0.000101691
0.000154034
-0.000215683
-3.89119e-05
-0.000183913
0.000222825
-6.84116e-06
8.79823e-07
7.44428e-07
-1.12531e-05
0.00365792
-5.44324e-05
0.000188212
-0.000133776
-0.00568068
0.0183791
0.0021873
-0.00109811
0.00289912
0.00014738
-9.60033e-05
0.000118857
2.56084e-06
-2.92261e-06
3.62402e-07
0.00179284
0.00546117
-6.28095e-06
3.79702e-06
2.48627e-06
3.93464e-05
0.000336478
-0.000691954
0.00093956
-1.97337e-05
5.2816e-06
1.44542e-05
-1.02437e-06
-1.0996e-05
1.7246e-05
7.79054e-06
9.30443e-07
-0.000440928
0.000592185
0.00372077
0.000952438
-0.00467323
0.000696213
-0.00153164
0.00083552
0.000272435
-0.000903168
0.000630731
-0.000188476
-0.0037771
0.00103009
0.00274697
0.0153644
0.00523057
8.55937e-05
4.32483e-05
-0.000128844
0.00688856
0.000979702
2.09598e-05
-1.54609e-05
-0.00895819
-0.0115299
-3.38324e-06
3.69878e-06
4.12445e-06
-1.51201e-05
4.81977e-07
-4.99569e-06
0.00432519
-0.000900444
-0.00342477
0.0505994
-0.0170421
-0.0335574
-0.000649938
-0.000487775
0.00113774
-0.000590343
-0.00318674
0.00164817
0.0444293
-0.0595767
-0.00682334
5.33585e-06
-0.00021256
0.000131761
1.93188e-05
-2.17202e-05
0.0209215
-0.00555708
-1.23712e-07
-1.03106e-06
1.15519e-06
-0.00975581
-0.00379484
0.0135504
0.0238961
0.00750843
-0.0314046
0.00134527
0.000316313
-0.00166159
0.000122356
-5.20146e-05
-7.03421e-05
0.000380823
-0.000535747
0.00109168
0.0063619
-0.00745357
-0.00804611
0.0319422
-0.000737309
-0.00664504
-3.64519e-06
6.98422e-06
-0.000158151
0.000112586
4.55662e-05
-0.000210769
-0.00444685
0.00523318
-5.00903e-06
5.14637e-06
-1.3481e-07
-4.55568e-05
2.33632e-05
2.21961e-05
2.7874e-05
0.000452912
0.000168977
-0.00189421
0.000974575
0.000919619
-0.0184504
-0.00846596
0.0269165
-3.21569e-06
9.20512e-07
-2.59585e-05
2.93751e-06
0.00105398
-0.00441747
0.00336353
-0.000522298
0.000490064
3.72519e-06
-7.69608e-06
-0.0340724
0.00793267
1.8677e-05
-3.33614e-06
-3.71478e-05
1.29225e-05
-1.56181e-05
2.69595e-06
0.00226929
-0.00124319
-0.00102611
2.42155e-06
-6.64255e-05
6.39868e-05
-8.36821e-07
4.44638e-05
0.000336363
-0.000610195
-0.000824692
1.08475e-05
-3.16822e-05
0.000190786
-3.99281e-05
-0.00015086
4.12444e-06
-1.51322e-05
-0.000747771
0.00172233
-0.000974618
0.0114309
0.00460497
-0.0160359
1.07054e-05
-1.07048e-05
1.87199e-05
1.72807e-05
-3.60005e-05
-9.70579e-06
3.15271e-06
7.38516e-06
-0.0640662
-1.99755e-05
0.0640861
-4.33664e-06
3.89559e-05
-3.46166e-05
0.00853721
-1.02105e-05
2.24664e-05
-2.50406e-05
-1.72209e-06
4.28373e-06
-0.00183586
-0.00516239
0.00699792
3.35207e-05
8.88368e-05
2.57448e-05
-9.65598e-07
-2.47809e-05
-0.00245177
0.00170398
9.16653e-05
-6.07248e-06
0.0374124
-0.0471853
-0.00816908
0.00847612
-3.06444e-05
4.68451e-06
0.0591261
-0.0440812
-3.20146e-06
-1.94249e-05
-0.00102223
0.000622279
0.000399932
-5.0499e-06
-1.64126e-05
2.14648e-05
0.00113797
-0.00463176
0.00349389
5.27986e-06
-2.04415e-06
-3.23539e-06
-0.00300014
-0.000242718
0.00424639
-0.00822422
0.00397786
-6.36156e-07
-1.7907e-06
-0.00202294
-0.000428852
-0.00180506
-0.00187125
0.0036766
9.93394e-05
0.000700906
0.0430804
0.018094
-0.0611743
-1.70819e-05
-6.31406e-07
0.0428524
-0.00793586
-0.0349163
-2.43432e-05
1.62783e-06
-5.80786e-06
1.22167e-05
-6.40751e-06
-8.08286e-06
-6.29339e-06
1.43774e-05
-1.65522e-05
3.50796e-06
1.3044e-05
-0.0002061
0.000151674
-0.000201872
-0.000114449
0.000316327
-0.000138014
-0.000131805
0.000269812
-0.000694673
0.000920022
-0.000225328
-0.00543277
3.62372e-06
5.1312e-06
0.00157449
0.00227029
-0.00384486
0.012714
0.0378854
3.57809e-05
-5.13269e-05
-5.29927e-05
0.000106429
0.0124566
0.0249558
-0.00539682
0.000661242
0.000190532
-0.000233394
-1.70859e-05
1.00721e-06
1.60808e-05
-0.00513263
0.00627055
-0.00762046
-0.00104004
0.0100582
-0.000415805
0.000761378
-0.00278433
-0.00503755
0.0665609
0.00787466
-0.00678298
-0.0525899
0.0212117
-0.0175439
0.00581075
-0.01308
-0.000550736
0.0136306
9.5267e-05
-2.80105e-05
-0.00986089
-0.0032192
-0.000146762
-5.81946e-05
0.000204955
6.40322e-07
4.63928e-06
0.00314504
0.000128614
2.31739e-05
6.81384e-05
-9.13145e-05
5.41192e-05
-5.39707e-05
2.08146e-05
3.34734e-06
-2.41621e-05
-1.00113e-05
1.90171e-05
1.14081e-05
1.20324e-05
-2.34414e-05
0.00070937
-0.000845288
0.00178707
0.000607629
-0.0023947
0.0373413
-0.0431046
0.0101256
-0.0285759
-8.55258e-06
1.32842e-05
-4.73005e-06
-0.00233435
0.00338847
0.000175333
-8.61345e-05
-8.91879e-05
-0.0179472
0.00145722
0.01649
0.016464
-0.00375004
6.72559e-05
-8.19109e-06
7.0045e-06
1.18415e-06
1.94643e-05
0.00350499
0.00549751
-0.00900248
0.00346573
-0.00189122
-2.46012e-05
-1.35517e-05
1.58934e-05
0.000108329
-0.000124218
0.00013556
-0.000124324
-1.1233e-05
-9.03047e-06
9.15089e-06
-0.00516177
0.00426811
0.00089367
0.00810433
0.00557034
-0.0136748
-0.00715171
0.00501317
1.7961e-05
-0.000522807
0.000504855
-3.26086e-05
-0.00017349
-4.5633e-05
-0.000152925
0.000198562
2.12442e-05
-1.45271e-05
-5.20557e-06
0.0115722
0.00725672
-0.018829
0.000191481
5.59526e-05
0.0001121
-0.000168055
4.8569e-05
-0.000130277
-0.0102245
0.00907424
6.4417e-06
9.1906e-06
1.52482e-05
-2.4436e-05
-0.0103066
-1.29243e-06
-7.73837e-06
1.41513e-06
5.27068e-05
-1.44416e-05
6.23292e-06
-4.3437e-06
-1.37956e-05
1.81404e-05
-0.000220425
7.36624e-05
-4.62981e-05
-0.00246785
0.0018775
-1.08576e-05
9.56487e-06
0.00846273
0.0317845
-0.0326466
0.0292109
1.16425e-05
7.80582e-06
-1.9447e-05
-1.55351e-06
4.08576e-06
-2.53147e-06
6.94246e-05
-3.49176e-05
1.28464e-05
0.00496607
-0.0144103
-0.00403721
-0.00466643
-0.0148665
0.0108758
-0.011916
-0.0075206
0.0503729
-0.00014303
-4.0557e-06
0.000147085
7.54613e-05
-5.229e-05
0.000127028
-6.74176e-05
0.000576712
-0.00118679
-0.000102231
0.000185398
-1.74124e-06
-6.45024e-06
0.000449502
0.000467382
-0.000349666
-0.000117702
0.000576484
0.00109965
-0.00167614
-0.049624
0.0116781
0.000144647
-0.000128751
-0.000129265
0.000104923
2.43429e-05
-1.55307e-05
-2.96254e-06
1.84935e-05
0.000519207
-0.000597981
7.87713e-05
-0.000264836
-0.000229456
0.000494285
0.0540881
-0.0110077
0.000265915
0.000137878
-0.000403805
-2.51084e-06
2.49771e-05
-0.000247747
0.00197563
-1.01023e-06
-3.9975e-06
3.58824e-05
-7.98975e-05
4.40031e-05
0.000488993
-0.00113892
2.22655e-05
-3.88944e-06
-6.35679e-06
2.56775e-05
0.000419402
0.000729046
3.06808e-05
-2.75999e-05
-3.07796e-06
0.000855176
0.00191898
0.0024062
0.000658481
0.000240754
0.00045722
0.000289871
-0.000747101
-8.61759e-05
0.000142131
1.15306e-06
-1.66838e-05
-0.00857246
-0.00676095
0.0153331
-0.00130746
0.00322604
0.00764966
4.22173e-06
2.41982e-06
-8.38182e-06
3.57661e-06
4.8057e-06
-2.08858e-05
-0.000162943
-0.000135784
1.09119e-05
0.000124881
0.00327751
-0.00161998
-0.000207604
0.000123936
8.36732e-05
-0.00839153
0.000786046
0.00760539
-0.0319657
-0.00210678
-3.27809e-06
-3.00183e-06
0.000158651
-8.57813e-05
9.72357e-05
1.53168e-05
-1.79227e-05
2.60713e-06
-5.56206e-06
3.51769e-06
1.38558e-05
-1.81989e-05
-0.000763494
9.44503e-05
0.000669043
0.00129651
-0.0010241
0.000589449
0.00167985
-2.80955e-06
-8.04793e-06
-0.0107861
0.00579603
0.00498997
-0.00390181
-0.00616862
-0.0046175
-7.99397e-06
-1.49851e-05
2.29812e-05
-5.80839e-06
4.61194e-06
1.19643e-06
6.10451e-06
-1.70192e-06
-4.40213e-06
0.00229137
-0.000766805
0.0135748
-0.00289773
-0.0106772
0.000178389
-9.65082e-06
-0.000168737
-4.70505e-05
2.18567e-05
-0.000107638
-2.40454e-06
-5.17712e-07
-3.62018e-06
-9.11412e-06
1.27356e-05
-7.90007e-06
1.65744e-05
-8.67223e-06
-0.000168068
0.000246412
-7.83378e-05
0.0109604
0.000749079
-0.0117094
3.52713e-06
2.71569e-05
-1.27115e-05
9.90182e-06
-1.59023e-05
-6.50213e-07
-1.77825e-05
9.88405e-06
0.0124092
-0.00623487
-0.00617437
-0.00238059
0.00261514
-0.000234612
6.37382e-05
-0.0040994
0.00276131
0.00133808
-0.0339453
0.0260094
1.81738e-05
-2.45293e-05
-0.000365653
0.000227635
0.00706104
-0.000202119
0.0139759
-0.0286531
2.9683e-05
6.45703e-06
-0.000430941
2.19553e-06
0.000176193
-0.000568276
0.0114889
-2.77774e-07
0.0314546
1.12186e-06
-1.24537e-06
0.000114954
-8.58089e-05
-0.000143717
9.17085e-05
-4.09922e-05
1.17834e-05
2.92106e-05
-4.479e-05
9.11984e-05
-4.64076e-05
-0.00503427
-0.00519021
-1.13453e-05
5.53837e-06
1.06687e-05
0.00978346
0.0181676
-0.0177099
0.0247765
-0.00706654
0.000407222
-0.000141316
-0.00296157
0.00270735
0.00376543
0.0144897
-6.10164e-06
1.32675e-05
-2.12609e-05
-0.00526751
0.00343128
0.000107173
2.83868e-05
-0.00349548
0.00391248
-7.81297e-05
-0.000129469
1.22692e-05
-8.77694e-06
-3.48473e-06
-1.49592e-06
-8.19917e-06
9.69478e-06
-2.74304e-06
0.0555393
-0.0630599
-0.000183154
3.72089e-05
0.00014595
0.000173259
-0.000207742
3.4469e-05
-4.81372e-05
2.24057e-05
2.57316e-05
0.0011086
0.0103223
3.27784e-05
3.29231e-05
-6.57004e-05
3.04845e-06
3.05586e-06
-0.00156501
-0.00173993
0.00330499
-0.0207997
0.0225643
0.000317537
0.000177018
-0.000494555
3.22263e-06
3.04673e-05
-2.69401e-05
-4.87259e-05
-7.8911e-07
4.95129e-05
-0.000909629
-0.000499927
0.00140965
0.000113881
-8.34821e-05
-0.00029602
3.11836e-05
-0.000193806
0.000162732
3.10761e-05
-2.94184e-05
-0.0159241
0.00696597
-0.000592536
0.0035942
-0.00300162
0.00213797
-0.000792704
-2.18176e-05
-4.71245e-06
2.65316e-05
0.000690244
-0.00214647
0.000260289
0.0018862
0.000665081
-5.18421e-05
-0.000613241
-6.00016e-06
-0.00013806
-2.08487e-06
-6.29643e-06
-1.92524e-05
-7.78279e-05
8.02257e-05
-1.50385e-05
1.61914e-05
0.00328067
-0.00484558
0.000177106
-0.000261788
8.46724e-05
0.000470872
-0.00202042
-0.000447428
-0.0101503
0.00905802
-1.52857e-05
-0.0214221
1.08073e-05
-1.61844e-07
-1.06442e-05
-0.00092289
-2.8395e-06
-2.72311e-06
8.21828e-06
-2.5935e-05
1.77177e-05
-1.93714e-05
6.06337e-06
1.33071e-05
0.000240472
-0.000161355
-1.94698e-05
-4.44367e-06
3.19105e-06
1.25328e-06
-0.0440058
0.032735
0.0112708
-1.96036e-05
5.07805e-06
-6.93454e-05
2.06167e-05
-8.44964e-07
2.36291e-08
8.22396e-07
0.000359819
-0.000249461
-0.000110367
0.000154905
-0.00017568
2.07606e-05
0.00676672
0.00564234
-0.044555
0.00287504
0.0416799
2.26191e-06
8.95101e-06
-1.12118e-05
-0.0131025
-0.0107398
-0.000914233
-0.00318529
-3.6225e-05
0.000129437
0.000242035
-0.000371473
3.03635e-05
8.45902e-05
-2.10311e-06
1.50258e-05
-0.00484977
0.00477325
7.65113e-05
-0.00109751
-0.000970638
-0.0165332
0.00343079
7.08749e-05
4.08054e-05
-0.000111684
-1.21723e-05
-8.24805e-06
0.00841784
-0.000941302
-0.00179118
0.00273248
-0.00400741
0.00028669
0.0037207
9.4464e-05
0.000216488
-0.00354011
-0.00130966
-1.39395e-05
-3.14466e-06
0.000413253
-5.34432e-05
-0.00014879
9.87086e-05
-0.0267117
-0.0536164
0.080328
0.000817045
0.000260198
-0.0235512
1.08125e-06
2.9391e-05
-0.000205185
-0.000288472
9.2707e-05
0.000195752
2.73853e-06
0.000173711
-4.43964e-07
-0.00697621
-0.00446015
0.0114361
0.000455247
-0.00114991
-3.95718e-06
-1.56461e-05
0.00542931
-0.00616261
0.000734156
0.00310826
-0.0116808
0.00308444
-0.0082863
0.00520158
-0.0212928
0.00358332
-0.000666499
0.00088872
-0.000222167
0.0230482
-0.0223519
-0.000696236
0.000784733
-0.000612816
-0.000171908
-1.71415e-05
-0.000748032
-0.000682572
-0.00482931
0.00542245
-0.00126309
-1.99262e-05
-1.97378e-05
3.96637e-05
5.80777e-06
-6.08831e-06
2.80751e-07
-0.000314244
0.000147657
-0.0120773
0.0117749
0.000302366
1.94603e-06
3.28188e-06
-5.22779e-06
-0.000794726
-0.00165616
0.00245075
3.52126e-06
8.75112e-06
2.49678e-05
-2.92029e-05
4.23505e-06
-0.00113674
4.89337e-05
-7.60195e-05
2.70885e-05
0.0172672
-0.0135017
1.61885e-05
-8.70775e-07
-1.29432e-05
3.1165e-06
0.00065006
-0.00155972
-0.000277079
0.00010901
-4.98991e-05
0.000161999
-0.00058472
-3.52805e-05
0.000619997
0.00440566
-0.00564694
-0.00296403
-0.00418772
0.00694434
0.00663036
0.000283572
-3.40451e-05
8.53711e-06
0.000169621
-2.22711e-05
1.48595e-05
-1.99085e-05
-0.0400549
0.00433401
-0.000144484
5.66375e-05
8.78503e-05
0.000101371
8.6843e-05
-0.000111515
0.00301063
0.000118785
-0.00129868
-0.0035468
-0.00394711
0.00703147
0.000130911
4.44199e-05
-1.71575e-06
2.32748e-05
-2.15609e-05
0.00011872
-0.000114803
-3.91431e-06
1.94351e-05
-7.79195e-06
-0.000140762
1.35775e-05
-5.83677e-05
0.0116105
-0.0192513
0.00764052
1.7234e-05
-1.7231e-05
0.000159218
1.57942e-05
-0.000175011
-2.47752e-06
4.42369e-06
-4.34144e-05
0.000198321
-1.8139e-05
2.73287e-05
-9.1878e-06
-0.00324154
-0.00163621
0.0048778
-9.44609e-05
2.37697e-05
9.49492e-05
0.00272038
0.000206118
-0.000110741
-9.53715e-05
-0.00271987
0.00147664
-6.1518e-06
9.30519e-06
-0.00025598
-0.0811706
-0.00661676
0.0105953
-0.00397869
-6.4423e-05
6.17308e-05
2.69809e-06
2.79791e-05
2.09597e-05
-2.52143e-05
-2.7389e-05
0.022829
0.036297
-4.12971e-05
1.86197e-05
2.26789e-05
0.000187068
2.25183e-05
0.00689124
-8.60551e-05
1.67069e-05
0.0242052
-0.001157
-0.0029808
0.00286928
1.72871e-06
1.61378e-05
-1.78681e-05
0.000555879
-0.000238351
2.48721e-06
1.47487e-05
0.0265829
0.0147321
3.55516e-05
0.000118293
-0.000153844
1.85768e-05
-1.78632e-05
-7.12156e-07
3.77454e-05
-9.79311e-08
-3.76443e-05
-0.00332861
0.0155412
-0.0481878
-0.00369425
-0.00836327
0.0120578
-9.21373e-07
3.43227e-05
-3.3398e-05
3.37857e-06
-2.98035e-06
0.0478039
-0.0261831
-0.0216194
3.0195e-05
-0.000150543
0.000126426
-0.000649238
-3.94876e-08
7.09099e-05
0.000370837
-0.000352145
-1.8694e-05
0.0455972
-0.0227682
0.00542312
0.000506078
-0.00592906
-0.000274593
-1.38885e-05
-8.20187e-07
-3.62308e-06
0.00073418
5.05506e-05
-1.02256e-05
7.07056e-06
3.15611e-06
1.34757e-05
-1.02104e-05
-0.0065372
0.0119554
1.92259e-08
-2.42299e-06
0.008277
-0.00840663
0.000129441
0.0389238
-0.0180023
2.84252e-05
-3.4579e-06
-0.000512254
2.19062e-05
-5.81916e-05
0.000131682
-8.95148e-05
-4.21666e-05
-0.00450069
0.0026957
-3.00235e-05
-0.000128125
0.00080722
-0.00778361
5.83103e-06
-2.39683e-05
0.000156591
-4.40021e-05
-1.15677e-05
2.7705e-05
-9.89546e-06
-3.29976e-07
1.12238e-05
2.29055e-05
-3.41273e-05
2.87105e-05
-2.84134e-07
-0.000109068
-1.58332e-05
0.000124902
-2.53035e-05
2.43404e-05
-0.000190217
0.000192414
2.34312e-05
-2.51461e-05
8.40518e-05
-0.0142481
1.99996e-05
0.000789468
-0.000809681
7.87086e-06
1.06328e-05
0.0149018
-0.0033296
-0.00427838
0.000270993
-0.000254613
0.000631689
-0.000377078
-6.03132e-05
0.000237407
1.82573e-05
0.000203097
-0.000221349
4.62294e-05
-9.86196e-05
1.87137e-05
-0.00261828
-0.000154512
0.0255862
0.00234134
0.0161953
-0.0185368
-0.00180071
-0.00199332
0.00379394
-0.000125804
0.000348864
-0.000223114
-0.0178883
7.35176e-06
-3.13556e-06
0.000153953
5.21694e-05
2.02453e-05
-0.00815436
-7.424e-06
9.68654e-06
-0.0191441
0.0190555
8.88068e-05
2.45303e-05
-1.12623e-05
3.59264e-06
0.0134851
0.00618973
0.000487626
-0.000121294
-0.00036633
0.00143503
-0.00254095
1.54398e-05
9.58872e-06
-0.00413167
1.09126e-05
-9.61667e-06
-3.32559e-06
-0.000126963
0.000187194
-6.02321e-05
3.15438e-05
-1.85844e-06
-9.61634e-05
9.01654e-05
-1.47415e-05
-3.12025e-06
-0.000274249
-2.83552e-06
4.97185e-05
0.00537342
-0.00349024
0.00124635
0.00224401
0.0142671
0.0105093
2.01419e-05
-8.00436e-07
1.16084e-05
0.00139978
-0.000593092
2.32635e-05
-1.18567e-05
-1.59184e-05
-0.000231483
-2.27813e-05
0.000254238
-2.68155e-05
4.74714e-06
2.20715e-05
1.39593e-06
-1.35303e-05
1.21355e-05
-3.68522e-05
-1.12821e-05
9.60747e-07
-2.81356e-06
-1.24078e-05
-0.00968662
0.0206471
0.00162541
0.000813142
0.00137417
1.88619e-05
0.000189731
-0.000208591
1.96101e-05
-1.04181e-05
-0.00904556
-0.0153832
0.0244288
-9.66922e-05
-3.2573e-05
4.47635e-06
-0.0136014
-0.000387678
0.0139891
-0.0113106
0.0153709
-0.00406019
-0.0386304
-0.00391965
0.0425501
-1.95896e-05
-5.88963e-06
-0.040567
-0.0171897
-0.0478217
0.0633629
-0.00177035
0.00703947
-0.00526909
1.73529e-06
3.37119e-06
-5.10598e-06
0.000452421
-0.00199869
-9.99861e-05
-0.00016179
-2.32507e-05
5.60313e-05
-0.000285268
0.000158303
-1.58122e-06
-5.77378e-06
7.36562e-06
-0.0182135
0.00765016
0.0105632
0.0124799
-0.00937172
0.00233247
-1.34986e-05
-2.74915e-05
1.31236e-05
1.43814e-05
-2.75037e-05
0.0244335
0.0279946
-1.81514e-05
-2.31434e-05
-0.0100298
0.025181
0.0204162
0.0338817
-0.0358175
0.00193439
-0.000765738
-0.000745847
0.00151164
0.0560825
0.0156335
-0.071716
5.08815e-06
7.19659e-07
3.55127e-06
2.18921e-05
-2.54415e-05
0.00391454
-0.00609249
0.00217785
-0.000601915
0.00232421
-5.49663e-05
5.25884e-05
2.38405e-06
-0.00383408
-0.000371378
0.000245575
-2.30989e-05
-3.71632e-06
0.000206525
0.00016431
0.0318969
-0.0275537
-0.00434317
-1.24734e-05
1.38699e-05
-0.00101481
-0.000516777
0.000722062
-0.000649598
-7.24653e-05
0.0260318
0.000550997
-0.000326032
0.000790584
-0.000464535
8.25485e-06
-9.75099e-06
-7.92395e-06
2.02763e-05
-1.23514e-05
1.0182e-05
3.55321e-05
-4.57122e-05
-0.0399283
0.0503934
-0.0104652
-0.0325385
0.0138434
0.018695
5.91405e-06
-4.17695e-06
-1.026e-05
1.02604e-05
-3.38005e-05
2.03033e-05
-0.000254888
-7.57116e-05
2.67133e-06
-3.8877e-07
-2.2828e-06
-1.16609e-05
-2.21378e-05
2.55231e-05
-3.05661e-05
0.000190258
-0.000131586
-5.86746e-05
-1.59151e-05
-0.000167239
-0.00083121
-0.00104876
-0.000845465
-1.88124e-06
-1.74902e-05
-9.86133e-05
-4.58707e-05
-0.00364387
0.0034007
0.000243128
-4.00398e-05
2.52815e-05
-0.00288492
0.00623361
-0.000985395
-0.00524831
-0.000179132
0.000196065
-1.69636e-05
2.07179e-06
9.96381e-06
-1.2036e-05
-4.52648e-05
-0.000143424
2.37976e-05
-2.98293e-06
2.98342e-06
1.2468e-06
-2.83619e-05
3.85379e-05
0.00027361
-9.58182e-05
-0.000177781
-0.00011232
-4.52496e-05
-0.0731097
0.0560677
-5.54754e-05
-0.0148155
-1.48177e-05
-1.07864e-05
2.56071e-05
4.62323e-07
2.08063e-06
-1.61248e-05
2.92305e-06
1.32014e-05
0.0132851
-0.0223306
-0.018008
0.0222986
-0.00429079
4.34895e-06
-6.20459e-06
0.000155385
3.48721e-05
0.00473141
-0.00101067
0.000122184