/*--------------------------------*- C++ -*----------------------------------*\
| =========                 |                                                 |
| \\      /  F ield         | OpenFOAM: The Open Source CFD Toolbox           |
|  \\    /   O peration     | Version:  v2012                                 |
|   \\  /    A nd           | Website:  www.openfoam.com                      |
|    \\/     M anipulation  |                                                 |
\*---------------------------------------------------------------------------*/
FoamFile
{
    version     2.0;
    format      ascii;
    class       volScalarField;
    location    "250";
    object      epsilon_0;
}
// * * * * * * * * * * * * * * * * * * * * * * * * * * * * * * * * * * * * * //

dimensions      [0 2 -3 0 0 0 0];


internalField   nonuniform List<scalar> 
13851
(
1.13917e-06
0.0013106
2.33794e-06
1.12056e-06
2.42575e-06
9.83405e-07
1.60743e-06
1.74008e-06
7.64788e-07
2.65503e-06
0.000135143
0.00738468
0.00294204
0.0186844
1.51222e-06
1.51484e-06
1.5021e-06
1.3008e-06
0.00114327
7.6992e-07
1.12568e-06
2.2846e-06
5.63012e-07
7.87125e-07
5.85152e-07
1.73989e-06
1.59001e-06
0.00659015
1.14709e-06
1.32598e-06
3.38218e-06
1.49991e-06
2.24494e-06
0.000190515
7.93461e-07
7.00143e-06
0.0008244
5.73213e-05
3.04464e-06
0.000174739
1.12307e-06
4.46896e-07
0.00350233
0.000147602
0.00013181
0.0136468
0.000106606
0.000403971
1.59327e-06
1.71876e-05
2.30272e-06
4.72534e-06
0.00696998
1.4754e-06
1.14267e-06
4.44988e-07
6.45651e-07
0.00568878
1.31975e-06
1.55811e-06
3.23335e-05
0.00728456
1.51793e-06
2.78151e-06
1.26622e-05
1.14049e-06
0.00153646
9.44152e-05
1.6912e-06
1.29392e-06
0.00838954
0.00312338
0.00140825
1.49297e-06
1.08469e-06
7.76519e-07
2.20832e-06
0.00567939
1.80564e-06
0.00801674
1.52289e-06
7.48101e-05
1.38391e-06
0.0118684
1.528e-06
0.00748523
1.10561e-06
0.00486443
1.55388e-06
5.89593e-07
7.04931e-06
1.03868e-06
9.67859e-05
1.58292e-06
1.55922e-06
7.04722e-07
2.46714e-06
0.00417642
4.02011e-05
7.1685e-07
0.0125347
1.87459e-06
1.19258e-06
1.66398e-06
4.98074e-07
8.34495e-07
1.9659e-06
4.31982e-07
0.00500865
1.69152e-06
7.65744e-07
5.91062e-07
1.00254e-06
1.08739e-06
7.66794e-07
0.000550163
0.00425224
4.44215e-07
9.60367e-07
1.14381e-06
0.00353462
1.65079e-06
0.00318727
0.000287614
0.00040637
5.1538e-07
0.000285773
1.83991e-06
1.11366e-06
4.76532e-06
1.12864e-06
8.60154e-07
0.00724475
1.39638e-06
0.000592383
8.6899e-07
4.46805e-07
0.0028959
0.00782355
0.00990772
0.0132701
1.11907e-06
8.12037e-07
4.72159e-07
1.43508e-06
0.000143337
8.81747e-07
4.74887e-06
1.60157e-06
0.000118391
2.44281e-06
1.09826e-06
0.0172213
6.38523e-07
1.52013e-06
1.427e-06
9.42696e-07
1.3344e-06
4.69309e-06
2.28641e-06
4.15432e-07
1.63038e-06
0.0056098
8.5281e-07
1.38565e-06
4.64122e-07
1.19122e-06
1.70179e-06
1.11237e-06
0.0067377
0.00650273
6.84269e-07
9.5141e-07
0.00989002
8.51169e-07
0.000476471
1.81694e-06
8.38614e-07
0.00136487
4.28822e-07
1.5074e-06
0.00348522
1.41098e-06
2.42694e-06
4.15164e-07
5.96899e-07
1.15106e-06
1.09063e-06
2.68898e-06
2.52383e-06
0.000111979
0.00626458
5.91006e-07
1.67154e-06
0.00564521
1.50387e-06
8.12017e-07
0.000181199
8.29625e-07
7.82078e-07
5.17052e-07
0.0203055
1.19918e-06
1.25338e-06
2.06217e-06
1.4155e-06
0.00358094
1.52111e-06
0.00497913
4.20292e-07
0.00573554
1.19623e-06
0.000199164
4.22898e-07
4.65579e-07
0.000105051
1.57539e-06
0.0114358
1.46906e-06
0.00498339
1.51278e-06
1.52768e-06
0.0047627
4.43085e-06
0.00627399
6.10934e-07
1.60496e-06
5.22027e-07
0.00590431
4.2116e-07
1.72245e-06
4.2675e-06
6.82903e-07
5.89449e-07
2.14558e-06
1.46495e-06
0.00331412
4.85204e-05
4.69571e-07
1.26298e-06
1.8575e-06
8.07992e-05
4.1984e-07
2.20346e-06
4.4002e-07
0.00588303
1.8878e-06
0.000144502
1.41415e-06
1.45425e-06
9.23016e-07
7.05553e-05
1.41239e-06
1.42217e-06
1.93584e-06
0.00116383
2.44243e-06
0.0031845
0.01547
1.55202e-06
4.67931e-07
1.27483e-06
0.000303978
5.05906e-07
0.00224721
1.50144e-06
1.41861e-06
1.5814e-06
0.00469578
3.33093e-07
9.20634e-07
1.51435e-06
1.03514e-05
1.77069e-06
1.50064e-06
8.62569e-07
7.77909e-05
1.21973e-05
0.00699025
0.000127861
4.18132e-07
4.16353e-07
4.77117e-07
1.90149e-06
0.000547422
0.000476331
7.79322e-07
1.60878e-06
1.00252e-05
9.31093e-05
5.38098e-06
1.32324e-06
1.54475e-06
1.705e-06
7.81103e-05
0.00205362
1.39304e-06
0.00728706
8.69215e-07
0.00590661
1.62778e-06
1.49117e-06
0.00678741
1.22969e-06
9.24846e-07
0.00513946
7.81865e-07
1.80792e-06
1.58208e-06
1.31758e-06
0.00755606
1.39341e-06
1.39022e-06
0.00458647
4.53086e-07
1.45755e-06
5.23766e-07
0.00693756
3.96992e-06
1.46775e-06
1.91245e-06
1.51447e-06
0.00775868
9.59398e-07
5.57386e-07
9.43145e-07
3.88806e-06
1.59885e-06
1.53554e-06
1.61827e-06
1.24164e-06
1.3776e-06
0.000143188
0.00666959
0.00648574
1.28578e-06
0.00674465
0.00288034
1.49485e-06
1.67249e-06
5.30348e-06
1.20855e-06
1.62168e-06
3.76907e-06
0.00126595
9.50855e-07
0.000904271
0.00544535
1.51972e-06
4.67328e-06
3.99917e-06
0.000526499
1.53797e-06
1.67035e-06
0.00605322
9.5425e-07
0.000847671
9.40907e-07
1.53516e-06
4.35591e-07
4.30369e-07
9.42854e-07
0.00552213
0.000127649
1.28552e-06
1.78842e-06
4.5394e-07
0.00641253
1.54253e-06
0.000505797
0.00553683
1.27952e-06
1.6852e-06
1.56876e-06
0.000427854
1.10617e-06
4.48335e-07
9.57123e-07
0.00989261
1.08428e-06
0.0070555
1.13137e-06
4.13014e-06
0.0141202
1.40651e-05
1.63634e-05
8.92041e-07
9.02819e-07
1.53744e-06
1.27014e-06
1.90973e-06
0.0184962
1.71289e-06
0.00629317
0.00525196
4.56205e-07
1.55808e-06
0.00817181
0.00648183
3.30047e-06
0.00435388
9.61866e-07
1.57425e-06
6.6563e-07
0.00269313
7.17845e-07
1.51445e-06
8.80744e-07
1.55064e-06
4.95877e-07
7.75476e-07
4.61785e-07
2.72642e-06
1.57562e-06
0.00554933
1.28243e-06
1.96499e-06
1.16833e-06
4.6689e-05
1.45152e-06
0.000697374
1.48739e-06
0.000103815
4.43571e-07
7.7373e-07
6.08753e-07
0.000406117
8.83754e-05
4.15159e-06
1.16508e-06
0.00675918
0.000220903
1.15752e-06
1.12235e-06
2.17978e-06
1.10561e-06
2.77782e-05
4.86936e-07
0.00134104
0.000112995
2.12627e-06
0.00480824
8.29869e-07
1.62399e-05
0.00011825
0.00913625
4.16451e-07
1.59137e-06
1.82462e-06
6.77283e-07
7.12418e-07
1.36556e-06
2.3213e-06
4.09763e-06
1.32803e-06
0.00270573
6.11989e-07
9.48046e-07
0.00412628
1.38486e-06
4.14326e-07
0.00393561
8.97845e-07
1.13707e-06
7.44373e-07
1.49079e-06
1.31601e-06
4.19887e-07
8.21217e-07
0.0045317
1.38253e-06
1.72759e-06
8.7691e-07
1.07014e-06
6.97945e-05
1.1552e-06
1.06835e-06
9.86075e-07
9.81758e-07
0.000584325
1.43299e-06
9.89556e-07
1.41913e-06
6.49398e-07
0.0161915
0.00486743
1.43403e-06
1.07611e-06
1.45954e-06
0.000122599
0.0114288
9.54515e-07
0.000123248
1.11736e-06
2.40732e-06
1.53613e-06
0.00645657
4.41358e-07
0.00744808
2.37511e-06
4.49351e-07
1.06133e-06
0.00402913
1.72731e-06
8.94221e-05
9.596e-07
0.000401014
1.15589e-06
8.19362e-07
8.57309e-07
1.59253e-06
0.00583977
2.13505e-06
4.5454e-06
0.00113547
1.57049e-06
4.18423e-07
0.00365366
8.87395e-05
1.51573e-06
1.62857e-06
0.000121347
0.000270243
0.00562795
1.46654e-06
0.00684766
0.0146464
0.0172562
1.39492e-06
1.05205e-06
0.000178997
1.85762e-05
0.00101286
0.000174927
0.00215866
1.33102e-06
0.00230937
0.00348183
4.40865e-07
8.57872e-06
2.17375e-06
0.00520808
1.4097e-06
1.29047e-06
9.40205e-07
1.18188e-06
2.66186e-06
1.44489e-06
0.00465159
0.00266545
8.00271e-07
0.00378517
0.00450942
2.95935e-05
9.20934e-05
1.71671e-06
4.14924e-07
7.67576e-07
1.21076e-05
0.00385847
1.52588e-06
2.8009e-06
6.9457e-06
4.42553e-07
1.21371e-06
0.00010735
0.000114267
3.73908e-06
0.00570528
0.00355075
1.11745e-06
1.5615e-06
0.00271814
0.00516628
4.34568e-06
1.71487e-06
1.52651e-06
4.30847e-07
1.14982e-06
0.00160579
4.41206e-07
1.40137e-06
4.26535e-07
9.28241e-07
0.00367978
2.67758e-06
1.1469e-06
4.38981e-07
0.00728888
0.000181936
8.87163e-07
6.14144e-07
5.09703e-07
1.52933e-06
0.0104376
0.000162698
0.00019252
0.0154052
0.00040252
1.70064e-06
0.00622795
0.00494521
9.553e-07
1.69078e-06
4.13956e-07
5.21599e-07
1.55162e-06
0.00436089
0.000901015
2.78463e-06
1.5507e-06
7.60807e-07
1.49243e-06
7.84618e-07
9.31017e-05
2.28106e-06
1.41593e-06
1.3014e-06
7.16029e-07
1.59168e-06
4.42202e-06
1.55307e-06
1.09444e-06
1.55273e-06
1.45848e-06
2.43575e-06
0.00029672
4.09243e-06
1.48414e-06
4.62942e-06
7.59998e-07
2.28033e-06
9.40524e-07
0.0135092
1.20367e-06
6.95667e-07
0.0045731
1.26632e-06
0.0166181
0.00551537
0.00895569
0.0035477
7.21566e-07
0.00363127
4.194e-07
9.18167e-07
4.38326e-07
9.30509e-07
4.34454e-07
1.28196e-06
1.46901e-06
4.37707e-07
0.00264313
2.47122e-06
0.00277646
9.1178e-07
4.31464e-07
5.15489e-07
4.90838e-06
0.00468291
1.9745e-06
1.59169e-06
4.20703e-07
6.67283e-07
8.12018e-07
9.32363e-07
0.000255277
0.00582581
1.45758e-06
4.35559e-07
1.60471e-06
9.42089e-07
0.000514603
0.00582793
1.50334e-06
0.00403587
0.000335402
1.0938e-06
4.44e-06
0.00920832
1.70524e-06
0.0075089
1.51414e-06
1.28425e-06
1.95638e-06
1.27387e-06
0.000189595
1.42939e-06
0.000166681
4.74574e-07
1.73084e-06
0.00484399
7.56523e-07
1.23936e-06
1.16554e-06
8.2071e-07
1.50058e-06
5.16692e-05
0.0154348
2.2443e-06
0.00183232
1.9003e-05
4.25851e-07
9.088e-07
0.0153281
6.52392e-06
1.50502e-06
0.005531
6.98705e-07
1.77168e-06
4.44298e-07
0.000388132
0.00168033
1.38098e-06
1.1244e-06
6.81889e-05
1.56588e-06
5.12153e-07
0.00471393
0.00176827
0.00439872
4.50344e-07
1.46431e-06
0.00586575
0.00674829
5.80198e-06
7.84376e-07
0.00500505
1.40672e-06
8.84152e-05
4.49757e-06
2.23023e-06
1.45094e-06
0.00974701
9.00875e-07
7.63853e-07
0.000632306
7.1381e-07
1.33474e-06
1.32019e-06
7.53069e-07
0.00508057
1.54234e-06
3.76966e-06
1.14864e-06
2.20786e-05
7.67945e-07
6.34941e-05
8.76602e-07
9.00791e-07
4.39732e-07
1.08242e-06
1.01441e-06
0.00505814
9.45176e-07
4.54898e-07
0.000106801
1.56554e-06
0.00497531
5.26161e-07
8.02383e-07
2.26602e-06
0.00087056
0.000135317
7.7697e-07
8.63403e-07
0.00404765
1.42665e-06
0.00520133
1.72504e-06
7.45929e-07
6.28269e-07
0.003763
1.97297e-06
1.43319e-06
8.04804e-07
4.34467e-07
8.45454e-05
2.46395e-06
1.72651e-06
1.38758e-06
5.01804e-07
1.47255e-06
7.93765e-07
2.78887e-06
0.000148384
2.63775e-06
0.000818425
1.46214e-06
2.43159e-06
2.61327e-06
0.00694024
1.37121e-06
0.00474239
0.000829866
1.57817e-06
0.0212693
2.13764e-06
0.00385763
0.0178029
0.00457557
5.36673e-05
1.61022e-06
7.52142e-07
1.2587e-06
0.00602098
0.0159686
9.08873e-07
6.38839e-07
2.18536e-06
4.31317e-05
4.5815e-07
0.00665051
6.96382e-07
1.31998e-06
0.00460663
0.00576376
2.37725e-05
9.0779e-07
1.55289e-06
0.00633931
0.00019335
3.92011e-06
9.565e-07
0.00447735
0.000132948
0.0035184
1.95576e-06
1.77577e-06
1.37605e-06
1.54402e-06
0.00151867
1.94127e-06
0.00704489
9.65891e-07
1.70195e-06
0.00681221
0.00400386
0.00462375
1.46696e-06
1.69197e-06
8.80627e-07
1.49572e-06
1.23179e-06
0.00721404
1.75822e-06
0.00577542
4.5957e-07
2.23373e-06
1.12931e-06
4.51771e-06
1.7059e-06
1.68175e-06
0.00407504
1.82378e-06
1.51007e-06
7.94876e-07
2.21901e-06
0.0004068
1.67837e-06
1.3884e-06
0.00658959
5.04767e-07
0.0186857
0.000138275
1.34775e-06
0.00583976
0.0104284
0.00480493
3.37685e-05
9.66291e-07
9.32942e-07
0.00432465
1.65145e-06
0.000365456
0.00506726
9.23302e-07
1.60625e-06
0.000385918
0.000177191
0.00551045
1.4055e-06
6.36528e-07
0.00245474
0.00490183
3.72535e-06
1.42915e-06
9.54154e-07
0.000115883
0.00610639
2.67986e-06
4.56202e-07
1.62428e-06
8.31912e-07
1.02509e-06
6.37096e-06
6.83305e-07
0.00156104
1.46036e-05
1.31388e-06
8.21144e-07
9.27961e-07
1.32994e-06
0.00667724
0.0040884
1.59215e-06
0.00458534
1.13373e-06
1.58074e-06
9.26524e-07
8.3914e-07
1.26977e-06
1.30281e-06
0.0053183
1.42538e-06
1.95156e-06
1.45818e-06
1.44418e-06
9.96777e-06
0.00545846
9.47595e-07
0.00279688
1.78217e-06
0.00121302
1.55561e-06
1.58973e-06
0.00865531
1.6009e-06
1.44389e-06
0.0072278
9.62044e-05
0.00614907
1.68006e-06
0.00012604
1.19777e-06
1.79767e-06
1.89683e-06
0.00525319
7.8115e-07
0.00663092
9.02115e-07
9.1836e-07
0.0192156
5.19097e-07
0.00215139
1.45317e-06
8.64337e-07
1.19605e-06
8.76242e-07
1.56375e-06
4.22559e-07
1.50843e-06
0.000146699
9.30542e-07
0.000161459
0.00550556
1.89337e-06
0.0129349
1.54106e-06
8.76324e-07
5.32143e-07
1.17631e-06
8.69093e-07
2.5143e-06
1.62287e-06
8.04345e-07
1.13327e-06
5.71636e-07
0.00478621
0.00533083
1.46986e-06
0.00435566
0.000310703
1.13611e-06
0.000436235
1.55232e-06
9.35507e-07
9.61737e-05
8.80223e-06
0.000121334
1.09427e-06
0.000125809
0.000177313
0.00708239
7.03e-07
0.00299492
1.53397e-06
1.56316e-06
4.24829e-07
7.07733e-07
0.00303803
2.11369e-06
0.000510572
7.54774e-07
1.35734e-06
0.000173976
1.35864e-06
0.00077615
0.000104483
0.00145733
0.00136754
0.000135271
6.22958e-07
1.23596e-06
1.66584e-06
1.07656e-06
1.6391e-06
4.55858e-06
1.70114e-06
1.6257e-06
9.45237e-07
0.0048983
7.99484e-07
0.00439886
0.0021156
0.000324902
3.83883e-05
1.60899e-06
5.00171e-07
1.11386e-06
9.16795e-05
9.12533e-05
7.00958e-07
1.24687e-06
7.49144e-07
2.44475e-06
4.70232e-07
7.47232e-07
1.51633e-06
1.65006e-06
0.00130386
1.46218e-06
1.31262e-06
1.02493e-06
1.98048e-06
0.00264989
1.64317e-06
0.0233344
0.0019832
2.55376e-06
4.8269e-07
1.82763e-06
1.27697e-06
5.46096e-07
1.11076e-06
0.00553171
3.96887e-06
9.38739e-05
1.65109e-06
8.97415e-05
1.33484e-06
5.25225e-07
1.20491e-06
0.000473598
0.000208831
4.15636e-07
1.64196e-06
1.6137e-06
0.00524701
9.99663e-07
0.0015002
4.43521e-07
0.00408875
2.30235e-06
0.00504269
2.84111e-06
2.50901e-06
0.000337046
0.00453939
0.000116063
0.0210183
6.20983e-07
1.16947e-05
4.67689e-07
1.39724e-06
1.64195e-06
1.40574e-06
0.00466646
1.52176e-06
1.56881e-06
7.14544e-05
7.8007e-06
0.000567153
1.49059e-06
1.56262e-06
1.38676e-06
5.04721e-07
1.25992e-06
0.00205534
0.000288241
0.00204739
1.04879e-06
1.60367e-06
9.59958e-07
0.000156225
0.00438409
1.66427e-06
4.97534e-07
1.62734e-06
0.00720372
1.70982e-06
0.00222344
0.00364156
1.23222e-07
4.79964e-07
0.00277759
1.24862e-06
1.75852e-06
1.58695e-06
0.0054595
8.74266e-05
4.00433e-06
2.49118e-06
1.20537e-06
1.06406e-06
1.3381e-06
0.00558251
1.52361e-06
0.00464426
4.7942e-05
1.63197e-06
5.50415e-06
1.47637e-06
0.00547301
0.000272288
5.00025e-07
0.00217006
0.00485776
0.0027191
0.00450261
1.24063e-06
1.23926e-06
0.00630992
0.00278491
0.00611318
1.30946e-06
1.58309e-06
1.29635e-06
0.00476507
5.24924e-06
1.49901e-06
5.08678e-05
2.59703e-06
0.00304269
0.00261146
0.000462358
1.52121e-06
0.00462721
1.56704e-06
1.06101e-06
5.27747e-06
0.00584807
1.59449e-06
8.90818e-07
0.00556641
0.00520647
5.10756e-07
1.03411e-06
0.00666327
4.90045e-07
1.2107e-05
1.05828e-06
0.000232048
1.22317e-06
1.9607e-06
0.00199888
0.00442283
1.50642e-06
0.00611584
1.68705e-05
0.00256278
0.00200834
0.00397339
6.30606e-07
1.19778e-06
0.00165489
1.03764e-06
1.50966e-06
5.01949e-07
8.5345e-05
1.08381e-06
0.000531803
8.97097e-07
7.68384e-07
0.00542915
2.04603e-06
0.00123855
1.43694e-06
5.83764e-07
8.56073e-07
1.69051e-06
0.00280726
0.0154492
8.65548e-07
2.16601e-06
0.000139929
1.1901e-06
7.03231e-07
0.00459307
1.68038e-06
1.51734e-06
4.50103e-06
0.0126954
0.000344175
0.0024318
0.0041907
8.03687e-07
0.000114175
8.8045e-05
0.00160231
2.15581e-06
4.33289e-07
4.26868e-06
1.18103e-06
1.10229e-06
0.00551031
0.00472016
1.26415e-06
0.0118345
1.93024e-06
0.00462982
1.14593e-05
6.9224e-07
1.14987e-06
2.13033e-06
6.29959e-06
5.71009e-07
1.5106e-06
0.00517059
0.00433369
0.00124512
0.00532867
1.49467e-06
0.00609062
0.00547926
1.67951e-06
1.26301e-06
9.90201e-07
7.54382e-05
1.0453e-06
0.000255632
1.22044e-06
1.51646e-06
1.26958e-06
0.00289748
0.00656086
0.0102751
1.11081e-06
0.00295905
1.36464e-06
1.39574e-06
1.07172e-06
5.00772e-07
0.00548493
1.44852e-06
0.00502908
0.00163751
3.02312e-05
3.78366e-06
1.62691e-06
1.54769e-06
1.27234e-06
5.14299e-06
8.38599e-07
1.45035e-06
1.10848e-06
1.08571e-06
6.3708e-06
1.53727e-06
1.56251e-06
5.70339e-07
1.56254e-06
4.4968e-06
0.00667275
9.66781e-07
1.83765e-06
5.64852e-07
1.65435e-06
4.63537e-07
0.00345718
3.12863e-05
1.70004e-06
1.58918e-06
1.49629e-06
5.3347e-05
1.13291e-06
4.16841e-05
1.58982e-06
7.65559e-07
8.03543e-07
0.00464794
1.5666e-06
1.13759e-06
9.92572e-07
5.69772e-07
2.19399e-06
0.00443821
0.00201767
1.69569e-06
1.3561e-06
2.38836e-06
4.31157e-07
8.16629e-07
2.42928e-05
0.00571175
5.17525e-07
1.39807e-06
2.45712e-06
0.00317948
1.53001e-06
1.51211e-06
0.0056849
1.47668e-06
7.45911e-06
0.000382116
0.00671148
1.21645e-06
4.35721e-07
1.27191e-06
0.00617762
4.48667e-06
1.6771e-06
3.86748e-06
0.010946
1.57965e-06
0.00612683
0.00272712
1.11608e-06
0.00305207
2.55163e-06
1.38837e-06
0.00569889
1.47025e-06
9.17421e-07
6.98393e-07
6.84942e-06
2.19819e-05
6.55552e-06
1.42753e-06
1.64688e-06
1.71635e-06
0.000122248
0.000604819
0.00638472
0.000158517
1.57428e-06
4.53082e-06
4.57491e-06
0.00498141
2.21213e-06
5.08352e-05
1.05389e-06
9.85566e-07
7.12012e-07
0.00119001
1.45692e-06
1.26758e-06
0.00566802
1.7556e-05
1.57967e-06
7.69002e-07
4.1881e-07
5.56996e-07
1.74622e-06
1.56224e-06
0.00022538
2.1486e-06
2.05638e-06
1.82709e-06
3.66406e-06
0.00409734
4.34305e-06
0.00623199
9.62332e-07
8.2472e-07
7.51579e-05
0.0114644
0.00495768
1.40044e-06
8.14309e-07
0.00508287
0.000149825
7.62358e-07
1.6238e-06
9.59532e-07
1.77828e-06
2.27169e-06
1.94342e-06
0.00611854
0.000447208
1.52083e-06
0.00377645
0.00639004
1.52605e-06
2.16353e-06
0.00863378
0.0043891
1.56484e-06
2.41408e-06
4.1921e-07
1.32762e-06
5.77583e-07
1.41881e-06
0.00633403
0.00404079
0.00553729
0.0163195
1.60531e-06
1.47613e-06
1.7194e-06
5.07126e-07
1.1092e-06
7.16143e-07
0.00433977
1.01489e-06
0.00560706
1.4754e-06
1.47426e-06
4.38838e-06
0.000105967
0.00538212
0.0034165
1.76636e-06
4.5727e-07
5.46309e-07
0.00301797
0.0019265
1.55454e-06
9.32314e-07
6.70876e-07
2.00867e-06
1.5335e-06
5.40669e-06
0.00296616
1.63417e-06
7.00698e-07
4.00347e-06
1.78392e-06
0.00692989
0.0010483
1.03844e-06
2.2704e-06
1.11283e-06
0.00684901
4.72749e-07
0.00606668
5.02618e-07
1.63816e-06
1.25095e-06
1.55761e-06
9.94742e-07
1.61648e-06
1.82794e-06
0.0065885
0.00436746
1.54868e-06
1.55827e-06
1.1551e-06
0.00322475
0.00747276
8.18906e-07
4.91556e-07
0.000128633
4.38451e-07
0.00591036
5.08082e-07
1.34322e-06
2.11435e-06
0.00194925
1.45517e-06
1.06277e-06
1.63081e-06
2.29343e-06
0.00523677
1.19088e-06
0.000923371
0.00809225
0.00120729
0.000263841
1.45648e-06
0.00441345
1.68285e-06
7.69517e-05
1.34333e-06
0.000167552
0.000163332
0.00680783
0.00667534
0.00388538
5.21848e-07
9.22331e-07
8.79274e-07
0.0083254
9.5711e-05
0.00500728
0.00622287
1.44047e-06
0.00326751
0.000615705
1.46865e-06
1.26298e-06
1.5393e-06
0.00526157
1.44376e-06
2.28535e-06
1.0955e-06
1.19175e-06
8.43669e-07
1.31854e-06
0.00416088
0.000112265
1.51545e-06
0.00770572
0.00231805
5.14309e-07
1.34752e-06
6.85916e-07
1.03636e-06
0.00599628
0.000163015
1.40775e-06
1.41596e-06
7.26025e-05
2.3062e-06
1.79178e-06
0.00777404
1.50506e-06
0.00603158
1.71309e-06
1.29629e-06
1.34059e-06
1.09615e-06
2.23622e-06
0.000159307
0.00016685
0.00528481
2.14014e-06
0.0126584
8.65322e-07
1.52632e-06
6.23179e-07
0.00579744
0.0115627
0.000346278
1.3258e-05
1.55193e-06
1.34989e-06
9.52019e-07
1.57926e-06
7.20426e-07
0.00452195
1.51215e-06
0.00669966
1.47155e-06
0.00361477
0.00142222
0.00580491
9.36969e-07
1.61991e-06
0.00613105
1.50965e-06
0.000662762
0.00563206
8.12743e-07
2.52182e-05
1.55452e-06
0.0116075
0.00611263
1.48781e-06
8.94748e-05
0.000138882
9.80132e-07
1.54915e-06
1.65944e-06
0.0106347
0.00011097
1.52462e-06
1.60943e-06
0.000167005
0.000476162
4.49436e-06
0.000158214
4.28887e-06
1.04666e-06
7.96317e-07
0.0074745
0.00564761
2.31644e-06
1.68147e-06
0.00424413
0.0168349
8.8562e-07
1.46844e-06
1.52708e-06
0.00505392
0.00464228
1.42375e-06
0.00544123
1.56794e-06
9.92522e-07
1.25398e-06
0.0180884
0.000134145
4.18955e-06
0.0047739
1.26826e-06
1.44027e-06
1.01747e-06
0.0104379
1.20734e-06
0.0126055
1.13531e-06
0.00134748
1.6159e-06
1.17452e-06
4.06169e-06
0.00438739
0.000121929
1.52938e-06
0.00247739
4.15566e-07
1.40923e-06
1.47091e-06
1.71086e-06
2.10587e-06
2.11378e-06
1.41193e-06
0.0048396
1.56435e-06
4.54334e-06
2.89628e-06
0.00410547
8.95805e-07
0.00501604
0.00515078
1.67782e-06
0.000300666
2.20225e-06
0.0119901
1.42257e-06
1.99939e-06
8.08366e-07
0.000434273
0.00770797
2.04808e-06
0.00571296
1.2591e-06
1.92813e-06
1.26243e-06
0.00513218
4.657e-07
9.45942e-07
0.000147379
2.62497e-06
0.0123808
0.00272133
2.18631e-06
1.53007e-06
6.93423e-07
0.000580661
1.23854e-06
5.76107e-07
5.41986e-06
4.20709e-07
1.78282e-06
1.33181e-06
0.00134634
1.16627e-06
0.000139571
0.000158614
1.22938e-06
2.67769e-06
1.76943e-06
0.00692504
1.07229e-06
0.00186773
0.00225174
7.93476e-07
1.3766e-06
1.38363e-06
1.60918e-06
1.65033e-06
9.59334e-07
0.000107177
2.4229e-06
7.61637e-05
9.0711e-06
1.11844e-06
1.47767e-06
6.67143e-07
0.00372548
1.41204e-06
1.13703e-06
0.000335621
1.62725e-06
0.00102752
0.0056087
2.78769e-06
1.13776e-06
1.53965e-06
1.42375e-06
1.55814e-06
1.23945e-06
4.95982e-07
1.61609e-06
0.00495013
0.00626443
0.00116722
1.41375e-06
0.0050499
0.000659997
1.63025e-06
4.97547e-05
0.00456801
1.44605e-06
1.59138e-06
1.43064e-06
0.00413039
0.00952278
0.000351535
4.93061e-07
1.50151e-06
9.43759e-07
1.58978e-06
4.48707e-06
1.19468e-06
8.95497e-06
0.00502307
0.00592223
7.89328e-07
1.59066e-06
1.65455e-06
0.0105756
4.1488e-07
0.00863963
0.00542853
7.91046e-05
0.000135286
0.00926115
0.00246727
9.75675e-07
0.000313293
0.000105327
1.61605e-06
6.91307e-07
9.58324e-07
0.00559119
0.0041275
0.00634345
5.45788e-07
0.00619245
1.4015e-06
5.48155e-06
5.91219e-07
1.38411e-06
1.58547e-06
7.87361e-07
0.0102712
1.6481e-06
0.00594588
0.0185759
0.00819592
1.71667e-06
1.97233e-06
0.00913342
0.00510955
9.07936e-07
0.00468128
6.75123e-07
4.47677e-07
1.35178e-06
9.4091e-07
6.04838e-07
0.00670737
1.21579e-06
5.40899e-05
1.42729e-06
0.00511596
0.00740011
2.324e-06
7.79721e-07
1.73905e-06
2.21345e-06
0.00993092
8.85194e-07
4.17137e-07
1.24024e-06
0.00538627
1.00462e-06
0.000133644
0.00620083
1.7589e-06
1.95381e-06
9.03296e-07
0.000177855
1.52594e-06
0.00614155
6.33277e-07
0.00386749
1.70908e-06
1.46629e-06
0.00643846
0.00715852
5.9417e-07
2.21927e-06
1.43742e-06
0.00587441
2.89001e-06
7.45522e-06
4.52867e-05
1.48134e-06
1.72107e-06
0.00402489
5.97847e-07
8.29367e-07
9.3503e-07
2.44504e-06
1.67934e-06
0.00572078
0.0041216
1.45016e-06
0.00509755
1.51294e-06
1.75137e-06
0.00431433
0.00605769
1.43661e-06
0.00446815
6.12629e-05
1.6237e-06
0.000141426
4.3236e-06
1.67035e-06
1.6244e-06
0.00367141
5.99613e-07
0.0134243
1.68314e-05
3.35447e-06
1.48354e-06
1.29643e-06
0.00471122
1.76142e-06
0.00353881
1.54246e-06
1.49882e-06
2.52096e-06
0.0038131
1.66912e-06
0.00529615
0.000728646
0.00707086
1.21733e-06
0.00365811
0.00179679
0.0107705
1.50831e-06
5.46135e-07
1.00339e-06
0.00560006
7.85169e-07
0.000165683
0.000184744
1.44863e-06
5.37747e-07
1.46877e-06
0.0104817
0.00315627
0.0136879
0.00777836
1.02053e-06
0.0041004
0.00493991
4.55804e-06
0.00423556
0.00460152
1.39668e-06
0.0138658
1.5887e-06
1.66744e-06
0.00385223
0.00329394
4.96378e-07
0.0097295
1.12247e-06
1.4299e-06
0.00326748
0.0042091
0.00603685
0.00848095
1.48803e-06
1.47455e-06
1.19103e-06
0.00513084
0.00661666
1.21453e-06
1.89594e-06
0.000217891
1.48432e-06
1.36075e-06
0.00424722
0.00916655
1.38763e-06
1.56139e-06
1.61031e-06
1.26736e-06
2.32071e-05
1.59743e-06
8.05501e-07
1.41816e-06
0.000403682
0.00965791
0.000230593
0.00402822
1.44263e-06
1.36718e-06
0.00447181
0.00507001
1.37499e-06
2.7046e-06
1.45579e-06
1.65716e-06
1.06616e-06
4.91045e-07
2.03138e-06
8.18622e-07
0.000921237
1.444e-06
7.84368e-07
1.36063e-06
0.00212639
0.00235977
0.00473244
1.4878e-06
1.42815e-06
0.00533916
0.000298198
1.57866e-06
8.83188e-07
1.62462e-06
0.000108936
1.35214e-06
8.00547e-07
1.52248e-06
1.36336e-06
0.00460463
7.10801e-06
1.44451e-06
1.46092e-06
4.88589e-07
1.21115e-06
0.00371638
0.000289173
2.25966e-06
0.00462581
2.6277e-06
1.48764e-06
1.42837e-06
1.44687e-06
1.00998e-06
1.47717e-06
1.19549e-06
2.05278e-06
0.0042806
9.42788e-07
3.52119e-06
0.00460552
2.37464e-05
1.12405e-06
9.55915e-07
1.61521e-06
0.00289228
1.006e-06
0.000460097
0.000664967
1.45698e-06
6.71846e-07
0.00631794
4.6447e-07
1.31241e-05
6.04848e-07
4.67579e-07
1.01304e-06
7.24234e-07
1.02553e-06
0.00319967
1.74821e-05
1.63629e-06
0.00464433
0.000369416
0.000944761
1.66852e-06
0.00428588
0.00466509
3.44628e-06
0.00265022
0.00437392
3.74254e-06
0.000191216
1.57988e-06
5.9782e-07
0.00317544
1.00541e-06
1.47728e-06
0.00377329
2.372e-06
0.00564732
5.5489e-05
8.23847e-07
5.17596e-07
1.35602e-06
5.84754e-06
5.86996e-07
2.07256e-06
0.0139875
0.0042331
0.00138402
1.32138e-06
5.99961e-07
2.30954e-06
0.0148439
0.00473278
3.66332e-06
0.00134521
9.53733e-07
0.00192477
0.00578646
1.7627e-06
1.31151e-06
1.32416e-06
4.15753e-07
1.2522e-06
1.11567e-06
1.06647e-06
1.47382e-06
0.00452816
2.4074e-06
0.00486923
1.61934e-05
0.00111073
7.0566e-06
1.34057e-06
6.09506e-07
7.51478e-07
6.08221e-07
1.57624e-06
0.000360725
0.00236848
0.000161284
0.00614385
1.64517e-06
0.00825885
5.31663e-06
0.00535975
0.00560896
1.20877e-06
7.41809e-07
1.38122e-05
1.28849e-06
5.9547e-07
0.000340359
0.0046679
0.00236214
1.36811e-06
1.39396e-06
8.59127e-07
1.59544e-06
0.00185259
6.79303e-07
1.18534e-06
0.000766271
4.24492e-07
0.000215873
1.58545e-06
0.00394165
1.49134e-06
0.000412762
0.0175426
1.48072e-06
0.00498494
3.66581e-06
0.00517701
4.73601e-07
1.40279e-06
8.76463e-07
1.49385e-06
0.01943
5.66139e-07
0.00524061
7.50689e-07
8.45813e-07
1.58557e-06
0.0060007
1.79954e-06
3.62846e-06
0.000262295
6.76573e-07
1.55391e-06
0.00608143
1.75524e-06
5.96283e-07
9.77655e-07
1.25595e-06
1.48482e-06
8.87501e-07
7.73051e-07
0.00653243
0.00605243
0.00562986
0.000204166
0.000955526
0.00790564
2.30317e-06
0.0064811
4.54263e-06
4.69615e-07
5.19316e-07
4.41348e-07
1.22982e-06
0.00528077
0.005183
5.27347e-07
0.00504142
0.00639922
1.69675e-06
9.34355e-07
1.61762e-06
0.00341515
0.00412492
0.00465648
0.00554763
0.00479623
4.38623e-07
0.000383273
3.12094e-06
0.000124993
0.00408028
1.39685e-06
4.42736e-06
0.00686674
1.46382e-06
0.0192226
1.21621e-06
2.931e-06
0.00743877
0.00564406
2.41807e-06
1.52548e-06
0.00554972
4.45165e-06
0.00588152
0.00578978
0.00453905
3.73817e-06
0.00327067
1.38776e-06
1.00681e-06
1.83774e-06
0.00548262
0.000162538
0.0053582
7.66429e-07
3.60425e-06
2.02292e-06
7.9217e-07
0.0045023
1.43824e-06
4.53579e-06
0.00489733
1.46688e-06
0.00415017
0.00276946
0.00597581
0.00343841
0.000906497
0.000153503
9.26136e-07
0.00542768
7.43457e-07
6.30686e-07
1.74001e-06
1.51367e-06
0.00537089
1.54999e-06
1.50132e-06
1.49063e-06
7.32954e-07
0.00223939
1.40059e-06
3.84622e-06
0.000138381
8.02274e-07
0.00589039
3.13615e-06
9.23853e-07
0.00639214
0.000361165
1.47934e-06
1.92001e-06
1.47319e-06
0.006291
1.52623e-05
5.25882e-07
3.83576e-06
1.41005e-06
0.00573758
0.0049186
2.29559e-06
0.00130419
1.15466e-06
1.62855e-06
0.00362405
1.62743e-06
9.91125e-07
0.00229827
1.83358e-06
9.6994e-07
7.87867e-07
4.52931e-06
1.37383e-06
0.00472791
0.00040925
1.75728e-06
0.0112732
1.98172e-06
1.99489e-06
9.21017e-07
0.00589182
0.00704823
0.0124932
1.50982e-06
5.33834e-07
2.25694e-06
1.47616e-06
0.000205061
9.95643e-07
0.000184555
8.84668e-07
0.000547759
7.90189e-07
1.59303e-06
4.81922e-06
3.7634e-06
0.00572402
0.00177386
0.00447248
0.00478237
4.48894e-07
0.00123185
0.00157791
0.00572753
6.77612e-07
2.59473e-05
0.00655785
0.00746957
3.82779e-06
0.00106775
0.000981152
0.00621568
1.88941e-06
0.00031113
7.81277e-07
1.84868e-06
1.84807e-06
1.39863e-06
2.27925e-06
0.0119416
3.89126e-05
0.00779307
0.00171094
1.21127e-06
8.69866e-07
1.12949e-06
1.40107e-06
0.00148076
6.89707e-07
8.26493e-07
0.00675676
8.29111e-05
1.35253e-06
3.17553e-06
8.12743e-07
2.50433e-06
0.00524633
0.00521876
0.00541648
1.67091e-06
0.00507819
1.0398e-06
6.32595e-07
1.6416e-06
0.00457971
0.000150519
0.000339723
9.8317e-05
1.52733e-06
8.20077e-07
1.39336e-06
1.5911e-06
1.6141e-06
0.0149292
0.00177465
1.52101e-06
0.0046243
0.00469772
6.77589e-05
0.0218604
1.44679e-06
1.58089e-06
4.81034e-05
1.47837e-06
4.57082e-07
1.54361e-06
1.53868e-06
0.00693814
0.00529394
6.81382e-07
1.8191e-06
1.53993e-06
2.09918e-06
0.0106952
0.00486028
0.00607661
9.92656e-07
2.61791e-06
0.00600691
2.57714e-06
3.82686e-06
8.99541e-06
0.00348914
0.00642924
0.00657323
6.91592e-07
0.00321514
5.39027e-07
1.14336e-06
1.33847e-06
1.96829e-06
0.00631657
0.00669414
0.000134879
0.00751988
1.90105e-06
5.81911e-07
9.42086e-07
1.37881e-06
1.0836e-06
1.78189e-06
0.00639268
0.00654288
2.46107e-06
1.68723e-05
1.21625e-06
1.88606e-06
8.27323e-07
0.00592202
1.9119e-06
9.91051e-07
4.55855e-06
3.20352e-06
0.00755235
0.00545565
4.48662e-06
0.00361412
1.44091e-06
0.012185
0.000191278
0.00383723
0.000105668
1.04088e-06
1.86959e-06
1.39823e-06
0.00420472
0.00567694
1.67115e-06
0.00865318
0.000193035
0.00764089
2.07187e-06
1.78131e-05
1.44522e-06
1.00901e-06
3.98501e-06
1.83058e-06
1.53811e-06
1.85435e-06
1.56051e-06
1.54048e-06
0.00649016
6.4168e-06
1.32115e-06
1.48773e-06
1.66893e-06
1.45171e-06
9.3206e-07
0.00595423
3.55341e-06
0.000138961
0.0147477
1.37436e-06
0.00536267
1.60535e-06
1.19586e-06
1.37542e-06
0.00520905
1.51211e-06
0.00617678
0.0217832
1.9387e-06
1.40024e-06
3.8945e-06
0.00479967
4.72526e-06
0.00114305
1.28868e-06
1.88146e-06
6.59103e-07
0.0057881
0.000232424
1.28247e-06
5.8734e-07
1.49597e-06
1.59916e-06
1.42792e-06
1.92186e-06
1.80955e-06
1.41631e-06
1.44897e-06
0.0195526
0.0100036
2.53613e-06
1.74936e-06
4.53997e-07
0.00578194
1.66857e-06
2.17056e-06
3.95931e-05
1.85807e-06
0.00709831
6.01053e-07
1.60123e-06
1.1732e-06
1.43653e-06
1.18061e-06
0.00585629
0.000125334
0.00226034
1.47068e-06
0.00476048
9.62265e-05
1.61019e-06
0.0053625
2.19535e-06
7.46783e-05
0.00896378
1.45916e-06
1.51224e-06
1.8243e-06
2.09736e-06
1.02656e-06
0.000786546
0.00581935
8.24335e-05
1.00975e-06
0.000115331
0.000160088
0.00637038
1.32407e-06
1.7808e-06
7.9882e-07
1.49664e-06
0.00238477
1.50295e-06
1.53025e-06
9.71556e-07
9.60004e-07
0.00257094
0.00445092
1.07015e-06
0.00584728
6.10944e-05
5.83037e-07
7.17229e-07
0.00586497
3.62267e-06
3.23131e-06
1.41336e-06
1.53375e-06
3.25324e-06
6.33455e-07
9.79728e-07
0.00310828
1.55912e-06
0.00577868
2.61422e-06
1.5779e-06
0.00623264
3.69544e-06
5.4578e-06
1.008e-06
0.00020716
1.69173e-06
1.55452e-06
0.00271918
1.74749e-06
1.20527e-06
2.47989e-06
1.54196e-06
1.01643e-06
5.3429e-07
0.00047752
1.33514e-06