/*--------------------------------*- C++ -*----------------------------------*\
| =========                 |                                                 |
| \\      /  F ield         | OpenFOAM: The Open Source CFD Toolbox           |
|  \\    /   O peration     | Version:  v2012                                 |
|   \\  /    A nd           | Website:  www.openfoam.com                      |
|    \\/     M anipulation  |                                                 |
\*---------------------------------------------------------------------------*/
FoamFile
{
    version     2.0;
    format      ascii;
    class       volVectorField;
    location    "250";
    object      U_0;
}
// * * * * * * * * * * * * * * * * * * * * * * * * * * * * * * * * * * * * * //

dimensions      [0 1 -1 0 0 0 0];


internalField   nonuniform List<vector> 
13851
(
(1.01882 -0.00824305 0)
(0.68331 -0.112963 5.42588e-21)
(1.03769 -0.0572439 6.30498e-21)
(1.01835 -0.00784389 0)
(1.06498 -0.0465771 0)
(0.985314 -0.0205618 0)
(1.02693 -0.000185781 0)
(1.04099 -0.0376946 7.08841e-21)
(1.01122 -0.00072677 1.0511e-22)
(1.00393 -0.0387185 1.49503e-21)
(0.921412 0.0296108 0)
(0.457874 -0.0889898 1.18675e-20)
(0.969778 -0.0457854 -9.32854e-21)
(0.1483 0.237671 -9.1169e-21)
(1.01786 -0.000186301 6.25916e-24)
(1.03081 -0.0239168 -6.71796e-24)
(1.03692 -0.0168493 2.84285e-21)
(1.01807 -0.014635 2.60314e-22)
(1.05001 -0.0555334 -1.17064e-20)
(1.0111 -0.000744802 -2.19258e-22)
(1.01823 -0.00774022 -6.44263e-23)
(1.04136 -0.0563112 2.19956e-21)
(1.00847 -3.13021e-05 8.26684e-23)
(1.009 -0.000122187 -9.60842e-23)
(1.00756 -5.3342e-05 0)
(1.03913 -0.0380833 -6.9642e-22)
(1.04399 -0.0113728 0)
(0.0164303 -0.13795 3.24047e-20)
(1.01886 -0.00819499 -2.61277e-24)
(1.02404 -0.0146702 -5.58536e-22)
(0.974728 -0.0164384 0)
(1.03731 -0.0176135 0)
(1.0355 -0.0552406 -1.08622e-20)
(0.847769 0.0718524 0)
(1.00959 -0.000116744 1.53109e-22)
(1.08463 -0.0270107 -8.55025e-21)
(1.06593 -0.0275683 -4.41724e-20)
(1.07226 -0.0833779 0)
(0.999419 -0.0410015 -9.13216e-22)
(0.855972 0.0974855 2.68699e-22)
(1.01645 -0.00505162 1.89843e-22)
(1.01061 0.000290313 -4.72822e-23)
(-0.0110331 0.0485234 3.43885e-20)
(0.877328 -0.013245 0)
(0.868575 0.0152965 0)
(0.0785153 0.0105684 -1.28605e-21)
(0.860953 -0.0411976 -1.46392e-21)
(0.910711 -0.0712199 6.6807e-21)
(1.04476 -0.0117344 -1.14404e-20)
(1.04231 0.0089881 5.08896e-22)
(1.07246 -0.0332912 2.82277e-20)
(1.08155 -0.0404614 2.52802e-20)
(-0.0312207 -0.107352 0)
(1.01839 -0.000242395 -2.92044e-21)
(1.01435 -0.000518202 0)
(1.01079 0.00031109 0)
(1.00937 -5.35077e-05 3.53154e-24)
(-0.0412214 -0.109641 -6.46883e-20)
(1.02381 -0.0141572 -9.63259e-22)
(1.02787 -0.00211969 -2.47886e-21)
(1.06865 -0.0873884 0)
(0.70585 -0.0260087 6.24472e-21)
(1.00141 0.00234023 3.66082e-21)
(1.07022 -0.0473584 1.00904e-21)
(1.05949 -0.0852659 -3.92023e-21)
(1.01916 -0.00911189 -5.28585e-22)
(1.04548 -0.0277002 0)
(0.870987 -0.0829914 -5.70428e-22)
(1.05608 -0.0226493 6.7574e-22)
(1.01781 -0.0138419 -3.21004e-22)
(0.543045 -0.00054653 3.63122e-20)
(0.999138 -0.0287727 0)
(0.637168 -0.0975054 -1.01751e-20)
(1.01831 -0.000285413 2.59387e-21)
(1.01326 -0.000795874 5.47565e-22)
(1.01295 -0.000956642 2.13906e-22)
(1.04259 -0.0542862 0)
(0.618454 -0.00629078 3.35127e-20)
(1.05594 -0.0347594 -1.42339e-20)
(0.537998 -0.00334869 8.34354e-21)
(1.03063 -0.00495053 -5.77014e-21)
(0.863727 -0.0924876 -1.4806e-22)
(1.01996 -0.00287157 -5.76894e-21)
(0.064451 -0.0147475 0)
(0.997596 -0.000798118 -4.85735e-21)
(0.481057 -0.0767053 -1.04545e-20)
(0.996828 -0.00586165 -2.79731e-21)
(0.741669 0.110142 9.03762e-21)
(1.04221 -0.0162474 0)
(1.01465 -4.17654e-05 0)
(1.08429 -0.0272773 0)
(1.02653 -0.0101912 0)
(0.871455 -0.105769 -5.7745e-22)
(1.04584 -0.0195377 0)
(1.04254 -0.0155761 3.92591e-21)
(1.00867 -6.09342e-05 -5.95107e-23)
(1.06687 -0.046324 0)
(0.743455 -0.0303852 2.39855e-20)
(1.04648 0.0089072 -4.83059e-22)
(1.00781 6.11505e-07 0)
(0.040308 0.220921 1.66872e-20)
(1.06247 -0.0320964 -8.04899e-21)
(1.01951 -0.00850215 0)
(1.04806 -0.00507727 1.70375e-21)
(1.00863 3.27147e-05 0)
(0.999162 0.00857832 2.04127e-21)
(1.06596 -0.0323207 0)
(1.01001 0.000281167 2.84681e-23)
(0.933151 -0.028242 0)
(0.988084 -0.0284494 -2.19584e-21)
(1.00801 -2.78869e-05 -1.03042e-22)
(1.01493 -8.9195e-05 0)
(1.02444 -0.00923436 3.8933e-23)
(1.00396 2.46403e-05 0)
(1.00885 -4.0435e-05 0)
(0.754338 -0.155266 1.89184e-21)
(0.767029 -0.0325522 -6.36446e-21)
(1.00916 0.000185015 0)
(1.01031 -0.000205752 -2.42675e-23)
(1.01334 -0.000425021 6.03516e-22)
(-0.0103971 0.0501736 1.05276e-21)
(1.04731 -0.00548886 -2.64771e-21)
(0.951073 -0.0460847 0)
(0.833884 -0.177671 -4.24108e-21)
(0.959409 -0.0926644 -7.20156e-21)
(1.01627 0.00087649 1.3366e-22)
(0.965268 -0.134014 -9.66738e-21)
(1.05922 -0.0337209 2.32874e-21)
(1.01794 -0.00740302 -1.56571e-22)
(1.07515 -0.0593785 -1.87085e-20)
(1.01629 -0.0048863 5.43984e-22)
(1.01043 -0.000888649 3.41736e-23)
(0.562474 -0.00376105 -2.51175e-20)
(1.0199 -0.00265442 4.60948e-21)
(0.755698 -0.17197 2.90915e-21)
(1.01056 -0.00040172 1.68555e-22)
(1.00907 0.000168552 9.47532e-23)
(1.00496 -0.0289826 3.30001e-21)
(0.15915 0.00372088 0)
(0.231597 -0.0666014 -3.5569e-21)
(-0.0250815 0.18651 -1.55389e-21)
(1.0143 -0.000467021 -1.06393e-21)
(1.0172 -0.0020294 6.3135e-22)
(1.01311 0.000387439 0)
(1.03116 -0.0136222 -1.39958e-21)
(0.875469 -0.0484766 5.09971e-23)
(1.01974 -0.00258796 -2.7636e-23)
(1.07426 -0.0618569 2.86738e-20)
(1.02636 -0.000225655 5.87243e-21)
(0.873289 0.0486783 4.90068e-22)
(1.07784 -0.023549 -3.17901e-20)
(1.01345 -0.000534913 -1.04753e-21)
(0.173015 0.246054 -1.72569e-20)
(1.00943 -5.29265e-05 -2.70058e-22)
(1.03627 -0.0103648 0)
(1.03058 -0.0134896 5.64776e-21)
(1.01312 -0.00242574 0)
(1.02498 -0.0131077 2.18381e-21)
(1.08144 -0.0415106 -2.51886e-20)
(1.07151 -0.0337913 -2.65464e-20)
(1.01282 0.000609663 -3.66135e-25)
(1.05109 -0.0163206 0)
(-0.0419636 -0.114438 3.42435e-20)
(1.01034 -0.000837654 -3.7783e-23)
(1.02595 -0.0194821 0)
(1.01183 0.000349539 -1.46356e-22)
(1.02148 -0.00351911 2.72668e-23)
(1.05719 -0.0225735 3.71737e-22)
(1.01787 -0.0072503 0)
(0.614684 -0.0195606 0)
(0.603373 -0.00452186 -4.0061e-20)
(1.00925 -0.000208602 0)
(1.01323 -0.00252363 2.49145e-22)
(0.20768 -0.0468457 3.91622e-21)
(1.01017 -0.000764416 0)
(0.895864 -0.0116144 7.72024e-21)
(1.05791 -0.0335672 7.03004e-21)
(1.01734 -0.00127097 0)
(1.03751 -0.0532913 -1.87207e-20)
(1.01056 0.000348847 0)
(1.03717 -0.0189039 -3.43172e-21)
(0.984962 -0.0284994 0)
(1.01971 -0.0021854 0)
(1.04352 -0.0586982 -5.28733e-21)
(1.00974 0.000175145 -4.32444e-25)
(1.00861 -7.83224e-05 0)
(1.01953 -0.00915107 0)
(1.0142 -0.000554824 -2.9001e-22)
(1.06555 -0.052306 0)
(1.02257 -0.00241451 -2.15994e-21)
(0.863366 -0.0748953 9.41908e-22)
(-0.0411405 -0.108266 0)
(1.01543 -0.000138274 -4.62403e-22)
(1.05313 -0.0248488 -2.80536e-21)
(0.749483 -0.0432323 -2.46725e-21)
(1.03505 -0.0101969 5.58959e-23)
(1.01671 -0.00184165 6.00702e-22)
(0.889595 0.134628 -2.094e-21)
(1.01712 -0.00138814 0)
(1.01307 -0.00100675 -2.13786e-22)
(1.01613 0.000663727 -1.34211e-22)
(0.237532 0.0173616 3.88627e-20)
(1.00823 -0.000114098 5.01269e-22)
(1.01759 -0.00366364 0)
(1.01707 -0.0175771 3.75586e-22)
(1.02007 -0.00230102 -5.27177e-21)
(0.573236 -0.187827 -5.4468e-22)
(1.03873 -0.0167525 6.44901e-21)
(0.644793 -0.0113643 -2.34539e-20)
(1.01146 0.000472518 -1.36628e-23)
(0.810623 -0.0266777 -2.68097e-20)
(1.01939 -0.00825377 0)
(0.853657 0.136818 -2.09519e-21)
(1.01027 0.000330151 -1.1493e-23)
(1.0127 0.000386684 0)
(0.976795 0.0509257 -3.65871e-23)
(0.998561 -0.00957547 1.54993e-21)
(0.0247824 0.0209911 1.34545e-21)
(1.01808 -0.000583982 3.56498e-21)
(0.655339 -0.0127032 2.3294e-20)
(1.03872 -0.0172865 -1.18497e-20)
(1.03133 -0.00513208 8.19923e-21)
(0.820512 -0.0340312 0)
(1.07899 -0.0479863 -2.216e-22)
(0.754257 -0.0222166 0)
(1.00753 1.55095e-05 2.08467e-22)
(1.04719 -0.0223272 0)
(1.00766 -3.92338e-06 2.72941e-23)
(-0.0808449 -0.060969 3.29396e-20)
(1.01046 0.000355666 5.09943e-23)
(1.03776 -0.0367966 -4.8758e-21)
(0.976944 -0.0792701 -2.54352e-21)
(1.00905 -0.000189142 -6.78194e-23)
(1.01518 -6.60712e-05 0)
(1.07129 -0.0302313 1.46075e-20)
(1.01549 -0.0280658 3.23947e-22)
(0.619166 -0.181939 -1.36912e-20)
(1.06983 -0.0912469 4.75626e-21)
(1.0131 0.000390332 0)
(1.01784 -0.00373763 8.44365e-22)
(0.976049 -0.00634495 0)
(1.02978 -0.061412 0)
(1.0152 0.000727911 0)
(1.01408 -0.0160305 -4.18815e-22)
(1.00956 6.08281e-05 -3.47283e-23)
(0.717375 -0.0194382 2.4193e-20)
(1.06228 -0.0333094 0)
(0.853551 0.146833 -2.00025e-21)
(1.02985 -0.0139001 2.81302e-21)
(1.03238 -0.0186851 0)
(1.01306 -0.000392618 -6.1589e-22)
(1.01362 -0.0799582 0)
(1.0273 -0.00828136 0)
(1.03043 -0.0140557 -1.4591e-21)
(1.06805 -0.0269833 -1.68556e-20)
(1.00982 0.0725501 0)
(1.02706 -0.00468769 2.39267e-21)
(0.992622 -0.0291259 -1.43589e-20)
(0.577719 -0.0109154 1.17793e-21)
(1.02011 -0.000222916 0)
(1.01274 0.000387418 0)
(1.01836 -0.0124337 0)
(0.871788 -0.0802499 0)
(1.0144 0.000307846 -2.33171e-22)
(0.994864 -0.0583103 0)
(1.03462 -0.0103695 -1.07036e-20)
(1.02724 -0.00789457 -2.74024e-21)
(1.04562 -0.0189168 0)
(0.843666 -0.0349717 0)
(1.0121 0.00459778 6.70287e-22)
(1.01364 0.000868285 4.08282e-23)
(1.03579 -0.0106453 -1.09289e-20)
(0.9433 -0.0504551 -1.47712e-21)
(1.0552 -0.0333943 -1.37165e-20)
(1.03059 -0.0233507 -3.82665e-21)
(1.01053 -0.000961987 -8.68977e-23)
(0.862198 -0.0902968 9.19714e-22)
(1.02757 0.0125164 -1.67557e-22)
(0.765575 -0.0228706 0)
(0.930127 0.049342 1.55404e-21)
(1.01537 0.000737792 0)
(1.01116 0.000440575 0)
(1.00883 3.51925e-05 0)
(1.06737 -0.0263618 5.63337e-21)
(0.844433 -0.0782795 0)
(0.84079 0.0773124 6.48814e-21)
(1.01211 -0.000932316 2.8061e-22)
(1.0182 0.000309226 -9.06824e-22)
(0.931899 -0.0414611 1.63503e-21)
(0.875975 -0.0727244 4.30136e-22)
(1.07689 -0.0637629 1.85763e-20)
(1.02416 -0.0138003 1.26131e-21)
(1.02813 -0.00244682 0)
(1.05613 -0.0256479 0)
(0.88046 -0.0838074 2.08368e-23)
(1.00596 -0.0567881 2.12324e-20)
(1.02725 -0.0190597 0)
(0.475695 -0.0482864 1.35675e-21)
(1.01073 -0.00108523 -4.71054e-23)
(0.730766 -0.020607 -2.29878e-20)
(1.05073 -0.0157875 1.06209e-20)
(1.03609 -0.0167928 2.92592e-21)
(0.772838 -0.0241116 1.83888e-20)
(1.02009 -0.00735505 9.08536e-22)
(0.995225 0.0044935 0)
(0.769536 -0.0253603 9.53205e-21)
(1.01187 -0.000903963 0)
(1.06357 -0.0254138 -8.37305e-21)
(1.04514 -0.0201219 0)
(1.02389 -0.0133343 -5.72646e-22)
(0.219805 -0.0204634 -1.90645e-20)
(1.02706 -0.0193058 -2.54043e-21)
(1.02607 -0.00827518 -4.88883e-21)
(0.799598 -0.0350221 8.32377e-21)
(1.0109 0.000309044 6.30704e-23)
(1.0328 -0.0191773 -1.37985e-21)
(1.01598 0.000206115 -6.09658e-22)
(0.793198 -0.0242633 -1.61944e-20)
(1.08206 -0.0269872 0)
(1.01831 -0.00065255 0)
(1.06521 -0.030333 0)
(1.01847 -0.000252356 0)
(0.625062 -0.0188909 -1.12052e-20)
(1.01022 -0.00140819 -7.7499e-22)
(1.00867 -6.13547e-05 -4.57607e-23)
(1.01443 -0.00290381 -1.41309e-22)
(1.08161 -0.0273793 0)
(1.04681 -0.0212875 -1.32426e-20)
(1.03682 -0.00946496 -6.84878e-21)
(1.01802 0.000360871 -8.83253e-22)
(1.02008 -0.00727123 0)
(1.0256 -0.00819198 4.23274e-21)
(0.901107 0.0273115 -4.42857e-22)
(0.392438 0.266101 0)
(0.647561 -0.00787778 2.3769e-20)
(1.0158 -0.00888911 6.74223e-22)
(0.799252 -0.0250611 -7.92059e-21)
(0.882672 -0.103648 0)
(1.01784 -0.000161824 -1.48531e-21)
(1.05281 -0.025928 -2.93241e-21)
(1.07682 -0.0664434 -1.87142e-20)
(1.03151 -0.00615466 4.5293e-22)
(1.00846 -0.0365682 3.14136e-22)
(1.0797 -0.03786 0)
(1.03935 -0.0575238 6.26218e-21)
(1.01722 -0.00558343 0)
(0.780055 -0.122397 5.65848e-21)
(0.753852 -0.0227274 0)
(1.01796 -0.000128326 0)
(1.02273 -0.0165122 4.9562e-22)
(1.01818 -0.0185961 -3.8002e-22)
(0.986874 -0.114848 0)
(1.03712 -0.00915377 6.92189e-21)
(1.0066 -0.0394229 -3.20417e-21)
(-0.0882581 -0.0651516 -4.08985e-20)
(1.01344 -0.00263184 -7.10381e-23)
(0.769901 -0.104169 -3.03219e-21)
(1.01438 -0.0028447 -1.93261e-22)
(1.01832 -0.000211852 8.28174e-22)
(1.00983 6.85016e-05 4.58201e-23)
(1.01018 0.000300371 -1.34894e-23)
(1.01265 -0.00221696 -1.32779e-22)
(0.775604 -0.0243726 3.11074e-20)
(0.931342 -0.002029 0)
(1.01954 -0.00497799 1.09387e-21)
(1.06289 -0.0245309 -7.63005e-22)
(1.01159 0.000353326 0)
(0.457833 -0.0375847 0)
(1.02862 -0.0229588 -1.62232e-21)
(0.788715 0.0787444 -7.40338e-22)
(0.647147 -0.0161842 -1.29124e-20)
(1.01955 -0.0051699 1.08512e-21)
(0.994667 -0.00983234 -5.51447e-21)
(1.04349 -0.0209389 -5.81161e-21)
(0.795764 0.0638551 3.95211e-22)
(1.01562 -0.00437312 -3.01111e-22)
(1.00924 0.00019251 0)
(1.01475 -0.0079485 0)
(0.170489 0.225071 2.29881e-20)
(1.01374 -0.000704176 0)
(0.313758 -0.0805879 0)
(1.03085 -0.00923392 0)
(1.08089 -0.0379542 0)
(0.513098 -0.0269631 0)
(0.997278 -0.0427624 -1.37572e-21)
(1.00709 -0.0436268 4.23029e-22)
(1.01814 0.00185357 -7.08695e-22)
(1.01083 -0.00112486 1.15088e-22)
(1.01829 -0.000148884 -3.04276e-21)
(1.01691 -0.00915582 0)
(1.06571 -0.0294622 0)
(0.188893 0.215192 1.00687e-20)
(1.0585 -0.021421 0)
(0.779398 -0.0236465 1.71682e-20)
(0.766613 -0.0248999 9.94211e-21)
(1.01157 0.000349714 -8.93339e-23)
(1.02045 -0.000200224 -4.09135e-21)
(0.607625 -0.0103809 -1.08612e-20)
(0.56004 -0.00318659 0)
(0.970319 -0.0687895 4.12488e-21)
(0.782361 -0.0344695 0)
(1.01367 -0.00873131 3.86602e-22)
(1.04403 -0.0217898 0)
(1.00791 -7.26718e-05 -2.96271e-23)
(0.912278 -0.10229 0)
(1.0102 -0.000374172 -1.46569e-22)
(1.03145 -0.0241091 2.56377e-21)
(1.01811 0.00121611 1.23028e-21)
(1.02521 -0.00136794 0)
(1.00812 -4.63863e-06 2.65273e-24)
(1.01176 -0.000843513 3.6307e-22)
(1.01182 0.000351872 -9.21238e-23)
(1.07046 -0.0456421 -2.19324e-21)
(1.01941 -0.035407 6.14572e-22)
(0.656072 -0.0266288 -3.85301e-20)
(1.01705 -0.0122064 4.68262e-22)
(1.06617 -0.0312335 0)
(1.01569 -0.0159207 -1.7043e-21)
(1.00125 -0.0851419 1.84356e-21)
(1.03155 -0.0196406 4.37999e-23)
(0.965987 -0.117907 0)
(1.03564 -0.0162208 8.29121e-21)
(0.989104 0.0536397 3.73063e-23)
(1.00906 0.000166096 -7.76798e-23)
(1.01155 -0.000820854 -6.66239e-23)
(1.00795 -8.38625e-05 0)
(1.04771 -0.0972506 0)
(0.849946 -0.12426 1.5826e-21)
(1.07717 -0.0507899 1.83357e-20)
(1.01737 -0.0151964 1.09546e-21)
(0.636162 -0.0312085 3.03898e-20)
(0.846582 0.0364146 9.865e-22)
(0.998484 -0.00140197 1.8651e-21)
(1.01302 -0.000470024 1.00037e-21)
(1.07207 -0.0297194 0)
(1.01545 -0.00419565 3.02696e-22)
(0.983276 -0.096209 -2.80775e-21)
(1.00877 5.51548e-06 0)
(0.876009 -0.117894 4.00101e-21)
(0.89175 -0.12743 0)
(1.03143 -0.0506259 3.58016e-22)
(0.639252 -0.0103329 0)
(1.01751 -0.00160068 -3.41769e-22)
(1.03568 0.00374188 -3.1249e-22)
(0.877784 -0.140753 5.96718e-22)
(0.399228 0.241763 5.46361e-20)
(1.00954 0.000194429 6.63393e-24)
(1.04484 -0.0235878 0)
(1.05727 -0.0348712 7.76267e-21)
(1.01171 0.00763873 -7.2153e-22)
(1.00971 -0.000304304 -6.5837e-23)
(1.02517 -0.00845568 6.01671e-21)
(1.07719 -0.0231399 -2.01897e-20)
(1.08073 -0.0401373 0)
(1.01375 -0.0130563 0)
(0.512937 0.0786981 0)
(1.00829 3.68024e-05 -4.58821e-22)
(1.01469 -0.00302163 -2.56423e-22)
(-0.0266011 0.018897 -3.78771e-22)
(1.02555 -0.0199073 4.86085e-22)
(1.01096 0.000416145 -2.10307e-23)
(0.669631 0.129913 0)
(1.01074 -0.00106827 -2.44657e-22)
(1.01862 -0.00819838 1.24917e-22)
(1.01011 -0.000485033 -1.15618e-22)
(1.02851 -0.025357 -3.01155e-22)
(1.02399 -0.0119257 -1.41806e-21)
(1.01122 0.000451592 1.45387e-23)
(1.01728 -0.00169967 -3.23616e-22)
(0.815989 -0.0368973 3.4023e-21)
(1.02029 -0.00308069 0)
(1.05913 -0.0234125 0)
(1.01046 -0.000462112 -2.20518e-22)
(1.01612 0.000313722 -5.82653e-22)
(1.02774 0.0270886 4.5709e-22)
(1.00367 -2.08108e-06 0)
(1.0154 -0.00438823 4.11752e-22)
(1.00627 1.2457e-05 0)
(1.0061 -5.46796e-05 1.43011e-22)
(0.900112 0.0751883 6.31714e-21)
(1.02765 -0.00745428 0)
(0.991221 -0.0085763 -1.01948e-21)
(1.01963 -0.00196049 -1.05275e-21)
(1.00855 -4.02661e-05 -1.11862e-22)
(-0.0213687 0.235932 -2.37367e-20)
(0.62863 -0.00913577 8.16537e-21)
(1.02072 -0.00233888 -1.27603e-21)
(1.01666 0.00179607 0)
(1.03213 -0.0199593 -5.72869e-21)
(1.03667 -0.0409539 4.37237e-21)
(0.051911 -0.00206938 0)
(1.01475 -0.0030954 0)
(0.929864 -0.0421194 -5.59147e-21)
(1.01588 -0.00453512 0)
(1.05982 -0.0510502 0)
(1.02624 -0.00215241 0)
(-0.104886 -0.0116474 2.31976e-20)
(1.00942 0.000127765 -6.78409e-23)
(-0.0303968 -0.0958353 4.20705e-20)
(1.03539 -0.00566957 -2.09407e-21)
(1.01065 0.000290406 5.38355e-23)
(1.01876 0.00193667 1.05496e-21)
(0.684757 -0.028914 -1.6474e-20)
(1.03622 -0.0372901 1.11136e-20)
(0.861793 0.0346 3.36065e-21)
(1.01119 -0.000252326 3.45637e-22)
(0.833895 -0.130048 4.02867e-21)
(1.01412 -0.000429533 -1.56355e-22)
(1.00984 -0.000621437 -1.23266e-23)
(1.01068 -0.00103464 -2.12995e-23)
(1.02516 -0.000192472 0)
(0.577687 -0.00662121 0)
(1.06929 -0.0335038 -1.62339e-21)
(1.08215 -0.0339279 2.07685e-20)
(1.05053 -0.0455841 1.17931e-22)
(1.00001 -0.00620471 5.69444e-21)
(1.01308 0.000623304 0)
(0.89875 -0.0483435 0)
(0.86533 -0.132294 1.04815e-20)
(1.038 -0.0190496 3.74424e-21)
(1.05063 -0.0169944 1.36995e-22)
(1.04885 -0.0265715 -5.04225e-21)
(0.839866 -0.180891 2.12676e-21)
(0.837057 -0.0276652 0)
(1.01782 -0.000120951 0)
(-0.112398 -0.00831018 1.02662e-20)
(0.0996254 -0.00216361 -2.58628e-21)
(0.155183 0.0336104 -1.62688e-20)
(1.02665 -0.0197039 1.83257e-21)
(1.01961 0.00312344 -2.06334e-21)
(0.811784 -0.121236 6.92497e-21)
(1.03454 0.00851282 -5.65989e-23)
(1.03747 0.0532629 -1.1916e-21)
(0.870596 0.142432 2.38626e-22)
(0.804095 -0.135452 -1.90538e-22)
(1.02471 -0.0133699 -2.33261e-21)
(0.796222 -0.141162 -2.12568e-22)
(0.974182 -0.0305218 -4.15955e-22)
(1.00921 0.000147533 -7.76184e-23)
(1.03023 0.00919004 1.69473e-23)
(1.07039 -0.033052 0)
(0.607715 -0.00552605 1.37325e-20)
(1.02961 -0.0143541 1.4293e-21)
(1.01723 -0.00247442 -1.4614e-21)
(1.01292 -0.00233024 1.60016e-22)
(1.01693 -0.00458919 1.26482e-21)
(1.06604 -0.0501464 0)
(1.02133 -0.0269225 -3.6544e-24)
(0.807977 0.0814228 -8.00935e-21)
(0.508882 0.0922337 3.85828e-21)
(1.0098 -0.000298406 1.86475e-23)
(-0.0200627 0.0279701 2.5135e-20)
(0.656373 -0.0122235 1.50738e-20)
(0.990954 0.0300363 1.0247e-21)
(0.865874 -0.151087 -2.17938e-21)
(1.05804 -0.0235306 -3.90411e-22)
(1.01058 0.00036478 9.35268e-24)
(1.01144 -0.000768587 0)
(1.02733 -0.0163587 0)
(0.877316 -0.0439129 0)
(1.03697 -0.0106573 2.22957e-21)
(1.07909 -0.0264282 1.08901e-20)
(1.0845 -0.0287538 0)
(1.01075 0.000315469 0)
(1.01318 -0.0201501 -1.16708e-21)
(0.863748 -0.181545 -1.97201e-21)
(1.0148 -0.10644 1.0438e-20)
(1.07839 -0.0409842 -7.00802e-22)
(0.584869 -0.00744295 0)
(0.973993 -0.0299559 1.49582e-20)
(1.01604 -0.00471053 6.47129e-22)
(1.02551 -0.00113075 0)
(0.525882 0.17341 1.8826e-21)
(0.758767 -0.024729 1.1101e-20)
(1.08233 -0.0292394 1.64681e-20)
(1.059 -0.0205737 -2.16974e-20)
(1.00105 0.00970265 0)
(1.01041 0.000321196 -1.64663e-23)
(1.01494 -0.00279265 8.86308e-22)
(0.86437 -0.12566 0)
(1.01053 0.000299104 -8.33353e-23)
(1.02904 -0.0141689 -1.32639e-21)
(1.01052 0.000351737 0)
(1.01047 -0.000867944 -1.95874e-22)
(0.96176 -0.0311374 -3.98397e-21)
(1.06838 -0.0478349 -1.3752e-20)
(1.01709 -0.0130553 0)
(1.01051 0.000304037 8.31673e-23)
(0.405297 -0.104583 -2.08845e-20)
(0.902614 0.117635 8.32133e-21)
(1.0109 -0.00119453 0)
(1.00938 -1.10282e-05 0)
(1.01448 0.000270837 2.51167e-22)
(1.01839 -0.00018315 5.82361e-21)
(0.140552 0.181754 0)
(0.855305 0.151546 3.49073e-23)
(0.856188 0.149351 1.90343e-21)
(0.117099 0.0542636 0)
(0.825507 -0.113196 -5.11289e-21)
(1.05786 -0.0193178 1.24563e-20)
(0.590227 -0.00340856 2.46684e-20)
(0.628215 -0.00926861 -1.49905e-20)
(1.01777 -0.00615035 2.90886e-23)
(1.05573 -0.0236481 -1.15061e-20)
(1.01066 0.000375515 -9.4221e-24)
(1.01609 0.000657525 0)
(1.03244 -0.026469 -5.56773e-21)
(0.848895 -0.039059 -2.50932e-20)
(0.794701 -0.10162 0)
(1.07856 -0.0267931 1.17096e-20)
(1.04034 -0.0228811 0)
(1.01078 -0.00065841 1.75183e-22)
(1.02988 -0.0228542 -2.45743e-21)
(1.01596 -0.00154021 0)
(0.869443 0.0613896 -5.4519e-21)
(1.07031 -0.0367934 0)
(1.01931 -0.00184431 5.06087e-21)
(1.01485 -0.00989399 -6.70015e-22)
(1.00965 -0.000306822 -1.2677e-22)
(1.04659 -0.0177611 -3.94503e-21)
(1.0774 -0.0527876 -3.30497e-20)
(1.02723 -0.00204797 6.9324e-21)
(1.01521 -0.00405408 9.14012e-22)
(1.02855 -0.0233464 0)
(1.02572 -0.00453689 1.28337e-21)
(1.06451 -0.0485428 1.17775e-20)
(1.05325 -0.097648 0)
(1.07803 -0.0472157 3.37765e-21)
(1.02927 -0.0224451 -1.1262e-21)
(1.08277 -0.0287827 0)
(1.0106 -0.000632175 -1.76374e-22)
(0.972954 -0.0499261 -4.56202e-22)
(1.01205 -0.00116811 2.69065e-23)
(0.0580977 0.0668019 0)
(1.01951 -0.00825151 -8.30019e-24)
(1.00882 -9.16033e-05 -2.1111e-22)
(0.950173 -0.0278554 1.55323e-20)
(1.02123 -0.0118919 -1.12449e-21)
(0.476374 -0.0374116 0)
(0.734203 -0.020929 -2.18588e-20)
(-0.0414821 0.0226665 2.64895e-20)
(0.660734 0.122182 6.54989e-21)
(1.0101 -0.000380343 7.22592e-23)
(0.983539 -0.0286024 0)
(1.0158 0.000725298 0)
(1.01068 -0.000978447 1.83638e-22)
(1.00951 0.000129544 3.8239e-23)
(1.01071 -0.000976446 5.76481e-22)
(1.01764 -0.000148845 0)
(1.01653 -0.0112111 -3.36775e-22)
(1.02741 -0.0249173 6.15657e-22)
(1.01031 0.000288192 -8.14896e-23)
(0.837112 -0.135181 7.29456e-21)
(1.0322 -0.00213567 2.18157e-21)
(0.823649 -0.133605 0)
(1.01244 -0.00196935 0)
(1.00976 0.000123494 2.27919e-23)
(1.00933 2.77881e-05 3.22691e-22)
(1.07315 -0.0686013 0)
(0.763964 -0.0738987 -1.86466e-23)
(1.07079 -0.024067 2.92493e-20)
(1.04656 -0.0182993 1.15562e-20)
(1.01601 0.000692 0)
(1.00846 -4.18419e-05 -2.16504e-22)
(1.01017 -0.000222013 9.30982e-24)
(1.01348 -0.0025194 -2.83449e-23)
(1.08197 -0.0342544 2.38237e-20)
(0.335351 -0.185882 0)
(1.02527 -0.00436775 -1.29926e-21)
(1.01031 0.000293193 0)
(1.02537 9.49267e-05 0)
(1.01341 -0.00253555 2.06817e-23)
(0.934108 -0.0994825 1.66462e-21)
(-0.0412832 -0.120131 -4.32816e-21)
(1.03011 -0.0232656 1.72885e-21)
(0.723016 -0.025951 0)
(0.843568 -0.155384 3.42809e-22)
(1.01504 -0.00387906 -3.01138e-22)
(1.08158 -0.0345973 -1.23232e-20)
(0.331304 0.250209 -1.08512e-19)
(1.05653 -0.0246185 0)
(0.466046 -0.113185 4.48252e-21)
(1.03017 -0.00518794 5.55529e-21)
(1.01842 -0.013192 1.86401e-23)
(1.06998 -0.0241803 -2.62995e-20)
(1.01786 -0.0117833 0)
(0.862542 0.1346 4.62263e-21)
(1.02035 -0.00221494 1.13021e-21)
(0.823005 -0.158955 -9.05464e-22)
(1.00871 1.59338e-06 0)
(1.06097 -0.0126283 6.33486e-21)
(0.655896 -0.012453 2.6926e-20)
(1.01362 -0.000763881 -9.04649e-22)
(1.02061 -0.0103502 -1.46119e-21)
(1.00646 0.0115123 5.87093e-21)
(1.01004 -0.000680562 2.27234e-23)
(1.03683 -0.0181862 0)
(0.904336 -0.048161 -6.33843e-21)
(0.16627 0.0689128 -1.55598e-21)
(1.0691 -0.0373421 -9.27838e-22)
(1.01535 -0.0616552 0)
(0.981239 -0.0513961 3.17301e-22)
(1.0103 0.000329708 2.62253e-23)
(1.01224 -0.00187787 0)
(-0.0668504 0.220077 -6.74874e-20)
(1.08411 -0.0285845 5.55913e-21)
(1.01578 -0.0308156 4.61779e-22)
(0.747295 -0.0222129 3.58536e-20)
(1.01133 -0.000361899 1.52759e-22)
(1.01647 2.53291e-05 0)
(1.00916 0.000147414 -5.67711e-24)
(0.817827 -0.0748379 0)
(1.03857 -0.0300613 0)
(1.0269 -0.0176063 -1.94237e-21)
(1.01762 -0.00664006 0)
(1.01986 0.0326417 2.26032e-22)
(1.04242 -0.0130069 0)
(1.00949 2.89988e-05 -2.38074e-22)
(-0.00159715 0.0163347 -5.45933e-20)
(0.964183 0.0897096 -2.32323e-23)
(0.70158 -0.022251 0)
(1.01087 0.00031067 2.6913e-24)
(1.02525 -0.00404241 2.38895e-21)
(0.601591 -0.00528362 -2.02395e-20)
(-0.00605099 -0.160156 0)
(1.08397 -0.0273089 0)
(1.01579 -0.00134694 0)
(0.911342 -0.0288647 2.38409e-23)
(1.0202 -0.00258812 3.85706e-21)
(1.00133 0.044366 1.50175e-22)
(1.03591 -0.0831205 -2.84059e-21)
(1.02992 -0.0535836 5.56339e-21)
(1.03245 -0.0175544 4.08263e-21)
(-0.00648224 0.0171591 7.96721e-22)
(1.01654 0.00221426 1.78918e-21)
(1.01612 0.000365559 0)
(1.07411 -0.0277823 2.17574e-20)
(1.00879 -0.000100936 -2.08104e-22)
(1.00536 -4.55424e-05 5.30362e-22)
(1.02422 -0.0123775 1.4337e-21)
(1.01051 -0.000586697 3.10803e-25)
(-0.00445338 0.0098252 0)
(1.03517 -0.0256313 -4.21713e-21)
(1.07932 -0.0400992 1.89686e-20)
(1.01823 -0.0126553 -4.77306e-22)
(1.02746 0.0174538 -1.00536e-22)
(1.01089 -0.000713036 1.09371e-22)
(0.902534 -0.0644476 4.80004e-21)
(1.01029 -0.000162039 0)
(1.01746 0.002616 3.06412e-22)
(1.00971 0.000107113 9.64675e-23)
(1.01466 -0.00358467 1.03181e-23)
(1.01281 -0.000533026 0)
(0.759462 -0.0249937 -2.35481e-20)
(1.01284 -0.00232079 -1.58116e-22)
(1.00969 0.000217125 -8.86415e-24)
(1.03956 -0.10598 3.73824e-21)
(1.02612 -0.00116717 -2.18202e-21)
(0.619764 -0.00725083 -1.86394e-20)
(1.00791 2.34293e-05 0)
(1.01649 -0.00195024 -6.64912e-22)
(1.0741 -0.0288121 0)
(0.901112 -0.0987343 0)
(0.946029 0.0612357 6.67731e-21)
(1.00991 -0.000239418 -5.56359e-23)
(0.963296 -0.0429038 1.1385e-21)
(0.742355 -0.0269463 1.39573e-21)
(1.0277 -0.00783206 -4.3839e-23)
(0.822716 -0.0293146 1.70191e-20)
(1.06011 -0.012684 1.16242e-22)
(1.01026 -0.000516023 0)
(1.01598 0.00843321 5.07314e-22)
(-0.0106676 0.0406093 0)
(0.968971 -0.0343689 -1.23471e-21)
(1.03076 -0.0187119 3.15565e-21)
(1.01007 -0.00026893 0)
(1.01006 0.000279126 -3.12875e-23)
(0.884975 -0.150281 4.97928e-21)
(1.02459 -0.0571812 -4.33845e-21)
(1.03704 -0.0235667 0)
(1.02684 -0.0186536 0)
(1.01819 0.0097641 0)
(1.01831 -9.64575e-05 -2.00547e-22)
(1.01623 -0.00178728 0)
(1.07968 -0.0243797 2.70407e-20)
(0.891655 -0.0151852 1.19038e-20)
(1.06335 -0.0526368 -2.80565e-21)
(0.817418 -0.10843 0)
(1.02481 -0.00387217 -6.11491e-21)
(1.06189 -0.0509127 2.90352e-21)
(1.07518 -0.0334857 0)
(0.807085 -0.0251044 1.82331e-20)
(1.02631 -0.0173318 0)
(0.430466 -0.197424 5.85994e-21)
(1.05967 -0.0469023 2.1634e-20)
(1.02644 -0.000885462 -1.92593e-21)
(0.221097 -0.0329825 0)
(0.978412 -0.0412552 -8.055e-21)
(0.788286 -0.0314724 0)
(0.183523 0.0975541 0)
(0.766666 -0.0330696 1.88771e-20)
(0.987961 -0.0856744 -2.17484e-22)
(1.03012 -0.0287671 -4.94185e-21)
(1.01034 -0.000556074 1.1653e-22)
(1.01762 -0.00856975 1.14665e-21)
(-0.0568033 -0.0988679 5.6527e-20)
(0.123715 -0.027988 1.43508e-20)
(1.01408 -0.00242708 0)
(1.00786 -1.59132e-05 7.83206e-24)
(1.0714 -0.0313992 -1.27677e-22)
(0.951015 -0.0637737 0)
(1.01039 0.000261897 0)
(-0.0232828 -0.13497 -4.15769e-20)
(1.01109 -0.000347692 -1.53234e-22)
(1.0202 -0.00464939 0)
(-0.0207689 0.0131349 -2.34765e-20)
(0.605765 -0.00581042 -1.75436e-20)
(0.981752 -0.0614061 -3.90396e-22)
(1.01073 -0.00100056 0)
(1.01827 -5.43723e-05 -4.22334e-21)
(-0.0107402 -0.152717 2.61308e-20)
(1.0858 -0.0349421 -2.73696e-20)
(1.08156 -0.029091 -1.45249e-20)
(1.01768 -0.00438558 -7.10601e-22)
(0.691872 -0.0119315 0)
(1.02467 -0.10489 -4.53263e-21)
(0.796582 -0.0766843 0)
(1.06473 -0.032649 -2.53928e-21)
(1.06186 -0.0247732 1.71215e-20)
(1.02556 -0.00852655 -2.44774e-21)
(1.02604 -0.00179606 0)
(0.619702 -0.112487 -1.25032e-21)
(1.07135 -0.020671 0)
(0.554506 -0.00267666 0)
(1.01156 -0.00759813 2.22986e-21)
(1.05741 -0.0214566 0)
(0.0152197 -0.00203989 -3.96133e-20)
(0.767646 -0.0228666 0)
(0.641839 -0.00951657 -1.80865e-20)
(1.02207 -0.00226192 0)
(1.05725 -0.0174166 1.24336e-20)
(1.0108 -0.00113381 0)
(1.02947 -0.0227475 3.83644e-21)
(1.0204 -0.0100594 -7.07035e-22)
(0.416759 -0.142257 0)
(1.01149 -2.26304e-05 -2.33937e-21)
(0.645121 -0.0144066 -3.0007e-20)
(1.01025 0.000249332 -4.37567e-23)
(1.07334 -0.0288572 -1.07775e-20)
(1.0151 -0.00343149 1.41717e-21)
(1.03271 -0.0928759 9.13552e-21)
(1.05879 -0.0198049 1.56297e-20)
(1.05626 -0.0177127 1.24409e-21)
(0.725774 -0.0289945 -1.53517e-20)
(1.06514 -0.0237188 -1.03669e-22)
(1.02901 -0.0266405 -6.03654e-22)
(1.00876 -6.2069e-05 -3.63791e-23)
(1.07301 -0.0299545 0)
(0.852913 0.0182771 -8.73621e-21)
(0.986201 -0.00488815 2.83995e-21)
(1.02824 -0.0143908 -6.63943e-23)
(0.594013 -0.00554563 0)
(1.01409 0.000307011 -1.15457e-22)
(0.244529 0.0979153 0)
(0.958574 -0.0517709 -1.31989e-21)
(1.02333 -0.00706881 0)
(0.793376 -0.0247412 1.44834e-20)
(0.12355 0.231374 2.03593e-20)
(0.630243 -0.00864645 1.48659e-20)
(0.979577 -0.0833719 1.36675e-22)
(1.01137 -0.00557452 -1.32689e-21)
(1.01401 -0.00266497 9.73772e-24)
(0.694178 -0.0224175 0)
(1.01691 -8.13716e-05 3.88189e-21)
(0.76946 -0.157587 -1.8447e-21)
(0.641728 -0.0114867 0)
(1.01247 -0.00205631 -6.24395e-23)
(1.04034 -0.00537232 7.8801e-21)
(1.05734 -0.0922075 0)
(0.888341 0.101253 -1.42496e-20)
(0.360262 -0.197355 -8.03612e-22)
(1.02385 -0.0052292 0)
(1.00954 -6.11527e-05 -3.12296e-22)
(0.549465 0.0811567 0)
(0.649212 -0.0119258 0)
(1.07874 -0.0424094 -2.95515e-20)
(1.03054 -0.0180778 -3.33528e-21)
(1.01721 -0.00393042 2.28e-22)
(0.952896 -0.0797166 1.29761e-21)
(-0.048045 0.00459629 3.82023e-20)
(1.07554 -0.0343113 0)
(1.00978 0.000210433 4.82997e-24)
(1.03017 -0.0299326 5.15909e-21)
(1.01006 -0.000698561 -9.20502e-24)
(1.01083 -0.000138984 -7.3424e-22)
(1.01393 -0.024756 -7.29128e-23)
(1.00765 -4.77403e-05 2.92107e-22)
(0.890463 -0.12849 2.11833e-21)
(0.966422 -0.08177 -4.70559e-23)
(1.02022 -0.004864 5.56881e-22)
(1.01752 -0.00198855 -1.76338e-22)
(1.01419 -0.00270559 7.99268e-23)
(1.02471 -0.0126155 0)
(0.568028 -0.00499743 -9.05324e-21)
(0.676461 -0.0249021 -1.59795e-20)
(1.04553 -0.0228516 0)
(0.438802 -0.195684 -4.99251e-21)
(1.0151 -0.00333087 -1.47914e-21)
(1.0438 -0.0233604 1.56337e-21)
(1.01382 -0.00253467 0)
(1.01014 -0.000739486 -1.84521e-23)
(1.0206 -0.00700364 0)
(1.01988 -0.00481649 -5.31362e-22)
(0.600447 -0.0064598 -1.94504e-20)
(1.02085 -0.0025591 0)
(1.06949 -0.0251558 -8.43649e-22)
(1.02222 -0.00252828 1.58983e-21)
(1.03134 -0.0189736 3.28595e-21)
(1.01867 -0.0310175 4.00791e-22)
(0.0171131 -0.148131 2.48719e-20)
(1.01089 -0.000235739 -4.0896e-22)
(0.526398 0.179576 -1.92724e-21)
(1.03864 -0.022067 -2.17558e-22)
(1.04767 -0.0401427 0)
(1.03572 -0.026328 3.45715e-21)
(1.0407 -0.027499 0)
(0.545412 -0.00325631 -9.62906e-21)
(1.04718 -0.0172542 -3.58474e-21)
(1.01769 -0.0270551 1.39003e-22)
(0.41844 -0.125397 1.93781e-21)
(0.906995 -0.181836 -5.8332e-21)
(-0.0368867 -0.051236 -3.54647e-20)
(1.04412 -0.0341424 0)
(0.892253 0.0542021 4.85162e-22)
(1.01934 -0.00791804 -4.6238e-22)
(1.06417 -0.0231544 7.74807e-21)
(1.06371 -0.0318106 1.28041e-20)
(0.372664 -0.195472 0)