/*--------------------------------*- C++ -*----------------------------------*\
| =========                 |                                                 |
| \\      /  F ield         | OpenFOAM: The Open Source CFD Toolbox           |
|  \\    /   O peration     | Version:  v2012                                 |
|   \\  /    A nd           | Website:  www.openfoam.com                      |
|    \\/     M anipulation  |                                                 |
\*---------------------------------------------------------------------------*/
FoamFile
{
    version     2.0;
    format      ascii;
    class       volVectorField;
    location    "200";
    object      ddt0(U);
}
// * * * * * * * * * * * * * * * * * * * * * * * * * * * * * * * * * * * * * //

dimensions      [0 1 -2 0 0 0 0];


internalField   nonuniform List<vector> 
14315
(
(-0.000327969 0.0010219 -1.47587e-21)
(-0.000944562 0.000262285 -2.7158e-22)
(6.1584e-05 -5.42125e-05 8.90622e-23)
(-1.15822e-05 -2.52241e-06 -7.05535e-23)
(-7.55656e-06 1.81938e-05 -2.311e-22)
(1.45248e-07 -1.05541e-06 9.63766e-23)
(4.77765e-05 -0.000179504 1.09448e-23)
(-1.88924e-05 -3.67332e-05 -5.03607e-22)
(-0.00311668 0.00185202 1.21285e-21)
(2.95878e-06 -0.000253771 0)
(-0.000173575 2.22783e-06 -3.05469e-22)
(0.00102941 0.000277765 -1.33789e-22)
(0.00202875 0.00135603 -1.52909e-23)
(6.48235e-07 -1.16044e-06 2.66541e-22)
(2.23576e-06 -0.00020318 0)
(-6.4099e-06 -7.00996e-06 7.6295e-22)
(-1.27877e-06 -3.62267e-07 -4.21607e-22)
(0.000605772 0.000457543 3.49989e-22)
(1.20729e-05 4.86476e-06 -2.13506e-22)
(-6.80268e-06 -7.70795e-06 0)
(-7.23559e-05 -2.88944e-05 0)
(-1.48814e-05 1.59391e-05 0)
(-1.01528e-05 -1.96077e-06 -8.68364e-24)
(-0.000170475 -3.8682e-05 7.35105e-22)
(-0.0041281 -0.00349438 3.21528e-22)
(5.38504e-07 -1.37e-06 -1.92475e-22)
(2.5556e-05 3.57615e-05 1.01418e-22)
(-6.03203e-05 -0.00026494 3.74689e-22)
(0.000104674 7.47453e-05 0)
(8.54894e-06 -4.32806e-06 0)
(-2.25213e-05 -6.69453e-05 0)
(1.16478e-05 -4.80065e-06 2.96608e-22)
(0.000754108 0.000914108 -1.13915e-22)
(0.000697952 -0.000820713 -1.91593e-22)
(1.63783e-05 -7.97303e-06 -9.07946e-22)
(1.13477e-05 -4.84115e-06 -2.68671e-22)
(1.03393e-05 4.75208e-06 -2.05179e-22)
(1.4356e-05 -8.1455e-06 0)
(-2.03684e-05 -2.19213e-06 7.48311e-25)
(-1.76736e-06 7.2333e-07 7.31309e-22)
(-0.00268944 0.00198462 -1.01846e-21)
(5.7181e-07 -3.00365e-06 -7.48084e-22)
(5.42919e-05 7.46049e-05 2.20085e-22)
(-2.56121e-05 3.04185e-05 -2.98746e-22)
(-0.000264963 -6.07717e-05 9.49355e-23)
(-1.94697e-05 7.03122e-06 0)
(4.93121e-05 -3.97222e-05 0)
(-9.15785e-05 -0.00020463 -1.32176e-21)
(-8.91451e-06 -1.09799e-05 1.72907e-21)
(5.34635e-05 6.86065e-05 -1.16327e-22)
(1.05729e-05 4.52012e-06 0)
(-7.55406e-05 -0.000146831 -1.91602e-24)
(2.91549e-05 -2.02116e-06 -9.25908e-23)
(8.4273e-06 -1.69198e-05 5.5166e-22)
(2.67987e-05 2.20849e-06 -1.07516e-22)
(1.09343e-05 -5.591e-07 0)
(0.000409105 -0.00266806 2.54213e-21)
(-0.000109314 -6.39386e-05 0)
(6.49642e-07 -1.30898e-06 0)
(-0.00363673 -0.00350262 -2.56488e-22)
(6.00668e-06 -1.19007e-05 -4.68272e-22)
(-1.89942e-05 8.75481e-06 2.54832e-22)
(-2.77576e-05 -4.42198e-05 0)
(3.25568e-05 -3.11458e-05 1.08975e-22)
(-1.18755e-06 6.94699e-07 -3.72426e-22)
(-5.91513e-07 1.33159e-06 0)
(7.93813e-05 -5.19598e-05 -1.90934e-22)
(-1.97031e-05 -6.58668e-05 0)
(1.77209e-05 -1.21379e-05 0)
(1.09474e-05 -4.51369e-06 -3.41149e-22)
(1.99824e-05 5.17632e-05 2.13231e-22)
(2.34328e-05 -4.46196e-05 0)
(5.22734e-05 1.36221e-05 1.84473e-22)
(4.05008e-06 -1.04134e-05 -2.30445e-22)
(-1.06115e-06 -4.01816e-08 2.84021e-22)
(-2.85855e-05 -8.47322e-05 -1.83555e-22)
(3.45326e-05 -4.20137e-05 0)
(-4.25079e-05 7.75147e-05 1.12457e-22)
(1.06646e-05 -4.43559e-06 2.73957e-22)
(-0.000126975 9.07828e-05 -2.82705e-22)
(-1.82343e-08 1.58476e-07 4.81724e-22)
(-0.00400031 0.000643797 0)
(-1.02584e-05 -1.01367e-05 -5.23039e-22)
(2.27137e-05 -5.87459e-05 0)
(3.73619e-05 5.3165e-07 -7.19169e-23)
(-0.00128707 -0.000904531 4.3315e-22)
(-0.000286877 -3.86903e-05 4.88614e-24)
(6.84455e-05 4.2214e-06 0)
(6.36767e-05 1.5883e-05 0)
(2.39118e-05 6.92297e-05 -2.08003e-22)
(-9.74183e-05 -5.56117e-05 -1.60697e-22)
(0.00256932 0.000119582 -7.834e-22)
(0.00329722 0.00210805 0)
(4.24734e-07 -2.15343e-07 0)
(9.48837e-06 1.74351e-07 -2.58505e-22)
(8.6908e-08 9.5658e-08 -5.56503e-22)
(4.04085e-05 -6.52483e-06 -5.45343e-23)
(-4.13691e-05 0.000137086 2.2553e-23)
(9.16084e-06 -3.97806e-07 0)
(5.35261e-07 -2.88449e-06 3.31175e-22)
(4.00709e-07 -9.36674e-07 0)
(-0.00012586 -0.00135609 7.20835e-23)
(-9.13895e-06 -1.73986e-06 2.18956e-23)
(1.95315e-05 4.47612e-05 0)
(8.50872e-05 2.79022e-06 0)
(-1.91675e-06 6.81374e-07 4.92939e-22)
(-1.70018e-06 4.63875e-07 -3.77966e-22)
(-3.9937e-05 -1.43101e-05 -1.56136e-22)
(1.93772e-05 7.22801e-06 7.29871e-23)
(-5.72612e-05 -0.000100788 0)
(6.95669e-06 0.000118473 0)
(-6.63421e-05 -4.6686e-05 -2.16436e-22)
(-0.000180163 -7.9806e-05 -9.81225e-22)
(-0.000158105 -0.000169919 2.65283e-22)
(-1.69487e-05 1.81838e-05 -9.44788e-22)
(-7.5678e-05 -0.00013446 1.87288e-24)
(8.47155e-05 8.90062e-05 -1.2406e-22)
(1.79403e-05 -9.37694e-06 5.75626e-22)
(0.000124138 -0.0027663 0)
(-0.00254235 0.000326864 2.20525e-21)
(-0.00014939 -0.000183243 4.29319e-22)
(-1.2218e-06 -4.08257e-07 3.64306e-22)
(1.11858e-05 4.65933e-06 3.86766e-22)
(-0.000136771 5.11975e-05 -2.30363e-22)
(-0.000758498 0.000168201 -4.12803e-22)
(-1.33448e-06 2.21258e-06 2.28559e-22)
(-0.000931569 0.00220293 -2.91747e-22)
(-0.000450772 0.00115848 1.29407e-21)
(1.49037e-05 1.75291e-05 0)
(4.90171e-07 -9.58574e-07 0)
(-5.73579e-05 -8.14824e-05 0)
(0.00140905 0.00235042 0)
(0.00517812 -0.00706948 -3.05912e-21)
(0.000799624 -0.00254714 3.87402e-23)
(-4.19648e-05 -8.27819e-05 -1.16818e-21)
(1.7132e-05 1.47337e-05 0)
(-0.000692021 -1.78143e-06 -3.16907e-23)
(-0.000161404 -0.000171721 -1.34304e-22)
(-0.000334584 -0.000850033 0)
(-0.00213058 0.00173377 0)
(-0.000359521 -2.75988e-05 1.45993e-22)
(-0.000866709 0.000140168 -6.67582e-23)
(8.86045e-06 -4.36992e-06 0)
(0.000625952 0.00222477 0)
(-0.000239571 -2.82688e-06 1.59383e-22)
(2.81496e-06 -1.0557e-05 2.12152e-22)
(-0.000179254 -5.24182e-05 -4.2961e-22)
(-0.000126834 -3.78464e-05 -3.63338e-22)
(-3.68292e-05 -5.80601e-05 0)
(-6.50133e-05 -9.65731e-05 0)
(3.90722e-07 -9.36096e-07 4.41053e-22)
(-3.37275e-05 -1.51153e-05 2.20796e-24)
(-6.36637e-05 -3.17765e-05 -7.62636e-23)
(-3.42025e-05 -4.06059e-06 2.19326e-24)
(0.000189284 -0.000285754 3.12683e-25)
(1.78469e-05 5.86448e-06 -5.76428e-23)
(-5.25207e-06 7.04642e-06 -2.82907e-22)
(-3.58654e-05 -1.801e-06 -1.79572e-25)
(0.000934658 -0.0034098 0)
(-0.000128789 6.16473e-05 6.25094e-23)
(-2.13546e-05 -2.41381e-06 -3.05955e-22)
(4.05145e-07 -1.54713e-06 -2.24204e-23)
(8.06178e-05 -0.000411609 2.5384e-23)
(-3.60693e-05 -5.70679e-05 -3.07362e-22)
(-6.31501e-06 -1.4868e-06 0)
(-0.00173539 -0.000549175 4.07839e-22)
(-1.92428e-05 -2.13701e-06 0)
(-2.30776e-06 -1.65256e-05 -5.25135e-22)
(4.88122e-06 -7.95351e-07 1.1432e-22)
(1.78618e-07 -9.76225e-07 0)
(0.000587666 -0.00255064 0)
(0.00268376 8.74153e-05 2.09448e-22)
(4.38827e-05 0.000163839 -2.28614e-23)
(-2.26546e-05 4.01648e-05 0)
(0.00427855 -0.0011435 0)
(0.00632737 -0.00470416 1.69269e-21)
(0.00096712 0.000102791 0)
(-1.04282e-06 2.12003e-06 -1.08462e-21)
(-0.000182439 -4.3362e-05 1.18184e-22)
(-0.000151851 -0.000180613 -1.90092e-22)
(-0.000268808 0.0012076 0)
(-0.000134973 6.28022e-05 6.022e-23)
(3.34557e-07 -9.01503e-07 -4.63491e-22)
(0.000149071 7.52019e-05 0)
(-6.95605e-05 -2.59719e-05 -2.91071e-22)
(-0.00352053 -7.00094e-05 2.60004e-21)
(-2.41569e-06 0.000124356 2.50927e-23)
(-1.16275e-05 0.00011699 -4.50073e-23)
(5.27713e-05 1.27009e-06 2.21677e-22)
(-3.63915e-05 -5.8946e-05 9.08471e-23)
(1.73932e-06 -4.16487e-05 -3.63135e-22)
(0.00521945 -0.00204018 0)
(-0.00031114 -0.000685196 -1.44883e-22)
(-3.55017e-05 -1.67226e-05 7.99302e-26)
(-1.35472e-05 0.000120368 0)
(2.79305e-05 6.96509e-06 -6.5174e-22)
(0.000499445 0.00138284 0)
(5.86746e-07 -6.65079e-07 2.15803e-22)
(-2.20535e-05 -4.20591e-06 3.67487e-22)
(-5.01864e-05 -8.31061e-05 3.18881e-22)
(0.000621367 0.000782056 9.90875e-24)
(6.47979e-07 -6.70144e-07 -3.19911e-23)
(0.000127182 -0.0015621 0)
(2.11269e-06 -9.40377e-06 -6.35023e-22)
(-1.17071e-05 -1.12094e-06 2.66803e-22)
(-1.62617e-06 3.17435e-06 -9.3889e-22)
(3.04295e-06 -3.63556e-05 6.8793e-22)
(-3.634e-05 4.75684e-05 5.26804e-22)
(-3.0958e-05 -0.000175639 0)
(-3.3073e-05 -1.69451e-05 4.61729e-24)
(4.345e-05 -7.89571e-07 -2.1925e-22)
(4.92364e-06 -1.16608e-05 3.71306e-22)
(5.10511e-05 -0.000179785 0)
(-2.84813e-06 -1.55853e-05 1.04475e-22)
(0.000930524 0.000790534 1.3924e-22)
(-2.96697e-05 -3.13182e-06 0)
(-0.0005822 -0.000398069 0)
(5.24678e-07 -8.21552e-07 0)
(2.9935e-07 -9.96765e-07 0)
(4.40074e-06 -6.235e-07 -1.1084e-22)
(-0.000943122 -0.000319903 0)
(1.06096e-05 -1.88209e-06 -2.47253e-22)
(-0.000242003 -0.00012318 0)
(0.00514339 -0.00665241 3.32946e-21)
(-3.58562e-05 7.78392e-05 -2.27079e-22)
(-1.41632e-05 -5.12863e-06 0)
(9.44746e-05 8.41783e-05 5.4561e-23)
(-3.59128e-05 -5.71008e-05 1.53713e-22)
(1.0624e-05 5.12981e-06 -6.03994e-22)
(-1.05633e-05 -1.51878e-05 0)
(3.0339e-05 4.20952e-06 3.65563e-22)
(0.00284929 -0.0013668 -3.64672e-22)
(3.65148e-05 -4.1225e-05 0)
(-0.000299976 -0.00218853 2.88036e-23)
(-4.52547e-06 1.12218e-05 -4.18425e-22)
(-3.11849e-05 2.39869e-05 0)
(-3.6483e-05 1.26279e-05 5.03808e-22)
(2.75729e-05 5.23644e-05 -2.77795e-22)
(7.67452e-05 -9.2527e-05 -5.99587e-22)
(-0.00122749 -1.60312e-06 -1.04629e-22)
(-0.0017653 -0.00313672 2.47015e-22)
(-3.26877e-05 -5.31895e-05 -1.59332e-22)
(-5.53222e-07 1.32425e-06 0)
(0.00633538 -0.00657852 0)
(-0.00102669 -0.000669848 0)
(-0.000477855 -0.000143729 -4.58395e-24)
(-0.00109665 -0.00270118 6.84383e-23)
(0.000178731 -0.000151779 0)
(1.00689e-05 4.86198e-06 4.59434e-22)
(3.35126e-06 1.12561e-06 4.8773e-22)
(-5.98037e-06 5.76658e-06 -3.15738e-22)
(9.10101e-06 4.86035e-05 -2.10065e-22)
(0.00112882 -0.000255869 -1.08705e-22)
(1.04097e-05 5.18546e-06 -4.14324e-22)
(-1.55431e-05 -4.16974e-05 7.19802e-23)
(0.00388144 0.000673067 -5.04427e-22)
(-0.000730319 -0.000716371 0)
(-0.000227309 -0.000206699 2.83409e-22)
(-0.000165662 3.59899e-06 0)
(1.0441e-06 -9.44865e-06 0)
(-0.000113198 -0.000523525 1.66901e-22)
(-6.88075e-06 1.28925e-05 -4.97188e-22)
(-2.81524e-05 -3.86887e-06 0)
(0.000113411 -0.000521287 1.51265e-22)
(-1.33839e-05 -2.90054e-05 5.59789e-22)
(-7.93008e-05 0.000242895 0)
(0.000223779 0.000119744 5.70489e-23)
(-4.94744e-05 0.00101717 0)
(-6.33066e-05 -2.80317e-05 -3.17427e-22)
(-2.02037e-05 -6.21808e-05 0)
(-3.95235e-05 -0.000931009 1.42941e-20)
(3.77156e-07 -6.03843e-08 0)
(5.94129e-06 6.78903e-07 -4.46514e-22)
(-0.0004381 -5.42024e-05 0)
(1.57493e-06 -6.84634e-07 7.46729e-23)
(9.19291e-05 -0.000193604 -7.49779e-24)
(0.000238664 8.69589e-05 3.17978e-22)
(-3.30834e-05 -1.41496e-05 -4.20266e-24)
(8.68144e-07 -1.57776e-05 4.85575e-24)
(-6.04001e-05 -2.54766e-05 1.54112e-22)
(-1.00658e-06 7.21074e-08 3.17106e-22)
(-3.55846e-05 -5.75396e-05 3.21688e-22)
(-1.6635e-05 -7.64515e-06 -1.26712e-23)
(8.49983e-07 -6.62067e-05 0)
(-7.57824e-06 1.71966e-05 4.9866e-22)
(-0.00302502 0.00162715 -4.77972e-22)
(0.00140235 -0.000353632 1.51355e-22)
(-3.24442e-05 -6.76515e-06 8.05583e-23)
(-7.16869e-05 -8.24759e-05 3.21191e-23)
(-1.02049e-05 4.43569e-05 -7.59276e-22)
(7.28166e-05 -0.000208115 1.87039e-22)
(6.38303e-07 -7.15341e-07 -4.11965e-22)
(-6.69204e-06 -1.2372e-06 3.7165e-24)
(-0.000557339 0.000314703 0)
(8.35126e-06 -4.70649e-06 0)
(4.31064e-07 -1.52283e-06 3.7333e-22)
(0.000143599 -3.82938e-05 1.08429e-23)
(2.14167e-05 -0.000271498 0)
(6.27543e-07 -1.44684e-06 -2.48566e-22)
(-0.00148846 0.00712105 0)
(-0.000147207 8.52617e-05 0)
(6.17657e-07 -1.15548e-06 -1.44773e-22)
(6.3008e-07 -1.26984e-06 -7.38161e-22)
(7.27082e-05 7.65947e-05 1.25348e-22)
(-1.20453e-05 -3.62722e-06 0)
(-5.50822e-05 -5.25057e-05 0)
(2.01077e-05 5.10766e-05 1.51148e-22)
(-0.000149213 7.12061e-05 -1.49689e-22)
(-1.43333e-05 -2.69081e-05 -3.94188e-22)
(-2.68977e-05 -4.65637e-05 6.50118e-23)
(-2.06405e-06 -1.3491e-05 -4.94602e-23)
(-4.91554e-07 -1.42942e-05 -8.55491e-23)
(-0.000102986 2.9563e-05 -2.07734e-22)
(-6.45634e-05 -8.79172e-05 0)
(0.000187359 5.55034e-05 4.08838e-23)
(0.00204306 0.00250687 1.21451e-21)
(-0.00214417 0.0013839 1.15234e-21)
(-0.000185462 -0.000515142 -1.90557e-21)
(1.32663e-06 -8.29553e-07 3.65493e-23)
(-0.00127659 0.000481298 -4.6006e-22)
(9.93122e-07 -2.39278e-06 0)
(4.99512e-07 -2.55574e-06 -6.32042e-22)
(-0.000228154 -0.00643495 -2.94713e-22)
(3.02309e-07 -1.34429e-06 0)
(3.88757e-05 6.91955e-05 0)
(-3.61531e-05 -1.02526e-05 0)
(-0.000678309 -0.000455139 2.2504e-22)
(-1.1192e-06 6.88603e-07 1.00629e-21)
(0.000276277 -1.66269e-05 -1.55462e-22)
(0.000135929 -7.33562e-05 -2.4717e-24)
(-0.000520937 0.000759496 3.07679e-22)
(-0.00072984 -0.000846732 4.23355e-22)
(0.00295643 0.000157469 7.42884e-22)
(-0.00266066 -0.000172868 5.64172e-23)
(0.000246345 -0.00198667 0)
(5.69049e-06 -1.08016e-06 1.81628e-23)
(0.00219697 0.00149216 0)
(-1.2319e-05 -1.60843e-05 0)
(0.00367916 -0.00160447 -1.09285e-22)
(2.19578e-05 7.78007e-06 2.43536e-22)
(-1.75233e-05 -6.05408e-05 0)
(-0.00145912 -0.00285506 -2.72896e-22)
(0.00288011 8.86329e-05 -6.85559e-22)
(0.000128771 9.65807e-05 1.8764e-23)
(5.4461e-06 -1.26226e-06 1.93576e-23)
(-0.000888228 0.000448661 3.76539e-22)
(7.93031e-06 -0.000450457 0)
(-0.00285937 0.00199983 -3.80141e-22)
(1.03982e-05 4.18284e-06 0)
(2.41148e-05 5.39112e-06 4.47192e-22)
(-0.002956 -0.00312994 -2.80538e-22)
(-0.00170988 -9.96469e-05 -3.75015e-24)
(-8.07668e-07 -2.11791e-08 -2.88391e-22)
(-6.8437e-05 -0.000106968 -2.62519e-24)
(-2.03295e-06 -6.26005e-05 -4.68751e-22)
(-0.00032451 -6.27423e-05 6.05211e-24)
(-3.30112e-05 -5.20256e-05 1.76404e-22)
(-0.00268112 -0.00254492 6.70145e-24)
(0.00460189 0.000762357 0)
(0.000196647 -0.000102789 3.50856e-24)
(-3.43697e-05 -4.49136e-05 0)
(6.21717e-06 -0.000492471 0)
(1.56165e-05 -1.06239e-05 0)
(8.66977e-05 -1.45611e-05 -4.69396e-22)
(1.52178e-05 -1.21824e-05 0)
(-3.24312e-05 -4.63338e-06 0)
(-7.06847e-05 -8.31077e-05 0)
(6.04487e-05 -9.4078e-05 0)
(2.98917e-05 5.9236e-05 2.84793e-22)
(-1.02424e-06 7.27237e-07 4.98996e-22)
(-0.000499959 -0.000569063 1.80929e-23)
(-0.00165716 -0.000147175 -6.75573e-23)
(-5.31147e-05 -2.49717e-05 -1.85463e-22)
(0.00133384 0.0021362 -8.45666e-22)
(-7.11091e-06 -1.05053e-06 -2.12956e-24)
(-4.90682e-06 -6.34358e-06 3.89622e-22)
(0.00285592 0.000514425 0)
(-0.00129643 1.57026e-05 0)
(-8.51889e-06 -7.34165e-05 -2.19556e-23)
(-3.18316e-05 9.48583e-05 0)
(0.000203907 0.000135789 9.56724e-23)
(-1.48654e-05 -9.56649e-06 0)
(0.000278015 0.000144644 -2.63385e-22)
(0.000576876 -0.000239687 -2.62239e-22)
(-3.90487e-05 -0.000114226 -1.43413e-23)
(-0.000149466 -7.14675e-05 6.27192e-23)
(0.002739 0.000847948 0)
(1.04645e-05 4.36307e-05 -2.45698e-22)
(0.0050862 0.00293618 0)
(-6.26593e-05 4.36871e-05 -3.12241e-22)
(0.00198313 -5.87398e-05 -1.76579e-22)
(2.93288e-05 0.000142135 2.42243e-24)
(5.10052e-05 -1.80596e-05 -1.40069e-22)
(-7.78663e-06 -1.37317e-06 -1.70511e-24)
(-4.96325e-05 -0.000101611 0)
(-1.61002e-05 -1.40528e-06 -5.3098e-24)
(6.33355e-06 6.64238e-07 3.92945e-22)
(-3.08085e-05 2.73127e-05 1.21031e-22)
(-6.5748e-05 -9.73726e-05 0)
(-0.000966567 4.23113e-05 0)
(4.70595e-05 2.11264e-05 -1.88525e-22)
(-1.80542e-06 7.69034e-07 -4.79366e-22)
(0.0006749 0.000701406 -2.6349e-22)
(-9.48225e-06 -1.59757e-05 -3.58551e-22)
(-0.000217083 -0.0023536 3.24896e-22)
(-0.000492448 -8.38956e-05 0)
(0.00101406 -0.00208236 -5.12855e-22)
(-5.85483e-05 -4.58877e-05 -1.54504e-22)
(-0.000143406 -4.81199e-05 5.83124e-23)
(-6.92088e-06 -6.97199e-05 -2.79175e-22)
(1.12813e-05 -9.00025e-06 -1.84364e-22)
(-5.09415e-06 -7.10417e-06 8.08706e-22)
(2.87608e-06 3.53101e-06 2.56234e-22)
(-3.24085e-05 -0.000210198 7.99826e-24)
(-3.54828e-05 -5.72331e-05 -1.6021e-22)
(-2.14284e-05 0.000121418 5.40498e-23)
(3.22929e-05 0.000158916 2.4939e-23)
(-0.000195675 -5.47641e-05 0)
(1.42616e-05 4.22853e-05 0)
(-0.00281597 0.0046665 5.56029e-23)
(0.00235307 0.000363399 -1.27099e-23)
(-0.0026853 0.00169384 3.53738e-22)
(-0.000157494 0.000108796 2.68133e-22)
(5.96422e-07 -1.40384e-06 -7.47044e-23)
(-4.01819e-05 -2.62045e-05 -1.5176e-24)
(-9.72828e-05 3.5707e-05 1.99046e-22)
(-0.000134211 -4.18292e-05 -5.96974e-23)
(6.35148e-06 -1.13607e-05 0)
(0.00234812 0.00211723 0)
(0.000269755 0.000239628 -1.03446e-22)
(-0.000490359 -0.000936145 -3.95469e-22)
(0.000147954 0.000114988 -7.02033e-22)
(-1.57214e-06 1.65179e-06 1.2932e-22)
(-0.000322813 0.000465585 0)
(0.000731759 0.000103398 5.24425e-22)
(1.16385e-05 -8.18199e-06 6.54399e-23)
(-0.00319707 0.00159917 2.1012e-23)
(-0.000124908 0.000222294 2.20722e-22)
(-0.000106013 -5.31846e-05 -7.17922e-23)
(2.09872e-07 -8.40216e-07 0)
(-0.000171057 -0.000199482 0)
(8.29778e-06 -5.44384e-06 1.56549e-22)
(5.67809e-07 -4.06363e-07 1.47984e-22)
(-0.000747686 -0.00104957 0)
(-0.00231106 -0.00219347 6.38227e-23)
(7.67508e-05 -0.000182677 -8.05093e-23)
(8.54499e-06 -5.17495e-06 -2.49296e-22)
(8.0746e-06 -6.14625e-06 -2.14082e-22)
(7.95897e-06 -8.53549e-07 1.97756e-22)
(-3.4455e-06 1.61535e-06 2.27262e-24)
(0.000353846 0.000246505 -2.67007e-22)
(-1.48774e-06 1.8316e-06 -5.72012e-22)
(-0.00389044 0.00253218 0)
(-0.00120665 0.00484976 0)
(8.57377e-06 -6.40774e-06 0)
(0.000889244 -0.000556748 7.69718e-22)
(-3.53504e-05 -1.54414e-05 0)
(0.000472562 -0.00100128 4.12061e-22)
(-4.08916e-05 2.14856e-05 -6.42463e-23)
(0.000294794 3.75253e-05 1.64272e-22)
(-0.00463919 0.00626484 5.206e-22)
(-1.73354e-05 -1.76614e-06 6.82168e-24)
(-0.000211589 -0.000234683 -6.03685e-22)
(0.00191233 -0.00179284 -6.63936e-23)
(-0.000154626 -0.000176401 1.82537e-22)
(-3.27362e-05 -1.5802e-05 0)
(0.00118685 0.000313291 -3.80932e-22)
(-0.00239831 -0.00122408 6.28486e-22)
(-0.00105128 0.000207837 9.5165e-22)
(-7.08082e-05 0.000127712 0)
(-0.000111687 -0.000211854 -1.0095e-22)
(1.75046e-05 0.000138971 1.09357e-23)
(3.60996e-06 -5.64512e-06 0)
(-5.65206e-06 1.28076e-05 2.5837e-22)
(-8.98574e-07 2.4687e-06 4.54159e-22)
(-3.75289e-05 -1.6184e-05 6.5582e-22)
(-7.89797e-05 5.87029e-05 4.51721e-22)
(-0.00218635 0.00700028 -1.03107e-22)
(-5.39201e-07 6.11918e-07 1.15919e-22)
(-9.46724e-05 0.000123209 -3.86621e-22)
(-0.000577452 -0.00187405 -1.5012e-23)
(-1.03624e-06 -1.1873e-08 0)
(-0.0034265 0.00377919 3.0844e-21)
(0.000147494 5.64912e-05 0)
(1.74986e-06 -1.66883e-05 2.16913e-23)
(-0.00330813 0.00350098 -5.744e-23)
(-0.00015288 -0.000183659 0)
(-2.23555e-05 -4.69455e-06 -4.64368e-22)
(-0.000965725 0.000283922 9.61287e-23)
(-1.99159e-05 3.71342e-05 0)
(-0.0029626 -0.00183036 1.60831e-22)
(8.7533e-06 -2.39466e-07 -1.3805e-22)
(-2.02197e-06 2.93572e-06 0)
(0.000208401 3.87905e-05 0)
(-0.00349475 -0.00210207 3.93855e-23)
(-0.000140921 -6.21411e-05 6.18672e-23)
(-0.000495762 0.000230291 0)
(-1.65618e-05 -3.17393e-05 5.11015e-22)
(-2.64598e-05 2.83334e-05 -4.86705e-22)
(-2.82528e-07 -2.06631e-07 -4.77629e-22)
(0.000669008 -0.00106943 -3.03611e-22)
(5.82374e-05 5.02203e-05 2.00667e-22)
(0.00103238 0.00106485 0)
(3.4608e-06 9.65916e-07 -3.91394e-22)
(-0.00026609 -0.000391532 0)
(2.92834e-06 3.36741e-05 -2.29049e-22)
(-4.0018e-05 -2.45202e-05 0)
(-4.14636e-07 -1.07562e-06 -2.99174e-23)
(-3.58358e-05 -7.60047e-06 -8.52404e-23)
(3.86855e-05 -2.6302e-05 5.359e-22)
(-0.000245545 0.000436308 -2.21551e-25)
(1.24377e-05 2.4007e-07 0)
(-8.85939e-06 1.54271e-05 4.42419e-24)
(0.000650896 -0.00311891 3.81036e-21)
(-2.18789e-05 -4.3176e-05 -4.13853e-22)
(-0.000121878 -5.81739e-05 1.51991e-22)
(-3.94724e-05 0.00011747 -2.82099e-23)
(0.000686201 0.000958675 2.23428e-22)
(-2.50107e-05 -3.65873e-06 -4.99018e-24)
(0.000400159 0.00186677 0)
(-2.40843e-05 -3.24273e-06 3.59381e-24)
(-0.00214239 -0.00941916 -6.95281e-24)
(0.000863808 0.00176036 0)
(0.00177429 0.000376788 -1.97845e-22)
(-3.38338e-05 -0.000252118 -1.11005e-25)
(0.00122156 0.000311004 -2.119e-22)
(-3.01972e-05 -4.38434e-05 0)
(-0.000119052 -2.1992e-05 4.29656e-22)
(-0.000475282 0.00070192 -3.25377e-22)
(4.39597e-07 1.01137e-07 -4.98035e-22)
(6.2954e-05 8.24895e-05 -2.01278e-23)
(-0.00123374 -0.00371453 1.04383e-20)
(5.30433e-07 -2.66981e-06 0)
(9.77684e-06 3.75003e-06 0)
(3.77405e-05 7.67191e-06 0)
(-1.89371e-05 -8.86403e-06 9.29401e-22)
(-6.17615e-06 -4.0115e-05 -6.24051e-22)
(-6.11945e-06 -1.40069e-05 0)
(-0.000120199 -0.00011833 1.8879e-23)
(-4.43916e-06 -1.54327e-05 6.26042e-23)
(5.14032e-07 2.58248e-07 4.66947e-22)
(-0.000935782 0.000771808 1.75473e-22)
(-8.26588e-05 -0.000505969 2.17572e-23)
(6.86951e-06 -6.09454e-05 0)
(2.61845e-05 1.53959e-05 0)
(6.96899e-07 -4.68808e-05 0)
(6.29595e-06 -1.05158e-06 -1.43113e-22)
(2.33266e-07 -7.96205e-07 3.84079e-22)
(-0.00281602 0.00178656 7.16634e-22)
(3.56792e-05 1.38701e-05 0)
(-3.27703e-06 -5.01156e-05 -1.52333e-22)
(-3.62961e-06 1.92422e-06 -3.1019e-22)
(4.83395e-06 4.50514e-07 2.33483e-22)
(-9.3879e-07 6.65687e-07 -7.44384e-22)
(-0.000146839 -0.000157781 1.765e-22)
(2.78451e-05 -1.72073e-05 0)
(-3.62963e-06 -5.81748e-06 -6.17627e-24)
(-3.51467e-05 -4.23599e-05 0)
(-2.6443e-05 -6.08302e-06 -5.33064e-22)
(2.18277e-05 1.27271e-05 0)
(-4.24959e-06 -7.63233e-06 -6.09601e-22)
(0.00269365 0.00105551 4.92751e-22)
(-0.000124055 -2.46863e-05 6.33516e-23)
(-0.00388809 -0.00335057 -1.69888e-22)
(-0.00345168 0.000381457 0)
(-7.4229e-07 -1.00091e-06 0)
(1.07333e-05 7.53509e-06 5.11042e-22)
(0.00088736 -0.000835602 0)
(0.00431695 -0.00507592 -1.56268e-21)
(-0.000299314 -0.000585096 -2.08182e-21)
(-6.05804e-07 1.39269e-06 4.59349e-22)
(2.69e-08 1.45464e-08 4.9657e-22)
(-0.000287092 -0.000649773 0)
(0.00023971 -0.000211308 -3.37024e-24)
(9.15324e-05 0.0016054 1.24291e-22)
(0.000370799 0.00163992 2.64208e-23)
(0.00114222 0.000153982 0)
(7.73339e-07 -9.43706e-07 -8.80649e-22)
(-0.00012988 -0.000180555 0)
(-5.3621e-06 0.000648702 -3.3759e-22)
(5.63795e-05 -7.45935e-06 4.68971e-22)
(-0.00586898 -0.00133609 -1.6665e-22)
(0.000797044 0.000256004 0)
(-0.000755118 -0.00147226 -1.98772e-23)
(5.02683e-06 -1.1475e-06 0)
(0.00152498 0.000415178 -1.5962e-22)
(-1.77132e-05 6.26696e-06 0)
(-0.00170266 -0.00671729 -8.33079e-21)
(-8.26936e-07 5.40976e-07 0)
(-0.00071707 0.00587531 -1.69734e-22)
(-2.30116e-05 -0.00013477 0)
(7.51247e-06 1.36979e-05 -1.28789e-22)
(-0.000130009 -0.000219822 0)
(0.00624911 -0.00248418 -1.43366e-20)
(-0.000665444 -0.000617606 1.08448e-22)
(-0.000117179 -0.000209643 0)
(-1.0498e-05 -1.45583e-06 7.47031e-24)
(0.000120462 -0.000265936 0)
(-0.000891401 -0.00233443 -3.25771e-22)
(-8.23438e-05 3.85505e-05 -2.5598e-22)
(0.00184822 0.00250232 -9.22576e-23)
(5.39059e-07 -8.36434e-07 4.76803e-25)
(5.13356e-05 -0.000110378 3.73047e-22)
(-0.000211833 2.9054e-05 -2.44303e-22)
(-3.54276e-05 2.80252e-05 0)
(2.39875e-05 -1.91411e-05 2.64472e-22)
(-4.08004e-06 -5.16779e-06 0)
(-0.0008925 0.000387348 0)
(5.41633e-07 -1.12191e-06 4.9595e-22)
(-5.80751e-06 -2.29856e-06 -3.71575e-23)
(3.10793e-05 -7.37078e-05 -2.68744e-24)
(-5.25653e-06 -2.30807e-06 1.96555e-23)
(-4.03384e-06 -3.9779e-05 0)
(-8.97851e-06 -4.41557e-05 0)
(7.92302e-06 -1.00914e-06 -2.14564e-22)
(1.13954e-06 -1.94954e-06 6.06436e-22)
(9.90119e-06 1.25049e-07 6.28585e-23)
(0.000766147 0.000902014 0)
(0.000321202 5.06695e-06 3.99137e-23)
(3.43034e-07 -1.31734e-06 4.91981e-23)
(0.00211487 -0.00129605 1.49329e-22)
(-1.58659e-05 -5.20439e-05 5.61997e-22)
(-0.000763796 -0.000888534 7.9748e-23)
(-0.000498765 0.000407972 -6.29564e-24)
(0.000291977 0.000296272 1.33041e-21)
(-5.11312e-05 9.55306e-05 0)
(3.01011e-07 -1.39745e-06 4.2556e-22)
(-0.000957848 -0.00262273 0)
(-1.00001e-06 -6.95518e-05 0)
(9.71628e-06 2.4418e-07 3.70685e-22)
(-0.000118792 -0.000563366 -2.6487e-23)
(-0.000691155 0.000102077 5.5845e-22)
(-4.51649e-06 -8.13715e-06 3.87796e-22)
(0.000241153 -0.000295061 0)
(-5.8986e-07 1.55001e-06 0)
(-3.45237e-05 0.000137631 0)
(5.25426e-06 5.22736e-07 6.1842e-23)
(0.0002557 0.00216477 -1.65373e-22)
(8.30954e-05 -7.61857e-05 0)
(8.68801e-07 -1.25272e-05 -7.12534e-23)
(-2.80503e-05 -5.82712e-07 -3.93029e-22)
(2.6572e-07 -1.07787e-06 5.20761e-22)
(-6.04302e-05 9.48718e-06 -1.60443e-22)
(0.000142069 1.71271e-05 1.14525e-22)
(-0.000213183 -0.000179947 -1.51278e-22)
(-0.00012223 -0.00019856 0)
(-0.000990011 0.000333137 -5.51853e-22)
(3.59878e-07 -5.49562e-07 -2.23086e-22)
(0.000686863 -0.000167789 0)
(-0.000993049 0.000144224 1.20727e-21)
(-0.00169972 -0.00189511 -1.83622e-23)
(8.21976e-05 -2.65122e-05 -2.62389e-22)
(0.00212781 -0.00250072 -1.1361e-21)
(-7.16032e-07 4.26294e-07 -1.59818e-22)
(-0.000109333 -8.26502e-06 -5.95372e-22)
(-3.51869e-05 -2.02133e-05 0)
(0.00398057 0.00263731 0)
(3.53603e-05 -0.000108709 3.88607e-22)
(-8.63912e-05 1.34369e-05 1.45705e-22)
(-9.36132e-07 -2.06979e-07 -6.28004e-22)
(5.62359e-05 0.003188 -6.03372e-22)
(-5.75591e-07 5.87998e-07 -5.66251e-22)
(-5.58228e-05 -2.74594e-05 -1.93145e-22)
(3.62631e-05 -0.00132348 6.88728e-22)
(-3.85783e-05 2.39387e-05 -1.508e-23)
(4.21197e-06 3.78637e-06 2.58913e-22)
(4.66678e-05 -0.00164863 0)
(-0.000647342 -0.000253357 -2.77429e-23)
(-7.49095e-07 6.34917e-07 0)
(6.39422e-07 -1.09832e-06 -6.42214e-22)
(4.23061e-05 -0.000162811 -4.68077e-23)
(-0.00256466 -0.0114946 1.04865e-22)
(-0.00149794 -0.00154651 0)
(-5.82107e-07 -8.01254e-07 1.93327e-22)
(-0.00275083 -0.013147 -1.21809e-22)
(6.68692e-05 -6.02645e-06 0)
(-0.000142238 0.000117893 8.34116e-23)
(-1.12953e-05 -4.87433e-06 0)
(0.0037108 -0.00463594 1.38518e-21)
(2.2509e-06 -1.29353e-05 -1.38157e-22)
(2.84107e-05 -5.28301e-05 0)
(8.40982e-06 7.34057e-07 3.2973e-22)
(0.000252492 -0.000186936 -1.47481e-22)
(-8.81508e-05 3.35945e-05 3.21287e-22)
(-0.00492978 -0.00175724 -6.56884e-23)
(-0.00515252 0.00464313 -4.93529e-21)
(-4.23095e-06 7.15199e-06 0)
(3.70822e-06 -5.21757e-06 0)
(6.63681e-05 -2.0933e-05 0)
(1.14646e-06 -1.96377e-06 -5.92921e-23)
(-3.75833e-05 -2.27709e-05 0)
(0.00168964 0.000139337 0)
(7.50365e-06 6.19213e-06 0)
(-6.32419e-05 -0.0003904 0)
(-1.93639e-05 -2.71095e-05 5.38508e-22)
(4.59059e-06 3.84767e-06 -1.50043e-24)
(-1.70839e-05 -2.27355e-05 -1.61079e-21)
(0.000132179 0.00413898 -2.12073e-22)
(-0.000130119 -0.000205404 0)
(-0.00378964 -0.00254568 -1.13114e-22)
(9.43997e-06 5.49855e-06 -4.32466e-22)
(-2.17368e-06 6.78492e-06 2.42093e-22)
(7.00757e-05 8.31223e-05 3.9922e-22)
(1.18928e-05 9.13641e-06 -2.45097e-22)
(9.07839e-06 -2.43996e-06 2.31096e-22)
(0.000109852 -0.000222845 0)
(-3.80373e-05 -2.23313e-05 1.65583e-25)
(5.68982e-07 -8.72169e-07 -2.91623e-22)
(-0.00018508 -0.000201521 3.40988e-23)
(0.00136934 -9.31773e-05 0)
(0.000994455 -0.00256767 -3.53386e-23)
(6.15602e-07 -7.64004e-07 -2.63702e-22)
(2.90319e-06 3.88194e-06 5.39632e-22)
(-0.00175835 0.000372328 -4.35705e-22)
(-0.000529889 -0.000511002 -4.2596e-22)
(-1.63944e-05 -3.40179e-05 8.48899e-24)
(-0.00450012 0.00567499 1.63137e-21)
(7.58539e-05 9.2792e-05 -6.68647e-22)
(-0.000354377 -0.00109212 5.01901e-23)
(3.54991e-05 -8.60545e-05 0)
(2.4705e-06 -9.66631e-07 0)
(7.37443e-07 -9.87567e-07 6.1935e-22)
(0.0032012 0.00323229 3.10451e-22)
(-0.00548882 -0.00060156 2.84092e-23)
(0.000656112 -5.20033e-06 -5.90509e-22)
(0.000217985 -8.40717e-06 0)
(1.06611e-06 2.95815e-07 -5.52931e-22)
(0.00037588 -4.01829e-05 0)
(-6.20542e-06 -1.72976e-05 -1.81698e-22)
(0.00096528 0.000523973 -2.3648e-22)
(-2.0891e-05 4.41004e-05 3.90604e-22)
(2.91869e-05 -0.000101738 4.41084e-22)
(-0.00062002 -0.000985179 5.48345e-22)
(-0.000138593 -0.000184484 0)
(2.89449e-05 -0.000197857 2.74127e-22)
(0.00115404 0.000529749 0)
(-0.00183842 0.000283097 1.36991e-22)
(-1.37791e-06 -1.70022e-07 2.32435e-23)
(-2.52814e-05 3.23812e-05 3.09613e-22)
(-6.57566e-05 -2.95165e-05 -2.21011e-22)
(-6.26117e-05 -0.000429168 2.38498e-21)
(-9.87297e-07 -3.23637e-06 -6.48616e-22)
(-3.58436e-05 -2.11773e-05 0)
(-6.26987e-05 -8.66115e-05 -1.31934e-22)
(-0.000426302 -0.00153412 1.74585e-22)
(5.94643e-06 -5.65651e-05 0)
(-1.25861e-05 -5.1947e-07 1.75276e-22)
(2.44635e-05 0.000195893 -6.3264e-23)
(0.00299351 -0.00487457 -1.12777e-22)
(-0.00025752 -0.000253915 2.44847e-23)
(0.000451474 -2.19115e-05 0)
(0.00186001 -0.00116358 3.38575e-23)
(-0.000115483 -3.03023e-05 0)
(-8.43201e-06 -1.06555e-06 0)
(-0.000650698 0.000574846 0)
(0.00037629 0.000354822 -2.20526e-22)
(-0.00159886 -0.00211728 0)
(-0.00463774 -0.00031224 8.45704e-23)
(4.62634e-05 -1.98176e-06 -6.24707e-22)
(-6.93654e-05 0.000116171 5.97164e-25)
(-0.000976914 0.00249374 -1.26663e-22)
(0.00371953 -0.00920225 -9.27304e-22)
(0.000454534 -0.00120368 0)
(-6.24664e-05 1.36359e-05 -7.96822e-23)
(-0.000111539 -6.07498e-05 -7.51996e-23)
(-0.00277493 -0.00133712 1.68101e-22)
(7.67543e-06 -1.26566e-05 5.53621e-23)
(-1.2025e-06 -4.38242e-07 3.77916e-22)
(-0.000301798 -3.88684e-05 -4.81361e-22)
(0.0017822 -0.00143472 -2.56951e-22)
(8.60387e-06 7.30525e-06 -5.15506e-22)
(6.67459e-06 -1.21413e-05 1.84672e-22)
(0.000578101 0.000624456 9.95815e-22)
(-1.43444e-05 -2.2386e-06 -4.16411e-23)
(-9.1744e-07 8.6121e-07 2.27672e-22)
(1.8768e-07 3.43004e-06 0)
(-0.00209139 0.00147883 3.5709e-22)
(7.73775e-06 -3.36326e-06 0)
(-2.7424e-06 -7.13116e-06 1.53112e-22)
(0.00366748 0.0032904 -1.73246e-22)
(5.16038e-07 -1.43438e-06 2.15215e-22)
(-0.000670285 0.00112317 -1.04546e-22)
(9.96787e-06 4.10778e-06 0)
(6.84667e-05 -1.47412e-05 -2.67431e-22)
(3.73854e-07 -1.51419e-06 2.53083e-22)
(7.95633e-06 -3.14645e-06 0)
(-0.00337437 -0.00205069 1.58406e-22)
(-0.000236815 -0.00207401 5.85264e-23)
(9.22741e-07 -2.12928e-06 -4.39532e-22)
(2.61603e-07 -7.24773e-07 0)
(4.86536e-07 -5.38626e-07 -4.24647e-22)
(-0.0037566 -0.000522397 -4.29629e-23)
(-1.24842e-06 -5.43026e-07 -3.62038e-22)
(-9.32166e-07 9.29881e-07 2.25024e-22)
(-3.17841e-05 -4.54539e-05 0)
(-0.000878297 0.001986 0)
(0.000386265 -0.00203171 -1.86009e-22)
(-1.51035e-05 -6.18881e-06 2.65828e-23)
(0.0012387 0.000143222 4.28603e-23)
(-1.29419e-06 -8.23608e-08 0)
(2.25343e-05 0.000174328 0)
(-7.22839e-05 -3.96945e-05 0)
(-0.0053095 0.00241428 -7.31131e-22)
(0.0036267 -0.00407137 0)
(0.000781868 0.000153008 0)
(8.18882e-06 5.65588e-06 0)
(-0.000417388 -0.000251302 4.7639e-24)
(8.63057e-06 5.84276e-06 -4.68805e-22)
(-0.00578861 0.00129983 1.32042e-21)