/*--------------------------------*- C++ -*----------------------------------*\
| =========                 |                                                 |
| \\      /  F ield         | OpenFOAM: The Open Source CFD Toolbox           |
|  \\    /   O peration     | Version:  v2012                                 |
|   \\  /    A nd           | Website:  www.openfoam.com                      |
|    \\/     M anipulation  |                                                 |
\*---------------------------------------------------------------------------*/
FoamFile
{
    version     2.0;
    format      ascii;
    class       volScalarField;
    location    "200";
    object      epsilon_0;
}
// * * * * * * * * * * * * * * * * * * * * * * * * * * * * * * * * * * * * * //

dimensions      [0 2 -3 0 0 0 0];


internalField   nonuniform List<scalar> 
14315
(
7.83157e-07
8.23872e-06
1.03314e-06
1.52696e-06
1.45188e-06
1.45436e-06
5.84253e-07
1.24212e-06
0.00165114
8.16355e-07
7.80698e-07
1.09674e-06
7.91927e-05
1.54661e-06
5.80075e-07
1.24878e-06
1.24916e-06
0.00474887
8.26441e-07
1.24494e-06
1.58379e-06
1.15224e-06
6.09319e-07
7.84539e-07
0.000518525
1.53594e-06
3.11478e-06
8.10406e-07
3.07881e-06
6.21663e-07
1.67502e-06
6.44361e-07
0.0042421
7.28643e-07
1.33405e-06
6.41816e-07
7.69067e-07
1.3379e-06
6.24364e-07
1.48563e-06
0.00150316
1.40622e-06
1.40435e-06
1.88618e-06
1.74424e-06
1.50072e-06
1.0331e-06
8.05534e-07
1.24576e-06
1.40185e-06
7.63978e-07
1.79119e-06
6.14851e-07
8.08046e-07
6.18506e-07
1.37088e-06
1.48387e-06
7.90575e-07
1.52948e-06
0.000720264
8.04054e-07
1.49702e-06
1.62287e-06
6.83244e-07
1.13223e-06
1.01761e-06
1.03838e-06
1.67277e-06
1.32657e-06
6.41432e-07
7.41534e-07
6.7776e-07
7.14302e-07
1.31439e-06
1.20786e-06
1.24644e-06
6.82295e-07
1.48285e-06
6.38896e-07
1.97741e-06
1.11496e-06
0.00272292
1.24038e-06
6.76181e-07
6.13004e-07
0.0166866
1.73712e-06
7.0872e-07
7.13377e-07
7.4044e-07
1.62927e-06
0.00520286
7.62691e-05
1.63879e-06
8.71608e-07
1.10461e-06
6.10123e-07
5.3824e-07
8.14683e-07
1.41226e-06
1.5139e-06
6.75176e-07
6.53292e-07
1.41323e-06
7.07939e-07
1.17419e-06
1.49061e-06
1.55834e-06
1.37411e-06
1.70943e-06
1.45633e-06
1.76456e-06
1.20661e-06
2.21022e-06
1.15146e-06
1.76562e-06
1.40188e-06
1.33429e-06
0.00138264
0.00258637
7.99802e-07
1.25853e-06
8.22164e-07
1.57305e-06
2.54759e-06
1.11923e-06
0.00647959
7.94398e-07
1.08714e-06
1.52594e-06
1.73868e-06
0.000518996
0.00377847
0.000938228
1.24008e-06
1.08436e-06
0.00608917
2.17931e-06
9.83736e-05
0.00574857
1.7889e-06
2.63397e-06
6.23547e-07
0.000478305
0.00185287
1.31004e-06
1.20039e-06
7.86239e-07
1.67088e-06
1.69908e-06
1.50626e-06
4.26617e-07
6.56244e-07
7.58489e-07
5.90034e-07
1.37631e-06
1.46932e-06
5.49751e-07
1.5011e-06
1.9358e-06
1.53099e-06
1.53243e-06
0.00194482
1.67849e-06
6.05816e-07
0.0172744
6.48616e-07
1.61559e-06
7.49495e-07
1.46324e-06
0.00138229
0.00500124
1.46294e-06
1.46659e-06
0.000138437
0.00328192
1.08796e-06
1.11596e-06
1.66504e-06
1.96297e-06
0.00445763
1.56853e-06
1.49544e-06
1.38776e-06
1.57914e-06
0.00276544
1.46307e-06
1.46832e-06
1.05474e-06
1.66976e-06
1.2653e-06
0.00413873
2.8968e-06
4.21856e-07
5.35693e-07
1.36719e-06
0.000875547
1.553e-06
1.53539e-06
1.73038e-06
0.00370192
1.57687e-06
6.58936e-07
1.30938e-06
1.52349e-06
1.12217e-06
1.27237e-06
1.89825e-06
5.77339e-07
4.26977e-07
1.05178e-06
1.31352e-06
1.96737e-06
1.61183e-06
0.00445211
1.53248e-06
2.53776e-06
1.53396e-06
1.48692e-06
8.03306e-07
3.58105e-06
1.36607e-06
4.0839e-06
0.00364273
1.47812e-06
1.53951e-06
1.39889e-06
1.66907e-06
8.25895e-07
1.58515e-06
1.36151e-06
0.00137986
1.02915e-06
3.57483e-07
1.45577e-06
1.48872e-06
1.84649e-06
1.41023e-06
1.29854e-06
0.00519002
0.0208122
1.64185e-06
1.02457e-06
0.00298067
3.5761e-06
5.61887e-07
0.0172631
5.9461e-07
8.19317e-07
9.17703e-07
1.47482e-06
7.46264e-07
0.0191233
7.67634e-07
1.24588e-06
0.00168738
0.00215192
1.96255e-06
0.00191513
1.30509e-06
1.2715e-06
1.46013e-06
1.53533e-06
0.0105369
1.60874e-06
2.13563e-06
1.40816e-06
0.00393138
1.58052e-06
1.66453e-06
1.24401e-06
1.61002e-06
8.97797e-07
5.59204e-07
7.95393e-07
5.8718e-07
2.35598e-06
4.27851e-07
1.62984e-06
1.57677e-06
1.19227e-06
1.67834e-06
1.21802e-06
1.68154e-06
1.45396e-06
0.00187074
0.000306263
1.54044e-06
5.68189e-07
7.55995e-07
2.05338e-06
1.58506e-06
7.87499e-07
2.46775e-06
6.17552e-07
1.53863e-06
6.02801e-07
0.00286566
1.47795e-06
0.000824906
1.58011e-06
1.53026e-06
1.54355e-06
1.40206e-06
1.53475e-06
6.60996e-07
1.41703e-06
1.582e-06
1.603e-06
1.62722e-06
5.71892e-07
5.74717e-07
1.54937e-06
1.68222e-06
1.37964e-06
0.00188522
0.00248142
1.26746e-06
7.97039e-07
0.00312347
1.60774e-06
1.42385e-06
3.5186e-07
1.47294e-06
7.36074e-07
1.54923e-06
2.71756e-06
1.12508e-06
0.000913525
5.99223e-07
0.00246637
3.90618e-06
0.00755314
4.54303e-06
0.00107545
6.58842e-07
4.62319e-07
1.58154e-06
0.000192464
1.37419e-06
1.66399e-06
0.000951081
0.00467919
1.08253e-06
6.53868e-07
0.00345506
0.00189611
0.00164621
7.64875e-07
1.36732e-06
0.000749911
4.18645e-06
1.29406e-06
5.70482e-07
1.67509e-06
1.79347e-06
1.63771e-06
0.000159839
0.00138635
5.98041e-07
1.61873e-06
0.00190397
6.06468e-07
7.03186e-07
6.05327e-07
1.5375e-06
1.67308e-06
1.29153e-06
1.41363e-06
1.12687e-06
2.83647e-06
0.0059356
1.57536e-06
0.00205538
7.72597e-07
1.25824e-06
8.71055e-07
0.0037613
1.68633e-06
7.54113e-07
1.4112e-06
1.22528e-06
2.40379e-06
1.05846e-06
5.74825e-07
1.67653e-06
4.2258e-07
1.42226e-06
0.000913559
1.89877e-06
1.03723e-05
1.45413e-06
6.95931e-07
7.67616e-07
1.23918e-06
7.5741e-07
8.76072e-07
1.48421e-06
1.23301e-06
1.21998e-06
7.19379e-07
1.16848e-06
1.67766e-06
1.58964e-06
0.00106501
4.09311e-06
0.00317948
1.75696e-06
1.64324e-06
1.68271e-06
6.09016e-07
1.2583e-06
9.01952e-07
0.00268843
1.66961e-06
1.47584e-06
1.46492e-06
1.69142e-06
1.41898e-06
0.000958813
4.83552e-07
0.00138185
2.00655e-06
1.52372e-06
4.25486e-07
1.54137e-06
1.62984e-06
1.31962e-06
3.94636e-07
1.88941e-06
4.90485e-06
1.08146e-06
1.12996e-06
1.92498e-06
1.08167e-06
6.1221e-07
0.00153589
2.13909e-06
1.62887e-06
1.47401e-06
2.20695e-06
6.12801e-07
1.57142e-06
4.0617e-06
0.000119246
2.01535e-06
6.145e-07
6.05536e-07
6.77956e-07
1.16869e-06
1.09159e-06
1.12489e-06
0.00248417
0.000879108
6.09941e-07
0.00819071
4.24093e-07
7.35075e-07
1.50333e-06
1.38488e-06
0.000866277
7.57473e-07
1.96598e-06
0.00150411
2.19292e-06
4.28822e-07
0.00636106
0.000947213
1.21371e-06
7.5799e-07
1.96928e-06
1.46049e-06
1.3475e-06
1.45469e-06
9.88371e-07
1.5609e-06
1.91212e-06
0.00084718
1.47159e-06
7.60647e-07
4.23692e-07
1.34032e-06
0.00239875
1.37904e-06
1.63466e-06
0.000993211
2.02511e-06
1.20913e-06
1.71178e-05
1.46359e-06
0.000972301
9.81534e-07
1.13176e-06
1.37333e-06
0.000110323
1.65697e-06
2.35295e-06
1.2438e-06
1.47849e-06
1.67422e-06
0.00855896
7.26789e-07
0.0119942
9.25543e-07
2.09932e-06
7.52779e-07
4.243e-07
6.4984e-07
1.54485e-06
6.87593e-07
1.92487e-06
1.36964e-06
1.45997e-06
0.0022028
9.90744e-07
1.64064e-06
1.48896e-06
1.6752e-06
5.21266e-07
6.00893e-07
5.26219e-07
0.00012572
5.99708e-07
0.0067639
0.00242667
1.09716e-06
1.61891e-06
1.84822e-06
0.00248415
1.58579e-06
1.4062e-06
2.10282e-07
1.4205e-06
7.7262e-07
1.06679e-06
1.21566e-06
1.6419e-06
5.67392e-07
0.0157741
5.69855e-07
1.0876e-06
0.00229589
0.00190244
6.73057e-07
1.07255e-06
6.67707e-07
6.62177e-07
1.48032e-06
0.00184456
1.06997e-06
1.00346e-06
1.16343e-06
9.61934e-07
1.12128e-06
1.84908e-06
1.32533e-06
1.26827e-06
1.61374e-06
1.2066e-06
1.06916e-06
1.57549e-06
8.78205e-07
1.60639e-06
0.000406693
1.60777e-05
1.34932e-06
1.39571e-06
7.34908e-07
0.00360041
1.26597e-06
1.07108e-06
1.85321e-06
1.28013e-06
5.93512e-07
4.65912e-07
9.6792e-07
7.49518e-07
1.56233e-06
2.1829e-06
0.00295628
1.34195e-06
0.000150731
1.80003e-06
4.3525e-07
6.45899e-07
0.00594827
5.47693e-07
1.55876e-07
1.11792e-06
0.000838069
5.77102e-07
1.09447e-06
1.88453e-06
0.00174965
0.00209911
0.00197999
7.5996e-07
5.86943e-07
0.00144371
1.52645e-06
0.00175513
1.54131e-06
1.28422e-06
7.78819e-07
5.44435e-07
1.31861e-06
1.26264e-06
1.19876e-06
1.52813e-06
5.59762e-07
1.84622e-06
5.64153e-07
1.64526e-06
6.65743e-07
6.55132e-07
1.59078e-06
8.41216e-07
0.0118141
1.37891e-06
1.50345e-06
0.00147788
9.95391e-07
3.74181e-06
0.0295748
1.09733e-06
7.57428e-07
1.50924e-06
5.91798e-06
1.68446e-06
8.63084e-07
0.00194585
2.47845e-06
1.57265e-06
0.0178617
1.06374e-06
1.49547e-06
9.52102e-07
2.50576e-06
1.30553e-06
5.76214e-07
1.83297e-06
1.45683e-06
1.53325e-06
1.35961e-06
1.94836e-06
2.1513e-06
8.04022e-07
1.46401e-06
1.06606e-06
8.05811e-07
1.59435e-07
1.3308e-06
0.00577695
1.11578e-06
1.84675e-06
4.25152e-07
0.000828866
1.27803e-06
1.85979e-06
1.28005e-06
0.00454015
1.03457e-06
1.57986e-06
0.0136306
1.49794e-06
8.76567e-07
0.00990222
2.142e-06
1.02909e-06
1.54098e-06
1.92909e-06
0.00012833
0.000758334
1.35362e-06
0.000145558
1.05414e-06
1.58436e-06
1.53989e-06
0.00412053
5.79598e-07
1.02008e-06
8.08099e-07
1.04082e-06
1.53395e-06
0.000362397
0.00232246
1.45781e-06
1.3507e-06
1.04702e-06
1.58905e-06
4.24643e-07
0.00355441
1.40204e-06
1.26802e-06
1.23762e-06
8.70115e-07
1.23846e-06
0.00319077
1.96756e-06
0.000143376
8.27214e-07
1.45252e-06
7.30157e-07
1.39575e-06
1.36637e-06
2.13812e-06
4.23099e-07
1.52143e-06
0.00189778
8.49898e-06
2.62445e-07
1.54896e-06
9.01116e-07
0.00318217
1.58221e-05
9.93083e-07
0.00226629
1.08959e-06
4.46121e-07
1.84476e-06
1.41856e-06
1.56031e-06
0.0046891
8.43621e-06
1.07391e-06
1.35824e-06
1.10374e-06
1.06298e-06
1.82343e-06
0.0123245
7.60162e-07
1.84897e-06
4.6069e-06
1.95126e-06
1.96301e-06
0.0120597
0.00281543
1.22706e-06
1.47418e-06
1.78778e-06
1.27017e-06
1.32663e-06
4.24266e-07
1.75037e-06
0.0157189
1.00783e-06
1.52e-06
1.49229e-06
0.00353147
5.68899e-07
1.40706e-06
5.79455e-07
1.60654e-06
7.28655e-07
5.54436e-07
0.00543169
5.87189e-06
5.2878e-05
1.34841e-06
5.41386e-07
0.00975891
9.64956e-05
0.00375668
1.53001e-06
1.64086e-06
0.00175366
5.92611e-07
1.26927e-06
2.03505e-06
9.40532e-05
1.40185e-06
5.92612e-07
2.04375e-05
5.52089e-07
1.10464e-06
9.58896e-07
0.00198409
6.21211e-07
1.5834e-06
0.00402352
1.53518e-06
3.42114e-06
7.71433e-07
1.3361e-06
1.45483e-06
6.25957e-07
0.000604092
0.00152333
1.60424e-06
1.4923e-06
1.56097e-06
1.04677e-05
1.26333e-06
1.10187e-06
1.62271e-06
3.04537e-07
0.00154417
5.5521e-07
7.46192e-07
1.21861e-06
5.31723e-07
1.78107e-06
7.63769e-08
1.85981e-05
1.71383e-06
8.35265e-07
5.65546e-07
8.34771e-07
3.74818e-07
1.31977e-06
1.48952e-06
1.61691e-06
7.214e-06
0.00129479
1.17453e-06
1.57224e-06
0.000137757
1.36615e-06
5.28629e-07
1.55669e-06
1.82218e-06
0.012725
1.14458e-06
1.28399e-06
1.53387e-06
0.000697569
1.45039e-06
1.12455e-06
1.63757e-06
1.05675e-06
1.4938e-06
1.55241e-06
1.45006e-06
1.27275e-07
3.55876e-06
3.56978e-06
1.43637e-06
1.16859e-06
0.00535052
1.68332e-06
7.23921e-07
0.00191675
2.15544e-06
1.19289e-06
5.6493e-07
1.56189e-06
7.50026e-07
3.85455e-05
1.55701e-06
8.43252e-07
1.32905e-06
1.11977e-06
1.80182e-06
1.19806e-06
1.64226e-06
7.08287e-07
0.000139492
1.30881e-06
0.00179479
6.54114e-07
1.67226e-06
8.2794e-07
1.19999e-06
1.80256e-06
1.45257e-06
1.82325e-06
1.60111e-06
1.79982e-06
0.00513252
5.74518e-07
1.65864e-06
7.34582e-07
1.3616e-06
0.0366623
1.30143e-06
7.8244e-07
5.55657e-07
1.45832e-06
4.33528e-06
0.000910417
1.63016e-06
2.46317e-06
5.24646e-07
0.00285425
0.00348055
0.000187533
1.77041e-06
1.21424e-06
0.0129034
1.05231e-06
1.21822e-06
7.92146e-07
1.53195e-06
6.93846e-07
0.00264153
1.53344e-06
1.19955e-06
6.45287e-07
1.36519e-06
1.618e-06
4.12937e-07
2.44662e-06
8.02057e-07
0.00201097
7.15616e-07
0.0173252
5.21827e-07
2.25733e-06
1.06138e-06
8.24611e-07
1.40567e-06
1.53906e-06
5.91933e-06
4.81599e-07
1.52394e-06
1.4978e-06
8.51074e-07
5.42146e-07
0.000384654
7.52517e-07
6.6005e-07
5.45323e-07
1.34882e-06
7.56685e-07
1.58369e-06
1.49758e-06
3.70583e-06
8.32178e-07
5.52296e-07
5.64036e-07
1.7705e-06
1.6578e-06
1.11336e-06
1.30179e-06
1.20759e-05
1.34817e-06
0.00495031
1.08957e-06
0.000248667
1.53411e-06
5.56868e-07
1.43814e-06
1.48652e-06
3.46257e-06
1.12712e-07
0.00250904
0.00595121
0.0135906
1.56934e-06
1.17619e-06
1.52073e-06
0.00410821
0.00106702
6.91375e-07
1.61284e-06
0.0212964
1.61055e-06
4.37107e-07
0.0129035
1.57149e-06
1.01776e-05
1.14894e-06
0.000176966
5.00507e-07
1.77083e-06
1.08473e-06
1.40463e-07
5.32264e-07
1.10356e-06
1.39465e-06
4.13281e-05
1.5762e-06
5.62587e-07
9.36403e-07
0.00465437
1.33626e-06
4.22755e-07
8.00596e-07
1.22618e-06
1.41236e-06
5.50616e-07
1.4493e-06
0.00100695
2.90615e-05
2.60349e-06
7.5066e-07
7.94854e-07
5.24647e-07
0.000473412
5.20903e-07
1.38744e-06
8.44515e-07
1.58264e-06
1.64661e-06
0.000865177
1.40259e-06
1.28372e-06
1.23234e-06
4.26109e-07
2.61793e-05
1.54131e-06
1.65449e-06
1.34217e-06
3.14942e-06
1.09091e-06
1.16846e-06
0.000187027
9.35628e-07
8.41422e-07
1.7178e-06
2.15081e-06
1.7337e-06
9.79784e-07
1.31401e-06
1.18692e-06
1.35466e-06
8.61381e-07
1.33293e-06
1.58431e-06
2.86822e-05
1.57241e-06
0.00516977
1.60517e-06
8.42752e-07
0.00175002
1.12056e-06
1.42498e-06
5.18557e-07
1.69852e-06
5.23461e-07
5.21664e-07
1.51304e-06
7.25149e-07
0.000551287
1.1772e-06
1.56852e-06
0.000181479
1.65411e-06
5.47816e-07
9.82964e-07
1.85127e-06
1.59699e-06
1.56802e-06
5.2508e-07
1.42691e-06
1.67317e-06
0.0236489
1.70713e-06
4.06253e-06
1.36866e-06
1.60521e-06
0.000144498
1.12404e-06
1.50069e-06
1.48509e-06
1.15398e-06
5.22445e-07
1.01166e-06
1.40902e-06
1.6586e-06
5.14343e-07
8.09613e-07
1.48123e-06
0.0038857
2.44416e-06
0.00748339
1.52964e-06
2.04144e-06
1.57613e-06
1.33161e-06
1.924e-06
0.00191914
0.0030562
1.04035e-06
1.27744e-06
2.07856e-06
1.67771e-06
1.75413e-06
7.47317e-07
9.87199e-07
1.58315e-06
1.61511e-06
1.35563e-06
1.35696e-06
0.000751993
0.00273485
1.83673e-06
7.7889e-07
1.34391e-06
1.5273e-06
1.08718e-06
5.65456e-07
1.49026e-06
2.0451e-07
0.00436247
1.43898e-06
0.00668819
1.67628e-06
1.07523e-06
0.00374533
2.20035e-06
1.66696e-06
1.50982e-06
1.80458e-06
7.56892e-07
1.40909e-06
1.6975e-06
1.49286e-06
7.52321e-07
0.00345507
1.7872e-06
4.38055e-07
5.22202e-07
2.42726e-07
2.72455e-07
8.20051e-07
1.05979e-06
2.94018e-05
4.58327e-07
5.28126e-07
6.43207e-07
6.02023e-07
0.00189995
1.27137e-06
4.57094e-07
0.00168454
0.0114177
1.38695e-06
1.33794e-06
1.61848e-06
1.48029e-06
1.66028e-06
0.0017506
1.58782e-06
1.37903e-06
1.11785e-06
3.15645e-06
1.29903e-06
0.00528426
1.20873e-05
7.61737e-07
6.574e-07
2.54116e-06
4.84105e-07
7.35841e-07
0.00521006
4.2384e-07
1.18041e-06
7.36776e-07
0.00666382
7.97702e-07
0.000146814
9.56456e-07
1.11689e-06
7.22542e-07
0.0133778
2.05027e-06
1.56863e-06
5.15697e-07
0.00248243
1.76772e-06
9.74389e-07
1.51414e-06
1.68107e-07
1.57049e-06
1.5987e-05
1.40643e-06
1.2393e-06
7.33838e-07
0.00257711
1.25861e-06
7.46169e-07
1.09258e-06
7.09067e-07
7.39233e-07
8.29963e-07
8.2024e-07
1.01611e-06
1.24657e-06
1.56257e-06
1.31328e-06
5.10004e-06
1.59651e-06
1.64e-06
1.52419e-06
1.59071e-06
1.19416e-06
1.37448e-06
1.30379e-06
1.22045e-06
0.00411456
6.52687e-07
1.42604e-06
0.00443617
1.86475e-06
0.000222665
4.50102e-07
0.00191437
1.36806e-06
1.19348e-06
1.66784e-06
5.09668e-06
7.08969e-07
1.76667e-06
7.95221e-07
1.39475e-06
1.37438e-06
1.66925e-06
0.000860008
0.000895586
1.6928e-06
1.66415e-06
7.4266e-07
1.21318e-06
7.8465e-07
1.55681e-06
1.53608e-05
1.44377e-06
0.00571097
5.29224e-07
0.00271365
1.12639e-06
8.13778e-07
1.57156e-06
1.36522e-06
9.27473e-07
1.11607e-06
1.29713e-06
5.59241e-07
7.26086e-07
5.7901e-06
4.39886e-05
1.41639e-06
5.71888e-07
1.34701e-06
0.00366356
4.3833e-07
1.64755e-06
5.20071e-07
0.00159927
1.13802e-06
1.37476e-06
1.44866e-06
1.20859e-06
1.26836e-06
3.19636e-06
9.75772e-07
1.23801e-06
5.30696e-07
1.05089e-06
3.2875e-06
7.87722e-07
0.00247561
0.00174043
1.47169e-06
7.98085e-07
7.35014e-07
1.09034e-06
1.39923e-06
1.28593e-06
4.48756e-07
6.91318e-07
1.0643e-06
0.0019194
1.47481e-06
0.00627647
1.17422e-06
6.64975e-07
0.0152781
1.59107e-07
1.21342e-06
4.31017e-07
0.00272962
1.382e-06
1.60161e-06
0.00207041
4.28223e-07
9.8197e-07
0.00202349
1.55085e-06
9.45061e-07
1.46766e-06
0.00158398
1.05279e-06
9.69776e-07
1.68249e-06
0.00085935
2.04962e-06
1.61002e-06
1.3172e-06
4.53052e-07
6.42955e-07
4.81638e-07
1.04835e-06
1.7281e-06
1.38581e-06
1.19324e-06
1.63774e-06
1.64164e-06
4.25504e-07
1.99425e-07
1.46175e-06
7.88735e-05
1.59645e-06
0.00599574
1.92598e-06
0.00171211
1.17843e-06
1.08666e-06
1.36602e-06
1.46264e-06
1.00992e-06
1.51599e-06
0.00263656
2.05068e-06
1.97776e-06
1.06741e-06
1.35404e-06
2.2319e-06
0.00223545
1.63796e-06
1.41156e-06
1.47189e-06
1.40374e-06
0.00298731
1.36751e-06
5.5965e-07
0.00205023
0.00231318
1.2205e-06
1.07699e-06
1.63161e-06
7.82932e-07
4.55073e-07
0.000134668
1.67942e-06
0.00684983
7.32288e-07
1.12138e-06
1.04693e-06
1.21416e-06
7.32053e-07
1.11059e-06
1.73059e-06
4.83215e-06
1.58354e-06
3.3401e-07
9.92436e-07
0.00107107
8.03311e-05
1.86245e-06
0.000346891
1.43783e-07
1.21127e-06
1.18583e-06
5.03127e-06
4.22842e-07
1.67872e-06
9.18746e-07
1.27593e-06
1.60083e-06
6.19174e-07
1.12925e-06
9.54695e-07
1.20763e-06
1.26432e-06
3.96239e-06
1.38918e-06
6.87292e-07
0.00223923
1.56016e-06
1.0554e-06
0.000380671
1.64156e-06
6.26746e-07
3.93501e-06
1.3994e-07
9.65847e-07
0.00105681
0.000607528
3.21723e-07
1.23514e-06
1.46555e-06
1.79595e-06
1.79301e-06
4.80285e-06
2.01431e-06
1.40039e-06
4.23574e-06
1.67589e-06
9.73018e-07
1.59756e-06
1.74213e-06
1.2248e-06
1.18709e-06
6.25626e-07
7.00322e-07
1.26606e-06
1.22599e-06
1.76076e-06
1.54761e-06
6.97005e-07
1.66684e-06
1.30429e-06
7.91596e-07
1.94077e-06
4.42762e-06
6.43228e-07
1.22739e-06
1.30559e-06
1.23208e-06
9.8893e-07
1.27159e-06
1.46409e-06
7.96685e-07
8.0511e-06
1.02219e-06
1.06399e-06
1.60139e-06
0.0013075
2.07103e-06
0.0202518
6.88692e-07
1.83739e-06
1.38211e-06
1.55489e-06
4.52135e-06
9.90129e-07
4.82633e-06
9.55218e-07
1.74782e-06
1.6222e-06
9.67794e-07
1.4742e-06
1.15115e-06
1.46155e-06
0.00377286
1.5915e-06
1.83614e-06
4.51096e-07
1.3732e-06
0.00195338
6.22555e-06
0.00086375
1.54179e-06
1.95432e-06
3.82844e-06
1.48316e-06
1.05465e-06
1.44197e-06
1.50476e-06
1.11784e-06
0.0101592
3.42124e-06
0.00390361
1.58802e-06
1.31031e-06
1.40922e-06
1.85575e-06
1.55375e-06
4.56555e-07
1.07103e-06
9.6796e-07
1.17344e-06
1.17957e-06
7.96738e-07
1.51041e-06
1.39622e-06
1.17357e-06
0.00864027
2.08934e-06
0.00159958
1.35056e-06
1.26996e-06
1.51007e-06
1.5808e-06
1.22027e-06
2.84551e-06
1.29624e-06
2.6325e-06
1.47551e-06
4.88057e-06
1.23774e-06
1.22241e-06
7.28767e-07
1.54906e-06
1.37381e-06
8.50332e-07
5.34632e-05
9.44991e-07
1.37375e-06
6.69593e-07
1.4671e-06
0.000865156
2.19736e-06
1.44513e-06
1.42471e-06
0.000813439
4.26329e-07
2.3445e-07
0.00902323
2.46624e-06
2.02438e-06
1.47415e-06
1.55196e-06
1.49472e-06
1.29693e-06
1.90921e-06
1.04561e-06
0.000261233
1.26469e-06
5.66064e-07
1.57725e-06
1.55647e-06
1.38616e-06
6.66958e-07
6.99983e-07
0.00056284
1.78129e-06
1.79864e-06
1.39309e-06
1.55161e-06
5.63867e-07
2.10749e-06
2.54098e-06
1.58572e-06
1.08148e-06
4.31663e-07
1.06702e-06
4.68715e-06
8.09105e-07
2.354e-06
1.54232e-06
1.49268e-06
0.00212836
1.39221e-06
3.47899e-06
2.04689e-06
1.40698e-06
3.2575e-05
7.31635e-07
6.38481e-07
3.15748e-06
0.00173664
1.48779e-06
9.64425e-07
1.06632e-06
0.00204289
4.30182e-07
0.000726845
1.64112e-06
8.75133e-07
1.48466e-06
1.68383e-06
0.00211857
1.451e-06
1.57639e-06
1.61344e-06
1.75969e-06
8.79789e-07
1.35654e-06
0.000771052
1.99991e-06
5.11529e-07
1.63988e-06
1.23681e-06
8.78009e-07
5.84823e-05
0.000960142
1.45478e-06
1.43445e-06
2.47674e-05
0.00141007
5.73162e-07
6.09807e-07
6.01141e-07
1.43689e-06
1.29153e-06
1.193e-06
1.64533e-06
5.30548e-06
1.62517e-06
1.61801e-06
2.04273e-06
0.0100764
9.80249e-07
1.53951e-06
0.0199768
0.0077499
1.02016e-06
7.19921e-07
2.43451e-07
9.35774e-07
1.3756e-06
1.3219e-06
1.76748e-06
1.38591e-06
0.000102766
1.37617e-06
7.31155e-07
2.2565e-06
0.00553762
7.89614e-05
1.22825e-06
8.08339e-07
4.52291e-07
2.78437e-06
7.60236e-07
7.92819e-07
9.6537e-07
1.71205e-06
1.71983e-06
0.00425292
0.00179728
1.57832e-06
1.54727e-06
5.91158e-07
2.05659e-07
8.40201e-07
9.05103e-07
1.7442e-06
4.44708e-07
1.2431e-06
1.37719e-06
1.64542e-06
1.61782e-06
1.00296e-06
2.27475e-06
5.63387e-07
1.88462e-06
1.18656e-06
7.21563e-07
8.84194e-07
1.61293e-06
1.62123e-06
1.47403e-06
6.99129e-07
1.21583e-06
1.37232e-06
4.48361e-07
6.68595e-07
1.01263e-06
0.00229021
1.51474e-06
3.44202e-06
1.31793e-06
1.50237e-06
0.00214102
1.34932e-06
6.23038e-07
1.86241e-06
1.45692e-06
0.000157898
0.00224554
0.000163906
1.2746e-06
0.00536731
1.22643e-06
1.2724e-06
0.00185272
3.20574e-06
0.00649062
1.28606e-06
1.46711e-06
1.51158e-06
1.08412e-06
7.95115e-07
1.27296e-06
1.40088e-06
1.04001e-06
0.00994745
1.67298e-06
7.3499e-07
1.94713e-06
1.93474e-06
5.75704e-07
1.58504e-06
1.62173e-06
0.000139167
1.43146e-06
4.56411e-07
8.34959e-07
6.8466e-07
1.60651e-06
4.87389e-07
7.67111e-07
4.96157e-07
4.4196e-06
4.82624e-07
1.46367e-06
1.19586e-06
4.54913e-07
1.36257e-06
2.19564e-06
1.36812e-06
1.54634e-06
0.00181162
1.9123e-06
1.43121e-06
1.43669e-06
1.12772e-06
2.55286e-05
6.76027e-07
1.12707e-06
1.647e-06
3.1321e-06
1.00044e-06
1.60613e-06
1.09079e-06
1.47706e-06
0.0073991
1.51063e-06
1.57904e-06
1.72029e-06
1.25201e-06
0.000112463
9.89583e-07
0.00193598
1.90857e-06
1.43709e-06
2.10255e-06
0.0251409
1.75147e-06
1.50038e-06
6.30192e-07
1.24167e-06
1.32089e-06
9.76377e-07
1.78001e-06
6.93144e-07
4.87389e-07
9.96216e-07
4.45662e-07
9.77232e-07
0.000355523
1.65359e-06
1.56991e-06
1.30371e-06
1.41196e-06
1.64383e-06
0.00171969
4.28074e-07
1.60696e-06
0.0103856
1.32091e-06
1.61005e-06
0.00505797
1.00723e-06
1.46379e-06
1.36055e-06
6.48247e-07
1.6167e-06
0.00168245
1.60564e-06
1.40887e-06
1.39508e-06
1.04809e-06
1.55403e-06
6.48325e-07
1.37552e-06
0.000215932
1.64107e-06
1.56513e-06
0.00402132
6.4273e-07
1.58192e-06
6.53673e-07
1.15985e-06
1.60445e-06
7.24243e-05
7.0381e-07
1.09009e-06
1.5701e-06
6.51738e-07
8.05964e-07
1.36031e-06
0.00182419
0.000119978
0.0021563
2.29895e-06
1.45019e-06
1.94846e-06
0.00224918
1.46791e-06
1.73929e-06
1.52857e-06
1.51068e-06
0.00449605
1.33003e-06
2.28702e-06
8.56908e-07
1.53491e-06
7.39473e-07
9.69455e-07
1.47261e-06
2.49198e-06
1.2982e-06
1.70489e-06
1.395e-06
2.07942e-05
1.54856e-06
0.00122204
4.2311e-07
0.00444672
1.39043e-06
4.9424e-07
8.37532e-07
1.54539e-06
0.0185245
0.00370664
1.493e-06
0.0278277
1.5874e-06
1.83357e-06
0.0191173
1.46633e-06
1.46158e-06
5.01699e-07
1.27201e-06
0.0209965
0.0270036
9.1578e-07
0.0032811
6.98705e-07
0.0280606
1.65011e-06
1.43836e-06
0.0283236
1.44927e-06
1.31293e-06
1.33614e-06
1.31689e-06
1.5871e-06
1.67614e-06
1.17933e-06
6.10806e-07
8.13473e-07
1.73132e-06
1.48775e-06
4.6963e-06
1.43787e-06
1.12351e-06
4.94049e-07
1.91847e-06
1.18168e-06
0.0054886
1.28304e-06
7.6602e-07
4.11965e-06
1.40467e-06
1.27411e-06
1.57282e-06
1.51617e-06
1.46504e-06
9.45095e-07
1.32751e-06
0.00265179
1.3421e-06
1.76264e-06
0.000131429
0.00142185
1.51541e-06
6.74871e-07
1.33657e-06
0.00776599
1.29044e-06
1.40745e-06
0.0033025
6.8814e-07
1.55183e-06
1.13701e-06
0.0244931
1.4095e-06
0.00265987
1.38922e-06
1.58779e-06
1.26253e-06
6.85808e-07
0.013577
1.69043e-06
0.00263664
5.90049e-05
0.00185138
0.00202987
1.47535e-06
1.16024e-06
1.07044e-06
0.00118817
1.40937e-06
0.020241
1.52631e-06
0.00173264
1.42247e-06
1.16931e-06
0.0019614
1.45722e-06
0.0044242
1.26933e-06
1.59191e-06
0.00173603
8.73157e-07
1.14412e-06
6.22594e-07
9.55656e-07
1.65262e-06
8.09654e-07
1.24718e-06
1.97805e-06
0.00223215
1.38651e-06
4.99504e-06
0.00248744
1.67976e-06
1.24953e-06
3.93597e-06
0.0258373
1.6002e-06
1.92565e-06
1.55929e-06
2.40471e-06
1.81394e-05
8.68719e-07
1.45764e-06
1.33582e-06
4.70462e-07
1.4842e-06
1.224e-06
1.00399e-06
1.37627e-06
0.0190253
1.38027e-06
0.00179452
1.01559e-06
0.000215841
1.57096e-06
0.002676
1.04771e-06
1.35082e-06
1.55638e-06
5.44872e-05
1.73331e-06
0.00404813
2.26393e-06
7.29406e-06
1.37421e-06
1.93572e-06
7.78163e-07
1.30397e-06
0.00466267
0.00169088
1.01102e-06
1.30632e-06
4.26245e-07
0.00290135
1.3969e-06
4.5609e-07
1.21676e-06
1.42204e-06
1.05441e-06
1.52244e-06
6.80006e-07
4.84922e-07
1.63222e-06
1.38603e-06
1.73052e-06
1.87644e-06
1.44491e-06
1.60902e-06
1.56615e-06
1.0353e-06
0.0009739
0.0162672
1.13429e-06
5.01304e-07
1.27791e-06
4.60032e-07
1.13734e-06
0.0180065
1.1137e-06
7.83964e-07
0.01915
9.6613e-07
4.57928e-07
1.48834e-06
5.91684e-07
0.00189828
4.83677e-05
4.81253e-07
4.62137e-07
1.42982e-06
1.44557e-06
1.76156e-06
9.27012e-07
0.00104131
9.51557e-07
1.21196e-06
0.00316714
5.67002e-07
1.15409e-06
4.70522e-07
1.64349e-06
4.55796e-07
4.08867e-05
1.87313e-06
1.10377e-06
1.17378e-06
0.0152314
0.000511801
0.00273739
1.13869e-06
1.05395e-06
1.55705e-06
2.11984e-06
4.9551e-07
5.52631e-06
4.55252e-07
1.62686e-06
1.18623e-06
1.26458e-06
9.59805e-07
1.62446e-06
0.00701886
1.76818e-06
0.000216419
1.67266e-06
1.22825e-06
0.014436
1.63473e-06
1.78899e-06
5.57246e-07
1.29885e-06
1.32678e-06
1.73207e-06
0.00289864
9.04511e-07
1.59184e-06
2.2144e-06
1.57662e-06
1.24396e-06
8.5785e-07
1.44103e-06
0.00375781
0.00164451
2.76511e-06
6.49598e-07
1.29161e-06
0.00209607
1.11646e-06
1.38644e-06
1.04069e-06
3.09935e-06
1.63996e-06
0.0228925
2.34321e-06
0.000207365
1.5713e-06
1.46173e-06
1.45196e-06
1.00929e-06
1.3383e-06
0.00783955
0.00103184
1.54465e-06
2.46568e-06
9.10363e-07
7.92723e-07
0.000393749
6.40363e-07
0.0245763
5.75007e-07
1.7982e-06
0.0163959
1.39112e-06
4.32096e-05
1.33982e-06
6.77333e-07
0.00327376
1.09855e-06
1.09335e-06
1.8605e-06
0.000518987
1.52387e-06
1.28175e-06
1.58403e-06
0.000418688
1.53729e-06
0.000248021
1.70458e-06
1.03926e-06
2.53055e-06
1.46653e-06
1.52271e-06
1.66861e-06
1.56991e-06
1.57027e-06
6.7345e-07
2.08691e-06
1.44319e-06
1.45606e-06
0.00765466
1.45242e-06
1.45748e-06
1.08069e-06
2.80775e-07
0.00212675
0.00319329
1.53489e-06
0.0009965
0.00189828
1.41902e-06
7.25031e-07
1.50679e-06
2.28322e-06
1.22552e-06
5.27931e-07
0.00178643
0.00342807
0.0182076
0.0201127
1.50159e-06
4.53393e-07
1.52609e-06
1.04858e-06
0.0020538
5.17632e-07
0.000910212
0.000764511
1.24378e-06
1.33702e-06
1.44388e-06
1.50046e-06
0.00203024
9.27454e-07
1.20401e-06
1.31672e-06
0.00611908
4.53546e-07
6.15874e-07
1.59302e-06
4.47576e-07
1.32677e-06
1.79887e-06
1.87895e-06
8.41578e-07
1.58624e-06
1.28386e-06
0.00359356
6.92029e-07
1.07644e-06
1.04183e-06
1.80462e-06
0.00719737
8.2193e-07
5.05687e-07
1.22608e-06
1.75158e-06
1.58285e-05
1.32182e-06
1.25843e-06
3.41996e-05
1.04594e-06
6.77395e-07
1.09746e-06
2.9302e-06
0.00275571
4.53093e-07
0.0226555
0.00074918
3.47387e-06
7.3476e-07
0.00153302
3.1248e-06
0.00179689
1.39003e-06
1.19715e-06
1.61438e-06
1.10548e-06
1.29148e-06
0.00166891
0.0032028
1.07744e-06
1.69106e-06
1.16678e-06
4.47647e-07
1.5769e-06
1.50699e-06
1.50662e-06
1.90912e-06
1.46454e-06
5.21488e-07
0.00360123
1.3931e-06
1.35345e-06
1.10409e-06
0.00028382
1.52003e-06
0.000674567
2.26937e-06
8.62178e-07
1.48156e-06
1.93199e-06
4.3138e-06
1.04461e-06
1.38022e-06
1.36587e-06
2.23605e-06
7.59775e-07
1.32618e-06
0.0258701
2.2992e-06
1.3426e-06
3.87353e-06
0.00185496
1.58412e-06
5.49623e-07
1.37851e-06
1.31692e-06
2.42909e-07
1.04915e-06
0.00209529
0.000172002
1.73479e-06
1.38011e-06
3.3122e-06
1.94092e-06
1.3269e-07
8.92398e-07
2.03313e-06
0.00295798
1.55701e-06
0.00768584
0.00171577
0.000128765
2.01865e-06
4.50649e-08
1.73976e-06
1.31441e-06
2.21643e-06
6.58021e-06
1.39473e-06
6.82213e-07
1.57896e-06
4.49479e-07
3.68921e-05
1.44868e-06
9.77263e-07
0.00917509
1.45346e-06
0.000704289
1.86904e-06
9.96643e-07
5.39276e-05
0.00144199
0.00292457
1.30235e-06
1.28038e-06
1.28458e-06
0.00162302
0.00059912
1.9825e-07
1.04138e-06
1.7212e-06
1.82808e-06
0.000643989
1.51833e-06
0.00194691
7.72574e-07
0.000641965
1.77668e-06
0.00884433
1.64404e-06
1.53073e-06
1.29724e-06
1.53014e-06
5.24819e-07
1.5023e-06
1.335e-06
9.70383e-07
2.31477e-06
3.8394e-06
1.2883e-06
1.65952e-06
1.48123e-06
2.72959e-06
9.00127e-07
1.38063e-06
1.49159e-06
0.00168809
5.03397e-07
0.000117979
1.46972e-06
2.51554e-06
1.87179e-06
0.00222579
1.31975e-06
0.000569024
0.00162378
1.96258e-06
1.26126e-06
6.90228e-07
1.50073e-06
6.43008e-07
7.70222e-07
1.87174e-06
2.35465e-06
4.84282e-07
0.00129785
1.06222e-06
0.00288992
1.60603e-06
4.21563e-06
0.0018448
1.62151e-06
1.54689e-06
0.000162564
1.59577e-06
5.91161e-07
1.62504e-06
6.87066e-07
2.02088e-06
1.46288e-06
2.09342e-06
1.20177e-06
3.07612e-06
0.00238691
1.486e-06
1.38674e-06
1.21896e-06
2.02173e-06
0.000409753
1.17913e-06
1.40694e-06
1.08011e-06
2.20382e-06
1.44132e-06
0.00274512
0.00220915
2.22807e-06
1.19225e-06
1.92026e-06
1.71503e-06
1.30419e-06
0.00154108
2.00054e-06
6.83439e-07
0.023202
9.05109e-07
1.57847e-06
1.4331e-06
1.99442e-06
1.40086e-06
1.72721e-06
0.00398961
3.36906e-06
1.62461e-06
1.33111e-06
0.00213732
0.00196835
2.90567e-05
1.86332e-06
1.39719e-06
0.00179779
0.00899478
1.27958e-06
0.00327312
1.68234e-06
1.01838e-06
1.56499e-06
0.000500846
0.00250946
1.47385e-06
0.0123068
1.21071e-06
3.80797e-06
0.0224277
1.55946e-06
1.59866e-06
1.52868e-06
1.40239e-06
1.24428e-06
0.00560534
0.00100605
1.5032e-06
1.93427e-06
1.60172e-06
1.51533e-06
1.49809e-06
2.01194e-06
1.53172e-06
0.00320729
2.82858e-06
1.20863e-06
1.56524e-06
1.29054e-06
1.31076e-06
4.97906e-07
1.84507e-06
1.57263e-06
0.00161359
2.28695e-06
1.3148e-06
1.3819e-06
5.13663e-07
2.12657e-06
2.93972e-06
4.54422e-07
1.43343e-06
1.87517e-06
1.40184e-06
4.90776e-07
4.28932e-07
6.82775e-07
1.03815e-06
1.63246e-06
9.72204e-07
1.34689e-06
2.41776e-06
5.71926e-07
1.98367e-06
1.75248e-06
0.000248462
0.00177077
2.17328e-06
1.64857e-06
0.00181289
0.00239061
0.00125
2.85718e-06
1.386e-06
0.00122035
2.48196e-05
1.42921e-06
1.21837e-06
1.27908e-06
8.91648e-07
1.73928e-06
1.50043e-06
2.61365e-07
1.40089e-06
1.7886e-06
1.18402e-06
0.00381156
1.81529e-06
1.76829e-06
0.00237832
1.88572e-06
1.49682e-06
2.336e-06
0.00700453
8.95657e-07
2.21431e-06
1.2775e-06
2.83262e-06
1.00905e-06
1.19392e-06
7.56639e-07
1.53166e-06
3.35345e-06
2.22554e-06
2.1182e-06
1.82714e-06
1.34537e-06
1.67553e-06
1.53564e-06
9.08173e-07
2.16589e-06
1.74801e-06
0.000312346
0.00258101
1.44001e-06
2.09796e-06
1.44755e-06
1.64297e-06
3.05393e-07
1.41603e-06
1.845e-06
0.00272841
2.19736e-06
1.81162e-06
1.00959e-06
1.97266e-06
6.96569e-07
1.6784e-06
1.83918e-06