/*--------------------------------*- C++ -*----------------------------------*\
| =========                 |                                                 |
| \\      /  F ield         | OpenFOAM: The Open Source CFD Toolbox           |
|  \\    /   O peration     | Version:  v2012                                 |
|   \\  /    A nd           | Website:  www.openfoam.com                      |
|    \\/     M anipulation  |                                                 |
\*---------------------------------------------------------------------------*/
FoamFile
{
    version     2.0;
    format      ascii;
    class       volVectorField;
    location    "100";
    object      U_0;
}
// * * * * * * * * * * * * * * * * * * * * * * * * * * * * * * * * * * * * * //

dimensions      [0 1 -1 0 0 0 0];


internalField   nonuniform List<vector> 
13749
(
(1.01331 0.000814092 -2.9681e-21)
(1.06284 -0.00406936 -1.90314e-20)
(0.985732 -0.00544014 0)
(1.03612 0.0681549 -5.33735e-21)
(0.993693 0.0572216 0)
(1.09529 0.0426651 4.04897e-20)
(0.95949 0.230869 1.48049e-20)
(1.04028 0.00213822 0)
(0.992397 0.00932417 8.10786e-22)
(1.03712 0.0695839 5.12977e-21)
(1.06221 -0.00193436 0)
(1.00104 0.00545533 1.11348e-20)
(1.06367 0.0815058 -3.22327e-21)
(0.983417 -0.0147382 0)
(0.673913 -0.0159599 0)
(1.04728 0.000353033 -7.86185e-21)
(0.989541 0.0202735 -8.58426e-21)
(1.067 -0.00882361 0)
(1.00253 0.00430305 7.77562e-21)
(0.996869 0.000810618 -2.20731e-21)
(-0.12532 -0.0162341 -6.89922e-20)
(0.631259 -0.0143163 2.98319e-21)
(1.04535 -0.0201157 -3.43385e-21)
(1.06303 -0.00289735 0)
(0.990609 0.056587 0)
(1.07452 0.0242436 4.29305e-20)
(1.07156 0.0283032 1.48951e-20)
(1.06269 0.058488 -2.26363e-20)
(1.0174 0.00492819 2.60544e-21)
(0.968627 0.0272431 -2.22627e-21)
(1.12593 0.28573 4.00211e-21)
(0.323837 -0.00155625 0)
(0.913733 0.0610572 -1.89846e-20)
(1.06004 -0.0017349 1.87464e-20)
(1.01325 0.0124627 4.50499e-22)
(1.01594 0.00466229 0)
(0.984217 -0.00360078 1.07595e-20)
(0.995242 0.0247469 -1.08265e-20)
(1.05025 0.0250674 -8.95231e-21)
(1.06441 0.00288939 1.65018e-20)
(1.09477 0.0459494 -4.66654e-20)
(-0.0749244 -0.00747175 3.9945e-20)
(0.936599 0.0331526 0)
(0.915088 -0.00299888 0)
(1.06705 -0.00929115 -3.13654e-22)
(1.05912 0.0444652 0)
(1.0005 0.00546065 0)
(1.08888 0.00712222 1.98488e-20)
(1.02208 0.0134489 0)
(-0.233239 -0.00670272 -1.05919e-19)
(1.06301 -0.00261523 3.24647e-21)
(-0.111629 -0.0167327 6.32997e-20)
(1.06498 0.0030493 -1.9056e-20)
(1.0881 -0.0259124 1.92339e-20)
(1.00915 0.0964013 0)
(1.02136 0.013765 -8.87282e-22)
(1.06923 0.0716693 -3.57848e-23)
(0.916546 0.0521313 0)
(1.01598 0.0154551 4.16579e-21)
(1.08661 -0.0352904 -2.35641e-20)
(1.00481 0.0229176 4.6668e-21)
(1.03644 0.0422191 0)
(0.369042 0.000768438 0)
(1.00091 0.0049957 -1.17022e-20)
(1.0319 0.0291038 -2.22089e-21)
(0.941328 0.0204474 7.19668e-21)
(0.99235 0.00974405 -6.59037e-22)
(0.995868 0.0239074 0)
(1.05028 -0.000606148 1.95904e-20)
(1.05806 0.0429822 0)
(0.684644 0.00374688 -2.08919e-20)
(1.00889 0.00146398 5.1356e-21)
(1.09797 -0.0331573 -2.20662e-20)
(1.0235 0.0181547 1.22372e-21)
(1.0649 0.000229028 -4.68556e-21)
(1.08542 0.192888 -7.13858e-21)
(1.04866 0.00557262 0)
(1.01594 0.0159342 0)
(1.06897 0.0717618 1.80882e-20)
(1.00006 0.000597673 0)
(1.01626 0.0052481 1.45385e-21)
(0.983518 0.0535043 -1.35565e-20)
(1.06337 -0.00310903 3.63333e-21)
(1.01771 0.00526239 -1.63759e-21)
(1.09424 0.0665118 -1.62782e-20)
(1.06268 0.201613 1.76636e-20)
(1.00961 -0.0344855 1.2618e-20)
(1.10008 -0.0143985 1.2597e-20)
(1.01281 0.0118393 -4.8615e-22)
(1.08642 0.00555053 -4.17394e-22)
(1.00919 0.00820211 2.08436e-21)
(1.09118 -0.0276479 0)
(1.03826 0.033822 0)
(1.23418 0.0657565 0)
(0.730621 0.335883 0)
(1.0724 0.00021449 1.46601e-20)
(1.05648 0.00978383 0)
(0.995348 -0.00290119 -9.06362e-21)
(1.00897 0.00156396 0)
(0.944946 0.019214 1.16179e-20)
(0.0501186 -0.0165598 6.22569e-20)
(1.01552 0.00512076 0)
(1.05048 0.00931879 5.89848e-21)
(0.531261 -0.0168663 -1.55117e-21)
(0.99977 -0.00104003 -2.53054e-21)
(0.563487 -0.0178564 1.61033e-21)
(1.09432 0.0115723 0)
(0.994944 0.010872 1.3623e-20)
(1.08572 0.00631591 2.08431e-22)
(0.996346 0.00580207 1.15657e-20)
(1.00097 0.00560733 -1.07982e-20)
(0.930379 0.0333481 -1.16009e-20)
(1.09646 0.0124771 -1.57762e-20)
(0.0337068 0.0523839 7.37454e-20)
(-0.0267213 -0.0175893 -9.89794e-21)
(1.03372 0.0150323 7.17938e-21)
(1.01524 0.00451984 -3.22828e-21)
(1.00441 0.0957811 -2.24084e-21)
(0.968492 -0.0126008 0)
(1.01747 0.0142406 -2.70006e-21)
(1.03992 0.00271365 -1.18465e-21)
(1.00016 0.000165647 -3.55337e-21)
(1.01448 0.000845909 2.27928e-21)
(1.01811 0.00348331 -5.14234e-22)
(0.987426 0.0533154 -2.92121e-21)
(0.697438 0.00336642 1.90753e-20)
(1.09494 0.0421589 0)
(0.58095 -0.0343926 -1.62939e-20)
(1.06034 0.0187814 4.34306e-21)
(1.09851 -0.0344751 4.01951e-20)
(1.05145 0.0597075 1.575e-20)
(0.951101 -0.0239436 -8.79296e-21)
(0.946591 -0.0364909 -3.44032e-22)
(1.09054 -0.0243176 9.58382e-21)
(1.07578 0.0595026 -3.07184e-20)
(0.954153 0.00799787 5.13945e-20)
(1.06462 0.000670491 0)
(1.0221 0.0125315 1.36503e-21)
(1.04072 0.0129817 1.15066e-23)
(-0.286027 -0.00960297 0)
(0.843531 0.0420476 6.24978e-20)
(1.06451 0.0107524 2.28999e-22)
(1.05533 0.0233379 6.21146e-21)
(0.148066 -0.0347077 7.90624e-20)
(1.00996 0.00185789 2.00659e-21)
(-0.289843 -0.00680641 0)
(1.06509 0.0637582 1.34237e-20)
(0.994869 0.138048 -5.5769e-21)
(0.969487 -0.00223626 2.14698e-20)
(1.06727 -0.0040811 1.80367e-20)
(1.0096 0.00197324 0)
(1.05913 -0.00195763 0)
(0.620903 -0.0206778 -8.65297e-21)
(1.12659 -0.0242724 -5.6411e-20)
(1.0515 0.00141176 0)
(0.146347 -0.0119155 0)
(1.06496 0.0628405 2.11063e-22)
(1.0733 0.0784579 0)
(1.06284 -0.00438289 1.71436e-20)
(0.999558 0.0120102 2.14262e-20)
(0.36448 0.133808 2.24337e-20)
(1.00341 0.00154934 -3.72332e-21)
(-0.196004 -0.0126346 1.51667e-19)
(0.914778 0.059464 2.24316e-20)
(0.997329 0.00238471 -1.21314e-22)
(1.00024 0.0183831 -2.4157e-20)
(1.09984 -0.0109731 2.31213e-20)
(0.986618 -0.00597025 0)
(0.968057 0.0280113 -3.34365e-20)
(1.06357 0.0810503 -7.73927e-21)
(1.0564 0.0249338 0)
(0.996123 0.00646038 0)
(1.02241 0.0130068 0)
(1.06024 0.00523512 0)
(0.957705 0.0115151 6.04619e-21)
(0.959806 0.240399 0)
(1.09438 0.204933 1.16389e-20)
(1.05138 0.00144935 -5.4167e-21)
(0.531757 -0.0317264 3.0534e-20)
(0.458132 -0.0363588 6.13086e-21)
(0.999878 -0.000762041 2.27235e-21)
(1.05975 -0.00198357 -7.25777e-21)
(1.05751 0.0123207 -1.12333e-20)
(0.796815 0.324393 -1.13967e-20)
(1.08704 -0.0264357 -3.21362e-20)
(0.954945 0.0107192 0)
(0.128704 -0.0325796 -1.3528e-19)
(1.02027 0.0477911 -2.45223e-21)
(1.24965 0.13576 9.98715e-20)
(1.00551 0.0231554 -1.63984e-21)
(1.05837 0.0133115 2.11588e-20)
(1.04274 -0.0192308 2.19031e-20)
(1.04363 0.00365053 4.82704e-21)
(1.11969 0.0523965 -7.47641e-20)
(0.113575 -0.030761 2.10399e-20)
(1.07474 0.18677 -2.73536e-20)
(1.09253 0.0378998 1.94743e-20)
(-0.16227 0.0109005 0)
(1.01419 0.000540806 0)
(1.06037 0.0191694 8.24301e-21)
(1.02132 0.00657919 0)
(1.06267 -0.00267284 1.34884e-20)
(1.07223 0.0793367 3.26821e-23)
(0.942883 0.0440086 2.3649e-21)
(0.451528 0.00580723 4.11806e-21)
(1.03954 0.0200289 -3.27433e-21)
(1.01449 0.0142914 -2.8618e-21)
(1.12056 0.0474782 6.50192e-20)
(1.08299 -0.0249319 0)
(1.10637 0.0228145 0)
(1.03463 0.0153598 -6.02678e-21)
(1.02763 -0.0156329 1.66499e-21)
(-0.164225 -0.00743401 -5.76237e-20)
(0.841277 0.300981 7.18457e-21)
(1.073 0.0258978 -1.50056e-20)
(1.11276 0.036099 5.16768e-20)
(0.507927 0.0103391 0)
(1.0616 -0.0013278 0)
(0.439929 0.00651819 -1.12959e-20)
(1.01698 0.00528779 0)
(1.19297 0.301062 -1.18927e-19)
(0.94696 0.042702 0)
(1.09086 -0.0258921 -5.21799e-20)
(1.09185 -0.0324667 0)
(0.942674 0.101427 1.49239e-20)
(1.10052 -0.0311083 0)
(1.04027 0.0214559 0)
(0.831974 0.0539274 -7.07884e-20)
(0.495802 0.00973309 0)
(1.03984 -0.0139228 5.56308e-21)
(0.98997 -0.00106758 2.70508e-20)
(1 -1.89263e-05 -9.41763e-21)
(1.00024 0.000123387 0)
(1.00065 0.00529508 0)
(0.775732 -0.0013949 1.56721e-20)
(0.986979 0.0565994 1.45467e-20)
(0.978987 0.194547 -7.64704e-21)
(1.08485 -0.0243874 2.87538e-20)
(0.997252 0.000523138 2.0016e-21)
(0.990457 0.0192008 0)
(0.994279 0.0621098 -2.47038e-21)
(1.04748 -0.0325191 0)
(1.06107 -0.00820499 -4.83648e-21)
(1.08001 -0.00530352 1.03578e-20)
(1.10049 0.0620135 -5.36683e-20)
(0.163675 -0.035691 -1.5707e-22)
(0.982347 0.0521635 3.09031e-20)
(0.433092 0.00814706 5.66789e-22)
(1.05835 0.04045 4.06608e-21)
(0.992548 0.00320643 6.1082e-22)
(-0.219015 -0.00914064 -5.25619e-20)
(0.953056 0.00738671 -4.71292e-20)
(1.00663 0.000735069 -5.32866e-21)
(1.03875 0.0351916 2.25476e-21)
(0.838752 0.0918498 0)
(1.06378 0.0118811 1.2132e-20)
(0.994562 0.00994032 -1.34025e-20)
(-0.221966 -0.0111975 -9.92035e-20)
(1.06078 0.195819 -1.00904e-20)
(0.196287 0.045809 0)
(1.0225 0.00672348 2.98031e-22)
(0.911963 0.097116 9.26412e-21)
(1.08822 0.00710857 2.06084e-20)
(1.02953 0.0433844 -1.08943e-21)
(0.969279 0.00223809 2.54494e-20)
(1.06419 0.00031113 -2.5547e-21)
(1.07659 -0.0219764 -4.77374e-20)
(1.07581 0.0265729 -2.34741e-20)
(0.878553 0.181533 3.41934e-20)
(0.835198 0.0728948 1.47055e-19)
(1.01582 0.00151123 5.38665e-21)
(-0.071978 -0.0170997 6.36323e-21)
(1.0635 -0.00257568 -1.7437e-20)
(0.108638 -0.0317161 0)
(1.01987 0.0457301 7.62177e-24)
(0.224541 -0.00969151 7.74017e-21)
(-0.193308 -0.00919926 -3.95309e-21)
(1.05989 0.00269754 1.44872e-20)
(0.834488 0.075037 -5.13538e-20)
(1.05958 0.00601798 -9.83483e-21)
(1.00044 0.0177971 1.03367e-20)
(1.02105 0.0169976 1.14698e-22)
(1.15818 -0.00567537 -1.27794e-20)
(-0.165106 -0.0173654 -7.98345e-21)
(1.0659 0.0105185 -2.38731e-20)
(0.968103 -0.00521791 -2.33956e-20)
(1.08248 0.0460892 -2.68281e-20)
(1.01662 0.0151366 0)
(1.23866 0.149153 -4.4729e-20)
(0.997077 0.0548223 0)
(1.06224 -0.0116778 -5.78988e-21)
(1.02031 0.0142428 0)
(0.433361 0.00728559 1.71208e-20)
(1.06218 -0.00192877 -6.0331e-21)
(0.751133 0.000751099 0)
(1.08203 -0.0239113 -9.5976e-21)
(0.994311 -0.0021703 2.17165e-20)
(1.0146 0.00281719 0)
(1.04639 0.0206737 -1.50372e-20)
(1.01319 0.000730788 3.96268e-21)
(1.04938 0.00626182 -5.7951e-21)
(1.01294 0.0115341 -4.07714e-21)
(1.05892 -0.0025644 0)
(-0.236741 -0.00984472 4.9408e-20)
(1.05925 -0.00232702 0)
(1.02301 0.00661394 2.51686e-23)
(1.03137 0.0113874 -1.3566e-21)
(0.997597 0.00237609 -8.84245e-21)
(1.04155 0.00552356 0)
(1.06068 0.00417357 0)
(-0.0863136 -0.0147689 0)
(1.09483 0.0503438 -1.57869e-20)
(1.02937 0.0334363 0)
(0.316055 -0.0280149 6.73977e-21)
(1.01564 0.00118236 -3.47756e-21)
(0.994634 0.0550554 0)
(1.05133 0.00989007 7.15535e-21)
(0.749324 -0.00324499 3.29918e-21)
(1.0182 0.013755 0)
(1.05277 0.00460459 7.00688e-21)
(1.1155 -0.00845826 0)
(0.106825 -0.00260202 3.46139e-20)
(1.07301 0.00710376 -2.6104e-22)
(0.999998 0.000155413 0)
(-0.280848 -0.00697976 9.80624e-20)
(0.999911 5.71275e-05 -8.82895e-21)
(1.01253 0.0109475 3.81459e-21)
(1.02147 0.00869277 0)
(0.99381 0.0137862 0)
(0.967765 -0.000261635 2.20246e-20)
(1.02127 0.00865462 0)
(1.00093 0.00492309 1.26284e-20)
(1.01848 0.00346399 9.42002e-22)
(1.06491 0.0566197 -1.15554e-20)
(1.02793 0.0358092 3.28654e-22)
(1.03986 0.0132088 0)
(1.02265 0.0179218 -1.15181e-21)
(1.07125 0.0285441 0)
(0.993637 0.0133752 -3.76008e-22)
(0.938551 0.108663 -2.02055e-20)
(0.994292 -0.00476256 -1.32353e-20)
(1.11136 0.307145 -4.33801e-21)
(1.02768 0.0443851 2.29526e-22)
(1.06303 0.0045902 -3.25794e-21)
(1.10607 0.0220388 -2.45242e-20)
(1.0412 0.0127499 -4.20296e-21)
(1.05222 0.00524175 0)
(0.962752 0.00771629 3.26223e-20)
(1.01685 0.0197213 4.12307e-21)
(0.994206 0.0118107 -7.67988e-21)
(1.00352 0.0276653 8.28777e-21)
(1.00323 0.0290753 0)
(-0.0806429 0.0055235 -2.26908e-21)
(0.50669 0.237268 7.82866e-20)
(1.0386 0.0393395 -9.89151e-22)
(1.0098 0.0195187 5.21701e-21)
(1.09503 0.0766322 3.39717e-20)
(1.06101 0.00319281 0)
(1.05518 0.126761 -1.59095e-20)
(1.11742 0.333122 8.73735e-20)
(0.990856 -0.00159294 0)
(0.999983 -5.57773e-05 8.67703e-21)
(1.01957 0.0147058 0)
(-0.191942 -0.0154522 0)
(0.820742 0.038484 0)
(1.00054 0.0127702 -5.31118e-23)
(1.00024 0.140065 0)
(-0.0456345 -0.0111989 -1.21849e-20)
(0.658457 -0.020897 0)
(0.995094 -0.000592377 2.08999e-20)
(0.78045 0.000931751 0)
(1.06439 0.010908 1.27292e-20)
(0.908016 0.0778895 7.95534e-20)
(1.00006 0.000507276 -7.46333e-21)
(1.00031 0.0128168 -4.97205e-21)
(1.03981 0.0305643 0)
(1.04525 0.130981 7.53987e-21)
(-0.147969 0.0158885 0)
(1.13403 0.0413628 1.90199e-20)
(1.0571 0.0111523 0)
(0.999474 -0.00112395 6.91019e-21)
(0.994936 -0.0037775 0)
(0.625939 -0.0173481 -1.8269e-20)
(0.963137 0.0076572 -3.00613e-20)
(0.999878 -4.49578e-06 1.0631e-20)
(1.01123 0.000121663 2.79695e-21)
(0.299645 0.000992723 -4.49124e-21)
(1.00221 0.0234431 -9.66444e-21)
(0.999877 0.011429 -2.12027e-20)
(1.05041 0.00906083 0)
(1.07614 -0.010953 0)
(1.09608 -0.0242476 -2.79398e-20)
(0.0840256 -0.032018 0)
(1.00652 0.0278602 -7.00854e-21)
(0.960163 0.0471201 8.08966e-21)
(1.18401 0.239923 7.96578e-20)
(0.106389 0.0526439 1.36857e-19)
(1.11874 0.290449 1.73957e-21)
(1.07116 -0.00460163 9.19317e-21)
(1.10124 -0.0310573 0)
(1.00374 0.00150236 -8.50958e-21)
(1.09583 0.0699799 0)
(1.00196 0.000517752 0)
(1.06182 -0.00197031 0)
(1.04082 0.0059124 4.17549e-21)
(1.06534 0.00922756 7.61649e-21)
(1.09071 -0.0142661 6.99047e-20)
(1.07276 -0.00485975 3.64007e-20)
(1.06222 -0.00179543 8.95401e-21)
(1.01742 0.0204724 0)
(1.04714 0.018242 -6.81983e-21)
(1.05532 0.0071903 -7.36758e-21)
(1.07062 -0.00424249 -1.12939e-20)
(0.486281 -0.0359346 0)
(1.04043 0.130437 1.87293e-21)
(0.999512 6.9817e-05 -1.63539e-20)
(0.738346 -0.00320904 0)
(0.76694 -0.00206872 -1.04792e-20)
(1.05942 -0.00171556 0)
(1.07323 -0.000179158 -1.58715e-20)
(0.995381 0.0135339 8.85106e-21)
(1.09473 0.0548896 0)
(1.23487 0.168212 0)
(1.04975 0.00894601 -1.19984e-20)
(1.07658 -0.0226823 9.70231e-21)
(1.00335 0.00514669 9.15097e-21)
(0.880989 0.174058 -6.06139e-20)
(0.817787 0.325956 0)
(0.234157 -0.00462617 -2.4637e-20)
(0.939759 0.237887 3.31817e-21)
(1.08729 -0.0132158 -1.83415e-20)
(1.00003 0.000439398 -7.96188e-21)
(1.07918 -0.00478024 -2.32814e-20)
(1.05107 0.122127 9.0728e-21)
(1.12052 -0.0197853 0)
(1.05885 0.0409197 4.76957e-21)
(1.04103 0.0314837 -5.12046e-21)
(1.03106 0.0314443 2.34993e-21)
(0.994079 0.0247036 -6.71942e-21)
(0.368064 -0.042417 -1.18336e-20)
(0.99286 0.00934335 0)
(0.975437 0.0152832 -4.25528e-20)
(1.00002 0.000260374 -9.79482e-21)
(1.05775 0.0117751 8.01577e-23)
(1.04022 0.0677755 7.84382e-21)
(1.02201 0.00716934 0)
(1.00447 0.00499918 -1.24318e-20)
(0.822651 0.297928 -9.38228e-21)
(1.09325 0.00732121 -2.42774e-20)
(1.13633 0.0347454 2.10176e-22)
(1.15299 -0.00903363 -1.15283e-20)
(0.949817 0.0230019 2.85867e-20)
(1.21213 0.332408 0)
(1.02172 0.0167073 -2.47336e-21)
(0.15638 -0.0296282 5.40746e-20)
(1.07024 0.0193024 1.51659e-20)
(1.03994 0.0665331 -7.48405e-21)
(1.06184 0.0675936 -1.1131e-20)
(1.0272 -0.0134076 4.14868e-20)
(0.995532 -0.000998729 1.08798e-23)
(1.00158 0.000883131 6.45821e-21)
(1.00002 0.000298515 -9.1779e-21)
(1.04948 0.00869147 5.79175e-21)
(-0.0304176 -0.0124398 -1.16697e-20)
(1.04958 0.0262003 9.49459e-21)
(1.05651 -0.00319216 -9.88913e-21)
(1.064 -0.00481578 0)
(1.16682 0.127211 0)
(0.163487 0.0756364 -1.784e-19)
(0.917714 0.000586532 2.06797e-20)
(1.06086 -0.00797913 -7.73439e-22)
(1.00391 0.00548348 4.00009e-21)
(1.15912 0.123638 0)
(0.0895527 -0.0143448 0)
(1.00251 0.0226261 -2.47793e-22)
(0.995913 0.0132714 0)
(1.06619 -0.00384387 0)
(1.10028 0.0742805 -1.96483e-20)
(0.992615 0.00346458 0)
(0.976862 0.015645 2.59619e-20)
(1.06245 0.0597633 2.01128e-20)
(1.04101 0.00405639 3.65637e-21)
(1.0222 0.00854881 -5.57759e-22)
(0.420611 0.00586123 -6.76076e-21)
(0.196131 -0.00544367 -8.62632e-21)
(1.18305 0.24309 5.17052e-20)
(-0.19215 -0.014744 0)
(0.364574 0.00217833 -1.68675e-22)
(1.00461 0.0668728 0)
(1.05531 0.00697676 0)
(1.04606 0.0188409 0)
(1.04112 0.00401181 -1.38899e-20)
(1.002 0.00151357 0)
(1.06371 0.00240849 4.73807e-21)
(1.02205 0.00837967 0)
(1.02497 0.0416525 -7.38573e-22)
(0.0633338 -0.028609 0)
(1.03083 0.031056 -2.15654e-21)
(-0.0365181 0.00738944 0)
(1.00982 0.0189412 0)
(0.967881 0.00460152 1.37877e-20)
(1.0372 -0.0205122 1.34825e-20)
(1.05166 0.00461675 5.97001e-21)
(1.09518 -0.0284641 2.42916e-20)
(1.03079 0.0280146 3.92151e-21)
(0.24574 -0.0043775 2.89786e-20)
(1.06256 -0.00218352 -2.17754e-20)
(1.06183 -0.0020255 0)
(0.996696 0.0239889 -1.1637e-20)
(1.01058 0.000357978 -1.7814e-21)
(0.999924 0.000178602 -7.55211e-21)
(1.03869 0.01881 0)
(1.01397 0.0144933 6.33273e-22)
(0.143893 -0.000923615 -8.75029e-22)
(1.05332 0.00524737 3.8846e-21)
(-0.217875 -0.0134053 0)
(0.906179 0.0783514 -3.08925e-20)
(1.05828 0.00462481 1.992e-20)
(1.06141 -0.00167131 9.01143e-21)
(1.00258 0.00452012 -7.99714e-21)
(1.05252 0.00225278 2.3935e-20)
(1.19648 0.324549 2.89218e-20)
(0.988379 0.0331561 1.79123e-20)
(1.06269 -0.00228466 -6.05715e-23)
(0.972988 0.0311031 0)
(1.03067 0.00566295 -8.43272e-22)
(0.998593 0.00674365 1.11741e-20)
(1.06952 0.0300162 -1.42032e-20)
(1.0244 0.0407201 0)
(1.12094 0.0565656 -2.96977e-20)
(1.00401 0.0294431 0)
(0.759652 0.306064 1.12265e-19)
(0.993302 0.137018 -1.88692e-21)
(1.05648 -0.00299808 3.06026e-21)
(1.05859 0.00356642 -1.28081e-20)
(1.09576 0.0483827 1.78641e-20)
(0.985358 -0.00406756 -1.24805e-20)
(1.05781 0.0045174 -1.47106e-20)
(0.430202 0.00557142 7.35467e-21)
(0.735969 -0.00147313 1.10969e-20)
(1.06154 -0.0121514 1.66665e-20)
(1.24243 0.160161 -7.60855e-20)
(1.06394 -0.00560655 0)
(1.06196 -0.0117753 1.83718e-21)
(-0.211769 -0.00742869 9.86472e-20)
(1.06229 -0.00191331 0)
(0.973041 0.0730185 1.21707e-20)
(0.442909 0.000877366 -4.72615e-21)
(-0.0261976 -0.0147625 3.37644e-20)
(1.06127 0.00243591 1.47878e-20)
(1.06214 -0.00198578 1.44745e-23)
(0.95619 0.00443505 0)
(0.306167 -0.00141926 -5.0833e-21)
(1.0637 -0.000436301 -2.16446e-20)
(1.07228 0.00842488 -1.41515e-20)
(1.04761 0.0201483 8.33782e-21)
(0.99841 0.0062432 1.48202e-22)
(1.06413 0.00248251 0)
(1.04725 0.00249852 -5.793e-21)
(0.0315217 -0.0162125 5.1813e-20)
(0.995697 -0.0149678 -6.61704e-21)
(1.01486 0.00329778 -1.644e-21)
(1.0238 0.00674667 0)
(1.0616 0.00386369 -7.47742e-21)
(0.958338 0.0015409 -1.78834e-20)
(0.299958 -0.0408755 -1.16019e-20)
(0.994749 -0.0015535 -2.20077e-20)
(0.991289 -0.0069409 8.67106e-22)
(1.01912 0.0313242 3.08446e-21)
(1.11488 -0.00521039 -2.67684e-20)
(0.99959 -0.00114398 -8.24763e-21)
(1.14747 0.0142109 1.78702e-20)
(0.437167 -0.00013122 6.41808e-21)
(1.00169 0.000445623 -9.19662e-21)
(1.04108 0.0176072 0)
(1.03071 0.0115676 -1.9458e-21)
(0.433941 -0.0344254 -6.39041e-21)
(0.047322 -0.0133143 1.28596e-20)
(1.07109 0.0469743 2.48806e-20)
(0.929378 0.109501 -9.88393e-21)
(1.04147 0.032451 5.21963e-21)
(1.06219 -0.00170258 -9.7184e-21)
(-0.216986 -0.00174843 1.30618e-19)
(0.924248 0.0576788 2.32056e-20)
(0.986849 0.0750958 0)
(0.999952 0.000389516 0)
(0.567551 0.650971 1.39134e-19)
(1.04975 -0.0106233 1.32723e-20)
(1.00362 0.00529836 4.75929e-21)
(1.04361 0.0654801 -1.05108e-20)
(1.06081 0.021217 -1.83229e-20)
(1.04748 0.00772562 0)
(1.00309 0.0691658 0)
(0.960824 0.0459653 -2.64218e-20)
(0.979583 -0.022328 1.91556e-20)
(1.05367 -0.00426164 1.21798e-20)
(1.0153 0.016251 -4.55723e-21)
(-0.245807 -0.00776429 -1.35354e-19)
(0.088408 -0.0279364 6.0032e-20)
(1.05197 0.00239323 0)
(1.05189 0.00245281 3.6593e-21)
(1.04561 -0.000162865 7.47391e-21)
(1.07766 -0.0126897 -1.20114e-20)
(0.130436 -0.0118244 0)
(-0.175973 0.00265555 0)
(1.05011 0.0268256 0)
(1.06874 0.0209307 1.36023e-20)
(0.463734 -0.0345185 0)
(-0.221089 -0.00701994 0)
(0.999962 0.000389353 5.24653e-21)
(1.00215 0.0180973 -6.86193e-21)
(1.05079 0.0122883 1.12191e-20)
(1.00941 0.00804155 -8.75559e-22)
(0.472258 -0.00219046 -8.88322e-21)
(1.06255 -0.0023948 -1.79239e-20)
(1.0701 0.0468113 -1.90208e-20)
(1.00024 0.0969623 0)
(0.99676 0.0941187 0)
(0.996812 0.0178231 9.00139e-21)
(1.05838 0.0454635 0)
(1.04344 0.263461 1.06459e-20)
(0.995875 0.0124477 -2.36308e-20)
(1.09273 -0.0242861 2.08222e-20)
(1.02012 0.0310657 -1.58032e-21)
(0.902479 0.400121 -1.81127e-20)
(0.153017 -0.0113298 -5.94428e-20)
(0.999604 -0.00119902 0)
(1.20965 0.22977 8.8834e-21)
(1.04373 0.00394347 1.4952e-21)
(0.994735 0.0129056 0)
(1.04128 -0.00147934 3.65979e-21)
(1.02328 0.0115246 3.56434e-22)
(0.829525 0.0628182 -1.16264e-19)
(1.00569 0.0112601 -6.85842e-21)
(1.05292 0.00659237 1.23192e-20)
(1.00268 0.00345183 0)
(1.05121 0.00348908 -2.80885e-21)
(1.03862 0.0140569 -6.09873e-21)
(1.04016 -0.000451682 -3.94701e-21)
(1.0182 0.0191086 0)
(1.01981 0.00925277 8.06986e-22)
(0.993155 0.011761 0)
(1.00689 0.0144536 0)
(0.081351 -0.00920567 -6.53888e-20)
(1.122 0.0158582 0)
(1.05817 0.00431607 1.77727e-20)
(1.12099 0.0137211 0)
(0.988943 0.0340813 6.13384e-21)
(-0.151589 -0.0100727 -1.38563e-20)
(0.678947 -0.0202689 -3.21183e-21)
(1.01541 0.000707847 2.64196e-21)
(1.06028 0.00352296 -9.64807e-21)
(1.06278 -0.00254558 -6.99192e-21)
(1.02412 0.00618964 2.64956e-22)
(1.00171 0.000902685 -6.69012e-21)
(1.0701 0.0186861 -2.1987e-20)
(1.14248 0.0115024 2.92383e-20)
(0.143596 -0.00925692 0)
(1.06652 -0.00381265 0)
(0.999952 0.000613256 -5.51068e-21)
(1.03189 0.0297464 0)
(1.12187 0.0536815 9.87575e-20)
(0.999787 -0.000494782 -1.1884e-20)
(1.08885 -0.0142327 -8.42397e-21)
(1.00183 0.00161575 0)
(0.0220936 -0.0129476 -6.45736e-20)
(1.00461 0.0492806 0)
(1.00531 0.0138229 7.40938e-21)
(0.998095 0.00102787 0)
(1.02103 0.0173649 0)
(0.820166 -0.0018718 5.64546e-21)
(1.0776 -0.00492339 0)
(1.09392 -0.0258547 -2.19186e-20)
(1.0222 0.00744987 0)
(1.04757 0.00301824 5.10181e-21)
(1.17727 0.0855906 -1.2274e-21)
(0.946915 0.0246179 -1.52248e-20)
(1.04938 0.0283473 -1.36221e-20)
(0.388655 0.00498893 2.828e-22)
(0.484045 0.00912109 -4.77185e-21)
(1.0664 -0.00904126 -2.20532e-20)
(1.00417 0.0019191 3.10769e-21)
(1.18465 0.298334 1.63554e-19)
(0.856479 0.0380742 1.47092e-20)
(0.981077 -0.00236032 3.41051e-21)
(1.02223 0.00561589 1.09165e-22)
(1.07547 0.208154 3.63609e-20)
(1.10901 0.0275587 -1.48747e-20)
(1.01666 0.0047595 -3.31166e-21)
(0.072532 -0.0136477 2.56698e-20)
(-0.223954 -0.00613191 1.21753e-19)
(1.07929 0.0591792 7.64007e-21)
(1.00094 0.045947 -1.32805e-20)
(1.02296 0.0159783 -7.11193e-22)
(1.02027 0.00961121 -1.69109e-21)
(0.498848 -0.00457049 6.67496e-21)
(1.02891 0.13702 2.10049e-21)
(1.01367 0.000604292 0)
(0.943182 0.101407 2.70558e-20)
(1.01444 0.019791 -4.35399e-22)
(1.05929 0.0380004 0)
(1.02165 0.00631673 -5.54242e-22)
(0.989719 0.0527994 0)
(1.04314 0.0642244 1.06511e-20)
(0.999916 0.000611663 0)
(1.0481 0.00442632 8.69289e-21)
(0.99885 0.131247 8.56661e-21)
(1.01853 -0.029698 -3.09781e-20)
(1.06214 -0.00199071 -1.71793e-20)
(1.1546 0.128076 1.69247e-20)
(1.05895 -0.00294644 0)
(1.09554 0.0529977 1.7148e-20)
(0.120054 -0.0086231 4.57211e-21)
(1.06193 0.0671313 -2.86497e-21)
(1.05178 0.00417014 -6.13839e-21)
(1.13387 -0.022718 9.3465e-20)
(0.165722 -0.00806589 0)
(0.99568 -0.00110144 -2.07247e-20)
(-0.0584402 -0.00877664 7.60496e-22)
(1.06654 0.0479938 -3.89601e-20)
(0.970452 0.0692283 -2.04484e-20)
(0.892415 0.0601841 -2.46057e-20)
(1.0028 0.0243067 9.43966e-21)
(-0.149092 0.0238374 6.12959e-20)
(1.00617 0.000824421 6.13411e-21)
(1.0621 -0.00208471 -1.5337e-20)
(-0.0536504 -0.00652124 0)
(1.00116 0.0265936 9.38108e-21)
(0.979592 0.0487281 -2.01102e-20)
(1.10218 -0.000215944 -3.11858e-20)
(1.00959 0.0166632 0)
(1.16999 0.063775 -4.56682e-20)
(1.04286 0.263655 -8.47358e-21)
(1.06033 0.00155132 3.0826e-21)
(1.20236 0.244005 -1.00915e-20)
(1.07704 -0.00433682 0)
(1.02144 0.00685402 0)
(1.05264 0.091694 -1.14973e-20)
(1.03962 0.0298549 1.09375e-21)
(1.01736 0.0325541 -8.84069e-22)
(1.00436 -0.0138633 1.02378e-20)
(0.980113 -0.00432043 -1.88901e-21)
(1.06017 0.00504238 -1.11422e-20)
(0.999771 0.0122643 0)
(1.11138 0.304444 0)
(1.01512 0.000817261 0)
(0.969192 0.00208394 -2.44476e-20)
(1.00274 0.0269935 8.64575e-21)
(0.939201 0.0930179 -2.28285e-20)
(0.846164 0.0348859 1.65516e-20)
(0.69221 -0.015257 3.08219e-21)
(1.06566 -0.00361818 0)
(1.00783 0.0281111 -4.13233e-21)
(1.00415 0.00509659 2.93382e-21)
(1.06787 -0.0038305 -2.63909e-20)
(1.23376 0.0731054 0)
(1.03966 0.0183619 0)
(1.00577 0.0145101 1.25335e-20)
(1.01301 0.0139707 -1.24266e-21)
(1.06786 0.0468545 2.04732e-20)
(1.01785 0.0155651 3.45121e-21)
(1.0328 -0.0015483 0)
(0.999774 0.000840443 -1.19113e-20)
(1.06105 -0.000784708 -9.42863e-21)
(1.09754 -0.0271323 -7.97214e-22)
(0.740943 -0.00445373 1.27631e-20)
(0.999911 -0.000708283 0)
(1.00609 0.0116983 7.33266e-21)
(0.999105 0.00124857 5.52215e-21)
(0.996444 0.0650514 2.67129e-21)
(1.23747 0.109149 -1.00239e-19)
(0.345776 0.00337368 0)
(0.657295 -0.0151368 0)
(1.08577 -0.00471204 0)
(0.911096 0.0902482 0)
(0.608714 -0.0165743 1.05016e-20)
(0.996258 0.0181634 0)
(0.998368 0.0571927 -9.42934e-21)
(1.06939 -0.00925175 2.99327e-21)
(1.05309 0.00679504 0)
(1.02773 0.0350245 -5.19802e-22)
(1.05685 0.000477896 0)
(1.04821 -0.0129338 0)
(1.04077 0.00642516 8.63139e-21)
(1.00608 -0.00687886 8.59025e-20)
(1.04691 0.0068757 0)
(0.119103 -0.00669848 6.90477e-20)
(0.996459 0.00723647 0)
(0.00471621 -0.0131839 -3.18412e-20)
(0.140436 -0.00517901 0)
(0.750164 -0.00135321 -1.60846e-20)
(0.571252 0.0111414 -1.17944e-20)
(1.06444 -0.00615702 0)
(1.06297 0.00188279 -9.30456e-21)
(0.0400657 -0.00989388 -1.04475e-19)
(1.01356 0.0137924 1.17881e-21)
(0.98417 0.078742 0)
(0.996103 0.00320676 -3.90717e-21)
(1.1589 0.176061 0)
(1.00463 0.00539292 4.36966e-21)
(1.07674 0.542913 -8.51564e-20)
(0.740226 0.189851 2.33112e-20)
(0.981661 0.127899 -1.3563e-20)
(1.00196 0.0218493 -7.49076e-21)
(0.991075 0.0304611 0)
(0.643133 -0.0160613 1.90256e-20)
(0.990649 0.0630236 0)
(0.976459 0.0698061 -7.27622e-21)
(1.00267 0.00801331 0)
(0.979968 -0.020354 -3.62771e-21)
(1.17894 0.0964093 0)
(1.06421 -0.00516505 0)
(1.11493 0.0411 6.352e-20)
(-0.0569163 -0.014482 -4.48931e-22)
(1.02077 0.029829 -8.64779e-22)
(0.0469582 -0.0105501 -3.52932e-20)
(1.06445 -0.00629457 -1.00624e-20)
(1.23113 0.0647507 0)
(1.05725 0.0106853 0)
(1.11862 0.0464652 -8.12501e-20)
(0.953217 0.0262502 1.54124e-21)
(1.14976 0.0185224 -6.06032e-20)
(1.00234 0.00404209 0)
(1.05648 0.00936273 4.06054e-21)
(0.815962 0.0424334 0)
(1.00643 0.00716738 0)
(0.661517 -0.0191746 3.45156e-21)
(0.724632 -0.00443711 -2.06248e-20)
(0.347084 0.000865722 -2.15328e-21)
(0.629387 -0.0153806 -1.5357e-20)
(1.06858 -0.00904445 0)
(1.04592 -0.00705261 0)
(0.965889 0.0108643 0)
(1.11735 0.332628 -9.13874e-20)
(1.00435 0.00202406 -9.40311e-21)
(1.18135 0.00848262 2.62695e-20)
(1.15314 0.0216472 -6.91117e-20)
(1.0518 0.0616365 -1.54478e-20)
(1.10746 -0.0144916 8.01755e-22)
(0.847343 0.265694 -2.88366e-20)
(1.16678 0.157883 -3.46852e-20)
(0.99007 0.00172713 0)
(0.983276 0.202453 9.19159e-21)
(-0.0106509 0.0023701 0)
(0.99614 0.00688823 0)
(1.05166 0.0181798 4.74559e-21)
(1.004 0.00445953 -3.29624e-21)
(1.00036 0.00490315 0)
(1.00279 0.00376741 5.42316e-22)
(0.827848 0.00163884 -4.26411e-21)
(0.999686 -0.000558831 2.67356e-20)
(1.01903 0.0176628 1.75493e-21)
(1.07198 -0.0043926 -2.96805e-20)
(0.995744 -0.00459593 9.59174e-21)
(1.05951 0.00342693 -1.69223e-21)
(1.00906 0.0184269 4.70667e-21)
(0.889295 0.0481675 4.35872e-20)
(1.04008 0.00685615 -2.06163e-21)
(0.765332 0.267139 6.89254e-21)
(0.998505 0.00191186 7.81369e-21)
(0.716389 0.113796 1.05679e-19)
(0.326451 -0.0425529 3.21133e-20)
(1.11458 0.0388302 -6.48845e-20)
(1.06356 -0.000334793 0)
(1.06687 0.00966591 -1.6374e-22)
(0.865434 0.398071 8.32784e-22)
(1.10016 -0.000862994 4.05183e-20)
(0.79563 0.00365114 4.30557e-21)
(0.893639 0.166524 0)
(0.997915 0.00217366 1.36666e-20)
(0.203505 -0.0114898 0)
(0.950338 0.0246561 -2.75514e-20)
(0.104545 -0.00885434 1.03837e-20)
(1.04823 0.0645925 -5.93796e-21)
(1.15286 0.0230167 0)
(1.22015 0.0626852 -8.28639e-20)
(1.08466 -0.00372573 0)
(0.999976 -6.53098e-05 -1.27709e-21)
(1.04876 0.00312832 2.49341e-21)
(0.560237 0.00730607 7.32755e-21)
(1.05185 0.0171207 -1.98963e-20)
(1.06377 0.00491438 -6.45602e-21)
(1.05716 0.0214024 6.85275e-21)
(1.06049 -0.00949537 1.04547e-20)
(1.06333 -0.000672505 1.48594e-20)
(1.0634 -0.00536038 3.77975e-21)
(0.988486 -0.021163 -1.4226e-20)
(1.00858 0.00681953 -1.01041e-20)
(0.711325 -0.0145329 1.03212e-20)
(1.0582 -0.00361506 1.17696e-20)
(1.00286 0.010131 1.01002e-20)
(1.03305 0.0172103 -3.08961e-21)
(0.516235 -0.0359047 1.09545e-20)
(1.02211 0.0301087 3.75265e-21)
(1.11117 0.0323283 1.49773e-20)
(0.0492871 0.00134598 -2.11975e-21)
(0.997848 0.000560629 1.3708e-22)
(1.06176 -0.00229052 0)
(1.02286 0.088499 -1.91601e-23)
(1.05934 -0.00321975 -1.56826e-20)
(1.03222 0.016867 0)
(1.00269 0.0102888 4.21972e-21)
(1 0.000131466 0)
(1.10921 0.0265816 3.09191e-20)
(0.744202 -0.00861042 0)
(1.00531 0.0158617 1.05128e-20)
(1.00656 0.00753098 0)
(0.927309 0.016509 5.68036e-21)
(1.20797 0.0558706 5.72036e-20)
(1.09373 0.073144 -3.34582e-20)
(0.995075 -0.00284488 1.6404e-20)
(1.01718 0.0159689 2.70356e-23)
(1.01881 0.0195952 0)
(0.999937 0.000358206 0)
(0.996412 0.0122343 1.47129e-20)
(0.976292 0.121463 4.45296e-21)
(0.964645 0.0565522 1.28053e-20)
(0.748079 0.178668 -8.26478e-20)
(1.19836 0.169088 2.83935e-21)
(1.05981 -0.00392619 1.71738e-20)
(1.06652 -0.00739726 -3.15347e-21)
(0.960927 -0.0015387 1.29244e-22)
(0.999403 -0.000158328 1.59747e-20)
(1.03513 0.013278 1.19938e-21)
(1.17457 0.00677958 0)
(0.894186 -0.00376809 -1.93425e-20)
(1.09754 0.0133456 8.30925e-21)
(1.0601 0.00134916 -2.0932e-20)
(1.00003 0.000406827 8.75477e-21)
(1.16577 0.162105 3.75832e-20)
(1.06389 0.0123992 0)
(1.06222 -0.00212761 0)
(0.996556 0.00318896 7.14107e-21)
(1.10519 -0.0144596 5.13529e-20)
(0.968891 0.0390946 1.003e-20)
(0.999802 7.89114e-05 -1.41217e-20)
(0.965319 0.0147528 1.43938e-20)
(1.01595 0.000699263 2.22286e-21)
(1.06265 -0.00285595 -1.17137e-20)
(1.07255 0.0196428 -4.22786e-21)
(0.896923 0.160207 2.86046e-20)
(1.00261 0.00389047 -5.29987e-21)
(0.765844 -0.0153294 -1.76548e-20)
(1.00005 0.000212253 0)
(0.132924 0.0006364 -1.12586e-20)
(0.139258 -0.0117652 -3.6065e-20)
(0.999085 0.00401413 0)
(0.207826 -0.0379294 0)
(1.0079 0.000860274 0)
(1.00931 0.0158194 0)