/*--------------------------------*- C++ -*----------------------------------*\
| =========                 |                                                 |
| \\      /  F ield         | OpenFOAM: The Open Source CFD Toolbox           |
|  \\    /   O peration     | Version:  v2012                                 |
|   \\  /    A nd           | Website:  www.openfoam.com                      |
|    \\/     M anipulation  |                                                 |
\*---------------------------------------------------------------------------*/
FoamFile
{
    version     2.0;
    format      ascii;
    class       volScalarField;
    location    "200";
    object      k;
}
// * * * * * * * * * * * * * * * * * * * * * * * * * * * * * * * * * * * * * //

dimensions      [0 2 -2 0 0 0 0];


internalField   nonuniform List<scalar> 
14033
(
0.000144988
0.000253655
0.000147565
0.000160164
0.000170905
0.000157154
0.000162097
0.0121984
0.000149805
0.000147451
0.00155735
0.0245434
0.0737242
0.000147119
0.000154957
0.000147337
0.000146396
0.000214764
0.0173841
0.000149816
0.000158934
0.0287696
0.0683306
0.000161047
0.0406322
0.00015968
0.000204753
0.000148104
0.0212099
0.075677
0.000144508
0.000147581
0.000154338
0.0225579
0.000151062
0.000149641
0.000160367
0.000149752
0.00015538
0.00015555
0.000169272
0.000152355
0.0266351
0.044051
0.000148873
0.0370261
0.000158313
0.000152388
0.00020254
0.0198711
0.000170983
0.000182543
0.037732
0.0467897
0.000180849
0.000155779
0.065548
0.000148148
0.000166561
0.000149166
0.000205009
0.000149531
0.00030397
0.000151114
0.000160606
0.00018719
0.0310306
0.000205713
0.000147679
0.000151078
0.000164515
0.000149748
0.0705358
0.0627634
0.0235376
0.000149466
0.00016986
0.000149321
0.000148604
0.000204633
0.000188759
0.034168
0.0214005
0.0181169
0.000149699
0.000149616
0.000154896
0.000146346
0.000174178
0.0182996
0.000152875
0.000151218
0.000161635
0.00686622
0.00576849
0.00016606
0.000160434
0.000209349
0.0243233
0.000148912
0.000184375
0.041822
0.000149857
0.00014758
0.0215189
0.00809229
0.000170666
0.000197352
0.000175817
0.0635096
0.000148725
0.000147708
0.000148949
0.0416359
0.000148996
0.0156298
0.0255624
0.000149734
0.000188098
0.0372843
0.000151873
0.000246326
0.000154411
0.000147729
0.0650532
0.000162919
0.071833
0.000211787
0.000147135
0.000184191
0.0734796
0.00018819
0.000206119
0.0182947
0.000194095
0.000147028
0.0131176
0.0443009
0.000165221
0.000215371
0.000148326
0.0614131
0.000176668
0.000188891
0.000148617
0.000150795
0.0455459
0.000181071
0.000144516
0.000160343
0.000149629
0.000188945
0.000155677
0.000282312
0.000314388
0.000149819
0.0252288
0.000147836
0.000153653
0.0194332
0.0142574
0.000221991
0.000153877
0.000160857
0.03039
0.00015427
0.0666339
0.000174602
0.021078
0.000149038
0.000224502
0.000150171
0.000160111
0.000166573
0.000169825
0.000202953
0.000149499
0.000147045
0.000147002
0.0226402
0.0612593
0.000216536
0.000148727
0.0395383
0.000150483
0.000153371
0.000149689
0.000148698
0.048123
0.000183959
0.000160643
0.000152033
0.000428662
0.000151009
0.000153798
0.000161126
0.000149683
0.0665183
0.000290296
0.000148565
0.0676059
0.000151322
0.000214775
0.000149859
0.0657343
0.0751862
0.000149425
0.000151735
0.0635901
0.074367
0.000175689
0.000148774
0.000187482
0.000148996
0.000153466
0.000149786
0.000159656
0.00285055
0.000268983
0.0001585
0.0163422
0.0431755
0.000148915
0.000154954
0.000149602
0.000679508
0.0622646
0.000158616
0.0145003
0.000149651
0.000148819
0.000151269
0.000216356
0.0741838
0.000154286
0.000146595
0.0582335
0.000148684
0.000150002
0.000165125
0.000148973
0.000179586
0.000183427
0.0154896
0.000150285
0.025074
0.000148743
0.0363667
0.0002158
0.000154057
0.000278707
0.0263475
0.000147255
0.000159064
0.000157246
0.000248134
0.000148774
0.000229083
0.000148436
0.0768365
0.000148726
0.0297459
0.000149456
0.00014896
0.000147658
0.000148842
0.000182662
0.000202597
0.000150008
0.000170314
0.000151983
0.000148556
0.00022728
0.000201681
0.00019318
0.000147046
0.000146994
0.000147202
0.044707
0.000160075
0.000149754
0.000148607
0.0598399
0.0281744
0.000147048
0.0604107
0.000166094
0.000159908
0.000151718
0.000155456
0.000149801
0.000183304
0.000147067
0.0759109
0.000159123
0.000162565
0.000199789
0.000164731
0.0782175
0.0555721
0.000166385
0.0445705
0.000175519
0.000153943
0.0618547
0.000147077
0.000154688
0.000185682
0.000180955
0.000148557
0.00018118
0.000230384
0.000147168
0.00049229
0.0350093
0.0737769
0.000179988
0.000149799
0.00662336
0.000152875
0.000149765
0.000178924
0.000149954
0.000147976
0.000153291
0.000159862
0.000175202
0.00014647
0.000147861
0.069594
0.0629327
0.00015167
0.000147851
0.0347217
0.000152158
0.000148467
0.000148793
0.000152108
0.0641798
0.000148867
0.0332385
0.0216092
0.000154855
0.0391381
0.000159849
0.00015669
0.000168295
0.000160062
0.00109944
0.000147152
0.0363458
0.000209021
0.000148542
0.000165659
0.000151316
0.000156787
0.000148835
0.000227791
0.0328279
0.0772058
0.000148704
0.0804834
0.000154354
0.000253144
0.000149383
0.000148834
0.000164825
0.000149744
0.0421561
0.0793455
0.000211724
0.000148622
0.00015495
0.000155656
0.000147975
0.0267223
0.00017276
0.000149516
0.0385075
0.000175983
0.000148854
0.000147828
0.000154018
0.000151596
0.0421761
0.00716755
0.00024177
0.000218117
0.00014817
0.000193091
0.0492448
0.000158203
0.014914
0.000147193
0.000159591
0.000197878
0.0316516
0.00020017
0.0377525
0.000149721
0.000146315
0.0207188
0.000149142
0.0112505
0.000214052
0.000248821
0.000150206
0.000174269
0.0681178
0.00631149
0.000148946
0.000185805
0.000154383
0.000213705
0.000149815
0.021532
0.0668938
0.000152133
0.000154021
0.000178636
0.000154379
0.000149249
0.0213403
0.0192453
0.00014943
0.0464851
0.0191037
0.0488542
0.000152997
0.000146355
0.000148541
0.000148407
0.0216979
0.000156027
0.000147988
0.000439042
0.0617572
0.000201504
0.00024222
0.000150396
0.0663036
0.000192004
0.000150459
0.0380637
0.000161912
0.0405343
0.000198287
0.00106311
0.000149978
0.000339259
0.000149222
0.0652114
0.000165527
0.0233027
0.0622694
0.000149666
0.065434
0.000149349
0.000222732
0.0122932
0.000527845
0.0222284
0.000162092
0.0572765
0.0428247
0.00027386
0.000151425
0.0456721
0.000207177
0.000205909
0.00014606
0.000174991
0.000154542
0.000150568
0.0682643
0.000218044
0.000157904
0.000166053
0.0658601
0.0140017
0.0811886
0.000182446
0.0740766
0.0658157
0.000151796
0.0292751
0.000147534
0.000145991
0.000235703
0.000146131
0.00021264
0.0303788
0.000149689
0.000150336
0.000159332
0.000198498
0.000148523
0.00017848
0.000147674
0.00014867
0.000149036
0.000147248
0.000171016
0.0001476
0.000192534
0.000169361
0.000157643
0.000146796
0.0266953
0.0643525
0.0592524
0.000147273
0.000178615
0.000178871
0.000145791
0.000149566
0.000149476
0.0779251
0.000279134
0.0207355
0.000150472
0.000167522
0.0181547
0.000154616
0.000159709
0.00028474
0.000147616
0.000427322
0.0246277
0.00015265
0.00016526
0.000211941
0.0251942
0.000149065
0.000177863
0.000257059
0.000171722
0.000152122
0.0494574
0.0203883
0.000156223
0.000149606
0.000165601
0.0804155
0.0734412
0.0294986
0.000147091
0.000165113
0.0703143
0.000152613
0.000149095
0.000166173
0.000148777
0.000164939
0.0205069
0.000217084
0.000286681
0.00014906
0.0121961
0.000172193
0.000154149
0.000146883
0.000150078
0.0213576
0.000244466
0.000167495
0.000152823
0.000183031
0.000149822
0.069252
0.000164848
0.0470051
0.0391212
0.000149674
0.0798947
0.0176047
0.000149082
0.00423012
0.0764285
0.000145848
0.0268652
0.000157003
0.0618121
0.000151802
0.000151702
0.0643297
0.000180781
0.000149558
0.000182634
0.0651044
0.000271017
0.000149768
0.000149229
0.000189512
0.000177924
0.063761
0.000149609
0.000213135
0.000211814
0.000177576
0.000219964
0.000149728
0.0197378
0.0801104
0.000159538
0.0755934
0.000148557
0.000187778
0.000164058
0.000188366
0.000147642
0.0318943
0.000152529
0.000161705
0.000149484
0.000148858
0.000149012
0.000156663
0.0716515
0.000156531
0.000154266
0.000226066
0.060665
0.0707357
0.0160688
0.0216555
0.000152628
0.0718802
0.0781021
0.0602855
0.000167868
0.0166418
0.000147831
0.000171886
0.000148472
0.0326934
0.000161256
0.0316259
0.000148085
0.00019
0.0247356
0.0784543
0.000148889
0.0583879
0.000148327
0.000149068
0.000153966
0.000149759
0.000153817
0.000148438
0.000147487
0.000149672
0.000151597
0.000493515
0.000193459
0.000151873
0.00021906
0.0358602
0.00019783
0.000147269
0.000197935
0.000166616
0.000168864
0.0627295
0.000245369
0.000149776
0.000148793
0.000148581
0.000208346
0.000147574
0.0490267
0.000149003
0.000151391
0.000163314
0.000188405
0.000148186
0.000149308
0.0386562
0.0268823
0.000458689
0.0468483
0.0131467
0.000152817
0.000151922
0.000148407
0.0213244
0.000149449
0.000156159
0.000151061
0.000190917
0.000146121
0.0630022
0.000254873
0.000148296
0.000188644
0.000148626
0.000147587
0.0223817
0.0345018
0.000150028
0.00016006
0.000151398
0.000180059
0.000148467
0.00018257
0.000148527
0.000169009
0.000296436
0.00017802
0.000151372
0.0736849
0.000148632
0.0237128
0.000165541
0.000168541
0.00015796
0.000205651
0.0707116
0.000163571
0.000190148
0.000177994
0.000197726
0.0178896
0.00015652
0.0126985
0.000148812
0.0339419
0.000146946
0.000159201
0.0271133
0.0455236
0.000255417
0.000188306
0.000147221
0.000148706
0.000150654
0.0176772
0.000152544
0.0782297
0.0629114
0.0001491
0.000227251
0.000155758
0.000245663
0.000151843
0.000159085
0.0612904
0.000155546
0.0147758
0.000150233
0.000146538
0.00015081
0.00017612
0.000161881
0.000179351
0.000154529
0.000146997
0.000148445
0.0685328
0.0257581
0.000187187
0.0657882
0.000148165
0.000148118
0.000147721
0.000148857
0.0240345
0.000168253
0.0216639
0.0123674
0.000149441
0.0307974
0.0113016
0.000163847
0.000236545
0.000165961
0.000204706
0.0632622
0.0296894
0.0708555
0.000148455
0.0327312
0.0640798
0.000149929
0.0674391
0.000258323
0.000168317
0.000156382
0.0369002
0.0671568
0.000188003
0.000165621
0.026951
0.014816
0.0619553
0.000150773
0.00016713
0.0630602
0.000148743
0.000152671
0.0626799
0.000147099
0.000149723
0.000211869
0.0801868
0.00015827
0.00014894
0.000149652
0.0743071
0.0664585
0.000360082
0.0001853
0.0351368
0.00018965
0.0600382
0.000148508
0.000215344
0.000151044
0.000147116
0.000148076
0.000146813
0.000148093
0.000149034
0.000149029
0.000249643
0.000157911
0.0656683
0.0648201
0.00014851
0.000148453
0.000151683
0.0152183
0.0336607
0.000509091
0.000159354
0.000580063
0.000205971
0.000224344
0.000178514
0.000192363
0.000149376
0.000152944
0.00014713
0.000188633
0.000152671
0.000149803
0.000151239
0.0646156
0.000149535
0.000154321
0.000148205
0.00020072
0.0620916
0.000164422
0.0791885
0.0803566
0.000190831
0.0289767
0.000148906
0.000147417
0.000152561
0.0784745
0.0719519
0.000198762
0.063178
0.000148397
0.000196759
0.000147311
0.000159731
0.000290429
0.000148828
0.000210822
0.000147951
0.000148931
0.000149029
0.000173237
0.000165097
0.00015077
0.000150405
0.000199173
0.000226162
0.000163034
0.000198085
0.000150358
0.0773939
0.000148808
0.000164811
0.000152092
0.00814755
0.000165505
0.000149746
0.000166308
0.0217525
0.000149062
0.000156994
0.0398852
0.000151821
0.0735697
0.0622206
0.000149378
0.000177393
0.000160537
0.000253113
0.000158373
0.000198165
0.0287276
0.000161677
0.0641202
0.000156657
0.000147794
0.000153565
0.000150618
0.0793952
0.0780915
0.000161129
0.000475661
0.000148981
0.0331067
0.000173442
0.000147847
0.000154623
0.00015553
0.0184524
0.000165759
0.00018525
0.061154
0.000149607
0.000174936
0.0638513
0.000149233
0.000178282
0.000149513
0.0606424
0.0710317
0.000198564
0.0188337
0.000158993
0.00015096
0.00023411
0.000149794
0.000146279
0.0633162
0.0398689
0.000149669
0.000149195
0.000190384
0.000147888
0.000156681
0.000152719
0.061365
0.000199643
0.000147953
0.000167079
0.0147648
0.000557674
0.000147532
0.000149409
0.000155426
0.0822989
0.000160872
7.89588e-05
0.000148733
0.000148748
0.0445712
0.000206537
0.000165014
0.000156237
0.000148668
0.00020327
0.0377749
0.00014955
0.000149551
0.000153293
0.000149682
0.000165437
0.000264407
0.00014955
0.000148581
0.000160786
0.000146988
0.000147828
0.000179429
0.000156347
0.000167739
0.000183497
0.000152644
0.000149728
0.013598
0.000260453
0.000293906
0.000150188
0.000148676
0.000150876
0.000236817
5.98857e-05
0.0195498
0.000149284
0.000149438
0.000153315
0.000149425
0.0217625
0.000149516
0.037874
0.0746638
0.0347371
0.000146509
0.000272846
0.0138721
0.000147059
0.00227384
0.000149266
0.000149055
0.0798815
0.000160862
0.0144699
0.0735028
0.000160047
0.0637931
0.000144958
0.000149086
0.000246518
0.00015163
0.000182642
0.000149471
0.000152266
0.000159747
0.000159733
0.000184942
0.000155943
0.0747306
0.000149521
0.000147913
0.000148426
0.000147636
0.000186647
0.000190234
0.0435132
0.00014828
0.0416835
0.00016031
0.000149642
0.000149398
0.000148394
0.000146501
0.000274685
0.000170186
0.000186721
0.000165278
0.00015867
0.000224498
0.000228871
0.00017719
0.0705987
0.000516944
0.0391491
0.0832483
0.000155698
0.0377912
0.0647565
0.00014938
0.000148736
0.000147982
0.0655355
0.0825684
0.000578912
0.0434536
0.0819702
0.00015949
0.000200924
0.00696395
0.000178936
0.0648667
0.00645014
0.0744593
0.000167012
0.0174683
0.000152625
0.00016768
0.00241667
0.000165658
0.0301044
0.000480088
0.0654026
0.0639665
0.000201302
0.000168171
0.0650722
0.065337
0.0605284
0.000147451
0.000184533
0.000165159
0.054821
0.00014993
0.000157499
0.00015049
0.000165627
0.0343693
0.000175671
0.000148185
0.0483002
0.000265755
0.000156737
0.000171003
0.0242129
0.000153467
0.000189096
0.0239163
0.000148069
0.0663366
0.000148671
0.000151526
0.000151132
0.0483518
0.000252374
0.0638048
0.000198795
0.0339263
0.00019614
0.0398361
0.000151617
0.000158627
0.000152258
0.000148258
0.000150243
0.000177816
0.000154849
0.000151148
0.0764765
0.0322161
0.000150916
0.000148796
0.000188741
0.000156366
0.0600998
0.000149818
0.0680243
0.000152883
0.0399362
0.000168163
0.0290311
0.0707908
0.000148675
0.000165089
0.0654407
0.065587
0.0509703
0.0463828
0.0203278
0.000155722
0.000150079
0.000159131
0.000150683
0.000148801
0.0619457
0.0001496
0.000146745
0.000153343
0.0327981
0.000148763
0.0735498
0.000164443
0.000159462
0.0679146
0.000164763
0.000166354
0.000165568
0.000149635
0.000165337
0.000225502
0.000146321
0.0624016
0.000167114
0.000147968
0.000149079
0.0242488
0.0212482
0.000151606
0.000149507
0.000150518
0.000148765
0.000190238
0.000207273
0.000148002
0.000147865
0.000150205
0.00452022
0.000478265
0.000160852
0.000151311
0.000200779
0.000154784
0.000185637
0.000186877
0.000166333
0.000172442
0.0228404
0.000148485
0.000153487
0.000376292
0.000169508
0.0704981
0.0493865
0.000167767
0.000152405
0.0358651
0.0758862
0.000151381
0.000150018
0.000148759
0.000199578
0.000205882
0.000151624
0.000147344
0.0402599
0.000173355
0.0560713
0.000199044
0.000189856
0.0729098
0.000148007
0.000188163
0.000344201
0.000151088
0.0785822
0.0433887
0.000152527
0.0640785
0.000150141
0.00015483
0.000151504
0.000169531
0.000147738
0.00018288
0.000146359
0.000147986
0.064357
0.0724656
0.000146317
0.0653026
0.000149676
0.042942
0.00014712
0.000181816
0.000148024
0.000283124
0.000234819
0.000151473
0.000166139
0.00029403
0.0594157
0.00071378
0.000164648
0.0676994
0.000150115
0.000148713
0.000167045
0.00015589
0.0182267
0.000150638
0.000154242
0.000211551
0.000149009
0.0442656
0.000156493
0.0449423
0.0236352
0.000188404
0.000210999
0.0010724
0.00015075
0.000151022
0.02211
0.000169899
0.000148525
0.000305119
0.000150731
0.0542159
0.000151892
0.0651684
0.000150132
0.0179118
0.0162767
0.0214555
0.0227944
0.000162407
0.00015024
0.000149322
0.000157238
0.000148782
0.0731437
0.000181524
0.0463287
0.00015063
0.0364796
0.0454797
0.0437533
0.000150543
0.00018377
0.0471174
0.000149116
0.000148533
0.0001597
0.0177202
0.000179826
0.0460959
0.000148041
0.0827772
0.000149774
0.000150421
0.000149084
0.000164299
0.043429
0.0426922
0.0629831
0.0303275
0.000148188
0.000166549
0.000159064
0.000178142
0.0305246
0.00022656
0.000146904
0.000148919
0.000179295
0.000155142
0.000206809
0.000149374
0.000201192
0.000149914
0.0425295
0.0456533
0.000578278
0.000150763
0.0407403
0.0405912
0.0712278
0.000155905
0.000161782
0.000152632
0.000150429
0.0453395
0.000189014
0.0651143
0.000147652
0.000156947
0.00014988
0.000186633
0.0129217
0.0283053
0.000172448
0.0687984
0.000286794
0.000182444
0.000148737
0.000149599
0.000153522
0.00852452
0.000148431
0.000148253
0.00015369
0.00016461
0.00343971
0.000148707
0.00286671
0.000130287
0.000148519
0.000149129
0.000149471
0.000147872
0.000197421
0.000190714
0.00014787
0.000188794
0.000161529
0.000150469
0.000155667
0.0813334
0.0181795
0.000175422
0.000153933
0.000181784
0.000154663
0.0849346
0.0073007
0.0763912
0.000184545
0.0385299
0.00016832
0.000166195
0.0425918
0.00018636
0.0630164
0.000150614
0.0813066
0.000188091
0.000193196
0.000148705
0.000152742
0.0214314
0.000265956
0.0680699
0.000162122
0.000154741
0.000188283
0.000148099
0.000459895
0.000148736
0.000148804
0.000150938
0.000146891
0.000149406
0.000147483
0.0219754
0.0665348
0.000147655
0.000148984
0.000148617
0.000169959
0.000146865
0.000188069
0.000159893
0.00017317
0.000176417
0.000155997
0.00018548
0.0802453
0.0516775
0.000165045
0.000147824
0.000174429
0.000164456
0.000150108
0.000152865
0.0252144
0.021622
0.00015297
0.0451706
0.000195449
0.000202196
0.000152636
0.000171692
0.000148838
0.0690861
0.000147899
0.000167404
0.000149616
0.0187258
0.000187556
0.000179163
0.000165061
0.000150403
0.0849467
0.000149315
0.000160255
0.0201432
0.000157083
0.000151647
0.000183684
0.000149844
0.000152533
0.0776988
0.000151488
0.000152927
0.00014833
0.000148573
0.000158102
0.000454422
0.000184751
0.000175453
0.0523741
0.000201401
0.00022484
0.0238517
0.000147935
0.000149028
0.068547
0.000170238
0.0215948
0.000197113
0.0421952
0.00014774
0.00124929
0.018646
0.0181705
0.000177339
0.000161338
0.0706517
0.0433257
0.000213531
0.000158848
0.0489599
0.0222601
0.000147678
0.000151045
0.000176846
0.000157722
0.00054821
0.000162692
0.000153002
0.000157745
0.0287927
0.000232589
0.00016231
0.00687022
0.00017971
0.000150736
0.000151479
0.000151724
0.00016989
0.000161726
0.000164948
0.000150862
0.063176
0.0271422
0.000196935
0.0249613
0.0157154
0.000150769
0.00016926
0.0612643
0.000149007
0.0298821
0.000154275
0.000156023
0.00509436
0.000209954
0.000150777
0.000158156
0.0841971
0.000148171
0.000150888
0.000155691
0.000545953
0.000161576
0.000148664
0.000207301
0.0818346
0.0166634
0.000157432
0.000149614
0.067148
0.000149514
0.000148009
0.000157311
0.000147941
0.000291191
0.000167348
0.0410806
0.00014871
0.00014726
0.000149027
0.000149117
0.00015478
0.000218092
0.0663784
0.00018764
0.000148744
0.000148724
0.0001481
0.00160501
0.000158492
0.000150371
0.000154098
0.00014896
0.0372866
0.000165612
0.0197487
0.0718008
0.0799108
0.000350406
0.000148314
0.0277724
0.0610726
0.0108547
0.000145749
0.000262286
0.00014913
0.00015994
0.000198984
0.000148773
0.000164588
0.0800391
0.000151405
0.000301017
0.0593161
0.000292225
0.0388127
0.0343365
0.0142785
0.000164996
0.0323189
0.0638713
0.000149603
0.000178445
0.000153665
0.000147912
0.000186233
0.000155132
0.000156333
0.000168417
0.000147893
0.000331279
0.000278048
0.000181484
0.0183432
0.0807332
0.000149468
0.000129604
0.000145828
0.000149363
0.000180223
0.000147531
0.000160251
0.000159794
0.0272233
0.000155645
0.000273018
0.0427358
0.000148993
0.000177395
0.000153693
0.000152838
0.000188187
0.00016214
0.000161231
0.000152593
0.000149486
0.000150617
0.000154659
0.000152692
0.000149678
0.000152229
0.0682473
0.000150826
0.0126619
0.0426258
0.00014911
0.000146804
0.000314656
0.000209962
0.00014853
0.000175076
0.000146924
0.000173078
0.044924
0.0786326
0.0001541
0.0711948
0.0703887
0.000161489
0.0175741
0.0361954
0.000148753
0.000149751
0.000150936
0.000155326
0.000152676
0.0692228
0.000175389
0.000184761
0.0415754
0.000146987
0.000151436
0.030094
0.000148461
0.00014895
0.000150849
0.000154853
0.0170512
0.0229376
0.000188444
0.000177449
0.0712319
0.0242757
0.0641651
0.000343259
0.000147349
0.000152803
0.000176515
0.000201963
0.000184758
0.0354614
0.0405684
0.00015573
0.000149252
0.000149024
0.000147567
0.000235866
0.000150077
0.000148617
0.000349274
0.0686375
0.000206404
0.00014875
0.0380963
0.000162522
0.000290629
0.000148636
0.00019942
0.000150132
0.000152759
0.000152703
0.0138956
0.0431751
0.000164385
0.0534413
0.00014879
0.000148562
0.000149766
0.000158581
0.0316914
0.0001477
0.000161553
0.0203752
0.000147421
0.000165837
0.00014905
0.0340905
0.00015007
0.000278818
0.000149225
0.000234281
0.000198564
0.000162647
0.00015227
0.000276475
0.000150592
0.000159426
0.000228134
0.000228192
0.000149773
0.000149451
0.00014668
0.000149544
0.00928679
0.000204053
0.0637184
0.0368088
0.000145973
0.000787554
0.000201512
0.0719997
0.0109902
0.000150638
0.000148438
0.000187949
0.000148724
0.000151653
0.00443479
0.017925
0.0775755
0.038591
0.000148915
0.0758681
0.032747
0.0711835
0.000152591
0.0676005
0.000179881
0.000149805
0.000231593
0.0706127
0.0419115
0.000292239
0.00015085
0.0352014
0.00014886
0.000138362
0.000153808
0.000147538
0.000148325
0.000187158
0.0418312
0.000187763
0.000189603
0.0177511
0.0710665
0.000152886
0.000147591
0.0339791
0.0786402
0.000149763
0.00014926
0.000234807
0.0392199
0.0154261
0.000157569
0.000156751
0.0144758
0.0406263
0.000213693
0.000178128
0.000148755
0.0700919
0.03766
0.0809057
0.000174068
0.000148942
0.000153764
0.000165125
0.000203934
0.000148321
0.000232547
0.0328016
0.0389532
0.00017703
0.000148162
0.0331645
0.000149183
0.0662689
0.0258602
0.00350298
0.000151354
0.000247031
0.000153614
0.0693155
0.00028478
0.00014949
0.000154613
0.000149199
0.000670077
0.000149822
0.000153673
0.00015312
0.000180465
0.00021157
0.000240029
0.0265659
0.000198149
0.0691935
0.000195322
0.0676337
0.000176773
0.000166901
0.000149317
0.0467147
0.000163816
0.000153382
0.000149166
0.000148845
0.000161618
0.000150138
0.000149205
0.000155614
0.000148013
0.0458343
0.000159336
0.0713725
0.00017692
0.00019528
0.00014778
0.000158756
0.0638509
0.000235478
0.000196621
0.000150497
0.0292983
0.000149272
0.000169385
0.000169345
0.000161915
0.000165801
0.000148141
0.0162529
0.000207438
0.00018857
0.000149817
0.000155235
0.0715557
0.000150506
0.000363451
0.000233488
0.000152771
0.000149596
0.0357112
0.000202492
0.000216419
0.0289251
0.000175926
0.0378291
0.000149502
0.00014817
0.000197458
0.00017155
0.000167723
0.000200036
0.00026339
0.0173964
0.0358453
0.000252037
0.0840072
0.00015333
0.000153678
0.000152735
0.0374948
0.000195908
0.0721036
0.0203714
0.0842565
0.000149885
0.0425453
0.000163672
0.000156742
0.000161927
0.000174276
0.000324569
0.000150199
0.000154424
0.000215013
0.06336
0.000199217
0.0170958
0.000147913
0.000152164
0.000148502
0.0245317
0.000180143
0.0647956
0.000152853
0.000235714
0.000151001
0.000153432
0.0213586
0.000148045
0.000187968
0.000198322
0.0695639
0.0705864
0.0207758
0.0783709
0.0832792
0.000185622
0.0680181
0.0213608
0.000149773
0.00019685
0.0402324
0.000169467
0.0333781
0.000210615
0.0787659
0.000151698
0.00018831
0.000210568
0.000159403
0.00015138
0.0436764
0.000208099
0.000146541
0.00655137
0.0487534
0.000148189
0.000171458
0.000361426
0.0449845
0.000155546
0.0442595
0.000161781
0.000237333
0.0001858
0.000163144
0.026059
0.0690589
0.000151709
0.000199882
0.0455041
0.000184559
0.000199237
0.0410419
0.0366012
0.000153796
0.000148698
0.0382826
0.0273772
0.000149065
0.000327041
0.000170265
0.000198366
0.000166468
0.0498887
0.000148952
0.0001959
0.000163783
0.000193929
0.000147999
0.0329911
0.0475232
0.000230586
0.000169281
0.000148581
0.000156637
0.000153055
0.000211926
0.000151359
0.000249508
0.027411
0.0781739
0.000151619
0.0690449
0.000174806
0.000180441
0.0497125
0.000175142
0.000152631
0.000200278
0.000150262
0.000208102
0.000148769
0.0707341
0.000188829
0.000154849
0.000159762
0.0443569
0.0541135
0.000152214
0.000165275
0.000198367
0.0127753
0.000178833
0.000149154
0.000148971
0.000162876
0.0152884
0.000148963
0.000283876
0.0739096
0.00014789
0.0767974
0.000180444
0.000156188
0.000187301
0.0444687
0.000236278
0.0677215
0.006965
0.0326177
0.000161382
0.0659891
0.000198174
0.000152279
0.000169153
0.000178167
0.0352668
0.000150406
0.0358202
0.000151832
0.0440281
0.000161607
0.0483869
0.067595
0.000184637
0.000175936
0.000185455
0.000155631
0.000148694
0.00014819
0.000147677
0.000175645
0.000148768
0.0721507
0.0250005
0.000174953
0.0432289
0.0484251
0.04436
0.0551327
0.00016743
0.0188413
0.000148256
0.01343
0.000166078
0.0190246
0.000325641
0.0444399
0.000149186
0.000154838
0.0001583
0.000158724
0.000148265
0.0447945
0.000153891
0.0385786
0.0366621
0.000158729
0.000148277
0.000204246
0.000150359
0.000150975
0.000152865
0.00018473
0.00021993
0.0666793
0.0419096
0.00015198
0.000152029
0.0449762
0.000153883
0.0676045
0.000147811
0.000233538
0.0519204
0.0409601
0.0333202
0.000183893
0.000291984
0.00015051
0.000154683
0.0624674
0.083169
0.000153925
0.000186286
0.031316
0.0807888
0.000191141
0.0745269
0.000149094
0.000148404
0.000154507
0.0694166
0.000149847
0.000157884
0.000153293
0.000147948
0.000170729
0.000149149
0.000201529
0.000148735
0.000148045
0.000147924
0.000228079
0.000185383
0.000190427
0.000173871
0.000183188
0.000148029
0.00018053
0.000183225
0.000150314
0.0236405
0.000147799
0.0291021
0.000147733
0.000262644
0.0434548
0.00015025
0.000183382
0.00967223
0.000187394
0.000188897
0.000163877
0.000148824
0.0823058
0.000152423
0.0434443
0.000164331
0.0411054
0.000149507
0.000173601
0.000153174
0.000167955
0.0372198
0.000149446
0.000215021
0.0656809
0.0188044
0.0391545
0.000149472
0.0308502
0.000155905
0.0452152
0.000196352
0.000208848
0.000152501
0.000148517
0.0419072
0.06467
0.000148423
0.0479093
0.000149222
0.000196998
0.000152643
0.0486674
0.077737
0.0331053
0.000190213
0.000162328
0.000148774
0.000153347
0.0476416
0.000168966
0.000150172
0.000151434
0.000189531
0.000228879
0.0707828
0.000186643
0.0328737
0.0298943
0.000211022
0.000258239
0.000202512
0.0369574
0.0463666
0.000148355
0.0223998
0.0333986
0.00019697
0.000197894
0.000166961
0.000171039
0.0435074
0.000147771
0.000318387
0.000195441
0.000149317
0.00014731
0.000322356
0.000277506
0.000175369
0.000201515
0.000195317
0.0683055
0.0635355
0.00014897
0.0264666
0.0632646
0.000149479
0.000181148
0.0505388
0.000259885
0.00015065
0.00016294
0.000196163
0.0103511
0.0703471
0.000160007
0.000152967
0.000146389
0.000151144
0.00014995
0.000194408
0.00140141
0.000196389
0.0266251
0.000189401
0.0476319
0.000150109
0.000149609
0.000210862
0.000183368
0.000151184
0.000164162
0.00015542
0.000168866
0.000165197
0.00014933
0.0444565
0.000183911
0.0172707
0.000202288
0.000160613
0.036419
0.00016624
0.000185019
0.000149189
0.000184341
0.000202449
0.000201574
0.000148895
0.000205962
0.00014906
0.000157247
0.0495674
0.0280195
0.000293273
0.0286213
0.000165426
0.000149161
0.0001889
0.000157952
0.000189284
0.000149178
0.000148988
0.000271704
0.000196957
0.0700152
0.000230699
0.000173667
0.000193349
0.000152428
0.000166922
0.000146754
0.00016602
0.000160583
0.000156532
0.0707549
0.000165212
0.0698175
0.000258108
0.0071013
0.0365487
0.000166613
0.000161073
0.0227765
0.000184183
0.000154007
0.000148926
0.0705722
0.000148458
0.0657373
0.000276901
0.000159604
0.000164039
0.000149037
0.000239806
0.000188988
0.00014807
0.000188424
0.000149912
0.000147339
0.0832996
0.000149804
0.000149026
0.00016491
0.000151132
0.000148368
0.000153897
0.00014869
0.0413271
0.000153887
0.000151448
0.000148948
0.0001867
0.000160179
0.0441065
0.0413289
0.000149651
0.00019782
0.0437855
0.000149114
0.0367033
0.000154647
0.000160396
0.000148791
0.000153961
0.000169414
0.000165029
0.000161244
0.000164864
0.000149156
0.000145909
0.000162921
0.00014636
0.000148006
0.000148132
0.000148094
0.000166192
0.00032035
0.0398454
0.00015861
0.000159337
0.000176715
0.000154304
0.000152834
0.000150695
0.000159802
0.000179963
0.000292094
0.000158249
0.00877863
0.000150275
0.000190777
0.000162585
0.00071934
0.000165401
0.0783613
0.000148642
0.000229705
0.000155514
0.0694005
0.0241775
0.000152492
0.000179267
0.000150714
0.000150307
0.000148774
0.000150318
0.000174823
0.0153293
0.0451175
0.000161169
0.000188065
0.000294219
0.000263723
0.000424166
0.000153412
0.000149086
0.00014829
0.000198035
0.000151552
0.000146083
0.000204762
0.000158845
0.000182168
0.00411675
0.000164035
0.000168471
0.000155381
0.000151127
0.000206606
0.000233922
0.0451185
0.000207016
0.000238274
0.0701185
0.0784069
0.0643407
0.000149153
0.000185695
0.000148204
0.0140863
0.000151514
0.000147704
0.000160551
0.000157085
0.000291843
0.000149622
0.000149056
0.000188687
0.000149065
0.000151274
0.000164922
0.0139896
0.000162753
0.000169127
0.000157043
0.000152601
0.0623933
0.000155895
0.000156029
0.000186687
0.00016437
0.000160019
0.000153626
0.000150617
0.000206413
0.0483784
0.0250358
0.0549442
0.000151768
0.0381964
0.000147298
0.00016421
0.000149747
0.000149207
0.000159182
0.000149808
0.000164045
0.028299
0.000150553
0.000157856
0.000156976
0.0136843
0.000152246
0.000147687
0.000181882
0.0452721
0.0816226
0.000188241
0.0664647
0.000203687
0.000148606
0.0250642
0.000155174
0.000155456
0.000169514
0.00015587
0.000149905
0.0137701
0.000185052
0.00027345
0.000153505
0.000148175
0.000211768
0.000165014
0.000165261
0.000153441
0.000157778
0.000180263
0.0817026
0.000164151
0.000175899
0.00015932
0.00016669
0.0712936
0.000148634
0.000318662
0.000149743
0.0446129
0.000149317
0.000150993
0.0190979
0.000176439
0.0485414
0.000199879
0.000151849
0.000242584
0.000191379
0.000233357
0.0274514
0.000183196
0.00015465
0.000179628
0.071652
0.000167187
0.0777613
0.000157509
0.00015068
0.000257853
0.0747963
0.000163764
0.00704258
0.000183387
0.000187863
0.000156317
0.00017348
0.000245306
0.000158298
0.0001793
0.0645245
0.000152851
0.00884348
0.000170399
0.000149346
0.000165699
0.000152632
0.000158377
0.0615436
0.000186714
0.000367726
0.031574
0.000148208
0.0653666
0.000150314
0.000173009
0.000189848
0.000149252
0.000186025
0.000170858
0.0856032
0.000149889
0.000236895
0.0162046
0.000156886
0.000146022
0.000165164
0.0561586
0.000151933
0.000179664
0.000159779
0.000155709
0.000149182
0.00801194
0.000164216
0.000183863
0.000152369
0.000148272
0.00015447
0.00753442