/*--------------------------------*- C++ -*----------------------------------*\
| =========                 |                                                 |
| \\      /  F ield         | OpenFOAM: The Open Source CFD Toolbox           |
|  \\    /   O peration     | Version:  v2012                                 |
|   \\  /    A nd           | Website:  www.openfoam.com                      |
|    \\/     M anipulation  |                                                 |
\*---------------------------------------------------------------------------*/
FoamFile
{
    version     2.0;
    format      ascii;
    class       volVectorField;
    location    "200";
    object      U_0;
}
// * * * * * * * * * * * * * * * * * * * * * * * * * * * * * * * * * * * * * //

dimensions      [0 1 -1 0 0 0 0];


internalField   nonuniform List<vector> 
14033
(
(1.02661 0.000131442 9.68749e-21)
(0.64177 -0.654267 -2.84411e-20)
(1.01426 -0.00145703 3.42343e-21)
(1.03875 -0.152261 1.63373e-20)
(1.0005 -0.316098 -9.55634e-21)
(0.87107 -0.0466249 -3.93809e-20)
(1.123 -0.0520751 0)
(-0.264706 -0.0130346 -1.56097e-19)
(1.00339 -0.050467 0)
(1.03267 -0.00935574 -2.45984e-21)
(1.27184 0.0521644 1.10622e-19)
(-0.17722 0.00326728 -5.13199e-21)
(0.376286 -0.0751053 -7.76302e-20)
(1.01896 -0.0101865 -9.16005e-21)
(1.03879 -0.107021 7.97322e-23)
(1.03177 -0.00994532 3.02928e-22)
(1.02217 -0.00426448 -1.59474e-20)
(1.27476 -0.103729 -3.19747e-20)
(-0.064247 -0.0238156 6.66172e-20)
(1.00009 -0.00163496 0)
(1.08463 0.0151605 0)
(-0.142457 -0.0220427 1.99575e-19)
(0.110707 0.0661138 4.13e-20)
(1.06312 -0.146914 0)
(-0.140881 -0.00982065 0)
(1.10705 -0.0541357 1.49473e-20)
(1.15218 0.0768515 6.30541e-20)
(1.02259 -0.0214615 -5.98877e-21)
(-0.00705755 0.00662392 3.79479e-20)
(0.506044 0.0937688 1.32355e-19)
(1.02665 6.16996e-05 9.87752e-21)
(1.01086 -0.0108447 0)
(1.05936 -0.0807849 -5.08284e-22)
(-0.0110805 -0.0334426 6.48923e-20)
(1.05566 -0.00765876 0)
(1.00542 -0.047803 -3.48059e-22)
(1.10895 -0.0588409 0)
(1.00006 -0.00238812 -6.93709e-23)
(1.08428 -0.0373381 -8.22654e-21)
(1.07461 -0.0686637 0)
(1.13944 -0.138105 0)
(0.94047 -0.0380664 -3.71263e-20)
(-0.238739 -0.00578932 0)
(-0.00620048 -0.0291403 0)
(0.996718 -0.0313952 4.57709e-21)
(-0.168303 -0.00938922 0)
(1.08295 0.013705 1.79541e-20)
(0.936315 -0.03571 3.49499e-20)
(1.13612 0.0753975 0)
(-0.275061 -0.00791613 2.65978e-20)
(0.788471 -0.349728 -9.37623e-21)
(1.20365 -0.169562 5.80173e-20)
(-0.188048 0.000871383 3.9861e-22)
(-0.129114 0.00114691 -1.36502e-19)
(1.19399 -0.0375982 2.0752e-20)
(1.07891 -0.0675458 -2.70474e-21)
(0.0977068 0.064353 -8.53413e-20)
(1.02284 -0.0225667 -3.64731e-21)
(1.1383 -0.0263485 2.75797e-20)
(0.976729 -0.0201636 6.52129e-21)
(1.1366 0.0794177 3.86504e-20)
(0.972589 -0.0242394 -2.81283e-20)
(0.369261 0.512147 -1.08171e-19)
(1.02834 -0.0650753 0)
(1.0991 0.000839562 -1.20332e-22)
(1.00258 -0.488975 -3.20565e-20)
(0.996579 0.143774 1.13636e-19)
(1.27001 -0.0987646 1.05529e-19)
(1.00928 -0.00933899 -5.22736e-21)
(1.05598 -0.00807693 0)
(1.13323 -0.0503947 5.67882e-20)
(1.03244 -0.0396932 1.20291e-20)
(0.147842 0.0700954 0)
(0.0186782 0.00519524 1.34984e-19)
(1.04358 0.146261 -4.6854e-20)
(1.00564 -0.0472485 2.45269e-21)
(0.793842 -0.316923 0)
(1.00732 -0.0446498 0)
(1.00164 -0.0272428 0)
(1.15088 0.0791237 -1.00736e-19)
(1.17178 0.0414055 -3.15427e-20)
(-0.205175 -0.00424384 -7.55197e-20)
(-0.255968 -0.0067937 -5.19886e-20)
(-0.119396 -0.0287255 0)
(1.01186 -0.0501619 -6.07856e-22)
(0.972581 -0.0235543 9.67725e-21)
(1.03758 -0.10695 -8.71357e-21)
(1.02213 -0.00383943 0)
(1.15325 -0.19691 -7.48278e-20)
(-0.270803 -0.0081782 -1.52485e-20)
(1.07093 -0.039298 0)
(1.05792 -0.0239447 2.77568e-20)
(0.787753 0.00774044 -5.24191e-20)
(-0.0445068 0.000546205 0)
(-0.169918 -0.01772 -9.5783e-20)
(1.01168 -0.238512 0)
(1.10059 -0.000292985 2.36077e-20)
(1.02944 -0.499367 2.54367e-20)
(-0.00690195 0.00908886 -9.38808e-21)
(0.997584 -0.00780402 -5.98023e-21)
(1.16772 0.0223155 0)
(-0.0354286 -0.026322 8.79603e-20)
(0.973442 -0.0336263 0)
(1.01493 -0.00197269 -7.88324e-21)
(-0.257309 -0.00799495 -9.63412e-20)
(1.24578 -0.0237178 0)
(1.15233 -0.110135 6.57617e-20)
(0.464724 -0.317081 -7.43588e-20)
(1.15885 -0.210371 0)
(0.0235704 0.00685824 3.37598e-20)
(1.0414 -0.00496009 -2.21924e-20)
(1.01074 -0.0127057 -7.13458e-22)
(1.00126 -0.00856864 0)
(-0.168456 0.00291824 0)
(1.00128 -0.00825948 1.92878e-21)
(-0.145342 -0.0248587 1.22997e-19)
(-0.103108 0.00755234 -5.55079e-20)
(0.974249 -0.0320231 2.65942e-20)
(1.21944 -0.0451584 3.36363e-20)
(0.0630262 0.0201059 3.31855e-21)
(1.066 -0.03247 -2.03138e-20)
(0.564503 0.579169 1.71795e-19)
(1.06777 -0.0679427 0)
(1.01022 -0.0118955 3.18618e-21)
(0.0408088 0.00426142 -1.15437e-19)
(1.12655 -0.049542 0)
(0.0830819 0.00863284 0)
(1.24463 0.00901187 1.23822e-19)
(1.01988 -0.0103137 1.036e-20)
(1.17047 0.0230505 -5.19476e-20)
(0.230445 0.0815228 -1.33878e-19)
(1.22645 -0.0650262 -5.56547e-20)
(1.13883 0.0785715 0)
(-0.274755 -0.0108774 -1.35719e-19)
(1.28174 -0.174825 1.13639e-19)
(1.01855 -0.00903164 9.5286e-21)
(-0.278436 -0.0129133 2.7834e-19)
(-0.145734 -0.000840645 1.56275e-19)
(1.08461 -0.171338 0)
(1.24528 0.018577 3.70484e-20)
(1.21 -0.470219 0)
(-0.0157419 0.00359141 -1.30568e-20)
(1.13102 0.0366167 3.05788e-20)
(0.49469 -0.309753 2.13398e-19)
(1.00193 -0.0266331 0)
(1.0255 -1.06141e-06 3.41089e-22)
(-0.137917 -0.000954134 0)
(1.12246 -0.34253 2.86847e-20)
(1.02699 -5.25008e-06 3.50843e-21)
(0.838108 -0.0848478 -6.69841e-20)
(0.999893 -0.00272633 -1.62335e-20)
(1.22164 -0.0496849 4.58638e-21)
(1.0879 -0.0371474 -1.87916e-20)
(0.542329 0.545632 -1.07399e-19)
(1.19703 0.115923 3.70369e-20)
(1.03076 -0.0385498 -1.16331e-20)
(-0.24717 -0.00754617 -1.06755e-19)
(1.00894 -0.0130732 5.3706e-21)
(1.05814 -0.0766249 2.11571e-20)
(1.05871 0.148416 0)
(-0.252487 -0.0138478 -1.19981e-22)
(1.2565 -0.00132526 -5.05744e-20)
(1.03251 -0.0901699 7.02822e-21)
(1.05783 -0.143745 1.12128e-20)
(-0.198899 -0.0123221 0)
(1.07958 -0.0170314 2.34116e-20)
(0.0539285 0.00986025 -5.65812e-20)
(1.13583 0.022943 -6.00477e-20)
(-0.11291 0.00440988 -2.72496e-20)
(0.99362 -0.0346373 -2.84126e-21)
(1.28407 -0.175025 -1.55479e-19)
(0.961621 -0.0202717 6.82292e-21)
(0.836819 -0.0997351 1.104e-19)
(1.0095 -0.2463 4.95e-21)
(1.14964 -0.102317 -2.68573e-20)
(1.16777 0.0733675 1.96058e-20)
(1.00011 -0.00433269 2.39895e-21)
(1.03011 -0.00921488 0)
(1.01781 -0.00882132 -1.15085e-20)
(-0.00089547 0.00699227 -6.53895e-20)
(0.819151 0.095705 -1.26451e-19)
(1.24596 0.0245791 1.91974e-20)
(1.00448 -0.032111 -4.21738e-21)
(0.0766934 0.0227465 2.60774e-20)
(1.02314 -0.00111953 -5.23054e-21)
(1.07334 -0.0376448 -1.4817e-20)
(1.01121 -0.0500596 -2.19086e-22)
(0.998312 -0.0153188 0)
(-0.122015 0.000620563 -3.18135e-20)
(1.15656 0.0390496 -6.24076e-22)
(0.810921 0.00234725 1.2901e-19)
(1.06603 -0.032582 3.90694e-20)
(0.0865516 0.40912 0)
(1.05666 -0.0210289 -2.68824e-20)
(1.05804 -0.0752455 -2.49535e-20)
(0.799637 -0.0158129 5.49898e-20)
(1.04231 -0.0297051 8.44268e-21)
(0.235173 -0.0552518 1.57537e-19)
(1.31556 -0.160745 7.94952e-20)
(0.999264 -0.0209091 0)
(0.0389381 0.0072573 0)
(1.05433 8.84138e-05 3.14268e-20)
(1.17287 0.130825 0)
(1.005 -0.0527411 0)
(0.0189705 0.0039175 1.47567e-19)
(0.535358 0.0918637 -1.38015e-19)
(1.00721 -0.0447585 0)
(1.05735 0.00236783 0)
(-0.0019875 0.00294629 0)
(0.24967 0.0825229 6.09601e-20)
(1.12893 0.0337694 -7.67718e-20)
(0.99529 -0.0294611 -9.49365e-21)
(1.01334 -0.466401 1.9094e-20)
(0.996077 -0.0336312 2.1938e-21)
(1.06014 -0.0727243 0)
(1.04289 -0.0315687 -2.21103e-20)
(0.82469 0.00226392 -1.15448e-19)
(1.2807 -0.0275583 0)
(1.13667 0.113442 -2.69064e-20)
(1.09754 -0.00691852 -2.40624e-20)
(-0.287276 -0.00858775 6.31197e-20)
(-0.123608 -0.00926891 0)
(0.997053 -0.00762113 -8.00503e-21)
(0.924435 -0.0757666 2.27699e-20)
(1.00008 -0.00309343 2.78402e-21)
(1.11136 0.0988392 0)
(0.778982 -0.159144 -5.86633e-20)
(1.09781 -0.00551676 4.21435e-20)
(-0.288227 -0.0112025 1.40847e-19)
(0.974859 -0.0257219 -7.99272e-21)
(1.02378 -0.0345239 9.51574e-21)
(1.03179 -0.0621914 -8.37821e-21)
(1.19142 -0.432678 0)
(0.112611 0.0119682 0)
(1.08167 -0.0158481 -2.98827e-20)
(1.0328 -0.00311677 -2.40212e-21)
(0.214944 0.0459335 0)
(1.02185 -0.0342809 0)
(1.01711 -0.0532122 -1.12737e-21)
(1.13093 -0.0431181 0)
(1.0399 -0.0145201 2.85312e-20)
(1.12019 -0.315849 -5.37604e-20)
(1.13378 0.051171 -4.03899e-20)
(-0.266885 -0.0128657 -2.44606e-19)
(0.962108 -0.016652 8.52396e-21)
(0.959418 0.1425 6.74301e-20)
(1.0043 -0.0334645 -3.64594e-21)
(-0.133091 0.014047 0)
(1.24611 0.0138751 -1.30501e-19)
(1.0545 -0.0789391 3.65727e-20)
(1.17261 0.121844 0)
(1.01712 0.147007 -5.29273e-20)
(1.02574 -0.0122238 -1.20324e-21)
(0.831136 -0.0213848 1.05254e-19)
(1.09563 -0.0205723 0)
(1.19574 0.107649 2.92749e-20)
(1.01312 -0.00132789 -3.65701e-21)
(1.16821 0.129093 0)
(1.00303 -0.000934386 0)
(0.216148 -0.00223373 -6.23746e-20)
(0.998598 -0.0140859 5.58322e-22)
(-0.161763 0.00729983 -7.00373e-20)
(1.00051 -0.00183145 -2.59525e-22)
(0.986148 -0.0260456 -3.17824e-20)
(1.00973 -0.0102397 5.46611e-21)
(1.02705 -0.0322241 0)
(1.15487 0.0316153 0)
(1.22703 0.0157032 -1.00786e-20)
(0.963111 -0.0124911 3.68445e-20)
(1.1423 -0.149958 -4.5404e-20)
(1.05942 -0.0358829 1.78376e-20)
(0.999544 -0.0200812 5.82404e-22)
(1.25978 0.0014697 5.0305e-20)
(1.25518 -0.07496 -2.70074e-20)
(1.31032 -0.160573 -8.50323e-20)
(1.02443 -0.0101001 0)
(1.01554 -0.00162094 0)
(1.01866 -0.0115814 1.33378e-21)
(-0.146308 0.00833705 8.88474e-20)
(0.817258 -0.0189882 -2.12165e-19)
(1.00009 -0.00232653 5.30983e-21)
(0.995296 -0.0184152 5.10583e-21)
(0.22502 0.0487435 0)
(-0.197597 -0.014424 -3.19905e-21)
(1.02824 -0.0097047 0)
(0.130962 0.0589534 0)
(1.13536 -0.0421571 -3.68174e-20)
(1.04006 -0.146018 1.49064e-20)
(1.06082 -0.00406814 1.50348e-20)
(0.950403 -0.104593 -1.6783e-21)
(1.00004 -0.00159462 -7.89199e-21)
(1.20402 -0.172264 -1.67985e-19)
(1.0254 -0.0101668 0)
(0.172156 0.0418246 -2.08446e-20)
(1.06492 -0.120327 -2.37573e-20)
(0.761541 -0.0495814 0)
(1.2525 -0.0673417 3.34154e-20)
(1.07811 -0.169907 1.92534e-20)
(0.400519 -0.0431113 0)
(0.878995 0.101207 0)
(0.93653 -0.273459 -2.42343e-20)
(-0.151378 -0.00211732 -1.52719e-19)
(1.13946 0.0234817 6.76206e-20)
(1.02671 -0.089953 -5.0464e-22)
(0.149273 0.0616243 2.51317e-20)
(1.02084 -0.0102995 -1.08706e-20)
(0.930062 -0.0707839 -4.69453e-20)
(1.166 0.0294908 0)
(1.19222 -0.0259136 0)
(1.04044 -0.00618889 4.04408e-20)
(1.18832 -0.21238 0)
(1.25599 -0.00360269 1.37848e-20)
(1.018 -0.0109317 0)
(0.0951402 -0.232353 1.89113e-19)
(-0.201063 -0.00280423 8.31177e-20)
(0.454333 -0.0695284 9.53522e-21)
(1.18828 -0.0306479 0)
(0.999819 -0.00109997 -3.92297e-21)
(-0.156847 -0.0251998 -2.0875e-21)
(0.929353 -0.0112461 0)
(0.973866 -0.0280132 1.92473e-20)
(1.16594 0.00695632 -5.10197e-20)
(0.963981 -0.0126952 -2.6453e-20)
(1.01411 -0.0216262 -6.82518e-22)
(1.06197 -0.0684925 -1.20046e-20)
(1.09639 0.000959919 3.9481e-20)
(1.16721 -0.0231679 4.81948e-20)
(1.02908 -0.00564066 1.50384e-20)
(1.02375 -0.0189743 3.54904e-21)
(0.0580552 0.00590826 -4.52398e-20)
(0.00627218 0.00812187 -1.32257e-19)
(1.05674 0.0011762 0)
(1.01259 -0.00171092 0)
(-0.00992975 0.0192024 -3.41823e-20)
(1.06805 -0.0304023 -1.24059e-20)
(1.02286 -0.000860267 3.90307e-21)
(1.01757 -0.00160907 0)
(0.998821 -0.0809419 5.29622e-21)
(0.592315 0.095244 1.97261e-21)
(1.03894 -0.0146563 -1.42478e-20)
(-0.0397801 0.0175041 -8.88279e-20)
(-0.259804 -0.00767304 0)
(1.07043 -0.0674286 1.90536e-20)
(-0.176239 -0.00361332 0)
(1.09548 0.00152047 -1.97575e-20)
(0.878331 -0.0290684 0)
(1.13163 -0.147338 -5.0985e-21)
(1.10837 -0.0547885 -1.46189e-20)
(0.37158 -1.24258 9.19689e-20)
(1.02537 -0.0114916 8.5296e-22)
(-0.176836 -0.00810021 0)
(1.16172 0.0811423 7.07802e-20)
(1.00268 -0.0260399 -2.13577e-21)
(1.02369 -0.225507 1.17559e-20)
(1.06007 -0.0226357 -3.05469e-20)
(1.09299 -0.0208671 2.1259e-20)
(0.992357 -0.027571 0)
(1.27177 0.0503254 1.10126e-19)
(-0.00411477 0.0174479 0)
(0.177398 0.0140151 5.24468e-20)
(0.997148 -0.0273294 -1.17626e-20)
(0.30635 -0.00588246 -1.20052e-19)
(1.08237 -0.0150247 2.33372e-20)
(1.27075 0.0257966 -1.72544e-19)
(1.0006 -0.00185402 2.47519e-22)
(0.996878 -0.00920899 0)
(1.01772 -0.224135 -1.55321e-20)
(0.999672 -0.00201378 -3.30161e-22)
(-0.160222 0.00577276 -1.42119e-19)
(0.487296 -0.0497427 0)
(0.402623 -0.278621 3.60849e-22)
(0.995769 -0.0178783 -5.12284e-21)
(1.08286 -0.0339891 -1.69351e-20)
(0.950403 -0.102884 2.20955e-21)
(1.01389 -0.0217737 7.37921e-22)
(0.945798 0.138099 -1.10014e-19)
(1.02423 -0.349662 0)
(0.977174 -0.0308973 -2.60799e-20)
(-0.179785 -0.00214028 0)
(1.17041 -0.0186668 0)
(0.996882 -0.00854929 0)
(1.00869 -0.0129178 -1.87031e-21)
(1.05666 -0.0830236 -2.70814e-20)
(1.05313 -0.0530985 8.15913e-21)
(-0.16495 -0.00335743 1.44901e-19)
(1.28553 -0.166361 1.70741e-20)
(1.13883 0.106546 4.70181e-20)
(1.14687 0.0900648 -4.05247e-20)
(1.00813 -0.022531 0)
(0.448208 0.259966 2.47646e-19)
(-0.114397 0.000359998 0)
(1.0864 0.00336064 -3.68736e-20)
(1.0495 0.142704 -6.37545e-20)
(1.01663 -0.0105562 -2.42076e-21)
(0.963206 -0.161824 0)
(0.892037 -0.555871 2.1716e-21)
(-0.172821 -0.0149619 2.76159e-21)
(1.24858 -0.0435936 -3.91812e-20)
(0.285724 -0.161885 1.26886e-20)
(1.0036 -0.0496668 3.8394e-22)
(1.02858 -0.00460749 0)
(-0.25976 -0.00828973 1.12771e-19)
(1.00094 -0.00161782 0)
(1.07557 0.145674 1.10154e-19)
(0.347952 -0.177558 1.68925e-19)
(1.19164 -0.49624 -2.30667e-19)
(1.05189 -0.0109481 0)
(1.16444 -0.0288492 4.53817e-20)
(0.158759 0.0761201 6.39151e-20)
(-0.277228 -0.00680251 1.22577e-19)
(0.987591 -0.02506 8.52202e-21)
(1.16818 0.0286012 -1.64997e-20)
(1.08127 -0.0144691 3.5311e-22)
(1.11679 0.103046 2.97878e-20)
(0.999985 -0.00151168 -2.73088e-22)
(-0.0123532 0.00721097 4.01917e-20)
(0.0305314 0.00610488 -1.7229e-21)
(1.0614 -0.0349999 -1.2899e-20)
(1.07762 -0.021722 0)
(1.26978 0.0254795 1.62548e-19)
(0.915412 -0.0470818 4.61548e-20)
(0.979967 -0.0214604 2.31812e-20)
(-0.237242 -0.00419397 -1.8592e-19)
(-0.264322 -0.00883013 0)
(0.970255 -0.00914197 1.72467e-22)
(-0.112273 0.019949 0)
(-0.277657 -0.0078162 -5.66005e-20)
(0.954881 0.097937 -1.27951e-19)
(1.07023 -0.0395793 0)
(1.02149 -0.00332238 1.02462e-20)
(1.00029 -0.0195594 0)
(1.03941 -0.00712033 -1.38816e-20)
(0.36539 -0.294881 0)
(1.08152 -0.0636473 0)
(1.01365 -0.00182925 1.00776e-20)
(0.105527 0.407968 1.60134e-19)
(0.615577 0.0978786 0)
(1.16478 0.0708558 -1.86928e-20)
(1.17399 0.110591 0)
(0.974871 -0.0445094 3.84094e-21)
(0.0295804 0.0255041 6.91376e-22)
(0.686898 -0.540226 -8.11607e-21)
(1.01694 -0.000942781 0)
(-0.165378 -0.00846371 -7.43376e-20)
(0.911773 -0.191181 -3.7482e-20)
(-0.140602 0.0138641 0)
(1.30482 -0.0875738 -1.97773e-20)
(1.30516 -0.172789 1.50784e-20)
(1.01674 -0.0501842 1.06293e-21)
(0.171376 -0.021243 0)
(0.978438 -0.0191747 -2.23874e-20)
(0.0139106 0.00529365 5.78777e-20)
(1.10879 0.0187642 6.30827e-20)
(-0.2526 -0.00760322 -5.98149e-21)
(0.632501 0.0910174 0)
(1.00009 -0.0025733 -2.59477e-21)
(0.0305858 0.0088419 3.09764e-20)
(0.974748 -0.0187374 0)
(0.686847 -0.589563 2.41621e-20)
(-0.223319 -0.0158478 0)
(0.688378 -0.839032 0)
(-0.0540456 0.00728661 -5.32693e-20)
(0.775866 -0.0201484 -9.45608e-20)
(0.217546 0.0432807 4.08328e-20)
(-0.132158 0.0154437 0)
(1.11643 0.0915998 -9.87248e-21)
(1.05515 0.00145946 -2.65479e-20)
(-0.0368646 0.0315368 -7.97235e-20)
(0.430972 -0.271362 -8.01442e-20)
(1.1629 0.0778076 -3.60195e-20)
(1.02544 -0.00337141 1.14623e-20)
(1.31008 -0.0973049 4.86017e-20)
(1.07806 -0.0463675 1.95292e-20)
(0.972188 -0.0488884 0)
(0.708645 -0.125398 7.22692e-20)
(1.15015 0.0908546 4.37411e-20)
(1.08551 0.00586144 2.65559e-20)
(1.12279 -0.113893 -8.07296e-21)
(0.732916 0.0970798 6.03793e-20)
(1.07066 0.148005 4.14423e-20)
(0.249432 0.0141708 -4.83123e-20)
(1.13251 0.0485351 0)
(0.14751 0.0425409 0)
(0.124545 0.0696537 0)
(0.999223 -0.0757467 1.43494e-21)
(-0.0547033 0.0133131 0)
(1.03035 -0.0129877 -1.47363e-20)
(1.0256 -0.00337838 -8.42654e-23)
(1.11509 0.10259 0)
(1.02153 -0.00304307 -1.03559e-20)
(1.27931 -0.0889281 -1.19829e-19)
(1.00836 -0.298932 3.82378e-20)
(1.00023 -0.00218511 -1.50526e-21)
(1.05247 -0.0102659 -4.46258e-21)
(1.06915 -0.11963 2.85774e-20)
(0.939033 -0.559413 -8.17358e-21)
(1.00006 -0.0200927 1.79109e-21)
(1.1746 -0.0132889 -6.22248e-20)
(1.03155 -0.0130815 1.4305e-20)
(1.02426 -0.0334405 0)
(1.04118 -0.0141521 -1.19431e-20)
(1.03574 -0.00418485 0)
(1.00394 -0.337078 6.03584e-21)
(1.01035 -0.00989435 1.3276e-21)
(0.888836 -0.516638 7.6108e-21)
(0.676148 -0.185784 0)
(0.865657 -0.0307298 -2.0949e-20)
(1.03374 -0.00376338 -1.70189e-20)
(-0.154548 -0.0217422 -2.78082e-19)
(0.0064159 0.00451003 9.79244e-20)
(0.23164 0.0454523 -3.85557e-20)
(1.03549 -0.00428879 1.68871e-22)
(1.19473 -0.115674 0)
(1.19457 -0.116419 0)
(1.02621 0.000312362 3.50439e-21)
(1.0298 -0.0361038 5.4926e-21)
(0.997644 -0.0434308 0)
(0.163254 0.0140198 9.55148e-20)
(1.18446 0.118452 0)
(-0.0211027 0.00653226 4.39256e-20)
(0.98542 -0.0546847 0)
(1.14148 -0.0235006 -8.46349e-20)
(-0.272538 -0.0082013 -1.19784e-19)
(0.915168 -0.0490454 2.60025e-20)
(0.842226 -0.0746251 -1.35192e-19)
(1.15698 -0.484524 1.96136e-19)
(1.0108 -0.0112127 -5.39994e-21)
(1.2785 -0.335031 0)
(-0.252853 -0.00845911 0)
(0.927766 -0.0241446 2.17284e-21)
(0.807695 -0.227845 5.17018e-20)
(1.24177 0.032149 1.80494e-20)
(-0.22829 -0.00283029 1.69154e-19)
(1.04104 -0.01452 0)
(1.16139 0.00860021 4.32213e-20)
(1.25996 0.0499648 1.4336e-20)
(1.03347 -0.30525 0)
(0.971185 -0.0717627 -6.40953e-21)
(-0.017783 0.0367208 -3.44336e-20)
(-0.104852 -0.0309016 0)
(0.988242 -0.114557 -1.05433e-20)
(1.00023 -0.0026055 1.30226e-21)
(0.887872 -0.266137 0)
(0.237953 0.011453 0)
(0.10215 0.0107651 2.36098e-20)
(-0.228473 -0.00574617 9.30084e-20)
(1.0297 -0.00936716 0)
(1.10833 0.014743 -5.3647e-20)
(0.3368 0.0763299 7.36689e-22)
(0.930582 -0.0271379 0)
(1.00116 -0.0016054 -8.49332e-23)
(0.713174 -0.130132 -9.2547e-20)
(1.02567 0.000173085 0)
(1.10999 0.0141086 -7.45737e-20)
(-0.270205 -0.0081828 -1.1128e-19)
(1.24561 0.0254099 1.93362e-20)
(1.17895 0.121174 0)
(1.00113 -0.00617883 -8.65097e-22)
(-0.226755 -0.0164166 0)
(1.11622 0.033092 0)
(1.07656 -0.0434291 0)
(1.0344 -0.00313909 2.21668e-20)
(1.05049 -0.0113284 5.46837e-21)
(-0.267106 -0.00802924 5.82033e-20)
(1.12058 0.0886236 -2.62372e-20)
(0.711526 -0.12812 0)
(1.05568 -0.0551115 -1.12749e-20)
(0.515672 0.238823 -2.36512e-19)
(0.99997 -0.00136263 0)
(0.197966 0.0813949 -5.72437e-20)
(1.13319 -0.0503504 2.02352e-20)
(-0.0906148 -0.00932179 -1.52576e-19)
(0.0456753 0.0235414 0)
(0.974293 -0.0282406 0)
(0.224944 0.0345369 9.84223e-20)
(1.04014 0.146134 -8.21237e-20)
(0.978606 -0.0186949 0)
(-0.0930987 -0.0862416 -2.20281e-19)
(0.166949 0.0108774 0)
(1.02092 -0.00251368 0)
(-0.220844 -0.0121144 0)
(1.0206 -0.122808 1.78852e-21)
(-0.0131747 0.00254894 -1.08467e-19)
(0.941079 -0.00963254 -6.55418e-20)
(1.05881 -0.00251648 -6.19041e-21)
(0.00863118 0.0227797 -1.31726e-20)
(1.19329 -0.037454 -1.92046e-20)
(1.03031 -0.0450943 0)
(1.19163 -0.222564 -2.03918e-21)
(0.0126454 0.00365486 0)
(0.717433 -0.694473 -4.08646e-21)
(0.999871 -0.00202444 2.40059e-21)
(1.03156 -0.0431792 7.94231e-21)
(1.23664 -0.127047 -4.79464e-20)
(1.1909 -0.122812 0)
(0.0827389 0.0615169 8.643e-20)
(0.976289 -0.0316743 -5.7874e-22)
(1.13312 0.0830668 3.99842e-21)
(1.24159 0.0329812 -1.63781e-20)
(1.12408 -0.29592 5.77029e-20)
(1.27366 -0.109822 -3.62296e-20)
(0.976577 -0.0344821 1.55122e-20)
(-0.216964 -0.0167444 0)
(0.490174 -0.0477433 -5.59409e-20)
(0.969192 -0.155458 1.00826e-20)
(0.126642 0.00914425 5.02795e-20)
(1.00308 -0.0096964 -2.23917e-23)
(1.1927 0.0117433 -6.66183e-20)
(1.10929 0.0112211 5.42897e-20)
(1.23194 -0.136234 5.50675e-21)
(1.032 -0.0126895 -4.79968e-21)
(-0.149494 0.0096863 0)
(1.06358 -0.0437608 1.15836e-20)
(1.0694 -0.14263 0)
(1.00037 -0.0045882 0)
(1.00296 -0.0321933 -2.42007e-21)
(1.00118 -0.00693181 2.2194e-21)
(0.874004 -0.0282844 0)
(0.178612 0.0752097 0)
(0.875608 -0.00739154 8.53964e-22)
(1.07941 -0.0195722 1.19445e-20)
(1.27386 -0.205708 0)
(0.692489 0.124148 0)
(0.237976 0.0881273 5.72848e-20)
(-0.288602 -0.00914864 2.14756e-21)
(-0.260957 -0.00777226 1.14584e-19)
(1.02788 -0.0838918 0)
(0.0825632 0.00703261 0)
(0.197407 0.0353155 -1.00258e-19)
(0.205539 0.0519263 0)
(1.1376 -0.0983067 7.00517e-20)
(-0.283258 -0.00960818 0)
(1.00811 -0.0101024 0)
(1.11318 0.0328506 -3.9561e-20)
(1.031 -0.0207518 1.16635e-20)
(-0.0228259 0.0169279 -3.76582e-20)
(1.09682 -0.105787 0)
(-0.116448 -0.0238861 1.04417e-19)
(1.02519 -0.0214033 -7.8151e-21)
(0.784371 -0.510885 -5.99614e-20)
(-0.232182 -0.00331796 0)
(0.277969 -0.0133594 0)
(0.98788 -0.0242833 2.00314e-20)
(0.7009 0.12878 2.96633e-20)
(1.02983 -0.0205121 -1.45389e-20)
(0.993772 -0.0345673 0)
(1.03663 -0.090939 -3.59381e-21)
(1.00002 -0.00234915 -3.39235e-21)
(1.07115 0.000503263 -2.45933e-20)
(1.00353 -0.0100095 6.7604e-23)
(1.02886 -0.0133351 -2.18202e-20)
(0.999946 -0.00248723 7.8058e-21)
(1.00318 -0.074158 1.5316e-21)
(0.578684 -0.902724 3.84419e-21)
(1.19492 -0.298354 1.13826e-20)
(1.06065 -0.00396338 0)
(1.25142 -0.010772 -5.61641e-20)
(0.0318132 0.0207659 0)
(0.936629 -0.527803 0)
(1.02976 -0.0105134 8.72217e-21)
(1.18625 0.0560084 1.08349e-19)
(1.12471 0.00174298 0)
(1.14983 -0.0583885 0)
(-0.00835825 0.00269627 0)
(1.29595 -0.158375 0)
(0.977064 -0.0371223 -1.56661e-20)
(1.00198 -0.0336145 -8.83422e-21)
(1.00296 -0.0100358 0)
(1.23926 0.039686 0)
(1.00769 -0.00195898 -8.39079e-21)
(0.962004 0.0967056 -1.41069e-19)
(1.02056 -0.0384903 -2.65739e-21)
(1.00156 -0.0707071 4.96957e-21)
(1.08004 -0.155627 0)
(1.16938 0.0388083 -7.50461e-20)
(1.00898 -0.0226934 0)
(1.02848 -0.0354587 -3.29021e-21)
(0.00726127 0.0242343 2.9806e-20)
(-0.0396098 0.0113789 2.61822e-20)
(0.109498 -0.197508 3.62695e-19)
(-0.130705 -0.000484721 3.84156e-20)
(0.877262 -0.655791 8.26463e-20)
(1.03802 -0.0805115 -3.48416e-21)
(0.973541 -0.066223 1.01536e-20)
(1.01203 -0.0287045 0)
(-0.182645 0.00113743 0)
(1.00006 -0.00488757 -7.89912e-21)
(1.08209 -0.069766 -2.20672e-20)
(1.05563 -0.0357476 1.80205e-20)
(0.703927 -0.499469 2.30596e-20)
(1.02094 -0.00232322 -5.13307e-21)
(0.0271406 0.00271652 6.85794e-20)
(1.15833 0.127866 0)
(1.01216 -0.0278319 3.51282e-23)
(1.22515 -0.0654274 9.02297e-20)
(1.00104 -0.0281118 0)
(1.02997 -0.0134977 4.87286e-21)
(-0.116813 0.00512574 6.59653e-20)
(0.92417 0.144776 4.49945e-20)
(1.01611 -0.0529952 0)
(0.835518 -0.0727425 1.50133e-19)
(0.945401 -0.0114513 1.03004e-20)
(1.19072 -0.0438256 5.94483e-22)
(1.00273 -0.0252617 4.00147e-21)
(0.99481 -0.445812 9.78301e-21)
(1.02156 -0.027062 7.25117e-21)
(0.672906 -0.193444 1.15205e-19)
(1.18934 0.120068 1.1314e-20)
(1.18164 -0.0337432 3.54367e-20)
(0.960466 -0.0478582 -1.54308e-20)
(0.214422 0.0772267 -4.40301e-21)
(1.00197 -0.0006128 0)
(-0.0149135 0.00852327 -3.73309e-20)
(0.875424 -0.251505 0)
(1.13888 -0.113263 -3.86269e-20)
(0.933021 -0.122943 -1.19907e-20)
(1.16724 0.0763728 0)
(0.0730938 0.0080771 -6.80155e-21)
(1.12943 -0.0535466 -4.08871e-20)
(1.22533 -0.0414549 9.20356e-20)
(1.19253 -0.123658 7.06943e-22)
(1.21638 0.0231479 5.67509e-20)
(-0.268415 -0.00847285 -5.51998e-20)
(0.99031 -0.12101 6.13371e-21)
(-0.0368964 0.0034865 0)
(0.995256 -0.0298423 -1.02319e-20)
(0.947281 -0.315361 -4.84058e-20)
(1.02412 -0.00915328 0)
(1.02069 -0.145848 7.64012e-22)
(-0.238424 -0.00668051 4.17318e-20)
(-0.0494465 0.0300482 0)
(1.26809 0.0521363 -1.29385e-19)
(1.19556 0.00796961 1.42854e-19)
(1.01715 -0.0113499 -2.67857e-21)
(1.02455 -0.0331134 -9.02299e-21)
(1.04989 -0.00046504 0)
(-0.227081 -0.0161201 0)
(1.06456 -0.0462252 -1.2522e-20)
(0.268553 -0.00927103 1.17628e-19)
(0.650587 0.123126 0)
(1.02848 -0.0333223 4.08908e-21)
(1.22653 0.0739836 1.83005e-21)
(0.889817 -0.00323656 2.10043e-20)
(1.29492 -0.166977 -1.28275e-19)
(1.00197 -0.0761513 -3.08368e-21)
(0.925264 -0.139838 -1.38433e-20)
(0.00797936 0.00336216 -5.3307e-20)
(1.04387 -0.101947 5.58681e-21)
(-0.266758 -0.0128475 0)
(0.986537 -0.051787 5.55191e-21)
(1.02998 -0.00530429 -1.62052e-20)
(1.05502 -0.0231596 2.88739e-20)
(1.17544 -0.138415 -3.64973e-20)
(0.918385 -0.186383 2.97273e-20)
(1.12427 -0.321796 -3.37228e-20)
(1.05161 -0.0833905 -2.52158e-20)
(1.02867 -0.00942139 0)
(1.00252 -0.000670355 0)
(0.294934 0.070282 3.95579e-20)
(-0.110663 0.00751495 6.29491e-20)
(1.16533 0.043197 0)
(0.746844 0.0964294 -5.03041e-22)
(1.03864 0.00191036 0)
(1.00417 -0.000789995 -3.70738e-21)
(1.01019 -0.00173732 -2.76531e-21)
(0.989236 -0.023332 -8.03864e-21)
(1.05621 -0.334139 3.33397e-20)
(1.14604 -0.0527203 0)
(-0.107025 0.0051477 9.37161e-21)
(-0.0322724 0.000532004 -2.40781e-20)
(1.00035 -0.00341628 -7.90505e-22)
(-0.106024 -0.0260068 -7.89786e-20)
(-0.259142 -0.0137329 1.58088e-19)
(0.845506 -0.195839 -4.27408e-20)
(1.16198 0.130446 -9.16291e-21)
(1.12105 0.00450429 -3.65925e-20)
(1.29943 -0.135063 -1.52562e-19)
(0.0530359 -0.00363697 1.28306e-19)
(1.01235 0.142029 -3.35205e-20)
(0.183727 0.0799314 -6.24044e-20)
(1.00337 -0.0102846 -5.68753e-23)
(-0.185128 -0.0118577 -2.1261e-20)
(0.0760288 0.0613617 -3.64094e-20)
(1.04921 -0.00991285 0)
(0.0464285 0.0104719 1.66503e-19)
(1.29288 -0.0551972 0)
(1.13764 -0.104559 3.47573e-20)
(0.995369 -0.119126 -6.02213e-21)
(-0.0547855 -0.0292195 0)
(0.279962 0.0660202 -6.40252e-22)
(1.17125 0.0341583 -2.77958e-20)
(0.934736 -0.262789 0)
(-0.239853 -0.00646316 -9.70667e-20)
(-0.196768 -0.0190023 0)
(0.137975 0.0627903 -6.43557e-21)
(0.955033 -0.0223386 1.88936e-20)
(0.930049 -0.287902 1.11335e-20)
(0.23426 0.0565745 -4.50181e-20)
(0.996558 -0.028236 9.82509e-21)
(1.06613 -0.0126196 -3.87375e-22)
(0.646722 0.124419 -6.92839e-20)
(1.02582 -0.0110556 0)
(1.00016 -0.00119923 0)
(1.25444 -0.0156236 0)
(0.221788 0.030736 0)
(0.848019 -0.018187 8.44333e-20)
(0.998387 -0.00965001 -1.33803e-20)
(0.97406 -0.0237038 -1.04561e-20)
(0.109926 0.00960854 -8.17771e-20)
(0.0388434 0.010182 0)
(0.678573 -0.736353 -2.74978e-20)
(1.21172 -0.0415591 -5.47502e-20)
(-0.0367679 0.0192494 9.16935e-20)
(1.1912 -0.283512 6.3459e-20)
(0.117322 0.0581813 -1.56029e-20)
(1.00289 -0.00330993 1.16908e-21)
(0.351393 -0.157003 -2.30956e-19)
(1.01675 -0.0658881 1.15481e-22)
(1.02101 -0.0113684 0)
(1.02334 -0.0208668 -7.43047e-21)
(1.01664 -0.00362192 0)
(1.00407 -0.000785104 3.41839e-21)
(1.01849 -0.038318 -8.10058e-23)
(0.987938 -0.0274953 -1.13855e-20)
(1.30203 -0.0800353 -8.1461e-20)
(0.891162 -0.093082 -7.86657e-20)
(0.0207346 0.0222146 1.05869e-19)
(0.00883646 0.0146689 8.51211e-20)
(1.02075 -0.0256954 -7.06201e-21)
(1.00314 -0.0040356 -1.2981e-21)
(1.05578 -0.0487716 0)
(-0.199047 -0.0190207 1.2703e-19)
(0.880904 0.0943449 -2.92872e-20)
(0.0556134 -0.125551 -1.10487e-19)
(0.980877 -0.154252 0)
(1.28174 -0.332921 9.66096e-20)
(1.15486 0.0770448 -3.87775e-20)
(1.29355 -0.052389 2.05573e-19)
(1.17614 -0.0149711 3.39653e-20)
(1.07772 -0.460801 5.61708e-20)
(0.995329 -0.041666 0)
(1.02759 -0.0842642 -5.86354e-22)
(1.02867 -0.0105309 -1.39509e-20)
(1.20861 -0.00585296 -6.13716e-20)
(1.06628 -0.0122455 0)
(1.00005 -7.76892e-05 0)
(1.00258 -0.0700944 -3.83572e-21)
(0.245843 0.0602389 4.08809e-20)
(0.996118 -0.0451601 0)
(1.05959 -0.0811837 6.79966e-21)
(1.0222 -0.0227896 -2.96698e-21)
(1.1341 0.0758977 1.14487e-19)
(0.123413 0.0620235 -2.70941e-20)
(0.833815 -0.211127 0)
(0.426105 -0.0420015 0)
(0.21734 0.0258491 5.87961e-21)
(1.22679 -0.0379655 -6.40869e-20)
(0.907747 0.0982429 -4.56081e-22)
(1.02209 -0.0376168 3.32466e-21)
(1.03018 -0.0114267 -4.73921e-21)
(1.06787 -0.0412356 -1.26254e-20)
(0.195185 0.0316162 -2.87123e-21)
(0.0858109 0.0101762 0)
(1.18403 0.0540061 3.41631e-21)
(-0.00650448 0.0150569 -5.49347e-20)
(1.00397 -0.0150676 0)
(1.18597 0.0489437 -8.21171e-20)
(1.02157 -0.01318 3.4308e-21)
(1.08695 -0.0990632 -3.21587e-20)
(0.196616 -0.0237283 -5.06336e-22)
(0.996544 -0.0308303 -4.90746e-21)
(1.13122 0.0814792 -3.08103e-20)
(1.02398 -0.0196473 -3.78515e-21)
(0.998742 -0.00946662 1.43119e-20)
(0.985895 -0.0265478 4.706e-21)
(1.16067 -0.0246549 -2.3138e-20)
(0.900743 -0.240916 -2.00482e-20)
(0.985972 -0.0566297 1.26044e-20)
(1.05249 -0.0156146 0)
(0.812237 -0.574972 1.15142e-20)
(1.28055 -0.18284 -7.60305e-20)
(1.07627 -0.150827 0)
(1.13369 0.0726851 -5.33755e-20)
(1.04916 -0.00208301 3.10555e-20)
(0.517278 0.0848233 7.17147e-20)
(0.992357 -0.0275768 -1.2374e-20)
(0.945163 -0.239833 -3.66003e-20)
(1.06802 -0.0306557 1.37831e-20)
(-0.180651 -0.014604 0)
(0.686099 -0.0393138 -1.04398e-19)
(1.00022 -0.00100738 0)
(1.13466 -0.0214642 0)
(-0.265398 -0.00918029 0)
(1.02005 -0.0383299 5.25619e-21)
(1.052 -0.106067 -1.40238e-20)
(0.0857873 0.0226952 0)
(1.0586 -0.00229222 2.23432e-20)
(0.165726 -0.00196103 -6.53456e-20)
(0.112856 0.0632037 0)
(0.9935 -0.0431432 0)
(1.18315 -0.130003 0)
(1.11064 -0.045055 4.99667e-20)
(0.289104 -0.0081548 -1.53316e-20)
(0.929687 -0.129424 -1.25394e-20)
(1.06063 -0.464789 0)
(-0.0369272 0.0132704 -2.3387e-20)
(1.11924 -0.0422281 2.28792e-20)
(0.209729 0.0626735 -1.40671e-21)
(1.05192 -0.106134 0)
(1.01585 -0.0200065 0)
(1.06958 0.0010223 -1.28158e-20)
(1.04929 0.000524433 4.84511e-21)
(0.178551 0.0111805 9.79292e-20)
(0.481052 -0.0550555 7.94493e-21)
(1.11653 -0.044904 -1.66438e-22)
(0.0721963 -0.139091 1.11215e-19)
(0.994537 -0.032357 -2.22044e-21)
(0.181448 -0.0823893 0)
(1.16815 -0.102202 1.15754e-19)
(1.00765 -0.00913722 -2.93493e-21)
(0.919947 -0.0527322 -1.26331e-20)
(1.08255 -0.0123987 3.37342e-20)
(-0.279836 -0.00871381 1.60855e-20)
(1.05443 -0.215981 0)
(1.21206 -0.15928 1.11063e-19)
(0.600742 0.110007 -7.40391e-20)
(1.00027 -0.00111722 0)
(1.16743 -0.02534 -3.21319e-21)
(0.137894 -0.0269894 -1.49584e-19)
(0.99357 -0.0403878 8.5314e-21)
(1.19094 -0.0756041 8.34678e-20)
(1.00036 -0.00451978 1.8791e-21)
(0.103766 0.0599942 1.5258e-20)
(0.326712 0.0866531 0)
(1.22015 0.0159956 -6.0683e-20)
(-0.24599 -0.0135758 0)
(1.07995 -0.0997127 1.37602e-20)
(1.05081 -0.0544242 2.06793e-20)
(1.13728 0.105243 -1.01227e-19)
(0.999926 -0.000760058 1.03384e-20)
(1.02791 -0.00513524 9.55613e-24)
(-0.00180346 0.0187045 -9.43541e-20)