/*--------------------------------*- C++ -*----------------------------------*\
| =========                 |                                                 |
| \\      /  F ield         | OpenFOAM: The Open Source CFD Toolbox           |
|  \\    /   O peration     | Version:  v2012                                 |
|   \\  /    A nd           | Website:  www.openfoam.com                      |
|    \\/     M anipulation  |                                                 |
\*---------------------------------------------------------------------------*/
FoamFile
{
    version     2.0;
    format      ascii;
    class       volVectorField;
    location    "150";
    object      U_0;
}
// * * * * * * * * * * * * * * * * * * * * * * * * * * * * * * * * * * * * * //

dimensions      [0 1 -1 0 0 0 0];


internalField   nonuniform List<vector> 
13726
(
(0.999564 0.00290998 -1.24161e-22)
(1.06499 0.0325067 1.33783e-20)
(0.655662 0.0517122 1.70199e-20)
(0.620212 0.0485973 1.35776e-20)
(1.00491 0.00618529 1.70477e-20)
(0.15568 -0.0278466 -1.29164e-20)
(1.15472 0.191609 0)
(1.08134 0.0413965 7.03391e-21)
(0.904115 0.0638981 -1.03131e-19)
(0.891881 0.0372789 -2.83437e-21)
(1.06018 0.0492522 0)
(-0.0483797 -0.0217643 2.04999e-20)
(1.072 0.0504441 -1.11055e-20)
(1.06771 0.049744 -2.30694e-21)
(1.08079 0.0674928 1.0118e-20)
(1.06531 0.0283937 3.79781e-21)
(1.06381 0.0551724 0)
(0.101637 0.0139101 7.05334e-20)
(1.0598 0.0492871 0)
(0.969219 0.0350937 -8.78265e-21)
(0.872012 0.158399 1.63724e-20)
(0.988527 0.0236195 -7.72234e-21)
(1.01464 0.0198372 3.0569e-21)
(1.09712 0.121504 3.30577e-20)
(1.08802 0.065827 -2.2157e-20)
(0.641127 0.045243 0)
(0.991581 0.0521722 -2.30491e-20)
(0.994113 0.0512465 1.76364e-20)
(1.07546 0.0477378 1.86201e-20)
(1.03162 0.101391 -3.94998e-21)
(1.08145 0.0407557 -6.77565e-21)
(0.933111 0.0271267 0)
(0.804378 0.003587 -1.38914e-20)
(1.06266 0.0588526 -3.9266e-21)
(1.06211 0.0499005 0)
(1.08672 0.0683231 6.23903e-21)
(1.00451 0.00602505 -4.82486e-21)
(0.992957 4.86982e-05 -1.19833e-20)
(0.909625 0.0620069 2.93314e-20)
(0.159705 0.0204275 -6.32063e-20)
(1.03311 0.0934238 1.03178e-21)
(1.05993 0.0428062 0)
(1.08273 0.0468145 1.5203e-20)
(1.0031 0.00642194 -4.804e-21)
(1.02292 0.0447225 1.22865e-23)
(1.00845 0.0115063 0)
(1.06489 0.0323272 -1.49589e-20)
(1.08337 0.0611905 3.87363e-20)
(1.01707 0.0755941 0)
(1.04959 0.0573478 9.02669e-21)
(1.08811 0.048966 6.94196e-22)
(1.07173 0.0512698 0)
(1.07572 0.0468839 -2.53204e-20)
(0.999632 0.00248516 1.50467e-20)
(1.06132 0.0529546 0)
(0.998334 0.0116956 0)
(0.993611 -0.000441838 9.66455e-21)
(0.988381 0.0239277 -6.46447e-21)
(0.999865 0.0161231 0)
(0.983674 0.0151993 -1.96598e-20)
(1.00618 0.000739344 8.20353e-21)
(1.02492 0.0149868 1.75919e-22)
(0.987943 0.0737788 -9.78029e-21)
(1.09274 0.120717 0)
(0.884156 0.174841 3.5667e-20)
(1.01449 0.0190576 -3.12454e-21)
(1.00029 0.00020785 -8.39769e-21)
(1.02697 0.0748038 9.36162e-22)
(1.06248 0.0595007 -1.02392e-20)
(1.01614 0.0760084 0)
(0.991327 -0.00178668 0)
(0.643043 0.0511518 -2.25898e-21)
(1.04979 0.0578406 -1.00076e-20)
(1.06489 0.0554556 -6.48552e-21)
(1.05848 0.0620319 3.01774e-21)
(1.02739 0.0724948 0)
(1.01245 0.0173357 8.49588e-22)
(0.384632 -0.0208334 -3.90384e-20)
(1.08249 0.0642936 0)
(1.09266 0.087294 0)
(0.270825 -0.0240958 2.30562e-20)
(0.283508 0.0120821 -8.83102e-21)
(1.03138 0.0369903 -3.11972e-22)
(0.996215 0.00728744 6.43456e-21)
(1.0799 0.0427193 -4.09333e-20)
(1.07528 0.0685145 -1.7874e-20)
(1.02836 0.0744546 -8.64417e-22)
(0.795378 0.0022371 0)
(1.09358 0.0610907 -3.77814e-20)
(1.06313 0.0380202 0)
(0.959917 0.0475303 -4.63673e-20)
(0.979661 0.00553669 3.75226e-20)
(1.0354 0.0263809 0)
(0.994621 0.0317878 1.50111e-20)
(0.999877 0.000903461 0)
(1.07458 0.0652735 0)
(0.977915 0.00502371 -3.50884e-20)
(1.02958 0.0989561 6.74959e-23)
(1.07659 0.0646795 3.06006e-20)
(1.14643 0.0868515 0)
(0.99093 0.0741623 -9.47048e-21)
(0.831422 0.0323799 6.7749e-21)
(1.08078 0.0424928 2.21452e-20)
(0.995702 0.0231574 0)
(1.05998 0.0431552 0)
(1.05256 0.0498901 0)
(0.119797 -0.0267424 -1.92414e-20)
(0.995862 0.0317989 5.92876e-21)
(1.01569 0.00133145 0)
(1.06617 0.0270217 0)
(1.00126 0.00477415 1.40073e-20)
(1.02232 0.0446219 2.34538e-21)
(1.0008 0.0037794 -1.98561e-20)
(1.06704 0.0502442 0)
(0.971905 0.035059 6.93284e-21)
(1.08601 0.0756835 2.21065e-20)
(1.0005 0.000264221 -6.57871e-21)
(0.723539 0.0556 0)
(0.991099 0.0653955 0)
(1.16022 0.203941 0)
(0.872566 0.154671 -3.34363e-20)
(1.1436 0.210789 1.72834e-20)
(1.08874 0.0491023 -1.48974e-20)
(1.05748 0.0631227 5.64792e-21)
(1.00442 0.00565719 0)
(1.00601 0.000850524 -8.2974e-21)
(1.03681 0.0364128 3.18249e-21)
(0.966158 0.0630206 0)
(1.03107 0.0373094 2.13318e-22)
(0.420345 -0.0153168 0)
(1.00123 0.00446822 9.97816e-21)
(1.09437 0.0611083 5.07407e-20)
(0.995334 0.00315786 6.673e-21)
(1.06455 0.0357884 0)
(1.05806 0.0601691 4.63117e-21)
(1.00128 0.00470069 -1.07823e-20)
(1.06535 0.178227 1.77895e-20)
(1.03587 0.0370148 1.22115e-21)
(1.00499 0.0146781 -2.38367e-22)
(1.04575 0.049808 6.90399e-21)
(1.0259 0.0291019 -1.84865e-21)
(1.00307 0.00609378 0)
(1.06087 0.057595 -1.2969e-21)
(0.995973 0.00749102 7.7204e-21)
(1.07702 0.0682145 9.09292e-21)
(1.01854 0.0267622 5.47043e-21)
(1.06575 0.0552664 -1.84128e-20)
(1.06135 0.0509785 1.06173e-20)
(0.892321 0.170505 -5.48523e-20)
(1.06104 0.0273855 -7.53732e-21)
(1.07385 0.0961712 -7.67676e-21)
(1.00084 0.00346246 9.96848e-21)
(1.00982 0.14059 7.66341e-21)
(1.06059 0.0576182 1.7502e-20)
(1.00342 0.00587994 9.77209e-21)
(0.968616 0.119818 1.06248e-20)
(0.895103 0.0948225 4.00126e-20)
(1.03465 0.0254062 8.33774e-22)
(1.01079 0.139574 -2.73663e-21)
(0.835014 0.0386922 6.14555e-21)
(1.06386 0.0370726 4.4787e-21)
(0.930964 0.0315833 -3.40771e-20)
(1.09132 0.0413752 -5.95606e-21)
(0.616189 0.0458506 -6.06778e-21)
(1.05528 0.0491589 0)
(1.03934 0.0339589 -3.85799e-21)
(1.01151 0.00945549 0)
(1.0009 0.0197435 7.58378e-21)
(1.01796 0.0970997 4.15817e-21)
(1.00502 0.00669666 -1.46619e-20)
(0.992645 0.00794369 0)
(1.0434 0.0896176 4.03934e-21)
(1.05846 0.0465194 -1.01297e-20)
(1.06075 0.0524946 6.25163e-21)
(1.06229 0.0391081 -2.26988e-20)
(1.01552 0.0566632 0)
(0.0193239 0.00290283 7.69945e-20)
(1.13053 0.416895 -7.73238e-20)
(1.00396 0.0382185 0)
(0.965514 0.0628029 0)
(1.02652 0.104547 -4.82783e-23)
(1.07227 0.104739 0)
(0.762792 0.055186 -1.77363e-20)
(0.738469 0.0562365 0)
(0.589584 0.0461314 -9.08304e-21)
(1.05035 0.0560227 0)
(0.0970956 -0.0218229 -3.0506e-20)
(1.03308 0.0509146 0)
(0.424225 0.0261652 -1.71185e-21)
(1.00672 0.0247904 2.06479e-20)
(1.0675 0.0527891 -2.09417e-20)
(1.02792 0.0297687 0)
(1.00658 0.0181364 1.57074e-20)
(0.984133 0.00840694 -1.48827e-20)
(0.658155 -0.0106185 -2.94125e-20)
(0.886666 0.104568 -5.27313e-20)
(1.06108 0.0275117 0)
(0.726556 0.0338012 0)
(1.02031 0.0279488 2.57014e-21)
(1.0519 0.049146 0)
(1.02809 0.0723323 -7.73419e-23)
(1.00144 0.00436705 -6.28371e-21)
(1.01311 0.017536 -3.92255e-21)
(0.980621 0.0612905 -1.67892e-20)
(0.984181 0.0101845 0)
(0.981518 0.0594411 0)
(1.09442 0.0593709 -6.19693e-21)
(1.14069 0.0865617 2.23148e-20)
(1.00044 0.00946066 -1.53699e-20)
(0.724567 -0.00634103 1.81364e-20)
(0.999323 0.0163507 8.30642e-21)
(0.63073 0.0489238 -2.90167e-20)
(1.05534 0.0492979 0)
(1.03766 0.0199597 2.82102e-21)
(1.00066 0.00530416 -1.4881e-20)
(1.07634 0.0682703 -1.86182e-20)
(1.06492 0.0579073 -1.65008e-22)
(1.02596 0.0285798 0)
(1.06289 0.0503946 0)
(1.08061 0.0656327 2.06911e-21)
(1.02529 0.0163885 0)
(0.992921 0.00798452 -8.66294e-21)
(1.01017 0.132965 -2.40187e-21)
(1.02512 0.0460797 1.58719e-22)
(0.405164 0.0241261 -1.46286e-20)
(1.01517 0.0540257 -2.03547e-21)
(1.03312 0.0252248 0)
(1.08875 0.0397649 2.83564e-20)
(1.00494 0.0147813 -1.23762e-21)
(1.05522 0.129614 4.15256e-21)
(0.822361 0.0579023 -5.09465e-21)
(0.921149 0.0332397 1.95108e-20)
(0.844721 0.0212359 8.31203e-23)
(0.870108 0.030729 -1.06444e-20)
(0.871593 0.065304 4.68935e-20)
(1.12762 0.318708 2.99718e-20)
(1.00009 9.70232e-05 8.78532e-21)
(0.885204 0.0534654 5.56152e-20)
(1.00589 0.0247479 -1.68221e-20)
(0.193519 -0.0123952 -2.0575e-20)
(0.999996 0.000660855 1.01386e-20)
(1.07504 0.0441175 1.01361e-20)
(0.999878 -0.000555969 -4.73996e-22)
(1.09146 0.0895379 0)
(0.796215 0.0257863 -1.72109e-22)
(0.876344 0.19037 3.89376e-20)
(1.06456 0.0573107 0)
(1.00093 0.0101544 -3.7744e-21)
(1.08071 0.0523988 0)
(1.02433 0.0437687 2.92089e-21)
(1.06385 0.0549233 0)
(0.772958 0.0369511 5.78615e-21)
(0.995934 0.00661763 1.24737e-20)
(1.0631 0.0383127 4.33361e-21)
(0.991119 -0.00168959 -1.27159e-21)
(1.18748 0.125952 -1.2532e-22)
(1.0049 0.00725339 0)
(1.06764 0.0522968 2.04594e-20)
(0.603111 0.0467879 0)
(1.00018 0.00952804 9.94464e-21)
(0.777161 0.0581276 -4.4149e-20)
(1.00144 0.0107231 8.97277e-21)
(0.996504 0.0330593 -2.24845e-20)
(1.0253 0.0271955 8.40176e-23)
(0.994787 0.00354991 9.25599e-21)
(0.547842 0.0336665 -1.33328e-20)
(1.04759 0.0317564 -1.16649e-20)
(1.07243 0.0463532 9.14164e-21)
(1.04345 0.129613 1.01327e-20)
(1.08484 0.0821583 -2.54037e-20)
(1.04365 0.125414 4.61816e-21)
(0.999905 -0.000341344 -1.49995e-23)
(1.08596 0.0798258 -2.51446e-20)
(1.07615 0.0637558 -4.11739e-24)
(1.0659 0.0552093 1.46684e-20)
(1.03829 0.0346909 -1.53626e-21)
(0.872509 0.164926 3.88547e-20)
(1.04289 0.0495164 0)
(1.09349 0.0589635 0)
(1.01704 0.0897681 3.83012e-21)
(0.998884 0.0120505 0)
(1.03315 0.0250332 0)
(1.05874 0.0615313 -2.97671e-21)
(1.07274 0.056926 0)
(1.06787 0.111274 0)
(1.0873 0.0530774 2.58654e-20)
(0.88792 0.0541355 -4.9522e-23)
(1.05385 0.0642431 7.21481e-21)
(1.06244 0.0507686 -9.6642e-21)
(0.294466 0.0294392 -6.29197e-22)
(1.0656 0.0551088 6.3811e-21)
(1.05804 0.0555028 0)
(0.619214 0.0425987 0)
(1.03382 0.0262782 -2.04715e-21)
(1.06277 0.0496892 7.44182e-22)
(0.667608 0.052119 0)
(1.00036 0.000229998 4.81695e-21)
(1.0759 0.0429386 0)
(1.03594 0.0373594 0)
(0.585504 0.044416 1.57975e-21)
(1.06771 0.0438792 -1.52315e-20)
(0.259506 0.00453293 -4.99908e-21)
(1.05591 0.0478391 0)
(0.761044 0.0138411 -7.64978e-21)
(1.03998 0.119908 -1.01461e-20)
(1.07869 0.0440391 -3.59477e-20)
(1.00335 0.00547631 -8.86183e-21)
(0.998672 0.00351864 0)
(1.05713 0.101016 0)
(1.03497 0.0122498 0)
(1.06994 0.107142 0)
(1.04023 0.0929379 0)
(0.600856 -0.0165071 1.46376e-20)
(1.04789 0.0589563 -8.84348e-21)
(0.297842 0.00967858 0)
(0.846714 0.0588394 -1.55377e-20)
(1.05497 0.0302992 7.16202e-21)
(1.07592 0.0688223 0)
(0.999853 0.00112225 6.75148e-21)
(0.559753 0.0450251 0)
(0.98477 -0.00151202 -3.45674e-20)
(1.05968 0.097104 -7.6175e-21)
(0.385836 0.0224223 -6.20948e-21)
(1.05454 0.0652585 9.80045e-21)
(1.0084 0.0107772 0)
(0.961107 0.0498392 3.35987e-20)
(0.800703 0.0581749 1.90073e-20)
(-0.0776522 -0.0198549 -2.78137e-21)
(0.24919 0.00396181 2.78814e-20)
(1.0054 0.0138578 -7.75013e-21)
(0.997557 0.0329209 1.33578e-20)
(1.04013 0.0323211 2.21886e-21)
(0.642126 0.0523232 0)
(1.00115 0.0216366 -2.39665e-22)
(0.960871 0.115088 -8.94745e-21)
(1.08 0.0517806 -7.74772e-21)
(1.02692 0.0303086 1.23506e-21)
(1.0427 0.089338 0)
(0.871275 0.0682575 4.63314e-20)
(0.6865 0.05517 0)
(0.967175 0.00810105 0)
(1.00055 0.0101729 4.25404e-21)
(0.95469 0.30711 2.0574e-20)
(1.07608 0.0651189 1.61717e-20)
(1.07445 0.0438352 9.68718e-21)
(0.854598 0.271189 -9.24324e-20)
(1.00778 0.0100379 -1.42159e-21)
(0.567536 0.0324802 1.58852e-20)
(1.02561 0.0297247 1.23721e-21)
(1.00011 0.0193895 0)
(0.984281 0.0157848 -1.93579e-20)
(0.794159 0.0564918 3.1279e-20)
(1.04533 0.0433879 0)
(0.993014 0.00377617 0)
(1.00457 0.0366659 0)
(1.06315 0.0494162 2.39099e-20)
(1.05603 0.128633 0)
(1.06868 0.047324 1.24663e-20)
(0.444298 0.0256427 -1.87639e-21)
(1.01004 0.020417 6.82018e-21)
(1.07475 0.0478084 7.41796e-21)
(1.07952 0.0438214 4.08791e-20)
(1.17514 0.114606 5.68015e-20)
(1.10243 0.127354 4.0605e-20)
(1.00071 0.00468641 1.03193e-20)
(0.985263 0.0107002 -1.0452e-21)
(1.06497 0.0673781 0)
(1.0476 0.0875672 -6.7601e-22)
(0.985772 0.0878842 1.49736e-21)
(1.0589 0.055592 0)
(0.973458 0.0378371 -2.59225e-22)
(1.06936 0.054077 1.82419e-20)
(1.04689 0.0324238 4.5448e-21)
(1.0668 0.0444077 1.55966e-20)
(0.967025 0.00702925 0)
(0.87838 0.0559713 0)
(1.03574 0.0141704 2.50886e-21)
(1.19158 0.129539 0)
(1.06979 0.0542585 0)
(0.456848 0.0296697 1.75171e-21)
(1.07241 0.101712 -6.90106e-21)
(0.717981 0.0526954 1.48127e-20)
(1.07762 0.0472759 1.4157e-20)
(1.00793 0.010381 0)
(1.06504 0.0554827 0)
(1.06079 0.0520889 -5.58453e-21)
(0.971075 0.0362552 0)
(0.650665 -0.0160369 -6.37839e-21)
(1.02652 0.0454587 -1.43095e-21)
(1.00099 0.00392501 5.82648e-21)
(0.984477 0.0176303 0)
(1.00539 0.0142356 0)
(0.831196 0.159503 0)
(1.06158 0.0404879 -2.03773e-20)
(1.06298 0.0490883 -2.45381e-20)
(0.982768 0.141187 0)
(0.724563 0.00616833 3.60422e-20)
(1.17468 0.16325 0)
(1.05041 0.0564128 0)
(1.07224 0.0342555 1.06771e-21)
(1.0984 0.126223 -4.93824e-20)
(1.03389 0.0114358 0)
(1.05606 0.0481024 0)
(1.02431 0.0554456 -1.27077e-21)
(1.04421 0.0482887 0)
(1.17334 0.117898 0)
(0.799823 0.0482456 7.36315e-21)
(1.06729 0.0560391 0)
(1.08333 0.0473239 -3.23952e-20)
(1.03579 0.0663509 -2.43078e-21)
(0.448827 -0.00342948 0)
(1.05579 0.0292456 8.78989e-21)
(0.878315 0.189755 -7.93138e-20)
(1.01119 0.0597639 7.75616e-21)
(1.06045 0.125154 1.44977e-20)
(1.00069 0.00519049 1.0128e-20)
(1.07579 0.0437152 0)
(1.00697 0.017757 -1.07361e-20)
(1.04425 0.0419868 -2.01689e-21)
(1.00233 0.0210552 -3.56415e-21)
(1.00804 0.0183022 -1.65214e-21)
(1.06482 0.0449563 9.51325e-21)
(1.03459 0.0114169 0)
(0.999982 0.000879755 1.35379e-20)
(0.865396 0.0563067 0)
(0.982808 0.0297997 -9.50582e-21)
(1.00897 0.0778094 -7.72145e-21)
(0.912152 0.0705415 9.66108e-22)
(-0.0165291 -0.0231288 -3.728e-20)
(1.02206 0.00891727 2.03695e-21)
(0.973292 0.129528 6.7125e-22)
(1.02558 0.0142857 3.48757e-22)
(1.06821 0.0430635 2.59799e-20)
(1.01141 0.00133466 -4.73774e-21)
(0.704508 0.0553723 -6.63933e-21)
(0.999918 0.00012997 0)
(0.988056 0.0188777 1.53024e-20)
(0.999437 0.00289643 0)
(0.782053 0.0359999 -6.25215e-21)
(0.441549 0.0277633 -1.71149e-21)
(0.982022 0.0322735 0)
(1.01685 0.0553139 -2.97278e-21)
(0.987582 0.0170076 0)
(1.07449 0.070346 -2.38293e-20)
(0.988347 0.0650116 0)
(1.03503 0.0382899 1.88048e-21)
(1.08352 0.0613986 -1.10116e-20)
(0.22058 -0.0134509 1.459e-20)
(1.07055 0.0364682 -2.07194e-20)
(1.07465 0.0656343 0)
(1.0151 0.0395897 -8.12695e-22)
(1.1991 0.188235 -2.29167e-21)
(1.11325 0.416232 0)
(1.00758 0.0184318 7.84074e-21)
(1.07043 0.105805 1.95828e-21)
(1.06914 0.0514871 -1.65803e-20)
(1.02057 0.0416071 4.27078e-21)
(1.02799 0.0462762 7.43355e-22)
(1.07139 0.0344402 1.08229e-20)
(1.05737 0.0549294 8.62621e-21)
(0.998551 0.0153573 0)
(1.01174 0.001398 0)
(1.18794 0.297597 -9.0047e-20)
(0.917523 0.0640928 6.15454e-20)
(0.825966 0.16981 0)
(0.910359 0.0109911 0)
(1.00223 0.00433193 0)
(1.0934 0.0824536 0)
(1.00505 0.00123885 0)
(0.473743 0.0299327 4.07051e-21)
(0.99307 0.00399555 -3.65368e-21)
(1.02381 0.00828775 7.1896e-22)
(1.07666 0.0633131 -1.40211e-20)
(0.577739 0.0443583 -1.02268e-20)
(1.08748 0.0689712 2.36091e-20)
(1.06671 0.0549174 3.65277e-21)
(1.06896 0.0522204 2.26632e-20)
(1.02102 0.0454982 2.88215e-21)
(1.0606 0.0494251 -9.84285e-21)
(1.08168 0.047008 0)
(1.02805 0.0150713 2.34281e-22)
(1.00201 0.0112634 -1.47912e-22)
(1.03118 0.0515804 0)
(-0.0268703 -0.0242491 0)
(1.01699 0.0445017 3.52363e-21)
(1.06261 0.0608177 0)
(1.03503 0.0140115 0)
(0.972036 0.0133533 0)
(0.861395 0.290777 -1.40536e-20)
(1.06942 0.0464899 0)
(0.673661 0.046426 8.50877e-21)
(0.998516 0.00134103 1.85068e-20)
(1.04552 0.0864419 -1.72862e-21)
(0.571771 0.0298948 0)
(1.07236 0.118481 2.13624e-20)
(0.987225 0.0622961 0)
(1.05093 0.0433783 1.20622e-20)
(0.99474 0.00366363 4.69031e-21)
(1.02145 0.006807 -2.34706e-21)
(1.01667 0.0430806 -3.32061e-21)
(1.1704 0.138927 9.71857e-22)
(0.903591 0.174535 3.47631e-20)
(0.987002 0.0839173 8.56092e-21)
(1.03418 0.0371529 -1.52672e-21)
(0.999081 0.0152693 -6.76628e-21)
(1.04949 0.0690252 0)
(1.01291 0.0239495 0)
(1.03794 0.0205388 -3.58304e-21)
(1.07761 0.0449926 1.41154e-20)
(0.554067 0.0419567 1.09797e-20)
(1.0324 0.0364464 1.26317e-21)
(1.05968 0.0300656 5.57515e-21)
(1.0151 0.000370391 2.86856e-21)
(1.00065 0.00444469 1.54429e-21)
(0.997894 0.0122372 -7.06704e-21)
(1.02491 0.0544604 -7.60471e-22)
(1.01626 0.000936492 3.32209e-21)
(1.00119 0.0201617 -8.52109e-21)
(0.271088 0.00701624 -5.43289e-21)
(0.999255 0.011545 0)
(1.04922 0.0585462 9.84327e-21)
(1.02751 0.0155143 -1.32431e-22)
(0.927769 0.0604118 0)
(1.00106 0.0108062 -4.8597e-21)
(0.98733 0.017863 1.7059e-20)
(1.08026 0.064608 0)
(0.98177 0.00614848 0)
(1.06393 0.0552913 7.37802e-21)
(0.871294 0.259239 2.35892e-20)
(0.916716 0.0335304 2.91535e-20)
(1.05911 0.0549097 0)
(1.01923 0.0282939 0)
(1.03244 0.0240168 0)
(0.914081 0.0320565 4.32494e-22)
(0.42443 0.0239022 1.13233e-20)
(0.0512019 -0.0261344 4.93042e-20)
(-0.0577771 -0.0259111 0)
(1.00005 0.000803546 1.25184e-20)
(1.06826 0.043597 -3.03897e-20)
(1.00063 0.00427665 7.89994e-22)
(0.995437 0.00769495 0)
(1.06034 0.0491596 0)
(0.137067 -0.0282132 0)
(1.06374 0.0482805 5.7225e-21)
(1.00003 0.000446837 -1.14017e-20)
(1.01404 0.0096847 0)
(1.00149 0.0138701 -1.12045e-20)
(1.0644 0.0361085 1.20383e-20)
(0.969299 0.0246567 -1.89328e-20)
(1.02744 0.0687359 -2.00441e-20)
(1.01725 0.0256062 3.78584e-21)
(1.18009 0.145142 2.74778e-20)
(1.06141 0.0534798 7.07952e-21)
(1.06571 0.0536186 -1.22691e-20)
(0.96882 0.0103131 -2.58857e-20)
(1.07135 0.0356443 9.08529e-21)
(0.993256 0.0664496 1.33446e-20)
(0.552288 0.0408776 -6.60584e-22)
(0.998912 0.00363131 1.10633e-21)
(0.987912 0.0192465 -1.56113e-20)
(1.05494 0.0203072 8.53301e-21)
(0.126586 -0.0241253 1.73685e-21)
(1.01362 0.0611135 -8.75418e-22)
(1.08389 0.0607063 -2.4252e-20)
(0.9722 0.125846 0)
(0.362652 -0.020449 4.14218e-20)
(1.06277 0.0602732 1.02518e-20)
(1.03647 0.0342952 3.14541e-21)
(1.06423 0.0675229 4.04845e-21)
(0.25877 0.00970858 1.1939e-22)
(1.04072 0.093765 3.51033e-21)
(0.952266 0.301021 -1.49272e-20)
(1.00686 0.0399487 -1.09286e-20)
(1.06437 0.0446116 2.69542e-21)
(1.06544 0.0537703 0)
(1.06035 0.124427 -1.53847e-20)
(0.9863 0.0640046 2.25025e-20)
(1.00021 0.0141832 -1.28051e-20)
(1.02557 0.0163987 0)
(1.00072 0.00310128 1.10049e-20)
(1.02224 0.00860454 -9.03181e-22)
(0.986731 0.0204758 -1.78138e-20)
(0.769502 0.0564476 0)
(1.05979 0.0305577 8.09004e-21)
(1.04876 0.0295306 -8.13513e-21)
(0.994971 0.016384 0)
(1.00062 0.000337057 -1.08027e-20)
(1.02816 0.0435706 3.20353e-22)
(1.14355 0.279662 1.05273e-19)
(1.06534 0.0552018 -3.26203e-23)
(0.386441 0.0656644 1.348e-19)
(1.03643 0.0685484 0)
(1.0689 0.0421108 0)
(1.06182 0.0484768 8.62281e-21)
(1.03279 0.0652104 0)
(1.00284 0.137896 0)
(0.988475 0.0434124 0)
(0.996811 0.0496716 0)
(0.895692 0.0389547 6.23539e-21)
(0.999779 0.0024771 2.28641e-22)
(0.975873 0.0652398 0)
(1.00044 0.00021792 9.69001e-21)
(0.987055 0.0426166 0)
(1.05456 0.0196255 -9.51197e-21)
(0.86739 0.0306876 3.25013e-21)
(0.252745 0.036309 -4.98263e-20)
(1.02384 0.0940868 1.36283e-21)
(0.999633 0.0116487 7.05009e-22)
(1.07923 0.0669791 2.74636e-20)
(0.999914 7.43568e-06 2.65705e-20)
(1.05054 0.0754824 -2.21416e-22)
(1.03343 0.0647739 3.54558e-22)
(1.00297 0.00472815 1.23241e-20)
(0.973969 0.0138566 -9.11684e-21)
(0.999889 0.00070698 0)
(1.0385 0.0392327 -3.31187e-21)
(1.00008 0.000844616 -1.08959e-20)
(1.06233 0.0394821 1.69335e-20)
(1.07877 0.0642055 -1.86013e-23)
(1.01131 0.00793288 -1.8849e-21)
(0.983782 0.00988505 -8.60775e-21)
(1.05364 0.049973 0)
(0.993502 -0.00565384 -2.27147e-20)
(1.08438 0.0652328 1.05201e-20)
(0.63136 -0.00120206 -7.37048e-20)
(0.0225746 0.00460052 0)
(1.05756 0.0476621 -3.42227e-21)
(1.00347 0.00485944 -2.43924e-21)
(1.041 0.033097 2.56525e-21)
(1.05899 0.0415928 -1.29156e-20)
(1.06432 0.0476205 0)
(1.05505 0.0715606 0)
(-0.0893602 -0.0261054 0)
(1.01453 0.00938951 0)
(0.367975 0.0107144 8.50673e-21)
(1.07526 0.0649756 -1.62778e-20)
(0.968527 0.0101735 2.1029e-20)
(1.02168 0.00810638 -2.74151e-21)
(0.996294 0.0223211 0)
(0.49205 -0.00443738 -5.47677e-21)
(0.999967 -2.19482e-05 1.10875e-20)
(0.972482 0.0134036 4.47085e-22)
(0.999734 -0.00108181 0)
(1.0089 0.011729 -1.30586e-20)
(0.984437 0.00848449 2.34958e-20)
(1.0868 0.0981994 1.17946e-20)
(1.02684 0.0147557 0)
(1.08825 0.0520568 0)
(1.09573 0.048631 -1.98684e-20)
(0.99973 0.00252018 -2.11773e-20)
(1.00561 0.00742292 -1.24239e-21)
(0.998253 0.0143359 0)
(1.07957 0.0661656 -3.59632e-20)
(0.996804 0.0513013 0)
(0.813962 0.000413208 -9.35047e-20)
(1.06081 0.0484122 1.84757e-21)
(0.998734 0.00091642 -8.86817e-21)
(1.0585 0.0551326 1.14184e-20)
(0.551312 0.0445805 1.31766e-20)
(1.06884 0.0425774 3.67026e-21)
(1.04849 0.0352055 5.21661e-21)
(1.01652 0.026182 -3.80321e-21)
(0.965499 0.0820121 1.91848e-20)
(1.02043 0.000263078 0)
(1.01124 0.00875979 -2.03802e-21)
(0.952536 0.0619129 0)
(0.545187 -0.0100774 0)
(1.07836 0.0448708 1.47081e-20)
(1.06482 0.16709 1.90533e-20)
(1.07465 0.0430971 -2.1132e-20)
(1.01309 0.0673399 8.46299e-21)
(0.997899 0.00678938 1.17932e-20)
(0.704697 0.0469653 1.37708e-21)
(1.02338 0.0887041 0)
(1.07959 0.0652114 1.77576e-20)
(0.995106 0.00719448 0)
(0.964866 -0.000967984 0)
(1.06037 0.026762 0)
(1.00162 0.0113528 0)
(1.13702 0.192468 -1.64445e-20)
(1.05408 0.0316124 8.10673e-21)
(1.01216 0.0728721 5.52772e-21)
(1.0024 0.0543618 1.04478e-20)
(1.06132 0.176209 -1.58571e-20)
(1.08525 0.0596441 2.13441e-21)
(0.985692 0.0129598 0)
(1.01827 0.201443 2.80457e-22)
(0.130102 -0.0242064 3.15494e-20)
(0.729519 -0.00613508 5.44501e-20)
(1.07046 0.0546741 1.74846e-20)
(0.910521 0.16504 -2.757e-20)
(0.998358 0.0141319 0)
(0.209039 -0.0218865 0)
(1.00991 0.0106019 5.76897e-21)
(1.08199 0.038372 1.27759e-20)
(1.00057 0.00387665 -7.98764e-22)
(1.02001 0.000623725 0)
(1.07163 0.0695834 -1.47389e-20)
(0.985343 0.0289433 2.05225e-20)
(0.963234 0.0885133 7.38835e-22)
(1.17976 0.135645 -1.08827e-19)
(1.08311 0.287771 0)
(0.998405 0.00459855 6.40485e-21)
(0.924172 0.033336 4.46204e-20)
(1.07148 0.0702668 0)
(1.03321 0.0378785 -1.58516e-21)
(1.04637 0.0612223 -4.54754e-22)
(0.790265 0.0567923 0)
(1.0092 0.0181226 -7.67365e-21)
(0.981493 0.00837831 0)
(0.814682 0.0279411 0)
(0.997851 0.00598552 1.92059e-20)
(0.998959 0.00373127 2.09409e-21)
(1.06161 0.0406361 1.74809e-20)
(0.938273 0.048903 5.38635e-21)
(0.999851 2.78851e-06 -2.4995e-20)
(1.06238 0.0613175 0)
(1.01498 0.0015124 -2.05314e-21)
(1.0287 0.0156708 -6.7453e-22)
(1.07635 0.0467988 7.39832e-21)
(0.987302 0.00307597 3.28674e-20)
(1.15964 0.150803 0)
(1.0676 0.307996 -3.32402e-20)
(1.01903 0.041811 0)
(1.0511 0.0236997 1.20469e-20)
(0.998582 0.00417215 -1.44419e-20)
(1.06086 0.0415232 1.18162e-20)
(1.0092 0.021753 0)
(1.00592 0.0391353 0)
(1.01761 0.0265751 0)
(1.05928 0.054586 -1.09818e-20)
(0.961676 0.0174384 0)
(0.961223 0.0130289 0)
(1.07402 0.0424787 0)
(0.0451247 -0.0245516 -1.4505e-19)
(1.16842 0.21246 3.21238e-20)
(0.998515 0.035988 0)
(0.995752 0.0486826 1.99666e-20)
(0.868673 0.136272 -1.70615e-20)
(1.08847 0.0435286 1.34864e-20)
(0.728604 0.0208524 0)
(1.06834 0.051907 1.52149e-20)
(1.06346 0.053292 -1.65169e-20)
(1.05226 0.0401876 -4.87303e-21)
(-0.0500691 -0.0271061 0)
(1.09077 0.0455948 0)
(1.06489 0.0551432 -9.58253e-21)
(0.98023 0.147943 0)
(1.0027 0.00456526 1.26387e-20)
(0.803534 0.0565232 0)
(0.984851 0.02885 6.93357e-21)
(1.00011 0.000113867 0)
(0.990981 0.027057 3.21074e-20)
(1.02483 0.0149935 -3.02991e-22)
(1.00746 0.000877413 0)
(0.808323 0.0282017 7.32338e-21)
(1.06308 0.0534071 1.26759e-20)
(0.999991 -2.23383e-05 -1.12814e-20)
(1.02933 0.0147252 3.95118e-22)
(1.01446 0.00189827 2.81031e-22)
(1.0134 0.0543352 -8.39846e-21)
(0.963193 0.00291212 0)
(1.06579 0.069914 1.81018e-21)
(1.04402 0.01602 0)
(1.05217 0.0395355 -9.79622e-21)
(1.03739 0.0331438 8.92194e-22)
(1.00228 0.00372794 -1.2946e-21)
(0.996271 0.0189575 0)
(1.01449 0.0644821 -1.87384e-21)
(1.02424 0.00814675 -2.82574e-22)
(1.0605 0.0539646 -2.00666e-20)
(1.06358 0.0487532 0)
(1.0096 0.0103494 0)
(0.999175 0.00383495 0)
(0.981299 0.00642993 0)
(0.999776 0.0357416 1.26759e-20)
(1.05541 0.0723937 -2.68302e-21)
(0.297651 0.0273485 1.13991e-19)
(1.05824 0.0591069 1.65991e-20)
(1.07932 0.0643936 -1.70278e-20)
(1.06628 0.0506892 0)
(1.0725 0.0548801 -1.55558e-20)
(1.0386 0.0673128 -2.89918e-21)
(0.999828 0.0187631 7.86152e-21)
(1.19434 0.142659 -1.93267e-20)
(1.03389 0.12605 -3.74147e-21)
(1.05574 0.0432885 -1.27212e-20)
(1.00221 0.0119343 1.51526e-22)
(1.05089 0.0500548 1.00366e-20)
(1.18954 0.180825 0)
(0.42055 0.0100402 0)
(1.0004 0.00349852 -8.13881e-22)
(0.971912 0.0125237 2.83073e-20)
(0.182789 -0.02392 -3.83445e-20)
(1.02824 0.0678327 -5.58987e-23)
(1.07467 0.0898391 -2.9595e-20)
(0.980773 0.101047 1.83012e-20)
(1.07652 0.0450419 2.70828e-20)
(1.04482 0.0504179 -6.12476e-21)
(1.00006 0.00040449 -8.55714e-21)
(1.04574 0.0497073 -1.13264e-20)
(1.05867 0.0547344 -1.21383e-20)
(0.986365 0.00173544 2.41612e-20)
(0.999947 0.000468867 2.52353e-20)
(1.07396 0.0869286 2.53243e-20)
(1.0125 0.105171 -2.82102e-21)
(1.00247 0.00460665 -1.02411e-20)
(0.764132 0.287036 1.04236e-19)
(0.999622 -0.00120752 0)
(0.999833 0.000432767 0)
(1.01455 0.106809 1.8483e-21)
(1.09163 0.111423 0)
(0.975536 0.0358812 -1.49575e-20)
(0.471287 0.0314981 -9.50279e-22)
(1.0599 0.0503658 0)
(0.996271 0.0184974 0)
(1.04054 0.0342747 4.30629e-21)
(1.06096 0.0499278 -2.18951e-20)
(0.995794 0.00963811 0)
(0.997573 -6.29821e-05 0)
(0.996314 0.00397528 -1.24077e-20)
(0.992724 0.0203656 -7.26633e-21)
(1.09877 0.0489832 0)
(0.999902 -0.000206221 1.26725e-20)
(1.00906 0.0170498 1.20496e-20)
(1.0668 0.0560627 0)
(1.07147 0.0614557 -1.0891e-20)
(0.86562 0.0558587 5.52452e-20)
(1.03929 0.0328139 0)
(0.669831 0.202905 1.93777e-19)
(1.00072 0.0143077 2.43293e-20)
(1.06425 0.0567919 -5.52046e-21)
(0.999888 0.00663136 0)
(1.0347 0.0123777 1.74043e-21)
(1.00437 0.000781921 0)
(1.00003 9.47604e-05 9.86627e-24)
(0.98653 0.00247923 -2.73042e-20)
(1.07442 0.0539079 0)
(1.01666 0.0187614 3.70284e-21)
(1.01559 0.00116178 1.5784e-21)
(0.955242 0.0650978 1.51979e-20)
(0.0623615 -0.0255522 2.54463e-20)
(1.07439 0.0537247 0)
(1.06109 0.0588702 -1.02474e-20)
(1.04792 0.0440172 0)
(1.01999 0.0158702 -1.59289e-21)
(1.00077 0.0392143 7.79017e-21)
(1.06336 0.0460144 1.2331e-20)
(0.983568 0.103518 0)
(0.996122 0.0059299 -1.14337e-22)
(0.98486 0.0629496 4.56799e-21)
(1.19896 0.185514 8.04592e-20)
(0.985969 0.0641682 1.0376e-20)
(1.07177 0.0568362 -1.79744e-20)
(1.07106 0.0622061 2.58825e-24)
(0.967702 0.0811535 -3.26002e-20)
(0.96676 0.0032315 -2.73259e-20)
(0.985212 0.0123329 1.78224e-20)
(1.136 0.431691 1.00293e-19)
(0.660985 0.0537745 -1.17723e-20)
(0.967129 0.0223429 3.2439e-20)
(1.00427 0.000782052 0)
(1.02436 0.00762782 8.57409e-22)
(1.08821 0.104211 -1.13254e-20)
(1.06196 0.0508314 -9.29975e-21)
(1.03365 0.0108476 0)
(1.02486 0.00754617 -4.28712e-22)
(1.02485 0.0159115 8.21481e-21)
(1.07304 0.0549732 -2.30996e-21)
(1.0531 0.105087 -1.69784e-20)
(0.99771 0.00662738 -5.94214e-21)
(1.00093 0.0521483 0)
(0.546823 0.0290838 0)
(0.992856 -0.00731562 4.58591e-20)
(1.12787 0.0751633 -3.88813e-20)
(1.0332 0.0297023 -5.758e-22)
(0.995629 0.0153663 -2.31263e-21)
(1.05493 0.030594 -1.64242e-20)
(0.98547 0.0219928 -2.89718e-20)
(1.00007 0.000748906 1.62674e-20)
(0.955052 0.0640996 -5.26953e-20)
(1.03379 0.0298073 0)
(1.00125 0.0275831 0)
(0.959264 0.0624623 5.97523e-21)
(0.315055 0.0128888 -4.90723e-21)
(0.998141 0.025732 -1.76661e-22)
(1.04415 0.0836939 4.82088e-21)
(1.00041 0.0279042 7.6487e-21)
(0.949238 0.0227271 4.90575e-22)
(1.07567 0.0458788 -3.16823e-20)
(1.08799 0.0454746 -4.01386e-20)
(0.612564 -0.018456 0)
(1.01695 0.017197 2.26738e-21)
(0.982513 0.00912017 0)
(1.0108 0.0153197 0)
(1.02181 0.0077354 3.27767e-21)
(1.00478 0.00694886 4.98031e-21)
(1.03295 0.0106501 -5.65597e-22)
(1.00602 0.0530026 7.93803e-21)
(0.992764 0.0198496 2.21723e-20)
(0.0827263 -0.0209876 0)
(0.552096 0.0427952 1.46595e-20)
(1.00043 0.00390745 8.21141e-22)
(1.06028 0.0510991 1.00197e-20)
(1.03361 0.0509627 0)
(0.913546 0.0229299 0)
(1.01619 0.0393435 1.6225e-22)
(1.0489 0.0442393 -6.02076e-22)
(1.0073 0.00976246 7.10624e-21)
(0.406592 0.0221138 7.75192e-21)
(1.00138 0.00587905 -3.43032e-21)
(0.999992 -7.38845e-05 -2.64905e-23)
(1.04807 0.0290604 1.61499e-20)
(0.970827 0.120918 0)
(1.0291 0.00675011 -6.17717e-22)
(0.365913 0.021187 0)
(0.835867 0.0342509 -1.30467e-20)
(1.01065 0.00136564 0)
(1.07387 0.0554845 -1.00685e-20)
(1.04352 0.0164809 0)
(1.00941 0.0384151 0)
(0.992402 -0.00012394 2.05652e-20)
(0.564745 0.0431218 -1.25344e-20)
(1.02723 0.00673268 4.41296e-22)
(1.0622 0.059173 1.13138e-20)
(1.00536 0.00549311 0)
(0.999972 0.000585249 -1.65475e-20)
(1.05217 0.0532648 -2.86572e-21)
(1.01769 0.00151852 1.52674e-21)
(1.01002 0.00107725 0)
(1.00009 0.00738702 4.24166e-21)
(0.997654 -9.71473e-05 -3.1092e-21)
(0.704891 0.0338772 8.80692e-22)
(1.06062 0.0492026 1.53273e-20)
(1.0395 0.0385029 1.20357e-21)
(0.999963 -0.000116672 1.16136e-20)
(1.07353 0.0456249 3.19808e-20)
(0.997645 0.00585698 -1.56247e-20)
(1.04744 0.0606746 1.18863e-20)
(0.957131 0.0118134 0)
(0.999882 -0.000370946 -1.23053e-20)
(1.07208 0.0458295 0)
(1.02988 0.0144211 -4.30376e-22)
(1.18091 0.33908 0)
(0.988009 -0.00438341 -1.36943e-21)
(0.923082 0.0600377 -9.0373e-21)
(0.889128 0.0432226 -5.5568e-21)
(1.00959 0.0394981 0)
(0.946741 0.0209891 -5.64301e-20)
(0.928096 0.00438516 3.57779e-20)
(1.03862 0.0642745 0)
(0.994078 0.000291365 -4.56516e-22)
(1.01167 0.0170795 -6.37779e-21)
(0.91717 0.0315233 -3.51305e-20)
(1.01544 0.0406841 4.20277e-21)
(1.01648 0.0410615 0)
(1.01159 0.0163994 1.45222e-21)
(0.986988 0.0161931 2.23094e-21)
(1.05803 0.03312 -2.6874e-21)
(1.02932 0.0682772 0)
(1.001 0.0138456 -1.15484e-20)
(1.00013 0.00124576 -1.19309e-20)
(1.03851 0.0670784 2.49195e-21)
(0.941614 0.108033 -1.4506e-20)
(1.0044 0.00724338 0)
(1.04368 0.0215101 -9.50736e-21)
(0.254006 0.0408751 -6.97246e-20)
(1.02131 0.00701487 5.18166e-22)
(0.997837 0.0263281 -1.1774e-20)
(1.00998 0.00811425 4.36306e-21)
(1.05512 0.0428354 1.73802e-20)
(0.906468 0.0970513 -4.02975e-20)
(0.979405 0.0637301 -7.16497e-21)
(0.999907 0.000829226 -5.88306e-21)
(0.707394 0.0555199 0)