/*--------------------------------*- C++ -*----------------------------------*\
| =========                 |                                                 |
| \\      /  F ield         | OpenFOAM: The Open Source CFD Toolbox           |
|  \\    /   O peration     | Version:  v2012                                 |
|   \\  /    A nd           | Website:  www.openfoam.com                      |
|    \\/     M anipulation  |                                                 |
\*---------------------------------------------------------------------------*/
FoamFile
{
    version     2.0;
    format      ascii;
    class       pointVectorField;
    location    "0";
    object      pointDisplacement;
}
// * * * * * * * * * * * * * * * * * * * * * * * * * * * * * * * * * * * * * //

dimensions      [0 1 0 0 0 0 0];


internalField   uniform (0 0 0);

boundaryField
{
    frontback
    {
        type            empty;
    }
    topbottom
    {
        type            uniformFixedValue;
        value           uniform (0 0 0);
        uniformValue    constant (0 0 0);
    }
    outlet
    {
        type            uniformFixedValue;
        value           uniform (0 0 0);
        uniformValue    constant (0 0 0);
    }
    inlet
    {
        type            uniformFixedValue;
        value           nonuniform List<vector> 0();
        uniformValue    constant (0 0 0);
    }
    walls
    {
        type            angularOscillatingDisplacement;
        axis            (0 0 1);
        origin          (0 0 0);
        angle0          0;
        amplitude       0.0174533;
        omega           0.4488;
        p0              nonuniform List<vector> 
56
(
(3.92757 0.184824 0)
(3.87833 0.176142 0)
(3.87833 0.176142 1)
(3.92757 0.184824 1)
(3.73061 0.150094 0)
(3.68137 0.141412 0)
(3.68137 0.141412 1)
(3.73061 0.150094 1)
(3.48441 0.106682 0)
(3.43517 0.0979999 0)
(3.43517 0.0979999 1)
(3.48441 0.106682 1)
(3.28745 0.0719527 0)
(3.23821 0.0632703 0)
(3.23821 0.0632703 1)
(3.28745 0.0719527 1)
(3.04125 0.0285407 0)
(2.99201 0.0198582 0)
(2.99201 0.0198582 1)
(3.04125 0.0285407 1)
(2.84429 -0.00618898 0)
(2.79505 -0.0148714 0)
(2.79505 -0.0148714 1)
(2.84429 -0.00618898 1)
(2.94277 0.0111758 0)
(2.94277 0.0111758 1)
(3.38593 0.0893175 0)
(3.38593 0.0893175 1)
(3.33669 0.0806351 0)
(3.33669 0.0806351 1)
(3.53365 0.115365 0)
(3.53365 0.115365 1)
(3.63213 0.13273 0)
(3.63213 0.13273 1)
(2.89353 0.00249343 0)
(2.89353 0.00249343 1)
(3.18897 0.0545879 0)
(3.13973 0.0459055 0)
(3.13973 0.0459055 1)
(3.18897 0.0545879 1)
(3.82909 0.167459 0)
(3.82909 0.167459 1)
(3.77985 0.158777 0)
(3.77985 0.158777 1)
(3.58289 0.124047 0)
(3.58289 0.124047 1)
(3.97681 0.193506 0)
(3.97681 0.193506 1)
(4.01737 0.251429 0)
(4.02606 0.202189 0)
(4.02606 0.202189 1)
(4.01737 0.251429 1)
(3.09049 0.0372231 0)
(3.09049 0.0372231 1)
(4.00869 0.30067 0)
(4.00869 0.30067 1)
)
;
        value           uniform (0 0 0);
    }
    procBoundary1to0
    {
        type            processor;
    }
    procBoundary1to3
    {
        type            processor;
    }
}


// ************************************************************************* //
