/*--------------------------------*- C++ -*----------------------------------*\
| =========                 |                                                 |
| \\      /  F ield         | OpenFOAM: The Open Source CFD Toolbox           |
|  \\    /   O peration     | Version:  v2012                                 |
|   \\  /    A nd           | Website:  www.openfoam.com                      |
|    \\/     M anipulation  |                                                 |
\*---------------------------------------------------------------------------*/
FoamFile
{
    version     2.0;
    format      ascii;
    class       volScalarField;
    location    "400";
    object      ddt0(omega);
}
// * * * * * * * * * * * * * * * * * * * * * * * * * * * * * * * * * * * * * //

dimensions      [0 0 -2 0 0 0 0];


internalField   nonuniform List<scalar> 
13851
(
0.0106408
8.54476e-05
0.000204975
-0.0168948
-1.00587e-07
-3.02542e-05
1.84074e-05
-2.05327e-07
-0.0587088
1.30695e-07
-0.0240204
-2.9943e-06
-1.01394e-05
0.0148584
0.00370346
-0.0065512
-0.218435
-6.10264e-06
0.105165
0.034995
-0.00731648
-0.000328995
-1.23973
7.35692e-09
0.401254
0.0074648
0.168766
-0.0614042
-0.206254
2.30614e-06
0.0307763
3.03538e-05
-0.038446
0.261186
0.0128666
-0.228641
4.99512e-09
0.425641
-0.237043
-0.000175867
0.242428
-0.220309
-0.0187904
-1.33452
-0.188314
1.82364e-07
7.53695e-07
0.0226115
0.000434922
7.19103e-06
0.179792
0.000167514
-0.0185605
-0.000292466
0.0162863
-3.24142e-05
-0.0810405
0.224231
-1.7382
-0.0655868
-1.62778e-07
0.0467168
-3.06213e-07
0.000483961
-0.129536
0.351201
-0.0606536
0.0340657
-7.02785e-05
0.0306506
-0.0286715
-0.000658439
2.9158e-06
-0.0694986
-0.000412602
0.000114915
-0.130996
-5.57716e-07
-2.21575
2.50197e-08
-4.49056e-05
-0.0867646
0.00144132
-0.0375239
-0.0722732
0.00869623
-0.00456895
0.297832
1.41777e-06
0.038563
0.000150321
1.98323e-05
-0.226483
-0.0110897
-0.0555896
3.06929
-1.03059e-05
0.0229744
0.106517
-0.106785
0.0105957
0.0070301
0.000296778
-2.65477e-06
7.42129e-06
0.00826157
1.66738e-06
-0.0175334
-1.32143e-06
-1.07656e-05
0.0049405
2.74174e-06
-0.0187284
0.0431695
0.00880935
-0.000103476
2.23908e-07
5.588e-07
-0.0224134
0.0872872
-0.464215
-3.51564e-06
9.56391e-05
0.027036
-0.0880406
-0.00397328
-1.20946e-05
0.0275109
0.216654
0.00119601
0.00367381
-0.000630584
-0.402384
0.258786
-0.0131434
-0.0891108
0.0235821
-0.00607639
0.000733587
-0.0059646
-0.266141
0.000109741
1.62711e-06
0.0281962
1.76855
0.00148631
-1.01357e-07
-0.00172628
-0.0897396
-0.0215643
0.0064121
-0.0013692
0.0295582
-0.0529619
1.26244e-05
-1.93658e-05
-5.01775e-07
-0.189721
-0.00508135
-0.000205573
2.23021e-08
-0.216064
0.00633819
-0.0174107
-0.0224478
-0.0640906
-0.0480652
0.116815
-0.00195414
0.0536625
4.8894e-07
4.81349e-07
-0.00636775
7.07636e-09
-0.090935
0.277901
-0.00876136
3.77401e-07
0.00038874
-0.0159942
-0.0689903
-3.12545
-0.00521497
-0.00305293
-0.257526
-0.099605
0.033426
-0.000183257
-2.4177e-05
1.08925e-06
0.663155
-0.00212017
0.13196
-0.000379307
-0.000228989
-0.00802213
0.0118696
-1.75665e-05
-0.000106496
-0.0179254
-0.00501715
0.0826949
0.212813
-0.00143649
-49.756
0.0875872
-0.000666651
0.00500262
-0.0350938
-0.000418974
0.0443748
0.000125659
0.538707
-2.36897e-07
0.00527274
0.000306536
2.28063e-05
-0.167573
1.53867e-05
9.47702
1.56563e-07
0.0961875
-0.000106232
-0.0907927
0.00235063
0.000158339
2.04366e-07
0.0129666
1.03797e-06
0.0111522
0.0736039
0.00100769
2.01127e-06
-3.52812e-07
0.203751
5.45822e-07
18.5382
0.205313
-0.00411491
2.17907e-08
-0.917567
-0.0593195
-0.18883
-0.00488461
0.00267249
0.0154918
-0.0483337
0.000189253
0.606909
-0.00487566
0.154476
0.122958
-6.70704e-07
0.000597174
0.0133113
-0.207873
0.0655079
-8.33505e-07
0.0751373
4.0988e-06
0.0575309
0.02922
0.000795446
-0.0013393
0.103856
-3.5515e-06
0.00809377
-0.0118706
-0.50441
8.08709e-07
3.34426e-06
0.000184236
0.0750621
-0.0345116
0.00665784
-2.86334e-06
0.204808
-0.0797691
0.0293332
-0.00700956
0.0597615
0.137198
0.000428324
-0.000599096
-0.269492
-3.08033e-07
-2.97161e-07
0.024017
0.0359355
1.45134e-07
3.86894e-07
1.84762e-06
-4.84706e-07
-0.00233311
1.04555e-07
-0.0447761
-0.0012228
-2.16286e-05
-0.209995
0.000205083
-5.03183e-05
0.0911142
0.16724
-0.000112187
-4.81889e-05
-0.00470026
-0.0385156
0.0568649
0.00886408
-1.27477e-07
0.0481936
1.38354e-06
-0.00909999
0.0571713
-0.0557707
-0.000225634
-0.783951
0.788354
-0.0195166
0.0111658
0.00815844
-0.153016
0.0973875
-0.294143
-8.82311e-05
-0.0853828
-0.0275297
4.60621
0.0892051
-0.000659287
-0.0193598
6.67643e-05
0.202443
-0.0156067
9.27001e-08
5.51694e-07
-0.00125922
-0.0267167
-17.3147
-4.73127e-06
-0.0524884
-0.000244757
0.00482519
-0.000201396
-0.0480757
0.121563
-0.0241033
0.00237583
-0.000470565
-0.238978
-2.86318e-05
0.0735064
0.000694774
-0.00764884
0.00135306
7.0504e-07
6.54536e-06
0.0358635
-0.0939555
0.0669663
-1.5977
-0.245489
0.00245956
0.194933
-0.118353
-8.2429e-08
-1.26302
-0.00884175
0.0409853
-0.00130462
-0.0104708
0.225914
-0.902921
0.0242011
0.0810866
0.000141119
0.351216
-0.0820702
-0.00069878
0.066315
0.0068454
0.211707
0.0008084
0.00641122
-0.0860032
0.0575741
3.17895e-07
-0.000442059
0.0327199
0.00041794
1.80529e-05
0.00736573
-0.00633036
-2.40227e-06
0.00702069
-0.00306416
0.000275535
-7.05623
-0.0043213
0.0672349
-0.00018257
0.00604263
10.265
0.0380596
0.0114396
0.126558
-0.0423196
-3.36919
-4.84693e-06
0.0282713
-0.00116549
-0.00625698
8.72449e-06
-0.0554066
0.00493765
0.323115
-0.000548037
0.0429999
0.0434441
-0.0394175
-1.58312e-06
-0.124078
-0.159869
2.37821
-0.00938309
0.759952
-8.68021e-06
1.72066e-08
0.116283
0.0603282
7.89138e-06
-0.000125636
0.00587677
-1.49525e-06
-0.0391982
-0.0175754
-0.00265856
0.000106028
0.000105717
-0.000219227
-1.59283
2.54418e-05
-0.000125191
0.0294443
-0.0390802
0.00759024
0.0678845
-4.90365e-07
3.16741e-07
0.000230623
0.0890788
-0.00715792
-3.98651e-06
-0.000243311
-0.183666
7.69826e-05
0.119292
-1.48451e-06
-4.66101e-05
-0.177115
0.00127592
-6.75124e-07
-1.17066e-06
-0.000454641
2.7094e-05
4.35599
-0.0150838
0.00519667
-33.4554
-3.77459e-05
1.48871e-06
0.170427
-0.341765
-0.00290008
-2.14817e-05
0.0665486
0.00223989
-9.43777
-2.02659e-05
-0.00956094
0.0242411
-0.00224995
0.145124
-0.0418242
0.489175
-0.00142807
0.00686497
-1.07187e-05
-0.197557
0.00225435
0.022339
0.00524436
0.000812722
0.000979154
-0.0102043
-6.32416e-08
-0.0722183
0.142815
0.113122
-0.013904
-0.00616263
0.0497546
-0.21422
0.000136189
2.1728e-07
-0.350585
1.06303e-06
7.93073e-06
-0.00367544
-0.0692623
-0.000147069
-0.000100298
0.0275344
0.00603633
1.12281e-06
-0.151733
-9.69584e-06
0.23516
2.94795
-6.86481e-07
-0.000114571
0.0827195
-0.512618
5.48122e-07
-0.144851
-7.37643
-3.81966e-06
-0.0985078
0.017595
0.0516657
8.66595e-05
0.0376641
0.0114295
-3.76769e-06
-0.0520192
-7.55249e-05
1.75734e-06
0.148436
0.212618
0.0064764
-0.0040247
2.62709e-06
-0.00303103
0.236242
-0.162899
-7.52676e-06
-0.0121473
2.25898e-05
-0.000118476
0.00936375
-4.06817e-05
-9.11509e-07
-0.00101228
-0.123165
-0.0421083
-0.0942325
-5.36843e-05
2.19531e-06
0.0608054
-1.8081e-06
-0.0869105
-4.20537e-05
-0.00134421
-0.00660334
-0.163356
0.0508356
-0.000648474
-0.114236
0.000180417
0.0394595
-0.217048
-0.0417518
6.86289e-05
-1.20926e-05
0.00340835
-0.110202
0.0347137
-0.00765386
-32.9739
-0.000106619
-0.000468987
0.0523189
-0.114276
-0.0667068
0.214248
0.00368832
-0.24911
-0.00017084
-1.11774
1.47427
-8.01252e-07
0.165946
-0.186431
0.00662361
-0.00749246
-7.06637e-05
51.7903
-0.0639211
0.609829
3.3453e-05
2.97938e-08
-0.00142532
0.0106245
-6.52376e-07
-0.0424898
4.38397e-08
-0.00687171
0.000211224
-0.00218154
-4.96431e-06
6.76122e-07
-0.00415491
-0.0543108
0.00499253
-0.0608243
-0.00709722
-1.39103e-06
1.98968e-06
-0.00131669
-0.000103586
0.0367608
-0.000137185
-0.0017551
1.82871
-5.71269e-07
0.138845
4.2235e-07
-0.0184821
-0.0998253
-0.111476
-0.00410467
1.13036
-0.0179876
0.148165
-0.199669
-9.27514e-06
-0.163036
-0.00169192
0.00116711
0.0233011
-1.16525
2.09021e-06
0.0132006
-1.71593e-05
-0.241763
0.15613
0.000157965
0.0155314
-0.018647
7.06408e-07
4.7963e-07
0.0089457
0.202524
0.00701401
-0.000310609
-0.120513
6.8852e-05
3.25002e-06
-0.678632
-0.126931
-0.0189213
-1.23374e-06
-0.0111031
0.0129897
0.00234305
-0.000421507
-0.00145413
-0.0989636
0.000626963
-0.00836489
0.00332612
-0.00275814
-0.11606
0.368813
0.166972
0.0512457
-0.0430033
0.0183318
-0.0632575
-0.0383229
0.090677
0.0844966
1.72637e-05
0.000107872
0.166003
0.00343945
3.13213e-06
2.80913e-06
0.0120814
0.0995249
-0.000280518
0.186318
-1.89685e-06
0.0030844
-0.334831
0.241581
-0.0623624
0.00160839
0.000134836
0.158166
-0.0596097
-0.0200793
0.246734
0.000336407
-3.06418
-0.0126436
-0.019007
0.0016795
-0.146516
-2.25749e-06
3.83375e-07
-0.000331318
4.3867e-06
-0.205938
-3.94594e-07
-1.19312
0.0474741
-0.0403493
-0.172503
0.0591301
-0.0275654
-0.411294
0.00197153
1.1292e-07
-1.6972e-05
-5.56267e-08
2.46114e-06
1.43478e-08
0.0252184
-0.0148001
0.00533894
-0.0580022
1.70716e-06
-0.049045
2.91733e-08
0.0128416
-0.00892883
1.40706e-07
-2.02503e-07
-0.0927107
-3.19964e-05
-0.168279
-0.157779
-0.00605419
0.0047359
-9.1806e-07
0.259875
0.00162175
-0.00015634
2.41527
1.27407e-09
5.45574e-05
4.62912e-07
0.00617747
0.00608071
0.00153518
-0.00977136
0.00231079
-0.118183
0.00180523
-2.56355e-05
-0.234507
4.69102e-07
-0.238597
5.60268e-08
7.51286e-05
3.38517
-0.00352838
0.0177157
-0.0222219
0.00938467
6.22375e-08
3.50467e-08
0.0625026
-0.000169758
8.74276e-08
0.000178505
-0.150352
9.49326e-08
-0.0223122
-8.71475
-0.157079
-0.0341259
0.117949
-0.00295241
-4.06702e-09
0.0258188
-2.37394e-06
-0.000374791
0.0082397
-0.243353
-0.144376
-0.224425
-8.14186e-05
6.25003e-05
-0.0195043
0.00133874
2.6635e-06
5.06594
0.0713662
0.0221902
-0.0215985
0.00661473
1.19693e-05
1.48253e-06
-5.55615
0.00913528
1.90997e-05
1.93024e-08
0.00328548
0.00817002
0.193827
8.6709e-05
-4.28744e-07
0.170552
-0.000349243
-0.00120915
-1.01853e-06
-0.0485125
-1.65808e-06
-0.104609
1.11925e-06
0.0116446
-0.00611865
0.00969939
-0.00431564
-9.30495e-08
2.8766e-05
-5.1645e-08
0.262564
0.000189249
0.0202373
0.000127755
-0.987256
0.162387
0.00368275
1.8707e-07
-0.000774706
-0.0264436
-0.000707571
-0.0214501
-1.64212e-05
0.169441
1.16259e-05
0.209262
-2.23456e-06
-3.40191e-07
-0.346874
-0.00467246
2.62201e-07
-0.000166543
0.212342
-51.2314
0.00211385
-1.25891e-06
-0.0579078
3.3581e-06
1.86366e-08
-5.97691e-05
3.5643e-07
2.04416e-07
0.0446802
0.00707218
2.43164e-05
2.44102e-08
0.00676489
-1.12267e-05
0.00227394
-0.0080916
-0.0642927
-0.18448
3.14367e-06
-0.013785
-4.90371e-08
-0.00940866
-0.033762
-7.83799e-06
5.08041e-08
0.544412
0.156
-0.00285786
-0.411793
-0.00361489
-4.92515e-07
0.00198797
-0.0282571
-0.0244618
-0.000647632
-1.26277
0.0210651
-1.98376e-07
0.26228
0.196105
0.0107669
-2.96785
0.152865
0.00106874
-0.0568653
0.000189962
0.241349
0.00167025
1.27373e-07
0.0391796
0.00018876
-1.69029e-07
6.31896e-05
0.000165176
-0.0430934
-0.100722
-7.16506e-07
0.00511419
-0.0260814
-0.000519503
-0.363514
-0.000109448
-0.0019159
0.182416
6.61158e-07
-0.0289153
-0.0134458
0.00932184
-40.5774
0.000185366
0.51627
0.00324315
0.240515
-3.30471e-05
0.0812956
-0.000943226
-0.0377555
0.122283
0.1392
-0.00276638
1.52108e-05
-0.000118641
2.71756e-07
0.00525955
-8.66097e-07
0.172938
-0.0144582
-0.000840789
0.00253684
0.00107312
1.25449e-06
-0.000179047
-0.00147328
-0.000188139
-0.00825008
-0.133089
-0.104287
0.000496924
0.0112422
0.03966
-2.91105e-05
-0.0302386
1.46848e-06
0.00301927
5.80772e-05
2.72547e-05
0.0199161
1.16983e-06
-9.0642e-07
0.0122654
3.18623e-05
0.197069
-5.58338e-05
0.0756556
-0.077974
-0.0692061
-0.114919
-2.14692e-05
-0.130766
0.0142111
-3.34951e-07
0.000374355
4.15111e-06
-0.0247162
0.000270258
0.00129753
-0.353505
0.00942348
0.125068
0.000100203
-0.164162
-0.361291
0.125044
-0.006747
-5.80831e-07
-5.53418e-06
0.0183905
-1.91262e-06
0.0555119
-0.0163293
5.6261e-07
-0.0309762
-0.308209
-1.36567e-06
-0.107269
-0.122444
0.0378059
0.000122369
-0.179725
0.00133452
3.17007e-07
0.130669
0.00361549
-3.9077e-06
2.77551e-06
-0.000590466
0.00276595
-0.00963695
0.0716544
0.000976955
-0.0319325
0.000775128
4.37815e-07
-0.0388933
5.89681e-06
-2.60623
-9.05283e-06
-1.65784e-07
-0.000377889
-0.000141047
0.110205
0.141723
-0.121024
0.0576382
-0.173654
0.00101203
-1.64786e-05
0.000209809
0.256246
-5.54316e-06
5.15549e-07
-0.010334
2.98571
-0.0694602
-8.14089e-07
-0.0107216
-0.010053
-0.104813
-0.281214
-7.4423e-07
-8.18852e-07
2.86256e-06
-0.579548
0.00010943
0.234348
-0.00080853
-2.74093e-07
-3.90703e-06
-8.3268e-06
-0.00160804
-0.041992
-0.247411
-0.0971219
0.00559969
-6.87357e-09
0.681121
1.73454e-05
0.854631
0.0109929
-0.00319264
0.00958954
-0.209062
0.0638951
-0.011033
-0.000524158
-0.0426492
0.000226955
0.00494038
0.0412257
0.221547
-0.000201837
-35.9609
3.40332e-06
-0.0100935
-0.545042
1.93726e-06
0.000122926
0.0260061
-0.189159
0.00374033
-7.74355e-08
0.000141177
0.000392245
8.16091e-05
-3.4466
-5.53436e-07
-0.046693
0.0713606
1.65975e-06
6.72107e-05
-0.00163525
-2.44589e-06
-0.236072
0.171945
-0.141056
-0.0566394
1.83253e-06
0.000668295
-0.00110561
1.6311e-05
0.0402155
0.000863177
1.17207e-07
-0.0108908
0.000173355
-0.3764
-0.00936207
0.0511536
0.000827652
5.73623e-05
-0.00825779
-0.00639492
0.0298746
1.22504e-05
0.905755
0.00480441
6.14923
0.0225803
0.014946
-0.0522783
-0.0488844
-9.87987e-06
2.63824e-06
7.98848e-06
-0.0202866
-0.00955482
-0.0351635
-0.100816
3.73158e-06
6.5567e-07
2.1256e-06
-0.0757727
-2.16603e-07
-0.000509934
0.0012188
0.001463
-2.6774e-05
-1.71524e-06
7.43152e-07
2.22865e-05
1.15107e-08
0.00505689
-0.000898804
0.00694999
-0.0559538
3.0888e-06
-1.02601e-05
0.215611
0.205569
0.187349
-0.110169
0.00932276
0.055066
-1.12894e-06
0.00229794
0.000215429
1.10544e-07
-0.000102275
-0.0711676
6.80061e-05
0.00497814
-0.547744
-1.96933e-06
3.10228e-05
-0.000129944
-0.0533464
-1.64487e-08
0.0101892
3.49894e-06
0.075805
-4.30085e-07
3.37048e-05
-0.000438799
-0.0740201
-2.52646e-05
0.0442868
-0.0202449
-0.00728707
0.256124
-5.57495e-06
0.0500922
-0.0922114
-1.66677e-06
-0.0751974
-1.81862e-05
0.000608126
3.59016e-05
1.68302e-05
-2.02401e-07
-6.90726e-07
3.96837e-05
-0.00207363
0.00875171
6.15354e-05
-5.43775e-07
0.0247018
-2.41696e-06
0.0476747
-2.39954e-07
0.00189792
-0.000892716
-0.0463558
-0.0602069
-1.05138e-06
-0.00945838
-8.10238e-07
-0.000226202
0.00769656
-0.086837
-0.000492198
1.90935e-07
-0.0061898
-0.00114483
-0.000989521
-0.240434
-0.000341298
-0.0206626
0.00271055
-0.0174034
-1.72393e-05
-1.19129e-06
-0.287739
-0.0138703
-0.00116998
3.52944e-07
-0.234478
-1.55921e-06
0.00788607
1.05771e-06
0.111724
0.429609
-7.27602e-07
-0.0732507
-0.000371469
-2.26191e-08
-0.00290226
1.77044e-07
-0.00191993
-0.0858207
0.00606204
-0.168757
-7.92204e-08
2.59036e-08
0.00145317
2.30275e-07
4.42076e-08
-0.000252781
-0.00103972
-0.00865139
0.0313785
-2.46451e-06
-0.00406429
7.46743e-06
1.08546e-06
1.4728e-07
8.74879e-07
2.84557
-1.76124e-07
7.59064e-05
0.0105566
-1.13542e-06
4.92269e-07
0.143574
9.55826e-08
0.055461
0.000127995
0.080487
-0.149559
-0.00591964
-0.553607
0.0230726
17.8243
7.44826e-05
-0.0389159
-0.00105807
-4.94103e-06
3.32717e-06
0.000291462
-0.000109407
1.05547e-06
0.0306248
-2.4678e-06
-0.000470565
-0.12092
0.173427
23.4111
-9.96636e-05
0.00156492
0.0495989
0.101963
-1.58774e-06
-0.000429853
-5.14855
1.21599e-05
-0.00245804
-2.22187
-0.111024
0.000311601
0.00821655
-4.66325e-05
0.0453451
2.48169e-07
-0.00189703
1.77778
-1.57568e-05
9.31244e-07
0.0824611
-0.0024847
-0.0619726
0.258166
0.0205727
-8.45353e-06
-2.43088e-06
4.62469e-05
0.00170704
-1.30317
-0.0559378
-0.00928166
4.72573e-06
0.0651994
-5.17861e-07
0.018786
0.00223668
7.84342e-05
0.00292268
-9.97541e-07
-0.156041
-0.186758
8.91273e-08
-0.00322742
-0.00818474
-3.28177
-0.0042058
-0.010129
-0.096783
-0.00125757
0.0667547
0.00507594
-8.03006e-07
0.000589567
-0.0362611
0.0122143
2.276e-06
-1.08744
-0.00170372
0.00333967
-1.28285e-07
-0.130685
0.000409119
0.00305737
3.57525e-07
0.0150298
0.0101248
0.00881533
2.50666e-07
-0.000188076
0.00429259
-0.299038
-0.0322087
-5.83862e-07
-0.000280463
-0.00362584
0.12647
-1.62632e-06
-0.177772
-0.893617
0.017588
-0.0844898
0.00445851
0.169955
-0.0322406
1.24771e-07
1.67512
3.99282e-09
0.00198887
-0.000683359
0.00604244
0.0104036
0.00413964
-0.0256203
0.0116395
0.0010022
-0.00547316
-1.4105e-07
0.0340206
7.75372e-05
0.000412145
-0.11511
0.000842044
-0.00213155
-3.18234e-06
-0.0377322
-0.0526816
8.77234e-06
0.000170295
0.000307219
-0.0331758
-0.0944375
-0.000898711
-0.20277
0.262369
0.566913
0.019188
0.0997553
-2.13051e-08
-0.0802787
5.10865e-08
-0.000651733
0.231563
-0.23347
-0.248845
2.41987
-9.68227e-07
0.0349013
1.5057e-06
-0.0110483
0.00127019
0.0854208
0.0501369
-0.000260054
-4.5468e-08
0.14782
0.00527875
3.10087e-06
-0.0188143
1.00023e-06
0.00203113
0.00042948
2.28191e-05
0.00176134
0.000694287
1.17017e-05
0.0127093
0.530654
-0.0056706
-0.0206981
4.29081e-06
0.0769873
-0.242314
2.11591e-07
0.0566543
-0.00627002
-0.00103499
-0.169578
1.6258e-07
7.05662e-05
-0.000689139
0.0686951
1.92707e-06
1.85958e-07
0.00321504
0.135348
2.72994e-07
0.00192488
0.00321002
0.393031
-0.00634199
-0.00469688
-0.0922073
5.13945e-07
0.0554992
6.24289e-07
-0.0458491
-0.00162276
2.94777e-06
-0.000117367
0.0261301
-2.61599e-07
1.21929e-05
-0.0784667
-0.202038
4.14378e-05
-0.0626671
1.30327e-06
1.32765e-06
-0.00796514
2.72681e-06
8.81185e-07
-0.135757
1.42171e-07
0.00861736
-0.0170469
-0.030912
0.491966
-3.93138e-06
-0.00142666
-0.00235566
7.16205e-07
-1.05856e-06
-1.57399e-06
0.312921
1.71013e-08
-0.185082
-0.0211162
1.02313e-06
-3.86728e-06
-0.00106369
-0.0140305
-0.105255
0.0174335
0.0308825
-0.00129933
-0.0576781
0.024211
-9.12998e-05
0.00191757
0.0669264
0.0386432
0.694461
-0.00156302
-5.15393e-05
-0.50465
0.0266155
-0.000332542
-5.58377e-07
-0.00120235
0.00487228
-1.70504e-06
-4.19295e-06
0.208805
4.10963e-07
-9.95691e-05
1.13684e-06
-1.07348e-06
8.54666e-05
-1.85036e-05
-0.123462
-1.40569e-08
-0.33831
6.09069e-07
0.0724982
-0.000152264
0.0274624
0.0710908
1.39203e-05
0.0525278
-0.00105273
3.97442e-07
0.00380601
4.65806e-06
-0.00339707
3.41413e-06
-0.234431
-0.00102315
-0.00263717
-0.0238636
0.0187132
0.00798642
-0.273839
0.0381539
-0.0134535
-5.0731e-05
0.000232008
-0.0644198
0.0385418
0.144679
7.20294e-07
0.128753
6.21354e-05
-0.0152329
0.125821
0.00165237
0.163255
0.00430967
-0.000480273
0.00221595
-0.225314
-0.00345675
-7.2352e-09
-0.0418121
0.0893306
0.00031309
3.0719e-06
-2.74373e-07
-0.214309
2.29691e-07
0.0137884
0.234656
0.00664794
9.55908e-06
0.0172942
0.00172367
-0.1589
6.19882e-07
2.65307e-06
3.94369e-07
0.00037465
7.70225e-05
-5.25364e-05
-0.00447488
0.168959
5.94462e-06
-4.12057e-07
-0.0765873
-4.59519e-05
-0.0671369
-5.92905e-05
-0.149117
-4.66907e-06
0.00111564
-1.13247e-06
-0.016975
0.250226
-0.00506346
-0.0340032
6.21732e-05
1.67787e-05
-5.75563e-07
-0.225128
-2.39672e-08
0.0277111
-3.4582e-07
0.00376236
2.78971e-07
-0.0506035
-2.2817e-06
-0.00755602
-1.39643e-06
-2.8976
-0.188687
1.2951e-06
0.00338736
-0.23767
-0.0155156
-0.020013
0.234144
-0.227021
-0.000412739
0.00687235
0.0191502
0.00528786
1.36755e-05
-0.00379393
-0.00030608
9.1469e-05
0.0367567
0.255483
-0.00224075
-0.0736247
-0.172671
0.00926692
0.0444566
-9.9928e-07
1.70617e-06
0.00706808
-0.0976076
-0.0359141
0.0633095
0.57646
-3.19448e-07
-0.1538
-0.0465861
0.0812835
4.01693e-08
0.0861335
0.0847979
2.27135
46.7198
-0.0287482
-0.0246998
-0.00089157
-0.0193875
1.15682e-05
-4.79514e-05
1.14887
-0.00222986
-1.11559e-07
-0.0470917
-2.7924e-07
-0.00111893
-0.00155608
0.000200005
0.751082
0.00910006
-0.0210937
0.00539955
0.000868502
-0.287371
0.0924857
-0.0199621
-0.000419985
0.00025374
0.0321427
0.0237247
-4.39402e-07
0.0101465
0.0281753
0.011439
-6.90691e-06
0.047807
-0.00225545
-0.0279511
0.00780798
-0.0512442
-0.000576175
0.000500424
-0.00463076
-1.66578e-05
-0.000159689
0.104849
-0.221978
-0.000434108
-0.000461259
-2.53346e-06
-0.0721914
-5.08572e-05
-0.229902
0.0552194
-7.21076e-06
7.20453e-08
-0.00659481
0.00672117
0.335839
0.111642
-4.05106e-06
2.23851e-06
-0.00450108
4.24898e-07
0.000111135
0.000145386
0.000444233
-0.000124534
-8.81295e-06
-0.00674315
7.38815e-05
-0.00575281
-0.13887
-1.39422e-07
-0.046267
-0.18929
3.76209e-07
0.40443
-0.0723974
-0.0941659
4.49392e-05
0.0091051
-5.30356e-05
0.0106282
0.000385355
9.21586e-05
6.09114e-08
0.120065
-1.89199e-05
-0.117724
-1.49166e-05
-1.13352e-05
5.83754e-07
0.0456115
5.57241e-06
-0.00971301
-0.0062451
-3.86344
-3.24551e-06
-0.0636225
1.42254
0.0260191
-9.1614e-07
-0.0437713
-1.42197
-0.559329
20.7916
0.000207408
-8.00179e-05
-0.0761295
-0.828406
-0.282746
0.00316743
0.0152987
1.13915e-08
3.67664e-06
0.00795829
3.47262e-07
1.50215e-05
-0.125592
7.72376e-08
0.00742803
1.88167e-06
0.197945
-0.0255383
-0.551535
0.0110664
0.00240344
5.17724e-05
5.04477e-08
-0.118359
8.54287e-07
3.15556e-06
1.71885e-06
0.0819235
0.265769
0.144183
0.000296875
4.47362e-06
-3.54282e-07
-0.016582
-0.0545842
-6.76537e-08
0.084705
0.186412
-1.62425e-08
-2.06904e-07
-0.0505522
0.020056
-0.000184935
1.67241e-06
0.00857876
0.0698334
2.85785e-05
-0.00476378
2.89618e-07
0.0291233
-2.80062
-3.53429e-05
-0.0956404
-0.0977339
-0.0652026
1.5026e-06
9.78787e-06
-2.15991e-08
3.07706e-08
0.228609
-7.04533e-06
-0.0232336
0.015432
0.188182
-0.000573663
0.035254
-0.0586844
0.0127058
-0.0890858
-0.0640129
3.23103e-07
2.61178e-05
-2.91364e-05
0.00334185
-0.0794832
-1.22836e-06
0.021258
0.00464868
0.00494441
-0.000240888
1.60353e-07
0.159237
0.00310317
0.00937565
6.03691e-07
-0.0176991
0.000559233
0.0139474
3.19885e-05
0.141241
-1.27581
-0.167004
0.024334
-1.7169e-05
-0.00252997
0.000917794
-0.0623933
0.0345969
-0.189094
-7.57915e-08
0.0802198
0.0415632
-0.26709
-0.000225807
0.00739926
-0.00373412
4.98906e-05
-0.0392811
-1.08836e-06
0.000656454
-0.0226622
0.21992
-0.489778
0.258242
0.000425004
-0.00958589
-5.76421e-07
0.185023
0.00411475
0.0648414
1.06917e-06
-0.0839292
-8.10466e-07
1.14448e-06
-0.000408079
0.00400046
0.00640326
7.61641e-06
-0.0631259
0.00348579
-1.0224e-05
0.00907341
-0.0226682
-4.02568
-2.73821e-06
-0.0714248
-0.000562992
0.00180339
-0.000334284
6.77114e-07
-0.0135086
1.42311e-06
-2.03402
0.0276324
-8.39932e-05
2.46081e-06
0.257054
0.00746457
2.25134e-06
-0.231815
0.999126
0.0501317
3.37878e-08
0.0739563
-1.12226e-06
0.0587346
0.000232113
-9.66923e-05
-2.05464
-0.0637802
0.0021566
0.261515
0.0271107
0.00678417
-8.88502e-07
-0.102519
-0.0207967
0.0386044
0.0155559
6.44792e-08
0.11007
-0.0437949
-0.649516
0.0440448
-0.219343
-0.0620643
-2.56884
0.0526842
0.00404193
0.00503421
-7.322e-07
3.63842e-05
-1.5064e-06
0.0471089
-0.00931628
-0.00108514
-0.187547
-2.83785e-07
-8.20518e-07
0.00544051
-0.00303603
0.000850571
-2.01304e-07
0.0677805
-0.000121508
0.00318767
6.20183e-05
-0.101434
0.000330083
0.0349788
0.0341109
0.00378766
-0.024689
-4.70376e-07
-0.00208596
-0.271353
0.0497486
-2.29791e-05
3.45239e-07
0.167901
0.000413579
-0.22186
-1.62867e-06
0.0284488
0.0806096
-1.14246e-05
6.39412e-07
-5.77409e-05
0.262064
0.00104467
0.0147425
-3.67551e-05
-0.000360101
-0.00691347
-0.0144178
0.115887
-7.1291e-05
-0.000796111
-8.52383e-07
-0.093787
0.0159262
-2.58098e-07
-0.212788
-0.0792024
0.187964
-0.14884
0.0453634
0.0863878
-0.10311
0.000367721
-4.24064e-06
0.0661987
0.0776666
1.46025
4.89443e-05
0.00794791
-4.4432e-06
5.91769e-06
0.379931
0.218833
-0.00433701
1.59848e-06
-0.162864
0.0158958
-0.0118488
-0.0508285
-1.52016
0.0395799
3.1845e-07
0.144073
0.464935
0.0983361
0.000913661
-0.00198361
-0.000173385
2.56066e-07
-0.0036196
0.0101285
-0.00123726
0.00682785
0.000827429
0.00522924
-0.109712
-0.0643812
-0.00164163
0.00114525
0.0251215
0.0476403
-5.84308e-07
0.64204
4.65393
0.0737331
-9.3321e-05
0.000106621
-0.000951936
-0.00115887
-0.00154303
6.67908e-07
0.00257918
0.000358923
0.00549845
0.257327
8.12986e-08
-0.000162316
-0.0649512
-0.210241
0.0434123
0.285322
0.00458113
-3.51271e-07
1.56164e-06
0.00130562
-1.4372e-06
-0.266287
3.44866e-06
-7.64737e-08
2.13973e-06
-0.225431
15.9409
-5.94691e-05
-0.00741512
-0.00545765
0.0149575
-0.000691874
0.0021885
-0.00993092
-0.00479734
-0.0118964
0.000585666
0.064885
-0.00265264
-0.0399689
0.00249072
3.12299e-07
-2.07399e-06
-0.00774664
0.0162698
-7.38685e-07
-0.0172342
5.18394e-05
-0.00762745
0.0134282
-0.0529209
-0.31684
1.5276e-07
-0.0774154
-0.00626959
-0.0113609
2.72751e-06
-0.0478495
-0.000488336
0.00962843
-3.22361
-0.00737985
-5.92e-07
-0.216142
-0.00120368
-0.0525248
0.0619617
-0.0771431
0.00228785
0.0907407
-0.0982692
-0.0121713
-0.00286916
-0.00340281
-1.7674e-05
-0.0020027
1.3468e-06
0.140661
-0.00434885
0.00702344
-0.0430221
-0.158385
1.72667e-05
2.4954e-05
-0.0280781
0.00406802
0.123594
-0.00158012
-4.95439e-07
0.0008944
0.0322432
-0.00121746
0.000222316
-0.0158985
-0.257199
0.000528423
-1.09894e-07
6.07005e-06
0.0571248
4.14735e-05
0.0378298
-4.42458e-06
1.56345e-06
0.103034
-0.000287703
-3.26468e-05
2.24735e-06
-0.00192617
-0.650454
-0.00406602
-0.00530483
-0.000740711
0.0172614
4.34888e-07
0.00324223
0.000951908
-0.00664353
-0.0194871
-6.85347e-05
0.0731185
-0.000788628
4.94101e-07
0.0109146
0.282225
-0.0755116
-4.85684e-05
-6.16975
-0.0598061
-1.46634e-05
6.61169e-05
11.8858
-0.0423125
-0.000999604
-0.052286
-0.247629
2.18782e-05
0.0200513
-1.44932e-06
-0.000508358
-0.0348852
0.811011
-4.16497
-0.0256002
0.122193
-0.1696
0.076092
-0.000144817
-0.0501959
-1.06937e-06
0.885154
0.0659815
-1.98149e-06
-1.25316e-07
-0.0524129
-0.00011226
-1.08391e-06
-0.239868
0.0159986
-0.00198301
0.000369341
0.0258007
-1.53799e-08
-0.180815
-0.0658675
8.39273e-08
0.105629
0.0130992
0.0654095
-0.0640236
-0.0711158
-0.0164765
9.29763e-07
-0.000509673
0.0238201
-0.00244409
-7.0761e-07
-0.0424144
3.85938e-06
-0.0753452
0.0576159
0.000262163
0.0749065
-0.0831927
-0.158372
-0.0148885
0.0277128
-0.182541
-0.358765
0.000152452
2.34166e-07
0.186128
-0.00311281
1.15931e-06
-0.175572
6.56794e-06
0.177467
5.46811e-06
0.253104
-6.58526e-05
-8.27419e-06
-21.3949
0.000957542
0.00443446
-8.16858e-05
-0.0853657
4.34221
-0.000417157
0.005956
-0.000253261
0.00406132
-0.0970803
0.00403842
7.75491e-08
-7.22409
0.0018466
-0.0185114
-0.0133608
-0.00682043
0.0201105
-0.0135916
0.00538439
-0.00708611
-6.02424e-06
0.0578233
-1.57359e-06
0.0757301
-0.106326
0.00747171
-9.83897e-08
0.00354243
0.00676308
0.000124159
-0.0324314
-0.000297365
-0.00458121
0.0502264
0.00118316
-0.000597439
4.35399
-9.90871e-07
-0.219899
-2.19055e-06
0.000310208
-0.0260378
-0.235469
0.00469439
-0.272829
-3.9277
-0.000857099
-6.53433e-05
-0.0550382
0.00300404
-0.203693
-0.000172508
-11.1645
-0.0967367
0.00089849
0.00206027
-0.0737516
0.00175308
0.00151998
0.0061755
0.0191814
2.22131e-05
1.96655e-05
-0.495746
-1.37866e-05
0.00122625
-7.68238e-07
0.00596667
-0.00202964
-0.00248685
-0.0355858
-0.00035941
0.0130443
-1.26429e-07
-5.1266e-05
4.75086e-07
1.90586e-07
-4.52768e-05
5.5897e-06
0.0230451
0.122585
0.00437587
0.000375162
-0.000129655
-1.42366e-05
0.0910642
1.88251e-05
-0.151586
-0.287784
-0.065707
-0.0172402
-0.00837924
-0.00043013
-1.70406e-06
0.000310608
0.0230376
-0.00300671
0.0825975
-0.0036438
-0.00177633
0.0293112
4.54361e-08
-3.45098e-07
-0.0638591
-1.82126e-05
-0.000103008
-0.00995639
0.129647
-5.99939e-05
0.231319
-1.86846e-07
-0.00046325
-1.80433e-06
0.000155555
0.0524857
0.00407766
-2.25155e-05
9.42652e-05
0.000503107
0.00536358
-0.00779946
0.299007
-2.44627
0.0455164
-0.0124029
-0.000331496
-0.000182258
0.00181389
-0.243382
-0.02547
-0.201195
6.77237e-05
0.805143
0.00116563
0.000168221
9.39657e-09
0.00158394
-8.0475e-07
-0.000512549
-0.0774477
3.89835e-07
-1.6107e-06
-0.265965
0.388259
0.00663298
-1.16525
4.43177e-05
-0.0500135
0.000456688
-0.0198727
0.00401953
-2.84274e-05
-0.178001
0.0102418
-7.76599e-07
0.029074
4.51154e-07
0.0360466
-0.000955979
-0.0157078
-0.215864
-0.000813406
-0.0923889
-4.40503e-06
0.0540245
-4.87962e-05
-0.000692858
1.92283e-05
-0.00337969
-3.9807e-07
0.00423374
-0.229809
13.7639
-0.00638163
-0.0122659
0.024343
1.20962e-05
-2.67133e-06
-3.27551e-05
-0.465912
0.000476566
0.245391
-0.0517381
-0.0432176
1.22247e-07
-0.0500506
0.10184
-0.0729435
-0.0001289
0.0535607
-2.04157e-05
-3.0895e-07
-7.47625e-06
-0.45372
-2.72588e-05
-4.38397e-06
-0.205644
-3.6877e-06
-0.00393775
-0.0963586
-3.04724e-06
0.090349
-7.55187e-05
0.248226
3.21366e-06
-0.607575
5.3894e-05
0.0026504
-0.032358
0.00161018
-1.65361e-06
7.58236e-05
-0.19178
-0.000579892
-0.0677067
0.000136465
-0.000606241
0.0620145
0.000250243
-4.0695e-05
-0.444086
0.00114058
8.66022e-05
0.00946295
-2.4838e-07
1.5562e-06
-1.33968e-08
-0.000307151
-1.45143e-05
0.00669982
-0.0873333
-0.414973
0.0772255
0.00485678
-0.00222852
0.00185477
-0.196327
0.0020442
5.1545e-05
-0.230163
-0.100824
-0.0494045
-0.059727
-0.00424128
-0.196159
-0.157374
1.54942
0.304698
0.0162893
0.0122075
0.069862
-0.000568284
-0.000143782
4.06414e-07
-2.10158
1.67727e-07
0.00496405
0.113939
-3.29129
-9.04985e-07
0.00332941
0.0208204
0.000338409
1.32162e-08
-1.33098e-09
-0.0397369
4.35913e-05
1.15072e-05
-0.00193273
-0.122183
-9.07002e-05
-0.074048
-5.77108e-07
-0.1722
-0.00287172
5.96263e-06
-0.00772123
1.3551e-06
0.255409
0.123072
-0.105577
0.549496
0.000334125
-0.0132337
-4.19921e-07
-0.00488702
-9.69685e-07
-0.000108538
2.78935e-07
0.0433901
8.51813e-07
0.00257467
-2.95504
0.00274193
0.000170832
7.30887e-06
-0.259034
0.118743
0.266707
-0.0538445
0.0799281
-0.263255
-0.00711017
0.181661
0.00460647
-0.136341
0.00733391
-0.00712049
0.442925
0.0873356
2.72383e-06
-0.0311994
0.0918544
-0.00540343
-3.90235e-07
0.00806012
-0.301935
2.92176e-07
-0.00638907
-0.000564264
0.100617
-3.77596e-07
-1.23811e-05
-0.0154843
0.273702
0.00010156
0.0187534
5.59849e-06
-8.25425e-06
-0.0486142
-0.0220454
0.330074
-0.011524
-3.04151e-06
-0.000123072
-1.36406e-06
0.00229975
-4.09578
0.10277
-0.897966
-5.80209
0.00723724
-9.52875e-08
5.85539e-07
-0.0394029
0.127676
0.356512
0.000620073
-0.00263939
0.0211861
0.0926564
0.028541
-4.14466e-08
-2.22434e-07
0.0753375
2.14708e-06
1.46302
-0.00065462
-2.77115e-05
0.00213992
0.0069133
-0.0352412
0.0418453
3.8439e-08
3.48884e-06
-0.000105564
0.00646724
-0.301106
5.98763e-08
-0.0306174
0.0627124
-4.74646e-07
0.31479
-0.159631
-0.044008
-1.40938e-06