/*--------------------------------*- C++ -*----------------------------------*\
| =========                 |                                                 |
| \\      /  F ield         | OpenFOAM: The Open Source CFD Toolbox           |
|  \\    /   O peration     | Version:  v2012                                 |
|   \\  /    A nd           | Website:  www.openfoam.com                      |
|    \\/     M anipulation  |                                                 |
\*---------------------------------------------------------------------------*/
FoamFile
{
    version     2.0;
    format      ascii;
    class       volScalarField;
    location    "400";
    object      nut;
}
// * * * * * * * * * * * * * * * * * * * * * * * * * * * * * * * * * * * * * //

dimensions      [0 2 -1 0 0 0 0];


internalField   nonuniform List<scalar> 
13851
(
0.000687115
0.00178386
0.00156092
0.00404127
0.00672165
0.00136083
0.00365845
0.00676272
0.0129452
0.00673083
0.000329749
0.0067234
0.00371452
0.00478867
0.00110349
0.00101496
0.00225194
0.00458639
0.000416439
0.00117099
0.00120708
0.000781999
0.000812201
0.00672545
0.00175962
0.00152531
0.000870344
0.000113606
0.0126931
0.00673714
0.00880214
0.00384054
0.000973841
0.0122299
0.000389088
0.012575
0.00672565
0.000512886
0.0125892
0.00272968
0.0117192
0.0129582
0.000187474
0.000100405
0.0132511
0.00521859
0.00673361
0.00138251
0.00147653
0.00219366
0.00345287
0.0028655
0.00108793
0.00173825
0.00467051
0.00284289
0.00127003
0.0128729
0.000325933
0.00536033
0.00672313
0.000838023
0.006725
0.000902841
6.11301e-05
4.84294e-05
0.00347735
0.000124787
0.00374081
0.00591199
0.00889969
0.000970251
0.00348992
0.00413271
0.00152819
0.000962719
0.00377535
0.00673169
0.00129207
0.00672699
0.00303685
0.000370435
0.000503195
0.00557128
0.00570117
0.00906672
0.000752545
0.00287449
0.00637304
0.00868329
0.00305188
0.0028365
0.00030615
0.00855445
0.0127371
8.15393e-05
0.00610422
0.00103775
0.00390194
0.000220081
0.00112955
0.000176392
0.000145065
0.00299714
0.00539563
0.000666583
0.00593106
0.00923251
0.00350293
0.00427239
0.000711241
0.00663865
0.000398562
0.000508763
0.0016564
0.00214143
0.0067252
0.00673341
0.00351233
0.00607442
6.56868e-05
0.00562869
0.0035124
0.0114716
0.000548809
4.73874e-05
0.00622809
0.000267976
0.0130455
0.00114728
0.00101805
0.000770398
0.000476647
0.0125756
0.000459571
0.0126925
8.70602e-05
0.00903739
0.000185441
0.0013266
0.000339039
0.00243826
0.00514392
5.24917e-05
0.00209158
0.00141466
0.0067305
0.00854372
0.0108512
0.000205378
0.00150091
0.000350583
0.000513601
0.000453292
0.00198826
0.004823
0.00672316
0.0125966
0.00164918
0.00272041
0.006725
0.0126701
0.000701552
0.00160947
0.00509674
0.0135026
0.0135408
0.0053293
0.000462892
0.00740729
0.00672341
0.00672457
0.000722293
0.00672243
0.01292
0.000786218
0.00136209
0.00672479
0.0015805
0.00141983
0.000563702
0.000103696
0.000543558
0.00145246
0.000213264
0.0111549
0.00155084
0.000230556
0.0024453
0.00674181
0.00049886
0.00126186
0.00285659
0.0010694
0.000753683
0.00113159
0.00107006
0.00377071
0.00274203
6.88886e-05
0.000410111
0.0130241
0.0128826
0.00132156
3.83476e-05
0.0128067
0.000960738
0.00192666
0.0130663
0.00157646
0.000926158
0.00320261
0.000414806
0.00672508
0.000408819
0.00119303
0.00351168
0.000879925
0.00372698
4.68979e-05
0.00672445
0.00113849
0.00388033
0.0128343
0.00040576
0.0023187
0.00672576
8.209e-05
0.00672513
0.000463005
0.00294713
0.000311935
0.00127978
0.00672362
0.0129323
0.0067383
0.000642854
0.0129215
0.000198971
0.00672522
0.000194257
0.00586871
0.0131788
0.000942079
0.000975579
5.61975e-05
0.00078122
0.00182448
5.69729e-05
0.000460198
0.0034881
0.000553559
0.00673641
0.00125523
0.00111978
0.0124585
0.00556195
0.00673986
4.58417e-05
0.00673119
0.00121818
0.000666467
0.0013775
0.00120513
0.000407567
0.00442163
0.000174365
0.00155278
0.000304544
0.00672503
0.0029478
0.00040305
0.0133995
0.00178466
0.00113534
0.00556554
0.000830461
0.000534652
0.00180188
0.000908465
0.013475
0.0037575
0.00141184
0.00148549
0.00108435
0.0062634
0.00672299
0.00161324
0.000475532
0.00674161
0.00672494
0.00672523
0.0067235
0.00135679
0.0067231
0.0131729
0.000921169
0.00477513
0.0124094
0.0108353
0.00280592
0.00105249
0.00355287
0.00128162
0.00155348
0.001272
0.00503882
0.00839952
0.000724657
0.00672072
0.00724999
0.00672333
0.000721858
0.00558295
0.000286564
0.00253876
3.78602e-05
0.000240276
0.010061
0.000338182
0.000130036
0.0129389
0.0125943
0.000455357
0.00259914
0.00459311
0.000377932
2.03269e-05
2.26112e-05
0.00122784
0.000840688
0.000373384
0.0036623
0.00012809
0.00671902
0.00672443
0.0012921
0.0096233
4.09747e-05
0.0064081
0.0126657
0.000420742
0.000767381
0.00360736
0.00371294
0.000445711
0.00107931
0.00094991
0.00142666
0.0120619
0.00232845
0.000607772
0.00148522
0.00112518
0.000335224
0.0067322
0.0029567
0.000290031
0.000203018
0.000648052
0.000209392
0.0121666
0.00172224
0.0129443
0.00108056
0.00675215
0.00045034
0.00104815
0.00556955
0.000841902
0.00122762
0.000775781
0.000215712
0.000265043
0.00473011
0.00285415
0.000744975
0.000600849
0.00102326
0.00525138
0.000968283
0.0128299
0.00173502
0.00203322
0.000588537
0.000250522
0.00504631
0.00163283
0.000379662
0.00196513
0.00529265
0.00106013
0.00746922
0.00333455
0.000998523
0.00227987
0.00125649
0.00010843
0.00218097
0.00794309
0.000977396
0.0011952
5.58409e-05
0.00070133
0.000727742
0.00393365
0.00417864
0.000176869
0.00462442
0.000279645
0.000955173
0.00132931
0.00619048
0.000230909
0.00805532
0.00111478
0.0014982
0.000464961
0.000808767
0.00227947
0.00673607
0.00270264
0.000265672
0.000863863
0.00030517
0.00103883
0.0036717
0.00672248
0.00327711
0.000785656
0.00507088
0.00190576
0.00106594
0.00672445
0.00720979
0.000714587
0.00112065
0.00219575
0.00162062
0.00192161
0.000214259
0.00281367
0.00280072
0.00880723
0.00863359
0.000886525
0.0008471
0.00672443
0.00672285
0.0013355
0.000665306
0.00174633
0.00674719
0.00201413
0.00012921
0.00192543
0.00814177
0.00672299
0.00172495
0.0132669
0.000297665
0.00671942
0.00672354
0.00191382
0.00359712
0.000281646
0.0103249
0.00130907
3.43194e-05
0.00178192
0.00672483
0.0132301
0.000832662
0.000260076
0.00386436
0.0122762
0.000206356
5.96616e-05
0.00377202
0.000816363
0.000279923
0.00156349
0.0129873
0.000841483
0.000521871
0.00087567
0.000364322
0.00411088
0.0124852
0.00183615
0.0015799
0.000871448
0.00108919
0.000259258
0.000661958
0.00672137
0.00211565
0.0132099
0.00690198
0.00102745
0.00921056
0.00702053
0.000685071
0.000410869
0.00672435
7.05001e-05
0.00628545
0.00673715
0.000265609
0.0130388
0.00198965
0.00163853
0.00012051
0.000676982
0.00619586
0.00775942
0.00673828
0.0129634
0.00025083
0.00672748
0.00245434
0.000321225
0.000286231
0.0067407
0.00258201
0.00060372
0.00677307
0.0117446
0.000428896
0.000868635
0.00122955
0.00839239
0.00547212
0.00677751
0.000334461
0.0033023
0.00633334
0.00662378
0.0127568
0.000846286
0.001358
0.00673199
0.00182634
0.0129511
0.0127462
0.00678932
0.00417483
0.00613868
0.00276383
0.000819889
0.00315432
0.00673649
0.000838819
0.0116821
0.000268553
0.0116883
0.00200231
0.00626777
0.0130307
0.00672379
0.000321515
0.00185018
0.00149074
0.00110215
0.0127345
0.00542743
0.00132015
0.00243519
0.00270876
0.000509543
0.0130441
0.00702487
0.00251192
0.0055511
0.000135088
0.0118624
0.000830864
0.00125041
0.000376955
0.00309666
0.00135343
0.00321021
0.00878481
9.22719e-05
0.0130842
0.00122843
0.0125066
0.00235903
0.000260807
0.000923108
0.00672428
0.000792723
0.00888947
0.000376667
0.0013097
0.00284432
1.2721e-05
0.00018374
0.00186478
0.00405533
0.00672301
0.000430393
0.000596507
0.00672316
0.012942
0.00672291
0.00125255
0.000967088
0.00125206
0.00300401
0.00427771
0.000419405
0.00395572
0.000765691
0.0125415
0.000797739
0.00672565
0.00613256
0.000649559
0.00237132
0.000422181
0.00180217
0.000226818
0.000346115
0.00672375
0.0039383
0.00672547
0.00119708
0.00336186
0.013421
0.000246417
0.00124614
0.000119231
0.000150477
0.0104887
0.0057881
0.00865157
0.000427853
0.00110386
0.00155822
0.000568921
0.00675479
0.000307101
0.00431645
0.0124027
0.00406184
0.002322
5.81093e-05
0.00710768
0.00672576
0.00672547
0.00177367
0.00250561
0.00625195
0.00183796
0.000676915
0.00202291
0.00485111
0.000168922
0.000481334
0.000253265
0.00673069
0.00188564
0.000186577
0.00142377
0.0022215
0.00135833
0.000190856
0.000479696
0.00143682
0.000799597
0.0011617
0.000102373
5.07634e-05
0.000435095
0.00893598
0.00185842
0.00124557
0.00827033
0.000267368
0.00751183
0.000935151
0.00534349
0.00157935
0.000436444
0.000844981
0.00672657
0.00672528
0.00135865
0.00367517
0.001807
0.0129373
0.00672585
0.00715666
7.46748e-05
0.00314662
0.000290083
0.000811717
0.00185344
0.00466928
0.000307617
0.000316352
0.000785451
0.00238468
0.000117799
0.00106882
0.00124575
0.000903525
0.000437434
0.00406915
0.0067253
0.000765953
0.00622696
0.0131004
0.00672013
0.000432149
0.0134856
0.000399749
0.0128611
0.00495691
0.00121207
0.00019632
0.000365646
0.00672372
0.00422673
0.00673027
0.00589437
0.00672265
0.000526326
0.000295761
0.000137343
0.000189745
0.00103607
0.0128743
0.00672632
0.0045434
0.000544697
0.00672613
0.00672345
0.0134978
0.00107643
0.00500252
0.00883464
0.00101761
0.00091109
0.00677064
0.0126388
0.000843465
0.00201637
0.00045854
0.00672368
0.00118401
0.00543109
0.00177586
0.00426257
0.000795984
0.000849557
0.000293628
0.0124978
0.000485664
0.000799555
0.0128509
0.0067286
0.0127628
0.00672398
0.00308971
0.00103538
0.00114356
0.00168755
0.000297581
0.000942111
0.00672472
0.00672634
0.000510502
0.00248378
0.00672495
0.00207272
0.000262137
0.00672095
0.00015978
9.77437e-05
0.00397665
0.000341804
0.00739275
0.000233804
0.0067236
0.00026978
0.00672603
0.00179157
0.00751345
0.0120216
0.00912822
0.0128026
0.00253147
0.00385714
9.26445e-05
0.00178666
0.00596456
0.000776922
0.00117649
0.00575164
0.00120449
0.00161838
0.0042181
0.0067377
0.000230845
0.000893554
0.00201638
0.00672525
0.00169362
0.000318103
0.0129332
0.00230276
0.00672303
0.00285344
0.00124766
0.00109315
0.00672356
0.0130539
0.00676353
0.00408549
0.00672624
0.000216456
0.00128815
0.000121992
0.00101789
0.00389205
0.00202223
0.00672075
0.000391764
0.00139032
0.00736145
0.00594363
0.00199348
0.0132876
0.000857908
0.00672046
0.00284648
0.00940878
0.00133423
0.00180412
0.00317814
0.00304135
0.00459647
0.00051822
0.00672452
0.0067207
0.00409966
0.00124272
0.00672354
0.00167203
0.0129479
4.31853e-05
0.0081978
0.00673733
0.00928262
0.00672514
0.00672086
0.00222049
0.00671643
0.00672511
0.00803217
0.00782445
0.0032973
0.0067228
0.000896215
0.00651053
0.00348814
0.000311961
0.00648754
0.01294
0.00203879
0.00174405
0.00672443
0.00107952
0.000135756
0.0054025
0.00672419
0.000246121
0.00458118
0.000939714
0.000680018
0.00179023
0.00672467
0.000675865
0.00240594
0.00280674
0.00133549
0.000447936
0.000729513
0.00672478
0.00302583
0.00319003
0.00637628
0.000161442
0.00614693
0.000973373
5.53354e-05
0.00203099
0.000625275
0.000864609
0.00671799
0.00875339
0.00137576
0.00672038
0.00262161
0.00153426
0.0130062
0.000504477
0.00672894
0.000702205
0.00498509
0.00147404
0.00061543
0.000941073
0.00127748
0.0121457
0.00672297
0.000980737
0.000547012
0.000886714
3.84881e-05
0.00157016
0.000357317
0.0013081
0.0128032
0.00441556
0.00595679
0.00108134
0.00928905
0.0029186
0.00401622
0.0010145
0.00409399
0.00207041
0.00672571
0.0016384
0.00672403
0.0130499
0.000502701
0.000411651
0.000454649
0.000918518
0.0067361
0.00227522
0.000776288
0.00300715
0.000676937
0.0103367
0.000371476
0.00120747
0.000325984
0.0078988
0.0011629
0.0102596
0.00672739
0.000421299
0.00135488
0.00459795
0.000290923
0.0067249
0.00672858
0.000147419
0.00323226
0.000273511
0.00251259
0.000685625
0.000436816
0.000662331
0.000405453
0.00388267
0.0126837
0.000722663
0.00672498
0.000538219
0.00152478
0.0105745
0.00127712
0.000138926
6.9113e-05
0.00155268
0.0002674
0.00318066
0.0129699
0.000256815
0.00707134
0.000554903
0.00672591
0.00679012
0.000734613
0.0055155
0.00400943
0.000274808
0.00672411
0.00103497
0.000245797
0.00571924
0.00973847
0.00330791
0.00123533
0.00203956
0.012839
0.000688653
0.00672246
0.00371233
0.00103705
0.00569151
0.00673443
0.00176608
0.00156782
0.0134247
0.00751079
0.00150749
0.0135386
0.00162605
0.00467329
7.92016e-05
0.00672522
0.000136284
0.00627545
0.00672115
0.0015362
0.00179744
0.01342
0.00415585
0.000961739
0.00509504
0.00847316
0.000364541
0.00395309
0.00304382
0.000390456
0.00679182
0.00677165
0.000435715
0.00141056
0.000636601
0.00673046
0.000543349
0.000817918
0.000693164
0.000582549
0.0067743
0.00673578
0.00261034
0.000393648
0.00174411
0.0129452
0.00118981
0.00672323
0.00600015
0.006736
0.00091903
0.00125216
0.0124191
0.0134933
0.00059938
0.00672465
0.000164322
0.00423202
0.00125902
0.00787017
0.000317434
0.00521878
0.0129959
0.00755385
0.00139746
0.00145759
0.0108249
0.00122815
0.000332202
9.86157e-05
0.000147748
0.00238039
4.73819e-05
0.0046688
0.0077385
0.00107615
0.00672762
0.001016
0.00022666
0.000355124
0.00107252
0.00672271
0.00150775
0.00120919
0.00170736
2.74223e-05
0.00672346
0.0103284
0.00422479
0.00415796
0.00138039
0.00179048
0.00672422
0.011909
0.0010062
0.0128322
0.0093616
0.00672438
0.0009192
0.000989841
0.00209196
0.000943962
0.00150066
0.00672533
0.00144489
0.000566554
0.00412443
0.00113539
0.00326079
0.000880498
0.00131753
0.000102599
0.000837969
0.000618778
0.00666291
0.000599445
0.0103323
0.000544923
0.00835915
0.00878448
0.0134932
0.00863023
0.00633075
0.00673113
0.00448931
0.000874344
0.0012546
0.000699731
0.00196678
0.00419691
0.00672149
0.00517479
0.000698672
0.00673106
0.00177587
0.00145566
0.00775248
0.00125516
0.00672535
0.00672498
0.00432191
0.00672291
0.000237961
0.000999294
0.000273356
0.00649467
0.00672844
0.0067377
0.0130695
0.0130637
0.00298765
0.0052175
0.000150912
0.00688554
0.00672551
0.000173009
0.00126081
0.00672555
0.0023921
0.00521801
0.00237189
0.000870825
0.000325524
0.0036893
0.00397184
0.000514728
0.0012203
0.00672587
0.00781476
0.0042604
0.000916479
0.00672351
0.00321617
0.00109886
0.000190014
0.00267408
0.000938748
0.00897081
0.000656157
0.0124427
0.00512807
0.0041908
0.00105352
0.00672597
0.000951996
0.00236247
0.000138023
0.002255
0.00478916
0.00672147
0.00520203
0.00200181
0.000529388
0.00109435
0.00324466
0.00672445
0.000108424
0.00675644
0.00769858
0.00672346
0.000972431
0.00186405
0.00692843
0.000226414
0.00672354
0.00121767
0.00672256
0.00211992
0.000255086
0.00439651
0.00154554
0.00672584
0.00158038
7.32348e-05
0.00170906
0.000719748
0.000281863
0.000414614
0.00115697
0.00145092
0.00102106
0.00591016
0.00360225
0.00223787
0.000973724
0.00672238
0.000801711
0.00672716
0.00113573
0.00672532
0.00018649
0.000593471
0.00673485
0.00272213
0.00143004
0.00672334
0.00138126
0.00671921
0.000137043
0.00999014
0.000996738
0.00430183
0.00672148
0.00672572
0.000155846
0.00672476
0.00672504
0.00201708
0.00109305
0.000983148
0.000227248
0.0028639
0.000538071
0.00610104
0.00672459
0.00672448
0.00672587
0.000249692
0.00678527
0.000798236
0.000859036
0.006727
0.00672235
0.0119376
0.00672513
0.000984771
0.00239737
0.0130078
0.000624604
0.000152423
0.000100119
0.000471561
5.17453e-05
0.00246903
0.000332715
0.0008649
0.00658631
0.00498653
0.00140078
0.00112406
0.00385242
0.00043894
0.00672334
0.00170643
0.000498501
0.00349578
0.000177733
0.00296358
0.000167436
0.00755861
0.00433014
0.00672374
0.00179679
5.57169e-05
0.00363712
0.000568453
0.000770082
0.0134906
0.00152583
0.00139403
0.00172314
0.000285663
0.00672619
0.000278458
0.000389473
0.00251586
0.00679387
0.00769231
0.00061249
0.000888021
0.011364
0.0014489
0.00178352
0.006723
0.00324526
0.00673776
0.000464902
0.00509447
0.000406201
0.00396637
0.00926249
0.00672441
0.000366058
0.000530341
0.0031724
0.00103166
0.00672488
0.0099631
0.00859122
0.0067776
0.00107124
0.00130765
0.000334065
0.000626638
0.00122399
0.000929616
0.00202592
0.000423936
0.00136534
0.00672411
0.00183848
9.41301e-05
0.00880295
0.00672445
0.000288686
0.000609156
0.00172673
0.00672591
0.00831828
0.00176413
0.00121048
0.00627138
0.000458708
0.000525999
0.000141476
0.00672367
0.00198207
0.000373081
0.000240382
0.000317787
0.00672339
0.00137299
0.00166947
0.000388825
0.00672393
0.000268661
0.000605273
0.000336497
0.0133314
0.00185788
0.00361819
0.000362261
0.00499966
0.000223024
0.00672504
0.000890089
0.00208644
0.00100605
0.000431656
0.00161556
0.000232644
0.000362093
0.00100535
0.00106991
0.00672977
9.6848e-05
0.00183853
0.000492304
0.000290627
0.000887723
0.000558245
0.00672649
0.00543654
0.000273506
0.00311362
0.00176798
0.00109206
0.00500067
0.00036626
0.00191309
0.0131716
0.000733986
0.000293677
0.000653047
0.000745718
0.00672693
2.91245e-05
0.00675078
0.000697841
0.00063376
0.0118357
0.000488177
0.000242467
0.00672393
0.00359441
0.00672713
0.00137618
0.000511262
0.00614744
0.00870643
0.00311881
0.0067205
0.000411304
0.00014487
0.0067274
0.00854684
0.00672644
0.00136915
0.00176181
0.00218225
0.000693694
0.000742016
0.00407535
0.000571737
0.000388715
0.00111339
0.000384974
0.00672775
0.00516832
0.0116495
0.00672063
0.000872484
0.000538104
0.000523993
0.00604154
0.00672068
0.00193706
0.000516162
0.0104797
0.00672523
0.00672365
0.000515659
0.00664938
0.00672052
0.000397779
0.000398216
0.00024025
0.000573617
0.000653929
0.00110085
0.00672607
5.09439e-05
0.00672446
0.00466898
0.000886543
0.00659829
0.00213577
0.000349745
0.00672294
0.00359891
0.000919092
0.0119666
0.00337864
0.00519228
0.00672404
0.0067258
0.000641023
0.00672408
0.0067863
0.00815326
0.00672594
0.00101037
0.00143964
0.0108473
0.000359868
0.00679286
0.000981289
0.000439428
0.00672246
0.00448915
0.00672432
0.00324362
0.00672426
0.000428391
0.0018588
0.00674957
0.00675871
0.000928131
0.00182638
0.000881045
0.00012868
0.000454635
0.00115292
0.0131977
0.000210941
0.00193346
0.00146052
0.000239398
0.0004266
0.00095672
0.00165771
0.00793274
0.00199624
0.00374741
0.00176623
0.00339814
0.000684415
0.000206873
0.00677183
0.00425245
0.000111586
0.00672522
0.00252111
0.00672485
0.00673235
0.00290313
0.00394095
0.00350622
0.00672039
0.0016048
0.0067227
0.000165738
0.0018238
0.00178795
0.000188098
0.00291384
0.00881597
0.000737384
0.00672493
0.00118266
0.00675704
0.000414011
0.00441664
0.012299
0.00123891
0.000921459
7.98422e-05
0.00821044
0.000793905
0.000345405
0.000440074
0.000264811
0.00373117
0.00224612
0.000110377
0.000573275
0.00375476
0.00674385
0.00579842
0.00251363
7.17179e-05
0.00692231
0.000537753
0.00542389
0.000779567
0.00104802
0.00087234
0.00930049
0.000760194
0.00672249
0.000386653
0.000512743
0.00154379
0.0067283
0.00672277
0.012761
0.00672544
0.000702743
0.012551
0.000556778
0.00673095
0.000371723
0.00092877
0.00581463
0.00672204
0.00585817
0.00672387
0.000697267
0.00249155
0.00351063
0.001174
0.0132577
0.00596798
0.00672413
0.00414385
0.00515879
0.00305532
0.00352801
0.00919661
0.00628795
0.000746584
0.00672349
0.00778645
0.0123899
0.000338887
9.18815e-05
0.000375687
0.00470586
0.00672374
0.0122795
0.00672238
0.00160568
0.00675184
0.00189596
0.00672393
0.00649371
0.00672537
0.00127339
0.00675416
0.000126342
0.000193005
0.0067516
0.000249842
0.00890683
0.00162757
0.00675659
0.00491538
0.000208474
0.000715459
0.000896688
0.000537751
0.000450995
0.00523144
0.0017622
0.000355805
0.00452485
0.00691783
0.00528678
0.00124917
0.00071513
0.000587647
0.000560039
0.0133453
0.00677063
0.00674858
0.000387195
0.00849482
0.000407792
0.000334432
0.000264544
0.00672582
0.00832775
0.00871318
0.00691696
0.00672412
0.0060206
0.00756829
0.00019126
7.92493e-05
0.0113602
0.00147398
0.00082047
0.000318939
0.000568849
0.0053162
0.000150225
0.000971159
0.00672904
0.00749024
0.00672412
0.000799417
0.000980914
0.000516242
0.00037828
0.000299293
0.00218418
0.00130182
0.000362079
0.000453218
0.0129034
0.000696719
0.00144757
0.000721371
0.000545604
0.000182002
0.00672241
0.000591334
0.000127926
0.000315693
0.00425754
0.000389142
0.00096967
0.000381723
0.00867451
0.000360638
0.000799831
0.000173725
0.00718742
0.00249867
0.00141
0.00648828
0.000388339
0.00127615
0.00159533
0.00672391
0.000218556
0.00222696
0.0128776
0.000356247
0.00159179
0.00672452
8.23382e-05
0.000533269
0.000952129
0.00507592
0.00674392
0.00672581
0.000503605
0.00672422
0.00152624
0.00139596
0.00157269
0.000589346
0.00670496
0.000642802
0.00184122
0.00128021
0.000336644
0.0067257
0.00698372
0.00163862
0.00672537
3.55973e-05
0.000219928
0.000305725
0.00115198
0.00113693
0.00108362
6.16669e-05
0.00136237
0.00210978
0.00672418
0.00377028
0.00243152
0.00471469
0.00170458
0.00602833
0.0067241
0.000281547
0.00635085
0.000885675
0.00173472
7.08354e-05
0.00672623
0.000735852
0.000536215
0.0108409
0.00672609
0.000303798
1.82664e-05
0.000356089
0.000796568
0.00186912
0.00201977
0.000218929
0.000491432
0.00261936
0.0011979
0.000869734
0.00672492
0.00589131
0.000705617
0.00672425
0.0022853
0.000375705
0.00672585
6.39452e-05
0.0067509
0.0126943
0.00659564
0.0036883
0.00899069
0.00995619
0.00254143
0.00672355
0.00873748
0.00674713
0.00675446
0.00672673
0.000182857
0.0116164
0.00438124
0.000499723
0.00447319
0.0019935
0.000361096
0.00525809
0.00672099
0.0052438
0.0125928
0.00672391
0.00672371
0.00820676
0.00170263
0.00321474
0.00672743
0.00682844
0.0101054
0.00483749
0.00113358
0.00672556
0.0113997
5.59897e-05
0.00337304
0.00249784
0.00256909
0.00542975
0.00660051
0.0041869
0.00672535
0.0067261
0.0127522
0.00440445
0.000145922
0.000866696
0.00281849
0.00151238
0.000378452
0.000733352
0.000604829
0.00807543
0.0111852
0.00672009
0.00173833
0.0014876
0.000867033
0.0131535
0.00672931
0.00460778
0.000492769
0.00158981
0.0012174
0.00672005
0.000389726
0.000660023
0.003676
0.00672419
0.00043342
0.00577809
0.00167702
0.00182908
0.0133072
0.000149386
0.000172025
0.00122775
0.00491013
0.00139512
0.00129902
5.74061e-05
0.0134751
0.00893456
0.00672287
0.00599402
9.61541e-05
0.0128574
0.00267288
0.000629392
0.000727146
0.0032511
0.00679252
0.00672427
0.000957433
0.0086331
0.0127412
0.000438836
0.0126296
0.00068309
0.000826911
0.00675212
0.0108393
0.000498551
0.0024894
0.00675324
0.00705889
0.00673496
0.00672515
0.00117657
0.000441947
0.000503054
0.00426743
0.00945172
0.00178316
0.00622936
0.000592483
0.00784205
8.86494e-05
0.00449833
0.0114333
0.00111866
0.00180909
0.00195234
0.00672145
0.000463726
0.00672559
0.000474516
0.000163622
0.00210071
0.00672988
0.000334586
0.00111752
0.00675369
0.00515094
0.000219367
0.000482856
0.00677439
0.000223516
0.00672355
0.000226939
0.00151193
0.000174668
0.000318524
0.00878614
0.000218236
0.0126061
0.000391001
0.000818206
0.00673369
0.00682864
0.000106456
0.000410973
0.000126009
0.00672506
0.00510158
0.000343104
0.00043137
0.000880655
0.00933745
0.00962459
0.000493435
0.00683849
0.000548637
0.000396534
0.00672441
0.00379625
0.00673
0.00127486
0.000645969
0.000389908
0.0123535
0.0066372
0.0067221
0.00165289
0.000703862
0.00140196
0.00674208
0.0130485
0.00137367
0.00205201
0.00239775
0.00417392
0.000459784
0.0080793
0.000190299
0.00104971
0.000373102
0.00672448
0.00151119
0.000748573
0.000396671
0.00269288
0.00671948
0.00311462
0.00929605
0.0123919
0.00484082
0.000433714
0.000758557
0.00372656
0.00672241
0.0029251
0.01259
6.00793e-05
0.000474383
0.00227554
0.00218774
0.00765969
0.000277763
0.000796932
0.00211707
0.00099115
0.00673359
0.000212826
0.000387187
0.00554295
0.0118503
0.0114817
0.0129375
0.0113004
0.00783526
0.00738962
0.00832689
0.000908886
0.00678794
0.00685847
0.00810195
0.00200169
0.00313941
0.00101262
0.00485375
0.00623962
0.00402238
0.0114498
0.00107069
0.00672511
0.000861675
0.000988028
0.000644282
0.00836624
0.000385798
0.000802101
0.00671943
0.013265
0.00243856
0.000312052
0.00193464
0.000849586
0.00172413
0.00672788
0.000784941
0.000726765
0.000926307
0.00147634
0.00125436
0.000737552
0.000867225
0.00802204
0.000288783
0.00160326
0.0105918
0.000919715
0.00672374
3.76559e-05
7.54012e-05
0.00568804
0.000635532
0.00348771
0.00115481
0.000761537
0.000599285
0.00672189
0.000295839
0.00143499
0.00147173
0.000170203
0.00672472
0.00164926
0.00930019
0.0127922
0.0130237
0.000736787
0.00140223
0.00673058
0.00553573
0.00109857
0.00674878
0.00936976
0.00673274
0.00672605
0.00673223
0.01188
0.000569561
0.00183693
0.00121258
0.000595478
0.000275361
0.000949436
0.00032946
0.00112369
0.00068434
0.00443256
0.00158244
0.00886484
0.000585242
0.0130116
0.000934197
0.00671945
0.00673121
0.00095655
0.00105542
0.00672233
0.000368216
0.000971972
0.000452637
0.00854536
0.00301573
0.00489746
0.00672606
0.00019015
0.000464523
0.000548499
0.00672949
0.000353471
0.000923445
0.00778863
5.05542e-05
0.000374681
0.00672562
0.0126385
0.000335198
0.00746169
0.00770494
0.000935351
0.000838317
0.000422454
0.00698754
0.000276302
0.0123321
0.000486022
0.00302762
0.000540486
0.00576619
0.00714506
0.000571106
0.000630677
0.000835133
0.012995
0.00412467
0.00476675
0.00942047
0.000609186
0.00770654
0.000230826
0.00672664
0.000764531
0.0010868
0.000184042
0.00486155
0.000480034
0.000334958
0.00100334
0.00672533
0.00480145
0.000287108
0.00158674
0.000235533
0.00456008
0.00354778
0.000257895
0.00219763
0.00310132
0.00672413
0.000590618
0.000497166
0.00149773
0.000756089
0.000533785
0.00049298
0.00328733
0.000202763
0.0009594
0.000881723
7.93068e-05
0.00197217
0.000204144
0.00015387
0.00638742
0.00121472
0.00621584
0.00976425
0.00363833
0.000121076
0.00744324
0.00523954
0.00107065
9.40721e-05
0.00911375
0.00051594
0.00766163
0.000433363
0.00488271
0.00202592
0.00672816
0.00161267
0.000572556
0.00117048
5.13786e-05
0.000789133
0.000670017
0.011329
0.0122836
0.00334017
0.0110611
0.00599047
0.00244022
0.0115417
0.00672435
0.00672135
0.00919556
0.00280012
0.00672516
0.00076945
0.0129348
0.000459643
0.00195041
0.0103394
0.00672217
0.0125365
0.00924671
0.0067238
0.00090105
0.000265478
0.00987456
0.00945123
0.00975809
0.00843258
0.00672769
0.00118629
0.000638716
0.00123311
0.0067258
0.000816679
0.00672849
0.010257
0.000779303
0.000233339
0.000858344
0.0106951
0.00078154
0.00099896
0.000100841
0.00247797
0.000364773
0.00192296
0.00672734
0.00357039
0.000256909
0.00674527
0.00909268
0.00659417
0.00420445
0.00199417
0.011921
0.00215045
0.00625545
0.000176666
0.000390646
0.000405592
0.00787638
0.00766223
0.000171044
0.00216779
0.00140006
0.0011313
0.00169084
0.000763548
0.00173736
0.00672441
9.62568e-05
0.000798351
0.000415902
0.0075077
0.000784658
0.000373879
0.000259713
0.000745338
0.00163406
0.00659775
0.000300942
0.0067332
0.000899644
0.000361918
0.00904888
0.00672371
0.000612521
0.00539228
0.00205845
0.000405305
0.00153262
0.000690876
0.00743115
0.000836575
0.00104459
0.000784153
0.00672232
0.0124687
0.00672343
0.00224241
0.00142336
0.012494
0.000628718
3.9609e-05
8.86887e-05
0.00146141
0.00316144
7.72218e-05
0.000702864
0.0125141
0.000657259
8.9606e-05
0.000815048
0.00197758
0.00109394
0.000166111
0.000591507
8.42377e-05
0.000876566
0.000735377
0.00149031
0.00466175
4.88564e-05
0.00399224
0.000946933
0.00672338
0.00202207
0.000981519
0.00103997
0.0101337
0.00142274
0.000423086
0.0067195
0.00277735
0.006724
0.0067242
0.00211933
0.00672472
0.00249143
0.00369506
0.00103906
0.00168613
0.00208055
0.00339458
0.000418692
0.00341549
0.00553185
0.00359101
0.00584458
0.00153818
0.000512923
0.0020261
0.006724
0.000356811
6.93692e-05
0.00049502
0.0110108
0.000968841
0.0108241
0.00120972
0.00672429
0.00672224
0.00955758
0.0037983
0.00144331
6.18139e-05
0.000222882
0.00262208
0.012751
0.00672361
0.0010191
0.00431856
0.00143724
4.41125e-05
0.00203605
0.00264963
0.00184272
0.000145776
0.0010318
0.00137479
0.000104294
7.01648e-05
0.000240276
0.00109251
0.00225809
0.0016804
0.00125751
0.0122919
0.00782755
0.0130671
0.00171227
0.00102432
0.00142694
0.00246208
0.0067248
0.00135079
0.00672368
0.00196756
0.00416332
0.00661871
0.00674801
0.000386781
0.00414569
0.00180344
0.000331647
0.00377645
0.004661
0.000607242
0.0128195
0.000297193
0.00375176
0.0126879
5.80494e-05
0.00362536
0.000151709
0.00672541
0.000194329
0.000890401
0.000125789
0.00930604
0.000323709
0.00583484
0.00654411
0.00947197
0.00321686
0.0012073
0.00128494
0.00046388
0.00672288
0.000126646
0.0126509
0.000153189
0.000726618
0.00053234
8.20953e-05
0.00572412
0.00678074
0.00246896
0.000205309
0.00189638
0.0120112
0.007248
0.000262441
0.00672455
0.000295166
0.000239531
0.000530511
0.00259456
0.00835622
0.0042698
0.00672799
0.00569464
0.000523924
0.00339378
0.00392047
0.0129325
0.00673285
0.000300453
8.94898e-05
0.00678601
0.0134016
0.00225538
0.0118856
0.00434404
0.000256033
0.00152111
0.00010559
0.00168415
0.000884106
0.00673307
0.00212229
0.00573005
0.00203265
0.000282642
0.00112834
0.000874879
0.000178663
0.000449287
0.00457945
0.000189507
0.000766852
0.00233083
0.000759268
0.00650823
0.00659618
0.0067237
0.00210814
0.0029373
0.000566025
0.00637541
0.00045261
5.07279e-05
0.00134037
0.00157247
0.00202869
0.0129728
0.00996098
0.00170263
0.00176304
0.00306604
0.00850438
0.000248853
0.000822172
0.00501176
0.0124095
0.00190923
0.000306671
0.00802452
0.000204692
8.22082e-05
0.000403758
0.00228872
0.00675479
0.000150037
0.0067262
0.00379363
7.97697e-05
8.98576e-05
0.00671946
0.00144525
0.000183291
0.00112457
0.00672628
0.00672198
6.02102e-05
0.00248401
0.00344211
0.00175918
0.0120364
0.00132555
0.000179531
0.00672316
6.72163e-05
7.39558e-05
0.00272108
0.000571497
0.00672539
0.0120708
0.0130541
0.000736811
0.000224133
0.00050294
0.000699565
0.00672394
0.00148387
0.00674288
0.00250763
0.00672489
0.00882953
0.00673933
0.00182878
0.000175029
0.000910038
0.00136079
0.00672907
0.012548
0.000380013
0.0021398
0.00683519
0.000300903
0.000411295
0.0068733
0.000292366
0.000241443
0.0020409
7.12484e-05
0.000304643
0.000188691
0.0115734
0.00672803
0.00328469
0.000173306
0.00776027
0.00671954
0.00129431
0.0126533
0.00672592
0.00456016
0.000755159
0.00493212
0.00672188
0.00268859
0.000500707
5.42313e-05
0.00209675
0.00056797
0.00663838
0.00331922
0.00885982
0.00675164
0.00419658
0.00143352
0.00451675
0.00145717
0.00672342
0.000431529
4.24518e-05
0.0130338
0.00134
0.000859678
0.000624651
0.00671989
0.00672033
0.00508843
0.00146116
0.000389943
0.000512799
0.000872367
8.51285e-05
0.00533471
0.00189058
0.0067322
0.00672912
0.00731975
0.00177871
7.58577e-05
0.000449665
0.00250653
0.00059201
0.000160039
0.00809521
0.00900002
0.00672402
0.00676556