/*--------------------------------*- C++ -*----------------------------------*\
| =========                 |                                                 |
| \\      /  F ield         | OpenFOAM: The Open Source CFD Toolbox           |
|  \\    /   O peration     | Version:  v2012                                 |
|   \\  /    A nd           | Website:  www.openfoam.com                      |
|    \\/     M anipulation  |                                                 |
\*---------------------------------------------------------------------------*/
FoamFile
{
    version     2.0;
    format      ascii;
    class       volScalarField;
    location    "400";
    object      ReThetat;
}
// * * * * * * * * * * * * * * * * * * * * * * * * * * * * * * * * * * * * * //

dimensions      [0 0 0 0 0 0 0];


internalField   nonuniform List<scalar> 
13851
(
448.451
623.034
622.968
41.84
590.235
627.148
559.224
598.635
31.0503
551.019
648.855
589.288
527.482
31.9191
523.775
501.503
33.4164
616.449
431.795
454.307
522.43
619.22
124.333
585.052
111.219
489.942
610.765
312.608
32.0161
608.108
36.205
557.027
460.182
33.269
642.851
32.7087
584.879
168.263
32.6139
602.275
32.7475
32.7252
34.2498
553.678
32.967
606.872
604.11
534.518
625.601
520.577
32.2979
495.533
501.849
522.57
31.8484
599.835
466.361
32.6388
787.839
32.1476
589.015
519.38
562.684
625.357
482.899
465.295
32.1408
305.84
611.474
40.2198
34.5331
516.075
582.325
32.1338
522.48
612.343
33.4949
607.348
198.11
596.235
612.984
605.285
642.674
31.9228
32.1347
35.514
620.861
31.4974
554.349
36.4885
516.995
554.874
32.2827
35.462
32.4706
613.208
601.839
529.17
32.2486
657.715
541.484
350.548
357.643
567.769
609.34
525.095
607.321
34.7599
550.915
615.68
606.167
607.777
487.548
582.539
499.496
522.651
602.961
601.345
41.3253
41.3869
626.009
612.074
607.517
32.1408
420.808
286.48
601.415
642.213
32.4729
509.89
617.041
637.056
307.453
32.8847
652.946
32.4938
309.728
35.218
368.085
507.353
625.306
558.798
554.061
386.059
113.982
604.3
606.893
35.7478
31.0364
644.2
558.997
496.94
604.878
426.589
511.14
530.087
588.913
32.6269
510.615
580.172
585.535
32.2852
531.331
536.026
31.9016
31.5031
31.7409
32.3211
606.134
47.6614
588.303
602.731
511.875
588.235
32.4823
467.526
559.987
603.129
520.816
558.902
415.336
582.596
610.189
510.018
33.4674
31.0079
460.978
390.023
526.295
607.482
221.047
510.217
32.0052
629.802
605.11
514.496
462.176
613.901
620.418
310.414
646.397
32.4606
32.6222
521.445
355.528
32.4342
426.612
511.945
31.108
631.677
482.768
606.535
623.318
585.456
648.456
613.521
526.504
430.384
617.593
214.923
603.342
449.113
31.9871
32.4864
407.798
514.197
584.967
385.585
591.225
642.093
49.7664
400.978
631.245
563.735
32.5763
608.616
181.339
32.5804
657.828
585.341
615.783
32.1173
33.7658
488.112
578.181
365.791
427.294
521.18
616.279
614.112
31.8438
435.145
599.512
609.68
526.206
32.0071
31.0027
606.942
278.887
559.072
455.441
424.186
617.454
526.192
433.873
590.094
347.511
519.083
416.115
574.921
526.845
397.889
31.9665
38.6754
513.467
612.954
413.206
418.49
483.776
512.945
31.6075
32.2223
619.205
548.66
210.606
608.159
589.139
476.375
646.645
608.64
585.927
590.574
593.371
558.983
589.34
31.0963
522.363
603.459
32.1451
32.1141
507.006
452.553
32.2721
550.538
517.938
509.586
31.9982
34.2888
485.078
590.635
50.6179
588.633
486.019
32.293
445.774
578.382
321.479
603.03
34.2863
508.726
333.458
32.5085
32.2184
326.716
621.981
34.5532
31.846
270.016
283.999
431.956
512.424
556.175
31.4146
336.017
597.659
606.344
631.84
34.2335
223.556
608.222
32.4725
545.964
636.155
574.501
32.0265
423.034
507.661
612.516
630.829
34.2293
523.111
419.67
619.428
517.86
533.463
556.266
604.569
609.082
656.94
440.855
436.908
34.5033
604.701
32.5472
430.557
609.6
398.262
465.365
32.2705
631.689
476.026
593.674
253.23
628.744
31.4804
623.07
477.857
34.4569
620.079
31.6531
603.754
32.6252
548.294
502.593
440.856
631.367
529.343
619.097
647.604
520.539
604.038
510.47
42.2384
580.509
507.26
42.1422
629.828
530.434
507.229
34.5673
632.3
491.001
446.136
430.628
535.288
31.0073
32.1211
606.459
590.509
585.594
606.414
481.036
611.919
33.8378
40.7153
162.688
630.923
436.166
505.082
39.6083
607.839
34.3145
631.322
124.15
615.258
236.517
547.694
588.769
31.9585
501.367
539.01
624.923
512.314
602.339
44.549
507.806
469.745
583.123
624.622
487.129
328.763
602.561
492.904
52.1369
44.4544
614.94
530.408
563.231
589.444
631.152
437.371
501.746
603.728
625.806
624.17
619.772
36.0419
589.326
542.358
33.136
547.601
606.134
587.803
573.919
613.781
570.598
45.8304
566.154
214.854
632.039
588.136
32.0094
588.195
445.511
588.328
32.163
374.606
394.249
568.737
636.245
646.146
522.004
32.2755
521.057
250.487
577.825
502.364
592.599
31.8296
507.342
465.818
593.467
613.212
551.567
510.398
589.635
36.8676
31.9796
36.9093
47.5288
47.3353
32.7475
418
448.637
581.515
351.577
552.056
603.928
435.75
32.4834
616.613
515.433
612.234
593.465
539.53
40.9081
599.825
32.5054
637.543
597.698
591.88
589.484
381.351
608.667
73.204
225.867
607.657
33.1964
434.556
440.737
575.421
54.0498
32.2167
605.141
444.032
610.102
600.595
64.0611
32.6338
563.334
505.042
545.247
498.066
32.5565
32.5555
609.917
33.0791
605.141
611.343
537.254
552.589
607.751
610.019
33.0991
637.919
33.1268
618.714
560.75
32.1768
581.889
609.283
543.427
525.197
618.913
36.2058
32.2447
629.27
34.7803
586.429
501.68
32.9339
31.6468
606.212
590.873
377.453
33.0409
562.397
499.211
300.297
549.748
554.382
53.5152
39.3856
608.137
32.3424
527.656
34.4412
623.629
747.263
426.165
586.995
32.3057
35.1719
608.595
506.892
597.764
240.551
645.206
80.3919
602.341
587.636
405.633
605.405
589.494
32.4718
587.804
518.483
566.364
482.609
568.875
535.28
630.662
33.0432
543.129
32.4801
638.296
601.885
613.823
513.082
625.515
496.97
618.655
420.376
731.864
580.144
31.144
585.135
474.373
35.0476
32.4442
383.11
106.243
606.512
651.613
34.5595
610.767
37.7544
551.529
612.235
49.082
406.529
609.453
512.13
613.176
33.4652
32.3379
612.947
304.953
44.301
584.123
583.743
488.236
31.0956
65.2551
513.578
450.966
619.482
533.793
809.342
443.186
660.407
607.274
527.225
520.4
489.455
464.954
603.903
642.314
410.871
530.065
501.578
529.115
609.103
567.136
435.702
42.8644
106.016
558.409
31.7866
596.765
58.5777
442.523
613.798
554.856
416.306
625.858
595.906
596.152
482.981
31.5407
548.839
32.5197
601.821
59.256
565.678
32.2735
541.856
634.556
619.737
32.2927
647.68
597.543
508.573
625.519
410.739
478.191
498.612
633.152
601.021
547.211
585.119
435.395
533.58
32.516
592.935
712.959
31.7277
578.095
32.5342
32.2575
488.333
656.429
383.886
573.354
529.904
606.656
612.612
587.949
491.322
468.754
518.38
403.333
615.093
31.0713
582.686
43.2063
639.924
583.345
566.379
32.1954
627.672
70.0963
35.7118
514.95
484.445
604.595
32.8432
586.968
618.533
724.098
574.216
547
612.798
508.93
31.6967
635.677
631.761
623.498
32.5586
388.218
586.837
33.7942
606.163
33.5318
586.549
618.723
215.265
496.899
498.016
650.948
532.548
578.336
583.465
505.332
624.12
578.204
534.865
638.682
593.676
650.647
585.002
81.8979
654.011
39.0103
361.994
572.74
651.596
602.345
621.71
45.9022
35.0022
37.5959
34.9527
617.211
614.291
563.085
601.563
609.81
147.015
463.292
31.682
474.45
498.265
524.791
607.185
398.991
460.548
616.988
578.914
498.061
526.826
32.5386
513.464
588.006
31.8321
462.483
604.232
601.733
32.4864
594.851
34.8664
561.777
656.091
535.264
548.116
633.98
576.943
625.588
592.279
719.974
481.215
31.0326
621.024
112.527
31.8992
632.738
593.394
44.2948
45.7254
622.887
503.056
531.636
31.1757
614.19
423.284
585.856
593.364
82.7094
598.639
587.999
521.18
32.5793
300.716
41.6973
606.439
31.7093
576.621
594.086
517.903
606.385
582.829
39.3846
45.0731
617.805
587.882
583.861
605.797
46.1684
648.207
31.8646
32.5181
627.248
530.792
587.376
515.839
566.544
609.738
586.33
599.151
32.3415
484.176
33.4582
497.444
564.737
624.159
505.227
32.7796
563.388
382.517
459.794
586.049
61.4381
56.8361
31.4443
295.229
66.7132
577.664
380.304
496.53
480.663
626.075
597.897
39.5037
612.475
593.051
607.456
611.894
32.4734
427.3
602.144
625.612
31.9653
621.683
33.5583
478.931
490.398
32.5567
588.954
493.56
628.162
629.93
263.568
613.959
523.353
486.043
32.7182
609.884
31.1154
622.321
32.0748
32.4523
31.2386
514.174
568.365
616.74
583.831
503.968
568.133
32.3522
609.679
477.84
391.085
580.464
605.975
533.15
629.321
596.459
619.775
33.6255
701.111
614.691
637.193
41.1077
521.665
34.0868
606.889
605.001
474.124
612.039
623.18
587.943
602.373
337.347
524.173
647.859
623.929
32.3254
464.054
426.373
455.37
617.31
32.5375
432.804
585.686
627.579
518.619
34.111
462.889
354.362
438.197
40.6535
649.31
618.844
35.133
450.822
61.001
627.092
602.744
608.834
479.515
554.619
32.1951
608.834
580.242
433.846
624.775
612.193
34.4029
34.6452
473.304
623.13
35.673
498.388
592.299
31.8756
589.287
614.08
598.005
525.052
504.558
31.2327
36.9705
509.504
31.6066
532.307
559.909
297.92
595.671
710.511
610.131
591.611
604.9
624.295
31.7011
31.1555
577.712
32.2459
34.1059
430.563
587.682
623.452
558.75
609.498
596.909
642.847
124.565
476.834
604.288
633.846
634.648
450.277
34.2726
606.3
607.366
586.793
289.452
531.995
32.5877
601.217
587.539
613.46
599.294
615.025
482.26
35.2856
31.7332
383.481
586.369
456.531
612.768
148.815
32.2526
433.517
33.1646
32.3253
38.3405
499.57
568.07
31.6129
608.631
568.848
569.591
650.634
622.69
310.803
557.007
47.8494
202.665
607.081
570.799
625.314
558.797
545.302
588.219
547.082
453.014
567.573
426.806
574.383
43.2662
31.6393
553.685
570.145
505.508
587.57
34.5434
31.7815
32.5209
31.2119
589.598
620.027
632.017
515.533
566.013
548.984
580.658
505.825
418.211
73.1934
531.004
32.0181
452.577
620.902
353.248
459.909
479.386
589.049
31.7528
32.2041
168.542
32.805
45.0357
31.3972
32.0556
587.791
563.492
613.941
567.321
500.266
492.747
35.703
610.792
605.069
543.224
469.973
607.37
592.074
606.182
55.701
533.363
601.442
576.693
599.658
587.751
535.71
571.032
573.44
52.2456
568.458
599.58
32.4189
32.2774
31.6394
70.587
455.163
61.1751
603.378
609.12
619.285
565.024
581.863
34.7548
618.782
458.497
374.363
613.76
611.307
420.572
482.814
584.677
55.7341
613.113
571.911
565.597
619.207
620.391
479.564
519.325
626.573
34.8345
471.17
33.147
541.094
32.8262
406.903
575.203
211.905
515.343
343.774
521.329
592.502
595.973
539.467
613.535
398.492
487.353
619.502
560.821
316.882
609.755
38.2106
564.756
618.157
522.322
32.1821
448.91
574.773
477.677
601.58
526.888
638.502
80.2998
516.391
584.748
514.309
395.553
491.361
396.316
559.481
481.19
501.485
492.676
553.226
612.178
87.9124
42.3508
629.189
592.692
33.863
602.666
543.441
595.542
648.308
218.349
603.604
36.893
629.437
587.279
562.211
597.791
346.041
31.4182
612.624
76.9975
596.343
584.952
337.298
581.982
579.181
553.694
622.844
484.001
651.925
579.498
632.924
611.226
588.155
581.509
573.637
612.473
611.788
479.878
532.904
602.463
593.071
32.151
579.529
32.2943
618.116
33.3946
416.001
444.036
470.135
631.368
409.592
622.45
517.307
631.906
611.803
604.952
476.912
601.433
599.613
642.602
600.149
619.996
33.9861
32.3041
404.955
578.778
340.053
32.2806
46.7504
580.621
595.243
492.556
618.04
640.067
476.645
31.9519
559.511
517.592
609.821
653.078
583.818
562.828
241.646
576.677
597.19
39.3805
640.14
566.96
33.549
484.228
533.116
599.55
618.884
33.2286
455.358
64.4507
646.304
531.552
32.3337
566.825
530.936
395.609
584.518
535.784
586.433
34.7948
34.4116
595.106
487.928
499.554
484.023
630.479
498.036
564.749
524.839
635.101
500.066
568.567
528.894
300.157
50.5018
589.503
569.739
630.238
490.121
584.752
33.7461
602.475
585.141
609.249
615.596
634.263
544.156
588.628
606.736
643.092
32.2871
647.65
573.325
467.863
517.492
434.076
581.081
653.335
239.693
628.324
33.4086
504.782
32.2533
560.867
588.334
561.77
585.526
617.91
523.512
546.557
489.479
510.479
617.224
630.008
635.848
603.194
607.07
483.156
613.507
556.335
476.034
624.818
601.634
597.108
31.3981
652.866
573.514
619.369
438.015
32.0192
592.025
528.545
33.4194
377.266
602.81
463.645
513.277
598.857
272.662
600.087
399.274
225.844
34.7887
442.539
563.764
567.274
32.0362
599.54
499.992
596.032
66.026
38.1985
556.159
592.195
454.685
344.796
587.91
33.4182
552.242
582.474
609.87
509.961
637.761
434.836
528.023
624.328
580.567
529.527
646.616
586.676
32.2725
35.7093
593.253
505.186
594.263
416.535
57.6949
593.428
576.727
551.77
32.3536
588.289
587.015
570.474
63.4696
593.05
575.116
606.413
499.965
629.751
618.334
436.444
554.083
367.426
604.903
32.1611
636.537
545.563
545.937
573.341
588.056
617.342
450.672
38.9217
611.659
32.106
586.542
605.459
496.834
590.265
611.594
38.4685
583.775
544.5
557.269
33.9408
482.024
608.633
417.504
444.079
590.196
566.594
578.004
95.4689
584.78
529.88
489.553
599.443
609.965
635.814
494.035
506.487
563.726
641.557
608.595
31.0986
646.048
527.042
515.568
634.2
490.022
92.323
505.921
31.0552
127.702
48.1322
617.36
608.247
639.901
365.658
612.963
612.646
601.989
585.335
617.391
587.044
607.323
604.204
617.15
33.7122
592.455
107.86
589.846
617.447
623.709
492.103
627.953
560.702
43.1316
421.251
582.803
536.777
611.053
571.386
616.173
36.6674
616.521
605.96
291.678
45.3426
602.888
539.681
460.644
636.08
617.695
623.329
594.931
494.096
32.4457
609.12
42.4127
604.897
415.734
36.8806
636.912
71.2339
617.419
617.245
601.278
33.764
635.885
588.165
634.218
446.634
623.865
567.361
588.269
32.5928
584.421
601.425
32.4727
589.442
588.984
640.497
619.482
60.8519
605.182
562.822
601.56
402.793
620.33
618.224
488.921
31.9427
592.493
560.966
73.6659
601.69
37.4904
558.956
33.3184
609.066
589.809
602.265
31.1226
33.3669
598.171
554.719
394.685
603.339
564.16
37.1423
588.406
504.113
600.953
504.005
579.11
55.1452
601.728
507.935
597.237
626.188
656.849
610.446
619.942
34.6397
492.039
60.6397
76.3205
655.738
444.957
586.917
462.802
321.251
592.201
508.988
454.994
607.935
31.0075
44.3283
482.669
436.35
472.285
626.612
32.4194
611.755
610.15
609.614
36.1788
445.091
542.685
483.875
602.454
33.9022
31.3434
39.2451
586.581
32.565
37.8649
684.494
323.745
31.6134
500.683
637.88
476.42
406.537
600.866
633.096
466.163
607.059
32.1691
584.855
596.278
527.348
461.685
434.46
542.691
40.7415
508.625
399.802
194.806
32.55
453.922
478.662
419.64
498.216
605.741
600.836
607.401
542.796
489.687
596.228
442.927
603.645
633.308
49.2187
608.793
445.044
649.741
33.3237
571.402
608.158
36.8855
580.571
627.882
628.751
587.388
640.588
569.761
33.1157
483.021
536.061
586.006
315.528
612.138
387.722
32.3252
606.155
588.421
630.485
586.352
629.998
610.233
626.768
423.171
598.646
599.727
493.184
509.495
378.357
584.91
46.4824
33.1022
605.239
447.714
655.944
652.51
571.291
474.219
619.106
426.626
612.984
623.237
586.373
32.5218
531.595
72.0496
565.827
548.339
590.353
636.848
593.885
505.959
504.426
534.117
599.854
383.708
310.776
32.2326
602.835
588.975
309.727
328.047
436.274
463.874
610.763
652.943
477.3
112.706
534.123
511.937
585.876
613.216
613.833
585.012
499.81
594.288
584.826
396.717
609.844
32.6544
43.4383
80.4813
50.6393
32.2215
512.56
579.579
40.7581
610.094
610.632
605.923
650.204
33.2206
32.4872
456.234
609.654
620.188
602.998
31.9316
591.93
73.2096
32.7023
581.172
575.43
31.5241
504.39
582.17
572.174
42.9046
32.3287
616.261
443.859
584.979
32.1802
492.89
561.569
51.8186
35.7143
61.3832
609.341
593.321
582.425
583.096
32.5472
602.767
650.08
515.835
32.3615
623.241
647.888
382.89
612.552
42.4664
33.4079
605.224
614.178
617.56
476.084
34.1792
607.133
31.5658
607.478
515.929
573.753
595.343
553.986
638.989
45.7986
585.908
647.008
623.009
472.636
620.022
31.809
359.142
649.974
487.426
596.11
605.922
473.29
501.505
31.9324
36.3161
588.022
66.9138
445.397
32.5066
542.938
639.322
636.461
618.525
53.1952
584.81
578.854
31.3152
32.6981
534.077
32.8694
605.981
519.878
610.595
32.6414
602.767
100.472
610.623
52.9264
605.258
592.101
600.579
532.631
576.393
602.344
31.2781
511.534
602.164
638.046
31.2444
613.564
539.771
33.498
619.23
539.295
532.41
604.28
615.714
591.701
190.408
616.757
543.541
565.512
620.41
606.737
611.183
63.8906
489.016
422.88
593.802
492.048
573.777
654.889
557.359
646.519
314.992
31.4498
367.774
32.8859
640.028
593.142
605.173
49.8506
639.504
490.374
318.766
585.533
63.4733
650.51
615.934
539.697
34.348
31.2089
342.152
32.7107
593.415
516.27
574.558
618.207
607.242
460.688
607.336
547.818
32.8706
597.604
599.74
509.62
452.959
615.534
600.234
32.4687
630.278
507.515
595.09
34.1993
552.159
40.234
558.256
609.967
644.452
574.541
39.2873
379.627
590.155
598.1
596.539
31.9585
35.1457
32.5224
614.505
595.944
418.728
617.514
592.772
610.945
32.8917
465.974
626.181
533.63
574.286
46.8974
651.896
423.921
543.138
607.478
607.115
647.866
647.344
564.53
38.6053
33.298
32.5171
40.409
37.5693
35.9815
39.5082
443.685
609.791
50.5393
32.3358
121.398
598.208
542.218
531.07
593.562
86.8408
32.7489
488.049
591.298
462.476
459.677
550.58
31.8988
440.924
518.072
596.711
31.8951
127.431
627.981
537.15
550.067
489.311
601.355
637.872
613.417
617.569
514.597
592.811
597.984
535.157
31.5706
571.001
514.412
32.2503
560.29
562.505
286.703
474.925
31.2521
638.388
618.606
621.632
630.467
574.747
604.474
377.041
556.507
516.105
646.053
585.834
622.752
31.3336
35.3697
32.5023
376.19
508.597
606.868
536.368
628.482
610.218
33.5636
548.049
584.237
607.032
38.1369
155.539
527.617
499.795
627.75
589.45
634.381
377.428
531.934
641.464
40.3282
618.13
32.3112
641.316
32.4917
635.208
595.581
604.962
462.259
448.369
601.141
588.109
635.644
641.311
52.7288
52.6599
68.9966
584.724
443.018
596.401
632.278
567.611
611.985
607.417
31.14
463.98
635.37
568.134
35.9208
403.033
31.7345
32.304
511.248
610.236
446.449
55.5527
435.66
31.5377
631.528
614.871
640.844
611.647
39.8695
602.797
635.98
475.66
32.5006
613.528
600.344
33.4207
638.89
35.7802
370.052
573.344
626.561
436.901
408.284
72.5204
633.639
427.088
631.403
583.925
602.594
594.697
489.316
645.16
528.279
613.437
645.161
569.284
618.387
590.488
636.125
398.432
512.851
637.14
478.917
572.932
592.189
658.231
629.212
568.161
382.727
532.58
629.783
485.794
611.495
494.269
41.6017
31.576
618.349
626.864
31.6691
595.556
465.422
522.801
32.0145
394.499
31.5816
484.597
610.145
496.585
607.168
624.635
591.756
144.281
525.091
463.837
381.704
40.6236
32.2173
581.754
31.4549
547.682
113.855
32.31
579.251
590.068
31.1144
508.332
569.327
410.31
34.3363
431.858
572.023
32.2639
589.013
36.9081
31.5127
586.859
564.805
325.761
32.3614
31.1092
31.3864
31.0451
600.927
453.656
501.856
488.649
564.996
543.289
563.045
31.2702
449.648
496.466
537.979
31.1538
472.282
571.186
318.386
33.6052
625.112
597.549
606.971
90.548
591.455
609.686
33.344
591.5
80.8282
498.16
32.8642
560.858
589.848
270.714
396.17
543.396
31.0277
47.5706
574.042
559.863
503.418
562.739
510.599
448.344
520.929
578.424
498.145
496.721
620.813
31.3179
554.362
590.989
658.186
502.822
507.988
590.931
542.328
605.53
448.355
745.034
32.2544
600.697
635.391
39.7447
616.702
632.74
527.108
630.866
44.8501
487.351
447.995
146.217
599.129
36.5083
587.605
623.428
459.916
33.0756
625.497
300.632
584.153
538.348
620.184
497.899
626.738
32.7225
401.462
280.523
443.657
542.031
627.056
638.58
639.824
417.188
497.741
588.93
630.23
609.86
633.764
581.257
634.793
605.825
503.76
634.798
489.803
31.8488
450.458
432.323
606.345
512.255
585.814
577.15
554.01
597.117
500.852
32.226
496.189
541.731
568.143
614.141
547.373
592.498
63.9978
78.3869
35.2216
548.501
633.933
557.808
581.556
560.8
423.633
641.855
32.3513
494.88
34.1017
553.064
586.376
600.392
31.364
600.756
597.641
335.58
535.315
605.077
32.4211
573.774
625.804
526.54
560.2
482.46
523.872
617.117
535.405
362.504
518.078
504.85
588.397
608.986
639.935
508.68
542.851
622.76
501.801
33.874
42.6233
34.2718
552.488
174.996
508.093
623.109
592.606
490.53
584.237
524.275
35.58
593.467
611.964
595.927
82.19
508.135
640.722
513.858
31.8612
640.926
32.5
384.238
596.66
36.29
315.767
553.848
623.108
582.121
655.215
636.929
319.429
33.5324
464.57
59.0378
598.754
35.5993
524.303
631.71
615.858
631.688
588.27
550.956
35.4839
590.291
541.485
622.109
446.561
611.023
592.824
619.395
504.488
605.867
32.8881
31.9453
656.924
581.495
658.105
652.787
450.501
563.842
32.2949
594.367
606.804
595.547
321.651
618.35
572.178
34.84
591.191
509.752
504.982
609.998
31.7554
532.501
32.7948
613.276
494.428
621.309
355.458
59.1696
489.905
596.598
545.981
61.9003
524.685
658.434
609.255
630.366
653.338
600.854
598.48
33.2073
636.29
542.726
477.361
591.744
607.489
586.888
527.398
538.243
591.823
53.7259
71.9222
451.283
39.5492
490.116
515.537
32.5071
34.7639
495.922
33.1401
76.9425
31.4067
497.24
636.128
66.9607
33.8186
77.2251
517.925
41.0512
534.02
499.085
564.855
556.605
589.462
613.625
583.798
43.4304
516.28
604.975
605.674
489.818
530.217
430.047
584.128
589.073
489.375
605.738
613.483
509.73
32.8003
625.61
648.991
601.148
473.995
472.198
536.233
602.329
596.983
32.9355
32.8441
442.174
245.171
611.462
467.649
565.301
510.111
591.095
617.571
582.129
42.9601
606.968
504.257
577.916
609.975
567.766
587.484
32.7309
548.48
65.6098
31.8092
568.372
419.422
31.5553
486.859
772.4
34.1558
503.081
364.692
541.469
32.61
563.408
49.0659
651.292
41.3438
605.478
496.031
32.6079
584.643
41.1315
410.635
32.3083
589.87
507.399
637.223
515.643
555.436
595.405
612.039
619.201
31.0668
49.3933
44.9266
497.081
598.484
480.703
587.142
601.21
440.328
33.0963
171.676
473.403
638.413
595.003
593.053
32.0861
55.2052
569.272
401.714
615.878
455.537
43.1296
54.0722
606.425
594.801
32.5126
625.32
615.42
542.94
595.235
614.703
514.081
32.1875
32.4851
586.557
612.565
630.711
525.136
32.5081
582.734
657.716
32.3625
606.627
89.832
36.8301
57.9481
565.671
47.7625
32.4064
611.938
531.113
562.059
283.535
453.922
616.356
597.297
54.352
441.542
597.14
438.539
499.693
602.54
421.125
32.4036
39.8369
32.5369
562.964
440.805
612.881
32.6036
32.3554
32.3573
45.9336
32.2717
609.957
521.012
590.821
588.836
589.496
595.05
573.887
592.939
35.6332
321.603
32.753
570.91
443.431
357.201
606.553
593.484
32.1751
581.127
31.0232
33.9404
576.434
613.582
31.1133
606.705
586.955
634.238
603.991
609.675
32.3031
607.325
32.7762
32.2376
607.066
572.479
612.784
617.386
611.885
648.666
75.3348
594.796
33.0821
533.15
598.708
613.823
581.932
627.287
581.91
608.298
32.3232
39.9697
507.703
45.9936
583.64
604.723
587.644
651.145
558.893
50.3534
599.434
31.011
392.097
33.5979
561.109
599.296
640.178
609.328
32.3119
596.341
611.204
632.102
629.338
609.251
585.245
554.6
33.3765
481.615
622.79
624.189
589.911
550.359
582.833
49.5469
36.0517
629.872
34.1342
40.6853
68.2909
45.5056
606.5
600.802
61.8643
32.7987
621.909
38.2099
35.175
617.579
568.97
557.798
31.055
578.703
594.251
50.5816
452.43
45.0814
610.106
602.984
579.677
41.8391
486.655
577.306
652.219
613.078
505.315
625.361
623.682
597.506
585.446
599.093
620.854
498.812
333.067
607.016
614.11
32.4763
604.573
564.987
403.323
412.79
512.004
584.429
31.1043
573.467
415.811
33.2021
470.533
593.598
519.879
547.611
607.31
43.7965
297.253
31.0596
622.794
584.253
649.27
454.644
578.416
513.123
33.2145
612.653
636.545
589.908
465.807
567.384
608.937
42.5938
66.919
70.3429
592.72
432.985
599.213
578.186
485.707
33.5718
482.122
636.336
442.051
619.814
570.487
324.467
320.502
620.614
606.727
489.984
574.363
536.602
594.721
565.082
62.7222
619.004
563.016
472.699
607.42
31.3639
43.2131
45.0894
500.093
474.375
505.534
32.5829
612.659
483.252
557.71
568.526
32.8793
427.101
583.558
603.223
567.876
513.012
636.365
33.4022
605.484
615.955
409.988
602.467
592.959
611.301
599.861
32.5137
529.975
571.307
482.875
595.886
169.464
581.736
341.165
600.083
33.4689
32.2834
42.1818
584.989
609.165
590.147
603.516
39.1006
538.021
34.3137
588.613
497.87
470.492
32.6456
513.903
608.301
38.3817
584.16
582.78
604.429
581.354
43.4115
609.383
604.774
598.199
508.425
586.529
636.498
437.292
32.2463
592.685
656.659
610.427
34.5353
621.318
628.06
483.461
564.035
469.732
32.9985
623.8
36.9213
558.479
35.6841
652.852
388.658
652.493
588.236
42.7183
625.323
633.981
523.603
433.659
526.38
33.5273
563.966
565.756
33.4146
655.917
490.986
525.113
36.9546
32.8414
608.916
635.505
606.202
605.355
637.709
651.518
614.957
32.1759
651.815
600.317
615.243
647.709
590.109
66.6264
590.152
565.118
37.3396
464.622
74.8058
645.526
617.479
487.912
421.539
32.5795
34.7692
445.368
35.8783
612.766
467.677
628.312
581.859
641.75
598.248
623.532
585.282
523.811
444.04
487.924
572.247
609.554
654.658
612.578
605.516
542.241
599.079
653.208
32.5736
598.952
32.5087
607.196
36.3344
576.952
358.911
656.775
613.335
38.1764
621.904
600.217
606.738
638.377
606.089
598.863
546.256
411.286
603.904
32.3333
496.456
435.264
594.82
264.123
47.5903
34.7657
652.385
496.265
588.909
634.94
594.695
643.362
510.016
34.0666
34.2932
32.2327
608.7
611.603
647.412
475.898
33.9341
600.166
35.8823
324.752
463.533
542.495
394.888
558.771
32.5026
534.859
626.884
33.1521
514.204
609.592
51.3622
593.161
574.445
655.813
580.324
432.504
39.7573
268.947
567.985
606.397
442.713
569.673
615.551
571.438
607.233
574.091
575.522
33.6164
607.017
502.991
33.323
599.452
576.615
627.286
546.041
591.991
579.191
639.845
613.763
445.95
508.314
32.334
581.33
535.245
581.924
559.016
607.624
581.46
32.4608
613.296
545.73
583.443
626.662
32.4164
33.5286
33.3331
520.67
533.772
32.3747
37.701
596.106
512.119
55.398
505.242
583.269
539.66
509.993
355.661
589.298
501.958
323.524
460.839
606.56
645.787
444.915
606.902
542.099
32.5354
528.678
257.458
630.367
567.468
623.154
566.431
621.634
32.92
609.328
567.889
591.544
594.156
582.586
584.329
594.785
577.721
654.602
656.233
623.11
609.703
622.087
565.184
479.008
529.841
612.373
574.623
587.369
32.6643
567.824
433.776
507.147
582.884
589.593
609.564
32.3207
615.596
402.906
644.6
32.7657
417.565
32.4342
575.016
367.102
592.692
443.744
640.105
32.2895
641.697
35.0156
599.746
640.991
636.727
32.6046
582.635
518.332
32.6932
608.176
36.8749
70.1094
97.1541
591.902
610.81
32.9825
562.338
33.5234
446.329
33.5326
32.3055
599.066
449.724
434.482
47.6769
630.453
549.206
605.393
602.694
569.852
54.3111
464.161
638.202
32.2708
601.067
35.9437
35.4905
48.9362
612.275
568.844
32.543
598.865
595.947
559.253
593.164
588.157
565.161
592.436
573.607
583.934
624.076
605.995
623.372
31.5276
39.4963
622.259
100.844
46.737
51.7268
167.312
657.624
593.279
38.9571
583.583
62.5444
32.2824
651.621
586.765
624.15
31.5301
607.016
381.8
608.696
618.171
31.7879
31.8552
43.7492
33.7877
587.167
593.454
623.633
623.967
54.649
606.465
32.5448
637.209
31.1435
394.361
32.5283
34.9454
621.234
32.5172
31.7691
627.564
623.1
31.0514
618.913
539.19
601.538
44.0895
31.1741
614.667
33.4441
33.1689
56.3106
640.701
32.0423
585.818
32.8236
612.739
78.5358
32.3773
616.131
567.619
31.3986
582.922
32.5049
42.6856
33.04
461.415
513.48
621.736
629.165
608.07
617.567
575.006
647.338
585.421
31.6213
589.467
593.374
531.296
602.157
31.8999
371.363
588.029
33.6385
522.628
517.42
515.103
623.632
509.772
584.028
563.076
479.286
603.105
619.962
369.523
33.3679
32.3367
618.161
551.306
32.5303
31.1669
32.4292
49.3275
480.995
630.146
31.9851
497.272
32.4201
629.86
479.768
162.724
624.5
604.394
518.663
655.131
511.851
525.674
538.181
575.1
482.717
512.405
608.652
644.328
542.796
372.791
528.997
644.945
520.918
606.764
526.67
598.521
554.074
635.961
32.3731
519.266
570.646
31.7189
32.3714
515.132
541.791
618.853
397.613
583.423
42.3474
586.798
579.276
450.402
31.064
621.12
32.5145
586.565
32.5678
555.227
464.187
660.059
586.852
642.925
439.678
597.73
412.591
561.697
32.37
605.446
376.881
31.3342
463.643
32.3185
523.911
616.022
588.596
544.554
32.9442
621.799
620.276
33.1479
595.369
611.701
33.0765
595.04
608.584
32.7589
529.918
503.706
500.876
640.624
31.8424
32.3242
584.522
37.2665
32.3189
32.1539
563.937
454.321
599.623
533.672
31.012
622.64
32.7991
61.7205
545.327
540.963
584.273
38.1635
31.3996
35.3351
34.5621
579.741
648.971
583.066
569.592
31.0579
645.552
416.079
568.867
594.692
561.153
414.807
31.4568
508.978
32.3181
66.2012
654.388
486.002
636.064
31.0649
576.395
32.3419
38.8207
409.096
618.681
31.2712
595.284
644.81
637.598
640.034
657.797
487.122
31.1662
509.859
32.8503
588.692
430.15
610.382
481.386
568.338
342.912
593.597
437.277
602.996
32.2714
31.5189
589.701
583.371
594.176
470.762
382.323
510.649
650.783
599.928
648.962
57.3254
622.696
529.057
42.229
33.6638
607.694
33.2529
313.435
34.6981
501.259
648.456
594.861
419.042
70.5195
466.87
595.357
593.139
585.845
31.6326
595.973
598.877
488.165
586.053
656.894
576.599
537.774
32.3255
482.362
611.023
32.3405
33.4213
40.2767
631.817
633.501
32.6291
398.175
620.262
563.039
550.013
606.847
32.5611
577.502
611.69
33.0081
391.686
632.774
45.6111
397.153
582.939
553.863
469.071
421.832
590.243
605.811
440.574
596.815
628.655
34.4399
36.7954
649.332
414.039
43.6226
626.015
371.183
56.8115
551.787
621.197
401.892
582.568
593.401
33.1505
32.2178
33.7754
629.119
446.116
596.981
620.289
36.2572
518.464
32.4205
488.914
567.28
560.397
631.63
32.0344
41.9596
618.531
586.626
564.327
31.6721
630.991
593.992
609.473
582.116
581.61
511.832
33.2702
369.451
606.86
629.156
32.4013
516.724
34.5278
33.8625
625.304
582.092
32.444
632.964
499.772
43.4356
619.349
658.793
575.378
502.706
511.025
570.054
455.872
629.092
48.6822
382.373
615.105
601.406
620.269
613.58
174.854
427.375
462.665
32.975
31.9286
31.6302
32.4978
568.42
31.2619
618.038
392.631
543.238
485.987
609.162
567.029
33.3409
41.3328
632.559
621.072
583.94
461.721
594.109
426.135
32.8287
547.524
32.5107
604.18
33.8693
39.5799
34.9169
469.085
623.147
134.119
31.3872
426.505
32.555
38.8803
433.125
31.0513
433.76
597.424
592.606
507.934
35.7853
31.3313
37.4887
112.784
608.796
624.243
577.674
31.47
650.023
32.8813
594.408
36.2694
35.761
619.542
595.366
46.0229
561.864
630.972
31.0612
35.0439
31.036
98.398
31.1133
520.271
465.769
37.4442
598.92
513.643
584.119
538.943
88.3741
519.826
569.902
441.347
31.089
569.168
32.5207
431.556
582.757
607.788
557.82
623.501
79.671
59.1268
583.11
446.116
588.628
32.419
622.307
31.0867
620.687
545.66
512.732
586.563
31.1146
622.117
573.872
612.65
573.967
570.59
446.162
31.2171
532.691
623.874
638.468
591.195
560.239
615.027
619.592