/*--------------------------------*- C++ -*----------------------------------*\
| =========                 |                                                 |
| \\      /  F ield         | OpenFOAM: The Open Source CFD Toolbox           |
|  \\    /   O peration     | Version:  v2012                                 |
|   \\  /    A nd           | Website:  www.openfoam.com                      |
|    \\/     M anipulation  |                                                 |
\*---------------------------------------------------------------------------*/
FoamFile
{
    version     2.0;
    format      ascii;
    class       volVectorField;
    location    "400";
    object      U;
}
// * * * * * * * * * * * * * * * * * * * * * * * * * * * * * * * * * * * * * //

dimensions      [0 1 -1 0 0 0 0];


internalField   nonuniform List<vector> 
13851
(
(1.12315 0.0431795 -1.13903e-20)
(1.06854 -0.0213674 0)
(1.06716 -0.0196261 0)
(-0.155515 -0.0128537 0)
(1.00187 -0.000570533 1.63186e-22)
(1.07781 -0.0333332 -2.43046e-20)
(1.05493 0.0129994 -3.54221e-20)
(1.01204 -0.000956753 0)
(0.350253 0.0237455 -5.02351e-20)
(0.991821 -0.00751011 1.21342e-20)
(1.15788 -0.0970057 0)
(1.00115 -0.00773325 1.89408e-21)
(0.981682 -0.0192164 4.39567e-21)
(0.156109 0.0112832 3.59021e-20)
(1.09689 0.0101721 2.47839e-20)
(1.10669 0.0617458 0)
(-0.260022 0.000710235 0)
(1.03363 -0.0179548 1.54447e-22)
(1.18767 0.0562916 0)
(1.12441 0.0430783 2.98484e-20)
(1.10815 0.00408581 2.63476e-20)
(1.0382 -0.088244 9.35338e-21)
(0.752091 -0.35273 1.05171e-19)
(1.00007 -0.000220095 0)
(1.24991 -0.0266878 4.55191e-20)
(1.09013 0.0484915 -4.34338e-20)
(1.11357 0.0420964 -3.74899e-20)
(1.15246 0.0835646 4.94319e-20)
(0.451757 0.0245168 1.13345e-20)
(1.01939 -0.0115434 0)
(-0.035372 -0.00905249 -1.56991e-19)
(1.05504 0.0136019 1.12449e-20)
(1.11801 0.0430889 -4.59616e-21)
(0.438782 0.0633648 9.1555e-22)
(1.1255 -0.0764308 -1.2874e-20)
(0.480681 0.0281924 0)
(1.00003 -0.000203647 0)
(1.2663 -0.153981 -1.62519e-20)
(0.0333413 0.011614 1.91166e-19)
(1.00611 -0.0362733 5.52201e-21)
(0.261034 0.0659029 5.47979e-20)
(0.490937 0.0266908 -1.13363e-20)
(-0.284668 -0.00243106 0)
(1.10121 -0.444519 0)
(0.512312 0.0269612 0)
(1.01403 -0.0219624 4.23075e-22)
(1.01734 4.67905e-05 -4.85142e-21)
(1.10841 0.0506632 -1.56747e-22)
(1.04459 -0.0504352 -1.45205e-20)
(0.981462 -0.017113 0)
(-0.221873 0.00829832 -1.69943e-19)
(0.973733 -0.0130678 8.9258e-21)
(1.10639 0.0616762 0)
(1.07207 0.0241203 1.63835e-20)
(0.195272 0.0066056 -5.70885e-20)
(1.00515 -0.0369108 -5.16908e-21)
(1.11956 0.0432577 0)
(0.224676 0.0598875 -7.18887e-20)
(1.12344 0.0472761 0)
(0.0416515 0.0150996 1.83148e-20)
(1.00112 -0.00711924 -5.31278e-21)
(1.11266 0.0434417 6.27743e-20)
(0.995749 -0.00232874 0)
(1.04463 -0.0564114 -1.00797e-20)
(0.884664 -0.451556 1.48016e-22)
(0.888457 -0.420285 -1.79372e-22)
(0.0212837 0.0101812 1.216e-20)
(0.701073 -0.119596 9.90162e-20)
(1.01956 -0.0377571 1.49629e-21)
(-0.114312 -0.00661587 1.4068e-19)
(-0.106494 -0.00413378 -1.78656e-19)
(1.11739 0.00783924 4.77016e-22)
(0.994112 -0.0251681 -4.55858e-21)
(0.0408935 0.0126796 0)
(1.07919 0.021487 1.93494e-20)
(1.02102 -0.0715289 0)
(-0.234243 -0.00166305 -9.40163e-20)
(1.01993 -0.00562352 -3.48204e-21)
(1.25558 -0.0165746 3.54268e-20)
(1.00471 -0.0168453 6.77984e-21)
(1.02075 -0.0369318 0)
(1.26061 -0.0856997 -1.19964e-19)
(1.12236 -0.0824976 0)
(0.149004 0.0111884 -5.62705e-20)
(0.0581738 0.0158233 -8.87604e-21)
(-0.0595726 -0.00668789 0)
(1.04238 -0.0855861 -1.04996e-20)
(0.244013 0.00650148 -1.1916e-22)
(0.992283 -0.0115853 4.34084e-22)
(-0.0313964 -0.00802397 0)
(0.97303 -0.0117519 4.33193e-21)
(1.0563 0.0122175 4.61563e-20)
(-0.290371 0.000270682 2.03878e-19)
(-0.0938997 -0.00630364 1.75282e-19)
(-0.0262088 0.024569 1.43501e-19)
(1.08533 -0.420308 -9.30182e-20)
(1.00937 -0.0225461 2.67535e-21)
(1.10871 0.0566394 0)
(-0.133758 0.013519 8.3686e-21)
(1.20649 -0.187867 8.15825e-20)
(1.11022 0.0542373 0)
(0.817077 -0.124909 -4.10404e-20)
(0.822051 -0.140102 -2.07181e-20)
(0.990188 -0.0266583 0)
(1.01733 -0.0201316 0)
(1.12279 -0.00450264 2.08544e-20)
(1.01637 -0.0214003 1.9572e-21)
(-0.0875897 -0.00584347 1.89337e-19)
(1.05644 0.0123919 -2.51141e-20)
(1.03263 -0.0169165 3.47065e-21)
(1.02748 -0.126327 2.1236e-21)
(1.01496 -0.0211122 0)
(1.21028 -0.00608355 0)
(1.15459 -0.0379991 0)
(1.11228 0.0421983 2.13151e-20)
(1.07124 0.0229214 -4.05371e-20)
(1.01347 -0.0074602 2.44893e-21)
(1.0125 -0.000762411 3.25705e-21)
(-0.172028 -0.011746 -1.86381e-20)
(-0.0746051 -0.00984311 4.63807e-20)
(1.1141 -0.334776 8.1597e-20)
(1.02703 -0.0143794 -8.53303e-22)
(1.01501 -0.0380633 1.95154e-22)
(0.16334 0.0324085 7.93194e-21)
(1.15729 0.0579714 -2.15405e-22)
(0.631831 -0.182796 0)
(1.00978 -0.0226213 -3.21874e-21)
(1.12561 -0.136357 0)
(0.290736 0.0566566 5.27082e-20)
(1.10708 0.0143448 -4.60316e-21)
(1.0353 -0.0874042 -9.89831e-22)
(1.09497 -0.0596346 0)
(1.29348 -0.161225 1.06652e-19)
(0.422295 0.0604285 4.07953e-20)
(1.16178 -0.0873414 0)
(-0.0374845 0.0214385 6.13979e-20)
(0.708449 -0.109417 7.05999e-20)
(-0.0749197 -0.00606708 2.4518e-20)
(0.854175 -0.0821417 2.67759e-20)
(1.10282 0.0195471 3.05795e-20)
(1.25783 -0.0966106 1.17825e-19)
(0.976497 -0.0428046 0)
(0.991498 -0.0117588 0)
(0.769673 -0.284934 -2.39177e-20)
(1.21217 0.0366385 6.1418e-21)
(1.00798 -0.0723625 0)
(1.01972 -0.00517204 8.33386e-22)
(-0.0850768 -0.00666918 -8.84852e-20)
(0.321742 0.015274 -2.31853e-20)
(1.13057 -0.143599 0)
(1.11023 0.0540036 0)
(1.20891 -0.0111453 -9.56286e-21)
(1.15911 -0.0349486 -4.51193e-20)
(1.17488 0.0536287 -8.77356e-20)
(0.974158 -0.0205095 0)
(0.984453 -0.00879457 0)
(1.00122 -0.00618749 -4.64921e-21)
(-0.00655953 0.00761954 -1.90775e-19)
(1.10156 0.0151313 0)
(1.05857 0.00374337 -1.56335e-20)
(1.00016 -0.00044853 4.198e-21)
(0.462779 0.0256075 0)
(1.11984 -0.000993706 0)
(1.1085 0.0508235 -4.96401e-20)
(0.159353 0.00937002 -3.37058e-20)
(0.434302 0.0290096 1.05848e-20)
(0.445742 0.0295274 0)
(-0.208628 0.00993396 2.32851e-19)
(1.02686 -0.119885 -1.09883e-20)
(0.828278 0.0948828 0)
(1.00085 -0.00650584 -3.5745e-21)
(1.01341 -0.00731559 1.90922e-21)
(1.13696 -0.0045507 0)
(1.00096 -0.000407538 0)
(0.00439525 0.0302386 -1.32332e-19)
(1.10905 0.0478799 -5.65127e-20)
(1.11132 0.0469169 -1.15449e-20)
(1.01385 -0.00695121 0)
(1.07737 0.0226686 0)
(1.11088 0.048501 0)
(1.15443 0.0563283 -2.20233e-20)
(1.10724 -0.426365 3.72283e-20)
(1.03432 -0.108175 -4.74103e-21)
(1.1052 0.0174378 0)
(-0.296443 -0.00289072 -5.98394e-20)
(0.32886 0.0137864 3.0048e-23)
(1.11644 0.0433797 -2.28612e-20)
(0.89292 -0.0604841 -1.7955e-20)
(0.978375 -0.0230475 8.58335e-21)
(1.01789 -0.0158164 -1.42103e-21)
(1.26238 0.0333084 8.14966e-20)
(1.10192 0.0142072 0)
(0.134901 0.00679822 -1.8352e-20)
(1.0789 -0.0306946 2.54158e-20)
(1.0089 -0.066052 2.26666e-21)
(1.10785 0.0594354 0)
(1.11569 0.0432723 0)
(1.04307 -0.00923781 -5.7026e-21)
(1.03918 -0.0248586 -9.23842e-21)
(0.720287 -0.171588 0)
(1.25435 -0.105699 6.01484e-20)
(0.0514475 0.0473689 -4.97606e-20)
(0.204373 0.0636792 0)
(1.09528 0.0122412 -4.6343e-20)
(0.989359 -0.668662 -7.18524e-20)
(0.0168757 0.0441403 0)
(0.93835 -0.0245437 0)
(1.09679 0.0252387 -3.44842e-20)
(0.348004 0.0267181 -2.27392e-20)
(1.07261 -0.04188 0)
(1.10486 0.0645226 -6.02054e-22)
(1.01456 -0.0376743 -2.6769e-22)
(1.25781 -0.100191 -1.87667e-20)
(1.00011 -0.00205491 -3.01035e-22)
(1.1298 -0.0695883 -3.04735e-21)
(1.02468 -0.0780222 4.47189e-21)
(0.982726 -0.0166229 -6.81315e-21)
(1.12744 0.0555546 0)
(1.04282 -0.0172937 -1.01651e-20)
(0.145775 -0.579097 -1.34293e-19)
(1.01388 -0.00692643 -1.5461e-21)
(1.12713 0.0440181 0)
(0.128918 0.00817959 5.79236e-20)
(-0.0204169 0.0240089 8.21851e-20)
(0.906696 -0.077357 0)
(1.09684 0.0251857 2.75498e-20)
(1.00007 -0.00117733 0)
(0.756139 -0.290127 2.30532e-20)
(1.00147 -0.0124794 0)
(1.12536 -0.0707595 0)
(0.0308602 -0.0405082 -4.60848e-20)
(0.899888 -0.07171 -3.0363e-20)
(1.07265 -0.0402185 0)
(0.996468 -0.000440821 1.01346e-21)
(0.190386 0.0612999 2.38948e-22)
(1.02007 -0.0110388 3.92124e-21)
(1.03525 -0.46488 0)
(0.180189 0.0604306 -7.15648e-20)
(1.20065 -0.175874 0)
(1.0001 -0.000500991 -4.85169e-21)
(1.26754 -0.292098 0)
(0.0701748 0.0155813 -6.78474e-20)
(0.542114 0.0288545 0)
(1.10503 0.0642028 0)
(1.10044 -0.0104153 0)
(0.730947 -0.323837 -5.71108e-20)
(1.12781 0.0522902 3.65809e-20)
(1.07693 0.0240871 0)
(1.08652 -0.404857 0)
(1.04419 -0.124602 1.07528e-20)
(0.209895 0.00431388 0)
(1.15009 0.0384047 -1.05727e-19)
(1.00919 -0.00111994 5.12062e-24)
(1.07765 -0.0129821 0)
(1.10912 0.057056 -2.87794e-21)
(0.4505 0.0250922 0)
(0.305119 0.0112574 1.69424e-20)
(1.01744 -0.0145807 1.70786e-21)
(0.59712 -0.208849 0)
(0.993068 -0.0123474 2.26281e-20)
(1.11536 0.0481597 -8.38471e-20)
(1.16284 0.0580233 -4.35468e-21)
(1.07974 -0.0113867 0)
(1.12015 0.000905304 -8.78042e-20)
(1.15389 0.036384 1.10708e-19)
(0.999581 -0.0231537 -1.38747e-20)
(0.816419 -0.115008 4.90438e-20)
(1.10628 0.0478606 0)
(1.14199 0.0777148 -1.83958e-20)
(0.997779 -0.00753634 0)
(0.982734 -0.0157963 -8.60847e-22)
(0.901611 -0.0716374 2.02147e-20)
(0.441357 0.0385538 0)
(-0.222444 -0.00551655 0)
(1.11049 0.0103991 3.98834e-20)
(1.02806 -0.0153829 4.44679e-21)
(1.1519 0.0589657 5.2231e-21)
(1.16853 0.0563044 1.27972e-19)
(1.11276 0.0417575 -5.43554e-20)
(1.11803 0.000839428 7.2552e-20)
(0.413056 0.0365299 0)
(-0.0828659 0.0125488 -2.90395e-20)
(1.08249 -0.0186572 0)
(1.09201 0.00922824 -7.78485e-20)
(1.23386 -0.189098 0)
(1.01898 -0.0199645 1.82472e-21)
(1.00135 -0.00575793 -2.3629e-21)
(1.11389 0.041686 -1.19621e-20)
(1.14187 -0.105531 5.44339e-20)
(1.02133 -0.0111557 9.4053e-21)
(1.00015 -0.00191645 -4.58118e-21)
(1.00135 -0.0136012 0)
(1.00383 -0.000742493 -8.75318e-24)
(1.09639 -0.00204065 -1.1371e-19)
(1.00141 -0.00607153 6.96931e-21)
(0.362983 0.0258279 2.49847e-20)
(1.10934 0.00720162 0)
(1.01096 -0.0308973 -1.18925e-21)
(0.454451 0.0246526 0)
(0.152564 0.0297168 0)
(0.975828 -0.0178218 0)
(1.12641 0.0442287 -2.46466e-20)
(-0.182664 0.0102203 1.95017e-20)
(0.976081 -0.0432308 0)
(0.974597 -0.0166612 0)
(1.11177 0.00613651 0)
(0.121246 0.0101153 -4.12924e-21)
(0.313351 -0.0156451 -7.89355e-20)
(1.13653 0.00506728 5.99576e-20)
(1.00206 -0.000443795 -6.28182e-22)
(0.859534 0.0953385 0)
(1.00088 -0.00717859 0)
(1.14242 0.00482356 5.88058e-20)
(-0.17009 0.0132331 0)
(1.13802 0.0748007 8.57321e-20)
(1.05718 0.00267016 1.15629e-20)
(1.27568 -0.200591 -1.92268e-21)
(1.28646 -0.170636 0)
(-0.0589413 -0.00713395 -1.46497e-19)
(1.2117 -0.0184104 0)
(0.789258 -0.0903328 -4.85301e-20)
(0.0120349 0.0228764 6.61123e-22)
(0.203017 0.0419734 2.6605e-22)
(1.15384 0.0845959 -5.23646e-20)
(1.04039 -0.0268836 9.97709e-21)
(-0.2045 -0.00318487 -1.07089e-19)
(0.169211 0.0033031 -1.37322e-22)
(0.485845 -0.46864 -1.43505e-19)
(0.536934 -0.447392 1.25705e-19)
(0.937977 -0.0191631 1.31081e-20)
(1.14005 0.000830147 -7.57866e-20)
(0.950527 -0.108321 0)
(0.251225 0.00598567 6.35486e-20)
(0.797945 -0.124715 4.65832e-20)
(1.00756 -0.00183939 -1.20703e-21)
(1.0175 8.19605e-05 5.14781e-21)
(1.06901 -0.0756211 -2.54837e-20)
(-0.0866991 -0.00947641 2.01755e-19)
(0.302374 -0.524017 1.215e-19)
(1.01912 -0.0195819 -4.10763e-21)
(-0.0373925 0.0236153 -1.49224e-19)
(0.941498 -0.106648 -1.76892e-20)
(1.09613 -0.0619709 -1.22696e-20)
(1.05854 0.00386413 1.71983e-20)
(0.112535 0.00835601 -2.51501e-21)
(1.14947 0.0582851 0)
(1.10805 0.0594799 0)
(1.0228 -0.0764658 1.35581e-21)
(1.07007 -0.0386354 2.99265e-20)
(0.523871 0.0382858 0)
(0.978352 -0.0230942 -2.70624e-20)
(1.1729 0.0525472 -4.55688e-20)
(1.08136 -0.0177474 0)
(1.11277 0.00538032 0)
(0.936226 -0.116785 0)
(0.992426 -0.0123337 -1.54875e-20)
(1.01161 -0.0307445 1.14491e-21)
(1.22048 -0.082212 0)
(1.21457 -0.17548 3.27288e-21)
(1.14541 0.0408921 -1.12838e-19)
(1.29583 -0.169337 -2.04048e-22)
(0.535778 0.0384872 1.2219e-20)
(1.00924 -0.0693375 0)
(0.16289 0.0585877 3.8317e-20)
(1.11563 0.0514757 -2.18167e-20)
(1.02591 -0.00723465 -4.15789e-22)
(1.1354 0.0737396 -7.51511e-20)
(1.12506 0.0325307 1.93472e-20)
(-0.123735 0.0163685 -6.07383e-20)
(1.06663 -0.0724021 0)
(1.08656 0.0539017 0)
(1.12009 0.0486057 0)
(1.28933 -0.1074 1.06043e-19)
(1.21754 -0.0935995 1.4724e-22)
(0.24978 0.00589408 8.10348e-21)
(1.04388 -0.0363877 -8.71004e-21)
(1.1089 0.0482047 6.59867e-20)
(-0.281605 -0.00128152 0)
(1.09603 -0.0222539 5.20085e-20)
(0.232192 0.00632498 7.60658e-20)
(1.10217 -0.022292 -2.46346e-20)
(0.207542 0.0633112 -7.11013e-20)
(1.09139 0.00716585 4.8108e-20)
(1.07505 0.0368066 2.46042e-20)
(1.15929 0.0322427 0)
(1.235 -0.16116 0)
(0.984522 -0.00987145 0)
(1.07989 -0.0226478 1.53454e-20)
(1.14496 -0.110298 4.7822e-21)
(1.07882 0.0227642 0)
(1.01227 -0.0232625 0)
(1.11014 0.0114355 -4.31576e-20)
(0.719669 0.0728012 1.47104e-21)
(0.994985 -0.0247628 -1.08548e-20)
(1.09807 0.0241008 0)
(-0.186085 -0.0115163 2.3641e-19)
(1.06358 -0.0362312 -1.52058e-20)
(1.21711 -0.431358 -9.31789e-20)
(1.08584 0.0328225 -3.79514e-21)
(0.378271 -0.019268 0)
(1.07499 -0.0419796 2.50705e-20)
(1.08918 0.0469376 0)
(0.948451 -0.647602 8.41296e-20)
(1.16147 0.0548551 1.9404e-20)
(1.12385 -0.00871902 1.99814e-20)
(0.284673 0.00828563 6.46854e-23)
(0.0508387 0.0119113 8.36551e-20)
(1.24198 -0.297709 0)
(0.998781 -0.0236202 -5.82152e-21)
(1.21665 -0.0763414 0)
(1.10434 -0.0301661 -5.24431e-20)
(1.08753 0.0519714 0)
(1.02574 -0.0165171 -1.09885e-20)
(-0.286241 -0.0024803 1.34803e-22)
(0.678996 0.0801494 -2.77995e-20)
(1.26802 -0.0677066 -2.15584e-19)
(1.06996 -0.0370345 -2.8736e-20)
(1.1584 0.0338657 0)
(1.11052 0.0432056 -6.85056e-20)
(-0.210921 -0.00660663 0)
(1.02248 -0.0026622 5.22122e-21)
(-0.237991 -0.00163651 -1.23369e-19)
(1.24665 -0.150471 1.49808e-20)
(0.51026 -0.280974 2.40511e-21)
(1.05018 -0.124871 -1.41099e-20)
(1.18321 0.0881563 -1.1167e-19)
(0.988122 -0.0156286 1.40142e-20)
(1.00117 -0.000374994 -8.714e-22)
(0.183938 0.00622025 6.86225e-20)
(1.10977 0.0435522 5.59958e-20)
(0.990957 -0.00849725 -7.1011e-21)
(1.06851 -0.0221008 6.8348e-21)
(1.09981 0.0241403 -9.84579e-21)
(1.01183 -0.00801561 1.5151e-21)
(0.753186 0.0814277 0)
(1.14033 -0.000393173 1.67483e-20)
(1.12535 0.0317141 0)
(1.07204 0.00165047 1.16154e-20)
(1.04438 -0.0359339 0)
(0.972808 -0.00440016 0)
(1.29059 -0.107493 0)
(1.0099 -0.0296098 0)
(0.97384 -0.00538502 0)
(0.892071 0.0493836 1.7725e-20)
(0.747377 0.0720329 0)
(1.03215 -0.0887895 0)
(1.1174 0.047749 3.057e-20)
(0.995922 -0.00184667 -1.12041e-21)
(1.00147 -0.00584037 -2.22469e-21)
(1.06611 -0.0376528 4.58603e-20)
(1.14815 0.0405163 1.23099e-19)
(1.08213 0.0360842 -3.43552e-20)
(1.01243 -0.0244093 0)
(1.05327 -0.0284779 1.68156e-20)
(1.11607 -0.318179 4.21477e-20)
(1.06091 -0.0144898 -2.06667e-20)
(0.430164 -0.0264901 0)
(1.00141 -0.00736477 -2.5302e-21)
(1.07186 0.0124253 2.45417e-20)
(0.52068 0.0279491 2.08485e-20)
(0.940984 -0.15568 0)
(1.01696 -0.000527976 -1.26307e-21)
(1.00039 -0.0059557 -4.16011e-21)
(1.07169 0.000742559 -5.88686e-21)
(1.04588 -0.00793524 0)
(1.22541 -0.34441 4.40571e-20)
(0.815143 0.0483427 -2.04718e-20)
(1.10094 -0.00829455 6.27166e-21)
(0.178485 -1.23355 0)
(1.06779 -0.0350746 -2.39044e-20)
(1.00018 -0.00995083 -4.94629e-21)
(0.33003 0.0481712 -2.54933e-20)
(1.11956 0.0462785 2.8832e-20)
(0.886048 -0.115522 0)
(0.996104 -0.028066 0)
(0.191605 0.0382142 3.63955e-20)
(0.86547 -0.0937625 5.02573e-20)
(1.16353 -0.577569 -1.88021e-20)
(0.989673 -0.0260397 -1.08992e-20)
(1.09702 -0.0557236 0)
(1.22099 -0.0846896 0)
(1.08518 0.0191185 0)
(0.23655 0.0477899 2.29577e-20)
(1.11074 0.0429432 6.81511e-20)
(1.2872 -0.0738005 1.97785e-19)
(0.977736 -0.0665253 0)
(1.21222 -0.014314 8.05477e-22)
(1.00053 -0.0243191 4.46505e-21)
(0.43781 0.0243338 0)
(1.08603 0.0335205 1.31843e-20)
(1.11469 0.0429928 0)
(1.10301 -0.0277046 4.42161e-20)
(1.02347 -0.0719729 2.71758e-21)
(0.947341 -0.147948 0)
(1.13717 -0.00394839 1.48285e-20)
(1.0016 -0.000510947 0)
(-0.231834 -0.00175912 0)
(0.300959 0.0453719 0)
(0.472109 -0.0312765 6.51989e-20)
(-0.140997 -0.0194855 -1.74543e-20)
(0.833224 0.0483922 1.77546e-20)
(-0.208257 0.000183218 -4.33295e-20)
(1.16714 0.0543995 -9.6275e-20)
(0.916695 -0.0768828 0)
(0.999682 -0.00260527 -9.11812e-21)
(1.21992 -0.43996 -5.47486e-20)
(0.991728 -0.00742219 -9.37252e-21)
(1.01195 -0.0226799 1.06509e-22)
(0.910949 -0.0846453 1.68008e-20)
(0.0319897 0.0360282 8.12612e-20)
(1.06572 -0.014024 -3.17013e-20)
(0.972188 -0.038069 -9.68165e-23)
(1.07932 -0.265171 -7.75801e-22)
(1.13158 -0.0276409 0)
(0.989705 -0.00260196 1.08292e-21)
(0.775794 0.0131517 8.17457e-20)
(1.00809 -0.0221277 -2.53813e-21)
(0.337898 0.0585325 -2.53426e-20)
(1.22631 -0.341815 -1.46986e-19)
(1.00514 -0.0172258 0)
(1.0603 -0.00706229 -2.43566e-20)
(1.2519 -0.123919 -6.88897e-20)
(1.1406 0.0756995 -1.02021e-20)
(1.02078 -0.011643 5.14335e-22)
(1.11377 -0.112809 0)
(1.15863 -0.395256 1.04512e-19)
(1.02936 -0.00183803 0)
(-0.0215677 -0.00473156 3.51682e-20)
(1.1819 0.0571698 -5.77566e-21)
(1.13047 0.0435459 0)
(0.976521 -0.0662454 1.53636e-20)
(0.907388 0.0490489 -7.27895e-20)
(-0.0198835 0.0173004 3.38073e-20)
(1.03006 -0.00251205 -5.70036e-21)
(1.23399 0.013012 1.46379e-19)
(1.01725 -0.0381261 5.90853e-22)
(1.0083 -0.0219336 1.26915e-21)
(0.973687 0.07049 4.47849e-21)
(0.21258 0.0638767 8.89224e-20)
(1.1147 -0.0255016 0)
(1.08106 0.0361189 2.87181e-20)
(0.990894 -0.0059737 -1.25926e-20)
(1.09226 0.0395056 0)
(0.322695 0.0590661 -4.14648e-22)
(-0.011868 0.0136976 1.32489e-19)
(1.03328 -0.00512675 1.49453e-21)
(-0.244449 -0.000307491 0)
(1.0123 -0.0245174 0)
(1.01862 -0.0372645 -1.71058e-21)
(1.12425 -0.00604539 2.73269e-21)
(1.06823 0.0175935 0)
(1.0226 -0.00237301 2.8231e-21)
(1.01751 -0.070413 2.06955e-22)
(-0.00766786 -0.00617942 0)
(1.23208 -0.155537 -5.2888e-20)
(-0.0387533 -0.00501028 0)
(1.06388 -0.0153785 -2.4119e-20)
(0.993272 -0.0127372 -1.70913e-22)
(0.461395 0.0368266 -1.00923e-20)
(0.999475 -0.00360492 0)
(1.2178 -0.0652834 0)
(1.07513 0.00759954 3.5897e-20)
(1.08094 0.019675 -4.27711e-20)
(1.10131 -0.0137943 1.10704e-20)
(0.620971 0.0338815 0)
(-0.0732635 0.0155478 0)
(1.07849 -0.0278621 -2.63783e-20)
(-0.235746 -0.00202765 0)
(1.05604 0.000902403 5.70659e-21)
(1.14861 -0.0135018 0)
(0.502104 0.0272543 3.35862e-20)
(0.222875 0.00960803 1.68008e-21)
(1.01126 -0.0384952 -1.33888e-21)
(0.999745 -0.0247564 5.67013e-21)
(0.825355 -0.158111 0)
(-0.0300066 -0.00513113 0)
(1.1189 0.0592384 -8.84152e-20)
(1.0911 0.0388219 0)
(1.13153 -0.562764 1.79347e-20)
(1.06828 0.0172953 0)
(1.08952 0.00828681 0)
(0.178254 -0.0595884 -8.93819e-20)
(0.72144 0.00421629 1.12055e-19)
(1.08327 -0.330195 -3.79525e-20)
(0.32216 0.0555119 0)
(1.11175 0.0444583 -1.21293e-20)
(0.544547 0.0357865 -3.23315e-20)
(1.03996 -0.0352717 1.73041e-22)
(1.1244 0.0476128 0)
(1.2042 0.0795068 0)
(0.999842 -0.00879332 4.8417e-21)
(-0.287777 0.00228441 -1.01939e-19)
(0.536175 0.0631786 5.11416e-20)
(1.03311 -0.119956 9.78547e-21)
(1.10468 0.0162653 -3.4232e-20)
(1.00235 -0.0339684 4.16506e-22)
(0.686982 -0.801527 -2.01557e-21)
(1.14131 -0.176488 0)
(0.815146 -0.246567 2.11122e-19)
(1.00938 -0.0313044 -2.15818e-21)
(1.0007 -0.000456709 0)
(0.914898 -0.0425329 0)
(1.131 -0.0315401 1.33568e-20)
(1.00138 -0.00705913 0)
(-0.00208816 0.0324633 -1.38638e-19)
(1.00081 -0.000538765 1.36558e-21)
(1.11185 0.0446007 0)
(0.971722 -0.0637131 5.05591e-22)
(1.08882 0.0523238 -1.11748e-20)
(0.991292 -0.0262792 -1.14868e-20)
(0.989008 -0.00268308 -1.26186e-20)
(1.0923 -0.151567 0)
(-0.243781 -0.00276242 2.44372e-19)
(1.12583 -0.0120438 -7.67276e-20)
(-0.0527864 0.0216695 1.70474e-20)
(1.09729 -0.0565524 6.31775e-21)
(1.01198 -0.00939957 1.42412e-21)
(1.029 -0.00937994 6.87269e-21)
(1.13956 -0.00835697 -3.82533e-21)
(1.05222 -0.029309 2.7573e-21)
(1.18256 -0.0183489 1.16641e-19)
(1.06967 -0.0168807 -1.83827e-20)
(0.882667 -0.118163 0)
(1.12494 0.0506803 0)
(0.999346 -0.00346106 4.91294e-21)
(0.306014 0.00968389 0)
(1.00011 -0.00146343 4.75927e-21)
(1.09342 0.060839 6.13584e-20)
(-0.221472 -0.00254163 0)
(0.490013 0.0271154 0)
(0.886516 -0.0247477 3.26801e-20)
(1.0023 -0.324503 -1.82958e-19)
(1.06172 -0.26884 -5.10235e-20)
(1.21097 -0.234283 -5.38738e-20)
(0.503405 0.0654843 0)
(1.03568 -0.00628408 -3.08124e-21)
(0.682297 0.0118405 3.22039e-20)
(0.94479 -0.117124 0)
(1.09828 -0.0217937 -1.15184e-20)
(-0.133274 -0.0207621 1.22119e-19)
(1.2718 0.0192518 -8.73899e-21)
(1.02646 -0.00776569 -4.89267e-21)
(1.18094 -0.0239699 -1.11351e-19)
(1.04241 -0.00855906 -5.77058e-21)
(0.505785 0.0325933 6.47992e-21)
(-0.242149 0.00734031 -5.05859e-20)
(1.02347 -0.0386864 1.31262e-22)
(0.706735 -0.128336 -9.62758e-20)
(0.752835 0.0862526 5.62407e-20)
(0.99997 -0.00145497 -7.21041e-21)
(0.999981 -0.00144605 -5.42198e-21)
(1.08996 0.0487486 5.75801e-20)
(0.287518 0.00714455 1.15545e-20)
(0.985148 0.0497659 -4.78495e-20)
(0.973854 -0.0145086 4.08183e-21)
(1.16442 0.028773 7.05243e-21)
(1.05864 -0.015884 1.036e-20)
(0.987905 -0.00387261 0)
(1.12658 0.0542602 9.00275e-21)
(1.16355 0.0291665 0)
(1.21046 -0.164067 4.35593e-20)
(1.0211 -0.00222528 0)
(1.10664 0.0475634 4.72879e-20)
(0.912325 -0.203527 0)
(1.08659 0.0453002 9.65467e-21)
(0.959148 -0.0166672 -3.81659e-20)
(1.00777 -0.0635992 6.25958e-22)
(1.13021 -0.176776 0)
(0.918606 -0.0487886 0)
(1.10747 0.0492573 -1.91319e-20)
(1.11463 0.0115264 3.90478e-20)
(1.11742 0.00799133 4.83023e-22)
(1.07777 -0.303548 5.64253e-20)
(1.13718 -0.583622 -7.25028e-20)
(1.19024 0.0550346 -1.18425e-21)
(0.749343 0.0478925 -1.14955e-22)
(1.18376 -0.11466 0)
(1.10949 0.0531058 0)
(0.18856 0.0159953 3.15306e-20)
(1.02622 -0.16851 -1.27118e-20)
(0.942334 0.0665535 0)
(1.12922 0.0439383 0)
(1.03012 -0.0185205 0)
(1.08861 0.00636665 -2.11905e-20)
(1.18877 0.0481531 -1.43518e-19)
(1.05504 -0.082608 -1.93904e-20)
(1.00471 -0.0165066 -1.74493e-23)
(1.0052 -0.0155872 -2.63525e-21)
(1.09554 0.058368 2.99114e-20)
(0.240807 0.00403163 2.69159e-20)
(1.07359 0.0125786 -2.5824e-20)
(0.141212 0.0554261 3.93182e-20)
(1.01191 -0.00925943 1.40433e-21)
(0.95339 0.0476209 9.94542e-21)
(1.00801 -0.341378 0)
(-0.193781 0.00873276 1.90331e-19)
(1.18294 -0.0297094 -5.65772e-20)
(1.07766 -0.041946 -2.6742e-20)
(1.06745 -0.0180169 -1.75809e-20)
(-0.18546 0.0127827 -6.83977e-20)
(1.21018 -0.166846 -1.65188e-19)
(1.02491 -0.15937 1.27891e-20)
(1.10994 0.0432719 -1.27734e-20)
(1.04409 -0.0316408 0)
(1.22947 -0.417501 0)
(1.09531 0.0584268 -1.7701e-20)
(1.11187 0.0447304 -2.52138e-20)
(1.10194 -0.0390185 1.2014e-20)
(1.26413 -0.137249 0)
(0.988871 -0.0173939 9.13053e-21)
(1.0001 -0.00167717 3.08635e-22)
(0.943642 -0.0141444 3.42743e-20)
(0.987255 -0.00445198 -2.10922e-21)
(0.48528 0.0252157 0)
(1.00359 -0.000841617 0)
(1.12491 0.0543459 0)
(0.429859 0.0356364 0)
(1.18741 -0.034515 0)
(0.00523771 0.0181867 0)
(-0.120068 0.015445 0)
(1.11203 0.0446087 0)
(1.2227 -0.220444 1.09163e-19)
(0.887003 -0.0385204 -2.66559e-20)
(0.998688 -0.000119169 -1.32114e-20)
(0.983853 -0.0147613 8.85655e-22)
(1.01898 -0.00565509 0)
(1.0282 -0.00969038 -8.7235e-21)
(1.00093 -0.000388885 -9.61666e-22)
(1.14517 -0.00818516 0)
(1.20213 0.00162222 -7.45223e-20)
(0.911686 -0.204499 0)
(1.15153 0.082948 -9.52253e-20)
(1.02326 -0.0596334 5.49141e-22)
(0.339064 0.024564 -1.1686e-20)
(0.999976 -0.000114617 -3.86729e-21)
(-0.122652 -0.0165871 -2.51125e-19)
(1.11458 -0.0823347 -1.06986e-20)
(0.999903 -0.000549674 -1.11019e-21)
(0.99716 -0.000667648 -7.73789e-21)
(0.475786 0.0277506 4.50308e-20)
(1.07886 -0.0336175 1.83289e-20)
(0.998222 0.038972 2.07512e-20)
(0.555453 0.0675584 6.5218e-21)
(1.10189 0.0166092 0)
(1.12213 0.0215489 -1.96643e-20)
(1.02888 -0.00121162 -4.60123e-21)
(0.402025 0.0606475 -4.21251e-20)
(0.986691 -0.0794009 0)
(1.06673 -0.0152569 3.33344e-20)
(1.12549 0.0507154 0)
(0.998719 -0.0005829 6.23889e-21)
(0.976 -0.0409648 -5.13096e-21)
(1.03345 -0.0102197 0)
(1.08794 0.0322154 3.23237e-20)
(0.227772 0.00499267 5.12835e-20)
(1.08903 -0.0525364 -3.39391e-20)
(1.10283 -0.0355313 -4.75243e-20)
(1.24871 -0.157384 0)
(-0.0458711 0.0119304 -1.35339e-19)
(0.891369 -0.0515041 -3.5451e-20)
(0.988467 -0.0981064 0)
(0.531023 0.0310302 9.14061e-23)
(1.01861 -0.00528615 0)
(0.517989 0.0311669 -2.17228e-20)
(1.00039 -0.00114319 -1.27015e-21)
(1.06086 -0.0137557 0)
(1.26227 -0.0067707 -4.02425e-20)
(1.10541 0.0388015 9.26575e-20)
(1.11257 0.0429357 0)
(1.18262 -0.0901414 -9.8776e-20)
(1.12575 -0.0113555 1.07243e-20)
(0.99953 -0.0010012 -5.7896e-21)
(0.999986 -0.000169015 -8.13522e-21)
(1.15211 -0.00961413 0)
(1.04169 -0.0349384 -6.42745e-21)
(0.999591 -0.000937755 -1.04848e-20)
(1.07195 0.0161287 0)
(1.23835 -0.187614 -1.30264e-19)
(1.00451 -0.00521659 -1.48737e-21)
(1.19834 -0.251924 9.75765e-20)
(1.22874 -0.419625 7.42608e-20)
(1.03437 0.0400208 1.84139e-20)
(1.18186 -0.0860625 6.29318e-20)
(0.011208 -0.0151572 8.83962e-20)
(0.842152 -0.093432 6.04557e-20)
(0.998519 -0.000364728 0)
(1.21565 -0.104112 3.81908e-20)
(1.01134 -0.00959724 0)
(1.08009 -0.02223 -3.44924e-21)
(0.792574 0.0469883 -1.79147e-20)
(0.547189 0.0403981 5.04125e-20)
(0.681684 0.0101296 2.37763e-20)
(0.573664 0.0341244 0)
(1.02702 -0.040491 0)
(1.02333 -0.0383111 -1.31687e-22)
(0.987042 -0.260223 1.6107e-22)
(1.00503 -0.0619141 -3.19838e-22)
(1.02109 -0.0182468 0)
(0.793106 -0.386419 1.03738e-19)
(1.11443 0.0469579 2.95493e-20)
(0.230155 0.0075313 0)
(1.09352 0.0609184 -6.93101e-20)
(1.10669 0.0389772 -6.22332e-20)
(0.985849 -0.00648909 2.72503e-21)
(1.01922 -0.0118045 0)
(1.27095 -0.297367 5.29003e-20)
(1.12676 0.0310281 7.57777e-20)
(1.06286 -0.0132271 2.87789e-20)
(0.999793 -0.000325435 -2.36274e-21)
(1.1116 0.0428737 -2.86862e-20)
(1.22363 -0.0312538 -7.95546e-22)
(0.153451 0.0573781 0)
(0.974127 -0.0205274 0)
(1.00085 -0.00309296 3.06134e-21)
(0.210535 0.00396963 -4.04256e-20)
(0.959936 -0.0186224 3.11903e-20)
(1.10161 -0.0182591 6.02602e-21)
(1.01145 -0.00755664 0)
(0.0548524 0.0402857 0)
(1.00862 -0.000559127 1.78478e-21)
(-0.211839 -0.00235965 0)
(0.995129 -0.00545735 1.26041e-20)
(1.19247 -0.186124 7.27685e-20)
(1.106 0.000554357 -3.07278e-20)
(0.95977 -0.26669 4.55768e-21)
(1.10329 -0.0362775 7.17249e-21)
(0.993358 -0.0240413 0)
(1.06823 -0.0257878 0)
(1.00308 -0.00396584 -8.05015e-23)
(1.12493 0.0585135 -1.65636e-20)
(0.963302 -0.026428 0)
(0.328107 0.014454 -1.4701e-20)
(1.04559 -0.0323439 -4.34473e-21)
(1.06524 0.0615754 -2.46651e-20)
(0.369034 0.0460979 0)
(1.09817 -0.0434631 -2.41332e-20)
(1.00378 -0.0028393 -5.53207e-22)
(-0.159697 -0.0168163 -5.90937e-20)
(0.810284 0.0449975 -1.01607e-20)
(1.0809 -0.0273772 5.57612e-20)
(1.1045 0.0403953 -6.2932e-20)
(0.983884 -0.0145802 0)
(0.261876 0.00831744 0)
(1.03086 -0.0194176 3.38345e-21)
(1.19228 0.0482443 0)
(0.999238 -0.009595 5.64175e-21)
(1.0034 -0.00368181 8.16835e-22)
(1.02787 0.0393117 2.96948e-20)
(1.10187 -0.0128725 0)
(1.00049 -0.00660583 0)
(1.07344 0.0239498 1.0928e-20)
(0.224732 0.0580989 0)
(0.745608 -0.804794 1.15353e-20)
(0.70527 0.0861997 -5.86986e-20)
(1.01659 -0.0150992 -1.66907e-21)
(0.205812 0.0179621 -6.95235e-21)
(0.997604 -0.00854248 7.79339e-21)
(1.00439 -0.0050384 1.12117e-21)
(0.975462 -0.0233769 -1.02361e-20)
(1.01772 -3.02675e-05 0)
(0.999804 -0.00225661 -4.29679e-21)
(0.656326 0.0889007 5.05724e-20)
(0.773253 0.0532683 0)
(1.04331 -0.017861 0)
(1.00087 -0.00082764 -2.41156e-21)
(1.11508 -0.0247121 3.09571e-20)
(1.01546 -0.0220451 6.91661e-22)
(-0.125357 -0.0195235 -5.14998e-20)
(1.21945 -0.0980845 -1.14662e-20)
(0.168904 0.0127173 -5.14845e-21)
(0.0270874 0.021722 -6.50028e-20)
(1.06785 -0.0247655 0)
(1.10735 0.0488589 0)
(0.99981 -0.00894734 5.18217e-21)
(1.1081 0.0040485 -2.80504e-20)
(1.00445 -0.330514 2.63114e-21)
(1.0349 -0.00548095 1.21959e-20)
(1.00033 -0.00116349 3.60138e-22)
(1.26722 -0.285485 0)
(-0.2332 0.00667774 -5.44661e-20)
(1.12019 0.0226517 0)
(-0.296401 -0.00257158 7.39455e-20)
(1.10803 0.0292016 0)
(0.996086 -0.00291742 0)
(1.12165 -0.0389556 -3.94872e-20)
(1.10458 0.0403568 5.91784e-20)
(-0.264607 -0.000634877 -1.49551e-20)
(1.09471 -0.00458473 0)
(1.11838 0.0391751 -2.56119e-21)
(1.12928 0.0311232 -1.07141e-19)
(1.0003 -0.00236648 6.03023e-21)
(0.536923 -0.140248 0)
(0.450301 -0.112138 0)
(0.258546 0.00742118 2.23181e-20)
(1.26866 0.0234163 1.21339e-20)
(0.989377 0.0752997 -3.10692e-20)
(0.980702 -0.0703753 3.79719e-21)
(0.737964 -0.3591 6.57309e-20)
(0.97366 -0.00374547 -1.03814e-20)
(1.11598 0.0616042 -6.96961e-20)
(1.05433 -0.0776432 1.76987e-20)
(1.00743 -0.00135227 9.85882e-22)
(0.665509 0.0869661 -6.84312e-20)
(1.01944 -0.0589144 -2.09981e-21)
(1.00362 -0.00240579 0)
(1.01259 -0.0378936 1.42896e-21)
(1.01813 -0.0581318 1.84139e-21)
(0.0187705 0.0364271 0)
(1.17973 0.0510348 5.04833e-20)
(1.01128 -0.0136954 4.10155e-22)
(1.12337 -0.0336933 0)
(0.134763 0.0103516 7.26457e-20)
(1.03607 -0.0537311 0)
(-0.293264 -0.00131663 1.05396e-19)
(0.959765 -0.0420443 0)
(1.10875 0.0356269 3.48446e-20)
(0.166604 0.0613213 0)
(1.00121 -0.00613561 0)
(1.12107 0.0604568 4.03283e-21)
(1.06438 -0.0924593 7.85451e-21)
(1.10106 -0.0441886 0)
(0.789609 -0.795344 0)
(1.02174 -0.0587953 0)
(1.25511 -0.0748092 7.59464e-20)
(1.08727 0.0472495 -2.5922e-20)
(0.270626 0.0643302 0)
(1.04372 -0.00280983 1.19508e-20)
(0.287906 0.00972706 -4.60676e-21)
(1.09479 -0.0248664 -1.00519e-20)
(0.130729 0.0230753 3.3095e-20)
(-0.265532 0.00203127 -2.2277e-19)
(0.263149 0.00697965 4.48852e-20)
(1.10017 0.0187328 0)
(0.990533 -0.0232724 0)
(1.02625 -0.0403023 0)
(0.999961 -0.00132697 0)
(1.0742 0.0351555 2.19365e-20)
(0.997078 -0.00221487 8.11896e-21)
(0.248929 0.0508453 2.79781e-20)
(1.02898 -0.111815 4.71868e-21)
(0.928839 -0.0846615 0)
(0.89349 -0.0550722 6.2025e-20)
(0.982701 -0.0662386 0)
(1.01621 -0.0141328 0)
(1.06186 0.0189485 0)
(1.06176 -0.079256 -1.01397e-20)
(1.06038 -0.00718284 0)
(1.04348 -0.0926391 3.6783e-21)
(0.420747 0.0702752 0)
(1.12462 0.0630773 0)
(1.09153 -0.015993 -1.96563e-20)
(1.10988 -0.147695 0)
(0.69202 0.0871981 3.5017e-20)
(0.97229 -0.0391772 1.78042e-20)
(-0.0713368 -0.00633818 -4.0206e-20)
(1.01809 -0.00576868 3.39841e-21)
(1.02986 -0.133982 0)
(0.961447 -0.0227679 1.78709e-20)
(1.02207 -0.0265227 4.30336e-21)
(1.07786 -0.155332 4.42976e-20)
(0.999916 -0.010466 2.99902e-21)