/*--------------------------------*- C++ -*----------------------------------*\
| =========                 |                                                 |
| \\      /  F ield         | OpenFOAM: The Open Source CFD Toolbox           |
|  \\    /   O peration     | Version:  v2012                                 |
|   \\  /    A nd           | Website:  www.openfoam.com                      |
|    \\/     M anipulation  |                                                 |
\*---------------------------------------------------------------------------*/
FoamFile
{
    version     2.0;
    format      ascii;
    class       volVectorField;
    location    "150";
    object      ddtCorrDdt0(U);
}
// * * * * * * * * * * * * * * * * * * * * * * * * * * * * * * * * * * * * * //

dimensions      [0 1 -2 0 0 0 0];


internalField   nonuniform List<vector> 
14315
(
(-0.00555827 -0.00739807 3.24533e-21)
(0.000946968 -0.00231123 -1.6593e-20)
(0.00093703 0.000173436 6.56438e-22)
(-0.000118349 -0.000120519 -2.89667e-21)
(-3.57234e-05 0.000286998 -8.06178e-21)
(1.8342e-05 9.80994e-06 2.24081e-21)
(-0.00133755 0.000935866 -5.27964e-22)
(0.00016992 -0.000385918 -3.86008e-21)
(-0.000972223 0.0024356 4.10424e-20)
(0.00357767 -0.00147073 0)
(0.0012071 -0.00403662 -4.0634e-22)
(0.0035162 0.00570145 -9.05472e-22)
(0.00180161 -0.00182381 -1.51087e-21)
(1.60731e-05 4.69338e-05 7.67246e-21)
(-0.000993304 0.000472867 0)
(4.06604e-05 -7.42599e-06 8.46146e-21)
(3.96485e-05 1.36625e-05 -6.76771e-21)
(0.00225297 -0.00104644 1.52516e-20)
(0.000217172 2.4574e-06 -1.18632e-21)
(5.61282e-05 -2.59791e-06 0)
(-0.000273774 -0.000339763 0)
(-0.000116175 8.58834e-05 0)
(0.000134595 -3.93907e-06 -2.71091e-23)
(0.00144065 -0.00225828 1.65263e-21)
(-0.000358969 -0.0038485 -1.47228e-20)
(-3.06709e-06 3.71761e-05 -5.8866e-21)
(0.0010087 -0.00314913 4.16649e-21)
(0.00331741 -0.00257769 9.41749e-22)
(0.0028174 -0.00231402 0)
(2.42255e-05 -8.63232e-07 0)
(0.000198233 -0.000562465 0)
(5.13648e-05 -2.36888e-05 7.28056e-22)
(0.00202722 0.000619247 9.64266e-22)
(0.00254834 0.0113213 2.09924e-21)
(0.000164316 6.01453e-05 -1.40711e-20)
(5.04288e-05 -2.68967e-05 -6.44302e-22)
(5.13453e-05 -6.62175e-05 -1.09407e-21)
(0.000178732 9.18065e-05 0)
(0.00010619 -5.75149e-06 2.72261e-23)
(-9.89744e-05 -1.75188e-05 2.81339e-20)
(-0.000975182 0.00206228 -2.81618e-20)
(4.33876e-05 -5.11997e-05 -1.7211e-20)
(-0.000426184 0.00110378 1.04787e-20)
(6.48518e-05 -0.000115059 -2.13838e-20)
(-0.000228682 -0.00070276 5.1207e-21)
(-0.000452192 -0.000151711 0)
(0.000614183 1.58077e-05 0)
(0.00255612 -0.00237815 -3.2192e-21)
(2.63872e-05 -0.000101605 1.78026e-20)
(-0.000222664 0.00119776 -4.47598e-21)
(4.57686e-05 7.05096e-06 0)
(0.000383415 0.000295854 -1.18706e-22)
(-0.000240815 -0.000317237 2.41402e-22)
(0.000706829 -0.000302571 2.02504e-21)
(-0.000160237 -0.000441616 -2.12001e-23)
(6.44409e-05 0.000280884 0)
(0.0196873 -0.00361474 7.72649e-22)
(0.00153114 -0.000443679 0)
(2.0182e-06 2.17021e-05 0)
(-0.00015899 -0.00374669 1.50216e-20)
(0.000573732 -0.000213807 -1.70558e-21)
(-0.000335334 -0.000418439 1.28594e-20)
(0.000206554 -0.000248259 0)
(0.000312002 0.000442889 1.11382e-22)
(2.97304e-05 1.62706e-05 -4.70076e-21)
(5.03404e-05 1.87784e-05 0)
(0.000924047 0.000264264 -1.38121e-21)
(-3.11926e-05 -0.000912724 0)
(0.000156816 -0.00013524 0)
(4.30782e-05 -1.78274e-05 -8.80514e-22)
(-0.000733382 -0.000440633 2.4023e-22)
(0.000546216 0.000428773 0)
(-0.000463411 0.000234702 1.12845e-22)
(6.80742e-05 -5.81249e-05 -3.28716e-21)
(2.71405e-05 7.6051e-06 4.43604e-21)
(0.00052859 -0.000465945 -1.01844e-21)
(0.000385145 0.000478541 0)
(-0.000624147 -0.000846327 8.58247e-21)
(4.16146e-05 -1.78621e-05 7.15927e-22)
(0.000416003 0.0020457 -2.12257e-20)
(3.86878e-05 6.77793e-06 5.26345e-21)
(0.00949937 -0.0369171 0)
(1.83657e-06 -7.64283e-05 -5.26532e-21)
(0.000558656 0.000617941 0)
(-0.000385207 -0.00058507 3.69496e-22)
(0.00538747 0.00122336 -5.81112e-21)
(4.13194e-05 0.00101186 5.92108e-22)
(-0.00050868 0.000534551 0)
(-0.000541381 0.000485311 0)
(-0.00110571 -0.000525347 -2.34134e-22)
(2.36863e-05 -0.00194333 -3.37837e-21)
(0.000424052 -0.00338437 -4.2766e-20)
(0.00280758 -0.00577324 0)
(4.15427e-06 8.7336e-06 0)
(4.27114e-05 -1.01529e-05 -1.36706e-21)
(3.6169e-05 5.02368e-06 -6.01109e-21)
(-0.000462907 -0.000431288 2.98973e-22)
(0.00140149 -9.62795e-05 -1.07316e-22)
(3.37005e-05 1.21501e-06 0)
(-1.18961e-05 0.000509643 1.36162e-20)
(1.96733e-05 3.77418e-05 0)
(0.0096324 0.0111332 7.26332e-22)
(0.000128894 -3.19508e-06 6.81263e-23)
(-0.000317608 0.00030218 0)
(-0.000675324 0.000779886 0)
(3.04674e-05 2.7286e-05 6.4498e-21)
(-4.32071e-05 1.12154e-05 -1.18193e-20)
(7.50503e-05 -0.000369316 -8.34597e-21)
(-1.51568e-05 0.000302859 1.46805e-21)
(8.1832e-05 -0.000144443 0)
(-0.00102163 8.72609e-05 0)
(0.000150329 0.00023032 -1.33008e-20)
(-0.000523058 -0.000834351 -2.92508e-21)
(0.000950573 0.00205598 1.33109e-21)
(-0.00013995 0.000106093 -6.43044e-21)
(-0.000216866 0.000198949 1.15633e-22)
(-0.000461776 0.00123605 -6.1653e-21)
(0.000128795 5.29786e-05 9.00786e-21)
(-0.000857012 -0.00237405 0)
(0.010316 -0.0431711 -5.52393e-21)
(0.00235427 -0.00179395 1.06199e-21)
(2.84336e-05 2.25735e-05 5.89312e-21)
(0.000211413 4.11357e-06 2.11341e-21)
(0.000498448 0.000373871 4.07329e-20)
(0.000244203 -0.000694886 -2.71761e-20)
(3.25753e-05 2.94301e-05 2.49878e-21)
(-0.0478143 0.037945 2.0306e-21)
(-0.00565679 -0.011827 -2.82477e-21)
(1.86434e-05 0.000297051 0)
(1.9591e-05 2.69699e-05 0)
(0.000676552 -0.000143567 0)
(-8.01957e-05 0.00165275 0)
(0.0613909 -0.0270341 2.3162e-21)
(0.023467 -0.0778135 -5.25059e-21)
(0.000438613 -0.000352095 -6.36778e-21)
(0.000114973 0.000327697 0)
(-0.00491821 -0.0351012 -1.08635e-21)
(0.00049285 -0.0010291 -2.66312e-20)
(0.00133742 -0.000126414 0)
(-0.0527863 0.0376606 0)
(-0.00118397 -0.000932249 8.19102e-21)
(-0.000353351 0.00012373 -4.32431e-21)
(2.4912e-05 -6.77202e-06 0)
(-0.00317574 0.00400791 0)
(1.13591e-05 0.000384923 9.59393e-21)
(5.77093e-05 -3.84322e-05 3.15629e-21)
(-0.00066024 -0.00114045 -1.10249e-21)
(0.0013902 -0.00155165 -7.84257e-22)
(0.00044473 -0.00037952 0)
(-0.000555927 0.000179223 0)
(2.20458e-05 4.37925e-05 1.14233e-20)
(7.69265e-05 -6.38354e-05 -1.33571e-23)
(0.00152069 -0.00118423 -1.39524e-22)
(2.57079e-05 -1.03792e-05 -1.96825e-24)
(-0.00314495 0.00157747 3.65294e-23)
(-5.98497e-05 0.000270324 -1.19715e-21)
(-0.000460276 -0.000432905 -9.46138e-21)
(3.7954e-05 -7.09705e-06 2.88586e-25)
(0.0173258 -0.00854098 0)
(-0.000350906 0.00185442 5.55934e-21)
(-6.05725e-05 0.000149414 -1.416e-20)
(2.07743e-05 4.59363e-05 -6.99624e-22)
(0.000123977 0.000314779 -1.60396e-21)
(7.75544e-05 0.0005376 -1.96914e-20)
(0.000129353 4.17174e-06 0)
(0.00624966 0.00128035 -4.7087e-21)
(0.000105857 -6.57216e-06 0)
(-7.45244e-05 5.57398e-05 -2.8203e-20)
(4.88565e-05 6.04525e-06 3.27303e-22)
(2.51111e-05 8.78139e-06 0)
(-0.000435965 -0.0019995 0)
(0.00200108 0.000335202 1.31665e-20)
(-0.00142943 0.00130469 3.79772e-21)
(-0.000376471 3.92734e-05 0)
(-0.000584595 0.00172529 0)
(0.0565798 -0.0297372 -1.71054e-21)
(0.00589012 0.0099195 0)
(3.09491e-05 3.35504e-05 -1.19401e-20)
(-0.00130057 0.00115986 6.19735e-21)
(-2.49939e-05 -0.00336909 -1.20023e-20)
(0.00248012 0.00201656 0)
(0.000392434 0.000976607 4.9302e-21)
(2.54702e-05 4.42962e-05 -1.19508e-20)
(1.37049e-05 0.00220864 0)
(-0.000287247 -0.000194635 -1.57897e-20)
(0.0151246 -0.0355142 2.79364e-21)
(-0.00116158 2.59319e-06 3.05819e-21)
(-0.00107945 -0.000361482 -6.04091e-21)
(0.000447585 0.000277604 1.45894e-21)
(0.000360315 -0.00072296 5.47703e-21)
(0.000246461 -0.000213681 -3.35196e-21)
(0.0222132 -0.0264283 0)
(-0.000932028 0.00608091 -8.79948e-21)
(6.04719e-05 -8.92747e-05 -3.1787e-25)
(0.001198 -0.000191838 0)
(0.000158435 0.000598392 -1.29356e-20)
(0.0107149 -0.0736054 0)
(-2.64888e-06 -1.08463e-05 6.01162e-21)
(-6.21315e-06 8.47227e-05 1.71043e-20)
(0.000248821 -0.00029943 2.01076e-20)
(0.00193897 0.000748445 -5.01803e-22)
(1.28115e-05 4.17648e-05 -9.24015e-22)
(0.011448 0.0103352 0)
(7.18714e-05 -4.2387e-05 -9.19437e-21)
(-0.00010299 -0.00017376 1.09218e-20)
(3.07884e-05 2.73439e-05 -9.69372e-21)
(0.000370011 -1.19564e-06 5.91225e-21)
(-0.000143815 0.00018186 3.79164e-20)
(-0.00100266 0.00137082 0)
(8.58272e-05 -7.05262e-05 -2.38627e-23)
(0.000447843 0.000382064 -1.4579e-21)
(3.5342e-05 -5.75804e-05 5.21769e-21)
(0.000584094 -0.000181635 0)
(5.33794e-07 -0.000100525 5.70753e-21)
(0.00187092 0.000319694 -8.17561e-22)
(-0.000254293 -0.000169659 0)
(-0.000208625 0.000724245 0)
(8.94379e-06 -1.59282e-06 0)
(2.22018e-05 2.2483e-05 0)
(4.99879e-05 1.96536e-06 -3.17441e-22)
(0.000536385 0.00239845 0)
(3.21306e-05 0.000261574 -4.76714e-21)
(-0.00033043 0.00275255 0)
(0.0317713 -0.0324372 -2.55362e-21)
(-0.000558333 0.000733715 -1.45911e-20)
(-7.97614e-05 7.51658e-05 0)
(-0.000430285 0.00144765 4.07572e-21)
(5.17609e-05 0.000320918 9.70245e-21)
(0.000162614 -1.46326e-05 -3.41952e-21)
(-8.68094e-05 0.00039088 0)
(6.95089e-05 0.000351724 6.69988e-21)
(0.00454388 0.00242924 -6.06852e-21)
(0.000572439 0.000117675 0)
(-0.00955437 -0.00146119 -8.05636e-22)
(-0.000180887 -5.28656e-05 -1.31208e-20)
(-0.000327551 0.000108002 0)
(0.000472745 0.000352693 3.54249e-20)
(-0.000352444 0.000494334 -9.77822e-21)
(0.00123321 0.000546475 -4.3424e-21)
(0.000364801 0.00859089 -6.66224e-21)
(0.00113872 0.00377567 5.65558e-21)
(-9.48218e-05 -0.000274868 -1.04206e-20)
(5.57167e-05 1.80777e-05 0)
(0.0309727 -0.0350272 0)
(-0.000243069 0.0020507 0)
(0.0016282 0.00211906 7.38732e-22)
(0.0021565 0.00433764 2.24058e-21)
(-0.00261057 0.00121986 0)
(0.000161777 -1.98552e-05 2.5827e-21)
(5.0799e-05 5.27769e-06 4.22488e-21)
(-0.000158519 7.31128e-05 -1.13428e-20)
(-0.000555765 -0.000662411 -5.22873e-22)
(-0.00683661 0.00110623 -5.89223e-21)
(4.32852e-05 -6.07801e-05 -1.83825e-21)
(0.000200339 -0.000375035 5.50979e-22)
(0.00367893 0.00284272 -5.81375e-21)
(-0.0052186 0.00126377 0)
(0.000154329 -0.000142683 1.85173e-20)
(2.39434e-05 0.00036536 0)
(7.08416e-05 -2.88733e-07 0)
(0.00202654 -0.00427508 1.00088e-21)
(-0.000106435 -7.35176e-05 -1.66262e-20)
(-0.000247119 -4.56866e-05 0)
(-0.00371521 -0.00526197 1.43237e-20)
(-3.1049e-05 1.16722e-05 3.04633e-20)
(-0.000371217 0.000205766 0)
(0.000459133 0.00274434 -2.62056e-21)
(0.00229877 0.00190457 0)
(-0.000213858 -0.000232787 -1.72031e-20)
(-0.000160336 -0.000440306 0)
(0.0129082 -0.0166395 -9.47267e-23)
(-2.19516e-06 -6.45934e-06 0)
(5.07756e-05 4.61711e-07 -3.35707e-21)
(0.00163528 0.00199409 0)
(7.267e-05 7.0745e-06 1.96214e-22)
(-0.00182134 0.0010716 1.46181e-22)
(0.0014436 0.000753735 3.03184e-20)
(7.37635e-05 -6.488e-05 3.04967e-23)
(-0.00016386 0.00014591 2.60608e-22)
(8.18734e-06 -0.000417338 8.33158e-21)
(2.70218e-05 8.51972e-06 4.91994e-21)
(0.000264288 0.000327057 2.06366e-20)
(4.85192e-05 8.41658e-05 2.37589e-22)
(0.000274469 -0.000732753 0)
(6.11476e-05 0.000248004 1.66326e-20)
(-0.000943513 0.00273489 -2.09814e-20)
(0.00176426 0.00230051 9.62262e-21)
(-0.000210706 -0.000124206 4.11163e-21)
(-6.49332e-05 0.0021177 -6.09961e-22)
(-0.000236716 -0.000703033 -1.02921e-21)
(0.000622102 8.6431e-05 1.30981e-20)
(2.30668e-05 3.58763e-05 -1.18948e-20)
(0.000113951 6.45114e-06 1.09229e-23)
(-0.000145791 0.000640656 0)
(2.15496e-05 -3.47707e-06 0)
(3.23916e-05 6.90459e-05 1.20183e-20)
(-0.00265415 -0.000486006 3.06242e-22)
(2.5449e-05 0.000369177 0)
(7.8119e-06 1.29379e-05 -6.21299e-21)
(-0.0281702 0.0115666 0)
(-0.00141601 -0.00191192 0)
(9.61476e-06 1.10272e-05 -4.1013e-21)
(-5.58394e-06 3.02524e-05 -2.21361e-20)
(-0.000582381 0.000293631 6.16563e-21)
(-0.000129001 -0.000235131 0)
(0.00150275 -0.000541458 0)
(-0.000296055 0.000426083 5.23975e-21)
(-0.000626242 -0.00252129 -1.26337e-20)
(-8.68037e-05 -0.00015264 -2.18673e-20)
(0.000112097 -1.17433e-05 3.68121e-21)
(1.59805e-05 0.000146918 3.42584e-22)
(-3.87704e-06 0.000227426 4.29391e-22)
(0.000195488 2.75088e-05 4.37246e-21)
(-0.000619683 -0.00011419 0)
(0.000385525 0.00365653 1.77105e-21)
(0.000444652 0.00229894 5.5496e-20)
(0.00676149 -0.0435001 -2.18531e-21)
(0.0024065 -0.00582793 -6.01018e-21)
(7.25006e-05 7.76003e-06 9.0775e-23)
(0.00146276 0.00149561 -2.54425e-20)
(6.19364e-06 0.000200816 0)
(-4.59274e-05 -1.61986e-05 -1.25825e-20)
(-0.0103833 -0.0139743 -9.84314e-23)
(2.18613e-05 1.52199e-05 0)
(-0.00110073 2.38297e-05 0)
(-7.67684e-05 -0.000353061 0)
(-0.000680348 -1.78746e-05 1.53256e-20)
(3.58634e-05 1.88373e-05 1.27922e-20)
(0.0135859 -0.0812653 4.02283e-21)
(-0.00252069 0.000304787 1.31631e-24)
(0.00173285 0.00156822 1.46686e-20)
(-0.000952926 0.00185556 1.76505e-20)
(0.00240024 -0.00350037 4.51997e-20)
(-0.000116844 0.00152598 -5.20529e-21)
(0.00113912 -0.00469361 0)
(4.37643e-05 5.69614e-06 5.1479e-23)
(-0.0245528 -0.00374519 0)
(-2.69726e-05 0.000171791 0)
(0.00677455 -0.00091864 -1.66399e-20)
(-1.28491e-06 0.000377148 5.06163e-21)
(3.92994e-05 -0.000430704 0)
(0.000510078 -0.0036046 8.32112e-21)
(0.00286328 0.00269657 -4.3401e-20)
(0.000267965 0.00126694 9.35464e-23)
(4.50843e-05 7.37675e-06 5.4255e-23)
(0.000826084 0.000919848 1.79519e-20)
(4.08735e-05 0.000245708 0)
(-0.000817765 0.00280353 -1.46514e-20)
(4.13126e-05 -4.39263e-05 0)
(-2.0367e-05 0.000374517 8.82627e-21)
(0.000292736 -0.00469824 1.53384e-20)
(0.00051778 -0.00319001 1.47884e-21)
(2.37882e-05 3.26948e-06 -4.75913e-21)
(-0.000452377 0.0018409 1.82491e-22)
(0.000118276 -0.000657942 -2.92808e-20)
(0.00116564 0.00131022 4.39729e-22)
(-8.18157e-06 -0.000303036 9.67752e-21)
(0.0013318 -0.00569403 -6.06098e-22)
(0.00285753 0.00260135 0)
(-0.00301771 0.00149902 2.61795e-22)
(5.94728e-05 -0.000908745 0)
(5.0653e-05 0.000236659 0)
(-0.000167255 -4.44552e-05 0)
(-0.000443171 0.001048 9.02749e-23)
(-0.000179058 -5.35949e-05 0)
(-0.000240204 -0.000184888 0)
(-0.000261156 -0.000324025 0)
(0.00114073 0.000321081 0)
(-0.000498599 0.000530439 1.07325e-20)
(3.62617e-05 1.04685e-05 6.36804e-21)
(0.000151776 -0.000468107 1.06658e-21)
(-0.000537026 0.000640955 -1.79676e-21)
(4.39265e-05 -4.59981e-05 -1.02241e-20)
(0.000913915 0.000856158 -3.04664e-20)
(0.000115326 8.31985e-06 -6.19452e-24)
(3.08513e-05 -4.0353e-05 4.81021e-21)
(0.0109189 0.0189006 0)
(-0.00035308 0.00063903 0)
(-0.000313061 -0.000544258 -1.30646e-21)
(-0.000817669 -0.00140593 0)
(-0.000356924 0.00283525 -2.71745e-21)
(0.000112508 -0.000231506 0)
(0.000840361 0.00154492 -2.63752e-20)
(0.00393701 0.00412551 -1.74337e-21)
(-0.000783097 0.00120888 2.61044e-22)
(0.00107998 0.00244931 5.72718e-20)
(-0.027183 0.0119689 0)
(-0.000337115 0.000385023 -8.65682e-21)
(0.000718522 0.00158477 0)
(0.000193869 0.00010038 -2.2985e-20)
(0.00110973 0.000567764 -4.80704e-21)
(-0.0014132 0.00119274 5.04813e-21)
(4.18269e-05 0.000873033 -1.39059e-22)
(0.000117025 9.37127e-07 -5.23157e-24)
(0.000376444 -0.000890744 0)
(0.000104719 -3.98149e-06 -3.17152e-23)
(5.07136e-05 -9.91604e-07 2.86578e-21)
(-0.00039439 -0.000665435 5.96486e-21)
(0.000239837 -0.000768043 0)
(-0.00501386 -0.00637114 0)
(-0.000473467 0.000157764 -1.29346e-22)
(3.39699e-05 3.16285e-05 -6.27198e-21)
(-0.00263815 0.00872514 -6.84389e-22)
(-0.000126717 0.000132928 -1.86007e-20)
(0.000656917 -0.0036667 -1.62888e-20)
(0.00112375 0.000315108 0)
(0.00367857 0.00307476 -4.91687e-21)
(0.000155376 7.48394e-06 -9.63491e-21)
(0.000178691 -0.00459019 1.54257e-20)
(-0.000134572 -0.000237638 -1.65789e-20)
(-6.80476e-05 -4.19759e-05 -2.16682e-22)
(5.01858e-05 -2.05033e-05 9.61328e-21)
(5.55087e-05 9.79561e-06 2.17286e-21)
(8.58817e-06 0.000276769 1.19051e-21)
(-6.26827e-05 0.000385119 -1.02101e-20)
(-0.000892798 -0.000566755 6.28442e-21)
(-0.00136935 0.00117927 -4.52869e-21)
(0.000168559 -0.0007787 0)
(-0.000430011 7.67945e-05 0)
(0.00139346 -0.0535478 7.51065e-21)
(-0.0260992 0.0134475 -1.45689e-21)
(-0.000514668 0.00185544 9.58048e-21)
(0.00125428 0.00115555 2.14131e-20)
(3.1578e-10 -2.91181e-06 -2.05548e-21)
(3.28034e-05 -0.000111323 1.8827e-23)
(-0.00162491 1.93002e-05 1.28865e-20)
(-0.000510303 0.00111554 -1.92539e-21)
(4.04216e-05 -3.23059e-05 0)
(-0.0234673 -0.00450954 0)
(0.000627888 -0.0027309 -4.83182e-21)
(-0.00343764 0.00186144 -1.73045e-20)
(0.000289395 0.00172195 -3.34036e-21)
(4.37241e-05 4.32767e-05 1.46321e-21)
(-0.000635047 -0.00389719 0)
(0.00269186 0.00410624 6.3154e-21)
(-5.77537e-05 -3.34756e-05 7.68132e-23)
(-0.00108137 0.00173994 6.40552e-22)
(0.000250713 0.00109003 1.55436e-20)
(-0.000423783 -0.000216486 -8.9833e-22)
(1.90172e-05 7.88021e-07 0)
(-0.000550025 0.00654389 0)
(1.21726e-05 -1.62851e-06 3.54143e-22)
(-5.31919e-06 -8.30871e-06 4.0585e-21)
(-0.00148314 0.00251253 0)
(-0.000816623 -0.00168163 -6.81718e-21)
(0.000844591 -0.000597896 -5.63348e-21)
(1.56905e-05 1.70785e-06 -6.01783e-22)
(6.66198e-06 8.9482e-06 -4.67772e-22)
(3.5133e-05 2.22149e-06 7.59649e-22)
(3.32651e-05 3.99535e-05 -5.71233e-23)
(0.000722123 0.0036574 -1.70372e-21)
(4.08817e-05 3.73383e-05 -6.48794e-21)
(-0.00482514 -0.0333839 0)
(0.00551876 -0.0691133 0)
(3.3245e-06 -2.95188e-07 0)
(0.000288634 -0.000980979 -2.5401e-21)
(7.48443e-05 -6.87883e-05 0)
(0.00340363 0.0107657 -1.04965e-21)
(-4.97419e-06 0.000588312 -2.7187e-21)
(0.000851986 0.0013788 -5.40977e-21)
(-0.0252145 -0.0179795 1.86227e-21)
(0.000104262 -4.09922e-06 4.15176e-23)
(8.52376e-05 0.000572437 -5.20325e-20)
(-0.000623962 -0.00268212 4.65441e-21)
(0.00167224 -0.00655376 -7.90822e-21)
(8.52005e-05 -6.54084e-05 0)
(0.00149982 0.0003979 -1.83446e-20)
(0.00124497 0.00181983 2.60599e-20)
(-0.00655963 -0.00281599 2.78898e-22)
(-0.00101834 -0.00149553 0)
(1.67257e-05 -0.00126565 -6.27072e-21)
(-0.00119861 0.000712375 2.44762e-21)
(8.95052e-05 0.00011999 0)
(-6.27734e-05 0.000138568 8.58713e-21)
(5.303e-05 -5.17901e-06 4.39656e-21)
(3.08185e-05 -0.000399047 3.50636e-20)
(0.000736628 0.000405537 3.31722e-20)
(-0.0216555 -0.00576474 1.37168e-21)
(-7.56507e-05 -0.000125663 3.83591e-21)
(-0.000881834 -0.00185635 6.32115e-22)
(-0.00558908 -0.000946993 4.36143e-24)
(2.4452e-05 2.30904e-06 0)
(-0.00803305 -0.0292137 3.36792e-21)
(-3.04609e-05 0.000957538 0)
(-0.000286686 -0.000576479 1.19226e-21)
(0.00716074 -0.0591263 -7.75982e-21)
(0.00223525 0.000901412 0)
(-4.29481e-05 -0.000296452 -3.53875e-21)
(0.00292057 -0.00040787 5.93255e-21)
(-0.000527908 -0.000584225 0)
(0.00132865 0.0015183 9.04726e-21)
(3.25223e-05 1.81539e-06 -6.06597e-22)
(2.96928e-05 3.0457e-05 0)
(0.000858338 0.00101135 0)
(0.0025288 -0.00972524 -3.23067e-21)
(0.00036577 0.000756383 -4.43574e-20)
(-0.000191414 0.000193692 0)
(0.000162434 -0.000269686 3.91873e-21)
(-0.000321122 0.00148559 2.55053e-22)
(1.91816e-05 -3.6463e-07 -1.01801e-20)
(9.02616e-05 -0.000987468 1.87334e-21)
(-0.000846417 0.000292158 5.32761e-23)
(0.00699967 -0.00219723 0)
(4.7741e-05 4.63777e-06 -3.43094e-21)
(-0.00347982 -0.00356723 0)
(-0.000182948 -0.000531755 -4.97177e-22)
(4.76988e-05 -0.000102817 0)
(9.30527e-05 7.1822e-06 -6.70115e-23)
(-0.000129439 -0.000170415 -4.34026e-21)
(0.000257921 0.000521663 5.73872e-22)
(3.70776e-05 -0.00336165 -9.3594e-22)
(-3.92299e-05 0.000203371 0)
(-2.32635e-05 0.000283924 1.64669e-22)
(0.0181001 -0.0548308 3.76994e-20)
(0.00040227 -0.000417585 -3.61256e-21)
(0.000278039 0.000846645 4.18228e-20)
(-0.000660872 0.000909501 -3.64025e-21)
(-0.00543622 0.0122614 5.37498e-21)
(0.000104222 -1.98709e-05 5.79775e-23)
(-0.0136347 -0.0146624 0)
(0.000103615 -1.99412e-05 -4.06212e-23)
(-0.0116142 -0.0264076 1.37235e-22)
(-0.0160825 -0.00395034 0)
(0.00106377 0.000325938 -9.90486e-21)
(2.02346e-05 0.000280799 -1.62917e-23)
(0.00503143 0.0123609 -4.65849e-21)
(0.000329213 -0.000612823 0)
(0.00105231 0.00232574 1.75725e-19)
(0.00112642 0.000220247 -1.64144e-20)
(5.21204e-05 5.60136e-06 -4.9928e-21)
(-0.000683478 0.000822594 -9.5884e-23)
(-0.0115339 0.0203554 -1.91633e-21)
(-3.53509e-05 -0.000387801 0)
(5.21304e-05 -3.25307e-05 0)
(0.000353432 0.000445738 0)
(4.95036e-05 -0.000326294 8.04088e-21)
(0.000189747 -0.000341018 -3.66966e-20)
(2.61253e-05 0.000204803 0)
(-0.00268432 0.00126161 1.76284e-20)
(7.7924e-06 0.000254501 -4.04919e-22)
(5.1175e-05 -6.28846e-06 4.96035e-21)
(0.000984696 -6.59267e-05 8.06424e-21)
(-3.58183e-06 0.000221484 3.76278e-21)
(0.000963912 0.00106441 0)
(0.000162158 0.000382684 0)
(0.00106096 0.00111642 0)
(3.21604e-05 1.73449e-05 -6.61586e-24)
(1.91523e-05 -1.27705e-05 9.26835e-21)
(-0.000577061 0.00274758 2.77752e-20)
(0.000275707 0.000375177 0)
(0.000559778 -0.00019301 -1.27032e-21)
(3.57088e-05 4.90533e-05 -3.45965e-21)
(5.09087e-05 5.25885e-06 1.82727e-21)
(3.90507e-05 1.07185e-05 -9.50037e-21)
(0.000729795 -0.00152717 1.02935e-20)
(0.000245011 0.000117272 0)
(3.18764e-05 -4.12815e-05 8.43807e-23)
(-6.88759e-05 -0.000836554 0)
(-5.26915e-05 -0.000202879 -4.00712e-21)
(0.00019451 0.00024928 0)
(5.92398e-05 1.45529e-05 -2.71915e-20)
(0.00812343 0.0178403 -4.4007e-22)
(0.000529763 0.00107055 2.43857e-20)
(-0.00045281 -0.00363711 9.56698e-21)
(-0.000859691 -0.00137908 0)
(2.0383e-05 -1.8858e-05 0)
(-1.48456e-05 3.45568e-05 1.15994e-20)
(0.000418247 0.0118482 0)
(0.0611808 -0.0248347 3.25375e-21)
(0.000920386 -0.00509484 -3.82872e-21)
(6.03312e-05 3.16086e-05 4.88888e-21)
(1.82785e-05 -1.19629e-06 1.09926e-20)
(0.000601158 -0.00644423 0)
(-0.00336482 0.00124029 -5.71078e-23)
(-0.00849746 -0.00289837 -3.30588e-22)
(-0.0171647 0.0167336 6.59925e-23)
(-0.00650518 0.00839726 0)
(2.46919e-05 3.31182e-05 -2.65094e-20)
(-0.0020675 0.00219244 0)
(0.00288114 0.00295609 -1.62774e-20)
(0.000278239 0.000408697 7.30302e-21)
(0.00182618 1.27357e-05 5.15221e-21)
(0.00588219 0.00720875 0)
(-0.00592665 0.00126683 -9.01743e-24)
(5.03536e-05 7.21706e-06 0)
(0.00145243 0.0034034 -8.75669e-21)
(0.000336903 0.000231096 0)
(-0.0130614 0.0164651 2.03443e-21)
(3.56799e-05 2.79351e-06 0)
(-0.00273988 -0.0429663 2.66481e-21)
(-0.000934166 0.000837746 0)
(7.51385e-05 0.000231345 -9.59894e-22)
(-0.000873619 -0.000122459 0)
(0.0179029 -0.0310071 2.59962e-21)
(-0.00599032 0.00582391 -7.4448e-21)
(4.01306e-06 0.000279996 0)
(0.000120802 6.92802e-07 2.34358e-23)
(-0.00318068 0.00184791 0)
(-0.00145751 -0.00224981 1.95715e-20)
(-0.000216571 7.91164e-05 -1.29194e-20)
(5.78557e-05 0.00146155 -3.74405e-21)
(7.73199e-06 -1.78135e-07 -2.00925e-23)
(0.0010503 -0.000229397 2.3444e-21)
(0.000890149 -0.00446477 1.11834e-21)
(0.000476938 0.000340735 0)
(0.000123254 5.68103e-05 3.40452e-21)
(2.70613e-05 -4.92836e-05 0)
(-0.00643785 -0.000752359 0)
(1.76486e-05 2.25362e-05 1.38908e-20)
(0.000128948 7.72631e-06 -9.77281e-23)
(0.000150556 -0.000906293 -1.82755e-22)
(0.000127628 6.82376e-06 4.83471e-23)
(0.000120427 -0.000166118 0)
(0.00132862 0.00138618 0)
(3.59132e-05 1.71182e-06 -8.10778e-22)
(3.81075e-06 -0.000157301 2.33334e-20)
(2.06977e-05 -9.94836e-07 3.20669e-22)
(0.00663696 -0.00324892 0)
(0.00368901 0.00735636 8.637e-22)
(-2.63643e-05 5.71484e-05 1.31983e-21)
(-0.000638606 -0.00276099 -8.30162e-21)
(0.000533195 -0.000314495 4.91313e-21)
(-0.00158838 -2.82059e-05 4.36816e-21)
(-0.00362422 0.000488482 2.08339e-21)
(5.44894e-05 0.00241971 7.02049e-21)
(-0.000872401 -0.00135104 0)
(-3.5477e-05 1.43264e-05 1.28052e-20)
(0.00170502 -0.00423441 0)
(6.33898e-05 -0.000802222 0)
(4.15249e-05 -4.6722e-06 1.98159e-21)
(-2.96342e-05 0.000197928 -4.14345e-21)
(0.000276879 0.000594864 3.75276e-20)
(-1.70766e-05 -2.9056e-05 1.77844e-20)
(0.00702071 0.0024269 0)
(6.59509e-05 4.76458e-05 0)
(-0.00149241 -0.000706212 0)
(5.08303e-05 5.73134e-06 4.74098e-22)
(-0.00742718 -0.00348308 4.95145e-22)
(0.00124267 0.000422299 0)
(-8.19697e-06 0.000126011 -1.21026e-23)
(0.000230791 0.000147803 -2.74519e-20)
(1.92201e-05 8.50561e-06 1.21616e-20)
(-0.000892617 -0.00269641 2.44305e-20)
(0.000651242 0.00111763 3.26088e-21)
(0.000299253 0.000294716 -9.5319e-21)
(-0.000341229 0.00426479 0)
(0.000158413 -0.0101299 6.1302e-22)
(-6.0147e-05 0.000116968 -6.40794e-21)
(0.00517334 0.00620802 0)
(0.00072075 -0.0114601 4.41286e-21)
(0.0251399 -0.00357576 2.4676e-21)
(0.000523965 0.00101468 -2.8507e-21)
(0.0021602 0.0031119 -1.41212e-20)
(3.80657e-05 5.67015e-06 -2.05307e-21)
(0.000479736 0.000469739 -4.18666e-20)
(6.33335e-05 -0.000102346 0)
(0.000513829 0.00175738 0)
(0.000943758 -0.000541416 2.32206e-21)
(0.000601144 0.00140427 1.06779e-20)
(2.64838e-05 4.35475e-06 -1.05935e-20)
(-0.0223532 0.0420118 2.2277e-21)
(8.59243e-05 1.53416e-05 -5.5367e-21)
(-0.0001191 8.85383e-05 -1.06247e-20)
(-0.000166271 -0.00129161 -4.23296e-21)
(-0.000133468 -0.000333587 -7.68628e-22)
(6.05733e-05 8.99509e-06 2.09125e-21)
(-0.000393642 -0.00102012 0)
(-0.00426781 -0.00305559 2.84834e-21)
(6.80416e-05 2.59843e-06 0)
(1.90269e-05 5.48708e-05 -1.89585e-20)
(6.26434e-05 -0.000475808 -2.98411e-21)
(-0.0126029 -0.037352 1.05051e-21)
(0.00074048 -0.00325043 0)
(1.66231e-05 -9.24316e-07 3.82483e-21)
(-0.0044795 -0.0287728 -3.02338e-22)
(0.000611437 0.000805781 0)
(-0.000755124 -0.000816397 9.79235e-21)
(-0.000195556 -0.000179663 0)
(0.059633 -0.0203171 -1.74272e-21)
(-2.38023e-05 0.000134425 -7.36515e-23)
(0.000723889 -7.00328e-05 0)
(4.37626e-05 -6.35228e-06 2.0651e-21)
(0.00313941 0.00194849 -1.82695e-21)
(-0.000973486 -0.00135152 1.92071e-20)
(-6.01413e-05 0.00586618 -2.11305e-21)
(-0.0227417 -0.015089 -6.13213e-21)
(-0.000220433 2.73595e-05 0)
(8.22937e-05 0.000154331 0)
(0.000735381 9.59526e-05 0)
(-1.29866e-05 -9.3158e-05 -2.2203e-21)
(5.5791e-05 -0.000105689 0)
(0.00131744 -0.00533071 0)
(2.27933e-05 7.86646e-05 0)
(0.00145102 -0.00257492 0)
(8.25455e-05 -0.000314099 4.29939e-21)
(6.16287e-05 1.06564e-05 -4.02683e-23)
(1.8122e-05 -0.000225793 -1.29877e-20)
(-0.0245278 0.0151541 -1.58669e-21)
(-0.000135817 0.0017099 0)
(0.000180167 -0.00288604 7.22808e-21)
(0.000134889 -1.19086e-05 -2.60142e-21)
(-4.71079e-05 0.000253254 6.73658e-21)
(-0.00140379 0.000295963 -7.94994e-23)
(7.00105e-06 7.93824e-05 -5.62964e-21)
(0.000103211 0.000326611 4.4433e-21)
(0.000833008 -0.0013173 0)
(6.21737e-05 -9.65843e-05 7.43938e-25)
(6.96303e-06 7.73949e-06 -8.3801e-21)
(-2.09094e-05 0.000304319 2.35975e-21)
(6.31141e-05 -0.00103584 0)
(-0.00718017 -0.00642172 9.84143e-22)
(-2.52385e-06 -3.32614e-05 -7.38513e-21)
(5.80909e-05 1.28112e-05 4.65614e-21)
(0.000370786 0.0016529 -3.1346e-20)
(-0.00970877 -0.00327677 -8.40212e-23)
(0.000396518 -0.000201271 5.54023e-23)
(-0.0270845 -0.00769478 2.50238e-21)
(-6.2224e-05 0.000969537 -3.61901e-21)
(-0.00468182 -0.000170089 3.16586e-22)
(-3.48451e-05 -0.000854663 0)
(0.000117961 9.3413e-05 0)
(3.60565e-05 4.08293e-05 1.87285e-20)
(0.00272913 0.00398555 2.73627e-21)
(0.00160622 -0.00010104 9.77671e-21)
(0.00372101 0.00443313 -7.14699e-21)
(0.00196712 0.00289065 0)
(4.0609e-05 6.45135e-06 -5.46081e-21)
(0.00208828 0.00258088 0)
(0.000306091 -0.000172827 -1.25141e-20)
(-0.002068 -0.00166715 -9.49536e-21)
(-0.000248539 -0.000702808 5.42937e-22)
(-0.000168047 -0.00110042 2.80078e-20)
(-0.00186408 0.000278825 2.62305e-20)
(0.000326763 0.00212166 0)
(0.000851331 0.000881534 1.85591e-20)
(-0.000854929 0.00362409 0)
(-0.000882046 0.00629139 8.93152e-21)
(3.72926e-05 -1.95084e-05 3.58612e-22)
(-0.000502325 1.33917e-05 -1.21483e-21)
(6.60547e-05 0.000169533 -1.09114e-20)
(0.00146019 -0.000244276 5.74151e-21)
(2.51727e-05 6.19048e-05 -1.1176e-20)
(5.51221e-05 -0.000119515 0)
(-7.69913e-05 -0.000738699 -8.6539e-21)
(-0.000140557 -0.00118583 -1.88942e-21)
(0.000626402 -0.000182873 0)
(-4.87952e-05 0.000279007 7.47802e-21)
(-0.00208497 0.000794951 4.33107e-21)
(0.0598348 -0.0297235 -1.48378e-21)
(0.000473784 0.00415585 1.78308e-22)
(0.0044256 0.00746433 0)
(-0.00661793 0.0225625 -2.89743e-21)
(-0.00103077 0.000974844 0)
(0.000121652 -5.75366e-06 0)
(0.00430863 0.000113473 0)
(0.00103234 0.000261948 -1.10866e-20)
(0.00260283 -0.00303844 0)
(-0.000456304 0.000164438 6.86001e-20)
(0.000268492 0.000625881 -1.00818e-20)
(0.00158547 0.000572574 1.33813e-22)
(0.00166256 0.00149664 -8.36386e-22)
(-0.00219246 -0.0217292 5.88867e-21)
(1.14548e-05 -0.000488589 0)
(-0.000934617 0.00216204 1.41712e-20)
(0.000258194 0.000603329 -2.29013e-20)
(-0.0018358 0.0014433 -2.08095e-20)
(-8.25219e-05 4.44368e-05 3.9986e-23)
(1.71292e-05 2.00629e-06 6.45521e-21)
(0.000652297 -0.00409639 -1.1218e-19)
(0.0203462 0.0255546 -8.07203e-21)
(-4.10281e-05 6.90049e-05 -1.26567e-20)
(-7.29912e-05 7.8275e-05 1.90436e-22)
(-0.00901817 -0.00429203 1.06663e-21)
(0.000254864 0.000307015 -1.27706e-23)
(4.94005e-05 1.65255e-05 2.79882e-21)
(4.6243e-05 -3.31037e-06 0)
(-0.000194084 0.000152976 1.39139e-20)
(3.30935e-05 5.45196e-06 0)
(-1.76946e-05 -5.08562e-06 7.02251e-21)
(0.00255697 0.00266463 -2.61969e-21)
(8.15322e-06 3.89576e-05 6.55893e-21)
(0.000545102 -0.00077347 -4.65434e-20)
(4.6461e-05 -7.27711e-05 0)
(0.000233005 -9.18088e-05 -3.50398e-21)
(2.38952e-05 3.93202e-05 6.12863e-21)
(3.26762e-05 4.51032e-06 0)
(-0.000241758 -0.00338161 -5.72546e-21)
(-0.000203002 -0.00234753 -4.12615e-21)
(2.55625e-05 5.4748e-05 -1.72856e-20)
(1.26817e-05 8.65354e-06 0)
(1.87852e-05 1.34519e-07 -1.17546e-20)
(0.00031198 0.000805554 -4.40215e-21)
(2.17047e-05 9.35053e-06 -6.18999e-21)
(5.08274e-05 1.3142e-05 2.69206e-21)
(-5.74923e-05 -0.000726236 0)
(0.00835738 -0.00295926 0)
(-0.00282494 -0.00276339 1.17925e-20)
(0.000228343 0.000306699 4.77489e-24)
(-0.0172383 0.00547602 -1.0603e-21)
(2.52556e-05 7.27838e-06 0)
(0.00111413 -0.00106027 0)
(2.35169e-05 0.0002411 0)
(0.00793148 0.00273497 -2.15239e-21)
(0.0336538 0.00924287 0)
(0.00647231 0.00448967 0)
(0.000118555 1.61444e-05 0)
(0.000852019 0.0027474 -7.67792e-22)
(0.00012626 4.86953e-06 -2.98674e-21)
(0.00715599 0.00961378 1.36821e-21)
(3.05096e-05 6.68141e-06 1.32275e-20)
(-0.00163371 0.00158869 -1.87182e-21)
(-0.000134623 -3.41317e-05 1.59825e-20)
(0.013728 0.0286925 0)
(0.00115165 -0.00107053 0)
(-8.11135e-05 2.70846e-05 0)
(-0.000198153 -0.000301153 0)
(-0.00670901 -0.03308 -1.35501e-21)
(0.000209313 0.00121222 0)
(0.000905377 -0.00103651 0)
(0.000408909 0.00256108 3.12266e-23)
(-0.000251152 -0.00106095 -2.79174e-20)
(-0.00374089 0.00250286 -9.0016e-21)
(-0.000809496 0.000105055 0)
(0.00271288 -0.00126391 -2.16331e-21)
(-3.121e-07 -9.18282e-06 2.64017e-20)
(-0.0175774 0.016196 5.47875e-21)
(-0.0011189 0.000612551 -2.7495e-21)
(-0.000846078 0.000755047 0)