/*--------------------------------*- C++ -*----------------------------------*\
| =========                 |                                                 |
| \\      /  F ield         | OpenFOAM: The Open Source CFD Toolbox           |
|  \\    /   O peration     | Version:  v2012                                 |
|   \\  /    A nd           | Website:  www.openfoam.com                      |
|    \\/     M anipulation  |                                                 |
\*---------------------------------------------------------------------------*/
FoamFile
{
    version     2.0;
    format      ascii;
    class       volScalarField;
    location    "150";
    object      p;
}
// * * * * * * * * * * * * * * * * * * * * * * * * * * * * * * * * * * * * * //

dimensions      [0 2 -2 0 0 0 0];


internalField   nonuniform List<scalar> 
14315
(
0.00448213
-0.105295
0.00106632
-0.0294235
-0.0293229
-0.00594918
0.000823357
-0.00815855
-0.0987873
0.00255528
0.00261012
0.0021328
-0.0845244
-0.0097793
0.000708715
-0.00827321
-0.00459502
-0.0931946
0.00134903
-0.00839246
-0.0550925
-0.00371829
0.00042102
0.00271865
-0.124127
-0.0113733
-0.100012
0.00261982
-0.0998662
0.000979199
-0.0524187
0.00113531
-0.159227
0.00022209
-0.0162388
0.00111226
0.00123936
-0.0158779
0.000284812
-0.0211113
-0.0990114
-0.0116529
-0.0265329
-0.0755813
-0.0700086
-0.0333113
0.000821084
0.00267158
-0.00836813
-0.0261558
0.00121913
-0.0780974
0.00122177
0.00195105
0.00125707
-0.0180513
0.00313612
0.00254933
-0.0112274
-0.126894
0.00191046
-0.032926
-0.0488371
0.0014962
-0.00340314
-0.00147593
0.00112137
-0.0513767
-0.0153657
0.00109755
0.00201758
0.00146964
0.00173286
-0.0125897
-0.00381581
-0.00725527
0.00149658
-0.0394752
0.00108314
-0.0763849
-0.00177138
0.0208231
-0.00788737
0.00147391
0.00121736
-0.108507
-0.0693318
0.00171474
0.00174377
0.00208884
-0.0626949
-0.0825371
-0.0831011
-0.000797814
0.000965801
-0.00172404
0.00116424
0.000434522
0.000879263
-0.0113502
-0.00630556
-0.000602245
0.000352838
-0.0273208
0.00173518
-0.00435954
-0.0205917
-0.0442776
-0.020714
-0.0713292
-0.0332991
-0.065568
-0.00211392
-0.0893894
-0.00353963
-0.0762533
-0.0246633
-0.0160144
-0.1364
0.0193441
0.00279061
-0.00474005
0.00131689
-0.0539515
-0.0791854
-0.00323704
-0.0204724
0.00506348
-0.00136692
-0.00649978
-0.0601334
-0.121263
0.0267833
0.00591902
-0.00646428
-0.00110026
-0.124021
-0.0870625
-0.102684
-0.0212372
-0.0702023
-0.0793586
0.00100181
-0.119394
-0.162319
-0.0121257
-0.00200588
0.00265054
-0.0617752
-0.0702492
-0.00654737
4.96869e-05
0.00150116
0.000107032
0.000890539
-0.0202446
-0.0259426
0.000144436
0.00576478
-0.0746605
-0.0349249
-0.0133297
-0.159081
-0.0613792
0.000507428
-0.103501
0.000196154
-0.0310822
0.000807169
-0.0056223
-0.13766
-0.0789779
-0.030107
-0.0352153
-0.109959
0.0295786
0.00220391
-0.00305595
-0.0660622
-0.0848747
-0.155096
-0.0528383
-0.00636329
-0.0210143
-0.0534361
0.0234291
-0.0344895
-0.0354743
0.000226972
-0.0627808
-0.0100998
0.0171651
-0.102237
2.09322e-05
0.000429473
-0.0199895
0.00299606
-0.00619119
-0.0355774
-0.058791
-0.158777
-0.00495102
-0.000745351
-0.011978
-0.0294848
-0.00336591
-0.0105191
-0.075966
0.000619801
6.64658e-05
4.49649e-05
-0.0126755
-0.0858234
-0.0306285
-0.159037
-0.0387286
-0.0716833
-0.00625329
-0.00657449
0.000800712
-0.0788952
-0.0173628
-0.0800432
0.0238339
-0.0379359
-0.0318996
-0.0236146
-0.0598993
0.00123577
-0.0335223
-0.0194158
-0.129588
0.000792368
0.00036199
-0.0268806
-0.0368184
-0.0739481
-0.0272136
-0.0116727
-0.122337
-0.135776
-0.0539989
-0.00154151
0.0263366
-0.0775375
-3.44576e-05
-0.133246
0.0010658
0.00121407
-0.000160381
-0.0260809
0.00201763
-0.150108
0.00128167
-0.00854832
-0.134439
-0.134397
-0.0658121
-0.162263
-0.011478
-0.000484591
-0.0283755
-0.0381765
-0.145249
-0.0397759
-0.0814577
-0.0195959
-0.156567
-0.0530755
-0.0510521
0.00520898
-0.000835172
0.000416906
4.67408e-05
0.000643218
0.000921838
-0.0906292
5.60674e-05
-0.0295607
-0.0517465
-0.00373694
-0.0622884
-0.00676164
-0.0468151
-0.028695
-0.0973596
-0.106371
-0.0402097
0.000619949
0.00209933
-0.0889629
-0.00476967
0.000474205
-0.0804325
0.000966306
-0.0137614
0.00121495
-0.155868
-0.00911699
-0.00646245
-0.0532608
-0.0097297
-0.0103606
-0.0248131
-0.0301679
0.00153432
-0.027889
-0.0540644
-0.0393362
-0.0493433
0.000761667
0.00078653
-0.0511797
-0.0685224
-0.0187437
-0.0794607
0.0162218
0.000488408
0.00056934
-0.101263
-0.0146865
-0.0110132
0.00207655
-0.00879554
0.00206415
-0.0421438
-0.0725976
-0.00327753
0.00548712
0.00113596
-0.0913779
-0.0772776
-0.0827178
-0.0853277
-0.132573
0.000807859
0.00262309
-0.0345426
-0.110706
-0.0205042
-0.0499751
-0.131735
-0.0792657
0.000852992
0.000806185
-0.100035
-0.159849
-0.0976505
0.00118485
-0.0198046
-0.128363
-0.0836124
-0.00399068
0.000621318
-0.0467006
-0.0711176
-0.0532669
-0.119187
-0.131474
0.00118387
-0.0517455
-0.16023
0.00104619
0.00173602
0.00101963
-0.0395694
-0.0674199
-0.0109813
-0.027564
-0.00326893
-0.100582
-0.15934
-0.0501841
-0.0792171
0.000409163
-0.00851168
-0.00101543
-0.162326
-0.0494977
0.00239154
-0.0210027
-0.00725805
-0.0912291
0.00247493
0.000642686
-0.067978
0.00138102
-0.0286853
-0.128913
-0.0747039
-0.109333
-0.0312705
0.00157839
0.000359561
-0.00611105
0.000237494
0.000545584
-0.0368017
-0.00545544
0.00609685
0.00175473
-0.00419458
-0.0188756
-0.033292
-0.134015
-0.0818355
-0.132162
-0.0655201
-0.0646793
-0.0486751
0.00101364
-0.00862614
-4.786e-05
-0.159403
-0.0591153
-0.0367303
-0.0312204
-0.0677617
-0.0277112
0.00409517
0.000396289
-0.10129
-0.0769826
-0.0101653
4.18755e-05
-0.0495471
-0.0632266
-0.0131902
0.00263541
-0.102284
-0.0738406
0.0011449
-0.00351924
-0.064442
0.00233652
0.00103384
-0.100502
-0.0800012
-0.0628036
-0.00542341
-0.0916429
0.000955979
-0.00523948
-0.0761053
-0.11751
-0.0869735
0.000971768
0.000955845
0.000969575
-0.00457635
0.00196772
-0.00330576
0.0148067
0.00233691
0.000972682
-0.16196
3.01038e-05
-0.000644138
-0.0396572
-0.0163524
-0.000469413
0.000219128
-0.0648031
-0.144231
-0.0902459
6.47697e-05
-0.09447
-0.109713
0.00710865
0.00261954
-0.0856729
-0.0324036
-0.0134826
-0.0274857
-0.000901568
-0.0439282
-0.0751817
-0.00321768
-0.0193509
0.00257985
0.000633754
-0.00393386
0.0112064
-0.019887
-0.0300779
0.00654435
-0.0871541
-0.00621428
-0.105169
-0.034285
-0.111633
0.00087266
-0.00361313
-0.0178169
-0.117788
-0.0661477
-0.0792205
-0.00833756
-0.0357776
-0.00349259
-0.161039
0.00194691
-0.0804427
-0.000108371
-0.0450676
0.0019609
3.34688e-05
0.000701239
-0.0413408
0.00152864
-0.0612859
-0.018351
-0.0290135
0.020117
0.0013186
-0.0646307
-0.0390279
-0.0188852
0.00015581
0.00420822
0.000165501
-0.000511062
0.0035218
-0.0920945
-0.159104
0.0016885
-0.0496523
-0.0691597
-0.0902108
-0.000911664
-0.0259514
-0.0016239
-0.0113568
0.00111111
-0.00026541
-0.00665084
-0.0420156
0.000725301
-0.14453
0.000750908
-0.0013407
-0.0898687
-0.161144
0.00147025
-0.00066559
0.00146401
0.000826004
-0.00512052
-0.0959509
-0.000449979
0.00116785
-0.00456634
0.000276109
-0.00315819
-0.0809324
-0.0154429
-0.0087377
-0.051007
-0.00607776
-0.000791819
-0.0261311
-0.000560725
-0.0596555
-0.12251
-0.0898412
-0.00500364
-0.0214032
0.000299099
0.0303571
0.0012531
-0.00233687
-0.00332647
0.00173963
0.00103155
-0.0296731
0.00428639
0.00177052
-0.00904288
-0.0876985
-0.0914504
-0.0177581
-0.119375
-0.0132049
0.000367313
0.0008064
-0.0910772
0.000570399
-0.00150468
-0.00310001
-0.000147548
0.000672413
-0.00184767
-0.061837
0.0163557
-0.13601
-0.16065
0.000377808
0.000845046
-0.13293
-0.0471429
-0.0812
-0.00644126
-0.0101314
0.00276834
0.000511841
-0.0148049
-0.00833295
0.00646967
-0.0091772
0.000486095
-0.0784702
0.000479613
-0.0414745
0.00145339
0.000974311
-0.0148211
0.000981406
-0.078285
-0.015394
-0.0138445
-0.144951
0.00135808
-0.0738997
-0.152163
0.00196272
0.00251278
-0.0142666
-0.0925407
-0.0478096
0.000962245
-0.161004
-0.0777346
-0.0268798
-0.106348
-0.00216539
-0.0385425
0.000301421
-0.0320452
-0.0127707
0.00079204
-0.0735038
-0.00613224
-0.0456981
-0.0183101
-0.0657263
-0.0855109
0.00459333
-0.0168176
0.00189704
0.00431866
-0.000154881
-0.0161357
-0.131715
-0.00300401
-0.0701987
4.04869e-05
-0.125822
-0.00969341
-0.0721265
-0.00412882
-0.0153376
-0.00139097
-0.0514425
-0.161164
-0.0387015
0.000221791
-0.162845
-0.0430898
-0.0013417
-0.00954336
-0.08397
-0.00123285
-0.129477
-0.00486924
0.00107404
0.000471235
-0.0517541
-0.0299961
0.0230268
0.000819298
0.000980959
0.000817184
0.00222891
-0.0484936
-0.123565
0.00806363
-0.0250272
-0.0139022
0.00067629
-0.0152558
3.73137e-05
-0.0829406
-0.0213202
-0.00252845
-0.00790237
0.000288568
-0.00804342
-0.0164103
-0.0862518
-0.119203
0.00109179
-0.0242399
0.00208626
-0.0218193
-0.0170394
-0.0906003
2.68015e-05
-0.00898648
-0.161109
-0.108305
0.000345535
-0.00560446
1.6982e-06
-0.107798
-0.0257932
0.00108744
0.00426046
0.000394135
0.0004001
-0.0796077
-0.0173816
-0.00952751
-0.14499
-0.0881442
0.00215021
-0.0161872
-0.000912222
0.00204106
-0.0742519
-0.11169
0.00218895
-0.0794322
-0.0744728
-0.0843079
-0.086395
-0.112625
-0.10909
-0.0045302
-0.0356424
-0.0679726
-0.00203739
-0.00907279
3.99683e-05
-0.060404
-0.160039
0.00119463
-0.0300295
-0.032582
0.0313633
0.000368973
-0.0131734
-0.0030831
-0.059605
0.000348213
8.97905e-05
-0.0957483
-0.0888779
-0.114548
-0.0184285
0.000419896
-0.156013
0.00210825
-0.161927
-0.0456164
-0.0645362
-0.119703
0.000913806
-0.00477934
-0.0714677
-0.0069102
-0.0217754
0.000892727
-0.0279145
0.000619303
-0.00294352
-0.000604802
-0.0912463
0.000954639
-0.0249637
-0.142725
-0.0117839
-0.0847652
0.00115323
-0.0170658
-0.00852831
0.000963981
-0.126773
-0.13528
-0.0150916
-0.00491778
-0.00434459
-0.112892
-0.00464967
-0.00292081
-0.0511457
-9.92605e-05
-0.13729
0.000637121
0.00198417
-0.00437326
0.000478082
-0.0666962
-0.000823524
-0.000480385
-0.0124294
0.00091749
9.57673e-05
0.000976878
-0.00150442
-0.00867067
-0.0310004
-0.0238499
-0.00568893
-0.132057
-0.0048
-0.0430436
-0.000424848
-0.0191846
0.000471511
-0.0522216
-0.0784536
-0.147545
-0.00126622
-0.00601316
-0.0329653
-0.0153841
-0.0322898
-0.000284902
-0.0568455
0.00221888
-0.0377254
-0.0433685
-0.0260494
0.00130636
-0.0849171
-0.0894202
-0.0265084
-0.0045579
-0.156072
-0.064551
0.000977705
-0.0806718
-0.0797959
-0.00247476
0.000715608
-0.0537578
0.000893172
-0.00468481
-0.00577564
0.00079711
-0.0160904
-0.0032225
-0.060211
0.00685548
-0.0295121
0.00120135
-0.000268387
-0.0113315
-0.116465
0.0016115
-0.0456863
0.00102992
-0.00563557
-0.0688636
-0.0236523
-0.00349468
-0.0382551
-0.0784966
-0.0126699
-0.00252107
-0.0382347
0.000996254
-0.0134175
-0.153546
-0.0108655
0.00064671
-3.3052e-06
-0.0087899
0.00236241
0.00103988
-0.063032
-0.0681265
0.000508006
-0.162531
0.0026313
-0.087753
-0.0676609
-0.00425143
-0.159606
-0.00248707
-0.00441074
0.00202739
-0.0337891
-0.0007589
0.0218238
-0.0183657
-0.00260207
0.000816526
-0.0171869
-0.0616035
-0.00197997
-0.093555
0.000923646
-0.0970133
0.00147343
-0.102493
0.000531085
-0.0832487
-0.00120102
0.00179541
-0.0124288
-0.0327653
-0.00251557
3.22162e-05
-0.0206076
-0.0395174
0.000676727
0.000447713
-0.0580486
0.000956513
0.00148485
0.000471874
-0.0181412
0.00201401
-0.0509366
-0.00463034
-0.0751909
0.00131238
2.32794e-05
0.000571734
-0.0607964
-0.0632963
-0.00304017
0.00935754
-0.108259
-0.018512
-0.0147823
-0.00172202
-0.120998
-0.0312229
-3.38758e-05
-0.0250012
-0.0337271
-0.0892887
-0.000550454
0.0207354
-0.160173
-0.139687
-0.0433506
0.00153358
-0.0201357
0.00041656
0.0104735
0.00154819
-0.0139733
-0.159294
-0.0407872
4.38955e-05
-0.109341
-0.0491529
-0.0986925
-0.00402653
-0.0533432
0.00216976
-0.0700576
-0.00182402
0.000465939
0.000435487
-0.00274758
-0.0247163
-0.116894
-0.00338328
0.00068562
-0.000474466
-0.108332
-0.0169969
3.05798e-05
0.00298715
-0.00427411
-0.026473
0.000597245
-0.0290139
0.00827687
-0.0501743
-0.0689494
0.00211192
0.00315413
0.000873073
-0.0555369
0.000870038
-0.00648541
0.00409001
-0.0257547
-0.0571468
-0.00297592
-0.0129365
-0.00411411
-0.00498576
4.76087e-05
-0.114887
-0.0291536
-0.0496321
-0.0178475
0.000704268
0.000630231
0.00157159
-0.0892181
-0.000421093
0.00428293
-0.0715767
-0.0853355
-0.0737262
-0.000905342
0.00733046
8.56147e-05
-0.0191376
0.000898297
-0.0135201
-0.0553045
-0.0532586
-0.0344312
-0.110098
-0.0508409
0.000857391
-0.120864
-0.00326631
-0.0175602
0.00053283
-0.054613
0.000143036
0.000396455
-0.0297856
0.00173539
-0.00776619
-0.00216156
-0.00444449
-0.0568423
-0.0485859
0.000533196
-0.000860134
-0.0804409
-0.0536782
-0.0448743
0.000461213
-0.0171107
-0.0438518
-0.157925
-0.0706059
-0.105619
-0.0144319
-0.049023
0.000243694
-0.000620596
-0.00310581
-0.0393928
-0.00404434
0.000807902
0.00147094
-0.021195
-0.03739
0.000982948
0.00592664
-0.0328654
-0.0802718
-0.0914052
-0.157466
-0.0188191
-0.0890994
-0.0346775
-0.0160622
-0.0350436
-0.137041
-0.0930285
0.00206412
-0.0111447
-0.0891127
-0.0543073
-0.0755926
0.00196092
0.00107891
-0.00411918
-0.0246638
-0.0186747
-0.012955
-0.00526508
0.0153614
-0.0747002
0.00397797
-0.0131167
-0.0331873
-0.00273455
0.000208569
-0.0403834
-0.000265358
0.014318
-0.0244624
-0.0526829
-0.0645589
-0.00136378
-0.161085
-0.0920752
-0.0636207
-0.0300861
-0.0790088
0.00129191
-0.0129536
-0.0532972
-0.00327637
0.00130888
-0.0907694
-0.0578238
0.00664354
0.000135767
-0.000593786
-0.000165347
0.00239876
-0.000744496
-0.00354164
-0.000487981
0.000454858
0.000437724
0.000724176
-0.0906133
-0.00889414
0.000195958
-0.118243
-0.160572
-0.0237926
-0.0139009
-0.061285
-0.0376314
-0.0658053
-0.0883771
-0.004191
-0.00651325
-0.00307429
-0.0875945
-0.0124698
-0.0852688
-0.0975177
0.00113221
0.00153124
-0.0805143
1.8093e-05
0.00127195
-0.162941
3.17184e-05
-6.4799e-05
0.000994174
-0.107027
0.00103544
-5.75708e-05
-0.000526501
-0.00300118
0.00185195
-0.162855
-0.0875391
-0.00399545
0.000733457
-0.13748
-0.0751955
0.00120887
-0.033522
0.000759192
-0.0445245
-0.00263101
-0.0253311
-0.00566901
0.00127927
-0.0824737
-0.00924362
0.00128548
-0.00277413
0.00132734
0.000999122
0.00179215
0.0028683
0.000985175
-0.00857898
-0.0424895
-0.0142581
-0.00229588
-0.00806193
-0.0438306
-0.0467523
-0.0569528
-0.000460459
-0.0144268
-0.0107181
-0.00296165
-0.163501
0.00142781
-0.0169563
-0.162077
-0.00294469
-0.0860323
0.000174534
-0.0936131
-0.0146955
-0.00124063
-0.0625529
-0.0743431
0.00182214
-0.0606665
0.00256014
-0.0190133
-0.0220318
-0.0633029
-0.105975
0.0037867
-0.066223
-0.0662969
0.00129594
-0.00405302
0.00387006
-0.0311394
-0.0773496
-0.0258017
-0.119861
0.000850473
-0.0814846
-0.00334651
0.00126291
-0.00215291
-0.0181525
0.00200056
-0.0029119
-0.0125329
0.000523334
0.00198399
-0.0969155
-0.113924
-0.0272745
0.000515677
-0.0129452
-0.162037
-0.00105351
-0.0617792
0.000583062
-0.0890425
-0.0015857
-0.00775991
-0.0229899
-0.00391554
-0.00883827
-0.0971737
-0.000724867
-0.00770074
0.000934008
-0.00179063
-0.0876591
0.0010608
-0.109742
-0.115168
-0.0132599
0.00192574
0.00214426
0.00155431
-0.0253432
-0.00542688
0.000164219
0.00129542
0.00210208
-0.159966
-0.0188717
-0.0773286
-0.00466296
0.000878269
-0.133947
-0.00154568
-0.00288371
7.29806e-05
-0.146402
-0.00971259
-0.0513825
-0.139268
0.000374676
-0.000981429
0.020852
-0.0346394
-0.000638659
-0.0103008
-0.139336
-0.000708349
-0.000686849
-0.0650114
-0.124169
-0.0701375
-0.0496971
-0.00407587
0.000187702
0.00261077
0.000194175
0.00221115
-0.0730842
-0.0112573
-0.005369
-0.0577807
-0.0558575
0.000667934
-0.0665998
-0.0172541
0.00225515
-0.0506237
-0.163561
-0.0863295
-0.146939
-0.00337391
0.00156388
-0.0158309
-0.0264358
-0.001344
-0.00290996
-0.101055
-0.07138
-0.0703679
-0.00113903
-0.0132222
-0.0867178
-0.165096
-0.0455453
-0.0261621
-0.0167749
-0.0204433
-0.145197
0.00771738
-5.22812e-05
-0.0773629
-0.0885033
-0.00697177
-0.00155647
-0.00283768
0.00109454
0.000197128
-0.111786
-0.0588553
-0.125957
0.0010564
-0.00316624
0.00151384
-0.00420497
0.00103418
-0.00295884
-0.0617099
-0.0934763
-0.0555634
0.00120488
-0.00117814
-0.12721
0.0070574
-0.0818318
-0.12225
-0.000727179
-0.00409041
-0.00280384
-0.109383
2.66004e-05
-0.0596916
0.000362122
-0.00841772
-0.0564433
0.00123978
-0.00337877
-0.000802591
-0.00305619
-0.00825734
-0.104758
-0.0195057
0.00124627
-0.0880477
-0.00190751
0.00197027
-0.123897
-0.0449344
0.00127937
-0.106312
-0.00112992
-0.000724893
-0.107521
-0.10276
-0.00179997
0.00444699
-0.00355609
-0.0726355
-0.0715396
-0.0169133
-0.0876874
-0.0247725
-0.0716557
-0.0448268
0.000203362
-0.0109652
-0.0641318
0.0045874
-0.00497538
0.00127256
0.00132934
-0.00762694
-0.00366422
-0.0696212
-0.0281149
0.00132609
-0.0642443
-0.0132723
0.00244262
-0.0849182
-0.0830915
-0.000448107
0.00558039
-0.0137111
-0.0075354
0.00371319
-0.00994906
-0.0251861
0.00200361
-0.0972995
-0.00118052
0.00246402
-0.0495776
-0.133053
-0.0700944
-0.158509
0.00122668
-0.0357856
-0.0229249
-0.00527253
-0.0758273
-0.00111298
0.00273107
-0.000752592
-0.0566896
-0.0135755
0.000202604
-0.0162507
0.00131432
-0.0270916
-0.161607
-0.0085773
-0.0708075
0.00017302
-0.0218912
-0.097875
-0.110653
0.000231308
-0.0275438
-0.0365062
-0.105418
-0.00345951
0.00266292
-0.0274933
-0.0186681
-2.5037e-05
-0.0508197
-0.0861041
-0.161759
-0.0502702
-0.0138476
-0.0162902
-0.080861
-0.0158834
0.000215895
0.00194982
0.0047998
-0.00437855
0.000865634
0.00237776
-0.0043995
-0.0166404
0.00044493
-0.0397789
-0.0829317
-0.118903
-0.0124724
-0.00807034
-0.0257206
-0.00367915
-0.00699778
-0.0999643
-0.0111312
-0.0975375
-0.0127712
-0.0724142
-0.00453963
-0.00678832
0.00180079
-0.0155197
-0.0200407
0.000734259
-0.00447459
-0.00058291
-0.0130393
0.00125737
-0.0361712
-0.124218
-0.0909794
-0.00961507
-0.00876539
-0.104126
0.00597523
0.000715146
-0.156237
-0.0968119
-0.0850428
-0.0237931
-0.00201685
-0.0139771
-0.0102743
-0.0810973
0.000927906
-0.00539662
-0.00951186
-0.000343711
-0.00362725
-0.0320273
-0.00447591
0.00123189
0.00163621
-0.0095397
-0.0766772
-0.00399905
-0.0221826
-0.0165544
5.24509e-05
-0.0827204
-0.0952071
-0.00332353
-0.00257613
7.82149e-05
0.00258286
-0.106933
0.000789761
-0.0918417
-0.0267735
-0.0399237
0.00419606
-0.0238972
-0.105735
-0.0406285
-0.0235042
-0.00843075
0.00197071
-0.00303933
-0.088994
-0.127605
-0.0135605
8.23196e-05
-0.000952399
-0.0769359
3.43404e-05
-0.121164
-0.0619592
0.00232133
-0.0371437
-0.054626
-0.109169
-0.0112604
-0.0147899
-0.029924
-0.0577154
0.00221266
-0.00770846
-0.0065314
-0.0833282
0.00532956
-0.060945
-0.00740149
0.00258596
0.00636899
-0.128109
-0.0108329
-0.017316
-0.113314
-0.133645
0.000546333
0.000709092
0.000544098
-0.00844136
-0.00581064
-0.00293287
-0.029916
-0.0910335
-0.0129009
-0.00937378
-0.0883694
-0.0264653
0.00125622
-0.00582884
-0.151679
-0.153018
0.0012313
0.00171576
-9.1668e-05
0.000944587
-0.0173814
-0.00560589
-0.0752421
-0.00776489
-0.106718
-0.0170426
0.000789142
-0.0844888
-0.162408
-0.0216841
-0.00708007
0.00124684
0.000175062
-0.0776264
0.00117
0.00396311
-0.000964559
-0.059221
-0.0585696
-0.128069
-0.135106
-0.0551976
-0.02895
0.000984045
-0.00184086
0.000427278
-0.00251585
-0.0746431
0.000294907
-0.00775492
-0.00441924
-0.0471011
-0.061345
-0.00136881
-0.0636178
0.01294
-0.0789172
-0.00285334
0.000988083
0.00233537
-0.00304764
-0.0605794
-0.0362531
0.00138739
-0.00670426
-0.0189128
4.13701e-05
-0.00481924
-0.00155151
-0.133322
-0.00410577
-0.104925
-0.0144515
-0.0318299
-0.00339218
-0.0182737
0.00220126
-0.0731676
-0.0256375
-0.113673
-0.12912
-0.00660314
-0.0103446
-0.105566
-0.00411415
-0.00850428
-0.161847
0.00641868
-0.161879
-0.00460659
-0.0301765
-0.0192112
-0.00261555
0.000854544
-0.0105015
-0.0232759
0.00328269
-0.034407
-0.0679443
-0.0631892
-0.0303431
-0.0632551
0.000268118
-0.042016
-0.0548227
-0.00835112
-0.0252116
0.000193695
0.000950883
0.00120326
-0.0578016
0.000210826
0.00110305
0.000144456
-0.093983
-0.000200298
-0.0351007
-0.0033103
0.000189489
-0.0163744
-0.0852425
-0.0202958
-0.0306993
-0.092977
-0.0741231
-0.0261213
-0.022151
0.0021965
-0.00387971
0.00117865
0.000547328
-0.0481814
-0.00262035
-0.00130748
-0.0039288
-0.00167741
-0.0364475
-0.151078
-0.0221587
-0.0498215
-0.0661289
-0.00809028
-0.00425642
0.00401753
-0.0949577
-0.0836989
-0.0260145
-0.0837295
-0.148891
-0.0701318
-0.0289178
0.00224098
-0.00778248
-0.00444112
0.00101285
-0.0757818
0.000925129
0.000176033
-0.00104024
0.000433161
-0.00112142
-0.00538526
-0.0577805
-0.0492653
-0.0133898
-0.00767993
-0.0552307
-0.078491
0.000123858
-0.0597161
-0.160041
-0.0134397
-0.0515771
-0.0186877
0.00144547
-0.0107396
-0.00797641
0.00196194
-0.06128
-0.0937682
-0.00262913
-0.0216557
-0.0244672
0.0027745
-0.0375426
0.00293734
-0.0165953
-0.00677411
-0.0617312
-0.00805619
0.0163573
0.00223987
-0.0110201
0.00118917
-0.00408015
-0.0112429
-0.105583
0.0013835
-0.0019222
-0.0358594
0.00116982
0.00181007
-0.00944686
-0.0850743
0.00523413
0.000285
-0.0623759
-0.0330433
-0.0667843
-0.086713
-0.026585
-0.0566928
-0.0165578
-0.024947
-0.161984
-0.0134758
-0.0389717
0.0027376
-0.0478876
0.00101903
7.0328e-05
-0.0372506
-0.0944558
-0.0128
-0.0640334
-0.0238793
-0.00708708
-0.0117976
-0.136735
2.87005e-05
-0.142008
-0.0238884
0.000300745
0.000739684
-0.0487811
-0.157141
-0.0806269
-0.0311846
-0.157369
-0.0289572
-0.0790143
-0.16109
-0.0324111
-0.0327194
0.000356754
-0.00606567
-0.136142
-0.159049
0.000868797
-0.15839
0.0041057
-0.156592
-0.0646855
-0.00809265
-0.156356
-0.0175883
-0.0143084
-0.0117661
-0.00437418
-0.00789627
-0.0681159
-0.00513707
0.000567323
0.00190688
-0.0730956
-0.0305186
-0.0909282
-0.0216117
-0.00179916
0.000283364
-0.0331889
-0.00141448
-0.118305
-0.0110316
0.000913219
-0.0938166
-0.0200305
-0.0105603
-0.00873805
-0.0453737
-0.00374059
0.00602753
-0.00547273
-0.159844
-0.00448587
-0.054063
-0.0437869
-0.102827
-0.0215368
0.0012767
-0.0138907
-0.129708
-0.0106555
-0.0263469
0.0293866
0.00129179
-0.030477
-0.00339329
-0.154605
-0.0176756
-0.121192
-0.0235557
-0.00310104
-0.00562524
0.00146139
-0.15675
-0.0701656
0.0246781
-0.00508324
-0.132064
0.000695192
-0.0315775
-0.00420243
0.0019779
-0.129628
-0.0185443
-0.16113
-0.0464709
-0.137658
-0.0262405
-0.0046808
-0.160112
-0.0139223
-0.0206909
-0.0101246
-0.05605
-0.130124
0.00221377
-0.00159771
0.00236096
0.00395804
-0.0635528
0.00118556
-0.00864394
-0.0690701
-0.090647
-0.0169898
-0.0172645
-0.162325
-0.0688782
-0.00763922
-0.102516
-0.155025
-0.00297595
-0.00229035
-0.0383073
-0.0683745
-0.0761779
0.00213259
-0.0330106
-0.0169359
-5.69848e-05
-0.0126704
-0.00679155
0.00216179
-0.0105818
-0.132304
-0.0042845
-0.132395
-0.00113256
-0.0874395
-0.0419419
-0.0957975
0.00178394
-0.00918228
-0.0482963
-0.101411
-0.0209542
-0.161681
-0.0593691
-0.108771
-0.0212169
-0.0679655
0.00108116
-0.0123415
-0.148626
-0.125532
-0.00149957
-0.0133888
4.52698e-05
-0.159846
-0.00932821
0.000227822
-0.00516176
-0.0187995
-0.00214112
-0.0161729
0.00119991
-0.000113324
-0.0595058
-0.0127837
-0.0557141
-0.0825761
-0.0246674
-0.0600087
-0.049549
-0.000579982
-0.0807207
-0.150026
-0.00291443
0.000346807
-0.0105751
0.000194153
-0.000916124
-0.153788
-0.00275167
-0.00457965
-0.15494
-0.000917336
0.0001989
-0.0121901
0.000519697
-0.14819
0.00538055
9.85877e-05
0.000220496
-0.0266411
-0.0217611
-0.0706552
0.00216382
-0.106564
0.000601806
-0.00646288
-0.0782261
0.000245591
-0.00398381
0.00025861
-0.0431615
0.000191434
-0.0037605
-0.0325671
-0.00215394
-0.00489598
-0.150876
-0.119327
-0.159916
-0.00191434
-0.000889074
-0.0524638
-0.0825477
-0.000182635
-0.106485
0.000189255
-0.0225735
-0.00181591
-0.00965326
0.00363943
-0.0362826
-0.0408914
-0.0668211
-0.0176906
-0.0531427
-0.00716867
-0.102856
-0.0433304
-0.0779287
-0.000436371
-0.0101258
-0.00756224
-0.0685998
0.0243442
0.000867597
-0.0238241
-0.0868236
-0.00823326
-0.00731895
0.00206325
-0.0228504
0.0188984
-0.090537
-0.0761754
0.00168239
-0.00567317
-0.099418
-0.00175727
-0.0133954
-0.000619767
-0.103133
-0.0388111
-0.152774
-0.0697827
-0.00296369
-0.033958
-0.0352353
-0.0336901
0.00246979
-0.0115257
-0.0150607
-0.127997
-0.0466344
-0.0722221
0.000847205
0.00107058
-0.124164
0.00131253
-0.1538
0.00745093
-0.0766031
-0.160053
-0.0243181
0.00778239
-0.00576823
0.0012749
-0.0180574
-0.000681798
-0.00240786
0.00394216
-0.120577
-0.00566962
-0.0110185
-0.0410234
-0.12407
-0.0262068
-0.0800337
-0.0599624
-0.000442593
-0.0983698
-0.0337434
-0.0460805
-0.0436647
-0.00756484
-0.0507683
0.00150179
-0.083527
-0.0263329
-0.0340499
-0.0138967
-0.0138617
-0.0163014
-0.0014003
0.00555859
-0.0753115
-0.161243
-0.0285434
0.00570893
-0.11036
-0.0254665
0.00132664
-0.0180701
-0.0659017
-0.00738255
-0.00121675
-0.110183
-0.160755
-0.133993
-0.15658
-0.032841
0.000213581
-0.0171344
-0.000835554
-0.0992431
0.000443365
-0.131156
-0.128291
-0.00814951
-0.00441392
-0.0324636
-0.02835
-0.110116
-0.000287295
-0.00614028
-0.0140895
-0.0379071
0.000182663
0.00208325
-0.0511004
0.000264772
-0.0142442
-0.0753488
-0.0570304
0.000429127
-0.0104258
-0.004444
-0.0961244
0.00127171
0.000861286
0.00159881
-0.0719813
-0.13437
0.000733327
0.000379195
-0.00525401
-0.0598066
-0.102485
-0.0070845
-0.00366747
-0.0716725
-0.000486676
0.00116113
-0.000122906
-0.0927096
-0.166214
0.000233278
-0.153365
-0.0979269
-0.105014
0.00455733
-0.0928428
-0.10245
-0.0825066
-0.0240663
-0.00440366
-0.0315505
-0.00068834
-0.0113054
-0.0843721
-0.16128
-0.00251967
-0.0696765
0.000279805
0.000285937
-7.93695e-05
-0.0282818
-0.0275943
-0.0811441
-0.01083
0.000605809
-0.111892
-0.00584852
-0.0162985
-0.00231896
-0.076995
-0.00855012
-0.0906532
-0.0835006
0.0021187
-0.0231721
-0.0831071
-0.104417
-0.00163735
-0.0163834
-0.00483273
-0.0853486
0.00389554
-0.0154279
-0.15624
-0.0674104
-0.0122416
-0.0956438
-0.109334
-0.0490137
0.000262233
-0.00983385
-0.0120213
0.0010176
0.00241128
-0.157684
-0.00862486
-0.0650638
-0.0212679
-0.0921351
-0.0856033
-0.00154216
0.000984908
-0.0727008
-0.160448
-0.0254899
-0.140535
-0.108927
-0.119483
-0.0763194
0.00418282
-0.0537376
-0.0106942
-0.0799481
-0.00341769
-0.0207863
0.0013075
-0.0438393
0.000167131
-0.11408
-0.0271967
-0.00107868
-0.108205
-0.0339887
-0.100055
-0.0554556
0.00237147
0.00798073
-0.141215
-0.103746
-0.00906987
-0.0114717
-0.0107449
-0.121282
-0.0828834
-0.00167072
0.000342451
-0.0667512
-0.0793043
-0.126672
-0.0173169
-0.109327
0.00291455
-0.0931544
-0.0736873
-0.0314838
-0.0405075
-0.010702
-0.0125053
-0.00526013
0.000288103
-0.0212168
-0.00927427
-0.000265661
-0.0952676
-0.106867
-0.0119654
-0.0652225
-0.0237563
-0.0993876
0.00750738
-0.0221148
-0.0319016
-0.130306
0.000303729
-0.0173646
-0.00503098
-0.0975563
-0.0812609
-0.112745
-0.0053159
-0.0859671
-0.125699
-0.0704803
-0.00783135
0.00148033
-0.0176423
0.00306183
0.00282698
-0.071091
-0.0777124
0.000158742
-0.13996
-0.00229037
-0.0753223
-0.0376616
-0.10378
-0.113265
-0.0288353
-0.0121743
0.00319763
-0.00264223
0.00074328
-0.0372476
0.0014199
-0.0727743
-0.0231116
-0.0754904
-0.00608559
-0.101695
-0.111356
-0.0404254
-0.00952822
-0.00512087
-0.0754507
-0.116983
-0.00179576
-0.0259731
-0.00114026
-0.0766064
-0.0281544
-0.0944381
-0.104176
-0.0585382
0.00390318
-0.0793394
-0.0623207
-0.0132079
-0.145374
-0.0832729
0.00114673
-0.149431
0.00714299
-0.0545899
-0.00588734
-0.0814099
-0.0250849
-0.064703
-0.0120298
-0.104303
-0.0233848
-0.00784793
-0.0870048
-0.0870889
-0.11058
-0.0771631
-0.0252293
-0.118373
-0.162849
-0.00577085
-0.0841894
-0.00371066
-6.98825e-05
-0.0351305
-0.0783786
-0.0844111
-0.00836838
-0.128532
-0.00637343
-0.00230928
-0.154389
-0.0427295
-0.00408242
-0.0473768
-0.00594281
-0.00427172
-0.138427
-0.0452487
-0.017081
-0.079748
-0.00195089
-0.044765
-0.0205746
-0.081792
-0.00252345
-0.0772232
-0.0888591
-0.00394817
-0.0411383
-0.00468473
-0.014137
0.000327985
-0.0674688
-0.0330307
-0.109572
-0.0944941
-0.00593124
-0.0175008
0.000420352
-0.0914803
-0.0927939
0.000212677
-0.0231787
-0.0776618
-0.0257389
0.000262185
-0.00210073
0.00124819
0.000323357
-0.0626332
-0.000772777
-0.0117316
-0.0918734
0.000279379
-0.071731
-0.0711309
-0.0198264
-0.0754222
-0.0770644
-0.0636165
-0.098315
-0.122951
-0.129552
-0.100831
-0.0223994
-0.104789
-0.0677336
-0.0219495
-0.00674915
-0.00437083
0.00221837
-0.00206597
-0.0199667
0.000794996
-0.0189537
-0.0575568
0.00330692
-0.156343
-0.058492
-0.0566169
-0.103379
-0.0788262
-0.0166096
-0.0873191
-0.120029
0.00200416
-0.0884682
-0.00707153
-0.0898309
0.00217659
0.00542557
0.00111656
-0.0477841
-0.103385
-0.0808302
-0.0811472
-0.075473
-0.0162631
-0.0486247
-0.0277543
0.0157219
-0.0760296
-0.0556863
-0.122611
-0.118943
-0.00401658
-0.0823231
-0.0290884
-0.0645408
0.00458191
-0.0106296
-0.0728517
-0.0759305
-0.0604499
-0.0749333
-0.00117391
-0.0806878
0.00157354
-0.06655
-0.0683924
-0.162561
-0.0840177
0.00386369
0.00225644
-0.160142
-0.0723012
0.0011481
-0.0849731
-0.0576673
0.000139256
0.00251867
0.0047905
0.000480316
-0.0473515
-0.135403
-0.00585093
-0.0224205
-0.0120672
-0.155171
-0.000327439
-0.087608
-0.0870903
-0.000135251
-0.0135239
-0.0738087
-0.00421347
-0.0753379
-0.0560439
-0.0148231
-0.0240938
-0.0483276
-0.0847753
-0.0632106
-0.0645184
-0.0194403
0.00116428
-0.110469
-0.162817
-0.101409
0.00112983
-0.122474
-0.0741606
-0.000410022
-0.0178914
-0.0234453
-0.0226584
-0.133138
-0.00711292
-0.00107557
-0.0657118
-0.00074582
-0.0132866
-0.0727039
-0.000178687
-0.0162189
-0.147543
-0.162635
-0.0764415
-0.0365931
-0.0594978
0.00171223
-0.00602314
-0.0863696
-0.063976
-0.071018
-0.0862431
-0.0958486
-0.0187991
-0.00463068
-0.0136727
-0.0615155
-0.0157687
-0.114012
-0.0891598
-0.107376
-0.0398886
-0.0224625
-0.0952461
-0.0205696
-0.0927866
-0.00552038
-0.0219448
-0.026231
0.00325105
-0.059864
-0.0207414
-0.00409449
0.0013307
-0.0031805
-0.0750692
-0.0937535
-0.0609803
-0.0965875
-0.00705304
-0.0147834
0.0125214
-0.00810515
-0.0249219
-0.0764022
0.00748572
-0.160331
-0.0253985
0.00101428
-0.0497689
0.000965773
-0.0948447
-0.0766734
-0.0615323
-0.0837833
-0.150787
-0.00839724
-0.0939599
0.00110149
-0.0961761
-0.0863416
-0.0247286
-0.160505
0.00111824
-0.00231143
-0.0237737
-0.0771294
-0.0136322
0.000486881
-0.0713798
0.000456331
-0.0732654
-0.0840549
-0.0125196
-0.0719893
0.00244629
-0.00885855
0.000391829
0.000446378
-0.00090496
0.00115743
0.00032059
-0.0696005
-0.070947
-0.0077068
-0.00144455
-0.0731885
-0.161981
0.00231606