/*--------------------------------*- C++ -*----------------------------------*\
| =========                 |                                                 |
| \\      /  F ield         | OpenFOAM: The Open Source CFD Toolbox           |
|  \\    /   O peration     | Version:  v2012                                 |
|   \\  /    A nd           | Website:  www.openfoam.com                      |
|    \\/     M anipulation  |                                                 |
\*---------------------------------------------------------------------------*/
FoamFile
{
    version     2.0;
    format      ascii;
    class       volScalarField;
    location    "400";
    object      nut;
}
// * * * * * * * * * * * * * * * * * * * * * * * * * * * * * * * * * * * * * //

dimensions      [0 2 -1 0 0 0 0];


internalField   nonuniform List<scalar> 
14315
(
0.00167411
0.0271612
0.00124423
0.000228788
0.000206616
0.00162801
0.0309639
0.000417379
0.000615812
0.00151318
7.75314e-05
0.00254118
0.00232628
0.00678229
0.00354838
0.00672669
0.000576234
0.0067397
0.000359554
0.000369266
0.00674306
0.0153968
0.000459225
0.00298776
0.000131458
0.0310728
0.00593596
0.0309918
0.000124613
0.000446676
0.00124996
0.00673123
0.00679601
0.0172507
0.0211065
0.0171256
3.56362e-05
0.000473091
0.000568812
0.000162218
0.000147507
4.09646e-05
0.000877551
0.0067644
0.000710052
0.000209577
0.000184296
0.00170883
0.00259075
0.00673941
0.00127951
0.00018427
0.00341258
0.00254601
0.00125386
0.0132682
3.66428e-05
0.000417106
0.00486819
0.00086803
0.000382434
0.0204608
0.0142518
0.00503207
0.000366368
3.24932e-05
0.00219223
0.00672767
0.00553619
0.00145517
0.00297175
0.000551242
0.0210049
0.000456555
0.00666141
0.00209095
0.000985327
0.0127789
0.000686968
0.00405995
0.00675674
0.00444153
0.000484644
0.011847
0.00674338
0.00218823
0.00204269
0.00249987
0.00244145
0.000138785
0.000812262
0.000150995
0.00675995
0.00234841
0.00407689
0.0156017
0.000791983
0.0116253
0.0264716
6.48788e-05
0.00672725
0.00226192
0.0176715
0.00677106
5.8678e-05
0.000591428
0.00879539
0.0159586
0.00101613
0.00103709
0.0145612
0.00284918
0.00904429
0.00627673
0.00257348
0.0025528
0.00556017
0.00234108
0.00699823
0.000188719
0.000731313
0.00121476
0.0066084
0.00199929
0.000140669
0.00677164
3.67629e-05
0.00674659
0.003937
0.000180749
0.0183726
0.0150399
3.34342e-05
0.0184597
0.000431366
0.00383098
0.00200721
0.0261621
0.0032591
0.00258489
0.0294949
0.00233771
0.00156768
0.0124924
0.00075062
0.0207336
0.000892474
0.0109502
0.00148878
0.000217343
0.000920647
9.70994e-05
0.00124386
0.00142776
0.000177789
0.0030244
0.000793445
0.00672797
0.00106175
0.0256534
0.00431891
0.00242681
0.0119383
0.00326574
0.00133779
0.0168896
0.00444547
0.000101789
0.000535197
0.0155165
0.00670608
0.00672427
0.00447705
0.00126941
0.000742943
4.36972e-05
0.00672667
0.0148586
0.0209425
0.0171544
0.000175982
0.000811752
0.0067643
0.00291142
0.000609544
0.000833324
0.000129744
0.00093101
0.0203578
0.00422238
0.000448115
9.99608e-05
0.0157063
3.61252e-05
0.00683929
0.00451555
0.000479213
0.00434338
0.0054809
6.38337e-05
0.00367825
0.000824045
0.0018552
0.017129
0.00260156
0.000354549
0.000344981
0.000575508
0.00673013
0.0154794
0.000571841
0.00387908
0.00385475
0.000600615
0.0290856
0.00652255
0.01144
0.027141
0.0280542
0.000623311
0.000708532
0.000840847
0.000790904
0.000759766
0.0208732
0.00132405
0.00212755
0.00252991
0.0205607
0.000927463
0.00679763
0.0018811
0.000170051
0.00672488
0.00672667
7.67378e-05
0.000703136
0.000443211
0.0214751
0.0228864
0.00241995
0.000984401
3.56934e-05
0.00234747
0.000111721
6.31181e-05
0.0174104
0.0067238
0.0231258
0.00262739
0.00682273
0.00677065
0.00988574
3.29507e-05
0.000758485
0.0258598
0.000691888
0.00108639
0.0106436
0.00134016
3.52015e-05
0.0013572
0.00365721
0.0018914
0.0171612
0.000654449
0.000344799
0.000950568
0.00228527
0.0140136
0.0264212
0.00119807
0.00590524
0.00428761
0.000305964
0.0183385
0.000441468
0.000598499
0.0105343
0.000134819
0.00116643
0.00137096
0.0235582
0.00441362
0.0021467
0.00357145
0.0180311
0.00949987
0.0169491
0.00319974
0.000769001
0.0020113
0.016128
0.0109041
0.000332266
0.000692043
0.0159361
0.000668412
0.00414788
0.00676383
0.00103057
0.00116365
0.0122764
0.0302677
0.000544615
0.00674463
0.0177682
0.0182589
0.0067372
0.00557067
0.0107302
0.00676739
0.00627131
0.0158892
0.000219253
0.000889602
0.00412833
0.000672505
0.000929155
0.0067242
0.00269654
0.000333184
0.0168514
0.00084933
0.000518918
0.00684523
0.0167492
0.000490127
8.48998e-05
0.00622765
0.000666627
0.0157859
0.00672744
0.0212888
0.00430346
0.00673807
0.0175401
0.00916305
0.00927438
0.0287965
0.00245965
0.00953521
0.00674041
0.0067239
0.0148227
0.00672504
0.0068235
1.69377e-05
0.00077164
0.0152456
0.00672603
0.000936186
0.01443
0.00242396
3.29122e-05
0.00292934
0.00184177
0.00672653
0.00673953
0.0148807
0.000127476
0.0188188
0.011002
0.0184657
0.0164988
0.00913659
0.00674755
0.00370256
0.0231468
0.0010193
0.000491707
0.00168301
0.00672613
0.0186536
0.0170297
0.00030002
0.00107976
0.00673517
0.00331986
4.39542e-05
0.00144115
0.000609649
0.00672452
0.00721288
0.000113693
0.0288173
0.000920572
0.0271925
0.0283413
0.00452922
0.000913931
0.00242621
0.0079506
0.0184685
0.0147043
0.0285818
0.000202256
0.00672576
0.00106518
0.027748
0.000992335
0.000462653
0.00427543
0.00139109
0.02912
0.000435035
0.0180549
0.00027823
0.0180086
3.85924e-05
0.00674909
0.0246903
0.00538701
0.000732733
0.00418832
0.00676297
0.000973133
0.0115517
0.00673404
6.52424e-05
0.00137177
0.00551467
0.000526543
0.000363444
0.00672703
0.0117992
0.00666218
0.000393498
0.000709086
0.00119366
0.00600369
0.0297804
0.00672585
0.000488656
0.00315737
0.00167914
0.000655075
0.0166098
0.000242156
0.00488438
3.87086e-05
0.00313513
0.017691
0.00674538
0.000526138
0.00118455
0.000113539
0.0125783
0.00673318
0.00088156
2.93016e-05
0.00177398
0.00672753
0.000849397
0.000948464
0.00705944
5.34451e-05
0.0122522
0.0252107
0.00082572
0.00218858
0.0237409
0.0034154
0.000542217
0.0281102
0.0132349
0.002323
0.000650455
0.00083798
0.0167496
0.00115084
0.000983826
0.0140883
0.000736781
0.00215747
0.00076685
0.00678584
0.00140021
0.0153303
0.00295997
0.000694539
0.00235466
0.000675799
0.00213486
0.0109296
0.000261387
0.00672635
0.0288166
0.000634323
0.000562054
0.00674787
0.000241203
0.00145725
0.000286783
0.0016542
0.019797
0.00672668
0.000472767
0.00291684
0.0254399
0.000100364
0.00462029
0.00205778
0.00126793
0.00672665
0.00312056
0.00311652
0.000309407
0.000397381
0.00436393
0.0248834
0.00181259
0.00182426
0.00131291
0.000895979
0.0147115
0.000121444
0.0286424
0.0154161
0.000270986
0.00346067
0.00148471
0.00153044
0.00016898
0.00015006
0.0142692
0.00139262
0.00672687
0.000700177
0.00372746
0.00266957
0.000749661
0.00673514
0.00674832
0.00341881
0.00195219
0.00129272
0.00226654
0.000440792
0.00672683
0.0103547
0.00158612
0.0192937
0.00256528
0.00163355
0.000888022
0.00105884
0.000435857
0.000385079
0.00411366
0.00171311
0.00121947
0.0319768
5.2084e-05
0.0254087
0.0062485
0.00013626
0.00287274
0.00222376
0.00064762
0.0159658
0.0189052
0.0160557
0.000395907
0.000151929
0.000929526
0.005068
0.00672714
0.000999154
0.00237644
0.013481
0.00675063
0.00301952
0.00107942
0.0148899
0.00139149
0.000784974
0.00500047
2.89314e-05
0.0067864
0.0184331
0.000306254
0.00673488
0.00282595
0.00673718
0.00152668
0.00660495
0.00137232
0.000282389
0.0012499
0.00368489
0.00674441
0.000456475
0.00074274
0.000545954
0.0059575
0.0168134
0.000409999
0.0303335
0.0143002
0.00107921
0.00478285
0.00993734
0.000458866
0.00157195
0.00672604
0.00377644
0.00133532
0.000477352
1.15361e-05
0.00268331
0.00114403
0.0193632
0.00678249
3.65315e-05
0.000327559
0.000663956
5.03267e-05
0.00672776
0.00674461
0.00102727
0.000801965
0.00134121
0.000803823
0.0169857
0.00586987
0.00428126
0.0278055
5.92685e-05
0.0171278
0.00680157
0.000448027
0.00674118
0.00679709
0.0171532
0.00672592
0.0190844
0.000630258
0.0178823
0.00296973
0.00274903
0.000989124
0.000934397
0.00868204
0.0194811
0.00434484
0.00105578
0.000765897
0.00672617
0.00113751
2.90783e-05
0.00345515
0.0289035
0.000759027
0.00101651
0.00280765
0.000592939
0.00096163
0.000500734
0.0321623
0.00246702
0.00122494
0.00334929
0.0120555
0.00110955
0.00551017
0.00673811
0.000682884
0.0154501
0.0011736
0.00195427
0.0040853
0.000273594
0.00265537
0.000774931
0.00409168
2.34972e-05
0.0229106
0.00672799
3.7259e-06
0.00672801
0.00672674
0.000107159
0.0114364
0.000887697
0.0148642
0.00395614
0.00245744
3.56272e-05
0.00307733
0.00108981
0.00668295
0.00249615
0.00120535
0.0030966
0.00076532
0.0177698
0.000761367
0.000972991
0.00217289
0.00322345
0.0146285
0.00675538
0.000246172
0.00037915
0.000572617
0.00395015
8.37159e-05
0.000983478
0.0280574
0.000468678
0.000528103
0.000348122
0.00679123
0.00674104
0.00182395
0.000311635
0.00144621
0.000740721
0.00106541
0.000487786
0.000777188
0.00680659
0.000742876
0.00031751
0.0022899
0.00033291
0.000604163
0.00150874
1.19695e-05
0.0067618
0.00672551
0.019009
0.0198015
0.015295
2.77135e-05
0.00364772
0.0167658
0.00023929
0.0044567
0.00155323
0.00672221
0.00674361
0.000960135
0.00673509
0.00448339
0.000888093
2.49864e-05
0.00112272
0.0186164
0.000440295
0.000264463
0.000394587
0.00152911
0.0144939
0.0139271
0.0025565
0.0121313
0.000251949
0.00951663
0.00672673
0.0167177
0.0041043
6.01404e-05
0.00978173
0.00672841
0.000310339
0.00120722
0.00107886
3.77671e-05
0.0236686
0.00117934
0.00188533
3.46677e-05
0.0034338
0.00037606
0.00673891
0.000284428
0.0137189
0.0142648
0.0157428
0.000833328
4.92288e-05
0.0203047
0.023831
0.000964431
0.00391078
0.000314745
0.00662828
0.000334498
0.00673301
0.00034227
0.00100089
0.0181853
0.00673301
0.00079835
0.000876967
0.009759
0.000109765
0.000556414
0.000856719
0.0182931
0.00200734
0.00167262
0.0239722
0.00672581
0.00134535
0.000858183
5.79288e-05
0.00260799
0.00673181
0.0169354
0.00109419
0.0218214
4.2103e-05
0.000155934
0.0303608
0.000249735
5.75032e-05
0.00672706
0.00219488
0.000249369
0.000705998
0.00190207
0.00206562
0.000627159
0.000721506
0.00460655
0.00326682
0.0020438
0.0201792
0.00854231
0.00129678
9.04499e-05
0.00123347
0.016369
0.00172072
0.00674469
0.00250736
0.000482637
0.0165676
0.0290392
0.0159417
0.00334582
0.029863
0.000929275
0.00157019
0.0146947
0.000356391
0.00672676
0.00674222
5.14741e-05
0.0227232
0.000441009
0.00165972
0.000652238
0.0018539
2.86201e-05
0.00119469
0.00234533
0.000151757
0.0113238
0.000392423
0.000826203
0.00104614
0.006725
0.00110427
0.000639138
0.000720695
0.000594488
0.0067266
0.00172987
0.00255324
0.00365783
0.00668141
0.00673165
0.00118457
0.00126176
0.000183831
0.00111088
0.00265676
0.00110768
0.00675045
0.00296383
6.1666e-05
0.00234837
0.000404511
0.00672815
0.0315226
0.00574934
0.0182251
0.00235696
0.00672541
0.000729302
0.0264495
0.017359
0.0232422
0.000951387
0.000377193
0.0175692
0.00422834
0.00680277
0.000752478
0.000680139
0.00145359
0.00306947
0.00646711
0.00163337
0.0159934
0.00435477
0.000449472
0.0167341
0.0205384
0.00393935
0.000362999
0.00465414
0.00233868
0.0181798
5.43053e-05
0.00322267
0.000213306
0.0209048
0.00079444
0.0224297
0.00421148
0.0011984
0.00672643
0.0118705
0.0154365
7.72563e-05
0.00368332
0.00672562
0.0205909
0.00111877
0.00321365
0.000365532
0.00445302
6.48816e-05
0.00172643
0.00636879
0.00197861
0.00574701
0.0163679
0.00128677
0.00142918
0.0112343
0.00891886
0.0227374
0.0146252
0.0042188
0.000927134
2.97263e-05
0.0132542
0.00130411
0.00114842
5.54342e-05
0.00103145
0.00675428
0.00674304
0.000606746
0.000101464
0.00108093
0.00672601
0.0225229
0.00857782
0.00672772
0.0141216
0.000448116
2.95563e-05
9.05271e-05
0.000905604
0.0150707
0.0106942
0.00672587
0.0187591
0.00672729
0.000907606
0.000958581
0.00310408
4.10408e-05
0.00119795
0.00674229
0.0164551
0.00679857
0.00214003
0.00188156
0.0163326
0.000422533
0.00461271
0.0216094
0.00572474
0.00252048
0.00258025
0.0159023
7.11159e-05
0.0195992
0.00159838
0.000206087
0.000590504
0.00284199
0.000541141
0.00227104
0.000395385
0.00171844
0.0194377
0.000259563
0.0167598
0.00672699
0.000623136
0.00669027
0.00817255
0.0140395
0.000640535
0.0148542
8.04079e-05
8.11886e-05
4.19867e-05
0.0148812
0.000218388
0.000678775
0.0011309
0.00673738
0.000440505
0.00650088
0.0289325
0.00639756
0.0187271
0.0126101
0.00635997
0.000416141
0.00515222
0.00673424
0.00364512
0.0172371
0.00680446
0.00234215
0.00548678
0.000645592
0.000282995
0.0270113
0.00673183
0.0153023
0.000848177
0.00673413
0.00672652
0.000736091
0.000266023
0.00673302
0.00226285
0.00989566
0.000943845
6.60113e-05
0.0169921
0.00208423
0.00628815
0.000153871
0.00337889
0.00038638
0.00385594
0.000885771
0.000536861
0.0296448
0.00673436
7.06596e-05
0.0237575
0.000120371
0.00672719
0.000581404
2.18406e-05
0.00678958
0.000928651
0.00308087
0.0160184
0.000200348
0.00745352
0.0201745
0.0235344
0.00056663
0.0129032
6.18402e-05
0.0173425
2.96711e-05
0.00157491
0.0193214
0.000754769
0.000559217
0.000807706
2.34624e-05
0.000660045
0.00157939
0.000118405
0.00379347
0.00111396
0.00672622
0.000187006
0.000222647
0.0226847
0.00031571
0.0193892
0.00352015
0.00313631
0.00218089
0.00564225
0.0122146
0.000967604
4.32214e-05
0.00261373
0.00113371
0.0252083
0.0151271
0.00402874
0.00391285
0.00377999
0.0141236
0.00217244
0.000363082
0.00405235
0.00127123
0.00112477
0.000367098
0.000169519
4.5631e-05
0.000821895
3.30899e-05
0.00158661
0.000806665
0.000275567
0.000913595
0.000856802
0.00174904
0.00106187
0.010572
0.0011698
0.000640549
4.11626e-05
0.000890105
0.0164552
0.00315135
0.000939438
0.00771257
4.68003e-05
0.00179378
0.0262309
0.00988958
0.000183896
0.00629334
0.000211947
7.16171e-05
0.00672638
0.00042296
0.0161767
0.00357227
3.67171e-05
0.00672594
0.0190736
6.60312e-05
0.00675098
0.0078313
0.000500001
0.00675688
0.000938799
0.00620758
9.76527e-05
0.00141543
0.000979794
0.0263487
0.00123165
0.000139202
0.000366887
0.00676316
0.00673068
0.00358987
0.00315909
0.00191981
0.0162156
0.00307392
0.000193214
0.000585286
0.0193761
0.000609498
0.000829571
0.00673254
0.00112552
0.000126351
0.0023595
0.00375578
0.0153878
0.00049949
0.00608045
0.0106079
0.0125097
0.00372878
0.00202521
0.00672535
0.0216813
0.0119126
0.000766865
0.00318389
0.0110445
0.00217759
4.69451e-05
0.00233106
0.000107264
0.000179507
0.00678705
0.000202278
0.000763961
0.00672798
0.0290286
0.00965353
0.0308202
0.00100714
5.92582e-05
0.00567659
0.00455202
0.00116103
0.0295242
8.60432e-05
0.00178914
1.64581e-05
0.0322838
0.00249988
0.0175997
0.0263277
0.00326884
2.8275e-05
0.00242713
0.000382112
0.00676087
0.000748694
2.91944e-05
0.000923136
0.00140754
0.00452448
0.0160496
0.00131687
0.0284519
0.000227285
0.00448193
0.0283536
0.000623082
0.0260158
0.000842883
0.00147179
0.00138025
0.0162771
0.0289102
5.50812e-05
0.0234706
0.0067366
0.00120316
0.00673813
0.00048272
0.000931118
0.013125
0.0067269
0.0202936
0.000301602
3.00615e-05
0.016148
0.000782813
0.00402597
0.00150152
0.00672529
2.89695e-05
0.00099455
0.00290096
0.00551252
0.0124783
0.000708595
0.000293252
0.000291062
0.000405442
0.0255262
0.00674356
0.000849052
0.00146633
0.0233101
0.00105641
0.000386182
0.00741828
0.0152867
0.0247992
0.0163082
5.86558e-05
0.000572961
8.94023e-05
8.44207e-05
0.000797426
0.000163222
0.00672577
0.00119313
0.00675898
0.000404118
0.00672582
0.00392918
0.00830353
0.000563826
0.000553435
0.00675328
0.00181332
0.0157211
0.0240423
0.00672998
0.00672511
3.20571e-05
0.000437595
0.00675701
3.47081e-05
0.000329509
0.000923863
0.00418357
0.000410612
0.00678205
0.00352844
0.000267947
0.000640093
0.00672957
0.00038281
0.0260997
4.26026e-05
0.00013271
0.00675249
0.00675627
0.000445337
0.000937574
0.00125319
0.000140521
0.006724
0.00101987
0.000758587
0.00286365
0.00028923
0.00674541
0.00672821
0.00672564
0.00247472
0.0252248
0.00364148
0.00402515
0.0317714
0.00467452
0.000664165
0.000403981
0.0067253
0.000765408
0.0010053
0.00103497
0.000341438
0.00172723
0.000496629
0.00121203
0.000779592
0.00362525
0.00124061
9.60955e-05
0.00413549
0.00740288
0.0246361
0.00675283
0.00148134
0.00109321
0.00672734
0.0115809
0.00935913
0.0157254
0.00070516
0.000108647
0.031309
0.00172764
0.0017353
3.32765e-05
0.000462328
0.00674194
0.000413741
0.00136946
0.000747916
0.0306157
0.00295287
0.00468351
0.00387621
0.0280531
0.00672773
0.00672409
0.0145428
0.000559182
0.00672596
0.0129701
0.00702581
0.00672488
0.00651413
0.000643085
0.003446
2.98587e-05
0.000610293
0.000302344
0.00103326
0.000126094
0.000453303
0.000600008
0.00672363
0.00022891
0.000529519
0.00438345
9.9867e-05
0.00118461
4.3952e-05
0.00908706
0.00672381
0.0214782
0.000280011
0.00175907
4.40082e-05
0.00672522
0.00213259
0.00200153
0.01426
0.00149384
0.0033849
0.0318523
0.0149099
0.00048553
0.00069547
0.00137191
0.00674196
3.39251e-05
0.00206641
0.00158919
0.0214716
0.00332265
0.000201253
0.000214899
0.00672553
0.000787958
0.000512325
0.0164599
0.000910225
0.00680061
0.00673253
0.0229212
0.000137401
0.00182723
0.000612019
0.0247754
0.000867839
0.00229771
0.0225732
0.00677797
0.0164531
0.00280021
0.00675361
0.000854748
0.00142963
0.0011861
0.0289755
0.0284493
0.0153212
0.00755101
0.000557601
0.00937478
0.00111883
0.0233853
0.0046569
0.00128486
0.000700515
0.000581206
0.000265399
0.00388007
0.000609913
0.00674684
0.0234249
0.0150712
0.0279019
0.00448155
0.00676248
0.000573836
0.00953161
0.0103463
0.00320631
0.0277216
0.00672899
0.00443793
0.00012787
0.000207197
0.00673026
0.00468173
7.24783e-05
0.00672743
0.000229589
0.00352671
0.000765228
0.00672505
0.00160542
0.000758364
0.0122713
0.00506817
8.02477e-05
0.00384141
2.52465e-05
0.00141465
0.00651357
0.0250999
0.000913036
0.000922408
0.00687078
0.0140488
0.00629986
0.00672587
0.0147046
0.00672626
0.0150901
0.00612251
0.00243876
9.48947e-05
0.000474563
0.00672545
5.43755e-05
0.00682132
0.00672525
0.000628488
0.000292598
0.00106486
0.0060226
7.98989e-05
0.0157446
0.000666771
0.000321999
0.000401644
0.00139027
0.0188353
0.000828945
0.00021502
0.00971238
0.000669688
0.0171788
0.0146537
0.00574335
8.25553e-05
0.00182924
1.52294e-05
0.00579828
0.00681571
0.00675427
0.0281184
4.51386e-05
0.0291746
0.000442176
0.00150362
0.00674956
0.0316954
0.00246915
0.00258272
0.00279609
0.00858242
0.00275064
0.00207128
0.00221521
0.000930108
0.00177471
0.00208663
0.0279151
0.0250423
0.00254844
0.0067269
0.000817409
5.04236e-05
0.00117621
0.00287813
0.0112795
0.00111914
0.00673524
0.000690357
0.00680302
0.00149742
6.91304e-05
0.00410715
0.000332055
0.0173423
0.00680024
0.000848268
0.00146654
0.000222056
0.00171741
0.00395047
0.000578196
0.00100972
0.000227383
0.00241328
0.0176705
0.00392972
0.000223356
0.00672655
0.0252781
0.0200882
0.00105488
0.000457602
0.0251326
0.00828572
0.00705139
0.0223881
0.0205181
0.00133532
0.00216288
0.00566456
2.34575e-05
0.000572178
2.79563e-05
0.0283203
4.68141e-05
0.00249686
0.0104365
0.0191645
0.00672485
0.000780715
0.00166416
0.00425478
0.00673543
0.00864574
0.00145895
0.0312358
0.00674286
0.01806
0.00203104
0.000771241
0.00571103
0.0205269
0.00429932
0.000342013
0.0251101
0.00673089
0.00462642
0.0010256
0.00672861
3.15631e-05
0.00680393
0.0026937
0.00279121
0.0117329
0.00982592
0.000427668
4.8339e-05
0.00137962
0.00020305
0.027335
0.00109062
0.0185886
4.00222e-05
0.0237748
0.000432058
0.000746507
0.0180822
0.00673431
0.000731648
0.00679489
0.0067259
0.000713687
0.0179201
0.0138367
0.00639481
0.00672987
0.000362501
0.0221597
0.000677262
0.00664833
0.0318435
0.00125903
0.00115676
0.0039233
0.000154868
0.00672647
0.000556892
0.00448287
5.63454e-05
0.000243573
0.00283065
0.00674316
0.00190897
0.00082492
0.000659702
0.0282669
0.00462943
0.00672701
0.0141222
0.00799733
0.00672667
0.00013544
0.0260992
0.000292266
0.0270622
0.00446041
4.68612e-05
0.000203107
0.0181549
0.00674085
0.000485436
0.000374835
0.000684368
0.00672624
0.017108
0.00035839
0.0155066
0.00672368
0.00353591
0.0152666
0.0110818
0.00250373
0.000851062
0.00133158
0.0118054
0.000349318
0.00146495
0.00136118
0.0117984
0.00643505
0.01496
0.000875226
0.00052432
0.032278
0.00850343
0.000438287
0.00133659
0.00672572
0.00155833
0.00673938
0.00663813
0.000837001
0.000531225
0.00675477
0.0158658
0.00771062
0.000683278
0.00245879
0.00243913
0.0237494
0.00677265
0.000435604
0.0240696
0.0195464
0.00680653
0.0265833
0.00277819
4.98963e-05
0.0308038
0.00118829
0.0317465
0.000241544
0.000143622
0.00024521
0.000608901
2.40514e-05
0.0153106
0.00169247
0.00048613
0.00303402
0.0155882
0.000134728
0.00672741
2.40189e-05
0.00157486
0.00128147
0.00101318
0.000362033
0.0144471
0.00345496
0.000582371
0.00195316
0.0285166
0.000351736
0.00127854
0.000558391
0.000535928
0.00589344
0.015338
0.000334895
0.00672859
0.00153162
0.00525043
0.000343521
0.00326656
1.57623e-05
0.00366552
0.00672663
0.00675091
0.000476777
0.000709794
0.0245562
0.0194244
0.0067289
9.45592e-05
0.000284539
0.000435896
0.00483821
0.00673727
0.0276817
0.000684049
0.00108024
0.000848254
0.0067306
0.000899113
0.000133577
0.000467179
0.00808036
2.25894e-05
0.0288671
0.00386239
0.000758519
0.00155421
0.0026485
0.00676982
0.0060367
0.000172419
0.00672856
0.000948901
4.30228e-05
0.00155861
0.00681589
0.00344981
0.0278365
0.0130554
0.00133346
0.00046664
0.0020534
0.00674595
0.000296832
0.0018679
0.00129797
0.00929516
0.0168874
0.00441372
0.0241727
0.0113388
0.00110869
0.00367204
0.000351064
0.00784659
0.00390094
0.000305984
0.0202205
0.0014718
0.000430983
0.00364099
0.00673081
0.00672547
0.00252012
0.0123054
0.00391729
0.00672507
0.000144971
0.000603797
0.0185758
0.0006827
0.00677938
0.00102151
0.00268503
0.0114938
0.00271197
0.00523967
0.00062432
0.0111201
0.00294036
0.00045207
0.00270003
0.00106249
0.000118429
0.000202489
0.0068756
0.00383096
0.00676692
0.00219374
0.000538748
0.000231748
8.78311e-05
0.0067237
0.0127438
0.000504396
0.0186134
0.000512069
0.00102318
0.00659
0.000258419
0.000582728
3.83601e-05
0.0187265
0.00188754
0.0165686
0.000474717
0.00410843
0.00205593
0.000447102
0.00674363
0.0134852
0.0202045
0.000715252
0.0225771
0.00138129
0.00235508
0.00262047
0.000103637
8.75625e-05
0.00036479
0.000563486
0.000289472
0.000297331
0.00147692
0.000397027
0.018009
0.00367313
0.0170591
0.00392887
0.0154934
0.00672647
0.00301871
0.024399
0.00673606
0.00208705
0.00672455
0.00106786
0.0180935
0.000829309
0.000334865
0.00543917
0.00661178
0.0168901
0.000291209
0.00043841
0.000522
0.0143466
0.000635248
0.000311051
0.00680486
0.000443788
0.000945286
0.00111127
2.94731e-05
0.0027164
0.00680931
0.00426174
0.00806441
0.00159151
0.000161007
0.00537525
0.00380951
0.00622511
0.00118631
0.00246742
0.000470824
0.00128276
0.0100824
0.00672743
0.00173206
0.00071393
0.0139429
0.000387405
0.0146501
0.000780762
0.00677255
0.00125735
0.00672622
0.00674796
4.49236e-05
0.000471622
0.00946563
0.0213488
3.14675e-05
0.000659675
0.000463596
0.00675733
0.00454013
0.00237641
0.000616636
0.0225479
0.000259971
0.0147598
0.00155295
0.00219602
0.0122445
0.000863788
0.000469913
0.00066666
0.0131289
0.00036848
0.00105557
0.000497439
0.00290102
0.00692704
0.00608845
0.000401329
0.00686375
5.49449e-05
0.00677178
0.0319077
0.0298562
0.000923099
0.000982562
0.00678994
0.00303081
0.0125756
0.00085341
0.0208616
0.00195085
0.000407385
0.0163428
0.00144171
0.0271791
3.0505e-05
0.00480075
0.0007414
0.00235276
6.85537e-05
0.00989527
0.000278432
0.00095421
0.00100485
0.000281308
0.00631561
0.00125774
0.0178606
7.06183e-05
0.00166137
0.00440133
0.00118222
0.00672692
0.00225811
0.00672392
0.000980912
0.000672064
0.0264026
0.0116753
0.00672789
0.00279891
0.020236
0.00256183
0.000701386
0.00167972
0.000504321
0.0228433
0.0309146
5.3841e-05
0.0106527
0.000674506
0.000815351
3.30242e-05
0.000630564
0.00218763
0.00672538
0.0263819
0.000303672
0.0135291
5.07543e-05
9.56762e-05
3.24479e-05
0.0302514
0.0301699
0.000589578
0.00146285
0.0258854
0.0119422
0.0275236
0.00513709
0.00116381
0.00429526
0.0148454
0.0151762
0.000591577
2.86976e-05
0.00133913
0.000790159
2.97897e-05
0.0189607
0.00675047
0.00160613
3.64853e-05
0.000975711
0.00178476
0.0114104
0.0024185
0.00101751
0.00485695
0.0217441
0.0178247
0.0184047
0.00672514
0.0111227
0.00871899
0.0184952
0.0251196
0.0213237
0.000744644
0.0137608
0.015038
0.000379872
0.000573579
0.00148781
0.000204298
0.000680259
0.0233676
0.0325406
0.0181649
0.000300401
0.0238147
0.000768785
0.00196186
0.00825177
0.000726848
0.00434402
0.00293856
0.000356256
0.027915
0.00152123
0.00230327
0.00139486
0.00673475
0.000869336
0.000296675
2.83495e-05
0.000868673
0.000494913
0.0181877
0.000382619
0.0024324
0.001901
0.0130909
8.15241e-05
0.000179532
0.0179642
0.000609259
0.000136548
0.000826018
0.0238937
0.0073153
2.6523e-05
0.000110277
0.00035282
3.48335e-05
0.000398344
0.00441986
0.00188276
0.0130973
0.0067244
0.0277059
0.0127179
0.0011402
0.000416642
0.00106134
0.00673223
0.00939787
0.00673415
0.00118618
0.0241318
0.000483802
0.0229357
0.000713969
0.0187034
0.000476665
0.000731722
0.0177708
0.00672429
0.000841174
0.000947887
0.00428076
0.00330957
0.0116941
0.000379569
0.0067685
0.00100935
0.000266449
0.00308
0.00502276
9.55299e-05
0.00340617
0.00151737
0.00142146
0.0187463
0.000407454
0.00921708
0.0162435
0.000476398
0.000984646
2.23587e-05
0.0186049
0.00576543
0.00142226
0.00347739
0.00192112
0.00423049
0.000433263
0.0187054
0.00185329
9.49734e-05
0.00182321
0.000973235
0.0140281
0.00106913
5.63949e-05
0.00101925
0.00166168
0.00569794
0.000933204
0.00902834
3.14484e-05
0.000516925
0.00179739
0.0203077
0.000721644
0.00680009
0.0226137
0.00673467
0.00011204
0.00676053
0.0018919
0.0194265
0.00674231
0.000399315
0.00554787
0.0205901
0.00238339
0.000466247
0.00175746
0.000178512
3.33228e-05
0.000954912
0.00108844
6.17751e-05
0.0009184
0.000714467
0.000705218
0.00037312
3.43921e-05
0.000954776
7.32685e-05
0.000300902
0.000936746
0.0163503
0.021162
0.00672486
0.00080436
0.0259686
0.000163821
3.23796e-05
0.00038582
0.000110075
0.000652417
0.0067268
0.00112044
0.0221423
0.0240302
0.0279807
0.00109952
0.000170048
0.0163348
0.000136073
0.0252134
0.00272665
0.0200096
0.000795356
0.0175985
0.000994916
4.29013e-05
0.0225546
0.0067316
0.00095889
0.00214667
0.00150069
0.000677061
0.0315398
0.0274163
0.000946922
0.00672937
0.00526088
5.99649e-05
0.00241367
0.0232149
0.0269323
0.00017399
0.000709114
0.0160063
0.000426227
0.00676838
0.0294462
0.00400245
0.0084068
0.0208509
0.00894383
0.000181187
0.00639029
0.00124536
0.00672759
0.000652065
0.000471239
0.00114334
0.0245129
0.0192747
0.00119632
4.06716e-05
0.00562723
0.0171103
0.0180931
0.0175119
0.0266639
0.000610771
0.00788201
0.0307927
0.00202874
0.000101244
0.00106341
0.0180202
0.00687294
0.0067392
0.000885819
0.00673159
0.00149133
0.00288903
0.00208942
0.00673189
0.0251259
0.00195342
0.0259367
0.00672649
4.64446e-05
0.000538947
0.00051743
0.01512
0.0263526
0.00674365
0.000705853
0.00692522
0.00608395
0.00756531
0.0300975
3.20454e-05
0.000623664
0.000507574
4.51212e-05
0.000616396
0.00672706
0.0067258
0.000994326
4.71542e-05
0.0288489
0.000384841
0.00024695
0.00229974
0.0270215
0.000237271
0.000497824
0.0174137
0.000160971
0.00426183
0.00539763
0.000778662
0.000582008
0.000947186
0.00123948
0.00673403
0.00208378
0.000556351
0.000229606
3.7299e-05
0.000250923
0.00448441
0.000729764
0.000921741
0.00503382
0.000782034
0.00245989
0.0071562
0.0018973
0.00672365
0.000393197
3.55892e-05
0.000800315
0.00675831
0.000548419
5.70585e-05
0.0316963
0.000338765
0.000349329
0.00207614
0.0156205
0.00128656
0.00139197
0.0247375
0.00193371
0.000711172
0.0010427
0.0172934
0.00678592
0.00492708
0.0218955
0.0207517
0.0114452
0.00121089
0.0228089
0.0067463
0.00673122
0.00208102
0.00159906
0.0253682
0.019529
0.00157151
0.00221573
0.0021282
0.00921952
4.48475e-05
0.0120046
0.000835413
0.000213686
0.00168635
0.00286895
0.00673516
0.000315847
0.0207619
2.88006e-05
0.00302351
0.0015124
4.30645e-05
0.0201367
6.78271e-05
0.00674765
0.00233904
0.000451083
3.40782e-05
0.000593727
0.0055939
0.000619916
0.0167146
0.0015473
0.00596821
0.0242588
0.00656879
0.000652118
3.79133e-05
0.00231538
0.00453415
0.00672644
0.0001544
0.00672383
0.00272469
0.0213105
7.15196e-05
0.0154121
0.00166223
0.000370761
0.00673558
0.0067429
0.000165447
6.69569e-05
0.0248452
0.00304963
0.0064971
0.00158363
0.000126261
0.00672461
0.00147373
0.0154422
0.0201086
0.000252217
0.000295898
0.0209805
0.00195969
0.00089648
0.00178274
0.000107948
0.00101179
0.00672694
0.00427756
3.32099e-05
2.96596e-05
0.000562801
0.000897269
0.0011498
0.00216245
0.000527798
0.000916028
0.000855761
0.00674042
0.00225189
0.00135254
0.0289704
0.0264511
0.00037396
0.00672568
0.000630667
0.0175918
0.000590935
0.000975103
9.53881e-05
0.00672851
0.0109019
0.0053001
0.000129186
0.00325608
0.000804819
0.00126068
0.00129911
0.000220705
0.00124688
0.000526442
0.00631655
0.000215343
0.000811354
0.000387518
4.23274e-05
0.014154
0.0186773
0.00683035
0.000982312
0.000975062
0.000642671
0.000572945
0.00471713
0.00679705
5.43939e-05
0.0271317
0.00359752
0.000884625
0.004565
0.000829471
0.000359708
0.00815101
0.00656178
0.000259381
0.0282631
0.0244996
0.000161938
0.000747884
0.0246284
5.93551e-05
0.00181472
5.08787e-05
0.00113971
0.00188868
0.0229814
0.0067755
0.000140324
0.00490512
0.0193302
0.000953141
0.00673894
0.00376996
0.0183523
3.11955e-05
0.0141088
0.00255937
0.000135189
0.000606481
4.99912e-05
0.0317601
0.00205192
4.5315e-05
0.00460265
0.00310434
0.00675377
3.69644e-05
0.0195404
0.00431874
0.000130255
0.00092423
0.0203562
0.000363998
0.00425576
0.00178248
0.019064
0.00403973
0.000137923
7.51483e-05
0.0204518
0.00672585
3.80932e-05
0.00100436
0.000982468
9.52626e-05
0.00249167
0.0156404
0.0275964
3.91168e-05
0.00263082
0.000102856
0.0126763
0.000128025
0.0258966
8.6397e-05
0.0158699
0.00202565
0.0159759
0.0017561
0.00177722
0.00169935
0.00682501
0.000146278
0.00675145
0.00262859
7.66859e-05
5.04546e-05
0.00158318
0.00287373
0.000147417
0.00184455
0.00331615
6.10072e-05
0.00111341
0.000134304
0.00046991
0.0067466
0.018628
0.000687977
0.00258976
0.000111372
0.00673053
4.51757e-05
0.00676632
0.000479795
0.000155776
0.0110884
0.000426832
0.0208787
5.88956e-05
0.00672638
0.000375907
0.00116208
0.0230252
0.000215894
5.46079e-05
0.000160286
0.0029059
0.000238325
0.000230295
0.0124058
0.00400432
4.33905e-05
0.018529
0.00673203
0.00197586
0.00111492
0.000236598
0.00344759
0.00672638
0.00818605
0.000110201