/*--------------------------------*- C++ -*----------------------------------*\
| =========                 |                                                 |
| \\      /  F ield         | OpenFOAM: The Open Source CFD Toolbox           |
|  \\    /   O peration     | Version:  v2012                                 |
|   \\  /    A nd           | Website:  www.openfoam.com                      |
|    \\/     M anipulation  |                                                 |
\*---------------------------------------------------------------------------*/
FoamFile
{
    version     2.0;
    format      ascii;
    class       surfaceScalarField;
    location    "400";
    object      phi;
}
// * * * * * * * * * * * * * * * * * * * * * * * * * * * * * * * * * * * * * //

dimensions      [0 3 -1 0 0 0 0];
oriented        oriented;


internalField   nonuniform List<scalar> 
21222
(
0.0484123
-0.0838352
0.0354228
0.0159287
-0.000782799
-0.0151459
-0.229325
0.203507
0.0258186
0.187148
-0.0908545
-0.0962933
0.0388025
-0.117593
0.0787905
0.302994
-0.266564
-0.0364305
0.00134994
0.000283634
-0.00163357
0.0264685
0.130932
-0.157401
0.0698319
0.106422
-0.176254
-0.0130792
-0.26262
0.275699
-0.0943944
0.0513723
0.0430221
0.0167184
-0.00990508
-0.00681332
0.0550699
-0.00665754
0.434337
-0.585338
0.151001
-0.0128591
0.0141559
-0.00129677
-0.0242837
0.529238
-0.504954
-0.160263
0.186731
-0.333653
-0.0890966
0.422749
-0.131906
0.181268
-0.0493621
-0.176532
0.0446263
0.343645
0.0902021
-0.433847
-0.0120472
0.00910408
0.00294314
-0.155129
0.18971
-0.0345807
0.00767866
0.00903973
-0.0892346
0.143521
-0.0542861
0.0167097
-0.000781068
0.388264
-0.452829
0.0645644
0.00215418
-0.000804244
-0.101152
-0.00483664
0.105988
0.148905
-0.176267
0.0273629
0.253404
-0.262508
0.00910348
-0.0774489
-0.32594
0.403389
0.545135
-0.39289
-0.152245
-0.0520278
0.0113869
0.0406409
0.00492174
-0.00578141
0.00085967
0.0158141
-0.0139452
-0.0018689
0.0350411
-0.0210493
-0.0139918
0.0267768
-0.171759
0.144982
-0.0846415
0.132723
-0.0480819
-0.105298
-0.000632165
0.10593
-0.0162044
0.0162044
-0.00334933
0.0121052
-0.00875585
-0.088844
0.245336
-0.156492
-0.575992
-0.0102937
0.586286
-0.188309
-0.0316881
0.219997
0.0457518
-0.134986
-0.102564
0.0478626
0.0547011
-0.0125535
-0.000170475
0.012724
-0.0125912
3.76875e-05
0.200291
-0.533944
-0.00940897
0.0115917
-0.00218269
0.0938272
0.0933206
-0.000870861
0.0137563
-0.0128855
0.0158164
-0.00980379
-0.00601265
0.182301
0.0962537
-0.278555
0.0139554
0.00185875
0.0235958
-0.0272284
0.00363263
-0.166937
0.00843485
0.158503
0.461917
-0.153385
-0.308532
0.0199867
-0.249312
-0.0413395
0.144631
-0.103292
0.0434416
-0.0532886
0.009847
-0.0170347
0.0123703
0.00466433
-0.282521
-0.181601
0.464122
0.0413008
0.103989
-0.14529
0.023533
0.0132612
-0.0367942
-0.0451662
0.0648265
-0.0196603
-0.511967
0.0640816
0.447885
-0.474508
0.191987
0.269637
-0.0873355
0.00774228
0.00807416
0.0355876
-0.171605
0.136018
0.00447354
0.000448197
-0.00163453
-0.00199296
0.00362749
-0.245324
-0.115582
0.360906
-0.000794886
-0.00173497
0.00252985
0.00702392
0.193958
-0.200981
0.0310678
-0.0250333
-0.0060345
-0.217961
0.0296517
-0.0826511
-0.381036
0.311739
-0.520394
0.208655
-0.00887957
0.0053378
0.184254
-0.148666
0.0238501
0.00721775
0.314254
-0.4212
0.106946
-0.384523
0.117985
0.266538
0.0109002
-0.0116951
-0.0130289
0.0140528
-0.00102395
-0.0143912
0.00153203
-0.0276419
-0.0667525
0.184632
-0.229322
0.0446901
-0.126106
0.0810435
0.0450622
0.501419
-0.18968
0.106484
0.223878
-0.330362
-0.0138644
0.0150236
-0.0011592
0.0141387
-0.0128624
-0.00127635
-0.244423
0.155579
-0.0103983
0.0121375
-0.00173915
-5.70247e-05
0.00638576
-0.00632874
0.088452
-0.0421439
-0.0463081
0.0298418
-0.541809
-0.012114
0.0123616
-0.000247543
-0.00307927
0.266576
0.256993
-0.523569
0.0517697
0.0366823
-0.133984
0.0493421
-0.00773464
-0.000890159
0.0086248
-0.0118
0.0127757
-0.000975633
0.217084
-0.231032
0.013948
-0.141214
-0.0225596
0.163773
0.000973352
0.0131653
-0.0496576
0.259143
-0.209485
-0.00860816
0.000873522
-0.281657
-0.101545
0.383202
-0.268766
0.388632
-0.119866
-0.0156584
7.59946e-05
0.0155824
-0.446495
0.164838
-0.0132248
0.0139534
-0.000728549
0.006772
-0.0081425
0.0013705
0.0156972
-0.0156972
0.143419
-0.0964416
-0.0469773
0.21483
-0.263903
0.0490728
-0.53338
0.116518
0.416862
-0.0130251
0.0152151
-0.00219
-0.109569
0.00841707
-0.571481
-0.00451113
0.00936046
-0.0393275
0.0299671
-0.138109
0.516896
-0.378787
0.115022
0.281079
-0.396102
-0.0533985
-0.0727073
0.0111979
-0.0094324
-0.00176555
-0.00152758
0.00243387
-0.000906284
-0.0767649
0.0647682
0.0119967
-0.00911279
0.0122341
-0.00312134
0.00438255
0.144522
0.127455
0.24233
-0.369786
0.183717
-0.298698
0.114981
-0.0190588
0.0192858
-0.000226987
-0.365275
-0.00292803
0.368203
-0.350272
0.104949
-0.0205556
0.00149672
-0.0124405
0.0147728
-0.00233234
-0.220536
0.170878
-0.0111798
0.00078145
-0.168218
0.027004
0.0110117
-0.00848853
-0.00252317
-0.131837
-0.0119435
0.14378
0.0488831
-0.0759923
0.0271092
-0.207155
-0.034504
0.241659
-0.10413
0.0188801
0.0852496
-0.0175793
-0.211395
0.228974
-0.0123253
0.0123253
-0.325602
0.251328
0.0742739
-0.279597
0.0724412
0.110893
-0.0720908
-0.014259
0.00103415
0.165691
0.0704175
-0.236108
0.371318
-0.395602
0.240018
0.0629766
-0.0184626
0.00185567
0.0166069
0.237438
0.224479
-0.0108163
0.00140735
0.0687285
-0.0556418
-0.0130867
-0.0140686
0.0149792
-0.000910649
-0.054545
-0.173526
0.228071
-0.0115261
-0.000273897
-0.011733
0.0141506
-0.00241765
-0.0036111
0.0811991
-0.077588
0.00362856
-0.0052631
0.00316324
-0.00469083
-0.0954781
0.0725051
0.022973
-0.59638
0.588716
0.00766447
-0.0125381
-0.000490743
0.244603
-0.257682
-0.247387
0.207557
0.03983
0.0224784
0.0125627
-0.42443
-0.0620698
0.486499
-0.0141785
0.0105869
0.00359153
0.00456983
-0.00353359
-0.00103624
0.0106149
0.000583046
0.0735935
0.045581
-0.119174
0.226089
-0.219065
-0.0947622
-0.438618
0.120819
-0.00552625
-0.115292
-0.207212
0.213133
-0.00592064
-0.128223
0.174316
-0.0460927
0.0141562
-0.119454
-0.0052971
-0.127898
0.133195
-0.00473049
0.00391149
0.000818997
0.103375
0.0170666
-0.120441
-0.195198
0.0400686
-0.0280116
-0.0674987
0.0955103
-0.0103353
0.0123886
-0.00205321
-0.0158659
0.0125166
-0.209451
0.475644
-0.266193
0.00156951
-0.00804672
0.00647721
-0.131787
0.0904472
0.182007
0.192446
-0.374453
-0.271562
0.423246
-0.151684
0.0755315
-0.0634198
-0.0121117
0.0158405
-0.0143543
-0.00148615
0.196234
-0.224292
0.028058
-0.0163021
0.00223355
0.0016351
-0.0119705
0.255283
-0.375067
0.119784
0.155632
-0.159116
0.00348367
-0.113086
0.154387
-0.0399361
0.200945
-0.161009
0.617043
-0.385398
-0.231645
0.010753
-0.013835
0.00308204
0.130904
-0.149702
0.0187983
-0.446574
0.335363
0.111211
-0.0146778
0.00223735
-0.182755
0.146049
0.036706
0.00132722
0.00468363
-0.00601085
0.00679804
-0.00807385
0.00127581
0.0262803
-0.03498
0.00869973
0.00559628
-0.00565331
0.00667489
-0.00534766
0.0226179
-0.162305
0.139688
-0.0519435
0.248178
0.206572
0.0105123
-0.0106395
0.172975
-0.162335
0.00992493
-0.181557
0.171632
0.0506713
-0.00722969
-0.234251
0.276124
-0.0418734
-0.589375
0.589375
0.124826
-0.00400737
-0.000256949
-0.0110058
-0.0207204
0.0317263
-0.0653906
-0.523985
0.20239
-0.256936
0.00643866
-0.110568
-0.13779
-0.499929
0.637719
0.172585
0.00153842
0.04335
-0.0448884
0.190143
-0.223232
0.0330888
0.154467
-0.194403
0.00481226
-0.0052812
0.000468944
0.00714641
0.000393757
-0.00754016
-0.238857
0.345341
0.199998
-0.242806
0.0428083
-0.0400224
0.0294053
0.010617
-0.014492
2.02096e-06
0.01449
-0.0510621
-0.041121
0.0921831
-0.0637013
0.0600902
0.0288781
0.00491964
-0.0337977
-0.603376
0.140199
0.463177
0.00713746
8.94318e-06
0.134353
-0.0271187
-0.107235
0.394094
-0.434021
0.0399266
0.383094
0.00336767
-0.00134659
-0.00202108
-0.0222173
0.00193924
0.020278
0.186326
0.0433687
-0.229695
-0.00293381
0.00242776
0.000506047
-0.160408
0.233297
-0.0728887
-0.00489648
0.160529
-0.00861725
0.000285794
0.00833146
-0.169344
-0.0110874
-0.0516185
-0.0251464
0.258798
-0.043968
-0.0141354
0.00111027
0.091005
0.0433483
0.0858833
-0.0820311
-0.00385221
-0.222167
0.0617593
-0.027462
0.117394
-0.0899316
-0.0377474
0.237745
-0.0486472
-0.335876
-0.0114983
0.0126725
-0.00117419
0.0155345
0.00118679
-0.0167213
0.298152
-0.261719
-0.0364333
-0.0212565
0.124631
-0.0141273
-0.00153102
-0.140455
0.191014
-0.0505597
-0.0231195
0.029274
-0.00615452
0.00401846
0.0116787
-0.0278181
0.010376
-0.000123616
-0.0102524
0.0828626
0.0403753
-0.123238
0.22979
0.0236145
-0.149178
0.312983
-0.163805
0.00800443
-0.00765839
-0.000346038
-0.0062348
0.10778
-0.376546
-0.0127972
-0.00134882
0.0141461
-0.00180816
0.00719834
-0.00819204
0.000993695
-0.0124022
0.0032894
0.00595237
0.000215232
-0.0305097
-0.216877
-0.00116464
0.00763999
-0.00647535
0.00944563
-0.0122194
0.00277377
0.0093701
0.00100588
-0.0389994
0.142989
-0.0494281
0.193738
-0.14431
-0.0125606
0.00103447
-0.00821516
-0.17454
-0.373165
0.308991
0.0641738
-0.454241
0.18268
0.225194
-0.040563
0.00639593
-0.00756058
-0.014171
0.0630542
0.000250002
0.0105819
-0.0108319
0.0658487
-0.194072
-0.0438421
0.358096
0.0119863
-0.00963002
-0.00235628
-0.00146026
-0.35108
-0.1823
0.533381
-0.149163
0.38282
-0.233657
0.0062929
0.00100705
-0.00729995
0.0764137
0.348897
-0.425311
0.00847799
-0.00167995
-0.01184
0.0127178
-0.000877801
-0.0726406
-0.0533598
0.126
-0.0979313
0.0926342
0.398292
-0.28327
-0.185164
-0.0370029
-0.333838
0.130659
0.203178
-0.020637
-0.575743
0.00197609
0.127955
-0.112231
-0.0157248
0.0122079
-0.00145495
0.0526333
-0.238674
0.18604
-0.0961257
0.059986
0.0361397
0.212347
-0.421799
-0.0112552
-0.00130538
-0.10514
-0.028844
0.0478896
0.244931
0.0234002
-0.208565
-0.0128639
0.0125641
0.000299864
-0.69144
0.500958
0.190482
-0.000969145
0.00593752
-0.00436802
-0.517512
0.239347
0.278166
0.012142
-0.00269639
-0.000506405
0.00387407
0.00478923
-0.00243274
-0.00235649
-0.00175679
0.00219761
-0.000440824
-0.233859
0.415866
0.0606814
-0.0821646
0.0214832
-0.219136
0.569694
-0.350557
0.0162629
-0.619639
0.00299649
-0.0417088
0.0387123
0.0693363
-0.528225
0.458889
-0.406164
-0.0278562
0.0572046
0.00455695
-0.0617615
0.0126843
-0.144521
0.0127272
-0.0117034
-0.0010238
0.449195
-0.633826
0.184631
-0.042907
0.226624
-0.0116827
0.00777367
0.00390901
-0.0134481
0.0142857
-0.000837662
-0.0336103
0.0314969
0.00211335
-0.395253
0.14951
0.245742
0.395354
-0.140071
0.356216
0.240799
-0.316644
0.498006
-0.181362
-0.0108774
-0.000620946
-0.0250675
-0.0774963
0.0906428
-0.00475948
-0.0153109
-0.0847989
0.00276782
0.029531
-0.0358682
0.00633716
-0.00140982
-0.505894
0.367785
-0.0141931
-0.000298857
0.00032133
0.0076831
-0.215156
-0.0473518
-0.0728224
0.144469
-0.0716463
-0.0254393
-0.300163
0.429988
0.188207
-0.618195
-0.0291522
0.00603276
-0.0114639
-0.00140005
0.116449
-0.143912
-0.0933728
-0.240465
-0.333803
-0.18371
-0.16784
-0.227413
-0.00523725
-0.00163783
0.00687507
0.00904524
-0.0124358
0.0033906
0.0367448
0.147509
-0.440242
0.509578
-0.020124
-0.0753541
-0.0843426
-0.0289503
0.113293
-0.00268521
0.0023868
0.000298405
-0.157711
0.147071
4.90477e-05
-0.00298285
-0.00318845
0.000503241
-0.0962991
0.125876
-0.0295767
-0.35946
0.185934
0.002182
0.00344264
-0.0492404
-0.00278739
0.0011943
-0.0130343
-0.00152329
0.00188476
-0.000361471
0.0845141
-0.152544
0.0680299
0.0161446
0.43305
-0.14154
-0.0894924
0.00594287
0.0019833
-0.2288
0.156401
-0.057475
-0.0989257
-0.115826
-0.286839
0.402665
-0.00153863
-0.0105754
-0.00357557
0.000387122
0.149726
-0.157922
0.00819563
-0.0100648
-0.00198765
0.0120524
0.105093
0.0228626
0.00453754
0.0861052
-0.0232254
0.00946594
0.0137594
-0.220963
0.448938
-0.227975
0.00643375
0.00134642
-0.00778018
-0.0125849
0.011714
0.10627
-0.155698
-0.191271
0.453045
-0.261775
-0.406574
0.482988
-0.136974
0.125031
0.00918824
-0.00935943
0.000171191
0.115696
-0.466776
0.0487047
-0.0997669
0.236469
0.0616834
0.0188565
-0.0118872
-0.00696925
0.0268291
-0.131969
0.0553677
0.101033
-0.500948
-0.190492
-0.0113712
0.000191487
-0.00130186
-0.125844
0.163299
-0.0374543
0.18207
-0.216284
0.0342143
0.0412771
-0.256235
0.0100533
-0.00949128
-0.000562019
0.000823233
0.446133
-0.142277
0.212109
-0.127114
0.0308147
-0.288161
0.155291
0.13287
-0.128975
0.177191
-0.0482157
0.0131622
-0.0121283
-0.00103382
0.124713
-0.0359667
-0.0887458
-0.315517
-0.0576477
-0.0312266
0.00900936
0.23008
0.18671
-0.41679
-0.00875799
0.011774
-0.003016
-0.130863
0.17527
-0.148493
0.0150092
0.125698
-0.140707
0.0313354
-0.115678
-0.0109852
-0.000386035
0.508935
-0.314297
-0.194638
-0.20679
0.216715
0.0625782
-0.00537361
0.0101494
-0.0137114
0.00356199
-0.185346
-0.273988
0.459334
0.194806
-0.213714
0.0189079
-0.243246
0.0940681
0.0141395
-0.00136515
-0.0127743
-0.0546014
0.0975046
-0.0429033
-0.0103859
0.0106907
-0.000304823
-0.00132351
0.00775727
-0.148404
-0.0198137
-0.34706
0.277436
0.0696238
-0.00289344
0.0319218
-0.0290283
-0.0119664
-0.00242477
-0.173255
0.0442803
-0.00332483
-0.000250737
-0.021692
0.0835843
-0.0618923
0.0124031
-0.00335789
-0.166652
0.0182478
-0.018685
0.213491
0.00255389
-0.0270746
0.251242
-0.224168
-0.124606
0.169568
-0.0449626
0.0128865
-0.000159283
0.167932
-0.205103
0.0371703
-0.0143305
-2.37587e-05
-0.228185
0.119364
0.108821
0.560348
-0.406835
-0.153512
-0.296052
0.238175
0.0578767
0.0140724
-0.00118595
-0.00452838
0.170377
-0.0167582
-0.153619
0.0101181
-0.00035501
-0.00976306
0.0360574
-0.160663
0.00926238
-0.0108204
0.00155805
-0.00114851
0.0103367
-0.0741349
0.147728
0.6455
-0.278768
-0.366732
-0.00258975
0.000832965
0.0572746
-0.198254
0.140979
0.169248
-0.14663
0.209477
-0.43044
-0.111994
0.0573924
0.0116583
-0.249663
0.238004
-0.126551
0.0539106
-0.145609
0.156162
-0.0105536
0.00264773
0.00836396
0.443615
0.126041
-0.569656
-0.046296
0.189229
-0.142933
0.00330521
0.00681286
-0.0156077
-0.00494782
0.0531875
-0.000565194
-0.00748153
0.0142688
-0.0155147
0.0012459
-0.00651623
0.208907
0.528801
0.189678
-0.380948
-0.00514291
0.00276081
0.0023821
-0.150396
0.0225392
0.127857
-0.0113783
-0.129076
0.282465
0.0216313
-0.0245247
0.0595721
-0.322192
-0.20482
0.295827
-0.0910064
0.191939
0.111508
-0.303447
-0.00938988
0.00906252
-0.00276963
0.10589
-0.0705097
-0.0353805
0.000674319
0.0616004
-0.0586039
-0.188802
0.107186
0.0816156
0.0140414
0.000227405
-0.205193
-0.0829678
0.289779
-0.134488
-0.107307
-0.00226216
0.0379695
-0.102599
0.0646296
0.00121006
-0.0265978
0.271201
0.00694252
0.436673
0.150845
-0.17504
0.0241951
0.0291899
-0.394465
-0.0620954
0.292175
0.0294214
0.140956
0.133108
0.331045
-0.464153
-0.121548
0.441847
-0.320299
0.0946836
-0.121791
0.027107
0.00198701
0.246063
-0.0597368
-0.00226075
-0.122497
0.158189
-0.0356916
-0.618368
0.451186
0.167182
0.000752851
-0.285602
0.0804096
0.0115452
-0.0103393
-0.00120587
0.117941
-0.131853
0.013912
-0.295878
0.0910577
0.157125
-0.202483
0.0453574
-0.268883
0.237089
0.0317937
-0.083035
0.141881
-0.0588459
-0.158593
0.0327487
-0.0134634
1.53149e-05
0.161336
0.13449
0.237902
-0.244418
-0.00171694
-0.000450913
0.00216786
-0.0103371
0.00509981
0.0045635
-0.0201712
-0.0697478
0.106914
-0.0371667
-0.104395
-0.00291133
0.0707894
-0.331175
0.260386
-0.329143
0.260252
0.0688907
0.191212
0.00380606
0.00464162
-0.00538501
0.00074339
-0.0115053
0.00187532
-0.112215
-0.0381809
0.135715
-0.0528526
-0.116499
0.1546
-0.0381007
0.0379956
0.350269
-0.345764
-0.272604
-0.230028
0.20238
0.0276471
-0.221783
0.31984
-0.0980572
0.0360967
0.0183164
-0.0544131
-0.141037
0.520592
-0.379554
-0.0014589
-0.0140558
0.14809
-0.156504
0.00841359
-0.0102917
0.0112677
-0.000976018
-0.582688
0.582688
-0.20326
0.180943
0.0223173
0.292558
-0.370007
0.0421085
0.0143026
-0.0564111
-0.120614
0.554951
-0.0286133
0.0249337
0.00367963
-0.055182
0.137605
-0.0824226
-0.307737
-0.145092
-0.112193
0.0737119
0.0384812
-0.498945
-0.236953
-0.0319303
0.509154
-0.554618
0.0454633
-0.203124
0.145176
-0.124244
-0.0209312
-0.27315
0.244388
0.0287625
0.0109847
-0.00172234
0.441568
-0.351366
-0.148133
0.0650977
0.151387
-0.177374
0.025987
0.139629
-0.149442
0.00981365
0.323605
0.174401
-0.0506484
0.0620353
-0.148145
0.0240388
0.124107
0.0157845
-0.0127574
0.0111579
0.00159958
0.0258744
-0.212534
0.18666
-0.0649559
0.105648
-0.0406922
0.00730081
-0.00850822
0.00120741
-0.00602857
-0.00497726
0.300657
-0.13932
-0.41141
0.53745
0.0038121
0.00212543
0.211491
-0.31708
0.105589
0.157939
0.0205403
-0.178479
0.049534
-0.0210978
-0.0284362
-0.0123195
0.000586469
0.128185
0.00755718
-0.135742
-0.0108891
0.0111074
-0.00021831
-0.195023
-0.390315
-0.0141718
-0.0447758
0.0589476
0.0868871
-0.154759
0.0678723
-0.00850389
-0.0305435
-0.011894
0.0424375
-0.48307
0.297723
0.135551
-0.485859
0.350308
0.137114
0.0109764
-0.0270177
0.240949
-0.267546
-0.143837
0.0273378
-0.00884958
0.0115748
-0.00272523
0.128647
-0.420506
0.468553
-0.159517
-0.309036
0.000160378
0.00365076
-0.00381114
0.0179068
-0.0484503
-0.0107611
0.0120825
-0.00132136
-0.168911
0.495066
-0.326155
-0.0985706
0.156865
-0.0582939
-0.417869
0.0813555
0.336513
0.282363
0.262772
-0.00885761
0.120229
-0.531638
0.00328335
-0.0117719
-0.0411618
-0.00735949
0.0368905
0.136702
-0.370561
-0.270098
-0.029614
0.299712
0.193551
-0.036426
0.231004
-0.178371
0.0101442
-0.00999531
-0.000148856
-0.00155432
-0.0201486
0.021703
-0.0105809
-0.00173856
-0.232279
0.2147
0.183471
-0.208976
0.0255044
0.350581
0.239913
-0.590494
-0.256095
0.040939
0.0440678
-0.0205348
-0.021188
-0.00361005
0.00184631
0.00176374
0.175299
-0.0239122
-0.121965
-0.0254465
-0.0415575
0.067004
-0.0433681
-0.163844
-0.227203
0.22159
0.00561331
-0.153596
0.0310989
-0.00022156
-0.00149538
-0.32066
0.0988768
-0.250927
0.023724
-0.110071
0.0451155
0.011766
-0.0218876
0.0101216
0.100305
0.0496137
-0.149919
0.0145842
0.00427228
-0.0370868
0.502394
-0.465308
0.222886
-0.0700126
-0.152873
-0.000672854
-0.0488162
0.214507
-0.000502668
0.219944
0.24861
0.0329603
-0.308104
-0.0210388
0.00429646
-0.333769
-0.112805
-0.0158838
-0.0258737
0.0417575
-0.00662983
0.00660271
2.71201e-05
0.619897
-0.258329
-0.361567
0.0681194
-0.0260109
0.41492
0.204977
-0.392042
0.329972
-0.0881281
0.0470071
0.00175159
0.035857
0.19201
-0.227867
0.0107905
-0.000407127
-0.0103833
-0.00917279
0.000709197
-0.00435264
0.00364344
0.0300284
-0.00643265
-0.450615
0.330955
0.11966
-0.0652944
-0.179129
-0.168233
-0.380224
0.271513
0.108711
0.202576
-0.176702
-0.332196
-0.0480285
-0.0392107
-0.0569149
-0.0324217
0.0253432
0.00707843
0.179251
-0.225175
0.0459237
0.0338923
0.201535
-0.235427
-0.0791601
0.290651
-0.289599
0.402455
-0.112856
-0.0078971
-0.00378558
-0.547895
0.548245
-0.000350551
-0.133778
0.0785959
0.0647279
-0.188573
0.013699
-0.000925049
-0.012774
0.0375185
-0.0544151
0.0168966
0.143629
0.00277141
-0.146401
-0.00721441
0.00737479
-0.100517
-0.00328187
0.103799
-0.00521131
-0.0109931
-0.137176
-0.039356
-0.513503
-0.0366027
-0.381266
-0.267275
0.266157
0.00111819
-0.160962
-0.00597542
-0.0396793
-0.256372
-0.175397
0.203158
-0.0277617
-0.221476
-0.0154768
0.162169
0.0607173
-0.00509827
0.00732788
-0.00222961
-0.472978
0.304066
-0.117252
-0.110933
0.168531
-0.115397
-0.0531339
-0.103378
0.327256
0.213813
-0.154322
-0.0594914
-0.0254526
-0.136853
-0.276863
0.0744634
0.2024
0.0309303
0.0186036
0.406657
-0.535505
0.315451
0.220054
-0.00354355
-0.00373791
0.0029367
0.000801209
0.00245447
-0.0113041
0.0132028
-0.0342521
-0.24042
0.367876
0.00207724
-0.129482
0.103911
0.025571
0.150795
-0.391216
0.000389514
0.0120732
-0.0124627
-0.646503
0.426216
0.220287
-0.503152
0.177212
0.182838
-0.194152
0.0113138
0.175132
-0.0101444
0.0124526
-0.00230821
-0.26788
0.20377
0.0641102
-0.0202432
-0.0197792
0.0657663
-0.247323
-0.00380901
-0.141652
0.0688293
-0.0826475
-0.106154
0.197285
-0.125415
-0.0718698
-0.012471
-0.000120245
0.0484852
-0.0123884
0.00238086
-0.0868073
-0.00910759
0.0991657
-0.0900581
0.00296933
-0.107123
0.104154
-0.000891223
0.44891
0.19659
-0.00193315
0.0120703
-0.0101372
-0.000950551
0.0118542
-0.0109037
-0.0467716
0.0954764
0.0296632
-0.00338289
-0.544233
0.40026
0.143973
0.00637154
0.00983285
0.133179
0.125619
-0.0196448
-0.0485048
0.032621
0.00828855
-0.00770603
-0.000582521
0.0462854
-0.280536
-0.349579
0.270419
-0.00442418
-0.0188012
-0.0119947
0.0124967
-0.000502067
0.0684346
-0.0650083
-0.501699
0.282563
0.0630088
-0.111968
0.0489591
-0.00410956
0.00187496
0.0022346
-0.00340634
-0.000703218
0.0732187
-0.0790248
0.00580611
-0.254935
0.0334595
-0.020349
0.0363274
-0.041102
0.00477467
0.00784643
-0.00703807
-0.000808365
-0.0302424
0.0095408
-0.00738956
-0.117719
-0.0117625
-0.436591
0.315043
0.113296
-0.391508
-0.0216038
0.413112
-0.158489
-0.0358597
0.194349
-0.0599255
0.160231
-0.0372476
0.0421673
0.266432
0.186796
-0.453228
-0.153999
0.224417
-0.193996
0.229853
0.0116675
-0.0106604
0.00255703
-0.12654
0.0286091
0.000656114
-0.0133509
0.00135623
0.0928203
-0.315185
0.222365
0.00275739
-0.00453438
0.00177699
-0.313827
-0.221678
-0.247902
0.258298
-0.0103958
0.215479
-0.0234695
-0.0652393
0.0521195
0.0131198
-0.0122555
-0.000215492
0.307663
0.30938
-0.0101066
0.0113045
-0.00119796
-0.145227
0.118338
0.0268887
0.00488431
-0.00510395
0.000219646
0.0390569
-0.0897697
0.121105
-0.00134912
0.000420148
0.000928972
-0.157688
0.107191
0.0504973
-0.00650993
-0.00382712
-0.170057
-0.313013
-0.0925858
-0.249497
-0.0891085
0.0920778
-0.0224099
-0.0985201
0.301322
-0.202802
-0.272758
0.00548294
-0.182973
0.0244838
-0.183718
-0.00271492
0.186433
-0.00970052
-0.00218672
-0.402626
0.113027
-0.262638
0.274296
-0.0027282
0.00906942
-0.00634123
0.0139021
-0.00140192
-0.0125002
-0.00751734
0.00241907
0.0617055
0.0199026
-0.0816081
0.208829
-0.246541
0.0377115
0.011057
-0.0307911
-0.363103
0.498654
0.000293644
-0.0108745
0.150965
-0.0272849
-0.12368
0.0120017
-0.010991
-0.00101063
-0.00159669
-0.00201336
0.00144684
-0.102664
-0.00729291
0.109956
-0.000297646
-0.00170577
0.00200341
-0.145244
0.122232
0.0230119
0.0289619
-0.0741281
-0.00439628
0.000989935
-0.15919
0.155908
-0.412699
-0.0839578
0.496657
-0.134611
-0.289531
0.424142
-0.0503765
0.0408701
0.00950641
0.000660654
-0.0572995
-0.118968
0.00131748
0.0110441
0.0479287
0.141301
0.000106822
-0.00666179
0.00655497
-0.0255351
0.0348956
-0.233511
0.214343
0.0191685
0.0375882
0.0272383
-0.0928196
0.0992583
0.015424
-0.00255386
-0.0128701
0.111745
0.0392202
-0.210357
0.121819
0.0885377
-0.199196
0.233088
-0.50509
0.3673
0.150032
-0.139001
-0.0110304
-0.196113
-0.0157812
0.211894
0.0870676
0.0563514
-0.163171
0.59118
-0.265587
-0.325594
-0.0609984
-0.288581
-0.00171179
0.00242099
0.245922
0.148089
-0.394011
-0.470694
-0.083924
-0.0687336
-0.420419
0.489153
0.0288641
0.121168
0.230657
0.0122113
-0.242868
-0.0434302
0.127944
-0.00150192
-0.228526
-0.0119084
0.0113016
0.000606778
-0.162393
-0.11447
-0.508383
0.367346
0.150402
0.23823
0.0210527
-0.0465878
0.237021
0.104498
-0.341519
-0.0110078
-0.188271
0.429021
-0.240749
0.000484583
0.0100973
0.427284
-0.305358
-0.121925
0.0116696
-0.000562208
0.013503
-0.0137832
0.000280169
-0.654832
0.149742
-0.0604386
0.0397182
0.0228181
0.0849266
-0.0249345
-0.0599922
0.000630157
0.20923
-0.229965
0.0207348
-0.144965
0.031879
-0.0705464
-0.0142525
0.01395
-0.000446952
-0.0931681
0.372171
-0.279003
-0.0410432
0.0352527
-0.131694
-0.249198
-0.0239522
-0.00568015
-0.00298474
0.00866488
-0.0497679
-0.53292
-0.0122849
0.000376534
-0.0118808
0.0125103
-0.000629502
0.00806484
0.0060858
-0.0545403
-0.000574503
-0.0371825
0.0377571
0.00184163
-0.391531
0.0577623
0.000548791
0.0117765
-0.251935
0.402731
-0.339159
0.100302
-0.0100294
0.011703
-0.00167363
0.0158874
0.00296523
-0.0188526
0.294347
-0.0484248
-0.160438
0.0357695
0.124668
0.057915
-0.0694433
0.0115283
-0.139901
-0.0704563
-0.00557764
0.00562098
-4.33326e-05
0.375141
-0.06615
-0.0170418
0.0304005
-0.4431
0.0236213
0.0451072
-0.0723404
-0.0625681
0.0415127
-0.115252
-0.237751
-0.417081
-0.00352983
0.0398572
0.018061
-0.209393
0.191332
-0.0993075
0.106434
-0.00712646
0.0258353
0.127083
-0.152918
-0.420476
0.265504
0.154973
-0.0392027
-0.000124869
0.114582
-0.126805
0.0122226
0.00166309
0.0083902
0.0030184
-0.102326
0.287063
0.140221
-0.0785508
0.00800441
0.0185818
0.224259
-0.24284
0.25859
-0.319588
0.125499
-0.0252609
-0.100238
-0.0230934
-0.0417438
0.0648371
0.000507637
-0.00581697
-0.00374919
0.00956617
0.0129571
0.0817265
-0.1446
0.00559898
0.0579976
0.00458062
0.016656
-0.00489
0.00616677
-0.0112843
0.00511751
-0.0381659
-0.0253548
0.0514189
-0.0260642
-0.243016
0.0316211
0.535475
-0.187715
-0.34776
-0.431116
0.296505
0.14079
-0.167556
0.0267659
0.0125464
-0.0125464
-0.00639129
0.00649811
0.538788
-0.000121171
-0.00167541
0.00179658
-0.00153662
-0.0926693
0.0942059
-0.52245
0.300013
0.222437
-0.0744722
0.0584454
0.0160268
-0.0250346
-0.02307
0.0250093
0.0794815
-0.0539593
-0.0255221
0.129633
-0.147278
0.0176451
0.0756393
-0.0847469
0.0125286
-0.0681704
0.621491
-0.367364
-0.254127
0.00199214
-0.00552572
0.330901
-0.165439
-0.0837477
0.249186
-0.0294438
-0.0716713
0.0756466
-0.029032
-0.0466145
0.202812
-0.22764
0.0248276
0.412528
0.157165
-0.0246311
0.028355
-0.0037239
-0.370968
0.2778
-0.00908791
0.00340776
-0.342253
0.234989
0.107264
-0.0105559
0.0114619
-0.00090603
0.127137
-0.122755
-0.314693
-0.105783
-0.000396896
0.00286304
-0.0120457
0.00918263
0.0104146
-0.0113652
0.0121425
-0.000156736
-0.0119857
0.0026691
0.049747
0.0494383
-0.0991853
0.0834015
-0.0254865
-0.0102675
-0.101444
0.1156
-0.177501
0.231077
-0.0535757
0.00926029
0.00314284
0.00739402
-0.0312692
-0.0713943
-0.144559
0.0560851
0.088474
-0.225379
0.318199
0.0110962
-0.0438626
0.147604
-0.103742
0.0017446
0.245416
0.24601
-0.0645886
-0.181422
0.0147167
-0.0098172
-0.00489953
0.00120289
0.0129366
-8.69056e-05
-0.0370332
-0.0109148
0.0106912
0.000223568
-0.0132419
-0.0519974
0.0163045
0.0621213
-0.0784258
0.0363426
-0.00693722
0.000837006
0.0794141
-0.134114
0.0547001
0.141778
0.0219574
-0.163735
-0.0491289
-0.206966
0.144725
-0.457809
0.313084
0.106677
0.0906073
0.00410053
0.0106162
-0.00187644
0.00224017
-0.000363731
-0.267717
-0.000176557
0.00481818
0.0108896
-0.000165333
-0.0107242
-0.492172
0.134107
0.358064
-0.138712
-0.0155663
0.154278
0.0079686
-0.00933375
-0.365837
-0.00133082
-0.00533212
0.144171
0.291647
-0.435818
-0.368478
0.258613
0.109866
0.116067
-0.117604
0.178091
-0.210282
0.0321906
-0.0489849
-0.0016758
0.00782204
-0.00614624
0.442635
-0.479722
-0.0252056
-0.139688
0.0803027
0.0593849
-0.0854327
-0.324896
0.410329
0.656046
-0.318247
-0.337799
0.188251
-0.130976
-0.119868
-0.0378197
-0.14217
0.408602
-0.00017733
0.119686
0.00581226
-0.0315272
0.235932
-0.204405
0.000563079
-0.0650387
0.0644756
-0.0106394
-0.000305
0.0109444
-0.0415961
0.221381
0.19103
-0.412411
0.0727631
0.0415286
-0.114292
0.145394
0.235154
-0.380548
0.198631
-0.0123573
-0.00197327
0.194562
0.14149
-0.169838
0.0283484
0.000510362
-0.369909
0.284476
-0.0048113
-0.00122215
0.00603344
0.00817799
-0.00755883
-0.000619162
0.11209
-0.0393266
0.0220206
0.43465
-0.45667
0.0197684
-0.158481
0.0328189
-0.0181485
-0.0146704
0.460797
-0.538899
0.0781025
0.0203763
-0.214372
-0.00159182
0.0123662
-0.0110372
-0.00132908
-0.134523
0.0519348
0.082588
-0.0721262
0.0490328
0.000173579
0.00270281
0.0292189
0.138223
0.0310246
0.0621717
0.0214125
-0.051873
0.00149647
-0.0109855
-0.00107031
0.0120558
-0.0556708
0.0438719
0.0117989
-0.252544
0.271126
0.00678398
0.0182927
-0.0250767
0.206583
-0.0968211
-0.109762
0.000961487
0.0674731
0.111779
0.0635206
0.0117211
-0.206014
0.0457514
0.00541664
0.00617503
-0.0507318
-0.0581591
0.108891
0.338339
0.114706
0.172258
-0.199333
-0.258337
-0.26068
0.519017
-0.0708122
0.108782
-0.104559
-0.00579284
0.00592767
-0.000134826
0.0110078
-0.0279404
0.00662218
0.0213182
0.206853
-0.383036
0.176183
0.00938882
-0.0107146
0.0013258
-0.000494129
-0.40532
-0.00976534
0.00967784
8.75002e-05
-0.198812
0.184837
0.0139749
-0.00360681
-0.00847837
0.0120852
0.222798
-0.204737
0.00746697
-0.00102771
-0.00643926
-0.00481145
0.00041517
-0.354957
-0.0365748
-0.0128498
-0.000933365
0.439337
-0.219393
0.000352917
-0.184459
0.227828
0.0409393
0.0828742
-0.123814
0.0384782
-0.108226
-0.0979354
0.289874
-0.0998195
0.103433
-0.00361394
-0.0685342
0.155421
-0.123727
0.0339573
0.00414735
0.091828
0.114755
-0.0234905
0.0229509
0.00053969
0.0122314
-0.00297108
-0.0218123
-0.14116
0.162972
0.0356291
0.0890835
0.135231
-0.122546
-0.00526085
0.0115593
-0.00217049
0.00333192
0.0028071
-0.00136977
-0.00143733
-0.110187
0.0103671
0.18513
-0.0124719
-0.0147565
0.00999962
-0.012511
0.00669401
0.329794
-0.259004
0.0399031
-0.247864
0.207961
0.0496182
-0.0437271
-0.0058911
-0.00462021
-0.0497949
0.193387
-0.291907
0.00981236
-0.00409589
-0.00571646
0.0759944
-0.0602603
-0.015734
0.134478
-0.0569744
-0.0775038
-0.0129416
0.0120166
-0.0861023
0.0882047
-0.00210238
0.0579055
0.00138596
-0.0592914
0.574365
-0.26232
-0.312045
0.0472141
0.0735599
-0.120774
0.00066516
0.370818
-0.178372
0.064685
-0.0394553
-0.0252297
0.164164
0.421035
-0.585199
-0.0108034
0.00887029
-0.0214882
0.0383848
0.360184
-0.50124
0.141055
0.0170518
0.0325664
0.130696
0.0226899
-0.153386
-0.229909
0.513909
-0.283999
-0.0156106
-0.060457
0.037328
0.023129
0.07801
0.240577
-0.263506
0.0229289
-0.0216051
0.00657303
0.00323933
-0.0233258
-0.0845854
-0.0259654
0.110551
-0.0278967
0.561011
-0.409905
-0.151106
0.296516
-0.513829
0.217312
0.392291
0.00598067
0.00830508
-0.0502318
0.308822
0.00109695
0.254796
-0.257724
-0.0866115
-0.0159876
0.203562
-0.155633
0.0047557
-0.00537691
0.000621203
0.0474361
0.0970326
0.248849
-0.208946
-0.473983
0.0824745
0.23284
-0.0262683
-0.0682363
0.088139
0.0930347
0.0133993
-0.158404
0.425773
-0.267369
-0.0106597
0.0124018
-0.0017421
0.114485
0.0370956
-0.151581
-0.305335
-0.148906
0.0140957
-0.0128928
-0.00657216
-0.0271415
0.0337137
-0.0170366
0.00241553
-0.614483
0.349663
0.26482
-0.0374556
0.0359013
0.0095116
-0.00984005
0.000328446
0.0622441
-0.117943
0.0556991
0.0120075
-0.00914445
0.0075494
0.0916163
0.078135
-0.348233
0.041019
-0.0551907
-0.269791
-0.0986871
0.0421889
-0.0897172
-0.0448056
0.365324
0.0216492
-0.123093
-0.0341866
-0.206848
-0.337385
-0.00441304
-0.00195876
0.0063718
0.0558704
-0.00377691