/*--------------------------------*- C++ -*----------------------------------*\
| =========                 |                                                 |
| \\      /  F ield         | OpenFOAM: The Open Source CFD Toolbox           |
|  \\    /   O peration     | Version:  v2012                                 |
|   \\  /    A nd           | Website:  www.openfoam.com                      |
|    \\/     M anipulation  |                                                 |
\*---------------------------------------------------------------------------*/
FoamFile
{
    version     2.0;
    format      ascii;
    class       surfaceScalarField;
    location    "400";
    object      phi_0;
}
// * * * * * * * * * * * * * * * * * * * * * * * * * * * * * * * * * * * * * //

dimensions      [0 3 -1 0 0 0 0];
oriented        oriented;


internalField   nonuniform List<scalar> 
21222
(
0.0484233
-0.0838453
0.035422
0.0159285
-0.000781556
-0.015147
-0.229307
0.20352
0.0257877
0.18716
-0.0908138
-0.0963459
0.0387933
-0.117636
0.0788431
0.302996
-0.26656
-0.0364355
0.00134944
0.000284068
-0.00163351
0.0264443
0.130948
-0.157392
0.0698239
0.106442
-0.176266
-0.0130743
-0.262633
0.275708
-0.0943507
0.0512372
0.0431135
0.0167184
-0.00990511
-0.00681326
0.0550694
-0.00664611
0.434338
-0.585339
0.151002
-0.0128595
0.0141562
-0.00129672
-0.0242838
0.529238
-0.504954
-0.160287
0.186731
-0.333654
-0.0890963
0.42275
-0.13192
0.181266
-0.0493464
-0.176526
0.0446065
0.343646
0.0901972
-0.433843
-0.012047
0.0091068
0.0029402
-0.155176
0.189717
-0.0345408
0.00767858
0.00903979
-0.0891929
0.143571
-0.0543778
0.0167105
-0.000781937
0.388265
-0.452829
0.0645645
0.00215412
-0.000804685
-0.101152
-0.004836
0.105988
0.148892
-0.176289
0.0273973
0.253411
-0.262508
0.00909751
-0.0774468
-0.325942
0.403389
0.545135
-0.392889
-0.152245
-0.0520261
0.0113869
0.0406392
0.00492073
-0.00578166
0.000860924
0.0158094
-0.0139436
-0.00186582
0.03503
-0.0210222
-0.0140078
0.0267838
-0.171764
0.144981
-0.084624
0.132706
-0.0480819
-0.105273
-0.000804726
0.106078
-0.0162043
0.0162043
-0.00334723
0.0121074
-0.00876013
-0.0888485
0.245339
-0.15649
-0.575992
-0.0102939
0.586286
-0.188324
-0.0316644
0.219989
0.0458219
-0.135015
-0.102578
0.0478286
0.0547497
-0.0125542
-0.000170337
0.0127245
-0.0125916
3.73838e-05
0.200291
-0.533945
-0.00940932
0.0115922
-0.00218291
0.0939435
0.0932162
-0.000870924
0.0137567
-0.0128858
0.0158165
-0.00980375
-0.00601279
0.182302
0.0962587
-0.27856
0.0139558
0.00185355
0.0235824
-0.0272618
0.00367938
-0.166923
0.0084281
0.158495
0.461915
-0.153382
-0.308533
0.0199591
-0.249266
-0.0413301
0.144623
-0.103293
0.0434429
-0.0532857
0.00984286
-0.0170316
0.012372
0.00465956
-0.282522
-0.181599
0.464121
0.0412812
0.104001
-0.145283
0.0235074
0.0132998
-0.0368072
-0.0451848
0.0648318
-0.019647
-0.511966
0.0640829
0.447884
-0.474511
0.191989
0.269634
-0.0873329
0.00774245
0.00807409
0.0355856
-0.1716
0.136015
0.00447443
0.000446306
-0.00163761
-0.00199345
0.00363106
-0.245324
-0.115582
0.360906
-0.000781951
-0.0017389
0.00252085
0.00703154
0.193956
-0.200987
0.0310751
-0.025033
-0.00604212
-0.217965
0.0296412
-0.0826463
-0.381038
0.311738
-0.520393
0.208655
-0.00888094
0.00533877
0.184258
-0.148673
0.0238456
0.00722952
0.314255
-0.421198
0.106942
-0.384525
0.117983
0.266542
0.0109128
-0.0116947
-0.0130287
0.0140526
-0.00102393
-0.0143915
0.00153203
-0.0275161
-0.0668346
0.184629
-0.229311
0.0446822
-0.12613
0.0809372
0.0451926
0.501419
-0.189681
0.106487
0.223876
-0.330363
-0.0138642
0.0150234
-0.00115914
0.0141383
-0.0128621
-0.00127624
-0.24442
0.155572
-0.010397
0.0121366
-0.00173958
-5.67695e-05
0.00638576
-0.00632899
0.0885464
-0.0421675
-0.0463789
0.0298431
-0.541809
-0.0121149
0.0123624
-0.000247547
-0.00307577
0.266576
0.256993
-0.523569
0.0517464
0.0368
-0.133995
0.0493712
-0.00773686
-0.00088958
0.00862645
-0.0118003
0.0127756
-0.000975303
0.217075
-0.231026
0.0139511
-0.14118
-0.0225862
0.163766
0.000973287
0.013165
-0.0496554
0.259142
-0.209486
-0.00860919
0.000872322
-0.281656
-0.101545
0.383201
-0.26875
0.38862
-0.119869
-0.0156583
7.60106e-05
0.0155823
-0.446494
0.164839
-0.0132252
0.0139537
-0.000728563
0.00677237
-0.00814427
0.0013719
0.0156972
-0.0156972
0.143395
-0.0964266
-0.0469684
0.214837
-0.263901
0.0490649
-0.53338
0.116518
0.416861
-0.0130249
0.0152149
-0.00218998
-0.109576
0.00842399
-0.571481
-0.00451053
0.00936883
-0.0393397
0.0299708
-0.138109
0.516897
-0.378787
0.115028
0.281075
-0.396103
-0.0534422
-0.0726876
0.0111977
-0.0094323
-0.0017654
-0.00153035
0.0024335
-0.000903157
-0.0767479
0.0647293
0.0120186
-0.00911282
0.0122343
-0.00312147
0.00435959
0.144532
0.127455
0.24233
-0.369784
0.183716
-0.298702
0.114986
-0.0190602
0.0192872
-0.000226947
-0.365275
-0.00292657
0.368202
-0.350274
0.10495
-0.0205571
0.00149687
-0.0124403
0.0147727
-0.00233234
-0.220536
0.170881
-0.0111793
0.000782265
-0.168222
0.0270421
0.0110115
-0.00848854
-0.00252298
-0.131838
-0.0119423
0.143781
0.0488939
-0.0759919
0.027098
-0.207152
-0.0345033
0.241656
-0.104136
0.0188866
0.0852492
-0.0175587
-0.211381
0.22894
-0.012326
0.012326
-0.325605
0.25133
0.0742756
-0.279593
0.0724407
0.110849
-0.0720553
-0.0142593
0.00103417
0.165687
0.0704206
-0.236107
0.371318
-0.395602
0.24002
0.0629755
-0.0184641
0.00185629
0.0166078
0.237438
0.224478
-0.0108171
0.00140777
0.0687217
-0.0556433
-0.0130784
-0.0140683
0.014979
-0.000910692
-0.0545255
-0.173526
0.228051
-0.0115259
-0.000274359
-0.0117329
0.0141505
-0.00241759
-0.00365269
0.0812249
-0.0775722
0.00362521
-0.00526282
0.00316017
-0.00469051
-0.0954771
0.072512
0.0229652
-0.59638
0.588715
0.00766449
-0.012538
-0.00049076
0.244611
-0.257685
-0.247393
0.207556
0.0398372
0.0224503
0.0125797
-0.424429
-0.0620706
0.4865
-0.0141772
0.0105895
0.00358768
0.00457038
-0.0035356
-0.00103478
0.0106147
0.000582978
0.0735709
0.0455473
-0.119118
0.226096
-0.219064
-0.0947624
-0.438617
0.120822
-0.00553727
-0.115284
-0.207219
0.213114
-0.00589467
-0.128231
0.174308
-0.0460766
0.0140064
-0.119279
-0.00530938
-0.127886
0.133196
-0.00473013
0.00391302
0.00081711
0.103374
0.0170679
-0.120442
-0.195214
0.0400375
-0.0280524
-0.0675137
0.0955661
-0.0103355
0.0123887
-0.00205324
-0.0158636
0.0125164
-0.20945
0.475643
-0.266193
0.00156933
-0.00804543
0.00647609
-0.13178
0.0904494
0.182
0.192449
-0.374449
-0.271561
0.423245
-0.151683
0.0754921
-0.0633507
-0.0121414
0.0158403
-0.0143542
-0.00148609
0.196237
-0.224287
0.0280507
-0.0163019
0.00223354
0.00163514
-0.0119706
0.255287
-0.375068
0.119781
0.155623
-0.159113
0.00349046
-0.113099
0.15438
-0.0399498
0.200964
-0.161014
0.617043
-0.385398
-0.231645
0.0107531
-0.013835
0.00308192
0.130899
-0.1497
0.0188017
-0.446577
0.33536
0.111217
-0.0146777
0.00223738
-0.182783
0.146018
0.0367654
0.00132713
0.00468331
-0.00601044
0.00679732
-0.00807534
0.00127802
0.0262897
-0.034987
0.00869728
0.00559662
-0.00565338
0.00667455
-0.00534742
0.0226268
-0.162313
0.139686
-0.0519624
0.248199
0.206579
0.0104966
-0.0106296
0.172969
-0.162339
0.00991855
-0.181545
0.171626
0.0506699
-0.00722704
-0.234251
0.276147
-0.0418957
-0.589375
0.589375
0.124819
-0.00399676
-0.000255701
-0.0110055
-0.0207253
0.0317308
-0.0653906
-0.523985
0.202402
-0.256927
0.00640644
-0.110542
-0.13779
-0.499929
0.637719
0.172586
0.00153558
0.0433443
-0.0448799
0.190158
-0.223254
0.0330955
0.154461
-0.19441
0.00481361
-0.00528081
0.0004672
0.0071456
0.000393849
-0.00753945
-0.238854
0.34534
0.200003
-0.242802
0.042799
-0.0400245
0.029473
0.0105514
-0.0144921
2.01031e-06
0.01449
-0.0511065
-0.0410643
0.0921708
-0.0637558
0.0601031
0.0288777
0.00492022
-0.0337979
-0.603376
0.140199
0.463177
0.00713668
8.92623e-06
0.134337
-0.0271221
-0.107215
0.394094
-0.434021
0.0399268
0.383094
0.00336531
-0.00134707
-0.00201824
-0.0222043
0.00193724
0.0202671
0.186328
0.0433685
-0.229696
-0.00293411
0.0024274
0.000506704
-0.160412
0.233287
-0.0728746
-0.00490014
0.160523
-0.00861637
0.000284417
0.00833195
-0.169341
-0.0110862
-0.051587
-0.0251609
0.258795
-0.0439585
-0.0141352
0.00111029
0.090994
0.0433432
0.085885
-0.0820302
-0.00385477
-0.22216
0.0617476
-0.0275024
0.117425
-0.0899224
-0.0377358
0.237739
-0.0486453
-0.33588
-0.011499
0.0126732
-0.00117422
0.015535
0.00118772
-0.0167227
0.298171
-0.261721
-0.0364505
-0.0212556
0.124629
-0.0141273
-0.00153106
-0.140473
0.191023
-0.0505493
-0.0231185
0.0292739
-0.00615547
0.00401845
0.0116787
-0.0278073
0.0103745
-0.000122848
-0.0102517
0.0827943
0.0404
-0.123194
0.229788
0.0236226
-0.149167
0.312981
-0.163814
0.00800368
-0.00765782
-0.000345862
-0.00623519
0.107805
-0.376555
-0.012797
-0.00134887
0.0141459
-0.00180514
0.00720004
-0.0081924
0.000992363
-0.0124023
0.00328949
0.00595106
0.000215756
-0.0305242
-0.216869
-0.00116439
0.00763964
-0.00647525
0.00944578
-0.0122195
0.00277377
0.00937006
0.00100444
-0.0389916
0.142993
-0.0494311
0.193739
-0.144308
-0.0125607
0.00103472
-0.00823608
-0.174547
-0.373166
0.308991
0.0641746
-0.454241
0.18268
0.225195
-0.0405658
0.00639582
-0.00756021
-0.014159
0.0630529
0.000250738
0.0105822
-0.010833
0.065838
-0.194069
-0.0438403
0.358095
0.0119861
-0.00962995
-0.00235613
-0.0014575
-0.35108
-0.182301
0.533381
-0.149163
0.38282
-0.233657
0.00628812
0.00101304
-0.00730116
0.0764139
0.348897
-0.425311
0.0084785
-0.00168118
-0.0118397
0.0127174
-0.00087775
-0.0727174
-0.0532639
0.125981
-0.0979341
0.0926247
0.398295
-0.283267
-0.18518
-0.0369797
-0.33385
0.130648
0.203202
-0.020637
-0.575743
0.00197605
0.127947
-0.112243
-0.0157041
0.0122078
-0.00145476
0.0526323
-0.238685
0.186052
-0.0961227
0.0599959
0.0361269
0.212349
-0.421799
-0.0112549
-0.00130574
-0.105141
-0.0288537
0.047976
0.244931
0.0233882
-0.208568
-0.0128637
0.0125638
0.000299914
-0.691441
0.500958
0.190482
-0.000968045
0.00593489
-0.00436555
-0.517512
0.239346
0.278166
0.0121421
-0.00269637
-0.00050465
0.00386996
0.00478568
-0.00243209
-0.00235359
-0.00175723
0.00219799
-0.000440764
-0.233859
0.415859
0.0606939
-0.0821642
0.0214703
-0.219136
0.569693
-0.350557
0.0162629
-0.619639
0.00300201
-0.0417125
0.0387105
0.0693363
-0.528225
0.458889
-0.406164
-0.0278567
0.0572091
0.00454917
-0.0617582
0.0126943
-0.144533
0.0127268
-0.0117032
-0.00102367
0.449192
-0.633824
0.184632
-0.0429029
0.226619
-0.0116826
0.00777371
0.00390891
-0.0134482
0.0142858
-0.000837664
-0.0336142
0.031552
0.00206227
-0.395253
0.149509
0.245744
0.395351
-0.140064
0.356217
0.240798
-0.316643
0.498007
-0.181363
-0.0108779
-0.00062108
-0.0251269
-0.0774513
0.0906435
-0.00475847
-0.015298
-0.0848001
0.0027699
0.0295293
-0.0358686
0.00633924
-0.00140914
-0.505894
0.367785
-0.0141932
-0.000298829
0.000321251
0.00768243
-0.215163
-0.0473459
-0.0727917
0.144446
-0.0716547
-0.0254466
-0.300158
0.429992
0.188204
-0.618197
-0.0291525
0.00603405
-0.0114636
-0.00140011
0.116434
-0.143936
-0.0934056
-0.240445
-0.333803
-0.183709
-0.167842
-0.227411
-0.00523474
-0.00163988
0.00687462
0.00904483
-0.0124353
0.00339045
0.0367643
0.147494
-0.440242
0.509578
-0.0201237
-0.0753535
-0.0843578
-0.0290895
0.113447
-0.00268522
0.00238637
0.000298846
-0.157707
0.147078
4.86101e-05
-0.00298272
-0.0031879
0.000502683
-0.0963008
0.125877
-0.0295766
-0.359462
0.185937
0.002182
0.00343862
-0.0492381
-0.00278799
0.00119427
-0.0130339
-0.00152375
0.00188506
-0.000361316
0.0845315
-0.152543
0.0680111
0.01614
0.433052
-0.141532
-0.0894947
0.00594288
0.00198305
-0.228815
0.156417
-0.0574893
-0.0989276
-0.115828
-0.286837
0.402665
-0.00153873
-0.0105761
-0.00357533
0.000387429
0.14972
-0.157917
0.00819728
-0.0100649
-0.00198761
0.0120525
0.105091
0.0228551
0.0045368
0.0861067
-0.0232221
0.00944139
0.0137807
-0.220963
0.448938
-0.227975
0.00643399
0.00134625
-0.00778024
-0.0125853
0.0117144
0.106277
-0.155708
-0.191266
0.453042
-0.261776
-0.406574
0.482988
-0.136976
0.125033
0.00918771
-0.00935821
0.000170505
0.115695
-0.466775
0.0486214
-0.0997279
0.236471
0.0617008
0.0188517
-0.0118886
-0.00696319
0.0268293
-0.131971
0.0553824
0.101034
-0.500947
-0.190493
-0.0113702
0.000190932
-0.00130296
-0.125855
0.163312
-0.037457
0.182075
-0.216294
0.0342185
0.0412771
-0.256231
0.0100547
-0.00949229
-0.000562412
0.000823082
0.446132
-0.142275
0.212099
-0.127117
0.0308164
-0.288159
0.155282
0.132876
-0.128994
0.177184
-0.0481906
0.013162
-0.0121284
-0.00103366
0.124611
-0.0358943
-0.0887169
-0.315517
-0.0576491
-0.0312455
0.00904123
0.230077
0.186713
-0.416791
-0.00875776
0.0117738
-0.00301605
-0.130865
0.175273
-0.148489
0.0150039
0.125705
-0.140709
0.0312696
-0.115627
-0.0109851
-0.000385092
0.508935
-0.314298
-0.194637
-0.206791
0.216709
0.0625577
-0.00534866
0.0101494
-0.0137114
0.00356196
-0.18535
-0.273985
0.459335
0.194795
-0.213723
0.0189276
-0.243247
0.09408
0.0141393
-0.00136517
-0.0127741
-0.0546254
0.0975167
-0.0428912
-0.0103856
0.0106896
-0.000304047
-0.00132327
0.00775725
-0.148428
-0.0197948
-0.347063
0.277438
0.0696252
-0.00289441
0.031924
-0.0290296
-0.0119667
-0.00242482
-0.17325
0.044256
-0.00332429
-0.000251041
-0.0216927
0.0835831
-0.0618904
0.0124025
-0.00335767
-0.166649
0.0182214
-0.0186918
0.213487
0.00255378
-0.0270697
0.251242
-0.224172
-0.12462
0.169567
-0.0449472
0.0128862
-0.000159342
0.16794
-0.205093
0.0371531
-0.0143304
-2.37776e-05
-0.228178
0.119356
0.108823
0.560348
-0.406836
-0.153512
-0.296049
0.238178
0.0578709
0.014072
-0.00118583
-0.00452832
0.17037
-0.0167404
-0.15363
0.0101189
-0.000355459
-0.00976343
0.0360466
-0.160667
0.00926227
-0.0108203
0.00155802
-0.00114799
0.0103357
-0.0741234
0.147694
0.645498
-0.278767
-0.366731
-0.00259022
0.000832996
0.0572654
-0.198263
0.140998
0.169237
-0.14661
0.209477
-0.43044
-0.111999
0.057374
0.0116729
-0.249678
0.238005
-0.126512
0.0537945
-0.145611
0.156159
-0.0105488
0.00264759
0.00836394
0.443615
0.126041
-0.569656
-0.046327
0.189219
-0.142892
0.00330635
0.00681254
-0.0156092
-0.00494794
0.0531725
-0.000565325
-0.0074801
0.0142686
-0.0155144
0.00124589
-0.00650886
0.208911
0.528802
0.189683
-0.380949
-0.00514028
0.00276207
0.00237821
-0.150429
0.0225907
0.127838
-0.011399
-0.129074
0.282466
0.0216322
-0.0245266
0.0595413
-0.322175
-0.204816
0.295828
-0.0910124
0.191934
0.11152
-0.303454
-0.00939333
0.00906041
-0.00277229
0.105951
-0.0705503
-0.0354008
0.000674242
0.0616033
-0.0586013
-0.188731
0.107093
0.0816388
0.0140412
0.000227363
-0.205199
-0.0829595
0.289774
-0.134491
-0.107304
-0.00227136
0.038022
-0.102595
0.0645734
0.00120996
-0.0265918
0.271203
0.00694214
0.436673
0.150817
-0.175061
0.0242435
0.029191
-0.394466
-0.062096
0.292173
0.0294272
0.140943
0.133106
0.331045
-0.464151
-0.121548
0.441847
-0.320298
0.0946912
-0.121794
0.0271023
0.00198705
0.246063
-0.0597354
-0.0022607
-0.122509
0.158193
-0.0356842
-0.618369
0.451186
0.167184
0.000753694
-0.285595
0.0803959
0.0115454
-0.0103395
-0.00120594
0.117943
-0.131857
0.0139136
-0.295877
0.0910611
0.157138
-0.202481
0.0453428
-0.26887
0.237084
0.0317861
-0.0830032
0.141876
-0.0588731
-0.158589
0.0327338
-0.0134635
1.5303e-05
0.161326
0.134502
0.237906
-0.244414
-0.00171657
-0.00045069
0.00216726
-0.010338
0.00510326
0.00456344
-0.0201726
-0.0697653
0.106924
-0.037159
-0.104401
-0.00290324
0.0707896
-0.331175
0.260385
-0.32914
0.260251
0.0688885
0.191225
0.00380606
0.00464324
-0.00538661
0.000743375
-0.0115052
0.00187522
-0.112212
-0.0382164
0.135676
-0.0528817
-0.116495
0.1546
-0.0381053
0.0379954
0.350269
-0.345763
-0.272607
-0.230031
0.202378
0.0276527
-0.221782
0.319839
-0.0980564
0.0361062
0.018307
-0.0544132
-0.141037
0.520592
-0.379555
-0.00145889
-0.0140555
0.148086
-0.156503
0.00841681
-0.0102923
0.0112683
-0.00097598
-0.582688
0.582688
-0.203274
0.180942
0.0223323
0.29256
-0.370007
0.0424792
0.0140972
-0.0565763
-0.120613
0.554951
-0.0286143
0.0249331
0.00368117
-0.0552544
0.137639
-0.0823847
-0.307737
-0.145092
-0.112182
0.0737008
0.0384815
-0.498944
-0.236953
-0.031917
0.509154
-0.554618
0.0454633
-0.203114
0.145146
-0.124261
-0.0208857
-0.273148
0.244403
0.0287455
0.0109846
-0.00172229
0.441567
-0.35137
-0.148136
0.0651329
0.151392
-0.177382
0.0259895
0.139673
-0.149444
0.00977164
0.323605
0.174402
-0.0506462
0.0620331
-0.148149
0.02406
0.124089
0.0157857
-0.0127576
0.0111579
0.00159963
0.0258731
-0.212539
0.186666
-0.0649541
0.105647
-0.040693
0.00730215
-0.00850814
0.00120599
-0.00603647
-0.004969
0.300657
-0.139331
-0.411409
0.53745
0.00381088
0.002124
0.211492
-0.31708
0.105588
0.157951
0.0205594
-0.178511
0.0499043
-0.0210898
-0.0288145
-0.0123193
0.000586448
0.128185
0.00755114
-0.135736
-0.0108892
0.0111076
-0.000218344
-0.195024
-0.390316
-0.0142475
-0.0447147
0.0589622
0.086891
-0.154764
0.0678732
-0.00846349
-0.0305447
-0.0118912
0.0424359
-0.483072
0.297722
0.135551
-0.485859
0.350308
0.137125
0.0109606
-0.0270183
0.240938
-0.26753
-0.143832
0.0273372
-0.00884945
0.0115746
-0.00272512
0.128645
-0.420506
0.468553
-0.159517
-0.309036
0.000160318
0.00365036
-0.00381067
0.0179154
-0.0484601
-0.0107611
0.0120823
-0.0013212
-0.16891
0.495066
-0.326156
-0.0985497
0.156847
-0.0582971
-0.417868
0.0813554
0.336513
0.282363
0.262772
-0.00885758
0.120229
-0.531638
0.00328319
-0.0117717
-0.0411782
-0.00736071
0.0368901
0.136709
-0.370568
-0.270098
-0.0296176
0.299715
0.193554
-0.0364163
0.231007
-0.178375
0.010144
-0.00999588
-0.000148113
-0.00155521
-0.0201493
0.0217045
-0.0105808
-0.00173851
-0.232259
0.2147
0.183463
-0.208969
0.025506
0.350583
0.239912
-0.590495
-0.256094
0.0409314
0.0441286
-0.0206212
-0.0211883
-0.00361055
0.00184662
0.00176393
0.1753
-0.0239078
-0.121972
-0.0254628
-0.0415355
0.0669983
-0.0433754
-0.163844
-0.227208
0.221585
0.00562374
-0.153598
0.0310892
-0.000220886
-0.00149569
-0.320656
0.0988732
-0.250925
0.0237166
-0.110069
0.0451153
0.011765
-0.0218814
0.0101164
0.100287
0.0496271
-0.149914
0.0145838
0.00426796
-0.0370871
0.502394
-0.465307
0.222922
-0.0700677
-0.152855
-0.000672955
-0.0488209
0.214508
-0.000502668
0.219943
0.24861
0.0329339
-0.308104
-0.0210357
0.00428163
-0.333768
-0.112809
-0.0158783
-0.025848
0.0417263
-0.00662884
0.0066021
2.67433e-05
0.619897
-0.258329
-0.361568
0.0681559
-0.0256768
0.414919
0.204978
-0.392042
0.329972
-0.0881131
0.0470488
0.00175104
0.0358564
0.192009
-0.227865
0.0107911
-0.000407369
-0.0103838
-0.00917386
0.000715043
-0.00435158
0.00363654
0.0300752
-0.00649278
-0.450613
0.330958
0.119655
-0.0652923
-0.179128
-0.168232
-0.380227
0.271513
0.108713
0.202575
-0.176702
-0.332196
-0.0480308
-0.0391943
-0.0569284
-0.032422
0.0253426
0.00707941
0.179254
-0.225161
0.0459069
0.0339052
0.201529
-0.235434
-0.0791589
0.290651
-0.289601
0.402456
-0.112855
-0.00789699
-0.00378563
-0.547894
0.548245
-0.000350315
-0.133747
0.0784922
0.0647619
-0.188602
0.0136991
-0.000925031
-0.012774
0.0375244
-0.0544246
0.0169001
0.143643
0.0027581
-0.146401
-0.00721381
0.00737413
-0.100537
-0.00333006
0.103867
-0.00521131
-0.010993
-0.137166
-0.0393601
-0.513502
-0.0366028
-0.381266
-0.267277
0.266156
0.00112086
-0.160962
-0.00596047
-0.0396771
-0.256372
-0.17539
0.203146
-0.0277562
-0.221488
-0.0154645
0.162172
0.0607508
-0.00509794
0.0073276
-0.00222967
-0.472978
0.304067
-0.117255
-0.110924
0.168416
-0.115431
-0.0529849
-0.103385
0.327261
0.213802
-0.154307
-0.0594954
-0.0254909
-0.136822
-0.276871
0.0744669
0.202404
0.0309132
0.0189911
0.406656
-0.535505
0.315451
0.220054
-0.00354432
-0.00373827
0.00293868
0.000799591
0.00245439
-0.0113038
0.0132364
-0.0342586
-0.240422
0.367877
0.00207721
-0.129488
0.103934
0.0255541
0.150792
-0.391214
0.000398356
0.0120763
-0.0124746
-0.646503
0.426216
0.220287
-0.503152
0.17721
0.182843
-0.194156
0.0113129
0.175133
-0.0101443
0.0124525
-0.00230816
-0.26787
0.20377
0.0640999
-0.0202434
-0.019781
0.0657822
-0.247327
-0.0038099
-0.141661
0.068869
-0.0825341
-0.106197
0.197309
-0.125395
-0.0719144
-0.0124714
-0.000120146
0.0484891
-0.0123829
0.00238089
-0.0868122
-0.0091018
0.0991642
-0.0900624
0.00296986
-0.107119
0.104149
-0.000890257
0.44891
0.196588
-0.00193318
0.0120701
-0.0101369
-0.000950583
0.0118536
-0.010903
-0.0468305
0.0954519
0.0296662
-0.00337656
-0.544233
0.400261
0.143972
0.00637148
0.00983282
0.13317
0.125625
-0.019638
-0.0485115
0.0326332
0.00828783
-0.00770557
-0.00058226
0.0462695
-0.280521
-0.349578
0.270419
-0.00442963
-0.0187925
-0.0119947
0.0124968
-0.000502091
0.0683603
-0.0650336
-0.501699
0.282564
0.0629846
-0.111987
0.0490024
-0.00410801
0.00187599
0.00223202
-0.00340375
-0.000704252
0.0732227
-0.0790233
0.00580059
-0.254949
0.0334611
-0.0203144
0.0363273
-0.0410993
0.004772
0.00784589
-0.00703784
-0.000808047
-0.0302603
0.00954239
-0.00739055
-0.117727
-0.0117612
-0.43659
0.315042
0.113265
-0.391509
-0.0216034
0.413112
-0.158452
-0.0358801
0.194332
-0.0599405
0.160228
-0.0372471
0.0421674
0.266432
0.186796
-0.453228
-0.154003
0.224424
-0.193997
0.229854
0.0116704
-0.0106574
0.00254336
-0.126533
0.0285992
0.000656152
-0.0133509
0.00135625
0.0928111
-0.315179
0.222368
0.00275701
-0.0045347
0.00177769
-0.313827
-0.221677
-0.247905
0.258303
-0.0103976
0.215465
-0.0234565
-0.0651924
0.0520266
0.0131658
-0.0122556
-0.000215854
0.307664
0.309379
-0.0101062
0.0113047
-0.00119849
-0.145221
0.118347
0.026874
0.00488487
-0.00510319
0.000218324
0.03906
-0.0898179
0.121087
-0.00134988
0.000420549
0.000929334
-0.157695
0.107162
0.0505333
-0.00650966
-0.00382835
-0.170058
-0.313014
-0.0925873
-0.249499
-0.0891116
0.0920814
-0.0224324
-0.0985242
0.301325
-0.202801
-0.272757
0.00547985
-0.182953
0.0245009
-0.183707
-0.00273027
0.186438
-0.00969746
-0.00219111
-0.402625
0.113025
-0.262627
0.2743
-0.00272718
0.00907094
-0.00634376
0.0139021
-0.00140199
-0.0125001
-0.00751725
0.00241931
0.0616417
0.0199696
-0.0816113
0.208834
-0.24651
0.037676
0.0110569
-0.0307859
-0.363103
0.498654
0.000293624
-0.0108745
0.150967
-0.027293
-0.123674
0.0120015
-0.0109907
-0.00101089
-0.00159681
-0.00201374
0.00144671
-0.102662
-0.00729279
0.109954
-0.000298348
-0.00170505
0.0020034
-0.145246
0.122229
0.0230167
0.0289634
-0.0741482
-0.00439633
0.00099258
-0.159187
0.155857
-0.412698
-0.0839583
0.496657
-0.134609
-0.289532
0.42414
-0.0503497
0.0408479
0.00950176
0.000659634
-0.0573036
-0.118985
0.00131751
0.0110449
0.0479053
0.141314
0.000106192
-0.00666142
0.00655523
-0.0255306
0.0348994
-0.233518
0.214347
0.019171
0.0375954
0.0272364
-0.0928409
0.0992473
0.0154239
-0.00255378
-0.0128701
0.111762
0.0392058
-0.210353
0.121817
0.0885366
-0.199184
0.233089
-0.50509
0.367299
0.150045
-0.139003
-0.0110415
-0.196126
-0.0157938
0.21192
0.0870445
0.0563505
-0.163172
0.591181
-0.265585
-0.325596
-0.0609973
-0.288581
-0.00170978
0.00242482
0.245924
0.148086
-0.39401
-0.470694
-0.0839242
-0.0687322
-0.42042
0.489152
0.0288747
0.12117
0.230654
0.0122166
-0.24287
-0.043428
0.12796
-0.00150893
-0.228522
-0.0119078
0.0113012
0.00060659
-0.162397
-0.114474
-0.508383
0.367346
0.15042
0.238199
0.0210602
-0.0465908
0.237023
0.10449
-0.341513
-0.0110085
-0.18827
0.429021
-0.240751
0.000483926
0.0100983
0.427286
-0.305358
-0.121928
0.0116698
-0.000562203
0.013503
-0.0137831
0.000280185
-0.654832
0.149742
-0.0604707
0.0397454
0.0228199
0.0849284
-0.0249373
-0.0599911
0.000630015
0.209222
-0.229977
0.0207551
-0.144939
0.0318401
-0.0705503
-0.0142498
0.0139499
-0.000446991
-0.0931684
0.372172
-0.279003
-0.0410289
0.0352777
-0.131704
-0.249186
-0.0239622
-0.00568123
-0.00298517
0.0086664
-0.0497677
-0.53292
-0.0122844
0.00037658
-0.0118804
0.0125099
-0.000629526
0.00806478
0.00608571
-0.0545202
-0.000576442
-0.0371823
0.0377587
0.0018432
-0.39153
0.0577625
0.000548958
0.011777
-0.251938
0.40273
-0.339159
0.100305
-0.0100291
0.0117029
-0.00167373
0.0158754
0.00297984
-0.0188552
0.294348
-0.0484242
-0.160565
0.0358958
0.124669
0.0579168
-0.0694447
0.0115279
-0.139899
-0.0704545
-0.00557672
0.00562079
-4.40722e-05
0.37514
-0.0661492
-0.0170363
0.0304015
-0.4431
0.0236109
0.0451108
-0.0723389
-0.0626367
0.0416036
-0.115253
-0.237751
-0.417081
-0.00352757
0.0398549
0.018059
-0.209393
0.191334
-0.099304
0.10643
-0.00712589
0.0257913
0.127132
-0.152924
-0.420476
0.265505
0.154971
-0.0392072
-0.000132475
0.114584
-0.126808
0.0122238
0.00166393
0.00839077
0.00301799
-0.102322
0.287063
0.140223
-0.0785509
0.00800062
0.0185827
0.224258
-0.242841
0.258589
-0.319586
0.125501
-0.0252615
-0.100239
-0.0230984
-0.0417428
0.0648412
0.000507834
-0.00581706
-0.00374911
0.00956617
0.0129642
0.0817271
-0.144612
0.00560896
0.0579628
0.00459487
0.0166526
-0.00488761
0.0061667
-0.0112841
0.00511743
-0.0381559
-0.0253119
0.0513935
-0.0260816
-0.243051
0.0316697
0.535475
-0.187715
-0.34776
-0.431116
0.296508
0.14078
-0.167564
0.0267835
0.0125472
-0.0125472
-0.00639123
0.00649742
0.538787
-0.000121562
-0.00167599
0.00179755
-0.00154072
-0.0926677
0.0942084
-0.522449
0.300013
0.222436
-0.0744701
0.0584439
0.0160262
-0.0250019
-0.0230502
0.0249875
0.079496
-0.0540116
-0.0254844
0.129631
-0.14728
0.0176496
0.0756425
-0.0847443
0.0125218
-0.068165
0.621491
-0.367364
-0.254126
0.00199006
-0.00552566
0.3309
-0.165435
-0.0837541
0.249189
-0.0294628
-0.0716668
0.0756058
-0.0289701
-0.0466357
0.202809
-0.227634
0.0248247
0.412529
0.157165
-0.0246306
0.028356
-0.00372534
-0.370968
0.277799
-0.00908923
0.003408
-0.342254
0.234991
0.107263
-0.0105555
0.0114616
-0.000906153
0.127127
-0.122767
-0.314692
-0.105784
-0.000395942
0.002863
-0.0120455
0.00918247
0.0104141
-0.0113647
0.0121427
-0.000157079
-0.0119856
0.00266943
0.0497385
0.0494216
-0.0991601
0.0834029
-0.0254861
-0.0102681
-0.101544
0.11555
-0.177525
0.231114
-0.0535882
0.00925986
0.00314264
0.00739379
-0.0312636
-0.071398
-0.144568
0.0561329
0.0884346
-0.225384
0.318195
0.0110969
-0.0438626
0.147592
-0.103729
0.00174466
0.245418
0.245993
-0.0645789
-0.181414
0.0147167
-0.00981721
-0.0048995
0.00120293
0.0129364
-8.68131e-05
-0.0370398
-0.0109156
0.0106917
0.000223914
-0.0131477
-0.0520447
0.0163804
0.062066
-0.0784463
0.0362534
-0.00678036
0.00083701
0.0793257
-0.134103
0.054777
0.14179
0.0219356
-0.163725
-0.0491405
-0.206953
0.144726
-0.457808
0.313082
0.106684
0.0906257
0.00410055
0.0106162
-0.00187562
0.00224004
-0.000364412
-0.267719
-0.000176679
0.00481992
0.0108889
-0.000164505
-0.0107244
-0.492173
0.134106
0.358068
-0.138729
-0.0155521
0.154281
0.00796847
-0.00933364
-0.365838
-0.0013294
-0.00532825
0.144172
0.291646
-0.435818
-0.368477
0.258609
0.109867
0.116065
-0.117606
0.178104
-0.210237
0.0321334
-0.0490149
-0.00167614
0.00782225
-0.00614612
0.442635
-0.479722
-0.0252071
-0.139697
0.0803092
0.0593874
-0.0854325
-0.324898
0.41033
0.656046
-0.318248
-0.337798
0.188236
-0.130971
-0.119885
-0.03781
-0.14217
0.408602
-0.000177312
0.119686
0.0058143
-0.0315173
0.235931
-0.204414
0.000544163
-0.0651095
0.0645653
-0.0106391
-0.000305574
0.0109447
-0.0415969
0.221384
0.191027
-0.412411
0.0727365
0.0415317
-0.114268
0.145401
0.235144
-0.380545
0.198663
-0.0123572
-0.00197321
0.194578
0.141513
-0.16981
0.0282962
0.000510748
-0.369909
0.284477
-0.00481046
-0.00122447
0.00603494
0.00817736
-0.00755849
-0.000618866
0.112066
-0.0393292
0.02202
0.43465
-0.45667
0.0197787
-0.158507
0.0326006
-0.0180694
-0.0145312
0.460796
-0.538899
0.0781023
0.0203823
-0.21438
-0.00158951
0.0123662
-0.0110373
-0.00132897
-0.134648
0.0521147
0.082533
-0.0721308
0.0490324
0.000174746
0.00270406
0.02922
0.138247
0.0309901
0.0621702
0.021413
-0.0518968
0.00154717
-0.0109855
-0.00107013
0.0120556
-0.056028
0.0438112
0.0122168
-0.252544
0.271127
0.00678303
0.0182921
-0.0250751
0.206595
-0.0967998
-0.109795
0.000872997
0.0674873
0.111775
0.0635252
0.0115108
-0.206011
0.0457242
0.00541711
0.00617511
-0.0508018
-0.0580821
0.108884
0.33834
0.114702
0.172261
-0.199331
-0.258337
-0.26068
0.519017
-0.0707331
0.108755
-0.104562
-0.00579193
0.00592727
-0.000135343
0.0110085
-0.0279408
0.0066236
0.0213172
0.206854
-0.383037
0.176183
0.00938867
-0.0107144
0.00132578
-0.000494142
-0.40532
-0.00976466
0.00967669
8.79739e-05
-0.198807
0.184814
0.0139925
-0.00361436
-0.00847091
0.0120853
0.222794
-0.204735
0.00746666
-0.00102732
-0.00643935
-0.00480972
0.000413385
-0.354957
-0.0365734
-0.0128497
-0.000933398
0.439339
-0.219397
0.00035273
-0.184461
0.227829
0.0409505
0.082862
-0.123813
0.0384716
-0.108237
-0.0979402
0.289874
-0.0998409
0.103436
-0.00359486
-0.0685211
0.155412
-0.123774
0.0339563
0.00413714
0.0918295
0.114765
-0.0235041
0.0229446
0.000559461
0.0122308
-0.00297094
-0.0218205
-0.141158
0.162979
0.0355095
0.0891017
0.135223
-0.122529
-0.00525256
0.0115591
-0.00217046
0.00330972
0.00280382
-0.00136883
-0.00143499
-0.11019
0.0103492
0.185138
-0.0124824
-0.0147794
0.00998821
-0.012511
0.00669394
0.329793
-0.259003
0.0399158
-0.247874
0.207958
0.0496158
-0.0437301
-0.00588574
-0.00463865
-0.0497859
0.193388
-0.291913
0.009812
-0.00409565
-0.00571636
0.0759916
-0.0602535
-0.0157381
0.134546
-0.0570589
-0.0774869
-0.0129417
0.0120166
-0.0861247
0.0881977
-0.00207292
0.057861
0.00136367
-0.0592247
0.574366
-0.262322
-0.312044
0.0472239
0.0735565
-0.12078
0.000665545
0.370818
-0.178368
0.0647175
-0.0395493
-0.0251682
0.164165
0.421034
-0.585199
-0.0108032
0.00887004
-0.0215079
0.0384081
0.360184
-0.50124
0.141055
0.0170451
0.0325708
0.13074
0.0226264
-0.153367
-0.229911
0.513909
-0.283998
-0.0156147
-0.0604589
0.0373238
0.0231351
0.078022
0.24058
-0.263513
0.0229337
-0.0216033
0.00657293
0.00323907
-0.023322
-0.0846454
-0.0258892
0.110535
-0.0278482
0.561011
-0.409905
-0.151106
0.296514
-0.513828
0.217315
0.392292
0.00598071
0.00830514
-0.0502348
0.308824
0.00109682
0.254797
-0.257724
-0.086595
-0.0160003
0.203528
-0.155623
0.00475742
-0.00537805
0.00062063
0.0474196
0.0970268
0.248856
-0.20894
-0.473983
0.0824745
0.232845
-0.0262663
-0.0681714
0.088141
0.0930332
0.0133967
-0.15841
0.425776
-0.267366
-0.0106599
0.0124019
-0.00174203
0.114434
0.0371387
-0.151573
-0.305336
-0.148905
0.0140955
-0.0128926
-0.00658049
-0.0271355
0.033716
-0.0170362
0.00241549
-0.614483
0.349663
0.26482
-0.0374579
0.0359027
0.00951052
-0.00983891
0.000328386
0.0622455
-0.117943
0.0556979
0.0120073
-0.00914431
0.00754362
0.0916206
0.0781335
-0.348231
0.0409927
-0.0552401
-0.269796
-0.0986809
0.0421954
-0.0897593
-0.0448883
0.365324
0.0215027
-0.123046
-0.0342167
-0.206848
-0.337385
-0.00441305
-0.00195843
0.00637148