/*--------------------------------*- C++ -*----------------------------------*\
| =========                 |                                                 |
| \\      /  F ield         | OpenFOAM: The Open Source CFD Toolbox           |
|  \\    /   O peration     | Version:  v2012                                 |
|   \\  /    A nd           | Website:  www.openfoam.com                      |
|    \\/     M anipulation  |                                                 |
\*---------------------------------------------------------------------------*/
FoamFile
{
    version     2.0;
    format      ascii;
    class       volVectorField;
    location    "250";
    object      ddtCorrDdt0(U);
}
// * * * * * * * * * * * * * * * * * * * * * * * * * * * * * * * * * * * * * //

dimensions      [0 1 -2 0 0 0 0];


internalField   nonuniform List<vector> 
14033
(
(-0.00431709 0.0048267 0)
(0.00113432 -0.0375459 -5.45653e-21)
(1.48309e-05 1.0286e-05 0)
(-1.98886e-05 -2.91821e-05 4.37183e-21)
(-1.00174e-05 -7.80723e-05 0)
(-1.73023e-05 -9.17116e-06 3.07882e-20)
(-0.00117797 0.048944 -2.11084e-21)
(-0.00672644 -0.00535447 5.48853e-22)
(-2.55878e-05 -2.88973e-05 -9.47409e-21)
(0.0176634 0.00521912 3.40084e-22)
(-0.00233854 -0.00598769 0)
(-0.000199268 -0.000246727 0)
(-0.000249905 0.000121597 4.54318e-21)
(-0.000112924 0.000182773 9.18258e-21)
(-6.6803e-06 -4.16572e-05 -2.06421e-24)
(-6.23525e-05 0.000135805 0)
(-9.00276e-06 1.01178e-05 -1.03037e-20)
(-0.0290354 0.00875378 0)
(5.5749e-05 5.57415e-06 0)
(-3.92549e-05 -7.34809e-05 2.20534e-20)
(-3.08346e-05 3.46344e-05 1.23763e-20)
(-0.00015173 6.41272e-05 1.09098e-20)
(2.45752e-05 0.00166685 -7.61686e-21)
(-2.02785e-05 -7.82486e-05 -8.15804e-25)
(-0.0039257 -0.00799221 0)
(7.07964e-05 -3.48637e-05 0)
(-0.000168159 -0.00015145 -3.91049e-22)
(-1.17695e-05 0.000500158 -1.6844e-20)
(-0.00356777 0.00019279 6.92047e-22)
(0.000521915 -0.000489737 0)
(6.26996e-05 9.42654e-05 -6.41047e-21)
(-0.00628528 -0.00404424 -2.30189e-21)
(0.000208209 0.000895793 0)
(0.00126938 -0.000168914 2.77008e-21)
(-0.00118721 0.0124037 -3.92829e-21)
(-4.69227e-05 -1.83591e-06 -4.89435e-22)
(0.00388317 -0.00362432 -4.55234e-22)
(0.0164021 0.00636694 -3.15045e-22)
(2.37547e-05 -0.00012356 1.67676e-23)
(-4.86315e-05 3.57162e-06 3.39184e-20)
(-0.0316144 0.0132098 -2.87733e-21)
(-6.72474e-05 -5.2446e-05 -1.95108e-20)
(0.000602275 0.000880014 0)
(9.72285e-05 4.50218e-06 -3.0675e-22)
(0.0044892 -0.00243 5.57118e-22)
(0.000705234 0.000938738 0)
(-0.00122459 6.19631e-05 5.53428e-21)
(-9.88416e-06 -5.33996e-06 -1.36042e-20)
(-0.00115479 -0.00333997 1.19518e-20)
(0.00304624 -0.00292887 1.13238e-21)
(-3.07055e-05 -3.06186e-05 2.21082e-20)
(-4.1462e-05 2.13644e-07 0)
(0.0132109 -0.00155984 1.63959e-21)
(-0.000707844 -0.00380399 -3.33401e-21)
(-1.30345e-05 3.89503e-05 1.31555e-20)
(-0.000224647 0.000107681 0)
(0.000115558 0.000132108 1.02772e-20)
(-0.0125747 0.03492 -2.90567e-21)
(0.00160395 0.000331202 -2.79034e-21)
(-0.000178631 -0.000370576 -6.41464e-21)
(-0.00739274 0.00409133 -2.05319e-22)
(0.00402116 -0.00352578 -2.12109e-21)
(-0.000466002 0.00039148 2.61642e-21)
(-5.46771e-05 0.00118401 5.12959e-23)
(-4.87589e-05 -4.73257e-06 0)
(-5.22691e-05 6.25741e-05 9.85529e-22)
(-0.00368816 0.00410876 0)
(0.000440413 -0.000121538 -2.63191e-20)
(-0.00447866 0.0026966 -2.40383e-21)
(-0.000200693 -0.000377231 -5.10596e-21)
(-4.22533e-05 -1.54912e-06 -2.18656e-22)
(-3.97489e-06 8.42161e-06 1.19217e-22)
(-0.00129084 9.69209e-05 -3.23702e-21)
(-7.85945e-05 7.26846e-06 0)
(-0.000203343 8.29316e-05 -2.63029e-20)
(-0.000102281 8.25649e-05 -3.56575e-22)
(-1.52758e-05 -1.6179e-05 -1.00917e-20)
(-0.000292249 -0.000940733 -1.064e-20)
(-0.00350491 0.0319151 0)
(0.00076643 0.00120129 -1.11778e-20)
(0.00173045 0.000503761 -1.48161e-22)
(-0.00275769 0.0256155 9.00668e-22)
(0.0105277 -0.000266151 3.43012e-21)
(1.8676e-05 -0.000199604 2.74034e-21)
(-3.61488e-06 2.66644e-05 0)
(-6.99025e-06 3.54448e-07 1.1015e-20)
(0.000429919 -0.000393362 0)
(-0.00158386 -0.0034879 2.33619e-21)
(-0.00151007 0.000633059 7.51934e-21)
(-9.23747e-05 3.45811e-05 -4.31197e-20)
(-9.74415e-06 9.12147e-09 -2.55554e-20)
(0.00159706 0.00229794 0)
(0.00337163 -0.00130498 0)
(0.000799598 -0.00119619 5.16298e-22)
(-0.00285567 0.00156037 6.6856e-21)
(0.00757285 0.0189675 0)
(-2.88328e-05 -2.46686e-06 0)
(2.02919e-05 1.0272e-05 -5.11736e-22)
(0.00535159 -0.00317343 0)
(-2.03672e-05 -2.89061e-06 -8.99702e-21)
(-6.64375e-05 0.000102621 -1.31053e-21)
(-1.09714e-05 -6.96663e-07 7.67646e-21)
(-0.00220546 0.00135278 -2.15366e-21)
(-0.00119741 -0.00130234 0)
(-0.0013682 0.000115544 5.85316e-21)
(-5.39633e-05 -0.00199958 -1.04211e-20)
(-0.0016533 0.000732099 0)
(4.31551e-05 -0.00011145 0)
(0.000360984 -0.000145642 -2.91433e-22)
(-5.79423e-05 -4.19428e-06 1.0923e-21)
(-0.000947764 -3.04597e-05 0)
(-4.66406e-05 2.20142e-06 0)
(-1.4151e-06 2.04794e-05 8.93831e-22)
(-0.0249339 -0.015796 0)
(-4.18722e-05 7.61861e-07 0)
(-1.64138e-06 1.48804e-05 -9.62895e-21)
(-0.000428362 -0.000209646 2.29056e-20)
(-1.17442e-05 -0.000146402 1.45326e-23)
(0.00129367 -0.00142942 -2.23257e-20)
(0.000150041 0.000441147 0)
(-1.01966e-05 -1.51608e-06 0)
(0.000132137 -0.000702928 2.13726e-21)
(0.000889728 0.00169761 -3.69742e-21)
(0.000480727 -0.000103479 1.15974e-20)
(0.00201413 -0.000526961 -4.9345e-21)
(0.00293081 -0.00178392 0)
(-0.000106358 4.16137e-05 9.44491e-22)
(-0.0198461 -0.00713029 3.15616e-21)
(-0.000375797 0.00041329 9.82497e-21)
(-2.59659e-05 -2.47016e-05 0)
(-0.00117923 4.51924e-05 2.86434e-21)
(-3.15641e-05 1.69918e-05 -4.15823e-22)
(-3.14194e-05 -0.000117782 3.57073e-25)
(0.00089374 -0.00101069 -5.63068e-22)
(-0.00108634 -1.61745e-05 0)
(-0.00013644 -0.000293049 -6.81477e-21)
(-0.000958977 -0.00039922 1.40042e-20)
(-5.18913e-05 -3.56953e-06 0)
(-2.72244e-05 -3.13834e-05 2.96188e-20)
(0.00289349 -0.00141608 1.67475e-21)
(-3.05619e-05 -0.000121515 0)
(0.000785174 -0.000442947 1.089e-20)
(-0.000356268 -0.00072193 -5.41241e-21)
(-5.10147e-05 0.000113601 0)
(-0.00358004 -0.000170099 3.53156e-22)
(0.00371623 -0.00253965 -1.4606e-21)
(-1.22636e-05 -2.21785e-06 7.11201e-21)
(0.000260533 0.000322682 0)
(0.00376301 -0.00325828 1.903e-21)
(0.0215191 0.0071612 -1.65237e-22)
(0.0130602 0.0351449 -1.05775e-20)
(0.000249239 -0.000232598 3.9953e-21)
(-4.29578e-05 3.25524e-07 1.73001e-21)
(-0.00741034 0.00221303 -3.99925e-21)
(-1.74652e-05 -7.6238e-06 -1.45865e-20)
(-0.00129999 -0.000134958 1.03047e-21)
(-0.00221506 -0.00348546 -1.36748e-21)
(-2.07662e-05 -7.35698e-05 -2.0656e-21)
(-0.00230028 -0.00172838 -1.07836e-22)
(-1.23733e-05 -5.13647e-05 0)
(0.000392598 0.00181286 0)
(-0.000485679 -0.000863614 -7.68705e-21)
(0.00147093 -0.0015354 8.35586e-22)
(-2.09782e-05 2.80501e-05 0)
(-3.49213e-05 -0.000200328 5.3052e-21)
(-1.15047e-05 -1.07662e-06 0)
(0.000204257 -9.57732e-05 4.57087e-21)
(-0.000384844 -0.000134725 0)
(0.0135794 -0.000294364 -4.04734e-21)
(2.1634e-05 3.77161e-05 1.11816e-20)
(2.28097e-05 -0.000235282 9.00736e-22)
(-0.000471594 -0.000475443 -1.82593e-20)
(-4.2384e-05 -0.000358023 -7.14776e-21)
(-0.00163519 0.000832569 5.84255e-22)
(-9.4955e-05 9.54327e-05 3.61973e-22)
(2.09941e-05 3.80702e-05 -1.09846e-20)
(-0.000409868 -0.00241601 6.7742e-21)
(-0.00222245 -0.000203825 -3.90064e-21)
(-9.07784e-05 -0.000411894 0)
(2.15989e-05 -0.000149919 -1.26991e-20)
(-0.00293266 0.00583039 2.29309e-22)
(-0.00221651 -0.00018781 -2.40494e-21)
(-3.0621e-05 -0.000253021 1.17708e-20)
(-0.00199643 -0.000333194 -1.37346e-21)
(-5.68258e-05 -3.19192e-06 9.58359e-22)
(-0.00160854 0.000297654 6.25989e-21)
(0.000954247 -0.00138732 0)
(-1.28918e-05 1.23048e-06 0)
(0.0142807 -0.00687289 0)
(-0.00142197 3.03722e-05 -6.6307e-21)
(0.000591568 -0.00186079 -3.82744e-21)
(-3.48833e-05 -4.97155e-05 8.77415e-21)
(-0.00603564 0.00307628 4.22903e-21)
(-2.56439e-05 -9.48229e-07 1.98453e-20)
(0.00192887 -0.000829653 0)
(-0.0177704 0.0243375 3.46751e-20)
(-0.000299197 0.000621658 0)
(-0.0011968 0.000286816 -9.70294e-21)
(-2.26462e-05 -3.47773e-05 8.15868e-21)
(-6.12649e-05 4.22398e-07 -2.87483e-21)
(2.57018e-05 -5.52474e-05 2.67939e-21)
(0.000210815 7.02775e-05 2.9039e-22)
(-5.4726e-05 -2.29323e-06 2.67531e-21)
(-0.00273362 0.00303973 0)
(0.000242507 -0.000290305 3.93176e-21)
(-5.26975e-05 -2.38246e-06 -2.04197e-21)
(0.000163971 0.000418703 1.74706e-20)
(0.000229185 -0.000574111 3.56858e-20)
(-0.000125821 -0.000133226 1.14677e-20)
(-0.00201763 0.0238303 0)
(-0.000546567 0.000271721 -1.7879e-20)
(-4.45871e-05 -0.000214648 0)
(0.000907672 -0.00266102 0)
(0.00179181 -0.000597586 0)
(3.56106e-05 -0.000102666 2.33599e-23)
(0.000856896 0.00173928 -1.07242e-22)
(-3.41747e-05 -3.92767e-06 -9.1539e-21)
(0.0260952 -0.0330498 8.39396e-21)
(-4.80491e-05 -1.75555e-06 -3.31427e-21)
(0.00190889 -0.000223919 -7.00521e-22)
(-0.000170208 -8.95677e-05 2.24693e-20)
(-0.000259488 -0.000668 0)
(-0.000368296 -0.000550768 2.01424e-21)
(0.000347824 -0.000139227 -6.91073e-22)
(-2.74062e-05 1.65186e-05 2.81241e-20)
(-0.00163904 0.00577655 0)
(-0.000311445 0.00101057 -1.81189e-21)
(0.00013758 9.68894e-05 -9.76079e-21)
(-2.41972e-05 -3.69803e-05 -8.42609e-21)
(0.000708117 -9.26523e-05 1.1582e-22)
(-5.98271e-05 1.4913e-05 1.14356e-21)
(-0.000463423 -0.00196347 1.12421e-20)
(-9.61328e-06 -1.16631e-05 0)
(1.44514e-06 -0.000144455 3.6101e-23)
(0.0275802 -0.0305297 -1.6321e-20)
(0.00136793 -0.00173643 1.05391e-21)
(8.97383e-05 -0.00492873 -3.01468e-20)
(0.000856362 8.32894e-05 -1.38064e-22)
(-3.08434e-05 -2.62449e-05 -2.16111e-21)
(-6.67453e-05 1.86844e-05 1.52034e-22)
(0.00107303 0.00213755 -2.26137e-21)
(-2.0336e-05 -0.000337031 1.40811e-20)
(-1.62534e-05 -3.78176e-06 1.21935e-20)
(-3.89585e-05 1.8763e-05 4.46456e-22)
(0.000350192 -0.000294945 0)
(0.000826974 3.29905e-06 7.12407e-22)
(-0.000152387 0.00158326 -2.38535e-20)
(-0.00101065 0.000813304 1.57554e-22)
(0.000246801 -0.000255299 5.06379e-21)
(-0.00404316 -0.00654907 4.93452e-22)
(-2.73633e-05 -2.79348e-06 -1.76388e-20)
(-0.00129004 0.000146762 7.82223e-22)
(0.000554806 -0.000139939 -5.88115e-22)
(0.000484233 -0.0018037 -8.70009e-21)
(-2.60247e-05 -3.06069e-05 8.54607e-21)
(-0.00185683 -0.0529105 -1.93037e-22)
(-6.07566e-05 2.58652e-05 3.76034e-21)
(7.25005e-05 3.51505e-05 0)
(0.000537138 2.40693e-06 0)
(-0.00271882 -0.00181594 0)
(-3.34901e-06 -1.07803e-05 -2.42972e-23)
(-0.0348326 0.0108891 0)
(-0.0163466 -0.0284516 1.78669e-22)
(0.0036216 0.00140935 -6.31466e-22)
(-1.91925e-05 1.48383e-05 5.76086e-21)
(0.0222536 -0.0182211 -3.56775e-20)
(-6.68058e-06 9.7898e-06 4.77006e-21)
(0.000830203 0.000585195 0)
(0.0198222 -0.0427549 3.04152e-20)
(-0.00123541 0.000297936 1.46391e-20)
(1.46957e-05 -1.81525e-05 -1.41666e-20)
(0.00144814 -0.00151928 2.20809e-21)
(9.87853e-05 -1.23586e-07 0)
(-0.00032828 0.000286053 9.22683e-23)
(-0.00162604 -0.00322241 -5.20418e-21)
(-3.08425e-05 -2.00395e-05 0)
(-5.96215e-05 1.45383e-05 -1.31975e-21)
(-0.000357659 -6.80062e-05 4.41677e-20)
(0.000155876 -3.54036e-05 2.74015e-21)
(-0.00257793 -0.00187538 0)
(-0.000240945 -0.00245467 5.36265e-21)
(-4.00849e-05 -7.9407e-06 1.84329e-21)
(-0.0186072 -0.00924166 1.34003e-20)
(-0.000118195 9.42892e-06 0)
(0.0176043 -0.0101159 -3.59073e-21)
(0.0207215 0.00947724 0)
(-0.00137263 0.000124729 -2.01715e-20)
(0.000565004 1.19216e-07 0)
(-0.0167118 0.0370047 0)
(0.000323091 -0.00226596 7.93339e-21)
(0.00334455 -0.00227769 1.28418e-21)
(-3.51031e-05 -0.000313948 2.85332e-20)
(-0.000248364 -0.000610636 -1.64683e-20)
(0.00195035 0.00606297 3.20244e-22)
(7.36606e-06 1.18801e-05 0)
(-0.000124359 -0.000805183 -3.48108e-22)
(-0.000691609 -0.00086698 0)
(-2.60305e-05 -2.98718e-05 -8.33124e-21)
(3.75017e-06 -0.000742897 0)
(-0.000291547 0.000349865 0)
(-0.000669546 -0.000584997 0)
(-0.00623171 0.00220457 0)
(0.00628126 -0.0649074 0)
(-5.87471e-06 -3.34542e-05 0)
(0.00174537 -0.00158871 6.86638e-22)
(0.0144644 -0.0147475 5.72553e-21)
(-8.22357e-05 0.000113192 0)
(-0.00196905 -0.000458605 0)
(-0.000461421 0.00171635 1.51069e-20)
(-5.04081e-05 -2.88194e-06 1.93144e-20)
(-0.000398917 -0.000460063 1.69647e-20)
(-5.04082e-05 2.95402e-05 -1.79496e-21)
(-0.00115473 -0.000616746 4.10593e-20)
(-0.000315411 -0.000673011 -1.90103e-21)
(-0.00275402 -0.00297854 9.51956e-20)
(0.00860641 -0.0337294 0)
(-9.69094e-06 -1.96902e-06 3.029e-20)
(0.000277051 -0.00141741 -6.54859e-21)
(-0.00116979 0.00163803 3.74233e-21)
(-0.00171062 9.10799e-05 0)
(-0.00966578 -0.0308616 1.84359e-20)
(-0.000259025 -0.00144709 2.19313e-20)
(0.00016488 -0.000146855 9.94757e-21)
(-0.00603402 -0.00270208 1.36943e-21)
(-0.0109169 0.0187374 0)
(-0.000460536 -0.00496449 0)
(3.19934e-06 -9.51584e-05 1.53053e-20)
(-0.00137098 0.00235197 -3.56691e-21)
(-0.0015197 7.27745e-05 -6.86419e-21)
(-0.000400586 0.000850495 0)
(-0.0014444 0.000858647 -2.35932e-21)
(0.0317234 -0.0105723 4.15067e-21)
(0.0115821 -0.00636221 -2.31459e-21)
(-0.000125231 4.39442e-05 -1.76406e-21)
(6.10946e-05 -4.65195e-05 8.7481e-23)
(0.00123901 -0.00123855 -2.44035e-22)
(-0.000812514 -0.000408942 -1.80186e-20)
(-0.000356054 -0.000113785 1.85118e-21)
(0.00079394 -0.000855221 0)
(-0.000110926 2.67699e-05 -3.78591e-20)
(-0.00115085 0.000215407 -1.45037e-20)
(-0.000372964 -0.000102904 -5.19017e-20)
(-4.60028e-05 3.0708e-05 0)
(-0.000100157 -8.43354e-06 3.55517e-20)
(0.00974329 0.0165873 1.23775e-21)
(-0.0046302 -0.0108005 -2.35677e-22)
(-0.000232201 -0.000164629 2.6543e-20)
(-1.97552e-05 -2.56681e-05 -8.19712e-21)
(-0.0272444 0.0185417 0)
(-0.00490717 0.0761647 8.16239e-22)
(-0.00093196 -0.000252383 0)
(-3.0518e-05 -2.09261e-06 0)
(-0.00161146 0.000576762 -6.75753e-22)
(-0.000572387 0.000380441 6.83247e-21)
(1.87122e-05 3.2152e-06 -4.1649e-21)
(3.26467e-05 -0.00011282 0)
(-2.09489e-05 -8.05313e-05 0)
(0.00203813 -0.00114904 0)
(-0.00231597 0.00341433 1.8115e-21)
(-0.0013403 -0.00197277 2.1254e-22)
(1.92146e-05 -4.95612e-05 0)
(0.00404312 -0.0111339 -2.10247e-20)
(0.00108397 0.00182381 -1.72727e-21)
(-0.000381877 -0.00215188 1.76516e-21)
(-6.38488e-06 -8.07581e-07 -2.17826e-20)
(-0.0076326 -0.00559457 2.59643e-21)
(0.00226487 -0.0276063 1.72573e-20)
(0.000369093 0.000250175 0)
(-6.06572e-05 -4.13435e-05 0)
(8.46769e-05 -0.000171848 0)
(2.72954e-05 0.00581822 2.46128e-22)
(7.90185e-05 -0.000310575 6.20452e-22)
(7.42675e-06 2.90805e-06 -6.13089e-22)
(-1.36207e-05 1.11158e-05 0)
(-0.000289373 -0.000313524 -1.69122e-20)
(0.0389905 -0.00853807 -4.15668e-21)
(-4.40125e-05 -5.57598e-05 1.15694e-20)
(-3.37788e-05 -0.000257166 0)
(-0.00906191 0.0139888 -4.72798e-21)
(0.000110502 -4.64324e-06 1.76167e-22)
(0.000606247 -0.000290401 0)
(-0.00774276 0.0182088 6.48921e-22)
(6.6029e-05 2.54499e-05 -5.21002e-21)
(0.00511114 0.0178345 -1.48788e-21)
(-0.00149363 -0.00518445 3.59155e-21)
(-6.315e-06 3.50138e-06 2.5738e-21)
(-0.000919661 -8.89429e-05 0)
(0.000766996 0.000225093 -5.23054e-22)
(-1.13853e-05 0.000112079 -5.87569e-21)
(7.95365e-05 -0.000258913 -1.25143e-20)
(-0.000846588 -0.000772195 1.3806e-21)
(-0.00161807 9.13352e-05 0)
(-8.93273e-05 4.10959e-05 1.92173e-20)
(0.00106157 0.00129913 3.26228e-21)
(-0.0204476 -0.0242804 0)
(0.0249841 -0.0169311 0)
(0.00364215 0.00459623 4.40822e-21)
(-0.00146969 0.000702472 8.27624e-22)
(-0.00164972 -7.42804e-05 -3.3764e-21)
(-4.29051e-06 -1.22021e-05 0)
(-0.0054076 -0.0354271 0)
(8.70537e-05 6.9843e-05 0)
(-0.00010199 5.06887e-05 8.77568e-22)
(0.00114682 0.000854647 -2.31906e-22)
(-0.010146 0.00705283 4.02323e-22)
(-1.88334e-05 -7.81653e-06 -1.55122e-20)
(-0.000373012 -0.00300283 -7.9975e-22)
(1.75287e-05 -0.00012701 -8.43076e-24)
(6.2321e-05 4.30356e-05 1.53734e-20)
(0.00177598 -0.000566544 -1.05264e-22)
(-0.000981088 -0.000337668 3.59498e-22)
(-0.000585135 -0.00118353 -1.22198e-20)
(-6.43822e-05 1.12366e-06 -3.07464e-21)
(-0.0165485 0.0360543 2.70988e-21)
(-0.000138579 0.00568757 0)
(-3.57061e-05 4.60102e-05 7.64815e-21)
(0.00128906 -0.013179 1.26654e-20)
(-4.35845e-06 3.85774e-05 4.53192e-21)
(1.20207e-05 2.51232e-05 0)
(0.000593389 0.002153 7.99803e-21)
(0.000245498 0.000295185 -3.70261e-21)
(-0.0275742 -0.0213935 0)
(-0.000518462 -0.000860869 7.15738e-21)
(-8.42884e-06 3.66089e-06 0)
(-1.47926e-05 -3.24188e-06 -1.0202e-20)
(-1.21079e-05 7.50778e-06 0)
(-0.000210388 -0.0020917 -8.17701e-22)
(-7.65221e-06 -4.12131e-05 1.64316e-23)
(-0.00028018 0.000369543 0)
(0.000373984 -0.00108074 0)
(-0.00534637 0.00321092 -1.18736e-21)
(-4.23195e-05 -1.46013e-05 6.45752e-21)
(8.80513e-05 0.000203142 8.98408e-21)
(-1.11611e-05 1.93102e-05 4.13588e-21)
(-0.00418436 -0.0106893 -1.24321e-20)
(2.77754e-05 -4.20232e-06 0)
(-8.12291e-05 1.87917e-05 -9.21531e-21)
(-1.222e-05 -2.94557e-05 0)
(0.00104453 0.002637 -2.60029e-20)
(0.0161987 -0.0330639 4.98154e-21)
(-0.00263975 -0.00233472 -5.67459e-23)
(0.000784336 0.000226387 -6.107e-22)
(-2.9501e-05 1.79453e-05 0)
(6.85133e-05 3.63855e-06 0)
(-0.000828769 -0.002029 3.02038e-21)
(-4.20362e-05 -7.1754e-07 -3.53928e-21)
(-0.000280184 -0.000508491 -8.57856e-22)
(0.00174927 -0.00206656 0)
(0.0146944 -0.0421938 -1.20005e-21)
(1.11987e-05 -5.26969e-05 -4.80273e-21)
(3.8504e-05 0.00158289 0)
(0.000516803 0.00299678 3.03594e-22)
(-5.73387e-05 -2.17924e-07 1.30957e-21)
(-0.00609869 -0.0192152 -1.15642e-20)
(-3.41389e-06 2.64104e-06 -6.13916e-22)
(-6.28928e-05 -0.00217033 0)
(-0.00342738 -0.0268797 1.93679e-20)
(-2.31524e-07 1.90986e-05 -1.19165e-20)
(-1.35261e-05 -3.45958e-05 0)
(0.000248288 0.000347701 -1.67854e-20)
(-5.87519e-05 -2.46917e-05 -2.63029e-20)
(-0.0010772 -2.57504e-06 -1.3952e-21)
(-0.00422115 -0.00127284 0)
(-0.00023344 -0.000301651 -2.28783e-20)
(0.000110127 -8.13103e-06 -5.18645e-22)
(-5.59239e-06 -3.05115e-06 0)
(-0.00621199 0.0113687 5.89859e-21)
(-4.30796e-05 1.07449e-06 1.25489e-21)
(0.000551392 -0.000249883 5.35591e-22)
(-0.00217537 -0.00203342 0)
(-2.98234e-05 3.47095e-05 0)
(-0.000313994 0.00061614 -9.4513e-21)
(-0.000509197 0.000125466 2.21194e-21)
(-1.46713e-05 -1.66497e-05 -1.17495e-20)
(-0.00118233 -0.00746897 0)
(-0.00138966 0.000515088 0)
(-3.75953e-06 -0.000454891 0)
(-0.000103299 0.000585694 1.53441e-20)
(0.00123241 0.00113726 -1.24241e-22)
(-0.00310845 -0.00418093 0)
(-0.000249214 0.00133974 4.58279e-23)
(-0.000982225 0.00144657 4.29405e-21)
(-2.5151e-05 -1.16239e-05 0)
(-0.0280294 0.0210344 -3.76301e-20)
(-0.00152099 0.000200716 6.8138e-21)
(-0.000225428 0.00092893 -2.97193e-23)
(0.0126142 -0.000125722 -4.15474e-23)
(-4.42225e-05 -2.90161e-06 6.58382e-21)
(0.000293789 -0.000189532 6.64704e-21)
(-1.69633e-05 2.32881e-05 -1.1374e-21)
(-5.71901e-05 7.34892e-06 5.1116e-20)
(0.0153218 -0.000691054 -3.99449e-21)
(0.0184754 -0.0130796 -4.02445e-21)
(-0.000218826 3.63147e-05 -1.28624e-20)
(-0.000406202 0.000114349 5.83549e-22)
(-4.33526e-05 -5.30628e-05 0)
(-0.000490804 -0.000106733 -1.0971e-20)
(-0.0197778 0.0175544 2.11988e-21)
(8.02482e-05 3.9624e-05 0)
(-0.00630725 0.028201 -8.67441e-21)
(-2.01464e-05 3.12692e-05 0)
(-0.00501816 0.00346627 5.64574e-21)
(-9.59565e-05 -0.00282534 0)
(-0.010915 0.0244476 8.12103e-21)
(-0.00176608 -0.000446367 0)
(-0.000112219 4.14742e-05 -6.06103e-22)
(-1.7962e-05 -7.69269e-06 -5.58278e-21)
(-0.0130884 0.0124656 -9.60735e-21)
(-8.27286e-06 1.57294e-06 0)
(-0.000401982 -0.00122806 -5.72365e-22)
(0.000165647 0.000223603 0)
(-2.76345e-05 -5.39504e-06 -1.27149e-20)
(-0.000794692 0.00158226 0)
(0.000795448 -0.000145268 -1.27335e-21)
(2.83105e-05 -0.000697438 -5.03731e-21)
(-0.000171046 -0.000355034 0)
(-0.000562657 -0.000876142 0)
(-8.38928e-05 0.000114362 3.27038e-22)
(-0.074518 0.0919889 -5.02395e-21)
(0.0262504 0.0216916 -2.21197e-20)
(2.31371e-05 0.000155637 -7.70853e-22)
(-0.0217429 0.0108412 0)
(-2.60431e-05 8.85856e-05 7.58002e-22)
(8.22565e-05 1.67544e-05 -4.5861e-21)
(0.000779237 -0.00166694 0)
(-7.11544e-05 -3.08614e-05 0)
(-0.000291876 -0.000221403 0)
(-1.45755e-05 -1.13543e-05 0)
(-0.000108051 -4.22191e-05 -3.48352e-20)
(8.29347e-05 8.7443e-05 0)
(0.000120344 -0.000237671 0)
(0.000533404 -0.000205697 -1.38837e-21)
(0.00160237 -0.000766855 0)
(-0.000128288 -0.00015644 2.35027e-21)
(-5.98006e-05 9.02612e-07 2.91809e-21)
(0.000140981 0.000119294 1.34581e-21)
(-0.000274487 0.000297567 -1.3239e-21)
(-1.28315e-05 -9.03173e-07 3.02498e-20)
(-1.15687e-05 -3.8813e-07 1.80241e-20)
(-0.000347699 -0.00266379 -2.17655e-20)
(0.00348078 -0.000644199 -6.9405e-22)
(-0.0020059 -0.0018286 2.54001e-21)
(6.83132e-05 -4.46507e-05 0)
(0.00106981 -0.00278617 0)
(-0.0227667 0.0223285 0)
(-5.54807e-05 -6.11396e-06 0)
(0.0148142 0.0124729 0)
(0.000131517 -6.76779e-05 7.49519e-23)
(0.000321099 -0.000865264 -7.57168e-20)
(-0.00170235 0.00173893 -2.90032e-21)
(0.00117499 -0.000878691 0)
(-0.000453978 0.000479743 -1.19064e-20)
(-2.05176e-05 -0.000114372 -3.90375e-24)
(0.000132704 -5.85517e-05 -6.88966e-22)
(0.000953051 0.00817673 0)
(-0.000945688 -0.00517555 -1.70204e-19)
(-0.000141782 -0.000207708 1.5464e-23)
(0.000212827 9.93433e-05 0)
(-0.000555666 0.000138473 0)
(0.00187116 -0.00186789 -3.7457e-21)
(0.00116009 -0.000513479 5.1185e-21)
(-0.00155445 0.000401857 6.46834e-22)
(-0.000207503 -0.000560394 -8.66908e-21)
(1.03873e-05 -9.67558e-06 -3.19863e-20)
(-0.000105061 -4.53247e-05 0)
(-9.45639e-06 -1.97991e-05 1.95582e-20)
(0.00307684 0.00616961 -1.7876e-21)
(-0.000117727 -0.000240528 0)
(-4.68555e-06 5.22868e-06 -2.38693e-20)
(2.374e-06 -5.28735e-05 9.891e-21)
(0.000483633 -0.00108227 0)
(-0.000446904 0.000720343 0)
(0.000873686 -0.00524491 4.21242e-22)
(-1.38791e-05 3.03689e-06 -3.73032e-20)
(0.022924 -0.0158877 3.39026e-21)
(1.96642e-06 -6.09081e-05 6.68069e-21)
(0.018225 -0.0040863 3.90306e-21)
(-0.000378981 0.000622018 0)
(6.89178e-06 -0.000157238 0)
(0.00144051 -0.00144768 2.51906e-21)
(-0.000106413 -4.58471e-05 0)
(-0.000197728 -0.000377689 -7.54487e-21)
(1.48647e-05 -0.000622932 -7.07937e-22)
(-9.96236e-05 5.23448e-05 -1.17619e-21)
(-0.000124779 7.15178e-05 0)
(-0.00311137 -0.00346725 1.0227e-20)
(-0.000166579 -5.47382e-05 0)
(-0.0010671 0.000427506 -1.34839e-20)
(-8.89656e-05 7.72218e-05 -3.67789e-22)
(-0.000279593 -0.000904211 0)
(-0.000912579 -0.0292174 0)
(-9.59192e-05 6.97873e-05 0)
(2.33702e-07 1.06024e-05 0)
(0.00512681 -0.00752208 4.62021e-22)
(0.000158036 0.000163097 0)
(-1.20082e-05 -5.61615e-05 -5.57727e-21)
(-1.67646e-05 -0.00016306 1.0138e-24)
(0.000639338 0.0026193 0)
(1.97189e-06 7.46772e-06 0)
(-0.000346646 -0.000186099 4.19711e-21)
(-2.31072e-05 7.53758e-05 0)
(7.70997e-05 -0.000361084 -6.49243e-23)
(-0.00136406 0.00254534 0)
(-0.0464122 0.0740387 7.83134e-21)
(-0.000136425 -7.14179e-05 -2.29584e-20)
(-0.000140087 0.00151296 3.06748e-22)
(-0.00192658 -0.00825276 -4.44405e-21)
(-0.000895944 -8.59089e-05 -8.8344e-21)
(0.000174098 -0.000148127 0)
(-0.021004 0.0347832 -2.67735e-21)
(0.00192103 0.00422478 1.13241e-21)
(-0.00314537 0.00585801 0)
(-0.000137897 -7.35789e-05 0)
(-0.000320367 0.000297072 1.64866e-21)
(-0.0404233 0.0754553 2.6166e-21)
(-0.000105354 4.29433e-05 0)
(0.00111296 8.76091e-06 0)
(5.74586e-05 -4.47189e-05 -8.12777e-21)
(0.00146813 5.99391e-05 5.58096e-22)
(-0.00192796 -6.20266e-07 -9.78615e-21)
(-0.00222202 0.000127003 2.06167e-21)
(-2.51557e-05 -2.54523e-06 0)
(0.000368124 -0.000260686 -8.252e-21)
(-0.000159566 -7.65593e-05 1.18174e-20)
(0.00205991 0.00188583 3.88624e-22)
(-3.83392e-06 -0.00011672 -1.20776e-19)
(-0.0148671 0.0407342 2.39231e-21)
(-0.00018762 -0.00260417 0)
(0.00369971 -0.00100447 1.17835e-22)
(2.77327e-05 0.000272721 5.63909e-20)
(7.50918e-05 2.14413e-05 4.53614e-22)
(-0.00562523 0.00491582 0)
(7.06391e-05 2.32022e-05 0)
(0.000641635 0.00237886 1.66312e-20)
(-0.000113831 -9.51093e-05 -7.10894e-21)
(0.0123054 -0.0334159 0)
(5.37271e-05 -7.81965e-05 -4.02875e-23)
(-0.000162433 -1.00878e-05 -7.84508e-22)
(-0.000932735 -0.00222033 -1.02322e-20)
(-0.000123181 8.01163e-05 1.4889e-22)
(-0.000498065 -0.000765268 -1.29594e-20)
(-1.06942e-05 3.13243e-05 -1.49311e-20)
(-0.00778286 0.00483611 -9.03283e-22)
(0.000669721 0.000871792 -7.51323e-21)
(0.0004979 0.000447031 3.69559e-21)
(-0.000807293 -0.000186766 0)
(0.000250565 -0.000136759 -6.92325e-21)
(-1.81138e-05 -1.90203e-06 9.98191e-21)
(-3.43017e-05 2.41971e-05 -1.00149e-21)
(0.00183303 0.00253302 -1.35488e-22)
(-0.000259822 1.45907e-05 -5.72835e-22)
(0.0031411 -0.00368008 -9.06147e-22)
(-6.14678e-05 -0.000142808 0)
(-0.000145248 -0.000646252 0)
(-0.00123548 0.00248607 2.42303e-21)
(0.0202984 0.0205609 2.96604e-21)
(6.0735e-05 1.3592e-05 4.41821e-22)
(-4.9053e-06 -7.72314e-06 2.46398e-22)
(0.0139337 -0.00528646 3.94014e-21)
(6.89601e-05 1.10533e-05 7.1272e-22)
(2.67567e-05 -9.80806e-05 -4.4815e-23)
(-0.00169246 0.000926491 -3.93761e-22)
(0.00461697 -0.033568 0)
(0.00161381 0.00221595 0)
(-6.00697e-05 6.90312e-05 -2.40565e-20)
(0.00132516 -0.00105855 0)
(0.00257567 -0.00252969 -1.46512e-21)
(0.00110084 0.0122363 -2.686e-22)
(0.000455173 -0.00104138 0)
(-0.00155757 0.000292866 -2.79011e-23)
(0.0016876 -0.00150082 7.81798e-22)
(-0.0290538 0.0142083 0)
(0.00787607 0.00382463 -3.67017e-23)
(-0.000158226 -0.000115126 5.92584e-21)
(2.1244e-05 -3.4298e-05 4.44323e-21)
(7.82734e-07 -2.57309e-05 1.51677e-20)
(2.93114e-06 -3.89481e-05 -5.33653e-21)
(-0.00567017 0.00316138 1.3652e-21)
(0.00533248 -0.0022818 -1.59615e-22)
(-2.26729e-05 -1.75811e-05 4.5707e-21)
(0.00207823 -0.000527874 1.29527e-20)
(-0.0194004 -0.0157641 -5.66124e-21)
(-6.65017e-06 -5.87717e-05 0)
(0.00330454 0.02805 0)
(-0.00422342 -0.00162772 -1.64455e-21)
(0.000633127 -0.000342828 0)
(-2.88498e-05 -2.22702e-05 -5.83744e-20)
(0.000976708 0.00237447 0)
(0.000497477 0.000283484 -7.42387e-21)
(6.80034e-05 6.46673e-05 0)
(-5.19813e-05 0.00158186 0)
(-0.00621989 0.00177473 -5.54649e-22)
(0.00112663 -0.00117298 -1.15441e-21)
(4.41938e-05 -0.000114945 -3.59565e-21)
(0.00562787 -0.0163421 0)
(0.00189536 -0.00209346 2.59797e-21)
(-0.00201608 -5.53084e-05 -1.71005e-20)
(-0.000600447 -0.00032342 0)
(-3.86939e-05 -4.5264e-05 3.94416e-21)
(-8.93986e-05 8.34111e-05 0)
(0.00571283 0.0063729 -5.22489e-22)
(-0.0023284 -0.00261654 1.25593e-21)
(7.0641e-05 -4.23538e-05 -1.25115e-20)
(-6.29286e-05 6.32474e-06 -1.49849e-20)
(-0.000109439 -0.000284848 -2.20886e-20)
(-3.41612e-05 4.05369e-05 2.66735e-21)
(-1.49774e-05 1.95878e-06 -2.92582e-20)
(0.0269827 -0.0173394 1.67873e-21)
(-0.00152643 -0.00014787 -3.27811e-21)
(-0.000683496 0.00199541 0)
(0.000482059 -0.00212394 -8.7066e-21)
(-1.80644e-05 -1.23673e-05 2.98319e-20)
(-4.04936e-05 -1.96446e-06 4.86114e-21)
(-5.05339e-05 -3.90114e-05 -6.00613e-22)
(0.00116869 -0.000988011 0)
(5.71911e-05 3.82231e-05 -1.39108e-20)
(4.19026e-05 -3.00732e-05 0)
(-1.21953e-05 1.85912e-07 -1.81925e-21)
(-4.21072e-05 -1.99161e-07 9.00426e-21)
(-2.04903e-05 6.09997e-05 0)
(-0.00273547 -0.00594802 1.06256e-21)
(-0.00148595 0.00387318 -1.56801e-21)
(6.65381e-05 -0.000333347 -2.65911e-20)
(-5.07737e-05 -3.56738e-05 0)
(-0.00403432 -0.00680966 4.39532e-21)
(-5.78421e-05 1.87091e-06 -1.30378e-21)
(-0.00275561 0.00136116 0)
(-0.00046946 -0.000501381 7.11319e-21)
(0.0010467 0.00182276 9.65909e-22)
(-3.43982e-05 -3.68258e-05 0)
(-2.36177e-05 -1.50997e-06 6.0949e-24)
(0.0002584 -0.00207872 -8.14652e-21)
(0.00271346 -0.00140447 -1.66159e-21)
(0.00016921 -0.00325955 3.59004e-22)
(-1.14105e-05 0.00029391 1.61836e-20)
(6.17444e-05 -0.000924656 0)
(0.0258775 -0.0323609 -5.47229e-21)
(-2.12325e-06 8.60103e-06 -1.11115e-20)
(0.00185247 -0.00022566 0)
(0.00201071 -0.00322126 0)
(0.00343696 -0.00243982 -5.01524e-23)
(-2.05568e-05 -4.42121e-05 0)
(-0.00745426 -0.00406197 -5.63816e-22)
(0.000439262 0.00121564 0)
(-0.00229667 -0.000177954 -4.87604e-21)
(0.000111263 5.65975e-05 8.89745e-21)
(0.00102085 0.00261207 -3.91878e-23)
(-7.72718e-06 6.20327e-05 -3.46378e-22)
(-0.00188067 2.11155e-05 2.77127e-21)
(-0.008004 0.00207864 6.40431e-21)
(0.00292778 -0.000129672 8.76863e-22)
(-0.00078747 0.000727561 -1.86713e-22)
(-5.8666e-06 1.02708e-05 2.53681e-21)
(-4.12324e-05 2.57928e-06 2.00428e-21)
(0.00151709 0.00208947 0)
(-0.00204897 8.45565e-05 5.06334e-21)
(-3.38505e-05 1.38418e-05 -4.19266e-22)
(0.00395236 -0.0146157 2.29552e-21)
(-0.000534199 0.00157661 2.51928e-21)
(0.00187557 -0.00197547 3.34771e-21)
(-8.8142e-05 5.84178e-05 -2.18431e-22)
(0.00842477 -0.00588362 0)
(0.00206081 0.0208724 8.58256e-21)
(-0.000559306 -0.000320089 -1.11207e-20)
(-0.000860894 0.000914976 -3.15997e-22)
(-1.55795e-05 -4.42501e-06 0)
(-0.000924073 -3.74797e-05 3.78919e-21)
(-2.1097e-05 -5.87384e-06 -5.39332e-21)
(-6.40249e-05 1.77193e-05 -7.7083e-21)
(-0.000251625 0.00117092 0)
(-6.73064e-06 -5.73549e-05 4.19131e-21)
(0.000574394 0.000352936 9.36909e-23)
(-0.000141766 -0.000218385 0)
(-0.00862967 0.0360061 -1.53715e-21)
(-4.71481e-05 -1.21095e-06 -2.8562e-21)
(-0.000164055 0.000905696 3.22994e-20)
(-0.00325193 -0.00291553 -1.40495e-19)
(0.00439222 0.012302 1.2179e-21)
(-0.00031102 -0.00247772 4.1557e-21)
(-6.0388e-06 -9.46273e-05 -2.7439e-21)
(-5.80703e-05 -0.000297723 -2.33091e-20)
(-4.99302e-05 -1.85558e-05 -7.75663e-21)
(-0.00217489 -0.000203804 4.96017e-21)
(2.49586e-05 2.52505e-06 -7.62025e-23)
(3.15164e-06 -4.32709e-05 -1.39806e-20)
(-0.000102911 4.51897e-05 0)
(0.000783407 -0.000856781 0)
(-0.000146201 -9.47285e-05 -7.89806e-22)
(0.000291089 0.0151797 0)
(-4.45763e-05 -2.42194e-06 -4.09807e-22)
(0.00626032 -0.00218321 0)
(0.00621532 0.00951492 0)
(0.00250445 -2.53672e-05 7.2195e-22)
(0.00196174 0.00416964 4.1324e-21)
(0.0053509 -0.00357236 -1.40415e-21)
(-0.000118794 0.000422015 0)
(-0.000435981 -0.00232612 -1.80589e-20)
(0.0054983 -0.0141214 0)
(0.000322177 0.000569908 -6.57127e-20)
(-0.00233913 0.000768322 4.09588e-22)
(-0.000505209 -0.000326426 4.01588e-20)
(-0.00176323 8.41153e-06 0)
(-0.000179381 -8.069e-06 2.25939e-20)
(0.000182253 0.000309863 0)
(0.000299913 0.00312521 -6.53111e-21)
(-0.00125112 0.00160966 0)
(-9.98038e-06 4.00104e-06 1.1959e-20)
(-0.00115765 -2.71023e-05 0)
(-0.00161753 -0.000563377 2.0748e-21)
(-3.7821e-05 2.49734e-05 0)
(-5.5815e-05 -5.81862e-05 -1.77475e-22)
(0.000135626 0.000164714 4.1213e-21)
(4.93296e-05 -4.71677e-06 1.37167e-20)
(-0.00028885 -0.0006143 2.57824e-20)
(-0.000248806 7.17421e-05 1.23352e-20)
(0.00196786 0.00134419 0)
(8.4466e-05 8.69993e-05 0)
(0.000989763 0.00170112 -3.87476e-20)
(-0.0161984 0.0173442 -8.70525e-21)
(-2.51374e-05 -0.000303125 4.23033e-20)
(-0.0160514 0.00536388 -2.50537e-21)