/*--------------------------------*- C++ -*----------------------------------*\
| =========                 |                                                 |
| \\      /  F ield         | OpenFOAM: The Open Source CFD Toolbox           |
|  \\    /   O peration     | Version:  v2012                                 |
|   \\  /    A nd           | Website:  www.openfoam.com                      |
|    \\/     M anipulation  |                                                 |
\*---------------------------------------------------------------------------*/
FoamFile
{
    version     2.0;
    format      ascii;
    class       surfaceScalarField;
    location    "250";
    object      phi_0;
}
// * * * * * * * * * * * * * * * * * * * * * * * * * * * * * * * * * * * * * //

dimensions      [0 3 -1 0 0 0 0];
oriented        oriented;


internalField   nonuniform List<scalar> 
20823
(
0.13152
0.0272031
-0.158723
0.235044
-0.13827
-0.0967737
0.663211
-0.0923612
-0.57085
0.601322
-0.119955
-0.481366
0.612434
-0.052864
-0.55957
0.507074
-0.376583
-0.130491
-0.536836
0.318859
0.284674
0.100918
-0.385592
0.548951
0.0523711
0.169397
-0.0211757
-0.148221
0.626741
-0.562023
-0.0647187
-0.150318
0.150486
-0.000167823
0.207979
-0.340597
0.132618
-0.13478
0.342759
-0.726251
0.422057
0.304195
0.141827
-0.216973
0.0751458
-0.320096
0.205694
0.114403
-0.0222679
0.0727649
-0.050497
0.354519
0.00463973
-0.359159
-0.190501
0.313552
-0.12305
-0.109689
0.197618
-0.0879284
-0.0118259
-0.138492
-0.0217687
0.135945
-0.114177
0.0395421
0.572892
0.487683
0.139058
-0.0944926
0.449012
0.119234
-0.118729
-0.000505347
0.120137
0.107811
-0.127619
0.0198079
0.0182832
0.0874175
0.148209
-0.20056
0.0523513
0.390887
-0.106213
0.125463
-0.0951276
-0.0303351
-0.0181886
0.155888
-0.1377
-0.140273
0.206282
-0.0660091
-0.535264
-0.0716256
0.60689
-0.0898049
0.0697978
0.0200071
0.174073
-0.00467595
-0.249824
0.692201
-0.442377
-0.0510704
0.303279
-0.252209
0.0884181
-0.134126
0.0457075
-0.226208
0.116519
0.791703
-0.406505
-0.385198
0.698008
-0.260752
-0.437256
0.751782
-0.338898
-0.412884
0.355857
0.435846
0.0482387
-0.0441079
-0.00413084
0.408961
0.0981131
-0.154528
0.090579
0.0639489
0.12103
-0.0734737
-0.0475565
-0.135943
-0.221977
0.35792
-0.00396608
-0.523883
0.527849
-0.0834937
0.0272426
0.0562511
0.133949
-0.0936886
-0.0402599
-0.195692
-0.124405
-0.240365
-0.100232
0.0639647
-0.0944262
0.0304615
0.0851509
-0.157974
0.072823
0.128998
-0.147187
-0.0576745
0.205883
-0.623697
0.501514
0.122183
0.0324966
0.0885336
-0.109287
-0.0389867
0.148274
-0.407605
-0.180235
0.58784
0.401366
-0.646454
0.245087
-0.474476
-0.095245
0.569721
-0.0381144
0.169634
-0.0560163
0.103645
-0.0476288
0.602285
-0.496012
-0.106273
0.0442581
-0.242319
0.198061
0.459064
-0.663544
0.204481
-0.636958
0.273953
0.363004
0.0493929
-0.00115415
0.168397
0.167711
-0.336107
0.181112
0.0322895
0.607478
-0.171477
-0.436001
-0.09029
-0.277137
0.367427
0.218644
-0.174386
-0.099736
0.116198
-0.0912451
0.0982185
-0.00697331
-0.771576
0.35841
0.413165
-0.107904
0.00816769
-0.0444936
-0.039
-0.334157
-0.15226
0.486416
0.0405897
-0.532224
0.491634
0.463346
-0.666709
0.203362
-0.440315
0.332341
0.107974
0.0400564
0.0938921
-0.00706765
0.0444367
-0.037369
0.0668369
-0.257338
0.490547
-0.619597
0.12905
-0.415719
0.576023
-0.299302
-0.276721
0.00972594
0.0575714
-0.0672974
0.467751
0.134534
0.0948642
-0.334576
0.239712
-0.304582
0.168639
-0.0120141
0.675226
0.0058042
0.0689484
-0.0747527
-0.134427
-0.382014
0.516441
0.0711978
-0.545674
0.492934
-0.0839727
0.673341
-0.20559
0.0859836
0.348259
-0.434242
-0.00758361
0.0496975
-0.0421139
0.085975
0.0336981
-0.119673
-0.0492816
0.042214
-0.465558
0.131402
0.0701615
-0.126178
-0.703828
0.502683
0.201145
-0.00486939
-0.0420589
0.0469282
-0.590817
0.0372944
0.553522
-0.402414
0.443003
0.194555
0.288318
-0.482873
-0.590817
-0.37491
0.28462
0.0947232
-0.020117
-0.0746062
-0.124321
0.554235
-0.429914
-0.0779957
0.0877217
0.0241916
0.101271
0.616982
-0.506776
-0.110206
0.11801
-0.148645
0.0306351
-0.00212558
-0.00134592
0.0034715
0.424643
-0.261405
-0.163238
0.000374292
0.0783148
-0.0786891
0.229303
0.34672
-0.516772
0.652597
-0.135825
0.478648
-0.284094
0.00301694
0.0242869
-0.0273039
-0.491926
0.299474
0.192453
0.037926
0.0114669
-0.479391
-0.106312
0.585703
-0.328288
-0.262037
0.590325
0.0573612
0.0192393
-0.0766005
0.0477415
-0.0098155
0.0666889
-0.246642
0.179953
0.116051
-0.102027
-0.0140245
0.5679
-0.166534
-0.318461
-0.173466
-0.488152
0.172922
0.31523
0.0713322
0.102742
-0.174075
-0.0108674
0.0777554
-0.066888
-0.0134271
-0.115161
0.128588
-0.224806
0.168501
0.0563053
0.133237
-0.0254257
0.32827
0.423512
0.610846
0.00613621
0.0128545
0.125452
-0.138306
-0.0573083
-0.111397
0.205158
-0.0937616
0.333902
-0.239037
0.208751
-0.137419
0.57423
-0.115166
0.291664
0.0992228
0.35467
0.138264
0.00294392
0.0347756
-0.0377195
0.01797
0.318669
-0.336639
-0.274931
-0.352664
0.627594
-0.386641
0.404611
-0.334107
-0.274338
0.608445
0.23759
0.0896662
-0.327256
0.113402
0.00583258
-0.0663532
0.0742859
-0.00793276
0.520059
-0.480697
-0.0393614
-0.165584
-0.0328551
0.198439
-0.255249
-0.332118
0.587367
-0.0856686
-0.125002
0.210671
-0.0248498
-0.127415
0.152265
0.0250307
0.00344521
-0.0284759
-0.0360845
-0.312971
0.349056
0.171831
-0.0300038
0.0964522
0.0195992
0.110032
0.0404539
0.0305587
-0.00595667
-0.024602
0.435983
0.171496
-0.362011
0.325927
-0.0768517
-0.021862
0.0987137
-0.0270493
2.2083e-05
0.0270272
0.138219
-0.0281875
-0.0763351
-0.148471
-0.12615
-0.0523742
0.178524
-0.0286934
0.00164412
0.0489928
-0.21593
0.166937
-0.0849807
-0.396824
0.481805
-0.507008
-0.196819
0.0504
-0.0453472
-0.00505279
0.066398
-0.0103775
-0.0560205
-0.490353
0.330986
0.159367
0.0289471
-0.0277795
-0.00116759
-0.0496903
0.0421067
-0.0914851
0.00393519
0.0875499
-0.137713
0.236062
-0.0983488
0.38512
-0.0934556
-0.18609
-0.304263
0.0764488
-0.0864471
0.0099983
-0.0855187
-0.0732047
0.158723
0.0480821
-0.157369
0.0328872
-0.0015096
-0.0313776
0.32432
0.224631
-0.629769
0.13131
0.498459
0.0536593
0.33855
-0.392209
-0.22717
0.0894565
-0.474695
0.494232
-0.0195373
-0.164264
0.123082
0.093205
0.145375
-0.0273652
-0.00509164
0.0690564
-0.130786
-0.0954221
0.394269
-0.546373
0.152104
-0.021817
0.0248339
-0.0438815
-0.0505447
-0.0723168
0.0787119
-0.00639511
0.0846504
-0.00820161
0.596364
-0.204901
-0.391463
0.324765
-0.0871751
-0.256943
0.63515
-0.378208
-0.51209
0.0377328
0.474358
-0.616899
0.0816341
0.180463
-0.0367499
-0.143713
-0.218026
0.0872401
-0.0500543
0.435261
-0.385206
0.426945
-0.477
0.200433
0.22421
0.152692
-0.474237
0.321545
-0.679685
0.47544
0.204244
-0.135351
0.113582
0.144649
0.0761632
-0.220812
0.507919
-0.183599
-0.750488
0.287187
0.463302
-0.637868
0.475288
0.16258
-0.0168662
0.102841
0.309066
0.123224
-0.43229
-0.504845
0.380524
-0.127185
-0.384905
-0.00295556
0.0693535
-0.0741123
-0.0804156
0.738459
-0.320141
-0.418318
0.386072
-0.504204
0.118133
0.549634
-0.531505
-0.0181288
0.00334998
-0.175631
0.427864
0.186188
-0.614052
0.153621
-0.633012
-0.0825203
0.331892
0.406567
0.0358121
-0.0475838
0.0117717
0.00856601
0.0219927
0.41205
-0.307248
-0.104803
-0.487297
0.618054
-0.130757
-0.0588078
-0.366342
0.425149
-0.0273486
0.0274511
-0.000102465
0.636994
-0.490318
-0.146676
0.00634616
-0.0786629
0.359239
0.14868
-0.240818
0.229004
0.0118148
0.502847
0.0467875
-0.430895
0.139695
0.291201
-0.545651
0.67176
-0.12611
-0.131234
0.0240304
0.107203
0.56701
-0.510159
-0.056851
0.0712046
-0.0934725
0.470091
0.0247399
-0.494831
0.00753526
0.172928
-0.242743
0.0589401
0.183803
0.56879
-0.531057
-0.148115
0.457181
-0.0879901
-0.00325504
0.0474514
0.521338
0.00368829
0.0291989
-0.0678028
0.236199
0.0628412
-0.0658062
0.00296501
0.185066
0.512942
0.0798003
0.0939157
-0.173716
0.117066
-0.0454856
-0.0715802
0.511302
-0.125231
-0.30203
-0.335838
0.0231744
0.0969625
0.12759
0.28446
-0.119499
0.0251722
0.0943268
0.108512
-0.0748139
0.576479
-0.441259
-0.135221
0.303222
-0.193936
-0.109287
0.133169
-0.222224
0.0890552
-0.00607014
0.0350172
0.0825024
-0.193899
0.0055896
0.0913429
0.119467
-0.0343166
-0.0916868
0.000201753
-0.258849
-0.115456
-0.0180496
0.133505
0.116958
-0.130385
-0.173511
0.0332382
0.0935032
-0.383519
0.290016
-0.0549924
-0.43201
0.487002
-0.0234698
0.432355
-0.408885
-0.144965
-0.452508
0.397516
0.412717
-0.239817
-0.1729
0.411791
0.113316
0.0143801
-0.127697
-0.198814
-0.168105
-0.098693
0.266798
0.165682
-0.251036
0.0853541
0.582092
-0.53464
-0.265178
0.386467
-0.121289
-0.463179
0.378198
0.0452013
-0.00938922
-0.109429
-0.198579
0.308008
0.106265
0.0140361
-0.120301
0.630904
-0.128057
-0.130125
-0.00687621
0.137001
-0.139416
0.0242551
-0.0838267
-0.0437923
0.0469718
0.53512
0.566412
-0.075865
0.261407
-0.176972
-0.0844347
-0.325041
0.147794
0.177247
-0.0256091
0.0304511
-0.00484204
0.0803284
0.154715
0.0905091
-0.107375
-0.0540478
-0.179656
0.233704
-0.133827
-0.48987
0.323299
-0.0596388
-0.26366
0.120485
-0.0804288
-0.255183
0.0870779
0.189666
0.483675
-0.0422871
-0.00740318
0.107374
-0.178892
0.0715186
-0.201866
-0.123174
-0.0849619
0.118328
-0.0656865
-0.00315035
0.0688369
-0.0103832
-0.155201
-0.537327
-0.0118132
0.54914
-0.0696147
0.00326151
-0.111403
0.00937607
0.246313
0.166404
-0.0682745
0.0630825
0.00519206
0.174031
-0.270685
0.0966542
-0.0263112
-0.00103738
0.121588
-0.110139
-0.0114494
0.146023
0.48488
-0.114546
0.288577
-0.396948
0.527301
-0.130353
-0.13173
0.619413
-0.0582331
-0.0583896
0.116623
0.33485
0.115692
-0.450541
0.142582
-0.0541638
-0.14399
-0.392846
0.0466278
0.385727
0.319676
0.0248088
-0.344485
0.0399071
0.00452963
0.171325
-0.063951
-0.334018
-0.0702717
0.404289
-0.612391
0.362567
-0.38745
0.122271
-0.0538289
-0.00476435
0.0585932
-0.490019
-0.300657
0.0632711
-0.397289
0.568684
-0.521712
0.0012244
0.11056
0.23382
-0.34438
0.550492
-0.0871461
0.131654
0.127479
-0.259133
0.0480657
0.520619
0.085068
0.514395
-0.599463
0.239023
-0.0347014
-0.204322
-0.0560765
0.453129
-0.397052
-0.608213
0.469506
0.138707
-0.457055
0.400978
0.574523
-0.574523
-0.0164794
0.315953
0.101878
0.00438731
-0.134022
0.0490599
-0.00504442
0.179036
-0.173992
0.134735
0.151869
-0.0838541
-0.0852217
0.169076
0.416572
0.203005
-0.619577
-0.689877
0.521848
0.16803
-0.200965
0.284728
-0.0837638
-0.307993
-0.122902
0.141647
-0.538595
0.0336062
0.0868789
0.292173
-0.424989
0.132815
0.0438715
-0.0487409
-0.674013
0.353872
0.205517
-0.0723485
-0.0836524
-0.0338504
0.117503
-0.416551
-0.0272919
0.00168281
0.268743
-0.222599
-0.0461442
0.188382
0.136383
0.468443
0.00164802
-0.0816715
0.206439
-0.116951
-0.0894882
0.0401702
-0.0316042
-0.0226946
0.133533
-0.110838
0.105781
-0.406547
0.300765
-0.446474
0.3554
0.0910741
0.4173
-0.277605
0.450105
-0.610639
0.160534
0.467206
-0.620322
0.153116
0.0555069
-0.256471
0.438093
-0.285402
-0.192786
0.265164
-0.0723786
0.552674
0.139527
-0.444954
0.136961
-0.0674125
0.0677868
-0.0448288
0.0477727
0.0946306
9.26148e-05
0.519446
0.122756
-0.642202
-0.0867695
-0.0712044
-0.132773
0.248917
-0.390515
0.141598
0.60698
-0.558915
0.331714
-0.0331315
-0.298583
-0.268508
0.00336751
-0.235691
0.108607
0.127083
-0.383246
-0.086681
0.469927
-0.0650413
-0.0817506
0.146792
-0.310496
-0.326461
0.533216
-0.105352
-0.269129
0.0319634
-0.224749
-0.304021
-0.422231
0.0571729
-0.167975
0.110802
-0.239882
0.265062
0.120058
0.261006
-0.312077
-0.0827645
-0.140583
0.223348
-0.439545
0.309222
0.130324
0.0378659
0.569114
-0.335202
0.430449
-0.0952469
0.0509332
-0.225684
0.174751
0.432477
-0.097627
-0.0927799
0.177233
-0.0844528
0.602449
-0.37826
-0.224189
-0.0817147
-0.0495189
-0.402472
-0.271541
0.405365
-0.0856893
-0.594902
0.566276
0.0286265
0.367069
-0.256509
0.543058
-0.547024
-0.168521
0.110288
0.00442516
-0.0745431
0.0701179
0.352839
0.24961
0.33654
0.151967
-0.488507
0.0456696
-0.0033031
0.638398
-0.491528
-0.14687
-0.417623
-0.212145
-0.325481
0.464312
-0.138831
-0.626516
0.626516
-0.0927604
0.0931755
-0.000415071
0.101581
-0.427062
0.0819159
0.258843
-0.340759
-0.186201
-0.00545412
0.164963
-0.159509
0.279453
0.0238266
0.0056826
-0.129236
0.1412
-0.011964
-0.0718855
0.0630861
0.00879941
0.54681
-0.130238
0.444063
-0.15189
0.0837992
-0.167653
-0.597175
0.0732919
0.107893
-0.598211
-0.0954686
-0.177509
0.228442
0.136479
-0.0793058
-0.0768808
0.439912
-0.363032
0.26263
-0.456595
0.193965
-0.524157
0.00737672
0.0327935
-0.422152
0.128723
0.293428
2.36801e-05
-0.0719092
0.282696
-0.094314
0.118065
-0.0928929
-0.575976
0.432324
0.143652
-0.0415406
-0.00629477
0.0478354
0.464658
-0.202029
0.0570632
0.0081129
0.13522
-0.542825
0.0594743
-0.0322317
0.392814
-0.464439
-0.0362886
0.10645
0.506209
0.0138499
0.218985
0.125229
-0.344214
0.0517835
0.00769082
0.0579953
-0.0481848
-0.00981052
0.0227637
0.365299
-0.442179
0.219133
-0.224177
-0.0882285
0.328385
-0.0574007
-0.270985
0.213335
-0.164342
0.251322
0.0719769
-0.0557352
-0.122663
0.387725
-0.0888252
-0.387634
0.591742
-0.204107
0.100719
-0.123413
-0.536188
0.0194161
-0.465995
0.331568
0.0692208
-0.154443
0.377579
-0.295663
-0.0793497
-0.0450997
0.124449
-0.443763
-0.123222
0.566984
-0.562787
0.370261
0.192527
-0.0382346
0.0466242
-0.00838959
-0.418596
-0.294562
0.0744309
-0.234823
0.160392
-0.122888
0.135742
-0.619978
0.200275
0.419703
-0.279356
0.359647
-0.0802909
-0.320668
0.448257
-0.127589
-0.0698852
0.468438
-0.398553
0.44001
-0.584867
0.144858
-0.485992
0.416107
0.157594
0.259706
0.0957052
-0.440696
0.344991
-0.0192093
0.258233
0.236058
0.00487588
-0.240934
-0.168069
-0.289995
0.458064
0.344618
-0.125633
0.389476
-0.158876
-0.230601
-0.136068
-0.0844389
0.220507
-0.0711782
0.403519
-0.000625667
-0.0532032
0.332284
-0.46013
0.127846
-0.0753737
0.594819
-0.38382
0.263686
0.120134
-0.400434
-0.109274
0.509707
0.613231
-0.588683
-0.024548
-0.536173
0.280924
0.0167497
-0.0936015
0.23741
-0.159395
-0.0780153
0.0249561
0.0921097
-0.61016
0.0728326
-0.3455
0.441205
0.553477
-0.113467
-0.0549402
-0.187803
0.322957
-0.229375
-0.0935825
0.0404434
-0.460867
0.420423
-0.0816072
0.0707397
0.361848
-0.214055
-0.59953
0.471853
0.127678
-0.0039901
0.028277
0.239508
-0.567796
-0.416611
0.275421
-0.389967
0.114546
-0.104635
-0.02549
-0.126103
0.458387
-0.221925
0.13916
-0.160744
0.0957023
0.0684848
-0.00564353
0.111393
-0.216894
0.105501
-0.00544016
-0.00773078
0.165661
-0.15793
0.0964471
0.19227
-0.288717
-0.200657
0.043097
0.15756
0.176029
0.339338
0.115614
0.090825
-0.172211
-0.392755
0.499262
-0.162722
0.0716496
0.00610583
-0.00437694
-0.0510635
0.0554404
0.101141
-0.0727155
-0.0284251
0.0770584
0.0105091
0.0474862
0.549194
-0.324807
-0.224387
-0.00274884
0.0270591
-0.0310492
-0.127514
0.262249
-0.0069473
-0.0588589
-0.171458
-0.0291995
0.189011
-0.3063
0.117289
0.0113883
0.441741
0.583933
-0.133828
0.439544
0.132122
-0.571666
0.0155864
-0.116075
0.100489
-0.0516441
0.266206
-0.214562
0.0251785
-0.0992908
0.668925
-0.507017
-0.161908
-0.407952
0.132497
0.275455
-0.179909
0.0416395
0.18268
0.0860631
-0.322225
-0.259688
0.581913
-0.166958
-0.0491336
0.216091
0.27778
0.0622731
-0.340053
0.24569
0.303504
0.535752
0.0184835
0.0488225
-0.0670838
0.0182614
0.192231
-0.514457
-0.061651
0.297709
0.163536
-0.496278
0.332742
-0.44112
0.135554
0.226294
0.406754
-0.10884
-0.297914
0.13122
0.0915244
-0.222744
-0.0207066
-0.0054032
0.0261098
0.085713
-0.102938
0.0172248
0.0382812
0.00344947
-0.0417306
-0.0701166
-0.0359379
0.106055
0.423477
0.13
0.362044
-0.0866233
0.324632
0.072241
-0.396873
0.220715
-0.272359
-0.542349
0.141915
0.302705
0.104049
0.208183
0.444415
-0.132325
-0.393315
0.298822
0.056097
-0.047648
-0.00844894
-0.00381663
-0.0186728
0.0224894
-0.0215126
-0.00718088
-0.635775
0.477526
0.158249
-0.273587
0.0121824
-0.0868062
0.455776
0.145092
-0.600868
-0.153973
0.129123
0.581034
-0.157556
-0.149247
-0.0371487
0.186395
0.151535
0.085875
0.0971414
-0.139296
0.0421543
-0.630723
0.173768
0.456955
0.11635
-0.612361
-0.414486
-0.216237
0.0383765
0.0598419
0.239132
0.0136095
-0.252741
0.167958
0.048724
-0.216682
0.462155
0.052318
-0.514473
0.297892
-0.10888
0.117629
-0.0924506
-0.151587
0.591131
0.0459408
-0.12529
-0.202737
-0.236809
0.617864
0.0596286
0.00964842
-0.069277
0.0503102
0.0464972
-0.0968074
-0.00614312
0.0500147
-0.106405
-0.497661
0.115647
0.0957819
-0.6638
0.17732
0.48648
-0.046993
0.185945
-0.138952
-0.0611358
0.226818
-0.13356
0.301271
-0.279228
0.232952
-0.334115
0.101163
0.240334
0.0826238
-0.587846
0.548331
0.0395146
0.150569
-0.484601
0.334032
-0.068313
0.0026265
0.0270524
0.441386
0.389217
0.207147
-0.147869
0.521286
-0.373417
-0.0773388
0.245297
0.00288016
-0.00320719
-0.1997
-0.136407
0.0775
0.00715037
0.448685
-0.636205
0.18752
0.109666
0.0966162
0.474079
-0.61536
0.141281
-0.510254
0.362385
0.61834
-0.169656
0.00468319
0.0680817
-0.214535
0.10661
0.107926
-0.0768392
0.315971
-0.405474
-0.3107
0.0121392
0.406862
-0.419001
-0.0266955
0.140012
0.0572853
-0.224243
-0.0303052
0.275383
-0.245078
-0.00813221
0.133992
0.169231
-0.580535
0.246428
0.535916
-0.0120808
-0.117155
-0.402691
-0.28143
0.251124
-0.0176013
0.0664238
-0.0462714
0.0965816
-0.433814
-0.0019142
-0.215529
0.260794
-0.045265
-0.0122535
-0.0997947
0.179595
-0.123599
0.351486
-0.227887
-0.0673387
0.0717638
0.027563
-0.00302406
-0.0245389
-0.0838148
0.0636978
0.285973
-0.601835
0.315862
0.497448
9.83238e-05
0.00146625
-0.00156457
0.299406
-0.106952
-0.192454
0.0818678
-0.117806
0.340123
-0.245486
-0.0946375
-0.22613
0.0931773
0.132953
0.373554
-0.195175
-0.178379
0.49603
-0.189006
-0.307024
-0.43129
0.287461
0.14383
0.246763
-0.198027
-0.0487352
0.322699
-0.0897475
0.00541649
0.0834693
-0.0888858
0.379286
-0.634577
0.456819
0.177758
-0.296804
0.637478
-0.340674
-0.00923811
0.0867381
-0.0676662
-0.168024
0.181153
-0.2352
-0.34643
-0.273167
-0.310601
-0.352943
0.190495
0.0071225
-0.619027
-0.10466
-0.0724459
0.177106
-0.0219548
0.119096
0.162097
-0.458901
0.10549
-0.0197772
0.571608
-0.534314
-0.157034
0.0303629
-0.157778
0.199126
0.439272
0.422917
-0.178029
-0.244887
-0.255619
-0.380155
0.0966767
-0.0871192
-0.00955755
0.178831
-0.622602
0.44377
0.20869
-0.200457
-0.00823333
0.286749
-0.190302
0.176075
0.0853322
-0.173855
0.222579
0.194737
-0.410166
0.215429
0.0554713
-0.132676
-0.11836
0.0683499
-0.0128427
-0.0555072
-0.158068
0.255113
-0.0970449
0.484227
0.000720344
0.0622268
0.0289106
-0.0299456
0.001035
-0.157888
-0.237498
0.395386
-0.464674
0.129165
-0.558977
0.429813
-0.0265807
0.0227641
-0.116349
0.130729
0.272052
-0.120517
0.186441
0.289042
-0.475482
-0.230252
0.191426
0.0901742
-0.2816
0.0166936
-0.16594
0.0254497
0.00211325
-0.596676
0.490364
-0.335299
0.2117
0.00696672
0.0655292
-0.527602
0.432357
-0.162062
0.243764
-0.0817018
-0.0832541
-0.306864
0.102114
0.20475
0.458465
-0.272025
0.304358
-0.472427
-0.0033827
0.0445477
-0.041165
0.357907
0.158534
0.0879142
-0.122357
0.0130901
0.109267
0.359611
0.139652
-0.52904
0.614108
0.0999938
-0.160138
-0.386235
-0.741425
0.290626
0.450799
-0.0839541
0.196425
-0.112471
0.0181165
-0.101943
-0.0989215
-0.609988
0.188329
0.421659
0.355734
-0.302075
-0.0871975
-0.138932
0.203624
-0.313053
-0.000578537
0.0294892
0.0457373
0.528785
-0.312668
-0.428763
-0.194579
0.623342
-0.0490353
0.442173
-0.584053
0.14188
-0.065335
-0.436173
-0.305253
0.0628762
-0.057072
-0.0111998
-0.105751
-0.637016
0.192947
0.444069
-0.172061
0.0792807
-0.00368951
0.072638
0.344116
-0.273454
-0.0706615
0.0866501
-0.00655933
0.0155677
-0.00900836
-0.0753171
-0.0098446
0.0851617
0.111371
-0.0957844
0.111842
0.0097464
0.0201802
0.0102709
-0.134428
0.225952
0.0924387
0.100133
0.0770999
-0.00220625
-0.0185003
0.476944
-0.15846
-0.318484
-0.0104815
0.0452571
0.203439
0.0433237
-0.0947743
0.2862
0.287472
-0.108436
-0.10604
0.102205
-0.391643
0.289438
0.126073
-0.0130377
-0.113035
-0.0155311
0.212105
-0.196574
0.593293
-0.137517
0.274401
0.115075
-0.133637
0.196118
-0.0624805
-0.161384
0.0881793
-0.128081
0.0444281
0.126202
-0.502694
0.376492
0.365748
-0.649757
0.284009
-0.41409
0.567963
-0.153873
0.289418
0.133499
0.058823
-0.442069
0.240653
0.131283
-0.139014
-0.414794
0.047715
0.194054
-0.241769
0.130169
-0.141369
-0.406532
0.597457
-0.190925
0.0451635
-0.260692
-0.0542549
-0.420323
0.543847
-0.123524
-0.214118
-0.380784
0.292943
-0.161289
0.00248555
0.00119571
-0.00368126
0.605639
-0.133786
-0.0373546
-0.0392458
0.360541
-0.565442
-0.378503
0.284322
0.0941812
-0.57113
0.0595859
0.511544
0.454909
-0.0970022
0.0705639
-0.0737143
0.128171
-0.011213
-0.200396
0.116442
0.194555
-0.321384
0.126829
-0.126334
0.51941
-0.393076
0.269393
-0.264753
-0.583049
0.176517
0.168567
0.118905
-0.25364
-0.378426
0.0020216
-0.055257
0.517412
0.240867
0.103249
0.237592
0.135962
0.226707
-0.242238
-0.602044
0.46149
0.140554
-0.0675632
0.0982529
-0.0306897
-0.170554
-0.102208
-0.344267
0.50741
-0.331381
0.127778
0.0081675
0.369888
-0.106202
-0.585912
0.298704
-0.113663
0.36258
-0.164952
0.0762682
0.0886835
0.147254
-0.181956
-0.0105223
0.0733985
0.237293
-0.280704
0.0434105
-0.509688
0.207659
-0.472316
0.314377
0.157939
-0.000303478
-0.00257857
0.00288205
0.298146
-0.112189
-0.185957
0.101502
0.0900072
-0.191509
-0.0279499
-0.0881254
0.0496322
-0.0619223
0.0122901
-0.0128787
-0.0526342
0.0655129
-0.111036
-0.0177328
0.128769
0.145702
0.331242
0.0821002
-0.181895
0.0431554
-0.0048742
0.157324
-0.0318719
-0.110155
-0.106818
-0.0269273
0.0054147
0.303317
0.0276687
-0.0184562
-0.183995
0.0984461
0.0974816
-0.287333
0.189852
0.208706
-0.0637286
-0.144977
0.589111
-0.228248
-0.360863
0.225866
-0.360645
-0.0740589
0.288971
-0.399911
0.11094
0.275499
0.0864046
-0.361904
0.420535
-0.131117
0.031812
-0.0421895
0.441754
0.105056
0.470996
-0.0299363
-0.44106
0.0050836
0.0187921
0.00377019
-0.0225623
0.183372
0.434969
-0.253844
0.403481
-0.149637
0.520197
-0.0332438
-0.486953
0.231592
-0.339602
0.10801
-0.00859681
0.0489674
-0.0403706
-0.0787562
-0.156067
-0.167958
0.0216021
0.220977
-0.242579
-0.472337
-0.164679
-0.617153
0.229519
0.192939
-0.188064
-0.2528
0.0731437
0.228244
-0.0723556
-0.588022
0.439342
0.14868
0.473566
-0.0336536
0.0292862
-0.308642
0.073805
0.226396
-0.300201
0.137479
-0.55465
0.417171
-0.0757444
-0.00870207
0.0844465
0.360096
-0.233424
-0.126672
0.3052
-0.110644
-0.101604
-0.320339
0.421942
0.0139774
0.0826993
-0.159819
0.217104
0.603603
-0.171803
-0.4318
-0.457373
0.130696
0.16871
0.203941
-0.460884
0.117592
-0.329551
0.211959
0.0517556
-0.168846
0.11709
0.0988125
0.372184
-0.0836358
0.00831866
-0.529856
0.109533
-0.122636
0.596715
-0.431279
0.568758
0.633872
-0.119477
0.398435
-0.507708
0.121974
-0.0977824
0.132181
-0.00576801
-0.126413
0.0281663
-0.0258401
-0.0023262
-0.224726
0.0902984
-0.145762
0.169679
-0.0858794
-0.464732
0.284497
-0.269903
0.0832337
0.186669
-0.084446
0.167236
-0.0827898
-0.170364
-0.1365
-0.0810788
0.0355932
-0.117009
-0.0285673
0.145576
-0.161371
0.447344
-0.0958472
0.356853
0.115512
0.437985
-0.553497
-0.103058
0.0871295
0.0159281
0.207026
-0.364914
-0.429655
-0.0550159
0.118748
0.391768
-0.510516
0.00185501
0.122961
-0.54946
0.4265
-0.434285
0.0399794
0.586537
0.627088
-0.226447
-0.400641
0.0430583
-0.0493531
0.106621
-0.266131
-0.265374
0.0450945
-0.112658
0.0997571
-0.519494
0.419737
0.191135
0.435953
-0.397246
-0.11618
0.513425
-0.43169
-0.52716
0.36649
0.160671
-0.00879783
-0.165057
0.109723
-0.430391
0.128363
0.231734
-0.00980866
0.0522108
0.0489298
-0.283322
0.175129
-0.0212844
-0.506318
0.493491
-0.342922
-0.212632
-0.0782081
0.29084
-0.258033
0.402065
-0.144032
0.000577751
0.125673
-0.12625
0.174663
-0.217547
0.289606
-0.0720587
0.112831
0.0923276
-0.370303
0.11529
0.255013
0.388025
-0.514076
0.126051
-0.571326
0.208305
0.36302
0.51303
-0.125005
0.617079
-0.464445
-0.152634
-0.29111
-0.132965
0.0991142
-0.0281714
0.000879588
0.401821
0.219184
-0.479936
0.60669
-0.0162597
-0.59043
-0.586537
0.28549
0.109056
-0.394546
0.573403
-0.420608
-0.152795
-0.198561
0.0792182
-0.0338969
-0.0453213
-0.133765
0.112508
0.0212573
-0.39048
-0.172307
0.0250368
0.541974
0.414223
0.00103176
-0.0890219
0.0951952
-0.0193082
-0.0758871
0.013777
0.112296
-0.207101
-0.38907
0.507818
0.189627
-0.323188
0.138028
0.435375
-0.273148
0.294567
-0.0214189
0.0028411
0.446727
0.159962
0.153966
0.0547401
-0.118867
0.11199
0.0094368
0.110641
-0.120078
-0.0425534
-0.00672821
0.235677
0.0927081
0.244124
-0.263333
0.56036
-0.514536
-0.0458246
0.149386
-0.15484
-0.219154
-0.12922
0.348374
0.116578
-0.206066
0.00807605
-0.230976
-0.340349
0.0814823
0.0218702
-0.103352
-0.28147
0.182396
-0.457327
-0.0858325
-0.0172252
0.0532594
0.0259588
-0.445188
0.589565
-0.144377
-0.0921622
0.198678
-0.106516
-0.0929814
0.455986
-0.0923679
-0.0725837
0.589236
-0.454015
0.152538
-0.176746
0.0242079
-0.459897
-0.155462
0.238096
-0.085558
0.125366
-0.379222
0.253856
0.134119
-0.0110735
0.0707021
-0.12183
-0.0428843
0.164714
-0.36547
-0.120625
0.486095
0.576378
-0.10109
-0.241631
0.315436
0.042405
-0.0350283
0.207663
-0.101054
-0.199828
0.156581
0.0432471
-0.0140556
-0.0996336
0.0803255
0.022201
-0.00246935
-0.11936
-0.0714652
-0.0127672
0.0842325
-0.581454
0.154094
0.427361
-0.347784
-0.110103
0.457887
-0.0418118
-0.334771
-0.215389
-0.0577741
0.273163
0.321216
-0.418341
0.551216
-0.132875
0.498215
-0.0564613
-0.222419
0.244021
-0.00175348
0.0297896
-0.0280361
0.0484771
-0.0129002
-0.0355769
-0.0771888
-0.0569368
0.0931802
0.229519
0.127089
0.412227
-0.539317
0.0110825
0.226182
-0.107655
-0.118526
0.0835738
-0.224157
-0.223351
0.305572
0.114963
-0.219322
0.160113
0.0592093
0.0645201
-0.174545
0.110025
0.0143174
-0.118481
0.104164
-0.277052
-0.0274535
0.304506
-0.118647
0.0593128
0.00903714
0.133817
-0.136286
0.0502417
-0.280512
0.23027
-0.0441316
0.288255
-0.179233
-0.211282
0.373961
-0.282974
-0.0909872
0.181173
-0.122233
-0.103004
0.159821
0.475329
-0.209584
0.0878239
0.12176
-0.169312
0.0769439
0.231824
0.110934
-0.426616
-0.448313
0.595149
-0.146837
0.0962787
0.0506444
-0.0471949
0.255287
-0.0623476
-0.309132
0.424142
-0.115009
-0.00881773
-0.545106
0.553923
-0.16351
-0.267781
-0.493418
-0.028163
0.521581
0.0058097
0.116164
-0.0154399
-0.0731922
-0.19895
0.272142
0.331085
-0.0902175
0.411142
-0.157825
-0.253317
-0.0685929
-0.410703
-0.079231
0.0846475
-0.110725
0.238204
0.199985
-0.0998521
-0.124393
0.199539
0.0862705
-0.0710875
-0.0151831
0.0870811
0.195506
-0.0858409
-0.120588
0.231982
-0.255332
-0.114972
0.132623
-0.0273803
-0.106385
0.454233
0.156067
-0.6103
0.0335162
-0.4921
0.458584
0.482314
-0.122704
0.551504
-0.563317
-0.578358
0.11382
-0.117284
0.586791
-0.0575836
0.0532067
0.474504
-0.615095
0.140591
0.121169
0.434186
-0.555355
-0.00985234
0.0594845
-0.127055
-0.434501
0.561556
0.134557
0.276585
0.0471481
-0.0532912
0.00132816
-0.203195
-0.408779
0.609054
-0.440814
0.292699
0.0595012
0.14478
0.370881
-0.515661
0.631572
-0.0710747
0.081073
-0.438446
0.559615
-0.112919
0.406328
0.120973
0.00257668
0.186475
-0.104375
0.228224
-0.0904343
-0.13779
0.412605
0.150514
-0.563119
0.177855
-0.0128922
-0.469243
0.613328
-0.144085
0.507867
-0.392355
0.0304033
-0.0286742
-0.00172905
0.57116
-0.158555
0.15517
0.523835
-0.117508
-0.170362
0.435268
-0.264905
0.0462531
0.267889
-0.314142
0.284124
-0.518837
0.234713
-0.522838
0.220235
0.302603
0.121799
-0.565562
-0.0175176
0.373251
0.503545
-0.221134
-0.282411
-0.0491088
0.0582545
-0.00914568
-0.650818
0.262899
0.38792
0.59557
-0.420496
-0.175074
-0.441431
-0.108967
0.550398
-0.338507
0.22603
0.112477
0.133484
-0.0209767
0.431454
0.0759269
-0.50738
0.0637745
0.354231
-0.207975
0.562271
-0.354297
0.00296748
-0.171013
0.238536
-0.0675231
0.425075
-0.55213
-0.220722
0.354804
-0.452438
0.0976333
0.0333604
-0.0327741
-0.000586308
-0.156892
-0.11229
-0.104604
0.0287173
0.131189
-0.159906
0.0253601
-0.142369
0.524742
-0.424985
-0.388304
0.510739
-0.122435
0.446512
0.149058
-0.367918
0.279667
0.0882517
-0.344743
-0.0902366
0.434979
-0.220955
-0.122732
-0.461121
0.583854
0.0875444
-0.130429
-0.51092
0.113674
-0.159734
-0.0595881
0.139376
-0.136742
-0.306718
0.44346
-0.157685
0.48041
-0.322725
-0.248434
0.380931
0.284748
-0.571322
0.224949
0.346373
-0.516343
0.390009
0.0515377
-0.00847943
-0.3525
0.250437
0.102063
-0.0106499
-0.0986398
0.10929
0.62974
0.0430369
-0.526256
0.517438
0.0747944
-0.0784839
-0.589902
0.46717
0.0817202
-0.426463
0.403519
-0.119197
0.0626235
-0.0363615
-0.026262
0.485381
-0.0132304
0.0796439
-0.0664136
-0.573388
0.342411
-0.326273
-0.294321
0.0952206
0.1991
-0.135072
0.560146
-0.424827
0.288085
-0.17803
0.561678
-0.383647
-0.0121177
0.114585
-0.102467
0.456386
0.345983
-0.444528
0.0985448
-0.249428
0.345295
-0.0958666
-0.279198
-0.0800295
0.240142
0.0811242
-0.0379077
0.0325045
-0.0921632
-0.0708725
0.0579938
-0.106915
0.0717697
0.20728
-0.279049
-0.0224592
-0.027376
0.0498352
0.36462
0.124726
-0.467846
0.612571
-0.144726
-0.128472
-0.389961
0.518433
-0.428645
-0.0903233
0.518969
-0.177969
0.104527
-0.137618
0.0667578
-0.181975
0.240076
-0.0581011
-0.352236
-0.158684
-0.608812
0.0973665
0.200525
-0.215609
0.290774
-0.075165
-0.342283
-0.292294
-0.290874
-0.359944
-0.43527
0.571793
-0.136523
0.429083
0.142077
-0.190256
0.0586263
0.131629
0.151641
-0.503877
-0.00454319
0.0640444
0.423202
-0.558273
0.185665
-0.258857
0.426337
0.190741
0.136301
-0.39164
0.255339
-0.0788766
0.180379
-0.133367
0.507792
-0.374425
0.126232
-0.265425
0.294711
0.561609
-0.421164
-0.140445
0.307898
-0.103925
0.255444
-0.0181508
0.0702091
0.243496
-0.313706
0.362104
-0.098767
0.324633
0.0848906
-0.0889098
0.00401922
0.0135147
-0.580055
0.419113
0.160943
-0.0129135
-0.0940998
0.107013
0.185662
-0.121142
-0.235809
0.0647964
-0.201612
-0.215874
0.270495
-0.054621
0.288218
0.110446
-0.398663
0.015639
0.104091
-0.11973
-0.135051
-0.425125
0.560175
0.00880108
0.0835588
-0.0923599
0.0746413
-0.0833434
-0.266363
0.0874038
0.178959
-0.481132
0.313175
-0.134909
0.438082
0.123527
-0.503918
0.370551
-0.129745
0.116707
-0.0816678
0.128062
-0.546403
-0.716919
0.268221
0.448698
0.428898
-0.394018
0.588933
-0.159849
0.071874
0.0865932
-0.158467
-0.0185436
-0.108992
0.127535
-0.225138
0.0670699
0.092572
-0.457393
0.364821
-0.420296
-0.00771464
-0.053827
0.0615416
0.257949
-0.371612
0.00746553
0.0738829
-0.0813484
0.0752728
-0.00470886
0.0835955
-0.0220878
0.10357
-0.275136