/*--------------------------------*- C++ -*----------------------------------*\
| =========                 |                                                 |
| \\      /  F ield         | OpenFOAM: The Open Source CFD Toolbox           |
|  \\    /   O peration     | Version:  v2012                                 |
|   \\  /    A nd           | Website:  www.openfoam.com                      |
|    \\/     M anipulation  |                                                 |
\*---------------------------------------------------------------------------*/
FoamFile
{
    version     2.0;
    format      ascii;
    class       surfaceScalarField;
    location    "350";
    object      ddtCorrDdt0(phi);
}
// * * * * * * * * * * * * * * * * * * * * * * * * * * * * * * * * * * * * * //

dimensions      [0 3 -2 0 0 0 0];
oriented        oriented;


internalField   nonuniform List<scalar> 
19737
(
-0.00447965
0.00384865
0.000631009
-0.00531167
0.0014472
0.0038645
0.000241193
-2.17268e-05
-0.000219468
-1.69961e-05
2.70242e-06
1.42936e-05
-0.000707435
0.000715358
-7.99118e-06
1.13274e-05
-9.78903e-07
-1.03493e-05
-0.00304871
0.00040204
0.00264663
8.41101e-05
0.000122729
-0.000206847
-0.00224122
0.00196
0.000281231
0.00319628
-0.0345153
0.0313193
-0.0338957
0.0205859
0.0133099
0.111297
-0.0279554
1.42647e-05
-2.93726e-06
-4.09318e-06
2.80468e-05
-2.39539e-05
2.19976e-06
5.77499e-06
-7.97609e-06
-0.000453191
0.000127898
0.000325285
0.0038465
-0.00507284
0.00122634
-0.00155633
-0.084497
-0.0125486
0.0970453
0.00159707
0.0179699
-0.0195689
0.00271741
-8.99493e-05
-0.00262745
-0.000248759
0.00155389
-0.00130513
0.00302068
-0.00199562
-0.00102508
-0.000561482
0.0001369
0.00042454
-0.000214106
-0.000239085
0.000906105
-0.000413468
-0.000492603
-0.000743002
0.00130896
-0.000565968
0.00204685
-0.0359425
0.000338942
-0.00108199
0.00284155
-0.000810078
-0.00203134
0.000129897
0.00531854
-0.00544844
0.00294671
-0.00239807
-0.00054863
-0.00158945
-0.000526306
0.00211576
0.00131045
-0.00128893
-2.14921e-05
-0.0228324
-0.0273683
0.0502008
0.00419369
-0.000347196
-0.00257987
-0.000468901
0.00193087
0.0010898
-0.000739806
0.000491654
0.000248162
5.18189e-05
-0.000298504
0.000246658
4.2317e-05
-2.39147e-05
-1.84045e-05
8.52234e-05
-3.86854e-06
-8.13571e-05
0.0125521
0.0329718
-0.0455239
1.1437e-05
-2.88804e-05
1.74392e-05
0.000792819
-0.000543532
-0.000249267
0.00239113
-0.00316907
0.000777861
-1.53877e-06
3.73764e-06
-1.69963e-05
0.000167702
-0.0025057
0.002338
3.27771e-05
9.28153e-05
-0.000125619
5.11383e-06
-8.64333e-06
3.5294e-06
-9.49475e-07
-0.000476399
0.000477337
-0.00119264
0.00105932
0.000133235
-0.0210703
-0.0136334
0.0347038
-0.000216606
0.000239615
-2.30261e-05
-2.29685e-05
-0.00014293
0.000165896
2.10415e-05
-9.60321e-06
-2.602e-05
0.000624222
-0.000598211
-0.000711308
0.000649485
6.1834e-05
-0.000414493
-0.000296831
-0.0631151
-0.0473718
0.110487
0.00161489
-0.000879135
-0.000735755
-0.000535483
0.000509456
5.29977e-05
1.04293e-05
-6.34291e-05
7.06703e-06
-3.62707e-06
-3.43985e-06
0.000100071
-0.00168953
-2.60863e-05
1.98471e-05
6.24172e-06
0.00314256
-0.000751489
-6.6278e-06
-2.25901e-05
2.92173e-05
-0.0107866
0.00479035
0.00599798
0.00762714
-0.00605515
-0.00157201
-0.000277152
-0.000462649
-0.00328266
-9.99096e-05
0.00338259
0.00272253
0.000224327
-0.00247138
0.00220685
0.000264583
-0.000372369
0.000786995
-0.000414631
1.44425e-05
5.51901e-05
-6.96327e-05
0.00013822
-0.000179778
4.15543e-05
0.000161574
-0.000200047
3.8475e-05
0.00989098
-0.0156956
0.0058046
0.000507244
-0.000414664
-9.25843e-05
-0.000109081
9.93107e-05
9.76992e-06
0.000335931
-0.000708303
0.00065008
-0.000120213
-0.000529923
0.00571925
-0.00340349
-0.00231567
-8.05601e-05
0.000164665
-8.96073e-06
-0.000188675
0.000197626
0.00205973
0.00783802
-0.00989787
-0.0130538
-0.0281248
0.0411786
0.0189962
-0.0174003
-0.000273226
8.16094e-05
0.000191602
3.73241e-05
-2.79074e-05
-9.41434e-06
-0.000765495
0.00151302
-0.00074755
0.00356404
3.41609e-05
-0.0035982
-5.41544e-06
1.05286e-05
0.00138252
8.56999e-05
-0.00146823
-9.62622e-07
8.61854e-05
0.0124276
-0.00253662
0.00294099
-0.0068362
0.00389523
-0.00280512
-0.00798093
-3.40515e-06
-0.000269829
-3.71965e-05
2.14637e-05
1.57308e-05
-1.2365e-05
1.62996e-05
-3.93395e-06
0.000324094
0.00323996
0.0250126
-0.0108486
-0.0141642
-0.0041788
0.00430871
2.15218e-06
0.000239017
-3.51343e-05
2.85063e-05
-0.00052179
2.74253e-05
0.000494375
0.000348849
0.000557275
-0.000217974
0.000146095
7.1873e-05
0.000979294
-0.000652313
-0.000326985
-0.000720131
0.0041424
-0.00342227
1.02455e-05
0.000151338
-0.0041186
0.00339847
-0.00660987
-0.0778871
-0.00119922
-0.00196985
0.0168999
0.0380279
-0.0549278
0.000543456
-4.87918e-06
-0.000877903
0.000882777
0.000196954
0.000581564
-0.000778568
0.00118237
0.00252839
-0.00371077
0.00020442
0.000114284
-0.000318706
0.00364109
-0.0097887
0.0061476
0.0375209
-0.0437323
0.00621142
-0.00028528
0.0174033
-0.017118
-0.00704665
0.00515969
0.00188703
-0.00386582
-0.00318079
-0.00405703
0.000774348
1.08072e-05
0.00010184
-0.000112638
0.0062432
-0.00330219
-0.00394877
0.00742804
-0.00347929
6.70888e-05
-1.40923e-05
0.00191411
-0.00053159
-0.00196359
0.00159738
0.000366251
0.00683343
-0.00319235
2.91879e-05
-2.94645e-05
2.7793e-07
0.0351913
0.0023296
0.0183741
-0.00389653
-0.0144774
7.07409e-05
2.35969e-05
-7.9997e-05
5.6392e-05
-0.000105936
-0.000112041
-2.27523e-05
-4.71714e-05
6.99207e-05
-9.78565e-05
0.00390229
-0.00380443
0.0002112
-0.000307186
9.59335e-05
0.00273889
0.00677999
-0.00951878
0.0113575
-0.0101433
-0.00121426
-0.00349605
0.0224913
0.000331706
0.000175534
0.00884686
-0.00666503
-0.00218182
-0.000122293
0.000113305
1.7388e-05
5.55156e-06
-2.29393e-05
-0.0083354
-0.0148132
0.0231485
0.0245823
-0.0876976
0.000725261
0.00157871
-0.00230397
0.0185742
-0.0107992
-0.00777493
1.33976e-05
-1.56756e-05
2.27809e-06
-0.000272956
0.000181438
9.1518e-05
2.38338e-05
1.8481e-05
-0.00362823
0.0366383
-0.0330107
-0.0207132
0.0239096
-0.000536436
4.40485e-05
-6.68027e-05
0.000869896
0.000744973
0.0083721
0.0102021
0.00335806
0.0100464
-0.0134045
-0.00131967
0.00107092
-8.21295e-05
-0.000190826
-0.000175783
-0.000345993
0.000334442
-0.000343479
9.03667e-06
-0.000178416
7.24737e-05
0.0116805
0.0477147
-0.0593951
2.15356e-05
-4.14754e-06
6.05612e-05
-8.73487e-06
-5.18515e-05
-0.000275634
5.90294e-05
0.00136697
-0.000617752
-0.00074921
0.000107264
0.00144663
-0.000152408
0.000185175
0.0064442
0.00240265
1.48238e-05
-1.61544e-05
1.32997e-06
0.022059
0.0613213
0.00147242
-0.000728721
-0.00074375
1.31464e-05
1.38427e-05
-2.69858e-05
-0.0029458
-0.0315694
0.000810397
-0.00175598
0.00094561
4.3859e-05
-0.000109419
6.55597e-05
0.000116874
-0.000139842
3.57885e-05
0.00528276
0.00320295
-0.000361296
0.044907
-0.0172236
-0.0276833
0.0224168
0.0224902
0.00143235
0.0165367
-0.000105488
0.000316754
0.0272295
0.0840679
-2.16373e-05
-0.00020012
0.000221717
0.00122763
0.000139346
-7.99467e-05
-9.84728e-05
0.00735749
0.00400002
0.00852041
-0.00143669
-0.00708388
-7.70368e-05
7.3166e-05
0.000515607
-0.000670366
0.000154746
-0.000455008
-0.000737669
-0.0251304
-0.0503066
0.0754374
-0.000196181
-0.00176743
-0.000217566
0.000228379
-0.00354544
0.00380704
-0.000261473
0.000266961
-8.66217e-05
-0.000180332
-0.00169499
-0.000776397
-0.0438455
0.0266219
-0.000246733
-2.89089e-05
-0.0144377
-0.0294078
0.00371655
0.00798422
-0.0117006
-0.000128091
-0.000277833
0.000405921
-5.32785e-05
7.68695e-05
0.00042701
-0.000539981
0.000113065
-0.000326591
-0.00353117
0.00385777
1.56348e-05
-2.23748e-06
-0.00819502
0.0102546
0.0259414
-0.0295699
0.00278503
-0.000578095
0.0183618
-0.0163148
2.75723e-05
-1.45806e-05
-1.2991e-05
0.0157022
-0.00733002
-8.86221e-05
5.49406e-05
3.36815e-05
-0.00364673
0.00482909
0.000760501
-0.000435512
-0.000324994
0.00834536
-0.00346028
-0.0048851
0.0379139
-0.0129013
0.000174263
-3.60471e-05
-0.00240943
-0.00113599
0.00015045
-4.39897e-05
-0.000106494
-0.00266073
0.00485473
-0.00219398
-0.000174142
0.00185346
-0.00641625
0.00128846
0.00512779
0.000201608
0.000118437
-0.00032004
-0.00289488
0.00298585
-9.09606e-05
0.00410164
0.0326823
0.00176512
-0.00103987
-0.00597023
0.00330951
0.000595504
5.45656e-05
-0.00131414
-0.0051021
0.00275158
-1.63418e-05
2.10002e-05
-4.65805e-06
0.0654153
-0.00233715
0.000594927
0.00174227
-0.00821546
0.0119321
-0.00620977
0.00958587
-0.00337566
-6.81613e-05
-2.04608e-05
-0.00123205
0.00204246
-0.000341128
0.000768147
-0.00122465
-0.00057196
0.00179661
-4.42378e-05
2.21649e-05
2.20694e-05
-0.00136719
0.000488062
-0.00440792
-0.00518568
0.00959359
-0.00399531
0.00366873
-0.0193285
0.010993
1.75607e-05
1.00118e-05
-0.0346833
0.00891799
0.0257653
3.1331e-05
0.00160769
-0.00241774
-0.00364005
-0.00256974
-0.000159006
0.000360612
0.00127481
-0.000867231
-0.000407582
0.00579
0.00991221
-0.00467483
0.00072609
0.099845
-0.0726153
-4.83917e-05
5.88207e-05
-0.0149165
0.0332785
0.00076456
-2.57926e-05
-0.000738738
-0.00508095
-0.0075425
0.0126235
0.000676856
-0.000479925
-1.84902e-05
1.43961e-05
0.0075749
0.000113025
7.70257e-05
-0.000190064
4.44743e-08
7.02243e-06
-0.00177764
-0.000727256
0.00250489
0.0167193
-0.0358224
0.0191031
-0.000228921
-0.000478531
-0.01058
0.00772232
0.00285763
2.77958e-05
0.00119985
3.72021e-06
-4.04624e-05
3.67403e-05
-0.0341265
0.0210727
-0.00584193
0.00184665
0.00549524
-0.00545938
0.0215091
-0.0157829
-0.00572612
0.000556852
0.00071796
-0.00319119
-0.00842547
0.011958
-0.00353256
0.0266123
-0.0261577
-0.000454753
-0.000714305
0.00166839
-0.000954103
8.53958e-05
-7.15171e-05
-1.38872e-05
0.00166091
-0.000756775
-0.000904113
0.00101741
-0.000339502
0.000474058
-0.000134557
0.0243416
0.0378419
-0.0621835
0.000175187
-0.000114114
-6.10781e-05
-0.00365656
0.00270246
0.000954431
-0.00257998
-0.00800003
0.000419492
0.000341019
-0.00175096
0.00308571
-0.00626882
0.00318311
-0.000681602
0.000268148
-0.00347358
0.0088197
-0.00534615
0.00368903
-0.00716277
-0.00112553
0.00197092
-0.000845389
0.00195987
-4.35568e-05
-0.00191622
9.93995e-05
-3.88497e-05
-0.0129427
0.0108133
0.00212838
-8.70445e-05
0.000130903
0.0716954
-0.0547956
-0.000186916
-0.000298656
0.00048556
0.000798731
0.0267408
-0.0518708
-0.0566058
0.0337734
9.04825e-06
-0.000255784
6.34122e-06
-1.74235e-05
1.1082e-05
4.19079e-05
-0.00038141
-2.95161e-05
3.32353e-05
0.00123014
-1.74743e-05
-2.6766e-05
-9.59521e-05
-1.31292e-05
-5.21388e-05
0.000153991
1.32645e-05
-4.23499e-05
2.90854e-05
0.000513964
-0.000441102
-7.28842e-05
0.00404454
-0.000987193
-1.9528e-05
8.7918e-05
-6.83918e-05
0.000515669
-0.00887436
0.0122324
0.000964523
0.000453223
-0.00141775
-2.47914e-06
2.67289e-06
-1.92819e-07
-0.00335702
-0.000176624
-0.0002303
0.000406922
-2.21449e-05
2.0559e-05
1.58549e-06
-0.0138413
0.0264611
-0.0126197
-6.45112e-05
-0.000625831
0.000690344
-0.000317082
8.33267e-05
0.000233755
0.00367126
0.00467409
0.0122936
-0.0157901
-8.01434e-05
-0.000368666
0.000448799
6.06769e-05
-8.02056e-05
4.28237e-05
4.40386e-06
-4.72289e-05
4.45756e-05
0.00126589
0.0357616
-0.0156669
-0.0200948
-0.000362748
0.026975
0.00526973
0.00628229
-0.011552
0.0080086
-4.0116e-05
4.01137e-05
-0.00165219
0.00288368
-0.00123149
0.000328772
-0.000456863
0.00228615
0.00200167
-0.00428779
0.0251729
-0.00779513
-0.0173778
-4.80987e-05
4.43048e-06
4.36683e-05
0.00304073
-0.00287302
-0.000658966
-0.00036797
0.00102693
-0.000559699
-0.00068097
0.00124066
-0.000108845
-0.00190918
0.00201802
-0.00403963
0.0103219
0.00270119
-0.00710926
0.0347279
-0.0221759
-0.000643811
-4.63804e-05
0.000380821
-0.0132964
-0.00103881
-0.000356766
0.00139557
-0.00087808
-0.00025091
0.00112909
4.6179e-06
3.82055e-05
-2.91178e-05
1.27762e-05
0.000911049
-0.000286831
7.53353e-05
0.000112128
0.000620289
-0.000104684
-0.000467564
0.000280653
-0.00717837
0.00353898
-3.14531e-06
-5.49788e-06
0.000653722
0.000257324
-0.00876112
0.0079246
0.000836525
0.00170795
-0.00083806
-0.000694153
-0.00085236
0.00154651
-0.000620755
0.000206087
0.00527881
0.0114405
-0.000545738
0.000329943
0.000215809
-0.0004555
0.000278875
-0.049301
0.0271647
0.0221365
-0.000437077
0.000687505
-0.000250451
0.000136472
-0.00131223
0.000273409
0.000356352
0.000622943
-0.00095508
0.000614302
0.000340764
-9.72225e-06
-1.63619e-05
-0.0339182
0.0309723
0.000748606
-0.00240079
0.00794969
-0.00322952
-0.00472017
-0.0186575
0.00955403
0.0091035
0.00037343
-0.000437941
0.0486966
-0.0106686
-0.000629283
-0.00302716
0.0163239
-0.00170228
-0.0146214
8.33095e-06
-5.64261e-05
0.026458
0.00930353
-0.000122013
7.23815e-05
4.96254e-05
-0.0112705
0.0372117
-2.56828e-06
1.73917e-05
-0.00791314
0.00510846
-1.91561e-05
-0.000858883
-0.000299294
-2.44296e-05
0.000323724
-0.0566526
0.0292843
2.84166e-06
1.48721e-05
-1.77142e-05
-4.24873e-05
0.000246906
0.00576031
0.000482911
0.0143248
0.0235891
-0.000319811
-0.00264
0.00295981
-0.00452091
-0.00265706
0.00804299
-0.0198697
0.0118267
-3.44944e-05
4.28278e-05
1.49289e-05
-3.69562e-05
2.20273e-05
-0.00151396
-0.000823153
-0.000365509
-0.000180229
4.52859e-05
-3.03599e-05
0.000569251
0.000260538
-0.000829782
-0.0010388
-0.0124651
0.00094496
-0.000291238
0.000351236
-0.000431371
-0.000454654
0.000414453
4.0206e-05
-0.00332843
-0.000790178
0.000311809
-0.000309626
-0.0057314
0.018024
-0.000201116
0.000179427
0.0220243
-0.0265701
-0.0227308
0.00457905
0.0169299
-1.77201e-05
-0.000110399
0.000128118
-0.0113351
-0.00732237
-9.06853e-05
-0.00368083
0.00377144
-0.00063257
0.000446676
0.000185893
7.35044e-06
3.13873e-05
-3.87377e-05
0.000823047
0.000884887
8.23592e-06
2.90892e-05
0.000549454
0.00111896
-0.000144739
0.00019654
0.000110418
6.07456e-05
-0.000171199
0.00139299
0.000689751
-0.00208271
6.93242e-05
7.52575e-05
-0.000144609
0.000766243
0.000178714
0.00232542
-0.000562103
-0.00176332
0.000187806
-0.000112466
-0.0521104
0.0637908
0.00035463
0.000704696
2.95392e-05
-1.63897e-05
-0.000534609
0.00191044
-0.00137579
0.00125357
0.00259508
0.00511798
-0.000557495
-0.00456049
0.0152377
-0.0071947
0.00371548
-0.00398618
0.000270699
-0.00047346
-8.80359e-05
0.00153414
-6.89801e-05
-0.00146518
0.000113692
-0.000398684
0.000284994
-0.000559443
-0.0193102
0.00271496
-0.000784074
-0.00178281
-0.00612997
0.0196257
-0.0308963
-0.000305826
-0.00258905
1.47909e-05
-1.27353e-05
-2.05456e-06
-0.0261762
0.00546298
0.000564503
-0.000569387
0.000169071
-0.000186284
1.72113e-05
-0.000276106
-4.09752e-05
-0.000481504
2.68555e-05
-5.36057e-05
-8.44105e-05
0.000138033
-2.50107e-05
0.000789571
0.000120631
0.00162807
-0.00174876
7.35293e-05
-7.26145e-06
-6.6269e-05
0.00148006
0.0012349
-0.000238658
-8.20969e-05
0.000320755
0.0218573
-0.00082973
-0.000570708
0.00140045
0.0100981
-0.00298991
-0.00710816
-1.2131e-05
0.000155567
-0.000143441
-0.0389879
0.0100603
0.0289276
-3.73398e-05
4.17425e-05
-0.0270528
0.0123971
0.0146558
-3.35589e-05
-6.55931e-06
-0.00742139
-0.0196314
-0.000598634
-3.39361e-05
0.000373688
-0.00604975
0.00567617
0.000282631
0.000131826
0.00039796
-0.00290366
0.0491865
0.000416072
-0.0496026
0.000133963
2.11399e-05
8.04886e-06
-8.09952e-05
5.37813e-05
2.72123e-05
0.000482447
0.00147744
0.00884711
0.0403394
5.90697e-05
-4.46272e-05
0.000131576
-0.00043087
0.000397876
-0.00011524
4.79559e-06
-0.0336897
0.0200565
-0.0050896
-0.00161948
0.00670901
0.000257683
0.00486051
-0.00215215
-2.03057e-05
0.00217253
-1.79041e-05
0.000186973
-0.023634
0.0737247
0.0261204
-0.000624364
-0.000330711
0.000917166
-0.00135559
0.000438418
0.00886741
-0.0131299
0.00426271
0.00013617
-6.68507e-05
-4.54112e-06
-1.25659e-06
5.79747e-06
-0.000260141
-0.00032363
0.00058379
-0.000605713
0.0107038
0.0183106
-0.0185959
-0.000503417
0.000384151
0.000119269
-0.000251665
-0.00037019
0.000621853
-0.000524887
0.000661741
0.000385592
0.000241783
-0.000627369
0.00109592
-0.000795962
-0.000299947
4.73135e-05
-4.85274e-05
1.21163e-06
0.0114155
-0.0116279
0.000212358
0.000357927
-0.00118764
0.0401039
-0.0098119
-0.030292
0.00400497
0.0211679
-0.00176665
0.00663555
1.59535e-05
-1.31123e-05
0.000399223
-0.00115599
-5.26481e-05
1.53073e-05
-2.13706e-05
2.87213e-05
0.0239488
-0.000623209
0.0246741
-0.00727074
-0.00497054
0.00534431
0.000851032
-0.000465445
-0.000321108
0.00107778
-0.000756727
0.000134854
0.000525588
-0.000660343
1.14587e-05
-9.85045e-05
0.018617
-0.0324583
0.0418215
-0.0345196
-0.00730182
-0.00108878
0.000529083
7.95536e-05
-2.43634e-05
-0.00157437
-3.05797e-05
1.07359e-05
1.98344e-05
-0.0186776
0.0146571
0.00402052
-1.50323e-05
-0.0445804
0.0337318
-0.000234966
-0.000268455
0.00048435
2.96041e-05
-0.00747391
0.00238419
0.0267612
-2.1228e-05
-0.00069758
0.000765885
-6.83057e-05
-0.00134115
0.00102004
-0.0584349
0.0851961
0.00265847
0.00496867
0.013355
-0.0331657
0.0198107
-0.000598044
0.000946913
-0.0106515
-0.0283364
-0.00100894
0.00240194
0.00011369
6.14905e-05
-0.00247193
0.0034793
-0.00100739
0.00100686
-0.00201579
0.00126385
-0.00282623
0.00156237
-7.71859e-06
2.91802e-05
6.05458e-05
-0.000758126
-0.0333619
0.0518357
-0.0184738
0.000164582
-3.7048e-05
-0.000127514
0.0016586
-0.0012594
-1.69032e-05
0.000153804
-0.000136901
1.94586e-05
5.40703e-05
0.00237632
-0.00066431
-0.00171196
0.00203423
0.000342134
-0.00767471
-1.75105e-05
-5.53881e-06
2.30534e-05
8.61091e-05
7.84946e-05
-1.69502e-05
-5.58279e-07
0.00459785
-0.00390534
-0.000692497
-0.00119711
0.00174654
-5.36075e-05
5.8034e-05
-7.66528e-05
-4.53631e-05
-0.00272703
-0.0016406
0.00436756
-1.20423e-05
-3.22696e-07
-0.000651616
0.0131472
-0.00735721
0.00163914
-0.000845894
-0.000793249
-0.00484871
0.00269782
0.00215109
-5.62728e-05
7.88052e-06
-1.27862e-05
-1.77996e-05
-4.79413e-05
7.31028e-05
-2.51632e-05
-0.00319325
0.00166972
0.00152345
-0.00011262
0.000681839
-8.03519e-07
-0.0103568
-0.00683838
0.0171952
-1.32595e-05
-2.39296e-05
3.71933e-05
0.000963813
-0.00118077
0.000216956
4.67499e-05
8.19039e-06
-1.84974e-05
1.07191e-05
7.77937e-06
1.91649e-05
0.000221226
-0.00024039
-0.00126486
5.45977e-05
3.07959e-05
-1.32527e-05
0.000130126
8.95808e-05
-0.000103802
1.42169e-05
-1.38627e-05
-4.63399e-06
-4.15801e-05
-3.94173e-05
0.00277483
-0.00333427
0.000559442
0.00488117
-0.00179546
0.000561989
-0.000139135
-0.000422856
-6.53985e-05
0.000499694
-0.000434298
8.42152e-05
-3.18872e-06
-8.10329e-05
-0.00107643
-0.00717115
0.00824735
0.00247191
-0.00120807
-0.00122559
0.0022092
0.000877946
-0.000822697
-5.52845e-05
-0.000229787
0.000478156
0.000237157
2.72355e-05
-2.68709e-05
-3.65108e-07
0.00319813
0.000517343
0.00256667
0.00203117
0.00149058
-4.02824e-05
1.76919e-05
0.0200864
-0.00478073
-0.0153056
0.00393789
-0.0259446
0.0220067
-0.0065609
0.00364741
0.00291382
-7.60051e-05
2.80639e-05
0.00448878
-0.0032352
0.0169459
0.0134781
0.0101574
-0.000216095
0.000209112
6.98137e-06
-0.000109168
0.000440873
8.13862e-06
6.65276e-06
0.00046889
-0.00445465
0.00398588
-1.78694e-05
-0.000198227
0.00485494
0.00103198
-0.00588689
-0.00150491
0.00251178
-0.0188161
0.000139141
-0.000150644
1.14798e-05
0.0288717
-0.000774236
-0.0280975
-0.00230326
-0.000889997
4.44385e-05
-0.000587967
0.0004525
-0.000435913
0.00177154
-0.00209135
8.1341e-05
1.36083e-05
-9.49498e-05
-0.00012051
6.3888e-06
-0.0323109
0.000219821
0.000579714
-0.000799531
0.0421375
-0.000315933
0.000151172
0.000125644
-0.000276827
3.42099e-05
7.25097e-05
-0.000106725
-4.85415e-05
3.86641e-05
9.87705e-06
0.00017786
0.0161461
-0.00457039
-0.00586513
0.0104358
1.40769e-05
2.22319e-06
0.00113872
-0.00100382
0.000350653
-0.00022051
-0.000130155
0.00152636
-0.00425343
4.36745e-05
1.26111e-05
-5.62877e-05
-8.94822e-06
1.96629e-05
-1.07135e-05
-0.00304195
-0.0017144
0.00475646
-0.00151828
0.00258301
-0.00106472
5.44657e-05
-0.00116936
0.00111493
0.000703055
0.0281686
-0.0128054
-0.0182647
-0.00273437
-0.00211417
-0.000931781
0.00255983
-0.00111529
-0.003597
0.000555119
0.00084324
3.46639e-05
1.23355e-05
5.48909e-06
-1.78248e-05
-0.000218074
-8.0432e-05
0.000176135
-6.57142e-05
0.0122396
-0.00974246
-0.00249723
-5.23602e-05
0.000960687
-0.000908329
0.0206076
-0.0166697
1.23646e-05
1.89881e-06
5.49109e-06
-3.33967e-05
-0.000345599
-7.19725e-05
0.000417574
0.0097173
-0.00119694
0.00221073
-0.0354173
-0.01257
0.0479872
-0.00252569
0.0271525
-0.0246268
-0.000645114
0.0230804
-0.0135263
-0.00174436
0.00559873
-0.00385439
-1.79164e-06
0.00318199
-0.000407164
-1.48254e-05
1.75279e-05
-0.000203576
-0.000135045
0.000338627
-0.000318167
0.000959799
0.00311454
-0.00407442
0.0215754
-0.0107639
7.91102e-05
-9.6831e-05
-0.0119078
-0.00766237
-0.00632879
0.00458444
0.00358627
-0.00228167
-0.00130449
0.00871097
0.00126534
-0.0099763
0.00058732
0.00105181
-0.000313325
0.000289738
2.35883e-05
0.00115346
-0.000236295
-0.000337605
2.4281e-05
-0.00290223
0.00281153
-0.000322738
-0.000132762
-0.0106276
0.0273609
-0.0167333
0.0170368
-0.0649443
0.0479074
-0.00318425
0.00365319
-0.000449938
8.12668e-05
-0.000623436
-0.000729442
0.00135288
-0.0242467
0.0136188
-0.00302765
-0.0157885
0.0574974
-0.0602935
0.00279622
-0.000111661
-7.21458e-07
-1.75679e-06
-1.81476e-05
-0.000182434
0.000209873
-2.7441e-05
-2.11463e-06
-3.53356e-05
3.74493e-05
6.70175e-05
-0.000719332
0.00095575
-0.000278907
-0.000487335
0.000164598
-7.64264e-05
8.78847e-05
4.755e-05
-2.9541e-05
-1.80087e-05
-4.77534e-05
-0.0013465
0.00123765
-7.42735e-06
0.000195097
-0.000187675
0.00535668
-0.0085862
0.0256662
0.00317052
-1.70229e-06
2.97482e-05
-0.0105613
0.0288719
0.000567537
-0.00064812
0.000867944
0.00118977
-0.000804813
-0.000384896
-0.00242495
-0.00130697
0.00373192
0.00015597
0.000194673
0.00176874
-8.36268e-05
-0.000194186
0.000277808
0.000142927
-3.79307e-06
-0.00083433
0.000209951
-0.0021528
0.0108637
0.0329417
0.00787131
-0.00709957
-0.000771727
0.000134035
-6.41575e-05
4.09436e-06
-0.00256893
0.0048551
6.39113e-05
-0.000211868
0.000147955
-0.000316673
-0.000405343
0.000722026
0.000172842
-5.98215e-05
0.000603153
-0.000685798
8.26429e-05
-0.0267533
0.0242274
0.00125126
-0.00237679
-2.19632e-05
-0.000124666
0.000146629
0.00586764
-0.00482802
-0.00103952
0.00304584
-0.00108584
1.97603e-06
-0.00018441
0.0029865
-0.00265761
-0.000328894
0.000673265
0.00482203
-0.00709704
-0.0275862
-1.28211e-05
-9.32388e-06
-4.44472e-06
1.07859e-05
0.00102739
-0.000445822
0.0626867
-0.00518904
-0.00146362
0.00261143
-0.00114787
0.00151122
0.000459701
-6.9421e-05
4.03652e-06
6.53838e-05
0.0129155
-0.0102303
-0.00268526
-0.000224414
0.000243577
0.000664125
0.000299686
-2.34259e-05
-4.14878e-06
2.75712e-05
-0.0022622
0.000743917
-0.000153041
0.000643215
-0.000490154
-0.000371119
-0.000917802
0.000171454
-0.000255084
7.23342e-05
0.000130099
-5.30757e-05
0.000276016
-0.000364389
8.83724e-05
5.40847e-05
-3.79039e-05
-4.44617e-06
-0.000199397
0.000195988
0.000205227
-0.000864192
0.000405052
0.000784688
1.55074e-05
1.34313e-05
-2.89385e-05
0.00650414
-0.00948173
0.00297763
-0.00898603
0.000215942
0.00876988
-0.0965546
0.0840057
0.0143365
-0.00292102
-1.62998e-05
-9.87691e-06
2.61781e-05
-0.000176181
0.000122591
0.00966697
-0.00662246
-0.00673247
-0.0286848
0.0173972
0.00906387
0.010274
0.0155398
-0.0258138
0.0599374
-0.0220955
-2.16838e-06
-6.8435e-06
9.01143e-06
-0.000105843
-0.000172531
0.00027838
-0.000686916
-0.000147401
-0.000605012
0.000619226
-1.42319e-05
2.62388e-05
-1.23952e-05
4.88796e-05
-4.45079e-05
3.56752e-05
8.83239e-06
0.00313554
-0.000251853
-0.0139015
0.00375827
-0.00733831
-0.00926943
0.0166077
-3.11456e-05
8.35209e-05
-2.89262e-05
-1.29381e-05
0.000229262
-0.00021633
1.65272e-05
-4.19179e-06
-0.000138355
0.00012145
-6.87035e-06
-0.000598147
-0.000741714
0.0105336
-0.00979205
-0.00610418
0.00477399
0.00133019
0.000222392
-3.37458e-05
-0.000183822
-0.000166196
0.000144233
-0.0149351
0.0202139
0.00357767
-0.00157599
-0.0594886
-0.00532752
0.0648161
0.0719812
-2.06677e-07
0.000238831
-0.000116125
0.00779174
-0.00043433
0.00488224
0.00298904
5.17979e-05
-1.45129e-05
-3.72878e-05
0.000874824
-0.000308168
0.00162251
-0.00131434
-0.000310813
-0.00140714
0.00171796
0.00115113
0.000101454
-0.00125259
-0.00596498
0.0080654
-0.00210062
2.81272e-06
0.000308999
-2.44359e-05
2.19302e-05
0.00193269
0.00105317
4.19366e-05
9.8604e-06
-0.000362872
-0.000647533
0.00101041
0.0105513
-0.0211126
-0.0289041
-0.0148282
0.0119009
-0.0247129
0.012812
0.00691361
-0.00324234
-1.56556e-06
2.21242e-05
0.000698962
0.000494808
-0.00119376
-2.50231e-05
-0.000282204
-0.0188766
-0.000161164
0.00018056
-1.94026e-05
-4.50314e-05
3.34703e-05
1.15604e-05
-0.0712195
-0.0733877
0.0260157
0.000780166
-0.000423815
-6.51662e-06
4.51887e-06
0.000256682
-0.000343297
6.95538e-06
0.00135302
-0.00271256
0.00135955
0.0382458
-0.0375428
0.0113082
0.00761161
-0.0189198
-0.000416437
9.24349e-05
0.000324002
-0.00628492
-0.00253357
0.0040599
0.00133337
-0.00169011
0.0738508
-0.0125294
0.00708309
-0.0184181
-0.00070722
0.000767881
-6.06607e-05
-0.000119733
5.15719e-05
0.00037345
-0.000482621
0.00321578
-8.02233e-05
9.89422e-05
2.28754e-05
-0.000121815
-0.000476658
-0.00175394
0.0082581
0.0103356
-0.062119
0.0679047
-0.00578573
-0.000319815
-0.000697215
0.00101705
-0.000188736
6.90544e-06
2.2575e-05
-2.94809e-05
-0.00158924
0.00090827
-0.000154945
0.000271424
-0.000116573
0.00148318
-0.000518652
0.00408514
0.000466868
-0.000504687
3.78043e-05
-0.00328426
-0.0153934
0.00010659
-0.00207955
0.00173543
0.000344107
0.0323603
-0.00598215
-0.026378
0.0014957
0.00299309
-0.000534375
-4.05328e-05
0.000574869
-0.000117909
0.00424949
0.0265754
0.000435576
0.000520161
-0.00101812
0.00237114
-0.000608577
-9.86429e-05
-0.000478941
0.00101117
-0.000532284
4.19409e-05
0.00349911
-0.0135001
0.0100008
2.14082e-06
0.000451449
-0.0004536
-3.36391e-05
9.72251e-06
0.000108098
-4.3423e-05
-6.46794e-05
0.00048128
-0.000130052
-3.09712e-06
-0.000184729
0.000187821
2.13191e-05
2.62307e-05
0.0262132
-0.0222351
-0.00397799
0.0138988
-0.0213202
-0.0707242
0.00860522
0.00547423
0.000600905
-0.00607512
3.81622e-05
3.47766e-05
-7.29396e-05
-0.000957807
0.00178085
0.000965715
-5.98657e-05
-0.000905848
0.00117094
-0.00135676
0.00138457
2.89653e-05
-6.30983e-06
-2.2654e-05
2.59305e-05
-0.00959619
0.00284371
0.00675264
0.000148139
-9.04248e-06
-8.80074e-06
1.78433e-05
0.0386619
-0.000657771
-0.00018196
0.000178861
-0.0146746
0.0235926
2.53388e-05
2.10395e-05
-8.5709e-07
-2.01823e-05
-0.00119149
0.00124596
0.00238702
-8.3857e-05
0.000144587
-3.61899e-05
-2.59646e-05
6.21528e-05
-0.00704146
0.00120695
-0.000619633
0.000182158
0.00201346
-3.53336e-05
-9.69835e-06
0.000360045
0.000341404
-0.000701448
-0.00075404
0.000119369
0.000634669
2.86841e-05
-2.87181e-05
3.25816e-08
-3.32726e-06
3.22941e-05
0.0007908
-7.65653e-05
-0.000714239
-0.00558347
0.0194823
0.00773835
0.000327012
-2.36995e-05
1.20443e-06
2.24942e-05
0.00623421
-0.0060563
-0.00207252
0.00205224
0.00517416
-0.0124327
0.00725849
0.000758999
-0.00129597
0.000536964
-0.00098585
0.000362414
-4.0502e-07
8.17458e-05
4.81659e-06
0.000368633
-0.0130061
0.0330925
0.0102583
-0.00139074
0.000834284
-0.000859278
0.00268067
-0.0197158
-0.000339946
0.000342081
-5.70834e-05
0.000290276
-0.000233203
-0.000659933
-0.00141959
0.000149162
3.86459e-05
0.000113672
-0.000528171
-0.000206646
7.24346e-06
0.0175009
-0.0239796
0.00647864
0.0225981
-0.0106972
-0.000181838
0.000972637
0.0231745
9.31956e-06
1.79155e-05
0.000318714
-0.000167552
6.51341e-05
-2.10873e-05
0.000323255
0.000456911
0.00656031
0.00402337
-0.0105837
0.0217403
0.000240859
-0.000297948
-0.00278314
-0.0194638
0.022247
0.000126636
-0.00623082
-1.41411e-05
0.000103717
-0.0260347
0.0301364
-0.00100032
0.0012645
-0.000264178
0.0225484
0.00656185
-0.00218598
-0.0043759
0.000196483
-0.000645345
0.00134431
0.000870056
0.000336893
-0.000502475
-1.4485e-05
-3.80689e-05
2.93423e-06
-0.0148725
-0.00888698
0.0237595
-1.08666e-05
5.45128e-06
-0.00324639
0.00117907
0.0020673
-0.000158555
0.00428428
0.000139883
-0.00442416
0.0155913
-0.021081
0.00548974
-0.00417772
0.000362895
-0.000368113
5.2155e-06
-3.04402e-05
9.06951e-06
-0.0027809
-0.00377998
0.0350524
-0.0175515
0.000235364
3.10357e-05
9.07613e-06
0.0407606
-0.0288643
-0.0118963
-0.00904069
0.00285729
0.00618322
-0.000436837
0.000256347
9.10369e-05
-0.000166393
-1.9893e-05
0.0004238
0.000233354
-0.000657153
2.21667e-05
6.51632e-06
-0.00132879
0.000874627
0.000454132
0.000971236
0.0442165
-0.00345589
-1.50937e-05
-5.86105e-05
7.3701e-05
0.00509271
-0.00684666
1.25825e-05
3.78109e-08
-1.26201e-05
-0.000837793
0.00229874
-0.001461
0.000139841
9.97742e-05
-0.000256753
0.00010177
4.2445e-05
-2.11266e-05
0.00640005
-0.00130732
-0.00310544
0.000447832
-0.0001252
0.000488094
1.26965e-05
-0.000492801
0.000537253
0.000595198
0.00368908
-0.0090589
-0.00429
0.0133489
0.000646642
-0.000222843
-4.63414e-05
0.000160033
0.000458568
-0.0031534
0.00336198
-0.000208589
0.00611015
0.00217991
-0.00829035
0.00106203
-0.0018999
-0.00258823
0.0021406
0.000447628
-3.01108e-05
-0.000462677
0.00298813
-0.00354561
-0.0160599
0.00700104
0.0553461
-0.046499
3.77544e-05
9.5571e-06
0.000296935
-0.000511042
0.00466972
-0.00381838
-0.000851308
-0.00492002
0.0100942
-0.000652151
4.86994e-06
0.000647246
-0.00178736
0.00247481
-0.000687453
0.00162867
-0.00117545
-0.00105895
5.86372e-05
-4.03151e-06
2.64582e-07
3.7667e-06
-6.68879e-06
2.14783e-06
0.0163159
-0.00336131
-0.0129546
-0.00835641
0.0149167
-0.00094994
0.00130789
0.000411483
0.00191393
0.00818869
-0.00195446
0.00038458
-0.000118854
4.21986e-05
0.000853837
-1.9557e-05
0.000320205
-0.000182633
-0.000137574
-1.25987e-05
-5.31403e-06
-5.63507e-06
7.8142e-05
-0.0130685
0.00733638
0.039272
-0.00454406
2.40268e-05
4.11996e-06
-2.81474e-05
0.000148793
0.00139289
-0.00154166
0.00441664
-0.0127731
0.00516501
-0.00490736
0.000738297
-0.000483348
-0.000254946
0.0651243
-0.0717343
-2.36824e-07
2.91019e-06
-1.75306e-05
-0.000353158
-0.000564681
0.000917845
-4.47774e-05
-2.32402e-05
6.80167e-05
-4.26819e-06
3.15121e-05
0.000263624
-0.000295138
-0.00158481
0.00169208
0.000372723
-0.00216009
0.0183114
-0.0070032
0.00395794
0.00380896
-0.00366915
-0.000139792
-0.02287
-0.00510316
0.0279732
4.0779e-06
-2.03775e-05
-0.000275544
-0.000349019
0.000110359
0.00530598
-0.00165846
-0.000101972
-4.53434e-05
0.000147312
-0.000917848
0.000536863
-0.00568556
-0.0237922
0.0294774
0.00987786
-0.0327479
0.0189591
0.020811
-0.03977
-0.00854743
0.00060677
0.000546689
0.00164714