/*--------------------------------*- C++ -*----------------------------------*\
| =========                 |                                                 |
| \\      /  F ield         | OpenFOAM: The Open Source CFD Toolbox           |
|  \\    /   O peration     | Version:  v2012                                 |
|   \\  /    A nd           | Website:  www.openfoam.com                      |
|    \\/     M anipulation  |                                                 |
\*---------------------------------------------------------------------------*/
FoamFile
{
    version     2.0;
    format      ascii;
    class       surfaceScalarField;
    location    "350";
    object      phi_0;
}
// * * * * * * * * * * * * * * * * * * * * * * * * * * * * * * * * * * * * * //

dimensions      [0 3 -1 0 0 0 0];
oriented        oriented;


internalField   nonuniform List<scalar> 
19737
(
-0.25891
0.652624
-0.393714
-0.0176601
0.0193812
-0.00172107
-0.000797228
0.0149413
-0.014144
0.594425
-0.0605872
-0.533838
-0.359465
0.299595
0.0598707
-0.684345
0.406401
0.277944
-0.321313
0.269357
0.0519566
-0.405703
0.327971
0.0777324
-0.199727
0.302173
-0.102447
0.032763
-0.0556673
0.0229043
0.36899
0.00357645
-0.372566
0.076673
-0.418535
-0.456541
-0.227804
0.319455
-0.642537
0.323082
0.624138
-0.554381
-0.0697576
-0.0132634
0.015662
-0.00239862
-0.374628
0.648477
-0.273849
-0.0214257
-0.192955
0.277539
-0.0845844
0.0637332
0.138673
-0.202407
0.304759
-0.470638
0.165879
0.0140718
-0.0011591
-0.0129127
0.00100707
0.0190568
-0.0200639
-0.31019
0.369006
-0.0588167
-0.0158796
0.00261615
-0.000726993
0.00552417
-0.00479718
-0.323682
0.281838
0.0418439
0.387972
-0.0189826
-0.0724361
-0.251246
-0.202677
0.320703
-0.118026
0.02325
-0.0103139
-0.0129362
0.195601
0.104573
-0.300174
0.0151159
-0.0136978
-0.00141807
0.272595
-0.294376
0.0217804
-0.124786
0.314587
-0.189801
-0.592045
0.217417
-0.124807
-0.196506
-0.0331843
0.0341914
0.48904
-0.0970852
-0.391955
0.0157554
-0.0152596
-0.00049584
-0.674312
0.314494
0.359818
-0.172582
0.432626
-0.260044
-0.235027
0.0934053
0.141621
0.194019
-0.549321
0.355302
-0.4725
0.164948
0.307552
0.21981
-0.261633
0.0418236
0.628902
-0.00476366
0.594425
-0.113659
-0.473914
0.587573
-0.0153102
0.0143005
0.00100971
-0.579888
0.638972
-0.0590838
0.312863
-0.460056
0.147193
-0.0183216
0.00700782
0.0113137
-0.338396
0.455385
-0.116989
0.0116116
-0.0129696
0.00135793
-0.000309482
0.013063
-0.0127535
0.606226
-0.412207
-0.270858
0.458823
-0.187965
0.148293
0.186916
-0.335209
-0.254747
0.40304
-0.150315
0.302263
-0.151949
-0.00428249
-0.0232535
0.027536
-0.450004
0.179146
-0.0802385
-0.398151
0.478389
-0.426468
0.62565
-0.199182
0.0145758
0.000540075
0.575094
-0.252262
-0.322832
0.257492
-0.0376819
0.124663
0.307597
-0.432261
0.0336116
0.203017
-0.236629
-0.0183485
-0.000996091
0.0193446
0.365459
0.123581
0.539409
-0.549551
0.0101423
-0.147275
0.342876
-0.203767
0.192892
0.0108743
0.49794
-0.024073
-0.473867
-0.482174
-0.0884809
0.570655
-0.0124929
0.0136314
-0.00113845
0.144639
-0.512422
0.367784
0.610093
-0.0505333
-0.55956
-0.321242
-0.110595
0.431837
0.0831099
-0.560595
0.477485
0.376059
0.121881
0.275042
-0.378504
0.103462
0.25222
-0.238448
-0.0137727
-0.341705
-0.0639981
0.00136438
0.00826991
-0.00963429
-0.0626053
0.059568
0.00303727
0.489371
-0.407149
-0.0822219
0.253472
-0.189739
0.20802
0.189373
-0.397393
-0.622439
0.280614
0.341825
-0.354247
0.28351
0.0707362
0.269686
-0.452515
0.182829
-0.0496118
-0.530277
-0.344926
0.588151
-0.243225
-0.451813
0.279231
0.043334
0.566759
-0.00239481
0.0203326
-0.0179378
-0.245708
0.279319
-0.279011
0.487031
0.695076
-0.517344
-0.177732
0.663577
-0.476045
-0.187531
0.431673
-0.161987
0.0287342
-0.382144
0.35341
0.00527696
0.0179731
-0.0140955
0.0132983
0.5591
-0.434437
-0.0102113
0.0115398
-0.00132846
-0.00203014
0.00130315
-0.205529
0.366716
-0.161186
-0.0397278
-0.175962
0.21569
-0.570344
0.452593
0.117751
-0.365569
0.510208
-0.528329
-0.0420152
-0.246896
0.0539414
-0.114193
-0.147441
0.457772
-0.398904
-0.0588682
-0.0724084
0.180059
-0.497161
0.317102
-0.147398
0.371592
-0.224193
0.321688
-0.474849
0.153161
0.21601
-0.585396
0.369386
0.0529859
0.41803
-0.471016
-0.599124
-0.0399499
0.639073
0.429206
-0.187957
-0.241249
-0.240317
0.256703
-0.0163861
-0.243574
0.00325736
-0.115207
0.654616
-0.0129931
0.0157175
-0.00272438
-0.0178151
0.0154203
0.126461
0.284644
-0.411106
-0.445275
0.365036
0.270642
-0.615569
-0.210532
0.26399
-0.0534577
-0.38767
0.440656
-0.304625
0.664785
-0.36016
0.0298874
-0.629011
0.493572
-0.261456
-0.232115
-0.11283
0.000968901
0.0113419
-0.0123108
-0.340869
0.13534
0.161019
0.335573
-0.496591
-0.555329
0.412631
0.142697
0.326807
-0.00103991
-0.325767
0.413108
-0.328058
-0.0850508
-0.308915
-0.311004
0.619918
0.0332217
0.22025
0.122531
-0.443773
0.316435
-0.442846
0.126411
0.0107325
-0.00936816
-0.417625
-0.180624
0.598248
0.0311387
-0.0662242
0.0350854
-0.297152
0.146837
0.159363
-0.114519
-0.0448437
0.558019
-0.208223
-0.349796
-0.587437
0.510562
0.0768754
0.604751
-0.526816
-0.077935
-0.48539
-0.188922
-0.0882864
0.292427
-0.204141
-0.0098259
0.0425889
-0.137141
-0.360494
0.521513
0.0347588
-0.0390413
0.229123
0.328896
-0.460417
0.328999
0.131417
-0.000676637
0.0147485
0.148794
0.455956
-0.012629
0.00241768
0.240395
-0.256037
0.0156422
-0.237438
-0.103431
0.506069
-0.34566
-0.160409
-0.548845
0.13122
0.0156336
-0.0171956
0.00156204
0.0133823
-0.00177066
0.00568455
-0.00814109
0.00245654
-0.0110168
0.00985774
-0.0156715
0.00036134
0.450418
-0.133983
-0.41964
0.594097
-0.174457
0.520984
-0.44779
0.0181009
-0.000593602
-0.0175073
-0.204298
-0.367723
0.57202
-0.0105561
-0.0451112
0.0967997
0.00826853
-0.105068
0.654042
-0.459898
-0.194144
-0.0132125
0.0129031
-0.0224453
0.0121315
0.0790149
-0.281691
-0.372517
0.0340767
0.33844
-0.0931923
-0.279324
-0.00903404
0.147707
0.439262
-0.112455
0.398648
-0.321975
0.418196
-0.299446
-0.11875
-0.00171047
0.00739502
-0.348216
0.110778
0.26208
-0.570994
0.123873
0.0124662
-0.136339
0.17073
0.261896
-0.00352966
-0.0124365
0.0159661
-0.0158185
-0.00250311
0.326675
-0.0827079
-0.243967
0.0798809
-0.290413
-0.014415
0.00142188
-0.277954
0.169055
0.108898
0.014869
-0.0153426
0.000473543
-0.237111
0.0333441
0.28481
-0.250733
0.0120933
0.00128898
0.00688712
0.277923
-0.108787
-0.230394
0.339181
0.179963
-0.285201
0.105238
0.012089
-0.0111201
-0.0138701
-2.47963e-05
0.0138949
0.260174
0.228011
-0.488185
-0.620812
0.0333749
-0.0630344
0.000429078
0.193494
-0.281781
0.180144
0.0127488
0.270487
0.117486
-0.657502
0.352575
0.304928
0.537189
-0.308067
-0.149558
0.531939
-0.382382
0.446509
-0.124822
0.0115261
-0.0150884
0.00356224
0.0443702
-0.345756
0.301385
0.398001
-0.369266
-0.0134183
0.000925416
-0.143183
-0.134771
0.0163181
-0.0167296
0.00041148
0.209546
-0.455314
0.245768
-0.000730232
0.0086459
-0.292218
-0.317122
0.60934
0.297729
-0.12387
-0.173859
-0.0177577
0.00323256
0.0145251
0.548008
-0.296743
0.0500402
0.109322
0.452221
-0.242675
-0.0803304
0.355373
0.2841
-0.576319
-0.147757
0.511228
-0.00416543
-0.507063
0.0656439
0.00501919
0.0899722
-0.0949913
0.183427
-0.292213
0.0686004
0.159643
-0.228243
0.442206
-0.591763
0.102491
-0.00569149
-0.013188
-0.000682105
0.0146445
-0.0133787
-0.00126585
0.802461
-0.330998
-0.471464
0.00435367
-0.0276072
-0.00280874
-0.100511
0.103319
0.451812
-0.191638
-0.0291553
0.060294
-0.443355
-0.214147
0.0408499
0.118669
-0.159519
-0.000355322
0.203745
0.116958
-0.179964
0.248564
0.084957
0.212772
-0.0303128
0.401487
-0.371175
0.228824
0.308365
-0.305402
0.431863
0.022902
0.375746
0.149692
-0.547843
-0.0874034
0.35789
0.000460899
0.0144001
-0.014861
0.123084
0.145388
-0.268472
0.113937
-0.261335
0.504587
-0.185132
0.285349
0.55736
-0.398029
-0.159331
0.0998337
-0.526302
0.26885
-0.54916
0.28031
0.466551
-0.0510598
-0.415491
-0.117782
-0.241684
-0.106993
0.407187
-0.300194
-0.00631426
0.00460379
-0.0407087
0.534176
-0.493467
0.156061
0.33331
0.47984
-0.0280287
-0.0119245
-0.0105208
-0.0569196
0.178762
-0.121843
0.341606
-0.371919
-0.576031
-0.432231
0.101081
0.331149
-0.00764628
0.0728639
-0.0652176
-0.347066
0.267281
0.0797848
-0.590073
0.420194
0.169879
-0.129746
0.161151
-0.0314049
0.00228241
0.585528
-0.226867
-0.358661
-0.332976
0.107944
0.225032
-0.0154166
0.00865515
0.00676149
0.254113
0.044847
-0.29896
0.305037
-0.41203
-0.0030914
0.0146175
0.000946754
-0.405324
-0.0971953
0.502519
0.000312517
0.00521166
-0.190236
0.226201
-0.035965
0.0295845
-0.219821
-0.227231
0.625869
-0.398637
0.212465
-0.322621
0.110156
0.00267045
0.0129631
-0.33569
0.11793
0.21776
0.213203
0.440839
0.189363
0.268409
-0.00843879
-0.00505775
0.0134965
-0.0635558
0.147125
0.17955
0.190088
-0.314874
1.28312e-05
0.0120805
-0.419228
0.62457
-0.205342
0.361042
0.224486
0.41437
-0.455079
0.0383444
0.39266
0.409801
0.441141
-0.358031
0.00515624
0.0105612
0.393223
0.191241
-0.584464
0.00533566
-0.0132898
0.00795412
-0.102736
0.0245267
-0.277993
-0.136899
0.414893
-0.107041
-0.381198
-0.0792186
-0.00766459
0.00701187
0.000652717
0.551704
-0.366172
-0.185532
-0.176048
0.307406
0.171553
-0.478959
0.663546
-0.480178
-0.183368
-0.0767348
0.410088
-0.333353
0.0150768
-0.0170874
0.00201064
0.572597
-0.166237
-0.40636
0.36475
-0.320379
0.286839
-0.253617
0.0706529
-0.313959
0.243306
-0.436816
0.158823
-0.356111
0.504997
-0.148886
0.0248705
0.247725
0.321351
0.102245
-0.423596
0.0462652
-0.0539115
-0.351247
0.448247
-0.0970001
0.061861
0.679932
-0.679932
0.29467
0.0982046
-0.392875
0.255842
-0.0758798
-0.00473034
-0.00601672
0.0107471
-0.112178
-0.00206356
0.114242
0.5664
-0.222544
-0.343856
0.408699
-0.522358
0.50404
-0.387516
-0.116524
0.00297182
-0.0157359
0.0127641
0.192469
-0.612433
0.419964
0.350447
0.0978006
0.0761671
-0.0789758
-0.184102
-0.050925
0.064263
-0.025446
0.265841
0.30651
0.00160508
-0.017025
0.01542
0.00922979
-0.00922346
-6.3343e-06
-0.513874
0.157763
-0.126841
0.63807
0.487017
-0.0281935
0.0982373
0.234976
0.0126958
-0.0162254
-0.00953815
0.00109936
0.0325659
-0.21253
0.438842
0.20013
0.405286
0.0817305
-0.103973
0.416739
-0.312765
-0.00282684
0.0375856
-0.0117473
0.0137738
-0.00202653
0.318303
-0.428898
0.054822
0.411729
0.420241
-0.352487
-0.067754
0.474137
-0.16673
-0.477862
0.420477
0.0573853
-0.247843
0.321125
-0.0732821
0.539492
-0.0124756
0.0140807
-0.247241
0.207513
0.122751
-0.396276
0.273524
0.329767
0.245327
-0.043893
0.0333369
0.526281
-0.231611
0.317685
0.165498
-0.483184
0.117325
-0.426214
0.308889
0.0156098
-0.000533028
-0.0637442
-0.335159
0.249117
0.0049956
0.223106
-0.414268
0.191162
0.23602
0.33038
0.409943
-0.0885918
0.137749
-0.441509
0.30376
-0.0568418
0.250336
0.105006
-0.524646
-0.000144351
-0.245563
0.0105716
-0.00134186
0.521109
-0.571834
0.0507248
0.219017
0.0955692
0.0563128
-0.533223
0.47691
0.564999
-0.348989
-0.0211478
0.00333268
0.0658472
0.332153
0.174881
0.401176
-0.576057
-0.211533
0.244099
0.186228
0.150529
-0.336757
0.577737
-0.341717
0.259804
0.256089
-0.515893
0.0797755
-0.0747563
0.332796
0.0874457
-0.238166
0.49797
-0.392137
0.315405
0.0767318
0.303213
-0.0817838
0.521208
-0.115922
0.331514
-0.260861
0.166813
-0.399863
0.233051
-0.157209
-0.371121
-0.00067749
-0.013418
0.088974
0.197865
0.19891
0.219286
-0.356914
-0.3974
-0.0804618
0.094212
-0.151132
-0.436826
-0.127198
0.564024
0.445048
-0.327723
-0.064205
0.0252043
0.0390007
-0.274975
-0.280862
0.555837
-0.413904
-0.165119
0.579023
0.0449768
-0.0478036
-0.45466
-0.16778
0.312884
-0.0456028
0.0023559
0.0133995
-0.00180696
-0.0107628
0.0125698
-0.00588642
0.00590317
-1.67596e-05
0.0159326
-0.013274
-0.00265866
0.385721
0.135488
0.00488515
0.0113684
-0.0162535
0.324112
-0.225875
0.31758
0.188489
-0.00411248
0.0111203
-0.57643
0.372132
-0.090958
-0.00951219
0.10047
0.466396
0.186227
0.00506291
-0.0323015
0.0272386
-0.205076
0.391305
-0.00901973
-0.00353634
0.0125561
-0.0633634
-0.246826
0.234438
-0.324573
0.0901344
0.0395263
-0.272849
0.233323
-0.231828
0.382357
-0.00438278
-0.0288015
-0.26017
0.260025
0.199568
-0.25641
-0.0178768
0.000119174
-0.521231
0.579564
-0.0583334
-0.042562
0.0327361
0.445793
-0.265734
-0.0120584
0.0125387
-0.000480302
0.417012
0.155584
0.396439
-0.229626
-0.165588
-0.325735
0.491323
-0.0142161
0.014677
0.0901507
0.152379
-0.242529
-0.13513
-0.355563
0.490693
-0.0431736
0.0387908
0.287655
0.139685
-0.42734
-0.32502
-0.0121117
0.0135093
-0.00139764
0.495806
-0.206675
-0.289131
-0.42434
0.308921
0.115419
0.402112
-0.483645
0.0815335
0.312484
0.192513
0.0343576
0.413914
-0.448271
0.5458
0.134132
-0.443334
0.477691
0.250635
-0.52561
-0.115148
0.276085
-0.160936
-0.441502
0.0416388
0.18525
-0.659164
0.169384
-0.494799
0.325415
-0.0576243
-0.53443
0.229805
0.639833
-0.203042
-0.436792
0.305038
-0.0925734
0.486551
-0.317168
-0.642837
0.160663
0.647237
-0.126128
-0.418859
-0.0226433
-0.14798
0.200664
0.254721
0.00160684
0.0173437
-0.0189505
0.0395788
-0.0345159
0.00407287
0.132722
-0.136795
2.25654e-05
-0.0120809
0.283494
-0.377398
0.4003
0.374885
-0.252133
0.173835
-0.537
0.363165
-0.330084
0.328766
0.00131863
0.00797454
0.0079581
0.582205
-0.0101107
-0.572094
0.0111221
-0.0114127
0.000290596
0.137396
0.35841
0.288977
0.140229
0.411316
-0.102938
-0.308377
0.630723
-0.26615
-0.364574
0.103759
0.265248
0.271768
-0.0575521
-0.214215
0.287569
-0.101883
-0.185686
-0.644883
0.655291
-0.0104083
-0.53598
0.207706
0.328274
-0.0124654
0.000353774
-0.221038
-0.0396891
0.260727
-0.00566233
-0.106516
0.0115332
0.601786
-0.526719
0.583032
0.145011
0.0161399
-0.183919
0.496404
0.166705
-0.580609
0.276227
-0.513396
0.094192
-0.282149
0.179628
-0.294776
0.280871
-0.00910387
0.040787
-0.0237755
-0.0170116
-0.0135427
0.0129951
0.000547636
0.630351
-0.417148
0.322227
-0.398962
0.508845
-0.227675
-0.28117
-0.00772359
0.0106954
-0.446306
0.357825
-0.14696
-0.549884
0.399642
0.150242
0.183593
-0.455619
0.272026
0.364079
-0.0330369
-0.349107
0.0809456
0.33037
0.0146393
-0.00930362
0.0189924
-0.0173856
0.459364
0.210126
-0.537284
0.125273
0.412011
0.00960748
0.0311796
0.345712
0.113652
-0.017308
-0.00104044
0.301044
0.156137
-0.457181
-0.00166566
-0.00036448
0.595785
-0.193674
-0.0042859
-0.00160052
-0.01236
-0.00305667
0.0373396
-0.00246156
-0.034878
-0.00631758
0.00203168
0.0659884
-0.384257
0.318269
0.0648282
-0.582173
-0.488424
-0.04886
-0.0910227
-0.270424
0.361447
0.484899
-0.329772
-0.155126
-0.0240294
0.16904
-0.000430862
-0.012662
0.0130929
0.308063
-0.443193
-0.000494365
-0.0957769
0.0962713
-0.1155
0.115006
0.0163476
-0.561541
0.198197
0.363345
0.15752
0.327378
-0.383653
-0.177888
0.091114
0.003776
-0.09489
0.0721807
0.240703
0.29243
-0.514974
0.427943
-0.290194
-0.0140349
0.0389289
-0.0248939
0.342654
0.320923
-0.00268736
0.527983
-0.299158
0.240859
-0.41163
0.170771
0.238238
-0.29957
0.0613319
0.504781
-0.355089
-0.511619
-0.0382653
0.265845
-0.496377
0.230531
0.370981
-0.0819992
-0.288982
-0.355502
-0.036635
-0.0226607
-0.024473
-0.383307
0.40778
-0.209321
0.570372
-0.361051
-0.275433
-0.334186
0.609619
-0.0881351
0.620074
0.658664
-0.285383
-0.373281
0.00803093
-0.00817004
0.00013911
0.00176199
-0.411402
-0.178671
-0.000313171
-0.0128994
0.339521
0.0664462
-0.405967
0.389371
0.269292
0.425157
0.214676
0.0659395
-0.380481
0.314541
0.0898091
-0.495133
-0.42219
0.104354
0.317836
-0.0135483
0.283738
-0.27019
-0.603356
0.25775
0.345606
0.048183
-0.0859151
0.0377322
0.389277
-0.323289
-0.0176567
0.014734
0.0175807
-0.00880033
-0.00878039
-0.216511
0.259334
0.0402609
-0.546875
0.573905
-0.0270305
0.00312852
-0.0121483
-0.0175676
0.108682
-0.0881824
0.57007
-0.262473
0.481532
-0.0694239
-0.412108
0.0603147
-0.40062
0.340305
0.337725
-0.345956
0.00823096
0.472265
-0.20642
0.628479
-0.162082
-0.421333
0.467678
0.321308
0.0111109
-0.0114132
0.000302366
0.440408
-0.317877
-0.506596
-0.0146349
-0.33072
0.311863
0.0188571
-0.000223766
0.0113346
-0.489878
0.0768969
0.412981
-0.00327518
-0.00304239
0.276458
0.0180952
-0.0040351
-0.0140601
0.22943
-0.479328
0.249897
0.30876
0.0622208
-0.214663
0.379611
0.00632124
-0.00150688
-0.379397
0.554279
-0.458699
0.114326
0.344373
0.0117474
-0.00309224
-0.113958
0.224145
-0.0235653
-0.200579
0.23663
0.272215
-0.139756
0.339393
-0.199637
0.337912
-0.415055
0.0771432
-0.517944
0.0237387
0.494205
0.396749
-0.173643
-0.198206
-0.0322576
0.230464
-0.563527
0.0874817
0.000622447
-0.0141652
-0.443472
0.0880912
0.355381
-0.0324313
0.0183963
-0.142695
-0.364538
0.507234
-0.591083
0.409021
0.182062
-0.215556
-0.0183285
0.233884
-0.0149899
0.00611127
0.00887868
-0.044579
-0.217804
0.262383
0.479221
-0.24979
0.0231836
-0.0509427
0.269235
-0.0309973
-0.0863587
0.238737
-0.0376575
-0.229447
0.0138912
0.0101425
0.00743818
-0.333173
-0.235984
0.569157
0.000129447
-0.015389
-0.0118753
0.0100684
0.156226
-0.123964
-0.0322626
-0.193281
0.593001
-0.399719
0.387373
-0.327058
-0.584475
0.127934
-0.314645
0.595259
-0.0112377
0.0113973
-0.000159531
0.146005
-0.0221319
0.171133
0.454401
-0.256615
-0.197786
0.0275202
0.045951
-0.0734712
-0.274745
-0.127954
-0.29826
0.500056
-0.335284
-0.164772
-0.606079
0.38495
-0.31901
0.465913
-0.5265
-0.0107278
0.0110982
-0.000370478
0.000302059
0.0394725
0.218592
-0.258064
0.27691
-0.15898
0.0848186
-0.521645
-0.0979074
-0.104499
0.348544
0.151512
0.257467
-0.185109
-0.0723577
0.0520306
-0.226119
0.174088
-0.207445
0.448303
0.590466
-0.41069
-0.179776
0.520924
-0.347089
0.391507
0.19896
-0.0259006
-0.0383044
0.299251
0.174886
0.0248242
0.0323228
-0.057147
0.238935
-0.23923
0.000295667
-0.068376
-0.262344
-0.320357
0.00639804
0.189473
-0.585139
0.395666
-0.0388024
0.0636266
-0.206188
0.482645
0.100729
0.100104
-0.200833
-0.11144
0.346405
0.205299
-0.149678
0.0106274
-0.0128249
0.00219751
-0.0269126
0.538662
-0.51175
-0.222135
0.0461733
0.301549
-0.187613
0.442414
-0.143164
0.274763
0.355589
-0.574305
0.202148
0.372158
0.368416
-0.409815
0.602285
-0.411257
0.304074
0.107184
0.551507
-0.386009
-0.214151
0.210605
-0.18158
-0.460957
0.431523
-0.142546
0.00385409
0.00987532
0.214269
-0.00863227
-0.00499333
0.0136256
0.394101
0.190611
-0.584712
-0.383335
-0.0601367
-0.197944
0.161787
0.276718
-0.438505
0.00857833
0.00951691
0.106946
0.267939
0.17469
-0.12266
0.388075
-0.000409861
0.0346758
-0.0342659
0.236098
0.111346
0.222573
0.0109048
-0.0156352
-0.149307
0.450973
-0.301666
0.0125972
-0.0129647
0.000367523
0.29337
0.26399
0.262093
0.168601
-0.430694
-0.0369326
0.0644527
0.38046
-0.607691
-0.517901
0.021901
0.496
0.0092048
0.256081
-0.265286
0.26577
0.0364034
-0.00166171
0.0122891
0.0137761
0.00304976
-0.0168258
-0.0203837
0.00845924
0.199691
-0.158842
0.364023
0.299523
0.102007
-0.521235
0.293039
0.078553
-0.169651
0.27038
-0.00733523
0.20693
-0.199595
0.427183
0.198685
0.403729
-0.317335
-0.0863937
0.0997214
-0.408485
0.308764
0.00777555
0.000255377
0.347847
-0.62328
0.517064
0.0335265
-0.55059
-0.00440113
-0.0105888
0.0119993
-0.000845317
-0.011154
-0.111307
-0.183069
-0.294475
0.456262
-0.249614
0.00789506
-0.405924
-0.353903
-0.105265
0.459168
-0.112118
0.584728
-0.393487
0.154242
-0.433253
0.367752
0.136288
-0.0211883
0.0125561
-0.174062
-0.403697
0.577759
0.101929
-0.41535
0.313421
-0.112995
0.0526608
0.0603337
0.128571
0.148968
-0.205417
-0.330563
0.323896
0.347459
-0.671356
-0.490591
0.325003
0.179003
-0.0880445
0.255537
0.198863
0.334081
0.0760065
-0.505095
0.315546
0.189549
-0.23529
0.343234
-0.00124436
0.485205
-0.483961
-0.0100625
0.0102743
-0.000211721
0.378558
-0.271612
-0.0165222
0.00932353
0.0071987
-0.592786
0.225063
0.0149985
0.357906
0.16742
-0.525325
0.506594
-0.408389
0.380867
-0.691871
-0.344692
0.524693
-0.180001
0.581892
-0.589939
0.178537
-0.412374
0.292231
0.120143
-0.475062
0.141889
0.0126174
-0.0130482
-0.0095468
-0.00697543
0.0535431
0.0188432
-0.0723863
-0.139832
-0.352134
0.491966
0.403857
-0.013137
-0.00127795
-0.511715
-0.00618561
-0.419004
0.473826
-0.010608
0.00459133
-0.251069
0.501462
-0.250393
0.0690035
0.012283
-0.0970307
0.425001
-0.343448
0.605528
-0.0358354
0.0354255
0.475119
-0.00368962
-0.471429
-0.0808705
0.00585346
-0.000854933
-0.00499853
-0.637052
0.351176
0.285876
0.581119
-0.400329
-0.18079
-0.0686056
0.0206432
0.0479624
-0.0134436
0.0127661
0.468298
-0.144722
0.0148061
-0.0115735
0.439706
0.0354125
-0.329656
0.0796188
0.250038
0.263202
0.168322
0.475514
-0.515464
0.376672
0.253916
-0.630589
0.053982
0.310768
0.0855629
-0.565741
0.241333
-0.327976
0.0866434
-0.278556
0.277516
-0.472393
0.0115233
-0.0124164
0.000893119
0.537806
-0.378399
-0.159406
-0.0184414
0.191531
0.110733
-0.0100907
-0.23715
0.419609
0.512728
-0.000909693
-0.0144329
-0.19627
0.288852
0.0465555
-0.335408
0.204981
0.274239
-0.243783
-0.279144
0.522927
-0.224107
0.54157
-0.317463
-0.0368274
-0.0128482
-0.0195831
0.00104116
-0.0180662
-0.0237555
-0.424035
0.28695
0.158097
0.194796
0.391796
-0.586592
-0.246107
0.688312
0.116039
0.324369
0.0713273
0.435267
-0.000835392
-0.012768
0.0136034
0.000586606
-0.311953
0.413882
0.404758
-0.252839
-0.185087
0.437926
0.00213693
-0.00170891
-0.000428024
-0.0143737
-0.368824
-0.130658
0.499482
-0.0159435
0.000207573
0.405325
-0.152274
-0.253051
-0.00103307
-0.00663152
-0.250965
0.249426
0.118876
-0.368302
-0.270763
0.454356
-0.103597
0.151489
-0.0209473
-0.130542
-0.138267
-0.0719376
0.210204
0.104075
0.524404
0.00144878
-0.0146724
0.0132236
-0.111427
0.0279951
-0.326312
0.321918
-0.0203688
0.364567
-0.075714
-0.396409
0.591205
-0.0164425
0.0154288
0.0010137
-0.164781
0.0631213
-0.0763031
0.0131818
0.200996
0.285709
-0.486705
0.511461
-0.196967
-0.427872
0.358964
0.0689081
0.243753
0.0877608
-0.00105996
0.0125833
-0.0115233
-0.429836
-0.144469
0.190213
0.180677
-0.37089
-0.712737
0.269403
0.247055
-0.499895
-0.108587
0.436189
-0.327603
0.386809
-0.625827
0.239018
0.0486355
-0.00365871
-0.521626
0.366147
0.155479
-0.153873
-0.00559645
-0.000717809
-0.185671
0.58482
-0.399148
-0.160804
0.340262
-0.0913782
-0.248884
-0.102336
0.39292
0.181462
-0.574382
-0.289817
-0.000590785
0.0127591
-0.013819
0.147072
-0.0284025
-0.566907
-0.558924
-0.0193943
0.578318
-0.245335
0.200756
0.143274
0.00275931
-0.0135222
0.356029
0.160888
-0.516917
-0.0204226
0.186923
-0.394368
-0.108301
-0.00351502
0.378361
0.159444
-0.190642
0.589292
-0.39865
-0.276658
0.358151
-0.081493
-0.486194
0.539191
-0.0529967
-0.548322
0.362651
0.526693
-0.33629
-0.190402
-0.396841
-0.315896
0.0709517
-0.0503085
0.556045
-0.0133445
-0.5427
0.22374
0.173009
0.136884
-0.00416211
0.12012
0.242265
-0.362385
-0.165256
0.445496
-0.280239
-0.401617
0.59109
-0.118515
-0.340184
0.430583
-0.314544
0.0761079
0.405424
-0.245205
-0.0848789
0.000497094
-0.0147132
-0.00410077
-0.488428
-0.274523
0.475519
0.281388
0.00130422
-0.282692
0.144314
0.00717511
0.228652
0.09546
-0.357333
0.102586
0.442722
-0.288479
-0.217777
0.486442
-0.268665
-0.100144
0.476816
0.324438
0.202255
-0.203101
-0.0888753
-0.457999
0.158436
-0.298191
-0.517609
0.157115
-0.216889
0.206798
0.380035
-0.524131
0.144095
-0.168669
0.270552
0.0108366
0.0685874
-0.380385
0.311798
-0.518546
0.378714
0.340475
-0.000954313
0.403991
0.144017
0.170638
-0.516566
0.345929
-0.177956
0.403536
-0.386653
-0.0168829
-0.0893943
0.330467
-0.0891339
0.458744
-0.27182
-0.261391
-0.392886
0.599703
-0.0406029
0.211287
0.181936
-0.393224
0.507623
-0.557234
-0.0932447
0.110039
-0.0167944
-0.356988
0.54795
-0.190641
-0.357309
-0.394232
0.152118
0.242114
0.00302459
-0.204471
-0.312282
0.516752
0.577965
-0.41126
0.0473159
0.290409
-0.467312
0.249535
-0.443782
-0.569503
-0.110428
-0.359148
0.238637
0.12051
0.0264447
-0.0568366
0.0303919
-0.200244
0.029869
0.223593
0.0122404
0.00029828
-0.474235
-0.048925
0.52316
-0.457781
-0.0284134
-0.189631
0.0274947
0.162136
0.436418
-0.212394
-0.146753
0.403271
-0.266858
-0.136413
0.0976212
-0.409574
-0.523953
0.00111652
0.522836
0.30596
-0.317154
0.0111942
-0.00646656
-0.00650302
0.132273
0.273052
-0.519257
0.0894213
0.410576
-0.312955
-0.0144087
0.0174585
-0.499712
0.295241
-0.183161
0.219338
-0.434001
0.204613
0.343337
0.641884
-0.330684
-0.311201
-0.550332
0.0760974
0.00206934
-0.0144293
0.203343
0.00998382
0.0767512
-0.086735
-0.000884316
-0.0181885
0.0190729
0.141214
0.164746
-0.0172066
0.000663789
0.0165428
-0.132019
0.351356
-0.0354589
0.00315741
0.330845
0.311039
0.0708458
0.415706
-0.502631
-0.142252
-0.00317337
-0.0127062
0.0468348
-0.36368
0.316845
0.368462
-0.248341
-0.247552
0.359708
-0.112156
-0.277029
-0.0821781
0.359207
-0.000975816
0.00798769
0.490159
-0.319521
0.419337
0.103169
-0.522507
0.412292
0.169914
-0.180118
-0.276797
0.456916
0.556916
-0.176881
-0.00870099
-0.00376445
-0.0105076
0.0153927
-0.152091
0.375832
0.0147523
0.133377
0.294566
0.014053
-0.0135559
0.184838
0.342373
-0.527211
0.362086
0.437598
-0.385552
-0.0295037
-0.183832
0.272806
-0.0552072
-0.128895
-0.615057
0.236613
0.378444
0.0147664
0.000539356
-0.0153057
0.383789
0.173127
0.0107676
0.0288112
0.00613241
0.0358852
-0.0420176
-0.0303734
-0.216523
0.22486
-0.591031
0.0994743
-0.21637
-0.0587877
0.275158
0.348825
0.201018
-0.549843
0.644197
0.315553
-0.490238
0.174684
-0.0102645
-0.000752347
-0.484756
0.207727
-0.498228
0.254445
-0.310949
0.0589317
-0.360094
0.301162
0.471593
-0.663539
0.191946
-0.174188
0.498084
0.000669494
0.423066
-0.135412
-0.264111
-0.081845
0.00633473
0.00501379
-0.0113485
0.000471271
-0.168586
-0.205372
-0.0785412
0.283913
0.603233
-0.13164
0.358953
-0.316024
-0.0429287
-0.0665383
0.169444
0.351479
-0.000906921
0.00850945
-0.00760253
0.159125
0.362169
-0.521294
-0.0995887
-0.288697
0.388286
0.347281
-0.460361
0.11308
-0.356281
-0.212444
0.568724
0.544649
-0.211334
-0.333315
0.0124008
-0.000877551
-0.0332543
0.012568
-0.00111342
-0.0114546
-0.168581
0.0141446
0.00106061
0.00722669
-0.0082873
0.37537
0.209449
0.149594
-0.141578
-0.00801595
0.348728
-0.294746
-0.271743
0.404016
0.0114201
0.347533
-0.0136839
-0.00228109
0.015965
0.403903
-0.0522987
0.00840563
0.0919456
0.248317
-0.375858
-0.18885
0.564707
0.00147951
0.0423727
-0.0438522
0.190527
-0.389738
0.199212
0.498365
-0.182812
-0.0126343
0.0117989
-0.373936
0.424915
-0.0509789
0.325284
-0.253104
0.0370729
0.000266675
0.225562
0.0620072
0.00143121
-0.0147052
-0.484987
0.156592
0.328395
0.46478
-0.591621
-0.396477
-0.000553508
0.00789569
-0.00734218
-0.153294
0.294508
-0.386898
0.0411425
-0.450881
-0.412383
-0.173013
0.598697
-0.211888
0.205354
-0.322651
0.117296
0.264475
-0.364064
-0.411677
-0.162791
0.574468
-0.00634764
0.0045277
-0.378463
0.240983
0.0116102
-0.252593
0.000805798
0.0146142
-0.391275
0.117919
0.273356
0.0169258
-0.0167997
-0.000126176
-0.426819
0.422653
0.27048
-0.352659
-0.0097084
0.00837994
-0.125038
-0.328188
0.453226
-0.407889
-0.154678
0.562567
0.00477357
-0.00568049
-0.0034191
-0.00742893
0.010848
0.131534
-0.11081
-0.0207233
-0.281304
-0.203453
0.149263
0.453971
-0.11087
-0.230835
-0.0249626
0.0514072
-0.188427
0.181092
-0.0366178
-0.00614506
0.247128
0.0116076
0.000960433
-0.0189877
0.0169805
0.00200724
-0.595538
0.411109
0.184429
0.00952521
0.256245
0.013678
-0.25094
0.237262
0.0909283
-0.534284
0.10782
-0.0412113
0.422151
-0.38094
0.135603
0.417508
-0.0137796
0.400842
0.296055
0.107215
-0.292005
0.482532
-0.514761
0.146387
0.368374
0.211791
0.332858
-0.112108
-0.217693
0.329801
-0.0230426
-0.166589
0.310613
-0.4192
-0.603097
-0.0898736
0.0529411
-0.204473
-0.333141
0.537614
-0.485201
0.255391
0.22981
-0.606499
0.457237
0.149262
-0.478936
0.455181
-0.434063
0.116728
-0.0562897
0.0662736
-0.134169
0.5468
0.000854289
-0.0180609
-0.523096
0.0047876
-0.00534111
-0.0131893
0.0152586
0.208561
-0.436156
0.147482
0.303491
-0.106673
0.389065
-0.282392
0.401973
0.191027
0.117346
-0.269621
-0.321549
0.00912817
0.00539493
-0.0145231
-0.43107
-0.0813522
-0.378482
0.511163
-0.132681
0.377072
-0.308484
0.108959
0.0472671
0.117847
-0.220294
0.0113734
-0.0117287
-0.0122194
-0.321772
0.618593
-0.596834
0.190205
0.406629
0.315627
0.0717453
-0.452207
0.125236
0.32697
-0.321478
0.00432333
0.0491111
-0.0515727
-0.315191
0.242791
0.0724003
-0.504969
0.286652
-0.48317
0.196518
-0.522804
0.0374139
-0.209555
0.00258111
0.206974
-0.106998
0.0137533
-0.309783
0.104411
-0.30545
0.102721
-0.407287
0.304566
0.161748
-0.573425
-0.512821
0.148282
-0.138152
-0.289395
0.427546
-0.000519656
0.00530725
-0.470891
0.135607
0.385571
0.213126
-0.0557681
0.0259004
0.384417
-0.410317
0.0010357
-0.397803
-0.0362599
-0.374981
-0.173341
0.436083
-0.151438
-0.0864341
0.471504
-0.38507
0.330237
-0.312257
0.229911
0.0823465
0.206957
0.0488858
0.0160821
0.0327229
-0.048805
-0.326652
0.523206
-0.196554
-0.00103362
0.00580718
0.215746
-0.00878941
0.148604
-0.61889
0.470286
-0.116123
-0.035954
0.044216
-0.00826196
-0.313259
0.00219091
-0.0158748
0.328563
-0.47721
0.148647
0.0023133
-0.0191974
0.0168841
0.0731599
-0.0777466
0.00458665
0.0155722
0.282517
-0.420669
-0.376993
0.402893
-0.327252
-0.143386
-0.00949126
0.0102174
5.68248e-05
0.0635504
0.102736
-0.174674
-0.00241901
0.0013854
0.049108
0.29962
-0.0645015
-0.206807
0.271308
-0.000566241
0.0141134
-0.0135472
-0.144371
-0.37976
-0.349034
0.389905
-0.271545
-0.11836
-0.0170361
0.00595711
0.0396778
-0.045635
0.0106789
-0.00961828
-0.401466
-0.0123448
-0.00074895
0.0130938
0.283907
-0.39058
0.000257016
-0.0165716
0.272653
-0.000356366
-0.428659
-0.168175
-0.00614182
0.241924
-0.235782
-0.0317691
0.0332486
0.211069
-0.156418
-0.0546515
0.0575628
-0.0537868
-0.0865376
-0.238035
-0.457894
-0.258759
0.374223
-0.115464
0.0130962
0.0193768
0.019552
0.112796
0.297886
-0.410682
-0.0574598
-0.169061
0.470105
0.233443
0.189623
-0.281263
0.472742
-0.191479
-0.553412
0.569713
-0.0163008
-0.269104
0.0852719
0.236812
-0.0182204
0.270123
0.108435
-0.0489915
0.143203
-0.00244021
0.00158528
0.505679
-0.336235
0.0401485
0.160821
-0.505514
-0.172344
0.581365
0.0453694
0.015299
-0.0606684
-0.00225962
0.00173996
-0.330885
0.118491
0.0118875
0.213847
0.34199
0.472091
-0.499003
-0.0903885
-0.316761
-0.612669
0.241211
0.371458
-0.0068245
-0.0135592
0.246377
0.232725
-0.479103
0.0145128
-0.0139735
-0.0142646
0.149128
0.357558
-0.506686
-0.320343
-0.31671
-0.0128901
0.0111517
0.00173842
-0.0137682
0.000631232
-0.0129111
0.32527
-0.0280125
-0.297257
-0.394084
-0.218585
-0.154777
-0.00397782
0.158755
0.311086
-0.216894
0.0420544
0.471683
0.33635
0.138853