/*--------------------------------*- C++ -*----------------------------------*\
| =========                 |                                                 |
| \\      /  F ield         | OpenFOAM: The Open Source CFD Toolbox           |
|  \\    /   O peration     | Version:  v2012                                 |
|   \\  /    A nd           | Website:  www.openfoam.com                      |
|    \\/     M anipulation  |                                                 |
\*---------------------------------------------------------------------------*/
FoamFile
{
    version     2.0;
    format      ascii;
    class       volScalarField;
    location    "50";
    object      k_0;
}
// * * * * * * * * * * * * * * * * * * * * * * * * * * * * * * * * * * * * * //

dimensions      [0 2 -2 0 0 0 0];


internalField   nonuniform List<scalar> 
14315
(
0.00128167
0.000147705
7.08102e-05
8.71213e-05
8.4877e-05
8.49826e-05
6.10942e-05
7.80269e-05
0.0065555
6.31473e-05
6.25665e-05
7.41605e-05
0.000230801
8.77199e-05
6.11087e-05
7.82936e-05
7.84933e-05
0.00766003
6.32961e-05
7.81453e-05
8.94131e-05
7.50106e-05
6.90506e-05
6.22126e-05
0.00193831
8.73961e-05
0.000124852
6.30257e-05
0.000124503
6.04005e-05
9.19823e-05
6.12964e-05
0.0331457
8.24015e-05
8.10487e-05
6.13162e-05
6.14971e-05
8.11751e-05
7.02132e-05
8.5854e-05
0.00588362
8.34118e-05
8.36184e-05
9.83352e-05
9.4859e-05
8.63897e-05
7.08319e-05
6.2795e-05
7.81751e-05
8.3485e-05
6.14906e-05
9.59048e-05
6.05944e-05
6.24109e-05
6.06042e-05
8.22329e-05
0.000105782
6.20781e-05
8.72024e-05
0.00290578
6.21545e-05
8.62745e-05
9.03358e-05
6.03168e-05
7.45291e-05
7.052e-05
7.10052e-05
9.18968e-05
8.08028e-05
6.08465e-05
6.12218e-05
6.04778e-05
6.0537e-05
8.04215e-05
7.7104e-05
7.82135e-05
6.04656e-05
8.62679e-05
6.08632e-05
0.000100701
7.31557e-05
0.0158891
7.79905e-05
6.06159e-05
6.05971e-05
0.0353109
9.4678e-05
6.06677e-05
6.06745e-05
6.12969e-05
9.09761e-05
0.00767339
0.000207815
9.03641e-05
6.95116e-05
7.28766e-05
6.05978e-05
6.13301e-05
7.08728e-05
8.36035e-05
8.67857e-05
0.000103658
7.23832e-05
8.37356e-05
6.08335e-05
7.59143e-05
8.59978e-05
8.82887e-05
8.23476e-05
9.34148e-05
8.55962e-05
9.48952e-05
7.69954e-05
0.000106736
7.49759e-05
9.51282e-05
8.36713e-05
8.1062e-05
0.00604419
0.0186669
6.26905e-05
7.87924e-05
6.29849e-05
8.94241e-05
0.000114511
7.40391e-05
0.0392697
0.0020513
7.27524e-05
8.71378e-05
9.40288e-05
0.00191401
0.00859301
0.00784958
7.80186e-05
7.26577e-05
0.0075394
0.00010598
0.000310332
0.0353718
9.61252e-05
0.000116704
6.03905e-05
0.00185271
0.0123926
8.02859e-05
7.67864e-05
6.20119e-05
9.20524e-05
9.31296e-05
8.65538e-05
6.09758e-05
6.08157e-05
7.28526e-05
6.11377e-05
8.24071e-05
8.53394e-05
6.51033e-05
0.00025492
9.96503e-05
8.73346e-05
8.72726e-05
0.0203796
9.22681e-05
6.77873e-05
0.0419768
7.16673e-05
8.98085e-05
7.25402e-05
8.52485e-05
0.00607347
0.00781261
8.60669e-05
8.54539e-05
0.000436869
0.00338327
7.38925e-05
7.3927e-05
9.23614e-05
0.000100548
0.0370883
8.92965e-05
8.62309e-05
8.32922e-05
8.92315e-05
0.0120606
8.58805e-05
8.59866e-05
7.16093e-05
9.202e-05
7.88e-05
0.0200773
0.000122505
6.10046e-05
6.13348e-05
8.21395e-05
0.00246844
8.79431e-05
8.74755e-05
9.37466e-05
0.0333064
8.86584e-05
7.5278e-05
8.02597e-05
8.70158e-05
7.40704e-05
7.90329e-05
9.86491e-05
6.11992e-05
6.10368e-05
7.15097e-05
8.04022e-05
0.000100516
8.96889e-05
0.0324296
8.74249e-05
0.000114461
8.73731e-05
8.59716e-05
7.70141e-05
0.000137041
8.20835e-05
0.000148101
0.0112174
8.60893e-05
8.75328e-05
8.35672e-05
9.1946e-05
6.31649e-05
8.89175e-05
8.19591e-05
0.00540986
7.06893e-05
6.20667e-05
8.49282e-05
8.61257e-05
9.7251e-05
8.36721e-05
8.00143e-05
0.00741011
0.0537542
9.10107e-05
7.07256e-05
0.00467946
0.000137114
6.30104e-05
0.0539844
6.108e-05
6.28509e-05
6.67692e-05
8.55147e-05
6.13375e-05
0.00800532
6.16455e-05
7.81458e-05
0.00572423
0.0069025
0.000100297
0.0112243
8.01244e-05
7.9502e-05
8.50877e-05
8.75109e-05
0.00770783
8.97238e-05
0.000104862
8.42703e-05
0.0367498
8.92242e-05
9.16391e-05
8.64998e-05
8.96343e-05
6.56992e-05
6.26566e-05
7.93954e-05
6.1023e-05
0.000109851
6.09113e-05
9.02333e-05
8.90906e-05
7.65845e-05
9.22637e-05
7.72424e-05
9.21011e-05
8.49164e-05
0.00748051
0.000892055
8.76797e-05
6.16476e-05
6.15475e-05
0.000102649
8.88961e-05
8.29078e-05
0.000112588
6.04202e-05
8.74576e-05
6.12875e-05
0.0130641
8.56571e-05
0.00425968
8.97606e-05
8.72365e-05
8.76153e-05
8.36046e-05
8.73649e-05
6.08274e-05
8.38946e-05
8.98054e-05
8.9547e-05
9.04683e-05
6.03227e-05
6.03265e-05
8.85201e-05
9.25868e-05
8.30441e-05
0.00688835
0.0194094
7.94554e-05
7.98922e-05
0.00726217
8.94994e-05
8.39717e-05
6.29565e-05
8.55154e-05
6.11797e-05
8.79711e-05
0.000118476
7.42831e-05
0.00382507
6.13496e-05
0.00764762
0.000141481
0.0077081
0.000152873
0.00458119
6.45283e-05
0.00170164
8.88411e-05
0.000568764
8.23535e-05
9.16e-05
0.00394517
0.00779167
7.25981e-05
6.4546e-05
0.00731023
0.0193504
0.00650253
6.14208e-05
8.21338e-05
0.00299129
0.000151476
7.96966e-05
6.15432e-05
9.18751e-05
9.62453e-05
9.08921e-05
0.000525326
0.0054597
6.12541e-05
9.02756e-05
0.019864
6.04936e-05
6.07765e-05
6.04429e-05
8.75881e-05
9.23285e-05
7.9777e-05
8.38217e-05
7.43575e-05
0.000120899
0.0183444
8.89831e-05
0.00760755
8.19639e-05
7.86141e-05
0.000784103
0.0163167
9.22798e-05
6.18337e-05
8.43898e-05
7.74816e-05
0.0001109
7.21388e-05
6.15945e-05
9.2653e-05
0.00112244
8.40244e-05
0.00389874
9.86585e-05
0.000155065
8.56762e-05
6.04125e-05
8.12907e-05
7.79986e-05
7.85568e-05
6.48779e-05
8.59834e-05
7.78015e-05
7.98083e-05
6.0614e-05
7.57161e-05
0.000100527
8.9053e-05
0.00454108
0.000147394
0.00693443
9.46763e-05
9.16205e-05
9.21561e-05
6.07345e-05
7.86186e-05
6.63114e-05
0.0112564
9.1945e-05
8.62903e-05
8.61643e-05
9.31936e-05
8.39213e-05
0.00452961
0.000644396
0.00539619
0.00010153
8.70382e-05
6.08784e-05
8.82308e-05
9.11173e-05
8.05932e-05
0.00275007
0.000136541
0.000146557
7.25712e-05
7.43932e-05
0.00010005
7.36075e-05
6.08494e-05
0.00608936
0.000104887
9.09668e-05
8.55785e-05
0.000106583
6.07854e-05
8.84883e-05
0.000141877
0.00044891
0.000101706
6.07472e-05
6.09168e-05
6.31093e-05
7.5704e-05
7.32124e-05
7.42134e-05
0.0200738
0.00407812
6.1094e-05
0.0312189
6.09899e-05
5.96265e-05
8.66264e-05
8.34019e-05
0.00569258
7.84331e-05
0.000100389
0.00640355
0.00010635
6.10092e-05
0.00774226
0.00368246
7.98009e-05
6.28092e-05
0.000100732
8.58542e-05
8.14943e-05
8.49078e-05
6.93771e-05
8.83662e-05
9.9011e-05
0.00502175
8.54087e-05
6.30446e-05
6.18967e-05
8.06655e-05
0.0200963
8.29531e-05
9.03899e-05
0.00393709
0.000102152
7.69404e-05
0.00016268
8.53479e-05
0.0037769
8.31236e-05
7.44104e-05
8.2832e-05
0.000422891
9.20053e-05
0.000109764
7.80937e-05
8.58035e-05
9.00529e-05
0.0303013
6.09813e-05
0.0538295
6.69682e-05
0.000106654
6.14939e-05
6.08588e-05
6.90336e-05
8.78396e-05
6.03356e-05
0.000100068
8.21911e-05
8.5097e-05
0.0175117
6.93158e-05
9.14215e-05
8.67129e-05
0.000102544
6.4806e-05
0.0037183
6.50906e-05
6.21627e-05
0.00301336
0.00785469
0.0125915
8.00433e-05
9.02338e-05
9.72834e-05
0.00775182
8.71381e-05
8.37441e-05
0.000576174
8.38655e-05
6.14231e-05
7.20402e-05
7.71616e-05
9.07684e-05
6.03763e-05
0.00893229
6.0405e-05
7.22443e-05
0.0080386
0.0190731
6.06166e-05
7.22385e-05
6.05948e-05
6.42362e-05
8.57739e-05
0.00732808
7.21484e-05
6.9771e-05
7.5501e-05
6.79649e-05
7.4177e-05
9.75932e-05
8.0778e-05
7.89504e-05
9.0101e-05
7.6849e-05
7.21222e-05
8.85657e-05
0.00116085
9.0336e-05
0.00148642
0.000186623
8.17174e-05
8.3028e-05
9.03484e-05
0.00432692
7.95698e-05
7.23687e-05
9.43144e-05
7.97321e-05
6.09388e-05
0.000118028
0.000922017
0.00016
8.81965e-05
0.000105973
0.00747569
8.13624e-05
0.000520819
9.37155e-05
6.17657e-05
6.40878e-05
0.00774698
6.13907e-05
0.00082427
7.4062e-05
0.00476812
6.14725e-05
7.30172e-05
9.83224e-05
0.0100917
0.00685589
0.0137078
7.97125e-05
6.14243e-05
0.00624766
8.77123e-05
0.00639946
8.75832e-05
7.9534e-05
6.17577e-05
6.16804e-05
8.05504e-05
7.87736e-05
7.95818e-05
8.71782e-05
6.4116e-05
9.73095e-05
6.43573e-05
9.08449e-05
6.05995e-05
6.14462e-05
8.89966e-05
6.78754e-05
0.0536241
8.31772e-05
8.63969e-05
0.00637184
6.94673e-05
0.000133918
0.0154633
7.35003e-05
6.19668e-05
8.65736e-05
0.00013726
9.22017e-05
6.87635e-05
0.0193506
0.000112746
8.84734e-05
0.0533901
7.21185e-05
8.70256e-05
6.75882e-05
0.000118861
8.02492e-05
6.03307e-05
9.68646e-05
8.50247e-05
8.76904e-05
8.21747e-05
9.9894e-05
0.000105194
0.000724627
8.51671e-05
7.28109e-05
0.000780263
0.00246921
8.10562e-05
0.0095407
7.39894e-05
9.72616e-05
6.08916e-05
0.00338045
7.93173e-05
9.76051e-05
7.94803e-05
0.0376959
7.10608e-05
8.91456e-05
0.033202
8.6451e-05
6.52105e-05
0.0289203
0.000106417
7.08641e-05
8.75566e-05
9.95797e-05
6.23586e-05
0.00307515
8.18534e-05
6.33948e-05
7.15764e-05
9.00596e-05
8.75172e-05
0.0171594
6.03407e-05
7.03646e-05
6.29004e-05
7.11091e-05
8.79481e-05
0.00125226
0.0208152
8.49706e-05
8.15938e-05
7.13227e-05
8.89465e-05
6.08563e-05
0.00770088
8.32338e-05
7.92302e-05
7.78912e-05
6.50248e-05
7.793e-05
0.00208042
0.000100699
0.00048028
6.32328e-05
8.48034e-05
6.14161e-05
8.30349e-05
8.20929e-05
0.000104735
6.08457e-05
8.69825e-05
0.0136927
0.000152219
6.22375e-05
8.78268e-05
6.62623e-05
0.00711172
0.000123179
6.93945e-05
0.0200463
7.28288e-05
6.15902e-05
9.7278e-05
8.37317e-05
8.81315e-05
0.0080273
0.000170815
7.29382e-05
8.22489e-05
7.25903e-05
7.19147e-05
9.66142e-05
0.00723599
6.15935e-05
9.74061e-05
0.000145476
0.00010018
0.000100403
0.00787078
0.00711198
7.77478e-05
8.56739e-05
9.55745e-05
7.93512e-05
8.08977e-05
6.08616e-05
9.43741e-05
0.0327346
6.99244e-05
8.69116e-05
8.72858e-05
0.00322457
6.28111e-05
8.43419e-05
0.000151549
9.03185e-05
7.85612e-05
6.27237e-05
0.00765608
0.00013577
0.000246897
8.15589e-05
6.1303e-05
0.0404726
6.42173e-05
0.0246033
8.76179e-05
9.14252e-05
0.00730866
6.0363e-05
7.9149e-05
0.000102303
0.0158267
8.32285e-05
6.0398e-05
0.00012883
6.1048e-05
7.35734e-05
6.83933e-05
0.00777587
6.02047e-05
8.8799e-05
0.00745825
8.73736e-05
0.000134424
6.14382e-05
8.1199e-05
8.49678e-05
6.02032e-05
0.00235089
0.00661578
8.93927e-05
8.61526e-05
8.81908e-05
0.000157631
7.89565e-05
7.3462e-05
9.0375e-05
7.36193e-05
0.0067069
6.10335e-05
0.000310309
7.74606e-05
6.11662e-05
9.53498e-05
0.000104822
0.00577917
9.17567e-05
6.37335e-05
6.31242e-05
6.36404e-05
0.000123994
8.06962e-05
8.72355e-05
8.97819e-05
0.0151482
0.00555931
7.57803e-05
8.86738e-05
6.26339e-05
8.24064e-05
6.1147e-05
8.88323e-05
9.66595e-05
0.00786676
7.47391e-05
7.96707e-05
8.73845e-05
0.000708979
8.54411e-05
7.40635e-05
9.17671e-05
7.18482e-05
8.62826e-05
8.81007e-05
8.47449e-05
6.27225e-05
0.000137331
0.000143331
8.43371e-05
7.55982e-05
0.0371057
9.30279e-05
6.84123e-05
0.00707585
0.000105218
7.64761e-05
6.06497e-05
8.90015e-05
7.02641e-05
0.0152687
8.80605e-05
6.40125e-05
8.10246e-05
7.39654e-05
9.67232e-05
7.95238e-05
9.06148e-05
6.4318e-05
6.29474e-05
8.02494e-05
0.00740493
6.41576e-05
9.17678e-05
6.33502e-05
7.66217e-05
9.60067e-05
8.4801e-05
9.23804e-05
8.94769e-05
9.62333e-05
0.0409013
0.00019613
9.1215e-05
6.69347e-05
8.25035e-05
0.021959
8.00115e-05
8.09938e-05
6.22684e-05
8.50557e-05
0.00208462
0.00524708
9.11252e-05
0.000112521
6.25983e-05
0.0177685
0.0314373
0.000616782
9.56646e-05
7.73299e-05
0.0215628
0.00067694
7.74306e-05
6.1781e-05
8.73426e-05
8.47446e-05
0.0160056
8.72886e-05
7.66922e-05
6.32741e-05
8.24981e-05
9.07813e-05
0.000171008
0.000112429
7.01595e-05
0.00793205
6.94508e-05
0.0546828
6.25045e-05
0.000107818
7.14613e-05
6.33307e-05
8.41767e-05
8.75355e-05
0.000418484
5.97867e-05
8.70062e-05
8.70664e-05
6.43037e-05
6.13399e-05
0.00119676
6.80615e-05
6.05988e-05
6.13683e-05
8.15424e-05
6.1563e-05
9.00417e-05
8.63031e-05
0.000133773
6.35554e-05
5.98567e-05
6.15682e-05
9.49786e-05
9.17221e-05
7.37702e-05
6.87664e-05
0.000158189
8.15601e-05
0.0386649
7.28739e-05
0.000852145
8.73536e-05
5.98553e-05
8.43653e-05
8.59897e-05
0.000139139
8.68066e-05
0.0151989
0.0298722
0.0518796
8.85868e-05
7.12856e-05
8.69004e-05
0.0312969
0.00904326
6.04002e-05
8.96571e-05
0.0309551
8.97805e-05
6.11189e-05
0.0226659
8.96908e-05
0.000162822
7.50514e-05
0.000429593
6.32542e-05
9.51185e-05
7.27269e-05
6.23264e-05
6.13334e-05
7.3405e-05
8.32031e-05
0.000220738
8.6048e-05
6.06539e-05
6.75432e-05
0.00748101
8.12177e-05
6.1021e-05
6.46185e-05
7.75945e-05
8.3685e-05
6.13759e-05
8.47828e-05
0.00723644
0.000162517
0.00011635
6.14976e-05
6.51323e-05
5.54572e-05
0.00171183
4.2292e-05
8.28783e-05
0.000432715
8.87778e-05
9.12242e-05
0.00540911
8.32823e-05
7.96015e-05
7.78033e-05
6.10323e-05
0.00018343
8.75482e-05
9.12937e-05
8.13855e-05
0.00402504
7.28834e-05
8.28788e-05
0.000595879
6.74805e-05
0.000663227
9.36429e-05
0.000105145
9.41759e-05
6.91339e-05
6.74036e-05
7.63949e-05
8.17561e-05
6.78388e-05
8.10175e-05
8.95139e-05
0.000165828
9.04765e-05
0.00729992
8.98609e-05
6.39922e-05
0.00729434
7.40481e-05
8.39333e-05
6.35752e-05
9.38916e-05
6.4968e-05
6.3409e-05
8.67038e-05
6.0648e-05
0.0132283
0.000438275
8.83983e-05
0.000432004
9.12616e-05
6.16933e-05
6.91881e-05
9.76376e-05
9.04294e-05
8.85969e-05
6.15835e-05
8.39968e-05
9.17722e-05
0.0268055
9.33381e-05
0.000139702
8.27665e-05
8.98053e-05
6.42016e-05
7.40302e-05
8.6418e-05
8.64914e-05
7.52372e-05
0.000233479
7.00519e-05
8.34555e-05
9.11836e-05
0.00022994
0.0010669
8.5808e-05
0.00776701
0.000112265
0.037789
8.71699e-05
0.00010249
8.86936e-05
8.09773e-05
9.90717e-05
0.00686532
0.00741619
7.10927e-05
7.91982e-05
0.000103412
9.20971e-05
9.47715e-05
6.13302e-05
6.92021e-05
8.88452e-05
8.97415e-05
8.17571e-05
8.18082e-05
0.00452675
0.0163442
9.69963e-05
0.00102137
8.13872e-05
8.87098e-05
7.29319e-05
6.29056e-05
8.66168e-05
8.07039e-05
0.0243211
8.4384e-05
0.0121984
9.22653e-05
7.2377e-05
0.0283555
0.000106469
9.19896e-05
8.6602e-05
9.63249e-05
6.17475e-05
8.34878e-05
9.38772e-05
8.62002e-05
6.18808e-05
0.00745844
9.64167e-05
5.58005e-05
6.48006e-05
0.000469804
0.000531699
6.3397e-05
7.18089e-05
0.00973896
0.000837229
6.14124e-05
7.06984e-05
6.22694e-05
0.00739957
7.91029e-05
6.16375e-05
0.00708983
0.028609
8.29438e-05
8.11722e-05
9.06165e-05
8.63757e-05
9.1865e-05
0.00665275
8.89874e-05
8.26164e-05
7.40479e-05
0.000129008
7.99082e-05
0.00777771
0.000166475
6.14069e-05
6.53855e-05
0.000114316
5.86256e-05
6.13967e-05
0.0242826
6.10295e-05
7.61821e-05
0.000107395
0.00753775
6.199e-05
6.33393e-05
6.82638e-05
7.40287e-05
6.08374e-05
0.0277465
0.000102869
8.84377e-05
6.56011e-05
0.00647313
9.53444e-05
6.87465e-05
8.81948e-05
6.2332e-05
8.86593e-05
0.000158104
8.34607e-05
7.81001e-05
6.12905e-05
0.00803604
7.85792e-05
6.17333e-05
7.31201e-05
6.27277e-05
6.11098e-05
6.34495e-05
7.0864e-05
7.02218e-05
7.8202e-05
8.83794e-05
8.03758e-05
0.000307244
8.92152e-05
9.07602e-05
8.76537e-05
8.9709e-05
7.6645e-05
8.23567e-05
8.00987e-05
7.7462e-05
0.0229357
6.05764e-05
8.52381e-05
0.0281797
9.36434e-05
0.000741829
6.16123e-05
0.00755175
8.21628e-05
7.65575e-05
9.19735e-05
0.000150407
6.14407e-05
9.48627e-05
6.22061e-05
8.37036e-05
8.25195e-05
9.2645e-05
0.00319026
0.00242101
9.32762e-05
9.23123e-05
6.1762e-05
7.73055e-05
0.000149828
8.80488e-05
0.000207387
8.45469e-05
0.0474448
8.59356e-05
0.00790194
7.42415e-05
6.25754e-05
8.57335e-05
8.24298e-05
6.70413e-05
7.39877e-05
7.98507e-05
6.29214e-05
6.12329e-05
0.000138466
0.000218504
8.38175e-05
6.38116e-05
8.15012e-05
0.0253068
0.00075547
9.13691e-05
6.57943e-05
0.00599781
7.45078e-05
8.24831e-05
8.46876e-05
7.71444e-05
7.89536e-05
0.000124567
6.89237e-05
7.79109e-05
8.88392e-05
7.16266e-05
0.000131737
6.16391e-05
0.00717449
0.0072601
8.54388e-05
6.1948e-05
6.14665e-05
7.2972e-05
8.33507e-05
7.97869e-05
6.16519e-05
6.05488e-05
7.22117e-05
0.0195866
8.55081e-05
0.00790581
7.57666e-05
6.43628e-05
0.020976
0.000493688
7.72076e-05
6.08715e-05
0.00676658
8.32217e-05
8.9777e-05
0.00683275
0.000304933
6.92155e-05
0.00750739
8.95928e-05
6.78222e-05
8.53228e-05
0.00678675
7.15698e-05
6.87448e-05
9.30014e-05
0.00367193
0.000102599
8.99588e-05
8.03024e-05
6.15789e-05
8.42474e-05
6.29439e-05
7.13949e-05
9.39974e-05
8.34646e-05
7.63975e-05
9.17676e-05
9.10405e-05
0.000326379
0.000123776
8.50899e-05
6.46812e-05
8.95895e-05
0.0275651
0.00012722
0.00634835
7.6009e-05
7.2837e-05
8.26043e-05
8.51365e-05
7.02108e-05
8.68924e-05
0.00731565
0.000102701
0.00010073
7.20905e-05
8.17186e-05
0.000106987
0.0092353
9.07265e-05
8.36316e-05
8.54208e-05
8.32894e-05
0.00680671
7.71464e-05
5.97863e-05
0.00755461
0.00809573
7.73347e-05
7.24599e-05
8.7218e-05
6.15442e-05
6.15671e-05
0.000411277
9.22329e-05
0.0475382
6.07579e-05
7.41743e-05
7.13196e-05
7.73375e-05
6.08443e-05
7.36734e-05
9.38189e-05
0.000136511
8.94222e-05
0.00174734
6.96138e-05
0.00447119
0.000853908
9.7892e-05
0.00126447
0.00207166
7.72396e-05
7.61832e-05
0.000146998
6.08525e-05
9.22269e-05
6.63358e-05
7.92369e-05
8.9911e-05
6.06446e-05
7.44241e-05
6.81599e-05
7.64682e-05
7.88424e-05
0.000136796
8.34368e-05
6.0526e-05
0.00828238
8.81846e-05
7.16152e-05
0.00138879
9.08203e-05
6.07973e-05
0.000138046
0.000939819
6.86743e-05
0.00410957
0.00205705
0.000379435
8.09285e-05
8.51547e-05
9.58664e-05
9.57456e-05
0.000135867
0.000101873
8.32745e-05
0.000138876
9.18748e-05
6.87514e-05
8.92205e-05
9.42075e-05
7.87857e-05
7.61821e-05
6.07353e-05
6.05751e-05
7.89549e-05
7.76252e-05
9.4817e-05
8.77299e-05
6.05149e-05
9.19854e-05
8.01334e-05
6.19258e-05
9.98413e-05
0.000152564
9.62855e-05
7.91387e-05
8.01297e-05
7.76851e-05
6.94469e-05
7.90054e-05
8.51704e-05
6.18967e-05
0.000143208
7.0613e-05
7.22271e-05
8.97239e-05
0.00564024
0.00010317
0.0361023
6.04834e-05
0.000105553
8.27845e-05
8.80078e-05
0.000145645
6.95161e-05
0.00413208
6.81631e-05
9.42385e-05
8.99279e-05
6.85757e-05
8.54829e-05
0.000145887
8.51128e-05
0.0186792
8.90728e-05
9.69696e-05
6.17393e-05
8.2445e-05
0.00780271
0.000149941
0.00522693
8.75542e-05
9.97299e-05
0.000135283
8.58884e-05
7.19827e-05
8.45242e-05
8.64188e-05
7.383e-05
0.0207361
0.000134539
0.0293979
8.93441e-05
8.03477e-05
8.44678e-05
9.77563e-05
8.78962e-05
6.15909e-05
7.10655e-05
0.00110265
7.58877e-05
8.14732e-05
6.20366e-05
8.66997e-05
8.38603e-05
7.59431e-05
0.0460713
0.000122243
0.00672868
8.1616e-05
7.90392e-05
8.84144e-05
8.87978e-05
7.73283e-05
0.000120715
7.98267e-05
0.000117568
8.55606e-05
0.000145047
7.80974e-05
7.7447e-05
6.0747e-05
8.77659e-05
8.26889e-05
6.42609e-05
0.0120518
6.78111e-05
8.30395e-05
6.12512e-05
8.56504e-05
0.0034782
0.000106441
8.64951e-05
8.67127e-05
0.00297945
0.00588229
0.00232155
0.0407385
0.000112869
0.000102278
8.54833e-05
8.79406e-05
8.6132e-05
7.9881e-05
9.92844e-05
7.12558e-05
0.00566671
7.87875e-05
3.74429e-05
8.6177e-05
8.8045e-05
8.29033e-05
6.1314e-05
6.0519e-05
0.0151711
9.5721e-05
9.20311e-05
8.34736e-05
8.78467e-05
4.0466e-05
0.000104206
0.000115088
8.89372e-05
7.27857e-05
6.08128e-05
7.23921e-05
0.000145234
6.2764e-05
0.000109879
8.75649e-05
8.6788e-05
0.0174447
8.32253e-05
0.000133356
0.000105885
8.39707e-05
0.000530461
6.10117e-05
0.000330976
0.000128903
0.0071928
8.59239e-05
6.84633e-05
7.20393e-05
0.00746615
6.0898e-05
0.00288255
9.16969e-05
6.01692e-05
8.6636e-05
9.22964e-05
0.00735421
8.48181e-05
8.85955e-05
8.97371e-05
9.46121e-05
6.52292e-05
8.19114e-05
0.00393297
0.000101647
0.00588346
9.11272e-05
7.79151e-05
5.71846e-05
0.00872529
0.00423236
8.4918e-05
8.42274e-05
0.000185046
0.00612278
6.12162e-05
6.32129e-05
6.61158e-05
8.44201e-05
7.9832e-05
7.64363e-05
9.07101e-05
0.000159631
9.00088e-05
8.98369e-05
0.00010249
0.0416594
6.89404e-05
8.75455e-05
0.0118356
0.00887947
7.03489e-05
6.05488e-05
0.00196643
7.22332e-05
8.23943e-05
8.08249e-05
9.53792e-05
8.28272e-05
0.000318684
8.24147e-05
7.14459e-05
0.000107813
0.0192399
0.00019535
7.76427e-05
6.23518e-05
6.16334e-05
0.000120062
6.14216e-05
0.000183424
6.86122e-05
9.32125e-05
9.34304e-05
0.0081141
0.00702227
8.93586e-05
8.77252e-05
6.10765e-05
0.000207807
6.37748e-05
0.000859827
9.46011e-05
6.21244e-05
7.81298e-05
8.26117e-05
9.09861e-05
9.07779e-05
6.99694e-05
0.000105577
0.00024071
9.86144e-05
7.56904e-05
7.64554e-05
6.54265e-05
8.66513e-05
9.10164e-05
8.57078e-05
6.04467e-05
7.71945e-05
8.27186e-05
6.15128e-05
0.00147325
7.0291e-05
0.00690063
8.68298e-05
0.000126704
8.06552e-05
8.64145e-05
0.0189865
8.15614e-05
7.49927e-05
9.76826e-05
8.49526e-05
0.000547283
0.00695846
0.00230575
7.91085e-05
0.00748108
7.77427e-05
7.91561e-05
0.0129965
0.000684646
0.0269083
7.97006e-05
8.63468e-05
8.66152e-05
7.28582e-05
6.25013e-05
7.90698e-05
8.37231e-05
7.14446e-05
0.0447661
9.23308e-05
0.000119796
0.00010524
9.96267e-05
6.36785e-05
8.90423e-05
9.13148e-05
0.0166446
8.4166e-05
6.15907e-05
6.51112e-05
6.04682e-05
9.01159e-05
6.25499e-05
6.14097e-05
6.35706e-05
0.000150592
6.39673e-05
8.53828e-05
7.63563e-05
6.16784e-05
8.19768e-05
0.000106313
8.24118e-05
8.77267e-05
0.00708792
9.90168e-05
8.41757e-05
8.43194e-05
0.000119594
0.000234998
6.05739e-05
0.000120563
9.10386e-05
0.000151901
6.9881e-05
8.72294e-05
7.28834e-05
8.57877e-05
0.00844917
8.66066e-05
8.90719e-05
9.42348e-05
7.84196e-05
0.00299631
6.95188e-05
0.00769109
9.92096e-05
8.43468e-05
0.000104116
0.0133108
9.45596e-05
8.63108e-05
7.52238e-05
7.80742e-05
8.08262e-05
6.88325e-05
9.54501e-05
6.46834e-05
6.28179e-05
6.96866e-05
6.2228e-05
6.9075e-05
0.00989629
9.14518e-05
8.87929e-05
8.00993e-05
8.52248e-05
9.1096e-05
0.00616699
6.13385e-05
9.0467e-05
0.0227448
8.07992e-05
9.00162e-05
0.0357325
6.98833e-05
8.52004e-05
8.20252e-05
4.44924e-05
9.06231e-05
0.00653486
8.95227e-05
8.34506e-05
8.31317e-05
7.15442e-05
8.80661e-05
9.41835e-05
8.30134e-05
0.00478206
9.17076e-05
8.82799e-05
0.0230865
4.65548e-05
8.87649e-05
6.14952e-05
7.52741e-05
8.9425e-05
0.000267202
6.05028e-05
7.29074e-05
8.8543e-05
6.14633e-05
9.81228e-05
8.19762e-05
0.00683811
0.00154584
0.0206062
0.000113579
8.49825e-05
9.99118e-05
0.00833302
8.53049e-05
9.39784e-05
8.71338e-05
8.8549e-05
0.0266082
8.09231e-05
0.000105117
8.69625e-05
8.81864e-05
6.10318e-05
6.86275e-05
8.58527e-05
0.000113818
7.98965e-05
9.38099e-05
8.30861e-05
0.000491636
8.77697e-05
0.00540913
6.09061e-05
0.00727311
8.31094e-05
6.11404e-05
6.37453e-05
8.85769e-05
0.0412061
0.00773749
8.61256e-05
0.0288827
8.89327e-05
9.7154e-05
0.0317621
8.53712e-05
8.52497e-05
6.08791e-05
7.92332e-05
0.0489251
0.0298025
6.66706e-05
0.0120249
0.00248392
0.0298011
9.15743e-05
8.44694e-05
0.0269371
8.46901e-05
8.03699e-05
8.11499e-05
8.06791e-05
8.89348e-05
9.26573e-05
7.59766e-05
6.66598e-05
6.26631e-05
9.42491e-05
8.59609e-05
0.000151772
8.43572e-05
7.39988e-05
6.14032e-05
9.88384e-05
7.48953e-05
0.00758478
7.93735e-05
6.14948e-05
0.00014588
8.33184e-05
7.90996e-05
8.85141e-05
8.74018e-05
8.53385e-05
0.000120265
8.10259e-05
0.0293896
8.15118e-05
9.58313e-05
0.00025494
0.00562641
8.6755e-05
6.107e-05
8.11299e-05
0.0481549
7.96445e-05
8.35482e-05
0.00340709
6.05893e-05
8.78821e-05
7.47334e-05
0.0225391
8.34532e-05
0.00705833
8.29313e-05
8.83545e-05
7.88988e-05
6.02452e-05
0.0430033
9.29114e-05
0.0103357
0.00111211
0.00705062
0.0158487
8.5611e-05
7.52866e-05
7.29303e-05
0.00503038
8.43872e-05
0.0268464
8.78767e-05
0.00698163
8.39307e-05
7.56152e-05
0.0216729
8.69952e-05
0.0324873
7.89306e-05
8.96487e-05
0.00715407
6.49525e-05
7.47173e-05
7.34869e-05
0.00077714
9.2028e-05
6.24699e-05
7.82241e-05
0.000100722
0.00809633
8.27491e-05
0.000127158
0.0183645
9.26197e-05
7.83522e-05
0.000139688
0.027435
8.93692e-05
9.55282e-05
8.8239e-05
0.000111168
0.000215272
6.47698e-05
8.51571e-05
8.11499e-05
7.0257e-05
8.5823e-05
7.74988e-05
6.97382e-05
8.24756e-05
0.0347401
8.27286e-05
0.00708258
7.03725e-05
0.000711878
8.86103e-05
0.00739262
7.13566e-05
8.16779e-05
8.90678e-05
0.000230913
9.60691e-05
0.0269623
0.000110871
0.000150889
8.26288e-05
9.95714e-05
6.1463e-05
8.00757e-05
0.006824
0.0071298
7.02507e-05
8.02609e-05
6.11097e-05
0.0303973
8.40943e-05
6.1673e-05
7.73491e-05
8.49489e-05
7.18008e-05
8.69589e-05
6.05849e-05
6.16275e-05
9.08779e-05
8.27503e-05
9.36974e-05
9.81779e-05
8.45698e-05
9.02985e-05
8.87157e-05
7.09787e-05
0.00366821
0.0104864
7.43889e-05
6.1066e-05
7.921e-05
6.15242e-05
7.44954e-05
0.0455791
7.37377e-05
0.000294403
0.0183079
6.86156e-05
6.15464e-05
8.59514e-05
6.54637e-05
0.00634505
0.00970518
6.13814e-05
6.19135e-05
8.41439e-05
8.45907e-05
9.4859e-05
6.70342e-05
0.0043124
6.79885e-05
7.70843e-05
0.00784294
3.70069e-05
7.50991e-05
6.14505e-05
9.085e-05
6.20188e-05
0.000719444
0.000105622
7.33607e-05
7.57836e-05
0.010503
0.00186397
0.0303894
7.45214e-05
7.16218e-05
8.87866e-05
0.000104534
6.69735e-05
0.000146728
6.19892e-05
9.0062e-05
7.62442e-05
7.87819e-05
0.00527309
9.01261e-05
0.0111844
9.56141e-05
0.000500731
9.19276e-05
7.75605e-05
0.0554579
9.05753e-05
9.58952e-05
4.58086e-05
7.99464e-05
8.09259e-05
9.40037e-05
0.0111615
6.98002e-05
8.90467e-05
0.000106521
8.86244e-05
7.818e-05
6.43796e-05
8.44449e-05
0.0199394
0.00626182
0.000119685
6.42609e-05
7.98271e-05
0.00781949
7.37653e-05
8.35913e-05
7.11643e-05
0.000126967
9.0635e-05
0.0431842
0.00010972
0.00222922
8.852e-05
8.56926e-05
8.5276e-05
6.99439e-05
8.12319e-05
0.0203307
0.00430395
8.87047e-05
0.000112665
6.64834e-05
6.18037e-05
0.00144216
6.0913e-05
0.0367342
0.00233067
9.59636e-05
0.0196444
8.30404e-05
0.00440633
8.1391e-05
6.09661e-05
0.0312946
7.31364e-05
7.3053e-05
0.0109106
0.00190308
8.70834e-05
7.93472e-05
8.8993e-05
0.00154063
8.74149e-05
0.000741698
9.30079e-05
7.10952e-05
0.000114402
8.54116e-05
8.75264e-05
9.16114e-05
8.84205e-05
8.88695e-05
0.00278852
0.000103625
8.45355e-05
8.54711e-05
0.0125229
8.48354e-05
8.49696e-05
7.25417e-05
0.00591492
0.00775154
0.0278549
8.73493e-05
0.00304903
0.00759297
8.38005e-05
0.00056879
8.6481e-05
0.000106126
7.74849e-05
0.00045818
0.00737894
0.029812
0.0318504
0.0439317
8.64006e-05
6.16664e-05
8.70629e-05
7.14494e-05
0.00790161
6.10691e-05
0.00380398
0.00306607
7.81258e-05
8.13331e-05
8.49875e-05
8.63094e-05
0.0074473
6.71007e-05
7.68144e-05
8.06038e-05
0.0445496
6.15877e-05
5.87534e-05
8.95055e-05
6.19725e-05
8.10057e-05
9.59451e-05
9.90894e-05
6.4056e-05
8.89073e-05
7.96288e-05
0.007445
6.05511e-05
7.23687e-05
7.11004e-05
9.61106e-05
0.0471804
6.28733e-05
6.08608e-05
7.75482e-05
9.44009e-05
0.000168968
8.10271e-05
7.82273e-05
0.000142875
7.13262e-05
6.04181e-05
7.30976e-05
0.000119253
0.0087791
6.18114e-05
0.0449823
0.00331081
0.000133119
0.00376588
0.00583886
0.000128372
0.00662609
8.29809e-05
7.67207e-05
9.20889e-05
7.33777e-05
7.97607e-05
0.00614107
0.0129043
7.26543e-05
9.29282e-05
7.57094e-05
6.21298e-05
8.8818e-05
8.65048e-05
8.64874e-05
9.9194e-05
8.79398e-05
2.97331e-05
0.00733065
8.5378e-05
8.16817e-05
7.3385e-05
0.000724687
8.69416e-05
0.00285529
0.000108591
6.45313e-05
8.57162e-05
9.98094e-05
0.000141471
7.14038e-05
8.25522e-05
8.22395e-05
0.000107274
0.00220565
8.07942e-05
0.018316
0.000108649
8.13481e-05
0.000145682
0.00756991
8.92002e-05
6.49934e-05
8.2557e-05
8.06938e-05
8.23061e-05
7.15284e-05
0.016835
0.00116014
9.40086e-05
8.29014e-05
0.00013578
9.98778e-05
0.0002935
6.5749e-05
0.000102275
0.0285261
8.80185e-05
0.0121176
0.00709021
0.000443483
0.000102096
0.00149518
9.3946e-05
8.0648e-05
0.000107529
0.000672993
8.36204e-05
6.11116e-05
8.88832e-05
6.17519e-05
0.000200851
8.47157e-05
6.90642e-05
0.0512798
8.52463e-05
0.00289418
9.90322e-05
6.95074e-05
0.00424438
0.00634954
0.0072028
8.01037e-05
7.92977e-05
7.94984e-05
0.00686012
0.0024371
0.000165272
7.11376e-05
9.42464e-05
9.68597e-05
0.00257299
8.68212e-05
0.00761566
6.22608e-05
0.00255408
9.53383e-05
0.0441541
9.07646e-05
8.72394e-05
7.99111e-05
8.72844e-05
6.33171e-05
8.63581e-05
8.11689e-05
6.87196e-05
0.000109208
0.000137265
7.95594e-05
9.18404e-05
8.571e-05
0.000119809
0.000391989
8.28359e-05
8.60995e-05
0.00708982
3.37034e-05
0.00155262
8.54736e-05
0.000113903
9.80297e-05
0.00716843
8.07866e-05
0.00220565
0.00690941
0.000100344
7.87472e-05
6.02588e-05
8.63032e-05
0.000174274
6.24253e-05
9.84654e-05
0.000109813
6.26803e-05
0.00583618
7.21078e-05
0.00810277
8.96071e-05
0.000139736
0.00750286
8.99671e-05
8.77252e-05
0.00630159
8.92532e-05
6.12268e-05
9.01614e-05
6.10345e-05
0.000101915
8.51267e-05
0.000103629
7.67276e-05
0.000126207
0.00712882
8.64189e-05
8.28225e-05
7.74275e-05
0.000102397
0.00151945
7.59919e-05
8.35139e-05
7.25151e-05
0.000106314
8.45349e-05
0.00745383
0.00744273
0.000104048
7.7541e-05
9.9273e-05
9.33733e-05
8.01745e-05
0.00645055
0.000101664
6.02272e-05
0.0403612
0.00459344
8.93228e-05
8.43277e-05
0.000101238
8.33113e-05
9.37853e-05
0.0341899
0.000131623
9.00082e-05
8.10639e-05
0.00821269
0.00755058
0.000187049
9.77376e-05
8.3241e-05
0.00739694
0.0232281
7.94409e-05
0.00767786
9.00351e-05
6.98975e-05
8.83578e-05
0.00187907
0.0080364
8.55381e-05
0.0531208
7.69832e-05
0.000197585
0.0221712
8.82875e-05
8.71963e-05
8.79019e-05
8.3367e-05
7.83313e-05
0.00742352
0.00254761
8.63737e-05
9.96572e-05
8.63417e-05
8.72701e-05
8.62247e-05
0.000101745
8.72068e-05
0.00790344
0.000117321
7.71478e-05
8.84326e-05
7.9845e-05
8.03208e-05
6.10827e-05
9.77756e-05
8.8539e-05
0.00663561
0.000108504
8.08024e-05
8.32162e-05
6.09833e-05
0.000104643
0.00011861
6.15889e-05
8.42093e-05
9.80621e-05
8.33666e-05
6.13747e-05
0.000278312
6.0579e-05
7.10197e-05
9.13208e-05
6.88578e-05
8.15051e-05
0.000112196
6.36296e-05
0.000101473
9.46066e-05
0.000540254
0.00628905
0.000105825
9.14588e-05
0.00725577
0.00703924
0.00519945
0.000120915
8.31239e-05
0.00460991
0.000138454
8.40863e-05
7.72927e-05
7.94726e-05
6.57257e-05
9.232e-05
8.62846e-05
9.31419e-05
8.3198e-05
9.54687e-05
7.70625e-05
0.0358652
9.62445e-05
9.48488e-05
0.00731184
9.86904e-05
8.61931e-05
0.000109892
0.00767702
8.80007e-05
0.000106474
7.9403e-05
0.000117177
6.99465e-05
7.81179e-05
6.14117e-05
8.79448e-05
0.000130389
0.000107231
0.000104393
9.67422e-05
8.14181e-05
9.19289e-05
8.73659e-05
0.000105198
0.000106436
9.42301e-05
0.00110612
0.00709788
8.45839e-05
0.000103935
8.55223e-05
9.16179e-05
0.00542667
8.3731e-05
9.71864e-05
0.00831106
0.000104218
9.62977e-05
7.0018e-05
0.000100965
6.03069e-05
9.23837e-05
9.75709e-05
0.0122481
0.00789513
0.00802154
0.00248641
0.0388073
9.36398e-05
6.29617e-05
0.000103735
9.37702e-05
7.31297e-05
0.000124249
0.00181522
6.16164e-05
9.16221e-05
0.00702126
8.18959e-05
8.47377e-05
7.9669e-05
0.0389368
6.79089e-05