/*--------------------------------*- C++ -*----------------------------------*\
| =========                 |                                                 |
| \\      /  F ield         | OpenFOAM: The Open Source CFD Toolbox           |
|  \\    /   O peration     | Version:  v2012                                 |
|   \\  /    A nd           | Website:  www.openfoam.com                      |
|    \\/     M anipulation  |                                                 |
\*---------------------------------------------------------------------------*/
FoamFile
{
    version     2.0;
    format      ascii;
    class       volScalarField;
    location    "50";
    object      ddt0(k);
}
// * * * * * * * * * * * * * * * * * * * * * * * * * * * * * * * * * * * * * //

dimensions      [0 2 -3 0 0 0 0];


internalField   nonuniform List<scalar> 
13726
(
-4.80088e-06
-0.000326047
-1.20234e-08
1.6365e-07
4.0498e-07
-2.48936e-06
8.80681e-08
5.39243e-08
1.23483e-06
-2.08309e-07
1.73546e-06
-8.53136e-07
-8.09906e-07
-0.000432762
1.12418e-07
-1.2164e-06
1.28997e-06
2.21893e-08
-0.000716851
6.56628e-06
0.00236928
-7.13089e-07
3.19299e-08
-9.37219e-09
-6.28208e-07
-1.12556e-06
-5.0586e-08
-1.16947e-06
-6.69927e-07
-0.000331477
0.000930154
-1.23274e-06
-0.000583026
9.59599e-08
1.16722e-05
-0.000349068
-3.16654e-08
-0.000350387
2.79755e-08
1.85348e-08
-1.2019e-05
5.81085e-06
4.39384e-10
9.17629e-08
-6.34464e-06
2.78538e-08
9.22137e-05
-1.27891e-06
-2.62606e-07
-4.81396e-07
-0.00161173
-1.29751e-06
-1.10258e-06
1.81694e-08
-4.47393e-08
5.14705e-07
-2.34301e-07
-5.49296e-07
-7.62972e-08
-3.45071e-10
-0.0029883
5.29986e-08
-0.00029329
-7.07038e-07
-0.000280356
-5.93632e-07
0.00247289
-0.000707241
-1.35478e-06
9.89916e-07
0.000304025
5.15682e-08
9.32355e-08
4.54247e-08
-0.000699528
0.00107444
6.74193e-07
0.0055167
-0.000695722
4.00089e-07
6.06708e-06
-1.50471e-07
4.35684e-07
-3.99654e-07
3.97751e-08
-0.000330746
9.68048e-07
-1.32745e-08
-8.1956e-07
0.00232379
-1.17907e-08
1.94895e-06
2.23868e-08
-3.44173e-08
-7.03948e-05
-0.000584583
3.90181e-08
-9.7019e-07
2.2365e-08
0.00831805
-1.89501e-08
-2.04967e-07
-1.89157e-06
-9.60241e-07
6.09572e-06
1.0882e-06
4.30308e-07
-4.15328e-07
1.80877e-08
1.97313e-08
-1.95718e-07
-7.54423e-07
-0.000445914
0.00688381
0.00407641
3.30673e-08
0.000242595
-0.000370677
-1.67816e-06
-5.43368e-09
-0.000130547
1.22253e-07
-1.32253e-08
-0.000728803
-0.000413082
-0.000417465
1.91274e-08
-2.28451e-07
-7.67222e-07
3.47705e-07
-0.00415356
0.0030671
3.56868e-07
-1.68424e-07
2.72575e-05
-2.71956e-07
-0.000297677
-6.02227e-08
0.000966949
0.0030835
1.6136e-07
0.000178351
1.85422e-07
-1.21963e-06
-3.33616e-06
-4.21944e-08
0.00246642
-4.35684e-08
-9.67533e-09
-0.000712174
1.97682e-08
3.53126e-07
-1.36993e-07
-3.18179e-08
-1.42045e-06
3.38829e-08
-9.10712e-08
3.67041e-06
-6.29904e-05
-5.40627e-07
-3.97426e-07
-8.85845e-07
-0.000308048
-0.000430519
-7.21782e-07
2.68014e-06
0.00448392
1.00354e-07
-3.87864e-11
-7.99337e-07
-8.1321e-06
6.55509e-08
1.80884e-05
-2.73322e-08
0.00352624
5.1956e-06
-7.2195e-07
0.00118562
-0.000236796
-9.23353e-08
-0.000278429
-8.8703e-10
-0.000449076
0.000119969
-1.05131e-06
2.82619e-07
-6.35632e-07
5.07734e-09
3.51398e-08
-6.93697e-08
0.00768999
0.000268245
-0.000356004
-0.000359109
4.95782e-08
-6.63552e-07
1.51051e-08
0.00227013
0.00024919
6.4853e-07
-0.000240976
-2.14482e-07
-0.000345184
8.37054e-08
-4.05415e-07
1.0352e-07
3.22201e-08
-0.000210556
-1.56467e-08
-8.06797e-08
4.35354e-07
-0.000109144
-0.00032409
-6.75825e-07
0.00424357
-0.000684454
-3.86551e-09
2.76835e-08
2.48269e-08
0.000751503
-2.38841e-09
-1.39026e-07
2.49915e-05
-0.000348894
-2.77742e-07
0.00222831
6.25557e-05
0.0028068
0.00218215
7.0132e-09
-0.000275113
-0.000248829
-0.000318258
0.00590711
4.45987e-08
1.36092e-08
0.00018717
-0.000245655
2.73055e-05
0.000503979
-9.33844e-07
4.99647e-09
-5.061e-07
-0.000755509
3.66869e-05
0.00288099
-9.47728e-08
-9.57833e-08
-5.85627e-07
8.60772e-07
-0.000500283
4.07771e-08
0.00181402
-7.41906e-08
8.3367e-08
-2.39891e-06
-1.06745e-08
-0.000112391
-0.000425895
-3.77362e-08
1.57865e-05
0.000171584
-9.56357e-08
-5.75877e-07
-0.00125622
0.000140912
-1.48411e-06
5.13077e-10
-7.57147e-07
-5.6905e-08
1.41317e-05
-1.0527e-07
-0.000645992
8.23594e-08
-0.000308649
-0.00609055
-0.000745774
0.000725199
-1.94075e-08
-1.32883e-06
0.00791431
-3.382e-08
5.43855e-05
-1.58927e-08
-0.000664684
-1.45221e-06
-0.000372054
0.000170139
-5.6101e-08
-5.71779e-07
-0.000393887
-4.49271e-08
-8.28424e-07
-0.000431474
-0.000233808
9.23534e-09
3.79286e-06
1.67937e-07
0.00286383
-4.88311e-07
0.00039592
-0.000312211
-1.26734e-07
3.8271e-08
-8.83489e-07
0.000105524
0.000925944
-0.000276703
0.00017698
-1.1159e-07
0.00235313
-5.88339e-06
0.000810799
-0.000245158
5.11739e-08
-2.79826e-05
-6.0774e-07
-0.000322417
0.000758963
-0.000272668
0.00309202
1.83192e-06
8.30218e-09
-7.88919e-06
-6.26543e-07
-9.47444e-08
3.96884e-08
0.00907651
-4.95369e-09
-0.000246325
-2.53098e-06
-0.000283564
1.28674e-06
-4.00638e-08
-1.20036e-07
-2.74501e-09
1.12445e-06
-4.49453e-08
1.25427e-07
-2.55997e-07
0.000340578
-0.000693067
0.00340704
-0.000390698
0.000177434
4.62137e-07
5.02936e-07
-1.23852e-07
2.8622e-06
4.58772e-08
-0.000346631
-0.000680756
-0.000738707
-8.71806e-07
-3.37888e-08
7.71716e-09
2.88561e-08
0.000737494
-4.19792e-08
-2.95728e-08
2.18457e-08
-7.44933e-08
-0.000162333
5.10081e-08
-1.18414e-07
-0.00030067
-0.000573943
3.30634e-08
1.01077e-07
1.79914e-08
-3.05341e-06
-8.16221e-07
-9.23052e-07
2.40438e-08
0.000214135
5.50196e-08
-5.72319e-07
0.0011682
-1.03198e-08
4.55527e-07
-3.73076e-07
-7.63388e-07
3.5147e-08
-0.000434186
0.0012133
-1.03886e-05
-1.75318e-07
-1.40834e-07
2.66929e-08
-3.91287e-09
3.20401e-09
2.46115e-08
-2.10756e-08
2.18687e-08
-2.38267e-07
-7.66306e-08
0.000307412
-0.000426681
-5.26866e-08
2.88805e-08
-3.00806e-08
7.9807e-08
2.2106e-08
-2.84081e-07
-1.03535e-08
-1.17822e-07
-7.33468e-08
2.31916e-08
3.98962e-06
-0.000473321
-2.36773e-05
5.58837e-09
0.00291047
0.0024277
6.47306e-05
1.64677e-08
-0.000120516
-0.00498489
-0.000385262
-0.00139505
0.00229355
-1.43488e-05
-6.52746e-07
-1.35596e-07
-8.47645e-05
-9.75458e-07
-6.66941e-05
1.12681e-08
1.32648e-08
-2.04049e-07
-0.000106562
-0.000400256
-0.000733026
-0.000432642
-4.30388e-08
-3.69902e-07
5.05927e-08
-1.02944e-06
-1.14829e-07
-5.83865e-08
4.26117e-08
-4.65411e-05
-4.70031e-07
0.00241134
1.16234e-06
5.85659e-08
-0.000307622
-7.11429e-07
-6.33609e-07
3.3706e-06
-8.22809e-07
-0.000263594
0.00218834
-7.20679e-07
-0.00036645
3.58764e-08
0.00112505
-0.000340782
-4.10622e-10
-4.92343e-08
-1.52127e-07
7.35937e-05
-1.17778e-07
0.000375432
-8.55502e-06
-1.16478e-08
0.00145
-0.000308543
-1.06731e-06
-0.000335373
-1.82511e-07
-6.83041e-07
-5.014e-08
6.68748e-08
-0.000782115
-7.78823e-07
2.00043e-05
0.000119296
0.000504909
-7.14549e-08
-3.43501e-07
-7.60763e-07
-8.31139e-07
-0.000245123
-7.57075e-07
-1.06638e-06
-2.34919e-07
-6.7155e-08
-0.00032289
-0.00076973
-1.08346e-08
1.03272e-06
-4.32615e-07
-0.000291776
-0.000438854
4.23233e-08
-4.6511e-08
-0.000138199
-0.000472602
3.81078e-08
-5.37927e-07
-4.184e-07
-4.49879e-07
-1.95315e-07
2.96387e-09
1.71252e-08
-0.00488331
0.000174942
-9.12512e-07
3.1599e-08
-2.36806e-08
-0.00029126
-5.39608e-08
-8.31776e-10
-8.48775e-07
0.0026302
1.06443e-06
8.58518e-09
4.13658e-08
-7.1637e-08
2.78611e-08
-1.79725e-08
-0.000212171
-0.000201739
2.10262e-07
5.74402e-08
-0.000726747
5.45122e-07
-6.77686e-07
0.000270377
-2.07327e-07
-1.68746e-07
0.00455853
-2.66012e-08
0.00115137
4.39723e-08
-7.29755e-07
-0.000260112
-9.12193e-08
1.2435e-09
-9.83473e-05
-4.99084e-07
-2.89641e-07
1.50778e-09
4.22149e-07
-0.000253709
-1.33281e-07
4.77589e-08
-2.77824e-06
-5.62478e-09
-1.11275e-08
-3.17171e-07
1.22409e-07
-0.00210684
-1.90268e-08
4.37968e-07
-6.35537e-07
-0.00108817
0.00250566
0.000658712
0.000984104
9.31207e-08
1.64266e-06
4.54644e-08
0.000220769
-7.88093e-06
-6.72845e-08
4.94839e-08
-0.000122348
-1.68576e-07
0.00182197
-8.47067e-07
-8.43301e-07
0.000505938
7.81612e-08
-0.000282535
5.05129e-07
-9.8982e-08
3.78701e-07
2.95381e-06
-0.000528215
-0.000472134
1.54564e-07
-5.88652e-07
0.00115255
2.155e-08
-0.000733028
-3.40277e-07
-7.44686e-07
0.00494203
1.191e-07
-1.95043e-07
4.91474e-08
-2.68172e-08
-0.000233884
1.41801e-08
0.00198542
-1.20148e-08
1.89768e-06
0.00041976
6.07838e-08
-8.5033e-09
2.79954e-08
8.15643e-09
-3.92398e-07
-0.00107236
-0.000683869
0.00106507
3.49618e-09
0.00128241
0.00351465
-0.000750792
-1.00292e-07
0.0100923
-0.000109756
1.06624e-08
-2.1255e-08
-7.93195e-07
0.000327675
5.25973e-12
2.19914e-08
-7.32549e-07
0.00180421
7.40003e-06
-1.72697e-07
1.35345e-08
-1.17411e-07
5.21198e-08
-7.9091e-07
4.30271e-07
-0.00101596
-9.86604e-07
-0.000644366
3.195e-08
-0.00042412
-9.33845e-08
1.44587e-08
-0.000322089
-0.000290673
-2.63931e-08
0.000699878
3.42851e-09
9.7534e-08
-8.85767e-05
6.51538e-07
8.0119e-06
1.45645e-08
4.83173e-06
-0.000214521
-9.126e-08
1.58011e-06
-1.35103e-07
-0.000539365
-7.80921e-07
0.000796292
2.57346e-07
1.37137e-10
2.45848e-08
0.00646318
-7.54889e-07
-1.00124e-08
1.04475e-07
0.00168521
-0.000687318
5.80831e-06
-7.75823e-07
4.28371e-07
0.00619609
0.00678728
-7.06558e-07
-0.000851805
1.80097e-06
0.000191651
9.83935e-06
1.86764e-06
1.60838e-07
-7.0729e-07
-6.63193e-07
2.8039e-08
0.000854477
5.26777e-08
2.64391e-07
-1.53094e-05
2.0404e-05
1.45982e-08
-6.67221e-07
3.30387e-08
-8.93234e-09
0.00103658
-6.54331e-08
1.79074e-07
4.08518e-08
5.40401e-08
-1.04394e-06
3.18284e-09
-1.83759e-08
1.1665e-07
-0.000129358
-6.85728e-07
-1.23736e-07
-6.87588e-07
1.0089e-08
-9.19701e-07
-7.64665e-08
-4.04361e-07
-2.16873e-08
-7.29638e-08
-0.00102249
-6.90946e-07
-0.000717577
-5.38062e-08
-0.000641504
-0.000367285
5.05966e-08
-9.59607e-09
-5.99018e-08
4.5706e-08
-6.238e-07
-2.50182e-06
-6.43674e-06
-6.37315e-07
-0.000268338
0.000238759
0.00013518
-0.0003518
-4.90063e-07
-0.000349303
-8.86115e-07
-6.65483e-07
-7.95034e-07
-2.06233e-08
-0.000353104
-2.01286e-07
0.00149792
-1.39352e-07
0.000154212
6.31317e-05
-1.49588e-07
5.78433e-06
-7.03301e-08
-2.33553e-08
5.13442e-08
4.77867e-08
-4.19861e-08
-0.000793612
0.00038516
-1.63281e-07
1.14405e-08
-5.80558e-09
-0.000421939
-1.30937e-08
-7.08007e-07
3.02643e-07
-3.95155e-08
-0.000346435
-4.41154e-07
1.48632e-08
1.31944e-07
0.0105027
-0.000231805
-1.96829e-08
-1.05652e-05
-4.27889e-06
1.22169e-08
0.00185223
-0.000406232
-0.000443678
-4.23238e-07
-1.96904e-07
-0.000783103
-7.92467e-09
0.000132706
1.14417e-07
-1.52539e-07
-5.73468e-07
-3.55016e-07
1.13319e-06
-0.000210542
9.96843e-10
-4.7087e-07
-3.52256e-09
-6.4311e-06
1.28597e-08
0.00194646
0.000419469
-9.98015e-07
-6.6512e-07
2.54197e-07
0.00217985
-8.00033e-07
-0.000318092
0.00257482
-0.000172794
0.000578892
-0.000313613
0.000940327
-0.000794215
1.23064e-08
5.12542e-08
0.00238049
-5.7046e-07
-0.000344528
-0.000576153
0.00299465
-5.41006e-07
9.9216e-09
-5.96564e-09
0.000139475
-1.03363e-06
-4.76929e-05
-9.61165e-06
-2.54466e-07
0.00106309
3.65919e-06
-0.00041683
-4.14832e-08
-0.000429299
-1.27373e-08
1.85994e-06
1.13507e-08
3.04381e-06
-5.63601e-08
-4.08254e-06
-4.50948e-08
-2.48899e-07
5.01124e-08
1.00118e-08
-1.11937e-06
0.00186299
-7.55478e-07
7.48886e-09
-0.000553888
1.38957e-08
1.70009e-08
-7.19283e-07
-0.000310422
-5.50847e-07
-3.6085e-06
-1.22942e-07
-6.92042e-07
1.4009e-07
-7.81176e-07
0.00199092
8.08129e-09
-7.33688e-07
-2.22573e-06
0.00578223
7.67865e-08
-2.2404e-06
0.00282465
-0.00021899
-1.78353e-07
-3.9704e-08
-0.000520321
-0.000524241
-2.14926e-05
1.1823e-06
-0.000421999
2.2464e-08
-3.52835e-06
1.59215e-08
-6.58618e-07
4.13864e-08
0.000189487
6.73392e-08
-0.00656171
-7.44228e-07
1.07273e-06
-4.34653e-07
-2.5775e-08
0.000132799
7.80206e-06
3.53993e-08
-1.70831e-08
3.22296e-07
-7.96072e-07
-1.04992e-06
-6.4288e-07
-0.000662313
0.00222012
2.9112e-08
-1.71187e-06
2.48671e-08
-7.10488e-08
-0.000853691
-5.67702e-09
1.7306e-08
-0.000391599
-3.46173e-08
9.02347e-07
1.51536e-08
8.86389e-07
-0.00234396
-1.6021e-08
-5.45503e-08
0.000208695
-0.000189947
1.81608e-08
-8.78986e-05
-0.000262935
0.00291714
5.5795e-06
0.00131732
8.60227e-05
-9.98285e-07
0.000183835
-6.24039e-07
-7.1973e-07
-0.000619615
-5.45815e-07
0.00250527
6.84307e-08
0.000211965
-0.000492431
-3.03589e-08
-0.00105041
-0.000224827
0.00559752
4.50151e-09
8.50817e-08
-7.63173e-07
9.07767e-07
-0.000363896
-8.70615e-07
0.00183967
-9.31592e-08
0.00020193
-2.65429e-07
-8.619e-07
9.95627e-05
1.02904e-07
-0.000427455
-7.99547e-08
1.79146e-07
1.081e-08
0.00140884
-2.58011e-07
-2.22481e-08
0.00193859
-7.248e-09
-0.00180706
2.65701e-08
-0.000218495
-0.00060426
-0.000534784
1.1355e-07
-1.18921e-06
-1.89699e-07
3.24538e-08
-0.000647481
0.000634899
-7.03421e-07
1.16174e-07
-7.52712e-08
-0.000324834
-6.13927e-06
9.0794e-09
0.000243448
1.00725e-07
7.72855e-08
0.00197899
0.00277061
-0.000269336
1.9451e-08
-0.000302062
-1.8827e-07
-0.000639402
-5.96948e-07
0.000648669
-0.00102483
-1.323e-07
0.00167604
-0.00117761
0.00176556
-0.000436456
3.72307e-08
0.000466631
-1.06454e-07
-1.55471e-07
-3.97584e-07
4.8186e-08
-0.000185684
-2.6966e-09
-0.000538468
0.00456656
-0.000319512
-0.000658989
-0.000477552
-0.000735276
0.00237553
0.00195228
-7.01402e-07
-0.00422142
-8.8955e-07
-0.000507076
6.39573e-05
-7.36054e-07
-8.08542e-05
-1.66938e-06
-6.76562e-07
9.91713e-09
-6.44951e-09
-4.13613e-05
0.00461954
3.58909e-08
1.56851e-07
0.000369386
-0.000486287
-8.41784e-08
-1.47387e-07
0.00114838
1.22448e-08
-7.66762e-08
-6.97159e-07
0.000201622
2.13478e-06
3.87279e-08
0.000556815
-1.13453e-08
-0.000258709
-0.000312693
1.18583e-08
0.00255255
1.88402e-08
-9.80537e-05
-0.000532688
-0.00106937
5.59328e-09
-0.000634531
4.17555e-07
-0.000430028
-7.38176e-08
-5.46054e-06
2.50831e-08
-7.16518e-07
0.000411439
2.45251e-08
-1.3743e-09
-0.00129465
-6.89869e-08
-1.20685e-07
-0.000675897
2.58907e-08
1.77934e-07
0.000832173
0.00049704
9.52928e-08
0.000213927
-8.09358e-09
-0.000163922
1.38256e-08
-2.31997e-09
1.92665e-08
-7.38839e-07
3.21971e-08
-0.000256796
0.000139697
-9.33515e-07
-0.000449468
-9.0388e-08
-0.00124786
-7.15037e-07
-9.8756e-07
-2.96786e-07
7.78582e-06
3.4469e-08
1.27441e-08
-0.000107753
2.97725e-08
5.96947e-08
-4.65821e-08
-0.000435537
0.000384432
-1.25659e-07
6.46551e-07
0.00122499
-6.71213e-07
1.99809e-08
9.28338e-05
0.00219146
-2.62335e-07
-0.000737245
-7.5597e-10
0.000186883
-0.00108198
-7.787e-07
9.12816e-08
0.00251532
3.66575e-08
-1.79854e-08
-0.000534449
-1.10213e-08
-2.67913e-08
1.284e-07
-3.49889e-09
-5.65109e-06
2.39177e-05
3.42432e-08
-0.000456936
-0.000133608
-7.26788e-07
-2.08177e-08
0.000792718
-4.38361e-05
-2.23942e-06
-1.47755e-06
-1.14334e-07
-0.000477126
5.87788e-08
3.65887e-06
-0.000748722
-8.0859e-09
-2.55959e-05
4.89828e-08
-3.38164e-07
0.00200177
-9.35855e-06
0.000267408
-2.00532e-07
-1.56087e-08
-7.80209e-07
-0.000592965
0.00136869
6.8394e-08
1.84832e-06
-4.45208e-05
-7.06878e-07
1.01006e-07
-1.51249e-08
-1.00766e-07
-0.000758045
-3.31724e-07
-5.72263e-07
-1.64335e-07
-1.27255e-06
0.00283317
-0.000342508
0.00176204
-5.69523e-08
-7.24264e-07
1.64553e-08
-0.000505536
1.54486e-06
-0.000339101
-2.00317e-08
-1.27331e-06
7.65293e-09
-2.09111e-08
1.7158e-08
6.8669e-05
3.7876e-05
-6.08417e-09
-0.000485497
0.00127741
-6.24665e-07
0.00517993
-0.000489882
-0.000451975
-4.89275e-05
-9.53105e-07
0.00120947
7.49245e-07
-0.000111628
-2.21062e-06
-5.61759e-08
-2.73546e-05
6.11699e-09
2.26015e-08
-8.68862e-05
3.13987e-07
-0.000547718
-0.000497469
2.03506e-07
-0.000665042
8.84201e-05
6.27426e-08
0.00290307
-2.84285e-05
9.93349e-09
1.06092e-07
-0.000378109
-1.7857e-08
-1.29652e-08
-7.70013e-07
1.50568e-08
0.00031668
4.20073e-09
5.27376e-07
2.19716e-05
7.27196e-06
4.46774e-08
-3.89126e-08
0.00198457
-6.80056e-07
-2.82731e-08
1.73707e-08
2.43139e-08
2.70146e-08
0.00484189
-2.06734e-08
4.25234e-09
0.000193534
-1.15774e-08
0.00158162
8.12917e-08
0.000325511
9.36219e-08
0.00200304
-0.00210401
2.87919e-08
-0.00595148
4.24499e-06
-8.25086e-08
4.64331e-08
2.21921e-07
-0.000466849
-5.69077e-07
-0.00135621
8.49593e-08
1.72765e-07
1.83663e-05
-0.000590875
-7.35916e-07
-6.64269e-09
-1.05446e-06
-6.05248e-08
1.45741e-09
-1.01904e-07
-8.81487e-07
0.00142749
0.000153147
8.05132e-08
5.33945e-09
-0.000291007
-0.000399193
-8.27414e-09
-5.89313e-07
-0.000457938
0.000144703
0.000960278
-4.64436e-08
-4.54549e-08
-0.00118967
-3.49075e-08
-0.000859933
0.000168018
2.8364e-07
6.2238e-09
5.1131e-06
8.19646e-07
-7.92659e-08
0.00110461
0.00277913
-0.00037162
-7.62531e-07
-1.72383e-07
-1.49759e-06
1.8734e-07
8.09971e-09
0.000542715
-1.66288e-07
-4.31829e-07
0.00262443
1.25451e-08
-1.02516e-06
-8.0382e-08
8.41139e-05
5.64791e-08
0.000195477
3.14462e-08
1.18117e-09
2.48668e-08
1.3952e-08
-2.75703e-07
0.00240092
0.00200871
-8.76741e-09
-0.000347969
-3.76016e-07
3.72291e-08
-0.00392018
0.00161861
-1.19714e-06
0.00190057
6.16393e-08
-8.97442e-07
5.57379e-10
-0.00114043
-0.000144858
-6.46022e-07
-0.000658314
2.27431e-05
0.00408661
-1.69128e-07
0.00135273
-0.000544811
-1.25418e-07
0.00102764
1.02044e-07
1.44589e-08
-5.04497e-09
-0.000253945
0.00234071
0.00229527
0.00132789
-9.06516e-07
-9.04989e-07
6.88669e-08
-1.34859e-07
-3.76153e-08
-6.83626e-07
-1.8511e-08
8.18138e-08
0.0004176
1.12527e-09
-1.97505e-08
-7.16853e-07
0.00413791
-1.04675e-08
-8.14577e-07
-9.46841e-07
0.00129423
1.81718e-08
1.52682e-07
-1.85834e-08
1.53371e-05
-1.08768e-06
-4.11621e-08
-6.33338e-10
7.72089e-08
1.87344e-06
-0.00326057
-1.31788e-08
-1.79868e-05
0.00251999
9.21915e-08
-2.4864e-08
4.51326e-08
1.07901e-07
-5.81552e-07
-1.37067e-07
-3.1057e-08
-0.000523666
-6.708e-07
7.93851e-08
3.62637e-08
5.14984e-08
-2.3281e-08
-2.43433e-10
4.56178e-08
3.47659e-08
1.53087e-08
-2.96024e-06
-0.00132893
2.64644e-05
0.000127491
-2.8791e-07
-7.12809e-07
1.61411e-07
0.0023942
7.32108e-09
6.19779e-06
0.000125044
-0.000438617
-1.50439e-08
-1.61372e-05
-1.47026e-08
0.00181165
4.55343e-08
-8.76023e-07
1.43268e-08
-2.7143e-08
0.000131896
-4.74433e-07
0.00223528
0.00422244
0.000115352
-5.00137e-09
-6.67521e-07
1.40726e-07
0.00115312
5.14663e-08
-5.35759e-08
0.00319557
1.57448e-08
0.00174478
1.80273e-08
-8.11096e-08
-8.29328e-07
-1.15237e-06
-0.000224349
-7.15798e-07
9.07336e-06
9.62196e-05
7.63611e-06
-5.40971e-09
-2.32206e-08
-0.000305441
0.000429313
0.00046029
-4.43406e-08
-3.37595e-08
-0.000344792
-9.1153e-05
7.31456e-05
-3.18226e-08
1.73811e-08
-2.67704e-07
1.77905e-08
-2.30366e-06
-2.01573e-07
-7.45544e-07
9.84419e-09
-0.000700714
-0.000764975
-0.00147244
2.59146e-07
-0.000173935
-9.81543e-07
-5.33704e-08
2.16732e-05
-8.89265e-09
-1.57276e-07
-1.56345e-07
-5.83906e-08
-8.14142e-07
-0.000128288
0.000247641
0.0010538
-1.0496e-06
0.00249026
-2.20904e-09
-1.55052e-07
1.83441e-05
-6.74383e-07
9.29929e-09
0.00257007
0.0014022
-5.27678e-08
4.94328e-06
6.74567e-08
-0.000446565
4.07158e-08
0.00046761
-1.6307e-09
-8.42719e-08
0.00292887
0.00435851
-0.000488582
-1.46585e-06
-9.27635e-08
1.03013e-06
1.62547e-10
-4.2218e-08
1.0057e-06
0.00222856
-1.26603e-06
7.11535e-08
2.55533e-08
9.19673e-08
9.14131e-07
-1.24543e-07
1.60931e-08
6.05623e-08
-0.000137153
0.000131291
2.66482e-08
-7.43936e-07
7.70204e-08
5.97104e-08
-2.45576e-07
-1.24127e-07
-2.48153e-11
0.00157553
-0.000208082
-1.21322e-06
2.96117e-08
-1.04024e-08
0.000241739
6.50835e-08
-2.5049e-07
-1.82305e-08
-7.05942e-07
1.22798e-08
0.00130692
2.79164e-06
-6.96232e-08
-0.000331801
7.55489e-08
9.61693e-08
1.25103e-08
4.14622e-08
-0.00049634
-7.05142e-07
0.00143192
-0.000332334
9.66539e-08
9.73583e-09
-1.47312e-07
3.99095e-08
5.65944e-08
0.00143646
7.63095e-07
0.000173617
2.38734e-08
-1.22739e-06
-0.000454887
0.00216152
5.43047e-05
-0.00121123
8.29112e-08
-1.81909e-06
0.000203463
-0.000396959
-5.79138e-07
-0.000176055
-0.000231406
3.98577e-07
3.86208e-07
2.46347e-08
-2.66049e-07
-4.7307e-09
-7.80031e-07
-3.147e-06
0.00356159
-1.35444e-08
-4.90108e-07
0.000109441
-8.36729e-06
-0.00587409
0.00488474
0.000495113
4.50088e-08
-4.93036e-08
3.92906e-08
-9.58025e-07
-1.8136e-08
-7.81253e-07
-0.000428987
-2.35097e-07
5.5252e-08
0.00320551
-1.39385e-06
0.000134324
5.16758e-08
-0.000257558
-6.51099e-06
4.94193e-08
5.64287e-08
-0.00013428
-0.000507887
-0.000369863
-0.000567754
-2.60672e-07
-0.00053391
4.48603e-08
0.00176748
-0.00050133
-1.09628e-06
6.67705e-09
-0.000191794
-7.30877e-07
1.73334e-08
-4.38242e-07
-4.02457e-08
-5.81055e-08
0.00122456
7.76451e-08
-6.06543e-07
-1.88021e-07
-4.02628e-08
0.00228514
0.00131157
8.32318e-08
0.000134769
-1.18766e-07
-0.000337656
-6.95151e-06
0.00225196
-1.64077e-07
-0.000730453
-0.000322315
-1.43247e-08
-3.1743e-08
-0.000694455
-4.05699e-08
0.00204997
-1.91e-06
-0.000578993
-1.51206e-07
-8.78707e-08
-5.26739e-07
-0.000549521
0.00298175
0.000231034
-9.6571e-07
2.82979e-07
-9.95595e-08
0.00302254
0.000183605
0.00174933
0.000238738
0.00021641
0.00189064
-0.000493273
-4.00411e-07
2.33659e-06
-0.000763299
-0.000173456
4.37087e-08
-1.38607e-07
-0.000305637
-6.6811e-07
-1.84105e-08
8.00867e-08
-1.57029e-07
-0.000115439
-0.00053927
-5.74023e-07
-1.22892e-07
1.96678e-08
2.83626e-06
-0.000412649
3.14887e-08
-0.000219731
9.2423e-05
-0.00589629
5.60746e-08
-8.53734e-09
5.24474e-08
-0.000221684
8.22235e-05
-0.000461889
-5.77337e-07
1.44453e-08
0.000283116
-3.95633e-08
0.00310749
1.56554e-08
-0.00106356
-0.000472264
-1.00238e-08
4.83386e-07
-0.000439258
7.44726e-08
-2.31388e-09
1.98943e-05
-1.30345e-07
3.17585e-08
0.0023245
1.2821e-06
-0.000359356
-0.00079012
0.000914604
-6.41051e-08
0.000434776
-8.17059e-05
-0.000460766
-0.000250584
-0.000724484
-1.86379e-08
2.89028e-07
-4.84383e-07
-4.60874e-07
0.000213275
-1.57215e-07
0.000120782
3.01793e-09
5.30738e-07
0.000269121
7.6268e-08
4.20669e-08
1.46844e-08
0.00026215
9.51947e-08
0.000158512
-7.70174e-07
0.00159382
-0.000600462
-6.00609e-07
0.000171114
-0.00050684
0.000473092
-1.63333e-09
-6.99027e-07
-6.81056e-09
-0.000610468
-6.98231e-08
1.2405e-06
-1.74422e-08
-0.00100708
-1.44395e-07
-0.000408569
-0.00068172
0.00270607
3.60177e-05
0.000183225
-1.59527e-07
-1.15974e-08
0.000914546
-6.47611e-08
-0.00314445
6.33879e-07
0.00022235
-9.00015e-09
-8.96994e-09
-0.000435806
-1.03969e-08
2.97391e-05
-0.000403724
0.00106232
-7.17144e-10
-0.000811301
-2.30674e-08
-0.000462665
1.59038e-05
-1.19987e-06
-5.25963e-09
2.63927e-08
0.00179893
0.00185457
-0.00040552
-0.000188168
-4.71467e-07
-1.23299e-07
-0.000201104
-8.94393e-07
-0.000306437
-8.19969e-08
0.0011885
-6.52632e-08
-9.68915e-08
7.9886e-08
-0.000268444
0.000151338
4.26521e-08
9.66733e-09
1.18599e-08
0.000229627
-1.8515e-08
1.25582e-08
-1.03191e-07
0.000198236
0.000167922
-2.0334e-08
-3.95896e-07
8.34056e-08
-4.01064e-05
2.70258e-07
0.00666
-2.08934e-07
-2.06333e-07
0.000333075
-0.000755108
-6.48145e-08
-0.000329729
6.14322e-09
-0.000576952
-0.0003869
0.000285035
3.75744e-08
4.767e-06
0.000152845
5.99484e-08
-0.000419631
5.95069e-09
-1.06662e-06
-1.81511e-08
-7.54847e-09
-2.90321e-06
-0.00012704
7.63698e-09
6.27117e-09
0.00240269
3.03206e-08
-9.12399e-08
6.6377e-08
-0.000361649
-5.83986e-07
-2.88858e-08
3.41891e-08
-3.00626e-08
-0.000421497
-9.34051e-08
-0.000615132
-7.60256e-07
-0.00276306
-0.000395179
-3.00511e-08
-8.85044e-07
0.00253178
8.63414e-08
6.01214e-08
5.36358e-06
0.000169875
3.79756e-08
-0.000315275
1.57731e-07
-0.000153509
8.93675e-08
4.55509e-09
-1.95189e-08
0.000130022
-1.297e-06
0.000666634
0.00275988
0.00158119
7.70326e-06
0.00135602
0.000192236
-0.000349888
0.000231371
-0.00037229
2.68019e-07
1.77891e-08
-0.000470026
7.52748e-09
0.000515661
0.000739564
-5.06078e-08
-0.000260764
0.00173431
1.70431e-08
-9.10564e-07
-0.000313775
-0.000391838
-5.7714e-07
0.00186134
1.8193e-08
-8.19841e-07
-0.00163387
-0.000156461
-7.94192e-11
7.42718e-11
1.57383e-08
-0.000445955
1.13892e-08
-0.000227316
1.14036e-06
-3.59536e-08
-1.15478e-06
-6.11349e-08
-0.000427056
-1.57647e-07
1.32826e-06
6.7132e-05
-6.46305e-07
-3.33016e-08
0.00140639
6.85806e-08
-0.000441416
-2.3316e-08
3.1195e-09
-0.00510901
-3.14944e-08
0.000162344
-0.000394071
0.00186694
-1.75878e-09
-0.000941672
-7.83815e-05
3.69319e-08
-4.91139e-07
-0.000111236
3.34632e-06
1.04116e-08
6.14047e-07
-0.000385495
1.83135e-07
9.82279e-05
-0.000344145
0.00289713
-0.000353997
2.68274e-09
1.74076e-08
1.74884e-09
-7.44575e-07
0.00437498
-2.85158e-08
-0.00026474
1.4471e-08
-0.000428076
-6.47638e-08
6.84265e-06
-0.00100647
-3.56598e-08
0.00100317
-2.02797e-07
-2.12506e-07
-0.000334077
0.00297889
-9.49496e-09
6.98263e-08
-0.000276761
-1.87001e-08
1.21941e-06
0.00258285
0.000285379
0.00144161
-0.000340674
-0.000292022
7.30304e-08
-0.000216308
-0.000181541
6.13644e-05
7.89529e-08
0.000763828
3.51231e-08
2.22464e-08
0.000179881
0.00303406
-0.000492018
-8.62979e-07
-1.80545e-08
-9.15334e-08
-6.89472e-07
1.09375e-07
5.78049e-07
-2.96357e-06
-5.85836e-07
2.35217e-07
0.00244743
0.00152674
-0.000345737
-4.3482e-10
0.00638879
-0.000467766
-1.03881e-07
6.39445e-06
-5.29143e-07
3.09474e-08
4.90958e-08
4.98515e-07
-0.000328934
-2.01636e-07
-9.80474e-07
-0.000365677
6.76305e-08
-5.82089e-07
-0.000558983
1.9012e-08
0.000131747
-3.36442e-08
-0.000737948
-0.00015447
-0.000455994
7.20041e-09
4.89968e-09
-5.30517e-07
-1.09675e-07
-1.06242e-06
2.00584e-08
0.00158917
6.21508e-07
0.000106467
5.65164e-05
1.02454e-06
-7.1832e-08
-0.000471023
-0.000360797
-6.53984e-07
1.44608e-07
-2.1363e-08
-2.7676e-07
0.00317978
-6.63962e-08
-0.000427547
7.65143e-08
-4.64203e-07
6.80968e-05
2.45391e-05
-1.30237e-07
2.60716e-07
4.63141e-07
-2.07713e-09
-7.88026e-07
-3.28475e-07
-0.00012782
-1.67513e-08
1.72626e-08
-2.12744e-07
7.48791e-05
6.22461e-08
-0.000279931
0.000361484
1.17196e-07
1.46114e-07
-4.18849e-07
6.87744e-09
-2.04547e-07
-4.20838e-06
1.30378e-08
-0.000523123
0.00297832
-0.000572457
-0.000162667
1.89996e-08
3.3862e-08
-1.70975e-08
0.00285351
-0.000573419
-0.000356735
-7.14272e-07
-3.32311e-05
-0.000711579
0.00270291
-0.000551332
4.78907e-08
1.5715e-07
0.00295945
-4.56298e-05
-1.47965e-07
1.51295e-08
-3.24773e-08
0.000256677
-6.7122e-07
-1.32738e-08
-0.000131699
-1.39978e-07
-4.01539e-08
-0.000512174
2.17194e-07
-1.39252e-07
4.09126e-07
0.0023127
0.00229463
0.00204248
0.000306188
-0.000373364
-0.000522028
-0.000281201
-8.6495e-07
0.00137453
4.30709e-08
0.0019799
0.000101219
-0.000450536
-0.000402072
0.00395646
-2.0118e-07
-0.000657056
-0.000280455
-8.90081e-07
1.1738e-05
9.5254e-05
-0.000304317
-0.00034699
-0.000672818
3.84536e-06
-2.17378e-07
-2.1274e-07
-7.39357e-07
-7.48923e-07
-1.42136e-07
-0.00036787
-2.08734e-08
0.000795103
1.57767e-07
2.71787e-06
-8.00598e-06
1.18777e-06
5.57562e-09
-0.000208045
-0.000310253
-5.91326e-08
-0.000387246
4.83892e-06
-0.000407272
0.000159977
0.000258177
3.35133e-08
1.107e-07
4.83062e-07
-6.48168e-05
-1.47826e-07
-0.000407294
-6.26033e-08
5.07463e-08
4.09963e-06
-7.10498e-05
-1.09985e-08
-3.95979e-07
0.000236972
-1.5282e-07
0.00190115
8.13658e-05
2.36401e-08
-0.00179573
0.00227436
-2.66479e-07
-0.000603797
-0.000550228
0.0026512
0.00328815
-1.88909e-07
-0.000110478
-2.25641e-07
-5.93751e-08
6.62421e-07
-1.30415e-06
6.95139e-06
-0.000514921
1.83692e-07
2.83548e-06
0.0032936
-1.74972e-08
-4.28822e-07
-1.78845e-07
6.07704e-06
8.64924e-08
0.00249982
-6.26108e-08
2.30633e-07
-0.000548486
-0.000472639
-0.00059013
-0.00374394
0.000211295
2.02587e-08
8.04567e-07
0.00179251
0.00159285
-3.37602e-07
-6.12782e-07
-0.000445668
-6.07857e-07
5.11381e-07
4.95907e-07
1.88905e-08
-0.000374695
-2.32442e-08
-0.000351659
3.40726e-06
-0.000354315
6.78361e-07
-3.67758e-08
-1.16248e-07
1.06176e-08
2.81393e-08
0.00260763
3.27104e-09
-9.39821e-05
-0.000379744
4.02115e-08
-3.00202e-08
-0.000369647
1.08253e-06
-1.23057e-07
4.2825e-06
-1.8725e-07
-0.00119817
-5.87309e-07
-0.000401077
-0.000487511
-0.00452414
-0.000583738
0.000699172
0.000169363
-0.000429473
0.00276933
-1.63853e-08
-7.53423e-08
1.01883e-06
0.000715144
2.50727e-07
0.0016596
0.003267
-8.40731e-08
-5.70246e-08
-7.33032e-06
-1.62279e-05
0.000331337
5.31605e-07
0.000215159
-1.48932e-07
2.10758e-08
-3.35896e-08
0.00087284
-2.05378e-07
-0.000457609
7.45927e-08
0.00120701
-0.000368295
-4.36663e-08
5.92119e-10
0.000869765
3.13516e-07
0.00234079
-2.59539e-08
-3.48594e-08
-5.95007e-07
-2.97431e-08
-4.8497e-07
-0.000380089
2.90517e-08
-0.000275753
2.89751e-08
-0.000616299
-9.18643e-07
2.01329e-06
9.50121e-08
1.63854e-07
4.18485e-08
0.00229715
-1.25737e-07
0.000168877
1.76604e-05
2.45619e-05
0.000170266
1.18464e-06
0.00159506
0.00201609
-0.00066091
0.000214757
5.5324e-06
-1.32986e-06
9.58918e-08
3.94835e-06
-3.52229e-07
5.37836e-08
0.000739914
0.000508621
2.89524e-07
-0.000691463
8.05437e-05
-7.40263e-07
-7.83083e-08
0.00245057
-1.32283e-07
0.000126224
-0.000300658
4.58952e-08
0.00225786
-0.000383957
-1.94698e-07
1.10279e-06
4.56691e-06
-0.000409282
3.65641e-08
-0.00129249
-0.000607454
1.44341e-08
-0.00056669
0.000107835
1.95659e-07
0.000255704
4.57551e-08
0.00322021
0.000425323
7.80392e-07
-2.69584e-05
1.74568e-08
-7.04238e-07
-7.60669e-08
5.35491e-06
-0.000356121
-0.00289195
-0.000490023
4.19815e-08
-5.71536e-07
0.00272763
-0.000408565
-0.00026543
-2.28953e-07
0.00229901
1.72121e-08
-1.42708e-06
-0.00069748
4.06917e-06
-0.000679686
-4.89462e-08
-1.28054e-07
-4.52242e-08
-0.000365231
-9.84435e-08
0.00228528
0.00292483
0.00244993
-0.000753347
-0.000733348
-0.000268198
0.00303595
-1.70035e-05
0.00135859
-1.85526e-07
-3.68163e-06
-7.19157e-07
3.95622e-07
5.39738e-06
5.63536e-08
-1.19459e-07
0.000191145
9.41435e-05
0.000149024
2.2123e-05
-2.01717e-08
0.00247739
4.67186e-06
0.00436304
-1.2557e-07
-0.000494189
4.24673e-05
1.84491e-05
1.03742e-06
-0.000558342
3.23699e-08
-6.28335e-07
-2.82177e-09
-0.000592429
-2.03824e-07
-7.9581e-07
-1.83347e-07
-3.3436e-06
-2.23713e-08
6.36815e-09
-0.000552569
-0.000374403
-2.44502e-08
-6.46982e-09
-1.01133e-06
1.39033e-07
-0.000775146
-0.000471772
1.08592e-08
0.000147736
-5.87856e-07
-6.00251e-08
0.000743023
-1.01118e-07
-5.60222e-08
-2.06782e-07
0.000683249
0.00317273
0.0021604
-3.87069e-08
-0.00014808
-1.32294e-08
-3.43168e-08
-5.07123e-06
-0.000415819
2.69205e-08
-0.000121483
-0.00172368
8.05341e-05
-3.22602e-07
-0.000342273
-0.000974002
-0.00261244
-2.14304e-07
-0.000537064
1.99262e-09
4.61597e-07
3.4187e-06
1.13792e-07
-7.89223e-07
-2.86335e-07
-2.27253e-07
3.37894e-08
-2.39208e-07
4.72449e-07
-1.0928e-07
5.6677e-07
-9.95916e-07
7.27212e-08
-0.00017126