/*--------------------------------*- C++ -*----------------------------------*\
| =========                 |                                                 |
| \\      /  F ield         | OpenFOAM: The Open Source CFD Toolbox           |
|  \\    /   O peration     | Version:  v2012                                 |
|   \\  /    A nd           | Website:  www.openfoam.com                      |
|    \\/     M anipulation  |                                                 |
\*---------------------------------------------------------------------------*/
FoamFile
{
    version     2.0;
    format      ascii;
    class       surfaceScalarField;
    location    "50";
    object      ddtCorrDdt0(phi);
}
// * * * * * * * * * * * * * * * * * * * * * * * * * * * * * * * * * * * * * //

dimensions      [0 3 -2 0 0 0 0];
oriented        oriented;


internalField   nonuniform List<scalar> 
20362
(
0.00151886
-0.000371049
-0.00114781
0.000121249
7.32454e-06
-0.000128578
-0.000336756
5.93368e-05
0.000277432
0.000430124
-5.69325e-06
-0.000424406
-0.000254542
-0.000212521
0.000467074
0.00120683
-0.000732954
-0.000473875
0.000500586
-0.000764834
0.00026425
0.000757571
-0.000587604
-0.000169968
0.000371993
-0.000446904
7.49226e-05
-0.000108919
-0.000336715
0.000445628
-0.000165956
0.000537951
0.000735278
-0.00101926
0.000283978
-2.03179e-05
0.00016962
-0.000149301
-0.00043275
0.000547336
-0.000114596
0.000540938
-0.000110804
5.6316e-05
7.11691e-05
-0.000127488
0.000462762
-0.000571289
0.00010851
0.000702023
-0.000264208
-0.000437834
0.000430157
-0.000453331
2.31728e-05
0.000386328
0.000355183
-0.000741505
0.00236248
-0.00208197
-0.000280502
-0.000599294
0.000314517
0.000284777
0.000594722
-0.000366473
-0.000228259
-6.2421e-05
-0.000274327
0.000270847
-0.000384067
0.000113219
-0.0010515
0.000915019
0.000136482
7.19895e-05
0.000409216
-0.000481235
-0.000102235
-0.000949266
0.000292209
-2.13622e-05
0.000109026
-0.000103617
-5.40803e-06
0.000142618
0.00109833
-0.00124095
0.000744292
0.000409618
-0.00115391
-7.58482e-05
0.000487298
-0.000411442
-0.000143483
-0.000578175
0.000721682
0.00543103
0.000960215
-0.00639125
-0.000965642
0.000899577
6.60547e-05
-0.000383118
-4.00392e-05
0.000423151
-4.98444e-05
0.000171091
0.000420364
-0.000606398
0.000186022
-0.000448154
-8.85359e-05
0.0005367
0.00100831
-7.46973e-05
-0.000933574
0.00221453
0.0032165
9.20322e-05
8.39439e-05
0.000591923
-0.000429892
-0.000162028
0.000389812
0.00112905
-0.000193461
-0.000241708
0.00043517
-0.00683451
0.000496598
0.0063379
0.000695446
-0.000211759
-0.000483687
0.000547913
-0.000166535
-0.000381383
3.59349e-05
-0.000309883
0.000273949
-0.005522
0.00502663
0.000424967
0.000270479
0.000743248
0.0026628
-0.00340604
0.000318534
0.000383486
0.000391613
-0.000122498
-0.000269119
0.000252271
-4.12986e-05
-0.000210975
0.00305614
-0.000209105
-0.00284703
0.00379939
-0.000476092
0.000488688
-1.25908e-05
-0.00024661
-5.48327e-05
0.000301445
0.00632964
-0.0245376
0.018208
0.000132633
0.000459294
-0.000176012
0.000270899
-9.4885e-05
-0.000200833
-0.00039846
-0.00014137
-2.75479e-06
0.000144121
0.000651
-0.00112208
0.00047108
0.000450812
0.00191167
-0.000250318
1.72589e-06
0.000248587
-0.000829869
0.000321028
0.000508842
-0.000495961
-3.92336e-05
0.000535192
0.00308392
-0.00991849
0.000262896
0.000494675
0.000441354
-0.000328306
-0.000113049
1.41672e-05
0.000230077
-0.00045703
0.000424043
3.29906e-05
0.0187978
-0.0168746
-0.00192321
-0.000459589
-3.63739e-05
0.00335255
0.00699363
-0.0103462
-0.000474646
1.76166e-05
-0.000477315
0.000184018
0.000293259
0.000332924
0.000675414
-0.000425487
0.000507009
-8.1512e-05
-0.00037643
0.000427832
-5.14174e-05
-0.000754747
0.000347304
0.000407443
0.000577796
-0.000157439
0.00035042
-0.000394573
4.41527e-05
0.000143439
0.00018599
-0.000329417
-0.000386838
3.60501e-05
0.000350779
7.66004e-05
-9.42517e-05
1.76507e-05
0.00218694
-0.00217277
-1.41495e-05
0.000292184
-0.000158585
-0.000133605
-0.000420497
0.000309694
-0.00050316
4.93755e-05
0.000342236
-0.000331439
0.000101973
0.000229472
-0.000356796
0.000280947
-0.000199688
-0.000499046
0.000698747
-0.000333849
0.00106913
0.000288117
0.000316598
-0.000604712
0.062579
-4.53815e-06
0.000385419
-0.000380887
0.000355182
-0.000464099
-0.00111869
0.000520493
0.000598208
0.000274207
4.73369e-05
-0.000321544
-0.00171121
0.000605819
0.00110534
0.000547924
-8.51626e-05
4.40369e-05
-0.000420468
-1.45115e-05
0.00114142
-0.00112691
9.69507e-05
-0.000545103
0.000292557
-0.000492247
-0.000174676
0.000536696
-0.000362027
-0.00022541
0.000135016
9.03927e-05
0.000736025
-0.000770704
3.46691e-05
0.00941862
0.00144813
-0.0108667
0.00549892
0.00872893
-0.0142278
0.000683418
-0.000384659
-0.000298762
-0.00994314
-0.00109565
0.0110388
-6.81413e-05
-0.000661298
0.000729427
-0.00116595
4.72385e-05
0.00032813
-0.000268745
-0.000112536
0.000112529
0.000271156
0.000170197
-6.81985e-05
-0.00028235
0.000350551
0.00041947
1.06834e-05
3.99737e-05
-0.000762976
0.00072299
-4.3602e-05
-0.000114659
0.000158261
-0.000288663
0.000576788
-0.00305607
0.00284697
-0.000218966
-6.44333e-06
-5.75792e-05
6.89487e-05
-1.13728e-05
-0.0163397
0.0226694
-0.00251153
0.00193474
0.000576799
-5.34182e-05
-4.15458e-06
0.000118399
0.000429518
-0.00124614
0.00125063
-4.49001e-06
-0.000251498
-0.000232057
0.000483559
-1.58557e-05
-0.000125516
0.00234764
-0.00296135
0.000613716
0.0526548
0.0109338
-0.0250672
0.0287269
-0.00365973
-0.000379959
0.000487939
-0.000107988
-0.00159377
0.000347654
-7.83509e-05
-0.000400949
0.000479304
-0.000348532
-6.05828e-05
0.000409115
0.000797846
0.000408988
-0.000450392
6.72658e-05
0.000287078
0.00189986
0.000303594
-0.000142349
-0.000116258
-0.000270586
-2.92874e-05
-0.000516356
0.000227693
0.000281314
-0.000366371
8.50566e-05
0.000120188
-0.000545669
0.000171664
-0.000404902
0.000448349
0.000126775
-0.000575125
-0.000378678
0.000123161
0.000255512
0.0130186
-0.00524362
-0.00777489
-1.1269e-05
-0.000320168
-3.28411e-05
-0.000245313
0.000278153
-0.000158017
0.000193953
-6.6194e-05
4.5877e-05
-0.00026677
9.07647e-05
-0.000685751
0.000618373
6.73759e-05
0.000325127
0.000715136
-0.00104026
-0.00243341
0.000722142
0.0119516
-0.0370187
0.000718423
-0.000217837
0.000352555
1.5072e-05
-0.000367635
-0.000266003
0.000166167
9.98374e-05
-0.00213191
0.00163151
0.000500402
-0.000145773
0.000594124
0.0124206
0.000597968
-0.000338181
9.28059e-06
0.0003289
-0.0083029
0.00651453
0.00178829
-0.00100536
0.00517845
-0.00417308
0.000299693
-0.000389844
9.01512e-05
-0.00128252
0.00142513
-5.04163e-05
-0.000746156
0.000796574
0.000473837
-0.000192523
-0.000766619
0.000802096
-3.54944e-05
-0.000219654
3.4646e-05
0.000185013
0.000164276
-0.000207881
-6.86222e-05
3.68741e-05
-0.000385406
-0.00049332
0.000414969
0.000151776
-0.000173477
2.17001e-05
-2.67279e-05
0.000379279
0.000296365
0.000298364
-0.000254218
-0.000124461
0.000534462
0.00888411
0.0010783
-0.00570518
0.00462677
5.00615e-05
5.89646e-05
-9.20953e-05
-1.15192e-05
0.000647096
-0.0003842
0.0010871
-0.000761969
0.000223505
0.000459901
-0.00352192
0.000332667
0.00318926
0.00416221
0.000252268
-0.000184872
-2.72206e-06
0.000187587
0.000153588
0.00219405
0.000136722
-0.000126552
-1.01662e-05
0.000564655
-0.000708109
-0.00038997
-0.000364778
0.000487757
-0.000555435
6.76762e-05
-0.000438659
0.000196957
-0.000510404
0.000717264
-0.000206857
1.51318e-05
0.000287008
-0.000302163
-0.000522293
0.000418326
0.000103977
-0.000464018
-0.00017187
0.000273848
1.1684e-05
0.000125036
0.000330314
-0.000599813
0.000269499
-0.00752699
-0.000775874
-0.000179214
-0.00029543
-0.000342634
0.000280211
-0.000123451
0.000199728
-7.62771e-05
0.000616514
-0.000202438
-0.000414079
0.00214504
-0.000899813
-0.00124522
-0.000177591
-0.000178456
0.000356059
-0.000363779
0.000471524
0.00780257
-0.00682932
-0.000973251
0.000150916
-0.00111656
0.00143475
5.74778e-05
-0.00149223
0.000329498
-0.00385146
-0.000160472
-2.71173e-05
0.00018757
-0.00819842
0.00230399
0.00589426
9.97455e-05
0.00190697
-0.00200672
-0.000347496
-4.31304e-05
0.000390623
0.000208411
0.000404772
-0.000613209
-0.000188428
3.55119e-06
-0.000837263
7.06396e-05
-0.00624467
0.00959725
-0.000254729
0.000211552
4.31677e-05
-1.98999e-05
-0.000160444
0.000180345
-0.000129309
5.03841e-05
7.89188e-05
0.000861842
-0.000929985
-0.00802283
0.00183866
0.00618418
-0.000506261
-0.00100501
0.00151125
0.000269374
4.8322e-06
-0.000419176
0.000516126
0.000729605
-0.000744114
3.72899e-06
-0.000213903
0.00922414
-0.00142159
-0.00222445
-0.000353782
-0.000122322
0.000828277
-0.000414824
-0.000413462
0.000405429
-0.000747743
0.000342314
-0.000661813
0.000495998
0.000165823
-3.89369e-05
0.000774954
-0.000240561
-0.0015561
0.00165584
6.43734e-05
0.000450761
-0.000515145
0.000561008
-0.000543797
-1.72043e-05
0.00173275
0.00201273
-0.00374545
0.000269798
-0.000337993
-1.62795e-05
0.000799395
-0.000783111
0.000594158
-0.000721715
0.000127589
-0.000521513
0.000585875
0.0048367
-0.00845492
0.00361822
-5.4711e-06
-0.000123841
-0.0002121
0.000572958
-0.000360889
0.000515563
-0.000750245
0.000234682
-0.00758789
0.00206584
-4.10217e-05
-0.000982356
0.00102336
1.54715e-05
0.00033655
-0.000352023
-0.000182614
0.000162721
-0.000253284
-0.000104352
0.000357637
0.00138704
-0.000579222
-0.000807831
0.00454327
-0.00492884
0.000385573
-0.000113254
0.000564007
2.10729e-05
0.000545017
-0.000566091
-5.87605e-06
0.000570524
0.000724644
-0.000516241
-0.0045957
-0.0199419
-0.000411345
0.000415566
-4.2252e-06
0.00992967
-0.0198728
7.16841e-05
0.000259485
-0.000331152
-0.000556169
0.00130046
-0.0246517
0.0366033
-0.000288807
2.93936e-06
-0.00016342
-0.000386747
-0.000238049
0.000624799
0.000202872
-0.000257843
5.49695e-05
-0.000350892
0.000407208
0.000289165
-0.000226741
-6.24266e-05
-0.000655548
0.000448961
0.000206592
-0.000449524
-0.000469729
0.00112073
-0.000128561
1.39016e-05
0.00044153
0.000211281
0.000479037
-0.000690318
-9.15764e-05
-0.000776341
0.000265934
-0.000188359
-0.000143815
0.000332166
-0.00214734
0.00484174
-0.00269441
0.000438838
-0.000527485
8.86482e-05
0.00216782
-0.000233084
0.000122793
5.73163e-05
-0.00018011
0.000299217
0.000193251
-0.000492474
0.000979999
-0.00124626
0.00026627
0.00043638
-0.000553503
0.000117119
0.00034374
-0.000274308
-6.94361e-05
0.000768777
0.00226232
-0.00303109
-0.000106248
-6.99564e-06
0.00110505
0.00169504
-0.00280007
-0.00086549
0.000167246
0.000698214
6.87935e-05
-0.000110035
4.12379e-05
0.000292059
9.12527e-05
-0.000383314
0.00229489
-0.00077001
-0.00152488
-0.00043653
0.000822857
-0.000142401
0.00124073
-0.00010085
6.37018e-05
-0.000477876
0.000414178
-0.00294679
0.00749006
4.44961e-05
-0.00149887
0.00145437
0.000108511
0.000241914
0.00122089
-0.00172717
-8.19787e-06
0.000609234
-0.000601057
0.00181632
0.000351501
-0.00527524
0.00312791
-4.47243e-05
-0.000174929
-0.0017421
0.000604333
-0.0023829
0.00177856
-0.000528077
8.44114e-05
0.000259325
0.0175136
-0.0421653
4.14971e-05
0.000135322
-0.000176826
0.000158259
-0.000341791
0.00018354
1.6439e-05
0.000504047
-0.000182826
6.27106e-05
0.00012011
-0.00022489
3.42165e-05
0.000190674
0.000394513
-0.000632558
-0.000347507
-0.000112432
0.000459945
-6.23858e-06
0.000163215
-0.000156973
-9.54079e-05
-0.000129482
0.000118039
0.000370652
0.000862501
-0.000120408
-0.000742086
0.00053485
-0.000431239
-0.000103622
-0.000109476
-0.000546075
-0.000261301
1.09805e-05
-0.00168389
5.29642e-05
0.000236201
-5.35153e-05
0.000122313
-0.000147811
-0.000329526
0.000270422
-0.000270421
0.000474107
0.000912941
-0.000540004
0.00208366
-0.00154369
0.000442261
-0.000165379
-0.000276887
-0.000999247
-0.000160708
0.0011599
-5.84293e-05
2.2645e-06
0.000323139
-0.00032541
0.000150224
0.00097587
-0.0011261
0.000116937
0.000437521
-0.000554443
-0.000374226
-0.000244714
0.000507634
-0.000262918
-0.00399941
0.00510446
0.000320078
0.000132117
-0.000452213
-0.000367463
0.000189879
9.21657e-05
-0.000511339
-0.000346249
0.000459697
-0.000113442
0.0553939
-0.00273904
0.000349138
-0.000593853
0.000550495
-0.000216744
-0.000333777
-6.33996e-05
-0.000696675
0.000717743
0.000631014
-0.000334662
0.000692165
-0.00083265
0.000140487
0.000820081
-0.000439327
-0.000380748
-0.0029362
0.00466895
0.000154284
1.53357e-05
0.000902499
-0.000752276
0.000439616
0.000176895
0.000579778
-0.000280566
0.000861098
-0.000168931
0.000220581
-0.000253422
0.00114609
0.000108301
-0.00125439
-0.000901972
1.81233e-05
0.000883838
0.000387368
-0.000203392
0.00147014
-3.53859e-05
5.23773e-05
2.42226e-05
0.000448671
-0.000132075
6.02969e-05
-0.000493042
0.000191059
-0.00144025
0.0012492
-0.000906321
0.000865295
-0.00131244
0.000993808
0.000318622
1.51843e-05
-0.000378955
0.000578193
-0.000170438
-0.00040776
0.000423259
6.40855e-05
-0.000487351
0.000502145
-0.000530785
2.86387e-05
-0.000177416
0.000171177
0.000331036
-0.00033558
-0.000113169
-0.000474437
-0.000439863
4.7663e-05
0.000392199
0.000564842
-0.000327939
-0.000236906
-0.00186507
0.00155536
0.000309699
-7.55903e-05
-0.000646068
0.000539818
-0.000565153
2.5343e-05
-0.000164559
4.11111e-05
0.000582936
-8.07929e-05
-0.000294909
0.000434867
-0.000139961
-0.000357125
-0.000125814
0.000482945
0.00033904
0.000195809
-0.00035596
0.000109329
-0.000331061
0.000344875
0.00021996
0.000345025
-0.000542333
0.00019731
0.00097696
-0.000993241
0.00245952
-0.00926568
0.00680613
-0.000227726
0.000216456
0.000438356
-5.46369e-05
-0.000383712
-0.000498514
0.00231482
0.00124167
0.00105321
-0.000331937
0.000482576
-0.000150629
0.000441405
-0.000131718
0.000437315
0.00163653
-0.00207382
0.000141966
0.0140353
-0.000216439
0.000166592
0.00082097
0.00716963
-0.00799053
-0.00117764
-0.000995122
0.00376853
-0.00671534
-0.000283931
0.000614244
-0.000251469
-0.000324832
0.000576283
0.000210208
-0.000194222
-1.59913e-05
-0.000374829
-6.41986e-05
0.000439025
0.000213145
0.000173169
0.000274487
-0.000447654
0.000258282
5.06582e-05
-0.000308944
-0.000374779
-5.64659e-05
-0.000956738
-0.000707286
0.000713693
-6.40807e-06
-0.00028045
0.000282711
-5.41247e-05
-0.000653161
-0.000352384
-3.60425e-06
0.000355988
-0.000373588
-0.000430201
0.000803786
0.000507195
-0.000443495
-8.65044e-05
-0.000288321
3.88259e-05
0.00039321
-0.000432042
0.000209826
-0.000461308
0.000243008
0.000335186
-4.56879e-05
-0.000153537
0.000199214
0.000291758
-0.000665345
-0.00163128
-4.8986e-05
0.00168026
-0.00628061
0.000378171
0.000268925
-0.000151009
-0.000547851
0.000698832
2.47078e-05
-0.000277992
-0.00039679
-0.000725289
-0.0004998
0.000683195
-0.000183393
-0.000466002
0.000401803
0.000251378
0.0067553
0.0120425
-0.000767653
-0.000251601
-9.27217e-05
-0.000562331
0.000655086
-0.000302
-0.000137863
-0.000331615
0.00155249
-0.000595568
0.00050286
0.000388687
-0.000111079
-0.000277605
-0.000135938
0.000307598
-0.000154563
-0.00027173
0.000426282
-0.00131638
0.000331022
0.000985352
9.12458e-05
0.000459243
-0.00700907
0.00190346
0.00510561
0.000274311
-0.000774105
-6.45378e-06
-0.000345928
-0.00188772
-0.000185525
-0.000209045
0.000375835
-0.000360364
0.000804378
-0.000764408
0.000466366
4.06536e-05
0.000193306
-9.1028e-05
-0.000102278
0.000729825
-0.000680136
-4.9683e-05
-4.30271e-05
-0.00033325
0.000419277
-8.60424e-05
0.000128699
-0.000415983
0.000287285
-0.00435789
-0.00366494
-0.000296965
-0.000197262
0.000494225
0.00123408
-0.0181086
0.00134478
-0.000707854
-0.00063692
-0.00278362
0.00199723
0.000786387
-0.000354914
0.000183546
0.000171368
-0.000901421
0.000799185
-0.000449168
0.000440964
0.000706393
-0.000495112
-0.000423382
-4.26154e-05
0.000218634
-0.000178405
-4.02298e-05
0.000638303
9.15274e-05
0.00113091
-0.000394054
6.07967e-05
5.04671e-05
0.000387894
-9.20197e-05
0.000235444
0.000247746
-9.07659e-05
-0.000156973
0.000853893
-0.00106407
0.000210153
0.00027769
0.000269631
0.000801757
-0.000551371
-0.000250406
-9.48135e-05
0.000414887
0.00129914
-0.00104675
-0.000252477
7.57211e-05
-0.000309304
0.000233581
0.000188399
0.000103783
0.000225625
-0.000273694
4.80709e-05
-0.000457651
0.00179016
-0.00133251
0.000157638
9.01106e-05
0.000511411
-7.5033e-05
-0.000615481
0.000413041
-0.000240162
-0.000114649
0.000354814
-0.0188503
0.0142546
9.48939e-05
-0.000125126
3.02239e-05
7.12259e-05
0.000286443
-0.000357669
-0.000272679
0.000445846
-0.000238659
3.17085e-06
0.000235485
0.000329042
5.9646e-05
-0.000789776
-0.000112196
7.88372e-05
-0.000980258
0.00479288
0.000782041
-0.00557488
-0.000364196
-0.000297618
-0.000379806
0.000471973
0.00054298
0.00025876
0.000494525
-8.53285e-05
-0.000259684
-0.000419543
-0.00010274
0.000211832
4.80195e-05
-0.000259848
-0.00507996
0.00884849
-0.000464235
8.42719e-05
0.000160045
-0.000507549
-0.00294155
0.00327703
-0.000335536
-0.000117275
0.000303219
0.000588978
-0.000349683
-0.000239295
9.24485e-05
-0.000389415
-0.000452457
0.000277782
0.000140748
-0.000477471
-0.00515364
0.0106526
-0.000241028
5.73981e-06
0.000235282
-0.00132963
0.000887826
0.000441806
-0.00015157
0.00163325
-0.00148168
0.00100178
0.000548574
-0.00155036
0.0146699
-0.0191716
0.00450178
-0.00042885
-0.000145407
-0.000189123
0.000334527
0.000359329
-0.00010756
-0.000251762
-9.63277e-05
0.000321954
-0.00228729
-0.00038728
3.19822e-05
0.000355312
0.000540542
-0.000231679
0.000274921
-6.30905e-05
0.000218568
-0.000373136
-0.000362267
7.92835e-05
0.000282984
-0.00602041
0.00783915
-0.00181873
-0.000281078
0.000187461
9.36116e-05
-0.000391386
0.000178232
0.000213146
-0.00199071
0.00153306
0.000903414
-4.23116e-05
-5.75283e-05
-0.000181134
0.000359156
-1.5564e-05
-0.000343589
2.42742e-05
0.000127502
-0.000386972
0.000326178
6.07114e-05
-0.00202866
0.000397385
-0.00627364
-0.000735432
-0.0137415
-0.0472513
0.00092358
-0.00107515
-0.000275388
-0.001041
-8.57298e-05
-0.000352929
-8.9932e-05
-0.00102177
0.0011117
6.96874e-05
-0.0060901
0.000924261
0.000420521
0.000288677
0.000342338
0.000144006
0.00105958
-0.00120364
5.36239e-05
-0.000422626
0.000368998
0.00217463
-0.000334999
-0.00183964
0.000336566
-0.000322946
0.000394174
-0.000354171
0.00179076
-0.00143659
0.000255596
-0.000296897
0.000458224
-0.000231691
0.000590846
0.000403734
2.64936e-05
-0.000430241
0.000270093
0.00325775
0.00158399
2.13083e-06
-0.000395772
0.000393636
-0.000151803
0.000162617
-1.08134e-05
9.9815e-05
0.000803601
0.000369025
-0.000695272
0.00032625
-0.0260622
0.013222
0.0128402
9.82502e-05
0.000199834
-0.000298095
8.12588e-06
-0.000993462
-0.000261145
-0.00518293
0.00118349
0.000439252
0.000380831
0.00044373
9.29611e-05
0.000182366
-0.000192349
-0.000144982
0.000337327
0.000468375
-0.000837687
0.000369309
-0.000509834
0.000130029
0.00140462
0.000226747
-0.00033926
0.000112512
-0.00292778
0.00238779
-0.00375519
0.000727392
0.0030278
0.000499033
-0.000504883
9.19013e-05
-0.000250488
-0.000382891
0.000576071
-0.000249888
-0.000326175
-0.000262006
0.000609309
-0.000137048
-0.000569494
0.000706496
-5.26451e-05
0.000597663
-0.0132122
0.0163518
-0.00313941
-0.000301156
0.000350073
-4.89182e-05
0.0175576
-0.0196764
0.00211874
-0.0137205
0.00856685
4.70208e-05
0.000368538
-0.000555508
0.00053893
1.65629e-05
-0.016728
0.0342416
0.000190195
-0.000235882
0.000576815
-0.000459872
-0.000310505
0.000289779
2.07211e-05
-0.000372685
0.000145203
0.000227482
-0.000526109
-0.00133897
-4.21574e-05
0.000465413
0.000246534
-0.000153564
-9.29671e-05
-0.000701152
0.00170294
0.000226347
-0.00223
0.00200365
0.00135499
-0.00121101
-0.000162279
-0.000391223
0.000133538
0.000224224
-0.000357764
-0.000149653
0.000441712
0.000408378
7.95617e-05
-0.000198407
-0.000174278
0.000215156
5.52679e-05
-6.24735e-05
-0.000324524
0.000598439
-0.000236473
-0.000361962
0.000251914
0.000150873
-0.000402776
0.00040349
-8.7526e-05
-0.000315965
3.13103e-05
0.000192623
-0.000223939
0.000497578
-8.48e-05
-0.000412795
-0.000309938
6.97734e-05
1.18016e-06
-9.32767e-05
-4.41157e-05
-0.000138711
-0.000237859
0.0109411
0.00661647
-0.000316471
0.000261653
0.00030845
-0.000886606
0.000291947
-0.000241768
-5.01845e-05
-9.69583e-05
0.00059296
-0.000488899
-0.000823538
-0.000323859
0.000450951
0.000232245
-0.000307961
-4.66614e-05
-0.000424666
-0.000105679
0.00053035
-0.000574676
0.000470929
0.000103742
-0.00115449
0.00159182
-0.000583218
0.000591703
-8.48541e-06
0.0110196
-0.0242318
0.000195181
-0.000131833
-6.33544e-05
0.000194666
-0.000115774
-7.8885e-05
0.000510693
-0.000296326
-0.000214378
-0.00519263
9.69721e-06
-0.000587371
4.15292e-06
-0.000126543
-0.000154538
-0.000116597
-0.0240315
-0.00203076
-0.00551101
0.00797052
-0.00149705
0.00151346
-3.93372e-05
0.000327509
-0.00028817
-0.000594441
0.00154564
-0.000951195
0.00902529
-0.0120005
0.00297517
0.0104734
-0.000908438
-5.10977e-05
0.000959537
0.000375046
0.00067214
-0.00104725
0.000633641
-0.00018269
0.000297272
0.0010577
-0.00291927
0.0100889
-0.000463901
-0.000513426
0.000137986
0.000375433
-0.00760341
0.000350345
0.00725305
0.000116338
7.6968e-05
8.91234e-05
0.000314367
0.000617479
0.00152756
5.26577e-05
0.000490308
0.000265297
-7.01016e-05
0.00270664
-0.00237156
-0.000335081
0.0087847
-0.00394801
-0.000343809
0.000233111
0.000110695
-0.00084432
-1.75194e-05
0.000861839
0.00019834
0.000312358
-2.1783e-05
0.000411312
-0.000389526
-0.00018354
-0.000327268
-0.000830985
0.00115825
-0.000369003
0.000282579
8.6423e-05
0.00047376
-0.000421101
0.000127063
-3.50282e-05
0.000384081
-0.000312914
-4.88007e-05
0.000379826
-8.66492e-05
0.000313394
6.27704e-05
-0.000357689
-4.90793e-05
-0.000841304
0.000890372
-6.05814e-05
-0.000783739
-0.000464268
0.00193255
-0.00132822
0.000124137
-0.000460571
0.000336424
-0.000526357
0.000640535
-0.000114175
0.00192145
-0.00163443
-0.000287016
0.000525431
-0.000120003
-0.000375129
0.000489093
-0.000113964
-0.000468417
0.000388431
7.99792e-05
0.0007144
-0.000851464
0.000394555
-0.000732536
0.000337982
-0.000278725
0.000167833
-1.22656e-05
-0.000155565
0.000405929
-0.000154015
0.000127533
-0.000689843
-9.76309e-05
0.000727568
-0.000629933
-0.000433247
0.000457976
-2.4722e-05
0.000394747
-0.00012397
-0.000270776
0.000441468
-0.000317332
-0.000699521
0.000347758
0.000351765
0.00388051
-0.000622755
-0.00141051
0.00304202
-0.000304967
0.000755295
-0.00107426
9.19068e-05
-0.000432206
0.000524653
6.92131e-05
0.000632084
-0.000701286
0.000145455
-5.11492e-05
-9.43047e-05
0.000132856
-6.70518e-05
-6.5808e-05
-0.000362284
5.90304e-05
0.000159603
-0.000270779
0.000212376
-0.000197252
7.73772e-05
5.54766e-05
-9.83112e-06
-0.000398818
0.000408644
0.00146204
-0.00127099
-0.000380471
-0.000194213
3.121e-05
-0.000363139
0.000887031
-0.00219964
-0.000761716
0.00118129
-0.00103512
-0.00041849
3.12044e-05
-0.000213083
-0.000286578
0.000499661
-0.000272319
-0.000162206
0.000434519
0.000685094
-0.000181041
0.000393697
2.55673e-05
0.00142592
-0.00112865
0.000538518
5.75107e-06
-0.000372225
0.000336178
-2.92508e-05
-0.000306927
0.00067293
-0.000734919
6.19784e-05
-6.89523e-05
-4.15697e-05
-0.000313346
0.000391424
-0.000401715
1.02926e-05
-0.000328288
-0.000751723
0.000820927
4.46367e-05
0.000516373
1.49589e-05
-0.000343266
0.0208273
-0.0375554
-0.00053304
0.000126325
0.000406694
-2.36232e-05
-0.000286881
-0.000208492
0.000148349
6.01469e-05
0.00449575
-0.00248302
-0.000427126
0.000233955
0.000193178
-0.00186412
0.00161272
0.000251429
-0.000129482
0.0007501
-0.000620612
0.000103988
-0.000513429
0.000409429
-3.615e-05
0.000551712
0.00160685
-0.00056134
-0.00104553
-0.000724639
0.00109966
-0.000269631
0.00014309
-0.000208534
3.83239e-05
0.000170204
0.00069517
-0.00128961
-0.000105049
0.000594327
4.59491e-06
0.00014086
-0.000796874
0.000606288
0.000190622
-0.000311626
-3.01633e-05
-0.000176058
0.00118591
0.000400487
0.00176766
0.000938988
-0.000384404
8.66687e-05
0.000297736
-0.00376562
0.00409513
0.00992404
0.000225848
-0.000178511
0.000231022
-0.00047252
0.000241497
-3.83041e-05
0.000429731
0.00148998
-0.00153897
-0.000191773
-7.42295e-05
-0.00805545
0.0144021
-0.00634665
-0.0020234
-4.87143e-05
-0.000833143
0.000881846
0.0423803
0.0130136
0.000963746
-0.000109865
0.0017187
-0.00207288
1.14543e-05
0.00038223
-0.00034513
0.000204039
-0.000417119
-0.00194987
0.00217914
-0.000229263
3.39016e-05
8.88926e-05
-0.000374031
-0.000872223
0.000691381
-0.00363294
-0.000394186
0.0051871
-0.000116656
-0.000193227
-0.000487318
0.000135583
0.000351744
-7.73808e-05
0.00027809
-0.000200711
0.000467297
-0.000694902
0.000227615
0.000912231
-0.000502613
0.00358089
-0.00445863
0.000877713
-0.00107957
0.0010049
-0.00183712
0.0019029
-0.00303397
0.00113108
-0.000180161
0.000535337
-0.000406386
0.000276946
0.000793479
-0.00125997
0.000466491
-4.92873e-05
0.000891717
-0.000530677
-0.000361032
-0.00180905
-0.00194616
0.000495754
-4.39702e-05
-0.000451787
-0.000486519
-0.000310321
-1.70883e-05
0.000515342
-0.000498258
0.00661862
-0.00216087
-0.00445775
-5.20401e-05
-0.00038436
0.000436396
0.000517363
-0.000220763
-0.000296599
0.000104623
-0.000588961
0.000484335
0.000478526
0.000158856
0.00108304
-0.0012419
-0.001174
0.00141223
-0.000238208
-0.000151269
-1.45678e-05
0.000165835
0.000293149
-0.000378889
8.57347e-05
8.67809e-07
-0.000124821
0.000123964
0.00126094
-0.000467458
0.000348363
-0.000137951
-0.000210415
-6.85591e-05
-0.000104918
-0.00013289
6.34248e-06
-0.000243095
0.000590854
0.000753802
-0.00112485
0.000195228
0.00141161
-7.50831e-05
6.61438e-05
8.94084e-06
-1.71062e-05
0.000376565
-0.000359441
-0.000441941
0.00058001
-0.000138064
-0.00487175
0.00110613
0.0001828
-0.000260181
0.000430552
-0.000304215
-0.000126336
-0.00293014
-6.03263e-06
0.0684343
0.000512619
-0.00044494
0.000323707
-0.00105666
-0.000156536
0.0020337
-0.00187714
0.000178211
1.81394e-05
-0.000196351
-0.000144988
0.000484022
3.92372e-05
0.00029694
-2.33445e-05
-0.000501079
0.000524441
0.000451176
-0.00044904
2.77776e-05
-0.000255494
-0.000373468
0.000497353
-0.000123885
0.00028604
-0.000233076
-1.2802e-05
-0.000150392
0.000163187
0.00353433
-0.00256188
-0.000972452
0.00273893
-0.00148109
-0.00125786
0.000243229
0.000187323
-0.000315029
-2.64968e-05
0.000341528
8.94221e-05
-0.000596671
-0.00662216
-0.0122281
-0.0011147
0.000201556
0.000913142
0.000292157
0.00136567
-0.00165782
-2.87274e-05
3.23703e-05
0.000507456
-3.02302e-05
-3.83987e-05
8.05595e-05
-0.000234117
-8.86443e-05
-0.000273626
-0.000244788
-0.000101067
0.000371128
0.000375268
0.000223172
-0.000505209
0.000289407
0.000215802
-0.00083072
-0.000346324
0.000395532
-4.92054e-05
-0.000268584
-0.0011642
0.00143279
-0.000374369
0.00084187
-0.000467486
-0.00060875
8.23929e-05
-0.000446751
-0.000287132
0.000326369
0.000798125
-0.000496404
-0.000301762
-0.000420674
-0.000134102
0.000554785
-0.000153399
-0.000156543
-0.000185129
-0.000528518
0.000516837
1.17011e-05
0.000215103
-0.000418522
0.000211993
-0.000477054
0.000265072
-5.37861e-05
-0.00091561
0.00096939
-0.0151284
-0.00779512
0.0229235
0.00033097
-7.14658e-05
0.000180248
-0.000138758
-5.55212e-05
-5.2603e-05
0.000108128
-0.000270806
-0.00480915
-0.000173244
0.000224688
0.000134652
8.93986e-05
0.00155511
-0.00204015
0.000485021
-0.00149519
0.00194031
-0.000445137
0.00194505
-0.000202427
-6.11896e-06
-0.00353413
-0.00155566
0.0050898
-0.000352011
0.000545258
-0.000344809
-0.000405436
-0.000180173
2.89036e-05
3.1821e-05
-0.000421654
0.000389835
-0.000363511
-0.00568071
-0.00803976
0.000183524
0.000251341
2.37494e-05
-7.92719e-05
-0.000259602
0.00033532
-0.000423733
0.000383684
0.00122465
-0.000641866
-0.000582768
-1.02196e-05
0.00351182
0.0173155
-0.000427113
5.23969e-05
0.000374724
-0.000136295
0.000407451
5.40906e-05
2.59945e-05
-8.0085e-05
-0.000114309
1.54437e-05
-0.000143054
0.000127614
7.42329e-05
-0.000326451
0.00025222
0.00149104
-0.000272446
-0.00121859
-9.71002e-05
-0.000371312
9.8017e-05
-7.42735e-05
-0.000542118
0.000281317
0.000260791
-0.00421505
0.00140467
0.00281039
-0.0106616
0.00481313
0.00584846
-1.64796e-05
0.000358923
-0.000342441
-0.00578182
0.000577359
0.000314359
-0.00024252
-0.000126484
1.32884e-05
0.000499332
0.00263226
-0.000729353
0.000295487
0.00022187
-0.000263391
0.000271047
-7.67282e-06
-0.000134195
-0.00172992
0.000206869
0.000141494
-0.00955349
0.0164599
-0.00690641
-0.000140019
0.000322816
-0.0161887
0.0081332
-0.00046945
0.000501277
0.000427835
-0.000196712
-0.000163289
0.000360002
0.000999555
-0.000678526
0.00031239
-0.000322223
9.57213e-05
-0.000382301
5.96016e-05
0.00296609
-0.00223872
0.00071159
-0.000388392
-0.000323198
0.00202737
0.000711564
0.000519712
-0.00045575
-6.39642e-05
0.000608255
0.00011641
0.000741609
-0.000440847
0.000207128
0.00023372
-0.0170359
0.000847239
-0.000305381
-0.000459451
0.00029493
0.000147325
0.00122246
-0.000305265
0.00186038
0.00427226
-0.000275334
-0.000786848
0.000738133
-0.000345195
-0.000590665
-0.000586918
0.00117753
-0.00188305
-0.000499844
0.0493553
-0.00697498
0.00255655
-0.000352938
-0.00220357
0.000303831
-0.000212585
0.0098888
0.0140861
-0.0239749
0.000799062
-0.000472924
-0.00159109
0.00236523
-0.000774141
0.000678667
0.000317061
0.000151602
0.00163915
6.60808e-05
0.000453625
0.000820181
-0.00140559
0.000585432
3.96134e-05
0.00349472
-0.000457625
0.000122898
0.000334719
0.000900719
-0.0101664
0.000153288
-0.000423258
0.000269971
-0.000154341
-0.00054234
0.00163909
0.00636507
-0.00800412
0.000130529
-0.000115083
3.9564e-05
0.000212907
-0.00025247
-2.81678e-05
0.000192442
0.000455208
-0.000408187
0.00135012
0.000443712
-0.00179381
-0.00199743
-0.000232563
0.000765674
5.76041e-05
-0.000823279
-0.0204935
0.0268841
-0.00639063
-0.000144799
0.000370647
0.000178175
5.71299e-06
-0.000183888
0.000151621
-7.10752e-05
-0.000565139
0.000250693
0.000314445
0.00018439
0.000385938
0.00019279
-0.000578726
-4.38007e-05
-0.00026011
0.000303911
-0.000342101
4.09416e-05
-9.89911e-05
0.000254027
-0.000155045
4.97453e-05
-0.000891049
0.0182622
-0.0147505
-0.000165644
0.000332634
-0.000457066
0.000124433
-0.000134003
-0.000298204
5.31849e-06
-0.00015712
-0.000417687
0.00026522
0.000152462
-0.000538849
0.000489101
4.97243e-05
-0.00568571
0.0155745
0.000110141
8.4524e-05
-0.000384911
0.000748154
5.22513e-05
-8.8708e-05
3.64523e-05
0.00328888
-0.00324927
-0.000214851
-0.000225998
-0.000757396
-0.00990423
-0.000333341
6.20725e-05
5.04543e-05
-0.000147853
-0.000916234
0.000143393
0.000103142
0.000450347
-0.00240022
-0.000332936
0.000526038
0.000773091
0.000189368
-1.11929e-05
0.00171231
0.000844203
4.39017e-05