/*--------------------------------*- C++ -*----------------------------------*\
| =========                 |                                                 |
| \\      /  F ield         | OpenFOAM: The Open Source CFD Toolbox           |
|  \\    /   O peration     | Version:  v2012                                 |
|   \\  /    A nd           | Website:  www.openfoam.com                      |
|    \\/     M anipulation  |                                                 |
\*---------------------------------------------------------------------------*/
FoamFile
{
    version     2.0;
    format      ascii;
    class       volScalarField;
    location    "50";
    object      k;
}
// * * * * * * * * * * * * * * * * * * * * * * * * * * * * * * * * * * * * * //

dimensions      [0 2 -2 0 0 0 0];


internalField   nonuniform List<scalar> 
13726
(
6.91864e-05
0.0371457
9.02022e-05
7.47589e-05
0.000256828
6.71848e-05
6.89888e-05
6.99161e-05
0.000262687
0.000116379
0.000261476
6.08743e-05
6.36676e-05
0.0643244
7.43262e-05
6.62231e-05
0.0002351
8.36487e-05
0.0857166
0.000360551
0.0631777
6.04634e-05
7.88951e-05
9.05553e-05
6.05549e-05
6.03845e-05
9.78871e-05
6.04494e-05
6.05647e-05
0.0310294
0.08925
6.13235e-05
0.0779038
9.58916e-05
9.22872e-05
0.063097
9.66182e-05
0.0399263
7.49196e-05
8.11056e-05
0.000239139
8.84726e-05
9.18317e-05
7.2685e-05
7.19805e-05
8.40138e-05
0.00109236
6.12185e-05
0.0001388
6.20831e-05
0.0423232
6.12583e-05
6.45881e-05
8.35199e-05
9.20903e-05
0.000104591
6.44793e-05
6.49008e-05
0.000104917
9.09582e-05
0.0360385
7.24126e-05
0.045109
6.04462e-05
0.030273
6.05921e-05
0.0586787
0.0731734
6.10457e-05
0.00026111
0.00101151
6.95794e-05
6.88792e-05
9.22221e-05
0.0846081
0.0408422
0.000262838
0.0557777
0.0823026
0.000162088
0.000220988
0.000131982
0.00016417
6.42747e-05
7.49349e-05
0.0502788
0.000179778
8.76092e-05
6.46019e-05
0.0630017
8.43298e-05
0.000264252
8.41788e-05
9.16834e-05
0.0373935
0.0750502
0.000112073
6.09025e-05
7.67222e-05
0.00581962
8.58678e-05
0.000117276
6.75622e-05
6.07435e-05
8.98792e-05
0.000233601
0.000164488
6.25017e-05
8.12073e-05
0.000111315
0.000138365
6.08835e-05
0.099406
0.0333893
0.0411431
7.59682e-05
0.000417423
0.103758
6.72801e-05
9.01982e-05
0.0144348
6.80877e-05
8.95202e-05
0.0847317
0.0975136
0.0447526
7.6695e-05
6.49121e-05
6.08882e-05
8.00837e-05
0.0360242
0.042474
8.00741e-05
0.000136721
0.0491568
0.000253505
0.0333535
6.26022e-05
0.010529
0.025447
0.000148747
0.0485652
6.47465e-05
6.09422e-05
6.85421e-05
9.69529e-05
0.0594143
9.51251e-05
8.78855e-05
0.0835062
7.69801e-05
6.9798e-05
0.000136758
9.47688e-05
6.102e-05
9.15329e-05
9.67014e-05
0.000120607
0.0369053
6.06955e-05
6.38256e-05
6.47517e-05
0.0473405
0.0705332
6.03075e-05
0.000101091
0.0239993
6.89033e-05
8.56207e-05
6.15305e-05
7.66554e-05
9.06285e-05
0.000120058
9.14527e-05
0.0637227
0.00013927
6.07363e-05
0.0849117
0.0974163
6.5196e-05
0.0920724
8.87039e-05
0.0483056
0.0214169
6.077e-05
6.45101e-05
6.76135e-05
8.53934e-05
7.85508e-05
9.72375e-05
0.0250207
0.000469491
0.0332743
0.0342953
6.92579e-05
6.0364e-05
7.56889e-05
0.0138185
0.000555327
0.000108164
0.0312255
6.25048e-05
0.0352168
9.43751e-05
6.33266e-05
6.6551e-05
8.39491e-05
0.0422792
9.18959e-05
0.000143985
0.000263705
0.0392478
0.0325209
6.02486e-05
0.0618983
0.0826956
9.05786e-05
9.10935e-05
8.52903e-05
0.0784069
9.35807e-05
0.000111981
8.71756e-05
0.0640368
6.21534e-05
0.0168923
0.0228317
0.0662201
0.0571136
8.52149e-05
0.0492002
0.0346808
0.0906785
0.0534664
9.17217e-05
8.88621e-05
0.0258028
0.10344
8.73908e-05
0.0745819
6.07883e-05
8.07563e-05
6.26296e-05
0.0740285
7.98665e-05
0.0490475
0.000105311
9.83856e-05
6.47395e-05
0.000206984
0.0990658
9.20369e-05
0.0634237
9.82752e-05
0.000128882
0.000153713
8.94159e-05
0.092456
0.06916
9.79098e-05
0.000103317
0.0266389
0.000111618
6.3998e-05
0.0424747
0.0979977
6.56379e-05
8.84619e-05
6.06817e-05
0.000121103
7.65335e-05
9.79689e-05
0.100967
9.33099e-05
0.052145
0.0305149
0.0861386
0.000580272
9.12359e-05
6.13445e-05
0.0208955
9.17993e-05
0.0282956
9.79505e-05
0.0688544
6.56699e-05
0.0467
0.000570223
9.81644e-05
6.0533e-05
0.0423126
9.8003e-05
6.06573e-05
0.0679515
0.0437956
9.40251e-05
0.000120009
6.6957e-05
0.0489511
6.17916e-05
0.00156152
0.0685695
0.000160211
8.16741e-05
6.4774e-05
0.0143954
0.000737861
0.093307
0.0138303
0.000101125
0.0631861
0.000341257
0.0909645
0.021859
7.13367e-05
8.07275e-05
6.23716e-05
0.0494117
0.0723353
0.046297
0.0421147
0.00012341
8.89808e-05
7.27856e-05
6.2316e-05
9.84551e-05
8.13764e-05
0.0195487
8.84304e-05
0.0430174
6.683e-05
0.0332807
8.40709e-05
9.85687e-05
0.000166832
8.64307e-05
8.15126e-05
0.000103136
6.76475e-05
0.000143959
0.000802462
0.0710985
0.0642248
0.0483174
0.0156701
0.000162509
8.92381e-05
0.000118676
0.00019734
7.53956e-05
0.0527921
0.0711576
0.0810354
6.18294e-05
9.02943e-05
8.53871e-05
7.02456e-05
0.000455687
9.57707e-05
9.36846e-05
8.08486e-05
0.000111596
0.0109361
7.06041e-05
0.000108622
0.0921198
0.102387
7.81626e-05
6.89662e-05
7.11612e-05
0.000154181
6.30802e-05
6.18033e-05
8.5248e-05
0.00107736
6.92344e-05
6.04869e-05
0.0806123
0.000112778
0.000162504
6.21976e-05
7.31075e-05
7.65085e-05
0.0656916
0.0811404
0.0984733
0.0885195
0.000112512
7.41873e-05
9.26063e-05
6.61263e-05
8.70269e-05
8.58624e-05
6.99332e-05
6.29181e-05
9.42902e-05
0.0795928
0.0667182
0.00011133
9.25191e-05
6.60347e-05
7.62396e-05
8.83734e-05
0.000139762
9.12989e-05
0.000112948
9.40007e-05
7.71323e-05
0.093385
0.0016513
0.0349777
9.02546e-05
0.0476336
0.0614206
0.000870657
8.38446e-05
0.0719378
0.0192587
0.0440074
0.0412976
0.062905
7.0779e-05
6.02679e-05
0.000169826
0.0356612
6.44292e-05
0.0338701
7.55834e-05
8.63724e-05
0.000146742
0.0979317
0.0962803
0.0781913
0.0951722
9.74592e-05
6.20124e-05
7.10056e-05
6.43682e-05
9.83115e-05
0.000174764
7.38922e-05
0.0350106
6.17207e-05
0.0473613
0.000132056
6.89225e-05
0.0497519
6.09914e-05
6.04961e-05
0.000288405
6.41581e-05
0.0520938
0.0421464
6.07897e-05
0.0578034
6.27946e-05
0.0704524
0.0544535
6.18165e-05
9.4486e-05
0.000107081
0.0794575
0.000107588
0.0513397
0.000321173
9.76905e-05
0.0665465
0.0485022
6.28159e-05
0.0985812
0.000129786
6.09598e-05
6.73288e-05
6.64493e-05
0.088018
6.07483e-05
8.98784e-05
0.000785445
0.039346
0.000106621
6.2704e-05
6.10308e-05
6.03012e-05
0.0443069
6.05715e-05
6.39022e-05
6.59993e-05
6.75091e-05
0.0673963
0.0892647
8.9886e-05
0.000180184
6.44514e-05
0.0705981
0.065735
9.17883e-05
9.53694e-05
0.0808922
0.0591883
8.38816e-05
6.37352e-05
6.24936e-05
6.44757e-05
0.000157026
8.60776e-05
7.42187e-05
0.031219
0.0259141
6.11434e-05
7.54634e-05
9.05887e-05
0.0464545
6.1613e-05
0.00011581
6.03107e-05
0.0100236
0.000217009
8.0482e-05
9.14369e-05
9.64235e-05
7.70784e-05
0.000147928
0.0427511
0.000157236
0.000155378
0.00017066
0.067294
0.000161759
6.0307e-05
0.00125125
0.000139423
0.000116883
0.0385491
9.01813e-05
0.0805837
7.93175e-05
6.21316e-05
0.0375448
0.000110669
9.37863e-05
0.0357877
6.4947e-05
6.44026e-05
9.24672e-05
0.000296882
0.0450719
0.000106919
6.84375e-05
7.69232e-05
8.51779e-05
7.96723e-05
6.25638e-05
6.88475e-05
0.0411459
9.10304e-05
8.3021e-05
6.64174e-05
0.0646725
0.0416504
0.0557691
0.00466089
7.86415e-05
0.0781207
8.43978e-05
0.094315
7.12096e-05
0.000105907
7.77926e-05
0.0764115
0.000126983
0.0734559
6.07135e-05
6.1329e-05
0.0706454
8.36066e-05
0.0475313
8.32164e-05
9.83014e-05
0.000160796
0.000112987
0.0730762
0.047631
6.89346e-05
6.22151e-05
0.00104591
8.22062e-05
0.0870419
6.26129e-05
6.07428e-05
0.00701749
7.09696e-05
0.000132987
6.76975e-05
9.4251e-05
0.0444097
8.05603e-05
0.0707945
8.86678e-05
0.000196152
0.0506465
9.22209e-05
8.4542e-05
7.52373e-05
6.83596e-05
6.52321e-05
0.0717042
0.100622
0.00181806
8.55449e-05
0.0015111
0.0375828
0.0882621
0.000104724
0.0123069
0.0378429
9.0726e-05
8.77955e-05
6.07753e-05
0.0791332
9.21057e-05
8.8636e-05
6.21658e-05
0.0572563
0.0772807
0.000167889
7.35448e-05
0.000100549
0.000144741
6.07947e-05
8.23296e-05
0.0628589
6.38742e-05
0.0813929
7.91814e-05
0.0490335
0.00011178
7.43907e-05
0.0301932
0.034466
9.05837e-05
0.000783078
9.09202e-05
9.75335e-05
0.0341711
0.000190863
0.0880214
9.38724e-05
0.00027702
0.0429489
9.78577e-05
0.000260149
0.000105855
0.0740364
6.08433e-05
0.00139731
7.7782e-05
8.85093e-05
8.53206e-05
0.00869414
6.08419e-05
8.57275e-05
6.68835e-05
0.00178113
0.000744207
7.97002e-05
6.15523e-05
6.53671e-05
0.0415439
0.0378032
6.1798e-05
0.0645879
0.000241548
0.0782143
0.0432766
0.000262772
0.000137354
0.00010384
6.09759e-05
7.89977e-05
0.0782546
9.13599e-05
7.75567e-05
6.5509e-05
0.000104419
8.02284e-05
6.11609e-05
8.50709e-05
8.85729e-05
0.0835338
0.000110505
6.30988e-05
9.16043e-05
9.80446e-05
6.61405e-05
8.55106e-05
8.86954e-05
7.75988e-05
0.0997398
6.11355e-05
0.000105845
6.22489e-05
7.4531e-05
6.08367e-05
8.87149e-05
6.72061e-05
0.000180853
0.000101555
0.0732673
6.23239e-05
0.0759994
9.01722e-05
0.0836183
0.0590998
0.000116449
9.22665e-05
9.81749e-05
7.43768e-05
6.249e-05
0.000111052
7.77287e-05
6.2407e-05
0.0994666
0.0972141
0.000788808
0.0617832
6.69739e-05
0.0334431
6.13725e-05
6.26953e-05
6.07607e-05
9.19164e-05
0.0337755
0.00012198
0.0738521
0.000106514
0.00114406
0.0942462
6.24311e-05
9.97778e-05
0.000109292
9.28987e-05
7.57174e-05
8.31917e-05
6.53699e-05
0.0886475
0.0784503
0.000139314
7.89656e-05
6.50624e-05
0.0984974
9.15691e-05
6.10373e-05
6.39351e-05
9.45425e-05
0.0645505
0.000261355
0.000124793
7.01147e-05
0.0107133
0.045657
8.80139e-05
0.0326214
0.000166369
8.09939e-05
0.0737916
0.0709391
0.0737875
6.4955e-05
0.000119613
0.0632008
8.57677e-05
0.0287168
6.53302e-05
0.000139695
6.52295e-05
7.0036e-05
0.000175179
0.0412086
8.19855e-05
6.24751e-05
8.56041e-05
6.38208e-05
6.91833e-05
0.0317182
0.000548588
6.06481e-05
6.02992e-05
6.36165e-05
0.0582712
6.18221e-05
0.00225419
0.0580221
0.10133
0.0114827
0.0696766
0.0665215
0.090681
8.54564e-05
7.57034e-05
0.0604817
6.2049e-05
0.0668472
0.0687173
0.0157768
6.12388e-05
8.35229e-05
8.58797e-05
0.000543848
6.104e-05
0.0671776
0.000318573
6.2418e-05
0.0550919
0.000322979
0.0682403
6.66309e-05
0.096337
9.79496e-05
0.0545527
8.73743e-05
0.000178072
6.567e-05
9.57578e-05
9.6553e-05
0.000144728
9.15243e-05
7.55415e-05
6.1658e-05
0.0586075
6.23832e-05
8.46053e-05
0.0526727
6.68714e-05
8.38859e-05
6.63216e-05
0.0313399
6.2557e-05
6.87503e-05
0.000117447
6.10798e-05
9.15969e-05
6.0684e-05
0.0364264
8.60568e-05
6.08082e-05
0.000141166
0.00971145
6.62425e-05
6.7064e-05
0.043817
0.0348541
0.000138259
6.4786e-05
0.0808757
0.0759766
0.0345369
0.000259066
0.0523156
8.95359e-05
7.61578e-05
9.68593e-05
6.05804e-05
7.22488e-05
0.0253209
0.000116426
0.0219734
6.09666e-05
0.000150862
6.21929e-05
0.000109078
0.0222116
0.0331137
6.88155e-05
9.12252e-05
0.000150196
6.39168e-05
6.07035e-05
6.09455e-05
0.0835821
0.0420928
0.000100283
6.10441e-05
9.18356e-05
6.46491e-05
0.0615551
8.86018e-05
7.47798e-05
0.0452094
0.000105819
0.000180175
8.38559e-05
0.10161
0.00320679
9.08795e-05
8.81714e-05
0.0183119
0.000130624
8.92816e-05
0.0356259
0.0453565
0.0412884
0.0752378
0.0639396
0.0307139
6.75216e-05
0.00100441
6.35703e-05
6.29605e-05
0.0811051
6.22939e-05
0.0379913
7.55939e-05
0.0172856
0.0623232
9.68747e-05
0.074323
0.0312544
0.00413821
9.1125e-05
6.71815e-05
6.08602e-05
0.000181109
0.0381591
6.10632e-05
0.060157
0.000102515
0.0151723
0.000163923
6.59275e-05
0.000660602
6.26929e-05
0.000450947
9.76729e-05
6.34316e-05
6.59321e-05
0.0511213
0.000139266
8.97529e-05
0.0718602
8.32475e-05
0.0014122
8.5957e-05
0.00373478
0.0838897
0.0780109
6.88609e-05
6.08282e-05
0.000121985
7.58823e-05
0.0846483
0.0496959
6.34047e-05
9.52739e-05
0.000173791
0.0536919
0.000331926
7.70762e-05
0.0034425
6.92748e-05
7.50133e-05
0.0543733
0.0468558
0.0661239
8.38562e-05
0.101296
0.000126308
0.0676153
6.23423e-05
0.0115549
0.0724287
0.000100865
0.00381044
0.0682625
0.0704331
0.0693727
7.43184e-05
0.0721328
0.000171177
0.000119254
7.85771e-05
6.83187e-05
0.00153915
6.93667e-05
0.102484
0.0292477
0.0329825
0.0695293
0.0509572
0.0910331
0.0571903
0.053137
6.13099e-05
0.00068482
6.05772e-05
0.0521849
0.0306113
6.08134e-05
0.03427
6.10196e-05
6.14102e-05
8.56792e-05
8.53724e-05
0.0992621
0.00319148
7.48853e-05
7.59308e-05
0.00180987
0.0493734
0.000101077
0.000170298
0.00187379
8.7873e-05
9.78272e-05
6.12609e-05
0.0245315
7.76966e-05
7.74959e-05
0.000935686
9.43222e-05
0.0182411
0.0684402
8.78621e-05
0.0559197
9.40809e-05
0.0825872
0.0545154
0.0709922
8.98867e-05
0.00061368
8.29782e-05
0.0767365
6.71364e-05
0.000279953
6.51945e-05
6.09085e-05
0.0433413
8.41947e-05
7.80083e-05
0.00260046
0.000110404
6.36094e-05
0.0726576
7.03591e-05
6.4462e-05
0.00435396
0.0790308
8.25319e-05
0.0200838
7.60686e-05
0.103232
8.70243e-05
8.63039e-05
7.75082e-05
6.15612e-05
8.01953e-05
0.000434294
0.0387247
6.11282e-05
0.0514113
0.000102491
0.0350735
6.09672e-05
6.19466e-05
8.49337e-05
8.08343e-05
6.92048e-05
8.99328e-05
0.0380216
7.60039e-05
0.00018704
8.99977e-05
0.0481887
0.00161169
0.000120882
0.000159048
0.0757322
6.03402e-05
6.35485e-05
0.000813996
0.0624228
0.000127234
0.0726816
8.84138e-05
0.0706249
0.0742527
6.18589e-05
8.10608e-05
0.0190302
0.000170292
9.17839e-05
0.00525584
0.000106821
9.16208e-05
0.000131354
8.8395e-05
8.44099e-05
0.000469682
7.48191e-05
0.103256
0.039163
6.54904e-05
0.000169218
0.00273026
0.069996
8.81341e-05
6.54862e-05
0.000101829
0.0981419
8.13999e-05
7.82019e-05
0.0831804
7.62161e-05
0.032963
7.04653e-05
6.23971e-05
0.0532888
0.000332462
0.00524913
0.000149331
9.3567e-05
6.02819e-05
0.0798389
0.00109588
7.92032e-05
0.000120166
0.0560263
6.42079e-05
8.12148e-05
9.26551e-05
9.75679e-05
0.0758424
6.45267e-05
6.0944e-05
0.000126308
6.55079e-05
0.0471649
0.100509
0.0692763
0.000167224
6.04789e-05
8.0572e-05
0.0709496
0.000262493
0.0654092
0.000123193
0.000106239
9.57351e-05
9.10637e-05
9.01544e-05
0.000804835
0.0960221
8.86394e-05
0.0473757
0.083686
6.06912e-05
0.0421067
0.0638974
0.0440635
7.33615e-05
6.06855e-05
0.00146195
9.01074e-05
0.035472
6.69917e-05
0.00010738
0.095392
8.60574e-05
8.34105e-05
0.100758
0.000138537
0.0578633
0.0728005
0.000145908
0.0689861
0.0743755
6.81191e-05
0.0463287
0.00533307
7.40112e-05
7.60475e-05
0.0624515
8.76046e-05
9.28595e-05
6.25739e-05
8.45054e-05
0.0937267
6.51614e-05
0.000208174
7.67663e-05
0.000106192
7.66285e-05
0.000100039
0.0665105
6.05862e-05
6.56863e-05
8.84223e-05
8.50953e-05
8.27147e-05
0.0579909
9.12071e-05
8.45387e-05
0.0246006
7.77118e-05
0.0733609
8.00846e-05
0.0965535
8.33092e-05
0.0605339
0.00374346
7.55352e-05
0.0223693
9.7763e-05
9.78288e-05
7.45863e-05
6.29389e-05
0.0516913
6.21876e-05
0.00494738
6.86809e-05
7.13448e-05
0.000425766
0.0562821
6.19641e-05
9.69273e-05
6.21913e-05
9.02789e-05
8.77436e-05
0.000112766
6.17857e-05
0.0812658
0.000217272
6.73253e-05
6.80663e-05
0.0964724
0.0380168
8.85631e-05
6.05634e-05
0.0972632
0.0275604
0.0848261
0.000110141
9.56901e-05
0.00211762
0.000121501
0.0733563
0.097315
6.91178e-05
7.99888e-05
0.0371701
0.000160491
6.55441e-05
0.0840435
0.0277431
0.101539
6.18152e-05
0.000114811
0.000105237
7.17266e-05
9.02673e-05
0.000721729
0.000113291
6.32733e-05
0.0460295
8.53504e-05
6.19272e-05
0.000117697
0.000274031
6.85743e-05
0.0958618
8.44481e-05
8.92118e-05
8.7989e-05
9.15829e-05
6.19442e-05
0.0615523
0.0548722
6.97387e-05
0.0514573
6.16397e-05
7.28469e-05
0.0011375
0.0696777
6.14066e-05
0.0601398
7.98606e-05
6.11084e-05
7.89961e-05
0.069255
0.041064
6.03322e-05
0.072832
0.0848106
0.0161717
0.000119635
0.0820574
0.0547078
9.73611e-05
0.00107113
6.34258e-05
8.50696e-05
8.3949e-05
0.090715
0.0451099
0.0361515
0.00149974
6.0489e-05
6.07352e-05
6.89361e-05
0.000116238
9.56154e-05
6.04763e-05
8.99642e-05
7.65008e-05
0.0414884
6.94943e-05
8.82774e-05
6.04626e-05
0.0263678
7.81577e-05
6.05577e-05
6.2176e-05
0.0564665
7.30119e-05
8.09205e-05
0.000100559
0.000149418
6.17034e-05
0.000177276
0.00010893
9.12323e-05
0.000493616
0.00500821
8.97088e-05
0.000683252
0.0468807
8.27184e-05
7.95086e-05
7.0773e-05
6.92692e-05
0.000101636
0.0001149
9.01575e-05
0.0531718
6.04836e-05
8.92621e-05
7.52598e-05
8.43389e-05
7.9149e-05
8.83756e-05
8.49879e-05
6.89922e-05
0.000136916
0.000288102
0.0348389
0.000118818
0.00108615
0.000171251
6.05146e-05
0.00017155
0.0240259
8.0033e-05
9.78346e-05
0.0232759
0.0536767
8.64024e-05
0.0416169
9.32709e-05
0.00160638
7.17152e-05
6.25346e-05
8.64065e-05
9.77066e-05
0.0144671
0.000132814
0.043101
0.0611219
0.098616
7.32816e-05
6.35102e-05
9.07395e-05
0.0801926
6.5775e-05
6.58934e-05
0.0276708
7.34765e-05
0.0527558
8.54087e-05
0.000166515
6.61152e-05
6.17358e-05
0.0448155
6.09165e-05
0.032938
0.100407
9.60826e-05
7.0741e-05
9.72957e-05
0.0900136
0.047252
0.00147954
7.20697e-05
0.000174487
0.000163329
0.0989005
0.099814
6.97606e-05
8.57795e-05
6.72219e-05
6.81815e-05
6.64262e-05
0.000140007
6.04056e-05
9.18279e-05
0.0888113
0.0741741
0.00492761
0.000139751
0.000102858
6.06954e-05
6.21199e-05
0.000491909
9.28213e-05
0.000173649
0.000127184
0.000100535
6.2506e-05
0.000368172
0.0648752
0.0580785
6.69067e-05
0.0527733
7.32074e-05
0.000103303
0.000254525
6.0271e-05
9.11622e-05
0.00799418
0.000945701
0.00010204
8.77381e-05
7.94044e-05
0.0780037
7.42369e-05
0.000365434
8.1715e-05
0.000107931
0.045618
0.0352024
0.0489046
6.70255e-05
6.24441e-05
0.000230807
0.000104676
9.68192e-05
0.00023187
0.0408886
6.52873e-05
6.98429e-05
0.000122869
9.01809e-05
9.9992e-05
0.000103551
8.70555e-05
6.56719e-05
0.0551948
0.000180184
8.10711e-05
6.22279e-05
0.000104844
7.34792e-05
0.000138612
0.00022897
7.1602e-05
0.0047407
0.043596
6.15674e-05
8.86011e-05
9.30321e-05
0.0893191
0.000129038
6.22836e-05
6.55883e-05
6.04751e-05
8.26984e-05
0.0827007
8.29236e-05
9.63623e-05
0.0342057
9.02843e-05
8.07016e-05
6.56038e-05
0.000131397
0.0818193
6.04585e-05
0.0734654
0.0474655
0.000103129
8.34331e-05
0.000101998
8.98573e-05
8.83732e-05
0.0729445
0.000231313
0.0265602
8.74612e-05
6.25847e-05
0.0493822
0.0559269
0.0301661
0.00105343
0.000144899
6.2894e-05
0.0208774
0.0734325
6.05009e-05
0.0872433
0.0862964
6.47516e-05
0.000188032
8.39991e-05
6.2788e-05
7.48598e-05
6.19003e-05
0.000116481
0.0106727
6.78519e-05
6.1087e-05
0.0912709
0.000119489
0.00266231
0.0590464
0.0615645
9.9293e-05
0.000101261
8.16422e-05
6.14341e-05
6.42835e-05
6.04471e-05
0.0542947
0.000137498
7.09545e-05
0.0208993
6.07697e-05
0.000918867
7.33301e-05
0.0605039
0.000179108
8.82654e-05
7.22526e-05
0.102072
0.0543296
0.0638445
0.0551997
6.28286e-05
0.101794
0.000139203
0.00511787
0.0666487
6.42056e-05
7.23572e-05
0.042511
6.02557e-05
8.66861e-05
6.45081e-05
6.74486e-05
0.000113059
0.0665276
8.23907e-05
6.81608e-05
0.000126474
9.52027e-05
0.0634367
0.0024458
7.2761e-05
0.000535973
0.000156387
6.10369e-05
7.20275e-05
0.0434084
0.00011507
0.0816604
0.0940592
9.66188e-05
9.49278e-05
0.00529945
0.000104196
0.0615162
0.000179816
0.0847102
0.000111597
0.000117415
6.40648e-05
0.0633623
0.00476461
0.0820435
6.18294e-05
0.000146388
9.75735e-05
0.0387392
0.0247827
0.000613565
0.00572045
0.00111365
0.0710026
0.0800179
6.21287e-05
0.000238642
0.0872782
0.0934247
0.000137084
0.000103475
0.0421408
6.46658e-05
8.73586e-05
6.83791e-05
0.000101019
0.0352146
0.0028768
6.07596e-05
9.70494e-05
8.42146e-05
0.00012585
0.0776955
9.12554e-05
0.042648
0.0304708
0.0361648
7.10137e-05
8.69305e-05
6.88726e-05
0.04491
0.000149692
0.0733721
6.13887e-05
8.48035e-05
0.000757097
9.5305e-05
0.0402047
8.4531e-05
0.073404
0.0485823
8.73342e-05
0.000105333
0.0422074
7.38227e-05
8.95015e-05
0.033341
0.000212592
7.54468e-05
0.0533011
0.0002313
0.0483476
0.0634838
0.0550629
0.000139794
0.0367833
0.000113948
0.0471121
0.0474302
0.0744472
9.40457e-05
0.000157873
6.20425e-05
6.13655e-05
0.000262576
8.43381e-05
0.0289628
8.86261e-05
0.000186033
0.000929582
7.28414e-05
7.58239e-05
8.93618e-05
0.0916358
6.73297e-05
0.0753626
6.22415e-05
0.0569088
0.0585913
6.21944e-05
0.0180852
0.0770364
0.000395083
7.35548e-05
6.15591e-05
7.71052e-05
0.0789324
0.000105598
0.000230506
9.13297e-05
0.00164417
0.000112161
0.0456423
0.0585388
0.00135141
0.000187266
0.0229421
0.000112974
8.95421e-05
0.0527298
9.62768e-05
0.00256036
9.61204e-05
0.0208725
8.98733e-05
6.55641e-05
0.0720348
6.78306e-05
6.09102e-05
0.065836
0.0821704
9.04709e-05
0.0919373
9.48051e-05
0.0754245
0.00010849
6.63669e-05
9.05693e-05
6.54382e-05
0.0738288
0.0592685
0.0763947
0.0418458
6.39275e-05
0.000113624
0.0984984
6.06516e-05
0.0752244
6.48481e-05
0.0850969
0.000112561
0.000159052
6.50722e-05
0.0482662
0.000146059
0.000123733
9.2933e-05
8.62014e-05
0.0155915
8.7369e-05
8.81772e-05
0.000160795
0.0223679
0.0252506
6.95371e-05
6.19135e-05
0.000129753
0.0962558
0.000150327
0.0470395
0.000110017
0.000118513
0.0929378
0.0920209
0.000109335
0.0431834
7.63559e-05
0.0828351
0.0532636
0.0702094
6.57227e-05
0.000235523
0.024656
7.19984e-05
0.0755106
9.05251e-05
6.07872e-05
9.30312e-05
8.96054e-05
8.4492e-05
0.0383405
7.54921e-05
8.52096e-05
0.0385711
7.55554e-05
6.46934e-05
6.83078e-05
0.036283
6.13269e-05
9.44247e-05
7.06038e-05
6.54951e-05
0.04309
0.000109921
0.0761557
6.14903e-05
0.00116613
0.0693832
9.25856e-05
6.18464e-05
0.0570379
7.32421e-05
7.54921e-05
0.000205073
0.0242805
0.000129838
0.0523096
7.45685e-05
0.0391821
8.27059e-05
9.06495e-05
9.37514e-05
0.028697
6.12481e-05
0.0215538
0.0402919
0.0691067
0.000494706
0.00207458
0.0201423
0.0537309
0.0198422
0.0440439
8.98076e-05
9.09723e-05
0.0809883
8.52953e-05
0.0458664
0.00449461
9.58283e-05
0.0275245
0.0711983
9.20595e-05
6.07794e-05
0.0370819
0.0624758
6.09733e-05
0.0694635
9.07509e-05
6.08736e-05
0.00431744
0.0955245
6.50256e-05
0.000118486
8.93141e-05
0.0800482
8.77673e-05
0.0456182
0.000201788
0.000102399
6.14321e-05
0.000106544
0.0787726
6.25393e-05
7.03549e-05
0.036023
6.12608e-05
0.000102753
0.0731384
6.89268e-05
0.0712565
8.31773e-05
8.76657e-05
0.0122597
9.14158e-05
0.0188439
0.0432773
0.0601068
8.50043e-05
0.0687441
0.0815085
8.36735e-05
6.28076e-05
0.00174288
7.76991e-05
8.21078e-05
0.00018977
0.0518999
8.23743e-05
0.0923178
0.0506924
0.0475356
0.0707874
9.20479e-05
7.53623e-05
7.49926e-05
6.1031e-05
0.0338099
8.9221e-05
0.0482178
7.38688e-05
0.0469096
6.44135e-05
0.000326533
0.000844968
9.18018e-05
0.000685987
0.000145985
0.000124013
0.0461401
0.0385564
9.19021e-05
7.25566e-05
0.046278
9.18917e-05
0.000115547
0.0382029
0.0951863
0.0808149
0.0503658
0.0473861
0.000115866
0.102723
0.094574
0.0951597
8.68471e-05
0.00500036
9.13575e-05
7.30646e-05
0.0208242
0.0421014
0.0540312
6.10588e-05
6.16406e-05
0.00010631
6.14843e-05
6.8365e-05
9.05586e-05
6.91719e-05
6.07275e-05
6.68791e-05
0.0568879
0.0695274
0.0412821
8.63471e-05
0.0501836
0.0792151
0.000104594
0.000149472
6.14835e-05
8.03902e-05
7.66479e-05
0.00018511
0.051111
0.000131629
6.53105e-05
0.0524458
8.75908e-05
6.07998e-05
0.0569495
9.03072e-05
0.0241
7.79307e-05
0.0774394
0.039643
0.0475158
8.67362e-05
8.49697e-05
6.21961e-05
0.00010238
6.03976e-05
8.3849e-05
0.0695056
9.49458e-05
0.0270976
0.000141121
0.000212096
0.00017247
0.0527281
0.0510269
6.15056e-05
8.19971e-05
9.38434e-05
6.27642e-05
0.0275503
9.41135e-05
0.050101
7.28471e-05
6.6229e-05
0.000172206
0.0923877
6.15074e-05
0.000126291
8.59932e-05
8.9719e-05
6.10388e-05
6.48875e-05
0.0373435
9.06266e-05
8.60506e-05
0.000112572
0.00031122
7.51127e-05
0.0492287
0.09206
0.000103316
0.000169012
6.23399e-05
0.000104966
0.000115333
7.26731e-05
8.34378e-05
0.0827885
0.0428619
0.057286
0.102703
8.39304e-05
8.55128e-05
0.000172541
0.0406039
0.061503
0.0468372
6.13032e-05
8.00944e-05
0.0713446
0.0461851
0.0837345
7.25272e-05
8.43448e-05
0.0415591
0.0041531
8.23954e-05
6.57056e-05
8.91194e-05
0.0926217
6.10066e-05
8.77839e-05
0.093516
0.000129929
9.55686e-05
0.0552995
0.000105567
0.000105683
0.000106038
0.0373153
0.0442806
0.0552137
0.0944715
0.0541276
0.0503906
0.100368
6.79437e-05
0.0536649
6.75726e-05
0.0699174
0.0723856
0.0434514
0.0476777
0.00210823
0.000124899
0.0576175
0.0467435
6.43434e-05
0.00046078
0.0899732
0.0406857
0.00407716
0.084906
0.000202074
0.000116156
0.000121162
6.08413e-05
6.12829e-05
0.000123786
0.0540304
9.68853e-05
0.0707204
7.52132e-05
0.000280611
7.34974e-05
0.00020323
8.31146e-05
0.0442011
0.102158
0.000107317
0.0646828
0.000330494
0.0421851
0.022615
0.0958738
8.49689e-05
7.42966e-05
9.96234e-05
0.100023
0.000154338
0.0525028
9.64632e-05
7.05916e-05
0.00034135
0.090074
0.000108949
6.15486e-05
0.0934842
0.000103943
0.0486983
0.00399482
8.225e-05
0.00333017
0.061658
6.38588e-05
0.0858444
0.0556131
0.0403167
0.0287142
0.000113131
0.10144
0.000124242
0.000102751
0.000223217
6.14233e-05
0.00036313
0.0534115
0.000222729
0.000270295
0.0296991
0.000180833
6.2302e-05
0.000116357
0.000209158
7.68642e-05
0.0392446
6.96783e-05
0.000199529
0.0818653
0.0453128
0.0584795
0.0109762
0.0951021
7.49754e-05
0.000233817
0.0685177
0.0675403
6.40622e-05
6.17305e-05
0.0503527
6.16613e-05
6.50636e-05
0.000207106
0.000131447
0.104452
6.52772e-05
0.0571292
0.000283372
0.0507724
0.00021096
9.61348e-05
0.000169141
6.72516e-05
8.80388e-05
0.0438115
8.54284e-05
0.0912058
0.0550508
6.88013e-05
9.209e-05
0.0552642
0.00023986
0.000155092
0.000291083
0.000118734
0.0723657
0.000219274
0.0749425
0.0529936
0.0108005
0.0563079
0.0661215
0.000584555
0.0450332
0.0260878
9.37723e-05
9.33214e-05
0.000205529
0.0769434
0.000210778
0.069856
0.0300873
9.64427e-05
9.60283e-05
0.000115532
0.0333549
0.0463793
9.46187e-05
0.097763
0.00010119
9.43041e-05
9.13532e-05
0.00325456
0.000138735
0.0742964
7.63561e-05
0.078762
0.0780116
6.77001e-05
9.15519e-05
0.00477171
0.000190621
0.0380795
8.87522e-05
9.60098e-05
6.1584e-05
0.000105239
6.16131e-05
0.0680399
7.55201e-05
0.0471833
9.35577e-05
0.058551
6.1859e-05
0.000242736
0.000105043
0.000185301
8.02085e-05
0.0367883
6.74264e-05
0.00112258
0.000479841
0.00027565
0.09881
0.000214507
0.074284
0.0524105
0.0887195
0.0225362
0.000375473
6.33092e-05
6.86332e-05
0.000279649
0.000143691
7.66185e-05
0.000996727
0.0835099
0.000186866
0.0748002
0.000800881
6.33731e-05
0.000101315
0.0435416
0.000104131
0.0996998
0.0477672
7.03968e-05
0.0437061
0.0599228
0.00012629
0.000233445
0.000455364
0.0539735
8.88399e-05
0.071855
0.0596652
7.51705e-05
0.0563052
0.0133083
0.000206333
0.0879477
8.01324e-05
0.0293373
0.00353115
0.000222386
0.0336178
8.59877e-05
6.11009e-05
0.000170716
0.000331954
0.0529455
0.00239143
0.0511059
7.00295e-05
6.157e-05
0.0440859
0.0573989
0.0974962
0.000124368
0.035069
0.00010651
6.07727e-05
0.090756
0.000310552
0.08969
0.000158885
0.0001005
0.000108476
0.0765419
0.000222283
0.0327823
0.0264282
0.0486592
0.0937781
0.0928184
9.78444e-05
0.0266155
0.000207926
0.0566449
0.000148297
0.000483266
6.04834e-05
8.59061e-05
0.000454527
0.000222247
6.25267e-05
0.0982873
0.100554
0.0965697
0.000461781
0.000107004
0.00793897
0.000440301
0.0588834
0.000101032
0.0478521
5.74473e-05
0.000488785
0.000257945
0.0539997
0.000171899
6.45565e-05
9.33007e-05
0.0724265
0.000126472
6.09014e-05
0.000159
0.000278397
9.01725e-05
8.88864e-05
0.0542057
0.0793095
0.000110298
0.000106179
0.000137913
7.64435e-05
0.0779549
0.0498952
7.65296e-05
0.0993011
6.1656e-05
9.59427e-05
0.0455532
0.000106213
0.000103043
0.000130032
0.0205604
0.0291905
0.053256
9.28687e-05
0.100549
9.0062e-05
0.000100646
8.41545e-05
0.0400993
0.000130926
0.070337
0.00601486
0.00362284
0.000151352
0.0385302
0.0623668
0.0040232
0.00012413
0.101087
0.000168795
8.8994e-05
0.000298854
0.000136111
6.10732e-05
0.000161501
0.000166861
7.73777e-05
0.00012127
0.000143783
0.000107599
0.000231551
6.03996e-05
6.5439e-05
0.000410453
7.39032e-05
0.000155428
0.000513493
9.19849e-05
6.22926e-05
0.000108383
0.0575465
0.0900138
0.0182303
0.000119939
0.000106913
0.0667818
8.49865e-05
0.051888
0.000168574
0.00400069
0.000459655
0.102045
0.000100615
0.000216164
6.44508e-05
9.01126e-05
0.0728483
0.0383521
0.102295
0.000104402
0.0949467
0.0404317
0.0904428
0.000230236
0.000139844
7.54721e-05
0.0755846
8.30754e-05
0.000109912
6.25979e-05
0.000416816
0.0910435
6.14257e-05
0.0472613
0.000131846
8.56034e-05
9.09084e-05
9.01813e-05
0.0790149
0.0522721
0.03792
8.18982e-05
7.53428e-05
0.000144992
7.53031e-05
0.0864449
6.14676e-05
0.100799
0.000111027
0.0876908
0.000141114
0.0427386
0.0739055
0.0288483
0.0608532
0.0995604
6.19432e-05
0.000402432
0.000101496
6.22457e-05
0.0267078
0.00011159
6.32758e-05
6.42327e-05
0.000101185
0.00104204
0.00182037
8.96122e-05
8.9305e-05
0.000101415
0.000130554
8.99225e-05
0.0398044
0.0221391
8.75686e-05
0.000100728
0.0577652
0.0426224
0.000138231
0.0632903
0.0462154
0.00324905
0.0201881
0.000102198
9.06029e-05
0.0805173
8.47457e-05
8.72284e-05
0.0555563
6.08814e-05
0.00011757
0.000113234
8.27582e-05
0.104036
0.000105443
0.000106738
7.28327e-05
6.22459e-05
0.000100522
0.02588
6.4772e-05
0.000111712
0.000100213
0.0730683
6.21545e-05
9.62376e-05
0.000154369
8.48017e-05
0.000126396
0.0754119
0.0585941
8.31529e-05
9.31437e-05
9.413e-05
0.0696208
0.0913397
0.0482277
8.23363e-05
9.31046e-05
6.52557e-05
0.0547266
8.23667e-05
0.000237879
0.000113081
0.000260139
0.10394
0.000158093
0.000111635
0.000199568
0.00257199
0.0339972
0.000176954
8.81112e-05
7.48918e-05
0.000109626
0.00931404
0.0046115
9.1627e-05
0.0208641
0.0237977
9.58547e-05
0.0201264
6.15814e-05
0.101819
0.0287597
6.53251e-05
0.0963419
0.0944331
9.48836e-05
8.46517e-05
9.21078e-05
0.00147296
0.0305509
9.4093e-05
6.53288e-05
0.0808006
6.08475e-05
0.00110689
7.51452e-05
0.0931377
0.0566741
0.0316708
8.9399e-05
0.000101359
0.0303513
6.05715e-05
0.000349454
0.0744495
0.0194472
6.25757e-05
8.95621e-05
0.000104837
8.38414e-05
0.000221361
0.0732052
9.12346e-05
8.32091e-05
0.0408819
0.0191252
0.000160883
9.54308e-05
0.100341
0.099223
8.87563e-05
0.000119044
8.95868e-05
0.000289831
0.0817462
6.43858e-05
0.0234978
0.0954021
0.0238839
0.000170673
0.000100161
0.0243954
0.00011013
0.000116521
0.0946607
9.00417e-05
0.0491026
0.0851492
0.000130501
0.004008
0.000222919
0.00010941
0.00123278
9.66236e-05
9.44006e-05
0.00233685
8.76367e-05
0.000105276
0.000150212
6.11432e-05
8.67467e-05
6.74273e-05
8.79554e-05
0.0815926
7.19031e-05
0.0574681
0.000137872
7.86436e-05
7.65906e-05
0.0451723
0.0713786
0.000170448
8.9873e-05
0.0923619
9.28088e-05
0.000101192
8.25565e-05
0.0593428
0.0404974
6.63926e-05
9.52555e-05
0.00011684
0.000364294
0.000120837
8.4777e-05