/*--------------------------------*- C++ -*----------------------------------*\
| =========                 |                                                 |
| \\      /  F ield         | OpenFOAM: The Open Source CFD Toolbox           |
|  \\    /   O peration     | Version:  v2012                                 |
|   \\  /    A nd           | Website:  www.openfoam.com                      |
|    \\/     M anipulation  |                                                 |
\*---------------------------------------------------------------------------*/
FoamFile
{
    version     2.0;
    format      ascii;
    class       volScalarField;
    location    "450";
    object      k;
}
// * * * * * * * * * * * * * * * * * * * * * * * * * * * * * * * * * * * * * //

dimensions      [0 2 -2 0 0 0 0];


internalField   nonuniform List<scalar> 
13308
(
0.000211603
0.021406
0.0854629
0.000159919
0.000200483
0.00015337
0.000287046
0.000166696
0.000275415
0.0148658
0.00692004
0.0357991
0.000153138
0.000149456
0.000154301
0.0940543
0.000184156
0.019297
0.0295356
0.0073393
0.000212122
0.0583259
0.0713016
0.000189964
0.0960658
0.0757154
0.000221455
0.00379888
0.000221586
0.000269465
0.0186445
0.000250147
0.0749892
0.000236505
0.0467946
0.000172635
0.000280365
0.0712341
0.000174851
0.0906362
0.000146915
0.000163513
0.035396
0.000153939
0.000175102
0.000242835
0.000154297
0.000156959
0.000214192
0.0826402
0.000163107
0.000171292
0.0716948
0.0228799
0.0710647
0.0634972
0.000152966
0.000173037
0.000183475
0.000181938
0.0284043
0.0783793
0.000172271
0.000155479
0.000159869
0.0740126
0.000147834
0.000285194
0.000152969
0.000491434
0.00498173
0.000174641
0.000190652
0.00025752
0.00176213
0.000173292
0.000144689
0.0570873
0.00016398
0.00324715
0.000169258
0.000149062
0.000172348
0.000187713
0.000437953
0.000166527
0.0618066
0.0690019
0.00603112
0.00610567
0.000165586
0.000149044
0.000227994
0.000222686
0.000156026
0.0001717
0.000164028
0.00296652
0.00575926
0.000462052
0.000164983
0.000148544
0.000152334
0.000230308
0.0148917
0.0196577
0.0843424
0.000159379
0.0777724
0.0760108
0.000169586
0.000231456
0.00021831
0.000163076
0.000225323
0.0263137
0.000223964
0.0209282
0.000227941
0.000177135
0.000205223
0.000235428
0.000156409
0.00116702
0.0137775
0.00437369
0.000488575
0.000473489
0.000221307
0.0877308
0.00823086
0.000254282
0.000155895
0.000174291
0.000263406
0.000931551
0.000149039
0.013738
0.000288331
0.000163939
0.0724681
0.000168747
0.000154611
0.000226208
0.000169961
0.000256851
0.00250085
0.00597939
0.000168609
0.000282583
0.06261
0.000162486
0.0195359
0.0263423
0.0486987
0.000285005
0.000156495
0.000157075
0.000147638
0.00372718
0.0185189
0.000172043
0.000153842
0.0784798
0.0002917
0.000420192
0.0583183
0.000156491
0.077957
0.000192911
0.000167692
0.024902
0.000166893
0.0809365
0.0632085
0.0683059
0.0601701
0.0835515
0.000299473
0.000157498
0.0278077
0.064447
0.000147982
0.0125255
0.0739847
0.000152941
0.0664351
0.0199255
0.000273928
0.0481789
0.0485802
0.0186201
0.000171023
0.0344748
0.000169185
0.0696592
0.000167338
0.00154892
0.000418091
0.000163615
0.0893478
0.069943
0.0406495
0.000253292
0.0923414
0.000189692
0.09491
0.00314403
0.0413086
0.067137
0.0398521
0.00425383
0.000200698
0.0732677
0.0760459
0.000233655
0.000159733
0.0709081
0.00255047
0.000959001
0.000961322
0.00016016
0.000284312
0.000142588
0.000240221
0.098191
0.000214094
0.00455881
0.0604086
0.000298236
0.0892633
0.000269143
0.0848662
0.000488705
0.000327678
0.000196855
0.0419916
0.0184048
0.0460178
0.000292557
0.000190257
0.000440143
0.000221087
0.00014011
0.0222367
0.0656601
0.00545443
0.000481026
0.000143493
0.0719812
0.0757979
0.0761522
0.000150528
0.0782528
0.000462247
0.000246235
0.021158
0.000160243
0.000533108
0.0601675
0.000270512
0.00050931
0.000196592
0.000164628
0.000291625
0.000241557
0.0321683
0.000155123
0.000684268
0.0820419
0.0262206
0.000207421
0.000151382
0.000293204
0.000163063
0.000163849
0.000183072
0.0136707
0.000199373
0.000234601
0.0705708
0.000154264
0.00638186
0.000267231
0.0179865
0.0195125
0.000164175
0.000232112
0.00025234
0.00123336
0.000230889
0.000154658
0.0188713
0.0651515
0.000162858
0.051313
0.0590473
0.000266315
0.00024293
0.0966489
0.0753347
0.000233684
0.0758966
0.000498897
0.000535107
0.000179635
0.000232036
0.0799872
0.000489532
0.000152723
0.0237478
0.0750236
0.000232453
0.0355339
0.0405944
0.0593805
0.000158598
0.000162384
0.00014954
0.0129345
0.000148665
0.000148138
0.0874492
0.00014344
0.076228
0.0002293
0.000263887
0.000158575
0.000175435
0.000394503
0.0757718
0.000149876
0.000542641
0.000164824
0.00015695
0.000340505
0.0869324
0.000158067
0.000207654
0.00297654
0.000191134
0.000158166
0.000154569
0.000239725
0.00653861
0.00114125
0.000240621
0.000258559
0.000170197
0.000210439
0.00020163
0.0419998
0.00073314
0.000152514
0.000227324
0.000176918
0.060338
0.000188277
0.000252222
0.000337959
0.028734
0.000266252
0.000194404
0.018382
0.0536349
0.0774246
0.000153928
0.000139821
0.000174315
0.00018053
0.08503
0.105856
0.000409059
0.000159844
0.000174375
0.000229912
0.0784766
0.0774796
0.000170259
0.0110389
0.000170905
0.000165245
0.00124775
0.000202065
0.000178984
0.0571122
0.000225328
0.000188064
0.000147485
0.00960814
0.000206988
0.000984437
7.24208e-05
0.0902332
0.0178141
0.000262645
0.0100124
0.000152259
0.00279597
0.000161132
0.00573206
0.000160888
0.000362802
0.0773657
0.00015168
0.0498199
0.000157353
0.000155746
0.00938781
0.000890587
0.000205851
0.000418166
0.0291891
0.000151472
0.000151769
0.0684758
0.000170606
0.00015211
0.000186118
0.000235806
0.000247825
0.000175925
0.000188911
0.000168179
0.000219545
0.084323
0.00272679
0.000169249
0.0258303
0.000320211
0.00810431
0.000153232
0.000333447
0.0262199
0.000161803
0.000141652
0.0784513
0.000149311
0.000234909
0.0900094
0.072063
0.0607642
0.081123
0.000175815
0.0426658
0.000179492
0.0281196
0.0699261
0.000147441
0.0701482
0.000201966
0.0122868
0.0199414
0.0405938
0.000188284
0.00022649
0.000195056
0.0411803
0.0723874
0.000362096
0.00385978
0.0406344
0.000153717
0.0205803
0.000176211
0.0324896
0.000157863
0.000168688
0.000163449
0.0779673
0.000718075
0.000157512
0.072066
0.00016607
0.0464607
0.0776981
0.000283073
0.000171071
0.0148692
0.000154583
0.00846375
0.000169187
0.00937525
0.000162178
0.000366749
0.000168113
0.000203882
0.0201502
0.000170849
0.000149713
0.000154254
0.000236524
0.0197002
0.000144098
0.000152124
0.000168274
0.000154956
0.0179794
0.00544469
0.00839022
0.0566816
0.0384152
0.0415405
0.0300329
0.000186125
0.000169403
0.00215717
0.0802575
0.000161566
0.0765608
0.00028643
0.00617786
0.00017097
0.000164685
0.000189561
0.000210335
0.000227999
0.00015763
0.00115108
0.0775441
0.0252208
0.000659246
0.0725497
0.000727632
0.000151216
0.0251361
0.000155484
0.000141246
0.0117955
0.00561136
0.000334411
0.000215956
0.0781783
0.0609857
0.000151477
0.000367769
0.000721874
0.0636505
0.000145684
0.0040841
0.000153423
0.00121356
0.000147883
0.0240217
0.000171041
0.0856764
0.0121261
0.0315144
0.000148797
0.000163853
0.0782535
0.0332733
0.00655261
0.00830663
0.0760072
0.0147947
0.0611536
0.0601259
0.0587911
0.0591916
0.000196434
0.000148517
0.000163898
0.046324
0.000163481
0.0178443
0.0580915
0.000157859
0.0680967
0.064088
0.00543868
0.00015342
0.000163342
0.000153646
0.0190376
0.000235996
0.000153333
0.000160687
0.0249143
0.000152404
0.086777
0.000285301
0.00017745
0.0002725
0.000154439
0.000153774
0.000155316
0.000216504
0.00018656
0.000160589
0.0206422
0.000150373
0.000163037
0.000142019
0.000160132
0.0770568
0.077353
0.000155019
0.0691666
0.000164241
0.000158667
0.000153939
0.000199793
0.000228261
0.000171346
0.000197597
0.000155103
0.00220663
0.000193937
0.0418469
0.0726109
0.000193382
0.000204304
0.000160752
0.0416678
0.0131346
0.000231204
0.00015023
0.0103783
0.000371577
0.000293354
0.000155802
0.000226408
0.0136128
0.000290696
0.0430463
0.000168002
0.000150796
0.000285097
0.0473228
0.000262154
0.0591411
0.0142075
0.0875685
0.0357743
0.0156608
0.000211906
0.000174219
0.0854426
0.0773971
0.000198794
0.00015892
0.0601717
0.0500964
0.000225767
0.000868518
0.000178916
0.000161309
0.00014048
0.00676406
0.00048563
0.00015563
0.0579031
0.000166521
0.0302476
0.000153486
0.00015233
0.000209032
0.0487819
0.000237088
0.017043
0.0293286
0.000267383
0.000243671
0.00027473
9.611e-05
0.0746922
0.000157929
0.0923365
0.0728106
0.000601972
0.000167959
0.000362234
0.000155991
0.000148343
0.078098
0.000568875
0.000167099
0.0149662
0.00636487
0.000187289
0.000428799
0.000193359
0.000140813
0.000197525
0.000158443
0.078036
0.0782546
0.000385284
0.000859659
0.000152595
0.00233375
0.000222333
0.000252779
0.0478835
0.000177389
0.000155432
0.000168511
0.000154948
0.0297978
0.000164562
0.0265118
0.0258114
0.000277384
0.000191121
0.000169035
0.0278535
0.0128818
0.0450809
0.000176904
0.000149686
0.000154189
0.0616341
0.000154396
0.000234492
0.000210367
0.000164888
0.000151343
0.000149692
0.000151213
0.000179432
0.000172046
0.00134491
0.0268557
0.000280861
0.000149652
0.00840869
0.0748463
0.000229392
0.0774767
0.000216925
0.000166676
0.000193233
0.000164882
0.086569
0.000185554
0.0463974
0.000369995
0.0611897
0.000167597
0.000152779
0.0400225
0.00016322
0.0750631
0.000163236
0.000163097
0.00450127
0.000187038
0.000152109
0.000332673
0.000273531
0.0642186
0.039108
0.0189935
0.000514276
0.000157963
0.000161726
0.000205289
0.0426573
0.000329548
0.000179018
0.000156956
0.000260508
0.0768206
0.000159274
0.000154304
0.0478289
0.0753146
0.000231308
0.000164355
0.00014442
0.000162938
0.000165697
0.000167597
0.000142615
0.000164095
0.000175951
0.0775051
0.000142152
0.000243786
0.00142125
0.0300478
0.000768181
0.000150399
0.000164126
0.00104045
0.000452681
0.0142346
0.000341492
0.00560165
0.0510471
0.000184453
0.0776605
0.000183158
0.0954504
0.000148532
0.0934664
0.000153302
0.000218826
0.0035902
0.000757903
0.00015169
0.000154271
0.000172615
0.00016099
0.0606318
0.0923101
0.0659476
0.000213275
0.000164244
0.0902919
0.000190293
0.000152295
0.0100434
0.0448569
0.0156883
0.0259266
0.0879988
0.000167529
0.00109473
0.0537145
0.000149432
0.000188458
0.068824
0.000181546
0.000166903
0.00994428
0.0828096
0.000150135
0.044338
0.000149223
0.000208664
0.00918259
0.015077
0.0133167
0.000206642
0.00016112
0.000199113
0.000169407
0.0158084
0.0718681
0.000148118
0.0264588
0.0271742
0.000221344
0.000142315
0.000162656
0.0960378
0.000165532
0.000186397
0.0190778
0.00562114
0.000160941
0.000368146
0.0339423
0.0493389
0.0267838
3.76701e-05
0.000160116
0.000144164
0.000167847
0.00022229
0.0751342
0.0762639
0.000239369
0.000251765
0.0198854
0.0754803
0.0906695
0.000150188
0.0567418
0.00016742
0.0764453
0.000352346
0.00017833
0.00087173
0.000161508
0.0420805
0.0127979
0.000229315
0.0805917
0.0627377
0.000513417
0.0503226
0.000213047
0.000185568
0.000158621
0.0722708
0.000154643
0.0703066
0.000171353
0.000149365
0.00015831
0.000189116
0.0396942
0.000149866
0.00453365
0.0106596
0.0196979
0.000257729
0.00014866
0.0781226
0.000176554
0.00017783
0.070221
0.000153499
0.000155228
0.000427467
0.000172427
0.000144826
0.0195265
0.0754209
0.0465728
0.000594513
0.000147771
0.000165276
0.000244645
0.000286235
0.0724554
0.000152472
0.0010303
0.000175452
0.000173145
0.0274677
0.000147917
0.000160934
0.000195131
0.00015439
0.000154523
0.000178128
0.0109459
0.0178671
0.000161545
0.00337202
0.0513308
0.000287338
0.000181655
0.000165484
0.000158815
0.000167193
0.00875908
4.26515e-05
0.0734994
0.0409764
0.0113675
0.000170424
0.000182047
0.046384
0.000179766
0.000180083
0.000163621
0.0112001
0.0126339
0.000178342
0.0184499
0.0129918
0.000157311
0.000179959
0.000153111
0.000218239
0.000484469
0.000763457
0.000182808
0.000407818
0.000157888
0.000164584
0.0182696
0.000176618
0.0136135
0.00028822
0.000171346
0.000201486
0.000175214
0.000201284
0.000152556
0.000160972
0.00319134
0.000151191
0.0184493
0.000191935
0.000223373
0.00786497
0.0042365
0.000163282
0.000141275
0.000287984
0.013113
0.000163753
0.000166606
0.0126786
0.024422
0.00020069
0.000195442
0.0361928
0.000160509
0.000152711
0.00757419
0.0234941
0.0153315
0.000161713
0.000230855
0.000160907
0.000207287
0.0695986
0.000167348
0.000149457
0.000226887
0.0374607
0.000164256
0.000155351
0.000173243
0.000225894
0.00393338
0.000160012
0.063045
0.00020228
0.0283616
0.0263117
0.000207394
0.0359622
0.000172415
0.016155
0.0038863
0.0190941
0.000152695
0.0953288
0.000201052
0.000301949
0.000193061
0.000182174
0.0757034
0.000174635
0.000163611
0.000160038
0.000307687
0.000390179
0.0777722
0.0443624
0.00152957
0.0943477
0.000160679
0.0701856
0.000156124
0.000154256
0.000167168
0.000161356
0.000363606
0.0258652
0.000147763
0.049453
0.000224751
0.00626657
0.0765152
0.0252607
0.000151474
0.000149961
0.000222539
0.000143994
0.000158978
0.000164949
0.0601105
0.000181767
0.0066123
0.000244157
0.000200177
0.00837095
0.00015469
0.0782766
0.00016688
0.000284471
0.0530609
0.0754937
0.000184859
0.000474966
0.00858783
0.00675208
0.000366255
0.000169288
0.0636455
0.000192693
0.0354569
0.000163158
0.000150372
0.000160582
0.0678855
0.000534212
0.0830163
0.0266553
0.0839746
0.0603616
0.000153255
0.0442937
0.000202496
0.000166537
0.00179837
0.0559079
0.000141023
0.00837643
0.00036898
0.000148467
0.0782389
0.000160282
0.000165506
0.0757236
0.000176105
0.000231666
0.0576222
0.000227446
0.081804
0.000158602
0.000139578
0.000168508
0.0711674
0.000210898
0.000217155
9.31867e-05
0.000156724
0.000149537
0.000204166
0.0455218
0.000155274
0.0092208
0.000174815
0.000349056
0.0547026
0.000173431
0.07072
0.000141586
0.000181084
0.0770895
0.000159595
0.000450968
0.0654057
0.0749514
0.00677186
0.000180988
0.00754281
0.000165747
0.0254161
0.000360326
0.000208305
0.015833
0.000343684
0.0815856
0.0316896
0.000158352
0.000277842
0.000216271
0.000165689
0.00019035
0.028243
0.000149491
0.000156976
0.000174932
0.000162046
0.000160096
0.000150933
0.000160647
0.000171249
0.0101319
0.000270773
0.000172375
0.0044653
0.000222545
0.00706976
0.00276255
0.0254465
0.000156477
0.0321891
0.000246514
0.0346558
0.000272436
0.0720966
0.0653193
0.0277325
0.0160129
0.000163329
0.000165723
0.000167392
0.000167849
0.000198251
0.0717049
0.000163801
0.000372708
0.00039775
0.00113469
0.000278902
0.0557313
0.0731902
0.000363762
0.00018386
0.000163634
0.000361447
0.000169404
0.000208575
0.0577236
0.000192289
0.000161338
0.000152179
0.000147375
0.000268213
0.0253951
0.000738069
0.000278145
0.000173999
0.000154712
0.000152941
0.000162737
0.0731182
0.000285627
0.000149236
0.000169333
0.0126632
0.0779451
0.000156443
0.000154809
0.000264892
0.00786093
0.000160953
0.000180853
0.000202815
0.015273
0.0134494
0.0671605
0.000203146
0.00394291
0.000206883
0.0771853
0.000197882
0.0515206
0.000162472
0.0337504
0.0729889
0.0524577
0.000163242
0.0142688
0.000213069
0.0715953
0.0773935
0.0651056
0.00569919
0.0688175
0.000203185
0.000214575
0.0724286
0.000499786
0.00528765
0.000247812
0.0684164
0.0693307
0.0584463
0.0190865
0.0751052
0.000165291
0.0688363
0.000325495
0.0306808
0.00016516
0.000383071
0.0779106
0.000264574
0.022952
0.000226516
0.00321315
0.000202331
0.0551939
0.0228884
0.000176242
0.0709583
0.0104688
0.000167119
0.0059065
0.000161516
0.00100555
0.00037868
0.000182505
0.00398768
0.0703378
0.000168286
0.0696615
0.000122563
0.000153026
0.0195908
0.0739874
0.0202418
0.071515
0.000161838
0.000150559
0.00429604
0.000156337
0.0166583
0.00840822
0.0496767
0.0480711
0.000189926
0.000218977
0.000180804
0.0869251
0.0961372
0.0753657
0.000230435
0.000156769
0.0437815
0.00766588
0.000196674
0.00699574
0.000162537
0.000757403
0.000156442
0.000164557
0.000232211
0.000156523
0.000180658
0.000305698
0.0183524
0.0656201
0.000150178
0.000149494
0.0318765
0.0389703
0.00409449
0.000185473
0.077328
0.000143093
0.0779548
0.0171116
0.0226917
0.000164373
0.000165554
0.00964642
0.0813249
0.000486044
0.000154094
0.00647531
0.000142512
0.0208951
0.0712265
0.000154163
0.0575333
0.00574946
0.000215913
0.000217374
0.000158178
0.000175479
0.0999993
0.000199784
0.00290547
0.000162344
0.000157256
0.000391536
0.000166519
0.000383949
0.0703862
0.000163588
0.00582345
0.00194778
0.000150588
0.0653583
0.000533466
0.000159919
0.0330586
0.000494255
0.0340573
0.000166924
0.0158451
0.000168116
0.000139695
0.00595628
0.0500263
0.0517462
0.000152244
0.0033965
0.000150917
0.000182398
0.000163035
0.000446685
0.0150349
0.0770465
0.000213568
0.000199572
0.000210031
0.0560338
0.0700794
0.00854818
0.0193586
0.000169532
0.000153178
0.000150506
0.000228503
0.000179369
0.000262841
0.0565976
0.000152546
0.00700123
0.0763201
0.000287174
0.0230339
0.000167207
0.000167
0.0781477
0.00454109
0.000160276
0.000168675
0.000269905
0.000310732
0.0568434
0.0226356
0.0755576
0.000173426
0.0129494
0.00830803
0.000177122
0.000154394
0.0781365
0.000265518
0.000158298
0.00020729
0.0174282
0.0120714
0.000142507
0.000480029
0.000179753
0.000163384
0.0432031
0.00121953
0.0700815
0.0564492
0.000216443
0.00038642
0.0798247
0.000166047
0.0740873
0.00206112
0.000248688
0.000191867
0.000159828
0.000163745
0.00258369
0.000160244
0.00882102
0.000342707
0.000393007
0.00506469
0.000162548
0.0319362
0.000192684
0.00254692
0.0116078
0.000411856
0.000222917
0.000157525
0.0108284
0.000162854
0.0774411
0.0805535
0.000247107
0.00832024
0.000144623
0.0169258
0.000164748
0.000215929
0.000180248
0.00418654
0.000149747
0.0325875
0.000157418
0.0678382
0.000193765
0.0782057
0.00999252
0.000299913
0.000235157
0.000392038
0.0773845
0.000471909
0.000155337
0.0466678
0.00036026
0.00016009
0.00614745
0.000154052
0.000181187
0.0163503
0.0495092
0.00776307
0.000162596
0.00178282
0.0126852
0.00121779
0.000168478
0.000157261
0.0777611
0.0571087
0.000205083
0.00445353
0.000177643
0.0589402
0.000172079
0.000163633
0.0213499
0.0709438
0.000244817
0.00024296
0.000155723
0.000201356
0.000165798
0.000223551
0.000392614
0.000294051
0.000230102
0.000151501
0.077507
0.000173741
0.000257419
0.000164705
0.049562
0.0704833
0.007355
0.000185943
0.000150057
0.000152769
0.0783901
0.0281402
0.0769976
0.000217848
0.0768912
0.000298288
0.074533
0.000212746
0.000355668
0.00016143
0.000171081
0.000163894
0.0337919
0.000162835
0.00029113
0.012748
0.0913747
0.00500303
0.00794482
0.000153198
0.080473
0.000232995
0.0142195
0.000149616
0.0124264
0.000143134
0.000183882
0.0195759
0.0227731
0.000166332
0.000158642
0.000147955
0.00366815
0.000231926
0.0613088
0.000257406
0.00885054
0.0374988
0.0780012
0.0972392
0.000165917
0.0367198
0.000352827
0.000172362
0.000189999
0.00016905
0.000153585
0.000165423
0.000148153
0.000150156
0.000165655
0.000172603
0.000163037
0.00702502
0.0902358
0.0814723
0.000173642
0.000162784
0.0249924
0.000158163
0.0901464
0.000148361
0.000143539
0.000440788
0.0172023
0.000205103
0.00052054
0.000861765
0.000244784
0.000970009
0.000224103
0.0820532
0.0649869
0.0046348
0.000177205
0.0377375
0.000163708
0.000165263
0.000222189
0.000162157
0.000200989
0.000167742
0.00101101
0.000177244
0.00014888
0.0715052
0.000167717
0.000198521
0.0147214
0.000150008
0.00512153
0.000171198
0.000192205
0.000182216
0.00289888
0.000147875
0.0443068
0.0161103
0.000158561
0.000717496
0.000183617
0.0737327
0.062685
0.000164848
0.000147948
0.000167938
0.000155619
0.000159579
0.000160394
0.000146318
0.00022643
0.000150242
0.0345263
0.0882611
0.000736638
0.000171269
0.000184695
0.000157917
0.0148811
0.000450433
0.0135662
0.0133717
0.000147761
0.0686605
0.0674093
0.000162177
0.00211053
0.00867216
0.000187991
0.000155542
0.0258582
0.000179717
0.000154962
0.000294424
0.0235584
0.0687084
0.00469659
0.0303417
0.000159507
0.0811371
0.0578249
0.000179519
0.00015405
0.000173761
0.000161618
0.000223977
0.0290451
0.000151328
0.00412376
0.0570465
0.0364507
0.0248538
0.000175263
0.00856062
0.000177069
0.0784821
0.0925451
0.000148939
0.000165318
0.0620247
0.000289594
0.0861239
0.000166274
0.0589283
0.000366308
0.000214006
0.000151776
0.0762778
0.0110577
0.0526333
0.000222416
0.00206587
0.0690521
0.0503467
0.000490304
0.00024129
0.0210892
0.0622197
0.000836248
0.0649162
0.060927
0.0799956
0.0372761
0.0476984
0.0671092
0.0694869
0.00015851
0.0629675
0.044184
0.00636892
0.000285775
0.000149619
0.0765004
0.000203167
0.0267842
0.0767163
0.0119017
0.072157
0.0304519
0.000153145
0.000159792
0.0614102
0.0142665
0.0746444
0.000174848
0.045973
0.000164906
0.0560147
0.00460748
0.0686035
0.00244163
0.000159105
0.04719
0.000159251
0.035423
0.000248404
0.000161393
0.0764952
0.000159692
0.0294964
0.0533418
0.0158926
0.0065368
0.000165024
0.000163394
0.0733022
0.0778453
0.000162309
0.000455406
0.0364022
0.000178417
0.0454687
0.000158244
0.000151862
0.000180527
0.0213381
0.000158793
0.0118994
0.000166161
0.000151706
0.0580253
0.077745
0.000153835
0.0117475
0.0145933
0.0190607
0.0576995
0.0001651
0.0322818
0.000143413
0.000217988
0.0721038
0.000177843
0.0538439
0.000159887
0.0664776
0.000228766
0.00655377
0.0124273
0.00990121
0.00772145
0.0166301
0.000719372
0.000763932
0.000270997
0.0781138
0.000154692
0.0779937
0.0629462
0.0006493
0.000186365
0.000156198
0.000161432
0.00509634
0.00040873
0.000165349
0.0618652
0.0710792
0.000513685
0.0197587
0.000292233
0.000352809
0.00760293
0.000155294
0.0263479
0.0820842
0.000183883
0.0455607
0.000156894
0.000164834
0.000181116
0.0739928
0.0542687
0.000159359
0.000246062
0.000153851
0.0607492
0.0638519
0.0701086
0.0482131
0.0359184
0.0248425
0.000163035
0.00490409
0.0586859
0.00141391
0.000156489
0.000147732
0.00016699
0.000153765
0.00589951
0.0779632
0.0307492
0.000151117
0.000183131
0.000154791
0.000276626
0.000357658
0.0620396
0.000481532
0.00126935
0.000259397
0.000182071
0.000149907
0.000164735
0.000925956
0.0257504
0.000157837
0.000268973
0.000221193
0.0567876
0.0554553
0.0668029
0.00813594
0.000172863
0.00948294
0.000160416
0.0849363
0.0731454
0.000188547
0.00176254
0.034494
0.0726031
0.000257285
0.0658287
0.0307462
0.000184296
0.0707893
0.000159524
0.000156084
0.0654352
0.0771982
0.000731219
0.000396562
0.00065106
0.000401619
0.0814937
0.0785605
0.000159678
0.0740495
0.00028544
0.00216614
0.0743711
0.000150182
0.0499851
0.000209663
0.0773783
0.0487112
0.0135351
0.000150452
0.000251454
0.000794362
0.0780311
0.000630346
0.0386804
0.0885193
0.000165118
0.00832437
0.000290142
0.000163097
0.000164984
0.000365906
0.000343121
0.0772177
0.000196413
0.000311028
0.0724822
0.000156827
0.044002
0.000155754
0.0767098
0.000172308
0.000151534
0.0781795
0.000168692
0.0114584
0.000148808
0.000161532
0.0657284
0.000161718
0.000167354
0.000151348
0.0504076
0.00106269
0.000198397
0.0696038
0.0785377
0.0824746
0.000212269
0.000154463
0.0502187
0.00017122
0.00278428
0.000163323
0.0132715
0.0244284
0.000177285
0.000197328
0.00799298
0.000184035
0.000165061
0.0621352
0.0767529
0.000237065
0.0351401
0.00021209
0.050225
0.0566881
0.000144858
0.000162084
0.000152169
0.0166086
0.0884998
0.0748015
0.0889674
0.0582537
0.0664996
0.0832179
0.0504905
0.000147926
0.0660908
0.0729858
0.000161777
0.000354267
0.000375048
0.000173356
0.000415082
0.0670759
0.0718982
0.0768622
0.00017986
0.000235028
0.0666254
0.00622732
0.000483804
0.0422552
0.00102424
0.0801219
0.0882994
0.0509461
0.00842042
0.084829
0.0653822
0.000162343
0.0704739
0.000138061
0.000175273
0.0126593
0.000156149
0.000150618
0.0548463
0.000160092
0.000193194
0.000596681
0.00022583
0.000162825
0.0761927
0.0892161
0.0815336
0.00021846
0.0655268
0.000188095
0.000191525
0.0864146
0.00327521
0.0304603
0.000164654
0.0778648
0.000164046
0.0895055
0.000184482
0.000265752
0.00020812
0.0277757
0.000162893
0.000293823
0.0703081
0.000161263
0.0748345
0.0802655
0.0821298
0.000245239
0.000152951
0.000221315
0.0902827
0.00566939
0.000165144
0.0297779
0.00109598
0.0779082
0.000487481
0.000242627
0.0639288
0.0270749
0.00540704
0.000272567
0.0667916
0.000153696
0.088933
0.000148376
0.00248834
0.000168958
0.028587
0.0770318
0.0861548
0.073042
0.00875715
0.00022394
0.000283721
0.000265004
0.0653173
0.000175202
0.0763826
0.000617247
0.0612431
0.0346154
0.0615947
0.0526483
0.000287414
0.0638424
0.000203267
0.0729383
0.000186143
0.000240709
0.0395076
0.000146441
0.0067903
0.0662582
0.0748162
0.0521373
0.00061606
0.0729393
0.0644454
0.0770446
0.00017078
0.000165873
0.00192205
0.000157729
0.000177714
0.00031146
0.0234675
0.0576506
0.000155981
0.0757646
0.000388878
0.00024532
0.0820686
0.0116101
0.000148534
0.077388
0.000265053
0.0145535
0.000196851
0.0861016
0.0270026
0.00285097
0.0887996
0.000164471
0.0223007
0.0764857
0.0756733
0.0672427
0.0871082
0.078517
0.002603
0.0781178
0.00022247
0.0764554
0.000200029
0.00308177
0.000162161
0.0756084
0.0568011
0.00018092
0.000148591
0.00322115
0.000266247
0.000163693
0.0321107
0.0155789
0.000155174
0.0763219
0.077409
0.0289017
0.06151
0.00193081
0.0777958
0.000450733
0.0113574
0.0781071
0.000209379
0.0720091
0.0669301
0.000252734
0.0806374
0.0744252
0.00114335
0.0435999
0.000308434
0.000167801
0.000158856
0.0880865
0.0221496
0.000216071
0.0794168
0.0792311
0.0248305
0.0627928
0.00833167
0.00359261
0.0357124
0.000592596
0.0775795
0.000157194
0.0854856
0.00015149
0.0526758
0.000158546
0.0512981
0.00384797
0.000150887
0.0315445
0.000694855
0.0822705
0.0828318
0.000233885
0.0269138
0.0819772
0.000143841
0.0566338
0.0322437
0.000159231
0.0763813
0.000159867
0.0482261
0.00016402
0.000161713
0.0001523
0.0104857
0.0781949
0.0573479
0.0929577
0.000235927
0.00570565
0.013241
0.000161376
0.000175514
0.0637388
0.076135
0.000171597
0.0697349
0.0330546
0.0536692
0.077246
0.0766135
0.061155
0.000201326
0.0707756
0.000243994
0.00941259
0.000181306
0.000205978
0.060996
0.00459787
0.000272997
0.011892
0.00015895
0.000149692
0.00015271
0.000162937
0.0577727
0.0635294
0.0001625
0.00310744
0.0433398
0.000282981
0.00123118
0.0778158
0.000152077
0.000358393
0.000173394
0.0562548
0.000191857
0.000238721
0.000151281
0.000166688
0.000269406
0.000149277
0.000260412
0.0307927
0.0679905
0.000185179
0.000211964
0.075285
0.0666031
0.0707035
0.00017442
0.00283198
0.0770651
0.000145375
0.0751833
0.0516916
0.0785964
0.000247912
0.015293
0.0768717
0.0607215
0.0002142
0.000261251
0.075581
0.0629107
0.0708826
0.0126348
0.00162472
0.00926075
0.0028534
0.075925
0.000173527
0.0595845
0.000323603
0.0734284
0.0619432
0.0427059
0.000158834
0.0148046
0.000240427
0.00015022
0.000370467
0.000204347
0.000213238
0.000262447
9.27221e-05
0.0762429
0.00470471
0.00618397
0.0680889
0.0034361
0.0220248
0.0772662
0.00536453
0.000159191
0.0699866
0.000186811
0.0263876
0.0274073
0.078494
0.000374952
0.0658295
0.00218298
0.0480614
0.000242827
0.0786329
0.0452844
0.0777013
0.000417089
0.0621564
0.00942378
0.0849578
0.0423156
0.0733363
0.0240525
0.0776944
0.000343234
0.0697943
0.000195715
0.0110083
0.000157618
0.000473489
0.077567
0.0741711
0.000288724
0.000166562
0.00587743
0.0376998
0.000271637
0.0108017
0.000216252
0.000152194
0.100196
0.000156516
0.000158235
0.0760461
0.000238481
0.000170446
0.0523208
0.0107814
0.0730057
0.000148664
0.0279614
0.0798804
0.00016393
0.00260212
0.000169662
0.000201571
0.000194719
0.00017535
0.000198156
0.000164088
0.0475767
0.00256197
0.0766951
0.0405308
0.0663071
0.000251598
0.0731179
0.000233574
0.00543232
0.00016253
0.000352227
0.000220251
0.0651388
0.0291428
0.000158643
0.0276036
0.000238935
0.0057092
0.0724183
0.000150836
0.0478848
0.0306482
0.000322104
0.00774762
0.0647423
0.000249141
0.000185079
0.000346417
0.000381104
0.000206853
0.000283106
0.0374732
0.00717417
0.0524461
0.0758721
0.00026412
0.000169267
0.00415424
0.0673995
0.0855773
0.000257797
0.000216514
0.0749434
0.000180176
0.043347
0.00497942
0.0429118
0.000195445
0.000156344
0.00500881
0.0501312
0.000188808
0.0692341
0.0594286
0.0197196
0.000238478
0.000144814
0.00200187
0.0445572
0.000227407
0.000171614
0.0635219
0.000161835
0.000252512
0.000364436
0.000239888
0.0715562
0.000374583
0.0742237
0.000369688
0.013761
0.0172525
0.000325513
0.0128017
0.000231477
0.0516602
0.0728374
0.000198075
0.000208915
0.000201316
0.000355431
0.00018111
0.000161246
0.000836742
0.028943
0.0711371
0.000179436
0.000250845
0.0730236
0.0744593
0.00952754
0.00346209
0.0370853
0.0551747
0.000157313
0.000263137
0.0684086
0.0001495
0.0745876
0.077489
0.000271189
0.000213099
0.0526442
0.00198251
0.0001582
0.0582772
0.000155504
0.000157039
0.0813856
0.00722051
0.000690928
0.000216865
0.000391031
0.0256423
0.00692174
0.0609924
0.0572454
0.0642904
0.000152281
0.000261259
0.0731294
0.0735244
0.00657113
0.00502916
0.00020758
0.0214014
0.000171668
0.061215
0.0386957
0.000162469
0.000240142
0.00019634
0.0184929
0.0313254
0.0762455
0.000158244
0.000231775
0.0289859
0.0860557
0.0500671
0.000254229
0.000158833
0.000178254
0.0685182
0.0273443
0.000283847
0.0760399
0.041138
0.0195576
0.000151004
0.0728923
0.0295959
0.000159448
0.00111485
0.000135803
0.00102433
0.000157191
0.000186834
0.00016513
0.00588442
0.0299292
0.031473
0.0476691
0.000184888
0.000626034
0.000199983
0.000403019
0.0229011
0.0329455
0.00416563
0.000155683
0.000168776
0.000351992
0.000195255
0.000224887
0.000220901
0.000157118
0.00839844
0.000160106
0.0754427
0.000225566
0.000156471
0.00355706
0.00014741
0.000154037
0.0908824
0.000191069
0.000182937
0.00015919
0.076433
0.0780485
0.0119693
0.000151505
0.000167913
0.000610119
0.0228581
0.0751518
0.0468674
0.0899957
0.0628254
0.000195356
0.000157302
0.0885639
0.0140887
0.000253438
0.0593079
0.00020506
0.000197279
0.000177946
0.000201314
0.0717085
0.000163809
0.000155359
0.0576116
0.000160712
0.0761993
0.000163084
0.00036764
0.000343285
0.00016226
0.000158374
0.0720195
0.00199342
0.000198422
0.0393939
0.000182272
0.000143682
0.0158899
0.0589585
0.000164838
0.00796271
0.0522204
0.000196688
0.000182196
0.00242617
0.0413618
0.000328451
0.000148071
0.000396368
0.000161111
0.0740331
0.0271202
0.000150387
0.000160799
0.000220872
0.014616
0.0161899
0.00020253
0.0477102
0.000504843
0.000162625
0.00029667
0.000149358
0.0477003
0.0018402
0.000162932
0.0408402
0.0816885
0.000295464
0.0498283
0.0780005
0.000203266
0.00704839
0.000342788
0.000178273
0.0175271
0.000193114
0.000181817
0.000555967
0.0361765
0.000297211
0.000332812
0.00115948
0.000150574
0.000203995
0.000150819
0.0121087
0.00024044
0.000198793
0.000163311
0.000205151
0.000167569
0.0782789
0.000168253
0.00557099
0.0325966
0.000948206
0.00335961
0.00277355
0.000186348
0.0540247