/*--------------------------------*- C++ -*----------------------------------*\
| =========                 |                                                 |
| \\      /  F ield         | OpenFOAM: The Open Source CFD Toolbox           |
|  \\    /   O peration     | Version:  v2012                                 |
|   \\  /    A nd           | Website:  www.openfoam.com                      |
|    \\/     M anipulation  |                                                 |
\*---------------------------------------------------------------------------*/
FoamFile
{
    version     2.0;
    format      ascii;
    class       volScalarField;
    location    "450";
    object      p;
}
// * * * * * * * * * * * * * * * * * * * * * * * * * * * * * * * * * * * * * //

dimensions      [0 2 -2 0 0 0 0];


internalField   nonuniform List<scalar> 
13308
(
0.00849534
-0.170801
-0.619752
0.00670351
-0.187387
0.00180432
-0.100556
-0.0989353
-0.167634
-0.239455
-0.0857975
-0.1137
0.00212235
-0.0310433
0.00138256
-0.652701
0.01351
-0.138771
-0.136415
0.0595389
0.0134579
-0.631609
-0.687547
-0.131174
-0.664076
-0.634111
-0.147729
-0.088262
-0.158812
-0.0307461
-0.205227
-0.04707
-0.685244
-0.2328
-0.0692744
0.0136783
-0.111355
-0.690454
-0.0650574
-0.640903
-0.0528311
-0.107921
-0.0937527
-0.0168697
-0.0563235
-0.310096
0.00109685
0.00647079
0.00966848
-0.61363
-0.0214512
-0.0118729
-0.573362
-0.144211
-0.727023
-0.611599
-0.0167997
-0.00841376
-0.0943093
-0.0908536
-0.12526
-0.652831
-0.00948274
-0.0637735
0.00485342
-0.68559
-0.00492817
-0.319718
0.010413
0.0537404
-0.246255
-0.0613321
0.00220538
-0.0430788
-0.29506
0.00301012
0.00545283
-0.599047
-0.018833
0.001678
-0.028788
0.0061707
0.00350952
-0.113326
-0.15874
-0.103012
-0.838428
-0.247508
0.0215488
0.0633304
-0.0714927
-0.00425415
-0.13741
0.0149343
-0.0225934
0.0143825
-0.111925
0.00276187
-0.283931
0.0467323
-0.069434
-0.0569286
0.00288835
0.016221
-0.0745993
-0.197129
-0.61572
0.0103653
-0.611817
-0.636502
-0.129877
-0.367219
0.0186929
-0.0191257
0.018685
-0.0987477
-0.32655
-0.0949667
-0.14544
-0.00209342
-0.152509
0.0185266
0.0138346
0.0132268
-0.0345999
0.0286645
-0.11712
-0.125877
0.00169606
-0.762682
-0.294377
0.0145416
-0.0650389
0.0145907
-0.18435
0.0130436
-0.00664558
-0.0319839
0.00163705
-0.114261
-0.589546
-0.127576
-0.0501571
0.0193334
-0.0967443
0.0115115
0.000968093
0.0695945
-0.0307385
0.0151587
-0.832048
-3.22933e-05
-0.268972
-0.0928313
-0.576319
0.00454537
0.0119471
0.0133188
-0.0538635
-0.02608
-0.30537
-0.01065
-0.0491465
-0.650468
0.00742228
0.0265902
-0.629935
0.0132902
-0.609769
-0.194797
-0.130701
-0.0956664
-0.000475752
-0.609609
-0.71186
-0.648155
-0.639097
-0.61295
0.017233
0.0121167
-0.0501687
-0.539566
-0.00259566
-0.163038
-0.622322
0.0127258
-0.610108
-0.24751
-0.0346596
-0.00114218
0.00422131
0.0540716
-0.0956361
-0.112338
-0.10355
-0.65233
-0.128804
0.00223495
-0.0895753
-0.106332
-0.641697
-0.562151
-0.151386
-0.186026
-0.750262
-0.358753
-0.676429
-0.328999
-0.00362541
-0.698664
-0.00942716
0.0468726
-0.254512
-0.587556
-0.605689
0.0190935
0.0119867
-0.201609
-0.0165429
-0.286222
-0.0821721
-0.00127861
0.00999201
0.00100263
0.0195296
-0.672553
0.00809022
-0.0486254
-0.603461
-0.374447
-0.651619
0.0194828
-0.621341
-0.14954
0.0079727
-0.250324
-0.518513
-0.0136397
-0.561104
0.0201482
-0.112154
0.0072771
0.0144796
0.000977216
-0.0431228
-0.629926
0.0521401
0.0269754
0.00108293
-0.618935
-0.605214
-0.680724
-0.0558628
-0.649006
-0.0904423
0.0196809
-0.320284
-0.00206583
-0.107658
-0.606952
-0.0241454
0.0298515
-0.250476
0.0118841
0.0108909
0.0147828
-0.106975
-0.0637089
-0.0732204
-0.640525
0.0505253
-0.161049
-0.0305188
0.00346025
-0.0230117
0.00451957
0.0149908
-0.0399466
-0.194321
0.00463939
-0.659212
-0.047517
0.0227995
0.0203141
-0.250381
0.0402274
0.0114167
0.00852268
0.00415125
0.000363645
-0.123968
0.000786875
-0.480095
-0.551541
0.014089
-0.0983503
-0.592094
-0.0180777
0.00287153
-0.663722
-0.682303
0.0158736
-0.630369
-0.0633845
-0.08018
0.00941699
-0.0730494
-0.607431
0.0476299
0.0126322
-0.0964772
-0.729015
-0.133912
-0.142374
-0.0767859
-0.684587
0.010133
0.0141058
-0.0476769
-0.470016
-0.0551993
0.00604774
-0.745502
0.00609682
-0.868447
0.0193142
0.0189044
-0.0731097
-0.0592522
0.0258187
-0.672035
-0.0164706
0.036537
0.0050593
0.00843519
-0.0172118
-0.649463
0.0138678
0.00687306
0.070518
-0.17225
-0.0728372
-0.026073
-0.219887
-0.0422984
-0.0116062
0.00821
0.00948611
-0.055166
0.0111479
-0.260364
-0.54661
-0.0619498
0.000986248
0.00978668
0.00628911
-0.43948
0.00948067
0.00603614
-0.102231
-0.0862938
-0.170797
-0.1949
0.0485703
-0.557071
-0.635675
-0.0268518
0.000712756
-0.00686494
-0.186177
-0.638652
-0.566192
0.0180462
-0.020324
-0.00610387
0.00507899
-0.6537
-0.667356
-0.0285138
-0.036835
-0.054025
0.0058032
-0.00282206
-0.213237
0.0147891
-0.547191
-0.354125
-0.0755086
-0.00412803
-0.116476
0.010417
0.00561925
0.0293291
-0.658217
-0.0950471
-0.0160124
-0.107763
0.00164372
-0.0258707
-0.0871451
-0.0129492
0.0120626
0.0396972
-0.636084
0.00122941
-0.077557
0.0118578
0.0136876
-0.305712
-0.0384822
0.01298
0.0162495
0.0192089
0.00159059
-0.00436643
-0.643005
-0.0512482
-0.00388759
-0.0832524
0.0048884
0.00370205
-0.00467954
-0.165934
-0.0374049
0.0184987
-0.616322
0.0725905
-0.100237
-0.182486
-0.0012318
0.0345941
0.0131311
0.0289795
-0.427536
0.00980237
0.00551458
-0.64903
-0.00498937
-0.119535
-0.642906
-0.570349
-0.654448
-0.602148
-0.00408826
-0.53539
-0.180558
-0.100853
-0.573615
-0.00272025
-0.622492
0.00881711
-0.329809
0.0177963
-0.511642
-0.132756
-0.0858745
-0.206736
0.00930725
-0.688219
0.0346892
-0.00457777
-0.501783
-0.00894138
-0.310307
-0.00270258
-0.576276
0.0138631
-0.0361215
-0.0135266
-0.633939
-0.320934
-0.072448
-0.682269
-0.0503559
0.0112687
-0.659221
0.0148528
-0.123675
-0.010759
-0.0247386
0.00041144
-0.0545086
-0.00033622
0.0101019
0.043655
-0.039879
0.00963403
-0.0405157
-0.128008
-0.00673817
-0.00224508
-0.0674619
-0.0404842
0.00561652
0.000946177
-0.0422446
0.00163952
-0.123452
-0.24711
-0.292978
-0.586785
-0.579223
-0.0885058
-0.101434
-0.0740983
0.0136427
0.0589895
-0.59491
0.00924925
-0.620774
0.0153628
0.0291471
-0.0634704
0.0142112
-0.123578
-0.258259
-0.266782
-0.0440565
0.0266862
-0.656559
-0.0209492
-0.0652902
-0.626515
0.00711166
0.0118565
-0.488001
-0.0238744
0.00568835
-0.0505796
0.0275856
0.0372182
-0.258974
-0.630897
-0.607463
0.0125056
-0.0248476
0.0100718
-0.42866
0.00557297
-0.340839
-0.0186819
0.0308598
-0.0563017
-0.0843701
-0.059952
-0.808542
-0.242328
-0.101609
-0.00580195
0.011923
-0.640222
-0.104855
-0.265697
0.0216631
-0.6412
-0.0102511
-0.654678
-0.594578
-0.641619
-0.647116
0.00314245
-0.0571107
0.0118767
-0.0687577
-0.0167422
-0.484754
-0.583833
-0.0742052
-0.625849
-0.611532
-0.233754
-0.0139245
-0.0156332
-0.0148575
-0.386899
-0.109948
0.00109005
-0.0849664
-0.432371
0.00347237
-0.646673
0.012243
-0.00753596
0.00864132
-0.0624961
-0.0196653
-0.0481099
-0.00774275
-0.0892644
0.0119108
-0.0837992
0.00210154
0.00120278
0.000727834
-0.00799188
-0.589295
-0.661778
0.000289705
-0.615191
-0.105885
-0.00714814
-0.00171684
0.00343098
0.0158527
-0.046845
-0.203186
0.00201305
-0.108392
0.00275042
-0.325887
-0.500468
-0.200411
-0.188958
0.0114978
-0.529436
-0.335735
-0.0811098
0.0103352
-0.0392605
-0.00746267
0.0268392
-0.0479258
0.00891736
-0.0391243
0.0130989
-0.610631
-0.0308287
-0.00970859
0.00520437
-0.608402
0.0203405
-0.649042
-0.07634
-0.633822
-0.104531
-0.0424674
-0.00643103
-0.0556513
-0.424605
-0.621935
0.0126259
-0.044668
-0.589817
-0.0911182
-0.300605
0.0108822
-0.139693
-0.0892155
0.000620887
-0.0904371
-0.0324892
0.00237905
-0.6007
-0.0658341
-0.463303
-0.0603304
-0.0129911
-0.20293
-0.582742
-0.201642
-0.0395471
-0.813728
0.007882
-0.301579
0.0207127
-0.234871
-0.510426
0.00788141
-0.652005
-0.569279
-0.0363956
0.00920032
-0.00375482
0.00237153
-0.00421155
-0.605041
-0.0670409
-0.296144
0.00488227
-0.0107142
-0.119076
0.0289647
0.0187068
0.00080998
0.0028597
0.00668536
-0.598549
-0.607045
-0.262076
0.0482949
0.0130852
0.0545667
0.0176239
-0.339106
0.0546322
-0.00810211
0.0114332
0.0133218
0.0112833
-0.458058
0.00623252
-0.563396
-0.119803
-0.00160158
-0.180738
0.00916827
-0.62626
-0.0595139
-0.171248
-0.00275125
-0.015419
-0.0177984
-0.640946
-0.0410989
-0.37582
-0.162881
0.00681459
0.0124254
-0.0568067
0.0021798
0.00944771
-0.120536
0.00503145
-0.0122782
-0.275372
-0.0325197
0.0261733
-0.421095
-0.30246
-0.621964
0.014254
-0.0689882
0.0141551
-0.0509832
-0.623407
-0.0695516
0.0509652
-0.0278636
-0.366496
-0.129259
-0.0158347
-0.53432
-0.0505521
-0.593125
-0.0216989
0.0108915
0.0028124
0.00935692
0.00777438
0.0209092
-0.148704
-0.637531
-0.478052
-0.286291
-0.103712
0.00818768
0.0099404
-0.143152
-0.164738
-0.364729
0.009327
-0.0703763
-0.000525974
-0.58524
0.00140904
-0.0569275
-0.576088
-0.626226
-0.237846
-0.0500903
0.00594965
-0.0242068
-0.0259068
-0.131373
0.00594398
-0.0703617
0.00668099
-0.620999
0.00515619
0.00626971
-0.0848483
-0.137221
0.0266938
-0.00444076
-0.0132975
0.052309
-0.102539
0.00809756
-0.0108067
0.0265347
-0.0888088
-0.0196465
-0.592512
-0.0682537
-0.63988
-0.00315974
-0.663288
-0.0289226
0.0126305
0.00128179
0.0273163
-0.0567188
-0.000454419
-0.117635
0.00797598
-0.582937
-0.61221
-0.133792
0.0166544
0.0144217
-0.776211
0.00936864
0.00796305
-0.0393757
-0.565595
-0.0584384
-0.0488696
-0.642274
-0.0990826
0.00184575
-0.383345
0.0126954
-0.0801594
-0.6627
0.000645797
0.0130245
-0.134058
-0.615461
-0.0610025
-0.539768
0.0126409
-0.132908
0.0268754
-0.037395
-0.00553304
0.00584897
0.00860411
-0.0719498
-0.0955484
-0.0422083
-0.665748
-0.0448432
-0.559858
-0.111662
-0.347557
0.00564442
0.0106653
-0.672266
-0.00102093
-5.84261e-05
-0.0388917
0.0166787
0.00892429
-0.100071
-0.488801
-0.553431
-0.0555057
0.0301495
0.00852196
0.000814377
-0.028998
0.0140462
-0.579006
-0.62309
0.00697272
0.00172394
-0.0775806
-0.648558
-0.65272
-0.0605994
-0.433371
-0.090674
-0.669748
0.0271205
-0.0994677
0.0298708
-0.089193
-0.526522
-0.0360697
0.0085652
-0.630591
-0.603623
-0.0479262
-0.0778116
-0.157699
-0.000829791
0.00827914
-0.53482
-0.00094819
-0.133518
-0.00517807
-0.0523705
-0.0637088
-0.160932
-0.584359
-0.0575949
-0.0776242
-0.00243584
-0.0864896
0.0178321
0.0120328
-0.651601
0.00801606
0.00766101
-0.662446
-0.0103744
-0.0496771
0.0455252
-0.12342
0.00573253
-0.0391809
-0.599758
-0.585273
-0.0969671
-0.00498562
-0.00532895
-0.209059
-0.31729
-0.573373
-0.0515814
-0.131497
-0.00983116
-0.120616
-0.231986
-0.0437237
0.00876582
-0.114341
0.011216
-0.0103803
0.00151869
-0.00233909
-0.113102
0.0120512
-0.083341
-0.5767
0.0271859
-0.0382142
0.00897611
-0.0460835
-0.029048
-0.0311228
0.0585769
-0.629227
-0.504856
-0.0430051
-0.00561132
-0.142489
-0.534026
-0.177251
-0.092524
-0.0684346
0.00909605
-0.0047054
0.00262916
-0.151554
-0.0459683
0.0115677
-0.145003
-0.0498306
-0.335942
0.0241136
0.0302721
-0.13594
0.00490501
0.0173544
-0.106934
-0.0121933
0.00955404
-0.0244796
0.0173587
-0.0492259
-0.0682218
-0.0102944
-0.212109
-0.0138856
0.0102165
-0.0046678
-0.0226407
-0.399305
-0.116409
0.0155873
0.0257723
-0.270115
0.0132704
0.00556713
0.0259388
-0.00304839
-0.0515724
-0.0559115
-0.036668
-0.584602
-0.256974
-0.252548
-0.574505
0.012448
0.0111435
-0.391312
-0.0919267
-0.0420442
-0.0992214
0.00601862
0.0121494
-0.0378417
-0.74734
-0.0872019
-0.0576633
0.00730361
-0.453014
0.0134656
0.00153602
-0.0571911
0.0161112
0.00208422
0.0124566
-0.598112
-0.204619
-0.452198
-0.220703
-0.0321927
-0.444591
-0.0561479
-0.361603
0.00109075
-0.0412811
-0.045402
-0.662291
0.00393908
0.0236204
-0.103723
-0.00275368
-0.675957
0.00858197
-0.0177032
0.00950035
0.0277015
0.024653
-0.648669
-0.552214
-0.0690855
-0.657467
-0.0832063
-0.627251
0.01375
-0.0614185
-0.0197167
-0.0913952
0.0744026
-0.0722706
-0.0307568
-0.575903
0.0249682
-0.271062
-0.561532
-0.0969979
-0.0172293
-0.0604189
-0.251637
0.0108892
-0.0168977
0.00232776
-0.641897
-0.00287051
0.019218
0.00483421
0.00397805
-0.0163125
-0.00424223
-0.601332
-0.0487291
0.020837
-0.590354
-0.643969
-0.0935747
-0.043547
-0.0196926
-0.0789545
-0.0132591
0.0134517
-0.65646
0.0117876
-0.0339946
-0.10176
0.0112196
0.00895399
-0.658033
-0.110645
-0.684383
-0.0980471
-0.63304
-0.647961
-0.00954523
-0.545506
0.00531402
-0.0846918
-0.0649808
-0.502174
0.00528042
-0.0657907
0.0421758
-0.051154
-0.614398
-0.0908783
0.00316945
-0.579048
0.00321645
-0.106735
-0.636901
-0.257073
-0.603053
-0.0618459
0.000812068
-0.103135
-0.646816
-0.0271271
0.0104229
0.0284353
0.0138933
0.0120418
-0.0510511
-0.0422876
0.00730414
-0.0527258
0.00236052
-0.0143715
-0.569998
-0.114398
-0.691013
0.000936337
-0.00406572
-0.617013
-0.0592997
0.00198456
-0.663116
-0.463083
-0.0663597
-0.00413142
-0.0178384
-0.10459
-0.573692
-0.381636
-0.140695
-0.126543
-0.00630398
-0.677331
-0.36435
0.00778477
-0.140032
-0.172196
-0.0027638
-0.105886
-0.099521
-0.0516272
-0.0688219
0.00368615
-0.0976265
-0.0879843
-0.041658
0.00923733
-0.150689
-0.420512
0.0187493
0.0093881
0.0292037
0.0243085
-0.00266247
0.00492406
-0.056636
-0.0703131
-0.473227
0.0201247
-0.420436
0.00209109
-0.652931
-0.596638
-0.12735
-0.0679621
-0.0483072
0.0101303
0.00919102
-0.092819
0.00308958
-0.577369
-0.0199023
0.0221423
0.00838725
-0.02605
-0.180788
-0.607458
-0.471839
0.0455449
0.0127641
0.00873139
0.000978448
-0.0322508
-0.0409223
-0.628046
-0.156066
0.00920349
-0.0369643
-0.0543379
-0.360024
-0.444924
-0.0516455
0.0142157
-0.039694
0.00733506
-0.0602878
-0.0716625
-0.652562
0.0185037
0.0119286
-0.0339698
-0.0610285
-0.595541
-0.0717366
-0.0112026
0.0159782
-0.0201765
0.00922035
-0.176029
-0.256915
-0.347168
0.00579932
-0.66557
-0.250883
-0.00121021
-0.0461953
-0.579562
0.00364393
-0.498675
-0.0323403
-0.39459
-0.647946
-0.577818
-0.0737319
-0.0685863
0.0130672
-0.171217
-0.588768
-0.177275
-0.0416046
-0.671559
0.00501282
-0.239888
-0.645418
0.0235565
0.0252529
0.0210454
-0.527633
-0.677757
-0.637967
-0.0781441
-0.637019
0.00958446
-0.656775
0.0243758
-0.571775
0.00895684
0.000324163
-0.614927
-0.371159
-0.417388
-0.0943868
0.00245952
-0.0195748
-0.589716
-0.409308
-0.0315417
-0.111075
0.019516
-0.0461541
-0.0523718
0.0107816
0.072842
-0.231754
-0.0639338
0.0251237
-0.669108
0.0131972
-0.684586
0.0269394
-0.0120917
-0.158177
-0.656688
-0.0694291
-0.574958
0.0100537
-0.0413288
0.0226948
0.0102489
-0.287052
0.0160679
-0.585686
-0.564131
0.0107174
-0.249522
0.00135063
-0.697506
-0.758702
-0.643624
-0.0521805
0.0103487
-0.550576
0.0279028
-0.194959
0.0248024
-0.0353111
-0.0548224
0.0137817
-0.0994615
0.0053565
0.00803964
-0.00423912
0.0215445
-0.0439179
-0.622035
0.0123184
0.00642391
-0.363923
-0.128049
0.0240942
-0.0250029
-0.562099
0.00560025
-0.629379
-0.371834
-0.410017
0.00728588
-0.0493348
0.00819058
-0.601628
0.0271829
-0.028139
-0.00649308
0.0101153
-0.0617291
-0.612863
0.00181436
-0.278177
-0.072701
-0.00161438
-0.270485
0.0115006
-0.110237
-0.678289
-0.000611325
0.0208549
-0.0233927
-0.072163
-0.0751469
0.00153486
0.0365046
-0.560805
-0.0656744
0.00428168
0.0111753
-0.0289679
-0.637721
0.0232821
0.00720191
-0.392748
0.00961227
-0.395363
-0.0272814
-0.223255
0.0142641
0.000597748
-0.00489546
-0.111732
-0.603361
0.0127109
0.00582043
-0.0428385
0.0126355
-0.0312239
-0.0498887
-0.00281677
-0.633288
-0.000134325
0.004121
-0.0192719
-0.919081
-0.690546
-0.0215749
-0.417524
0.014336
0.0117856
-0.0364408
-0.277614
-0.0107992
0.0181093
-0.639137
-0.0612493
-0.0700673
-0.677489
0.0149736
0.0485264
0.0130967
-0.0134797
-0.650588
0.0242182
0.00900256
0.0158351
0.00600032
-0.343835
-0.538299
-0.0774395
-0.589074
-0.0462795
-0.0601937
0.0195066
-0.105009
0.000756768
-0.631742
-0.386478
-0.0656728
-0.0212367
-0.0612442
-0.00266396
0.0102441
-0.0971531
0.0148568
0.00892097
-0.173797
0.027704
-0.694755
-0.605086
-0.299896
0.000403812
-0.599371
-0.0711054
-0.568579
0.00949241
0.0162486
-0.161721
-0.0396533
0.0112841
-0.233355
0.00863048
-0.285876
0.0251934
0.00222639
0.0199845
-0.0243288
-0.470569
-0.0982024
0.020065
0.0181628
0.0117603
-0.273181
0.0112826
-0.30458
0.0126481
-0.659851
-0.74313
-0.367519
0.0254263
0.0108521
-0.365105
-0.000771963
-0.111968
-0.0978704
0.0118822
-0.0586601
-0.152004
-0.041976
-0.919702
0.00983061
-0.643423
-0.0810976
0.0182369
0.0170424
-0.197926
-0.673977
-0.0422615
0.011095
-0.580858
-0.317622
-0.0604227
-0.0134823
-0.00870882
-0.179415
-0.378066
-0.616995
0.0231852
-0.00381834
0.0132507
-0.257143
0.0100608
-0.0977662
0.0111189
-0.592565
-0.59592
-0.127894
-0.00438057
-0.0121015
-0.575212
-0.154713
0.00398639
-0.493697
-0.643875
-0.017557
-0.0451138
0.0112441
-0.15378
-0.0854012
-0.174482
-0.0238885
0.0135034
0.00848994
0.00710699
-0.64878
0.00167381
0.0152216
-0.00243509
-0.556866
-0.579562
-0.00197191
-0.18217
0.0122308
0.0112905
-0.626382
-0.411105
-0.671241
-0.310783
-0.624266
0.0265198
-0.586632
-0.107734
0.0544379
0.00977842
0.0161866
-0.00266847
-0.370395
0.00362033
0.0207922
-0.00266697
-0.650513
-0.238816
-0.0490548
-0.0512562
-0.759616
0.0157087
-0.0620098
-0.0536003
-0.0259309
0.00530006
0.0149663
-0.0158559
-0.0636297
-0.0274016
-0.0633606
-0.0342129
0.00295602
-0.0976172
-0.902657
-0.383104
-0.306861
-0.37438
-0.658667
-0.669003
-0.0070779
-0.463679
0.0153696
0.0163833
0.0116318
-0.0918156
0.000542816
-0.0273426
-0.0556447
0.0026045
-0.054743
-0.00390056
0.00632529
0.0213445
-0.655492
-0.606023
-0.00346354
0.0101602
-0.0623988
-0.0424966
-0.639283
-0.0544894
0.0245336
-0.0079609
-0.203648
-0.0153172
0.00766646
0.00677192
0.0133522
-0.445961
-0.264454
-0.634539
-0.640406
0.00143614
-0.0958832
-0.0791235
-0.102954
0.000168509
-0.23949
0.0126609
-0.0621154
-0.0448817
-0.029992
0.00958839
0.0121251
-0.550652
0.0131175
-0.147238
-0.216145
0.011924
0.00647115
0.00927837
0.0145541
0.0146514
0.00524567
-0.0558984
-0.562402
-0.0674049
-0.0415246
0.0254252
-0.0380032
-0.630542
-0.643908
0.0138646
-0.0319772
0.0141922
0.0136382
0.0133278
0.00745461
0.00579735
-0.0690911
-0.054332
-0.0661643
-0.634488
0.0020974
-0.0130566
-0.175664
0.0103482
-0.00237047
-0.183669
-0.0358142
-0.00692863
-0.0328383
-0.622114
-0.670007
0.00979319
-7.86769e-06
-0.00112804
0.0145737
0.0135592
-0.403814
-0.00508477
0.0134585
0.0345505
-0.496676
-0.675391
-0.0044274
-0.103208
0.00627503
-0.667363
-0.472404
-0.00737224
-0.042883
-0.118584
0.0117381
-0.165874
-0.146609
-0.0367346
0.021004
-0.639487
-0.508375
-0.784955
0.00521875
-0.307145
0.00287403
-0.618969
-0.646825
-0.0552062
0.0141455
-0.653944
0.0181036
-0.461701
-0.0258024
-0.488121
0.013591
0.00845364
-0.0297364
-0.60509
-0.31041
0.056013
0.0067382
0.00651646
-0.894596
-0.595552
-0.167058
0.00760321
-0.405777
-0.571003
0.0201331
-0.669886
-0.457389
-0.59859
-0.461333
-0.570664
-0.661227
-0.619802
0.0121771
-0.491257
-0.553375
0.00439702
-0.0862054
0.00922934
-0.578885
0.00571309
-0.0660335
-0.582337
-0.06565
-0.625245
-0.264774
-0.0613202
0.00847738
-0.65517
-0.267075
-0.630727
-0.0321684
-0.175324
-0.0535115
0.0583619
0.00459446
-0.582941
0.00842029
-0.0420063
-0.0609391
-0.0464377
-0.497137
0.0228738
0.00859631
-0.610691
0.00533644
-0.0234085
0.0614685
-0.0537255
0.0392845
-0.0273799
-0.00363752
-0.647601
-0.665793
-0.00308439
-0.0825293
-0.531363
-0.104087
-0.552997
0.00755451
-0.00809824
-0.0302862
-0.0912446
0.00807076
-0.0346919
-0.0383402
0.00729651
-0.333947
-0.601846
0.00709738
0.000101187
-0.375525
-0.382842
-0.612765
-0.0828152
-0.0296746
0.0014579
-0.230092
-0.550277
0.00923356
-0.584502
0.00778692
-0.675057
-0.047989
-0.0235548
-0.223758
-0.302165
0.0230278
-0.0172343
0.0172991
-0.0630204
-0.370809
-0.587858
0.00264913
-0.635025
-0.661157
-0.198716
0.0106359
0.00754787
-0.003287
-0.255951
-0.220406
-0.0396257
-0.619349
-0.552531
-0.0944122
-0.0166521
-0.319659
-0.271919
-0.0159744
0.00030073
-0.0956586
-0.617579
-0.0564525
-0.567437
0.0139091
-0.0287367
-0.0350973
-0.661634
-0.604196
0.00826579
0.0177958
0.0064885
-0.533606
0.0080083
-0.583894
-0.957105
-0.47348
-0.512117
0.0225216
0.00255757
-0.928116
0.0170052
0.00430988
-0.00343863
0.0171206
-0.00795336
-0.293722
-0.647475
-0.510414
0.00455306
-0.0262749
0.0114832
0.00313126
-0.186382
-0.380857
-0.0306085
0.0113987
-0.336705
-0.0847547
0.00899454
-0.0961118
0.0129782
-0.225931
0.00824847
-0.00976398
-0.0993332
-0.591561
0.061639
-0.684549
-0.477667
-0.0399048
-0.0840022
-0.0812294
-0.628014
-0.56648
0.009919
0.0157838
-0.498304
-0.643896
0.000843038
-0.683439
-0.531111
-0.0605997
-0.62888
0.0103582
0.00783401
-0.655205
-0.676856
-0.0323744
0.0174485
-0.0286855
0.0139688
-0.622586
-0.628646
0.0120696
-0.579558
0.0305841
0.0176203
-0.631185
0.00974828
-0.551554
-0.250563
-0.601404
-0.512901
0.0112138
0.0117973
-0.173261
-0.0340846
-0.640707
0.00515689
-0.267222
-0.631192
-0.00733425
0.0109135
-0.4263
-0.0641579
0.00364665
0.0177105
-0.295488
-0.584877
0.0154926
0.0185391
-0.630614
0.0131657
-0.0578361
-0.0700784
-0.609207
-0.111166
0.011722
-0.856273
0.0135178
0.00287724
-0.0581207
-0.0815704
-0.653879
-0.0479468
-0.0618587
0.00831291
-0.525841
0.00902695
0.00483382
-0.632167
-0.631415
-0.638478
-0.130478
0.0134185
-0.483783
-0.0910318
0.00679758
0.0115189
-0.0265402
-0.728736
-0.109798
-0.00363783
-0.0252446
-0.081447
-0.103353
-0.61943
-0.584845
-0.0518133
-0.422599
-0.123157
-0.276201
-0.415359
0.0120067
0.0124461
-0.0372285
-0.0716699
-0.516515
-0.650929
-0.48986
-0.634929
-0.624998
-0.610371
-0.334255
-0.0547771
-0.668021
-0.681068
0.00251731
0.0183887
-0.256627
-0.0123017
0.0224521
-0.672419
-0.658572
-0.61796
-0.0821772
-0.0425623
-0.782314
-0.249139
0.0137167
0.0394669
0.0738952
-0.626894
-0.52017
-0.581141
-0.0211766
-0.826667
-0.666658
0.0119341
-0.677596
0.0176355
-0.114161
-0.331853
-0.0449654
0.00362077
-0.611737
-0.0825969
-0.006131
-0.0719622
0.0217187
-0.0340557
-0.604167
-0.637977
-0.60589
0.00791013
-0.476939
0.0151611
-0.189381
-0.651514
-0.0568223
-0.332263
0.00796608
-0.651735
-0.0934013
-0.820193
0.0149564
0.0143985
0.0147056
-0.983957
-0.0474602
0.0205529
-0.673292
-0.0834959
-0.583987
-0.606332
-0.626368
-0.33692
-0.0639807
0.0262467
-0.7273
0.0132304
-0.0206466
-0.303015
0.00324321
-0.643976
0.0110524
-0.0124668
-0.642935
-0.460784
-0.00914267
-0.413015
-0.676205
0.0132807
-0.702317
-0.0581015
0.0133239
-0.0149074
-0.38879
-0.678207
-0.628489
-0.639777
-0.0273788
0.00839881
-0.443863
0.0205538
-0.62456
0.0146086
-0.676234
0.0177647
-0.398997
0.0290223
-0.626512
-0.145557
0.0176512
-0.657013
0.0167817
-0.665626
-0.130571
0.00525516
0.0600674
0.021241
-0.0300115
-0.605719
-0.655524
-0.153576
-0.0125218
-0.661948
-0.673087
-0.675283
-0.000367113
-0.040026
0.00768232
-0.0630106
0.0146599
0.0535943
-0.352863
-0.617736
-0.0663474
-0.596232
-0.0893102
-0.359701
-0.611737
-0.287549
-0.0590995
-0.603826
-0.391621
-0.250316
-0.0814057
-0.644623
-0.424829
0.0151962
-0.632011
-0.00846481
-0.322215
-0.601972
-0.598061
-0.803247
-0.682179
-0.641896
0.00677537
-0.587824
0.0173909
-0.620141
-0.0449858
0.0750891
-0.072125
-0.535423
-0.569603
-0.00458906
-0.0303573
0.0056444
0.0209453
0.00888362
0.0344467
-0.169105
-0.0442134
-0.632576
-0.675795
-0.296574
-0.637225
0.0132663
-0.66951
-0.0777992
-0.331545
-0.66201
0.0136454
-0.541412
-0.597062
0.0192466
-0.598607
-0.573905
0.0149624
-0.57287
0.0268747
-0.0957216
0.00539095
-0.720617
-0.372671
-0.119781
-0.594394
-0.638314
-0.0906378
-0.646424
-0.0635442
0.00263347
-0.424398
0.0274703
-0.606647
-0.0617348
-0.621836
-0.0070534
-0.607893
-0.0876418
-0.596154
0.0207624
-0.00782104
-0.441538
-0.0712974
-0.609289
-0.60819
-0.0372926
-0.38578
-0.651089
0.0101731
-0.577047
-0.362918
-0.0871144
-0.627042
-0.0537305
-0.539666
0.0115661
-0.00602526
0.0124512
-0.149972
-0.605863
-0.600806
-0.633852
-0.370573
0.00919718
-0.256962
0.00304212
0.00218774
-0.506838
-0.60492
0.00932021
-0.598059
-0.113178
-0.588655
-0.58815
-0.681217
-0.581782
-0.160771
-0.556682
0.0174991
-0.19901
0.00961267
0.014068
-0.622088
-0.219423
0.00448955
0.0141879
0.0106354
0.0118019
0.00595473
-0.0692696
-0.586252
-0.675019
0.00283161
0.00699889
-0.519135
0.0196857
-0.0496221
-0.601295
0.0123639
0.0131808
0.00451342
-0.602736
-0.0283065
0.00886387
0.00413674
-0.0608087
-0.42229
0.0113987
-0.403899
-0.335938
-0.600191
-0.185614
-0.0996403
-0.576307
-0.661198
-0.608357
-0.0420701
-0.012289
-0.629586
0.000994175
-0.584817
-0.122918
-0.636426
-0.381749
-0.00264008
-0.598527
-0.580549
-0.330878
-0.345513
-0.582477
-0.586394
-0.565822
-0.0160097
-0.0122973
-0.287385
-0.464962
-0.596727
0.0088126
-0.322613
0.0207475
-0.563128
-0.644332
-0.524855
0.00774478
-0.0993795
0.0182076
-0.0397616
-0.290042
-0.165666
0.0140714
0.0210774
-0.269256
-0.565864
-0.28081
-0.295382
-0.680793
0.0129996
-0.0202394
-0.537536
0.0174766
0.0133983
-0.679565
-0.192242
-0.102701
-0.262958
-0.640998
-0.221211
-0.678438
-0.25545
-0.560178
-0.0402132
-0.589711
-0.619296
-0.566918
-0.185216
-0.62234
-0.0150161
-0.622725
-0.556138
-0.582154
-0.420197
-0.641479
-0.346444
-0.669722
-0.0449193
0.0154772
-0.0681253
-0.0213453
-0.599599
-0.544985
-0.357364
-0.0100327
-0.0113857
-0.498382
-0.385916
0.0107421
0.00453793
0.00847715
-0.753131
-0.0156308
-0.0439841
-0.602152
-0.0249365
-0.119656
-0.614245
-0.190073
-0.555157
0.00654604
-0.445925
-0.646208
-0.025844
0.0142873
-0.000831403
0.0206934
0.00338755
-0.00273097
0.00420151
0.0206645
-0.583361
0.0120055
-0.532993
-0.532469
-0.625911
-0.353147
-0.540335
-0.362589
-0.0438117
0.0129471
0.0108076
-0.123764
-0.593101
-0.505749
0.0114174
-0.265551
-0.0586643
0.0098758
-0.674114
0.000937205
-0.583322
-0.331315
-0.3212
-0.0439679
-0.625961
-0.389074
-0.0135918
-0.265267
-0.366969
0.0128921
-0.341749
-0.508524
-0.11022
-0.605142
-0.581291
-0.4088
-0.43581
-0.00260022
-0.653735
-0.838666
-0.428313
-0.0867169
-0.580516
-0.00530827
-0.248089
-0.223679
-0.171939
-0.239293
0.0121078
0.0113852
-0.59624
0.0156963
-0.636687
-0.586231
-0.0538472
-0.36114
0.0102485
0.00630153
-0.56283
0.00648781
-0.00962232
-0.601575
-0.0460325
-0.00591222
0.0240454
-0.368062
-0.677238
-0.195523
-0.631879
0.0200629
-0.177261
-0.366975
-0.437643
-0.0429231
0.0179111
-0.60251
-0.563392
-0.140663
-0.111392
-0.130605
-0.232168
-0.0102615
-0.00108463
-0.454438
-0.300468
-0.5591
-0.00678541
-0.00210916
-0.558008
-0.673894
-0.0294683
-0.218834
-0.451319
0.0498792
0.00110216
-0.0015467
-0.604084
-0.0392592
-0.846552
-0.595641
0.0256491
-0.169191
-0.451067
-0.0635857
-0.0854189
-0.625903
0.0136597
-0.0533608
-0.425068
-0.0111512
0.028319
-0.0949854
-0.159952
-0.576644
-0.146175
-0.665577
0.0424722
-0.00832773
-0.0628782
0.0135814
-0.561947
-0.617085
-0.0451109
-0.0129383
0.0167219
-0.105929
-0.051845
-0.609248
-0.489776
-0.067346
-0.0307646
-0.202151
-0.377354
-0.272734
-0.683617
0.00788207
-0.374415
-0.0364143
-0.633232
-0.592364
0.0167225
0.0101954
-0.0373474
-0.62854
-0.359232
0.024873
-0.670947
-0.541256
-0.00835937
0.00322149
-0.674424
-0.745076
0.0105979
-0.228756
-0.447101
-0.343415
0.0120301
-0.165296
-0.0376619
-0.238635
-0.276185
-0.419505
-0.572268
-0.170459
0.0141299
0.0165103
0.015255
-0.50276
-0.445472
-0.472878
-0.0719658
0.0133637
-0.19835
-0.155297
0.00662649
-0.108131
0.000554765
-0.0651226
0.0122399
-0.587754
-0.0597851
-0.0399042
0.0130067
0.00536396
0.000528981
-0.645405
0.0144246
-0.0314433
-0.0288677
-0.632701
-0.579545
-0.0870923
0.00539749
0.0159466
-0.0943405
-0.409914
-0.592949
-0.284053
-0.568167
-0.588567
-0.147707
-0.0404348
-0.646636
-0.0254716
-0.366615
-0.26616
-0.121407
0.000202427
-0.177886
-0.138044
-0.670981
-0.00869588
-0.069577
-0.885053
-0.0865509
-0.621543
-0.103509
0.0125994
-0.150993
-0.0487064
-0.028631
-0.629542
0.0144154
0.00327918
0.0694007
-0.173741
0.00116658
-0.0296463
-0.568387
0.000820213
-0.0463925
-0.594907
-0.0549888
-0.177773
0.00814216
-0.550645
-0.0087108
-0.056658
0.0195347
-0.00258293
-0.669906
-0.755145
0.00952773
-0.0351837
-0.132208
-0.457991
-0.178867
0.0169542
-0.119514
0.050818
-0.00992812
-0.279003
-0.059934
-0.579587
0.0603682
-0.021269
-0.199974
-0.640996
-0.303122
-0.576261
-0.668321
-0.174195
-0.0150426
-0.12224
0.014536
-0.31648
-0.0491522
-0.0259089
0.024059
-0.164573
-0.250426
-0.00548002
-0.0129525
-0.034947
0.00951632
0.00316012
-0.0191859
0.0204211
-0.241287
0.00828962
0.0133215
0.0157647
-0.659915
-0.0568283
-0.00779825
-0.0337397
-0.264713
-0.280429
-0.268873
-0.196095
-0.572794
0.00895295
-0.171554
-0.665071
-0.00895069
-0.228055
-0.230035
-0.0532826
-0.222291
0.0167182
-0.64612
-0.0428686
-0.40227
-0.238418
-0.219985
-0.0753926
-0.00715258
-0.506196
-0.47565
-0.305411
-0.0376331
-0.0873583
0.0204465
-0.0703549
-0.0676344
-0.102738
-0.628757
-0.584091
-0.0516014
-0.628438
-0.0167548
-0.15754
-0.00469051
-0.312466
-0.607549
-0.574901
-0.00182667
0.0159437
-0.0213957
-0.0659257
0.0415258
-0.00816615
-0.0259991
-0.106588
-0.160688
-0.098586
-0.240655
-0.558408
0.0130458
-0.0347711
0.00834429
0.00560982
-0.0539864
-0.0576825
-0.0350455
-0.633213
-0.0866025
-0.0708448
-0.126879
0.0249503
-0.102599
-0.636638
0.00650158
0.0190629
-0.0120939
-0.226873
-0.0860811
-0.658696
-0.0148414
-0.0405977
-0.0635152
-0.073062
0.00646279
-0.673456
-0.0420562
-0.0909183
0.0119767
-0.223135
-0.914634
0.0154327
-0.599636
-0.100891
-0.00677454
-0.076608
-0.0150553
-0.0141906
0.0357155
-0.662653
-0.0351751
-0.444609
-0.0268624
-0.644388
-0.261596
-0.104831
-0.634954
0.00534616
-0.461558
-0.00458955
-0.340762
-0.0550744
0.0680868
-0.625579
0.0145349
-0.523752
-0.32522
0.0291436
-0.0257133
-0.211572
0.00815119
-0.490844
-0.621475
-0.613359
0.0156381
-0.375394
0.00519062
0.028797
-0.0489322
-0.517165
-0.626695
-0.0281618
0.00539145
-0.0990246
-0.0831157
-0.0619378
-0.056362
-0.0507611
-0.674635
0.0162025
0.00950557
-0.0287694
-0.02392
-0.0938318
-0.0232096
-0.650915
-0.00422118
-0.0502589
-0.0188943
-0.274018
-0.0785013
0.00262313
-0.095916
-0.142134
-0.0814778
-0.0886773
-0.0197026
-0.10315
-0.780562
-0.0793784
-0.0601485
-0.0143879
0.0145043
0.070661
0.00866702
-0.0813234
0.0518585
-0.331489
-0.0678849
0.0057834
-0.0300566
0.00771027
-0.614357
-0.0698323
-0.0155877
-0.0859409
0.0785395
0.0115768
0.00723894
0.00533565
-0.1938
-0.324503
-0.0743326
-0.148189
-0.145033
-0.054894
-0.00184559
-0.0933107
-0.0447465
-0.0360485
0.00408857
-0.0197836
0.0019641