/*--------------------------------*- C++ -*----------------------------------*\
| =========                 |                                                 |
| \\      /  F ield         | OpenFOAM: The Open Source CFD Toolbox           |
|  \\    /   O peration     | Version:  v2012                                 |
|   \\  /    A nd           | Website:  www.openfoam.com                      |
|    \\/     M anipulation  |                                                 |
\*---------------------------------------------------------------------------*/
FoamFile
{
    version     2.0;
    format      ascii;
    class       volScalarField;
    location    "150";
    object      k_0;
}
// * * * * * * * * * * * * * * * * * * * * * * * * * * * * * * * * * * * * * //

dimensions      [0 2 -2 0 0 0 0];


internalField   nonuniform List<scalar> 
13851
(
0.000153502
0.00252264
0.00019777
0.000153112
0.000189757
0.000185526
0.000146473
0.000179051
0.000139013
0.000218617
0.00364414
0.0164806
0.0110309
0.0286888
0.00014382
0.000167114
0.000156947
0.000166509
0.000304545
0.000138925
0.000152517
0.000195875
0.000145214
0.000149773
0.000147106
0.000180011
0.00015565
0.0066215
0.00015302
0.000156705
0.000181215
0.000157559
0.000196993
0.00543797
0.000148538
0.000199687
0.000140894
0.000239146
0.000229701
0.00529209
0.000144775
0.00013224
0.012476
0.00398842
0.00447844
0.0168513
0.00388061
0.0109243
0.000156046
0.00279142
0.000184206
0.000196205
0.0275644
0.00014493
0.000150301
0.000132328
0.000142256
0.0116724
0.000156162
0.000147157
0.000259244
0.0224044
0.000544127
0.000192467
0.000292412
0.000157343
6.74786e-05
0.00351035
0.000167443
0.000166092
0.0153496
0.00255642
0.00328842
0.000146451
0.000140149
0.000141662
0.000194312
0.0182191
0.000177882
0.0175753
0.000148968
0.00259678
0.000143816
0.0215793
0.000274844
0.0165459
0.000212639
0.0295651
0.000157683
0.000141538
0.000199585
0.000252675
0.0033281
0.000161144
0.000157186
0.000148026
0.00018997
0.0322492
0.00319342
0.000149085
0.0385024
0.000178173
0.000150319
0.000154485
0.000143723
0.000290169
0.000180018
0.000131324
0.0132193
0.000302831
0.000150549
0.000142085
0.000182617
0.00015339
0.000149559
0.00162613
0.0325495
0.000130868
0.000153477
0.000153599
0.0123215
0.000154497
0.0136204
0.00249071
0.0111655
0.00014834
0.0105776
0.000178116
0.000152186
0.000203667
0.000144479
0.000138901
0.018551
0.000143799
0.000633286
0.000139492
0.000130752
0.00216904
0.0212106
0.0289533
0.0374012
0.000150222
0.000150934
0.000135955
0.000153656
0.0032788
0.00034625
0.000205242
0.000146299
0.00463514
0.000184383
0.000150742
0.0308561
0.000142547
0.00015261
0.000153551
0.000142103
0.00015384
0.000196452
0.000184141
0.000133457
0.00016087
0.0138858
0.000138797
0.000162793
0.000134108
0.000431053
0.000167878
0.000151765
0.01749
0.0158039
0.000136467
0.000142263
0.0292788
0.000138707
0.0105786
0.000177489
0.000150516
0.000890735
0.000131614
0.000158858
0.00437708
0.000143686
0.00019711
0.000131548
0.000145762
0.000157567
0.000146149
0.000194478
0.000223488
0.003531
0.0267208
0.000143484
0.000168003
0.0219863
0.000152167
0.000149366
0.00325482
0.000149577
0.000141904
0.000146304
0.0166246
0.000161857
0.000143186
0.000203403
0.000143834
0.01249
0.000157088
0.0292351
0.000132083
0.0356912
0.000149854
0.00289392
0.000131208
0.000135237
0.00296289
0.000256489
0.0148066
0.000143289
0.0304473
0.000157452
0.000149173
0.0336567
0.000198374
0.0382176
0.000147252
0.000163601
0.000146065
0.0276481
0.000131281
0.000179034
0.000301807
0.000136277
0.000142738
0.00018218
0.000186804
0.0119031
0.000138279
0.000135864
0.00014329
0.000134865
0.00482466
0.000136589
0.000212311
0.000140538
0.0373389
0.00017873
0.00436443
0.000153848
0.000158654
0.000181625
0.0050944
0.000149232
0.00015399
0.00017756
0.0119404
0.000220224
0.00403537
0.00481946
0.000144167
0.000135351
0.000163532
0.00297888
0.000138859
0.00324644
0.000152118
0.000149051
0.000160526
0.0320689
0.000207869
0.000189271
0.000152605
0.00051763
0.000176344
0.000166173
0.000138976
0.00272336
0.000735912
0.0382128
0.00395562
0.000136744
0.000131667
0.000143324
0.00017679
0.00507858
0.00924951
0.000140322
0.000143983
0.000610405
0.0026788
0.000204463
0.000155403
0.000147339
0.000169835
0.00257625
0.00310436
0.000161323
0.0130669
0.00013919
0.0376046
0.000160378
0.000156836
0.0378631
0.000147656
0.000355776
0.0360275
0.000139992
0.000173707
0.000161399
0.000154812
0.0208202
0.00016178
0.000149078
0.0338737
0.000132741
0.000159052
0.000151143
0.0364186
0.000194324
0.00014338
0.000178033
0.000143641
0.0128239
0.000190676
0.000144733
0.00014479
0.000193216
0.00016285
0.000152316
0.000143993
0.000147446
0.000148887
0.0043268
0.0419801
0.0203358
0.000173193
0.0359712
0.00645895
0.000142958
0.000168676
0.000202548
0.000544437
0.000205008
0.000192823
0.00109506
0.000159959
0.00760289
0.0367443
0.000143631
0.00149115
0.00146341
0.000251466
0.000152249
0.000212869
0.0271836
0.000142626
0.0086846
0.00014474
0.000143665
0.000138436
0.000131375
0.000141309
0.0367891
0.00464152
0.000144585
0.0001727
0.000133441
0.0113495
0.000171535
0.00749024
0.0199169
0.000144757
0.000176428
0.000161593
0.00838806
0.000143705
0.000131088
0.000180268
0.0390504
0.000142922
0.0201922
0.000422862
0.000194927
0.0155705
0.00272872
0.00274477
0.00019338
0.000139335
0.000150326
0.000170378
0.000177675
0.0293187
0.000168054
0.0375562
0.0362784
0.00013355
0.000144254
0.0179709
0.0200286
0.000336543
0.0328791
0.000182104
0.000162409
0.000148926
0.00348689
0.000137587
0.000166775
0.000173855
0.000145877
0.000145088
0.000139752
0.000134011
0.000191103
0.000193852
0.0167164
0.000167301
0.000179175
0.000180454
0.00496647
0.000160061
0.000365733
0.000156329
0.0032631
0.000130605
0.00013949
0.000147705
0.00021026
0.00510486
0.000198918
0.000179014
0.0124067
0.00520564
9.53576e-05
0.000155438
0.000182496
0.000143405
0.0051262
0.000143455
0.000112597
0.00334412
0.00019554
0.0268089
0.000151042
0.00140884
0.00343819
0.0342799
0.000130488
0.000163988
0.000178348
0.000141793
0.000137112
0.000148884
0.000183468
0.000195004
0.000174125
0.00762315
0.000146365
0.000145332
0.0216249
0.000163998
0.000131487
0.0263185
0.000139254
0.00015352
0.000137772
0.000176198
0.000152623
0.000131845
0.00015023
0.032778
0.000143962
0.000169503
0.000138492
0.000191459
0.00244866
0.000155044
0.000144585
0.000154329
0.000154434
0.00862627
0.000148993
7.84365e-05
0.000143648
0.000146828
0.0287526
0.0252533
0.000144094
0.000176131
0.000160317
0.00481237
0.0198092
0.000145381
0.00465204
0.000143928
0.000191886
0.000146444
0.0259427
0.000131529
0.0271486
0.000225159
0.00013238
0.000183009
0.027024
0.000180243
0.004109
0.000151518
0.00385997
0.000154058
0.000138281
0.000139118
0.000145799
0.0240885
0.000183223
0.000195739
0.000506221
0.000198065
0.000133832
0.0181309
0.00515544
0.000159086
0.000161106
0.00449326
0.00224834
0.0335586
0.000151416
0.0260394
0.0194964
0.0148049
0.0001628
0.000150617
0.00589335
0.00137667
0.014294
0.00309705
0.000488536
0.000154334
0.00180613
0.0106799
0.000130724
0.000796629
0.000183247
0.0208334
0.000154239
0.000142688
0.000141782
0.000143797
0.000193148
0.00017928
0.0296445
0.00622746
0.000138368
0.0195527
0.0262372
0.00338962
0.00432379
0.00016889
0.000131169
0.000139283
0.00171705
0.0217689
0.000152878
0.0001877
0.00020271
0.000132199
0.00019344
0.00270911
0.000289949
0.0001936
0.0253246
0.0100768
0.000144234
0.000145975
0.0207853
0.0360569
0.000194822
0.00016777
0.0012893
0.00013156
0.000141927
0.00112776
0.000131985
0.00015408
0.000131507
0.00013901
0.0125991
0.000191838
0.0001712
0.000131894
0.0198485
0.00364347
0.00013937
0.000140152
0.000139153
0.000147639
0.0379775
0.00353306
0.00296988
0.0117551
0.00520877
0.000166202
0.0171607
0.0266808
0.000162655
0.000168016
0.00013115
0.000151619
0.000169125
0.0296558
0.00753954
0.000187361
0.00016294
0.000138507
0.000166356
0.000148881
0.00379995
0.000185523
0.000143522
0.000176533
0.000137113
0.000160039
0.000199689
0.000146859
0.000143207
0.000172143
0.000146915
0.00019093
0.000236083
0.000197593
0.000166739
0.000196096
0.000138336
0.000148892
0.000187659
0.00904744
0.000149636
0.000148618
0.0105031
0.000155358
0.0163098
0.0367174
0.016762
0.0264942
0.000137536
0.00436155
0.000137027
0.00013934
0.000131736
0.000139408
0.000148117
0.000169259
0.000174642
0.000131729
0.00320862
0.000227191
0.00543855
0.000141135
0.000133009
0.000140825
0.000202542
0.020362
0.000177655
0.000160464
0.000136897
0.000147433
0.000143728
0.000142801
0.000148519
0.0234969
0.000146633
0.000131649
0.0001459
0.000142689
6.76762e-05
0.0208232
0.000166873
0.0305837
0.00292252
0.000142944
0.00019504
0.0379986
0.000169081
0.0211498
0.000148947
0.000164224
0.000177341
0.000164901
0.00299635
0.000143954
0.00436105
0.000143991
0.000163596
0.0295332
0.000142576
0.000153192
0.00076724
0.000138405
0.000158086
0.00239956
0.0274382
0.000185342
0.00174563
0.00303397
0.000131322
0.000140849
0.0257599
0.000200651
0.00019059
0.0369166
0.000138462
0.000160964
0.000130794
0.00602204
0.000665455
0.000159087
0.000148717
0.00221974
0.000155725
0.000140319
0.0195936
0.00794085
0.0309746
0.000132596
0.000146501
0.0178494
0.0188305
0.000199991
0.000148149
0.0219031
0.000143905
0.00252888
0.000223592
0.00019808
0.000157377
0.0166541
0.000181953
0.000157217
0.000167494
0.00014809
0.000159522
0.000153174
0.000138188
0.021356
0.000166793
0.000193698
0.00016939
0.00109795
0.000138688
0.00173517
0.000151048
0.000193343
0.000133421
0.000142546
0.000142984
0.0357841
0.000141584
0.000131868
0.01007
0.000146226
0.0215054
0.000145362
0.000149828
0.000183458
0.00250671
0.00410706
0.000139625
0.000216317
0.0307818
0.000149135
0.0346358
0.000163375
0.000137914
9.05604e-05
0.0151674
0.000316378
0.000158984
0.000139392
0.000131428
0.00431936
0.000203333
0.000190766
0.00016077
0.00016777
0.000148804
0.000149181
0.000187756
0.00583113
0.000194137
0.00605597
0.000146235
0.000192179
0.000186397
0.0348762
0.000159056
0.0266837
1.69548e-05
0.000146337
0.0215776
0.000259386
0.0246774
0.0278296
0.0345128
0.00422172
0.000174668
0.000138036
0.000168545
0.0160885
0.0221789
0.000144307
0.000147716
0.000182744
0.00281897
0.00013248
0.0259045
0.000138167
0.000144498
0.0221556
0.0179643
0.00325327
0.000139315
0.000143747
0.0196751
0.000180317
0.000192993
0.000154442
0.0254168
0.00026224
0.0197423
0.000179661
0.000172223
0.00014906
0.000146263
0.00234122
0.000176565
0.01901
0.000188695
0.000167436
0.0219015
0.0256847
0.0236327
0.000144639
0.000164338
0.000139272
0.0001671
0.000152867
0.0203729
0.000162531
0.0338056
0.000132419
0.000183034
0.000142333
0.000230131
0.000166935
0.000164054
0.0311727
0.000173355
0.000179004
0.000150569
0.000183053
0.0101219
0.000219105
0.000154406
0.015691
0.000138295
0.0295874
0.00448224
0.000147446
0.0367771
0.0396674
0.023143
0.00412398
0.000205556
0.000144016
0.0298171
0.000161845
0.0023003
0.0295451
0.00014112
0.000151931
0.000170762
0.00411785
0.0329414
0.000146343
0.00013945
0.0154718
0.0293021
0.000194631
0.000158231
0.000151705
0.00449418
0.0229033
0.000187278
0.000131984
0.000175778
0.000138513
0.000156428
0.00198548
0.000149644
0.000666062
0.00410307
0.000144655
0.00015171
0.000144332
0.000153288
0.0165132
0.025122
0.000163513
0.0224022
0.000142265
0.000163627
0.000143663
0.000138607
0.000146998
0.000144547
0.0224708
0.000144152
0.00017731
0.000144736
0.000159192
0.00229804
0.0130589
0.000152262
0.0212151
0.000193768
0.000306555
0.000167443
0.000167942
0.0169268
0.000160055
0.000182489
0.0182025
0.00128667
0.0266585
0.000174555
0.00465263
0.00014916
0.000172366
0.00017847
0.0303697
0.000142453
0.0303148
0.000140698
0.000141291
0.0274563
0.000143738
0.00330297
0.000157836
0.000139229
0.000190073
0.0001393
0.000143823
0.000135649
0.000148639
0.000229342
0.000141279
0.000182068
0.0238576
0.000193804
0.0260984
0.000146017
0.000152594
0.000158929
0.000143971
0.000139082
0.000185405
0.000148916
0.000140945
0.000148903
0.000147005
0.0219028
0.0223883
0.000319194
0.0334071
5.38174e-05
0.000141893
0.00331444
0.000162713
0.000141141
0.00338531
0.0035515
0.00278503
0.000140606
0.00398566
0.00488621
0.028799
0.00013621
0.0109941
0.000165599
0.000155175
0.000132531
0.000138459
0.00973396
0.000124742
0.00848204
0.000142064
0.000143435
0.0103307
0.000147556
0.000242786
0.00437612
0.00396395
0.000772053
0.00508066
0.000146508
0.000144392
0.000220128
0.000188214
0.00015496
0.000217172
0.00017566
0.000149127
0.000151429
0.0203766
0.000141154
0.0219259
0.00467882
0.00107883
0.000226824
0.000151798
0.000136713
0.000148103
0.00379413
0.00520363
0.000136307
0.00015544
0.000141874
0.000185231
0.000133171
0.000141419
0.000149391
0.000167239
0.000449971
0.000182695
0.000172782
0.000143082
0.000177229
0.00576666
0.000150375
0.0201298
0.000265368
0.000185602
0.000134417
0.000174255
0.000142679
0.000144871
0.000147698
0.0182348
0.00019364
0.00559644
0.000155013
0.00283566
0.000143068
0.000144756
0.000147695
0.00338366
0.00836514
0.00013313
0.000166826
0.000200817
0.0256316
0.000155068
0.00450115
0.0001451
0.0156644
0.000203651
0.031493
0.000187915
0.000185384
0.000254725
0.0274999
0.00512152
0.0157765
0.000142411
0.000354666
0.00013304
0.000154512
0.00015879
0.000147189
0.0273357
0.000163755
0.000161096
0.00439571
0.000197643
0.00987396
0.000143501
0.000154341
0.000159841
0.000137429
0.000171421
0.0163143
0.00744419
0.00947324
0.000140194
0.000160192
0.00015646
0.00245482
0.032054
0.000185337
0.000136594
0.000148565
0.0245802
0.000179271
0.00408825
0.0192169
0.000403108
0.00013428
0.00798667
0.000169083
0.000175667
0.000162365
0.0354489
0.00385936
0.000203362
0.000249966
0.000150588
0.000183996
0.000144513
0.0237089
0.000190837
0.0260753
0.00102457
0.000158672
0.000197871
0.000152129
0.0348347
0.000161267
0.000141041
0.0354742
0.0307462
0.0384842
0.0136225
0.000146108
0.000144688
0.0171745
0.00582319
0.0245431
0.000152139
0.000145945
0.00014472
0.0221365
0.000200151
0.000148537
0.00508211
0.000205631
0.00802524
0.00725137
0.00851794
0.000144163
0.0189843
0.000156365
0.000144457
0.000197414
0.0214397
0.000146568
0.000140709
0.0115038
0.0339054
0.000147019
0.000140205
0.0304181
0.000139986
0.00183325
0.000140042
0.00224698
0.000144703
0.00017785
0.0091681
0.0317397
0.000151458
0.0148532
0.00377026
0.00193964
0.00310442
0.0153239
5.50421e-05
0.000142333
0.00015443
0.000155127
0.000143602
0.000137288
0.00350799
0.000142786
0.00017893
0.000140854
0.000157261
0.0174606
0.000194933
0.000168011
0.000152624
0.000202875
0.000138997
0.000166365
0.00475843
0.0319502
0.000138768
0.000184144
0.00348975
0.000147378
0.000138635
0.0298665
0.000168384
0.000168462
0.000196081
0.0285428
0.0132325
0.00242729
0.0103902
0.000156821
0.00363021
0.0051512
0.0054395
0.000184556
0.00013498
0.000194304
0.000142259
0.000140929
0.0248037
0.0297723
0.000153957
0.0357943
0.000212258
0.0211368
0.00441735
0.00124131
0.000143473
0.000449043
0.00192965
0.000141384
0.000151781
0.0358798
0.0328511
0.00240173
0.0325752
0.000171645
0.0359852
0.03641
0.000165831
0.000147002
0.000142206
0.00255114
0.000141218
0.000114469
0.000149959
0.000149997
0.000154602
0.00855838
0.0342477
0.0302811
0.000148853
0.00865789
0.000158369
0.000165214
0.000139711
0.000141031
0.00785234
0.000160567
0.0269289
0.00315006
0.00564832
0.000192149
0.000144129
0.000172151
0.000147358
0.000200378
0.000149612
0.000152317
0.000148409
0.000150145
0.000199676
0.000150037
0.000169494
0.000141899
0.000169897
0.000253724
0.017286
0.000142562
0.000177553
0.000147079
0.00331988
0.00012672
0.0155369
0.00586058
0.000165306
0.000154777
0.000152134
0.00388317
0.00014396
0.00187668
0.000143891
0.00014248
0.000148863
0.034635
0.000160443
0.000156185
0.000184538
0.000146206
0.000181712
0.0336399
0.00157276
0.000169499
0.000144503
0.00112093
0.000135656
0.000143098
0.000225899
0.0339642
0.000144411
0.000166584
0.000242757
0.00949358
0.000148707
0.000149903
0.0323557
0.000151843
0.00199285
1.5685e-05
0.0312939
0.000144899
0.000108942
0.000143071
0.0381583
0.000197216
0.000175662
0.000192359
0.0279637
0.000151064
0.0302194
0.0153594
0.000147433
0.00904409
0.000185472
0.000150268
0.00794351
0.000146073
0.000144504
0.000137778
0.000198164
0.00269312
0.000198367
0.000152577
0.000150618
0.000163339
0.00399953
8.19025e-05
0.0338681
0.00385989
0.000149648
0.000197973
0.000206265
0.0251783
0.000201029
0.00278219
0.000141331
0.000180969
0.000138616
0.0148778
0.000172317
0.000142996
0.0251034
0.0018799
0.00016734
0.000161354
0.000132238
0.000145591
0.000184595
0.000168985
0.0108678
0.000185051
0.000193748
0.00018964
0.00020248
0.0355986
0.00520054
0.0348081
0.000142774
0.000140855
0.000257838
0.0219271
0.0238298
0.000363674
0.000151074
0.0156841
0.0033501
0.000142774
0.000159314
0.000138753
0.000172778
0.00018351
0.000338305
0.0245078
0.000134369
0.000151939
0.0226891
0.0154927
0.000144078
0.000222421
0.0217074
0.0226579
0.000154848
0.000184583
0.000131226
0.000154727
0.000141673
0.000158088
0.0368805
0.0275584
0.00878772
0.0158704
0.000151712
0.000167353
0.000183209
0.000142433
0.000145954
0.000138461
0.0287288
0.000140954
0.0324916
0.000170324
0.000170579
0.000209085
0.000227069
0.0196318
0.0119729
0.000172259
0.000133779
0.000115838
0.0101683
0.00362877
0.000156761
0.000138799
0.000137715
0.000189829
0.00016483
0.000197599
0.00543403
0.000151352
0.000138028
0.000195035
0.000951005
0.0162812
0.000929276
0.000140432
0.000186224
0.00014702
0.0387142
0.000135217
0.0367201
0.000141375
0.000151152
0.000173584
0.00014753
0.00259675
0.000164131
0.000176972
0.0246641
0.0334607
0.000157678
0.000164338
0.000143327
0.0112623
0.0291406
0.000146314
0.000135459
0.00319602
0.000130512
0.0250395
0.000145821
0.000177036
0.000196014
0.00632092
0.00017459
0.000152216
0.000146059
0.000183629
0.0356834
0.000142377
0.017714
0.0399789
0.00121602
0.0231585
0.000167505
0.0227241
0.000157326
0.00021912
0.000143026
0.00419727
0.00359718
0.0224521
0.0225855
0.0257705
0.00014358
0.000482739
0.000140715
0.0129718
0.00360332
0.0356573
0.0202329
0.000160387
0.0276333
0.0103806
0.000168638
0.000152738
0.000146777
0.0269914
0.000158566
0.000183118
0.000158023
0.000147763
0.000138619
0.000146712
0.0313091
0.00024065
0.000165394
0.0245715
0.00528349
0.000142398
0.000143481
0.000138644
0.00018306
0.0358964
0.000222857
0.000158625
0.000165634
0.00436274
0.000200069
0.000175642
0.0254743
0.000164353
0.0362391
0.000163617
0.000168157
0.000143195
0.000156959
0.000186096
0.00548793
0.0045009
0.0295685
0.00019435
0.0191753
0.000168145
0.000156245
0.000146919
0.00853056
0.018058
0.00281651
0.00314684
0.000154202
0.000144645
0.000140295
0.000143874
0.000138619
0.019671
0.000163431
0.0282031
0.000165534
0.0215215
0.00161139
0.037427
0.000159771
0.000158753
0.0255028
0.000171532
0.000173863
0.0288992
0.000138202
0.00399919
0.000160775
0.0318889
0.0185127
0.000167614
0.00662663
0.00494294
0.000154906
0.000205161
0.000159796
0.00753488
0.00473754
0.000155451
0.000146095
0.00380738
0.0241134
0.000199114
0.0077341
0.000194356
0.000178969
0.000141626
0.0260905
0.0328135
0.000207388
0.000164739
0.031834
0.0244119
0.000140864
0.000144261
0.000155985
0.0354291
0.0338727
0.000143509
0.0208909
0.000149823
0.000142527
0.000147436
0.0159701
0.000325564
0.00112769
0.0228096
0.000153301
0.000152251
0.000141116
0.0209458
0.000149158
0.0172622
0.000154485
0.00372704
0.000148503
0.000142313
0.000200288
0.0190395
0.00312379
0.000169223
0.00104744
0.000135822
0.000145886
0.0001444
0.000177477
0.00018489
0.000184183
0.000176889
0.02951
0.00015588
0.000204975
0.00027489
0.0383624
0.000145951
0.0255996
0.030831
0.000156697
0.00487741
0.000182259
0.035129
0.00014704
0.000199357
0.000143597
0.000200058
0.0148126
0.000220959
0.0362283
0.000155181
0.000176141
0.000151696
0.0221686
0.000134465
0.000138758
0.00720401
0.000224126
0.0263156
0.005037
0.000181457
0.000162602
0.000137632
0.00154235
0.000170041
0.00014166
0.000200966
0.000136759
0.000174347
0.000144648
0.00145946
0.000150445
0.00353121
0.00463831
0.000173818
0.00140718
0.000186676
0.0386158
0.000145042
0.0116029
0.00154173
0.000138102
0.000144019
0.000152983
0.000148656
0.000174015
0.000142042
0.00560801
0.000184774
0.00155469
0.00619303
0.000146786
0.000149061
0.000137955
0.0137105
0.000146162
0.000144363
0.000154475
0.000155036
0.000929304
0.035295
0.000187085
0.000155157
0.000167899
0.000152181
0.000149722
0.000209492
0.000136106
0.000155042
0.00662458
0.0379421
0.000861731
0.0001521
0.0229298
0.0188409
0.000148766
0.00134552
0.0304561
0.0001436
0.000154267
0.000143077
0.012987
0.0190807
0.00385287
0.000135955
0.000155431
0.000152321
0.000146206
0.000198422
0.000147163
0.00283391
0.0100478
0.0341783
0.000138081
0.000155209
0.000153936
0.00725084
0.000132253
0.0222194
0.00720751
0.00319628
0.00140411
0.0186611
0.00382434
0.000150808
0.00311392
0.00610477
0.000150871
0.000137405
0.00014015
0.0358588
0.0217031
0.0224767
0.000144616
0.0367143
0.000146906
0.000204836
0.000138915
0.000153906
0.00015088
0.000137996
0.0155745
0.000151112
0.0324295
0.0255364
0.0223346
0.000180453
0.000177231
0.0189733
0.0352936
0.000146729
0.0134764
0.000137955
0.000131404
0.000143289
0.000488781
0.00014068
0.0267321
0.000168952
0.00188888
0.000176845
0.00600357
0.0277654
0.000221442
0.000137752
0.000185256
0.000204359
0.0148813
0.000146066
0.000132939
0.000153686
0.0190749
0.000147246
0.00260418
0.0248688
0.000173426
0.000188862
0.000146168
0.00419819
0.000148466
0.036712
0.000134699
0.0184785
0.000164772
0.000145803
0.0267534
0.0233206
0.000135205
0.000181948
0.000156703
0.0226794
0.00110959
0.000312576
0.00230268
0.000148612
0.00018554
0.0296029
0.000143
0.000408069
0.000151791
0.000185085
0.000166409
0.00739406
0.0263168
0.000146116
0.025608
0.00015125
0.000175997
0.0305428
0.026108
0.00017254
0.0275884
0.00030397
0.00014618
0.00373586
0.000196699
0.000164809
0.000150857
0.0217305
0.000135464
0.0215065
0.00180906
0.000212998
0.000143298
0.000171606
0.0259206
0.000176731
0.0202081
0.000149838
0.000154914
0.000280368
0.0222875
0.000158745
0.0361282
0.00914221
0.0288789
0.000147642
0.0189688
1.38259e-05
0.0126256
0.000143886
0.000129448
0.000145299
0.0367699
0.000154699
0.00418183
0.004258
0.000148927
0.000137557
0.000143689
0.0107421
0.00181286
0.0366847
0.0265917
0.000140902
0.0271467
0.0327021
0.000195806
0.0222605
0.0274182
0.000174886
0.0199047
0.000153869
0.000158197
0.010102
0.0125951
0.000150448
0.0378145
0.000148272
0.000144333
0.00992746
0.0260401
0.028175
0.0140275
0.000164767
0.000148814
0.000155485
0.0307416
0.0233176
0.000142398
0.000175217
0.00577853
0.000144506
0.000146343
0.0264683
0.0205169
0.000153455
0.000144146
0.000150599
0.000152238
0.0043185
0.000148628
0.000143865
0.000158729
0.0171804
0.0187637
0.00677442
0.0239564
0.000146291
0.000157677
0.0310596
0.0340477
0.000163886
0.000310044
0.000143185
0.000170316
0.00015223
0.00015186
0.000194834
0.000143543
0.00706713
0.000167537
0.000141214
0.000157025
0.000206083
0.00160321
0.0231897
0.000144664
0.000163958
0.0343824
0.0069488
0.00015553
0.000145538
0.000144484
0.00422906
0.000146536
0.000146474
0.000161783
0.000143895
0.0309618
0.001936
0.000148623
0.000155903
0.000135309
0.0001471
0.0154013
0.00459152
0.000184818
0.0233953
0.00244352
0.000149144
0.000142972
0.000145855
0.000144925
0.000148322
0.000159724
0.000208048
0.0308177
0.000150504
0.000195562
0.0235481
0.00163115
0.000143806
0.000138977
0.000153935
0.00530714
0.000144439
0.000196204
0.00010616
9.21685e-05
0.000146647
0.0156991
0.000136003
0.00291711
0.000135889
0.000136192
0.00014748
0.000141418
9.05325e-05
0.0132529
0.00242633
0.000173251
0.0405011
0.0162627
0.0190662
0.000165983
0.0259927
0.0241427
0.000198482
0.00212757
0.0275797
0.000191432
0.0045316
0.00014882
0.000140758
0.00329703
0.000141787
0.000156183
0.0151309
0.00134057
0.00863308
0.011169
0.000140036
9.00796e-05
0.000145989
0.00255652
0.000138711
0.00110566
0.0242531
0.0280813
0.0105005
0.000146135
0.000135933
0.000183997
0.0332159
0.0308869
0.000215132
0.000214528
0.000140188
0.000781667
0.0269657
0.000246024
0.00015603
0.000146511
0.000135519
0.000154352
0.000146354
0.000145336
0.000155657
0.0299316
0.000185682
0.0265504
0.00461208
0.000139699
0.000200377
0.000142924
0.000140711
0.000147155
0.00013729
0.000148588
0.00385808
0.00046749
0.00580329
0.0371889
0.000153976
0.0270826
0.000206859
0.0360551
0.0298134
0.000146714
0.00014123
0.00309652
0.000146295
0.000135338
0.00281498
0.0309103
0.00274021
0.000144649
0.000146197
0.000161194
0.000172646
2.56965e-05
0.000138126
0.000155124
0.000154512
0.000138235
0.0051867
0.000171807
0.0205568
0.000148699
0.000121895
0.0307998
0.000168583
0.0301639
0.0001921
0.0270349
0.000135619
0.000157962
0.000140441
0.000163841
0.0152507
0.000145996
0.00838787
0.000146737
0.00014489
0.000144155
0.0376908
0.000174802
0.000194495
0.00272511
0.000137514
0.000175611
0.0120178
0.000186391
0.000141043
0.000151782
0.000146457
0.000202962
0.000145219
0.000141919
0.0386505
0.0332245
0.0370718
0.013778
0.000128979
0.029903
0.000183303
0.0371546
0.00020566
0.000135011
0.000142332
0.000130665
0.000147812
0.031287
0.0320411
0.000138259
0.00960018
0.0384209
0.000162729
0.000150237
0.000164105
0.0185841
0.0252006
0.029823
0.0363212
0.0308212
0.000130587
0.000193501
0.000197153
0.00192819
0.0107514
0.000143565
0.000195775
0.0246421
0.000166166
0.0281961
0.000148801
0.00138533
0.029641
0.0340474
0.000184227
0.000165784
0.018017
0.000196894
0.034117
0.037198
0.0310267
0.000191639
0.0112702
0.000146446
0.000160695
0.000176318
0.0220085
0.00398268
0.0267293
0.0001481
0.00021254
0.000202931
0.000149931
0.0285267
0.000143615
0.00019529
0.0215827
0.000143594
0.030317
0.00433623
0.0366177
0.0157221
0.000134261
0.00529183
0.000143374
0.03172
0.000146318
0.000141728
0.000174133
0.000155246
0.0307893
0.000155543
0.000165479
0.000155901
0.000141323
0.000490141
0.000153165
0.000192342
0.00403124
0.000138109
0.0263186
0.000195433
0.000150615
0.00900152
0.000132423
0.000143183
0.000353689
0.000150084
0.0382493
0.00479858
0.000138567
0.000193705
0.000153299
0.0325184
0.0306645
0.000184855
0.0179519
0.000158815
0.000144566
0.0145498
0.000155238
0.000145325
0.00334182
0.000171788
0.00014012
0.000141027
0.000208309
0.000152889
0.0218931
0.00020581
0.00106163
0.0351179
0.000177577
0.000190976
0.000143789
0.0328619
0.0168789
0.0199113
0.000143975
0.000137394
0.000187574
0.000164295
0.00547408
0.000145511
0.00576326
0.000144743
0.0130201
0.000146325
0.00099203
0.000242369
0.000191824
0.0267303
0.000581344
0.0300747
0.0296584
0.000131568
0.000399838
0.00038567
0.0204088
0.000141
0.000255994
0.0167811
0.0206356
0.000192423
0.000225724
0.00655345
0.0335044
0.000174712
0.000176172
0.000137897
0.000176618
0.000173082
0.000143304
0.00018351
0.0294693
0.00395629
0.0209632
0.000273455
0.000142265
0.000140305
0.000177778
0.000143415
0.0104186
0.000138452
0.00014033
0.0348607
0.000237694
0.000177106
0.000193817
0.000151474
0.000213295
0.0263374
0.0308098
0.0270193
0.000157917
0.0307999
0.000153137
0.000136865
0.000153522
0.0261645
0.000214032
0.000183142
0.000248174
0.000151059
0.00014108
0.00014344
0.000148827
0.000159849
0.0330483
0.00072035
0.000162968
0.0292507
0.0217069
0.00604988
0.0202341
0.000144621
0.000164265
0.011793
0.000144219
7.99807e-05
0.000160533
0.000155539
0.0228023
0.0308234
0.000138456
0.000171533
0.00016404
0.00019676
0.00969091
0.0360299
0.034512
0.000147284
0.000185772
0.0368129
0.000185969
0.000193241
0.00372396
0.0187477
0.028795
0.0379968
0.000137999
0.0108494
0.000138005
0.000152601
0.000143933
0.000188006
0.030616
0.0154433
0.0060274
0.021562
0.000185816
0.000134878
0.000138992
0.000146301
0.000155469
0.000175299
0.0351149
0.0388225
0.00018446
0.00254276
0.000147854
0.000186341
0.000138505
0.0359066
0.000213424
0.000146823
0.000230116
0.000193374
0.0201732
0.0251879
0.000211772
0.015239
0.000157254
0.017068
0.00016235
0.0130286
0.0034446
0.000152605
0.000187027
0.000145733
0.0271143
0.0272388
0.000174895
0.0208318
0.000191416
0.0210846
0.000193566
0.00329315
0.000185378
0.000139591
0.00019462
0.000190488
0.00015604
0.000187248
0.000165679
0.000167334
0.0140314
0.000198124
0.00015423
0.000164268
0.000170809
0.000166161
0.000150855
0.0366459
0.000200989
0.00350879
0.0212418
0.000144527
0.0295065
0.00014432
0.000155688
0.000154751
0.0296181
0.000170055
0.0346203
0.0180237
0.000189661
0.00025632
0.000192996
0.0197128
0.000197636
0.0166507
0.000165249
0.000174604
0.000142204
0.0311875
0.00513644
0.000164377
0.000145736
0.000169856
0.000159016
0.00015656
0.000176114
0.000171418
0.000147233
0.000169142
0.0143352
0.0395686
0.000301378
0.000173934
0.000132952
0.0243403
0.000166712
0.000181979
0.00148209
0.000173599
0.0123814
0.000135636
0.000162816
0.000155217
0.000169234
0.000143143
0.029658
0.00357963
0.000999251
0.000172383
0.0300647
0.000228367
0.000158613
0.0210148
0.0001825
0.000239022
0.022503
0.00019853
0.000155561
0.000172055
0.000192355
0.000158345
0.00016548
0.0252695
0.00424046
0.000140095
0.000228232
0.00098807
0.0308021
0.000142973
0.000176049
0.000143684
0.000164702
0.00128394
0.00016361
0.000163208
0.000140241
0.000139009
0.0411726
0.0263423
0.000145768
0.035123
0.000247166
0.000134994
0.000186616
0.0310579
0.000203034
0.000192952
0.000144063
0.000160969
0.000274322
0.000146463
0.000142545
0.00964291
0.000163908
0.0297882
0.0001865
0.00015941
0.0285371
0.000220644
0.000206557
0.00014053
0.00397727
0.000163561
0.000160203
0.00282246
0.000173118
0.000147329
0.000209116
0.000156531
0.000162134
0.000135711
0.000174841
0.000144265
0.000206531
0.00049191
0.000198322
0.000141513
0.0001175
0.000164936
0.00754391
0.000287081
0.0255007
0.000211098
0.0330491
0.000138717
0.00018638
0.000158125
0.000141945
0.00506265
0.00918304
0.000157115
0.00264332
0.000172228
0.000186873
0.0255605
0.000159155
0.0053193
0.0154409
0.0168354
0.0192911
0.0238847
4.61212e-05
0.000139881
0.000206789
0.000170494
0.00335301
0.0109608
0.0358448
0.0383969
0.037676
0.000138671
0.000266075
0.000143883
0.000151187
0.000146822
0.00474359
0.000221832
0.000217707
0.000142045
0.0141646
0.000161182
0.0230416
0.000141885
0.000193199
0.000164369
0.000182709
0.00017689
0.000192046
0.000152681
0.000247803
0.00197505
0.000140765
0.037656
0.000232065
0.000467832
0.000153974
0.000164446
0.00014443