/*--------------------------------*- C++ -*----------------------------------*\
| =========                 |                                                 |
| \\      /  F ield         | OpenFOAM: The Open Source CFD Toolbox           |
|  \\    /   O peration     | Version:  v2012                                 |
|   \\  /    A nd           | Website:  www.openfoam.com                      |
|    \\/     M anipulation  |                                                 |
\*---------------------------------------------------------------------------*/
FoamFile
{
    version     2.0;
    format      ascii;
    class       volScalarField;
    location    "150";
    object      omega_0;
}
// * * * * * * * * * * * * * * * * * * * * * * * * * * * * * * * * * * * * * //

dimensions      [0 0 -1 0 0 0 0];


internalField   nonuniform List<scalar> 
13851
(
0.0233842
0.916668
0.0817589
0.0231426
0.0747453
0.0413011
0.0216035
0.0460082
0.0206176
0.119267
0.328454
1.74669
2.57738
2.67913
0.021386
0.0323172
0.0245948
0.0289424
0.682238
0.0206165
0.0229143
0.0782982
0.0213296
0.0220244
0.0215599
0.0472227
0.0240751
18.7662
0.023191
0.0240805
0.0389064
0.0249105
0.0788751
0.521354
0.0218634
0.150883
0.115882
0.190771
0.133727
0.50892
0.021277
0.0197277
8.14621
0.332414
0.340429
4.12784
0.316678
0.771542
0.0242631
0.368267
0.0669848
0.124174
5.86746
0.0214476
0.0222545
0.0197293
0.0210471
7.39983
0.02386
0.0216352
0.210873
2.57893
0.0484586
0.0867192
0.124409
0.0249608
0.461048
0.304913
0.0329536
0.0287287
8.30238
2.12707
1.01182
0.0217054
0.0208445
0.0208211
0.074457
4.91413
0.0460714
7.53545
0.0218278
0.238392
0.0213375
4.01706
0.0905166
1.74868
0.0401761
1.99329
0.025033
0.0208015
0.149106
0.0605194
0.301231
0.0273414
0.0247763
0.0217738
0.0772333
2.95941
0.398384
0.021916
4.07049
0.0480572
0.0221566
0.0236692
0.0210706
0.0900379
0.0527996
0.0196422
3.32773
0.0744685
0.0221262
0.0208938
0.0335275
0.0225687
0.0219929
0.487221
2.95749
0.0196063
0.0225585
0.0226869
8.68194
0.0236649
2.66306
0.4107
0.75302
0.0227341
0.770184
0.0471547
0.0227626
0.126816
0.0212572
0.0207005
6.31624
0.0213407
0.360585
0.0207707
0.0195892
2.04637
2.40453
2.24681
3.90264
0.0222716
0.0227067
0.0200444
0.0230838
0.311621
0.078689
0.129543
0.0215896
0.34178
0.0703525
0.0222686
2.85109
0.0210777
0.022778
0.0230302
0.0209751
0.0230245
0.124395
0.0657305
0.0197481
0.0273134
7.16819
0.0206888
0.0276684
0.0198849
0.0965527
0.0334627
0.0226231
6.24708
6.83765
0.020373
0.0209922
2.28562
0.0206855
0.756994
0.0458594
0.0226373
0.936237
0.0196523
0.0256187
2.58927
0.0213406
0.0829553
0.0196488
0.0214411
0.0250926
0.0216925
0.0865007
0.130186
0.307678
5.6277
0.0211587
0.0334017
2.50762
0.0226251
0.0223577
0.386922
0.0224211
0.0208473
0.0221598
4.50548
0.0236745
0.0212352
0.0834374
0.021352
2.29232
0.0246851
3.15528
0.0196592
3.31434
0.0220433
0.359047
0.019615
0.019971
0.292621
0.0750012
3.92
0.0213387
3.0861
0.0248757
0.0218664
3.09047
0.120828
3.3252
0.0216197
0.0291142
0.0213585
4.17241
0.0196141
0.0456333
0.141314
0.0203506
0.0210307
0.0597025
0.0450924
2.24115
0.0521943
0.0200312
0.0212466
0.064462
0.426663
0.0201165
0.0968844
0.0206975
3.14962
0.04912
0.442299
0.0231228
0.0254617
0.0284034
0.433509
0.0218461
0.0231984
0.0485155
1.01972
0.110956
2.40162
24.7182
0.0214282
0.0199856
0.0273784
0.434162
0.0203962
1.7402
0.0226076
0.0218145
0.0268666
3.09987
0.0280585
0.0289764
0.0227719
0.0830946
0.0434471
0.0315043
0.0207018
0.241483
0.1328
3.60385
0.333982
0.0201477
0.0196241
0.0210203
0.0471654
0.587383
0.756343
0.0207215
0.0214365
0.132315
0.244581
0.139273
0.0235648
0.0216475
0.0358122
0.239522
1.56635
0.0268587
1.67824
0.0207217
3.1766
0.0269012
0.0245263
3.5547
0.0215922
0.0687953
3.07687
0.0206992
0.0411143
0.0274883
0.0233345
2.42392
0.0271036
0.0218103
3.03743
0.0197717
0.0257036
0.0232352
3.67265
0.115329
0.0213448
0.0489251
0.0213828
11.1317
0.028808
0.0212848
0.0212091
0.111448
0.0285864
0.0226814
0.0214405
0.0215653
0.0217761
0.344229
4.34674
4.77079
0.032938
3.62458
1.96742
0.0212687
0.0340602
0.141847
0.131858
0.0598889
0.10871
0.667497
0.0251819
0.790012
3.11158
0.0213505
0.229077
0.228087
0.222905
0.0226643
0.0663813
4.30068
0.0210196
0.857307
0.0211996
0.0213886
0.0204536
0.0196404
0.0209219
3.16909
0.384224
0.0213447
0.0399276
0.0198193
1.64536
0.0380697
0.768925
5.28893
0.0213536
0.0638704
0.0275968
0.793852
0.0211904
0.0196343
0.0291785
4.77567
0.0212457
2.36729
0.112723
0.119586
7.02601
0.307233
0.301559
0.0273694
0.0207617
0.0222203
0.0309927
0.0484042
2.61892
0.0337695
3.39916
3.0959
0.0198316
0.021436
5.64214
4.88562
0.13425
2.97547
0.0290289
0.0281833
0.0218687
1.68874
0.0204747
0.0318333
0.02621
0.0215427
0.0212323
0.0206762
0.0198739
0.0832477
0.0538398
7.94365
0.0293494
0.0513646
0.0333826
0.444093
0.0263338
0.262281
0.0242848
0.302303
0.0195691
0.0206578
0.0216823
0.158866
0.454529
0.117956
0.0324672
11.2092
0.515195
0.0247224
0.0229034
0.0608736
0.0211692
0.47061
0.0210547
0.205734
0.37021
0.073832
3.28272
0.0227593
0.20366
0.370557
4.98425
0.0195286
0.029251
0.0471374
0.0225904
0.0204415
0.0217722
0.0661321
0.118013
0.0341942
1.59073
0.0215088
0.0212786
3.59236
0.0283775
0.0196122
1.86648
0.0207528
0.0233569
0.0205142
0.0395603
0.0226318
0.0196424
0.0225826
3.03604
0.0213479
0.0355649
0.0206436
0.0312979
0.264422
0.0227649
0.0212339
0.0226534
0.0226738
0.708428
0.0218072
0.0248326
0.0213417
0.0216057
3.14443
3.45213
0.0213765
0.028279
0.0265222
0.424366
4.02806
0.0212896
0.380738
0.0212121
0.0758889
0.0215762
3.39217
0.0196656
6.2393
0.108142
0.0197421
0.0283714
3.59001
0.0471939
0.337157
0.0223161
0.471363
0.0227735
0.0206293
0.0207074
0.0215528
3.93277
0.0611305
0.127214
0.863725
0.0464691
0.0197815
2.66506
0.452454
0.0257775
0.0274735
0.432936
0.378988
3.35113
0.0224494
3.40249
4.18255
4.26139
0.0277744
0.0254778
0.699291
0.194792
1.061
0.374615
0.798593
0.0231961
0.776351
2.94515
0.0195709
0.146086
0.062026
4.22296
0.0232708
0.0212187
0.0209515
0.0212388
0.0839265
0.0399686
2.08001
1.5203
0.0206235
4.06122
3.22956
0.454195
0.412672
0.0347501
0.0195935
0.0206372
0.215152
2.7341
0.0228709
0.085297
0.153434
0.0197156
0.0396861
0.431168
0.252553
0.106003
3.66071
2.94522
0.0212341
0.0215537
1.57116
3.06703
0.121773
0.0335505
0.215737
0.0196536
0.0210958
0.322947
0.0197015
0.0231947
0.0196402
0.0207387
3.01541
0.0832739
0.0297911
0.0196905
2.36485
0.405026
0.020748
0.0207808
0.0204471
0.0218472
4.96285
0.395278
0.360073
4.09161
0.561884
0.0318234
5.46921
3.33957
0.0257882
0.0336125
0.0195886
0.0233294
0.0341061
3.00139
0.772869
0.0834782
0.0284883
0.0205808
0.0320067
0.022421
0.327858
0.0679999
0.0213314
0.0345497
0.0204471
0.0265487
0.121264
0.0216115
0.0211496
0.0385727
0.0215817
0.0771795
0.181908
0.116767
0.0325335
0.127517
0.0205685
0.0992583
0.0287364
4.02962
0.0219834
0.0218526
3.17457
0.0235615
6.98181
3.09385
3.58651
1.90775
0.0204746
2.58268
0.0202067
0.0207832
0.0196862
0.0207946
0.0255062
0.0304287
0.0376869
0.0196795
1.56871
0.127465
1.90598
0.0208863
0.0198309
0.0208003
0.128541
2.42973
0.0494982
0.0268653
0.0201547
0.0216831
0.0212887
0.0210203
0.0805533
2.11154
0.0215597
0.01967
0.0215641
0.0210154
0.202554
6.1997
0.0324501
3.00803
0.403392
0.0211312
0.123397
5.00743
0.0349421
1.87042
0.0218207
0.0277144
0.0487567
0.0280343
0.37312
0.0213657
0.580643
0.0211109
0.0298065
3.09332
0.0209073
0.0229118
0.205166
0.0206384
0.0251927
0.366917
2.31645
0.0661361
1.18295
0.31941
0.0196273
0.0208654
3.23884
0.145319
0.049169
3.11943
0.0205117
0.0238985
0.0195896
0.624629
1.08366
0.0254133
0.0218057
0.249935
0.0240581
0.0207398
4.45606
0.901798
2.98377
0.0197567
0.0215529
5.02633
7.43528
0.140911
0.022163
3.36605
0.021353
0.268305
0.148076
0.0796449
0.0247341
3.73979
0.0280963
0.0238383
0.167048
0.0217946
0.0234133
0.0227953
0.0205519
3.9155
0.0314482
0.109211
0.0294154
0.175788
0.0205996
0.311845
0.0222127
0.0280303
0.019884
0.0210978
0.0212518
3.0516
0.0209419
0.0197218
0.763927
0.0215717
3.97754
0.0213043
0.022491
0.064705
0.504881
0.374515
0.0207752
0.0438339
2.9199
0.0218339
3.18765
0.0295296
0.0205258
0.035686
6.34733
0.0466893
0.0256197
0.0207493
0.0196528
0.41233
0.0919592
0.060772
0.0264485
0.0493845
0.0220452
0.0223536
0.0841219
0.483525
0.0839738
0.659559
0.0215334
0.0781419
0.0778188
3.72207
0.0253293
2.54913
0.499327
0.0215839
4.67364
0.110093
2.63789
2.33721
3.01105
0.371821
0.0401423
0.0205403
0.0300483
6.86768
4.23156
0.0211399
0.0216985
0.0613794
0.246587
0.0197675
6.54809
0.0204903
0.0213549
3.55298
4.94065
0.318959
0.0207782
0.021401
6.84588
0.127879
0.112917
0.0236881
3.4676
0.235467
2.44661
0.0515221
0.0392075
0.0218051
0.0215666
0.857838
0.0474179
5.72792
0.0313927
0.0329675
3.90846
2.68609
3.50393
0.0214269
0.0301368
0.0207364
0.0330094
0.0228353
1.84582
0.0241758
3.11852
0.0197673
0.0630222
0.0211114
0.175079
0.0327096
0.0298022
2.99679
0.0410081
0.0423209
0.0221374
0.0628199
0.780272
0.101087
0.0233095
7.04893
0.0203254
2.38714
0.368054
0.0215873
3.29151
4.45908
3.64661
0.377936
0.0318341
0.0211194
3.02466
0.024069
0.552234
3.1554
0.0208945
0.0225991
0.157699
0.430326
2.47338
0.0215185
0.0206991
1.53961
3.11984
0.109322
0.0251711
0.0229669
0.368792
3.49617
0.0807572
0.0197351
0.0413829
0.0206578
0.0229521
0.267392
0.0219646
0.230742
0.430407
0.0213627
0.0228752
0.02115
0.02284
5.9254
3.97967
0.0289508
2.51668
0.0211096
0.0289606
0.021083
0.0206679
0.0215224
0.0213503
3.98541
0.0213774
0.0485669
0.0214303
0.0257661
0.283536
6.57877
0.0224141
1.58788
0.0661825
1.06759
0.0320863
0.0326562
7.92556
0.0265659
0.0420175
1.79757
0.309556
4.71543
0.0402919
0.345901
0.0218795
0.0397214
0.048994
2.51555
0.021126
2.34174
0.0208499
0.0209021
2.50899
0.0213727
1.89934
0.0249768
0.0207212
0.0374202
0.0207348
0.0214101
0.0198734
0.0217749
0.221856
0.0209106
0.10317
3.44657
0.0691051
2.31207
0.0215489
0.0224051
0.0252792
0.0212476
0.0207153
0.0742704
0.0218578
0.0207858
0.0218474
0.0215624
3.8598
2.14279
0.0894555
2.98314
0.0737431
0.0210907
0.464966
0.0283704
0.0209051
0.334479
0.471968
0.378881
0.0209228
0.323762
0.456641
4.03782
0.020348
2.54824
0.0304499
0.0238092
0.0193485
0.0205212
2.36924
0.0800065
0.718626
0.0208504
0.0213
0.779479
0.0216019
0.310918
0.364327
1.16083
1.0081
0.434405
0.0215472
0.0213071
0.0691244
0.0309116
0.0238373
0.141024
0.0416875
0.0218981
0.0228662
2.20939
0.0207983
4.20716
2.20329
0.381513
0.214242
0.0224388
0.0201474
0.0216803
0.322303
0.44441
0.0203602
0.0229776
0.0208262
0.0716078
0.0198335
0.0207822
0.0219101
0.0323313
0.674909
0.0427206
0.032894
0.0212622
0.048907
1.93224
0.022179
5.06704
0.527419
0.0752903
0.0199394
0.0420567
0.0212153
0.0212944
0.0216069
4.72924
0.114988
0.4828
0.0238804
0.282936
0.021266
0.0212009
0.0215973
0.478275
1.00791
0.0197248
0.031875
0.0582258
3.57109
0.0227514
1.17431
0.0258393
2.32624
0.0876499
3.22061
0.0853867
0.0741692
0.185734
3.14486
0.430761
4.7857
0.0210571
0.464959
0.0198195
0.023364
0.0258594
0.0215844
3.18894
0.0290591
0.0272472
0.371316
0.170402
0.72093
0.0213633
0.0234555
0.0258653
0.020224
0.0316643
1.60101
0.663901
1.02276
0.0208977
0.0266779
0.0241736
0.41754
2.98906
0.0717615
0.0201321
0.0218036
3.34882
0.0457335
1.77437
2.58877
0.117574
0.0199247
2.64272
0.0305455
0.0423197
0.0281992
3.23514
0.322509
0.121601
0.1003
0.0222198
0.0311256
0.0213644
5.04122
0.0498599
3.28531
0.17223
0.0257451
0.136698
0.0225915
3.26369
0.154103
0.0208079
2.31242
3.03733
2.32622
3.23628
0.0216556
0.0213289
5.38311
2.05423
3.39902
0.0225439
0.0215594
0.021359
3.78639
0.13763
0.021758
0.5996
0.0974021
2.11677
2.55787
0.761402
0.0214185
3.28314
0.0243603
0.0212188
0.135016
2.46002
0.0216073
0.0208415
8.59992
3.21148
0.0222796
0.0209015
2.29295
0.0206844
0.218681
0.0208699
0.370783
0.0213219
0.0495602
1.01041
3.0066
0.022407
7.36853
0.410295
1.32401
1.85418
2.34677
0.0346606
0.0211493
0.336832
0.0227867
0.0213754
0.0202052
0.430031
0.021115
0.0846743
0.0208566
0.0236578
5.33195
0.0717999
0.122863
0.0227218
0.0387743
0.0206985
0.0317759
2.46494
3.3023
0.0206776
0.0631319
0.339904
0.0215565
0.020529
3.02392
0.0339278
0.0341098
0.127221
2.26819
1.16531
2.03353
3.08611
0.0397368
0.319326
0.447055
1.28038
0.0628596
0.0200583
0.119551
0.0211354
0.0209179
2.36636
3.04988
0.0230877
3.12383
0.113518
4.15541
0.542619
0.200519
0.0211994
0.101822
0.294755
0.0209373
0.0225009
3.12008
2.98369
0.850647
3.28511
0.0371676
3.15131
3.18642
0.0311802
0.021776
0.0210154
0.237039
0.0209866
0.129989
0.022228
0.0220322
0.0232963
2.25823
3.6165
3.55493
0.0218347
2.73311
0.024952
0.0292454
0.020824
0.0208093
8.46704
0.0267387
3.3471
0.966878
0.637686
0.107909
0.0214347
0.0392244
0.0215598
0.139584
0.0224314
0.0226389
0.0217418
0.0221944
0.143564
0.0220527
0.0342991
0.0211381
0.0348544
0.217837
5.81457
0.0210236
0.0463379
0.0214928
0.482556
0.0171532
2.48769
1.10946
0.0309666
0.0236971
0.0225535
0.478645
0.0212233
0.228438
0.0214235
0.0208973
0.0222433
3.03555
0.0267337
0.0244349
0.0310653
0.0214407
0.059931
2.99815
1.30134
0.0352958
0.0213718
0.201795
0.020134
0.0209871
0.213165
3.09983
0.0211855
0.0300866
0.119707
2.8186
0.0217851
0.02201
3.14156
0.0225006
0.293987
0.0676845
3.71847
0.0213326
0.0132892
0.0212363
3.27675
0.126801
0.0412532
0.10998
3.41408
0.0223252
3.56802
2.38528
0.0215604
2.38001
0.075676
0.0222678
8.95126
0.0215255
0.0211668
0.020467
0.16029
0.374905
0.144338
0.0226927
0.0222448
0.029399
0.37305
0.108771
3.5724
0.355001
0.0219795
0.12983
0.127078
3.58656
0.0831184
0.243089
0.0209995
0.0291312
0.0205371
1.05023
0.0357478
0.0212286
2.36639
0.52964
0.0320457
0.0234602
0.0196664
0.0213568
0.0543794
0.033729
0.748984
0.0627729
0.0701326
0.0637021
0.112864
2.59754
0.711986
3.50112
0.0210358
0.0207966
0.250271
3.54425
3.84453
0.0544736
0.0221965
8.30543
0.33718
0.0209348
0.026129
0.0206916
0.0398074
0.0644742
0.0853807
6.20935
0.148955
0.0225547
2.55659
7.11559
0.0214122
0.0869686
2.45107
3.54597
0.0236725
0.0710092
0.0196069
0.0229343
0.0208901
0.0250597
3.45649
3.40964
9.87773
6.38759
0.0225318
0.0330249
0.0543228
0.0209746
0.0216618
0.0205305
3.00534
0.0209493
3.3705
0.0352364
0.0647639
0.133937
0.220795
4.50403
2.95741
0.0390933
0.0198486
0.0182935
2.80908
1.97201
0.0245432
0.0207081
0.0205021
0.0645421
0.0298162
0.134701
2.05102
0.0224409
0.0204853
0.115675
0.181563
6.32355
0.440655
0.0209355
0.0678475
0.0214991
3.52034
0.019981
3.14951
0.0211154
0.0223866
0.0325505
0.0218031
0.475615
0.0295035
0.0454356
5.59753
2.98531
0.025005
0.0294052
0.0211924
2.89479
3.7413
0.0216099
0.0200288
0.328593
0.0195568
3.83769
0.0213412
0.0356389
0.0744003
0.830902
0.0372765
0.0226884
0.0215841
0.0667014
3.15476
0.0211487
1.12367
3.7337
0.445941
2.3152
0.0323591
3.80679
0.0250825
0.261316
0.0212666
0.368395
0.34916
3.72219
3.51283
2.59472
0.0213682
0.104022
0.0208325
8.99482
0.343732
3.06819
6.09278
0.0265915
2.63711
0.896941
0.0337677
0.0227037
0.021601
3.41852
0.0253725
0.0652093
0.0230884
0.0216116
0.0206755
0.0215133
2.91151
0.220034
0.030366
3.3412
2.11788
0.0213316
0.0212993
0.0205106
0.0296228
3.13143
0.211208
0.0253362
0.0242722
0.788742
0.0837369
0.043082
7.07769
0.0295499
3.38531
0.0295717
0.0299499
0.0212766
0.0230616
0.0659935
0.480321
0.380509
3.2037
0.072869
2.95462
0.0258488
0.0242614
0.0215475
10.9579
3.65895
0.410097
0.421919
0.0233935
0.0213784
0.0208818
0.0214192
0.0205462
4.84241
0.0288037
5.33188
0.0311777
2.56663
1.02085
3.15707
0.0292493
0.0257393
3.38333
0.0376745
0.304982
3.32813
0.0206193
0.489687
0.0269793
5.00102
5.14107
0.0335586
0.700553
0.477846
0.0227373
0.0584496
0.0237718
3.93231
0.394861
0.0239088
0.0215788
0.35975
2.27084
0.12283
0.851076
0.120429
0.0289735
0.0210285
1.89642
3.11897
0.0930909
0.0303006
2.93927
2.44085
0.020848
0.0214021
0.0241453
3.11078
3.05016
0.0213343
4.35372
0.0220142
0.0210389
0.0215654
6.45234
0.285883
0.202429
3.92545
0.0228664
0.0226044
0.0209614
4.66868
0.0220877
3.36196
0.0237256
1.038
0.0217878
0.0211355
0.118637
4.48558
0.325794
0.0347431
1.18205
0.0200021
0.0214882
0.0214124
0.0436762
0.0616303
0.0611364
0.0372486
3.1933
0.0241362
0.12365
0.113711
2.57177
0.0213873
3.47108
3.09964
0.0247127
0.541399
0.061939
3.81068
0.021579
0.0775799
0.021049
0.131992
7.64116
0.0837498
3.28008
0.023517
0.046423
0.0224074
3.95486
0.0199121
0.0206982
0.67623
0.117116
3.41875
2.49429
0.0597183
0.0282053
0.0204516
0.506604
0.0310639
0.0209712
0.14078
0.0201113
0.0413727
0.0213704
0.50352
0.0222578
0.314537
0.384406
0.0325783
0.336859
0.0572225
3.55776
0.0212718
1.0951
1.04611
0.0205879
0.0213482
0.0227799
0.0218057
0.0394539
0.0211077
0.555575
0.0712615
0.222104
0.735
0.0214657
0.0218283
0.0204419
3.06881
0.0215083
0.0212538
0.11759
0.0238159
0.564266
3.28945
0.082975
0.0240315
0.0327661
0.0225667
0.0219879
0.102586
0.0200875
0.0238046
7.89112
3.21909
0.985496
0.0225367
3.47282
1.17178
0.0218371
0.199085
3.07921
0.0213495
0.0234856
0.0213086
3.16331
3.44025
0.517826
0.0200702
0.0238792
0.0231664
0.0215785
0.12403
0.0215264
0.388165
5.77044
3.42564
0.0205798
0.0238868
0.023426
4.06597
0.0196587
3.34422
10.058
0.43093
0.376431
4.88188
1.51012
0.0226717
0.445978
0.554577
0.0223005
0.0204343
0.020855
3.25819
3.55267
3.52717
0.0212515
3.41116
0.0215597
0.129754
0.0204372
0.0231075
0.0222787
0.0205801
3.68978
0.0223815
2.3071
2.49528
3.34314
0.0473257
0.0488138
3.3944
3.13124
0.0217041
7.946
0.0204511
0.0196692
0.0212882
0.101154
0.020657
4.92393
0.0302846
0.267952
0.0376621
9.03311
3.52294
0.099131
0.0205551
0.0570833
0.0878444
3.62362
0.0214167
0.0198093
0.0227819
2.24012
0.021596
0.301831
5.02743
0.0402334
0.06246
0.0214266
0.391605
0.0217529
3.16319
0.0201369
4.64274
0.030461
0.0215057
4.70678
3.41653
0.0201705
0.0610291
0.0243719
3.53075
0.207725
0.138939
0.303957
0.0217609
0.0577689
2.96338
0.0210682
0.0854216
0.0230327
0.0729697
0.0317683
10.0416
3.31951
0.0215205
3.50537
0.0223498
0.042553
2.96476
4.77457
0.0351095
3.12125
0.251694
0.0215895
0.347803
0.124647
0.0302554
0.0222989
2.60047
0.0201926
5.20199
0.264834
0.119462
0.0213443
0.0320718
3.32277
0.0436567
2.47915
0.0220083
0.023659
0.0984841
2.67375
0.0258969
3.14228
0.859104
4.48854
0.0215902
2.60651
0.496639
3.96559
0.0213924
0.0192779
0.0212787
3.20451
0.0210729
0.389321
0.401512
0.0218
0.0202618
0.0213645
3.98067
2.03194
3.71075
3.39848
0.0209497
3.28116
3.16078
0.125011
3.41204
3.16339
0.0353943
5.5021
0.0233112
0.0255397
3.01529
2.59781
0.0213415
3.45813
0.0217145
0.0213912
2.25664
3.33978
3.57242
8.69762
0.0302085
0.0217878
0.0229656
3.26344
3.42335
0.0211626
0.0443382
0.592711
0.0214248
0.0215003
3.01264
2.96474
0.0229418
0.0214307
0.0222232
0.0225474
0.603724
0.0217953
0.0210923
0.0254396
1.95973
3.12219
0.729919
2.59364
0.0215297
0.0246041
2.98002
3.16672
0.0281614
0.121421
0.0213261
0.0356807
0.0226936
0.0205013
0.0709676
0.0210418
0.787963
0.0319238
0.0207903
0.024295
0.795451
0.867504
3.62256
0.0214369
0.0244997
3.2371
0.6652
0.0239974
0.0213257
0.0214753
0.332749
0.0215118
0.0216258
0.0276203
0.0213347
2.9895
0.303607
0.0217554
0.0240313
0.020012
0.0215201
1.45595
0.510473
0.0662574
3.33775
0.437462
0.0218497
0.0213024
0.0215015
0.0212408
0.0217227
0.0235156
0.0908673
2.94686
0.0225804
0.103717
3.53889
0.243559
0.0212078
0.0207272
0.0233323
1.90802
0.0211938
0.245784
0.116786
0.0322257
0.0220116
6.72198
0.0200379
0.402139
0.0202615
0.0200623
0.021637
0.0207688
0.0455868
2.61127
0.498557
0.0385584
2.28651
1.1516
1.1527
0.0313256
3.29449
3.37391
0.104789
1.45795
3.05209
0.105285
0.410373
0.0218199
0.0206687
1.42493
0.0209979
0.0241981
2.39338
0.232246
1.58678
1.6116
0.0207407
0.014687
0.0214732
0.370832
0.0204127
0.193576
3.33957
2.9481
1.01774
0.0214695
0.0202228
0.0667475
2.79951
3.0073
0.125246
0.604625
0.0208546
0.953979
3.52239
0.0746886
0.0238074
0.0214993
0.0199572
0.023252
0.0214152
0.0212977
0.0239553
3.01358
0.0712522
3.31743
0.495285
0.134072
0.153187
0.0212584
0.0208458
0.0219556
0.0204311
0.0217866
0.487571
0.90331
0.768952
3.36949
0.0234277
3.42943
0.120987
3.16745
3.25557
0.0214786
0.02076
0.349852
0.021468
0.0201777
0.380572
2.99716
2.06588
0.0213865
0.0215032
0.0248303
0.0378832
0.315659
0.0204682
0.0240209
0.508778
0.0204227
0.510516
0.0370304
2.53851
0.0217793
0.102025
2.5981
0.0342515
3.22836
0.102901
3.38585
0.0200147
0.0249428
0.0208124
0.0291886
6.16488
0.0214277
7.56227
0.0217784
0.0214561
0.021439
3.27469
0.0423449
0.106016
0.40465
0.0204821
0.0424262
8.11954
0.0574288
0.0207156
0.0229613
0.0214679
0.0545486
0.0212675
0.0208434
3.38611
3.48827
3.18392
1.98315
0.52664
3.82844
0.0663208
3.48858
0.125108
0.0199591
0.020967
0.0195773
0.021616
3.29873
3.2525
0.0203266
7.09679
3.26876
0.0287452
0.0224945
0.0244282
2.48634
2.96436
3.03535
2.11823
3.02139
0.0195621
0.120058
0.0977191
0.270296
3.09786
0.0213266
0.124675
5.80483
0.0316484
2.47951
0.0217875
0.226176
4.65498
3.08418
0.0703367
0.0306688
4.94687
0.12571
3.12942
3.13569
2.98288
0.106403
2.38579
0.0215195
0.0253214
0.044974
4.15049
0.366163
3.47763
0.0218093
0.122327
0.0831806
0.0220544
3.08855
0.0213469
0.125329
3.92949
0.0213566
2.61771
1.76917
3.13399
2.48166
0.151488
0.544171
0.0210579
3.33376
0.0216767
0.0208196
0.0405427
0.0238113
3.14763
0.0239811
0.0245668
0.024084
0.0207635
0.80023
0.0228542
0.110242
0.357485
0.0206051
3.62167
0.0962944
0.0226178
10.6052
0.152803
0.0213314
0.0777337
0.0220349
3.24719
0.512001
0.0203651
0.110348
0.022918
3.41282
3.05444
0.067575
1.39388
0.025648
0.021482
2.42841
0.0238894
0.0212807
2.07182
0.0394146
0.0208604
0.0207783
0.130123
0.0227388
3.82444
0.140144
0.196467
3.88524
0.0494999
0.0657124
0.0210927
3.44907
6.25119
3.56521
0.0213996
0.0202418
0.0690219
0.0298117
0.454592
0.0213068
0.60021
0.0211985
1.81399
0.021607
0.184524
0.186406
0.106201
3.55069
0.549223
3.04855
3.0704
0.0196883
0.698205
1.06978
4.60108
0.0209073
0.220185
5.85488
3.55202
0.109704
0.346329
0.825493
3.53018
0.0434598
0.108962
0.0205698
0.045758
0.0406754
0.0213095
0.0654456
3.45886
0.482861
3.44857
0.437653
0.0211519
0.0207978
0.0307378
0.0213185
0.971644
0.0205012
0.0207623
3.66274
0.218607
0.0357103
0.0946472
0.0222381
0.1029
3.71645
3.11423
3.67542
0.025376
3.08601
0.0229786
0.0203869
0.0232328
3.25953
0.216373
0.11123
0.233595
0.0223053
0.0208095
0.0213163
0.0218258
0.0264529
3.43594
1.01756
0.0284892
3.12369
3.88311
0.547854
4.79038
0.0214177
0.0294205
1.04985
0.021403
0.0170538
0.0267785
0.0239731
2.64904
3.13055
0.0204922
0.0389464
0.0291589
0.0749792
4.20658
2.55116
3.46194
0.0216208
0.0773415
3.34344
0.0773662
0.109544
0.467168
2.51143
3.66988
3.46947
0.0204731
2.33845
0.0203058
0.0230038
0.021325
0.0614625
3.61554
6.99193
0.600803
3.65192
0.0573477
0.0201344
0.0207349
0.0215045
0.0228665
0.0423725
3.5416
3.35641
0.0719764
0.4492
0.0216225
0.0579225
0.0206493
3.11871
0.075156
0.0215291
0.165333
0.0952752
1.74397
3.70217
0.133972
6.34169
0.0246433
3.72271
0.170052
3.07833
0.337211
0.0228383
0.0582767
0.021473
2.95229
4.17657
0.040498
2.64533
0.147382
2.36652
0.070495
1.02639
0.0436672
0.0208196
0.115082
0.0637287
0.0241868
0.0581545
0.0304663
0.032096
8.29924
0.143037
0.0231386
0.0296369
0.0363399
0.0312563
0.0227126
2.37175
0.108891
0.372783
4.73534
0.0213814
3.22453
0.0214574
0.0242041
0.0234198
3.18137
0.0365763
3.19103
4.77624
0.0629083
0.105064
0.111506
2.01443
0.130916
1.41158
0.0240878
0.0432238
0.0208758
3.21755
0.507987
0.0240018
0.0214342
0.0359781
0.0258574
0.0242772
0.0463935
0.0386638
0.0215927
0.0331395
5.86063
4.0481
0.143866
0.0405745
0.019787
2.16572
0.0320587
0.0604819
0.469093
0.0415056
1.64407
0.0202049
0.0242079
0.0241344
0.0327562
0.0211945
3.33063
0.340555
1.12464
0.0362764
3.15692
0.236777
0.0256187
2.04058
0.0615576
0.232084
3.83283
0.0520201
0.0239424
0.039491
0.0695638
0.0245376
0.543436
3.80738
0.364461
0.0208873
0.235106
0.326014
1.94557
0.0212543
0.0433146
0.0210619
0.029957
1.10033
0.0289328
0.0286433
0.0208699
0.0207206
2.41501
3.21593
0.0213398
2.11852
0.234873
0.0201402
0.0298332
3.24844
0.112367
0.0969266
0.0213658
0.0270722
0.161311
0.0215473
0.0210315
2.17387
0.0291179
3.29926
0.0793915
0.0260839
3.62064
0.132983
0.13493
0.0209136
0.419606
0.0294856
0.0265393
1.25716
0.0397097
0.0215492
0.0977238
0.024415
0.0256727
0.0201127
0.134802
0.0213459
0.0690068
0.717637
0.0975716
0.0207866
0.115697
0.0303918
3.95869
0.220354
3.56392
0.116649
3.08607
0.0206916
0.0717372
0.0253633
0.0211138
0.453377
1.82445
0.0248859
0.594545
0.0264461
0.0679736
3.61247
0.0259601
0.534459
1.142
3.44262
2.08483
2.18904
0.0148319
0.0207247
0.0715774
0.0347592
0.568591
1.59238
3.10415
2.52921
3.22654
0.0206727
0.131066
0.0213963
0.0223853
0.0215496
0.478715
0.175957
0.0862566
0.021017
7.95832
0.0272567
3.6912
0.0208562
0.0675577
0.0298727
0.0638684
0.0426214
0.0967534
0.0227981
0.197794
0.528053
0.0209382
4.13611
0.212581
0.205619
0.0228343
0.0294549
0.0214218
0.0210303
0.0603487
0.0863679
3.39327
0.225169
0.078781
0.905038
0.0212302
0.634145
0.0600776
2.43639
0.0297439
0.0302477
0.432554
0.0308059
0.0329743
0.991182
4.50409
0.023536
0.0216375
3.04134
0.0314958
0.0236307
0.0272979
0.0294328
0.0204848
0.0263467
3.19882
0.0213135
0.0425292
3.2127
0.105014
0.0676763
2.21661
2.13301
3.33044
2.38919
0.276407
0.0575536
1.22489
0.0226899
0.0246564
0.0214818
0.020974
7.20595
0.475057
0.0314448
0.0207054
1.17663
0.122426
0.0213674
0.115628
0.0526742
0.0212108
0.0229837
1.41782
0.0265106
0.0371428
0.0359059
0.0212945
0.125551
0.0598292
0.0290487
1.9334
0.0975654
2.46989
2.0697
3.22748
0.0233376
5.19675
0.136863
0.144639
0.0740479
2.27817
0.0691861
0.0262369
0.0470403
0.0636906
0.0235186
0.083231
0.0210676
0.0212453
0.0200696
0.0243801
3.29631
0.0203705
0.0959103
0.0242996
0.0236362
0.0242607
0.456135
0.0232987
0.0673574
0.0215164
0.0243319
0.0248524
0.0206862
0.115705
0.0236395
0.0205185
0.0222367
0.0288795
0.0209555
1.63103
0.0271882
3.51308
0.150823
2.78935
0.0574955
0.0906115
0.0355642
0.0393083
0.0301063
0.0249615
1.50395
2.94651
0.124283
0.0712447
0.03135
0.0212337
2.57776
0.0387352
3.19671
0.0215598
0.762353
0.137194
0.349589
0.426792
0.0200895
0.0214081
0.020316
0.0284944
2.99995
0.0475534
0.877413
0.0257124
0.0284311
0.0209829
0.021836
0.0336313
0.0235814
0.0239735
0.020913
0.181307
0.330721
3.09493
0.0247687
0.101849
0.0206733
0.0202533
0.097226
0.021918
0.0241004
0.0615558
0.0241509
0.0791434
0.0214172
0.026961
0.0215338
0.0244285
3.18702
0.0211104
0.0235584
0.022641
0.0238879
0.828583
0.0217759
0.0472016
0.872243
0.0245179
0.0292607
0.0224298
0.023134
0.0217751
0.150702
0.0214518
0.0269219
2.33738
0.0207918
0.0287488
0.0476829
0.0615056
3.35558
0.020065
0.0238027
0.0221218
0.0298387
0.121407
0.891153
5.75755
0.0202382
0.0287317
0.0824343
0.023496
0.835798
0.0199576
0.0215635
2.47619
0.0393224
0.023732
0.0200147
1.04947
0.160648
3.33244
0.0215636
1.75728
0.0199888
0.0205245
0.0234921
0.073027
3.66531
0.0215172
0.020899
0.399962
0.0214543
0.0232828
0.206528
3.15614
0.0214518
0.0204589
0.02195
0.0307348
0.110842
3.23576
0.0218562
0.0988743
0.0212029
0.0213415
2.51822
0.0232205
0.0218438
0.0299882
0.150209
0.125303
0.0233364
0.022131
2.22726
0.0396968
0.0223748
1.85951
2.77737
0.0214673
0.0217361
0.023201
0.0213567
0.0214576
0.0208122
0.0202039
0.0395397
0.0230414
0.0476633
0.0457304
2.22482
0.851985
0.0303178
0.0200479
0.0213484
0.0221443
0.0231286
0.0397773
0.0285114
1.0437
0.0236036
0.0907389
0.0243939
4.114
5.71515
0.0283724
0.0225788
0.128348
0.0238509
0.0281469
0.0213849
0.022293
0.0210657
0.228926
0.0487262
0.0590477
0.0986734
0.0231978
0.026309
0.0222246
3.27532
7.5444
0.360765
0.0270248
0.107622
0.0922223
3.01975
0.0219149
0.116675
0.0623449
0.0213928
0.0217819
6.68004
0.0214956
0.0224493
0.023227
1.22029
0.0214812
0.0217417
0.0253938
2.22643
0.0209203
0.0521116
1.39022
0.0235795
0.0215042
0.0211321
0.0214155
0.0217583
0.0217104
0.041115
0.0222659
0.021488
0.0217255
0.0217363
0.0282912
0.0213654
0.34061
0.0215472
0.0217018
0.0378399
0.251457
0.0875675
3.4405
1.26961
3.31486
0.0370249
0.0207922
0.0449691
0.779294
0.0201834
0.444802
0.0234276
1.28835
0.0232878
0.0413967
0.0217429
0.0213804
0.107035
0.243451
1.85734
0.303794
3.31734
0.0217276
0.0208732
2.32329
0.0201528
0.0214934
3.15617
0.0210097
2.57281
0.0214354
0.158387
0.0978991
0.0237688
0.237329
0.0375556
0.0718628
1.13702
1.1349
0.693585
3.29509
0.507719
2.34908
0.0215403
4.06825
0.0214553
0.0213034
0.0209247
0.021906
0.886228
0.0223797
4.89557
0.0214969
0.0213628
0.021558
1.03007
0.0216385
0.0207104
0.0563297
0.0252539
0.0265264
0.0249738
0.0281096
0.163046
2.17512
1.13645
0.586683
0.0936256
0.022345
0.648948
0.0214432
0.0292812
0.0873114
2.64337
0.0415346
3.3542
0.0214631
0.812213
2.57968
0.136085
3.35988
0.295075
0.0235962
0.0213132
0.0240785
0.0214529
0.0212974
2.22695
1.69839
0.0210479
0.286114
0.0214115
0.0988265
0.0209664
0.235718
0.0279505
0.0234239
0.0207647
0.551913
0.469831
0.387526
0.0205831
0.0206593
0.0262274
0.0218066
0.0221649
0.780371
1.1292
0.0441305
0.198753
0.0483734
0.0217659
0.0334958
0.0928543
0.021867
3.07527
0.0555133
0.443053
0.0231718
0.0241184
0.0202541
0.0196509
0.0213619
0.0264222
0.0206625
7.04502
0.0408213
1.09319
0.0212644
0.0433981
0.0214531
0.751948
0.0450249
0.0559505
3.045
0.0258639
0.0213238
0.0248407
0.0217971
12.8214
0.103061
0.0469765
0.0560502
3.39556
3.5922
0.10703
0.0506561
0.0213895
0.0230866
0.0231406
0.116164
1.13434
0.0260261
0.0215432
0.540071
0.130095
0.0217585
0.0233143
0.0551043
0.0223139
0.0209338
0.0451199
0.0213908
0.0218577
0.0209251
0.0234773
0.0220252
0.0557518
8.23213
0.0214544
0.0986481
0.094055
0.100606
0.0209156
0.0214693
0.204794
0.0257373
0.0214273
0.930918
0.021332
0.0508721
0.0215813
0.0510289
1.92821
0.0556352
0.022547
0.0633389
2.15671
1.11696
0.0214234
0.0349878
4.06846
0.021156
0.0222314
0.0719122
11.7712
3.38093
0.0237705
0.0213378
0.0931343
0.021195
0.022281
0.0283598
0.0217587
3.43476
0.0217775
0.239069
0.0214504
0.0214587
0.13035
0.0213574
0.0215426
0.0286742
0.810405
0.0205563
0.0787835
0.021854
0.0211016
0.0215271
0.0278891
0.0255923
0.0765
0.0231321
0.0217384
0.0217985
0.0375352
0.0223504
3.30811
0.0219972
0.101797
0.0331292
0.022616
0.0273997
0.343088
0.021495
0.0220222
0.0199797
0.0949082
0.48601
0.0215354
0.0419924
0.0209162
0.0415687
0.0214193
0.295684
1.10674
0.0235318
0.0256566
0.027303
0.0721248
0.0219292
0.0207453
0.0458253