/*--------------------------------*- C++ -*----------------------------------*\
| =========                 |                                                 |
| \\      /  F ield         | OpenFOAM: The Open Source CFD Toolbox           |
|  \\    /   O peration     | Version:  v2012                                 |
|   \\  /    A nd           | Website:  www.openfoam.com                      |
|    \\/     M anipulation  |                                                 |
\*---------------------------------------------------------------------------*/
FoamFile
{
    version     2.0;
    format      ascii;
    class       volScalarField;
    location    "150";
    object      ReThetat;
}
// * * * * * * * * * * * * * * * * * * * * * * * * * * * * * * * * * * * * * //

dimensions      [0 0 0 0 0 0 0];


internalField   nonuniform List<scalar> 
13851
(
584.344
132.122
382.045
576.506
424.674
376.667
592.193
438.297
612.168
435.967
117.768
43.8612
90.31
33.8423
600.652
568.782
533.857
518.307
445.544
612.214
573.966
386.252
597.779
585.895
592.375
432.124
533.783
34.1383
588.116
543.808
386.451
530.745
383.937
95.9306
590.15
559.536
665.377
360.244
409.524
97.1017
594.115
626.37
33.5412
109.491
103.624
38.0691
108.088
77.1205
533.186
139.953
503.262
578.895
32.9796
592.286
582.028
626.304
603.404
42.1485
546.111
584.375
346.585
54.952
540.951
430.672
337.062
562.037
735.209
112.599
491.868
522.821
33.7431
229.726
120.247
594.231
600.777
607.908
390.889
38.4759
451.783
33.0743
569.139
125.437
590.353
35.7468
420.673
44.0907
402.7
51.2896
514.162
605.136
562.87
417.208
115.113
511.981
523.455
591.151
430.25
46.0559
133.004
588.366
32.3704
469.714
588.732
549.819
599.897
328.756
475.113
627.982
80.126
311.503
584.063
603.691
549.528
576.701
587.974
158.817
47.4894
628.566
576.508
578.575
33.3522
543.865
81.0694
130.256
79.8897
580.531
82.115
455.225
577.874
412.21
592.13
609.847
34.1956
588.993
218.426
606.743
628.772
275.782
44.2765
33.4688
32.4738
576.972
594.098
620.535
543.362
116.903
365.342
405.737
589.182
102.305
527.229
582.44
33.4372
602.488
545.882
546.343
604.649
552.034
549.96
503.795
625.319
521.361
39.9823
610.765
522.151
623.453
310.524
490.208
578.174
45.5177
38.1157
616.424
604.254
33.6512
610.482
77.3373
454.695
597.919
374.994
627.685
526.467
146.25
591.79
385.679
626.779
596.804
575.838
588.426
412.717
500.776
112.096
33.5576
595.112
485.919
56.3375
546.878
594.226
117.818
599.78
607.488
583.518
42.4249
560.588
592.007
510.518
591.091
62.4394
528.904
37.1703
627.294
46.5649
584.423
121.335
628.384
621.728
131.227
396.755
38.4097
598.924
37.5315
527.286
568.625
48.6853
487.56
41.9768
590.908
496.696
594.522
32.4829
628.35
439.901
291.79
616.711
597.803
498.772
412.165
67.1726
472.23
620.811
589.884
360.004
114.602
621.061
492.646
606.594
39.6802
465.582
102.895
550.429
543.063
486.527
111.359
567.361
548.376
496.648
79.4216
514.799
168.722
38.5515
598.32
621.534
549.873
136.077
610.992
164.486
547.573
567.31
522.158
51.1958
447.415
501.731
544.809
273.84
456.768
571.372
610.34
123.108
267.904
43.206
113.54
620.98
627.96
601.191
489.591
100.57
79.0308
610.084
604.533
222.699
124.907
407.849
546.561
581.749
483.853
127.593
216.566
538.687
49.5994
609.701
40.4527
528.171
538.907
43.6362
581.948
359.268
43.4869
610.48
493.069
503.298
547.879
46.4292
535.862
564.995
47.5453
625.549
546.679
567.165
45.9084
566.829
598.8
482.506
601.656
39.5379
446.48
598.409
600.35
568.83
496.593
546.226
604.907
582.27
565.369
108.016
32.29
49.4317
551.645
46.3411
103.438
599.368
481.083
403.493
347.338
376.262
575.261
423.726
537.205
83.8318
42.1236
598.93
181.377
179.305
285.909
549.873
363.713
32.9548
603.777
79.2795
601.114
601.781
611.681
627.928
605.146
43.6002
103.968
586.255
492.538
624.561
55.0832
573.13
83.5485
47.1966
586.405
441.363
505.416
79.8751
595.421
628.162
477.698
32.9394
595.666
48.1546
317.66
572.05
41.9873
139.61
140.445
514.411
607.708
586.93
558.561
491.299
32.9461
489.939
43.94
43.174
624.167
599.076
47.9349
33.9048
282.802
47.9709
461.794
505.2
588.721
129.928
614.681
566.194
552.993
590.138
596.149
610.964
623.657
438.464
399.16
40.2084
548.279
483.754
452.947
112.131
545.353
269.066
540.433
126.151
628.982
611.326
590.926
400.123
97.1457
441.058
461.6
39.7433
97.4795
473.361
570.589
510.08
595.465
109.297
600.601
283.674
117.74
391.513
37.4513
597.401
182.525
115.189
35.4361
628.892
497.695
452.35
535.762
615.263
568.169
521.907
570.295
496.169
81.771
594.764
599.757
33.0993
515.458
628.238
50.8092
607.951
578.65
614.05
478.83
557.903
627.645
598.163
49.4823
587.214
490.407
609.564
521.721
144.594
573.254
595.912
577.713
577.38
85.4958
567.12
458.285
592.927
594.18
35.7789
37.1764
590.751
548.454
539.603
114.706
36.478
600.226
103.373
594.233
410.994
586.597
33.3056
626.631
32.4369
520.952
626.142
543.035
44.41
447.978
105.579
581.561
111.543
571.175
611.638
610.402
592.62
34.2154
482.619
574.978
538.998
453.668
624.751
69.9062
96.5373
524.933
512.259
118.274
136.421
49.4868
580.513
33.5473
37.1378
41.616
529.427
616.153
91.952
184.715
75.7509
118.558
208.581
550.645
205.696
92.0153
628.577
231.682
494.732
37.0386
550.172
594.473
604.879
591.908
416.917
439.803
54.0801
88.2866
611.291
33.0838
38.7
121.727
103.645
489.419
628.591
611.767
169.266
64.337
550.185
560.938
561.054
626.538
421.693
128.284
294.005
485.774
34.4248
95.4758
593.997
591.733
50.7737
42.6664
570.968
498.902
304.751
627.663
595.788
245.538
626.832
550.66
627.877
607.7
81.8909
426.282
483.759
627.032
50.4019
113.783
608.998
607.527
610.046
593.566
33.4599
111.9
118.617
42.6113
99.1965
501.428
36.8324
36.8239
530.731
492.131
628.72
565.488
554.027
54.1296
84.319
559.492
496.626
612.897
573.158
572.67
108.671
481.215
593.887
539.362
615.177
517.353
436.417
584.981
596.419
571.269
577.474
420.11
352.151
501.337
574.131
569.413
613.092
353.463
461.395
42.3164
582.409
587.566
94.5263
562.411
39.6366
40.8716
37.3478
51.0773
614.69
152.041
621.192
607.123
626.257
606.733
600.14
551.548
479.272
627.249
141.626
511.407
104.687
606.674
623.552
605.963
401.309
58.5391
504.103
518.567
621.928
592.374
600.35
604.651
740.637
38.0248
579.558
627.423
593.441
603.828
314.576
35.8196
571.881
46.2998
125.138
596.796
574.767
33.7065
488.079
39.7128
566.395
543.61
499.219
552.135
119.758
591.374
105.114
599.224
511.91
37.7895
606.464
574.071
245.053
611.837
531.208
153.629
33.4002
475.804
244.029
132.675
628.15
606.922
37.7165
564.811
402.764
41.6717
613.8
567.915
628.461
92.4713
374.438
538.477
588.141
149.713
526.558
607.878
33.6667
90.6512
40.4454
625.842
579.804
37.4468
35.0799
561.371
579.405
64.3338
589.857
140.723
345.137
379.811
541.023
37.4955
532.351
572.962
631.985
591.336
560.038
554.562
613.452
33.7134
523.164
526.629
490.8
200.216
612.526
205.67
583.801
526.649
622.301
598.097
594.754
42.8038
605.128
626.361
88.2813
590.585
37.6269
595.772
580.451
526.576
215.62
110.958
607.611
335.733
47.7345
566.852
47.8655
510.083
613.91
716.068
33.5612
314.492
546.44
607.322
627.772
105.541
367.724
526.554
535.941
564.008
589.46
579.699
538.162
93.1805
409.184
93.2771
581.408
411.776
527.747
47.6792
535.784
43.0245
762.102
589.749
36.5206
312.406
56.0052
32.7825
44.5579
116.973
544.461
613.612
564.258
40.7018
35.6613
602.148
591.073
495.583
131.993
625.793
34.0274
614.185
586.747
33.5012
37.7419
129.019
607.67
599.407
35.3985
626.15
571.185
574.467
48.9136
303.655
61.2812
467.755
490.185
565.961
588.791
128.84
502.967
33.7238
446.94
489.073
34.0707
54.0652
38.5013
590.24
507.348
609.136
573.15
578.707
38.779
560.073
36.1739
625.849
517.588
595.924
331.796
505.331
505.628
45.6598
495.064
465.299
584.664
513.192
75.9296
383.642
548.995
37.6274
613.482
31.9023
108.159
574.577
44.8796
32.4221
37.863
117.876
430.756
601.851
40.3068
562.285
140.699
36.9317
605.995
553.703
419.318
108.164
36.4199
578.978
608.158
57.346
37.4547
479.203
546.445
588.25
108.092
34.4147
532.64
626.521
522.304
611.397
572.598
160.913
587.7
308.933
117.225
586.011
595.587
602.168
554.535
35.2829
45.2174
500.763
46.6257
595.607
497.892
602.04
610.788
579.477
585.374
36.0889
590.05
501.502
588.951
541.864
150.855
35.3898
578.057
51.0855
559.174
410.56
505.596
486.221
33.6048
506.349
423.477
41.1293
183.751
31.4133
450.854
103.42
583.903
496.477
472.394
38.8746
600.834
34.7759
607.281
606.057
33.4726
586.066
155.927
542.719
609.892
430.659
609.203
600.982
625.749
570.514
531.759
605.313
611.309
33.753
534.132
34.6101
589.245
579
548.324
591.853
609.889
542.467
579.819
608.905
587.923
592.478
38.5898
41.3973
344.347
46.46
911.971
596.475
121.011
503.644
605.321
112.765
121.329
129.37
601.115
107.162
101.235
33.3562
616.749
89.9924
521.669
533.407
633.316
613.695
78.3717
368.958
83.8862
607.401
590.722
84.8298
574.546
328.393
112.897
119.448
414.831
97.3605
594.361
588.095
363.448
521.929
543.468
348.918
445.061
579.067
580.409
48.9436
608.569
40.186
157.664
186.876
538.966
586.918
618.374
588.916
112.631
101.949
616.575
571.206
607.862
504.378
624.68
608.641
565.012
484.174
469.601
428.909
507.276
596.104
506.099
128.493
576.381
37.0308
420.376
554.023
622.661
495.288
594.084
595.103
589.807
38.8006
569.728
94.2412
542.128
134.967
591.852
597.45
583.913
122.059
96.4876
625.779
483.867
387.665
35.7937
575.762
112.916
609.772
56.7304
422.759
52.1691
550.741
538.446
341.366
38.6927
96.9603
45.9272
601.283
256.139
624.907
548.666
522.507
575.162
38.0649
520.171
503.652
112.815
573.224
81.6757
599.613
535.542
539.812
616.206
560.413
58.5618
85.7671
78.0064
603.308
505.668
577.975
130.642
50.1928
383.353
618.556
581.217
34.2285
462.557
128.005
66.6261
311.18
622.924
107.836
566.142
457.19
503.438
46.8001
110.312
417.124
315.988
583.942
529.158
585.129
31.354
406.801
38.0756
218.752
529.731
572.446
554.01
47.8059
660.951
605.197
55.484
38.1712
51.1928
81.7495
588.233
587.229
36.1609
111.571
33.7356
577.698
592.161
584.95
38.2556
559.748
572.024
104.561
363.854
80.6176
118.709
80.6231
597.044
69.8032
525.654
597.089
575.07
56.3219
591.818
607.907
34.9659
48.9713
589.716
602.835
33.917
607.592
163.865
601.615
136.665
588.639
502.604
79.1695
50.9261
554.912
34.0038
118.874
165.323
169.579
56.6897
565.851
594.702
464.515
571.847
599.764
616.754
119.48
597.872
621.837
607.397
560.834
39.64
406.794
314.005
550.88
479.864
610.559
495.692
133.381
34.3563
609.157
479.819
112.662
585.7
613.461
39.0627
487.961
572.144
573.832
33.5026
79.1197
188.403
97.7143
505.733
119.879
99.4492
114.937
472.236
619.061
575.184
595.197
597.628
39.1998
38.4189
564.517
31.5639
283.852
39.7641
110.199
204.795
593.606
295.511
162.245
605.731
551.448
45.0573
42.3586
154.176
50.8364
568.146
36.6055
44.7182
497.221
588.667
602.849
126.807
601.357
813.041
581.741
562.588
561.27
105.461
48.476
33.8417
587.987
102.35
537.482
508.703
601.638
605.912
44.869
550.92
36.5849
118.525
102.833
572.494
604.704
573.343
578.657
556.227
598.453
552.129
588.518
577.791
571.528
563.942
521.636
607.291
541.412
315.909
35.0807
603.456
460.809
591.991
150.595
642.418
73.6705
152.71
504.586
540.336
584.782
118.618
593.659
162.136
603.826
606.017
588.964
45.7794
507.279
563.26
524.717
594.212
513.941
46.7973
202.583
482.29
586.51
209.76
617.711
605.63
536.541
36.5244
598.64
500.632
369.688
98.1575
572.02
559.887
35.6806
554.763
159.907
1008.87
51.7931
588.463
679.224
590.985
41.1045
558.558
448.657
575.014
34.8121
557.592
53.1183
77.6782
590.477
95.4454
558.754
584.079
46.1187
581.887
602.134
614.7
535.056
136.352
570.122
547.891
575.767
517.278
110.186
755.402
48.9896
108.729
570.108
559.144
396.266
31.7334
454.391
130.675
600.707
496
613.403
75.4443
496.233
591.887
37.9104
243.162
490.724
553.105
627.106
596.178
544.748
517.09
85.2797
458.871
395.257
543.814
400.214
41.4545
105.63
47.9515
603.615
608.884
521.802
38.3696
31.6269
344.513
581.684
40.7022
114.196
605.739
523.503
606.471
488.196
501.971
405.74
34.4647
699.731
552.845
58.1591
38.7556
598.447
380.871
42.8148
32.1822
532.689
544.901
628.469
569.628
599.732
547.957
45.127
46.0654
38.2322
44.9595
554.377
572.327
559.016
600.198
591.7
613.579
55.3884
602.758
50.9708
559.712
547.616
383.948
510.965
38.1588
86.4818
486.551
623.996
676.493
92.9425
204.451
530.455
607.375
612.082
401.541
513.527
568.939
106.195
564.933
614.379
558.925
217.863
35.5472
203.795
602.29
463.658
590.904
42.1587
621.661
37.5342
606.052
568.226
559.214
594.391
148.839
491.119
468.172
36.038
43.1995
513.891
497.031
593.56
87.6483
33.2752
593.773
620.857
116.102
629.247
33.7986
594.992
497.317
390.281
101.116
467.488
576.966
596.726
532.485
45.8026
594.76
71.8831
31.8362
205.622
59.6551
560.419
40.0206
541.422
286.376
593.982
106.743
112.783
34.317
34.8459
51.4854
583.145
353.923
608.483
34.9832
110.802
44.1205
37.5631
551.881
52.9508
75.2716
567.753
566.055
581.885
35.8046
536.957
529.433
569.751
584.485
610.816
578.559
49.0713
532.857
541.855
34.4622
117.874
589.692
590.632
613.596
544.211
36.8865
531.071
547.981
551.181
115.965
379.443
468.406
33.3629
546.913
45.9447
521.719
529.792
590.726
572.374
454.817
96.045
105.665
36.1204
388.871
51.4765
566.575
535.277
592.372
41.3511
40.7415
126.68
129.309
538.544
585.626
604.525
603.288
613.309
31.9687
524.716
32.2032
573.272
61.4605
162.658
40.7343
498.027
520.068
33.3067
571.649
380.863
34.8068
611.817
122.059
516.237
36.5156
33.8728
573.565
97.4744
98.5665
573.656
380.407
569.187
42.0424
101.49
534.366
593.329
112.19
56.7571
458.94
87.2554
574.965
545.672
604.152
43.3831
36.0606
458.811
502.376
49.1838
35.535
607.941
592.451
533.589
45.7391
47.5857
593.985
36.1229
566.697
602.444
579.632
41.5869
277.365
223.722
31.7361
563.424
552.276
602.682
34.254
578.411
51.8665
572.465
124.812
581.706
595.422
433.946
32.1511
116.571
569.982
209.354
622.283
581.202
592.071
447.939
450.456
465.376
445.421
54.6052
531.407
400.064
303.591
39.5548
597.053
36.5664
37.0201
541.173
100.224
519.232
32.8453
577.248
522.178
604.887
399.653
34.8533
374.86
45.7282
564.593
503.673
568.509
36.9872
622.906
606.896
85.4501
439.725
36.4119
127.461
518.438
516.617
614.977
179.254
567.91
601.253
556.744
622.835
474.099
585.521
172.941
580.554
112.776
106.343
566.297
187.301
537.755
42.133
594.973
71.3259
158.411
609.734
587.953
554.598
581.29
460.991
599.522
110.107
538.297
172.544
99.7929
590.962
569.671
614.832
80.5973
580.147
592.063
675.572
538.646
204.637
47.2354
556.331
574.957
543.473
553.151
565.97
480.769
619.647
538.682
39.7831
38.5598
454.06
555.989
33.6915
71.3633
580.649
183.528
53.1698
595.055
543.026
596.421
83.4438
37.4154
111.438
619.975
535.791
569.768
588.892
520.635
585.641
139.325
35.671
48.7979
612.752
538.024
551.448
43.1555
627.182
35.6676
42.5951
124.73
175.348
50.6652
147.65
595.332
119.967
106.718
564.496
615.263
605.346
46.2646
32.4715
34.5733
596.65
45.3317
574.464
394.503
614.219
552.689
559.264
612.647
40.0012
566.386
33.6014
34.8701
35.3903
463.196
513.161
36.9879
46.2697
590.887
33.8987
614.74
627.385
591.689
289.467
612.003
34.5022
574.276
160.211
454.534
42.2229
33.4431
381.54
613.201
552.197
475.307
39.4187
599.419
623.153
572.037
53.3093
597.824
137.397
34.4707
473.855
404.947
596.271
113.173
572.696
37.1637
620.11
33.3945
509.125
584.333
33.9692
34.7883
619.54
519.14
544.342
34.1932
201.011
308.676
146.378
572.194
559.385
48.2794
606.289
322.768
568.516
544.126
495.654
46.1995
40.676
581.615
36.3082
557.008
451.972
52.4013
33.7027
473.867
39.0091
287.71
595.506
118.476
563.934
500.395
566.883
61.8299
619.164
44.2617
162.37
350.545
599.388
534.855
37.775
452.085
61.4532
564.775
540.392
304.887
62.338
527.615
44.7041
78.7975
33.7827
582.929
67.5828
450.536
43.0031
598.264
645.516
600.391
44.2133
545.779
111.84
114.283
568.061
617.176
595.854
42.5459
229.447
32.7968
33.8864
602.706
47.9133
50.4921
573.324
32.8215
38.3719
453.936
46.525
542.588
533.885
96.6558
79.4804
591.707
31.9209
588.396
588.735
71.8896
40.2116
55.4828
34.8669
570.538
569.992
569.75
53.0925
34.4657
594.335
504.074
92.9651
591.878
580.146
58.4561
44.2243
553.304
600.2
565.708
566.003
117.686
580.426
604.452
548.948
77.5759
47.9483
96.2538
55.8782
580.829
539.509
40.145
48.6071
511.82
289.344
598.079
469.239
574.344
591.044
460.396
605.086
84.7076
541.851
608.617
541.137
317.873
165.35
38.1715
591.238
553.736
48.3764
86.9412
532.116
600.619
603.799
111.828
579.327
594.077
523.035
589.685
39.472
157.738
569.568
540.322
621.193
584.774
53.2592
116.949
485.584
32.959
182.647
570.908
597.078
582.27
600.103
571.948
565.908
529.124
51.7075
582.434
457.631
38.8187
171.153
594.051
607.016
544.261
98.3614
601.108
311.268
705.567
619.543
578.022
38.4695
620.603
133.286
617.391
620.338
597.222
609.175
747.708
81.5562
142.519
467.077
39.5933
73.8976
70.0637
496.428
39.8711
32.2523
415.649
144.736
56.9545
575.796
110.636
576.368
611.637
102.617
602.586
540.59
57.7302
188.221
63.6738
93.3054
610.075
734.097
580.937
145.662
614.515
202.514
38.2096
56.0124
71.2241
579.747
618.618
506.672
31.3
38.81
350.936
515.363
605.431
506.835
34.0891
325.705
541.529
578.454
622.545
567.443
591.282
594.62
541.453
39.3916
507.567
37.1418
118.274
447.45
557.329
594.914
606.029
598.774
613.701
578.057
123.041
245.315
93.7011
44.3848
550.794
33.9697
390.065
45.2224
35.051
585.155
609.053
134.568
580.974
619.417
124.368
39.1353
183.117
585.339
578.37
577.874
533.612
512.352
614.425
587.815
596.606
610.738
96.7106
539.39
50.9319
572.472
741.447
31.6491
569.288
53.8039
546.779
36.0607
621.031
546.742
608.748
555.118
45.1915
594.993
40.7568
599.949
595.865
601.545
42.8819
477.028
497.512
124.005
613.552
568.289
45.7526
544.251
611.119
594.837
580.219
388.634
600.553
607.456
41.3878
49.9092
43.1113
79.6887
523.878
33.306
535.079
44.7282
392.876
622.024
603.114
628.974
581.516
52.4188
51.486
616.419
38.1966
38.988
514.575
579.521
556.884
65.5583
60.3035
38.7366
49.2826
38.4874
629.14
492.718
413.476
156.633
89.6451
591.997
568.226
36.7775
571.505
32.7079
581.124
185.676
33.956
36.8426
543.851
535.704
39.0739
561.619
35.871
40.0208
39.812
575.086
84.4144
577.261
582.121
473.697
35.8148
112.248
35.5196
590.603
362.008
540.487
587.606
55.9156
594.516
574.302
37.9249
596.416
44.4854
109.468
37.8556
72.427
451.078
112.351
602.98
51.8073
601.178
609.883
463.146
537.445
36.1877
536.482
549.796
536.814
609.116
303.302
555.484
575.986
116.013
612.192
33.7781
423.407
575.601
48.0478
720.558
599.509
291.221
563.454
39.3328
115.322
615.967
562.603
555.725
50.8012
37.855
498.213
61.0785
579.541
603.99
59.637
535.287
600.837
174.21
505.433
604.785
608.81
388.27
553.413
38.8954
590.192
207.188
32.808
512.261
402.973
601.947
50.3698
34.8001
40.6202
598.172
617.508
439.674
572.495
98.8747
600.429
93.4024
601.78
97.2
588.867
212.431
315.167
575.733
34.3071
210.134
53.7895
38.1021
627.25
488.474
362.779
35.5788
606.012
332.498
35.8927
35.7136
571.005
410.191
86.3106
49.4907
503.469
632.299
613.111
475.66
501.634
594.693
534.12
34.7903
120.835
35.7808
533.183
594.716
609.152
465.088
593.647
72.8958
613.871
609.645
47.8009
499.34
466.526
446.851
583.251
445.58
31.6481
36.7419
31.8614
528.036
37.2917
586.225
614.796
551.521
38.3841
526.364
454.781
521.313
558.111
608.591
592.196
578.317
511.948
33.9335
371.478
519.571
54.9248
39.1737
106.992
38.8534
588.296
494.913
83.3588
592.774
768.134
518.301
533.557
54.7079
36.4703
613.931
504.664
512.953
430.644
44.7605
38.2025
48.3774
598.057
538.919
44.8887
554.287
566.21
127.635
66.0744
54.6753
43.3257
614.507
87.9823
616.525
588.067
588.486
406.272
52.6359
37.3406
91.4082
35.2207
416.846
620.131
607.437
578.889
569.63
460.911
47.5211
40.3704
542.373
138.068
583.257
412.18
611.253
37.256
381.424
598.652
319.8
468.428
48.2634
35.2446
379.528
32.9246
540.803
42.4473
666.164
83.172
113.179
584.214
415.384
581.206
57.3865
31.4831
455.511
46.3169
626.828
43.5217
394.729
151.757
416.313
604.937
563.548
535.141
530.109
425.545
500.045
534.586
46.4439
572.525
550.671
567.131
468.922
567.191
574.875
34.6363
404.677
123.932
34.5906
586.238
35.8378
602.022
586.197
550.153
36.3912
573.902
35.1199
41.8025
408.314
492.701
573.95
46.0522
565.173
63.3571
553.079
503.813
604.491
34.7667
98.6458
554.988
591.975
572.242
509.165
545.43
498.473
502.119
575.158
523.994
49.9731
32.3048
317.536
466.568
625.3
37.2923
493.66
518.178
188.778
502.618
55.5436
618.964
561.975
588.445
510.134
593.427
34.1213
123.355
221.269
516.249
53.899
510.231
516.803
42.1097
518.389
491.027
34.75
397.142
536.843
503.126
391.724
582.286
596.527
34.0624
105.559
603.628
514.57
238.013
49.5407
592.076
456.945
604.704
563.901
243.786
540.029
517.031
604.839
606.447
41.8353
39.0178
594.023
41.0685
480.113
620.036
505.325
34.4751
393.792
487.412
590.745
508.877
417.314
594.347
602.91
74.7678
496.504
34.4128
562.48
523.918
55.0473
338.377
395.337
603.297
112.225
510.51
514.098
116.492
471.293
585.358
406.823
520.355
578.286
619.953
386.873
586.568
393.489
300.991
405.024
608.702
468.894
499.25
43.2406
295.242
36.0487
359.826
36.6883
610.271
484.494
524.153
595.928
101.588
100.397
535.421
140.654
519.752
449.5
35.5236
512.64
111.892
74.3718
50.2947
49.5636
65.5888
861.165
610.375
399.134
537.69
118.896
62.0948
37.5712
36.8398
42.1289
606.441
340.531
599.112
563.479
573.297
102.668
318.471
396.538
602.258
35.5649
513.514
37.5745
610.465
526.614
501.277
525.743
466.726
489.964
547.042
342.914
270.122
602.841
32.408
533.548
322.353
573.182
506.139
593.022
603.487
517.468
458.948
33.4519
525.908
527.812
108.349
598.486
196.889
506.913
35.8996
564.708
550.57
107.704
533.503
467.791
90.1083
35.8336
548.585
583.771
52.517
492.457
539.012
522.901
569.932
613.55
550.331
38.8909
599.169
451.431
47.3453
569.552
431.747
59.3044
51.5804
40.7431
32.6433
325.128
452.832
63.5918
556.312
538.141
580.52
601.934
42.4212
100.203
509.888
610.74
76.0889
449.442
606.847
287.39
420.899
593.221
552.997
101.887
520.423
505.068
573.653
595.006
516.641
499.5
570.198
78.0468
467.048
44.9688
70.0691
40.5802
564.145
52.5611
376.078
553.816
488.193
44.5452
522.401
546.105
493.51
442.802
547.744
529.53
600.161
592
620.128
528.812
34.6575
615.251
523.381
587.663
539.336
544.113
446.038
543.099
492.87
579.937
546.785
543.439
609.313
340.569
538.396
612.709
572.397
504.67
609.992
54.7321
519.569
38.1698
304.797
43.3745
431.622
536.965
502.636
494.388
500.193
535.385
84.7504
62.6259
373.507
550.018
497.712
591.553
47.0771
552.13
58.5611
603.808
96.2336
558.924
313.113
239.672
620.264
599.345
616.378
515
60.4472
432.589
82.7971
544.818
514.46
603.16
574.161
486.572
540.295
545.164
607.288
665.208
124.65
84.7558
549.17
719.224
610.442
616.903
556.574
567.37
533.653
475.013
542.284
490.798
597.926
513.055
585.063
548.071
34.9713
604.198
540.356
557.462
545.323
82.5628
576.949
498.392
147.42
545.847
532.383
552.802
568.622
569.474
328.561
581.335
573.434
32.3433
608.905
560.936
476.847
398.448
34.7816
620.753
539.923
585.857
501.725
442.259
107.064
45.3432
618.355
578.38
389.447
563.613
482.281
622.523
580.793
43.2207
478.38
533.886
621.23
142.485
383.481
32.6861
586.73
89.6753
621.79
613.909
543.255
549.615
52.2397
580.125
605.153
116.57
580.646
542.802
804.976
31.8979
582.008
614.519
585.035
572.241
597.784
57.7211
565.633
572.414
599.46
587.431
65.8377
563.934
585.207
497.93
460.03
571.2
539.179
574.92
105.4
464.782
556.94
85.5847
49.9794
580.535
569.37
549.725
598.467
580.754
608.875
618.105
472.385
557.173
408.972
490.488
33.9783
90.3272
572.783
621.057
592.192
567.607
545.661
465.337
551.798
323.273
548.239
317.037
536.958
45.0538
36.0622
504.16
577.1
384.545
538.401
557.789
596.676
559.974
597.865
188.626
477.953
381.526
573.863
551.572
573.829
564.618
56.9701
38.0849
118.181
520.964
363.874
363.571
48.9179
567.785
670.123
436.696
594.504
584.094
37.2703
578.786
562.281
549.434
64.103
582.74
572.423
548.354
33.6639
606.577
439.281
63.865
540.191
585.96
598.704
594.648
580.572
572.313
355.771
583.344
581.878
572.056
569.796
538.918
587.748
108.577
592.829
572.322
547.816
185.112
377.848
32.0324
62.4068
56.1564
507.332
608.771
486.206
190.516
618.516
123.556
563.553
78.6364
549.501
501.099
582.929
597.763
574.046
505.494
44.93
120.082
50.2431
577.41
608.307
34.5195
619.099
584.459
59.5233
599.712
38.7797
594.953
448.153
576.418
535.595
224.723
543.514
445.055
68.1742
67.7286
126.229
39.4308
117.758
44.9959
577.579
31.7283
579.997
592.159
605.604
565.686
116.744
552.226
50.8495
579.191
600.861
596.22
88.0186
602.503
607.774
409.661
542.351
575.945
533.612
527.985
530.117
114.025
71.7623
151.856
417.111
556.836
668.111
602.636
481.5
306.079
58.3397
572.942
55.5836
580.941
96.0133
51.2466
570.481
41.7795
114.308
547.455
592.72
541.004
581.109
594.24
77.7118
122.861
600.561
265.516
599.946
573.12
603.306
298.3
561.283
541.213
611.661
129.651
243.315
105.677
612.84
610.813
540.959
589.368
571.117
109.15
71.2381
502.591
471.947
406.474
581.403
560.936
345.03
566.859
51.5398
416.843
121.933
569.797
529.383
617.313
627.371
595.115
527.162
608.221
39.3367
430.151
74.6869
589.477
558.226
584.959
94.6097
417.458
421.717
58.7841
531.501
591.841
543.742
575.257
45.6081
320.546
426.092
416.723
55.0346
33.461
397.526
436.569
591.903
555.209
547.776
268.498
69.9431
548.715
576.983
96.4806
802.424
568.681
549.191
422.179
560.349
604.956
541.171
591.723
572.394
603.217
542.851
563.809
417.531
43.0787
603.345
665.871
409.54
572.547
603.076
602.986
196.454
534.892
601.146
87.1123
587.296
419.042
575.392
473.597
47.4389
447.704
552.242
472.105
54.9906
68.5494
600.254
492.39
51.5682
601.853
592.089
534.676
39.9795
37.4727
533.951
587.724
298.75
601.617
573.579
574.872
569.215
54.6855
574.676
235.4
580.634
604.317
333.975
600.101
583.672
568.875
92.9242
613.135
346.262
574.518
602.858
594.288
524.348
542.033
467.375
551.544
572.286
573.087
503.021
559.567
41.0927
565.89
570.407
492.705
576.124
510.486
215.142
582.525
565.513
622.059
303.564
92.0799
602.073
520.95
605.226
510.794
605.454
123.204
148.325
548.513
523.28
578.013
340.091
589.494
609.105
470.959
601.968
565.396
591.679
580.584
594.142
603.386
480.22
573.017
609.329
556.814
102.707
597.378
69.4557
616.602
432.39
49.3352
587.49
562.118
579.854
570.71
580.141
583.943
596.853
586.235
99.3486
501.591
585.648
548.557
595.391
622.816
616.705
126.341
594.744
112.489
252.366
612.801
586.623
533.656
603.338
594.836
584.701
568.622
120.576
77.8912
620.433
115.911
31.3181
549.778
582.591
597.825
48.928
569.29
600.232
598.692
561.125
535.598
595.632
83.6701
54.2142
245.046
597.901
73.6285
569.385
559.022
593.285
479.712
117.254
36.1101
566.165
583.642
423.906
504.304
555.51
299.808
554.651
137.073
31.9049
72.3222
593.576
580.756
612.854
553.181
615.521
577.999
53.63
527.49
574.619
39.9522
583.406
594.353
593.559
479.505
66.1032
64.8157
504.157
439.472
568.387
593.643
33.37
34.6454
577.388
127.004
599.759
598.39
619.445
565.867
532.634
611.003
583.304
520.862
133.081
197.871
408.88
566.111
575.045
34.1576
582.486
62.1857
547.979
609.407
89.6107
598.175
423.167
557.961
106.228
613.799
611.345
31.8801
597.602
559.514
39.4785
64.5392
70.7967
511.402
582.005
579.514
112.188
561.73
552.718
589.131
514.569
61.5741
594.209
597.238
230.593
34.6256
34.9877
528.819
565.411
561.825
561.798
590.156
562.12
516.404
592.267
492.089
465.82
34.9855
594.942
341.575
589.353
582.015
601.42
557.734
546.765
565.899
593.273
61.5161
197.129
519.868
590.722
571.982
554.872
62.4913
76.4306
594.093
543.555
589.718
595.124
587.867
592.891
573.498
596.95
95.7639
594.94
589.862
110.485
623.675
200.6
64.0819
518.42
593.099
600.315
456.007
596.665
619.778
480.445
92.9025
555.275
564.718
74.8753
105.02
668.357
584.856
600.441
104.402
506.037
454.066
100.864
612.986
107.439
93.2131
586.029
127.071
78.0561
571.202
588.689
529.96
596.173
58.0439
540.684
33.9215
320.476
620.259
115.506
603.671
596.849
453.055
596.491
603.352
594.199
618.896
438.853
57.7418
151.601
549.283
72.7292
40.4985
520.77
596.302
572.581
122.469
105.919
70.7715
549.75
585.908
518.323
85.1812
614.142
890.422
604.28
588.818
500.504
545.822
563.749
593.121
599.459
617.669
599.8
595.699
607.447
37.117
88.8487
75.6239
587.222
550.62
183.781
266.252
540.605
476.233
560.966
568.628
618.299
194.771
559.787
606.384
548.054
591.799
417.021
589.318
82.5449
599.992
554.9
612.328
613.47
450.304
563.409
543.994
341.934
598.953
71.5712
591.912
443.425
736.375
55.2582
591.815
352.584
41.8524
619.165
599.107
572.854
594.244
602.88
111.698
36.3175
606.828
578.34
410.489
497.613
552.567
625.725
599.124
391.006
211.574
590.472
588.884
487.91
82.4419
40.1795
104.825
31.6272
218.309
595.773
588.323
604.76
78.258
591.9
596.966
553.898
595.427
550.978
551.221
547.238
545.715
548.618
549.672
556.066
562.633
606.381
586.93
597.31
623.365
552.758
552.101
622.026
52.9546
601.51
555.167
580.097
47.465
597.464
554.6
495.004
180.221
598.027
591.429
512.354
598.972
595.478
531.88
545.067
577.308
68.2074
472.209
547.491
75.5208
131.81
596.042
610.613
615.709
606.598
491.033
512.377
575.712
563.032
36.139
561.817
47.2983
595.97
551.525
589.388
607.553
589.958
363.444
120.552
140.029
43.7219
95.1931
596.05
577.745
612.853
599.591
597.729
573.539
47.768
352.869
572.483
628.212
73.7462
578.438
588.795
534.641
569.15
584.703
591.589
596.141
598.117
48.9264
580.823
598.284
115.977
537.43
519.024
605.293
132.484
93.8312
364.72
600.769
34.7119
80.5263
569.173
538.085
590.705
193.65
314.481
619.885
401.733
562.845
541.19
75.6115
41.8551
149.482
618.783
593.989
587.972
473.791
602.115
598.147
81.8074
383.627
565.137
602.058
62.0704
140.718
619.961
87.6416
448.22
591.324
621.482
80.8697
615.586
465.409
562.17
43.2471
609.861
143.198
145.56
93.412
80.217
591.502
526.515
181.571
313.454
74.3728
410.558
584.554
93.3213
617.327
114.483
595.389
585.929
572.997
405.079
609.774
595.599
604.723
613.501
606.96
224.497
122.747
33.4257
41.2677
446.386
345.397
519.578
531.557
598.292
611.153
591.435
596.077
33.5883
480.433
148.199
616.473
93.5787
591.057
542.003
574.011
99.1572
587.129
518.781
38.014
332.181
190.298
581.235
582.961
106.748
247.463
81.6385
595.362
609.222
618.631
604.641
69.0822
602.423
40.0277
155.445
610.132
615.284
47.9607
162.335
585.33
506.119
566.914
521.723
48.2822
521.755
550.677
114.192
547.07
594.319
582.365
559.755
582.662
147.813
105.298
596.861
545.701
582.975
583.744