/*--------------------------------*- C++ -*----------------------------------*\
| =========                 |                                                 |
| \\      /  F ield         | OpenFOAM: The Open Source CFD Toolbox           |
|  \\    /   O peration     | Version:  v2012                                 |
|   \\  /    A nd           | Website:  www.openfoam.com                      |
|    \\/     M anipulation  |                                                 |
\*---------------------------------------------------------------------------*/
FoamFile
{
    version     2.0;
    format      ascii;
    class       volScalarField;
    location    "250";
    object      epsilon;
}
// * * * * * * * * * * * * * * * * * * * * * * * * * * * * * * * * * * * * * //

dimensions      [0 2 -3 0 0 0 0];


internalField   nonuniform List<scalar> 
14479
(
2.57547e-06
2.6072e-06
2.20309e-06
0.00260907
2.41619e-05
0.00300653
4.07357e-06
2.24828e-06
2.44201e-06
0.00453174
1.01038e-05
0.00253952
0.00260918
0.00335066
0.00271026
0.0239742
0.000626599
0.0201262
0.023138
3.25449e-06
2.87595e-06
2.33358e-06
0.0212417
1.8264e-05
2.4316e-06
4.68059e-06
3.69376e-06
0.00456437
0.00284422
0.00290739
0.0500753
0.00262903
0.0214244
2.23301e-06
1.97916e-06
1.73976e-06
3.22431e-06
0.0125508
2.22977e-06
2.87518e-05
0.00295197
2.23247e-06
2.47017e-06
2.0588e-06
0.0446601
3.23249e-06
0.00505635
0.00598621
2.09102e-06
6.35934e-06
2.74918e-06
0.0303742
3.67936e-05
5.95407e-06
2.08647e-06
2.74005e-06
4.57827e-06
0.00428303
1.73124e-06
5.30906e-06
2.21791e-06
2.05077e-06
0.000167288
7.57286e-06
0.000902265
0.00314261
2.13136e-06
2.4436e-06
0.0465861
0.033294
0.0034681
3.66353e-06
0.00813174
0.0495936
2.90909e-06
2.46464e-06
0.00343014
0.00242172
0.015631
0.00348025
0.0734229
3.60488e-06
2.00411e-06
3.63054e-06
1.7433e-06
3.0386e-06
5.02551e-06
2.95683e-06
0.00346456
2.65553e-06
0.00372203
0.00314659
0.00432304
0.00519363
1.95743e-06
0.0208397
1.85187e-06
0.00359997
1.96743e-06
0.00615585
0.0476412
0.00451423
5.33667e-06
2.54902e-06
1.97787e-06
1.80359e-06
0.001584
0.0089655
5.01781e-06
0.00274716
2.01305e-06
2.05685e-06
0.0269469
6.19421e-06
3.61167e-06
2.415e-06
2.47137e-06
0.000115555
2.47079e-06
4.09853e-06
1.9845e-06
3.27063e-06
0.00261446
2.2103e-06
0.00381688
1.82028e-06
1.90157e-06
2.76295e-06
1.78715e-06
0.00417
1.82284e-06
0.00226608
0.0585813
1.84324e-06
3.25443e-06
6.0448e-06
0.000170754
2.6123e-06
0.0302108
0.00264082
2.01008e-06
0.00370719
2.05597e-06
0.000242546
6.58101e-06
1.73487e-06
0.00821412
2.22011e-06
2.45054e-06
2.28968e-06
0.0198208
2.19604e-06
2.8469e-06
3.39543e-05
0.000310413
1.96466e-06
0.00433629
4.11074e-06
0.0219534
0.0168431
0.00443748
0.0346732
0.0175078
4.81551e-06
0.00675563
0.00497552
1.70232e-06
0.0307027
2.77053e-06
1.85859e-06
1.81226e-06
2.98321e-06
2.75758e-06
4.04987e-06
2.80047e-06
3.02822e-05
3.03038e-06
1.84481e-06
8.41237e-06
2.45635e-06
0.000482395
2.93961e-06
2.48233e-06
0.00370612
3.11938e-06
4.38851e-06
2.46107e-06
2.41407e-06
0.00010498
0.000182378
3.21067e-06
0.00819248
2.01453e-06
4.11843e-06
0.00358891
0.0163015
0.000111704
0.0129084
2.19583e-06
2.81037e-06
2.41982e-06
0.000904187
0.0256455
4.19666e-05
0.00316443
2.4299e-06
2.63182e-06
4.13771e-06
1.83257e-06
4.94636e-06
0.00583759
0.00734737
2.459e-06
2.44113e-06
2.69311e-06
6.53388e-06
0.00624215
0.00201623
3.26739e-06
2.45479e-06
7.81179e-05
0.00348111
0.00975437
2.03822e-06
0.00725208
0.00265892
2.29568e-06
2.07328e-06
5.13571e-06
2.97897e-06
2.50661e-06
3.94334e-06
2.42763e-06
0.00292282
2.41278e-06
2.42575e-06
4.4071e-06
0.00907571
3.25861e-06
2.37718e-06
0.00273025
5.37665e-06
2.01044e-06
4.99734e-06
0.00707095
0.00639066
2.03021e-06
2.63462e-06
0.0535115
0.00327059
2.2611e-06
4.6127e-06
2.8234e-06
1.81183e-06
0.00329635
4.81892e-05
3.17203e-06
0.00124007
4.73372e-06
2.14542e-05
0.0735221
0.0413705
0.00319846
3.2668e-06
3.16472e-06
2.47464e-06
3.18839e-06
0.00932774
0.00397751
0.0440744
0.00898974
2.7391e-06
0.00366002
2.5429e-06
2.44516e-06
0.00510947
0.00937206
1.96498e-06
0.00303998
0.00466997
0.00400401
0.00307876
0.00464883
0.0764191
3.66493e-06
3.30773e-06
0.016731
2.56002e-06
0.00780137
0.00328187
0.012647
0.0106469
5.82577e-06
0.00362512
2.78203e-06
2.4738e-06
2.61681e-06
4.20145e-06
1.70706e-06
2.45275e-06
2.72457e-06
0.00285333
2.00205e-06
2.19337e-06
2.46449e-06
0.00261694
0.0224106
4.07118e-05
1.9178e-06
1.87966e-06
0.00360836
1.02134e-05
1.24743e-05
2.21685e-06
2.36647e-06
4.06088e-06
0.00257045
3.22823e-06
3.0599e-06
2.61879e-06
2.45398e-06
3.27169e-06
2.50057e-06
0.00520695
0.000109409
0.0151469
0.0242706
1.5436e-05
0.00292184
2.34833e-06
1.97803e-06
2.23019e-06
0.0136176
0.00261543
0.000245286
2.48488e-06
2.38964e-06
6.4076e-06
2.94466e-05
2.97197e-06
0.0245544
2.13152e-06
0.00313371
2.25047e-06
0.00418696
1.716e-06
0.00313704
0.00852732
1.73573e-06
3.02485e-06
0.00485118
0.00306027
2.21582e-06
2.72496e-06
0.0043097
3.10045e-06
2.12836e-06
0.00349242
1.91024e-06
2.53496e-06
2.50595e-06
0.00541906
0.00273061
2.49238e-06
0.00303514
2.03413e-06
4.6759e-06
0.00263713
0.0029129
0.0295763
6.7154e-06
0.0166633
3.00492e-06
0.0367026
0.0243483
0.0428112
3.26447e-06
3.52187e-06
0.00809872
2.60257e-06
2.21388e-06
1.9688e-06
1.29563e-05
4.58292e-06
0.0153291
5.52663e-06
3.15063e-06
2.77713e-05
3.14382e-06
6.47901e-06
3.03114e-06
2.09486e-06
0.0151645
0.00258825
0.0302745
0.00787202
0.00193558
0.0674593
2.36805e-06
3.62853e-06
0.038297
0.00391903
0.00392638
2.20874e-06
0.00758534
1.87605e-06
0.00201575
0.00281222
6.44362e-06
2.13878e-06
0.0045045
0.00349982
3.08711e-06
3.5795e-06
0.0329441
2.32505e-06
0.00813804
4.28948e-05
3.68035e-06
2.36229e-06
2.1919e-06
2.60282e-06
0.0236382
5.35339e-06
0.0221749
2.50888e-06
0.00360957
2.88329e-06
2.37512e-06
0.0116468
0.0937677
6.10144e-06
0.00208875
2.13725e-06
2.49072e-06
0.00774327
2.18706e-06
0.00777808
0.0144173
3.28318e-05
0.00369984
0.00465182
0.00241168
2.87943e-06
6.12684e-06
2.18985e-06
5.07862e-06
0.00418322
1.99866e-06
2.14382e-06
3.3688e-06
0.00290238
5.42015e-06
5.18684e-06
4.22866e-06
2.0401e-05
2.05568e-06
4.74095e-06
0.025703
0.00366393
1.8598e-06
2.74184e-06
0.0242495
1.63487e-05
0.025231
0.00231639
2.19022e-06
0.00844487
0.00282272
1.79337e-06
1.82401e-06
2.87206e-06
0.00232614
0.0116723
0.00381446
0.00506853
0.00329655
0.00239104
3.47093e-06
5.81129e-05
2.29544e-06
0.00851768
2.40395e-06
3.5365e-05
1.94701e-06
5.7441e-06
2.19105e-06
0.0419693
0.00211456
0.00733697
0.0242645
3.52455e-06
2.35422e-06
0.00594964
0.00373869
1.98607e-06
2.55662e-06
0.00267677
1.13811e-05
2.06837e-06
2.41275e-06
1.33925e-05
2.1692e-06
2.80235e-06
0.00237687
0.0043067
0.0199878
2.10549e-06
1.9694e-06
0.00236899
2.45558e-06
2.87143e-06
1.94674e-06
0.00355686
2.07042e-06
3.23469e-06
3.61104e-06
3.03124e-06
0.00745558
9.06682e-06
0.0212818
0.00328055
0.0233081
0.00875545
0.00708996
0.00759316
1.85825e-06
1.85012e-06
0.0335738
0.0026903
3.37649e-06
1.02949e-05
0.023769
0.0226955
2.1981e-06
3.25455e-06
2.57456e-05
0.00512199
0.00675797
0.0195663
0.00390054
0.0140414
2.02648e-06
0.00495257
2.20992e-06
3.12297e-06
0.0254764
3.33486e-06
2.13486e-06
2.02439e-06
2.12623e-06
4.85069e-05
2.13009e-06
3.12283e-06
0.0024741
2.64181e-06
0.00539267
0.00248502
0.00267555
0.00235629
2.50688e-06
0.00365466
2.452e-06
0.00733857
2.02211e-06
2.37761e-05
3.51327e-06
2.08276e-06
1.99707e-06
2.01634e-06
2.44791e-06
2.09534e-06
0.00621372
0.0256843
2.16462e-06
0.00250001
0.000143149
1.77146e-06
2.44512e-06
9.92699e-06
0.00239653
1.79119e-06
2.93218e-06
1.86791e-06
0.0144015
2.0311e-06
2.07792e-06
0.00856107
0.00292423
0.00465568
4.60939e-06
3.65561e-06
2.92246e-06
0.0532026
0.00384791
0.0230095
2.52408e-06
3.32433e-06
2.4053e-06
2.76416e-06
0.0137796
3.13028e-06
0.042234
0.0193571
0.0879297
1.83573e-06
0.00285356
0.00376707
2.51342e-06
3.88054e-06
2.56704e-06
0.00276263
2.79229e-06
2.77082e-06
3.09963e-06
2.9442e-06
0.00294219
8.97868e-05
0.0180672
2.82434e-06
2.06086e-06
2.24507e-06
1.99124e-06
2.06722e-06
0.0131583
0.00620473
2.17212e-06
2.97707e-06
1.93113e-06
0.00819406
2.62675e-06
2.00741e-06
3.66582e-06
0.000484249
2.73849e-06
3.00718e-06
1.97366e-06
0.000251259
0.0390614
3.1938e-06
0.0771736
5.73476e-05
3.03227e-06
0.0343527
0.00395714
1.7631e-06
2.37949e-06
2.51551e-06
2.01241e-06
0.0129216
0.0288793
4.97293e-06
2.96524e-06
0.00269315
0.00350927
0.0694572
0.010416
3.04608e-06
2.91562e-06
1.86316e-06
0.0115116
2.5207e-06
1.98106e-06
0.00766146
0.00650083
1.92481e-06
2.51508e-06
0.000187495
0.0208102
3.00726e-06
2.54696e-06
2.29861e-06
0.0027203
0.00269037
0.0326641
7.48085e-05
0.0104882
2.61796e-06
0.00433783
2.38386e-06
2.38598e-06
1.86849e-06
0.00324456
2.81646e-06
0.00326691
2.20281e-06
0.00497168
0.0049192
3.45608e-06
0.0304589
2.59099e-06
2.75975e-06
0.0127987
0.000142339
0.00221585
0.0269336
0.0112844
0.0256603
2.35817e-06
0.000173849
0.00499911
0.00650287
0.0211564
2.33358e-06
0.00725282
0.0232933
4.48894e-05
0.0223091
1.85851e-06
0.058239
2.83133e-06
2.42252e-06
0.00356619
0.00329578
0.00339828
1.94122e-06
2.62316e-06
0.00330806
0.00296066
6.69065e-06
0.000173711
0.00401375
2.40815e-06
0.0134932
0.0218301
2.4778e-06
0.0291536
0.00468224
0.0208374
2.47176e-06
2.34877e-06
0.00764955
4.11675e-06
2.37442e-06
2.00278e-06
1.81529e-06
4.41492e-06
4.61074e-06
2.38076e-06
3.174e-06
2.67274e-06
2.07828e-06
4.17551e-06
4.15037e-06
2.46686e-06
0.00833753
0.00011898
0.00290031
0.00340733
0.00262012
2.18474e-05
2.39852e-06
2.51753e-06
2.26375e-06
5.0445e-06
0.00376352
1.87107e-06
0.0029056
2.68207e-06
1.86125e-06
0.000284883
2.61664e-06
0.00426943
0.00515645
2.43899e-06
0.0382407
3.07195e-06
0.00289969
0.0034278
6.22108e-06
8.61742e-06
0.00310888
0.00313283
2.54669e-06
2.66278e-06
0.00483134
0.00705279
0.00261518
2.477e-06
0.00331669
0.0302556
2.84742e-06
0.179232
7.54384e-05
2.43727e-06
2.69394e-06
0.00257558
1.17397e-05
2.20514e-06
0.0105369
3.11785e-06
0.0450904
0.00422503
0.00602142
0.0379272
0.0367259
0.00278669
0.000226585
5.85846e-05
1.00436e-05
0.0190321
4.20325e-06
2.80371e-06
4.54121e-06
1.9992e-06
0.00358709
0.0232499
2.41326e-06
0.00319341
0.00955046
0.00280624
0.0213894
2.34446e-06
2.44422e-06
0.00344271
0.00613888
7.1115e-06
0.00224651
2.58628e-06
0.05153
2.42534e-06
0.00326017
2.40977e-06
0.00411878
2.6851e-06
0.0117761
5.53837e-06
2.48733e-06
3.02295e-06
2.40546e-06
3.25752e-06
0.0244265
0.138422
0.0271025
0.00367936
6.1369e-06
0.00767148
2.43149e-06
0.00727122
0.000294364
0.00447732
1.7185e-06
2.56419e-06
4.55056e-06
0.00438143
2.28978e-06
0.0287108
9.63757e-05
2.45846e-06
3.15857e-06
0.0278952
5.56238e-06
0.000126213
0.00278863
0.00257318
2.63745e-06
0.00607037
1.99497e-06
2.42584e-06
2.76e-06
1.79849e-06
2.39073e-06
2.15854e-06
0.00337427
1.99051e-06
0.00677232
1.93978e-06
2.48665e-06
2.39811e-06
2.25949e-06
0.0020166
0.00364478
0.0243098
0.00598043
0.00373367
0.0336574
3.01684e-06
0.0193435
0.0242036
0.0129021
0.00449866
0.000640284
0.00368126
2.71039e-06
2.78437e-06
2.36737e-06
2.68852e-06
7.84315e-06
3.27024e-06
1.83807e-06
2.36947e-06
2.58795e-06
6.18737e-06
0.005687
1.77923e-06
4.00713e-06
3.251e-06
0.0060912
0.00559812
2.00843e-06
0.00315255
2.62764e-06
5.05603e-06
2.53821e-06
2.26928e-06
3.13552e-06
2.13669e-06
2.49236e-06
0.0233749
0.0139245
0.00302506
0.024576
2.92738e-06
8.61745e-06
0.00360339
1.72382e-06
3.46832e-06
0.0683052
0.016496
0.00483711
2.37668e-06
0.00786538
0.00454594
0.00205821
2.5824e-06
3.24609e-06
0.0165137
8.87573e-05
0.00247358
2.45012e-06
0.00783488
0.000225992
3.26693e-06
1.7993e-06
0.000223053
0.00516903
0.0254878
0.0317531
0.0057942
0.000130794
2.42853e-06
0.132727
4.08715e-06
2.53669e-06
2.56939e-06
1.88483e-06
0.0486646
0.0058581
3.84514e-05
3.24768e-06
0.0321476
1.85838e-06
0.00701716
0.0186886
3.11801e-06
2.27046e-06
3.69476e-06
0.00643395
3.31633e-06
2.50116e-06
1.81993e-06
0.0244713
2.05163e-06
4.11675e-06
0.0010376
0.00542067
7.30137e-05
2.58675e-06
2.5256e-06
2.23999e-06
0.046718
0.00409627
0.0228654
3.96718e-06
2.1223e-05
0.00494878
1.8499e-06
2.22662e-06
2.51579e-06
0.14475
3.23106e-06
0.00270231
2.36956e-06
0.0027805
4.07213e-06
2.12459e-06
7.14177e-05
3.27156e-06
3.49931e-06
7.962e-05
2.86703e-06
2.29519e-06
0.00315978
0.00313809
2.92216e-06
0.00271909
2.39456e-06
1.83966e-06
2.67394e-06
2.15191e-06
0.00300899
2.77009e-06
0.00989503
2.03063e-06
0.00360857
2.70405e-06
2.69405e-06
0.00322242
3.06407e-06
2.36785e-06
0.00929143
0.00812657
4.04409e-06
0.0128345
3.48988e-06
0.0635903
2.04512e-06
2.39959e-06
0.0105387
5.01097e-06
3.45829e-06
2.58246e-06
0.00478199
2.89662e-06
0.0315519
0.0310844
4.53778e-06
2.48359e-06
0.00340996
0.0111575
0.0167673
2.44909e-06
3.24652e-06
3.94568e-06
2.02802e-06
2.08908e-06
3.24011e-06
0.0162825
3.00956e-06
0.0022508
1.81601e-06
0.00239724
0.0380992
5.31259e-05
5.14711e-05
0.000472163
2.81998e-06
8.42578e-06
2.83549e-06
0.0231788
0.0030202
1.7733e-06
0.00222321
0.00495271
3.76959e-06
0.00153761
0.00210293
0.0195881
0.000225041
2.72383e-06
4.86272e-05
2.97331e-06
3.07381e-06
2.41457e-06
2.91273e-06
0.0268625
0.0196622
0.00375007
0.00288827
0.0237704
0.00919466
0.00377839
0.000588108
3.73945e-06
2.61985e-06
0.0683616
0.0200329
0.064367
2.79639e-06
4.1596e-06
0.00874168
2.04919e-06
2.77664e-06
3.12939e-06
3.21642e-06
2.53834e-06
0.00957725
2.37463e-06
8.30139e-06
2.44262e-06
0.00605276
2.95824e-05
0.0100777
4.0079e-06
2.59978e-06
5.26097e-06
0.000166495
2.3927e-06
2.63103e-06
2.38857e-06
2.44796e-05
0.0119778
1.94228e-06
2.51993e-06
2.48936e-06
0.00265558
2.99833e-06
3.18128e-06
0.00128795
0.0255558
0.00296286
2.38117e-06
0.0439464
1.83035e-06
3.97981e-06
0.00233827
1.21783e-05
4.9754e-06
3.2461e-06
1.1242e-05
0.00467313
0.00364177
0.00354977
2.55507e-06
1.8005e-06
0.0190131
0.00549118
3.62804e-06
0.00377029
2.93412e-06
3.90745e-06
2.42763e-06
0.00773211
1.85274e-06
0.00788897
1.28346e-05
2.17793e-06
0.00698932
8.72774e-05
0.00697797
4.06961e-06
2.29517e-06
0.00106872
2.52344e-06
0.00657808
0.00400698
0.0027748
2.39015e-06
4.03942e-06
2.1553e-06
8.09191e-05
2.76966e-06
1.98183e-06
1.29634e-05
3.1357e-06
3.34036e-05
2.30218e-06
1.89431e-06
0.000595679
0.0039784
0.0189639
0.00471889
0.00110872
1.95668e-06
2.96233e-06
3.46213e-06
2.39153e-06
2.04226e-06
0.0301606
2.4462e-05
2.29479e-06
2.38078e-06
2.48353e-06
0.00633556
6.15053e-06
2.05279e-06
0.00298752
0.00226598
0.00516189
2.73668e-06
2.30732e-06
1.73543e-06
0.0542548
0.000325723
0.00959692
7.93913e-05
0.0209358
3.60724e-06
2.01724e-06
2.02571e-06
2.3147e-06
0.0191943
0.0224605
0.00249833
2.27249e-06
2.55914e-06
2.50696e-06
2.28746e-06
1.80245e-06
2.16685e-06
2.51811e-06
0.00509197
0.000153681
3.56641e-06
0.00294307
0.00416169
1.89242e-06
2.12557e-06
0.0121998
1.88528e-06
2.3987e-06
0.00703411
3.18099e-06
2.43743e-06
2.16898e-06
0.00275291
2.9766e-06
0.00440133
4.3945e-05
3.43828e-06
3.04439e-06
0.0037299
0.103655
0.0132562
2.36121e-06
3.30378e-06
5.81563e-05
2.27404e-06
2.46291e-06
0.00806915
2.68295e-06
0.000745153
1.16105e-05
0.00374353
2.4656e-06
0.0217286
2.19634e-06
1.6531e-06
7.31663e-05
0.00813575
2.53058e-06
0.0155787
3.08029e-06
2.02665e-06
0.0184586
1.75885e-06
3.19672e-06
0.00267276
0.0307512
0.00766415
0.00408177
2.03193e-06
4.06117e-06
0.00182898
0.00824107
0.00487762
2.38856e-06
2.22824e-06
5.20314e-06
2.00888e-06
2.28577e-06
2.15159e-06
1.82314e-06
0.00232444
2.28412e-06
3.14032e-06
0.00254196
0.000631442
0.000119469
0.00420949
2.0568e-06
4.06226e-06
0.0309068
3.08443e-06
0.0214654
5.55108e-06
0.00364629
0.000169217
2.53556e-06
2.32291e-06
0.0344384
0.0307622
2.34303e-06
0.00309388
0.00452292
0.0170767
2.30334e-06
1.81723e-06
5.34146e-06
0.00701091
0.00590688
0.00371888
0.0201559
2.04166e-06
3.5769e-06
0.0110445
4.48935e-06
0.00336194
0.000127167
2.25243e-06
0.0211053
4.25292e-06
3.28073e-06
0.00309044
2.87954e-06
1.71906e-05
2.36717e-06
2.62526e-06
2.86568e-06
6.21059e-06
2.08749e-06
0.00371104
0.0434783
0.00953768
3.51545e-06
2.61134e-06
2.49349e-06
2.31665e-06
0.0101615
2.51329e-06
3.2566e-06
2.41104e-06
0.0131727
3.15548e-06
9.70138e-05
2.47648e-06
0.00205701
0.00468507
0.00602584
0.0124745
0.000718991
0.00263381
2.07629e-06
3.27016e-06
0.000449105
2.37501e-06
0.0203752
0.00335505
3.18615e-06
2.35005e-06
2.12617e-06
3.26652e-06
0.0032278
8.49446e-06
0.00332671
1.85733e-06
3.08499e-06
3.45381e-06
0.00251205
1.84309e-06
2.173e-06
0.0179119
1.73946e-06
0.00363241
2.61114e-05
1.24463e-05
0.00385391
0.0129117
2.30983e-06
2.22593e-06
0.0374388
2.75118e-06
0.0496192
2.42533e-06
0.00359884
3.58165e-06
0.0109141
0.00374495
5.0829e-06
0.00283475
0.00363411
0.00324565
2.44426e-06
0.0172891
0.000170328
0.00340675
3.22825e-06
2.51736e-06
3.0631e-06
0.000116581
0.000131962
1.14697e-05
2.31377e-06
8.85267e-06
2.04985e-06
2.52926e-06
0.00466833
3.08944e-06
2.64799e-06
0.0025356
2.61242e-05
0.0351048
3.13091e-06
0.00648386
2.96429e-06
0.00294075
3.43729e-06
1.91967e-06
2.43261e-06
0.00812263
3.05954e-06
0.138792
0.00340188
5.63796e-06
2.80144e-06
0.0184452
0.00337589
3.1322e-06
2.8604e-06
0.00259838
0.00034892
2.19992e-06
2.1486e-06
0.00852992
0.00451703
8.53777e-06
0.000635163
9.30203e-06
1.92881e-06
0.00289747
0.000470688
0.00795958
0.0284925
0.00466419
0.0342204
0.0813658
2.27809e-06
0.000651223
0.000952499
2.24611e-06
0.0225083
4.06622e-06
0.0281708
0.00215344
0.00357455
3.05105e-06
1.9087e-06
3.00594e-06
2.41941e-06
0.00297787
2.65753e-06
0.000190999
2.00946e-06
9.92257e-06
0.0041691
2.45219e-06
1.86622e-06
2.27488e-06
2.47249e-06
2.8727e-06
0.00431984
0.0165874
2.47399e-06
2.20092e-06
1.98399e-06
0.0313713
0.00524838
0.0211154
1.17515e-05
3.03573e-06
2.20627e-06
0.0229758
1.835e-05
0.0131694
0.00355478
2.66151e-06
5.66387e-05
0.01855
0.00889241
4.14726e-06
2.99891e-06
2.46337e-06
3.30673e-06
0.00428003
1.71371e-06
5.26465e-06
2.42323e-06
2.10183e-06
2.0183e-06
0.00480732
3.02398e-06
0.00311151
2.08528e-06
2.1259e-06
0.00333623
2.92288e-06
0.00437872
0.00374379
5.28739e-06
0.0127968
2.28122e-06
0.00310664
0.00951696
0.00455801
0.00863338
0.00287783
0.00795828
0.00213193
0.0026967
5.86175e-06
0.126369
3.29077e-06
0.0271287
8.46838e-06
3.53624e-06
0.00379816
0.0131647
0.0150787
5.36592e-06
0.00495817
0.0202947
0.0548342
0.00275458
0.0175925
0.00465163
3.34294e-06
0.0001321
2.56312e-06
0.00367135
0.00513996
2.23099e-06
0.00819216
0.00117362
2.23286e-06
0.0297381
2.7994e-06
6.59382e-06
0.0053664
2.17416e-06
0.121925
0.0614276
5.55683e-05
0.014962
2.46998e-06
4.24375e-06
0.00241317
3.99637e-06
8.43446e-05
3.61082e-06
2.53471e-06
0.0224904
6.26502e-05
0.00300004
0.00549288
1.07499e-05
0.0037919
0.000131183
1.16511e-05
0.0484083
0.0229664
3.50645e-06
3.4934e-06
2.47312e-06
0.00368111
0.0202858
2.40026e-06
0.00367136
2.93377e-06
0.00657333
0.00390536
0.0150189
0.0103223
1.91006e-06
0.00258436
2.45514e-06
0.0509413
0.013749
0.00422998
2.48393e-06
0.00962207
1.99026e-06
4.63728e-06
0.0209558
1.05176e-05
0.0119739
4.98075e-06
2.49181e-06
0.00364446
0.0137827
0.0575596
2.6536e-06
2.88237e-06
0.00558288
4.1108e-06
2.79726e-06
1.94621e-06
2.64201e-06
0.0563452
0.0517705
1.69569e-06
0.00461305
0.00370074
2.78173e-06
2.42957e-06
2.41459e-06
3.24125e-05
2.4225e-06
2.94465e-06
2.88766e-06
0.00812734
0.00393985
0.00373397
1.84435e-06
0.00558367
0.0043647
0.000583559
2.95169e-06
1.91789e-06
2.094e-06
6.87509e-06
3.83764e-06
0.0113094
4.59284e-06
2.13494e-06
3.42165e-05
2.49184e-06
3.46607e-06
1.88542e-06
5.48238e-06
3.75785e-06
0.00363553
0.00170138
3.54197e-06
0.00434189
2.11128e-06
3.07223e-06
7.72004e-06
2.03888e-06
2.14108e-06
0.00300478
2.11874e-06
4.03618e-06
0.00379299
0.0847055
2.21422e-06
0.00470658
2.80417e-06
0.00473464
1.35029e-05
0.00378307
0.00390619
3.2513e-06
0.022697
2.21846e-06
2.85457e-06
0.0100841
0.0162149
3.01129e-06
0.00897334
0.0298792
5.30885e-06
2.89285e-06
3.07869e-05
0.00980141
6.57573e-06
0.00349759
0.00361219
2.69469e-06
0.00478434
2.58901e-06
0.00360368
0.0337377
2.89729e-06
0.00357549
2.17748e-06
2.8429e-06
2.16777e-06
3.10323e-06
5.74092e-05
0.0140901
2.21303e-06
8.86243e-06
4.61762e-05
2.52836e-06
2.44064e-06
0.00356046
1.92798e-06
0.00481197
0.0341937
2.33669e-06
2.19283e-06
2.76809e-06
0.10384
3.47292e-06
2.29546e-06
2.46263e-06
0.0234133
0.000567229
0.00874878
2.40921e-06
0.00655278
0.0189009
0.00472757
2.07378e-06
0.0331893
8.45343e-06
0.00370396
2.42679e-06
0.0406525
0.00321211
0.00493283
6.0718e-06
3.19307e-06
3.93358e-06
3.51151e-06
0.00426109
4.05773e-06
0.00418762
2.63073e-06
0.0028354
2.41591e-06
0.0051457
5.56473e-06
1.74145e-06
2.21797e-06
0.00353233
0.0327754
0.00451388
0.0130209
0.00307543
0.00299887
0.0101936
3.59746e-06
2.33064e-06
1.92117e-06
2.41921e-06
0.0437128
8.28474e-05
2.65212e-06
2.35318e-06
0.02674
0.00547979
0.0030978
0.0032353
0.0100375
1.91664e-06
2.2565e-06
2.02611e-06
4.84301e-06
0.00466644
2.67475e-06
0.00351604
3.39714e-06
0.00235244
0.00156784
1.79135e-06
0.00816468
0.0248163
0.00290977
0.00278994
2.50603e-06
8.67496e-06
2.42303e-06
2.38771e-06
4.63545e-06
0.0100655
2.58967e-05
2.24014e-05
2.8689e-06
3.01595e-06
2.68935e-06
0.0289668
0.0256665
1.49563e-05
3.02491e-06
1.71232e-06
2.64708e-06
0.0484278
0.000200958
2.44213e-06
4.0036e-06
0.00444838
0.0330609
2.82203e-06
0.0458282
0.00345711
2.93275e-06
0.0114996
7.31344e-06
3.13789e-06
2.58701e-06
1.77542e-06
1.69731e-06
0.0207755
2.5494e-06
1.78457e-06
2.8061e-06
2.5677e-06
2.87152e-06
2.41855e-06
0.00224421
2.46963e-06
0.0049507
0.0153711
2.44612e-06
0.0197621
0.00383033
0.00516013
1.9653e-06
0.00359324
0.188491
0.00883663
0.0569817
4.06146e-06
4.21148e-06
0.00204076
3.42662e-06
4.64725e-06
2.41557e-06
2.43251e-05
3.90526e-06
1.9176e-06
3.29027e-06
0.01626
7.17279e-06
4.6709e-06
1.86956e-06
0.000125532
2.63242e-06
0.00812248
0.00283338
0.00295826
0.0399842
4.12281e-06
2.0565e-06
2.98087e-06
0.00443231
2.22124e-06
4.03193e-06
3.2322e-06
0.11288
0.0343493
0.00375471
1.81135e-06
0.00467721
0.0983225
2.32925e-06
0.00198484
1.22634e-05
0.00916304
0.00515174
2.33678e-06
2.48342e-06
0.00621019
0.00268998
0.00224162
0.00253017
0.00314011
3.18197e-06
0.00821861
0.0208724
0.000999554
0.00433867
1.84619e-06
2.1451e-06
2.52788e-06
2.28677e-06
5.44838e-06
0.0886395
6.10193e-06
2.43818e-06
3.43449e-06
0.0483576
0.00469916
1.93858e-05
0.00334572
2.55145e-06
0.00401892
0.00549939
2.24523e-06
0.0174031
0.00353998
0.00292605
2.81597e-06
0.0216552
2.97056e-06
2.1733e-06
0.00927354
0.00345979
3.71654e-05
5.02858e-06
0.00291427
0.0475652
0.00310977
2.59611e-06
0.0929401
0.0162383
7.58783e-05
0.087114
2.45721e-06
0.00146312
2.61655e-06
2.3969e-06
2.383e-06
4.04737e-06
2.31642e-06
3.17006e-06
3.24943e-06
1.21729e-05
2.47039e-06
0.013076
2.44413e-06
2.27944e-06
1.8285e-06
2.04602e-06
0.0436855
2.30216e-06
0.00336862
0.00338116
5.82456e-06
2.38377e-06
0.00291755
0.00487406
1.92195e-06
2.71249e-06
2.19753e-06
1.8922e-06
0.0239175
0.000820874
0.00366712
0.00429541
0.0152691
2.93839e-06
0.0123521
1.96032e-06
2.56258e-06
0.00359997
0.00262217
1.87306e-06
2.74076e-05
4.29776e-06
2.48509e-06
8.22009e-06
2.0057e-06
0.0310977
1.75225e-06
0.0608787
0.00802516
2.42126e-06
0.00370334
2.90065e-06
3.43669e-06
0.0168651
2.31849e-06
0.00235791
0.00278729
0.00453093
2.75584e-06
3.82662e-06
4.04605e-06
2.32203e-06
2.50679e-06
0.0390369
2.77583e-06
2.73482e-06
2.31697e-06
3.14716e-06
0.00254346
0.0308183
2.7255e-06
3.21732e-06
0.00630816
0.0241487
2.85096e-06
0.00781608
1.97698e-06
2.40472e-06
3.62919e-06
3.39495e-06
1.85394e-06
2.61282e-06
0.00662464
5.15181e-06
0.02151
0.00365598
0.00394909
0.00318276
2.72877e-06
2.42316e-06
2.27924e-06
3.42158e-06
8.31446e-05
0.00431531
0.00876011
2.43141e-06
0.00364023
2.30666e-06
8.81999e-06
0.00331649
0.00281173
0.00400091
0.00196647
0.00378031
0.0658584
2.32078e-06
3.30584e-06
0.00273188
1.76352e-06
3.99452e-06
3.01057e-06
0.0155566
0.00558474
3.26205e-06
0.00360189
3.51105e-06
0.00497908
3.88339e-06
0.00312135
0.00322553
0.0243029
2.42318e-06
2.94297e-06
0.0256825
2.87131e-06
1.32546e-05
8.37709e-06
2.34058e-06
8.89491e-06
2.42619e-06
0.0109477
0.0228981
0.00434061
2.0495e-06
1.68742e-06
0.0254549
0.0132915
0.00516495
2.28678e-06
0.00580547
0.00445977
0.00380868
0.0155374
0.00315049
1.95164e-06
0.00523364
0.00336323
0.00872059
2.60207e-06
0.0311523
2.29332e-06
0.000119284
0.00273837
0.0465055
0.00331059
2.25261e-06
2.5805e-06
3.73868e-06
0.00300994
2.08458e-06
0.00928904
1.80136e-06
5.40872e-05
0.0178472
2.7291e-06
3.71289e-06
6.53762e-06
2.34998e-06
1.87795e-06
0.0336213
0.00293066
2.74546e-06
1.79584e-06
0.00382781
2.31422e-06
3.37823e-06
2.53918e-06
0.00269285
0.00364078
0.00271667
2.49467e-06
0.0393598
4.02066e-06
0.0170775
0.0134458
2.9088e-06
2.8894e-06
2.35009e-06
0.015556
3.19189e-06
4.117e-06
0.0299117
2.42509e-06
0.0283221
2.26595e-06
2.40546e-06
2.78624e-06
3.39261e-06
1.97773e-06
1.7542e-06
0.000447461
0.00309734
5.08915e-05
2.3324e-06
4.11962e-06
0.0129881
0.009007
0.00383087
0.0144679
2.82569e-06
0.023301
3.23334e-06
0.0125866
2.03597e-06
0.0215761
2.44057e-06
5.95786e-06
2.02631e-06
0.00424868
3.28854e-06
0.00281019
0.102926
2.49492e-06
6.02771e-06
0.00366663
2.40979e-06
2.51218e-06
2.8698e-06
0.0407526
2.20046e-06
0.00015075
2.17352e-06
2.30247e-06
0.00437426
0.00860146
0.00342226
2.83956e-06
2.42834e-06
0.0274748
3.43569e-06
2.76858e-06
0.019189
0.0318542
0.0029897
2.58164e-06
2.45991e-06
3.4395e-06
0.013238
2.94211e-06
2.53227e-06
0.0133104
0.000539042
2.67034e-06
0.00473885
6.5949e-06
2.35702e-06
2.18708e-06
3.7946e-06
0.00294403
3.23313e-06
2.25648e-06
3.72079e-06
9.68373e-06
3.61621e-06
3.22404e-06
2.50177e-06
0.014931
2.16885e-06
1.80327e-06
2.79318e-06
7.62297e-06
2.56447e-06
0.00246242
0.00966134
1.8771e-06
3.58404e-06
4.13028e-06
8.78631e-06
4.65897e-06
0.0705823
0.00414572
2.5386e-06
0.00249871
2.79817e-06
0.0181556
0.0021847
0.004039
2.2924e-06
0.00715044
3.19511e-06
2.34944e-06
3.00118e-06
2.70285e-06
2.00896e-06
0.00362121
2.34669e-06
2.21533e-06
6.59791e-06
0.012976
2.34385e-06
2.76841e-06
0.014966
2.04454e-06
0.0012457
2.51208e-06
0.00264351
2.40151e-06
0.00105326
0.000250285
8.2691e-06
2.4764e-06
2.43074e-06
0.002727
0.00910248
0.0193735
2.4716e-06
2.68762e-06
0.0770092
2.64086e-06
1.8908e-06
3.83555e-06
2.48281e-06
2.52493e-06
6.43735e-06
2.85622e-06
0.00261635
0.0108414
0.0599804
1.77299e-06
0.00289631
0.00345177
0.0176095
0.00276337
2.4184e-06
3.407e-06
2.0087e-06
0.0207912
0.000248756
2.47611e-06
0.0374682
0.00457454
2.44334e-06
2.59617e-06
0.00401061
0.00310991
2.64533e-06
0.0772913
3.04287e-06
0.00396169
2.69298e-05
0.05927
1.93034e-06
2.82021e-06
0.00371611
4.06716e-05
0.00324399
0.0206213
0.00275597
2.35543e-06
1.85995e-06
2.84473e-06
2.09368e-06
2.54425e-06
0.00373056
0.0220742
4.0657e-06
1.72978e-06
9.30422e-06
0.00231545
0.00315393
1.97119e-06
0.00337028
2.1398e-06
0.0153229
3.53101e-05
0.00645509
1.98056e-06
2.43211e-06
0.00267658
0.0733429
0.0193286
0.00738692
1.63699e-05
0.00309248
0.0308828
1.68204e-06
0.00278749
1.9455e-06
3.08029e-06
2.74391e-06
0.00277926
5.8033e-05
1.84657e-06
2.96559e-06
0.0337712
2.54176e-06
7.00728e-05
2.05415e-06
2.76085e-06
6.00001e-05
0.00629995
2.63188e-06
0.00237422
0.000462944
2.74093e-06
2.52601e-06
1.54568e-05
7.38372e-06
3.50886e-06
0.0105607
2.19545e-06
0.00159643
0.00676576
4.18701e-05
2.43793e-06
0.00624766
2.39051e-06
4.69215e-06
2.06465e-06
0.000296658
0.00142441
2.70446e-06
6.84594e-05
0.0202419
2.28248e-06
3.27272e-06
2.55482e-06
0.106677
0.0226385
0.00322966
4.5625e-06
0.00010967
0.0526443
0.00475538
2.07826e-06
0.0100393
0.000447518
4.36181e-06
0.00403419
0.000101522
0.00971128
0.00318238
0.00404018
2.29432e-06
0.00906584
0.0994
0.0794628
0.0100942
0.0131548
2.44125e-06
1.98006e-06
0.00322188
0.0147684
3.02693e-06
2.74009e-06
0.0403743
4.05371e-06
0.00295145
0.00729613
0.0234038
0.00999639
2.32477e-06
0.000463683
0.0237555
2.10791e-06
4.06578e-06
2.15735e-06
0.000193019
0.00285325
0.00930306
0.00486568
0.0042504
1.94517e-06
0.00305829
0.00289085
0.00288271
4.43228e-06
3.50739e-06
0.00319187
0.0463443
2.59318e-06
0.00456127
6.25558e-06
3.15498e-06
2.47848e-06
0.0260398
0.00658128
3.02911e-06
2.32189e-06
1.8589e-06
2.79173e-06
0.00141541
0.00423271
2.52053e-06
0.0153984
8.18762e-05
3.00406e-06
0.00537542
1.79394e-06
2.44529e-06
0.117787
3.53996e-06
2.43404e-06
0.00276128
2.25351e-06
5.42104e-06
2.39538e-06
2.41689e-06
0.0103068
2.71803e-06
0.0301597
0.00594233
0.0121508
0.00453656
1.6798e-06
0.0237367
2.47628e-06
0.00393038
3.2052e-06
0.030238
0.00370557
2.38179e-06
0.00857568
0.00393667
2.1975e-06
3.86694e-05
2.12367e-06
0.00520919
0.000131621
2.46582e-06
3.11058e-06
3.08516e-06
4.11186e-06
0.0026839
2.59036e-06
2.84304e-06
2.09611e-06
0.0240726
6.57154e-05
1.95981e-06
1.86026e-06
0.0608575
2.45226e-06
0.00577441
2.40543e-06
2.40972e-06
2.42926e-06
3.48927e-06
2.88216e-06
4.60383e-05
2.22016e-06
0.00411457
2.24994e-06
2.14593e-06
0.000727087
0.00353966
2.49516e-06
0.02261
1.84023e-06
2.42583e-06
3.12425e-06
0.000266057
0.000297012
1.13706e-05
0.0126461
3.17201e-06
5.8747e-06
0.0001263
0.000908317
0.00939994
2.9362e-06
0.00830034
0.00529503
4.75762e-06
0.00348137
2.42754e-06
4.02051e-06
0.0685734
1.75934e-06
2.36228e-06
0.00182595
0.00308152
2.67022e-06
3.88915e-06
0.00388934
2.49812e-06
0.00270306
0.00299018
0.00360527
0.000771832
2.45152e-06
0.00200499
2.14315e-06
2.49307e-06
0.000230362
3.20736e-06
4.09912e-06
2.27402e-06
2.09884e-06
2.17359e-06
2.84283e-06
2.67379e-06
2.34756e-06
2.29169e-06
2.77345e-06
1.88771e-06
2.81719e-06
0.000146915
0.00349834
2.20131e-06
1.73512e-06
3.0114e-06
0.00571242
1.92887e-06
1.88235e-06
2.19453e-06
0.00179332
1.70771e-06
0.0231763
1.87584e-06
3.45158e-06
2.47714e-06
3.0342e-06
6.21109e-06
1.95676e-06
4.68917e-06
1.9741e-06
0.00404327
0.0177689
3.36644e-06
3.46456e-06
1.90563e-06
0.00515979
0.00205776
0.00679134
9.67043e-06
3.63765e-05
2.3091e-06
2.38989e-06
0.00015251
0.00218832
0.00302323
3.72092e-06
0.0150762
2.48686e-06
7.81805e-05
2.35139e-06
7.31097e-05
3.92075e-06
0.0104824
2.48288e-06
3.06089e-06
3.03572e-06
3.47683e-05
0.0133851
1.93307e-06
0.00499001
0.0147857
0.00285187
0.000720024
2.29597e-06
2.28332e-06
3.56132e-06
0.00447548
1.96428e-06
4.54419e-06
0.00414819
2.68967e-06
1.94961e-06
2.43868e-06
1.98796e-06
0.00295149
2.42151e-06
2.33676e-06
0.00204973
2.95626e-06
2.01092e-06
3.27218e-06
1.98295e-06
1.16876e-05
2.77195e-06
3.7202e-06
2.13271e-06