/*--------------------------------*- C++ -*----------------------------------*\
| =========                 |                                                 |
| \\      /  F ield         | OpenFOAM: The Open Source CFD Toolbox           |
|  \\    /   O peration     | Version:  v2012                                 |
|   \\  /    A nd           | Website:  www.openfoam.com                      |
|    \\/     M anipulation  |                                                 |
\*---------------------------------------------------------------------------*/
FoamFile
{
    version     2.0;
    format      ascii;
    class       volScalarField;
    location    "250";
    object      k_0;
}
// * * * * * * * * * * * * * * * * * * * * * * * * * * * * * * * * * * * * * //

dimensions      [0 2 -2 0 0 0 0];


internalField   nonuniform List<scalar> 
14479
(
0.000120789
0.000120039
0.000106748
0.0214931
0.000565211
0.0134353
0.000145613
0.000106886
0.00011166
0.0464844
0.000310063
0.0204746
0.0114969
0.00975103
0.0191589
0.0323488
0.00369174
0.00950935
0.0803629
0.000145785
0.000121457
0.000109286
0.0288939
0.000470215
0.000111387
0.000180563
0.000153128
0.0468126
0.0105361
0.0203303
0.051931
0.0190421
0.0783528
0.000106509
0.000100295
9.36621e-05
0.000128925
0.0241341
0.000107371
0.000636713
0.0196975
0.000107362
0.000114233
0.000102875
0.0420929
0.000143136
0.00379497
0.0191527
0.000103218
0.000218434
0.000118676
0.0876153
0.000783695
0.000218737
0.000103102
0.000118503
0.000179462
0.0427033
9.34798e-05
0.000202741
0.000107154
0.000102011
0.00226224
0.000256918
0.0052082
0.0275246
0.000106119
0.000113159
0.08337
0.0809854
0.0298055
0.000158548
0.0445504
0.0692899
0.000122224
0.00011218
0.0294637
0.0183643
0.0756218
0.0286952
0.0808611
0.000136626
0.000102594
0.00015745
9.39535e-05
0.000137048
0.000198984
0.000123239
0.0284717
0.000116593
0.0383868
0.0284572
0.0131047
0.0324253
0.000101543
0.0792447
9.68763e-05
0.0368938
0.000101145
0.0554087
0.0515438
0.0443831
0.000203159
0.000114113
0.000101497
9.55145e-05
0.00866914
0.0464183
0.00019173
0.0188728
0.000102215
0.00010244
0.0391177
0.000224626
0.00015063
0.000111644
0.000112329
0.00178275
0.000112625
0.000172232
0.00010044
0.000129873
0.0202359
0.000107558
0.0329622
9.58286e-05
9.88168e-05
0.000119047
9.49354e-05
0.0417526
9.59466e-05
0.00879132
0.0742741
9.64592e-05
0.000144339
0.000217697
0.00242062
0.000115677
0.0874365
0.0219743
0.000100972
0.0108316
0.000102839
0.00284709
0.00023336
9.37129e-05
0.0559086
0.000106283
0.000116442
0.000108251
0.0773718
0.000106608
0.000120824
0.000664196
0.00240349
0.000102529
0.0453509
0.000146278
0.0912885
0.0776103
0.0462706
0.0837124
0.0780044
0.000192873
0.0566645
0.0223285
9.25677e-05
0.0422274
0.000119161
9.71162e-05
9.57221e-05
0.000135243
0.000118893
0.000170584
0.000119848
0.000669643
0.000124838
9.68398e-05
0.000273921
0.000112187
0.00474343
0.000122871
0.000112869
0.0148397
0.000126744
0.000173675
0.000113911
0.000111928
0.00165475
0.00307675
0.00012864
0.0645614
0.000102546
0.000146453
0.0109335
0.0761499
0.00172449
0.0804032
0.00010748
0.000120066
0.000111659
0.00470899
0.0653124
0.000839735
0.0125471
0.000111837
0.000116111
0.000172753
9.65009e-05
0.000188603
0.0433103
0.0635683
0.000112306
0.000113091
0.000117416
0.000235262
0.0566812
0.0078639
0.000129829
0.000116415
0.00132423
0.0336983
0.0697071
0.000103933
0.0253644
0.022594
0.000108422
0.000102808
0.000193476
0.000123717
0.000113337
0.000143036
0.000114072
0.00931937
0.000111775
0.000111769
0.000175116
0.0268532
0.000129659
0.000110205
0.0235759
0.00020517
0.000102285
0.000193576
0.0617316
0.0453901
0.000101479
0.000116126
0.0469573
0.0281085
0.000107202
0.000184029
0.000120333
9.56024e-05
0.0270921
0.000776818
0.000127824
0.00728407
0.000181309
0.000524948
0.0816971
0.0861673
0.0121233
0.000144757
0.000127745
0.000115797
0.000128236
0.0680516
0.0305606
0.0814398
0.0583456
0.000118513
0.0202534
0.000114109
0.000111925
0.0138845
0.0467352
9.99262e-05
0.0271103
0.0414377
0.0189123
0.0276825
0.0479805
0.0814026
0.000137774
0.000130666
0.0339981
0.000114499
0.0390391
0.012798
0.025041
0.0171312
0.000212066
0.0118792
0.000119438
0.000117157
0.000115728
0.000167708
9.26976e-05
0.000114207
0.00011812
0.025592
0.00010074
0.000109877
0.000116693
0.0088286
0.0908371
0.000820233
9.89518e-05
9.82449e-05
0.0348732
0.000311933
0.000365095
0.000106237
0.000109953
0.000145399
0.0209838
0.000139642
0.000125477
0.000115713
0.000112206
0.000129892
0.000113196
0.01635
0.00125039
0.0225552
0.0809301
0.000424867
0.0256319
0.000109493
0.000102986
0.000111509
0.0818846
0.0105823
0.00193145
0.000112612
0.000111971
0.000230293
0.000644201
0.000133395
0.0799015
0.000106038
0.0132552
0.000106945
0.0316522
9.29624e-05
0.0284374
0.0660799
9.35261e-05
0.000135164
0.0310996
0.0266895
0.000107025
0.000118123
0.0157395
0.000126297
0.000103969
0.0339773
9.90508e-05
0.000113844
0.000113149
0.0388436
0.0213025
0.000112834
0.0262815
0.0001035
0.000177543
0.0103191
0.0246855
0.0708705
0.000242221
0.064201
0.000136372
0.0517793
0.0485804
0.0850346
0.00014629
0.000147733
0.0199342
0.000115392
0.000106124
0.00010189
0.000371361
0.000177796
0.0616407
0.000205791
0.000127403
0.000614751
0.000127254
0.000234417
0.000135506
0.000105836
0.0274991
0.00786015
0.076826
0.065889
0.0119447
0.0295709
0.000109801
0.000137087
0.0857469
0.0190331
0.029975
0.000108412
0.0330985
9.80167e-05
0.00833874
0.0245971
0.000216566
0.000104219
0.046047
0.0301732
0.000126063
0.000136148
0.0477554
0.000108754
0.021145
0.000880598
0.000138115
0.000112246
0.000106806
0.000119859
0.0714202
0.000204675
0.0785541
0.000116631
0.0349851
0.000121646
0.000111563
0.0289493
0.0759214
0.000220911
0.00839367
0.000104539
0.000116171
0.0604527
0.000109674
0.0667548
0.0222949
0.000679545
0.0202508
0.0470935
0.0147903
0.000121564
0.000223355
0.000107298
0.000190359
0.0312507
0.000101805
0.00010501
0.000131927
0.0164169
0.000206419
0.000199879
0.000148477
0.000504141
0.000102117
0.000187946
0.0643794
0.0321544
9.82234e-05
0.000118546
0.0898325
0.000435372
0.0765148
0.00915447
0.000106664
0.0448082
0.0101549
9.50826e-05
9.60356e-05
0.000121396
0.0122805
0.0619536
0.0112875
0.0212689
0.0297094
0.00953251
0.000146149
0.000912906
0.000108385
0.0410563
0.000117859
0.000743463
9.99193e-05
0.000207755
0.000105527
0.0812989
0.0132736
0.063137
0.0589287
0.000135048
0.000109474
0.0544649
0.00428603
0.000100365
0.000120234
0.022607
0.000343931
0.000103622
0.000111806
0.000383008
0.00010644
0.00011989
0.0172425
0.0189973
0.0788201
0.000106118
0.000100035
0.0177259
0.000115015
0.000132342
0.000101224
0.0166539
0.000102472
0.000129134
0.000136729
0.000124863
0.0170374
0.000291075
0.0902933
0.0292212
0.0907306
0.0356475
0.0621913
0.0600322
9.69408e-05
9.79311e-05
0.0782764
0.0211297
0.000132083
0.000318417
0.0680494
0.0603727
0.000110001
0.000146119
0.000599162
0.0122954
0.0200108
0.0649591
0.01138
0.0532821
0.000104455
0.0220341
0.000106054
0.000126845
0.0815032
0.000131208
0.000104488
0.00010441
0.000106644
0.00096076
0.000103953
0.000126828
0.0103035
0.000116284
0.0172688
0.00962221
0.0226808
0.0100183
0.000116836
0.0334415
0.000114008
0.064757
0.000101298
0.000550284
0.000147624
0.000102767
0.000100679
0.000102466
0.000113771
0.000103063
0.0590456
0.0451155
0.000106175
0.0193338
0.00128869
9.45543e-05
0.000113507
0.000312216
0.0154425
9.5123e-05
0.000131158
9.82131e-05
0.0530195
0.00010149
0.000102623
0.0657582
0.0248776
0.023053
0.000176066
0.000137654
0.000122503
0.0839311
0.0094512
0.0606264
0.000113512
0.000130992
0.00011133
0.000119042
0.0729887
0.000126934
0.0553553
0.0880588
0.0753325
9.62508e-05
0.0116478
0.0341003
0.000113495
0.000159582
0.000114659
0.0240111
0.000126346
0.000119148
0.000126334
0.000122969
0.025881
0.00148093
0.0781693
0.000120381
0.000102181
0.000111913
0.000103477
0.000103488
0.0713344
0.0194862
0.000105058
0.000123675
0.000100688
0.0650053
0.000123452
0.000102783
0.000137823
0.00389226
0.000124486
0.000124326
9.99076e-05
0.00200215
0.0463638
0.000128276
0.0781937
0.000899257
0.000124865
0.0810434
0.0142373
9.43366e-05
0.000110763
0.000113429
0.000103113
0.0501495
0.066225
0.000197589
0.000123425
0.0230821
0.0291105
0.0817163
0.0589492
0.000134026
0.000122371
9.77256e-05
0.0162665
0.000113415
0.000100243
0.0606932
0.0358256
9.91972e-05
0.000113415
0.00251265
0.0736881
0.000124337
0.000114041
0.000109388
0.0217393
0.018896
0.0481938
0.00135454
0.0571797
0.000119347
0.0130681
0.000117039
0.000110265
9.82553e-05
0.0279064
0.000120188
0.0271093
0.000107316
0.0430626
0.0199958
0.000145675
0.0729004
0.000115185
0.000125269
0.0743374
0.00131505
0.00695575
0.076699
0.0587735
0.0723818
0.000111063
0.00197017
0.0442619
0.0422996
0.0912586
0.000109022
0.0180114
0.0792125
0.000814741
0.0761657
9.74972e-05
0.0628491
0.000120516
0.000111957
0.0307228
0.0283354
0.0292782
9.91928e-05
0.000115915
0.0272764
0.0260826
0.000239244
0.00243294
0.0102742
0.000111352
0.0730647
0.0532216
0.000112725
0.0398242
0.0471218
0.0673116
0.000112291
0.000109524
0.0206723
0.000146413
0.000109996
0.000100662
9.57726e-05
0.000173754
0.000174467
0.000110879
0.000127873
0.000116987
0.000102644
0.000147499
0.000147031
0.000112529
0.0354362
0.00122811
0.0198303
0.0304354
0.0219009
0.000532155
0.000113036
0.000113434
0.00010772
0.000192763
0.0145895
9.81281e-05
0.0254135
0.000121804
9.81343e-05
0.0027819
0.00011976
0.014161
0.0452222
0.000111558
0.0796067
0.000125733
0.0246789
0.0284311
0.00022638
0.000285747
0.0280875
0.0276063
0.000119717
0.000116765
0.0135684
0.0330232
0.0218726
0.000112745
0.0285271
0.0797407
0.000120886
0.0797082
0.000919345
0.000111466
0.000123022
0.0198644
0.000347927
0.000106752
0.0623745
0.000126695
0.0509952
0.0151878
0.0578227
0.0850516
0.0473551
0.0180328
0.00200047
0.00105367
0.000313121
0.0769696
0.000166852
0.000130064
0.000181424
0.00010069
0.0357862
0.0717209
0.000110893
0.0253067
0.0234245
0.0179798
0.0757769
0.000109427
0.000114788
0.0119309
0.0563091
0.000245899
0.00926372
0.00012155
0.0486694
0.000111953
0.012493
0.000111608
0.0433797
0.000121918
0.00858658
0.000210832
0.000112968
0.00013421
0.000110746
0.000144067
0.0752887
0.0715813
0.0784967
0.0320133
0.000223673
0.035027
0.000112027
0.0609395
0.00371995
0.0199835
9.30952e-05
0.000117524
0.000181533
0.0153688
0.000108225
0.0759643
0.00153403
0.00011196
0.000139553
0.0654392
0.00021126
0.00188009
0.00771333
0.0200874
0.000116226
0.0568741
0.00010158
0.0001112
0.000126631
9.53131e-05
0.000111729
0.000105065
0.0291249
0.000101881
0.0586481
9.91362e-05
0.000112629
0.000110557
0.000107192
0.00781001
0.0365309
0.0891005
0.0551651
0.0374379
0.0818969
0.000134291
0.0786274
0.0614376
0.0806858
0.0161454
0.00466217
0.0366458
0.000122587
0.000119489
0.000109881
0.000117324
0.000259705
0.000145521
9.63708e-05
0.000117055
0.000121596
0.000219714
0.0395899
9.47736e-05
0.000144379
0.000143872
0.0169245
0.0440134
0.000102683
0.0191501
0.000115895
0.000196524
0.000113951
0.000107813
0.000127076
0.000104635
0.000118114
0.0602233
0.0768714
0.0269336
0.0759905
0.000122623
0.000278431
0.0207405
9.31803e-05
0.000133926
0.0781423
0.0646464
0.012199
0.000110656
0.0270338
0.0462013
0.0122408
0.000114847
0.00012937
0.054285
0.00114311
0.0194639
0.000113674
0.064891
0.00187393
0.000144526
9.52313e-05
0.00276187
0.0471971
0.0729587
0.0863363
0.04501
0.00194773
0.000111728
0.0738126
0.000145845
0.000116742
0.000114552
9.84991e-05
0.0831678
0.0552556
0.000807773
0.000129408
0.084543
9.81286e-05
0.0579961
0.0783853
0.000137466
0.00010776
0.000153937
0.0587974
0.000130834
0.000113238
9.58959e-05
0.0858633
0.000101947
0.000146491
0.00499408
0.0132446
0.00119414
0.000122137
0.000113604
0.000106719
0.0532999
0.0141866
0.0904434
0.000143595
0.000466574
0.0458482
9.81627e-05
0.000106348
0.000115897
0.0716932
0.000143074
0.0226564
0.000110606
0.0198513
0.000170775
0.000106653
0.00121692
0.000145707
0.000134607
0.00139666
0.000121321
0.000109334
0.0266362
0.024956
0.000122501
0.01354
0.000110528
9.78429e-05
0.000116989
0.000104933
0.0267422
0.00011917
0.0567146
0.000103722
0.029978
0.000117655
0.000126536
0.0276935
0.000125525
0.000111398
0.0683942
0.0671853
0.00016251
0.0507805
0.000146662
0.0519518
0.000101869
0.000113986
0.058584
0.000190196
0.000133725
0.000114941
0.0490876
0.000121942
0.0664732
0.042501
0.000180536
0.000117913
0.0045786
0.0211356
0.0762703
0.000111783
0.000139826
0.00016157
0.000103476
0.000102909
0.000144068
0.0453092
0.000135967
0.00782915
9.60891e-05
0.0178476
0.0465506
0.00103842
0.000813863
0.00302075
0.000120263
0.000276828
0.000129052
0.0869969
0.0261662
9.54625e-05
0.0144413
0.0462167
0.000155287
0.00765392
0.00655326
0.0339592
0.00280407
0.000118146
0.000963011
0.000123605
0.000125776
0.000111872
0.000122286
0.0821599
0.0927995
0.01377
0.0251791
0.0888728
0.027427
0.0347164
0.00341431
0.000155522
0.000120482
0.0657237
0.0924824
0.0706649
0.000119752
0.000147195
0.0636623
0.000102554
0.000124946
0.000126937
0.000143952
0.000113947
0.0387753
0.000112192
0.000281438
0.000113953
0.0564703
0.000675754
0.0444227
0.000144381
0.000117504
0.000201233
0.0025415
0.000110477
0.000120192
0.000113473
0.00057551
0.0726836
9.98223e-05
0.000113413
0.000118828
0.00867046
0.000124151
0.000138047
0.00596469
0.0665563
0.0209327
0.000113076
0.0649342
9.60811e-05
0.000143847
0.00652378
0.000357542
0.000192655
0.000129403
0.000351827
0.0458158
0.0336721
0.0125228
0.000114313
9.53009e-05
0.0431817
0.0454269
0.000157271
0.0343637
0.00013356
0.000142482
0.000112006
0.0223124
9.69008e-05
0.0617975
0.000372057
0.000105548
0.0401303
0.00142831
0.044033
0.000145542
0.000111118
0.00878229
0.000116072
0.0575281
0.0353501
0.0081194
0.000113392
0.00016326
0.000105248
0.000950498
0.000119142
0.000102362
0.000374633
0.000127063
0.000714044
0.000108567
9.78702e-05
0.00568036
0.041727
0.0927235
0.00343177
0.00904143
0.000100815
0.000133215
0.000133809
0.000111773
0.000101667
0.0846247
0.000575451
0.000110963
0.000113001
0.000118766
0.0145239
0.00022414
0.000101968
0.0213878
0.0129095
0.0473414
0.00011841
0.000108384
9.37369e-05
0.0827067
0.00231757
0.0597856
0.00135346
0.0326629
0.000157383
0.000101173
0.000103242
0.000109865
0.0659306
0.0340888
0.0198163
0.000107811
0.000117362
0.000113263
0.000107858
9.53612e-05
0.000104879
0.000113378
0.0210014
0.00145029
0.000149318
0.0251451
0.0319245
9.85152e-05
0.000105943
0.0176189
9.76406e-05
0.000111565
0.0242239
0.000128028
0.000111471
0.000107147
0.0238907
0.000123702
0.0119575
0.000863623
0.000133328
0.000125119
0.0320439
0.06352
0.0332677
0.000111645
0.000130575
0.00102202
0.000109039
0.000112082
0.057185
0.000117213
0.00409386
0.000342861
0.0329841
0.000117857
0.0877221
0.000108043
9.11081e-05
0.000903261
0.0450447
0.00011387
0.0274311
0.000138999
0.000103137
0.0768366
9.4314e-05
0.000128343
0.0205027
0.0537962
0.0416316
0.042897
0.000101416
0.000165193
0.0110271
0.0201519
0.015144
0.000112733
0.000107342
0.000196043
0.000103034
0.000110475
0.000105773
9.59142e-05
0.00763542
0.000109301
0.000127181
0.0116827
0.00627315
0.00179279
0.0304564
0.000103146
0.00014539
0.0730492
0.00013499
0.0915681
0.000208729
0.0315585
0.00226539
0.000113867
0.000111981
0.0751714
0.0387725
0.000111058
0.0278807
0.0462659
0.0425341
0.000108239
9.57454e-05
0.000203456
0.0576106
0.0214374
0.0267376
0.0245734
0.000101659
0.000136077
0.0701955
0.000182854
0.0126782
0.00141002
0.000107315
0.0883637
0.000168548
0.000144188
0.0271578
0.000121574
0.000457515
0.000112885
0.000123248
0.00012974
0.00022583
0.000102865
0.037095
0.0827225
0.068525
0.000148704
0.000115597
0.000115955
0.000111642
0.0411689
0.000113415
0.000129594
0.000114146
0.02444
0.000127503
0.00150236
0.000117334
0.00799638
0.0449243
0.0348666
0.0345245
0.00512807
0.0148336
0.000102694
0.000129871
0.00380325
0.000110054
0.0738621
0.0289399
0.000128117
0.000112684
0.000103873
0.000129805
0.0293231
0.000273495
0.0275387
9.69925e-05
0.000138986
0.000133614
0.0199242
9.64968e-05
0.000107208
0.0767083
9.38057e-05
0.033493
0.000549113
0.000357839
0.0138927
0.0714288
0.000109735
0.00010631
0.0864913
0.000125461
0.0511718
0.000111885
0.0175293
0.000136174
0.0586017
0.0308261
0.000194339
0.0250705
0.0321797
0.0157725
0.000112741
0.0764122
0.00167626
0.0302271
0.000129014
0.000113587
0.000135603
0.0015065
0.00132327
0.000338827
0.000108863
0.000286311
0.000102538
0.00011673
0.0417565
0.000134942
0.000116432
0.0169863
0.00055098
0.0340158
0.000137699
0.0238126
0.000132955
0.0267275
0.000145383
0.00010034
0.000112669
0.0201338
0.000135377
0.076473
0.028293
0.000208456
0.000119852
0.0229154
0.0298115
0.000139827
0.000121114
0.0214603
0.0036132
0.000107368
0.000104425
0.0665393
0.0410006
0.00028045
0.00637493
0.000306029
9.94023e-05
0.0263445
0.00451511
0.0651983
0.0368895
0.0455224
0.0851172
0.0793054
0.000109084
0.003657
0.00486874
0.000112526
0.087959
0.000145481
0.0825449
0.011408
0.0296633
0.000125278
9.86769e-05
0.000133614
0.000111312
0.0263511
0.000124277
0.00260896
0.000102578
0.00030588
0.0306949
0.000112263
9.71253e-05
0.000107539
0.000113221
0.000128491
0.0151237
0.0289014
0.000115092
0.000108079
0.00010124
0.0685319
0.0142552
0.0334755
0.000344005
0.000124947
0.000107285
0.0899062
0.000492856
0.0804816
0.0340657
0.000116731
0.00104582
0.0867654
0.0639579
0.000146934
0.000124152
0.000112399
0.000144962
0.0424609
9.28537e-05
0.00020031
0.000111624
0.000103223
0.000101172
0.0494596
0.000124703
0.0257121
0.000102906
0.000104402
0.0287543
0.000122521
0.0127838
0.0336995
0.000202667
0.025112
0.000109349
0.0274214
0.0311328
0.0439856
0.0610208
0.0260143
0.0468587
0.00865382
0.0179583
0.000216084
0.0756122
0.000146456
0.0840104
0.000281662
0.000154404
0.0129349
0.0192573
0.0516377
0.000203092
0.0476681
0.0326746
0.0557209
0.0135836
0.0242233
0.0111279
0.000131391
0.00188279
0.000114486
0.0277706
0.0437307
0.00010698
0.06657
0.00757205
0.000107058
0.086631
0.000119801
0.000232312
0.0315975
0.00010525
0.0409158
0.0536763
0.00114559
0.0841456
0.000112377
0.000170518
0.00774564
0.000144171
0.000977969
0.000157042
0.000113968
0.0472318
0.0010915
0.0187143
0.0172193
0.000326833
0.0272639
0.00131394
0.000348994
0.07257
0.0887462
0.000147528
0.000134404
0.000112598
0.0365058
0.0547314
0.00011157
0.0362862
0.000122777
0.0176481
0.0296983
0.0762221
0.0684258
9.89994e-05
0.0119018
0.000117643
0.0541421
0.0258013
0.0434189
0.000115782
0.0662064
0.00010184
0.000179185
0.0883506
0.000318683
0.0735663
0.00019056
0.000115068
0.0301754
0.0816266
0.0619495
0.000122426
0.000128032
0.0222687
0.00014635
0.000119781
0.00010046
0.000116303
0.0448816
0.0522764
9.23927e-05
0.0338288
0.0382881
0.000127061
0.000112583
0.000111435
0.000619909
0.000111594
0.000122998
0.000121737
0.0341018
0.0404787
0.0375785
9.7868e-05
0.0416362
0.0158716
0.00360426
0.000123155
9.8436e-05
0.000103026
0.000234624
0.000156996
0.0330191
0.00017798
0.00010531
0.000734518
0.000112881
0.000133853
9.81198e-05
0.000204442
0.000155851
0.0355532
0.0116921
0.000135391
0.0148605
0.000106459
0.000139064
0.000257219
0.000104689
0.000104822
0.02601
0.000103688
0.000144921
0.0142843
0.0780598
0.000110829
0.0215837
0.000126939
0.0196771
0.000387628
0.0389184
0.0391295
0.000129484
0.0708091
0.000106157
0.000121031
0.0130422
0.0850254
0.00012445
0.0618983
0.0844333
0.000199688
0.000121878
0.000596162
0.0324568
0.000230829
0.0214139
0.0352148
0.000117448
0.0369406
0.000119689
0.0360072
0.0422417
0.000121967
0.00381753
0.000106702
0.000120784
0.000105333
0.000126389
0.00106986
0.0265713
0.000106067
0.000287834
0.000891387
0.000117179
0.000112069
0.0342711
9.86472e-05
0.0211293
0.043586
0.000112019
0.000110003
0.000119091
0.076538
0.000134017
0.000114348
0.000112476
0.0650892
0.00552121
0.0593881
0.000116029
0.0147248
0.0142451
0.0324845
0.000102477
0.0742849
0.000277707
0.0280664
0.000111471
0.0605877
0.0164161
0.0369566
0.000218489
0.000128299
0.00014301
0.000153455
0.019701
0.000145306
0.0201185
0.000116076
0.0210456
0.000112155
0.0463965
0.000206213
9.36509e-05
0.000106382
0.03045
0.0832794
0.0441478
0.0284866
0.0269461
0.0233208
0.0219706
0.000150177
0.000108943
9.92786e-05
0.000111708
0.0495122
0.000963957
0.000124977
0.000110727
0.038544
0.0471872
0.0159995
0.0114568
0.0566665
9.83888e-05
0.000107426
0.000104266
0.000186282
0.0450453
0.000117034
0.0321592
0.000132474
0.0133621
0.00756852
9.55489e-05
0.0569639
0.0699823
0.0220438
0.0244028
0.000115984
0.00028033
0.000111702
0.000115175
0.000181762
0.046908
0.000578676
0.000549867
0.000121346
0.000124491
0.000122049
0.0396664
0.0507853
0.000412052
0.000124719
9.29291e-05
0.000116397
0.0848559
0.00271226
0.000112025
0.000165673
0.0156348
0.0740657
0.000125947
0.0254813
0.0159265
0.000122729
0.0585467
0.000247264
0.000127118
0.00011504
9.55912e-05
9.24346e-05
0.0893818
0.000114275
9.53223e-05
0.000119972
0.000117863
0.000121407
0.000111147
0.01538
0.000112534
0.0468414
0.0630548
0.000112109
0.0324773
0.0355159
0.0129308
0.000100942
0.035613
0.0788082
0.0690999
0.0521094
0.000145413
0.000175383
0.00985807
0.00013308
0.000185685
0.000111701
0.000499641
0.000160738
0.000100398
0.0001411
0.0276334
0.000241075
0.000186165
9.80127e-05
0.00126732
0.00012006
0.0562869
0.0245627
0.0254061
0.0251692
0.000146548
0.000103058
0.000123787
0.0160103
0.000106259
0.000166733
0.000141616
0.0732793
0.0806231
0.0356647
9.59338e-05
0.0483726
0.072002
0.000109045
0.0110284
0.000355459
0.0270554
0.0139448
0.000109556
0.000112814
0.0208412
0.0217934
0.0110791
0.020258
0.0294756
0.000128071
0.0622356
0.0918805
0.00505456
0.0442306
9.71987e-05
0.000105588
0.000117821
0.000108031
0.000206563
0.0643119
0.000222714
0.00011329
0.000133213
0.0812495
0.0150421
0.000492698
0.027773
0.000118313
0.0164992
0.0155803
0.000106859
0.028951
0.0346334
0.0194272
0.000128304
0.01429
0.000123573
0.000109013
0.0448372
0.0334442
0.00079175
0.000192309
0.026501
0.0737817
0.0244584
0.000115248
0.0652716
0.0290608
0.00126594
0.0677391
0.000113727
0.0104894
0.000115724
0.000111748
0.000110238
0.000162403
0.000108761
0.000137245
0.0001447
0.000353948
0.000112527
0.061972
0.000113494
0.000107701
9.6438e-05
0.000105466
0.0831592
0.000108226
0.0231254
0.0281799
0.00021346
0.000111379
0.0226701
0.0385008
9.85921e-05
0.000124293
0.000105687
9.83267e-05
0.0441874
0.00681357
0.0378168
0.0452983
0.0622408
0.000122846
0.0184348
9.96119e-05
0.000117776
0.031091
0.0206803
9.74295e-05
0.000564669
0.000172187
0.000112698
0.000277133
0.00010084
0.0867171
9.41529e-05
0.0564143
0.067615
0.000112045
0.0337061
0.000122048
0.000133281
0.0294991
0.000113124
0.016535
0.0245139
0.047453
0.000118794
0.000156494
0.000161689
0.000111472
0.000115493
0.0464184
0.000125323
0.000118389
0.00011115
0.000139066
0.0203249
0.0784745
0.00011818
0.000138846
0.0342359
0.0839128
0.000128564
0.0555665
0.000100263
0.000112197
0.000151107
0.000132423
9.81598e-05
0.000115605
0.0595871
0.000193939
0.0742461
0.0105121
0.0406897
0.029385
0.000118202
0.000111891
0.000111857
0.000133004
0.00142082
0.0446645
0.0449683
0.000111959
0.017978
0.000108356
0.000292225
0.0221195
0.0247388
0.0401566
0.00900982
0.0189692
0.0607862
0.000109235
0.000130623
0.0216495
9.51222e-05
0.000144134
0.000124416
0.0378017
0.019266
0.000145869
0.0369452
0.000134777
0.0456026
0.000158161
0.0276289
0.0117416
0.0595453
0.000112095
0.000131848
0.0803076
0.000129106
0.000381794
0.000275505
0.000111537
0.000284046
0.000112733
0.0198353
0.0720061
0.0440734
0.000105597
9.21369e-05
0.0310157
0.0408482
0.0239228
0.000107888
0.0418475
0.0468748
0.0351538
0.0855735
0.0279372
0.000100506
0.0210564
0.0279897
0.0695867
0.000115381
0.0769283
0.00010818
0.00185097
0.0221305
0.0719607
0.0301879
0.000107044
0.000118144
0.000155549
0.0276678
0.000104824
0.0391025
9.57127e-05
0.000954218
0.0292414
0.000118258
0.000138729
0.000230271
0.000109851
9.75597e-05
0.0818299
0.011664
0.000125023
9.52859e-05
0.0373287
0.000108782
0.000132105
0.000114042
0.023044
0.0357427
0.0234459
0.000112953
0.0733893
0.000144613
0.0870819
0.0277978
0.0001222
0.000128268
0.000110527
0.0283877
0.000137924
0.000166377
0.0411313
0.000111332
0.0385977
0.00010733
0.000110856
0.000119513
0.000132405
0.000100107
9.42419e-05
0.00463436
0.0254254
0.00096762
0.000111727
0.000172381
0.0170965
0.0230355
0.0133487
0.0260228
0.0001204
0.0722507
0.000145588
0.0362495
0.000102408
0.0540018
0.000111813
0.000214641
0.000102134
0.0134813
0.000130273
0.0203136
0.0723068
0.00011312
0.0002142
0.0129262
0.00011549
0.000115925
0.000121369
0.0857651
0.000106044
0.00211744
0.000105104
0.000108349
0.021454
0.0700113
0.0312704
0.000120715
0.000111914
0.0794263
0.000133258
0.000119085
0.0258279
0.0857057
0.027838
0.000114887
0.000114845
0.000133348
0.0731994
0.000130496
0.000113878
0.0827319
0.00378575
0.000122585
0.0491839
0.000230356
0.000109584
0.000106209
0.000140334
0.0271315
0.000129109
0.000107378
0.000138894
0.000306385
0.000136856
0.000128914
0.000113239
0.0275887
0.000106999
9.58635e-05
0.000127145
0.00025651
0.000118973
0.0171778
0.0699001
9.83715e-05
0.000136198
0.000163809
0.000290789
0.000182825
0.0640501
0.0193877
0.000114036
0.0109502
0.000119756
0.0687564
0.0135997
0.0415935
0.000108153
0.0257232
0.000128309
0.000110685
0.000132241
0.000124486
0.000103373
0.0330969
0.000109597
0.000106601
0.000235443
0.0835981
0.000113325
0.000128363
0.0262572
0.000102323
0.00982756
0.000115703
0.0148938
0.000112032
0.00905331
0.0030879
0.000277713
0.000114388
0.000111535
0.0230769
0.0283426
0.0924682
0.000112516
0.000125718
0.0575093
0.000121712
9.77134e-05
0.000156357
0.00011287
0.000113742
0.000228931
0.000131392
0.0217806
0.0725102
0.0584201
9.50181e-05
0.0149805
0.0315186
0.0881645
0.0150034
0.000111291
0.00013268
0.000100882
0.0308918
0.00302952
0.000114967
0.0794511
0.0458485
0.000111904
0.000120578
0.0140938
0.0290392
0.000116398
0.0668674
0.000125075
0.0144888
0.000561717
0.048557
0.000100785
0.000127667
0.0310189
0.000815974
0.0268988
0.0914393
0.0228733
0.000109762
9.75054e-05
0.000128707
0.000102989
0.000117558
0.0187123
0.0441845
0.000145478
9.33355e-05
0.000295129
0.0167997
0.0126039
0.000101845
0.0308135
0.000104548
0.0857956
0.000749083
0.044164
0.000100158
0.000111808
0.0156385
0.063137
0.0931643
0.0271991
0.000442891
0.0287965
0.0806681
9.19988e-05
0.0234958
0.000101688
0.000125911
0.000118541
0.0159979
0.00108202
9.65447e-05
0.00012344
0.0834645
0.000114097
0.00121406
0.000102083
0.000118989
0.00107365
0.0199259
0.000116067
0.01436
0.00511622
0.000118486
0.000117342
0.000421769
0.000253437
0.000153956
0.0317532
0.000105939
0.0113452
0.0428578
0.000833342
0.000111778
0.0472232
0.0001105
0.00018263
0.000102549
0.00346362
0.0066716
0.000117726
0.00117882
0.0815413
0.000109141
0.000129942
0.000117196
0.0689038
0.0823805
0.0309132
0.000182383
0.00177265
0.0835136
0.023744
0.000102701
0.0358845
0.00504298
0.000175688
0.041411
0.00160406
0.0209849
0.0300934
0.0145586
0.000110803
0.0450368
0.0768345
0.0695237
0.0308745
0.0344464
0.000111895
0.000102926
0.0310113
0.0843917
0.000124743
0.000118485
0.0811608
0.000145251
0.0262152
0.0625657
0.0904078
0.0233676
0.000110213
0.00540209
0.0829602
0.000103381
0.000145473
0.000108467
0.00193703
0.0255036
0.0596078
0.0210858
0.0448531
0.000101073
0.0283268
0.0260918
0.0244511
0.000173473
0.000147562
0.0302123
0.0531327
0.000115254
0.0371074
0.000227114
0.000136703
0.000112475
0.0838131
0.0610272
0.000124818
0.000108723
9.70001e-05
0.00011966
0.0101387
0.0432839
0.000116268
0.083813
0.00124353
0.000124274
0.0226006
9.58942e-05
0.000112161
0.0714927
0.000135328
0.000112028
0.0220724
0.000112348
0.000206244
0.0001106
0.000111046
0.0624227
0.000124762
0.0852008
0.0338166
0.0814199
0.0447651
9.18602e-05
0.0844096
0.000112619
0.0402641
0.000128552
0.0341462
0.0345407
0.000110606
0.064446
0.041157
0.000106057
0.000790321
0.000103764
0.01424
0.00200663
0.00011424
0.000126541
0.000135339
0.000146318
0.0168367
0.000120118
0.000120744
0.000103143
0.0758743
0.00116596
0.000102201
9.68924e-05
0.0560618
0.00011643
0.0232593
0.000111019
0.000111401
0.00011197
0.000146473
0.000121644
0.000890736
0.000106726
0.043172
0.000107399
0.000104697
0.00683652
0.0294272
0.000113052
0.0726842
9.69549e-05
0.000115102
0.000126825
0.00205701
0.00352099
0.000342495
0.0715103
0.000127825
0.000222864
0.00129635
0.00467208
0.021948
0.000122784
0.0275265
0.0216669
0.00018395
0.0218473
0.000112972
0.000162377
0.0802128
9.41014e-05
0.000110274
0.0120793
0.0177909
0.000116973
0.000158829
0.0183134
0.000113186
0.0231109
0.0242649
0.0211406
0.00476786
0.000112208
0.0107761
0.000104865
0.00011308
0.00268599
0.000143995
0.000161569
0.000107689
0.000105734
0.000109331
0.000120772
0.000117033
0.000110331
0.000110385
0.000119214
9.81456e-05
0.000120222
0.00260132
0.0341411
0.000110619
9.34865e-05
0.000137061
0.02209
0.000101048
9.76131e-05
0.000105611
0.0113586
9.26558e-05
0.0396404
9.74942e-05
0.000145566
0.000112424
0.000137937
0.000218016
0.000101363
0.000182277
0.000100962
0.0417647
0.0306266
0.000131843
0.00013382
9.82217e-05
0.0399051
0.0120239
0.0242847
0.000303677
0.000748603
0.000108382
0.000110456
0.00203959
0.00713668
0.0191141
0.000153502
0.0270533
0.000112665
0.00140341
0.000109418
0.00123129
0.00016007
0.0725429
0.000112812
0.000133933
0.000124935
0.000736283
0.0387495
0.0001006
0.0380143
0.0857052
0.0254127
0.00625954
0.000109157
0.000109091
0.000135763
0.016078
0.000100663
0.000182565
0.0169241
0.000121772
9.93068e-05
0.000112022
0.000100325
0.0092124
0.000111754
0.000109213
0.00857969
0.000123263
0.000103423
0.000145096
0.000100683
0.000347985
0.000119227
0.000153722
0.000105125
0.00031993
0.000119136
0.000112485
0.00142504
0.0010023
0.0700836
0.0173696
0.0131735
0.0580614
0.000136336
0.0122099
0.000240161
0.0267733
0.00231941
0.000106114
0.00017798
9.83026e-05
0.000111029
9.8166e-05
0.0206238
0.000360264
0.000117933
0.0219927
9.72708e-05
0.0307087
0.000107629
0.000142462
0.000113325
0.039129
0.0264518
0.0206431
0.000111743
0.000111397
0.000104657
9.59928e-05
0.0180313
0.000626285
0.000110412
0.000116239
0.000351701
0.000178045
9.6334e-05
0.0817148
0.0285486
0.000114705
0.0225109
0.000138899
0.0400215
0.000112106
0.000165082
0.0639957
0.000268679
0.000113044
0.00242953
0.000144432
9.41198e-05
0.000130614
0.000131615
0.000997549
0.0373327