/*--------------------------------*- C++ -*----------------------------------*\
| =========                 |                                                 |
| \\      /  F ield         | OpenFOAM: The Open Source CFD Toolbox           |
|  \\    /   O peration     | Version:  v2012                                 |
|   \\  /    A nd           | Website:  www.openfoam.com                      |
|    \\/     M anipulation  |                                                 |
\*---------------------------------------------------------------------------*/
FoamFile
{
    version     2.0;
    format      ascii;
    class       volVectorField;
    location    "250";
    object      U_0;
}
// * * * * * * * * * * * * * * * * * * * * * * * * * * * * * * * * * * * * * //

dimensions      [0 1 -1 0 0 0 0];


internalField   nonuniform List<vector> 
14479
(
(1.17991 -0.155317 0)
(1.04882 -0.22208 -1.3027e-20)
(1.08381 -0.123023 -2.34332e-20)
(-0.223301 -0.045136 7.69341e-21)
(0.954577 -0.474847 0)
(-0.264686 -0.0491196 1.0514e-20)
(0.999986 -0.00418109 -3.99292e-21)
(1.03224 -0.00528951 -1.9115e-20)
(1.02811 -0.0592526 0)
(-0.164067 -0.0256025 0)
(0.956652 -0.417788 1.06605e-21)
(-0.227318 -0.045512 3.61514e-20)
(-0.246354 -0.0454626 -1.4055e-19)
(-0.249295 -0.0446312 1.48645e-19)
(-0.184984 -0.0438093 0)
(-0.0501754 -0.0406969 -6.63242e-20)
(1.33687 -0.167998 7.40422e-20)
(0.423237 0.0776543 2.10309e-21)
(0.281409 -0.0164992 -2.11237e-19)
(1.2525 -0.0130483 8.41865e-20)
(1.01241 -0.021041 0)
(1.03094 -0.0987809 3.24604e-21)
(-0.0728524 -0.0347264 3.87478e-20)
(1.28767 -0.20544 1.00148e-19)
(1.02751 -0.0606297 3.39958e-21)
(0.741947 0.099894 5.3994e-20)
(0.926853 -0.29939 -3.66443e-20)
(-0.16313 -0.0258135 3.34859e-20)
(1.30285 -0.326117 2.34211e-20)
(-0.179056 -0.0436003 1.5222e-20)
(0.526162 0.0688299 4.19673e-21)
(-0.253262 -0.0463436 0)
(0.247426 -0.0127663 2.52105e-19)
(1.03451 -0.0115246 2.56803e-20)
(1.08435 -0.044176 0)
(1.05359 -0.000768453 5.41875e-21)
(0.993532 -0.0191383 5.85155e-21)
(-0.0908378 -0.0325655 1.16397e-21)
(1.06995 -0.128607 6.61073e-22)
(0.86825 0.280859 0)
(-0.173519 -0.0433069 1.29294e-19)
(1.06761 -0.125809 0)
(0.869656 -0.0811647 3.21206e-20)
(1.10919 -0.0791114 0)
(-0.000185717 -0.054319 4.20542e-20)
(1.24323 -0.100349 0)
(-0.147587 -0.0280004 0)
(-0.257476 -0.0435731 -8.05405e-20)
(1.07819 -0.0628933 2.10382e-20)
(0.726068 0.143837 -1.20313e-19)
(1.01505 -0.0339788 0)
(0.608809 -0.0141934 -8.65876e-20)
(1.13225 -0.443455 0)
(1.26379 -0.167509 -7.15895e-20)
(1.07808 -0.0608968 -2.34821e-20)
(0.982919 -0.0450897 2.76497e-22)
(1.15683 -0.279632 -8.06685e-20)
(-0.172685 -0.0307502 0)
(1.05348 -0.000605065 0)
(1.26901 -0.124517 0)
(1.07719 -0.128096 -4.30435e-21)
(1.06075 -0.0331061 0)
(0.390453 -0.152154 1.15846e-19)
(1.23698 -0.247403 3.85946e-20)
(1.29386 -0.00474709 -1.16668e-19)
(-0.248987 -0.0436707 0)
(1.15674 -0.0938309 0)
(0.886857 -0.0841427 -4.09513e-20)
(0.470545 -0.0852811 6.87728e-20)
(0.78201 -0.0461973 0)
(-0.246323 -0.0399024 -1.34706e-19)
(1.26108 -0.0183354 0)
(-0.0558251 -0.034769 1.92542e-19)
(0.278036 -0.0955286 -7.87071e-20)
(1.01144 -0.0206168 0)
(1.02586 -0.0605417 -4.1668e-21)
(-0.247094 -0.0407334 8.99826e-20)
(-0.213601 -0.0449221 -3.83881e-20)
(0.167901 -0.00284991 1.62026e-19)
(-0.249228 -0.0409628 1.03712e-19)
(0.529849 -0.161203 0)
(1.00199 -0.00262431 1.2033e-21)
(1.16269 -0.0471248 -2.58854e-20)
(1.25925 -0.0156468 0)
(1.09402 -0.00823086 3.12249e-20)
(1.238 -0.0983096 0)
(1.27328 0.000626714 -8.74316e-20)
(1.00733 -0.0318668 -2.93098e-21)
(-0.249743 -0.0411804 -1.01864e-19)
(1.01504 -0.0473587 7.22125e-22)
(-0.204938 -0.0344299 3.6176e-20)
(-0.245492 -0.0430909 2.39003e-20)
(-0.275193 -0.0496882 0)
(-0.124901 -0.0418624 5.80533e-20)
(1.1662 -0.0250741 5.0326e-20)
(0.252857 -0.0130909 6.80676e-20)
(1.09044 -0.0241277 1.427e-20)
(-0.212526 -0.0357885 -5.88256e-20)
(1.1484 -0.0486358 0)
(-0.0909965 -0.0174505 -2.97575e-20)
(0.584374 0.0761712 0)
(-0.161741 -0.0291679 0)
(1.27106 -0.129456 0)
(1.02025 -0.00400168 0)
(1.15142 -0.0503205 5.19277e-20)
(1.05162 -0.00108126 1.70406e-20)
(1.27154 -0.000956905 9.29311e-20)
(-0.0400065 -0.035343 -1.58012e-19)
(1.1599 -0.287796 -3.02755e-21)
(-0.180482 -0.0433418 -2.07698e-19)
(1.14207 -0.0649454 1.74302e-20)
(1.08658 -0.0647557 0)
(0.791533 0.114592 8.39753e-21)
(1.26861 -0.165432 9.06242e-20)
(0.933806 -0.293777 0)
(0.947722 -0.106086 -5.73702e-20)
(1.02442 -0.0594236 0)
(0.415865 -0.134465 1.58199e-19)
(0.937326 -0.0536554 1.12306e-21)
(1.26615 -0.0019141 -8.36522e-20)
(1.08269 -0.0422994 1.26412e-20)
(1.00451 -0.0178897 0)
(-0.248788 -0.0460417 0)
(1.10758 -0.13268 -1.84422e-20)
(-0.180933 -0.0385774 4.87147e-20)
(1.06307 -0.0113092 2.39973e-20)
(1.12783 -0.0378889 3.02692e-20)
(0.975922 -0.0332787 3.13671e-20)
(1.06111 -0.00832339 0)
(-0.177283 -0.0317695 0)
(1.07049 -0.0146437 1.80588e-20)
(1.31228 -0.112301 -1.36729e-19)
(0.332231 -0.109653 0)
(1.06366 -0.0133172 -3.02514e-20)
(1.24896 -0.075512 -7.96498e-20)
(1.1226 -0.333685 -3.6746e-21)
(0.687704 -0.563474 1.86274e-20)
(0.965409 -0.046168 5.35452e-21)
(0.625804 -0.0144323 4.91513e-23)
(-0.223234 -0.0449187 -1.30852e-19)
(1.07135 -0.0377833 3.18835e-20)
(-0.262876 -0.0473574 -9.43659e-20)
(1.11257 -0.0803061 0)
(0.659418 0.353872 3.0189e-20)
(1.23053 -0.243555 6.85969e-20)
(1.09182 -0.00733444 -5.12003e-20)
(-0.0351806 -0.0192548 0)
(1.05162 -0.0514107 1.61949e-20)
(1.16512 -0.152483 0)
(1.04416 -0.0971277 -1.68535e-21)
(0.230097 -0.0134661 -1.29616e-19)
(1.08641 -0.120917 2.58755e-20)
(1.01298 -0.0223022 7.80158e-22)
(1.30146 -0.182351 -5.22976e-20)
(1.32937 -0.166035 0)
(1.1774 0.00393769 1.34038e-20)
(-0.176453 -0.0259485 3.7968e-20)
(0.999931 -0.00268631 -2.46525e-20)
(0.497033 0.0221899 -5.74877e-20)
(0.195319 -0.00350827 -9.72967e-20)
(-0.172147 -0.0249286 -1.19408e-19)
(0.419117 -0.0477287 -1.12133e-19)
(0.205521 -0.00427096 -7.5501e-20)
(1.27117 -0.00187902 1.07901e-19)
(-0.0689235 -0.0161755 7.70378e-20)
(-0.255176 -0.0419155 6.88429e-20)
(1.06539 -0.00410661 1.53986e-20)
(0.728289 0.100654 0)
(1.01433 -0.0342201 0)
(1.09194 -0.025426 1.33663e-20)
(1.07586 -0.0153721 -4.18574e-20)
(1.23696 -0.0940277 0)
(0.983463 -0.0430346 1.97336e-20)
(1.26442 -0.00536155 1.08819e-19)
(0.995565 -0.0458385 1.29119e-20)
(1.07733 -0.465548 -2.55994e-20)
(1.0053 -0.0295465 7.37451e-22)
(1.10036 -0.0248847 -1.15729e-20)
(0.903929 -0.402527 0)
(0.988142 -0.0905533 1.52195e-20)
(0.678046 -0.603718 9.52758e-21)
(1.01083 -0.0194368 0)
(0.940706 -0.0543548 0)
(-0.273083 -0.0491298 -4.22277e-20)
(1.00643 -0.0220631 0)
(1.05396 -0.324898 -2.1105e-20)
(0.875023 -0.0801633 -2.79793e-20)
(0.896784 -0.0535551 2.66046e-20)
(0.756596 -0.550807 4.44997e-20)
(0.703726 0.374481 -5.30584e-20)
(1.00469 -0.0204048 -1.87688e-21)
(-0.0131086 -0.00823021 2.42293e-20)
(1.15059 -0.061625 0)
(0.999977 -0.00304668 8.12822e-21)
(-0.262569 -0.0469958 -2.38396e-19)
(0.178261 -0.0044774 1.0862e-19)
(0.730382 -0.541331 -4.79491e-20)
(0.15967 0.00998873 8.22331e-20)
(1.12783 -0.125108 -5.89384e-21)
(0.995951 -0.0445155 -1.19535e-20)
(0.946429 -0.101382 4.52627e-20)
(1.32975 -0.115009 -1.14539e-19)
(0.954265 -0.0483973 -5.06739e-20)
(1.23018 -0.351155 3.47537e-20)
(-0.261708 -0.047797 1.83527e-19)
(0.946378 -0.0904413 1.68131e-20)
(0.967748 -0.0458472 0)
(1.26666 -0.0211056 -1.04768e-19)
(1.10041 -0.0229557 0)
(1.05994 -0.334047 2.34117e-20)
(-0.112687 -0.0307803 7.33174e-20)
(-0.0434503 -0.0089031 0)
(0.970513 -0.0885116 0)
(0.88824 -0.0786499 5.6244e-20)
(1.01772 -0.0340235 -3.46656e-21)
(1.28092 -0.119387 7.83028e-20)
(-0.0880555 -0.0164741 -1.30337e-20)
(-0.2026 -0.039736 0)
(0.99366 -0.017949 0)
(1.15862 -0.15816 5.84233e-20)
(0.836698 -0.559092 0)
(-0.205697 -0.0387539 -1.06826e-20)
(0.0409555 -0.00323051 0)
(1.17322 -0.0474085 -6.21409e-20)
(0.263355 -0.466611 7.65644e-20)
(-0.230124 -0.0451859 0)
(1.03786 -0.103533 -1.08272e-21)
(1.08384 -0.063495 0)
(0.787079 0.164149 0)
(1.00673 -0.0306993 2.74679e-21)
(0.959156 -0.0674534 -2.46225e-20)
(1.00044 -0.00479954 -1.16166e-21)
(1.04113 -0.194705 0)
(-0.242973 -0.0452263 -2.70082e-20)
(0.901082 -0.0435722 -4.95437e-20)
(0.945204 -0.0933523 2.3214e-20)
(1.16278 -0.273327 -2.0933e-21)
(0.214795 -0.415975 -1.08543e-21)
(0.993319 -0.0163249 -1.25035e-20)
(1.02986 -0.0780614 -3.5358e-21)
(-0.226055 -0.0444316 -5.90187e-20)
(1.27488 -0.108632 3.92643e-20)
(1.14707 -0.0619473 -2.3645e-20)
(0.741944 0.118431 -1.19383e-19)
(-0.0539931 -0.0106407 2.2609e-20)
(-0.0964998 -0.0293132 -6.74902e-20)
(1.06563 -0.0344636 0)
(1.01546 -0.04935 0)
(0.391202 0.0493795 7.60713e-21)
(-0.249782 -0.042824 -1.20318e-19)
(1.0312 -0.00452538 1.91245e-20)
(1.26899 -0.0872138 2.93179e-20)
(1.01282 -0.00181366 -2.95761e-22)
(1.06181 -0.0103061 -1.32318e-20)
(-0.252841 -0.0432002 1.01135e-19)
(1.30659 -0.172708 -2.63651e-20)
(0.994427 -0.0236454 1.16581e-20)
(1.30365 -0.330793 8.54736e-20)
(0.727637 0.0915383 0)
(1.29252 -0.201985 -1.13107e-19)
(0.61251 -0.174288 -4.10786e-20)
(0.542059 -0.0675059 2.69041e-20)
(-0.260495 -0.0467895 2.36247e-19)
(1.2509 -0.0792423 9.84901e-20)
(1.00196 -0.0266354 0)
(1.05736 -0.203454 1.97644e-20)
(1.00142 -0.0260574 0)
(0.0271018 -0.00486926 4.54907e-20)
(-0.165855 -0.0412653 -1.55459e-19)
(0.418773 -0.079684 6.9501e-20)
(-0.0134913 -0.0168741 0)
(0.974301 -0.0334226 -4.05477e-20)
(-0.270196 -0.0475408 0)
(0.954088 -0.0261743 0)
(0.991209 -0.0919265 5.52338e-21)
(-0.279236 -0.0481275 2.60213e-20)
(-0.032399 -0.0361623 2.21525e-20)
(1.08238 -0.0387595 -1.44476e-20)
(-0.246401 -0.0435109 1.21056e-19)
(-0.152375 -0.031753 -3.6129e-23)
(-0.272846 -0.0478639 -2.26571e-20)
(-0.245704 -0.0435287 0)
(-0.161462 -0.0233459 0)
(0.581694 -0.175687 0)
(1.00154 -0.00913599 -4.69215e-22)
(0.994089 -0.0155112 -1.22121e-20)
(0.0925334 -0.0161486 -1.1695e-19)
(0.954547 -0.027775 2.78815e-20)
(-0.066714 -0.0411307 -7.86193e-20)
(-0.262347 -0.0470812 -1.72192e-19)
(0.884273 0.132653 -1.49652e-20)
(0.668751 0.111611 1.10372e-20)
(1.11506 -0.329254 -4.85519e-23)
(-0.266939 -0.0481235 -4.57852e-20)
(0.985186 -0.0424687 0)
(1.16407 -0.157659 2.57126e-20)
(1.0017 -0.061728 0)
(0.714087 -0.0244778 -2.89886e-20)
(1.06676 -0.00468573 6.29587e-23)
(0.987276 -0.188707 1.12098e-20)
(1.01662 -0.0335255 2.98038e-21)
(-0.239 -0.0441452 -1.68888e-19)
(1.06553 -0.0313609 4.87568e-23)
(1.2032 -0.0356174 -9.78201e-20)
(1.15716 -0.162589 -8.35214e-20)
(-0.229859 -0.0428921 -5.42961e-20)
(0.466719 0.0176385 -6.36507e-20)
(1.22974 -0.344521 0)
(1.1117 -0.041303 -2.27417e-20)
(1.12569 -0.0334677 1.52056e-20)
(-0.200782 -0.0375281 0)
(0.93761 -0.415016 0)
(1.10345 -0.399981 3.2412e-21)
(1.05315 -0.0553911 -1.52015e-20)
(1.03203 -0.0793521 5.5166e-22)
(0.999792 -0.00363975 6.88569e-21)
(-0.227329 -0.0452413 7.76496e-20)
(1.0318 -0.278361 0)
(1.00529 -0.0283536 1.3942e-21)
(1.01865 -0.00264598 -1.2737e-20)
(0.969997 -0.0913893 0)
(0.992977 -0.0134495 1.60715e-20)
(0.960829 -0.0700653 2.80811e-20)
(-0.275652 -0.047452 0)
(1.32119 -0.143179 0)
(0.629981 0.104495 6.5492e-22)
(0.300206 -0.0191465 0)
(0.947643 -0.454718 0)
(-0.246685 -0.0444294 0)
(1.03749 -0.0442495 4.02758e-21)
(1.18086 0.00291315 0)
(1.20807 -0.0225726 0)
(0.18153 0.0107959 -3.74387e-20)
(-0.240634 -0.0451829 9.33422e-20)
(1.32778 -0.140563 3.01065e-20)
(1.02282 -0.002303 0)
(0.994806 -0.167635 0)
(1.27287 -0.157016 5.35463e-21)
(0.877216 0.271948 3.22927e-20)
(1.1904 -0.181098 -1.72475e-20)
(0.293773 -0.0236218 0)
(1.15347 -0.0948897 0)
(-0.263195 -0.0472948 1.18411e-19)
(1.03334 -0.0117375 0)
(-0.159576 -0.0406897 9.60655e-20)
(1.06841 -0.00606433 -9.75268e-21)
(-0.245097 -0.0430126 0)
(-0.000687122 -0.0067796 8.81117e-20)
(1.06893 -0.00698302 2.12854e-20)
(1.19636 -0.179047 -3.65194e-20)
(-0.133262 -0.0421446 -6.377e-20)
(-0.248958 -0.0442945 0)
(1.07641 -0.124668 -5.76065e-21)
(1.01429 -0.0368374 0)
(-0.277436 -0.0483306 0)
(1.00747 -0.0170953 -8.33857e-22)
(1.05161 -0.0343677 1.45067e-20)
(-0.205829 -0.0378485 -8.46655e-20)
(1.1275 -0.0402162 0)
(1.01849 -0.0588021 3.62143e-22)
(1.02145 -0.0591108 -4.36353e-23)
(-0.124282 -0.035993 0)
(-0.2515 -0.0458713 -1.20836e-19)
(1.02294 -0.0604238 0)
(-0.249561 -0.0439053 -7.97207e-20)
(1.16509 -0.056368 0)
(0.696801 -0.0663915 -3.77329e-20)
(-0.239001 -0.0442817 5.38427e-20)
(-0.250278 -0.0447433 -2.77195e-20)
(0.241733 -0.0534991 1.19716e-19)
(1.28592 -0.0699907 0)
(0.113582 -0.0295273 9.2426e-21)
(1.24286 -0.0717851 8.66071e-20)
(0.749563 -0.891458 0)
(0.0827827 -0.0629654 2.0178e-19)
(0.6539 -0.0813134 2.58173e-20)
(1.25486 -0.0159945 -8.53874e-20)
(0.830128 -0.237135 -2.99291e-20)
(1.26007 -0.299795 4.60051e-20)
(1.00015 -0.0620648 1.11152e-20)
(1.0519 -0.0499032 0)
(1.16895 -0.0265124 -1.95627e-20)
(0.962161 -0.438336 -1.05923e-21)
(0.700084 -0.0163065 0)
(0.0908009 -0.0306351 0)
(1.22616 -0.230219 -4.85971e-20)
(1.00679 -0.0144993 3.02906e-22)
(1.28389 -0.238747 -7.4338e-20)
(0.990317 -0.0157644 -1.52551e-20)
(1.28332 -0.105253 9.30892e-21)
(1.20262 -0.170971 1.16183e-20)
(1.1803 -0.0559849 3.36332e-20)
(0.969283 0.175312 -5.43891e-21)
(-0.224921 -0.0419286 -8.49327e-20)
(0.837737 -0.0379562 -1.64111e-19)
(-0.0227792 -0.00658554 8.72236e-20)
(0.707832 -0.683827 -1.01474e-20)
(0.45693 -1.13806 0)
(1.03608 -0.0442964 -3.62435e-21)
(1.00186 -0.00625459 9.44438e-23)
(0.489972 -0.0580496 1.08081e-19)
(-0.272679 -0.0479631 -1.17331e-20)
(-0.165766 -0.0416179 9.03503e-20)
(1.152 -0.116362 2.5492e-20)
(-0.0741281 -0.0456464 -2.36814e-19)
(1.12312 -0.0318506 -2.79903e-20)
(-0.202008 -0.039535 -1.15228e-19)
(-0.242813 -0.0448502 1.31101e-19)
(0.740677 0.151067 0)
(1.05068 -0.0334683 0)
(-0.164468 -0.0258884 0)
(-0.245144 -0.0392146 4.98904e-20)
(1.00662 -0.0233285 5.92814e-22)
(1.00219 -0.00701113 -9.14204e-23)
(0.0768509 0.26461 1.55173e-19)
(1.02973 -0.0101241 -1.07517e-20)
(0.996413 0.188978 1.1343e-20)
(1.12468 -0.45458 0)
(1.00165 -0.00260441 -1.19291e-21)
(1.08532 -0.177066 4.50751e-21)
(1.1022 -0.126005 -2.94662e-20)
(1.04214 -0.224324 1.3787e-20)
(0.886086 -0.00468762 7.71909e-20)
(1.27666 -0.0766777 -6.62931e-20)
(0.259 -0.0169976 0)
(1.03772 -0.20993 3.65622e-21)
(-0.200784 -0.0376012 7.9706e-20)
(1.01162 -0.0252231 3.95449e-22)
(0.99853 -0.16397 -7.8817e-21)
(1.00908 0.29888 1.13057e-21)
(0.613975 -0.235676 0)
(1.23171 -0.235722 -9.04857e-20)
(-0.190616 -0.0330246 6.81493e-21)
(1.07758 -0.0820999 3.25732e-20)
(1.04379 -0.208148 -2.19604e-21)
(-0.0354138 -0.0117284 0)
(1.20128 -0.0334391 1.10741e-19)
(-0.0291127 -0.00522014 0)
(0.625349 0.102376 -7.45877e-22)
(1.29101 -0.228404 -1.03746e-19)
(-0.270419 -0.0475681 -4.96972e-20)
(-0.157698 -0.0253754 0)
(-0.242265 -0.0452803 0)
(1.01192 -0.0244627 -3.57356e-22)
(1.26882 -0.15836 0)
(1.12946 -0.12176 0)
(0.760928 0.136295 -4.35584e-20)
(-0.158695 -0.040731 -7.86048e-20)
(1.13987 -0.062054 -2.3042e-20)
(1.08927 -0.0990916 -1.2792e-20)
(0.994634 -0.0111407 0)
(0.668154 -0.701793 9.86465e-21)
(1.27603 -0.099959 8.52509e-20)
(1.27167 -0.106377 -1.72993e-20)
(1 -0.00119679 -4.81078e-21)
(1.2962 -0.184874 3.02815e-20)
(1.0613 -0.0346135 0)
(1.27146 -0.0907256 0)
(0.176146 -0.0547031 1.61324e-19)
(-0.187354 -0.0392584 0)
(1.14776 -0.0138288 -2.08979e-20)
(0.977526 -0.0389261 7.41042e-21)
(0.57241 0.0171238 -6.36662e-20)
(1.1144 -0.406384 -1.85209e-20)
(0.831211 -0.00596485 -2.86782e-20)
(-0.223002 -0.0425061 9.2087e-20)
(1.09804 -0.124565 0)
(-0.0511365 -0.0358427 0)
(-0.242802 -0.0455027 -2.57806e-20)
(1.06221 -0.00921134 -1.92306e-22)
(1.05164 -0.00148702 -2.76581e-20)
(1.01202 -0.00222945 -2.4042e-21)
(-0.233857 -0.0445804 0)
(0.0428958 -0.0178477 8.92837e-20)
(-0.263498 -0.047706 1.44693e-19)
(0.2903 -0.458762 -1.92048e-19)
(-0.203871 -0.0408955 2.6282e-20)
(-0.225018 -0.0421261 0)
(0.840944 -0.236218 2.99678e-20)
(1.29763 -0.226361 1.19224e-19)
(1.04147 -0.0973145 0)
(-0.0541612 -0.0405942 9.34753e-20)
(1.22263 -0.00815895 3.52103e-20)
(0.61586 -0.383679 -1.51354e-19)
(1.11908 -0.0493073 -4.17263e-20)
(0.753107 0.145439 0)
(1.04774 -0.0350142 5.27179e-21)
(0.405978 -0.0746175 -7.35054e-20)
(0.759433 0.44086 2.50093e-20)
(-0.0438106 -0.00940237 0)
(0.135573 -0.0572069 9.60601e-20)
(1.00191 -0.0132711 -5.16288e-21)
(1.02875 -0.0105003 0)
(-0.0991977 -0.0185258 -3.12961e-20)
(-0.207938 -0.0382956 -5.39649e-20)
(1.07161 -0.03458 1.08557e-20)
(1.18111 -0.15122 -1.69525e-20)
(-0.224261 -0.0446732 6.6056e-20)
(1.29581 -0.0643754 4.7445e-20)
(1.13118 -0.0851518 -4.77755e-20)
(0.900816 -0.0542964 1.60287e-21)
(1.29832 -0.0666657 -3.2335e-21)
(1.11916 -0.119055 -1.93819e-20)
(0.985556 -0.0403713 -1.86341e-20)
(-0.233792 -0.045394 -6.92966e-20)
(-0.27217 -0.046756 0)
(0.240885 -0.01075 -1.27006e-19)
(1.17942 -0.0591553 0)
(1.08386 -0.040542 3.00203e-20)
(-0.218401 -0.0449619 6.00793e-20)
(1.04569 -0.200056 -8.13008e-21)
(1.23841 -0.0708626 0)
(1.16635 -0.0218692 0)
(-0.273042 -0.0481562 1.03409e-19)
(1.05299 -0.0260862 9.78676e-21)
(1.00475 -0.0190552 -6.76463e-22)
(1.00169 -0.0100964 -8.10257e-23)
(1.00181 -0.0320585 -1.5606e-21)
(-0.255342 -0.0427821 -2.41737e-20)
(1.22781 -0.274971 0)
(0.414568 0.0175146 -8.57263e-20)
(-0.202448 -0.0411803 0)
(0.503318 0.0175376 1.3877e-19)
(-0.0592458 -0.0449912 2.44131e-19)
(-0.0535384 -0.0102627 0)
(-0.0388767 -0.012928 0)
(1.07133 -0.018381 9.00768e-21)
(1.14683 -0.0113903 0)
(0.822856 -0.0525782 4.69301e-20)
(-0.203768 -0.0445786 -1.2996e-19)
(0.99524 -0.0147036 0)
(1.23495 -0.273066 0)
(0.919622 -0.0153483 4.69721e-20)
(0.142761 -0.0534261 -1.78931e-19)
(1.20274 -0.0382384 -4.32806e-20)
(1.25437 -0.00966054 0)
(1.09684 -0.443917 -3.46198e-20)
(-0.277606 -0.0485092 2.38559e-19)
(1.00393 0.288472 0)
(0.146426 -0.0389209 1.45747e-19)
(-0.265323 -0.0469225 -1.10949e-19)
(0.0427299 -0.0403089 -1.7938e-19)
(1.18547 -0.0115013 -2.13903e-20)
(-0.257236 -0.042356 -1.99236e-20)
(1.05363 -0.053722 1.00532e-22)
(0.989737 -0.0153269 -1.75895e-20)
(0.318309 -0.0230952 0)
(0.994004 -0.0116895 -2.95397e-20)
(1.08013 -0.0820439 0)
(1.18661 -0.0093978 4.2421e-20)
(1.17891 -0.0696447 -7.84055e-20)
(1.09079 -0.476219 2.2218e-20)
(1.04352 -0.0191042 1.62713e-20)
(0.989914 -0.0168982 3.37534e-20)
(1.30482 -0.320969 -2.54384e-20)
(1.00247 -0.0591954 9.19381e-21)
(-0.271788 -0.0477847 -4.52161e-20)
(-0.229449 -0.0431776 1.30926e-19)
(-0.225878 -0.0448164 1.50541e-19)
(-0.226572 -0.0427664 -9.08371e-20)
(1.05539 -0.210228 -1.89013e-20)
(-0.191756 -0.0383035 1.03351e-19)
(0.859935 -0.0134111 2.21602e-20)
(-0.0475348 -0.00727027 0)
(1.06446 -0.0326719 2.26777e-20)
(1.30016 -0.17484 4.99693e-20)
(0.855465 -0.25317 -1.24568e-20)
(1.05139 -0.0254512 -1.45414e-20)
(1.07258 -0.0368834 -1.26161e-20)
(1.14568 -0.0650337 -2.52542e-20)
(0.858841 -0.0196854 0)
(1.04483 -0.0197145 -2.7406e-20)
(-0.0941513 -0.0123006 -4.38399e-20)
(0.10323 0.21802 3.55052e-21)
(1.11479 -0.117254 6.31873e-20)
(-0.23813 -0.0458234 7.09426e-20)
(1.30303 0.00323952 3.79621e-20)
(1.07324 -0.0105655 0)
(0.929819 -0.146985 7.41521e-20)
(1.27553 -0.193121 5.93417e-22)
(-0.241183 -0.0457302 0)
(1.0744 -0.0129077 -3.96998e-20)
(1.12251 -0.233108 0)
(1.14109 -0.0216932 -1.7741e-20)
(0.045152 -0.0406203 -9.49991e-20)
(1.06214 -0.0320779 -1.39385e-20)
(1.04624 -0.0178079 -1.78723e-20)
(6.71713e-05 -0.00729051 0)
(-0.250266 -0.0448417 0)
(-0.256736 -0.0419618 -2.09249e-20)
(0.728184 0.075052 -1.79418e-20)
(1.0017 -0.00661966 0)
(0.99906 -0.038379 0)
(0.623376 -0.115024 -6.34477e-20)
(-0.256753 -0.0446332 0)
(0.99074 -0.0421788 0)
(1.02208 -0.00983484 -4.10839e-21)
(0.994621 -0.0156661 0)
(0.971753 -0.113795 2.89908e-20)
(0.978547 -0.036931 -2.11028e-20)
(0.125962 -0.00387722 0)
(1.00258 -0.0268466 -8.28774e-21)
(0.508753 -0.930435 -4.4591e-21)
(0.340444 0.0154941 3.63121e-20)
(0.406902 -0.166767 -5.55547e-20)
(1.06253 -0.0123915 1.38278e-20)
(-0.252869 -0.0453561 5.39641e-20)
(-0.186697 -0.0378143 -7.98428e-20)
(0.955743 -0.0622449 2.9622e-20)
(1.11555 -0.286505 9.20934e-21)
(0.981654 -0.0656702 0)
(-0.225713 -0.0443249 1.18974e-19)
(1.08187 -0.238986 0)
(1.01223 -0.0344871 -1.31818e-21)
(1.00458 -0.0269972 -6.32635e-21)
(0.999254 -0.036756 -4.55748e-21)
(-0.247111 -0.0441282 0)
(0.53248 -0.385959 -8.99254e-20)
(0.213618 -0.0051411 9.4342e-20)
(0.987101 -0.0397556 -3.93116e-21)
(1.04696 -0.0191296 1.06437e-20)
(1.20906 -0.0256715 2.85446e-20)
(1.18357 0.00409769 -5.19266e-20)
(1.12801 -0.0848358 4.8809e-20)
(0.108247 -0.00489393 -5.33848e-20)
(-0.254686 -0.0417014 1.93373e-20)
(1.04947 -0.0361828 0)
(1.00903 -0.0241927 -5.632e-23)
(1.16264 -0.0204091 7.682e-20)
(-0.01199 -0.0078761 -8.43327e-20)
(1.21687 -0.104517 7.82719e-20)
(1.16633 -0.0461069 0)
(1.00163 -0.00676885 1.11163e-21)
(1.29357 -0.315703 6.27464e-20)
(1.0697 -0.235588 -9.11751e-22)
(1.00859 -0.0246407 2.39514e-22)
(1.04647 -0.0105686 0)
(1.29922 0.00164284 -6.59881e-20)
(1.0667 -0.344543 -4.12947e-21)
(0.994348 -0.0226267 7.37547e-21)
(0.72887 -0.229868 0)
(1.30813 -0.186359 0)
(1.00781 -0.0237958 -1.45541e-21)
(0.775279 -0.0522931 0)
(-0.276945 -0.0487123 -2.10046e-19)
(1.07371 -0.0097218 1.1519e-20)
(0.982088 -0.121859 -1.02621e-20)
(1.00649 -0.0730922 0)
(1.17052 -0.0415313 2.96509e-20)
(0.0239821 -0.0409812 1.30568e-20)
(0.19939 -0.0608923 1.63455e-19)
(1.27204 0.00275789 -6.57765e-20)
(1.00973 -0.0249128 -2.4648e-22)
(-0.22962 -0.0447943 -6.53515e-20)
(-0.248353 -0.040269 6.35489e-20)
(0.543336 -0.151553 7.68764e-20)
(0.0127259 -0.0195137 -1.81854e-20)
(1.02759 -0.270151 0)
(0.982993 -0.0218815 1.75331e-20)
(1.1236 -0.0292197 0)
(0.645438 0.109204 -1.06557e-20)
(1.02148 -0.00401041 7.49365e-21)
(1.07292 -0.0339379 1.31773e-20)
(-0.0356817 -0.0122378 2.62788e-20)
(-0.0947145 -0.041483 -5.38024e-20)
(1.11367 -0.0432101 2.75712e-20)
(1.00464 -0.0735567 0)
(0.664211 -0.542763 -3.03052e-21)
(0.212754 -0.0251028 0)
(1.00942 -0.0176843 1.3861e-21)
(1.02136 -0.00893158 0)
(1.04844 -0.151254 0)
(-0.249533 -0.0456031 9.77278e-20)
(-0.184077 -0.0433671 0)
(0.858882 -0.839408 3.69566e-20)
(0.656758 0.312767 9.1941e-20)
(0.00974074 -0.0221081 -1.90502e-20)
(0.868562 -0.144897 0)
(-0.275528 -0.0493939 2.45684e-20)
(1.22104 -0.0111863 3.66029e-20)
(1.03404 -0.0426669 3.70663e-21)
(1.14405 -0.020758 -5.30351e-21)
(-0.250185 -0.0430044 0)
(1.01207 -0.0336061 6.00315e-22)
(-0.252875 -0.0434498 0)
(1.11033 -0.129951 0)
(-0.141014 -0.0303317 -3.92926e-20)
(-0.265652 -0.0446749 0)
(0.853455 -0.243941 3.62036e-20)
(0.883062 -0.0545087 -8.74751e-20)
(0.983689 -0.0654168 0)
(1.07773 -0.2346 0)
(0.119025 0.000554219 -4.66255e-20)
(1.30238 0.00815842 0)
(-0.196742 -0.0328644 -7.03837e-21)
(0.280489 -0.0390534 0)
(0.0264113 -0.0218355 -1.70894e-20)
(0.237006 -0.0472433 -1.8334e-20)
(1.00803 -0.162217 -2.59552e-21)
(1.27971 -0.307716 6.9891e-20)
(-0.139655 -0.0290202 -4.43897e-20)
(-0.0935822 -0.0345452 -1.72146e-19)
(0.46403 0.0222108 -3.33277e-20)
(1.03582 -0.0315269 1.50918e-20)
(1.27653 -0.310762 0)
(0.275478 -0.0207551 0)
(1.29116 -0.236862 1.37258e-19)
(0.240783 -0.0245211 1.19902e-19)
(1.12098 -0.0275554 -1.33103e-20)
(0.914044 -0.284434 0)
(1.01336 -0.0243107 -2.69092e-21)
(0.91119 -0.0662795 -5.41716e-22)
(-0.243675 -0.0379207 -9.19396e-20)
(-0.249813 -0.0423727 -7.6586e-20)
(-0.247749 -0.041032 2.34879e-20)
(1.07416 -0.0294608 0)
(0.968847 -0.0483416 -1.77908e-20)
(-0.252683 -0.0431944 1.32564e-19)
(-0.246909 -0.0441014 5.24697e-20)
(1.28388 -0.0733715 0)
(0.759832 -0.578192 0)
(-0.266285 -0.0485139 3.1555e-20)
(0.970984 -0.110835 -1.31318e-20)
(0.122281 -0.00342607 0)
(1.05354 -0.0774956 2.18568e-20)
(0.939729 -0.046875 -4.3915e-20)
(0.833523 0.122534 -3.66245e-21)
(-0.155777 -0.0256648 3.21664e-20)
(0.167831 -0.0379643 -3.23925e-22)
(1.02591 -0.0213219 5.94154e-21)
(1.03395 -0.0775566 0)
(-0.111108 -0.0375713 0)
(1.00027 -0.00261817 2.32819e-22)
(1.03298 -0.0303558 -7.91243e-21)
(1.04552 -0.010081 0)
(1.0723 -0.0144396 -1.91811e-20)
(0.766177 -0.221487 0)
(0.699992 -0.0490095 -9.94146e-20)
(0.978463 -0.123659 -1.1756e-20)
(1.00533 -0.0213875 -1.87218e-21)
(1.01235 -0.0481256 0)
(1.05066 -0.0239293 3.15572e-20)
(0.999991 -0.00228386 -1.60363e-20)
(1.00009 -0.00214741 1.63355e-21)
(0.938942 -0.0450661 -2.77997e-20)
(-0.0640007 -0.0447004 -1.30987e-20)
(1.30994 -0.0326026 1.65585e-21)
(-0.176447 -0.0436355 9.58365e-20)
(-0.198428 -0.0403623 -1.05271e-19)
(-0.228818 -0.0449966 -3.5409e-20)
(1.09928 -0.429858 3.37968e-20)
(1.04378 -0.187536 -1.72283e-21)
(1.02 -0.0603534 4.85218e-22)
(1.05009 -0.105325 0)
(0.752203 -0.219765 -8.49472e-20)
(-0.273307 -0.0488338 0)
(1.13232 -0.0284722 6.61374e-20)
(-0.246779 -0.0444403 -1.03923e-19)
(0.814989 0.0114971 -6.91965e-20)
(1.14407 -0.0170789 4.01188e-20)
(1.28039 -0.326481 1.70706e-19)
(0.827156 0.0211719 9.32166e-20)
(-0.276782 -0.0486555 -2.42966e-20)
(-0.134121 -0.028265 0)
(1.0315 -0.0406727 0)
(0.366311 -0.0637797 0)
(1.0064 -0.0249129 -2.68307e-21)
(-0.249988 -0.0448532 1.21399e-19)
(-0.25033 -0.0415499 1.32459e-20)
(1.28102 -0.101476 1.80935e-20)
(0.707035 0.153305 2.03703e-19)
(-0.245394 -0.0432039 0)
(-0.248524 -0.043608 0)
(1.1747 -0.156221 0)
(1.01332 -0.0492744 2.10784e-21)
(-0.27903 -0.049718 2.58093e-20)
(-0.0822483 -0.0428721 2.81893e-20)
(-0.230476 -0.0449089 -1.54667e-19)
(0.941412 -0.0580233 -3.79234e-20)
(-0.249363 -0.0421495 -9.61449e-20)
(0.334654 -0.0430406 0)
(0.987459 -0.0379325 1.3137e-20)
(0.424279 0.0904953 0)
(1.30759 -0.0308021 2.293e-20)
(1.02529 -0.011109 3.06217e-21)
(1.06398 -0.231187 1.13607e-20)
(-0.205236 -0.0447275 3.62011e-20)
(1.29539 -0.0578035 4.56114e-21)
(1.07965 -0.121282 -1.21148e-20)
(0.0278377 -0.0139308 3.30318e-20)
(1.00728 -0.0155287 0)
(0.683318 0.0899262 -1.4924e-20)
(-0.277522 -0.04928 0)
(-0.101491 -0.0137147 0)
(0.470557 -0.0584885 0)
(0.882035 -0.805684 -4.81317e-20)
(-0.173596 -0.0430183 -3.76047e-20)
(1.32321 -0.175187 -5.42812e-20)
(0.902483 -0.529807 -5.88384e-21)
(1.25078 -0.247821 -5.12636e-20)
(0.216493 -0.0122707 9.64953e-20)
(0.752348 -0.189704 -4.91289e-20)
(1.23679 -0.0668582 0)
(1.26213 -0.131412 -3.19628e-20)
(1.06439 -0.0296451 -1.78923e-20)
(-0.205528 -0.036843 2.15407e-20)
(0.880066 -0.00123824 0)
(1.02609 -0.010826 -1.83828e-22)
(-0.257225 -0.0452479 0)
(-0.0963708 -0.0385359 0)
(-0.172634 -0.0421061 -4.47068e-20)
(0.229044 -0.0223601 -1.2405e-19)
(1.03593 -0.0786673 0)
(1.05247 -0.198289 8.7049e-21)
(-0.2664 -0.0494297 -3.03262e-20)
(-0.0918685 -0.0168855 4.99681e-20)
(0.756848 -0.30861 1.32812e-20)
(-0.222278 -0.0414456 1.33892e-20)
(1.19932 -0.13226 -7.33304e-20)
(0.431026 0.0511652 -1.08096e-20)
(0.913702 -0.0687843 -5.1688e-20)
(-0.264791 -0.0504464 0)
(0.902871 -0.0383293 -8.06528e-20)
(-0.195676 -0.0254647 7.66986e-20)
(0.817551 0.0183873 1.12601e-21)
(-0.273797 -0.0472319 -9.57488e-20)
(1.27901 -0.0731496 0)
(0.944585 -0.0585013 3.55885e-20)
(1.13575 -0.230211 -3.3802e-21)
(1.03307 -0.0417217 -6.58961e-21)
(1.2472 -0.0980439 -2.96121e-21)
(0.247706 -0.034823 0)
(0.405068 -0.241216 -2.50461e-19)
(0.298291 -0.0345331 6.31481e-20)
(-0.185947 -0.0391921 -5.05595e-20)
(1.27826 -0.12255 -4.37267e-20)
(-0.0725343 -0.0441354 -6.38943e-21)
(0.922529 -0.0792461 0)
(-0.0474612 -0.0120841 0)
(1.01706 -0.584091 -6.90337e-20)
(-0.268744 -0.0467214 4.39626e-20)
(1.07684 -0.00610695 2.31197e-20)
(0.875338 -0.140336 6.35633e-20)
(1.25913 -0.134611 6.61392e-20)
(-0.277017 -0.0480666 0)
(1.04447 -0.0940061 1.72129e-21)
(0.28349 -0.0448113 3.53145e-20)
(0.458926 0.110781 0)
(1.0241 -0.0105205 -1.55445e-20)
(1.20749 -0.174392 -6.42634e-20)
(0.96057 -0.0661881 1.59987e-19)
(1.27901 -0.0803614 -1.72227e-20)
(0.408136 -0.102973 -6.01024e-20)
(-0.224131 -0.0411771 0)
(-0.208384 -0.0449181 1.59569e-19)
(0.971089 -0.0480003 4.30252e-20)
(-0.0958999 -0.0151946 5.44566e-20)
(1.13629 -0.0620611 -2.06672e-20)
(1.02762 -0.0191756 5.86108e-21)
(1.18004 -0.176326 -3.21915e-20)
(1.0761 -0.0140888 3.42966e-20)
(0.978668 -0.154833 -1.39116e-20)
(1.0744 -0.0857656 1.49916e-20)
(-0.248047 -0.0412883 0)
(1.15197 -0.0536259 -6.13853e-20)
(-0.066546 -0.0143465 -2.43144e-20)
(1.07567 -0.0310373 0)
(1.02336 -0.00995893 9.28131e-21)
(1.03175 -0.0305366 3.80314e-21)
(1.04153 -0.0334977 9.57189e-21)
(-0.196217 -0.035358 -1.07969e-19)
(-0.20375 -0.036525 -7.81415e-20)
(0.607718 0.017922 1.30043e-19)
(-0.0981148 -0.0177596 4.65802e-20)
(-0.199212 -0.0357149 3.95727e-20)
(0.753485 -0.0447523 -4.90319e-20)
(1.15923 -0.215244 0)
(0.232585 -0.00856446 0)
(0.15205 -0.0529565 -1.98207e-19)
(0.161471 0.00945447 -1.75162e-20)
(-0.276915 -0.0488165 -4.61608e-20)
(1.29322 -0.324427 -7.48305e-20)
(-0.200813 -0.0363547 0)
(0.909204 -0.20198 -2.78999e-20)
(0.980145 -0.0367813 0)
(1.03668 -0.056313 7.20663e-21)
(1.01083 -0.0479353 0)
(0.917438 -0.389303 0)
(1.25302 -0.0470611 -8.98329e-20)
(1.07015 -0.0158517 0)
(1.21969 0.00931093 0)
(1.19646 -0.13428 8.52528e-22)
(0.770683 -0.300372 0)
(-0.116906 -0.0356852 5.16964e-21)
(1.07478 -0.0118496 0)
(1.00027 -0.00276196 9.33153e-22)
(1.24592 -0.0928528 -9.2014e-20)
(-0.268489 -0.045407 0)
(-0.11908 -0.029809 -8.96731e-20)
(1.16202 -0.0503948 -2.81203e-20)
(-0.162564 -0.0423796 0)
(1.01795 -0.00183783 1.31665e-20)
(1.27253 -0.102434 -1.04163e-19)
(1.00323 -0.0710739 0)
(1.04718 -0.102491 0)
(1.00301 -0.0269035 2.18568e-21)
(1.08527 -0.0898778 -1.93578e-20)
(1.17771 -0.146191 1.43818e-20)
(0.996722 -0.0496493 1.90082e-21)
(0.150892 0.00363683 0)
(-0.246262 -0.0435469 -1.09462e-19)
(0.834039 -0.00025466 -6.79961e-20)
(1.01056 -0.0245356 0)
(0.886379 -0.39657 0)
(-0.151351 -0.0422134 0)
(1.06697 -0.00576717 -8.13156e-21)
(0.995911 -0.0097295 -1.24043e-20)
(0.723581 -0.200705 0)
(0.112354 -0.0275316 0)
(-0.276692 -0.0498551 -1.64516e-19)
(0.989313 -0.122991 -7.54363e-21)
(0.770936 0.482353 1.69885e-20)
(-0.162587 -0.0263313 0)
(1.17971 -0.523102 -1.12706e-20)
(1.01947 -0.0047826 0)
(0.992495 -0.0132163 -3.0287e-23)
(0.0671266 -0.0444387 0)
(1.31398 -0.178043 -3.06084e-20)
(-0.224697 -0.0450687 2.53387e-23)
(0.923812 -0.148613 -4.26451e-20)
(-0.0230203 -0.00762906 0)
(1.29911 0.0061303 4.17336e-20)
(1.24898 -0.0901585 1.27947e-19)
(1.05974 -0.00854082 -1.95212e-20)
(1.2053 -0.435717 3.88063e-20)
(-0.134093 -0.0262789 6.9751e-20)
(0.872311 -0.016187 -1.85116e-19)
(0.647542 -0.0216906 4.96274e-20)
(-0.113074 -0.0290536 4.00626e-20)