/*--------------------------------*- C++ -*----------------------------------*\
| =========                 |                                                 |
| \\      /  F ield         | OpenFOAM: The Open Source CFD Toolbox           |
|  \\    /   O peration     | Version:  v2012                                 |
|   \\  /    A nd           | Website:  www.openfoam.com                      |
|    \\/     M anipulation  |                                                 |
\*---------------------------------------------------------------------------*/
FoamFile
{
    version     2.0;
    format      ascii;
    class       surfaceScalarField;
    location    "150";
    object      ddtCorrDdt0(phi);
}
// * * * * * * * * * * * * * * * * * * * * * * * * * * * * * * * * * * * * * //

dimensions      [0 3 -2 0 0 0 0];
oriented        oriented;


internalField   nonuniform List<scalar> 
21222
(
0.000257996
-0.000399376
0.000141385
4.95997e-05
-0.000184006
0.000134407
4.65687e-06
-5.08063e-06
4.23666e-07
-1.21348e-05
1.14847e-05
6.54569e-07
-2.332e-05
3.24016e-06
2.00667e-05
4.77941e-07
2.48487e-06
-2.96286e-06
6.13997e-05
-3.35759e-05
-2.78228e-05
-6.24188e-06
1.39891e-06
4.84362e-06
-1.06368e-06
-6.39371e-06
7.45747e-06
9.66117e-07
3.04843e-06
-4.01427e-06
-5.23512e-05
-3.38549e-05
8.62102e-05
4.379e-05
-1.94603e-05
-2.43319e-05
0.00011627
0.000141728
-4.37707e-07
-1.18897e-06
1.62624e-06
3.17076e-05
-4.53667e-05
1.36583e-05
2.00049e-07
-5.86408e-07
3.86403e-07
-1.09838e-06
-5.14314e-06
-1.46977e-06
2.32176e-06
-8.51764e-07
1.12632e-05
-1.17431e-05
4.79351e-07
1.01862e-05
1.07741e-06
8.64987e-07
-2.81478e-06
1.94999e-06
-0.000200506
-0.000110225
0.000310698
1.22077e-05
-1.54482e-06
-1.06636e-05
2.92041e-05
1.45803e-05
3.34219e-06
-2.78288e-06
-5.63248e-07
-6.89717e-05
0.000118572
1.79407e-06
1.54379e-06
-3.33742e-06
2.74178e-05
3.3982e-05
8.28923e-07
4.62188e-06
-5.45089e-06
-4.83669e-05
3.04825e-05
1.78855e-05
-1.11222e-05
5.09117e-06
6.03098e-06
3.82483e-06
-1.53157e-06
-2.29328e-06
1.01751e-06
1.0107e-06
-2.02926e-06
0.000194292
-0.000397916
0.000203638
0.000105311
1.83678e-05
-0.00012365
0.000231792
-7.24901e-05
-0.000159294
9.37222e-05
0.00015211
-0.000245829
-4.96059e-06
5.95445e-06
-9.9345e-07
8.08249e-05
2.13301e-07
-8.10385e-05
1.02916e-05
-5.45326e-06
-4.8402e-06
-4.17811e-05
4.17831e-05
0.000161544
-0.000170694
9.11602e-06
-3.71999e-06
-9.76844e-07
4.69864e-06
4.97087e-08
9.31839e-08
-1.43448e-07
1.22985e-06
-7.51066e-06
6.28179e-06
-1.14266e-06
4.4784e-06
-9.00157e-06
1.88491e-05
-9.84825e-06
1.33347e-05
1.69485e-06
-1.503e-05
1.71811e-05
-3.84705e-06
-2.78874e-06
1.31875e-06
-2.06575e-06
-1.3202e-06
3.38683e-06
-1.18388e-05
-2.94325e-07
1.52537e-05
-2.86894e-05
1.34435e-05
-6.03271e-05
3.90047e-05
2.13227e-05
-1.49023e-05
1.03595e-05
4.54136e-06
3.61651e-05
0.000195631
1.46353e-05
-2.86955e-05
1.40584e-05
6.08185e-06
3.18565e-06
-9.26625e-06
-2.94755e-06
3.23031e-06
-2.82283e-07
-1.39208e-06
6.04891e-06
1.14836e-05
-8.67465e-06
-2.80862e-06
-0.000280516
-0.000222709
0.000503226
-0.000257065
4.58451e-06
0.000252485
-1.15979e-06
2.79439e-06
-1.63418e-06
8.49058e-06
4.41922e-06
-1.29034e-05
-7.16648e-05
4.86421e-05
2.30123e-05
-0.000349657
0.00029686
5.28118e-05
6.00945e-07
-3.65002e-07
-2.36212e-07
1.64054e-06
-2.80022e-06
-6.15543e-06
-8.74749e-06
-2.85149e-05
-3.18119e-05
2.85347e-06
5.751e-06
-8.60451e-06
-6.51164e-05
0.000170486
-2.428e-05
6.28254e-05
-3.85627e-05
-1.39113e-06
3.21307e-06
-1.82048e-06
0.000168718
-4.67841e-05
-0.00012193
5.19064e-06
-4.72056e-06
-4.70429e-07
-0.000159648
3.1073e-05
0.000128574
-5.06078e-06
6.29115e-06
-4.94074e-06
-8.46115e-07
-1.13674e-06
6.39542e-07
4.96985e-07
-0.000147327
-6.57452e-06
-5.39948e-06
8.25312e-06
-3.2954e-05
-0.000126694
4.08397e-07
1.82235e-06
-2.23085e-06
-4.13431e-06
7.11873e-06
-2.98564e-06
8.79214e-05
8.07963e-05
1.82842e-05
-1.86555e-05
3.71422e-07
4.00458e-05
-8.34316e-06
-4.86572e-05
-3.69203e-06
6.59494e-07
1.42724e-06
-2.08706e-06
1.19403e-05
-1.23339e-05
3.94581e-07
-8.05043e-07
-3.31951e-07
5.19281e-06
-4.49372e-06
-6.98871e-07
-4.19517e-05
5.80773e-05
-1.61208e-05
0.000103331
-8.04851e-05
-2.28434e-05
1.33294e-06
-5.05219e-06
4.14386e-05
-5.6876e-05
1.54375e-05
-7.15646e-05
7.37494e-07
7.08244e-05
3.77742e-05
7.54016e-05
-0.000113198
4.58128e-07
1.42867e-07
1.10411e-05
-6.62439e-06
-4.41641e-06
-0.000220895
5.98599e-07
-1.42878e-06
8.30869e-07
8.73976e-05
-4.96034e-05
2.8201e-05
5.26225e-05
2.11915e-05
1.7035e-06
-2.28932e-05
-2.27673e-06
4.63264e-05
-4.40528e-05
-7.03255e-06
7.68486e-06
-6.52638e-07
-2.44402e-05
8.46619e-05
-6.02181e-05
1.44048e-05
8.89279e-05
5.43245e-06
-2.66985e-06
-2.76216e-06
1.46282e-05
6.56438e-06
4.67952e-06
-3.80443e-06
-8.74723e-07
1.87656e-06
-3.38525e-06
1.50884e-06
4.0127e-05
-1.80828e-06
-3.83184e-05
1.01303e-06
3.66672e-06
3.45562e-05
-3.16535e-05
-2.90482e-06
-1.83811e-05
3.07411e-05
-1.23592e-05
-3.73752e-05
3.73764e-05
0.000220535
-4.00106e-05
-0.000180526
-8.69672e-06
3.22933e-06
5.46674e-06
1.23746e-06
-1.12284e-06
-1.14408e-07
-6.22784e-05
6.77734e-05
-5.49566e-06
5.69203e-06
-4.86267e-06
2.28111e-07
-1.78528e-07
2.6815e-05
-4.46685e-05
1.78596e-05
-4.28647e-07
-3.31332e-07
7.59852e-07
3.731e-06
-2.52784e-06
-1.20216e-06
1.65792e-05
-4.63999e-06
-2.23815e-05
2.69472e-05
-4.56724e-06
6.55834e-05
-4.96172e-05
-1.59664e-05
0.000188825
-0.000463825
0.000274979
3.01227e-05
-4.9324e-05
1.91973e-05
-1.33495e-05
-3.50222e-05
-3.85764e-06
1.24289e-06
2.61547e-06
4.41017e-06
-2.33596e-07
-4.17781e-06
0.000250525
-0.000155513
-9.50141e-05
1.6539e-06
-5.11439e-06
3.45974e-06
1.97464e-06
-3.36526e-06
0.000192287
5.82376e-05
-3.41459e-05
3.3011e-05
1.13804e-06
2.44772e-06
2.98665e-06
5.81232e-05
-1.66845e-05
4.29809e-05
-6.74174e-05
-3.28637e-05
3.33669e-05
-5.03567e-07
2.22326e-05
9.71179e-05
-0.000119358
-0.0003381
0.000188582
0.000149518
4.4455e-06
-2.99397e-06
-1.45134e-06
8.50767e-06
-1.49364e-05
6.42773e-06
8.48655e-07
4.08318e-06
-4.93164e-06
-2.62955e-07
2.63249e-07
3.19269e-06
-4.27491e-06
1.08234e-06
1.58907e-06
2.85671e-06
-1.13144e-05
-1.20101e-05
2.4556e-05
9.99958e-06
-5.94178e-06
4.11292e-06
1.82946e-06
-2.43207e-07
4.43368e-07
-2.7255e-06
3.20377e-06
0.000243629
-0.000166077
-7.75532e-05
-3.44598e-06
4.98371e-07
6.57128e-06
-8.63628e-06
-0.000172443
0.000174557
-2.11812e-06
-6.91646e-05
6.38478e-05
5.31914e-06
2.07471e-06
2.22238e-06
-4.29743e-06
-6.03685e-05
5.80965e-05
2.21441e-05
-2.44794e-05
2.33549e-06
3.57289e-05
-1.62821e-05
-1.94429e-05
-7.38974e-05
4.96329e-05
1.04927e-05
5.50906e-05
3.67258e-05
-0.000102676
6.59468e-05
4.46838e-07
-3.19739e-07
-1.27059e-07
1.55379e-05
2.74574e-06
-3.18476e-06
4.15068e-06
-1.04011e-05
7.40427e-06
2.99707e-06
0.000245314
-0.000151602
1.28637e-06
-1.61393e-06
3.28045e-07
-0.0002312
-5.26995e-05
0.000283871
7.84302e-05
0.000129146
-0.000207621
-2.56374e-05
3.25611e-06
-8.33237e-05
-0.000150527
0.000233878
-2.71005e-07
5.46148e-06
9.85532e-07
2.51662e-07
0.000576563
-0.00016483
-0.000411734
5.59604e-06
4.3961e-06
-9.99005e-06
-1.8064e-06
-2.49269e-06
4.29879e-06
1.86362e-06
8.42666e-06
2.52968e-05
-0.000166712
0.0001414
-5.46499e-05
-0.000102939
0.000157678
0.000533433
-0.000568044
3.46156e-05
1.84503e-06
1.03607e-05
2.977e-05
-2.24291e-05
-7.34175e-06
2.80753e-05
-4.35612e-05
1.54854e-05
9.76541e-05
6.39448e-05
-3.41504e-06
2.52933e-06
8.86356e-07
-6.15833e-05
1.40528e-05
4.75308e-05
9.83347e-05
-8.68522e-05
1.10468e-07
-2.52868e-06
2.41831e-06
1.68861e-06
-1.67666e-06
-1.1768e-08
-3.53985e-05
-3.02382e-05
6.56387e-05
5.36438e-05
-3.66756e-05
-1.69692e-05
-3.12502e-06
5.75133e-06
-2.62631e-06
-7.54379e-05
6.27475e-06
-1.78047e-05
4.588e-05
-3.26782e-06
1.58549e-06
1.68207e-06
0.000102028
-7.945e-05
-2.25769e-05
1.35465e-05
-5.04954e-06
-2.5597e-06
-5.02764e-06
7.58711e-06
-7.36821e-07
7.88025e-07
-5.10441e-08
-2.44013e-05
-1.01882e-05
3.45872e-05
2.07521e-05
-0.000150735
0.000129975
-1.74629e-06
-2.01093e-06
3.75865e-06
-2.55038e-05
-8.6394e-06
-3.29435e-05
5.45726e-06
2.74855e-05
1.73306e-05
-8.36649e-06
-8.96242e-06
-1.26739e-05
3.42174e-05
-2.15393e-05
-5.22452e-05
4.30093e-06
4.79428e-05
-0.00010353
3.19631e-05
5.1976e-06
1.2132e-05
2.85131e-05
-4.65222e-05
1.8009e-05
3.67382e-06
-6.79922e-06
-8.573e-06
1.54019e-06
-3.142e-05
-8.35226e-06
3.97784e-05
-3.02625e-06
5.56443e-06
-2.53768e-06
7.16621e-05
-0.000352178
3.98659e-06
-5.05901e-06
1.07204e-06
4.37587e-07
-4.37544e-07
0.000422385
0.000154178
-0.000119755
3.58975e-05
3.64769e-05
-7.23756e-05
-1.23443e-08
4.49969e-07
-2.44134e-06
4.5157e-06
1.27604e-05
-4.25216e-06
-8.08692e-08
1.94632e-07
-1.13692e-07
1.28676e-06
-0.00010319
4.97273e-05
5.34581e-05
-2.61334e-06
-4.5788e-06
7.19313e-06
-8.0366e-06
5.4766e-06
-0.000130714
-2.84096e-05
0.000159046
0.000174529
-3.05018e-05
-0.000144033
4.16552e-06
1.0278e-06
-1.31916e-06
-1.00366e-06
2.32298e-06
0.000137575
-0.000118622
-1.89188e-05
1.8816e-05
3.85302e-06
-2.26698e-05
5.34515e-05
-0.000479082
0.000425686
8.14754e-06
2.75839e-05
0.000301899
-0.000469247
0.000167348
1.68582e-07
-2.17906e-08
-1.46884e-07
0.000123683
5.0844e-05
-6.22367e-05
2.25136e-05
3.97259e-05
-4.03181e-07
-1.72928e-06
2.13231e-06
-5.2427e-07
-9.27164e-06
1.31067e-06
7.96499e-06
-0.00055493
0.000569839
-1.49197e-05
2.77202e-06
-5.11319e-06
2.34215e-06
3.03927e-05
0.000152818
-0.00018321
5.16434e-06
-2.2151e-07
-4.942e-06
6.20016e-05
4.00236e-05
1.31159e-05
-1.19153e-05
-1.20045e-06
-5.48084e-05
4.61006e-05
0.000360644
-0.000171826
-4.07355e-06
-4.62334e-06
-5.78398e-05
-4.43936e-06
-5.97694e-05
-2.46942e-06
-0.000126518
3.91911e-05
8.73072e-05
-8.64525e-08
5.25188e-06
-1.20537e-06
-3.68388e-06
4.8914e-06
-2.2517e-06
9.32618e-07
-5.77418e-06
1.63945e-06
7.84446e-05
-5.17836e-05
-2.66562e-05
-2.24708e-05
-0.000192269
0.000214739
-4.5507e-08
3.31723e-06
-3.27176e-06
0.000581881
-4.84515e-05
3.16447e-05
8.48266e-06
2.67763e-06
-7.2068e-06
4.53004e-06
-0.000421838
5.80753e-05
0.00036376
-9.19372e-06
-2.81809e-05
-7.67371e-06
-2.30204e-05
1.20434e-05
1.09778e-05
-0.000105557
0.000181683
-7.61386e-05
-3.61927e-06
-7.50379e-06
-3.10939e-06
-5.09484e-07
3.61839e-06
0.000150626
-0.000141017
-9.62114e-06
-0.000208845
-1.28822e-06
3.1649e-06
-5.94365e-05
3.72555e-06
5.57143e-05
-0.000226614
-1.14344e-05
1.02515e-05
1.18271e-06
4.66448e-05
-1.65237e-05
0.000400831
-3.79294e-05
-3.95753e-06
-6.44358e-06
6.41268e-06
4.21774e-05
-4.85888e-05
-4.7041e-05
4.11139e-05
5.92696e-06
-4.03249e-06
-1.89876e-05
1.44834e-05
-1.00576e-05
2.96766e-05
-1.44057e-05
-1.52709e-05
-2.88161e-05
-3.15286e-05
-2.52624e-05
-7.68099e-06
2.79207e-06
1.54306e-06
-4.33692e-06
1.56555e-06
1.23116e-07
-2.39056e-06
3.0496e-06
4.55616e-05
-3.91494e-05
-0.000134844
-0.000203258
-0.000143712
-8.83634e-06
0.00015255
-5.48345e-06
3.67685e-06
1.79648e-06
-1.38796e-06
-2.77398e-05
2.88869e-05
-1.148e-06
-0.000253218
-3.03707e-07
2.17518e-06
-1.87172e-06
2.83873e-06
-7.22706e-07
-2.11575e-06
4.49343e-05
-9.35602e-05
4.86322e-05
1.20848e-06
-1.04605e-06
-1.62584e-07
-3.3442e-05
2.07699e-05
-8.48541e-05
9.07136e-05
-5.85693e-06
-4.94241e-06
6.27203e-06
-1.33322e-06
-3.9355e-05
6.46556e-05
1.2365e-06
2.49505e-06
4.92896e-06
-5.01551e-06
5.79165e-06
-1.86205e-06
-3.92973e-06
2.00642e-07
2.46195e-07
1.16942e-05
-7.62529e-05
-0.000116934
0.000193172
2.95633e-05
-5.39661e-05
3.8555e-06
-3.6055e-06
-2.50215e-07
-0.000123837
0.000435396
-0.000311604
-1.72452e-06
-1.69009e-06
-7.38024e-05
4.50111e-05
0.000168043
-0.000139845
-8.40553e-05
2.4354e-06
5.72739e-06
-7.98561e-07
2.22475e-05
-1.74918e-05
-4.75585e-06
6.63762e-07
2.51413e-08
-6.88987e-07
-0.000112348
-2.79152e-05
-3.3673e-05
8.78097e-07
1.48147e-06
-2.35989e-06
-3.10542e-05
-1.59863e-05
-4.40335e-06
-4.8676e-06
1.18111e-05
-8.88309e-06
-2.92229e-06
0.000118475
-0.000115504
-2.97155e-06
2.41547e-06
-2.30519e-06
-0.000285433
0.000113286
0.00017215
9.79016e-07
-1.4133e-06
4.34511e-07
-2.38741e-08
1.92458e-07
0.000134774
-4.9556e-05
-8.52175e-05
2.76896e-07
1.46327e-07
-4.23171e-07
3.85338e-07
-2.11474e-06
7.77105e-05
-2.95576e-05
-4.81301e-05
-8.72801e-05
0.000109502
8.67765e-05
-5.56062e-05
-3.11724e-05
-1.90104e-06
-3.08748e-07
2.20892e-06
4.60318e-06
-1.93064e-07
3.24614e-05
-2.5904e-05
-6.55726e-06
4.44349e-05
-4.7537e-05
3.10304e-06
2.04466e-05
-0.000134752
0.000114267
2.89334e-06
-4.37494e-06
1.4832e-06
-2.05619e-06
-1.21177e-06
-1.13498e-06
1.13571e-06
-5.55982e-07
-1.43354e-06
1.98982e-06
2.92186e-05
4.92281e-05
-2.53304e-05
1.63299e-05
-0.000177361
5.08247e-05
-9.68501e-05
0.00012237
-8.3183e-05
-3.84041e-05
0.000103272
-6.48362e-05
3.19425e-06
3.53757e-07
-7.82902e-07
2.88388e-05
-1.00224e-05
3.08872e-06
0.000147532
9.28248e-06
-4.19159e-06
7.11646e-05
-0.000258359
0.000187182
-1.36686e-06
4.55941e-06
1.82312e-06
-2.23444e-06
4.11873e-07
1.56868e-05
-0.000437519
1.47369e-05
7.50929e-06
-6.06859e-06
4.86135e-06
1.61382e-06
4.17796e-06
2.08068e-06
-1.20289e-06
4.5623e-06
-1.66872e-06
1.95673e-05
-4.97368e-06
-1.45839e-05
-3.26388e-05
4.10263e-05
-8.38765e-06
3.13278e-06
-8.53217e-06
4.63813e-07
-1.86828e-07
-2.91025e-05
6.58322e-05
6.18426e-06
4.31883e-06
-1.05048e-05
-1.26972e-05
0.000105003
-9.23071e-05
2.89006e-06
-3.43081e-05
0.00012955
-9.9157e-05
-0.000145389
0.000132679
0.000655792
-0.000515877
-0.000139916
5.97461e-06
-3.75226e-06
4.41206e-06
1.31223e-05
-5.34346e-05
0.000247732
6.34789e-06
-9.12025e-05
0.000132142
-0.000113346
-1.87963e-05
-7.3856e-06
4.53198e-06
2.85369e-06
-2.08131e-06
1.80494e-07
4.41296e-06
3.27174e-06
-4.2242e-05
3.70868e-06
4.11258e-06
-4.26315e-06
4.93124e-06
-6.68379e-07
-3.58639e-06
2.35652e-06
1.23194e-06
3.38874e-06
7.65171e-06
-8.45037e-05
-6.08848e-05
6.8747e-05
-0.000123005
5.42548e-05
4.4273e-05
-2.15211e-05
-2.27506e-05
0.000166173
-0.000242419
-6.76496e-05
-0.000109721
-0.000126706
0.000247352
-0.000120668
3.55581e-07
-1.22728e-06
8.71708e-07
-6.70039e-05
5.28899e-05
1.41126e-05
2.74346e-05
-1.21758e-05
2.17024e-05
7.97404e-06
-3.10081e-06
7.92534e-07
2.30869e-06
9.34561e-07
2.73735e-07
0.000144973
-4.78686e-05
-1.98344e-06
2.72012e-05
-2.5218e-05
-1.80491e-06
1.50109e-06
-0.000231922
0.000285446
-3.33516e-06
3.28911e-06
0.000130752
-6.20891e-05
-6.86523e-05
9.66663e-05
7.13756e-05
-5.32339e-06
1.06055e-06
-5.04889e-07
1.1689e-06
5.40407e-05
4.08283e-06
1.58365e-05
1.77622e-05
-2.87462e-06
-1.48863e-05
-3.56857e-06
-4.07509e-06
7.64366e-06
1.36414e-05
-5.12957e-06
-2.07203e-05
1.25289e-05
8.19232e-06
8.8116e-05
-2.58099e-07
7.0266e-06
-8.09006e-06
0.000614597
4.11925e-05
1.92364e-06
-6.84025e-06
4.91557e-06
-6.58622e-05
4.04821e-05
2.53785e-05
4.63387e-05
2.51874e-06
-4.88573e-05
-1.56163e-05
2.12489e-05
-5.6347e-06
-1.94267e-06
4.73435e-06
-0.000278424
-0.000276523
-4.53755e-06
1.80471e-06
2.73368e-06
6.0812e-06
-1.86761e-05
1.25956e-05
2.50563e-06
-5.12953e-06
1.686e-07
-0.000149186
-2.61236e-05
0.000175282
-4.52217e-06
1.07068e-05
5.96969e-05
-5.65601e-06
-7.32215e-07
1.54189e-06
-8.10055e-07
2.395e-06
-5.42142e-06
5.35301e-05
2.41631e-05
6.38704e-06
-1.59481e-05
9.56361e-06
-9.62676e-07
7.49064e-07
2.11629e-07
1.03695e-05
-3.36829e-07
-1.00335e-05
6.84317e-07
-3.79344e-06
5.38387e-05
6.00642e-06
-5.98469e-05
0.000275111
-0.000148874
-0.000125893
5.87513e-05
-4.28061e-05
-1.59452e-05
-7.07212e-05
3.71672e-06
-3.87508e-05
8.1727e-05
4.03466e-06
-7.36125e-07
-3.29862e-06
0.000204334
-0.000273098
6.87652e-05
2.33229e-05
1.67269e-05
-4.17233e-05
-2.41394e-05
-0.000170571
8.60661e-05
0.000364709
-0.00015975
-0.000204944
-3.84328e-05
5.79417e-06
3.69062e-05
-7.56596e-05
1.216e-05
-1.79064e-06
-7.9255e-07
5.41784e-06
-5.94735e-06
5.29401e-07
1.52097e-05
-7.52283e-05
6.00191e-05
7.29402e-05
1.38391e-05
8.89863e-06
-4.32437e-06
-4.57524e-06
-4.14393e-05
4.76563e-06
4.88193e-06
-5.1714e-06
2.89747e-07
9.24532e-07
6.4949e-07
-1.57466e-06
2.04943e-06
-3.90585e-06
1.85576e-06
9.97695e-05
-2.68258e-05
-1.91125e-05
-3.57467e-05
3.75345e-05
-1.7887e-06
-0.00020713
-7.54142e-05
0.00028253
-5.05648e-05
6.57751e-05
-1.47338e-05
1.60136e-05
-1.27969e-06
1.57347e-05
-1.77176e-05
0.000110932
-0.000194267
1.3354e-07
-7.32497e-07
5.99246e-07
0.000123415
-4.93982e-06
-5.52359e-06
3.74899e-06
1.77405e-06
4.12211e-05
-1.27088e-05
-7.36339e-07
1.09202e-06
-2.01051e-05
0.000295655
2.95785e-07
3.04616e-06
-3.3421e-06
2.63154e-06
-7.57542e-06
-0.000186194
0.000325069
-0.000138867
-6.50313e-07
-3.22134e-05
2.46415e-08
-3.59281e-07
3.34267e-07
-2.65985e-09
-6.47391e-06
6.47714e-06
9.61573e-05
-0.000303306
9.99087e-05
9.2378e-05
1.34893e-05
3.45107e-05
-2.04595e-05
7.00328e-05
-7.39247e-05
3.89601e-06
1.66003e-06
-4.10097e-06
1.52134e-07
-3.22541e-06
1.2518e-07
3.66891e-06
8.17585e-05
-8.54252e-05
-5.12751e-07
-5.86132e-06
6.51301e-06
-2.32606e-06
5.00483e-06
-2.3492e-06
-5.43252e-05
0.000258658
-1.40494e-06
4.45367e-06
4.13206e-06
-1.70935e-06
-2.42253e-06
-4.23718e-06
2.10753e-06
2.12967e-06
-1.07012e-05
2.04053e-06
4.28921e-05
1.73261e-05
2.70891e-05
-4.44149e-05
1.66386e-05
-1.93998e-06
0.000136709
1.98377e-05
1.37774e-06
-2.12194e-05
6.24216e-05
7.61202e-06
5.76011e-06
-3.8364e-06
-3.06688e-06
-3.77333e-06
6.23118e-07
5.06871e-06
-0.000553213
0.00058729
-3.40287e-05
1.92857e-05
1.20584e-06
-4.38996e-06
2.61383e-07
-2.36825e-07
6.00035e-05
-4.75563e-05
-1.24472e-05
4.75134e-06
-3.09849e-06
-2.73174e-06
-1.80549e-06
-3.61545e-05
4.06696e-07
-2.20388e-06
6.5096e-07
1.55304e-06
-2.88046e-06
1.39713e-06
1.48332e-06
-0.000190086
-0.000125657
0.000315741
-8.33266e-06
-1.65136e-06
4.42494e-06
-1.3016e-05
2.91068e-05
-2.8366e-06
-2.62713e-05
4.25341e-07
9.47744e-08
-5.19821e-07
9.08311e-06
4.87308e-07
5.27259e-06
-4.64528e-05
4.24365e-05
4.01704e-06
-0.00068859
0.000673562
1.50256e-05
1.01502e-06
3.11683e-06
-3.16738e-05
2.1251e-05
1.04214e-05
2.89153e-06
-4.47378e-06
1.58222e-06
6.05911e-05
1.72699e-05
-7.78619e-05
1.06939e-06
1.66922e-05
4.54888e-05
-1.0539e-06
-4.76876e-06
3.05977e-06
-2.7715e-06
4.43197e-06
-6.02969e-05
1.46632e-05
4.56336e-05
7.9736e-05
-6.01758e-05
-5.98453e-05
0.000159754
0.000284106
-4.80509e-05
-0.000236055
5.49164e-06
-4.86881e-06
-5.06176e-06
3.06052e-06
1.99996e-06
4.51623e-06
-7.9394e-07
-3.72274e-06
-4.90383e-06
-1.14104e-05
-0.000148729
6.59811e-05
8.27472e-05
2.86548e-05
2.32065e-07
-1.96997e-05
1.93183e-05
-4.28073e-05
-6.27571e-05
-0.000122618
-5.91719e-06
0.000128547
3.10977e-06
-1.31551e-06
-5.22294e-07
9.47802e-07
7.72767e-06
-1.70277e-05
9.29695e-06
3.64047e-06
-6.98048e-07
-2.94201e-06
-0.000407236
0.000253344
0.000153897
-4.37608e-07
-1.91545e-07
6.29115e-07
-2.66073e-06
-7.12616e-05
-0.000169679
0.00017535
-5.67139e-06
1.63357e-05
-6.06531e-05
4.43196e-05
-1.00715e-06
1.00693e-06
-7.52169e-06
7.50842e-06
1.27191e-08
7.55225e-07
3.06944e-06
0.000236123
-0.000209487
-2.64731e-05
-2.11619e-06
1.67826e-06
0.000272152
0.00015438
-0.000426544
7.27471e-06
-1.75915e-05
1.03155e-05
-1.63273e-06
3.17695e-06
0.000106587
-3.86824e-05
-6.79056e-05
1.61929e-06
4.35893e-06
-1.46747e-06
2.06746e-06
-2.4387e-06
3.69882e-07
1.06339e-05
4.05153e-05
-5.66514e-06
-3.48421e-05
4.5022e-06
-3.84413e-06
-6.57504e-07
-1.56379e-05
9.03993e-07
-2.36097e-06
-4.53829e-07
-9.51885e-06
7.01098e-05
-1.71168e-05
4.24342e-05
-2.53155e-05
5.9705e-05
-8.63945e-06
-5.10655e-05
-1.92208e-06
4.88746e-07
-0.000259787
-0.000138115
-2.47121e-06
6.561e-06
-4.08944e-06
-0.000166182
4.84056e-05
-4.17145e-05
-6.69075e-06
1.99934e-05
3.32034e-06
-2.33149e-05
0.000101376
-0.000519933
0.000418546
-5.9299e-06
9.01703e-06
-3.08899e-06
-4.00664e-05
7.59497e-05
-2.57717e-06
-2.19114e-06
-7.78575e-08
-2.81488e-07
4.81048e-05
-7.60183e-05
-5.45116e-06
2.77146e-06
2.67938e-06
-4.93482e-06
-1.3661e-06
6.30036e-06
-0.000266731
0.000194436
7.22287e-05
2.20562e-05
8.78041e-08
-9.82948e-05
-7.73027e-05
0.000175594
4.68051e-05
-4.14233e-05
-5.38006e-06
-1.60948e-06
4.2032e-07
-0.000304131
0.000192708
0.000111424
-6.42031e-06
2.71025e-06
3.7097e-06
5.01859e-05
-2.59254e-05
0.000173411
-0.00014747
1.68363e-08
-9.80257e-07
-2.98538e-07
1.18645e-06
-8.87668e-07
-0.000126496
-4.31898e-05
-0.000102249
-3.49779e-06
4.70347e-06
7.82919e-06
-0.000130447
2.16249e-05
-2.02751e-05
-1.35091e-06
4.09399e-06
-3.71928e-06
1.71323e-06
-3.68357e-06
1.96846e-06
5.1325e-05
0.000125277
-0.000176605
-2.23567e-05
-3.56334e-06
6.51574e-06
4.17699e-05
-4.82854e-05
-2.63787e-06
2.17206e-06
4.67372e-07
1.99861e-05
-5.91496e-06
-1.40678e-05
3.17966e-06
-2.84831e-06
-3.30751e-07
1.99385e-06
-9.76283e-07
2.80046e-05
-3.19494e-07
2.41683e-07
-3.13652e-06
3.65031e-05
-8.14705e-06
0.000110979
-0.000149391
2.90525e-07
2.12476e-06
-2.49233e-06
4.95778e-06
-2.46531e-06
-2.07732e-05
-1.09005e-05
2.28351e-06
1.57141e-06
-1.29782e-05
6.31606e-06
6.66131e-06
3.27668e-05
0.000108253
-0.00014102
2.07042e-05
1.3521e-06
5.25134e-06
-4.40265e-06
9.73929e-06
-2.34789e-06
-7.3926e-06
2.12786e-06
-2.16588e-06
3.92082e-08
5.65896e-06
3.62317e-06
-4.53264e-05
-2.63636e-05
4.68178e-05
0.000120924
-8.44054e-05
-3.65147e-05
-3.85987e-05
2.14844e-05
-4.20142e-06
0.000101229
-9.18234e-05
-9.40704e-06
7.50409e-06
-1.90785e-06
-3.82492e-07
-1.79527e-06
2.17701e-06
3.80873e-06
2.52985e-05
-5.71862e-05
-3.11042e-06
6.01787e-07
3.03896e-06
9.52273e-07
-1.33389e-06
0.000518048
-0.000416689
-2.90606e-05
-8.95255e-07
2.99548e-05
0.000223437
-0.000147159
-7.62799e-05
7.12931e-05
5.94551e-05
9.55002e-08
-5.81251e-07
4.85902e-07
-5.87013e-06
3.29922e-06
2.57109e-06
3.6149e-05
-3.20544e-06
-2.73593e-06
-4.134e-06
3.36092e-06
-1.65053e-06
2.08301e-05
1.52214e-06
2.99388e-06
-1.17239e-07
1.52147e-06
-3.26699e-06
1.93819e-05
-1.45291e-05
-4.87714e-06
-0.000166707
8.95652e-05
7.71432e-05
-5.32361e-07
2.75078e-08
5.04957e-07
-1.19786e-06
0.000237293
-4.47815e-07
-8.44654e-08
-5.53548e-07
-1.06018e-06
-0.000235144
-0.000243837
1.87495e-06
-1.25941e-06
2.75486e-06
-1.49551e-06
-5.78354e-05
4.81354e-05
9.70339e-06
-7.39897e-05
0.00010779
-4.22488e-05
-6.55471e-05
1.87984e-05
-4.15775e-06
-1.23036e-06
-2.38359e-06
3.61597e-06
-3.72243e-06
5.05624e-06
-1.18501e-06
-1.53446e-06
-2.5334e-06
4.06816e-06
-3.96977e-06
2.39621e-05
1.77997e-06
-3.3138e-06
0.000116707
-0.000240562
9.20074e-05
0.000376623
-0.000468621
-4.39799e-06
-3.22414e-06
7.62205e-06
3.5287e-06
-2.05255e-06
-1.47753e-06
-2.59356e-06
-2.85745e-06
2.52568e-06
1.23954e-06
-3.76393e-06
1.98713e-05
1.25898e-05
6.22335e-07
-6.16369e-07
-5.86316e-09
1.35108e-05
-6.23509e-06
1.71127e-05
7.02327e-06
-2.41448e-05
-6.7302e-06
3.08754e-05
-4.66321e-05
-0.000102592
0.000149218
-0.000121702
8.74805e-05
3.42227e-05
-0.000153464
0.000204788
4.42602e-06
-2.16221e-06
-2.2638e-06
-1.21715e-05
-2.96119e-05
9.63324e-06
5.52826e-07
-1.10569e-06
2.88386e-06
2.96256e-07
4.58391e-06
-9.31712e-07
-3.65189e-06
7.77168e-06
-1.68965e-06
-1.79368e-06
3.84285e-06
-1.06764e-05
7.76624e-06
2.90947e-06
2.20085e-06
2.15778e-06
-3.31995e-06
-2.54968e-06
-2.7871e-05
4.65396e-05
-1.86672e-05
-2.30982e-06
-3.27258e-07
5.19608e-06
-3.14194e-07
-2.18922e-05
2.4623e-05
-2.73031e-06
-5.33872e-06
8.44304e-07
-6.76793e-06
2.76702e-06
4.00115e-06
-4.17842e-05
-4.73833e-06
2.06108e-06
2.29865e-06
-4.35852e-06
-0.00018058
-8.62395e-05
1.80494e-07
-6.98477e-08
-1.373e-06
1.44246e-06
0.000393909
-3.4385e-06
-0.000132096
0.000135437
-2.75345e-07
2.19e-05
5.95551e-05
9.25729e-05
-7.92606e-07
-3.06476e-06
1.3219e-05
5.18758e-06
-6.80579e-08
-5.11826e-06
-3.51002e-06
2.71777e-06
-0.000166824
0.000113305
5.35281e-05
1.9893e-07
-1.05773e-07
-9.32328e-08
1.92702e-06
-3.45865e-06
-3.07041e-05
2.03448e-05
1.03552e-05
1.34832e-06
1.50487e-05
-1.66611e-05
1.61334e-06
2.75955e-06
-4.53917e-06
1.77966e-06
8.03569e-05
5.72348e-05
8.83207e-07
4.6815e-06
0.000392317
0.000144109
-7.29625e-05
-8.1289e-07
2.06497e-05
-6.11996e-06
1.24571e-06
4.87499e-06
1.55851e-05
1.5974e-06
-0.00014727
-0.000259962
-3.54472e-05
3.24064e-06
-0.000630529
0.000512274
0.000118252
4.3251e-06
-7.98323e-07
-3.52735e-06
4.32154e-06
-1.34674e-06
1.48062e-06
6.5282e-06
-1.87327e-05
1.2202e-05
7.81944e-06
-4.32772e-05
3.54588e-05
-0.000207149
-2.48227e-05
-1.37609e-06
-5.08696e-05
5.28452e-07
-1.13022e-07
-4.15522e-07
2.44715e-05
1.73098e-05
-9.13866e-06
5.06425e-06
-9.45355e-06
-0.000101415
0.000120803
0.000160263
-0.00012475
-3.55224e-05
-1.02345e-06
5.01016e-06
1.57341e-06
-4.16661e-06
0.000214699
-0.000341397
3.76603e-05
-4.12086e-05
3.54798e-06
0.000733775
-0.000557908
1.24042e-06
-2.6137e-07
-0.00034266
-0.000333427
0.000676288
4.35031e-05
-7.28775e-05
2.93738e-05
-3.03629e-06
4.6539e-05
-0.000311113
-0.000187874
0.00049898
4.32877e-06
-2.12782e-06
6.90866e-05
-0.000109793
-0.000304285
0.000414078
0.000140334
-7.52038e-05
-6.51325e-05
9.40231e-06
2.23329e-05
-9.09476e-05
4.82544e-07
4.70546e-06
-1.61706e-06
-1.26335e-06
-2.34177e-06
-1.29284e-06
2.62347e-06
-1.33049e-06
5.34775e-06
2.17336e-06
-7.52032e-06
0.000151003
7.24334e-05
-0.000305827
-0.000163421
-2.72979e-06
2.07603e-06
6.53659e-07
4.94137e-06
-8.28211e-07
-1.24165e-06
-1.80989e-08
-0.000105857
1.22977e-05
3.46195e-06
-6.98651e-05
3.04958e-05
3.52458e-07
4.25765e-05
-4.9165e-06
3.47552e-06
8.34422e-08
-3.55938e-06
0.000151005
0.000139312
-0.00029033
2.16926e-06
-2.23992e-06
3.24213e-06
-4.36121e-07
-2.80743e-06
-2.29303e-07
2.98412e-06
-2.57454e-05
-3.16936e-05
5.74326e-05
1.88473e-05
-3.26202e-06
-6.26132e-07
-1.10753e-07
-7.99756e-05
1.99882e-05
5.99553e-05
0.000169123
-0.000118782
-5.03434e-05
-9.92594e-05
-6.94872e-05
0.000168571
-0.000149826
4.43992e-06
-8.96316e-06
7.64974e-05
-1.39729e-05
-6.25236e-05
8.05538e-06
-2.30069e-06
-5.75267e-06
2.78909e-05
5.18572e-05
-6.69172e-07
6.85603e-07
-7.52245e-06
3.70688e-06
4.38445e-06
-5.95147e-08
1.82805e-05
-8.37804e-06
2.40071e-06
5.97743e-06
8.01583e-07
3.78231e-06
6.71609e-06
-1.36797e-06
1.69447e-05
-9.57211e-06
-7.37319e-06
-9.30319e-05
3.09472e-05
-1.07913e-06
3.60587e-06
3.37985e-06
-3.08413e-06
-0.000220778
3.59823e-05
0.000184738
-3.70719e-05
1.08448e-05
2.62267e-05
-5.38748e-05
2.60034e-05
-1.79061e-05
1.98342e-05
-1.9297e-06
-3.60205e-06
4.99116e-06
-1.38981e-06
-2.90404e-05
-1.71399e-06
7.93407e-07
-1.09189e-06
4.11995e-07
2.02919e-05
-3.21142e-06
5.47124e-06
-2.2594e-06
4.59259e-05
-8.06035e-05
3.47157e-05
3.88536e-05
8.2068e-05
3.60784e-05
0.00025009
-1.97038e-05
-0.000230382
0.000125798
-0.000129564
3.76142e-06
-1.14247e-05
0.00012098
-0.000109563
2.04246e-05
-0.000370065
6.32095e-05
-6.62459e-05
3.54114e-06
-5.70305e-06
-9.33986e-07
1.10153e-06
-1.66551e-07
2.14071e-06
-4.65195e-07
-1.6751e-06
2.32906e-05
-0.000169899
0.000146615
0.000330224
3.02068e-05
2.78913e-07
2.23595e-06
-8.85985e-06
7.32019e-07
-7.2062e-06
-2.82434e-05
-3.71147e-05
6.53592e-05
2.58023e-05
1.00116e-06
5.41787e-07
-2.25684e-06
1.71423e-06
5.7383e-05
0.000239471
6.18674e-06
6.57315e-06
-3.86981e-05
-3.35741e-07
3.90335e-05
1.8492e-06
-5.06054e-06
4.43067e-06
3.74194e-07
-4.80489e-06
2.24027e-06
1.28767e-06
4.30678e-08
-1.23941e-07
-0.00014964
-8.94886e-06
0.000158618
4.29755e-06
1.00596e-06
-5.30314e-06
0.000258757
-3.82219e-05
8.93682e-06
-2.04703e-07
9.96416e-07
-7.91781e-07
-2.48577e-06
4.05934e-06
1.43728e-05
9.34169e-05
3.9844e-06
-4.55364e-06
5.68791e-07
-1.71562e-06
-7.2367e-07
1.8668e-07
3.86988e-07
-5.73663e-07
-0.000177569
2.79298e-05
-6.20312e-06
4.18835e-06
2.01406e-06
-2.88857e-06
-4.49697e-06
-9.06684e-06
1.67938e-05
3.27276e-05
-2.53491e-05
-7.37855e-06
4.15603e-06
-2.09369e-06
2.81486e-07
-7.19061e-07
-1.19866e-06
-2.18658e-06
-7.3988e-05
9.97947e-05
-3.80063e-06
4.83833e-06
-1.03755e-06
1.97281e-06
2.22787e-06
-3.8377e-07
-1.84388e-06
0.000113516
-0.000122351
-7.72858e-07
1.70233e-06
-9.29026e-07
-4.83941e-05
6.97093e-06
-2.76573e-05
3.00118e-05
-2.3543e-06
1.11042e-07
-6.79834e-08
-1.06062e-05
4.70997e-05
-0.000246594
0.000175677
0.000116485
-0.000292138
1.92461e-05
-3.34703e-07
-4.20117e-06
4.53645e-06
2.02749e-06
1.1529e-05
0.000269559
-0.000147196
-3.31328e-05
5.476e-06
1.90931e-06
3.03381e-07
-2.2115e-06
6.55051e-06
0.000240814
-0.000280826
3.61027e-06
8.9214e-07
-9.83629e-06
7.73481e-05
-6.75225e-05
-2.82293e-07
-7.25467e-07
3.1301e-05
1.42604e-06
-9.17179e-05
8.60464e-05
5.66849e-06
-1.56733e-05
-8.80633e-06
1.37827e-06
-9.25509e-05
0.000132862
-4.03035e-05
-0.000142365
-1.57195e-06
3.09422e-06
-3.78915e-06
4.05325e-06
-5.77321e-07
-2.93233e-06
-1.31399e-06
5.4799e-06
8.51994e-06
-2.1942e-05
1.34218e-05
-3.37907e-05
3.42766e-05
-4.88313e-07
-1.5148e-07
4.13645e-06
1.75136e-05
1.73598e-06
-1.92505e-05
-0.000296175
0.000120958
0.000175214
-2.4002e-07
4.6703e-06
-0.00013191
1.62342e-05
0.000115664
-2.74831e-06
4.29116e-06
7.08248e-05
-1.18227e-06
2.48555e-07
5.1577e-05
-0.00022402
0.000104925
9.62451e-05
-7.74895e-05
-3.24077e-06
1.23042e-07
-1.19881e-08
-0.000369839
0.000260048
1.32292e-05
5.87094e-06
-1.91019e-05
2.01259e-05
-0.000417759
0.000397603
-4.90351e-06
-4.83123e-07
5.38699e-06
-1.03087e-07
-1.80283e-06
1.90581e-06
-8.66179e-05
4.19448e-05
-0.000564429
0.000621466
-5.70416e-05
-1.19352e-05
-8.78345e-06
-0.000259812
0.000279991
-1.77671e-06
1.00394e-06
1.13851e-05
0.00025817
-1.70827e-06
-2.22494e-06
3.93359e-06
-5.21993e-06
2.73457e-06
0.000172206
0.000130736
-0.000302943
0.000425255
-0.000124517
-0.000300739
-4.30238e-05
2.6169e-05
2.09646e-06
-2.82654e-05
-0.000382639
0.000192552
0.000120663
-0.000129602
5.4307e-05
-7.32649e-07
4.09893e-05
-7.00502e-05
2.07966e-05
-4.38349e-05
2.30391e-05
5.65689e-05
3.52252e-05
-2.49173e-05
-1.02921e-05
5.11291e-06
-1.02998e-06
-7.75628e-07
-3.09111e-07
1.08478e-06
1.73604e-06
4.04625e-07
4.34529e-05
-4.53024e-05
1.85004e-06
-5.36138e-06
5.3627e-06
-4.93758e-05
2.11337e-05
-1.06489e-07
-9.19575e-07
0.000176448
-0.000175527
0.000509658
-0.00032749
-0.000182169
1.1829e-07
1.00504e-06
-1.12308e-06
0.000164031
0.00032373
-0.000487732
1.78132e-06
0.000424765
0.000145055
-1.49061e-06
5.42924e-05
-5.28001e-05
0.000110855
-1.29592e-05
-9.79033e-05
-0.000258533
-0.000371998
6.23519e-05
0.000112201
-4.35328e-07
7.58225e-07
-3.22797e-07
0.000266269
-0.000137154
-6.44356e-07
-1.13345e-07
3.48385e-06
-3.3688e-06
-3.94003e-06
-3.46235e-06
0.000277427
7.56619e-05
-0.00035287
-1.65031e-05
2.06954e-06
1.44336e-05
-7.72243e-07
-6.40994e-07
0.000156331
-0.000135911
-2.04102e-05
-4.4512e-07
2.35536e-06
7.27573e-05
-8.25967e-05
-4.78636e-07
-3.21253e-06