/*--------------------------------*- C++ -*----------------------------------*\
| =========                 |                                                 |
| \\      /  F ield         | OpenFOAM: The Open Source CFD Toolbox           |
|  \\    /   O peration     | Version:  v2012                                 |
|   \\  /    A nd           | Website:  www.openfoam.com                      |
|    \\/     M anipulation  |                                                 |
\*---------------------------------------------------------------------------*/
FoamFile
{
    version     2.0;
    format      ascii;
    class       volVectorField;
    location    "150";
    object      U_0;
}
// * * * * * * * * * * * * * * * * * * * * * * * * * * * * * * * * * * * * * //

dimensions      [0 1 -1 0 0 0 0];


internalField   nonuniform List<vector> 
14315
(
(0.942687 -0.310154 2.4595e-19)
(0.395271 0.074631 0)
(1.02972 -0.120647 -1.84381e-21)
(1.11051 -0.250782 3.62844e-20)
(1.12699 -0.305053 3.49823e-20)
(1.11793 -0.0405636 -5.35685e-20)
(0.130855 0.0416829 9.66756e-20)
(0.923555 -0.0953448 0)
(1.10007 -0.166229 -4.29516e-20)
(1.02737 -0.079137 4.64323e-21)
(0.677501 -0.167203 -9.02875e-20)
(-0.271339 -0.0234333 -5.72433e-20)
(0.830949 -0.258482 -1.49264e-19)
(1.0375 -0.00589173 1.05764e-20)
(-0.28167 -0.0237592 -2.1026e-19)
(1.01033 -0.00283436 7.26824e-21)
(0.927527 -0.0981277 -2.97467e-20)
(1.00523 -0.0254227 2.86281e-21)
(1.13818 -0.184015 0)
(1.13187 -0.181687 0)
(1.00874 -0.0280687 1.72223e-22)
(0.319647 0.0175664 0)
(1.17692 -0.10475 -1.17223e-20)
(-0.272027 -0.0218905 5.75048e-20)
(1.04957 -0.302497 -3.3784e-20)
(0.370294 0.0743205 1.70103e-20)
(0.994186 -0.0212809 0)
(0.141438 0.0431164 -9.77541e-20)
(0.787048 -0.0982763 8.52476e-20)
(1.2698 -0.121028 1.67584e-19)
(1.14107 0.00868453 3.69605e-20)
(1.00527 -0.0306721 -4.92443e-21)
(1.0402 -0.00649251 2.30552e-20)
(0.746603 0.045717 1.06833e-19)
(0.00483968 0.00607568 -2.00959e-19)
(0.332208 0.00766192 -1.8714e-19)
(0.364261 -0.212659 -1.4994e-19)
(0.961087 -0.119063 2.07414e-20)
(1.28962 -0.0776641 1.80671e-19)
(0.978724 -0.354663 -3.6887e-21)
(-0.215238 -0.0173449 -1.8557e-19)
(0.195085 0.109094 -1.89324e-19)
(0.962982 -0.0754071 6.53624e-23)
(1.02439 -0.00148541 1.75952e-20)
(1.17506 -0.0631448 8.61362e-21)
(1.04558 -0.292421 2.44127e-20)
(0.777387 0.0513288 -5.65839e-20)
(-0.286222 -0.026873 0)
(-0.278456 -0.0253623 0)
(1.00526 -0.0245185 -2.07948e-21)
(-0.278319 -0.0247906 -1.47009e-19)
(1.11968 -0.24794 -2.00655e-20)
(-0.279292 -0.0226447 0)
(-0.287271 -0.0267575 0)
(1.12739 0.0190474 8.34094e-22)
(0.365948 0.0103066 2.53991e-19)
(0.142912 -0.532414 -1.79965e-19)
(1.11512 -0.165099 1.17987e-20)
(1.00836 -0.036817 7.4621e-22)
(1.02767 -0.116851 5.05505e-21)
(1.28477 -0.145133 1.35167e-19)
(0.731472 0.0808803 -7.3995e-20)
(0.347769 0.0121639 0)
(1.01007 -0.0315683 3.27128e-22)
(1.2727 -0.140615 7.07248e-22)
(0.38514 -0.391147 -1.11241e-19)
(0.735041 -0.257393 3.5491e-20)
(1.00123 -0.00866371 1.21365e-21)
(1.01002 -0.0301725 9.08882e-22)
(1.12861 0.0206418 -1.54588e-20)
(-0.287684 -0.0248496 1.32582e-19)
(1.1173 -0.154986 0)
(0.028745 0.00518389 2.00347e-19)
(-0.125537 -0.0461551 1.63398e-19)
(1.00592 -0.0454742 0)
(0.121642 -0.0745018 0)
(1.11694 -0.0836709 3.5289e-20)
(0.428711 -0.0182675 -2.20785e-20)
(1.172 -0.065311 7.63372e-21)
(1.06408 0.00216072 -2.66788e-20)
(1.02562 -0.0132381 0)
(0.356128 0.0139046 -9.485e-21)
(1.11583 -0.150095 -4.45571e-20)
(0.461625 -0.020375 -1.92849e-20)
(1.01009 -0.0266136 0)
(1.08747 0.00503876 -2.39992e-20)
(0.233281 -0.118727 0)
(-0.143719 -0.00891816 0)
(-0.288733 -0.0258931 2.28823e-19)
(0.688364 -0.153396 2.81111e-21)
(1.15849 -0.0229487 -5.29988e-20)
(0.901538 -0.297644 2.24656e-20)
(1.02653 -0.0138161 0)
(1.08951 -0.00360959 1.43351e-20)
(-0.235978 -0.0172137 1.26567e-19)
(-0.172179 -0.00582534 5.37804e-20)
(0.966362 -0.0758115 0)
(-0.19982 -0.0187096 0)
(-0.0026427 0.021187 4.24039e-20)
(0.712036 0.152167 -8.26575e-20)
(1.00096 -0.0081561 -1.19876e-21)
(-0.2718 -0.0271182 0)
(0.320533 0.0118963 -8.83937e-20)
(1.03001 -0.0168025 -7.6364e-21)
(0.708105 0.170916 0)
(1.28601 -0.0800282 -1.9752e-19)
(-0.130618 -0.0255184 0)
(-0.172181 -0.00806131 3.77277e-21)
(1.15482 -0.000779124 0)
(1.22341 0.019699 1.64766e-20)
(-0.180496 -0.00774127 -2.8845e-20)
(0.974767 -0.0323353 -5.07347e-22)
(-0.115754 -0.0251476 0)
(0.993266 -0.0260819 -6.56728e-21)
(1.02249 -0.0547313 0)
(-0.166524 -0.0116673 -1.30486e-19)
(0.993048 -0.0251604 8.43425e-21)
(-0.287405 -0.0245594 -2.23153e-19)
(-0.12956 -0.028569 -1.26346e-19)
(-0.147434 -0.0127364 -8.4652e-20)
(1.31271 -0.0636166 -7.49868e-22)
(1.12866 0.00118269 0)
(1.02929 -0.0151353 -5.3986e-21)
(-0.251719 -0.0187538 0)
(0.797995 -0.101135 -4.00741e-20)
(1.02373 -0.00177856 -9.99348e-21)
(0.490689 -0.0996363 -2.04843e-19)
(1.02156 -0.00901484 -7.14328e-21)
(1.06068 -0.0160379 -2.45621e-20)
(0.894419 -0.286685 3.70257e-20)
(-0.0428464 0.0107134 1.65636e-20)
(0.0493372 -0.0107551 6.1895e-20)
(0.73153 -0.543569 -7.09324e-20)
(-0.104663 0.00484679 0)
(1.27435 -0.116476 -1.15001e-19)
(1.00554 -0.0410502 -3.69732e-21)
(0.964034 -0.0274368 -1.24065e-20)
(0.429584 0.0755416 -1.66529e-20)
(1.06704 0.00128797 2.28724e-22)
(1.00622 -0.0441779 0)
(0.408705 0.0738473 -9.15542e-21)
(-0.237157 -0.0184238 2.0532e-19)
(0.974491 -0.0312797 0)
(-0.188321 -0.0172348 3.69364e-20)
(1.22279 0.0164213 0)
(-0.0218241 0.0144606 -6.22919e-20)
(1.23075 0.0285568 -9.02426e-20)
(0.929761 -0.0195456 1.77335e-19)
(1.12183 -0.0169308 5.71353e-20)
(0.800438 0.00598605 0)
(1.03622 -0.110338 -1.08783e-20)
(-0.216373 -0.0196923 -1.98942e-20)
(1.00511 -0.0797171 -1.50428e-21)
(1.12002 -0.0186252 -7.38372e-20)
(1.12531 -0.296111 1.6638e-21)
(-0.280156 -0.0227306 2.0878e-19)
(0.956672 -0.0744879 3.2044e-20)
(1.01033 -0.00333244 0)
(1.11733 -0.038158 4.97825e-20)
(0.422462 0.0741343 -3.37489e-20)
(1.00925 -0.0380407 3.93881e-22)
(-0.266734 -0.0250091 1.30044e-19)
(0.819029 -0.0214835 0)
(-0.261539 -0.0218643 1.33133e-19)
(1.05043 -0.0887049 0)
(-0.161821 -0.0061435 0)
(-0.0957184 -0.00316159 8.48704e-20)
(0.795325 -0.277031 0)
(-0.190655 -0.0314461 1.81467e-19)
(0.00369103 -0.011398 0)
(1.08244 -0.0549663 6.89494e-20)
(1.0074 -0.00221268 -1.72745e-22)
(-0.135976 -0.00724115 1.49007e-20)
(1.02603 -0.0812507 -4.11307e-21)
(1.17686 -0.0501299 -6.33504e-20)
(0.339554 -0.239647 1.36366e-19)
(1.00009 -0.00143061 1.6623e-21)
(0.331839 0.0146183 0)
(0.184973 0.0180643 4.59769e-20)
(-0.0497169 0.00892747 -4.88347e-21)
(1.25139 -0.285728 4.70233e-20)
(1.11441 -0.081191 0)
(1.02831 -0.0149923 9.82468e-21)
(1.2657 -0.00981128 5.27298e-20)
(1.16468 -0.0943848 -8.52499e-21)
(0.959407 -0.109998 -2.98463e-21)
(0.972845 -0.341953 -1.64491e-21)
(1.286 -0.0373714 -7.83237e-20)
(0.037643 0.00503698 -2.50463e-20)
(1.23291 0.0317695 0)
(1.17265 -0.105947 -3.02808e-20)
(0.820087 -0.300025 -4.454e-20)
(-0.135586 -0.00078485 1.24144e-19)
(0.229581 0.136712 2.01215e-19)
(1.04676 -0.00357732 8.23659e-21)
(-0.133094 -0.0308715 0)
(1.29109 -0.146928 -8.05743e-20)
(1.04155 -0.0455222 1.61851e-20)
(1.02578 -0.0257036 5.51686e-21)
(0.692558 -0.121289 -9.23962e-20)
(-0.234072 -0.0175921 4.179e-20)
(1.08623 -0.117017 2.85013e-20)
(-0.267246 -0.022806 -2.49408e-19)
(-0.126267 0.00193545 -1.03253e-19)
(1.06159 -0.0358726 7.24449e-21)
(1.19786 0.0852736 -8.6469e-21)
(1.26652 -0.137456 0)
(1.11107 -0.135202 0)
(1.01134 -0.00783863 2.99492e-21)
(-0.156935 -0.0028317 1.03434e-19)
(1.20461 0.0794007 -1.3655e-19)
(1.0643 -0.0162299 1.22787e-20)
(-0.22978 -0.0166438 -1.68011e-19)
(1.22417 -0.0697653 9.18633e-20)
(0.0493181 0.030607 0)
(-0.117916 -0.0306348 0)
(0.529991 -0.038783 1.30576e-20)
(0.0235725 0.0244156 0)
(0.0311798 0.0274303 -5.82688e-20)
(1.23415 -0.0583821 9.17682e-20)
(1.08831 -0.114068 -3.37921e-20)
(1.15246 0.00101962 4.6273e-20)
(1.18224 0.0430014 -3.39884e-20)
(0.9961 -0.111592 -1.68828e-21)
(0.690283 0.0816748 6.27004e-20)
(1.03676 -0.0972838 1.22268e-21)
(1.0136 -0.000596437 0)
(1.28046 -0.00976613 -5.46993e-20)
(0.0129146 0.00434793 -3.43902e-20)
(0.434315 -0.272324 1.93028e-19)
(1.01958 -0.00078514 0)
(1.05004 -0.0865646 1.4802e-20)
(0.810706 0.0054562 7.51126e-20)
(1.00028 -0.00045045 5.58423e-21)
(1.00003 -0.000595046 0)
(0.563806 -0.0765468 -1.99779e-20)
(1.16898 -0.071595 7.95239e-21)
(1.11263 -0.140296 0)
(0.0165176 0.00747117 -9.83118e-20)
(-0.0346979 0.0103757 0)
(1.08737 -0.00308904 -2.0243e-20)
(1.14179 -0.0454174 1.1317e-20)
(0.275312 -0.630713 6.27133e-20)
(-0.217004 -0.0158935 1.11784e-20)
(1.10722 -0.589335 -7.03343e-21)
(0.777512 -0.27642 1.31839e-21)
(0.577565 0.0519108 1.08139e-19)
(1.00115 -0.00105774 5.41894e-21)
(-0.0179626 0.0107791 0)
(1.21127 -0.130177 6.9198e-20)
(1.04467 -0.0123117 0)
(1.03004 -0.016237 7.49892e-21)
(0.109148 -0.0267258 -1.94585e-19)
(0.350979 0.10827 -8.92892e-20)
(0.96475 -0.0543626 -2.70745e-20)
(0.207727 0.0400583 0)
(1.14514 -0.0661563 5.87893e-20)
(1.19736 0.0874113 -1.53965e-22)
(-0.144687 -0.0206381 -4.49867e-20)
(1.18441 0.0784573 7.50218e-20)
(0.719464 -0.511509 2.91557e-20)
(1.12999 0.00293658 -1.68283e-20)
(-0.242675 -0.0177953 2.76113e-21)
(1.23921 -0.132718 0)
(0.977142 0.0963439 -1.10861e-19)
(1.14185 -0.0666551 -8.19575e-20)
(1.05593 -0.234572 -2.22795e-20)
(1.14444 -0.0438248 1.17806e-20)
(1.08881 0.00378335 2.73577e-20)
(-0.188651 -0.0126905 0)
(0.41115 0.0744565 -3.37784e-20)
(1.10345 -0.057605 0)
(1.19601 0.0368387 0)
(-0.15913 -0.0097714 1.54918e-19)
(0.985769 -0.186735 0)
(0.499829 0.0555001 0)
(-0.193415 -0.0128448 8.40575e-20)
(1.1726 -0.0701943 0)
(-0.169722 -0.0199922 0)
(1.20777 -0.342572 3.63757e-20)
(1.14171 0.0110562 3.07702e-20)
(1.11085 -0.0287701 -4.41374e-20)
(-0.0275158 0.010581 0)
(0.372209 0.0138442 -9.08269e-21)
(1.02186 -0.0527636 0)
(-0.263105 -0.0209363 0)
(0.3024 0.0134775 0)
(-0.123178 -0.023013 2.08949e-22)
(-0.113835 0.00305654 0)
(0.380397 0.021263 0)
(1.17861 -0.0534792 4.52869e-20)
(-0.234251 -0.0247414 -1.32558e-19)
(-0.136619 0.00069047 1.1118e-19)
(-0.153088 -0.0203515 -1.84859e-20)
(1.27806 -0.136903 5.78849e-22)
(1.1982 -0.00773927 2.61696e-20)
(-0.173581 -0.00782288 -3.27805e-20)
(1.22667 -0.0738753 -8.13234e-20)
(0.995633 -0.0341807 -1.72432e-20)
(1.02503 -0.0248776 0)
(1.16045 -0.020774 -1.66389e-20)
(-0.254239 -0.0240182 -8.91455e-20)
(0.854952 -0.0118941 -1.56481e-19)
(0.344511 0.0684767 -1.95187e-20)
(0.962295 -0.107629 8.95657e-21)
(1.01051 -0.0274185 2.51254e-22)
(-0.0431214 0.0101801 0)
(0.291122 0.0160306 1.14698e-20)
(1.01035 -0.021063 4.31563e-21)
(1.04695 -0.0114777 1.19254e-22)
(0.286318 -0.00921191 0)
(1.03023 -0.0120119 0)
(-0.135413 -0.0292332 1.01865e-19)
(-0.170681 -0.00601168 3.4717e-20)
(1.10033 -0.275812 1.33089e-20)
(1.29076 -0.0354219 -5.55317e-20)
(1.05927 -0.0151204 -1.16532e-20)
(1.14115 -0.0711725 5.19862e-23)
(1.04427 -0.0946439 0)
(1.00687 -0.00246116 0)
(-0.241982 -0.0193435 -2.14378e-19)
(1.34163 -0.217533 8.73089e-21)
(-0.148187 -0.00176451 -9.31312e-20)
(1.14926 -0.0551977 -6.22419e-20)
(1.17531 -0.454537 1.13032e-19)
(1.04769 -0.00394983 -1.72981e-20)
(-0.163766 -0.00638529 5.74758e-20)
(1.28801 -0.086463 0)
(0.680207 -0.13361 -3.69009e-21)
(1.04571 -0.0114025 -1.56935e-20)
(1.13763 -0.071832 -2.02534e-20)
(-0.0888442 0.0046484 -1.00836e-20)
(1.0001 -0.00652727 1.4281e-20)
(0.000513611 0.00571443 1.07573e-19)
(-0.0809251 -0.0349416 0)
(1.00477 -0.0222772 0)
(-0.127926 0.00186704 -8.28937e-20)
(0.131067 -0.0277767 1.32481e-19)
(0.125247 -0.028725 8.9336e-21)
(0.121244 0.0365601 6.5572e-20)
(1.04178 -0.0440953 1.49866e-20)
(0.980897 -0.0296173 -3.29512e-20)
(1.01573 -0.0167358 9.57227e-21)
(1.00095 -0.000836902 -3.37033e-21)
(0.748245 0.0344811 1.33027e-19)
(1.00743 -0.00364965 5.97442e-21)
(1.04461 -0.0128237 8.52713e-21)
(0.463958 -1.01644 0)
(1.23067 0.024894 4.62787e-20)
(-0.172522 -0.0053041 -5.97675e-20)
(0.999914 -0.00170715 -1.68579e-20)
(0.962685 -0.0264307 -7.57446e-21)
(-0.0506117 0.00699274 0)
(-0.195749 -0.0137563 -8.04474e-20)
(0.318259 -0.437762 -1.39371e-19)
(0.99423 -0.0450283 0)
(1.06372 -0.0365137 0)
(1.00002 -0.000559208 0)
(1.0105 -0.0227683 2.09735e-21)
(-0.178838 -0.011121 3.328e-20)
(0.783454 0.0398201 4.97194e-20)
(0.932943 0.0952204 0)
(0.905449 -0.0203972 1.57709e-22)
(0.942834 0.0934752 1.46087e-19)
(0.593827 0.0409604 3.17816e-20)
(-0.140463 -0.0239108 -9.3602e-20)
(1.02174 -0.00987738 -7.39126e-21)
(-0.209363 -0.0139678 1.92132e-20)
(-0.0409517 0.00860103 4.74121e-20)
(1.14316 0.00689124 1.29901e-22)
(1.31445 -0.195924 9.94283e-20)
(1.0051 -0.0771491 0)
(0.99992 -0.00183408 1.36977e-20)
(0.536998 0.0530242 0)
(-0.0817769 0.0064998 -1.92004e-20)
(1.05616 -0.228817 1.13069e-21)
(1.04132 -0.0942367 0)
(1.00439 -0.0212455 0)
(0.994218 -0.0431112 0)
(0.0843853 -0.162992 8.16582e-20)
(-0.295423 -0.0269426 -1.41903e-19)
(1.12046 -0.146458 0)
(1.00749 -0.00420974 -6.24711e-21)
(1.05152 -0.0540282 -1.07366e-19)
(0.939489 -0.316667 0)
(0.193654 0.0464616 0)
(1.18429 0.045008 -6.47879e-20)
(0.189162 0.0384017 4.32875e-21)
(0.217384 0.0471035 -2.33208e-20)
(1.2158 0.0657049 -3.9013e-20)
(1.04833 -0.0913663 7.01611e-21)
(-0.269566 -0.0228501 0)
(0.156087 -0.0293624 -1.66596e-20)
(0.718492 0.0448533 -1.14674e-19)
(-0.180245 -0.00688423 1.49205e-20)
(0.12642 0.0363472 -6.62539e-20)
(0.893728 -0.176834 1.4409e-20)
(0.999926 -0.00228154 1.0165e-20)
(1.15503 -0.0030376 1.04642e-19)
(0.0412781 0.0272193 2.82335e-20)
(1.04561 -0.0909349 -1.85918e-20)
(0.909416 -0.0931466 3.71165e-20)
(1.05823 -0.013041 -1.20252e-20)
(-0.284021 -0.0272031 -4.24225e-21)
(0.202745 0.046065 -1.10247e-19)
(1.2016 0.0825509 0)
(-0.12581 0.00248822 2.63396e-20)
(1.34352 -0.213186 0)
(0.957478 0.0963155 0)
(0.32385 0.0119359 0)
(1.01862 -0.020951 -7.07861e-21)
(-0.0454536 0.0151183 -1.0364e-22)
(-0.265438 -0.0206469 -2.06673e-19)
(1.20193 -0.00758759 -3.26006e-20)
(1.05852 -0.0188517 0)
(1.02977 -0.0112583 0)
(1.23386 0.0300978 9.69961e-20)
(-0.162648 -0.0207911 -8.06191e-20)
(1.00964 -0.0197434 0)
(1.08151 -0.573537 4.02877e-20)
(1.10374 -0.0552108 0)
(0.342813 -0.0812909 3.93576e-20)
(1.28457 -0.0892835 0)
(0.906699 -0.0976423 -5.01542e-20)
(0.99999 -0.00588039 -2.80723e-23)
(-0.20151 -0.0182 1.24855e-19)
(-0.145873 -0.0285182 1.07989e-19)
(1.21038 -0.110244 1.05822e-19)
(1.16512 -0.0774379 -5.92362e-20)
(1.12524 0.024019 4.39652e-20)
(-0.202956 -0.025467 1.29955e-19)
(0.402817 0.072481 0)
(0.999799 -0.00237016 -1.31357e-20)
(1.10035 -0.161312 -3.72597e-20)
(1.23734 0.0618974 0)
(1.10326 -0.00660167 -2.66748e-20)
(1.23004 -0.021956 4.13198e-20)
(-0.14848 -0.001438 -7.44017e-20)
(1.13347 -0.282924 4.06164e-20)
(0.995472 -0.0325693 1.87748e-20)
(0.357403 0.0739546 1.51159e-19)
(0.996686 -0.0445796 0)
(-0.0809147 0.00684644 0)
(1.00905 -0.0290942 -8.72152e-23)
(0.965216 -0.118781 3.55426e-20)
(1.24011 0.0296092 1.58323e-19)
(0.938596 -0.301626 0)
(-0.190772 -0.0171739 -1.46036e-19)
(1.00355 -0.0199502 0)
(0.99913 -0.109731 1.39969e-21)
(0.651126 -1.01831 0)
(-0.233892 -0.0191021 5.12578e-20)
(0.999598 -0.00946516 -1.70048e-22)
(1.1809 -0.0200043 -5.23487e-20)
(1.11308 -0.0299231 5.38997e-20)
(-0.223176 -0.0144597 -1.45309e-19)
(1.32649 -0.31309 0)
(-0.184618 -0.0182937 0)
(-0.0328862 0.0167177 2.32173e-20)
(1.22597 0.0137612 0)
(0.99906 -0.0580403 -6.22934e-21)
(0.536166 0.0837864 -9.83732e-20)
(-0.280745 -0.0247737 -5.2595e-20)
(1.22774 -0.0249991 -3.71718e-20)
(0.223736 0.0477598 1.46295e-19)
(0.978414 0.036678 -5.17007e-20)
(-0.288551 -0.0272616 0)
(1.22502 0.0110998 1.8639e-20)
(1.18252 -0.0173608 8.52752e-20)
(-0.0496616 0.00870539 0)
(1.12469 -0.00542759 -2.97114e-20)
(1.21826 0.0299398 0)
(-0.182052 -0.00685983 6.67322e-20)
(1.18004 -0.0316541 4.21112e-20)
(-0.240618 -0.019209 2.49205e-20)
(0.986815 -0.113756 -9.2101e-21)
(1.03758 -0.00768824 0)
(1.0799 -0.0677973 1.504e-20)
(-0.173212 -0.00547914 -5.61429e-20)
(-0.228953 -0.0182755 0)
(1.20654 0.00208321 -3.58677e-20)
(0.216199 0.000107774 3.17577e-20)
(1.21732 0.0276848 0)
(-0.111331 -0.00795724 1.87226e-20)
(-0.174725 -0.0219557 0)
(1.2462 -0.277575 -1.13183e-19)
(1.00003 -0.00105044 0)
(0.102093 0.0348082 -8.64471e-20)
(0.938209 -0.0747349 -5.83413e-20)
(1.22913 -0.05826 0)
(1.01809 -0.0202978 -1.37503e-22)
(1.32924 -0.319115 -3.79766e-20)
(1.03976 -0.0730457 8.76588e-21)
(1.09451 -0.269563 0)
(1.21467 0.0811926 0)
(-0.0288989 0.0130395 1.63359e-20)
(1.00112 -0.00737799 -1.06484e-23)
(1.09415 -0.152127 0)
(0.237247 -0.00288637 0)
(0.417833 0.0748093 0)
(0.801998 -0.299276 1.16115e-20)
(-0.159522 -0.0285701 2.78135e-20)
(-0.264772 -0.021493 1.62338e-19)
(1.05341 -0.085516 -2.14463e-20)
(1.00002 -0.00126682 9.75612e-22)
(1.05973 -0.0197562 0)
(-0.00490813 -0.046217 0)
(1.25587 -0.193083 1.09303e-21)
(0.98481 -0.180213 0)
(1.05964 -0.0138881 3.80821e-20)
(0.486207 0.0801579 -6.70275e-20)
(1.02626 -0.0764057 0)
(1.08565 -0.0337536 1.55826e-20)
(1.08164 -0.0548313 0)
(1.20161 0.0850854 1.05957e-20)
(0.254089 -0.00389442 1.56262e-20)
(0.770265 -0.241566 0)
(0.105524 0.0345365 6.98098e-20)
(0.831461 0.0316775 -5.4459e-20)
(1.19659 -0.207395 1.84971e-19)
(-0.258775 -0.0199777 6.00989e-20)
(1.10373 -0.00926941 -1.06258e-20)
(1.10508 -0.00579499 3.91834e-20)
(0.805582 -0.0897837 -3.71124e-20)
(1.242 -0.486055 7.42862e-20)
(-0.18233 -0.00714498 -6.14612e-20)
(1.02753 -0.084562 4.23576e-21)
(1.00114 -0.00796298 5.9077e-23)
(1.22812 -0.0324618 0)
(1.06615 0.000315384 0)
(0.997695 -0.0454558 -3.28243e-21)
(1.20409 0.00443325 0)
(1.00879 -0.0214084 -5.18866e-21)
(1.04695 -0.00974106 2.48005e-20)
(1.24543 -0.0383768 -8.61509e-20)
(-0.288287 -0.0257118 -3.30252e-20)
(0.962255 -0.0545986 2.20591e-20)
(-0.266351 -0.021604 1.25903e-20)
(1.24358 -0.0961662 -5.62904e-20)
(1.00042 -0.00542713 -2.93959e-21)
(-0.165442 -0.0206236 0)
(1.10194 -0.0101754 -8.77935e-21)
(-0.103275 0.00537994 -4.67195e-20)
(1.24484 0.0580942 1.70207e-20)
(1.08344 -0.033775 -4.03152e-20)
(1.17124 0.0322351 -5.40707e-20)
(1.07674 -0.0869192 2.38398e-20)
(1.25879 -0.0621678 0)
(1.20587 -0.111793 -6.13322e-20)
(-0.187656 -0.0121833 -8.9262e-20)
(1.08646 -0.031403 -2.67599e-20)
(1.05331 -0.0826417 -1.09421e-20)
(0.153856 0.0470514 0)
(0.115137 -0.160941 -2.12177e-19)
(0.446737 0.0738604 0)
(1.13829 -0.0343084 0)
(0.815286 -0.0935228 -5.69502e-20)
(0.985044 -0.0335965 2.65737e-20)
(0.999205 -0.0545495 0)
(1.11838 -0.141336 -4.95837e-20)
(-0.0886941 0.00529501 0)
(0.010631 -0.000276428 1.05772e-19)
(-0.04987 0.00825631 0)
(1.25557 -0.199216 6.9767e-20)
(1.20518 -0.331207 -6.82184e-20)
(1.25028 0.0135973 1.50519e-20)
(0.993564 -0.0217292 -3.64159e-21)
(1.00032 -0.0048694 0)
(1.15417 0.0237486 -1.30141e-20)
(1.07326 -0.0238736 0)
(0.817453 0.00162659 -1.42903e-19)
(1.0239 -0.00828391 -1.60104e-20)
(-0.257583 -0.0200425 -1.7821e-19)
(1.23277 0.0452509 0)
(-0.174165 -0.012027 4.21522e-21)
(1.02139 -0.000261339 -1.64371e-22)
(1.17819 -0.0437949 4.45733e-20)
(1.00472 -0.0309298 0)
(0.568992 0.93421 7.51362e-20)
(1.03843 -0.00584706 0)
(0.516803 0.0564242 -1.56808e-19)
(1.15788 -0.223891 0)
(0.99449 -0.0201133 0)
(1.18893 -0.115009 -1.3618e-19)
(1.01001 -0.0216376 -2.10113e-21)
(1.07488 -0.0887409 -3.73729e-20)
(1.03742 9.5471e-05 1.63169e-20)
(1.12315 0.0228142 1.43882e-20)
(1.24727 -0.210239 1.32715e-19)
(1.03488 -0.0878504 7.80245e-21)
(-0.107195 -0.00660655 3.30265e-20)
(1.00933 -0.0277467 -2.93491e-22)
(1.25531 -0.0641506 -4.8248e-20)
(1.19252 0.0359243 1.41422e-20)
(1.25697 -0.0729442 -7.28805e-21)
(1.01132 -0.0233718 0)
(0.827351 0.0442761 -5.07393e-20)
(0.880525 -0.0479239 1.85668e-20)
(0.384343 0.0723681 0)
(-0.134393 -0.00106743 5.28219e-20)
(1.16529 0.0416651 -3.21124e-20)
(1.2148 0.0518004 0)
(-0.129818 -0.021981 9.20406e-20)
(0.131632 -0.13973 0)
(1.08868 -0.0313877 -1.54332e-20)
(1.00121 -0.00750261 2.62578e-22)
(-0.0372818 -0.0400932 -1.07607e-19)
(0.984702 -0.0644621 1.22521e-20)
(1.04948 -0.164791 -5.50553e-21)
(0.34311 0.631607 2.45985e-20)
(-0.100685 -0.00493802 -9.98688e-20)
(1.23689 0.0349703 -4.75392e-20)
(-0.104923 0.00532675 4.44879e-20)
(1.03722 -0.00641738 1.15846e-20)
(0.655816 -0.293489 3.27679e-20)
(0.899902 -0.0841834 -3.17376e-20)
(1.25393 -0.0703753 -6.75516e-21)
(0.565216 -0.19082 1.46448e-19)
(0.999731 -0.00922261 -1.31674e-20)
(1.01842 -0.0176207 -6.24401e-21)
(1.22953 0.0461007 -4.6636e-20)
(1.20506 0.0822148 6.96766e-20)
(1.02633 -0.0871772 -3.42943e-21)
(1.24935 0.0112442 -2.62044e-20)
(-0.0595691 0.00848595 -2.171e-21)
(1.05417 0.00113422 3.41389e-20)
(1.06385 -0.00638788 3.50801e-21)
(0.228457 0.0468559 0)
(0.562424 -0.173656 0)
(-0.14773 -0.00144933 0)
(1.04136 -0.00358137 1.22411e-20)
(1.21522 -0.103151 -8.7301e-20)
(1.0034 -0.0271516 -8.1088e-21)
(1.04048 -0.00597278 1.02547e-21)
(-0.0431749 0.00955993 1.72712e-20)
(1.00112 -0.00694038 -2.51597e-22)
(-0.0301641 0.0122952 5.8014e-20)
(1.16916 -0.0760671 7.21453e-20)
(0.544809 0.0437187 3.25856e-20)
(1.03996 -0.0424352 -1.72278e-20)
(0.978994 -0.0347409 -2.80032e-20)
(1.17183 0.0341933 9.50188e-20)
(1.14557 -0.0538138 6.03678e-20)
(-0.195794 -0.022112 0)
(0.520175 0.0803548 -1.0416e-20)
(-0.0936332 -0.00362339 -4.16098e-20)
(1.034 -0.113169 -1.47906e-20)
(1.18081 -0.0257946 9.61054e-21)
(0.999902 -0.00187549 0)
(1.14186 0.00390239 -4.051e-20)
(0.421873 -0.416024 -9.09345e-20)
(1.16329 -0.115867 0)
(0.092002 0.0346608 0)
(1.18973 0.0364226 1.27713e-20)
(1.23697 0.0281072 0)
(0.852279 -0.236737 1.22883e-19)
(1.16078 -0.0961415 0)
(1.13616 -0.0307615 0)
(1.23959 -0.0987805 5.69013e-20)
(0.17815 0.0498634 4.25888e-20)
(1.07145 -0.0240516 0)
(1.1377 -0.0329951 -5.96947e-21)
(1.24118 0.0480213 -4.23453e-20)
(0.426334 -0.000815185 0)
(1.21096 0.0708364 -1.32772e-19)
(0.32433 -0.078258 1.26368e-19)
(1.01378 -0.00179882 -1.99548e-20)
(1.01802 -0.130925 0)
(-0.156886 -0.00349666 -2.99495e-20)
(0.957778 -0.0770916 -5.51925e-20)
(-0.286936 -0.0233319 0)
(1.0637 -0.00555125 1.27397e-20)
(1.24731 -0.203654 -1.95288e-19)
(0.998292 -0.0529449 0)
(1.17999 -0.0471119 1.07333e-20)
(1.06426 -0.017489 -2.92154e-20)
(0.453349 -0.49663 6.80864e-20)
(-0.0132108 0.0104709 -2.37504e-20)
(1.00318 -0.0128108 5.40234e-22)
(0.715034 0.772966 -5.55179e-20)
(1.00357 -0.0135955 -9.39596e-22)
(1.0001 -0.00133951 0)
(1.10672 -0.616358 7.91797e-21)
(-0.198682 -0.0181786 0)
(1.16272 -0.0323523 7.57114e-20)
(-0.180149 -0.011026 -7.36409e-20)
(1.2284 0.0609971 1.76628e-20)
(0.034045 -0.0597652 4.81535e-20)
(0.183245 -0.561838 1.69453e-19)
(1.0662 -0.0144336 -4.25944e-20)
(0.968103 -0.0717504 -1.18054e-20)
(1.03756 0.000107426 0)
(1.07673 -0.0194888 5.92675e-20)
(1.16296 0.0395495 -3.22877e-20)
(1.07692 -0.0209292 -6.28327e-20)
(1.15326 -0.461711 -1.20568e-19)
(0.559269 0.0529124 -1.0666e-19)
(1.16097 -0.0830326 0)
(1.13905 -0.0503027 0)
(0.986361 -0.0657876 0)
(1.06935 -0.0119108 -1.7526e-20)
(-0.048381 0.00744861 -2.03697e-20)
(1.01612 -0.00157167 -1.00762e-20)
(1.15092 -0.221482 0)
(1.21095 -0.104056 9.99815e-20)
(1.09425 -0.157655 0)
(-0.207059 -0.0141509 -1.69851e-19)
(0.581273 -0.0357298 8.19656e-20)
(1.20404 0.0566931 -7.18414e-20)
(0.270675 0.0502443 -6.01873e-20)
(1.0121 -0.167708 1.36099e-21)
(-0.282119 -0.0264997 -6.84498e-20)
(1.12641 -0.186943 -4.10746e-20)
(1.0392 -0.0064845 -1.62503e-20)
(1.00295 -0.0264262 7.9153e-21)
(0.981484 -0.0563248 -1.74198e-20)
(1.111 -0.169134 2.39493e-22)
(1.07863 -0.0696567 0)
(1.18764 -0.0385951 4.576e-20)
(1.07156 -0.0874162 -3.01466e-20)
(1.02188 -0.132427 -7.70034e-22)
(-0.254279 -0.0239869 0)
(1.04216 -0.00390296 -4.0703e-20)
(0.985616 -0.109421 0)
(1.19078 -0.2265 1.24753e-19)
(1.091 -0.00234731 0)
(1.00298 -0.165877 -3.26009e-23)
(1.23614 -0.0621181 9.27541e-20)
(0.971214 -0.0775269 1.39816e-20)
(0.477022 0.711879 0)
(1.02747 -0.013811 0)
(0.999755 -0.00246967 -7.54187e-21)
(0.536164 0.0518244 -8.92985e-20)
(0.049282 0.00484325 2.85345e-20)
(-0.0660582 0.00685604 9.22051e-21)
(0.399389 -0.225839 1.31182e-19)
(1.00661 -0.0410152 0)
(-0.134876 0.000861209 -1.44106e-20)
(0.843393 -0.0986506 0)
(1.00666 -0.0390377 2.80219e-21)
(0.203826 -0.127556 0)
(1.00451 -0.00130673 3.34265e-21)
(1.00531 -0.0292318 3.14567e-21)
(1.17363 0.027752 -1.79577e-20)
(1.0039 -0.0210672 -1.62856e-21)
(-0.111774 -0.00493933 -3.03e-20)
(1.08233 -0.0861309 -9.01912e-21)
(0.281097 -0.585584 -7.49447e-20)
(0.99279 -0.109767 0)
(0.518114 0.0524485 1.48271e-19)
(1.30242 -0.197333 -9.33378e-20)
(1.19165 -0.212447 -3.88084e-20)
(0.977942 -0.16465 0)
(-0.288709 -0.0255178 -1.71572e-20)
(0.757045 0.00719425 2.02914e-19)
(-0.187596 -0.0122802 -3.50385e-20)
(0.99828 -0.0564878 3.39831e-21)
(1.09203 0.0841748 -1.61732e-20)
(0.866081 -0.135548 1.36955e-20)
(-0.145311 -0.0222845 2.47958e-20)
(1.00003 -0.00198056 0)
(-0.0800946 0.00605712 -5.70213e-20)
(-0.276231 -0.0241039 -1.41458e-20)
(1.08263 -0.543232 0)
(0.598199 -0.0413286 5.74651e-20)
(1.00468 -0.0137222 9.51711e-22)
(-0.290127 -0.0205088 7.32497e-20)
(1.12862 0.00571368 0)
(1.17398 0.0299353 0)
(0.494123 -0.474044 1.33319e-21)
(-0.0320562 0.0112093 -5.59769e-22)
(1.03527 -0.0940122 8.36437e-21)
(0.988479 -0.0646721 -1.06151e-20)
(0.357522 -0.00605873 0)
(-0.18039 -0.0127461 -5.7852e-20)
(1.04866 0.468048 0)
(1.01552 -0.0174446 -2.64468e-21)
(1.32014 -0.334138 -1.58152e-19)
(0.0395247 -0.0139563 -1.29819e-19)
(0.0110992 -0.013435 1.12545e-19)
(1.00956 0.0888797 1.54249e-20)
(1.06985 -0.0892731 4.15173e-20)
(0.34199 -0.398521 1.34201e-19)
(0.656464 0.076085 4.52528e-20)
(-0.0391645 0.012112 -7.79217e-20)
(1.18304 -0.0233487 -1.04521e-20)
(0.330062 0.0090032 -7.11005e-21)
(0.847374 -0.0911996 0)
(1.04805 -0.0103189 -8.851e-21)
(1.00749 -0.168141 -2.7546e-21)
(0.996291 -0.0201875 4.30288e-21)
(1.06273 -0.171988 -2.51785e-20)
(1.20819 0.0702233 8.49853e-20)
(0.648831 0.0521508 -5.59504e-20)
(0.995536 -0.0179694 7.36065e-21)
(0.952707 -0.0739595 0)
(1.15896 -0.031545 -1.47133e-20)
(0.343884 -0.0104886 1.35346e-19)
(0.783263 0.0602949 -1.81702e-20)
(0.959037 -0.114722 -2.30706e-20)
(1.29604 -0.0379856 -3.07325e-20)
(-0.112112 0.0037204 -6.26266e-20)
(-0.184901 -0.0141838 0)
(1.09284 -0.0257762 5.07838e-20)
(0.228851 0.0395067 8.32366e-22)
(0.999864 -0.00180045 6.91231e-21)
(1.12474 -0.0244932 0)
(1.16505 -0.0297047 -5.45806e-20)
(0.657413 0.149947 0)
(-0.280123 -0.0251064 0)
(1.01207 -0.00801724 1.11904e-21)
(-0.158971 -0.00701896 0)
(1.23406 0.0398207 0)
(0.0122576 0.00767578 -1.09203e-19)
(0.56058 -0.0531931 2.26533e-20)
(0.950289 -0.294572 6.25382e-21)
(0.185087 0.0497485 -5.36338e-20)
(0.944214 -0.209896 4.32967e-21)
(0.139006 -0.132652 1.14379e-19)
(0.999739 -0.00792731 -4.19259e-21)
(1.09243 0.00875003 -1.45807e-20)
(0.860378 -0.130064 -1.57122e-20)
(1.23036 -0.0292258 3.90753e-20)
(1.10278 0.0114563 0)
(0.981059 -0.0548097 1.45471e-20)
(1.05926 -0.168192 3.06706e-20)
(1.17852 -0.000468347 8.00155e-20)
(0.256995 -0.0745752 -5.26289e-20)
(1.06768 -0.0125283 -1.86553e-22)
(1.04006 -0.0707523 1.0995e-21)
(0.256347 0.0219243 0)
(-0.140506 -0.00523442 0)
(-0.242595 -0.0239771 0)
(0.757314 0.0173896 -6.78264e-20)
(1.0295 -0.102685 -2.69302e-21)
(-0.0435513 0.00894727 0)
(1.08038 -0.0881762 9.40599e-21)
(1.01836 -0.0166856 0)
(-0.0982968 -0.00540351 -1.63375e-20)
(0.89225 -0.0655829 0)
(-0.165816 -0.00619546 0)
(0.0949725 0.0338792 -7.72549e-20)
(-0.156972 -0.00290731 -3.67774e-21)
(1.218 -0.0818345 5.83233e-20)
(0.201062 0.0481033 5.69926e-20)
(1.25137 0.00491975 0)
(0.898423 -0.32889 0)
(0.0227317 -0.0138255 -1.28357e-19)
(1.01515 -0.164535 4.09444e-22)
(0.997313 -0.00972652 0)
(1.0105 -0.0244516 -1.05113e-21)
(0.611797 0.0480335 -1.68659e-19)
(0.48984 0.0549337 1.07362e-19)
(1.27121 -0.126869 -5.64034e-20)
(-0.279882 -0.0271064 0)
(1.09927 -0.149531 0)
(-0.211852 -0.0260276 1.40158e-19)
(0.495257 -0.130147 -4.16903e-21)
(1.13723 -0.0262549 3.7544e-20)
(0.73888 -0.249769 0)
(0.817149 0.0152059 -8.21036e-20)
(-0.13076 -0.00263268 1.01444e-19)
(0.888488 -0.0695752 -4.30339e-20)
(0.974591 -0.111366 0)
(1.13581 -0.0486283 0)
(1.00023 -0.000330994 -7.5219e-21)
(1.24567 0.022272 -1.56983e-19)
(1.03665 -0.124532 2.12065e-21)
(1.31096 -0.0600343 -1.18395e-19)
(1.1127 -0.159503 3.19911e-20)
(1.00017 -0.00350533 1.50507e-22)
(0.989348 -0.0629201 0)
(0.0111869 -0.0561283 0)
(0.984101 -0.019646 -2.24916e-20)
(1.03762 -2.5598e-05 -1.87829e-20)
(1.01343 -0.00394492 7.17607e-21)
(1.243 0.024058 2.69915e-20)
(1.1295 -0.00767258 0)
(0.901355 -0.181966 -8.9944e-20)
(1.15672 0.0225078 2.89144e-20)
(-0.286187 -0.0262643 -1.45469e-19)
(0.972264 -0.0754958 -2.63226e-20)
(1.02407 -0.0090772 -8.33168e-21)
(1.02413 -0.0556609 -4.15848e-21)
(0.528957 -0.139756 -9.33947e-20)
(1.08476 -0.00711495 -1.58718e-22)
(-0.297986 -0.0280318 0)
(0.995277 -0.0129056 -2.64493e-21)
(0.320952 0.0665931 6.07229e-20)
(1.03518 -0.0226587 -2.28755e-20)
(-0.1141 0.00345783 2.70666e-20)
(-0.162307 -0.010927 -1.80962e-20)
(1.00015 -0.000190361 2.05908e-21)
(0.694061 -0.440822 -1.71832e-19)
(0.455814 0.0782826 1.00649e-19)
(0.913424 0.0641247 8.15265e-20)
(-0.0459747 0.00923764 1.0078e-19)
(1.14614 -0.0604477 2.35888e-20)
(1.26098 -0.14104 0)
(0.95647 0.0926895 -1.62145e-20)
(-0.157176 -0.00951291 -6.6316e-20)
(1.04141 -0.00476181 1.61033e-20)
(1.18249 -0.0290312 -8.71482e-20)
(1.30688 -0.0673674 0)
(1.03206 -0.0878814 -1.18888e-20)
(0.268011 0.00310404 -2.32292e-20)
(1.03204 -0.000154469 -1.49205e-20)
(-0.294177 -0.0269851 1.47951e-19)
(-0.170067 -0.00597725 0)
(-0.099546 -0.00343797 -3.97496e-20)
(1.10528 -0.168323 4.30531e-20)
(0.591344 0.0360777 1.35179e-19)
(0.200663 0.0191646 -1.51415e-19)
(1.06245 -0.0180578 -2.89298e-20)
(-0.300221 -0.0263759 1.36637e-19)
(1.00752 -0.0388667 -2.60662e-22)
(1.08581 -0.00420847 0)
(-0.0809108 0.00756767 -9.57458e-21)
(0.109146 -0.390056 1.1553e-19)
(0.983273 -0.0193622 3.0318e-20)
(1.16987 -0.217711 -3.33398e-20)
(0.87577 0.0970924 6.77607e-20)
(0.973402 -0.107104 1.47216e-20)
(-0.000294878 0.0094601 -5.45486e-20)
(0.994892 -0.0351813 1.17458e-20)
(1.23709 0.0373672 0)
(0.997658 -0.00955747 2.658e-21)
(0.846379 -0.0220961 3.77213e-20)
(0.889785 0.0396575 5.18053e-20)
(0.956163 0.566928 1.54087e-20)
(1.06628 -0.0156978 3.09003e-20)
(1.00008 -0.00017584 -3.44894e-21)
(0.618124 0.0760759 0)
(1.1552 0.0321138 0)
(1.24601 0.0426782 9.82422e-20)