/*--------------------------------*- C++ -*----------------------------------*\
| =========                 |                                                 |
| \\      /  F ield         | OpenFOAM: The Open Source CFD Toolbox           |
|  \\    /   O peration     | Version:  v2012                                 |
|   \\  /    A nd           | Website:  www.openfoam.com                      |
|    \\/     M anipulation  |                                                 |
\*---------------------------------------------------------------------------*/
FoamFile
{
    version     2.0;
    format      ascii;
    class       volScalarField;
    location    "350";
    object      p;
}
// * * * * * * * * * * * * * * * * * * * * * * * * * * * * * * * * * * * * * //

dimensions      [0 2 -2 0 0 0 0];


internalField   nonuniform List<scalar> 
13917
(
-0.0959635
0.00354481
-0.0732713
-0.0177795
0.00288231
0.00265625
-0.0279705
0.0154556
-0.035068
-0.115193
0.013321
-0.0118097
-0.00904723
0.0224396
0.000558761
-0.0940582
0.000550465
0.0112293
-0.0570937
-0.0995559
-0.00416813
-0.00131302
-0.0377686
-0.00119472
-0.0154011
-0.00207357
-0.0248667
-0.116248
0.00444251
0.000108984
-0.114518
-0.0532647
-0.0147197
-0.0914472
0.00102822
0.015758
-0.00628136
-0.00207584
-0.0287699
-0.00989643
0.000951906
0.0011991
-0.0312153
-0.0599343
-0.0590528
-0.0036836
-0.00477229
-0.16234
-0.0153945
0.000996034
-0.0115924
-0.0236441
-0.0838989
-0.00660915
-0.00732406
-0.0263015
-0.110105
-0.0367524
0.00115081
0.00100978
-0.0253926
0.00244031
6.78326e-05
-0.015364
-0.089992
0.000873404
0.00652153
0.0155488
0.0127421
-0.0864416
-0.0855168
-0.0906368
-0.0164468
0.00112412
-0.00445844
-0.0122954
0.00146068
0.00108698
-0.0123717
-0.0149003
-0.00335441
0.000484022
-0.016219
-0.0823999
-0.00638117
0.0143468
-0.0525287
-0.0061988
-0.00946902
0.000551227
0.00063991
-0.0319617
-0.0167199
0.000873573
-0.00589539
0.00558516
-0.0234259
4.47286e-05
-0.00633055
-0.010885
0.00032285
0.000291172
-0.00342913
-0.000149644
0.00135547
-0.0741399
-0.114331
0.00232441
0.00120959
-0.0281114
-0.00914757
-0.0922885
0.00348766
-0.167995
-0.0906932
-0.0109014
-0.0560486
0.000610504
-0.0696994
-0.0154271
0.000505992
0.00103195
0.00767453
-0.0419822
-0.0806532
-0.0826155
-0.0157942
-0.00395949
5.63846e-05
-0.0438766
-0.0406306
0.00848845
-0.0787242
-0.0104426
-0.0558966
-0.0320002
-0.0047726
-0.076583
-0.00066484
-0.00208637
0.0108463
0.0010704
-0.0751105
-0.00288578
-0.0151809
0.00131776
-0.0851511
-0.00783699
-0.159571
-0.00673495
-0.00964641
0.000303774
-0.0149536
-0.0155667
-0.0259662
0.000471323
-0.000115769
-0.0789883
0.000514501
0.000583761
-0.00515995
-0.0988634
-0.00278996
0.00372468
-0.0985479
-0.0142533
-0.0847778
-0.126414
3.68614e-05
5.67966e-05
-0.000861454
-0.0829422
-0.0351737
-0.0139927
-0.0181072
0.000472451
-0.0182404
-0.020506
-0.0402295
-0.00236085
-0.0302393
-0.000999802
-0.0112609
-0.0394874
-0.0700697
0.00899403
-0.0110379
-0.0364164
0.000131388
0.0125953
-0.016698
-0.0577775
-0.0417288
-0.0986849
0.000845029
-0.0821044
-0.0173641
-0.0785684
0.00097362
0.000269934
-0.00582275
-0.0881268
-0.0769173
-0.00501378
-0.0120156
0.00175415
-0.010005
0.00106088
-0.0230385
-0.00303294
-0.000363063
0.00362169
0.0039907
-0.162615
-0.055483
-0.00149229
-0.102864
-0.00355307
0.000769335
0.000771142
-0.147357
-0.0405359
-0.0340994
-0.00948499
-5.75843e-05
-0.0342405
-0.0834252
0.000754521
0.000743735
0.000493057
0.000786752
0.000788252
-0.0913601
-0.150145
-0.00234228
5.83195e-05
-0.0284461
-0.0876574
0.000625167
-0.00937591
-0.0176538
-0.0753237
-0.0419836
-0.102712
-0.0124321
-0.003018
-0.114735
-0.0296413
0.00271684
-0.0483073
-0.00533661
-0.151852
-0.0156916
-0.0162814
-0.0196965
-0.00191999
0.000846798
-0.0158498
0.00201789
0.00116054
-0.081361
0.00677369
0.00103005
0.000728449
0.000563353
0.000728002
-0.0158074
-0.00926428
-0.0270299
0.00107004
-0.0752697
-0.114907
-0.00938447
0.00172833
0.00794803
0.000738938
-0.00771535
-0.0813909
0.000743827
-0.0867944
0.00110519
-0.0940223
0.000412057
8.1621e-05
-0.00176392
-0.0023294
-0.0574471
-0.0013639
-0.0178805
-0.0150724
0.00288315
0.00139908
-0.00805773
-0.0749897
0.000632795
-0.0333842
0.00223022
-0.0097438
0.002368
-0.0129641
0.000960647
-0.00136559
-0.0155125
0.00458617
-0.0162754
-0.0130396
-0.00921748
-0.0777594
-0.0879819
0.000156578
0.000473262
-0.0102244
-0.00393612
-0.0655563
-0.1086
-0.0173823
0.00031504
0.0050493
0.00159071
-0.082934
-0.00110269
-0.0730914
-0.00864672
0.000492749
-0.0238667
-0.000232932
0.00428147
-0.0567603
0.000500127
-0.0841286
-0.00624649
-0.0499023
0.000748588
-0.0938884
-0.0012623
-0.0172882
0.00183862
0.000229396
0.000650607
-0.0499756
-0.0772845
-0.00645483
-0.000104771
-0.0917656
-0.0778995
-0.0448114
0.0255751
0.000727728
-0.003086
-0.0749713
0.0044658
0.000731938
0.00234197
-0.00904106
-0.00236297
-0.0171893
-0.0396068
-0.00626528
-0.00744125
-0.0478961
-0.0961506
8.67159e-05
-0.00678887
0.00330208
-0.0656054
0.00057532
-0.0977052
-0.0478308
-0.00407274
-0.00720524
-9.28982e-05
0.000689456
-0.0268341
0.00111767
-0.0378137
0.00429561
0.00300141
-0.00939302
-0.0810033
0.000754094
-0.0934599
-0.042836
0.00111701
-0.0228392
-0.000955936
0.00154788
0.000562334
-0.103878
0.000644113
-0.00802683
-0.0298744
-0.00628223
-0.00547589
-0.0789552
-0.0710817
-0.00892191
-0.0575276
-0.00384708
-0.00646911
-0.0722392
-0.00636663
-0.0313001
-0.0135668
-0.00266456
-0.00278567
4.71734e-05
-0.00824134
-0.0136481
-0.00697528
0.000263588
-0.00152288
-0.0278762
0.0109112
0.000729909
3.53519e-05
-0.064958
-0.000670338
-0.00231829
-0.00817191
-0.0112441
-0.0204712
0.00131136
-0.0585102
-0.0813048
0.000925184
0.000718487
-0.0037415
-0.00280575
0.000737086
-0.00217558
0.000727403
0.000906542
-0.138569
-0.00393124
-0.0107631
-0.0754908
-0.0320854
-0.00036091
-0.0145574
-0.0822438
-0.00516488
-0.0794577
0.000738739
-0.00960531
0.000784591
0.000810007
-0.00623085
-0.000523465
-0.00179638
0.00103191
-0.075395
-0.00944169
-0.0382848
0.000982554
-0.00302856
-0.0145574
-0.0398521
-0.00915822
-0.0267984
-0.000423297
-0.00257735
-0.00154328
-0.00113554
-0.00036421
-0.00511144
-0.0781183
-0.0255968
-0.000368086
-0.00447035
-0.064577
-0.0091284
-0.0322042
-0.0596549
-0.100325
-0.0332806
-0.0800587
0.000789782
0.00270133
-0.000677836
0.000517952
0.001021
-0.00519075
-0.0501747
0.000606891
-0.00678585
-0.00625012
-0.0329182
-0.00654099
-0.0677786
-0.0434449
0.00148331
0.00187271
0.0102247
-0.0100234
-0.00674723
0.0182765
-0.0306281
-0.0157225
-0.0717897
-0.00645227
-0.00969469
-0.0193296
-0.00189101
-0.0774515
-0.00270023
0.000806616
-0.0287455
0.000739543
-0.00333938
-0.0135124
-0.0757855
-0.0340259
-0.00524916
-0.0213609
0.00140257
-0.0347625
0.0249913
-0.00662235
-0.00709742
-0.00518677
-0.021609
-0.0234506
0.000341855
0.000564092
0.000199067
-0.00282863
0.00229674
-0.0215783
0.000630184
-0.0429309
-0.00190365
-0.00175526
-0.0137013
-0.102941
0.000517663
-0.025918
0.00114006
-0.0377157
-0.0354941
0.00190157
-0.0196015
-0.0117674
-0.0123736
0.00860729
-0.0785232
-0.142552
-0.0756663
0.000247796
-0.00137305
0.00158496
-0.0100152
-0.0900734
0.00075194
-0.00909147
-0.017939
-0.0818882
-0.0101653
-0.0309035
-0.115756
-0.000284815
-0.0562889
3.26355e-05
0.00137783
-0.0818777
0.000729753
-0.0722462
0.000126579
-0.00914591
-0.00135135
-0.0669463
0.00234847
0.00068323
-0.0611017
-0.0312704
-0.00591587
-0.0839824
-0.0784621
-0.0988781
0.000497493
-0.0826946
0.000186718
-0.0110062
0.001593
0.00140136
0.000573632
0.000448249
-0.0301699
-0.0298524
0.000733775
8.59216e-05
-0.00748481
-0.083698
-0.0057726
-0.0518797
-0.00660161
0.000676693
0.00057509
-0.00822019
-0.0776011
-0.110205
-0.0471865
-0.0221617
-0.0695541
-0.0868679
0.000605978
-0.0486978
-0.00854304
-0.0636366
-0.00980649
-0.0801985
-0.00277514
0.00246261
-0.0155395
-0.00563127
-0.0285439
-0.0947143
0.000581952
-0.0270094
0.000827282
0.000378687
-0.097119
-0.0126259
0.00101971
-0.0401915
-0.00932353
0.0012771
0.000237625
-0.0968163
-0.00592895
0.00210562
0.00074288
0.000947745
-0.0642851
0.000212421
-0.0448214
0.000435083
-0.00147144
-0.0198917
-0.0526167
-0.00653694
-0.0751671
-0.0716866
0.00392768
-0.0164246
-0.000284408
0.000836948
-0.102848
-0.0716683
-0.00431682
-0.00669991
0.0026549
0.000481556
-0.000345806
0.000913779
-0.0346943
-0.0149363
-0.0741117
-0.0292949
0.00638803
0.0237689
0.00489957
-0.0197984
-0.0438011
-0.0874909
0.000945754
0.00349692
0.000737741
-0.00157312
0.000519744
0.000515923
0.00147847
-0.0040313
-0.0848902
-0.0450263
-0.000490604
-0.0556547
0.000577165
-0.108042
0.00112613
0.000144303
-0.0763825
-0.0363286
-0.00348386
-0.016498
0.000696484
0.000405636
-0.0195582
-0.0294361
-0.00186144
-0.0773167
-0.0149615
-0.014102
-0.00117246
0.00373201
-0.076299
-0.0211408
-0.000154811
0.000901558
-0.0818157
-0.028072
-0.0172522
-0.0784077
-0.0225114
-0.00128765
0.000188827
-0.0056589
-0.076612
0.0024326
-0.027763
-0.0191175
-0.0256725
-0.0641871
0.00142123
-0.0414159
-0.044732
-0.00580683
-0.0146621
-0.0002667
-0.0288007
0.00187708
-0.0715302
-0.00887008
0.00129976
-0.0780739
0.000232977
-0.0173861
-0.00702906
0.00206393
-0.0202994
-0.0713138
0.000483574
-0.055838
-0.0766403
-0.000964721
-0.0105
-0.00939816
-0.00411557
-0.00922036
-0.0154619
0.00345783
0.000772186
-0.00862798
-0.0437323
-0.000205098
-0.0721675
-0.034432
-0.0327989
-0.0429751
-0.00289242
-0.0558559
-0.0232387
0.000619208
-0.0372371
-0.0130271
-0.0437925
-0.000575462
-0.000454078
-0.000280815
-0.0871214
-0.0142107
0.00118909
-0.0489284
-0.00186672
-0.00024392
-0.0278403
-0.0189485
0.00516294
-0.022909
-0.00263263
-0.074563
-0.0157526
0.00176369
-0.0734347
0.00138839
0.00248202
0.000596479
0.000481603
-0.015659
-0.00797388
0.00150064
-0.000530937
0.000724263
0.000326141
0.00549667
-0.0074503
-0.0336287
0.000744646
-0.0481083
0.000140403
-0.0806662
0.00556704
0.000743582
-0.106103
-0.0142095
-0.0818795
-0.0296292
0.00748229
0.00117115
0.000326352
-0.010436
-0.0866215
-0.0276465
0.00636761
-0.0160305
-0.00914219
-0.0437278
4.29196e-05
0.00207286
-0.0160923
4.98757e-05
-0.12125
-0.0270016
0.00718559
-0.0544367
-0.00723458
0.000711117
0.000371186
-0.00441679
-0.000205295
-0.00611721
-0.00961154
-0.00121917
-0.0487591
0.000707425
0.00735145
-0.00543045
-0.0920343
-0.0807517
0.00431713
-0.0749163
-0.0302532
-0.0924397
-0.00594774
-0.000847858
0.00125851
-0.012383
-0.0118782
-0.00509584
-0.0283656
-0.00516515
0.0138527
-0.00625355
-0.0796849
-0.0142217
-0.0426583
-0.00604976
0.000462221
-0.0096496
-0.0138633
0.0014569
-0.0235653
0.000753965
-0.0758799
-0.0349065
0.00139044
0.000232246
-0.0115213
-0.000438438
0.000383078
-0.0789538
-0.000964072
-0.0123462
-0.00289722
1.52689e-05
0.000434895
-0.00362524
-0.0564605
0.00213627
-0.00098367
-0.00164752
-0.0519182
-0.00374273
-0.0496748
2.68445e-07
-0.010777
0.000743061
0.000267726
-0.0963367
0.000335421
-0.0179827
-0.0545619
-0.0950733
0.000731002
-0.0146451
-0.0763458
0.0011642
0.000409645
-0.00119626
-0.0810238
-0.0111848
-0.0621903
-0.0123977
-0.0764613
0.000295679
0.035659
0.000184784
0.000616737
-0.00325557
-0.00519089
0.000195306
-0.0782456
-0.00723159
-0.00226866
-0.00181359
0.00116774
0.00124017
-0.0359118
-0.00861548
-0.0910502
-0.0110919
-0.0590892
-0.0146553
-0.0249564
-0.0783091
-0.00527242
-0.0365105
-0.010327
-0.0772611
0.00204407
-0.0174893
0.000744416
0.0013395
-0.00686601
0.000751063
0.000932738
0.00104172
-0.0105578
-0.0203661
0.000616975
-0.0074681
-0.0524783
-0.118171
-0.0882963
-0.0533915
-0.000583789
-0.00248554
-0.00512904
-0.0737558
-0.023073
-0.075069
0.000785962
-0.000864105
-0.00781786
-0.00441902
0.000782358
0.000783805
-0.00693231
-0.0196963
-0.00238289
-0.109977
-0.00574433
-0.0016731
-0.0863134
-0.0105182
-2.58161e-05
0.00220618
-0.0976427
-0.00902568
0.000536366
-0.00309409
0.000825383
0.00021342
-0.0729975
0.00127299
-0.0209358
-0.0184473
0.00914344
-0.000453903
0.00105211
-0.00633718
-0.00312367
-0.012578
-0.0869335
0.00137759
-0.00208617
0.000652086
-0.0117809
-0.000454288
-0.0600447
-0.0455293
-0.0145191
-0.0817424
-0.111607
-0.00135527
-0.0609375
0.00102536
-0.0782653
0.00103089
0.000973335
-0.021279
-0.0319838
-0.0119844
0.0355273
-0.0260205
-0.0747082
0.000628799
-0.00418023
0.000755436
-0.00536785
-0.0462246
-0.00533019
-0.012087
0.00859631
-0.0887899
0.00105853
-0.0388611
-0.0862291
0.000120188
0.000756038
-0.00821965
-0.10889
-0.0120068
0.000159804
-0.0277104
-0.0140237
0.000261238
0.00379025
-0.00228896
-0.0122385
-0.0116491
0.000698482
0.000597852
-0.0187529
0.00170097
-0.078442
-0.0169115
-0.0137977
0.00110551
-0.098055
8.21641e-05
0.00044847
-0.0039047
-0.0202688
-0.0185565
0.000716854
-0.0782424
0.00132045
0.000242634
-0.0444249
-0.00273902
0.00245309
-0.0455786
-0.0636948
-0.0560003
-0.0299217
0.00172966
-0.00390906
-0.0858577
-0.00218559
-0.0338471
0.000766397
-0.0205143
-0.0268254
-0.0143275
-0.0224234
0.00137525
-0.0186293
0.00902345
-0.00590844
-0.0825822
-0.0244931
-0.0133424
-0.0273908
0.000480416
-0.0632405
-0.00874283
-0.00451189
0.00204472
0.00143795
0.000651204
-6.65875e-05
-0.0123371
-0.0754593
-0.00204599
-0.00677165
-0.0301746
-0.00562314
-0.00857125
-0.00662865
-0.0582627
0.000119444
0.000275261
0.00594284
0.00110736
0.00256426
-0.0784499
-0.0157344
-0.0111613
-0.0363199
0.00118215
-0.00651412
-0.0867424
-0.0781
0.00290827
-0.0185081
-0.00372809
-0.0765459
-0.010233
-0.00701863
-0.0864486
0.000301691
-0.0314908
-0.113801
-0.0708292
-0.0198819
-0.0314452
0.000873489
-0.00172782
-0.00804583
-0.00863733
-0.00159385
-0.0716732
0.000452709
-0.0279363
0.00042877
-0.0553072
-0.0921094
-0.00813601
-0.0288625
-0.0245284
-0.0112821
-0.0596692
-0.00158938
-0.00862323
-0.00889504
-0.0770346
-0.0457002
-0.0889602
-0.0112475
-0.0822842
-0.0112758
0.000720795
0.00520701
-0.026121
0.000587002
-0.00351326
0.00478668
-0.00909485
-0.00851201
-0.00287031
-0.00248646
-0.0207493
-0.045092
0.0348445
-0.00526802
0.0015778
0.00796033
-0.00579567
-0.00483892
0.00131363
-0.0741341
-0.0667385
0.000396221
-0.0420456
0.000440936
-0.0084081
-0.0755694
-0.0119342
-0.00226929
0.000870055
-0.0117808
-0.00463893
-0.00555053
-0.0743978
0.000326636
-0.0256427
0.00139849
0.000701561
-0.0521732
-0.108182
-0.0674787
-0.0170918
-0.00133135
-0.00227229
-0.00726084
-0.0589349
-0.0757116
0.00123964
-0.00531526
-0.00501586
-0.0442262
-0.0289894
0.000555552
-0.00781851
-0.0600379
0.000777396
-0.00704296
0.000769616
0.000479704
-0.0168652
-0.0906122
-0.0279238
0.00166712
-0.113366
-0.00958086
0.000336619
0.00636658
-0.00334524
-0.00748103
-0.0506808
-0.0124086
0.000810315
0.0031394
-0.0521513
-0.00963985
-0.0151525
0.000700488
-0.00493721
-0.000269854
-0.00918399
-0.0209827
-0.0111325
-0.0776698
-0.0100624
-0.0233317
-0.0380113
-0.0110695
0.000311136
-0.00581319
-0.0311705
-0.0710479
-0.118637
-0.00485548
0.000728499
-0.0769849
-0.00236405
0.00140664
-0.0171623
-0.0100743
-0.00900517
-0.00248569
-0.0753185
-0.0202784
-0.00407847
-0.0113384
0.0363253
-0.0777656
-0.0858898
0.000148459
-0.00217619
-0.0300202
0.000606292
0.000910327
-0.00204773
-0.0182912
-0.0122247
-0.0308535
-0.015069
-0.0767309
-0.00800979
0.000317257
-0.0209294
0.000718776
-0.0707646
-0.00783888
-0.000274005
0.0126259
-0.0515299
0.0351344
-0.0714874
-0.00712268
-0.0310452
-0.00032133
0.000373547
0.000815143
-0.00783535
-0.00895951
-0.0701821
-0.0116622
-0.0286021
0.0019589
0.00117916
-0.0144042
0.000700491
-7.23992e-06
-0.076025
0.000677016
0.00250934
-0.0516613
-0.00796278
-0.0448863
-0.0315484
-0.031014
-0.00717202
0.00203671
-0.00129664
0.000517633
0.00404088
0.00244892
0.00150436
-6.38148e-05
0.000860147
0.000855842
0.00971223
-0.00293209
-0.103218
-0.0289204
0.00108306
-0.00893222
0.000586338
-0.0270049
0.000373898
-0.031752
0.00247667
0.00156029
0.00124459
-0.0118723
-0.00180183
-0.0848284
0.000453553
0.000661467
-0.0136422
0.00244359
0.000565403
-0.0910184
-0.00414942
-0.000183013
-0.000348654
0.00263114
-0.0777526
0.00085425
-0.0197393
0.0013471
0.000822428
0.000926699
-0.0875125
-0.0106996
0.000393442
0.0284784
0.000575767
-0.0921535
0.000304886
-0.00284345
-0.0106302
0.000935364
-0.0770752
0.000661139
0.000713436
-0.0535025
-0.00718559
-0.000262199
0.000706235
0.000911378
-0.0453022
-0.0146009
0.00135608
-0.000627432
-0.0079495
-0.000970748
-0.00073594
-0.000752049
-0.0116924
-0.00869341
-0.0266419
-4.71713e-05
0.00108989
-0.0152386
-0.00600689
-0.00747871
-0.00969041
0.00815083
0.000605989
-0.0468267
-0.00133282
0.0055586
0.000426599
-0.00910548
-0.00218132
0.000704462
-0.00889829
0.00024357
-0.0322571
0.0368575
0.0014565
-0.0785432
-0.106898
-0.0511805
-0.0753052
-0.00198743
-0.00966531
-0.0226945
0.00479241
0.000860434
-0.0846332
0.000526323
-0.064615
-0.0284064
-0.0247802
-0.0431826
0.0128098
0.0115918
0.000324151
-0.0458819
-0.00169239
0.00276417
-0.025098
-0.0871802
-0.101546
-0.0100405
0.000629442
-0.00964675
0.000573148
-0.0238097
0.00294396
-0.00941527
-0.0032191
0.0018731
-0.0798331
0.000919464
-0.03885
-0.00372617
-0.0190169
-0.0101913
-0.00674717
0.000444792
-0.0758435
0.000401832
-0.0113373
-0.0173172
-6.84389e-05
-0.0244889
0.00130833
-0.0270586
-0.0787375
-0.00936852
-0.00148374
-0.0164622
0.00249988
-0.0210332
0.00264564
0.000456379
-0.0294424
0.000492577
-0.000101422
-0.0309004
-0.00699808
-0.0396784
-0.0088225
-6.46904e-05
-0.00548263
0.00259333
-0.00289754
-0.00892158
0.00142824
-0.0116812
-0.000481877
0.000381171
-0.00784279
-0.0121746
-0.00618488
-0.0750901
0.000320592
-0.0176719
-0.00790485
0.00146838
-0.0751865
-0.0056767
0.00058092
-0.0797869
-0.0538776
-0.092494
0.00129956
-0.0808319
-0.0118454
-0.00406873
-0.0846591
-0.00404419
-0.00031758
-0.0885461
-0.0023827
0.00385042
-0.0944637
-0.00120718
-0.0450645
-0.014313
-0.0764077
-0.0111505
-0.0101334
-0.00801409
-0.0886712
-0.0114506
-0.00922579
0.00105365
-0.000299359
0.000349926
0.00124311
-0.00874368
0.00476236
-0.00711486
-0.00551383
-0.0811381
0.00808648
0.021149
-0.0254176
0.000472975
-0.0436721
-0.0143167
-0.0036571
-0.0688547
0.000630663
-0.0386203
-0.0892999
0.000433431
-0.0760562
-0.00906541
-0.0801767
-0.0202719
-0.0110169
0.00102052
-0.0118155
-0.0142863
-0.0109887
-0.0166908
-4.34761e-06
-0.00525887
-0.0841683
-0.0183739
-0.074165
0.000160137
-0.0167474
-0.091156
0.00126904
-0.0147014
-0.0744407
-0.00648804
-0.0103185
-0.0701704
0.00490486
0.031145
-0.0188905
-0.0700556
-0.0076558
0.0063873
-0.0851639
-0.0939333
-0.0237057
-0.00312553
-0.0338648
-0.0260087
-0.0148755
-0.00858611
-0.0340169
-0.0171976
-0.00935901
-0.0168809
0.0012212
0.0279884
-0.0798854
0.00102756
-0.0107857
-0.0109406
0.00174057
0.00050842
-0.0779884
-0.0159506
0.000868938
0.00118194
0.00106149
-0.000644228
-0.0253177
-0.0303557
-0.00906262
-0.0761253
0.00139283
-0.075776
0.00085402
-0.0876843
-0.077067
-0.0706154
0.000696136
-0.0110778
-0.00112017
0.00584647
-0.00841998
-0.0506082
-0.0871762
-0.0118549
4.0411e-05
-0.0141397
0.00142236
-0.0468126
-0.0811192
0.000368557
-0.000522755
-0.0116669
0.0168011
0.00796327
0.000825976
-0.0108186
0.00497395
-0.00247951
0.000645659
-0.00508273
-0.0766503
0.000758495
0.00261151
-0.0747204
-0.0263063
-0.00345002
-0.0728769
-0.00461035
0.00177646
-0.110663
-0.00785031
-0.00492068
-0.0435351
-0.0503297
0.00930468
-0.0812471
-0.0138093
-0.0242741
-0.0079762
0.000554229
-0.0652974
-0.0341552
-0.00279459
-0.0435212
-0.00667299
-0.0266219
-0.0269673
-0.119404
-0.0127558
-0.0576316
4.90866e-06
-0.0163023
-0.00906852
-0.00139712
-0.07539
-0.00691141
0.00065739
0.00474579
-0.0692267
-0.00451327
-0.0172258
-0.0935815
9.78842e-05
-0.00604688
-2.87591e-05
-0.00502736
-0.0456497
-0.0110874
-0.0937895
-0.029664
-0.027359
-0.00171721
-0.0143994
0.00648813
0.00139862
0.0275366
-0.00877194
-0.00512736
0.000637471
0.000729302
-0.0792871
-0.0625507
-0.00529887
-0.0560173
0.000208654
-0.00327641
-0.00050467
0.000502728
0.00104698
-0.00779185
-0.0197842
-0.0942815
0.0336633
-0.00978983
-0.0150673
0.0161546
-0.00733753
-0.0751899
-0.00054072
-0.0623027
0.0360343
-0.00314648
0.015909
-0.0852273
-0.00465361
-0.00532105
0.000574982
-0.00915401
-0.036191
-4.53277e-06
-0.0155839
-0.00141034
-0.0024723
-0.0703719
-0.00840284
-0.0180625
-0.00578424
-0.000547529
-0.071845
-0.0244742
4.29631e-05
-0.0479434
8.49805e-05
-0.0867797
-0.0321164
-0.00458011
-0.00326187
-0.105455
-0.00820827
-0.043728
-0.0156872
-0.082427
0.00126305
7.50611e-06
0.00316716
-0.0893713
-0.0102779
0.000496952
0.000459141
-0.0675115
-0.106948
-0.0154478
-0.0107397
-0.00207172
-0.00217
-0.0773448
4.82606e-05
-0.0816931
-0.0506119
9.56269e-05
-0.0154126
0.00160871
0.00184717
-0.0213946
0.000908777
-0.0152589
0.00264627
-0.00183331
-0.0150031
-0.00546306
0.00118414
-0.0971377
-0.00306625
-0.00916636
-0.0827545
-0.00745116
0.00120005
-0.0213557
0.000107117
0.00102649
-0.00112716
-0.0285369
0.00760862
0.00344144
0.000581099
-0.00630653
-0.00934651
-0.0249005
-0.0145076
-0.00833352
0.000728277
0.000557149
-0.01088
-0.027949
-0.047158
-0.0752416
-0.115155
-0.00131343
0.000712664
-0.00841933
-0.0789506
-0.0106575
-0.00112914
-0.0822518
-0.0824764
-0.000550125
-0.0162617
-0.0137725
-0.0068915
-0.084735
0.000879084
-0.00926153
-0.0295551
-0.113233
-0.0144477
-0.0171983
-0.00382723
-0.0645036
-0.0775227
0.000370444
-0.0927634
0.0011286
-0.01059
-0.0393546
-0.0493491
-0.0102977
-0.0331875
-0.00623807
-0.000259481
-0.0087932
-0.00326512
-0.00498935
0.0101141
-0.00481061
0.00107696
-0.0223568
-0.0738593
0.0368822
-2.08143e-06
-0.00810716
0.022405
-0.0260674
0.00114171
-0.0115327
0.00300092
-0.0806566
0.00559568
-0.00141279
0.0197603
-0.0571832
0.000615125
-0.078927
-0.0110176
-0.00322208
-0.0009821
-0.00106616
0.0012366
0.000416346
0.000499956
-0.0004451
0.000479747
-0.093283
0.000682807
-0.00465666
-0.0426087
-0.0315136
-0.0029122
-0.0615374
-0.00628762
-0.0109593
-0.00933712
-0.008733
0.00236413
0.00201657
-0.0775509
-0.0292212
0.00170308
-0.0155376
0.00328148
-0.104439
0.0388466
-0.0938647
-0.000640532
-0.000699693
-0.0110801
-0.0038166
0.000824321
0.00131369
-0.0698458
-0.0536817
-0.00316578
-0.00422626
-0.0103991
-0.0544844
-0.0143447
-0.00470719
-0.00542309
-0.0760393
-0.0142336
-0.0873586
-0.0147437
0.00333518
-0.00556595
8.40626e-05
-0.00131713
-0.045032
-0.00267192
-0.032869
-0.0937467
-0.0064737
-0.0778294
0.00056622
-0.000587062
-0.0173427
0.00379579
-0.0140165
0.000738597
0.000823083
0.000570728
-0.111252
0.000466235
0.00305795
0.000526742
-0.0324567
0.0272468
0.027201
-0.0498517
-0.0780372
0.000906135
0.000388963
0.00287919
-0.076431
-0.00864079
-0.0144326
-0.027832
-0.00320827
-0.0169425
-0.00705018
2.42577e-05
-0.00725838
-0.0123129
-0.0299919
-0.0993748
-0.0933441
-0.0219307
-0.000487986
-0.00758816
-0.0128383
-0.0122872
-0.00137612
-0.0651549
-0.0599741
-0.0050178
-0.00317875
0.000616292
-0.000818765
0.0070215
-0.0702368
-0.0347323
-0.0141974
-0.0820703
-0.0533907
-0.0637368
-0.081695
-0.00752402
-0.114626
-0.0124481
-0.0753415
-0.0757846
-0.117618
-0.0861004
0.000480394
-0.0202515
0.00241964
-0.000640169
-0.093506
-0.00613287
-0.0111437
-0.0301615
-0.0153624
-0.0350456
-0.072414
-0.0754203
-0.0653059
-0.0191433
-0.0061187
-0.00855563
0.000373583
-0.0157285
-0.00674539
-0.0547743
0.00949849
-0.014645
0.000683271
-0.00013438
-0.00137479
-0.0710876
-0.00420242
-0.000492176
-0.0130732
-0.00697144
-0.0354537
0.00191945
0.00202425
-0.11055
-0.0138262
-0.0354649
-0.0108156
-0.0308702
0.0135364
-0.00124611
-0.00344001
0.00053923
-0.0345061
-0.0251738
-0.00140911
-0.028918
-0.0942176
0.000347118
-0.00550249
-0.00311195
-0.0765041
-0.00512208
-0.00262096
0.000700572
0.0292995
-0.0763099
-0.000573604
-0.0185308
-0.0877718
-0.00700169
0.00195474
-0.0191335
-0.0755612
-0.0138762
-0.0840684
-0.00449031
6.17613e-05
0.00144924
-0.0786452
-0.0296926
0.000742558
-0.0884784
-0.00800632
-0.00849927
-0.0122097
-0.0754669
-0.00234511
0.0120148
-0.0292198
-0.016641
-0.0829642
-0.00170239
-0.00689188
-0.0141628
-0.0250571
-0.0103972
0.000872125
-0.00759198
-0.0024296
-0.0778668
-0.0169875
-0.0886338
-0.00773782
-0.0880785
-0.0791388
-0.0134652
-0.0142209
-0.0288379
-0.0129797
-0.07012
-0.0301943
-0.0934968
-0.1058
-0.0059824
0.00148375
-0.0759976
-0.106694
0.00599876
-0.0801872
-0.00537111
-0.000959287
-0.0143464
-0.00425273
-0.00734777
-0.0363664
-0.0892736
0.00119909
0.00396708
-0.15204
-0.0739219
-0.00218501
-0.0862029
0.00129663
-0.0794316
-0.0406515
-0.0540962
-0.000425694
-0.000749993
-0.0485938
-0.0788233
0.000450161
-0.0763945
-0.0886051
-0.000493763
-0.0135008
0.00123595
-0.0070117
-0.00489323
-0.0317282
-0.112205
5.81785e-05
-0.00955711
-0.000660553
-0.0125337
-0.0602201
-0.0929039
-0.00180282
-0.0776338
-0.0107967
-0.00556889
0.00293793
0.00125934
0.000604438
-0.0770735
-0.078884
0.015479
0.0243064
-0.0838294
-0.000943895
-0.0802564
-0.0887337
-0.00526489
-0.0810325
0.000760622
-0.00606874
-0.0105689
-0.0256242
-0.0816866
-0.0275501
-0.0135787
-0.0163968
0.00431979
-0.085332
0.00145951
0.000613198
-0.0767708
-0.0874469
-0.0158963
-0.00852633
-0.0227655
-0.00932929
-0.0104488
0.034797
-0.00431111
-0.0715635
0.00222719
-0.0802706
-0.00262201
-0.00762494
-0.0586188
-0.00127003
0.000611978
0.029177
0.0278367
0.00043079
0.00147257
-0.0339466
-0.0706999
-0.0806089
-0.0135325
-0.0131295
0.000802194
0.000832269
-0.0185555
-0.00590808
0.0125554
0.000515062
0.000651222
-0.0936503
-0.00734033
-0.0220919
-0.022864
0.00204438
0.000458489
0.000702848
-0.0165255
-0.0167819
-0.0285038
-0.022761
-0.0151097
-0.077034
-0.0142676
-0.0429711
-0.0293453
-0.0801796
-0.0231882
0.000729967
-0.0234463
-0.0191862
-0.0128336
-0.0147687
0.00144934
-0.0171546
-0.0293827
-0.0806564
-0.0104571
-0.0570227
-0.0435187
-0.0589989
-0.0610702
-0.0174369
-0.0630371
-0.0649843
-0.0668295
-0.068607
-0.0628559
-0.0423395
0.00209219
-0.00459108
-0.0288938
-0.0557626
-0.00319348
-0.0213948
-0.0790302
-0.00270093
-0.0926868
0.000612404
0.000635282
0.000315974
-0.0877787
-0.0167118
-0.00454523
-0.0571702
-0.0408134
-0.0299848
-0.00671114
0.000461562
-0.0192476
-0.125505
0.00288709
-0.0288291
-0.0705601
-0.0864962
-0.0552072
-0.0854496
-0.0257196
-0.00186286
-0.0792596
4.60654e-05
-0.0774761
-0.0803801
-0.00789889
-0.0163307
-0.00986746
-0.000101028
0.000359691
-0.0159034
-0.00352767
0.000976446
0.000998427
0.014661
-0.077402
-0.0142284
-0.00837013
-0.0734328
-0.0381968
-0.0881258
-0.0768416
-0.0133452
-0.010084
-0.016263
-0.00336739
-0.0854553
-0.0295874
-0.0984925
-0.0550063
-0.0756176
-0.0222934
-0.00247257
-0.00318319
-0.0842892
0.000765084
-0.0808059
4.1088e-05
-0.0843261
-0.0169245
-0.00418069
-0.0225933
-0.00326555
-0.0594343
-0.00434885
-0.00915189
-0.00266464
-0.0170135
-0.0696935
-0.0888617
-0.00140511
-0.0878936
-0.0034365
-0.000777511
-0.0279182
-0.0138678
-0.0758976
-0.0460072
-0.00779682
-0.0722275
-0.0615794
-0.0850449
0.000175857
0.000819515
5.52543e-05
-0.000444569
-0.0712181
0.0108669
0.00269043
-0.00718229
-0.0655374
-0.00200038
0.000419411
0.0120702
-0.120192
-0.0105748
-0.0162299
0.00051305
-0.0875661
0.000957608
0.00221267
-0.0681132
-0.0604609
-0.0751223
0.000594876
-0.0351184
-0.00438254
-0.0732545
-0.0774853
-0.00799656
-0.0629587
-0.00322518
0.00106438
-0.00717601
-0.0304022
0.023108
-0.00302038
-0.00938087
0.0034854
0.0032919
-0.0839819
-0.0827458
-0.0798003
0.000199783
-0.0264047
0.00021932
-0.0642885
0.000868998
-0.00599043
-0.00115809
-0.0304227
-0.0058012
-0.00632596
-0.00196407
-0.00841246
-0.0811571
-0.0649174
-0.00161342
-0.0172645
-0.0636029
8.53599e-05
0.00118809
-0.081054
-0.0203929
-0.00374194
-0.0778848
0.00045845
-0.0934539
-0.00078273
-0.0915149
-0.095837
-0.0339495
-0.0162299
-0.0257553
-0.0581563
-0.0538003
-0.0835269
-0.000569854
-0.0161682
-0.0804327
0.0020375
-0.0264504
-0.00762868
-0.0977532
0.0189164
-0.0790083
-0.0337394
0.0270072
-0.010346
-0.0952642
-0.00837454
-0.082164
-0.0776107
-0.00301654
0.00047987
-0.0858632
-0.0781139
0.00159171
-0.0149246
-0.00754423
0.00105138
-0.0861383
0.0101975
-0.0794714
-0.0113886
-0.0780085
-0.00633195
-0.0153214
-0.0157096
-0.0270434
-0.0536587
-0.0025766
-0.0591132
0.000621549
-0.021294
-0.0140693
-0.000818123
-0.00394934
-0.0148472
-0.0799877
-0.0801704
-0.000333524
-0.0773198
-0.0133043
-0.000893745
-0.00834831
0.000486907
-0.0158757
-0.0771491
-0.0806019
0.000593418
-0.0117098
-0.0501969
-0.0480599
-0.0785928
-0.0560879
-0.0122574
-0.0406048
-0.00882574
-0.00249999
0.000165069
-0.076293
-0.00565775
-0.0811727
-0.0793303
-0.0258164
-0.0748039
-0.0770134
-0.00116119
-0.0834656
-0.0255121
-0.0430657
0.00558032
-0.00203324
0.00150974
-0.0699397
-0.0135301
0.00397417
-0.00946658
-0.0809545
-0.0662586
0.00755282
-0.0695205
-0.0691154
-0.0803893
-0.00815478
0.000889647
-0.0501451
-0.0110652
-0.0144805
-0.0148956
-0.00950663
-0.00182271
-0.00702739
-0.010903
-0.00484192
-0.0112015
-0.00681626
-0.00594974
0.00233098
-0.0633109
-0.0112643
-0.0796023
-0.012563
-0.00737634
-0.058071
-0.0465512
-0.00373881
-0.00139583
-0.00823232
-0.0288162
-0.0838336
-0.0286957
-0.0221622
-0.00890227
-0.000535345
-0.00620699
-0.0781372
-0.0509848
-0.00347209
0.000705181
-0.0865181
-0.0144655
-0.00630957
-0.0529474
-0.0240041
-0.0362322
-0.0821382
-0.053347
-0.00594347
-0.00825195
-0.0889728
-0.00257801
-0.0114116
-0.0152398
0.00137051
-0.0494078
-0.0213452
-0.0603447
-0.00826174
-0.011034
-0.0274281
-0.0733438
-0.0539285
-0.0138931
-0.0600168
-0.062184
-0.0315256
-0.0164889
-0.0152378
-0.0338966
-0.0262215
-0.0754585
-0.0188975
-0.00157829
-0.0451097
-0.0156813
-0.0469276
-0.00770758
-0.00784071
-0.0364382
0.000890911
-0.0213311
-0.0122212
-0.0130093
-0.00191595
-0.00817563
-0.0804321
-0.0716403
-0.00730799
-0.00701607
-0.0620375
-0.0152694
-0.00155893
0.0027422
-0.0783572
-0.0308124
-0.0806122
0.00326185
-0.0392047
-0.0778631
-0.0639337
-0.0367094
0.00512314
-0.0592451
0.00667103
-0.0107226
-0.0627087
-0.0657973
-0.0100077
-0.00495222
-0.0118189
0.00618163
-0.0100941
-0.06755
-0.00197314
-0.0766247
-0.030342
-0.00146964
0.000910009
-0.000274855
-0.0092616
-0.01072
0.000247813
-0.0291565
-0.00777434
-0.00932089
-0.00379449
-0.0540923
-0.017279
-0.0288694
-0.0138333
0.000666667
0.000708662
-0.0440533
0.00253169
-0.0804682
-0.0133573
-0.0142238
-0.0129923
0.0116503
-0.011082
-0.0107438
-0.0115455
-0.0279589
-0.00968514
-0.028908
6.2281e-06
-0.12183
-0.0280578
-0.0112659
-0.00764624
-0.076162
-0.000685125
-0.0253077
0.000978496