/*--------------------------------*- C++ -*----------------------------------*\
| =========                 |                                                 |
| \\      /  F ield         | OpenFOAM: The Open Source CFD Toolbox           |
|  \\    /   O peration     | Version:  v2012                                 |
|   \\  /    A nd           | Website:  www.openfoam.com                      |
|    \\/     M anipulation  |                                                 |
\*---------------------------------------------------------------------------*/
FoamFile
{
    version     2.0;
    format      ascii;
    class       volVectorField;
    location    "350";
    object      U;
}
// * * * * * * * * * * * * * * * * * * * * * * * * * * * * * * * * * * * * * //

dimensions      [0 1 -1 0 0 0 0];


internalField   nonuniform List<vector> 
13917
(
(0.647193 0.00676143 0)
(1.02222 0.00503936 -1.25154e-21)
(1.09344 0.0461492 -3.21671e-21)
(1.03311 0.00808787 5.60349e-21)
(1.01846 0.00113762 1.23854e-22)
(1.0237 0.00611176 0)
(1.04622 0.0174302 8.38015e-21)
(0.984348 -0.00978568 0)
(1.05272 0.0084431 -1.10786e-20)
(0.0197246 -0.111222 3.13969e-22)
(0.990515 -0.00800958 -1.37224e-22)
(1.02581 0.00760614 0)
(1.01096 4.53273e-05 0)
(0.729883 0.0948524 -2.03019e-21)
(1.02167 0.0125716 0)
(0.624212 0.00402814 0)
(1.00793 3.00919e-05 -1.96805e-22)
(0.993881 0.00406803 -1.81207e-21)
(1.07364 0.0502115 0)
(0.632523 0.0124855 0)
(1.0227 0.0251999 0)
(1.01671 0.00581122 0)
(1.05607 0.0315678 2.72372e-22)
(1.01659 0.00568002 0)
(1.03248 0.0140537 0)
(1.01928 0.0248794 0)
(0.927583 0.00379295 0)
(0.00677423 -0.0797499 0)
(1.00708 0.0204492 2.1647e-21)
(1.01444 -0.0006765 0)
(0.0259534 -0.0929117 3.80212e-20)
(1.07131 0.0320198 0)
(1.03027 0.0101501 5.62788e-21)
(0.686868 0.0169739 0)
(1.01483 0.00168382 2.68597e-22)
(0.981148 -0.0212178 0)
(1.02416 0.0145694 1.28958e-21)
(1.00856 0.000126666 1.42053e-21)
(1.04705 0.0173891 0)
(1.03244 0.0300002 -4.78541e-21)
(1.00571 -5.11719e-05 0)
(1.0158 7.99359e-05 9.46419e-24)
(1.04828 0.00587779 1.93897e-20)
(1.07756 0.0425938 0)
(1.0765 0.0431647 -6.95371e-21)
(0.999128 0.0692972 0)
(1.02345 0.0242479 0)
(0.453014 0.0364535 2.04948e-20)
(0.828193 -0.123203 0)
(1.01484 0.00172108 -3.18017e-22)
(1.02538 0.00739355 -2.66033e-21)
(1.03534 0.05861 -4.36362e-21)
(0.551735 0.00125934 0)
(1.02087 0.00787674 0)
(1.02185 0.00838193 -2.56263e-21)
(1.03822 0.05948 1.18278e-20)
(-0.0229872 -0.0262814 -3.24801e-20)
(1.0551 0.0314577 1.73874e-22)
(1.01565 5.08407e-05 4.48973e-22)
(0.992651 0.0649851 -4.2821e-22)
(0.501751 0.204084 6.55023e-21)
(1.01553 0.0072089 0)
(1.00899 -9.71246e-06 0)
(1.03226 0.0135711 0)
(0.894695 0.0532568 -5.83324e-21)
(1.01269 0.00182956 -2.6119e-22)
(1.00296 0.0169298 0)
(0.988304 -0.0280226 0)
(0.988727 0.0022857 1.93607e-21)
(0.610625 0.0060358 -2.70706e-20)
(0.968355 0.0537498 2.33754e-20)
(0.672677 0.0146205 0)
(1.0296 0.00223088 3.26481e-21)
(1.01533 0.000154041 -6.41166e-22)
(1.02318 0.0264011 0)
(1.02988 0.0156195 0)
(1.01717 0.00531662 -2.63335e-22)
(1.01516 0.000139126 4.05811e-22)
(1.0298 0.0151226 0)
(1.03062 0.0104493 4.66042e-21)
(1.01977 0.00912069 0)
(1.00805 4.82641e-05 0)
(1.02917 0.0019209 0)
(0.966006 0.0416302 4.13314e-21)
(1.01506 0.00136822 -9.83202e-24)
(0.962711 0.0491857 5.1129e-21)
(1.0705 0.0316194 0)
(1.01558 0.00070901 -2.61813e-22)
(1.03165 0.029575 2.41641e-21)
(1.00864 2.73832e-05 2.28176e-22)
(1.00891 2.49717e-05 -1.19748e-22)
(1.0492 0.00593995 -2.359e-20)
(0.823396 -0.117477 -8.35484e-21)
(1.01383 0.0011994 -8.21611e-23)
(1.02201 0.0101505 0)
(1.00399 0.0208418 -2.80084e-21)
(1.01209 0.0870668 8.54702e-21)
(1.00852 7.77175e-05 0)
(1.01562 0.00078207 1.30792e-21)
(1.05749 0.053213 0)
(1.00778 1.55175e-05 -1.1257e-22)
(1.00825 -2.01874e-05 0)
(1.02002 0.00939109 7.19776e-22)
(1.00983 0.000232163 -3.41198e-23)
(1.01736 0.00516897 1.14991e-23)
(0.957023 0.0307566 0)
(0.729231 0.0370473 0)
(1.0138 0.00638753 0)
(1.01606 -7.24529e-05 2.65097e-22)
(0.86557 -0.0123707 -1.54943e-21)
(1.01788 -0.000221771 -7.77968e-22)
(0.697707 0.019284 -3.10084e-20)
(1.00844 0.0235249 -3.15634e-22)
(0.336966 0.00169783 -6.17727e-20)
(0.903549 0.0525101 2.69944e-21)
(1.02884 0.0164926 -4.47897e-22)
(1.07257 0.0488217 1.21277e-20)
(1.00895 3.94966e-06 -1.04394e-22)
(1.08765 0.0481155 -5.5458e-21)
(1.02773 -0.00029197 -9.00536e-21)
(1.00872 6.57328e-05 4.2871e-23)
(1.01443 0.000314485 -1.90604e-22)
(0.999395 0.016777 -5.81218e-21)
(1.05734 0.0527907 8.13062e-21)
(0.587906 0.00272363 -2.2569e-21)
(0.943188 0.0421248 -6.29902e-21)
(1.03246 0.0128277 -6.45947e-21)
(1.02251 0.0275327 -2.60117e-21)
(1.0137 0.00240648 3.17394e-23)
(1.05918 0.0533421 0)
(1.0589 0.0183647 1.55329e-22)
(1.01675 0.00969789 0)
(0.778159 0.0245665 0)
(1.02834 0.016417 -2.91876e-21)
(1.07372 0.0351162 -1.32739e-20)
(0.851899 0.00621297 9.67856e-21)
(0.456753 0.180893 0)
(0.562046 0.00476941 1.1771e-22)
(1.01677 0.0248559 -1.8397e-22)
(1.00543 5.4781e-05 -6.50886e-22)
(0.751056 0.0151251 -3.41327e-21)
(1.01486 0.000207157 -1.96001e-22)
(0.967558 0.0300541 -4.14365e-21)
(1.01503 0.00412596 2.8942e-23)
(1.0278 0.00240381 0)
(1.01736 -0.00206965 -3.7372e-22)
(0.971392 0.0531325 -8.19863e-21)
(0.798534 -0.00921369 -3.87421e-21)
(0.476702 0.023973 0)
(1.0212 0.00815691 5.50046e-22)
(1.03101 0.0280457 0)
(1.00864 8.70738e-07 -5.40321e-24)
(1.0274 0.00204235 0)
(1.02789 -0.000592941 7.6291e-23)
(0.976763 0.0852574 3.58446e-21)
(1.01693 0.00500955 -2.01255e-23)
(1.00975 0.000251134 5.25844e-23)
(0.754473 0.0228726 2.69915e-20)
(1.0079 -3.23842e-06 5.05757e-24)
(1.0088 -3.1983e-05 0)
(1.01516 0.00300191 0)
(0.841131 0.0985731 -1.7815e-20)
(1.02175 0.0142336 -4.58226e-22)
(0.743495 -0.00432675 3.31172e-21)
(0.707506 0.178181 3.16545e-20)
(1.07157 0.0616325 -4.03704e-21)
(0.372443 0.00318184 0)
(0.597065 0.236886 -4.79073e-20)
(1.00935 -0.000211074 0)
(1.01527 0.0258429 -2.91667e-23)
(1.01675 0.00564186 1.96654e-22)
(0.787115 0.0265292 2.19677e-20)
(1.05281 0.00773922 9.91452e-21)
(0.572044 0.174722 -1.04067e-20)
(1.03716 0.0390719 0)
(1.00839 1.02186e-05 8.29649e-23)
(1.03352 0.00779125 0)
(1.03026 0.0608941 -1.38734e-20)
(1.05846 0.0176305 2.53314e-20)
(1.0214 0.014317 2.94163e-22)
(1.0472 0.00668617 -6.74942e-21)
(1.01661 0.00558212 0)
(1.02512 0.00755924 1.52766e-21)
(1.05024 0.0815615 6.06371e-21)
(1.08838 0.0496328 0)
(1.01469 0.00434322 0)
(1.02473 0.00737041 0)
(1.04636 0.0823803 3.90685e-21)
(1.01441 -0.000673183 -4.72453e-23)
(0.9707 0.0435043 4.90175e-21)
(1.03624 0.0382009 6.08293e-21)
(1.07523 0.0421877 7.01221e-21)
(1.05288 0.0701089 9.52802e-21)
(0.653503 0.0095894 4.68125e-20)
(1.01382 0.00126765 5.14206e-22)
(0.594628 0.00427746 -1.95452e-20)
(1.03607 0.0195128 -4.54458e-21)
(0.802205 0.0259169 -2.30988e-20)
(1.0146 0.00159395 -1.01889e-22)
(1.01673 0.00500936 7.91794e-23)
(1.02474 0.0227068 2.20786e-21)
(0.613751 0.00624657 0)
(0.550612 0.00451872 -2.5465e-20)
(1.02284 0.0129011 0)
(0.913047 -0.0310289 -6.9361e-21)
(1.01554 0.0147745 2.38677e-22)
(1.0317 0.0285411 0)
(1.01474 0.00027727 -8.3251e-24)
(1.03359 0.061538 -9.1229e-22)
(1.01953 0.00900906 4.91711e-22)
(1.012 0.00171362 -6.31102e-23)
(1.02225 -0.00460402 -2.08007e-21)
(1.02176 -0.00657412 4.63881e-22)
(0.522608 0.0464847 -2.09727e-20)
(1.07326 0.0344113 7.01607e-21)
(1.01829 0.0259246 2.51015e-22)
(0.820335 0.0587226 2.36749e-20)
(1.01282 0.000516368 0)
(1.01114 9.49084e-05 -2.85186e-22)
(1.01114 9.23755e-05 0)
(0.575668 0.226759 5.088e-20)
(1.05016 0.0755699 1.31406e-20)
(1.03546 0.0888974 7.53222e-21)
(1.01823 0.000521683 0)
(1.00812 -9.44939e-05 2.40356e-24)
(0.778614 -0.00953727 -2.09952e-20)
(0.585783 0.0045547 -2.09374e-20)
(1.01047 0.000106353 1.65e-22)
(1.01026 9.42777e-05 -1.47938e-22)
(1.0052 -0.000162833 0)
(1.01145 8.62507e-05 0)
(1.01146 7.75941e-05 -2.97722e-22)
(0.665605 0.0130115 1.17263e-20)
(0.695568 0.0939739 0)
(1.01798 0.00729181 -5.48836e-23)
(1.01042 -0.000309508 -1.14266e-23)
(1.04478 0.0458683 0)
(0.650538 0.0114095 0)
(1.00824 2.16615e-05 1.42484e-23)
(1.01803 0.000524001 0)
(0.898374 -0.028071 4.68906e-21)
(0.962468 0.0296482 0)
(1.05207 0.0784026 -6.0301e-21)
(0.810818 0.0544308 0)
(1.02891 0.0422223 0)
(1.01518 0.00419578 -9.83578e-22)
(0.651097 0.218788 3.33222e-20)
(1.04567 0.047339 2.3361e-21)
(1.01073 0.0227773 -1.83845e-21)
(1.06551 0.0417526 4.49863e-21)
(1.02299 0.0126684 0)
(0.661904 0.074748 2.48707e-20)
(1.02815 0.000340289 3.6666e-21)
(1.03819 0.0302762 -3.80402e-21)
(1.03903 0.03795 0)
(1.01789 0.00730938 7.82088e-22)
(1.00333 -5.62732e-05 0)
(1.03268 0.0132891 0)
(1.02105 0.00457393 2.76354e-22)
(1.01501 0.000981817 0)
(0.614644 0.00732207 1.89276e-20)
(0.647808 -0.121074 4.25419e-21)
(1.01429 0.00055732 -1.78827e-22)
(1.01007 0.000104782 0)
(1.01711 0.00510223 1.5392e-22)
(1.01009 0.000111619 0)
(1.02826 6.54653e-05 6.52252e-21)
(1.01661 0.000136262 -2.21941e-21)
(1.04623 0.0286504 -5.61952e-21)
(1.01459 0.000571675 -1.9133e-22)
(0.569548 0.00538576 2.41162e-21)
(0.742544 0.0453139 0)
(1.02198 0.00598557 -1.47406e-21)
(1.01899 0.00454247 0)
(0.949524 0.0650017 1.06666e-21)
(1.01158 -0.000102092 -6.6446e-23)
(1.04644 0.049806 -8.79766e-23)
(0.629634 0.00970151 1.2826e-22)
(1.01156 -9.36843e-05 6.83993e-23)
(0.626898 0.00758801 2.61291e-20)
(1.0148 0.000937116 0)
(0.846825 0.103571 0)
(1.00773 -9.9734e-06 1.01421e-24)
(1.02064 0.012029 -8.92135e-23)
(1.01792 0.00741998 -9.27583e-23)
(1.01452 0.00377476 5.52016e-22)
(1.0724 0.0630176 0)
(1.01008 0.000218606 -9.34952e-22)
(1.0656 0.0628774 -5.66935e-21)
(1.0348 0.0229259 0)
(0.638186 -0.13575 -2.37492e-22)
(1.01709 -0.00243838 0)
(0.97927 -0.0153227 0)
(0.552742 0.00369733 -2.52219e-21)
(1.00878 -5.69865e-06 -2.7395e-22)
(1.05149 0.0365208 -9.10947e-21)
(1.0206 0.00309952 3.03104e-22)
(1.02779 0.0169781 -3.32455e-21)
(1.01927 0.00184476 4.15456e-25)
(1.03035 0.0149805 -7.64757e-21)
(1.01416 0.00110193 -1.77931e-22)
(1.01081 0.000275687 4.56338e-22)
(1.02565 0.0563816 4.86402e-21)
(1.00262 -0.0081838 0)
(1.03811 0.029908 6.51852e-21)
(1.03027 0.0145686 2.51669e-21)
(1.01781 0.000608995 -1.58397e-21)
(0.770281 0.0241822 -2.63774e-20)
(0.599618 0.00513508 0)
(1.01335 0.00204798 -2.1867e-23)
(1.01934 0.00160534 -1.59718e-24)
(1.02828 0.0170811 0)
(1.03381 -0.0599756 0)
(1.08395 0.0340389 -4.18147e-20)
(0.738316 0.0379771 -6.69767e-21)
(0.61131 0.165602 7.29301e-21)
(1.01168 -0.00488793 3.36756e-23)
(1.02126 0.0149155 -2.44716e-21)
(1.01882 0.00479638 -2.47936e-22)
(0.982725 0.0431469 -2.21709e-20)
(1.00138 -0.0788247 -3.18976e-23)
(1.09335 0.0448554 0)
(1.01596 0.000154399 0)
(1.02127 0.0125435 0)
(0.941889 -0.00551695 0)
(1.01679 0.00549532 4.50835e-23)
(1.02221 0.00323359 6.80173e-22)
(1.07413 0.042633 6.84238e-21)
(1.00785 -2.82292e-05 -2.75129e-22)
(0.794382 0.0271013 -8.28734e-23)
(1.01502 0.00104083 0)
(1.06818 0.0183727 0)
(1.01389 -0.000245239 -3.96882e-22)
(0.532817 0.0104355 5.82254e-20)
(1.01077 0.00117609 5.69324e-22)
(1.03862 0.0291457 -9.63193e-22)
(1.01483 0.0157476 4.5208e-23)
(1.01257 -0.0063403 -2.63717e-23)
(1.00883 8.68249e-05 1.75611e-22)
(1.06733 0.0402916 9.74764e-21)
(0.982233 0.0324291 6.56498e-21)
(1.02226 0.00990171 1.2944e-21)
(1.01676 0.00536279 -3.31978e-24)
(0.715034 0.0223943 -1.56423e-20)
(0.977806 0.0320073 0)
(0.813778 0.136882 -3.20622e-20)
(0.740103 0.0715664 0)
(1.01127 -7.60584e-05 3.17149e-23)
(1.01853 0.0076415 -5.56191e-22)
(0.95662 0.029364 0)
(1.0187 0.0188536 3.25943e-21)
(1.01127 -6.4372e-05 -2.74682e-22)
(1.02058 0.002099 2.80367e-22)
(1.02302 0.00786141 2.24171e-21)
(1.02097 0.0391289 0)
(1.03862 0.0295904 -3.18797e-21)
(1.05263 0.061241 1.62574e-21)
(1.03015 0.0304305 1.63121e-21)
(1.04381 0.0518751 9.61785e-23)
(1.06615 0.020323 1.92449e-20)
(0.682457 0.0170107 0)
(1.01389 0.00251425 -3.30277e-23)
(1.02254 0.00996468 0)
(1.01849 6.70345e-05 5.83475e-22)
(1.08258 0.0612446 -1.03853e-20)
(1.00758 -2.01908e-05 1.09974e-22)
(0.638277 0.00629924 -5.53353e-20)
(1.0662 0.0197424 -1.38819e-20)
(0.862876 -0.0813866 -2.05815e-22)
(1.02195 0.00863504 3.35992e-21)
(1.02304 0.025249 0)
(1.02012 0.000912748 -1.59885e-23)
(0.889994 -0.0567047 0)
(1.0163 -0.000178624 -2.49246e-22)
(1.04149 0.0883381 -8.22744e-21)
(0.96255 0.0697947 -1.6239e-21)
(1.01286 0.0157944 1.92339e-22)
(1.02217 0.00625813 -4.81134e-21)
(1.02682 0.0699514 0)
(1.0147 -0.000369098 0)
(0.681921 0.191267 -2.92398e-20)
(1.05328 0.0728053 -1.0908e-20)
(1.01654 -0.000155961 -2.45235e-22)
(0.889643 -0.0799134 8.00643e-21)
(1.01779 0.00761631 2.90912e-22)
(1.01136 -0.033816 4.67612e-22)
(1.01164 0.00075617 1.14714e-22)
(0.657586 0.0123708 0)
(1.01139 -0.0387321 -7.58694e-22)
(1.02554 0.0143314 -8.44153e-23)
(0.716139 -0.0463836 1.0807e-20)
(1.03738 0.0493656 0)
(1.0228 0.0120125 2.69298e-21)
(0.766353 0.150157 -8.20696e-21)
(1.09059 0.0278738 -1.02377e-20)
(1.02606 0.0136401 -7.01157e-22)
(1.07174 0.0653727 7.98722e-21)
(1.01886 0.0076251 7.29367e-22)
(1.03564 0.0533832 -1.46395e-21)
(1.09246 0.0472098 2.45755e-20)
(1.01522 0.00090488 0)
(1.04922 0.0140853 -1.07828e-20)
(1.03076 0.0144186 3.17053e-21)
(1.01453 0.00373546 5.4764e-22)
(1.01222 0.00168609 2.14285e-23)
(1.01408 0.00275114 8.60835e-24)
(0.398333 0.194167 0)
(1.07323 0.0508841 4.12465e-21)
(1.02226 0.00932036 1.68885e-21)
(1.01429 0.00264687 7.20987e-23)
(1.01635 0.00539178 -2.22531e-22)
(1.04657 0.0356959 -1.53293e-20)
(1.0121 -0.0566289 0)
(1.01263 -0.000150631 0)
(1.00924 -0.000194391 0)
(1.08324 0.0345094 2.79541e-20)
(1.02592 0.0241323 0)
(1.01472 0.00395549 6.039e-22)
(1.02558 0.0140721 7.01706e-23)
(0.709108 0.137533 0)
(0.876784 0.120394 -4.29122e-21)
(1.01156 0.00347017 0)
(1.07541 0.0501277 0)
(1.00857 0.0441167 4.69748e-21)
(1.0141 8.41689e-05 5.49093e-22)
(1.01224 -0.000132361 -2.50774e-22)
(1.02188 0.0215693 2.07729e-21)
(1.01211 0.00161081 1.22431e-23)
(1.01261 -0.000148283 2.54897e-22)
(1.01803 0.00743584 -8.97258e-22)
(1.01224 -0.000129615 -4.66292e-24)
(1.01386 5.11863e-05 0)
(0.677885 0.195433 -3.50162e-21)
(1.01912 0.00788288 -4.81683e-23)
(1.034 0.0304575 0)
(0.581022 0.00677585 0)
(1.05036 0.0360105 0)
(1.01218 0.00180387 1.95558e-22)
(1.02686 0.0021302 0)
(0.785628 0.140961 0)
(1.0238 0.0224171 -1.07744e-21)
(0.571996 0.000987918 2.33766e-20)
(1.01346 -0.00019828 0)
(1.01943 0.00214752 -3.17339e-21)
(1.01493 -0.00036012 0)
(1.01177 7.83852e-05 3.20487e-22)
(1.02399 0.0140887 1.78804e-21)
(1.01761 0.00747041 -7.79706e-23)
(0.719581 0.128968 0)
(1.02295 0.000677931 0)
(0.950088 0.0301257 2.51509e-21)
(1.01924 0.00219283 0)
(1.05672 0.0230628 -9.74382e-21)
(1.0242 -0.0016596 -2.05976e-22)
(1.01931 0.00869988 0)
(1.0306 0.0439759 0)
(0.799579 0.138167 4.80802e-21)
(1.02293 0.00760213 -2.28734e-21)
(0.731714 0.0947606 -7.41996e-21)
(1.0124 0.00197392 1.23737e-23)
(1.01205 0.000590484 1.0203e-21)
(1.01615 0.00518956 -2.28965e-22)
(1.01796 0.00782656 -4.58983e-22)
(1.01164 0.00154192 4.13847e-23)
(1.01492 0.000574584 0)
(0.762925 0.023726 3.17811e-21)
(0.548089 0.191932 1.25377e-20)
(1.01146 0.00146118 0)
(0.952655 -0.0248759 -8.85859e-22)
(1.08267 0.0360881 0)
(1.01846 0.000174803 3.51316e-21)
(1.05021 0.0384893 -8.56525e-21)
(1.07789 0.0246818 7.12998e-21)
(0.763384 0.142754 3.78555e-20)
(1.05131 0.0146424 -1.22794e-20)
(0.958671 0.0304988 9.3567e-21)
(0.939814 -0.057653 3.05267e-22)
(0.949817 -0.044804 -3.7216e-22)
(1.01775 0.00770587 -3.63062e-22)
(1.01214 -0.0010774 2.55937e-22)
(1.02563 -0.00296037 0)
(1.02274 0.012277 -9.16839e-23)
(0.932956 0.114643 0)
(1.00893 2.87355e-05 -1.19843e-22)
(1.02079 0.00757994 0)
(1.02229 0.010221 3.04946e-21)
(1.05068 0.0117518 -8.34737e-21)
(1.02617 0.0260161 7.84224e-22)
(1.08489 0.0507659 -1.17504e-20)
(1.06139 0.0333642 -1.71988e-20)
(1.01573 -0.000173478 0)
(1.01961 0.00422975 5.59332e-22)
(0.993744 0.011138 0)
(1.03669 0.0324374 -4.36806e-21)
(1.02199 0.00918782 -1.66631e-21)
(0.676959 0.107307 -2.01261e-21)
(1.04949 0.0275733 -8.0001e-21)
(1.03539 0.022775 4.32036e-21)
(0.657174 0.194168 1.93812e-20)
(1.01509 0.00121077 -2.87619e-21)
(1.03707 0.0325061 4.78513e-21)
(1.02729 0.0640758 0)
(1.01096 0.00108043 1.56806e-23)
(0.696326 0.0188878 -1.7222e-21)
(1.01216 0.000597485 0)
(1.01176 6.9355e-05 0)
(1.04732 0.0364411 1.57108e-20)
(1.01342 -0.000179294 0)
(1.01301 0.000537041 -5.57676e-22)
(1.02492 0.0530935 0)
(0.737349 0.0221764 0)
(0.612529 -0.0598264 1.16346e-20)
(1.01511 0.00282013 1.1952e-21)
(1.037 0.00667243 9.59098e-21)
(1.01616 0.00144132 3.42822e-22)
(0.934755 0.11165 9.46137e-21)
(0.833299 0.0490073 8.8696e-21)
(1.02156 0.00869576 3.04354e-21)
(1.02148 0.00814663 1.81247e-21)
(1.01478 0.00252797 0)
(1.0409 0.0372414 1.11031e-20)
(0.938767 0.0132849 1.24147e-20)
(1.01398 0.00223858 -8.99507e-23)
(1.00827 -1.48223e-05 4.11864e-23)
(1.01656 0.00488132 -1.28708e-22)
(1.01441 0.00357717 -1.74118e-21)
(1.01721 -0.000874669 0)
(1.04076 0.0224103 0)
(1.00896 6.20289e-05 2.30782e-22)
(1.06083 0.0342235 1.78395e-20)
(1.01085 0.0010169 -3.9645e-22)
(1.01665 0.0057175 -1.43629e-21)
(1.03072 0.0140392 1.49459e-21)
(0.72611 0.0306557 3.55846e-20)
(1.00859 0.000140418 -2.27781e-22)
(1.04298 0.0102371 3.36158e-21)
(1.01492 0.00108839 0)
(1.05613 0.0224166 -1.67409e-20)
(1.05245 0.0431872 -5.03333e-21)
(1.01028 0.0378913 6.31346e-22)
(1.0385 0.0387989 0)
(1.06486 0.0498349 0)
(1.02914 0.0133264 0)
(0.998662 0.011575 2.76798e-21)
(0.818461 0.0270669 1.17766e-20)
(0.703786 0.168147 0)
(0.596669 0.00879827 -1.70863e-20)
(1.01302 0.00176493 4.11591e-23)
(1.01587 0.00488915 0)
(1.01553 -0.000241976 -3.88857e-22)
(1.02138 0.00420441 0)
(0.896033 0.0491192 1.02608e-20)
(1.0119 -0.000106738 0)
(0.798639 -0.179244 0)
(1.0366 0.0193103 6.64046e-21)
(0.869225 0.0320701 2.12069e-20)
(1.05179 0.0506745 1.48689e-21)
(1.04801 0.00666429 1.98826e-21)
(0.138677 -0.0478941 1.63013e-20)
(1.01145 0.00142621 -1.61075e-22)
(1.07462 0.024939 2.76578e-20)
(1.00925 0.00010297 2.27058e-23)
(1.01712 0.000221451 1.11929e-21)
(0.84865 0.0307541 1.55783e-20)
(1.01304 -0.000166974 6.23737e-23)
(1.09195 0.0373776 4.74237e-20)
(1.00777 -4.41927e-05 3.04763e-23)
(1.0179 6.11637e-05 -1.88986e-21)
(1.01607 0.00507803 0)
(1.08402 0.0499364 1.14754e-20)
(1.018 -0.00149608 -3.10282e-22)
(1.00949 0.000104655 -1.646e-22)
(1.07878 0.0406728 0)
(1.04928 0.0378012 -1.83958e-21)
(0.846922 0.160248 1.63255e-21)
(0.994438 0.0519241 0)
(0.78208 0.0243819 1.13823e-20)
(0.748162 0.152697 -1.95461e-20)
(1.00859 0.000148605 2.65255e-22)
(0.598059 0.00163212 -6.34374e-21)
(1.00931 -6.53441e-05 3.51198e-23)
(0.490154 0.184463 0)
(0.806043 -0.0023891 0)
(1.01772 -1.89843e-05 -3.0657e-22)
(1.02167 -0.000522466 8.09154e-23)
(1.00826 2.58339e-05 1.79079e-22)
(1.04898 0.0272166 0)
(1.04669 0.00594551 7.36236e-21)
(1.01302 -0.000158601 -6.41529e-23)
(1.0092 0.000117793 0)
(1.01522 0.000318552 -1.48216e-21)
(1.01563 0.0526867 -1.6074e-20)
(1.01599 0.00331741 -7.63763e-22)
(1.07003 0.02979 2.10787e-20)
(1.02044 0.00736007 0)
(1.00938 9.7403e-05 3.94718e-22)
(1.00856 1.57226e-05 3.07883e-22)
(1.01395 0.0665154 2.87633e-22)
(0.908374 0.105396 -1.25782e-20)
(0.236637 -0.0188036 -2.57522e-20)
(1.06449 0.0407448 -1.21652e-20)
(1.04123 0.0220563 0)
(1.03846 0.0856756 -5.53262e-21)
(0.6543 0.0120397 -2.57501e-20)
(1.01189 0.00076716 -1.2981e-22)
(0.876398 0.124333 0)
(1.01437 0.00010672 3.22385e-21)
(1.08193 0.0271934 -3.39772e-20)
(1.02122 0.0043359 5.70437e-21)
(1.03676 0.0672137 7.95505e-21)
(1.01419 0.00341478 6.76224e-22)
(1.01631 -0.000905495 0)
(1.02832 0.00237258 0)
(0.840287 0.14523 -5.19609e-22)
(1.04761 0.0285068 -9.96124e-21)
(0.872079 0.0560691 -1.13872e-20)
(1.00898 5.19729e-05 8.85031e-25)
(1.0462 0.0276403 -6.08242e-21)
(1.01471 0.00189785 0)
(1.00707 -0.000108047 -2.44508e-22)
(0.693033 0.0197288 -6.22396e-22)
(1.06088 0.0748243 -2.34686e-22)
(1.01523 0.0018832 -6.82515e-23)
(1.05279 0.063941 -2.1787e-21)
(1.018 0.00063934 2.38857e-21)
(1.0168 0.000630693 0)
(1.00781 -3.09023e-05 0)
(0.707615 0.0229026 3.79663e-20)
(1.0161 0.00326406 7.76172e-22)
(1.02146 0.00383584 0)
(1.01189 -0.000110097 1.68056e-22)
(1.01498 0.00186458 -4.62035e-22)
(1.08073 0.0619264 0)
(1.00828 1.29378e-05 -3.89972e-23)
(1.05886 0.0597816 -5.48068e-21)
(1.00803 4.73827e-05 -1.68117e-23)
(1.01088 0.00120775 0)
(0.468797 0.201758 1.1967e-21)
(1.07072 0.0302685 0)
(1.02126 0.0084065 -1.7884e-21)
(0.503268 0.00253985 0)
(1.0906 0.0370041 -4.38523e-20)
(1.05287 -0.0355265 2.78875e-22)
(1.02375 0.0630374 0)
(1.01128 0.00134959 1.26491e-22)
(1.02214 0.0128029 -4.5045e-22)
(0.711559 0.0269045 -3.31375e-22)
(1.09261 0.0311672 1.51577e-22)
(1.02264 0.0209642 0)
(1.02453 0.0147435 -5.50154e-22)
(1.01548 -0.00126534 -9.30636e-22)
(1.00863 6.68653e-05 1.92596e-22)
(1.01415 0.00313353 0)
(1.0107 -0.00467665 5.97406e-23)
(1.05114 0.0454164 0)
(1.0333 0.0182392 -1.97658e-21)
(0.621568 0.212684 -3.4564e-21)
(1.04837 0.028856 1.2171e-20)
(0.988778 -0.0729866 -1.84123e-21)
(0.81151 0.0593389 7.50928e-21)
(1.0007 -0.00361806 0)
(1.04033 0.0284275 -8.74111e-21)
(1.05575 0.0682543 0)
(0.637276 0.00920509 2.35903e-20)
(1.01411 0.00117966 0)
(1.00916 0.0067891 1.05973e-21)
(1.00964 -0.00864391 0)
(1.01094 0.00122181 0)
(1.00913 8.47965e-05 1.75861e-22)
(1.00864 -4.54543e-06 -8.2288e-23)
(1.01619 0.0017772 0)
(1.0138 0.000488916 0)
(0.604257 0.00213589 6.89829e-21)
(1.0633 0.0165595 1.11208e-20)
(1.01004 0.00029322 0)
(1.07302 0.0417077 -7.09541e-21)
(1.00902 5.13563e-05 4.05349e-22)
(0.753437 0.0434924 -1.56547e-20)
(1.0149 0.000855611 0)
(1.01372 0.00231558 0)
(0.716365 0.0205266 0)
(1.05355 0.0409804 1.23817e-20)
(0.850775 0.0346126 6.78776e-22)
(1.03008 0.00379497 0)
(1.01659 -0.000655518 0)
(1.01365 0.0019291 1.87503e-23)
(1.03445 0.00532905 -4.24794e-21)
(1.04793 0.0198523 -5.33006e-22)
(1.01425 0.00359431 7.01162e-22)
(0.568158 0.0045325 -2.01265e-20)
(1.03522 0.0247929 0)
(0.880416 -0.140003 -8.41781e-21)
(0.857571 0.00500664 2.91578e-22)
(1.00883 0.00483664 -1.14754e-21)
(0.782965 0.0247903 0)
(1.03682 0.00709962 0)
(1.00983 0.000215546 -9.76945e-23)
(1.01491 0.00189995 4.85584e-22)
(0.640803 0.0113077 -1.77027e-20)
(0.640439 -0.0685003 0)
(1.0361 0.0201045 -5.09915e-21)
(0.579257 0.0020194 0)
(0.830312 -0.115732 -3.37001e-21)
(1.01092 0.0012709 -6.92965e-22)
(1.01354 0.00213866 0)
(1.02355 0.0138976 3.17608e-21)
(0.966408 0.0320617 0)
(0.898244 0.0487682 0)
(1.04695 0.0290547 -3.27815e-21)
(1.0339 0.00531463 3.56434e-21)
(1.04275 0.0106787 0)
(1.08254 0.0269157 3.55034e-20)
(1.01835 0.00491281 2.08823e-22)
(1.0549 0.0600416 1.0884e-20)
(1.06304 0.0172859 0)
(1.02173 0.00980488 -1.84258e-21)
(1.03047 0.0106345 -7.78402e-21)
(1.00966 0.000219305 9.863e-23)
(1.0473 0.0196641 0)
(1.02007 0.00467506 -5.55161e-22)
(1.09253 0.0278578 -3.99088e-20)
(1.02709 0.0173948 1.48414e-21)
(1.01941 0.00220944 3.08466e-22)
(0.570751 0.00408639 -2.72388e-20)
(1.01669 -0.000782477 0)
(0.828236 -0.145496 -2.39732e-21)
(1.02472 0.0143778 -2.10112e-21)
(1.02107 0.0095491 3.2906e-22)
(1.03874 0.0186219 -3.25427e-21)
(1.09136 0.0313349 1.78842e-20)
(1.00881 5.04478e-05 -1.59673e-22)
(1.07411 0.0237173 -1.22833e-20)
(0.927242 0.100629 2.85842e-20)
(0.890089 -0.0356064 -2.3028e-22)
(1.02197 0.00414171 1.82642e-21)
(1.02762 0.0175165 3.5719e-21)
(1.01263 0.000224698 4.3391e-22)
(1.01968 0.0032709 3.37437e-21)
(1.02808 0.00155166 9.22193e-22)
(1.01168 0.0122732 0)
(1.02483 3.89759e-06 0)
(1.01531 0.0636127 1.67739e-21)
(1.05726 0.0613147 0)
(1.0111 0.00124312 8.47115e-23)
(1.09361 0.0282493 -1.23197e-20)
(1.05208 0.00870486 1.98693e-20)
(1.05057 0.0122162 1.34443e-20)
(1.05547 0.0653387 0)
(1.0186 0.00783743 -5.33824e-22)
(1.07418 0.0253638 1.35432e-20)
(1.03282 0.0740831 -7.86903e-21)
(1.00887 0.000107342 -2.30936e-22)
(1.05457 0.0405704 0)
(1.03241 0.0380599 3.34786e-21)
(1.06212 0.0174937 0)
(1.01319 0.00258897 1.07478e-22)
(1.01183 0.00167341 -3.80181e-22)
(1.01407 0.00305788 0)
(0.599301 0.00576752 1.06711e-22)
(1.02965 0.00996978 -4.01095e-21)
(1.01536 0.000715079 -5.69248e-24)
(1.06724 0.0186807 0)
(1.01445 0.003757 -9.28204e-22)
(1.01254 0.00194054 -3.0204e-23)
(1.03999 0.0578166 -9.8521e-22)
(1.05685 0.0749938 5.96386e-21)
(1.00423 0.0089314 6.17446e-22)
(0.844924 0.112785 5.71668e-21)
(1.0212 0.0370035 0)
(0.952617 0.0288338 0)
(1.02836 0.00123072 -9.78409e-21)
(1.01705 0.00512992 1.97379e-22)
(1.06046 0.0752171 1.28706e-20)
(1.01811 0.00018342 -6.00747e-22)
(1.01067 0.010904 4.70976e-22)
(1.00854 9.54321e-05 1.16567e-22)
(1.00907 6.82183e-05 1.83003e-22)
(1.02919 0.00456104 4.06998e-21)
(1.0263 0.0177551 -1.54137e-21)
(1.01108 0.0410389 1.12845e-22)
(1.01309 0.00251731 2.05424e-23)
(1.02757 0.0203494 9.26008e-23)
(1.0161 0.00444712 -5.1045e-23)
(0.813607 0.0327985 0)
(1.02515 0.0145619 0)
(1.05157 0.0140051 1.38177e-20)
(1.01383 -0.000212005 -2.95354e-22)
(1.06509 0.0426821 -2.8234e-20)
(1.021 0.012208 5.5371e-23)
(0.831192 0.125147 -2.75032e-20)
(1.00233 0.0113373 6.28613e-22)
(1.00789 0.000108685 6.74876e-23)
(0.731177 0.0338111 -2.36904e-20)
(1.03018 0.0112288 2.99544e-21)
(0.610451 0.00676893 -1.8912e-20)
(1.04636 0.00477939 0)
(0.988923 0.017111 -1.82241e-21)
(1.01783 0.00501919 2.18009e-23)
(1.01268 0.00153182 -6.95546e-23)
(1.02171 0.00387759 -7.22691e-23)
(0.802847 0.028595 0)
(1.04616 0.0200997 -6.07919e-21)
(1.04198 -0.0470706 -4.10542e-22)
(0.848555 0.128538 8.18692e-21)
(1.01945 0.00316088 0)
(1.06201 0.018234 0)
(1.01028 -0.000297929 0)
(1.01474 0.00273825 -5.23353e-22)
(0.943138 0.131488 4.30971e-21)
(1.01063 -0.0003298 -1.25407e-23)
(0.681817 0.198918 1.00873e-20)
(1.04405 0.00976298 0)
(0.988097 0.022406 0)
(1.07085 0.0489805 -2.59767e-22)
(1.08331 0.0184658 -2.14066e-21)
(1.0105 0.000220183 0)
(1.00935 0.00013944 -1.98017e-22)
(1.02809 0.0293969 8.33112e-22)
(1.01128 0.00131478 -3.48888e-23)
(1.02029 0.00763725 2.31119e-21)
(1.02648 0.0132446 -2.99439e-21)
(1.0156 0.00461077 1.54051e-22)
(1.06705 0.0193255 -2.04518e-21)
(1.01035 0.000198492 -8.24721e-23)
(0.988824 0.0596723 6.09637e-22)
(1.02145 0.00975209 1.78737e-21)
(0.633853 0.00700433 5.20481e-20)
(0.603791 0.00573624 2.42996e-21)
(1.01425 -0.0638008 0)
(0.944248 0.0293856 -5.04037e-21)
(0.751604 0.0831676 8.95383e-21)
(0.620228 0.00607411 -5.27883e-20)
(1.04578 -0.046638 0)
(1.01042 0.00101119 3.74072e-22)
(1.0166 0.000828311 -2.76207e-22)
(1.02475 0.00460327 4.6534e-21)
(1.02794 0.0116487 -3.93635e-21)
(1.01484 0.00268358 0)
(1.04689 0.020274 1.36641e-21)
(1.01634 0.0041995 -7.88917e-22)
(0.999148 -0.0526274 3.41352e-21)
(1.02061 0.00787899 -3.57298e-21)
(1.04465 0.0456935 -1.81188e-20)
(1.02943 0.00942172 0)
(1.0608 0.0133303 1.97941e-20)
(1.03417 0.0278094 0)
(1.01332 0.00168567 1.95627e-22)
(1.0327 0.0307309 2.77117e-21)
(1.02989 0.0113745 7.69445e-22)
(1.01658 9.67775e-05 4.97685e-24)
(1.04187 0.0180177 -8.04029e-21)
(1.01484 -0.00042782 0)
(0.784493 0.0245706 0)
(1.05105 0.0471387 0)
(1.01245 0.0117197 0)
(1.01338 0.00197926 0)
(1.02158 -0.000699554 0)
(1.01666 0.00546914 -1.10254e-22)
(1.01631 0.00458914 0)
(0.684753 0.186058 0)
(1.0106 0.00111176 2.02256e-22)
(1.06488 0.0651458 0)
(1.01407 0.00329021 3.36427e-22)
(0.905944 -0.0596292 0)
(1.01951 0.0118689 4.07082e-23)
(1.01546 0.00424559 1.58393e-21)
(1.07467 0.0241427 6.75209e-22)
(1.01647 0.00846808 0)
(1.01075 0.00119558 -1.01466e-22)
(0.856039 -0.0365353 -7.02647e-22)
(0.904004 0.118697 0)
(1.0221 0.012665 0)
(1.0669 0.0413756 1.11625e-20)
(1.01128 0.00121674 7.25428e-24)
(1.05606 0.0600264 0)
(1.01598 -0.000730554 1.30868e-22)
(1.01634 0.00466926 0)
(0.669645 0.0138064 2.35936e-20)
(1.00911 7.17817e-05 1.58099e-22)
(1.03347 0.00861678 0)
(1.07184 0.0419793 1.35242e-20)
(0.65922 0.0109498 -4.50217e-20)
(1.01643 -0.000920731 -1.34458e-22)
(1.02557 -0.0359685 0)
(1.04087 0.0765707 0)
(1.01622 -0.000211649 0)
(1.01722 0.00633909 -8.7807e-23)
(1.0158 0.00478457 1.53427e-22)
(1.0225 0.0455963 0)
(1.02102 -0.000245716 7.65517e-22)
(1.0799 0.0413157 -1.92562e-20)
(1.02575 0.00633318 6.97029e-23)
(0.702833 0.0197511 0)
(1.02034 0.0121822 -8.53795e-24)
(0.710627 0.0287211 1.90697e-20)
(1.01428 0.00275365 0)
(1.01264 -0.000350573 -1.08157e-22)
(1.0002 -0.0493677 2.34794e-22)
(1.01406 0.000298528 8.7655e-22)
(1.01658 -0.000842638 -4.06471e-24)
(0.84391 0.0282063 -2.28728e-20)
(1.02416 0.0124046 9.96783e-22)
(1.01204 0.00184355 -9.93507e-22)
(0.918509 -0.112956 6.01358e-22)
(1.01648 -0.000269305 0)
(1.01665 0.000951461 2.73236e-22)
(1.05251 0.0448746 -6.4503e-21)
(1.02564 0.0132706 -1.33925e-21)
(0.887224 0.0497184 0)
(1.03385 0.029838 1.78883e-22)
(1.07731 0.025812 1.42012e-20)
(1.02245 0.05826 0)
(1.04201 0.0107741 3.41374e-21)
(0.712155 0.0194861 7.37296e-23)
(1.02173 0.0103273 2.38842e-21)
(1.05358 0.0425679 0)
(1.02032 0.0019593 3.24259e-21)
(0.59673 0.00788983 -1.99409e-20)
(0.91798 -0.0478123 -2.9478e-22)
(1.03133 0.00335021 5.3936e-21)
(1.01577 -0.000712244 1.38731e-22)
(1.01618 0.000422455 8.69336e-22)
(1.02179 0.00874289 0)
(1.0154 -0.000570458 -1.00079e-24)
(1.01369 0.000152133 1.89129e-22)
(1.01441 0.00065123 -6.54224e-22)
(1.02159 0.00346615 7.16009e-21)
(1.03978 0.0231106 0)
(1.00876 9.65488e-05 2.58158e-22)
(1.02418 0.0120644 9.85339e-22)
(1.07024 0.0356354 1.43804e-21)
(0.727353 0.163577 0)
(0.822368 0.122898 3.07677e-20)
(1.07076 0.0409787 1.14805e-20)
(1.01673 0.00561083 -3.51179e-23)
(0.99095 -0.0501326 0)
(1.01578 0.00368275 0)
(1.06847 0.071841 -3.93996e-20)
(0.930802 0.0635142 0)
(0.338876 0.00140343 0)
(1.01182 5.32205e-06 -5.61115e-22)
(1.01055 0.0010885 -3.38204e-22)
(1.01716 0.000607742 -1.40682e-21)
(1.01863 0.00702174 -8.12546e-22)
(1.01165 -2.9539e-06 5.31176e-22)
(1.01481 -0.000284457 1.502e-22)
(1.01739 0.00364213 3.65632e-21)
(1.04034 0.0290677 -4.62413e-21)
(1.01213 0.00186664 0)
(0.51145 0.00705874 -2.90227e-20)
(0.964863 -0.0963114 1.26225e-21)
(1.01246 0.0023307 -3.81069e-22)
(0.819286 0.0309575 1.41203e-20)
(1.02063 0.00198458 -3.83041e-21)
(1.01412 0.00285559 1.36252e-26)
(1.01379 0.00453101 -2.56115e-22)
(0.718316 0.0257084 -1.85715e-20)
(1.03752 0.033162 -5.15285e-21)
(1.0087 -2.67058e-05 -1.11494e-22)
(0.856539 0.071284 -6.87102e-22)
(1.01423 0.00164158 0)
(1.01411 0.00252811 0)
(1.08886 0.0288371 1.80414e-20)
(1.01694 0.00077556 1.39091e-22)
(0.958944 0.108608 2.99905e-22)