/*--------------------------------*- C++ -*----------------------------------*\
| =========                 |                                                 |
| \\      /  F ield         | OpenFOAM: The Open Source CFD Toolbox           |
|  \\    /   O peration     | Version:  v2012                                 |
|   \\  /    A nd           | Website:  www.openfoam.com                      |
|    \\/     M anipulation  |                                                 |
\*---------------------------------------------------------------------------*/
FoamFile
{
    version     2.0;
    format      ascii;
    class       surfaceScalarField;
    location    "100";
    object      ddtCorrDdt0(phi);
}
// * * * * * * * * * * * * * * * * * * * * * * * * * * * * * * * * * * * * * //

dimensions      [0 3 -2 0 0 0 0];
oriented        oriented;


internalField   nonuniform List<scalar> 
20642
(
-0.000692761
0.000846299
-0.000153491
0.00202049
0.00395119
-0.00597167
0.00350575
-0.000520596
-0.00298518
-8.52888e-05
1.81446e-07
8.5115e-05
0.00189601
0.00235904
-0.00425506
-0.00404072
0.00606124
-0.000297196
-1.134e-06
0.000298318
0.00163433
0.0151109
-0.0167453
-0.000125746
0.000313383
-0.000187662
-0.0050612
-0.00294508
-0.0130119
0.0146463
0.000123435
-1.41414e-05
-0.000109326
5.5034e-05
-5.50341e-05
0.0378191
-0.0516765
0.0138573
-0.00272596
0.00219525
0.000530694
-0.000829248
0.000136495
1.11562e-05
-1.00625e-05
-1.11634e-06
0.00106367
-0.0123049
0.0112412
0.00377208
-0.00280815
-0.000963859
0.00281441
-0.00195345
-0.000860968
0.00244888
-0.00172924
-0.000719633
0.000189563
-0.000126961
-6.25676e-05
0.00150546
-0.000365714
-0.00113976
0.000184186
5.39301e-06
6.07106e-05
-2.1798e-05
-3.88796e-05
-0.00318061
0.000506695
0.00267394
0.0628292
-0.0383279
-0.0245013
-0.00506119
-0.00558411
-0.00317445
0.00875859
0.000102748
-9.29393e-05
-9.81355e-06
-0.00139859
-0.00366261
0.00128966
-0.000240187
-0.00104944
-6.94638e-05
0.000120416
-5.09249e-05
-0.000269212
0.000611462
-0.000342222
9.71056e-05
-6.83588e-05
-2.87395e-05
0.0259584
-0.0108476
0.000502543
-0.000505813
3.29807e-06
7.90207e-05
-9.19963e-06
-6.98227e-05
-2.75651e-05
-0.00026963
-0.00291852
0.00050651
0.00241203
-3.60168e-06
3.25243e-06
3.60147e-07
0.000391228
-0.000538205
0.000146983
-0.000215038
8.4504e-05
0.00013058
0.000455278
0.00179335
-0.0022486
0.00209496
-0.00163974
0.0176077
-0.00759285
-0.0100148
0.00178407
0.000664821
-0.00859877
0.0217949
-0.013196
0.0502529
0.00282014
-0.053073
1.43022e-05
8.28205e-05
0.00010259
2.08459e-05
-0.00717148
0.00199524
0.00517626
0.00109383
-1.63149e-05
-0.00107751
-3.00265e-05
-9.35648e-05
0.000123639
6.99849e-05
5.64721e-05
-0.000126384
-0.00194483
-0.00522663
-0.00139859
0.000882505
0.000622974
0.000186728
0.000204516
0.00621943
0.0113883
0.0168402
0.000475533
-0.0173157
-0.00706419
0.00554153
0.00152271
-1.92836e-05
2.72285e-05
-7.9431e-06
-1.07322e-05
7.14427e-05
0.00491168
-0.00242466
-0.00248699
-0.00212965
-0.00111013
0.00323979
-0.00705156
0.000214171
0.00683739
-0.000359159
0.0263176
-0.0119483
2.00104e-05
0.00083286
-0.00085284
0.00349916
0.00046321
-0.00396234
0.000320599
-0.000589806
2.41599e-05
-6.16557e-05
3.75349e-05
0.000250049
-6.33319e-05
-0.00422438
0.00249513
0.000240663
-0.000184568
-5.60964e-05
0.00104582
5.22006e-06
-0.00105102
3.52851e-05
0.000214779
8.24279e-05
0.00015827
1.55039e-05
-8.49678e-05
7.56164e-05
6.26917e-05
-0.000138264
-2.12074e-05
2.27409e-05
-1.53612e-06
-6.9686e-05
9.3868e-05
-0.00226299
0.000868128
0.00139489
-2.63115e-05
-5.26883e-05
7.89934e-05
0.0186388
-0.0445287
0.0258899
0.000797477
0.000492198
-9.86364e-05
9.40757e-05
4.55701e-06
0.000118977
-0.00303751
8.8343e-06
2.32263e-06
-8.91352e-06
7.69929e-06
1.20887e-06
-0.000118297
-0.0443615
0.0946144
-2.36858e-05
-3.94009e-05
6.31158e-05
-0.000219326
3.77646e-05
0.000181582
-0.0126357
0.0466415
0.00563938
-0.0522808
3.64765e-05
-3.51802e-05
-1.27735e-06
-2.93927e-05
-6.92438e-05
0.0331354
6.8206e-05
-0.0332036
-1.35976e-05
1.39058e-05
-3.10101e-07
-1.47091e-05
1.10833e-06
8.41803e-05
-8.5403e-06
4.50466e-05
-4.59856e-05
9.37962e-07
-0.000706401
0.00175224
-0.000761376
0.000724312
3.71239e-05
-0.00414465
0.00597631
-0.00183163
-0.00207178
-0.00499241
0.000107995
-0.000646201
0.0337244
0.0291048
2.90492e-05
3.55494e-06
0.000330465
0.000281004
0.00564001
-0.00881446
0.0015216
0.00339009
4.39133e-05
-0.00023697
0.000193049
0.00225151
0.00152066
-5.42412e-06
1.60505e-06
3.84347e-06
-0.00336649
0.000374083
0.00299241
2.61879e-05
2.54019e-05
-5.15759e-05
2.04615e-06
-2.32403e-05
-0.000107774
1.23761e-05
9.54053e-05
0.00910139
-0.00888722
-0.00430085
0.00262654
0.00167432
-0.0009527
-7.06118e-05
0.00102333
-0.00133452
-0.000928452
-3.84393e-05
-3.78179e-05
7.62223e-05
-0.00258642
-0.00163797
-2.94523e-05
0.000109234
-7.97632e-05
-0.00108675
-0.00321411
0.000251301
0.000132788
-0.000384074
0.0157767
-0.0198305
0.00405374
-0.000353697
-0.000508964
0.000862647
-0.000199009
0.000242929
0.00168786
-0.000878949
-0.00080888
0.0699169
-0.0361925
-0.0158966
-0.00146606
0.0173627
0.000728292
-0.000554829
-0.000173476
-0.0046618
0.000287233
0.00437458
7.90247e-05
-0.0225843
0.0352399
-0.0126556
-9.34749e-05
0.000128766
-0.000497898
-0.000263467
-8.18348e-05
-1.64089e-05
9.82552e-05
1.14085e-05
-8.74217e-05
7.60334e-05
-0.00280271
0.00141421
0.00138848
0.00423776
-0.000738578
0.108383
-0.0188575
0.0131281
0.00572951
-0.000160431
0.000130405
0.00182929
0.000415019
-0.00224435
-1.90834e-05
2.06369e-05
-1.55223e-06
6.42261e-05
-5.28388e-05
0.0420431
0.0045985
-0.000240693
5.86975e-05
0.000181977
3.66646e-05
8.37703e-06
0.000378987
-0.000889483
0.000510496
3.46157e-06
-3.19635e-06
-2.53414e-07
-4.56883e-06
-8.59785e-07
8.88138e-07
-7.53796e-05
7.45198e-05
-0.00183286
0.00911062
-0.00727774
0.000565649
-0.00117797
0.00061233
0.00710019
-0.00674723
-0.0130631
0.0198103
0.0195524
0.0193613
-0.0389137
0.00109385
-0.00770144
0.0338924
-0.026191
2.26237e-05
1.22338e-05
-3.48789e-05
0.000363877
-0.00502567
-0.000142863
0.000242028
-9.91429e-05
0.00065663
-0.000451382
-0.000205242
0.000198954
0.0164561
-0.0189175
0.00246141
0.00465805
-0.00471318
5.51552e-05
-1.30354e-05
5.53017e-06
7.49857e-06
-8.31531e-05
-2.11856e-06
-0.00864242
9.06123e-05
0.00855182
-0.000110935
0.000362286
-0.00131249
0.00187811
-0.000224945
4.65623e-05
0.000178396
4.13283e-05
0.000119039
-1.64658e-05
0.00808893
0.000183042
-0.00827196
-0.000787298
-0.0025792
-0.00165313
0.0174299
1.20383e-05
0.000106986
-0.00211723
0.0102062
4.87755e-05
5.39813e-05
0.0287477
-0.0101089
0.000735102
0.00392297
0.000749814
0.00134516
-0.00597438
-0.00148155
0.00745595
-0.000709092
-0.000342231
0.00105135
-4.40379e-05
2.0359e-05
0.00108103
-9.78499e-05
-0.00098318
-2.01123e-05
0.000168008
-0.000147877
0.000726973
-0.00108063
-8.71909e-05
1.88337e-05
-2.22893e-05
-0.000218438
-0.000837099
-0.000565263
0.00140237
0.000669385
-0.000888256
0.000218879
0.000722608
5.72689e-06
-0.000298509
-0.00023225
0.00053073
0.0493549
-0.035166
-0.0141888
-0.00535231
0.00458865
0.000763674
0.00194828
-0.00020125
-0.00664717
-7.35624e-05
0.000136244
2.00112e-05
-8.33557e-05
6.33567e-05
0.00208072
0.00326837
-0.00534909
0.00750156
-0.00542083
0.0029373
0.00103953
0.000648334
-0.00289338
0.00247994
-0.00584293
0.00336301
7.23147e-05
-2.53215e-05
-4.69885e-05
4.11274e-06
-1.94339e-05
1.53083e-05
-1.89443e-05
2.30548e-05
0.0343377
-0.00801718
-0.000542494
0.00855968
-0.0083634
-0.00145697
0.00982039
7.07344e-05
-1.99902e-05
-5.07589e-05
-2.21562e-05
2.86677e-06
0.037153
0.0327638
0.00106472
1.98047e-05
-1.32228e-05
-6.57933e-06
7.47792e-06
1.23102e-05
1.17905e-06
-4.77488e-06
5.10177e-06
-2.40516e-05
-2.19062e-05
2.70045e-05
-0.000381845
0.000702446
0.0121848
-0.0222872
0.0101024
-9.65865e-05
7.35587e-05
2.30281e-05
-2.66585e-05
-1.16863e-05
3.83643e-05
-0.00184544
0.00374011
-0.00189461
-0.000705143
-9.032e-05
0.000795487
3.57254e-06
-4.29512e-06
7.07981e-07
5.28735e-05
1.78541e-05
-0.00486424
0.0542191
0.000850412
-0.000536036
-0.000314328
-0.00783413
0.0044388
-0.00195886
-0.00643458
0.00203132
0.00440328
-9.5339e-05
1.35156e-05
0.0217317
0.0121607
-0.00397767
0.00213225
-0.00151137
0.00715139
0.00315349
-0.0017837
-0.00136975
0.000130503
-0.000429036
0.0151221
-0.000154038
0.000142279
1.17591e-05
-0.00263491
0.00179311
0.000841871
0.00216341
-0.00401354
0.00185016
-0.000119819
3.86058e-05
8.12222e-05
3.25668e-06
-4.91775e-05
0.00313697
-0.0043005
0.00116355
0.000178843
-0.000113566
-6.52545e-05
-0.000126747
0.000934325
-0.000807579
0.0161321
-0.0378463
0.0217143
-0.000114243
8.66251e-05
2.76168e-05
-5.4091e-06
1.28825e-05
-0.000359174
0.000417868
-3.55431e-06
-1.84909e-06
-0.000128637
-1.13023e-06
5.61634e-05
-0.000613362
-0.000449813
0.00106314
-0.000137634
2.33885e-05
0.000231103
0.000149607
-0.00803094
0.00388632
4.41279e-05
-0.000114658
7.05583e-05
-0.00085577
0.00219874
-0.00134296
-0.0199736
0.0106757
0.00929784
-8.10884e-06
4.50095e-05
-3.69244e-05
-0.0299876
0.017376
0.0126116
0.00070603
-0.000832757
-4.95311e-05
4.14006e-05
0.000783375
-0.000763361
0.000186753
-7.9194e-06
0.0102278
-0.0120606
-1.23312e-05
-7.089e-07
0.00199672
-0.00115314
-0.000843585
-7.9763e-05
-4.00328e-05
9.45316e-06
9.67724e-05
-0.000106203
-0.00268027
0.00408004
-0.00139976
6.25087e-05
-6.25063e-05
1.85062e-09
-0.0151826
0.0347349
0.000411189
6.39016e-05
-0.000475082
-0.000803198
-0.0019995
0.00550238
0.0295321
-0.0350344
0.000536382
1.6824e-06
1.88924e-06
0.00238232
-0.000917831
-0.00146444
-0.000470785
0.00266562
-0.00219484
7.99562e-05
-0.000490917
0.000410922
0.00444843
-0.00255242
9.97077e-05
-1.72966e-05
-2.4078e-05
-4.50087e-05
6.9128e-05
1.19703e-05
5.05154e-05
0.00807163
0.000589422
-0.00866106
-0.00874628
-0.00947074
0.018217
-0.0012241
-0.00141079
-7.37877e-06
0.000107139
-6.02717e-05
2.15422e-06
5.81119e-05
0.000895107
-0.000516105
0.000890372
-0.000220979
1.99016e-05
9.16247e-05
-0.00011151
0.000167619
0.00150861
-0.00167623
-0.000119071
-0.00808191
0.027832
-0.0197501
-0.000270228
-0.00132301
0.00159322
-0.000828617
0.0037555
-0.00292683
-0.00120371
0.0176599
0.000763923
0.00174026
-0.00250417
-0.0134487
-0.00638178
-0.00210522
0.00124949
0.0026501
-0.00178197
0.0245199
-0.0326019
0.000491726
0.00301399
-2.25641e-05
-3.24707e-05
-0.00121037
-0.0015156
-0.0431921
0.000326258
-0.000233058
-9.3162e-05
-0.0047635
0.00871468
0.00187104
-0.00112124
-8.56174e-06
9.90038e-06
-1.34818e-06
0.000386321
0.000270328
-2.73561e-05
-4.36838e-05
7.10398e-05
3.86501e-05
-0.00012709
4.82291e-05
3.38843e-05
-8.20848e-05
0.0047047
-0.00189028
-2.37977e-05
7.29166e-05
-4.91238e-05
0.00200437
-0.00115298
-0.000851386
-0.00207644
-0.00327586
-0.000494156
0.00125808
2.88981e-06
-1.14698e-05
0.000117061
-0.00130272
0.00118569
-0.000596458
0.00046203
0.000134436
-0.000261295
0.000183226
7.81008e-05
0.000390123
-6.38582e-05
-1.76408e-05
0.000348096
-0.000461881
0.000384224
7.76854e-05
-0.00186258
0.0124803
-0.0106176
0.00985737
0.0279618
-5.56679e-06
-4.39717e-05
-1.80708e-05
2.54665e-05
-7.41398e-06
0.00121679
-0.000190771
-0.00102598
-0.0166155
0.00316675
4.74503e-05
-5.30217e-05
0.00397766
-8.48207e-05
-4.02261e-05
0.000125063
0.00702039
-0.00836227
0.0013419
0.000780291
-0.0013761
-0.00283192
0.00420804
0.0136868
-0.0032809
-0.010406
-0.00439947
-0.0255881
0.000468602
0.000142765
-0.000611371
0.000277577
0.000108651
-0.000386183
5.89119e-05
-8.83689e-05
-7.53085e-05
-0.000185985
0.00448686
-0.00212783
0.00112968
0.00348843
-0.0046181
7.7691e-06
-9.35497e-07
-6.81155e-06
0.000137216
-0.000222166
0.000690744
-0.0084443
0.0275115
0.000127879
-5.78449e-05
-0.0012103
0.0126778
-0.0114675
0.00079515
-0.00062753
-0.033648
-0.0334479
0.0670959
0.000680018
-0.000365673
-0.000314321
-0.0104807
-0.0137542
0.00428749
-0.00636391
0.000121051
-7.6918e-05
0.00417599
0.00169601
-0.00587198
-0.000159218
5.77301e-05
0.000101504
0.0158176
-0.0225649
-0.00651687
0.000574062
0.000105959
-0.0780095
3.12116e-05
-0.000193814
0.000162635
-0.000520447
0.00750849
-0.00698805
8.27898e-05
-6.73001e-05
-1.54776e-05
0.000130176
-0.00208361
-0.0120017
0.0114813
0.000122207
6.3401e-05
-0.000185529
0.0798678
-0.0427148
-0.0219059
0.0189389
0.00296705
0.000313456
-0.000412214
9.87276e-05
0.010966
-0.0209054
0.00993939
5.11191e-05
-0.00142816
0.000214821
-0.000108583
-0.000106219
-0.00510485
0.00242457
-4.35664e-05
4.64163e-07
4.30747e-05
-0.0175282
-0.00437778
0.00292309
-0.00344369
-5.67521e-05
-0.00036304
0.000190608
0.00017251
0.000125694
-0.000133081
-8.5544e-05
-2.0363e-05
0.000105924
7.87244e-06
4.16391e-05
-4.94946e-05
3.56297e-05
-6.70457e-05
3.14552e-05
-0.0152359
0.0345972
0.000142124
2.78344e-05
-0.000169906
-9.51529e-05
5.97659e-05
3.54161e-05
-1.26358e-06
-0.000143717
0.000145004
-0.00174495
-0.000540373
0.00228532
-0.0260016
0.024662
0.00133959
2.52415e-05
-2.66807e-05
1.43968e-06
3.99141e-05
-1.72985e-05
-0.00185479
0.00158455
-0.0128073
0.011597
-7.63635e-05
8.58338e-05
-0.000190956
0.000313199
0.0151663
0.00020595
-0.0153722
0.0236299
-0.0300561
0.0064262
-0.00018346
-0.00194619
-0.00321599
0.000407875
0.000486783
0.00216331
9.01389e-05
7.18596e-07
-9.08494e-05
-6.52935e-06
1.6276e-05
-9.74381e-06
0.0018206
-0.00206879
0.000248148
-3.92527e-05
4.71227e-05
1.8715e-05
-5.79703e-05
2.47766e-05
-8.50154e-06
2.67031e-05
6.34439e-05
0.0301181
0.00741444
-0.0375325
1.61671e-05
-5.97692e-05
-0.000838222
-0.00243248
0.00327071
-0.000340477
0.00049006
0.000829338
0.00155301
-6.94653e-05
8.94674e-05
5.57905e-05
8.43754e-06
0.0175039
-0.00653796
0.00128149
-0.00211857
-0.0010408
8.81132e-05
2.63358e-05
-6.11112e-05
3.47952e-05
0.000107582
-7.08158e-05
-3.67727e-05
3.88723e-06
-0.000163076
7.19385e-06
-2.90932e-05
0.000486059
1.64833e-05
1.40697e-06
-0.000307844
0.000306452
0.0108806
0.00428574
-0.000595535
0.00233224
-0.00173671
0.000352528
6.69572e-05
4.06319e-05
0.000414496
-0.000542918
0.000128411
0.00142992
0.00226457
-0.00369451
-2.94395e-07
-7.32535e-05
-0.00344672
-0.0029879
0.0128965
-0.014759
3.77809e-05
-0.000122585
-0.00984284
-0.0122694
0.0221122
-2.59961e-05
9.51209e-05
-6.91142e-05
-9.00905e-05
3.42037e-05
5.58696e-05
0.000135706
-0.000136969
-0.000109602
0.000140837
-4.71885e-06
-6.38361e-05
6.85444e-05
7.52924e-05
-0.000103853
2.8554e-05
0.000386152
-0.00207735
5.18604e-05
-5.65607e-05
-0.0176174
0.0231197
0.00139351
0.000189614
-0.00158317
3.55815e-05
6.84303e-06
-4.24249e-05
0.00246356
-0.000546179
-0.0019174
-0.000479652
8.78746e-05
-0.0203229
0.0178555
0.00246739
-0.000216367
0.000402876
-0.000186534
0.000262435
0.0162366
-0.0297051
0.0134685
-0.00665011
0.0228867
-0.000192416
0.000630129
0.00619704
-0.00476712
0.000443945
-0.0154737
0.0122923
0.00318135
-7.18084e-06
-1.74995e-06
2.95102e-05
-0.000123074
-3.60966e-05
0.000108471
-0.00020502
9.6527e-05
0.00186244
-0.00165401
-0.000208385
0.00418581
-0.00213015
-0.00205562
0.000217392
0.000745239
-0.000962664
-0.00317743
0.00147398
0.00170347
0.00222706
-2.83104e-05
0.00462288
-0.0169277
0.00792789
-0.00124556
-0.00668229
-8.8934e-06
0.000151052
-0.0297381
-0.0219383
0.000487319
-0.000839037
0.000351711
-0.000135824
0.000547024
-0.0203564
0.00318923
0.0171672
-6.99999e-05
0.00134114
0.00658677
0.00874963
-0.00865903
2.19972e-05
4.10705e-05
-6.30459e-05
-0.000817388
0.000355078
0.000462309
-3.37987e-05
-5.62974e-05
-1.52927e-05
2.24859e-05
0.000273646
-0.00201858
4.51225e-05
-1.87961e-05
6.14412e-05
1.088e-05
0.0114755
-0.00340388
0.000877521
6.08652e-05
-0.0444296
0.0925472
-0.0481176
7.12244e-05
-7.03432e-05
7.53573e-05
1.43186e-05
-8.96843e-05
-0.000358634
-0.000935147
0.00129378
0.00473327
-0.0144542
0.00972096
-0.0157303
0.0251501
-0.00941988
7.6838e-06
-0.000118986
0.000111343
-0.000103955
2.05976e-06
6.74468e-05
-6.95026e-05
0.00135274
0.00176663
-0.00311934
0.0220251
0.0510982
-0.0731233
-0.000110576
-1.74211e-05
0.000127988
4.52266e-06
3.22633e-06
0.000134874
-0.000157202
1.0885e-05
-9.64214e-05
0.00390949
-0.00334159
-0.000567913
-0.000372835
2.40347e-05
0.000348822
1.05915e-05
-0.000919978
0.00113736
-3.9378e-05
6.13723e-05
4.83869e-05
5.86344e-05
-0.000107004
0.000156321
-3.06003e-05
0.000411645
-0.00184766
0.00143601
-3.05687e-05
7.9125e-06
2.26504e-05
0.00014797
-0.000199227
5.13778e-05
0.000120251
-0.00023382
0.000569338
-0.000154867
2.92225e-05
-0.002771
0.00274174
-0.0122513
0.0131145
-0.000863154
-0.00254976
0.0178995
0.000119748
-0.000155391
3.57154e-05
0.0137243
-0.000210681
0.000937641
0.00234878
0.0277693
7.54717e-05
-0.000415923
1.56215e-05
5.80961e-05
-7.36841e-05
-8.58775e-06
0.000136838
-0.000128272
-0.00112574
-0.00205168
8.45224e-05
-2.03861e-06
-8.24748e-05
-0.00397804
0.00319936
0.000778691
-7.15697e-06
5.21527e-05
0.0416639
0.0274813
-0.0691451
-6.90869e-05
4.89665e-05
-0.000579587
-0.00031142
0.000891041
0.0174443
-0.000140441
-0.0101615
0.00318027
0.00698128
4.81251e-06
4.70563e-05
-0.000166152
0.000450806
-0.00028464
2.6349e-05
1.01224e-05
0.00119327
-0.00108009
-0.000113118
-0.000555402
-2.41933e-05
2.23632e-05
2.27569e-05
0.00245594
-0.000487355
-0.00196853
-2.47979e-05
2.35718e-05
1.22696e-06
4.02586e-05
-4.67783e-06
0.000127109
0.00230571
0.00188012
0.0011599
0.00274958
6.98111e-07
-7.85077e-06
7.1685e-06
-0.00192478
0.000394848
0.00152992
0.00229788
0.000165698
0.0470205
0.0310855
0.00414369
9.40771e-05
-0.00114719
0.000415743
0.000731481
-0.0159002
-0.00442267
-2.62245e-05
-4.34038e-06
0.00121789
-0.000768852
-0.000449018
-3.29171e-05
2.26471e-05
1.02558e-05
-0.0154374
0.0139713
0.0597837
0.048599
0.00109272
0.000100571
0.00123533
-0.00167952
0.000444202
-8.31639e-06
-6.40195e-06
-0.000308948
0.00079625
-0.000106374
0.000152965
-4.31504e-06
-5.6526e-06
-2.95279e-05
-0.00010296
3.11484e-05
7.18122e-05
0.000586491
0.00355726
-4.89242e-05
7.80246e-05
-2.90743e-05
-0.00100169
0.000540288
0.000461362
-8.19456e-05
0.000111424
3.61863e-06
-2.91916e-06
2.07836e-06
1.39033e-06
0.00335627
-0.0109491
0.0143825
-0.00854059
-0.00584197
5.6538e-05
-0.010218
0.00281625
0.000337297
-2.72833e-05
-0.000345537
0.00905428
-0.0064666
-0.00258766
5.25984e-05
-0.000757762
6.17901e-05
2.09826e-05
0.00833253
-0.0171563
0.00882378
-5.61488e-05
-4.6811e-05
0.00071193
0.00029056
-0.00100247
1.32312e-05
7.12917e-05
0.00574245
-0.00156645
-7.42481e-05
8.5133e-05
-0.00340317
6.15574e-05
-5.72877e-05
-3.01133e-05
0.0863283
-0.000873963
0.00109115
-0.000217228
0.00432821
-0.00104371
-0.00328446
-1.01487e-05
-2.30725e-06
1.24273e-05
0.000374718
-0.000988055
0.000167129
-6.50666e-05
-0.000102067
-1.08539e-05
2.53351e-06
-1.00997e-05
0.000287657
0.0401344
-0.0467434
0.0066091
-0.000115497
0.000102318
1.31879e-05
-0.00487883
0.00350273
-7.40164e-06
0.000267339
0.000148243
-0.000415525
-2.27436e-07
-1.88657e-05
-6.08118e-05
5.07518e-05
1.2889e-05
-6.17984e-05
0.00580259
2.69181e-05
-3.4082e-05
-5.83385e-05
-5.71556e-05
-0.00251067
0.00364036
1.3593e-05
7.04903e-06
0.00133978
0.00311324
-0.004453
-2.71868e-05
2.55155e-05
1.66441e-06
-7.33588e-05
3.72536e-05
3.61286e-05
-0.0149618
-0.000204222
0.000138132
0.00069143
-9.75138e-05
-0.000593911
0.000859742
0.00159622
0.00708207
0.0185466
-0.0256286
0.00707124
0.00167837
4.66712e-05
-4.18625e-05
-0.00070539
0.00290065
0.00136983
-0.000958181
-0.00104918
-0.00071335
0.00176252
6.81148e-05
0.00175251
-0.000100046
-0.000405728
-0.00339517
-7.99509e-06
-9.51183e-06
-1.76825e-05
5.41945e-05
-5.01196e-05
-4.08297e-06
-0.00164073
-0.000863435
-0.000661156
-0.00268443
0.0033456
-9.36079e-05
2.04289e-06
9.16207e-05
-0.0185566
-0.00179981
6.56803e-05
-0.000939667
-0.0256668
0.00109297
0.0245739
-0.0258915
0.0101612
-0.0155174
0.00677114
0.00132178
-0.000425277
-0.000896466
0.00367263
-0.0051542
0.000693054
-6.3472e-05
0.00178677
0.00564918
-0.00743596
-0.00201098
0.000370256
-3.11819e-05
-4.21606e-05
-1.48477e-05
1.69001e-05
-3.60343e-06
4.03387e-07
-0.00136407
0.00100544
6.01241e-05
-9.42246e-05
3.41112e-05
0.000556079
0.000661821
-0.000126586
0.000331428
-0.000204802
-5.04916e-05
3.82256e-05
1.22556e-05
0.00068532
0.00118574
5.16241e-07
-1.06703e-05
-0.00392153
0.00309292
0.000109436
7.73222e-05
0.000104661
4.55981e-06
0.000106198
0.000771297
-0.00213742
0.000267305
0.00187
0.0495863
0.00493805
-8.59697e-05
1.4362e-05
7.15914e-05
-0.000395987
0.000500402
-0.000104425
-9.54715e-05
-1.94674e-05
0.000114941
9.26322e-05
-5.58303e-06
-8.70581e-05
0.000284237
3.59282e-05
-0.000320124
-9.47787e-06
7.04004e-05
-6.09299e-05
-0.000138873
0.000851239
-0.000712345
-0.000218974
-0.00058097
0.000799985
0.0410056
0.0140177
-0.0550233
-0.0074006
0.0569869
0.00737324
-0.00558647
-0.00109896
-4.82374e-05
1.32813e-05
6.20724e-05
-5.58949e-05
2.4228e-05
3.16705e-05
0.00010879
-0.000139505
0.000845522
0.0354382
-6.77623e-05
0.000235754
-0.000771802
-0.000268992
-0.0215989
0.0594582
-0.0378593
-7.16024e-05
4.78071e-05
0.000123555
-0.000103668
0.000373443
0.000112599
-0.000212241
0.00979679
-0.054857
0.0450602
0.000641344
1.42908e-05
7.83445e-05
0.000162059
-1.40579e-05
-0.000270096
-0.00105458
-0.00105061
-0.00548501
0.00265313
0.000280518
-0.000407123
0.000193607
-0.000155785
6.72596e-05
-5.17745e-05
-2.99333e-05
-2.59603e-05
0.000359043
-7.47872e-05
-0.00207344
-0.00135405
8.89844e-05
-0.000220353
0.000131321
0.00199434
-0.00176063
-0.000233722
0.000814472
1.70196e-05
-0.000831483
-0.000374584
5.38263e-05
0.000320747
0.0524356
-0.0740344
-0.000447374
0.000347386
0.00274438
0.000641469
-0.00338583
0.000213458
-8.16937e-05
-0.000131743
0.000704774
-0.00175396
1.33744e-05
9.36817e-06
-0.000317215
0.000360911
-4.36354e-05
0.0057628
0.0086197
0.0102393
-0.00328214
-0.00695719
2.35758e-05
-9.96047e-05
7.60361e-05
-0.000401952
8.26929e-05
-2.25748e-05
2.33647e-05
4.77633e-05
-7.10839e-05
-7.14722e-06
-3.65803e-05
4.37258e-05
-0.00339407
0.00714463
-0.00375059
0.00166904
-0.00669662
0.0100529
-0.00414524
-1.77512e-05
4.24234e-05
-2.46618e-05
3.77272e-05
-0.00170778
0.00167005
0.000280729
3.26398e-05
0.000272769
-0.000164297
-0.00120621
2.84782e-06
-2.09202e-05
0.000450631
-0.000616758
-0.0306273
0.0362667
-7.99411e-06
2.35614e-05
-1.55456e-05
-0.00252257
0.000385131
-0.000453662
0.00599766
-0.00554402
-0.000164136
0.000444652
6.85216e-05
-5.04714e-05
-1.80271e-05
-1.30311e-05
-7.03068e-05
1.55343e-05
3.86609e-05
-5.53847e-05
5.00411e-05
7.03682e-05
-0.000347705
5.30374e-05
0.000294664
-0.000262472
0.00030104
-8.24083e-05
7.29305e-05
-8.33274e-05
-1.41021e-05
9.74404e-05
0.00190959
-0.00385441
-0.0458098
-0.00925034
0.00336211
0.00588823
0.00996831
0.0136615
0.0003951
0.00662531
0.00104664
2.60541e-05
-3.31917e-05
-0.00148165
0.00148687
-0.00651823
0.003127
0.00339126
-0.000180352
0.0012731
0.0194698
-0.0130461
-0.00642367
-5.87736e-06
-5.59598e-06
2.16809e-05
-1.98644e-05
-1.81874e-06
0.00014223
-5.0055e-05
-9.22189e-05
-6.35073e-06
0.000666351
-0.000660026
-0.0171574
0.00490605
6.35934e-05
4.92511e-06
-0.00711302
-0.00669924
0.0138123
0.000193057
-0.000103224
-8.98279e-05
-0.024789
0.0845726
-0.000383964
-0.000360448
0.000144079
-1.2877e-05
0.000745513
-0.00252919
0.000786342
-0.00473935
-0.00977263
0.0145119
-0.00971622
0.00046589
-6.54858e-06
6.66416e-07
0.00100135
0.00275415
1.71841e-05
5.52706e-05
-7.24778e-05
0.000836474
-0.000113816
0.000228061
-0.0270695
0.0206075
0.00646204
0.000768994
0.000123794
-0.000892823
2.78942e-05
-1.36641e-05
-1.4216e-05
-6.35683e-05
8.7138e-05
0.000565219
-0.000282189
-0.000283023
-0.000401847
0.000332235
6.96685e-05
0.0266311
-0.0195491
-0.0068816
-0.0231745
-5.42929e-05
7.76465e-05
-0.000490827
0.000326695
-4.05296e-05
1.38695e-05
0.00164991
-0.00316969
0.00151976
-0.00789853
0.0565451
-0.0486466
-3.25266e-05
2.08476e-05
0.0291461
0.00015047
3.10356e-05
-0.000181471
-0.0336664
0.00659699
-0.000415234
0.00266684
-0.034708
0.024439
0.010269
-3.3913e-05
-2.87705e-05
6.26672e-05
1.62757e-05
-2.34785e-05
7.20838e-06
0.011333
0.00235384
2.89292e-05
-2.96991e-05
0.000113243
-8.35395e-05
-7.22823e-05
0.000208324
-0.000136038
2.24846e-05
9.87821e-05
-0.000121271
-0.000484662
9.85038e-06
-4.37622e-05
0.0303475
-0.0385533
0.00820585
7.74846e-06
0.000185863
0.000722759
5.04252e-06
-0.000727789
-0.000878188
-0.0281539
0.00567223
0.0224816
0.000680769
0.0253391
-0.035182
-0.000106479
0.0335246
-0.0056926
-9.58327e-06
5.43866e-05
-4.48216e-05
9.97488e-05
0.000406054
-0.000505764
9.63656e-05
2.89758e-05
-0.00012532
7.24181e-05
-0.000188935
0.000116541
7.32873e-05
-4.28113e-05
-9.7225e-05
9.59704e-05
1.27709e-06
-0.0239013
-0.00210024
9.3934e-05
-0.00296905
0.00337312
-0.00040404
0.00012016
-7.01001e-05
0.000174753
-0.000240631
6.58307e-05
0.00193396
-0.00967087
0.00773693
-4.54002e-05
1.27111e-07
4.53194e-05
0.00329242
-0.00278589
6.32636e-05
-4.60744e-05
0.00111917
-4.17732e-05
-0.00107737
-1.49031e-05
-0.000174134
0.000189121
-6.56017e-05
0.000123333
-0.000963957
0.00136587
0.00261804
-0.00327918
0.011512
-0.00930226
-0.00220978
0.000122292
-3.06832e-05
-9.02782e-07
6.21216e-06
-0.000270524
3.74899e-05
-2.08169e-05
0.000213817
0.0190068
-6.03218e-06
6.10522e-05
-5.50407e-05
0.00122068
1.14365e-05
-8.56886e-05
0.0332774
-0.000886655
-0.0323908
0.00177087
-0.000728746
-0.0010421
4.37383e-05
4.39622e-05
-8.76987e-05
0.000133592
0.00524556
0.000295992
6.36625e-05
-6.97132e-05
0.0376639
-0.00714112
0.000137115
0.000546836
-0.000683914
-0.00125271
-3.5906e-05
4.13705e-05
-5.45811e-06
-0.0319829
0.000136237
-0.000243282
0.000107081
0.000147525
-0.000168371
-0.000505026
0.000613692
2.11906e-05
-4.91964e-06
-8.34027e-05
8.36089e-05
0.00112698
-0.000441689
-0.000658505
0.000599114
-0.000462891
-0.0205769
-0.0338682
0.0544452
-0.00436274
-0.00215549
0.000463119
-0.000583498
0.000120379
-0.000180034
0.000560126
-0.000380063
0.000159305
-0.00248227
1.59509e-05
-6.62094e-05
5.02574e-05
-0.000123097
-0.00180168
0.000125608
-5.51033e-05
-7.05225e-05
-0.000119276
-0.000698117
-0.00197687
0.000823718
0.00954489
0.0215607
-0.0311056
-5.95133e-05
4.9697e-05
-7.46213e-05
2.49281e-05
-0.0229687
0.010967
-6.24356e-06
8.15281e-05
-0.000403754
2.91658e-05
0.000978626
-0.00118927
-7.84621e-05
0.000285452
-0.000207049
-7.47474e-05
2.68601e-05
4.79121e-05
0.0157407
-0.037522
0.0217813
9.74412e-05
0.000493967
-0.00039423
-0.00265522
0.000189994
2.48759e-05
-0.00245644
0.0014745
-0.00231269
0.000273278
0.000383203
-0.000656449
0.00766066
0.000124482
3.76298e-05
-0.000387213
0.000619793
-0.000232583
-0.000242044
0.000244654
-2.56495e-06
-0.00250373
-0.000110358
5.84767e-05
5.18802e-05
-0.000682138
0.000243471
0.000438668
0.00357235
0.000166925
-9.90089e-05
-6.79275e-05
-1.46733e-05
-0.000228612
-0.000270055
-0.000506221
0.000776308
-0.000116552
0.000101884
4.66054e-05
-0.00011113
6.45547e-05
-6.96443e-05
6.99132e-05
-2.78669e-07
-4.44633e-05
0.000112543
-6.81171e-05
2.68839e-05
-0.000346736
0.000319829
1.0594e-05
-1.85961e-05
0.000161747
-0.000240193
0.00138194
-0.000824989
-0.00055694
0.0261488
-0.0160831
-0.0100657
0.00970664
-0.014446
0.000763058
0.000363907
-2.84854e-05
-0.00557264
-0.017396
8.26982e-05
-8.32931e-05
5.82156e-07
0.00615589
-0.00302888
-0.0818285
0.103854
0.000691408
-1.98936e-05
-9.68559e-06
2.95839e-05
5.14566e-05
-5.79463e-06
7.39822e-05
-6.81887e-05
-4.05864e-05
7.52085e-05
-3.46776e-05
-2.26334e-05
2.73923e-06
-0.000139496
0.000143394
-5.20565e-05
-2.13954e-05
7.34473e-05
0.000219159
0.00110262
-3.05297e-05
-4.41925e-05
-0.00623578
0.000754513
0.00548131
0.0402606
-6.5003e-05
6.06574e-05
4.31572e-06
0.000347861
0.000217366
-7.11788e-05
-3.91588e-05
-2.9305e-05
-3.77278e-05
0.00189154
-0.00396332
0.000259899
-0.000320727
0.00825016
-0.00690899
1.43972e-06
-5.53493e-06
4.09691e-06
0.0474453
2.64186e-05
6.05425e-06
-3.25074e-05
0.000118679
-7.23422e-05
-0.00198777
0.0020601
0.000673396
-0.00707403
0.0474381
-0.040364
1.67549e-05
-0.000100163
-0.0219169
-0.0117495
-9.54521e-05
-7.74759e-05
-3.28477e-05
0.000110344
-0.00146802
0.000902773
-0.0178202
-0.0168878
0.000145246
-2.54604e-05
0.000695217
-0.000642581
-0.0100017
0.00182724
0.00817444
-5.01853e-05
4.09839e-05
0.00067855
-0.000858563
-6.94025e-05
0.000102423
-3.30164e-05
-7.68702e-05
-0.000999445
0.00126296
-0.000263486
-0.000227958
0.000198172
-0.000151123
5.75021e-05
-0.000743507
0.000604023
-0.00355269
-0.00268306
-0.018512
0.000691814
0.000392843
-0.00139229
3.32476e-05
5.33663e-05
0.000251165
0.000474879
-0.000726012
-7.65172e-05
8.89082e-05
0.0162855
-0.0142518
-0.00203367
-0.0026608
-0.000190153
-0.000172859
-0.000158386
5.40673e-05
0.000104371
-0.0253705
0.00494882
0.0204217
0.000409101
0.00228287
-0.00269196
-0.000617509
0.00101395
-0.000396449
0.099818
0.00262426
-0.000182137
-7.34781e-05
-2.37234e-05
-4.20634e-05
0.000140143
-0.000132359
5.77206e-05
6.78788e-05
0.00813805
-0.0228407
0.0147026
-0.000484246
-0.000119504
0.000603751
-0.000153996
-1.40592e-05
-0.000760325
2.57949e-06
-2.11041e-05
-3.69844e-06
3.95655e-05
3.0619e-06
-4.26271e-05
-0.0363428
-0.00144702
0.00621852
-0.00477146
0.00015077
-7.83931e-05
-1.79704e-06
-3.11292e-05
-0.000179965
0.000178834
-0.000109261
6.0963e-05
4.82806e-05
-5.91397e-06
0.00509764
-0.00849172
-0.000650949
0.00122379
-0.000572792
0.000138801
-4.24063e-05
-0.067622
0.000253185
-0.000870687
-0.0167801
0.0106446
0.00613545
-0.089727
-0.00331777
-0.00668387
-0.000767893
0.000164907
0.00060299
-7.39522e-05
-1.20361e-05
3.75728e-05
8.25485e-05
-0.00105351
0.00354969
-0.00249617
0.000271483
-0.00236885
0.00987734
0.00203049
0.000334504
-0.00240329
-0.000137286
7.61865e-05
6.11136e-05
9.05062e-05
-7.3744e-05
0.000170323
0.000428781
0.00773134
-8.94481e-05
0.00208378
-0.000263964
0.000318143
-5.41707e-05
-0.000934939
8.79723e-05
0.00084697
-7.95385e-05
5.91834e-05
0.0021823
0.00805703
-0.00212009
0.00113222
0.000987938
-9.58678e-05
0.00148937
0.000149699
0.0002111
-0.00902453
-0.00865981
0.0176844
0.0386374
-0.0288406
0.0156432
-0.00476259
0.000452671
-0.00022685
-0.000225831
6.78932e-05
1.11238e-05
-0.0104815
3.94383e-05
1.28122e-07
-0.00172333
0.00348997
0.00428186
-0.000541738
-0.00112219
0.0576673
-2.48875e-06
0.000155871
-0.000153404
-0.000354319
-0.000725744
6.32313e-05
-2.93622e-05
-3.38481e-05
-0.00100479
-0.000234343
-0.000177904
-0.0153876
-0.00551778
-0.000261392
-0.000639516
0.00090092
0.00691256
-0.00736622
0.000846272
0.0144393
-0.0152855
6.83721e-06
0.000301624
-0.000988697
0.000687057