/*--------------------------------*- C++ -*----------------------------------*\
| =========                 |                                                 |
| \\      /  F ield         | OpenFOAM: The Open Source CFD Toolbox           |
|  \\    /   O peration     | Version:  v2012                                 |
|   \\  /    A nd           | Website:  www.openfoam.com                      |
|    \\/     M anipulation  |                                                 |
\*---------------------------------------------------------------------------*/
FoamFile
{
    version     2.0;
    format      ascii;
    class       volScalarField;
    location    "100";
    object      ReThetat;
}
// * * * * * * * * * * * * * * * * * * * * * * * * * * * * * * * * * * * * * //

dimensions      [0 0 0 0 0 0 0];


internalField   nonuniform List<scalar> 
13917
(
39.1977
416.598
556.734
557.541
484.066
434.546
505.405
344.462
529.115
34.0576
353.835
566.504
558.593
112.654
562.75
38.8059
590.074
375.863
569.377
39.2353
565.313
589.556
476.144
588.715
546.66
535.208
40.1327
34.7302
436.502
623.434
35.3704
525.304
558.839
39.3496
602.122
331.8
543.425
560.907
508.822
561.598
586.033
601.599
547.859
578.087
576.711
348.458
565.721
37.0478
66.733
601.781
570.286
395.323
35.3647
576.538
575.059
399.638
35.8886
468.185
597.744
335.195
55.2493
787.974
600.486
548.64
55.4189
403.26
418.682
322.375
374.092
37.7954
76.3064
39.0576
582.065
598.801
573.374
545.363
541.739
599.551
550.033
558.556
583.063
589.368
582.047
80.4271
598.089
426.339
520.921
589.611
565.449
593.7
609.583
543.963
65.2931
604.824
567.089
422.754
44.9221
584.678
593.839
320.924
593.606
598.179
581.607
597.192
544.713
106.277
41.7111
775.586
602.085
38.8441
604.528
39.6786
451.068
36.6254
57.2759
546.192
568.953
608.871
574.842
589.856
592.776
606.688
409.686
442.583
36.3341
69.8658
548.501
573.54
602.71
447.36
508.851
301.495
44.4853
546.042
557.089
41.139
57.1454
34.5688
514.085
560.232
98.3819
604.392
126.12
594.814
583.471
560.835
79.2024
87.5685
35.9731
573.577
568.768
600.65
585.659
593.768
44.9322
588.474
602.16
42.5583
594.724
604.945
596.973
52.0152
519.989
113.193
52.9274
74.0796
35.0951
50.7956
630.658
502.029
587.99
44.6591
535.716
59.223
395.968
598.634
559.764
387.837
506.73
512.479
549.657
589.331
572.525
398.044
573.424
291.7
573.794
387.255
623.161
389.471
392.336
573.413
420.802
39.4263
604.71
36.6065
522.675
46.9552
602.629
589.909
561.227
38.0511
34.4202
547.355
53.1717
451.992
565.836
605.501
391.288
582.906
608.053
429.736
410.5
36.9411
543.429
533.67
46.5784
580.232
616.717
616.983
46.9012
420.519
416.756
598.597
595.034
44.0553
36.4813
617.799
618.032
585.26
616.337
616.548
38.9839
41.505
588.794
629.528
411.004
38.3551
594.863
598.795
43.7889
126.549
418.163
45.614
377.407
595.383
53.48
412.749
468.591
504.948
550.388
39.4019
585.511
470.175
401.343
590.33
582.902
548.233
539.134
599.181
36.7556
170.439
606.974
618.178
583.853
618.014
586.815
563.198
469.982
606.245
34.1993
42.3603
579.429
539.989
360.309
618.517
415.592
36.9837
618.361
37.9951
599.756
53.8599
594.916
574.443
590.054
598.005
562.01
577.206
55.9501
527.658
119.34
615.523
118.151
33.9858
603.084
445.52
501.773
547.106
490.483
550.843
604.067
583.448
382.219
405.651
473.596
549.722
599.254
43.8949
37.6854
604.211
603.284
548.276
257.152
572.044
41.5415
60.7651
328.586
309.751
556.109
90.9783
306.69
558.766
566.748
568.453
42.8637
584.842
411.495
569.013
590.714
45.2813
596.976
510.156
615.408
38.039
607.184
473.618
451.774
423.42
596.216
510.928
142.391
563.885
585.775
40.2168
140.824
69.3994
156.578
618.87
586.476
125.195
316.595
618.62
481.696
572.295
563.906
467.713
425.277
355.646
456.134
505.313
39.5768
602.048
565.14
464.232
583.121
591.496
39.1238
506.338
115.769
572.091
332.28
651.685
73.0596
589.761
427.621
384.418
442.948
578.219
188.87
610.579
53.7259
426.92
589.118
66.6284
589.574
153.662
610.982
39.7433
149.254
550.153
42.662
485.779
554.907
54.7678
531.056
553.344
548.712
584.46
489.068
564.086
595.704
519.028
549.033
598.852
603.371
602.048
54.7295
119.033
569.41
600.553
590.313
463.879
290.438
617.138
630.491
573.722
329.345
597.485
550.201
75.5737
54.2246
236.955
575.268
128.74
610.578
617.924
534.462
603.672
616.966
588.663
617.622
611.399
49.2276
583.384
552.511
34.4786
436.368
607.312
586.96
54.4906
552.719
35.9475
615.273
591.324
610.128
616.049
548.876
588.125
84.1265
558.613
100.201
588.065
497.415
562.851
584.986
382.075
69.9619
573.598
75.992
606.368
596.527
591.494
589.625
608.584
581.887
43.1836
56.5521
608.804
141.053
573.617
589.309
432.224
507.342
51.3014
518.602
99.2432
122.492
125.469
588.762
530.219
550.892
554.168
112.025
609.493
577.29
564.327
529.326
575.29
573.104
485.163
538.823
530.644
381.296
517.031
568.569
102.894
472.406
524.425
54.6286
597.432
513.421
390.87
605.783
38.6643
597.09
616.057
481.058
615.335
581.89
379.423
41.467
54.31
597.05
558.776
592.751
209.48
482.095
571.743
574.741
596.843
413.073
103.482
601.752
595.007
591.818
598.809
514.847
502.504
605.123
481.868
606.276
591.687
550.446
40.8635
617.384
537.825
600.963
498.645
435.515
557.204
400.873
277.086
550.792
397.878
48.786
48.0538
34.749
605.704
592.996
619.532
584.857
55.764
617.923
86.6451
521.963
54.6785
393.963
549
33.5021
609.079
515.06
589.566
577.325
51.3041
616.64
557.675
594.53
583.832
591.791
572.384
498.928
618.298
578.463
431.422
86.974
94.206
45.0798
51.5149
617.028
37.0148
613.109
57.1632
85.47
569.867
660.219
594.95
474.559
550.706
616.415
588.367
560.174
124.196
593.029
518.471
578.804
618.518
597.953
346.302
67.857
34.005
489.356
503.335
410.551
38.346
610.457
83.7007
568.799
544.735
584.783
293.288
599.224
515.26
582.397
82.3389
467.24
51.8812
604.411
476.068
600.75
590.388
39.8046
66.5184
599.77
423.88
599
593.397
595.191
40.1266
593.17
508.894
618.113
600.331
584.528
597.796
441.626
587.681
606.637
54.8891
524.729
575.395
33.0303
556.137
288.74
386.862
609.563
560.142
40.4829
535.325
538.27
539.806
500.711
590.269
601.658
226.098
427.748
539.581
55.3025
467.781
283.377
508.016
352.181
470.026
430.736
38.1987
604.113
705.149
201.032
605.914
600.941
596.817
552.166
577.317
37.2122
513.775
601.475
569.058
606.134
42.2283
599.483
602.891
39.9248
442.721
103.174
575.085
598.122
603.637
565.448
509.429
600.295
35.3945
527.487
104.875
105.719
705.82
45.3283
558.379
585.18
600.307
37.2849
46.0383
527.863
36.0021
86.7195
607.056
603.28
546.87
109.682
112.422
465.759
567.205
537.314
542.548
560.167
431.514
510.299
571.066
555.344
590.287
510.36
542.123
523.588
549.537
586.855
35.6623
627.233
85.8569
541.569
464.907
524.357
541.439
593.311
514.362
72.7528
116.351
584.388
545.665
571.217
590.966
584.205
555.525
536.099
361.958
437.975
610.035
501.002
524.996
525.283
433.577
586.713
509.244
44.9295
618.283
445.321
380.549
508.071
604.604
607.945
600.865
37.6334
556.803
595.294
510.73
599.129
606.46
402.466
49.6537
458.277
57.1285
567.884
119.557
591.194
534.481
858.781
572.437
221.448
595.438
600.954
575.135
545.431
563.145
603.549
275.093
595.623
81.3312
543.759
520.408
615.087
506.915
570.616
57.3039
495.716
588.241
41.1702
555.858
36.7986
551.3
185.986
559.735
606.959
585.743
45.4858
507.636
289.424
54.3713
592.028
506.386
629.826
533.764
118.479
629.358
51.9613
539.727
143.201
544.179
104.199
615.985
600.843
348.926
609.806
579.173
554.34
595.202
508.381
616.263
487.83
571.937
38.8994
36.516
299.913
99.361
71.4571
38.6109
156.946
608.91
597.02
579.447
556.26
596.968
507.374
592.505
293.678
577.762
498.762
560.137
519.064
359.084
605.045
557.955
554.447
571.7
517.189
610.676
46.0845
424.81
185.225
604.377
601.585
586.614
594.352
54.148
608.202
90.6881
599.237
118.829
580.497
594.641
517.335
656.347
607.974
107.964
90.3111
544.451
505.865
610.167
191.689
606.665
593.904
39.437
596.6
557.341
546.637
39.2661
580.774
95.4843
359.908
593.03
570.238
593.926
221.235
600.905
578.421
572.28
39.0713
575.448
417.902
601.137
619.511
139.324
572.825
627.142
52.4351
555.915
603.435
187.798
589.532
597.871
435.315
552.939
54.1752
555.151
518.359
383.371
538.359
39.6786
567.103
440.377
594.715
35.5115
119.965
577.517
606.78
580.393
570.096
615.692
610.218
606.038
587.4
500.632
618.509
557.406
524.323
51.3678
54.6065
535.751
586.586
135.859
593.562
755.866
106.867
32.7287
616.734
608.747
591.323
584.648
617.1
610.41
590.688
464.744
602.698
36.7846
174.525
603.971
47.186
594.863
601.815
635.777
40.4595
513.2
601.407
102.038
603.186
601.302
467.579
594.852
49.1043
550.438
101.106
606.673
606.61
571.96
153.334
553.874
38.6175
426.915
574.057
566.195
598.671
608.316
571.619
514.439
540.384
37.6619
37.8087
173.285
573.977
606.888
36.4078
606.881
68.0986
405.432
520.046
551.802
182.392
56.1324
672.024
587.587
77.8587
613.546
591.757
512.321
574.48
571.708
264.743
38.7475
606.459
531.927
38.0989
598.738
618.405
90.2588
44.4379
559.133
610.406
513.452
585.497
602.114
545.234
527.181
581.268
97.4565
587.045
224.719
113.304
420.422
36.0915
573.772
561.134
264.857
39.5024
173.768
650.514
545.748
578.34
557.906
580.688
57.1285
586.217
585.545
490.418
599.087
118.161
471.419
574.652
512.076
489.692
113.393
98.2799
41.3968
561.101
498.089
618.067
413.066
406.837
123.294
528.589
574.878
525.207
323.628
553.724
53.6693
473.774
379.72
61.9423
604.073
552.003
550.763
584
492.499
283.965
617.733
610.97
554.159
315.994
604.361
555.568
550.877
565.883
579.59
358.778
513.18
585.101
605.088
416.759
301.087
449.016
40.7418
571.097
597.028
58.2228
595.445
553.634
42.1754
36.0884
546.973
410.779
515.393
35.5149
81.5814
574.921
86.6581
602.721
415.439
50.8214
573.026
91.3014
94.4154
611.738
591.536
559.601
577.19
590.114
525.644
597.787
451.708
614.653
507.432
52.4775
552.611
172.02
64.5501
595.305
511.175
529.558
556.302
587.645
35.7707
473.63
38.7663
553.841
55.5131
376.302
594.533
292.403
476.388
641.396
595.101
327.573
588.149
550.072
549.925
538.956
577.219
489.003
386.37
596.421
349.854
87.7011
579.823
595.822
544.671
840.844
607.536
608.072
521.409
496.112
106.257
33.9075
572.513
605.17
612.032
600.379
550.878
546.634
806.749
592.208
532.068
186.246
499.236
526.589
45.506
55.5441
575.611
595.513
604.91
558.91
513.038
49.4849
230.682
354.395
543.76
492.57
551.158
632.889
543.787
577.949
604.737
205.174
467.201
609.775
578.384
41.1437
453.791
242.053
52.4775
370.57
603.62
327.159
567.232
595.934
74.2939
106.411
604.704
535.469
515.476
570.963
559.773
616.533
595.318
608.318
588.16
497.628
516.849
35.6356
568.973
519.995
512.138
376.703
605.66
574.409
391.427
538.341
42.7768
560.758
616.814
35.4708
601.665
182.238
550.932
554.003
568.91
601.598
527.159
520.378
568.504
602.074
170.095
715.029
38.0823
596.183
590.751
78.1623
603.39
610.489
323.999
100.493
547.691
483.342
559.635
271.659
593.918
587.694
580.448
617.058
540.006
593.447
608.395
260.296
513.608
245.359
562.666
596.521
497.839
606.071
604.32
562.624
581.697
574.388
540.47
573.223
413.456
501.327
543.746
585.654
636.828
602.277
35.1089
617.613
284.619
519.152
575.616
493.967
488.492
498.355
580.289
532.294
604.895
609.775
129.295
456.947
478.212
599.801
602.537
613.193
398.31
596.751
45.944
450.535
606.055
596.679
612.548
451.128
730.592
68.2826
384.603
116.605
569.638
376.424
580.066
60.7672
614.817
618.218
543.271
148.659
612.065
40.391
584.911
599.022
319.398
323.798
35.3491
196.956
524.991
308.193
654.438
610.8
58.4046
594.321
598.605
374.507
613.738
41.4368
528.375
599.656
585.8
610.341
47.3031
588.201
616.632
532.951
596.167
607.212
588.274
611.129
501.76
574.907
556.271
610.261
72.8818
363.35
609.57
609.411
558.947
597.028
537.139
593.861
600.794
575.3
592.642
560.65
579.891
412.41
612.573
485.018
590.047
391.671
608.626
576.022
598.244
616.64
570.144
579.265
544.197
235.775
345.389
41.5975
44.5429
522.361
96.6765
590.735
580.855
45.5782
75.3083
611.865
37.8182
610.943
570.818
97.8455
536.754
461.564
60.9062
35.8136
602.76
502.372
603.229
134.097
535.524
42.5496
39.5091
571.472
653.631
160.784
588.625
268.241
132.799
553.981
602.844
166.115
36.6824
610.936
512.731
583.587
54.5763
372.491
579.041
608.046
622.447
604.986
596.195
559.034
610.696
463.486
572.574
505.799
36.7745
589.811
563.229
581.935
171.551
420.972
132.966
609.194
513.274
606.513
596.102
546.537
581.482
126.514
557.268
610.073
595.462
137.36
600.848
105.664
131.709
90.6556
597.431
606.924
593.027
107.913
577.401
222.372
598.465
47.6418
554.36
567.338
511.934
581.514
594.01
36.6815
525.207
40.6756
585.877
56.9428
52.8522
585.615
38.0822
584.039
579.727
55.4337
572.779
431.301
39.2018
490.427
472.072
589.306
397.917
593.343
117.129
593.573
38.2516
593.807
600.501
568.616
79.2439
606.34
477.138
504.287
54.2953
590.832
545.836
47.4299
343.811
319.386
405.553
608.62
450.399
49.1931
548.53
346.976
618.94
412.371
38.3532
605.719
34.1891
596.838
62.8341
476.252
552.345
554.884
118.65
83.3908
601.812
552.149
610.503
582.874
65.8928
401.494
498.058
597.995
524.952
41.7425
479.88
94.3211
785.18
597.974
594.943
559.028
83.5858
388.822
81.7404
535.091
570.538
534.054
49.4564
52.4058
100.664
602.17
422.16
450.084
394.405
582.082
537.47
408.587
166.931
88.4941
598.902
376.692
37.0367
490.684
597.676
596.613
215.992
606.263
43.0217
525.478
606.743
350.959
415.233
610.128
473.707
502.865
578.337
50.9523
527.426
46.8068
605.869
38.9347
693.896
560.561
616.78
551.016
490.165
241.228
368.441
516.836
65.0779
51.721
628.834
541.876
578.051
463.323
36.2346
608.486
610.846
552.886
295.539
255.575
605.374
530.187
338.333
602.774
472.601
544.477
47.1146
578.936
127.122
221.811
505.977
540.268
325.461
596.17
480.317
41.3915
554.354
493.055
519.785
510.332
99.3391
57.2994
587.635
75.7071
56.2775
613.662
573.339
432.585
338.769
157.193
173.747
92.537
400.911
43.5158
541.677
521.055
612.033
577.839
575.809
605.073
475.68
136.323
617.849
400.031
560.815
596.064
93.477
52.7554
621.619
578.357
607.266
566.166
503.468
592.958
54.9485
502.462
415.856
538.167
397.804
508.083
483.645
332.332
578.068
562.431
618.286
606.702
49.5495
540.641
543.488
54.9751
597.331
584.42
484.327
610.333
606.229
483.441
528.389
39.3479
182.722
59.8411
593.904
66.1991
590.947
501.481
610.736
575.623
180.473
596.964
295.431
37.8423
554.101
581.503
607.491
554.745
78.3585
611.123
572.438
581.805
558.213
557.539
581.501
525.258
597.207
581.413
218.936
475.448
588.199
479.12
248.874
43.9449
139.318
569.836
580.182
40.7326
584.253
470.778
596.072
68.4669
586.96
591.768
457.638
55.2209
596.043
609.212
615.025
547.918
38.2101
382.683
603.076
575.792
603.292
36.1331
594.158
225.965
512.111
597.115
361.498
474.113
154.808
580.343
610.651
522.35
449.845
321.101
574.287
576.162
593.149
41.0137
591.768
584.697
57.7432
554.045
526.276
531.633
603.234
603.257
103.728
552.528
55.4591
137.449
622.583
52.0145
568.465
398.538
448.696
581.892
615.975
623.102
592.924
73.6962
503.56
34.7496
43.8537
604.717
495.995
569.032
561.612
588.175
165.507
54.9184
79.443
603.311
548.754
562.945
149.014
49.3602
608.761
602.346
499.887
52.5747
576.65
547.176
570.373
567.8
582.242
614.416
52.5248
571.299
597.35
96.4858
508.85
51.4567
133.197
572.008
576.134
582.931
520.941
574.148
376.456
569.2
600.763
530.57
527.92
314.579
611.335
366.857
72.5059
49.1632
598.323
576.139
128.231
125.101
362.053
600.15
67.3703
522.468
621.219
35.9056
555.533
587.136
335.482
595.415
386.463
607.486
624.714
596.504
615.206
56.0548
617.418
598.058
452.655
536.651
548.776
575.983
581.538
602.955
554.396
559.82
124.977
114.542
695.879
82.2588
534.537
120.696
393.827
46.9298
127.492
54.8671
606.637
484.683
588.001
586.346
605.954
586.096
542.168
511.226
569.163
596.297
594.999
509.435
570.294
577.156
583.327
35.5453
536.017
37.8577
592.944
131.924
575.759
594.561
589.029
506.543
599.983
413.2
39.9773
571.416
35.8046
92.1824
569.304
523.45
121.995
380.518
615.936
606.522
622.685
42.8097
625.026
363.073
502.155
420.729
190.71
337.628
510.981
50.3689
610.993
616.177
145.833
243.234
582.578
588.735
148.79
602.051
379.266
573.529
599.167
543.26
583.392
416.91
40.6988
39.329
528.871
598.326
469.798
555.267
382.114
605.256
574.862
570.882
576.928
587.623
621.573
325.601
426.169
555.85
385.978
533.21
90.4126
532.064
567.318
64.007
590.153
44.7201
561.185
35.1668
522.397
45.1123
60.8835
588.524
421.948
151.047
597.043
38.9747
582.967
581.142
531.788
560.894
504.46
497.885
597.769
55.366
523.762
574.06
558.663
596.946
583.758
363.947
555.473
75.8541
457.865
617.383
610.262
588.281
538.858
545.882
584.341
544.223
473.524
502.869
468.984
510.983
45.5152
539.523
499.36
588.2
528.335
304.997
402.168
572.657
610.376
90.6742
481.884
600.92
453.999
40.9582
127.126
571.215
602.489
54.2705
575.523
602.659
616.719
369.38
209.974
571.067
221.252
65.7428
554.557
533.733
408.427
45.7901
539.902
49.5375
577.6
385.755
664.52
55.0965
482.082
607.967
41.1254
595.763
561.254
55.6232
211.816
352.466
316.05
538.551
555.406
119.279
600.254
595.093
589.464
443.3
588.522
496.869
552.886
223.399
558.333
562.88
38.4461
556.891
39.83
36.3825
586.906
572.3
526.06
53.3387
542.036
420.503
40.4927
49.9513
55.2746
595.783
320.164
40.6724
412.012
641.715
581.81
598.162
595.071
571.825
595.413
498.62
38.8334
552.317
133.415
40.9995
711.419
63.8605
44.6445
577.302
49.3241
430.233
535.536
611.22
596.396
505.639
36.1502
582.889
61.2984
42.9094
606.363
579.825
589.774
436.735
575.106
420.884
43.6084
611.751
602.689
606.332
560.875
573.322
39.6173
522.954
142.346
374.335
594.629
131.156
320.385
594.206
734.654
536.921
85.6947
307.919
37.5459
597.307
177.86
39.1976
363.811
89.3233
606.124
551.94
552.604
545.423
68.4504
418.331
572.377
530.634
123.674
38.392
597.026
637.651
41.5017
44.966
578.654
555.41
394.144
592.443
598.432
334.244
595.86
536.767
132.976
67.3039
600.672
491.487
566.627
602.021
620.061
80.4357
483.543
595.998
503.052
407.354
539.458
45.8974
318.838
540.691
125.752
108.111
485.238
596.675
337.56
615.849
618.337
39.0738
573.203
394.501
532.433
584.045
606.28
614.986
563.897
556.765
117.8
534.02
496.363
34.719
482.799
465.857
77.147
56.2123
108.692
609.795
527.991
480.68
544.488
381.945
112.481
563.251
457.595
36.9909
550.077
572.84
454.638
575.509
576.937
548.827
575.388
573.03
568.704
563.144
574.122
454.379
514.921
599.53
487.595
564.045
598.801
449.232
48.1641
358.439
42.051
620.722
610.497
322.901
70.3026
559.39
547.386
513.511
52.9441
176.873
582.025
478.869
529.526
33.4095
119.911
540.48
797.222
38.6634
563.965
47.9251
400.422
180.9
47.508
630.593
53.8345
37.4185
560.549
393.8
370.844
580.729
607.533
49.6119
66.8655
608.355
607.861
97.9413
825.905
385.094
572.688
535.94
415.152
42.1307
35.1153
581.507
596.144
559.757
572.467
52.1333
108.479
50.3101
561.581
541.872
94.8471
573.035
602.241
38.1217
606.669
50.3409
600.789
46.6637
549.957
575.017
144.699
593.581
575.72
103.232
568.88
568.483
551.152
546.421
38.6014
353.735
40.5362
554.368
578.687
510.357
387.736
52.0068
54.8246
365.252
559.559
579.77
91.7455
622.616
607.254
611.498
611.142
668.482
367.314
124.57
569.568
577.925
600.55
115.75
103.065
33.3258
602.11
550.475
624.445
39.3915
647.838
80.3153
609.13
577.673
520.007
622.15
486.383
361.265
640.103
811.048
588.236
579.454
585.995
587.244
404.797
97.0319
283.136
587.281
370.684
300.005
64.2672
36.8776
55.6814
66.4531
605.119
421.948
598.688
579.288
604.115
359.537
589.063
446.542
107.19
112.835
561.894
403.698
37.7382
560.55
585.473
57.2109
563.674
584.117
594.427
67.861
503.866
355.202
787.852
145.122
39.0319
569.294
61.2386
40.2261
91.3437
52.6962
487.805
574.176
547.212
58.5223
497.095
562.029
543.679
856.273
443.244
551.031
54.554
284.673
419.103
532.621
292.481
552.142
39.5851
371.116
240.026
35.2593
601.692
624.747
38.3486
54.4487
397.57
561.627
566.528
559.113
66.5675
342.709
37.0966
549.574
36.4546
362.775
65.8574
561.906
384.325
55.4184
555.089
567.183
621.134
532.741
579.426
121.519
594.746
585.625
47.9804
120.004
611.711
52.8028
559.617
595.945
591.044
606.86
576.069
802.119
44.6119
612.139
49.9928
515.257
505.223
307.818
567.488
547.201
506.602
596.732
117.355
492.683
52.7267
552.206
79.3204
765.109
411.106
631.39
35.7965
607.47
37.3159
425.747
469.153
432.669
598.539
427.814
540.916
581.662
298.64
602.773
63.4451
573.769
122.923
554.008
560.78
48.4402
575.339
603.964
513.336
556.826
572.74
571.977
551.924
600.82
594.991
557.415
573.413
552.33
548.426
573.549
523.388
556.409
547.324
62.1723
549.952
591.232
573.496
502.603
575.35
602.148
52.2126
552.565
37.8182
548.529
392.959
592.179
598.843
411.392
46.2891
525.017
551.963
620.103
41.7644
578.978
594.621
535.833
537.94
407.045
38.0549
531.402
65.582
565.159
38.4997
590.532
576.776
402.797
126.978
508.908
392.406
55.4182
552.323
578.645
512.47
539.018
510.499
581.216
575.756
567.586
425.273
578.845
589.914
388.087
421.677
555.54
118.392
583.754
468.514
577.846
504.971
301.41
574.883
411.369
654.909
395.812
64.5263
583.533
593.982
594.561
49.7805
566.034
548.465
515.593
575.345
577.949
594.214
284.277
51.8249
380.099
37.3498
310.86
511.773
701.45
574.122
512.594
141.538
570.222
117.038
581.586
559.168
570.92
560.714
52.5957
550.585
449.446
552.271
566.633
600.92
34.8207
538.325
607.565
606.493
610.092
557.149
559.182
607.542
541.001
576.893
561.136
110.911
547.178
561.683
420.181
543.801
623.923
615.737
495.037
562.529
213.117
582.92
589.897
391.553
310.273
578.202
579.305
375.111
548.35
370.772
427.107
598.316
33.725
544.325
558.676
479.607
50.1393
585.433
422.337
608.196
522.11
601.95
549.017
591.757
589.882
393.878
428.491
35.1235
430.648
581.755
558.377
35.6173
571.139
548.646
571.665
585.99
418.458
297.403
575.743
52.2341
549.895
35.4399
110.374
489.681
574.436
379.693
561.923
512.908
42.4661
581.529
96.569
572.235
41.503
398.133
556.155
435.108
39.6754
117.255
539.206
451.368
498.499
612.097
115.795
614.294
538.671
596.502
548.186
55.876
525.817
610.928
499.597
646.27
580.764
568.822
507.583
542.472
581.01
537.786
550.933
566.052
598.973
499.498
571.266
562.73
598.59
503.019
39.1284
35.322
610.747
579.718
549.575
547.862
564.332
601.373
593.987
607.288
541.679
514.103
553.501
506.031
549.551
615.435
552.596
514.679
432.414
560.169
561.624
557.354
37.5536
489.446
538.731
36.2025
36.7184
563.555
461.616
561.589
599.742
123.664
522.447
38.7438
595.519
594.78
580.614
606.959
141.199
70.557
563.554
34.779
489.493
510.84
540.227
383.043
498.851
522.131
309.563
605.758
539.746
37.5751
584.616
591.919
544.401
37.5774
561.096
560.852
44.3135
562.888
545.775
511.428
617.685
37.6012
534.562
561.791
340.42
513.66
63.7557
547.072
274.141
484.074
398.282
86.3271
579.587
487.648
523.349
559.467
367.175
562.379
556.048
39.8932
589.168
506.467
393.779
132.22
507.159
534.667
559.849
544.059
534.172
549.229
510.928
355.869
510.633
598.147
35.1023
478.398
615.258
556.426
594.657
609.293
617.758
583.346
580.807
548.773
537.07
437.8
619.108
616.101
597.942
446.765
608.957
569.844
353.496
496.468
505.157
593.654
554.654
542.42
500.703
509.994
580.368
57.3881
586.507
57.7638
533.363
560.173
433.771
585.291
512.345
501.398
37.8504
41.4351
521.833
570.729
546.94
522.586
488.779
593.207
530.679
423.797
596.784
396.705
390.38
364.519
509.1
320.282
330.543
523.426
107.587
570.355
577.415
554.165
590.174
562.933
438.801
596.623
533.95
599.557
577.563
582.767
563.659
579.466
596.903
587.386
586.13
574.804
581.797
595.085
582.248
558.933
537.691
41.7372
359.677
554.234
35.462
583.062
595.056
98.4413
488.197
580.911
573.755
575.881
359.752
585.393
527.9
570.991
531.365
35.1619
600.006
385.124
428.593
528.196
500.379
611.311
572.055
518.572
51.0588
551.091
511.774
252.897
431.28
608.862
72.8321
558.785
628.901
366.113
54.2123
597.062
610.344
555.557
494.348
468.383
594.041
559.809
574.119
573.21
503.149
524.551
180.126
614.148
78.4651
658.491
431.856
594.978
532.154
605.283
548.876
579.31
512
619.655
619.978
479.598
359.459
747.664
575.531
620.704
546.152
608.654
40.7607
587.979
558.208
563.61
403.14
485.299
543.252
575.025
492.131
582.115
595.493
538.904
560.179
79.5317
595.235
571.614
571.131
579.883
428.648
405.156
41.3287
583.149
371.323
130.364
51.3414
46.9157
503.677
580.582
542.743
553.084
145.171
577.252
528.915
530.603
514.919
618.713
506.078
446.779
64.1022
561.111
575.549
364.695
68.826
620.812
530.859
495.666
622.908
559.085
488.86
619.055
582.78
573.27
533.357
539.192
482.277
555.892
612.205
577.942
319.498
625.152
607.994
542.619
508.847
519.255
40.0425
549.731
583.131
583.67
555.866
594.072
477.517
305.414
607.249
599.747
562.854
591.377
587.682
572.075
65.162
577.354
423.987
566.034
590.583
523.031
546.802
55.7126
573.053
588.083
609.934
582.216
559.157
512.835
429.742
62.192
515.72
448.715
578.684
555.776
597.994
551.429
514.952
89.2462
54.1642
586.118
37.2756
358.87
465.348
56.5895
624.962
592.079
587.729
554.418
60.5864
609.286
521.397
748.52
575.662
400.693
623.21
469.266
110.577
50.8323
577.948
133.141
563.422
651.603
536.722
38.201
555.978
92.2089
358.728
615.55
458.398
529.438
543.183
121.795
516.985
607.451
610.377
178.766
574.124
378.339
590.016
625.601
597.199
503.47
582.549
403.878
535.152
591.297
624.456
586.516
85.916
372.229
311.877
478.367
525.907
517.043
546.833
583.419
557.415
457.357
550.215
533.845
616.186
521.264
63.9646
571.847
567.106
555.181
590.176
572.092
618.439
539.902
445.248
621.208
524.781
583.993
588.123
601.341
575.506
602.511
587.647
131.783
588.756
573.601
598.859
559.345
153.294
582.439
131.541
583.826
535.124
479.806
115.148
544.562
599.717
598.346
547.762
573.054
577.52
574.207
429.916
353.759
564.87
583.683
190.58
425.113
490.118
579.555
590.318
551.335
553.838
607.261
73.9774
582.696
533.398
612.247
538.227
616.002
581.449
585.227
477.319
606.372
540.927
609.894
309.523
621.721
129.107
570.302
571.28
607.53
573.469
624.848
659.907
621.957
523.93
350.746
64.6387
586.027
467.835
67.3818
579.843
635.358
579.98
507.914
609.637
605.151
623.159
326.129
470.414
595.16
490.854
547.989
433.573
582.224
81.4109
580.457
565.678
300.387
569.06
625.021
578.992
48.7776
113.766
424.417
489.314
758.424
576.043
473.388
598.769
452.621
555.502
571.181
592.798
508.475
40.1215
594.146
598.893
595.103
572.901
506.115
556.779
498.26
608.084
589.88
528.256
484.706
615.946
608.524
599.795
423.33
50.6117
418.674
503.811
542.323
540.958
578.762
481.892
440.225
561.272
592.077
540.005
566.329
509.14
575.602
39.1566
611.876
560.776
510.216
577.254
493.391
481.963
592.431
623.986
570.21
567.549
369.9
69.9367
533.959
605.363
587.565
594.09
283.926
571.938
528.411
503.62
52.9885
482.959
556.985
583.611
95.4107
602.349
523.839
427.555
559.795
566.275
468.615
595.289
563.681
566.29
39.1729
580.037
603.158
576.106
38.2918
139.234
574.825
566.125
574.165
583.046
362.906
572.407
489.383
529.438
567.478
587.867
594.039
556.594
605.294
432.629
592.737
572.766
606.914
164.666
550.701
562.097
518.308
594.15
66.0524
139.163
502.984
421.051
423.997
255.475
455.692
572.113
565.873
591.16
586.308
543.721
79.0225
891.891
39.1095
111.219
56.1451
574.122
599.183
552.339
533.464
592.208
549.537
544.333
573.334
51.3644
565.592
54.868
491.493
554.234
570.106
570.452
577.17
608.652
583.379
568.75
567.311
619.865
385.219
578.158
557.819
606.944
563.583
566.454
498.611
592.063
115.233
576.615
618.819
48.4341
622.426
591.833
556.873
437.928
61.5675
110.217
611.453
430.456
517.15
621.216
599.076
577.59
537.177
621.895
432.539
605.427
596.726
553.155
598.71
624.969
620.545
470.967
38.4583
583.636
168.517
569.314
201.209
509.103
77.8907
508.559
123.149
499.549
596.51
105.487
555.285
488.871
593.338
589.539
595.721
578.558
424.932
132.174
44.2374
552.628
148.724
981.294
616.467
76.784
589.127
514.457
511.549
596.98
588.791
610.281
542.963
584.536
549.36
594.216
585.182
577.453
468.659
38.8243
545.742
586.771
604.986
578.182
583.024
565.196
548.907
537.122
549.032
141.818
596.171
43.6263
273.952
541.554
577.571
498.133
611.954
539.218
610.3
205.946
457.942
586.751
575.158
565.871
598.175
613.53
570.148
55.8204
553.24
574.538
578.84
531.696
578.415
595.45
591.101
511.921
425.644
594.687
298.718
581.188
544.909
603.404
570.04
606.388
599.242
593.268
403.713
597.652
586.586
580.583
567.473
60.8628
622.055
601.487
483.67
410.713
567.65
588.787
504.388
562.095
535.741
39.9445
584.091
504.401
572.277
594.816
575.365
584.008
38.8775
601.017
600.523
49.4479
477.776
588.49
345.245
611.074
677.015
513.34
592.166
517.523
36.0944
502.327
320.902
539.997
580.078
428.857
471.833
488.547
600.633
535.17
120.287
101.954
625.331
591.144
540.764
586.622
292.77
556.524
547.605
509.43
609.102
111.171
620.403
536.858
313.307
531.642
545.923
562.381
567.732
535.437
493.678
588.755
170.639
493.833
60.1962
139.246
604.05
325.837
37.0729
563.906
38.5388
75.0747
43.7399
563.984
549.383
560.579
556.112
557.632
551.685
547.204
549.553
596.34
555.834
562.451
38.2899
38.6218
44.2041
551.54
538.445
550.121
409.694
611.956
443.819
575.923
602.47
355.368
554.522
597.15
597.071
556.274
615.964
432.574
34.5158
572.929
598.178
54.1917
550.368
474.195
59.5374
535.802
600.864
532.322
533.467
703.948
406.698
594.573
622.825
84.3657
604.089
514.706
475.843
589.693
58.7838
599.453
592.71
593.988
629.322
595.551
37.9565
572.758
550.139
388.634
592.606
513.129
595.321
554.86
568.122
596.576
619.295
598.657
642.427
598.513
514.369
624.552
597.135
449.083
476.006
596.991
514.537
37.6075
482.604
608.625
545.539
58.2448
37.2618
545.396
322.399
409.425
622.491
547.787
610.233
508.053
511.567
609.881
579.22
577.848
483.249
60.6901
523.082
562.542
597.473
500.31
440.439
582.113
57.5446
517.976
551.202
578.559
542.301
46.5172
598.447
609.74
599.335
555.593
564.723
620.953
606.507
603.502
614.499
495.36
519.811
601.691
415.739
597.896
578.955
141.432
597.262
536.295
510.665
599.254
285.161
522.906
251.718
311.157
70.6235
78.18
563.414
592.031
611.847
112.793
611.136
370.641
547.101
239.971
598.402
93.1044
36.2621
354.026
518.904
464.429
514.68
595.026
341.19
36.9362
557.742
607.434
597.164
585.533
551.254
583.337
583.185
600.682
456.74
33.0913
507.994
588.615
549.513
555.753
36.6044
529.69
599.674
592.251
588.28
511.454
515.342
480.184
554.496
562.175
596.588
501.911
349.273
531.017
606.234
516.566
625.98
532.768
594.994
594.857
583.573
508.963
627.022
619.064
523.113
63.6795
597.559
608.986
36.2301
549.414
611.411
604.518
611.82