/*--------------------------------*- C++ -*----------------------------------*\
| =========                 |                                                 |
| \\      /  F ield         | OpenFOAM: The Open Source CFD Toolbox           |
|  \\    /   O peration     | Version:  v2012                                 |
|   \\  /    A nd           | Website:  www.openfoam.com                      |
|    \\/     M anipulation  |                                                 |
\*---------------------------------------------------------------------------*/
FoamFile
{
    version     2.0;
    format      ascii;
    class       volScalarField;
    location    "300";
    object      ddt0(k);
}
// * * * * * * * * * * * * * * * * * * * * * * * * * * * * * * * * * * * * * //

dimensions      [0 2 -3 0 0 0 0];


internalField   nonuniform List<scalar> 
13851
(
3.68911e-08
0.00640935
7.55409e-07
1.11581e-09
3.07853e-08
0.000150379
9.11387e-09
3.3807e-08
3.49191e-09
1.08418e-06
2.99146e-05
0.00915246
0.000165454
0.0136264
-3.87989e-09
-7.33793e-08
-1.68698e-08
-1.44865e-09
-6.10113e-05
1.07495e-08
1.3945e-08
3.18487e-07
2.01387e-10
9.74292e-10
-4.44714e-10
2.48907e-08
-4.1826e-08
0.000975835
3.20613e-08
-3.05913e-08
0.000984989
2.2522e-08
4.79889e-07
0.000902837
1.25312e-09
-4.77528e-07
-0.000185395
-0.000275855
2.13315e-06
0.00239972
-4.06625e-09
-4.05425e-09
-0.000751752
0.000181966
0.000285829
0.00413903
0.000104301
-0.00198506
-3.59305e-08
2.93375e-05
1.11132e-07
-1.15412e-07
0.000273913
4.97267e-10
1.63533e-10
-1.4393e-09
2.29758e-08
0.000343898
-6.61635e-08
-4.92154e-08
-0.000307987
-0.00393392
1.20704e-06
-7.50067e-08
-0.000626675
5.13822e-08
-0.000211969
-0.000827975
-1.57576e-08
-8.15138e-09
-1.53014e-05
-0.000251476
0.00534641
-1.70521e-09
-2.18265e-09
5.16905e-09
4.21262e-07
-1.75282e-05
4.00753e-08
-2.13624e-05
-2.28031e-08
0.000343873
-6.31242e-09
0.00180037
3.7746e-06
0.0126715
-6.76392e-06
-0.000444564
-9.57235e-09
-2.21507e-08
-4.70804e-07
-1.1328e-06
-0.00117247
5.61397e-08
2.21742e-08
1.67424e-07
-8.22357e-09
0.000308085
7.95682e-05
-3.70987e-07
0.00599571
3.77349e-08
1.30515e-08
1.39583e-08
-1.57809e-09
2.87358e-05
1.43883e-08
-2.86813e-09
-0.000237181
-0.000316271
-1.25088e-09
-2.17877e-08
-9.04376e-07
-4.95462e-09
-1.65189e-09
0.00577702
0.000326536
-5.07464e-10
1.80188e-10
-2.84946e-10
-0.000885627
3.12356e-08
0.000172518
-5.76461e-05
-0.00362937
-2.30281e-07
-0.00192629
3.29817e-08
5.47717e-09
-2.16074e-07
2.35593e-09
-5.48232e-09
-2.40159e-05
4.07745e-09
0.00428471
3.23183e-09
-8.70566e-10
-0.000229591
-0.00226512
0.00164191
0.00396384
-3.18482e-10
1.42938e-09
7.12247e-09
8.20683e-09
0.000224973
2.0159e-07
-6.45575e-07
7.14297e-09
0.000296549
5.32022e-08
-7.08884e-10
0.0142697
2.30128e-08
8.70462e-10
1.02775e-08
-7.74611e-09
6.55542e-09
-1.4276e-07
3.99201e-08
-9.70777e-13
-4.63518e-08
0.000612862
-6.13237e-09
4.28659e-08
-1.46145e-08
7.62286e-06
-2.65592e-08
1.09916e-08
0.000592383
-9.98867e-06
-7.21582e-09
-1.19651e-08
0.00496643
-8.79034e-09
-0.00397899
3.12013e-08
-7.80543e-09
-9.11183e-05
9.73067e-10
2.86455e-08
-0.000239724
1.41515e-08
6.03691e-07
-2.09462e-09
6.70451e-08
2.60569e-08
6.38252e-10
3.14467e-08
-3.56661e-06
-0.000341413
0.000293823
-5.57464e-08
1.11832e-08
-0.00378321
1.32249e-08
1.83153e-09
0.000318121
-1.31762e-09
-6.94774e-10
-1.98401e-07
0.0108187
4.56581e-10
-1.48723e-09
-1.04991e-06
1.02116e-08
-0.00432718
-1.96969e-08
-1.87274e-05
-2.41065e-10
-1.35174e-05
2.50729e-08
-0.00327664
-1.80915e-09
-7.39536e-09
0.00154198
6.48881e-07
0.00306992
-2.19276e-09
-1.57543e-05
1.75783e-08
-1.8202e-08
0.000266083
-1.66246e-07
-6.38653e-05
5.34128e-08
1.79209e-08
1.22049e-08
-0.00114293
-1.42327e-09
2.83051e-08
-0.00545675
-1.45064e-08
1.8186e-08
9.92433e-08
5.80509e-07
-0.00918019
-0.000664432
1.0014e-09
2.63789e-10
0.000568165
-0.00310548
6.49875e-09
-9.16716e-07
-5.64227e-10
-3.84865e-05
4.00537e-08
0.0012604
2.58603e-09
-3.54055e-08
3.96669e-07
-0.00213357
-4.02335e-09
-5.4069e-09
-1.92354e-08
7.5298e-05
3.60797e-07
-0.000220957
-0.000189429
2.53397e-09
-7.16202e-09
-3.0706e-08
0.000411333
1.0401e-08
-0.000307834
1.56213e-08
-1.54759e-08
3.56449e-08
0.000260022
1.40451e-05
3.31197e-07
5.23694e-09
-0.000514403
3.88514e-08
-5.5891e-08
-5.36355e-09
3.5106e-05
0.000112685
-0.000112691
0.000133768
-1.09154e-08
3.91917e-10
4.5891e-09
-2.58388e-08
0.00036856
-0.00609968
-7.64057e-09
1.21858e-11
0.00027823
0.000598813
-1.42761e-06
-3.62123e-08
1.93558e-07
-4.42945e-09
0.000681591
-0.00018109
5.34829e-08
0.0117859
7.49123e-09
-3.60914e-05
-3.14619e-09
7.36103e-10
-0.000109742
6.24091e-09
3.59243e-05
9.18487e-05
-6.78539e-09
-3.56455e-08
4.41303e-09
-3.59639e-08
-0.010407
5.57563e-08
1.62002e-08
0.000338597
-7.54581e-09
-4.12326e-08
-3.65102e-07
-0.000131433
-2.41098e-08
-3.41123e-09
4.22978e-10
-7.68389e-10
-0.000114133
-5.22113e-07
-1.27678e-08
2.24652e-09
-3.16314e-08
3.92477e-08
-9.20365e-09
2.14745e-09
5.78231e-09
1.39834e-08
-0.000208437
0.0139337
-0.00129228
-8.21345e-08
-0.000124091
-0.00317464
-1.7674e-09
1.84842e-08
-1.44952e-06
-1.07173e-06
-6.48708e-07
-5.12622e-08
-0.000212564
5.7638e-09
-0.00224803
2.25646e-05
2.38764e-09
-0.000236638
-0.000360503
-0.00256107
-8.64512e-09
5.6029e-06
-0.00107065
2.73849e-09
-0.00176967
6.05135e-09
2.95693e-09
-5.73212e-10
6.06177e-09
-6.76564e-09
2.17735e-05
-0.00112437
3.86382e-09
-4.07332e-08
3.69254e-11
0.00962385
-1.84665e-07
-0.000989412
-0.000133022
1.19771e-08
6.92179e-08
3.72914e-09
-0.00119618
-9.18275e-09
1.1014e-09
7.37864e-08
0.00744704
-1.3255e-09
-0.00912476
-1.70357e-06
2.10506e-08
0.00331716
-0.00075336
-0.00110455
1.02985e-08
-2.08218e-10
-8.39516e-10
-9.17457e-08
-6.52306e-09
0.0150823
-1.71273e-08
-7.02543e-05
6.49865e-05
6.84838e-10
2.42453e-09
0.000252321
-2.73936e-05
-0.00377582
0.000376955
2.62312e-06
1.934e-08
2.42789e-08
-0.00285055
-1.30378e-09
-7.16485e-08
8.59295e-09
-3.93602e-09
-1.59665e-08
4.02919e-09
8.36771e-09
-1.79192e-08
4.04479e-07
-7.38614e-05
-4.14829e-08
4.91342e-09
2.09547e-08
-0.00123644
-3.28473e-08
-0.00201198
-1.68905e-08
0.00153138
-2.3882e-09
1.07499e-09
1.0034e-07
-0.00136925
0.000847443
-1.9296e-07
-5.27174e-07
-1.7852e-05
0.000603884
-6.74644e-06
-1.17383e-09
9.18844e-09
-9.97522e-09
-0.000552436
-8.08568e-10
0.00218575
0.000126433
3.06698e-07
-1.13001e-05
2.634e-09
0.000113335
-5.30255e-06
0.00692006
-1.57045e-09
-1.91372e-08
3.78468e-08
8.64935e-05
5.28623e-10
4.37543e-09
-5.71197e-08
-2.17334e-08
6.06042e-08
0.00828203
3.73026e-08
-8.5143e-09
-0.00041539
5.75386e-08
6.47717e-10
-0.00489744
-2.68101e-09
3.21889e-08
4.96235e-10
2.15166e-08
1.57445e-08
-3.76545e-10
6.33822e-09
0.000354045
-9.03615e-09
-2.3891e-08
1.26254e-09
-2.51967e-08
0.000583951
-2.37107e-09
-5.40362e-09
-3.29647e-09
-4.42419e-09
-0.0108466
-2.38181e-08
-2.15043e-05
1.56892e-09
2.7073e-08
0.00306652
-1.35789e-05
-6.70536e-09
9.43676e-08
-4.13693e-08
-0.00402021
0.00214077
-1.25065e-08
-0.000412418
7.35986e-09
1.61397e-07
-9.1265e-10
-0.00136618
9.48318e-10
-0.000188593
-3.61762e-06
2.60224e-10
-1.86426e-08
5.13016e-05
-5.03754e-08
-0.00035535
-5.51748e-10
-0.00316055
5.44445e-10
3.8998e-09
-8.47164e-09
-2.17334e-08
-3.37345e-05
-6.29767e-09
1.7564e-08
7.06606e-05
1.08788e-06
-1.22403e-09
-0.000236877
0.00103223
2.30038e-08
-6.94059e-08
-0.00287448
-0.0031305
-2.35385e-05
2.94213e-09
-0.00139867
0.00353311
0.00860071
6.32052e-08
-1.62861e-07
0.00464349
0.000127361
2.06214e-05
-0.000960507
0.00164118
5.38895e-10
-0.000571021
-9.0522e-05
4.8141e-10
9.19536e-05
-2.01869e-09
-1.10381e-05
-1.17414e-08
-1.19789e-08
-1.40108e-08
4.06097e-09
2.43288e-08
3.01011e-07
-0.000397134
0.00684729
-3.18031e-09
-0.000575034
3.96056e-06
0.000581478
0.000321958
-1.477e-08
2.23913e-09
1.052e-11
-0.000640941
-0.000153764
1.20216e-08
-4.17283e-08
-5.15426e-07
-3.76059e-10
3.38645e-06
-0.00192071
-0.00167016
-8.7481e-08
-3.60947e-05
-0.000120672
4.47943e-09
-2.56331e-09
-0.00978508
7.94427e-05
4.77113e-08
-5.26837e-09
5.80545e-06
1.62314e-09
-7.40644e-09
0.00146746
2.93794e-09
-5.16105e-09
5.97717e-10
-2.09856e-09
-8.20184e-05
-2.87909e-08
1.4501e-07
3.6501e-10
-0.0165977
-0.00269707
1.51162e-09
2.78039e-08
3.12339e-08
1.04379e-09
0.00597839
0.000540625
-0.000900207
0.00924278
-0.00248397
4.8221e-10
-7.22112e-06
-1.84719e-05
1.21879e-08
-1.37132e-08
3.27265e-09
-4.11331e-07
-1.17802e-07
0.000352773
-0.000953487
-6.11154e-08
-6.48857e-08
-2.001e-10
-5.46792e-08
-2.73789e-09
-0.000879451
5.98511e-08
1.33023e-08
-6.6001e-08
-2.8567e-10
6.33959e-08
-2.60114e-07
4.53955e-09
-1.05018e-08
-2.2286e-07
2.15711e-08
3.69414e-08
-0.00093854
-1.99918e-07
-8.20232e-08
4.10326e-08
1.67635e-10
-0.000534821
7.00975e-07
0.00455132
-3.69145e-09
1.36321e-09
-0.000238565
-1.02842e-08
0.00397882
6.63027e-07
0.00198931
-0.00832299
-3.2016e-09
-0.000257586
-6.32616e-08
6.68687e-10
1.81057e-09
-2.15552e-09
1.05954e-06
-5.46244e-08
8.72151e-08
-1.23377e-09
-0.00521224
-1.02913e-07
-0.00579601
5.573e-09
-3.22803e-10
-8.31933e-09
-4.07639e-08
-0.00508582
8.67386e-10
6.83068e-08
3.70231e-08
5.49993e-08
-1.05405e-09
-2.17866e-09
-1.9925e-05
-0.00811769
-4.56411e-09
-3.14415e-09
-2.3603e-08
-2.7735e-09
0.00114133
0.000766421
-6.61756e-08
0.000144263
-0.00426282
-7.6307e-09
3.9578e-09
0.00868433
-3.5591e-09
0.00877852
-5.7121e-09
-1.09219e-08
-5.63348e-09
-5.5657e-09
-0.00344345
1.31318e-11
0.00322548
-7.98135e-12
-1.31588e-08
-8.58964e-06
5.76895e-09
-6.52864e-09
2.35621e-06
2.55888e-09
3.3098e-08
0.000698738
0.0189068
9.98216e-08
-0.00036633
-0.000198599
-2.4939e-09
1.47253e-09
-0.0011676
-1.23741e-07
5.32513e-07
8.30049e-06
8.36799e-09
3.70616e-08
-2.10293e-09
-0.00105026
-0.000147164
1.14643e-08
1.54429e-08
0.000741156
-1.29921e-08
-1.05889e-08
-9.59055e-05
0.000283622
9.14751e-05
8.76923e-09
3.79268e-09
-7.54342e-06
0.00214994
-1.86365e-07
-2.11675e-09
-0.000118257
9.91081e-09
0.00137497
-4.37424e-06
5.91472e-07
-4.30985e-09
0.00274548
4.21891e-08
1.577e-08
-0.000154407
5.43448e-10
1.48239e-09
2.97922e-08
5.50658e-09
0.000126011
-7.71118e-08
-5.84592e-08
8.91734e-08
0.000263609
3.45145e-09
0.000609058
-2.18155e-09
2.39249e-08
1.82462e-09
7.17231e-09
-2.56027e-09
9.57885e-05
-1.05049e-08
-4.06156e-09
-0.00756109
-2.59746e-08
-9.30927e-06
2.5713e-09
-6.29046e-09
-1.14452e-07
0.00428822
-0.00348247
-2.42035e-10
-0.000530894
0.000114493
-1.38813e-08
9.41159e-05
7.82982e-09
-4.50237e-09
7.52438e-06
-0.000506804
-0.000133998
1.46131e-08
-6.26783e-10
-5.71348e-09
0.000494154
7.36827e-07
-9.66005e-07
2.27159e-08
6.28388e-06
3.41094e-09
-7.00331e-09
-2.36475e-08
-0.000585174
1.06448e-07
-0.000959122
-2.04101e-08
1.13249e-07
-2.60198e-08
-0.000147893
5.1268e-09
0.00695785
4.68806e-05
-1.30815e-08
0.00505491
6.3139e-05
-0.00171033
0.0208379
0.000292857
-0.000487449
-2.06459e-07
4.70582e-09
-9.37345e-08
-7.59634e-05
0.00185399
-8.74165e-09
6.46299e-08
1.08521e-07
0.000620506
2.4814e-09
0.00111592
8.49741e-09
-1.12123e-08
2.61607e-05
-7.49229e-06
-0.000150875
3.28255e-09
2.96872e-09
0.00198389
-1.55294e-05
-3.44707e-08
4.35615e-09
-0.000720849
-0.00135384
-0.00389896
3.6389e-08
-3.14089e-08
1.18196e-08
-5.2341e-09
0.00358969
4.28037e-09
-2.52673e-05
-1.47522e-06
-2.15884e-08
0.000323902
-0.00156498
-4.53154e-06
-1.42198e-08
1.35442e-08
8.56314e-09
-8.61952e-08
-6.68751e-09
0.00407416
-8.53233e-09
-4.88176e-05
7.83317e-09
-1.09564e-07
8.00916e-09
-0.000164883
-6.12273e-09
6.18844e-09
0.00022281
-3.10769e-08
4.29918e-08
-1.68421e-09
1.06824e-08
-0.00281183
1.57706e-05
-1.72981e-08
-3.46645e-06
-1.72005e-08
0.0248507
-0.000642819
-1.99344e-08
-2.07963e-05
0.00772313
-7.94338e-06
-0.000132214
-1.33471e-06
2.7294e-09
8.10031e-05
-6.49982e-09
0.00525238
-2.3023e-05
4.96237e-09
7.98475e-09
-0.000816064
-0.00360307
0.0017793
-2.29416e-09
-3.67639e-09
0.00426108
-1.38941e-05
-9.39652e-08
1.55429e-08
3.08301e-09
-0.000200883
0.00060502
-2.96177e-09
6.43635e-09
-1.60932e-07
8.19413e-09
-1.41863e-09
-0.000805005
6.3881e-08
-0.00123541
-0.000213952
-1.10309e-08
8.68161e-09
7.20986e-09
1.28214e-08
-1.36113e-05
-0.000107185
1.57942e-08
0.00826174
5.1192e-09
-3.26548e-08
-6.22692e-10
8.11481e-09
-5.64685e-09
-1.26112e-08
-2.03786e-05
6.59656e-09
-1.58951e-08
5.0886e-09
-1.15723e-08
-0.00114931
0.00194308
5.77627e-10
-0.0102147
-1.26845e-06
6.44024e-05
-6.24808e-08
-1.87837e-09
-1.96491e-05
6.0744e-08
4.15861e-07
0.00553889
0.00261988
-0.00123762
-1.78818e-08
8.50201e-07
6.89634e-09
-2.97053e-08
2.79436e-08
0.00474188
7.4502e-10
0.00209539
-6.68323e-09
1.58404e-08
0.014408
4.0139e-07
-3.48253e-05
-2.34705e-08
-8.429e-09
6.23621e-07
1.07623e-08
1.84686e-10
-7.76199e-08
-1.59253e-08
-9.14095e-05
-4.23274e-09
-9.86229e-06
1.33083e-05
-9.1572e-07
0.015517
-1.37912e-09
7.17392e-09
-3.48417e-07
3.5287e-09
5.37364e-09
-5.71669e-08
-2.00821e-08
2.48359e-09
6.33077e-09
-1.96539e-09
-1.04816e-05
-0.00795375
7.68636e-06
0.000373028
-5.59023e-05
-6.66423e-09
0.00518667
-8.2247e-08
-3.55258e-09
-0.000102121
6.20356e-05
-6.12103e-05
2.30264e-10
0.000411436
-0.00255
-0.00155051
9.38413e-10
0.000112753
-5.23558e-08
2.7415e-08
-3.69321e-08
1.30653e-08
0.00198826
-3.83785e-05
-0.010632
1.98875e-09
-5.19238e-09
-0.00326424
-1.22256e-08
0.00125978
-0.000445384
-0.0183649
1.41265e-05
0.000967153
2.23751e-07
-1.16045e-08
2.65357e-06
3.87307e-08
3.92671e-08
-1.50893e-05
-1.00424e-08
-2.35102e-08
1.36956e-08
-0.0119689
3.64992e-09
-7.32858e-05
0.000114984
0.00250449
1.47901e-06
4.26102e-09
-2.84758e-08
-7.43547e-09
-0.00173175
0.00064489
7.7538e-09
-2.05894e-09
1.56866e-08
4.62373e-08
5.0883e-09
2.26104e-08
-3.0521e-09
1.49656e-08
-0.00013093
4.11021e-07
-1.08585e-08
-2.57473e-09
3.83416e-09
-0.000579346
3.76611e-08
0.00730661
-0.00315919
-6.72715e-08
1.76446e-08
-3.9297e-08
-1.27652e-08
-1.57141e-08
-4.79338e-09
-2.41595e-05
-2.03378e-08
0.00141284
4.3388e-08
0.00114934
1.07148e-08
-1.68372e-09
3.31957e-09
0.00294652
-0.0124437
2.44176e-10
1.34782e-08
-1.73787e-06
-2.75123e-05
-8.70648e-10
-0.00341313
1.25262e-06
-0.00360674
4.40417e-07
7.87574e-05
-2.43781e-08
-3.74153e-08
-0.00161161
8.34983e-06
0.00120491
0.00251927
4.73711e-08
0.000489109
-3.77642e-09
-2.89752e-08
-2.54931e-08
-1.48368e-08
-2.9068e-06
-5.01437e-09
4.55668e-08
-0.000131246
-5.9117e-07
-0.00872911
2.38245e-09
9.87442e-09
1.21239e-08
-3.442e-09
-1.37395e-07
0.00364987
-0.00106389
-0.00480221
3.34261e-09
1.29726e-08
2.50617e-09
-0.00047644
0.00038054
2.12235e-06
5.86833e-09
-2.41485e-08
-0.00118875
-5.17618e-08
0.00718543
-0.00123705
2.56701e-05
-7.27555e-10
-7.16277e-06
-1.32383e-07
3.75714e-08
6.4534e-08
3.49406e-05
-0.000877305
-3.48821e-07
-0.000523976
-1.48715e-08
6.69327e-09
7.32637e-09
-0.00175902
5.07608e-07
-3.9904e-06
0.000933828
-1.65841e-08
-2.60758e-08
-1.03636e-08
2.68431e-05
-7.02666e-06
1.07392e-09
0.00155046
-3.26252e-06
0.00172877
-0.000187693
-1.54675e-09
-1.46945e-08
-9.89594e-06
-0.000794093
-0.000536302
-8.28634e-10
-1.59853e-08
-1.03765e-08
-7.50673e-06
7.49701e-08
-1.5101e-08
6.55497e-05
8.23457e-07
-0.00918882
1.86001e-05
-0.00495034
-1.77276e-08
-0.000114174
2.53672e-08
-2.84141e-09
5.95583e-09
-0.00526362
9.4113e-09
-5.49419e-09
0.00177111
8.29521e-05
-1.86432e-07
-3.35707e-09
-0.000968709
-6.17602e-09
-0.000879162
1.1591e-09
-0.00301904
-1.05386e-08
-1.80822e-08
-0.00701523
0.000375647
1.9544e-08
-0.000365125
-4.92628e-05
-0.00606795
5.51502e-05
-0.000808094
8.53591e-06
6.64039e-10
-0.00318534
-2.78352e-09
3.90313e-10
-2.95708e-08
6.52652e-05
-2.9744e-09
-0.00016864
-1.24779e-08
4.90392e-09
-5.38067e-05
1.12248e-07
-0.00049788
-4.18532e-10
-2.74922e-06
-4.95926e-09
-2.01359e-08
-0.000129682
0.00507122
1.65026e-09
7.76039e-09
-0.000594348
-3.88428e-10
8.76917e-09
2.05695e-05
2.12569e-09
-9.66731e-08
8.8886e-09
0.00128674
-0.0164427
-0.000147633
-0.000204274
1.87672e-05
0.000827312
0.00160606
-0.021926
9.02844e-08
1.52695e-10
1.65109e-08
1.16569e-08
2.69866e-09
-0.0120136
3.70443e-06
1.29756e-09
0.0174939
0.000242841
-4.34433e-05
0.000369739
6.0058e-05
-1.36379e-10
0.000554078
3.88809e-05
-4.70461e-09
1.70652e-08
0.000101979
0.000232738
-0.00317464
2.17897e-05
-9.14962e-08
-5.85968e-05
3.3439e-05
-2.1953e-08
1.33481e-09
-9.38166e-09
0.000641577
-8.73659e-09
-2.92548e-05
1.30941e-09
2.10407e-08
3.37214e-09
-0.000310037
-0.000128185
-0.00259028
8.15428e-09
-3.40716e-05
1.06239e-08
7.19197e-08
-2.30567e-09
-9.58336e-09
0.000517419
-2.84158e-08
-2.20809e-05
0.00425909
3.15534e-05
-5.17853e-08
-1.55352e-08
-2.42074e-07
-1.82107e-08
-1.98993e-08
-5.00955e-09
-5.81779e-09
-6.28566e-09
-5.72718e-10
-1.31106e-07
3.47107e-08
-1.15252e-07
-8.86146e-09
-1.28793e-07
-0.000371343
-1.75053e-05
6.18565e-09
3.3321e-08
-1.183e-09
6.69274e-06
3.96913e-07
-0.00140086
0.000826507
-1.16005e-09
-4.18409e-08
2.57482e-09
0.000151678
1.21415e-08
0.000290965
-6.4052e-09
-1.83339e-08
-4.00218e-09
0.000305948
-1.26378e-08
1.31187e-08
-4.73025e-07
-6.91605e-09
-5.52068e-08
0.000374467
-0.000539176
1.57683e-08
1.444e-08
1.43607e-05
1.1195e-10
1.83108e-08
1.24799e-07
-4.63874e-05
4.54862e-09
9.53581e-08
-9.08803e-06
-5.95671e-05
-3.60482e-08
3.01568e-09
-4.61502e-05
-1.0518e-08
1.60626e-05
-4.37875e-05
-0.000165997
-7.22218e-09
7.58263e-07
2.78302e-09
-5.40927e-05
-3.52437e-08
-1.09202e-08
-5.15697e-08
-0.00333351
-1.7369e-08
-0.000133776
0.0103138
-6.74093e-09
-0.000476429
-7.96143e-08
6.26885e-10
0.00021458
-8.92686e-09
-7.16606e-09
-2.83554e-09
-3.42286e-07
3.99807e-05
-3.21558e-07
6.57658e-09
3.09719e-08
2.13506e-08
-0.00311603
-0.000112789
-0.000116585
0.000199095
-7.03197e-09
-7.2302e-09
-8.30752e-07
-0.00170512
2.11727e-07
0.000703467
1.04831e-09
-7.14172e-07
-6.67444e-09
0.000105476
7.26262e-08
5.53696e-09
-0.0117659
0.000621826
-8.44518e-09
4.94889e-07
-8.00489e-10
-9.0556e-09
-4.87013e-07
-9.52598e-08
-0.00647853
-2.52367e-08
2.22495e-07
-7.26582e-07
-3.8057e-08
0.00862648
-3.44042e-07
-9.08671e-05
3.20678e-09
-9.33946e-10
-2.70303e-05
-0.00704995
-0.00178358
0.000218939
4.96407e-10
-8.2619e-05
-0.000211291
-1.05887e-08
-1.21051e-08
-3.0178e-09
-4.80661e-09
1.02708e-07
1.30814e-05
0.000761886
-0.000111543
1.44968e-08
-0.00249875
-2.47586e-05
-1.35359e-08
-1.05615e-05
-0.000212644
-0.00143787
-4.71095e-09
-5.22813e-08
-2.30766e-09
-4.8408e-09
-5.20556e-09
2.28581e-08
-7.80495e-05
-5.10011e-05
0.00037341
0.00208706
1.29483e-08
-7.1556e-08
-6.83782e-07
-1.00568e-08
1.36622e-09
-5.00493e-09
0.000336017
6.89578e-09
-3.71589e-05
-1.83312e-08
3.66084e-07
-2.25953e-06
-6.64244e-05
-9.37119e-06
-3.86217e-05
3.81211e-09
5.31715e-09
-3.66335e-07
1.3894e-05
9.40801e-05
2.40442e-08
-2.08894e-09
-8.45699e-10
1.93038e-07
-2.2968e-08
-7.5251e-08
0.000814866
-8.80444e-09
-5.58375e-09
-3.72738e-08
1.71637e-05
-1.1729e-05
0.00515188
-3.23892e-09
1.04076e-07
-3.73835e-09
-0.000101491
8.67683e-09
-5.68754e-05
1.23279e-08
1.61917e-08
-1.80946e-07
-1.62263e-09
5.48227e-06
1.96137e-08
4.12463e-08
-0.000728582
0.000285675
-6.15492e-09
-1.89272e-08
-7.7491e-10
-1.15998e-05
-0.00174319
-1.70963e-09
-2.45699e-09
-0.000714249
1.30202e-09
-3.5968e-05
1.01512e-09
1.22876e-07
1.99227e-07
0.000597519
1.6147e-07
-1.40139e-09
1.27999e-08
-3.03648e-08
9.154e-05
1.14734e-08
0.000108894
0.0163779
0.00530608
0.00332678
-9.54983e-09
-2.04705e-05
-3.52515e-08
-0.00099153
1.08318e-10
6.49755e-05
0.000161673
0.000678429
0.000663686
0.00434242
5.77603e-07
4.53701e-05
8.35072e-09
-2.84063e-06
-6.6399e-05
0.000133951
-0.000404739
-2.06714e-08
0.00851491
-0.00273434
-3.63517e-08
1.38451e-08
2.43317e-08
-3.0009e-05
-1.17167e-08
8.21677e-10
6.55841e-10
-7.12353e-09
-6.77945e-09
-8.35298e-09
0.000165993
-6.23125e-05
-7.11845e-08
-0.00166982
6.46608e-05
2.24928e-07
2.51056e-10
-7.421e-09
-7.65614e-08
-5.50462e-05
-0.000103642
2.71066e-08
6.53942e-10
-0.0129314
6.88633e-07
2.49863e-08
0.000862145
-6.18703e-08
-5.13939e-05
2.18963e-08
-4.32029e-08
6.96027e-09
2.31362e-09
2.90832e-08
-0.00112083
-0.000272152
-3.29219e-05
3.46014e-07
-0.0213931
-1.70425e-08
-9.74851e-10
1.68351e-08
6.95625e-05
-0.00948762
-0.00490694
9.33338e-05
2.96337e-08
9.97027e-09
4.83824e-10
-3.82943e-09
7.74042e-09
-0.00165694
-7.21359e-09
-0.000469023
-7.1868e-08
-0.00199582
0.00638258
-2.6652e-05
-3.59518e-08
-1.89708e-08
-0.00103974
-1.50708e-07
-0.0199682
-4.12606e-05
-7.55926e-09
3.84136e-05
-8.62827e-08
0.00584638
-0.000158129
-9.29565e-08
3.30342e-05
0.0019806
-1.33155e-09
1.81858e-07
4.85828e-09
-0.00498622
-0.000930458
1.2217e-08
1.37711e-08
-0.000433465
0.00442852
-3.30365e-07
0.00718926
1.14363e-08
-7.63986e-08
2.5767e-09
0.0106978
-4.50011e-05
2.83068e-07
-1.02955e-08
0.000311662
0.0107934
3.07517e-09
-5.2071e-09
1.81106e-08
0.000139777
0.000321361
-4.61112e-09
-1.725e-05
-1.58155e-08
-6.02866e-09
-5.4048e-09
0.0043886
-0.000411249
3.17874e-06
-0.00175443
-1.94383e-09
-2.59901e-10
7.3392e-09
-0.000124158
1.55931e-09
-0.0219025
2.29266e-08
0.00706867
-2.34376e-08
1.05987e-08
-2.29628e-07
-0.0015161
-0.000168189
-1.17987e-07
-0.00421506
-1.20062e-08
1.12918e-08
-1.57959e-08
8.88102e-09
-3.9231e-08
5.03714e-08
3.14137e-07
9.17546e-05
3.17943e-08
-3.31825e-07
-0.00347132
0.0135274
3.98479e-09
-1.97156e-05
-2.50772e-05
-1.13594e-08
-0.000841133
2.04876e-08
0.00084099
7.28071e-09
-4.30112e-07
-7.79136e-09
-0.0164227
-1.00911e-05
-3.02173e-05
-7.28908e-06
-2.41027e-08
1.6071e-08
3.15891e-08
-1.25427e-05
-1.08237e-08
2.53555e-09
0.00443307
1.24231e-06
-0.0039205
-9.99691e-05
-1.30187e-07
1.00468e-09
1.00322e-08
0.00276627
-1.60395e-07
6.06112e-09
-3.14075e-08
-1.00374e-07
3.74943e-08
2.68301e-09
0.00646595
2.7023e-10
0.00025402
8.36661e-05
-1.85544e-07
0.00195672
-5.85012e-07
-0.00010687
-7.21134e-09
-0.00967407
0.0080126
4.42068e-11
-1.13553e-08
-4.98486e-09
2.15358e-08
-2.75817e-08
-1.11343e-09
-0.000139176
-8.98351e-08
0.00136093
9.89387e-06
4.68384e-09
3.17846e-08
-9.83581e-09
-6.22934e-05
4.4155e-09
5.4944e-09
2.51248e-05
2.05985e-08
0.00631689
4.72762e-06
-8.61181e-09
1.34086e-08
-1.05553e-07
2.67131e-08
-5.1371e-09
3.81249e-07
2.16881e-08
-9.86352e-09
0.00120746
-6.37548e-05
4.96915e-05
2.12964e-08
0.000250603
-0.000781259
-3.3947e-08
0.00075801
0.000279122
-2.02991e-09
-3.19068e-08
-2.11011e-09
-0.000150497
-0.00522851
0.00790776
1.59133e-08
-3.11295e-08
2.52299e-08
-3.01848e-09
-2.609e-07
-4.12994e-09
1.85111e-05
0.000803756
-6.11556e-05
8.44901e-09
-5.35331e-08
3.28125e-08
-0.0104941
-6.77179e-10
-0.00286321
0.000348912
0.000267969
0.00329918
-0.00185858
0.00450351
6.99337e-10
0.00620616
-0.00150333
2.64008e-08
1.8831e-09
6.43977e-09
1.12337e-05
-0.00115004
0.00101436
-1.12376e-08
-6.49261e-05
-1.81119e-08
-4.71669e-06
6.86037e-09
-9.70165e-09
-2.18007e-08
5.34761e-09
-0.00881
7.01638e-09
-0.00410377
0.0117342
-0.00184293
-8.32691e-08
1.07991e-08
-0.00356836
0.000122533
5.62791e-12
-0.000480216
1.54749e-08
3.19116e-09
-1.15718e-09
-6.99798e-06
-3.80651e-09
-0.00106698
-1.37045e-07
0.000393434
3.30568e-07
0.000856505
-0.00185439
-1.5991e-05
-5.5312e-09
-7.85638e-07
-5.41273e-08
-0.00653497
-2.62754e-08
-5.40436e-11
4.58299e-10
-0.0143684
1.02376e-08
0.00189576
-0.000757222
3.08216e-08
1.89811e-07
1.90467e-08
0.00205567
1.56758e-08
-6.01316e-05
-2.69788e-09
-0.000408488
2.61288e-08
-1.21323e-08
-0.00107978
-0.000439898
-5.82094e-09
-1.30231e-07
9.08733e-09
0.000727741
2.67875e-06
0.000266458
0.00027144
5.8714e-08
-8.0521e-07
-0.000123094
-7.03108e-09
-9.78468e-06
1.70659e-08
-2.15691e-08
-1.78295e-08
0.000150454
4.46369e-05
-2.38377e-08
-2.26089e-05
2.00626e-08
2.51482e-08
0.000349083
-0.000764586
1.36921e-07
1.51626e-05
-0.000983277
1.16963e-08
0.00199162
-1.94175e-08
-2.83702e-08
3.12538e-08
-0.0014713
9.21357e-11
0.00143827
6.32101e-05
1.03751e-06
-1.11352e-09
-3.5384e-08
-7.31368e-06
4.45891e-08
-0.0030939
2.73001e-08
-5.49123e-08
-0.000420697
-0.000765864
7.9883e-09
7.06377e-05
-0.00432302
-0.00127808
1.00316e-08
-0.000933869
-0.00274395
-0.012879
-6.47114e-09
-4.43906e-07
-4.0874e-09
1.24639e-05
4.65109e-07
0.00247285
0.00183987
7.04766e-09
-2.77983e-08
2.18297e-09
-0.011113
-0.000273187
0.00638212
-0.00194983
6.29551e-10
-0.00030816
0.000148308
2.27817e-08
-0.000723197
2.26133e-06
2.95288e-07
0.000249059
-3.32752e-08
-2.1003e-08
-0.000167168
-0.000206507
6.24671e-08
0.016256
-7.94786e-09
1.40386e-08
-0.00273001
3.06507e-05
-0.000148719
-8.70095e-06
-4.31921e-08
3.02505e-08
-1.94718e-10
3.25817e-05
-0.000169031
-1.83695e-08
1.50738e-08
0.000499718
-3.67873e-09
1.09254e-08
0.000293652
-0.0143855
-5.32183e-10
8.39772e-09
1.03487e-08
9.39351e-09
-0.00195637
9.24273e-09
-1.48971e-08
2.54057e-08
5.32077e-05
-0.0231778
0.000129947
-0.00239358
-8.4186e-09
1.43185e-08
7.00817e-05
0.000128895
4.49134e-08
-0.000873251
1.7141e-09
4.31178e-09
-1.20788e-09
-1.14031e-07
1.55904e-08
1.92556e-08
0.000874751
4.08869e-08
-4.06411e-09
5.12446e-08
-0.0026483
0.00573612
-6.68237e-06
-1.06892e-08
-5.84079e-10
4.93059e-05
0.000729186
-5.20637e-08
-1.97338e-08
-1.67505e-08
0.00149944
1.14466e-08
1.71497e-09
1.01414e-08
-2.5724e-09
3.5378e-05
0.000296979
-1.43902e-08
2.24759e-08
-7.79214e-09
-7.02076e-09
0.00332697
0.000154967
2.21e-09
-0.000606589
-2.36127e-06
-9.68293e-09
1.42612e-09
-8.46575e-09
-6.86999e-09
-4.01537e-09
-1.21317e-09
-1.69977e-06
0.000319181
2.87649e-09
-1.67686e-07
-5.29431e-06
8.36326e-05
1.55182e-08
3.82913e-09
-3.27446e-08
-0.010199
-1.31632e-09
-0.000935661
-0.000136526
1.62741e-07
3.07874e-08
-1.48193e-05
4.805e-09
1.99617e-05
3.36882e-09
-3.68616e-09
-2.85371e-09
6.73636e-09
2.33752e-07
9.37063e-05
0.00119327
-2.46623e-08
0.0099139
-1.91321e-05
-0.000915249
-9.36522e-09
2.13309e-05
-0.00135342
-8.02183e-08
-0.00788988
0.000264456
-6.7193e-08
0.00301665
1.89153e-08
2.85782e-09
0.00291408
-3.69394e-09
-6.25618e-09
0.00348806
2.40945e-05
0.00829889
0.000687056
-3.40093e-09
3.87809e-07
1.60286e-09
3.3647e-05
1.65183e-09
-8.59598e-05
-0.00364568
0.000314915
0.00036042
-5.56211e-09
1.02337e-08
7.89366e-08
0.0203475
1.2449e-05
7.43118e-07
-0.000157639
9.87595e-09
-0.000210693
-3.91892e-05
-0.00126677
-2.39711e-08
-2.30127e-09
-9.37564e-09
-2.48281e-08
-2.23281e-09
-7.27347e-09
1.15798e-08
3.2294e-05
1.35155e-08
-1.48445e-05
-0.000987985
-0.00263195
-5.28853e-07
-4.14913e-09
1.44027e-08
4.14841e-09
1.1823e-09
3.42692e-08
0.000208816
-0.00464658
0.00590478
-5.80819e-05
4.29271e-08
-0.00243375
-2.20269e-06
5.82962e-05
-4.269e-05
-5.07384e-09
4.59579e-09
-0.0016027
-3.24243e-09
-4.95317e-09
-0.00326372
2.24302e-05
-0.000119643
5.7036e-09
-8.91403e-09
-2.47739e-08
-1.26688e-07
-0.00347558
1.83159e-09
-1.45906e-08
5.12834e-05
-4.18082e-10
0.000460509
-1.38949e-07
0.00639
2.49156e-08
-9.19721e-05
0.0194994
-6.62446e-08
6.00275e-05
-7.57167e-08
-2.74244e-05
1.37865e-08
7.51942e-09
5.84492e-09
-2.96961e-08
0.00120779
1.68894e-08
0.00126772
2.18517e-09
-2.75946e-09
-6.74804e-09
-4.0779e-05
3.49022e-08
-7.9408e-08
0.00235847
2.78496e-10
-2.79605e-07
1.13959e-05
-6.98138e-07
7.8378e-12
5.37736e-09
2.64495e-10
1.01204e-06
-6.0908e-09
5.70094e-09
-8.00114e-05
-8.98366e-05
7.63328e-06
0.00415165
-5.59027e-06
-0.00182594
-6.29e-08
-8.84291e-05
-3.80693e-07
2.08053e-09
-3.20462e-09
-1.02482e-09
9.49947e-09
6.68317e-06
4.78569e-05
-5.42493e-09
0.00168045
-6.9904e-05
1.36107e-08
1.5593e-08
-3.57731e-09
-0.00258867
0.000305816
1.1464e-05
0.00258768
3.84753e-06
2.54595e-09
-9.13267e-05
7.93557e-10
0.00156324
-0.000184836
1.32447e-08
4.559e-08
-0.000720406
-5.50413e-08
0.0171139
-1.18498e-08
-0.000120734
-0.00124445
-4.28505e-05
-1.68461e-07
-8.39023e-08
-3.76014e-05
-2.22838e-08
-5.20377e-05
-3.00147e-05
5.12788e-05
-6.40455e-08
-0.00119719
-6.24429e-09
-4.42022e-08
3.90876e-08
-2.22243e-05
-0.00012443
-3.21126e-05
-2.53374e-10
4.47156e-07
-1.41132e-06
-2.12641e-09
0.000226514
-1.53384e-08
1.24621e-08
-8.23961e-06
4.85829e-09
0.00437273
-0.0111344
-5.20117e-05
-0.001772
-0.00229006
-0.000128194
-5.53635e-09
-1.61661e-05
1.11666e-09
6.42475e-09
4.38458e-08
-8.01848e-09
-3.58168e-05
3.64631e-08
-2.53268e-09
-3.79231e-08
-1.14253e-08
-0.00391865
8.42424e-09
-5.03743e-08
0.00214002
-7.0069e-10
-3.92358e-05
-7.66177e-08
-6.17255e-09
-9.51747e-05
1.92969e-05
-4.06482e-09
-0.00114951
-1.9363e-08
-6.45249e-05
-0.00274985
-5.9957e-08
-4.06584e-08
3.26511e-08
-5.71132e-05
-9.80115e-06
-1.57975e-08
-0.0057749
1.5227e-08
-2.5159e-08
0.00257638
1.48868e-08
4.87614e-09
-8.93082e-05
-6.66749e-09
-3.81343e-11
-1.81022e-09
-8.23899e-07
-2.68032e-08
-1.42878e-05
-3.75819e-05
1.52138e-05
0.000212661
1.5377e-08
2.081e-07
-8.58213e-09
-7.43854e-05
-1.77067e-05
-0.0081966
-5.89259e-09
-1.85673e-08
-3.50669e-11
-2.80996e-08
-0.00233114
2.45804e-09
0.00202522
3.01099e-10
3.59915e-05
1.62204e-09
-2.81339e-06
-0.000213439
-6.04806e-08
-3.77333e-05
0.00308244
0.000319928
-2.75807e-06
2.97324e-09
-0.000105397
-0.000120454
-2.04725e-05
-1.12587e-10
-0.000365318
-1.09945e-05
0.00135087
-3.69083e-08
-0.000357395
0.00194134
-0.000104149
5.88552e-09
2.60019e-05
-5.83061e-09
3.42863e-08
9.8182e-09
6.0907e-09
-1.53071e-08
-0.00238413
4.88954e-06
-4.26086e-05
-0.000251346
-1.04703e-08
3.7957e-09
7.91316e-08
7.41157e-09
-0.00176275
-1.0112e-08
7.45219e-10
-0.000135872
-4.63567e-05
1.45849e-07
-1.14285e-07
-3.24004e-10
8.3106e-07
-0.00168807
-2.91636e-05
-0.00158532
2.01766e-08
-2.05425e-05
-1.11021e-08
5.20508e-10
1.77379e-09
4.76748e-07
-9.50747e-05
-0.000151984
-4.85374e-05
1.79699e-08
-6.58213e-09
6.89806e-09
-9.57974e-09
-3.77399e-08
0.00430347
-0.000174076
-7.16463e-09
0.000183271
-2.10393e-05
-0.00175571
0.00821607
1.83319e-08
-5.78062e-08
-8.41988e-07
7.31921e-09
1.53574e-06
-7.9012e-08
3.06467e-08
-0.00344716
-3.27847e-05
7.26845e-09
-2.25401e-09
-9.16829e-10
9.96171e-08
-0.0157135
0.00596342
-7.66504e-05
1.55705e-08
-1.67039e-08
-4.4745e-05
-1.01464e-07
-3.34845e-08
-0.00310975
-0.00207959
-0.000171697
-8.90179e-05
-7.36143e-09
-0.000910776
-1.25201e-08
2.43637e-08
9.22365e-09
1.68201e-07
-0.000145801
-2.78337e-06
0.00214726
0.00153736
1.13013e-07
3.71137e-09
-2.15371e-09
2.28078e-09
-1.17648e-09
2.48244e-08
-0.000103205
-7.87818e-05
-1.72645e-07
-0.000727587
3.40608e-09
1.13195e-07
6.68769e-09
-5.156e-05
-1.02551e-05
1.55342e-08
-1.23858e-05
-1.39971e-07
0.00843792
-3.08962e-05
-9.59581e-07
-0.00105628
2.3498e-10
-0.0108728
2.94411e-06
-0.000104749
-0.000533657
-6.62367e-09
5.40918e-08
1.02497e-08
0.000322223
-0.00141724
-6.39601e-09
-0.0172165
1.48094e-05
0.00483737
2.85465e-07