/*--------------------------------*- C++ -*----------------------------------*\
| =========                 |                                                 |
| \\      /  F ield         | OpenFOAM: The Open Source CFD Toolbox           |
|  \\    /   O peration     | Version:  v2012                                 |
|   \\  /    A nd           | Website:  www.openfoam.com                      |
|    \\/     M anipulation  |                                                 |
\*---------------------------------------------------------------------------*/
FoamFile
{
    version     2.0;
    format      ascii;
    class       volVectorField;
    location    "300";
    object      U;
}
// * * * * * * * * * * * * * * * * * * * * * * * * * * * * * * * * * * * * * //

dimensions      [0 1 -1 0 0 0 0];


internalField   nonuniform List<vector> 
13851
(
(1.01755 -0.00789967 0)
(0.588797 -0.0190033 8.53563e-22)
(1.03815 -0.0371747 5.36752e-21)
(1.01748 -0.00711826 0)
(1.05519 -0.0460334 0)
(1.0425 0.0291224 0)
(1.0269 -0.000218928 0)
(1.04301 -0.0326637 7.45914e-21)
(1.01121 -0.000655296 4.58248e-23)
(1.0475 -0.0356041 -4.64582e-21)
(0.977012 0.0217033 0)
(0.53092 0.0953261 -1.7307e-20)
(0.972418 -0.0794742 -1.1701e-20)
(0.0718731 -0.13786 -1.31997e-20)
(1.01784 -0.000200425 8.27521e-24)
(1.03197 -0.0274769 -9.11867e-24)
(1.037 -0.0171264 3.2312e-21)
(1.02221 -0.0125713 -4.82777e-22)
(1.0318 -0.0862737 -1.16517e-20)
(1.01109 -0.000672478 -1.03891e-22)
(1.01755 -0.00707675 1.29339e-22)
(1.03907 -0.038412 1.79206e-21)
(1.00849 -2.74171e-05 6.77653e-23)
(1.00899 -0.000119138 2.11579e-23)
(1.00757 -5.18779e-05 0)
(1.04219 -0.0327821 -7.49071e-22)
(1.04385 -0.0114538 0)
(-0.00473192 -0.0863228 2.79785e-20)
(1.0178 -0.00805267 1.25836e-23)
(1.02376 -0.013845 -6.94217e-22)
(1.05134 0.0342902 0)
(1.03744 -0.0178826 0)
(1.03864 -0.0363469 -9.26546e-21)
(0.887939 0.0157898 0)
(1.00958 -0.000111331 -2.93209e-23)
(1.08735 -0.0298024 -1.00982e-20)
(1.069 -0.0299359 -5.32631e-20)
(1.02343 -0.0670569 0)
(1.04969 -0.0341204 1.82767e-21)
(0.904607 -0.0312424 2.06317e-21)
(1.01636 -0.00500128 2.63559e-22)
(1.01064 0.000319696 -4.366e-23)
(0.0313214 0.126795 4.14333e-20)
(0.915983 0.0706675 0)
(0.896644 0.0490643 0)
(0.256435 -0.00772914 -3.23534e-21)
(0.859279 0.0943012 -8.35265e-22)
(0.820337 -0.0439527 -7.16021e-22)
(1.04461 -0.0118049 -1.2763e-20)
(1.00556 -0.015956 -1.35426e-21)
(1.06947 -0.0366358 3.1299e-20)
(1.07728 -0.0503972 2.86443e-20)
(-0.0347501 0.0550195 0)
(1.01835 -0.000250492 -3.58246e-21)
(1.01429 -0.000514386 0)
(1.01082 0.000344531 0)
(1.00938 -5.35966e-05 4.15562e-24)
(-0.0827959 0.0348611 -4.77075e-20)
(1.02366 -0.0134189 -1.20457e-21)
(1.02783 -0.00220657 -2.88107e-21)
(1.01689 -0.0645726 0)
(0.589298 -0.195096 3.49259e-21)
(1.03862 -0.0198773 1.95805e-22)
(1.05903 -0.0500483 1.00098e-21)
(0.941554 -0.010733 7.15863e-21)
(1.01654 -0.00740342 -4.307e-22)
(1.04842 -0.0299592 0)
(0.859517 0.113566 -5.413e-22)
(1.05506 -0.0225188 7.40845e-22)
(1.02226 -0.0126103 1.8162e-22)
(0.548032 -0.000683982 4.4877e-20)
(1.00182 -0.0300313 0)
(0.588029 -0.0184393 -6.54672e-21)
(1.01828 -0.000293413 3.18717e-21)
(1.01321 -0.00078605 7.25301e-22)
(1.01295 -0.000824205 1.42519e-22)
(1.04035 -0.0381812 0)
(0.631957 -0.00766318 4.26161e-20)
(1.05305 -0.033015 -1.4946e-20)
(0.542786 -0.00340928 1.01975e-20)
(1.03056 -0.00509505 -6.63065e-21)
(0.868843 0.0762525 -1.33571e-22)
(1.01989 -0.00287525 -6.96362e-21)
(0.212682 0.0380166 0)
(1.04119 -0.0159081 -3.47261e-22)
(0.597559 0.0576733 1.52351e-20)
(1.03746 0.00665033 -1.07748e-21)
(0.834155 -0.142297 -2.63105e-21)
(1.04219 -0.0162811 0)
(1.01482 0.000237428 0)
(1.08688 -0.0302646 0)
(1.00785 -0.00228409 0)
(0.862887 0.117135 -8.01791e-22)
(1.04571 -0.0193181 0)
(1.04248 -0.0156264 4.39111e-21)
(1.00868 -5.59874e-05 -3.78998e-23)
(1.05683 -0.0469554 0)
(0.782424 -0.0828123 4.05486e-20)
(1.00087 -0.0171634 1.2351e-21)
(1.00781 3.00438e-06 0)
(-0.0717775 -0.0213743 7.27169e-21)
(1.05941 -0.0323109 -8.6746e-21)
(1.01945 -0.00875939 0)
(1.04793 -0.00517715 1.89308e-21)
(1.00865 2.93481e-05 0)
(1.04317 -0.00840854 -5.83368e-23)
(1.06273 -0.033519 0)
(1.01005 0.000277553 2.62147e-23)
(0.936019 -0.0289409 0)
(1.03163 0.0352682 -1.49181e-21)
(1.00801 -2.86417e-05 -4.33121e-23)
(1.01508 0.000274141 0)
(1.00989 -0.00220968 -2.1015e-23)
(1.00394 2.61754e-05 0)
(1.00884 -4.10589e-05 0)
(0.805371 0.103425 4.38568e-21)
(0.797773 -0.085254 -1.04405e-20)
(1.00918 0.000200551 0)
(1.01027 -0.000203842 -2.94567e-23)
(1.0133 -0.000420987 8.00647e-22)
(0.0194097 0.142748 1.78613e-21)
(1.04717 -0.0055851 -2.94704e-21)
(0.953417 -0.0839107 0)
(0.858233 0.165085 -7.27672e-21)
(0.840183 -0.0247927 7.72153e-22)
(1.01794 0.000401648 1.02161e-22)
(0.836624 0.00621731 2.19408e-21)
(1.05606 -0.0329174 2.46205e-21)
(1.0175 -0.00664627 6.77052e-23)
(1.05147 -0.0634004 -1.54787e-20)
(1.01621 -0.00483683 7.45058e-22)
(1.01041 -0.000890262 1.29086e-22)
(0.567429 -0.00391214 -3.10441e-20)
(1.01984 -0.00266823 5.56356e-21)
(0.826802 0.144342 6.76861e-21)
(1.01053 -0.000398768 3.70498e-22)
(1.00908 0.000182903 8.44607e-23)
(1.00784 -0.0307269 4.00144e-21)
(0.120138 -0.202296 0)
(0.454832 0.134976 1.79169e-20)
(-0.098577 -0.0216222 3.60553e-22)
(1.01425 -0.000463143 -1.3974e-21)
(1.01578 -0.000722912 6.02678e-22)
(1.0131 0.000379213 0)
(1.03095 -0.0138223 -1.64332e-21)
(0.908368 0.0945266 3.86371e-21)
(1.01683 0.00480654 -1.94718e-22)
(1.04818 -0.0639225 2.31981e-20)
(1.02632 -0.000259842 6.87486e-21)
(0.89968 0.0124985 3.79238e-21)
(1.0779 -0.0255749 -3.61154e-20)
(1.01341 -0.00052926 -1.39759e-21)
(0.0693433 -0.118903 -1.58751e-20)
(1.00944 -5.48969e-05 -1.9251e-22)
(1.03619 -0.0105563 0)
(1.03035 -0.0136563 6.57487e-21)
(1.01306 -0.00237735 0)
(1.02472 -0.0127581 2.68047e-21)
(1.07622 -0.0521004 -2.85405e-20)
(1.06817 -0.0368684 -2.92824e-20)
(1.01288 0.000522614 -3.87618e-25)
(1.05069 -0.016284 0)
(-0.0767171 0.0345261 2.60826e-20)
(1.01031 -0.000845572 -1.4272e-22)
(1.02335 -0.0185706 0)
(1.01186 0.000337867 -1.36166e-22)
(1.01551 0.00516811 1.90847e-22)
(1.05612 -0.0225361 4.07248e-22)
(1.01749 -0.00659274 0)
(0.725505 -0.104721 0)
(0.616943 -0.00556986 -5.09212e-20)
(1.00924 -0.000195613 0)
(1.01317 -0.00249389 7.11919e-22)
(0.403082 0.103106 -2.01117e-20)
(1.01014 -0.000773232 0)
(0.829407 -0.074207 1.85565e-22)
(1.05496 -0.0325417 7.41658e-21)
(1.01594 -0.00204252 0)
(1.02418 -0.0865122 -2.05946e-20)
(1.0106 0.000329906 0)
(1.03741 -0.0192094 -3.9177e-21)
(0.9878 -0.0299191 0)
(1.01965 -0.00221392 0)
(1.03852 -0.0398542 -4.0024e-21)
(1.00975 0.000146858 -3.79303e-25)
(1.00863 -7.44524e-05 0)
(1.01653 -0.00801848 0)
(1.01415 -0.000547823 -3.86392e-22)
(1.05176 -0.0503854 0)
(1.0294 -0.0593965 1.64351e-21)
(0.860831 0.11236 1.14882e-21)
(-0.04654 0.0522617 0)
(1.01576 0.000422208 -3.90346e-22)
(1.05216 -0.024298 -3.0637e-21)
(0.602107 -0.18169 -1.15966e-21)
(1.03497 -0.0103935 6.04828e-23)
(1.01575 -0.000767384 5.48106e-22)
(0.895533 -0.155704 -2.17517e-21)
(1.01581 -0.00178999 0)
(1.01306 -0.000868428 -1.42439e-22)
(1.01799 0.000665052 -1.02582e-22)
(0.516285 -0.188376 1.09541e-19)
(1.00818 -0.000112267 7.58388e-22)
(1.01753 -0.00368134 0)
(1.03621 -0.0464705 -6.30309e-22)
(1.02001 -0.00233331 -6.34993e-21)
(0.326786 -0.0478724 -2.38969e-21)
(1.0388 -0.0169377 7.30758e-21)
(0.651694 -0.0130217 -2.97533e-20)
(1.0115 0.000398701 -1.33955e-23)
(0.8171 -0.0307366 -3.37887e-20)
(1.0193 -0.00847131 0)
(0.853861 -0.162821 -1.96015e-21)
(1.0103 0.000284779 -1.07959e-23)
(1.01272 0.00039499 0)
(1.01379 -0.027232 -6.56223e-22)
(1.0365 -0.00851639 9.57872e-22)
(0.174999 0.0194032 3.45217e-21)
(1.01804 -0.000614741 4.35934e-21)
(0.662499 -0.0146523 2.95378e-20)
(1.03883 -0.0174641 -1.34337e-20)
(1.03126 -0.00527604 9.41844e-21)
(0.836976 -0.0508161 0)
(1.06732 -0.0578706 -5.28481e-22)
(0.759353 -0.0239731 0)
(1.00754 1.41425e-05 1.68238e-22)
(1.04696 -0.0218544 0)
(1.00768 -4.92601e-06 2.31607e-23)
(-0.0742016 0.0945838 3.21536e-20)
(1.0105 0.000301275 4.79501e-23)
(1.04154 -0.0323416 -5.4798e-21)
(0.963198 0.0626134 -4.17843e-21)
(1.00904 -0.000173573 -4.18113e-23)
(1.01552 0.000351446 0)
(1.06906 -0.0327061 1.62191e-20)
(1.01598 -0.00724084 5.50398e-22)
(0.376813 -0.0494758 1.20058e-20)
(0.930874 -0.0163424 -8.70745e-21)
(1.0131 0.000394508 0)
(1.01778 -0.00374666 1.0448e-21)
(1.06153 0.0217603 0)
(0.947687 0.0178969 0)
(1.01522 0.000827498 0)
(1.03826 -0.0482828 7.02377e-22)
(1.00958 5.63326e-05 -2.99398e-23)
(0.723108 -0.0213821 3.03834e-20)
(1.05886 -0.0334052 0)
(0.849552 -0.104024 -2.86334e-21)
(1.02957 -0.0140326 3.28905e-21)
(1.03222 -0.0194208 0)
(1.02328 -0.000863676 -3.49074e-22)
(0.935785 0.0279354 0)
(1.02717 -0.00833346 0)
(1.03017 -0.0142318 -1.70848e-21)
(1.06629 -0.0284267 -1.86245e-20)
(0.9887 -0.0898284 0)
(1.02507 -0.0572025 -1.84786e-21)
(0.995648 -0.0310291 -1.73926e-20)
(0.586552 -0.00222734 1.41188e-21)
(1.02009 -0.000260347 0)
(1.01275 0.000384927 0)
(1.02197 -0.0126615 0)
(0.837931 0.147645 0)
(1.0146 0.000350223 -2.03682e-22)
(0.967404 -0.0995508 0)
(1.03453 -0.0105664 -1.22143e-20)
(1.02712 -0.00795416 -3.20909e-21)
(1.04551 -0.0187532 0)
(0.858834 -0.0527717 0)
(1.0296 0.00152541 -1.37866e-23)
(1.02335 -0.00210949 -7.83141e-25)
(1.0357 -0.0108412 -1.24331e-20)
(0.961324 0.0882748 -2.79051e-22)
(1.05275 -0.0317323 -1.45345e-20)
(1.03109 -0.026844 -5.11037e-21)
(1.0105 -0.000963405 -2.958e-22)
(0.865719 0.0852774 -6.14627e-23)
(1.02142 -0.0149637 -4.17856e-22)
(0.769616 -0.0233487 0)
(0.982616 -0.00251746 -4.20806e-21)
(1.01545 0.000900514 0)
(1.0112 0.000361943 0)
(1.00884 2.95641e-05 0)
(1.06567 -0.0276436 6.22832e-21)
(0.833411 0.156639 0)
(0.833184 -0.123663 1.2374e-21)
(1.01209 -0.000836982 1.55886e-22)
(1.01819 0.000304531 -1.11854e-21)
(0.965632 0.0917902 -9.2934e-22)
(0.896741 0.0848333 1.28432e-22)
(1.04759 -0.067974 1.41123e-20)
(1.02395 -0.0132137 1.57731e-21)
(1.02809 -0.00254161 0)
(1.05479 -0.0252902 0)
(0.896155 0.0806126 -1.77766e-22)
(0.984204 -0.095694 2.15751e-20)
(1.0252 -0.0189328 0)
(0.615924 0.0265092 -1.67369e-21)
(1.01071 -0.00107645 -1.59043e-22)
(0.736617 -0.0228197 -2.88693e-20)
(1.05036 -0.0157821 1.17573e-20)
(1.03615 -0.0171093 3.34332e-21)
(0.777021 -0.0248709 2.23911e-20)
(1.02005 -0.00740757 1.14974e-21)
(1.0456 -0.0024032 0)
(0.780898 -0.0328737 1.25358e-20)
(1.01185 -0.00081494 0)
(1.06194 -0.0260984 -9.18451e-21)
(1.04507 -0.0198625 0)
(1.02376 -0.012813 -7.2245e-22)
(0.166089 -0.206461 -4.78993e-21)
(1.02479 -0.0191743 -3.03184e-21)
(1.02594 -0.00827091 -5.77402e-21)
(0.821791 -0.0595531 1.18719e-20)
(1.01093 0.000328557 5.88878e-23)
(1.03274 -0.0199805 -1.62924e-21)
(1.01866 0.00131909 -4.06461e-22)
(0.797074 -0.0247871 -1.96647e-20)
(1.08341 -0.030052 0)
(1.01827 -0.000687642 0)
(1.06251 -0.0312954 0)
(1.01845 -0.000279843 0)
(0.642116 -0.0100069 -1.26813e-20)
(1.02534 0.00188246 -4.5519e-22)
(1.00868 -6.21457e-05 -3.73496e-23)
(1.01433 -0.00282168 1.41081e-22)
(1.08278 -0.0306202 0)
(1.04662 -0.020907 -1.46535e-20)
(1.03674 -0.00963196 -7.75804e-21)
(1.01801 0.000358682 -1.09434e-21)
(1.02003 -0.007326 0)
(1.02547 -0.00817577 4.99912e-21)
(0.950945 0.0296836 3.06115e-21)
(0.172329 -0.0286103 0)
(0.722116 -0.151142 5.38517e-20)
(1.02342 -0.0142814 1.27881e-22)
(0.803269 -0.0258812 -9.70219e-21)
(0.752241 -0.103271 0)
(1.01781 -0.000175543 -1.82214e-21)
(1.0518 -0.025211 -3.18489e-21)
(1.04432 -0.0687433 -1.42162e-20)
(1.00609 -0.00812002 1.22048e-21)
(1.01389 0.00391688 7.16428e-22)
(1.07653 -0.0457414 0)
(1.0176 -0.0903702 6.29481e-21)
(1.01609 -0.000494598 0)
(0.776589 0.180161 1.01099e-20)
(0.762212 -0.0273611 0)
(1.01794 -0.000138322 0)
(1.01106 0.0118334 3.4959e-22)
(1.01373 0.0149657 -2.41256e-22)
(0.936241 -0.0171533 0)
(1.03703 -0.00932022 7.84087e-21)
(1.01213 0.00700198 -7.09422e-21)
(-0.0835622 0.0878995 -3.95769e-20)
(1.01337 -0.0026095 -2.25063e-22)
(0.776084 0.172546 -5.41361e-21)
(1.01428 -0.00274033 9.5554e-23)
(1.0183 -0.000238821 1.01534e-21)
(1.00985 6.0604e-05 3.92493e-23)
(1.01022 0.000287938 -1.254e-23)
(1.01259 -0.00217759 -2.76181e-22)
(0.783773 -0.0293524 3.98119e-20)
(0.876062 -0.0535836 0)
(1.01947 -0.00496087 1.33914e-21)
(1.06138 -0.0250841 -8.05532e-22)
(1.01163 0.000380069 0)
(0.583719 0.0226184 0)
(1.02746 -0.0314108 -2.83032e-21)
(0.813852 -0.148013 -8.92141e-22)
(0.734876 -0.118092 -2.96254e-20)
(1.01949 -0.00515898 1.33279e-21)
(1.03868 -0.00671669 -2.1001e-21)
(1.04359 -0.0206871 -6.46534e-21)
(0.813058 -0.134699 -6.50572e-22)
(1.01555 -0.00430361 -4.21008e-22)
(1.00926 0.000206931 0)
(1.0176 0.00389466 0)
(-0.0145624 0.00774906 7.7928e-21)
(1.01369 -0.00069594 0)
(0.19752 -0.185265 0)
(1.00504 -0.00538009 0)
(1.07817 -0.0464346 0)
(0.682411 -0.0967887 0)
(1.00247 0.0400566 -1.19197e-22)
(0.997347 0.0347304 -2.94536e-22)
(1.01923 -0.00497475 -5.30761e-22)
(1.0108 -0.0010883 2.40517e-22)
(1.01827 -0.00015287 -3.7505e-21)
(1.02252 -0.014039 0)
(1.06326 -0.0305179 0)
(0.131092 -0.128161 1.46184e-20)
(1.05746 -0.0215544 0)
(0.784392 -0.0255524 2.13126e-20)
(0.776795 -0.03131 1.28565e-20)
(1.0116 0.00036659 -8.47391e-23)
(1.02042 -0.000236572 -4.93555e-21)
(0.72013 -0.140749 -2.41409e-20)
(0.564812 -0.00337344 0)
(0.988303 0.0638359 6.22689e-21)
(0.810128 -0.0788076 0)
(1.018 0.00528237 4.07672e-22)
(1.04413 -0.0214453 0)
(1.00791 -7.38917e-05 -2.16054e-23)
(0.796256 -0.096564 0)
(1.0102 -0.000394917 -8.56463e-23)
(1.03288 -0.027076 3.35372e-21)
(1.01842 -0.00447559 8.58278e-22)
(1.02518 -0.00144064 0)
(1.00813 -7.48099e-06 1.69905e-24)
(1.01174 -0.000755555 1.98359e-22)
(1.01185 0.000349548 -8.68572e-23)
(1.06049 -0.0486913 -2.2279e-21)
(1.00775 -0.00711863 3.17546e-21)
(0.685198 -0.0146529 -4.78586e-20)
(1.02252 -0.0127701 7.91648e-24)
(1.06328 -0.032451 0)
(1.01424 0.00151369 -2.06534e-21)
(0.947518 0.0450541 -1.56184e-21)
(1.03124 -0.0206703 5.38561e-23)
(0.916285 -0.00829205 0)
(1.03565 -0.0165394 9.49635e-21)
(1.01029 -0.0411612 6.69523e-22)
(1.00908 0.000180957 -6.93682e-23)
(1.01153 -0.000736428 -3.4419e-23)
(1.00796 -8.09525e-05 0)
(0.980629 -0.0675449 0)
(0.846058 0.0488823 3.2227e-21)
(1.06239 -0.0590195 1.80111e-20)
(1.01344 -0.000493579 1.35181e-21)
(0.657561 -0.017373 3.82023e-20)
(0.895099 0.0552133 4.72053e-21)
(1.03794 0.00141406 5.39755e-22)
(1.01298 -0.000467372 1.33467e-21)
(1.07011 -0.0323192 0)
(1.01539 -0.00412695 4.23224e-22)
(0.940061 0.0606122 2.19224e-21)
(1.00879 7.37815e-06 0)
(0.861691 0.0275141 4.49839e-21)
(0.88883 0.122445 0)
(1.0397 -0.0346388 3.55241e-22)
(0.647418 -0.0122296 0)
(1.01575 -0.00158342 -3.26899e-22)
(1.00933 -0.0100237 8.80968e-22)
(0.869811 0.123513 1.31001e-21)
(0.10769 0.0324845 1.79533e-20)
(1.00955 0.000162429 5.87352e-24)
(1.04493 -0.0229945 0)
(1.05411 -0.0334131 8.11311e-21)
(1.03302 -0.000753221 1.48384e-23)
(1.0097 -0.00032149 -3.64441e-23)
(1.02504 -0.00840924 7.14099e-21)
(1.07713 -0.0250784 -2.28545e-20)
(1.07663 -0.0493584 0)
(1.02429 -0.0120513 0)
(0.429131 0.0631491 0)
(1.00831 3.61694e-05 -3.7148e-22)
(1.01456 -0.00294843 2.56118e-23)
(0.0353277 0.127714 5.84085e-22)
(1.02257 -0.0184098 5.48029e-22)
(1.01099 0.000340121 -2.03234e-23)
(0.775083 -0.152383 0)
(1.01071 -0.00103541 -5.08444e-22)
(1.01745 -0.00758712 1.34498e-23)
(1.0101 -0.000463432 -5.13213e-23)
(1.01432 -0.0235731 -4.18546e-23)
(1.02387 -0.0116414 -1.74952e-21)
(1.01126 0.000377535 1.42543e-23)
(1.0157 -0.00132489 -2.98281e-22)
(0.836997 -0.0649281 4.85914e-21)
(1.02022 -0.0030887 0)
(1.05787 -0.0235301 0)
(1.01043 -0.000455274 -4.83266e-22)
(1.02173 -0.00839602 -3.29502e-22)
(1.01437 -0.0349077 -3.2574e-22)
(1.00365 -1.48326e-06 0)
(1.01535 -0.00431682 6.47523e-22)
(1.00626 1.51284e-05 0)
(1.00608 -5.34128e-05 -3.26643e-23)
(0.872541 -0.100403 -8.84879e-22)
(1.02753 -0.00754415 0)
(1.04313 0.0130296 -3.28637e-22)
(1.01957 -0.00199575 -1.27279e-21)
(1.00855 -4.18911e-05 -8.18003e-23)
(-0.0877851 -0.105909 -1.75339e-20)
(0.636539 -0.0107281 1.03899e-20)
(1.02066 -0.00238928 -1.5304e-21)
(1.02192 -0.0097771 0)
(1.03201 -0.0210408 -6.82459e-21)
(0.943838 -0.000799546 -2.44726e-21)
(0.202375 0.0400818 0)
(1.01462 -0.00305608 0)
(0.87426 -0.0182495 1.73818e-22)
(1.01581 -0.00447265 0)
(1.04888 -0.0458945 0)
(1.0262 -0.00224573 0)
(-0.0717035 0.110445 3.05337e-20)
(1.00945 0.000137255 -6.03476e-23)
(-0.0294197 0.069942 3.97821e-20)
(1.01674 -0.0570335 1.29116e-21)
(1.01068 0.000316162 4.99834e-23)
(1.02006 -0.0104982 6.26886e-22)
(0.748566 -0.0761589 -3.0388e-20)
(1.04108 -0.0326227 1.26367e-20)
(0.860062 -0.0888925 2.10518e-21)
(1.01115 -0.000248568 5.8094e-22)
(0.835741 0.168287 4.95076e-21)
(1.01406 -0.000428085 -2.0238e-22)
(1.00981 -0.000626325 8.01505e-23)
(1.01066 -0.00104074 -1.21324e-22)
(1.02514 -0.000226365 0)
(0.582391 -0.00682258 0)
(1.06583 -0.035759 -1.77338e-21)
(1.08215 -0.0409857 2.43693e-20)
(1.05059 -0.0695835 3.55314e-22)
(1.0371 -0.0119544 6.44224e-22)
(1.01314 0.00054073 0)
(0.875708 -0.112339 0)
(0.844694 0.0560891 6.13888e-21)
(1.03826 -0.019283 4.27449e-21)
(1.05023 -0.0169214 1.51431e-22)
(0.961001 -0.00330218 2.82682e-21)
(0.84198 0.163977 3.16066e-21)
(0.84329 -0.0319383 0)
(1.01778 -0.000129113 0)
(-0.0794472 0.105698 1.2575e-20)
(0.283666 -0.000463861 -6.5792e-21)
(0.408655 -0.157532 -4.71169e-20)
(1.02396 -0.0192743 2.18714e-21)
(1.01982 -0.0117766 -1.23594e-21)
(0.834405 0.039729 1.52308e-20)
(1.01202 -0.0147969 6.61065e-24)
(0.974699 -0.0776581 1.12134e-21)
(0.873123 -0.159497 -5.53666e-22)
(0.753442 0.0411111 9.16517e-21)
(1.02446 -0.012943 -2.8493e-21)
(0.723079 0.0354084 -9.64194e-21)
(0.978842 -0.0354638 -5.17611e-22)
(1.00923 0.000158769 -6.91833e-23)
(1.01736 -0.0128837 1.76399e-22)
(1.0672 -0.0356213 0)
(0.616203 -0.0067183 1.75459e-20)
(1.02928 -0.0144835 1.67847e-21)
(1.01718 -0.00246445 -1.80297e-21)
(1.01287 -0.00227965 4.41711e-22)
(1.01686 -0.0046309 1.63691e-21)
(1.05366 -0.0493034 0)
(1.01454 -0.0134375 -3.20087e-22)
(0.860442 -0.133739 2.33571e-21)
(0.44457 0.0323823 1.58824e-22)
(1.00977 -0.00029056 -6.37342e-23)
(0.0353374 0.128308 3.24553e-20)
(0.668711 -0.0150944 1.9369e-20)
(1.06282 -0.0280945 7.13782e-23)
(0.848079 0.0945722 -1.39166e-21)
(1.05681 -0.0235302 -4.27715e-22)
(1.0106 0.000296785 8.32764e-24)
(1.01143 -0.000691279 0)
(1.00541 0.0131978 0)
(0.861449 -0.112022 0)
(1.03689 -0.0108471 2.52521e-21)
(1.07938 -0.02927 1.24866e-20)
(1.08727 -0.0328648 0)
(1.01079 0.000347132 0)
(1.01326 0.00666023 -1.55534e-21)
(0.820727 0.136289 -2.06092e-21)
(0.981887 -0.0196842 -5.66351e-21)
(1.07256 -0.0491407 -9.93468e-22)
(0.589586 -0.00769253 0)
(0.978236 -0.034022 1.8564e-20)
(1.01597 -0.00464694 9.12786e-22)
(1.02547 -0.00119479 0)
(0.590775 -0.183704 4.20248e-22)
(0.769547 -0.0312556 1.44191e-20)
(1.08369 -0.0334955 1.93432e-20)
(1.05803 -0.020766 -2.38763e-20)
(1.04123 -0.0264416 0)
(1.01045 0.00031246 -1.54486e-23)
(1.01488 -0.00279374 1.14806e-21)
(0.828073 0.0272759 0)
(1.01056 0.000327625 -7.71572e-23)
(1.02869 -0.0142438 -1.56191e-21)
(1.01056 0.000319651 0)
(1.01042 -0.000847049 -3.29916e-22)
(0.966712 -0.036269 -4.98391e-21)
(1.05712 -0.0491874 -1.32901e-20)
(1.01494 -0.0018677 0)
(1.01055 0.000327202 7.73791e-23)
(0.255735 -0.180649 -1.75244e-21)
(0.891447 -0.146265 3.03808e-21)
(1.01086 -0.00116374 0)
(1.00938 -1.51858e-05 0)
(1.0147 0.000370508 2.15748e-22)
(1.01837 -0.000189062 7.17466e-21)
(-0.0267917 0.018769 0)
(0.854554 -0.139699 7.28026e-22)
(0.852387 -0.156293 3.07499e-21)
(0.347907 -0.187385 0)
(0.834068 0.161013 -4.83177e-21)
(1.05705 -0.0194834 1.37142e-20)
(0.59908 -0.00424464 3.15575e-20)
(0.635106 -0.0106872 -1.90184e-20)
(1.01551 -0.000242286 9.89824e-24)
(1.05464 -0.0234096 -1.25788e-20)
(1.01068 0.000305769 -8.38945e-24)
(1.0188 0.000953985 0)
(1.03543 -0.0285239 -7.08702e-21)
(0.865654 -0.0755633 -3.55157e-20)
(0.78908 0.174909 0)
(1.07866 -0.0297188 1.34363e-20)
(1.04092 -0.0226937 0)
(1.01078 -0.000600837 7.51416e-23)
(1.02928 -0.0269654 -3.37497e-21)
(1.01686 4.82631e-05 0)
(0.860412 -0.106524 -3.4862e-21)
(1.06557 -0.0396715 0)
(1.01925 -0.00187442 6.12526e-21)
(1.02407 -0.0137426 -1.27083e-22)
(1.00964 -0.000322568 -6.43939e-23)
(1.04638 -0.0176486 -4.35742e-21)
(1.06061 -0.0610968 -3.21933e-20)
(1.02718 -0.00213627 8.06705e-21)
(1.01515 -0.00398474 1.29525e-21)
(1.02886 -0.0319707 0)
(1.02564 -0.00464278 1.50565e-21)
(1.05368 -0.0471079 1.11738e-20)
(0.993258 -0.0598695 0)
(1.06721 -0.0560772 3.58891e-21)
(1.02716 -0.0269554 -1.55409e-21)
(1.08439 -0.0328255 0)
(1.01059 -0.000577963 -7.55777e-23)
(1.02947 0.0460638 4.40677e-22)
(1.02379 0.000580617 1.47406e-23)
(0.249824 -0.147654 0)
(1.01945 -0.0084439 -1.00883e-23)
(1.00882 -8.67896e-05 -1.28356e-22)
(0.953006 -0.0287781 1.87706e-20)
(1.02181 -0.0117269 -1.63874e-21)
(0.643939 -0.0748783 0)
(0.741664 -0.0244761 -2.78694e-20)
(0.0562602 0.0689293 5.19807e-20)
(0.745477 -0.158469 -2.17549e-21)
(1.0101 -0.000397207 3.9571e-23)
(0.986182 -0.0296099 0)
(1.01583 0.00100323 0)
(1.01064 -0.000947518 3.27219e-22)
(1.00954 0.000135791 3.41056e-23)
(1.01067 -0.000954197 9.78752e-22)
(1.01765 0.00249734 0)
(1.02281 -0.013141 4.55051e-23)
(1.01571 -0.0221639 2.75864e-22)
(1.01035 0.000307339 -7.58182e-23)
(0.690519 -0.067193 -4.03756e-21)
(1.02059 -0.060209 -1.34392e-21)
(0.666322 -0.0785966 0)
(1.0124 -0.00189439 0)
(1.00978 0.000116999 2.00007e-23)
(1.00935 3.48949e-05 2.71497e-22)
(1.04079 -0.0654524 0)
(0.578904 -0.167489 2.2106e-21)
(1.06976 -0.0256424 3.26087e-20)
(1.04635 -0.0181411 1.28205e-20)
(1.01594 0.0010124 0)
(1.00847 -4.41551e-05 -1.58071e-22)
(1.01014 -0.000217633 -3.21579e-23)
(1.01342 -0.00244623 -3.94859e-22)
(1.08596 -0.0440017 2.93081e-20)
(0.379558 0.201209 0)
(1.0252 -0.00447229 -1.5243e-21)
(1.01034 0.000304242 0)
(1.02535 6.90123e-05 0)
(1.01335 -0.00247669 2.88105e-22)
(0.950715 0.0135306 1.24447e-21)
(-0.0580316 0.0349976 -3.50752e-21)
(1.03023 -0.0275603 2.24762e-21)
(0.768103 -0.0955324 0)
(0.834874 0.167718 8.45355e-23)
(1.01498 -0.00381144 -4.23302e-22)
(1.08098 -0.041756 -1.44144e-20)
(0.0664567 0.0188308 -3.5424e-20)
(1.05527 -0.0243917 0)
(0.516639 0.113588 -4.23411e-21)
(1.0301 -0.00533587 6.39992e-21)
(1.0221 -0.0126515 -2.80333e-22)
(1.06881 -0.0256954 -2.93219e-20)
(1.02207 -0.012809 0)
(0.861717 -0.162005 3.78565e-21)
(1.02029 -0.00226017 1.3605e-21)
(0.834548 0.0966581 -4.83898e-23)
(1.00873 2.61311e-06 0)
(1.06055 -0.0130019 6.9976e-21)
(0.663977 -0.0147131 3.43383e-20)
(1.01369 -0.000694609 -6.81123e-22)
(1.02094 -0.0105893 -2.15578e-21)
(1.03664 -0.0294437 -1.94362e-22)
(1.01001 -0.000686686 -1.65814e-22)
(1.037 -0.0185088 0)
(0.91771 0.116049 6.50725e-21)
(0.29972 -0.0194972 1.78526e-20)
(1.06407 -0.0397211 -9.95033e-22)
(0.982676 -0.0972335 0)
(0.995202 0.0530673 -1.00098e-21)
(1.01033 0.000295151 2.43812e-23)
(1.0122 -0.00180727 0)
(-0.105442 -0.121375 -6.14681e-20)
(1.08665 -0.0325221 6.5808e-21)
(1.01348 -0.00612694 8.79855e-22)
(0.754987 -0.0261892 4.57448e-20)
(1.01132 -0.000367414 1.08393e-22)
(1.01645 2.33435e-05 0)
(1.00918 0.000160617 -4.85861e-24)
(0.830892 0.147759 0)
(1.04227 -0.0341621 0)
(1.02558 -0.0173095 -2.334e-21)
(1.01742 -0.00648488 0)
(1.02084 -0.0355181 -8.60733e-23)
(1.04231 -0.0130977 0)
(1.00951 3.72112e-05 -2.00023e-22)
(0.0806502 0.0970612 -6.84853e-20)
(0.995951 -0.105876 4.34915e-23)
(0.719404 -0.0280152 0)
(1.0109 0.000336767 2.52593e-24)
(1.02518 -0.00414806 2.80449e-21)
(0.611892 -0.00639377 -2.58503e-20)
(-0.0258718 -0.0259509 0)
(1.08626 -0.0304205 0)
(1.01657 -0.000184913 0)
(0.915676 -0.0318303 -2.86047e-23)
(1.02013 -0.00261553 4.64664e-21)
(1.0213 -0.0364009 3.1685e-22)
(1.02445 -0.0351279 -1.23126e-21)
(1.03898 -0.0345031 5.10391e-21)
(1.03228 -0.0180911 4.77995e-21)
(0.11581 0.0567856 1.67243e-21)
(1.02106 -0.00460536 1.2407e-21)
(1.01861 -0.000905988 0)
(1.07742 -0.0305398 2.62596e-20)
(1.00878 -9.58693e-05 -1.22107e-22)
(1.00531 -4.469e-05 7.92396e-22)
(1.02407 -0.012053 1.76882e-21)
(1.01051 -0.000544413 -2.29685e-25)
(0.0861732 0.100876 0)
(1.03717 -0.0263693 -5.03215e-21)
(1.07454 -0.0487348 2.11733e-20)
(1.01446 -0.00318959 -5.27581e-22)
(1.02362 -0.0199432 3.33972e-22)
(1.01088 -0.000646109 3.77572e-23)
(0.874592 0.130983 -5.75055e-21)
(1.01027 -0.000163245 0)
(1.02045 -0.00531198 1.95189e-22)
(1.00973 0.000111916 8.54043e-23)
(1.0146 -0.00352424 1.25946e-23)
(1.01276 -0.000534927 0)
(0.771481 -0.0324346 -3.07615e-20)
(1.01278 -0.00228428 -4.37363e-22)
(1.00971 0.000220373 -7.95547e-24)
(0.911877 0.0156339 -2.32829e-21)
(1.02609 -0.00122958 -2.5493e-21)
(0.629719 -0.00882413 -2.3823e-20)
(1.00792 2.25944e-05 0)
(1.01612 -0.000245556 -6.05573e-22)
(1.07275 -0.0316454 0)
(0.931415 0.021726 0)
(0.901297 -0.100052 1.18168e-22)
(1.00989 -0.000226142 1.68006e-23)
(0.995797 0.07126 -1.77295e-22)
(0.77642 -0.104525 2.34122e-21)
(1.02758 -0.0079135 -5.12207e-23)
(0.832798 -0.0376884 2.20436e-20)
(1.05967 -0.0130345 1.28343e-22)
(1.01026 -0.000490092 0)
(1.02622 -0.00717238 2.30527e-22)
(0.0470873 0.117548 0)
(1.02243 0.0589472 4.45727e-23)
(1.03023 -0.0194877 3.7754e-21)
(1.01004 -0.000264618 0)
(1.01009 0.000285686 -2.88109e-23)
(0.860029 0.0999784 1.14661e-21)
(1.03827 -0.0327358 -4.61903e-21)
(1.00735 -0.0361283 0)
(1.02498 -0.0183439 0)
(1.0247 -0.00932734 0)
(1.01827 -0.000104641 -2.46712e-22)
(1.01628 -0.000174486 0)
(1.08016 -0.0266053 3.09684e-20)
(0.851448 -0.0549384 2.45019e-21)
(1.05003 -0.0490732 -2.54081e-21)
(0.794761 0.17363 0)
(1.02473 -0.0039691 -7.18561e-21)
(1.05033 -0.0469922 2.62856e-21)
(1.07269 -0.0377772 0)
(0.810803 -0.0255325 2.21354e-20)
(1.02505 -0.016794 0)
(0.253753 0.0375439 -4.04689e-21)
(1.05741 -0.0712558 2.63166e-20)
(1.02641 -0.000938357 -2.2511e-21)
(0.405535 -0.0314755 0)
(1.03647 0.0329211 -5.85697e-21)
(0.713325 -0.159981 0)
(0.312807 -0.0366061 0)
(0.789896 -0.0506241 2.66063e-20)
(0.945427 0.0496773 1.39872e-22)
(1.03599 -0.0314469 -7.05419e-21)
(1.01033 -0.000517559 5.03063e-23)
(1.02183 -0.014199 2.26635e-22)
(-0.093431 0.0450924 4.14075e-20)
(0.273506 0.0141397 2.91381e-20)
(1.01405 -0.00228621 0)
(1.00787 -1.44705e-05 6.58573e-24)
(1.06886 -0.0340714 -1.90687e-22)
(0.95874 0.0570532 0)
(1.01041 0.000257721 0)
(-0.0357226 0.0213964 -3.51949e-20)
(1.01108 -0.000349443 -1.07888e-22)
(1.02013 -0.00461121 0)
(0.0571932 0.115609 -3.14414e-20)
(0.616928 -0.00705981 -2.24101e-20)
(0.982661 0.05786 1.23206e-21)
(1.01069 -0.000963667 0)
(1.01825 -7.55109e-05 -5.18342e-21)
(-0.0337964 -0.0122087 2.1128e-20)
(1.08942 -0.0449956 -3.37384e-20)
(1.08257 -0.0332238 -1.6941e-20)
(1.01581 -0.00250763 -6.42913e-22)
(0.736204 -0.140768 0)
(0.989126 -0.0265593 2.48563e-21)
(0.626458 -0.154635 0)
(1.06143 -0.0334897 -2.74181e-21)
(1.06033 -0.025169 1.87883e-20)
(1.02543 -0.00849429 -2.90077e-21)
(1.026 -0.00187991 0)
(0.624198 0.0247393 -5.68089e-21)
(1.0707 -0.0219495 0)
(0.559331 -0.00282628 0)
(1.0206 0.00612819 1.74698e-21)
(1.05641 -0.0214995 0)
(0.11922 0.0847761 -5.80008e-20)
(0.710642 -0.163049 0)
(0.654199 -0.0117667 -2.30908e-20)
(1.02201 -0.00234226 0)
(1.05658 -0.0175785 1.37076e-20)
(1.01077 -0.00111033 0)
(1.02823 -0.0276904 5.27714e-21)
(1.02067 -0.0103734 -1.12607e-21)
(0.420891 0.162815 0)
(1.01146 -2.47504e-05 -2.86681e-21)
(0.64994 -0.0149987 -3.70196e-20)
(1.01028 0.000239751 -3.95317e-23)
(1.0718 -0.0315854 -1.20907e-20)
(1.01503 -0.00340503 1.86704e-21)
(1.01904 -0.0285313 -5.08375e-22)
(1.05793 -0.019989 1.71989e-20)
(1.0556 -0.0178204 1.36502e-21)
(0.771034 -0.0851365 -2.61489e-20)
(1.06382 -0.0245564 -1.13649e-22)
(1.01195 -0.0232269 6.8984e-22)
(1.00875 -5.98756e-05 2.49526e-23)
(1.07119 -0.0327637 0)
(0.817766 -0.0968346 -2.09722e-22)
(1.05139 -0.00804097 -2.1015e-22)
(1.02782 -0.0143829 -7.40569e-23)
(0.606011 -0.00654856 0)
(1.01423 0.000343245 -1.01127e-22)
(0.409797 -0.00802116 0)
(0.892313 -0.00375163 3.09667e-22)
(1.02323 -0.00701191 0)
(0.799749 -0.0283863 1.81898e-20)
(-0.0332878 -0.00885575 7.05049e-21)
(0.640499 -0.0105547 1.89932e-20)
(0.957254 0.0596893 -3.43878e-22)
(1.02195 0.00464019 -9.95912e-22)
(1.01394 -0.00255852 -7.62481e-24)
(0.713377 -0.0273045 0)
(1.01687 -8.46012e-05 4.74891e-21)
(0.768748 0.0737791 -4.34398e-21)
(0.648145 -0.012939 0)
(1.01242 -0.00198837 -1.93374e-22)
(1.04026 -0.00545647 8.85017e-21)
(0.995713 -0.0708001 0)
(0.872848 -0.13736 -5.17557e-21)
(0.272144 0.0930746 -6.23969e-22)
(1.02376 -0.00525983 0)
(1.00955 -6.14158e-05 -2.18385e-22)
(0.555982 -0.154927 0)
(0.656664 -0.0138559 0)
(1.07198 -0.0512536 -3.25051e-20)
(1.02999 -0.0187041 -3.96974e-21)
(1.01594 -0.00284171 1.90453e-22)
(0.896144 0.0245581 -3.04214e-22)
(0.0303011 0.112851 6.0414e-20)
(1.07281 -0.0389874 0)
(1.0098 0.000209047 4.35399e-24)
(1.03678 -0.0318008 7.36596e-21)
(1.01003 -0.000710765 -2.99455e-22)
(1.01079 -0.000137029 -1.10261e-21)
(1.01151 0.0220191 -2.23147e-23)
(1.00765 -4.91336e-05 2.13094e-22)
(0.829128 0.00943968 -3.67379e-21)
(0.955729 0.0747218 1.41527e-22)
(1.02015 -0.00482535 6.78007e-22)
(1.0157 -0.000991664 -1.76322e-22)
(1.01411 -0.00259255 -5.1854e-23)
(1.02451 -0.012296 0)
(0.574012 -0.00545304 -1.14605e-20)
(0.7464 -0.0874291 -3.1339e-20)
(1.04551 -0.022343 0)
(0.24546 0.00921439 1.64086e-21)
(1.01503 -0.00331071 -1.95611e-21)
(1.04401 -0.0228489 1.74016e-21)
(1.01376 -0.0024197 0)
(1.01011 -0.000752868 -2.22686e-23)
(1.02054 -0.0070046 0)
(1.01981 -0.00478355 -6.46937e-22)
(0.606735 -0.00727061 -2.46133e-20)
(1.02078 -0.00260469 0)
(1.06818 -0.0266608 -9.38658e-22)
(1.02216 -0.0026074 1.89431e-21)
(1.03096 -0.0198266 3.92085e-21)
(1.00389 0.0244892 2.48699e-23)
(-0.0258905 -0.0500811 2.10946e-20)
(1.01086 -0.000231629 -7.02464e-22)
(0.61444 -0.175468 -4.30485e-22)
(1.0068 -0.0392351 5.82329e-22)
(1.05223 -0.0568781 0)
(1.03788 -0.0267135 4.12255e-21)
(1.04195 -0.0265429 0)
(0.550347 -0.00343412 -1.18202e-20)
(1.04694 -0.0171714 -3.9787e-21)
(1.01574 -0.00982301 4.99051e-22)
(0.437663 0.147534 -3.92923e-21)
(0.756668 0.0860788 6.88701e-22)
(-0.0334336 0.111539 -3.79009e-20)
(1.04473 -0.0309264 0)
(0.927877 0.00206222 -3.35811e-21)
(1.01927 -0.00807974 -6.52411e-22)
(1.06288 -0.0238724 8.52238e-21)
(1.06068 -0.0323875 1.38021e-20)
(0.253427 0.0639558 0)
(1.01008 -0.000204033 -5.60408e-23)
(0.303481 0.0881593 -2.41306e-20)