/*--------------------------------*- C++ -*----------------------------------*\
| =========                 |                                                 |
| \\      /  F ield         | OpenFOAM: The Open Source CFD Toolbox           |
|  \\    /   O peration     | Version:  v2012                                 |
|   \\  /    A nd           | Website:  www.openfoam.com                      |
|    \\/     M anipulation  |                                                 |
\*---------------------------------------------------------------------------*/
FoamFile
{
    version     2.0;
    format      ascii;
    class       volVectorField;
    location    "300";
    object      U_0;
}
// * * * * * * * * * * * * * * * * * * * * * * * * * * * * * * * * * * * * * //

dimensions      [0 1 -1 0 0 0 0];


internalField   nonuniform List<vector> 
13851
(
(1.01755 -0.00788979 0)
(0.588925 -0.0160112 7.75907e-22)
(1.03832 -0.0371408 5.40138e-21)
(1.01749 -0.00711089 0)
(1.05518 -0.0459627 0)
(1.04308 0.0287958 0)
(1.0269 -0.000218513 0)
(1.04306 -0.0326736 7.47798e-21)
(1.01121 -0.00065551 4.65218e-23)
(1.04759 -0.0359702 -4.71227e-21)
(0.977019 0.0204527 0)
(0.532917 0.092158 -1.75831e-20)
(0.972191 -0.0795747 -1.17024e-20)
(0.0731421 -0.13824 -1.34059e-20)
(1.01784 -0.000200395 8.32498e-24)
(1.03194 -0.0274953 -9.12356e-24)
(1.037 -0.0171281 3.23418e-21)
(1.02223 -0.0126014 -4.64758e-22)
(1.03152 -0.0862108 -1.16339e-20)
(1.01109 -0.000672582 -1.05214e-22)
(1.01756 -0.00707044 1.21311e-22)
(1.03922 -0.0383617 1.80134e-21)
(1.00849 -2.73917e-05 6.79549e-23)
(1.00899 -0.000119174 1.98492e-23)
(1.00757 -5.18589e-05 0)
(1.04224 -0.0327992 -7.51281e-22)
(1.04385 -0.0114528 0)
(-0.00477187 -0.0859096 2.78634e-20)
(1.0178 -0.00804473 1.19308e-23)
(1.02377 -0.0138431 -6.92404e-22)
(1.05206 0.0337025 0)
(1.03744 -0.0178847 0)
(1.03881 -0.0363354 -9.32376e-21)
(0.887996 0.013083 0)
(1.00958 -0.000111369 -2.73075e-23)
(1.08735 -0.0298095 -1.01133e-20)
(1.06899 -0.0299503 -5.3351e-20)
(1.02341 -0.066662 0)
(1.04984 -0.0345309 1.85595e-21)
(0.904557 -0.0339962 2.06604e-21)
(1.01636 -0.00500087 2.62569e-22)
(1.01064 0.000319905 -4.38293e-23)
(0.0312906 0.126891 4.15886e-20)
(0.916124 0.0694765 0)
(0.896679 0.0475185 0)
(0.256773 -0.00972686 -3.24856e-21)
(0.85925 0.0932638 -8.34144e-22)
(0.819699 -0.0421681 -7.14065e-22)
(1.04461 -0.0118036 -1.27759e-20)
(1.00533 -0.0156939 -1.37124e-21)
(1.06945 -0.0366173 3.1336e-20)
(1.07722 -0.0503894 2.8673e-20)
(-0.0346989 0.0546423 0)
(1.01835 -0.000250455 -3.58424e-21)
(1.01429 -0.000514358 0)
(1.01082 0.000344693 0)
(1.00938 -5.36634e-05 4.1465e-24)
(-0.0823283 0.0342128 -4.75965e-20)
(1.02367 -0.0134179 -1.2015e-21)
(1.02783 -0.00220638 -2.88321e-21)
(1.0169 -0.0641402 0)
(0.587886 -0.194569 3.45216e-21)
(1.0385 -0.0202244 2.12006e-22)
(1.059 -0.0499749 1.00169e-21)
(0.941538 -0.00968576 7.2179e-21)
(1.01655 -0.00738009 -4.45009e-22)
(1.0484 -0.0299738 0)
(0.859445 0.113184 -5.40729e-22)
(1.05506 -0.0225099 7.41731e-22)
(1.02228 -0.0126449 1.70952e-22)
(0.548 -0.000685913 4.49653e-20)
(1.0018 -0.0300408 0)
(0.588506 -0.0153555 -6.37518e-21)
(1.01828 -0.000293381 3.18899e-21)
(1.01321 -0.000786063 7.24099e-22)
(1.01295 -0.000824277 1.43344e-22)
(1.04048 -0.0381382 0)
(0.632044 -0.00769891 4.274e-20)
(1.05307 -0.0329912 -1.49667e-20)
(0.542751 -0.00341069 1.02164e-20)
(1.03056 -0.00509477 -6.63535e-21)
(0.868913 0.0769844 -1.25622e-22)
(1.01989 -0.00287469 -6.96483e-21)
(0.212928 0.0371153 0)
(1.04113 -0.0163055 -3.64154e-22)
(0.599824 0.0542221 1.54519e-20)
(1.03765 0.00633317 -1.07815e-21)
(0.832995 -0.142281 -2.88357e-21)
(1.04219 -0.0162812 0)
(1.01482 0.000237191 0)
(1.08687 -0.0302717 0)
(1.00785 -0.0021288 0)
(0.862815 0.117326 -7.97745e-22)
(1.04572 -0.0193171 0)
(1.04249 -0.0156263 4.39574e-21)
(1.00868 -5.60135e-05 -3.80819e-23)
(1.05682 -0.0468854 0)
(0.782186 -0.0833291 4.0605e-20)
(1.00065 -0.0168198 1.25185e-21)
(1.00781 2.97732e-06 0)
(-0.0709788 -0.0236708 7.31737e-21)
(1.05941 -0.032288 -8.68521e-21)
(1.01945 -0.00876014 0)
(1.04793 -0.00517431 1.89487e-21)
(1.00865 2.93213e-05 0)
(1.04309 -0.00881915 -5.08256e-23)
(1.06273 -0.033496 0)
(1.01005 0.000277346 2.63183e-23)
(0.935993 -0.0289469 0)
(1.0323 0.0351136 -1.46951e-21)
(1.00801 -2.86503e-05 -4.38912e-23)
(1.01508 0.000274194 0)
(1.0099 -0.0020777 -2.236e-23)
(1.00394 2.61688e-05 0)
(1.00884 -4.10709e-05 0)
(0.80623 0.106415 4.35241e-21)
(0.797495 -0.0857143 -1.04547e-20)
(1.00918 0.000200677 0)
(1.01027 -0.000203865 -2.94268e-23)
(1.0133 -0.000421001 7.99325e-22)
(0.0193408 0.142856 1.78524e-21)
(1.04717 -0.00558247 -2.94981e-21)
(0.953159 -0.084026 0)
(0.858403 0.165947 -7.18732e-21)
(0.839591 -0.0232167 7.70021e-22)
(1.01794 0.000386853 1.02578e-22)
(0.836292 0.00796837 2.18614e-21)
(1.05607 -0.0328924 2.46525e-21)
(1.01751 -0.00664165 5.82568e-23)
(1.0514 -0.0632448 -1.54763e-20)
(1.01621 -0.00483643 7.42557e-22)
(1.01041 -0.000890546 1.27861e-22)
(0.567397 -0.0039145 -3.11051e-20)
(1.01984 -0.00266768 5.56463e-21)
(0.827459 0.146464 6.65954e-21)
(1.01053 -0.00039888 3.68093e-22)
(1.00908 0.000183032 8.47423e-23)
(1.00782 -0.0307396 4.00828e-21)
(0.118628 -0.200409 0)
(0.455897 0.137413 1.77884e-20)
(-0.0979428 -0.0239683 3.55678e-22)
(1.01425 -0.000463124 -1.39532e-21)
(1.01579 -0.000709305 6.03555e-22)
(1.0131 0.000379551 0)
(1.03095 -0.0138212 -1.64354e-21)
(0.908591 0.0937288 3.91603e-21)
(1.01688 0.00484513 -1.95754e-22)
(1.04812 -0.0637437 2.31951e-20)
(1.02632 -0.000259484 6.88051e-21)
(0.899605 0.0107949 3.7912e-21)
(1.07789 -0.025569 -3.61598e-20)
(1.01341 -0.00052929 -1.39507e-21)
(0.0707162 -0.119625 -1.60654e-20)
(1.00944 -5.49602e-05 -1.93114e-22)
(1.03619 -0.0105561 0)
(1.03035 -0.013655 6.57712e-21)
(1.01306 -0.002377 0)
(1.02472 -0.0127567 2.67614e-21)
(1.07616 -0.0520885 -2.85691e-20)
(1.06815 -0.0368476 -2.93166e-20)
(1.01288 0.000522582 -3.89915e-25)
(1.05069 -0.0162802 0)
(-0.076325 0.0339824 2.60234e-20)
(1.01031 -0.000845825 -1.41366e-22)
(1.02335 -0.0185506 0)
(1.01186 0.000338144 -1.36673e-22)
(1.01557 0.00523125 1.91809e-22)
(1.05612 -0.0225267 4.07735e-22)
(1.0175 -0.00658917 0)
(0.725323 -0.10592 0)
(0.61703 -0.00559349 -5.10691e-20)
(1.00924 -0.000195473 0)
(1.01317 -0.00249352 7.03887e-22)
(0.404847 0.106421 -1.99747e-20)
(1.01014 -0.000773456 0)
(0.828554 -0.0727297 1.86027e-22)
(1.05498 -0.0325182 7.42661e-21)
(1.01593 -0.00203329 0)
(1.0239 -0.0864868 -2.05792e-20)
(1.0106 0.000329616 0)
(1.03741 -0.0192126 -3.9216e-21)
(0.987778 -0.02993 0)
(1.01965 -0.00221342 0)
(1.03867 -0.0397815 -4.01974e-21)
(1.00975 0.00014684 -3.81004e-25)
(1.00863 -7.44666e-05 0)
(1.01653 -0.00799331 0)
(1.01415 -0.000547821 -3.85726e-22)
(1.05176 -0.0502827 0)
(1.029 -0.0595293 1.60797e-21)
(0.860819 0.111805 1.15663e-21)
(-0.0464564 0.0518568 0)
(1.01576 0.000421334 -3.90088e-22)
(1.05217 -0.0242897 -3.06759e-21)
(0.600828 -0.181071 -1.14482e-21)
(1.03497 -0.0103933 6.06297e-23)
(1.01575 -0.000757595 5.49417e-22)
(0.895167 -0.155756 -2.13756e-21)
(1.0158 -0.00178055 0)
(1.01306 -0.000868307 -1.43264e-22)
(1.018 0.000650282 -1.03e-22)
(0.516804 -0.191078 1.09372e-19)
(1.00818 -0.000112269 7.55717e-22)
(1.01754 -0.00368163 0)
(1.03603 -0.0466655 -6.30096e-22)
(1.02001 -0.0023328 -6.35181e-21)
(0.326002 -0.0454343 -2.40812e-21)
(1.0388 -0.0169391 7.31478e-21)
(0.651686 -0.0130399 -2.98214e-20)
(1.0115 0.000398458 -1.34597e-23)
(0.817084 -0.0307721 -3.38589e-20)
(1.0193 -0.00847181 0)
(0.853932 -0.162788 -1.94553e-21)
(1.0103 0.00028453 -1.08463e-23)
(1.01272 0.000395377 0)
(1.01353 -0.0281047 -6.46079e-22)
(1.03659 -0.00885289 9.50564e-22)
(0.174772 0.0175484 3.46698e-21)
(1.01804 -0.000614614 4.36152e-21)
(0.662493 -0.0146737 2.96054e-20)
(1.03883 -0.0174657 -1.3447e-20)
(1.03126 -0.00527576 9.42516e-21)
(0.836944 -0.0509882 0)
(1.06724 -0.0578121 -5.30058e-22)
(0.75933 -0.0239902 0)
(1.00754 1.41291e-05 1.6861e-22)
(1.04697 -0.0218524 0)
(1.00768 -4.93988e-06 2.327e-23)
(-0.0743092 0.0939995 3.21694e-20)
(1.0105 0.000301036 4.81569e-23)
(1.04159 -0.032365 -5.49593e-21)
(0.964103 0.0630731 -4.11954e-21)
(1.00904 -0.000173435 -4.20351e-23)
(1.01552 0.000350083 0)
(1.06905 -0.0326907 1.62385e-20)
(1.01614 -0.00719674 5.54285e-22)
(0.375983 -0.047205 1.20184e-20)
(0.93062 -0.015215 -8.78007e-21)
(1.0131 0.000394914 0)
(1.01778 -0.00374694 1.04415e-21)
(1.06203 0.0210498 0)
(0.94779 0.0186587 0)
(1.01522 0.000828756 0)
(1.03805 -0.048516 7.02141e-22)
(1.00958 5.62875e-05 -3.00704e-23)
(0.723088 -0.0214016 3.0447e-20)
(1.05887 -0.0333798 0)
(0.849674 -0.10637 -2.84008e-21)
(1.02957 -0.0140309 3.28967e-21)
(1.03221 -0.0194219 0)
(1.02329 -0.000949075 -3.507e-22)
(0.935996 0.0288338 0)
(1.02717 -0.00833231 0)
(1.03017 -0.0142303 -1.7087e-21)
(1.06629 -0.0284126 -1.86467e-20)
(0.987644 -0.0892448 0)
(1.0247 -0.0572767 -1.81388e-21)
(0.995627 -0.0310432 -1.74221e-20)
(0.586982 -0.00230926 1.4167e-21)
(1.02009 -0.000260312 0)
(1.01275 0.000385259 0)
(1.02198 -0.0126915 0)
(0.838926 0.14764 0)
(1.0146 0.000348881 -2.0429e-22)
(0.966999 -0.0994403 0)
(1.03453 -0.0105661 -1.22233e-20)
(1.02712 -0.00795305 -3.20994e-21)
(1.04552 -0.0187524 0)
(0.858787 -0.0529356 0)
(1.02962 0.00137922 -1.37127e-23)
(1.02334 -0.00219947 -9.53829e-25)
(1.0357 -0.010841 -1.24429e-20)
(0.962476 0.0882947 -2.48193e-22)
(1.05277 -0.0317116 -1.45546e-20)
(1.03106 -0.0268571 -5.11087e-21)
(1.0105 -0.00096372 -2.93053e-22)
(0.865726 0.085719 -7.30375e-23)
(1.02119 -0.0149767 -4.26633e-22)
(0.769588 -0.0233545 0)
(0.982474 -0.00377966 -4.20035e-21)
(1.01545 0.000901607 0)
(1.0112 0.000361825 0)
(1.00884 2.95323e-05 0)
(1.06567 -0.0276298 6.23573e-21)
(0.83434 0.156169 0)
(0.832201 -0.122398 1.23439e-21)
(1.01209 -0.000836841 1.57464e-22)
(1.01819 0.000304622 -1.11945e-21)
(0.966889 0.0914628 -9.69485e-22)
(0.896942 0.0848379 1.1542e-22)
(1.04751 -0.0677783 1.41066e-20)
(1.02395 -0.0132127 1.5733e-21)
(1.02809 -0.00254142 0)
(1.05479 -0.0252788 0)
(0.896393 0.0810147 -1.70959e-22)
(0.983839 -0.0956215 2.15343e-20)
(1.02519 -0.0189181 0)
(0.618079 0.0230056 -1.69147e-21)
(1.01071 -0.0010768 -1.57535e-22)
(0.736598 -0.0228414 -2.89298e-20)
(1.05036 -0.0157785 1.17701e-20)
(1.03615 -0.0171108 3.3462e-21)
(0.776994 -0.0248793 2.24314e-20)
(1.02005 -0.00740839 1.14758e-21)
(1.04562 -0.00285578 0)
(0.780905 -0.0329591 1.25676e-20)
(1.01185 -0.000814828 0)
(1.06194 -0.026085 -9.19552e-21)
(1.04508 -0.0198621 0)
(1.02377 -0.0128126 -7.20669e-22)
(0.164193 -0.204823 -4.743e-21)
(1.02479 -0.0191579 -3.02337e-21)
(1.02594 -0.0082698 -5.77436e-21)
(0.821718 -0.0598155 1.18957e-20)
(1.01093 0.000328899 5.9112e-23)
(1.03274 -0.0199824 -1.63009e-21)
(1.01867 0.00130208 -4.07451e-22)
(0.797046 -0.0247932 -1.96996e-20)
(1.0834 -0.0300541 0)
(1.01827 -0.000687507 0)
(1.06251 -0.0312756 0)
(1.01845 -0.000279812 0)
(0.642449 -0.0101362 -1.27267e-20)
(1.0254 0.0017591 -4.5431e-22)
(1.00868 -6.21193e-05 -3.74426e-23)
(1.01433 -0.00282088 1.3487e-22)
(1.08277 -0.0306219 0)
(1.04663 -0.0209053 -1.46714e-20)
(1.03674 -0.00963165 -7.76461e-21)
(1.01801 0.000358789 -1.09532e-21)
(1.02003 -0.00732681 0)
(1.02547 -0.00817474 4.99941e-21)
(0.95095 0.0283094 3.06565e-21)
(0.173698 -0.0301643 0)
(0.721182 -0.152181 5.38532e-20)
(1.02339 -0.0143546 1.36811e-22)
(0.803242 -0.0258898 -9.72008e-21)
(0.751715 -0.102348 0)
(1.01781 -0.000175507 -1.82307e-21)
(1.05181 -0.0252022 -3.18905e-21)
(1.04424 -0.0685106 -1.42105e-20)
(1.00602 -0.00794686 1.23094e-21)
(1.01423 0.00398181 7.16518e-22)
(1.07649 -0.0457328 0)
(1.01728 -0.0902788 6.28775e-21)
(1.01612 -0.000474836 0)
(0.776433 0.179658 1.01975e-20)
(0.762209 -0.0274081 0)
(1.01794 -0.000138297 0)
(1.01124 0.0119612 3.40587e-22)
(1.01395 0.0150681 -2.34164e-22)
(0.936839 -0.0166527 0)
(1.03703 -0.00931992 7.8475e-21)
(1.01253 0.00708851 -7.08184e-21)
(-0.0836407 0.0872321 -3.95935e-20)
(1.01337 -0.00260912 -2.22335e-22)
(0.775713 0.171677 -5.45992e-21)
(1.01428 -0.00273961 8.92618e-23)
(1.0183 -0.000238797 1.01602e-21)
(1.00985 6.05438e-05 3.94291e-23)
(1.01022 0.000287692 -1.25938e-23)
(1.01259 -0.0021773 -2.74012e-22)
(0.783767 -0.0294007 3.99011e-20)
(0.875832 -0.051922 0)
(1.01948 -0.00496112 1.33843e-21)
(1.06138 -0.0250714 -8.0663e-22)
(1.01163 0.000380442 0)
(0.585785 0.0190696 0)
(1.02739 -0.0314226 -2.82274e-21)
(0.813521 -0.14647 -9.01751e-22)
(0.734389 -0.1192 -2.9647e-20)
(1.01949 -0.00515931 1.33191e-21)
(1.03884 -0.00710209 -2.09432e-21)
(1.0436 -0.0206882 -6.47307e-21)
(0.812499 -0.133069 -6.65916e-22)
(1.01555 -0.00430345 -4.1947e-22)
(1.00926 0.00020709 0)
(1.0177 0.00389823 0)
(-0.0138057 0.00549364 7.78828e-21)
(1.01369 -0.000695958 0)
(0.19566 -0.183421 0)
(1.00501 -0.00519067 0)
(1.07813 -0.0464277 0)
(0.682872 -0.098181 0)
(1.00291 0.040179 -9.10604e-23)
(0.997744 0.0349695 -2.96218e-22)
(1.01918 -0.00499526 -5.3337e-22)
(1.0108 -0.0010884 2.38934e-22)
(1.01827 -0.000152848 -3.75294e-21)
(1.0225 -0.0140955 0)
(1.06325 -0.0304996 0)
(0.132842 -0.128011 1.48476e-20)
(1.05746 -0.0215451 0)
(0.784369 -0.0255705 2.13542e-20)
(0.776799 -0.0313791 1.28873e-20)
(1.0116 0.000366982 -8.50679e-23)
(1.02043 -0.000236526 -4.93911e-21)
(0.719518 -0.141992 -2.41171e-20)
(0.564777 -0.0033759 0)
(0.989362 0.0639939 6.13991e-21)
(0.809911 -0.0791955 0)
(1.01811 0.00528233 4.06767e-22)
(1.04414 -0.0214463 0)
(1.00791 -7.38955e-05 -2.16673e-23)
(0.7958 -0.0956986 0)
(1.0102 -0.000395164 -8.6213e-23)
(1.03287 -0.0270951 3.35674e-21)
(1.01838 -0.0044907 8.62656e-22)
(1.02518 -0.0014405 0)
(1.00813 -7.5009e-06 1.72428e-24)
(1.01174 -0.000755598 2.0025e-22)
(1.01185 0.000349877 -8.71997e-23)
(1.06046 -0.0486275 -2.22982e-21)
(1.00794 -0.00695093 3.18997e-21)
(0.685524 -0.0148987 -4.80612e-20)
(1.02252 -0.0128164 1.57394e-23)
(1.06328 -0.0324302 0)
(1.01437 0.00156762 -2.08505e-21)
(0.94792 0.0458181 -1.53845e-21)
(1.03124 -0.0206712 5.40885e-23)
(0.917025 -0.00779013 0)
(1.03565 -0.0165405 9.50384e-21)
(1.00992 -0.0418693 6.59176e-22)
(1.00908 0.000181035 -6.96137e-23)
(1.01153 -0.000736469 -3.47922e-23)
(1.00796 -8.0956e-05 0)
(0.980556 -0.0669865 0)
(0.846101 0.0512192 3.20583e-21)
(1.06232 -0.0589369 1.80155e-20)
(1.01355 -0.000427167 1.3649e-21)
(0.657958 -0.0175744 3.83657e-20)
(0.895257 0.0528585 4.76511e-21)
(1.03804 0.00108723 5.41825e-22)
(1.01298 -0.000467394 1.33226e-21)
(1.0701 -0.0323053 0)
(1.01539 -0.0041268 4.21679e-22)
(0.940555 0.0614064 2.15738e-21)
(1.00879 7.38162e-06 0)
(0.863167 0.0276305 4.2116e-21)
(0.889313 0.123015 0)
(1.03985 -0.03468 3.57812e-22)
(0.647424 -0.0122521 0)
(1.01574 -0.00156955 -3.27817e-22)
(1.00917 -0.00981022 8.87597e-22)
(0.870216 0.124334 1.32927e-21)
(0.108263 0.0304206 1.76099e-20)
(1.00955 0.000162386 5.90064e-24)
(1.04494 -0.0229951 0)
(1.05412 -0.0333875 8.12463e-21)
(1.033 -0.000951296 1.47589e-23)
(1.0097 -0.000321624 -3.6722e-23)
(1.02505 -0.00840833 7.14015e-21)
(1.07713 -0.0250719 -2.28822e-20)
(1.07658 -0.0493476 0)
(1.02432 -0.0121367 0)
(0.429501 0.0600495 0)
(1.00831 3.61439e-05 -3.72278e-22)
(1.01456 -0.00294746 1.88405e-23)
(0.035107 0.127627 5.89293e-22)
(1.02257 -0.0183854 5.4499e-22)
(1.01099 0.000340016 -2.04109e-23)
(0.773828 -0.152554 0)
(1.01071 -0.00103556 -5.05084e-22)
(1.01745 -0.00757746 1.95282e-23)
(1.0101 -0.0004638 -5.2003e-23)
(1.0143 -0.0234653 -3.37832e-23)
(1.02387 -0.0116414 -1.74671e-21)
(1.01126 0.000377321 1.43226e-23)
(1.0157 -0.00131189 -2.99148e-22)
(0.836889 -0.0651878 4.8671e-21)
(1.02022 -0.00308812 0)
(1.05787 -0.0235192 0)
(1.01043 -0.000455389 -4.80135e-22)
(1.02167 -0.00845747 -3.3491e-22)
(1.01396 -0.0348989 -3.34405e-22)
(1.00365 -1.48706e-06 0)
(1.01535 -0.00431734 6.43561e-22)
(1.00626 1.51184e-05 0)
(1.00608 -5.34271e-05 -3.07811e-23)
(0.87148 -0.0992348 -9.09263e-22)
(1.02753 -0.00754314 0)
(1.04341 0.0126473 -3.26265e-22)
(1.01957 -0.00199529 -1.2732e-21)
(1.00855 -4.18866e-05 -8.20305e-23)
(-0.0873026 -0.107933 -1.75747e-20)
(0.636543 -0.0107467 1.04146e-20)
(1.02066 -0.00238879 -1.531e-21)
(1.02184 -0.00984124 0)
(1.03201 -0.0210433 -6.82743e-21)
(0.943718 1.15446e-05 -2.44973e-21)
(0.202418 0.0390183 0)
(1.01462 -0.00305514 0)
(0.874173 -0.0165038 1.83162e-22)
(1.01581 -0.00447236 0)
(1.04891 -0.0458067 0)
(1.0262 -0.00224558 0)
(-0.0722523 0.109593 3.06127e-20)
(1.00945 0.00013726 -6.05568e-23)
(-0.0294102 0.0695711 3.97796e-20)
(1.01636 -0.0569946 1.23239e-21)
(1.01068 0.000316436 5.01821e-23)
(1.01996 -0.0105316 6.37898e-22)
(0.74843 -0.0768991 -3.04662e-20)
(1.04114 -0.0326555 1.26744e-20)
(0.860024 -0.0875094 2.09702e-21)
(1.01115 -0.00024857 5.78314e-22)
(0.835712 0.168156 4.97701e-21)
(1.01406 -0.000428068 -2.02129e-22)
(1.00981 -0.00062629 7.89878e-23)
(1.01066 -0.00104107 -1.1997e-22)
(1.02514 -0.000226087 0)
(0.582358 -0.00682539 0)
(1.06582 -0.0357361 -1.77547e-21)
(1.08212 -0.0409927 2.44019e-20)
(1.05044 -0.0696319 3.59666e-22)
(1.03712 -0.0122806 6.60054e-22)
(1.01314 0.000540679 0)
(0.875162 -0.112359 0)
(0.844816 0.0582921 6.12858e-21)
(1.03826 -0.0192862 4.27875e-21)
(1.05023 -0.0169176 1.51602e-22)
(0.960848 -0.00261911 2.82973e-21)
(0.84222 0.16473 3.12141e-21)
(0.843273 -0.031974 0)
(1.01778 -0.00012909 0)
(-0.0799983 0.104699 1.25967e-20)
(0.284308 -0.00204059 -6.60399e-21)
(0.409211 -0.160673 -4.7158e-20)
(1.02395 -0.019254 2.18102e-21)
(1.01971 -0.0118045 -1.25805e-21)
(0.834777 0.0431522 1.52291e-20)
(1.0118 -0.0146315 8.00319e-24)
(0.97383 -0.0770171 1.17137e-21)
(0.872922 -0.159829 -5.5499e-22)
(0.754996 0.0417769 8.88865e-21)
(1.02447 -0.0129417 -2.8452e-21)
(0.724413 0.0363773 -9.36138e-21)
(0.978822 -0.0354969 -5.18553e-22)
(1.00923 0.000158782 -6.94214e-23)
(1.01715 -0.0128245 1.79257e-22)
(1.06719 -0.0356002 0)
(0.616213 -0.00673281 1.75894e-20)
(1.02928 -0.0144816 1.67859e-21)
(1.01718 -0.00246452 -1.80247e-21)
(1.01287 -0.00227933 4.3704e-22)
(1.01686 -0.0046308 1.63382e-21)
(1.05365 -0.0492142 0)
(1.01463 -0.0133539 -3.25417e-22)
(0.859191 -0.133466 2.55994e-21)
(0.445236 0.0292052 1.46539e-22)
(1.00977 -0.000290505 -6.2755e-23)
(0.0351948 0.12827 3.25733e-20)
(0.668767 -0.0151489 1.94236e-20)
(1.06241 -0.0288173 7.49721e-23)
(0.848314 0.0963002 -1.39148e-21)
(1.05682 -0.0235197 -4.28227e-22)
(1.0106 0.000296709 8.40294e-24)
(1.01143 -0.000691463 0)
(1.00556 0.0134642 0)
(0.860903 -0.112107 0)
(1.03689 -0.010847 2.52734e-21)
(1.07937 -0.029267 1.25027e-20)
(1.08727 -0.0328761 0)
(1.01079 0.000347206 0)
(1.01347 0.0067317 -1.56642e-21)
(0.821167 0.137855 -2.06323e-21)
(0.98246 -0.0193175 -5.46885e-21)
(1.07251 -0.0491138 -9.94163e-22)
(0.589554 -0.00769589 0)
(0.978215 -0.0340496 1.85981e-20)
(1.01597 -0.00464663 9.09127e-22)
(1.02547 -0.00119464 0)
(0.589724 -0.184201 3.37405e-22)
(0.769556 -0.0313294 1.4454e-20)
(1.08367 -0.0335008 1.93707e-20)
(1.05804 -0.0207572 -2.39037e-20)
(1.041 -0.0268279 0)
(1.01045 0.000312215 -1.55144e-23)
(1.01488 -0.00279351 1.14636e-21)
(0.829487 0.0276837 0)
(1.01056 0.000327666 -7.74566e-23)
(1.02869 -0.0142417 -1.56181e-21)
(1.01056 0.000319353 0)
(1.01042 -0.000846986 -3.28356e-22)
(0.966692 -0.0363039 -4.99359e-21)
(1.0571 -0.0491109 -1.33003e-20)
(1.01502 -0.00182602 0)
(1.01055 0.000327158 7.76778e-23)
(0.25375 -0.179007 -1.69023e-21)
(0.891012 -0.145533 2.96896e-21)
(1.01087 -0.001164 0)
(1.00938 -1.51711e-05 0)
(1.0147 0.000369253 2.16336e-22)
(1.01837 -0.000189043 7.17918e-21)
(-0.0259309 0.0166075 0)
(0.854637 -0.14126 7.1075e-22)
(0.85258 -0.15713 3.04341e-21)
(0.348063 -0.190733 0)
(0.833757 0.160479 -4.85341e-21)
(1.05706 -0.0194756 1.37299e-20)
(0.599094 -0.00425501 3.1636e-20)
(0.635098 -0.010703 -1.9062e-20)
(1.01555 -0.000214502 9.21142e-24)
(1.05464 -0.0234002 -1.25943e-20)
(1.01068 0.000305734 -8.46531e-24)
(1.0188 0.000933629 0)
(1.03542 -0.0285538 -7.09818e-21)
(0.865463 -0.0758133 -3.55562e-20)
(0.78939 0.174225 0)
(1.07865 -0.029715 1.34537e-20)
(1.04093 -0.0226992 0)
(1.01078 -0.000601087 7.62807e-23)
(1.02925 -0.0269712 -3.37238e-21)
(1.01687 4.41275e-05 0)
(0.86036 -0.105443 -3.47214e-21)
(1.06555 -0.0396416 0)
(1.01925 -0.00187398 6.12728e-21)
(1.02406 -0.0138252 -1.35958e-22)
(1.00964 -0.000322745 -6.50067e-23)
(1.04638 -0.017647 -4.36255e-21)
(1.06053 -0.0609988 -3.22005e-20)
(1.02718 -0.0021361 8.07305e-21)
(1.01515 -0.00398473 1.29029e-21)
(1.02879 -0.0319945 0)
(1.02564 -0.00464213 1.50633e-21)
(1.05368 -0.0470275 1.11848e-20)
(0.993293 -0.0593381 0)
(1.06714 -0.0560196 3.59128e-21)
(1.02712 -0.0269507 -1.55204e-21)
(1.08438 -0.0328316 0)
(1.01059 -0.000578214 -7.67037e-23)
(1.03051 0.0458289 4.44865e-22)
(1.02383 0.000480535 1.47203e-23)
(0.24973 -0.15121 0)
(1.01945 -0.00844464 -1.00592e-23)
(1.00882 -8.67857e-05 -1.29077e-22)
(0.952981 -0.0287857 1.88026e-20)
(1.02181 -0.0117329 -1.62875e-21)
(0.644874 -0.076287 0)
(0.741656 -0.024512 -2.79324e-20)
(0.0554293 0.0676329 5.21876e-20)
(0.744072 -0.158538 -2.32154e-21)
(1.0101 -0.000397499 3.9887e-23)
(0.986159 -0.0296179 0)
(1.01583 0.00100491 0)
(1.01064 -0.000947482 3.25498e-22)
(1.00954 0.000135759 3.42217e-23)
(1.01067 -0.000954113 9.74022e-22)
(1.01768 0.0025045 0)
(1.02281 -0.0131966 3.88464e-23)
(1.0157 -0.0220694 2.63874e-22)
(1.01035 0.000307269 -7.61109e-23)
(0.690384 -0.0658777 -4.06107e-21)
(1.02017 -0.0602227 -1.28274e-21)
(0.666044 -0.0772712 0)
(1.0124 -0.00189445 0)
(1.00978 0.000116902 2.00802e-23)
(1.00935 3.4921e-05 2.72166e-22)
(1.04074 -0.0652074 0)
(0.577746 -0.166622 2.2022e-21)
(1.06975 -0.0256319 3.26472e-20)
(1.04636 -0.0181396 1.2835e-20)
(1.01594 0.00101501 0)
(1.00847 -4.41682e-05 -1.58525e-22)
(1.01014 -0.000217604 -3.1672e-23)
(1.01342 -0.00244583 -3.88011e-22)
(1.08592 -0.0440417 2.93542e-20)
(0.378523 0.201718 0)
(1.0252 -0.00447165 -1.52499e-21)
(1.01034 0.0003041 0)
(1.02535 6.93707e-05 0)
(1.01335 -0.0024763 2.83109e-22)
(0.951954 0.0132481 1.12051e-21)
(-0.057814 0.0345757 -3.50105e-21)
(1.0302 -0.027572 2.24818e-21)
(0.76773 -0.0961799 0)
(0.834966 0.167988 6.86962e-23)
(1.01498 -0.00381145 -4.21763e-22)
(1.08095 -0.0417598 -1.44335e-20)
(0.0673518 0.0167341 -3.49543e-20)
(1.05528 -0.0243811 0)
(0.5185 0.111035 -4.37838e-21)
(1.0301 -0.00533553 6.40415e-21)
(1.02212 -0.0126811 -2.73514e-22)
(1.06881 -0.0256846 -2.93565e-20)
(1.02207 -0.0128461 0)
(0.8616 -0.161688 3.75399e-21)
(1.02029 -0.00225968 1.36095e-21)
(0.834943 0.0995225 -8.52152e-23)
(1.00873 2.60786e-06 0)
(1.06055 -0.0129955 7.00489e-21)
(0.66398 -0.0147394 3.44204e-20)
(1.0137 -0.000695859 -6.8304e-22)
(1.02094 -0.0105938 -2.1425e-21)
(1.03635 -0.0297472 -1.37131e-22)
(1.01001 -0.000686661 -1.63433e-22)
(1.037 -0.0185114 0)
(0.918992 0.115662 6.67695e-21)
(0.302339 -0.0152492 1.79506e-20)
(1.06405 -0.0396885 -9.96156e-22)
(0.982289 -0.0970717 0)
(0.995687 0.0531435 -1.01378e-21)
(1.01033 0.000294871 2.44768e-23)
(1.0122 -0.00180737 0)
(-0.105213 -0.123378 -6.14306e-20)
(1.08664 -0.032532 6.59059e-21)
(1.01367 -0.0060504 8.82447e-22)
(0.754981 -0.0262288 4.58484e-20)
(1.01132 -0.00036724 1.08711e-22)
(1.01645 2.33654e-05 0)
(1.00918 0.000160681 -4.8714e-24)
(0.83063 0.146756 0)
(1.04225 -0.034187 0)
(1.02558 -0.0173003 -2.33054e-21)
(1.01743 -0.00648353 0)
(1.02044 -0.0357119 -9.52286e-23)
(1.04232 -0.0130971 0)
(1.00951 3.72304e-05 -2.00524e-22)
(0.0806017 0.0970125 -6.87717e-20)
(0.994639 -0.105186 4.03753e-23)
(0.719482 -0.0281601 0)
(1.0109 0.00033706 2.53439e-24)
(1.02518 -0.00414754 2.80578e-21)
(0.611925 -0.00641039 -2.59181e-20)
(-0.0256761 -0.02595 0)
(1.08626 -0.0304267 0)
(1.01658 -0.000189101 0)
(0.915654 -0.0318532 -2.89831e-23)
(1.02014 -0.00261497 4.64797e-21)
(1.02096 -0.03694 3.05034e-22)
(1.02483 -0.0349193 -1.24482e-21)
(1.03916 -0.0345408 5.144e-21)
(1.03228 -0.0180914 4.78224e-21)
(0.115286 0.05551 1.67984e-21)
(1.02101 -0.00465737 1.24867e-21)
(1.01861 -0.000930109 0)
(1.07741 -0.0305555 2.63031e-20)
(1.00878 -9.58555e-05 -1.22875e-22)
(1.00531 -4.46944e-05 7.89776e-22)
(1.02408 -0.0120527 1.76599e-21)
(1.01051 -0.000544747 -2.13686e-25)
(0.0860754 0.100779 0)
(1.03718 -0.0263879 -5.03974e-21)
(1.07449 -0.0487153 2.11927e-20)
(1.01452 -0.0031392 -5.35441e-22)
(1.02333 -0.0200045 3.48756e-22)
(1.01088 -0.000646245 3.86143e-23)
(0.875665 0.131 -5.8835e-21)
(1.01027 -0.000163277 0)
(1.02039 -0.00535287 1.96297e-22)
(1.00973 0.000111884 8.57096e-23)
(1.0146 -0.00352439 1.25341e-23)
(1.01276 -0.000534987 0)
(0.771495 -0.0325244 -3.08378e-20)
(1.01278 -0.00228397 -4.32771e-22)
(1.00971 0.000220613 -7.98189e-24)
(0.911704 0.0167048 -2.32428e-21)
(1.02609 -0.00122939 -2.55116e-21)
(0.629747 -0.00884664 -2.38849e-20)
(1.00792 2.26118e-05 0)
(1.01613 -0.000239067 -6.06351e-22)
(1.07274 -0.0316348 0)
(0.932846 0.0212265 0)
(0.900865 -0.0988317 7.19002e-23)
(1.00989 -0.000226142 1.5978e-23)
(0.996821 0.0711423 -2.02763e-22)
(0.775951 -0.105098 2.34172e-21)
(1.02758 -0.00791243 -5.12365e-23)
(0.832788 -0.0377684 2.20926e-20)
(1.05967 -0.0130283 1.28476e-22)
(1.01026 -0.00049047 0)
(1.02611 -0.00729246 2.3247e-22)
(0.047041 0.117594 0)
(1.02342 0.0586732 6.2105e-23)
(1.03022 -0.0194861 3.77503e-21)
(1.01004 -0.000264578 0)
(1.01009 0.000285531 -2.89248e-23)
(0.860375 0.101458 1.16574e-21)
(1.0385 -0.0328034 -4.68129e-21)
(1.00719 -0.0359486 0)
(1.02498 -0.0183304 0)
(1.02455 -0.00942273 0)
(1.01827 -0.000104606 -2.46823e-22)
(1.01629 -0.00017155 0)
(1.08016 -0.0266012 3.10081e-20)
(0.851186 -0.0530142 2.43807e-21)
(1.05004 -0.0489698 -2.54319e-21)
(0.795262 0.173411 0)
(1.02473 -0.00396856 -7.18908e-21)
(1.05035 -0.0469 2.63102e-21)
(1.07267 -0.0377635 0)
(0.810774 -0.0255376 2.21746e-20)
(1.02505 -0.0167849 0)
(0.253936 0.0405459 -4.00921e-21)
(1.05724 -0.0712912 2.63299e-20)
(1.02641 -0.000938121 -2.25283e-21)
(0.406922 -0.0328429 0)
(1.03733 0.0326333 -5.71143e-21)
(0.712241 -0.159868 0)
(0.315575 -0.0327539 0)
(0.78989 -0.05087 2.66712e-20)
(0.945822 0.0504597 1.32324e-22)
(1.03598 -0.0315008 -7.07033e-21)
(1.01033 -0.00051789 5.10337e-23)
(1.0218 -0.0142453 2.47021e-22)
(-0.0929776 0.0442585 4.13153e-20)
(0.274166 0.0131454 2.92718e-20)
(1.01405 -0.00228641 0)
(1.00787 -1.44564e-05 6.5924e-24)
(1.06885 -0.0340544 -1.91001e-22)
(0.959109 0.0575284 0)
(1.01041 0.000257989 0)
(-0.0355873 0.0211175 -3.51494e-20)
(1.01108 -0.000349257 -1.08214e-22)
(1.02013 -0.00461107 0)
(0.0569789 0.115483 -3.15641e-20)
(0.616974 -0.00708129 -2.24698e-20)
(0.98313 0.0580625 1.24781e-21)
(1.01069 -0.000963638 0)
(1.01825 -7.5489e-05 -5.18706e-21)
(-0.033562 -0.0123147 2.10798e-20)
(1.08939 -0.0450338 -3.37918e-20)
(1.08256 -0.0332274 -1.69645e-20)
(1.01582 -0.00248924 -6.48657e-22)
(0.735334 -0.141569 0)
(0.989606 -0.0261557 2.41703e-21)
(0.625423 -0.153846 0)
(1.06143 -0.0334658 -2.74514e-21)
(1.06034 -0.0251562 1.88106e-20)
(1.02543 -0.00849328 -2.90058e-21)
(1.026 -0.00187976 0)
(0.625008 0.0277266 -5.56317e-21)
(1.07069 -0.0219406 0)
(0.559297 -0.00282861 0)
(1.02072 0.0060853 1.74806e-21)
(1.05641 -0.0214907 0)
(0.119191 0.0846104 -5.82651e-20)
(0.70951 -0.163066 0)
(0.654262 -0.0118129 -2.31567e-20)
(1.02201 -0.00234189 0)
(1.05658 -0.0175717 1.37228e-20)
(1.01077 -0.00111063 0)
(1.02819 -0.0276929 5.27218e-21)
(1.02067 -0.0103775 -1.11716e-21)
(0.421816 0.161371 0)
(1.01146 -2.47426e-05 -2.8684e-21)
(0.649911 -0.0150059 -3.70915e-20)
(1.01028 0.000239981 -3.96673e-23)
(1.07179 -0.0315741 -1.21054e-20)
(1.01503 -0.00340475 1.86337e-21)
(1.01954 -0.0282589 -4.13385e-22)
(1.05794 -0.0199808 1.72186e-20)
(1.0556 -0.0178138 1.3667e-21)
(0.770763 -0.085731 -2.61851e-20)
(1.06382 -0.0245445 -1.13821e-22)
(1.01193 -0.0230933 7.14585e-22)
(1.00875 -5.99101e-05 2.42939e-23)
(1.07118 -0.0327505 0)
(0.816911 -0.0952454 -2.10248e-22)
(1.05146 -0.00860165 -2.10596e-22)
(1.02782 -0.0143803 -7.42539e-23)
(0.606068 -0.00656667 0)
(1.01423 0.000342271 -1.01432e-22)
(0.412904 -0.00417031 0)
(0.892274 -0.00221962 3.05666e-22)
(1.02323 -0.00701135 0)
(0.799734 -0.028419 1.8227e-20)
(-0.03248 -0.0111742 7.10736e-21)
(0.640531 -0.0105827 1.90425e-20)
(0.957756 0.0602507 -3.02167e-22)
(1.02205 0.00457375 -9.96986e-22)
(1.01394 -0.00255803 -7.25785e-24)
(0.713473 -0.0274636 0)
(1.01687 -8.4587e-05 4.75119e-21)
(0.769452 0.0768847 -4.31026e-21)
(0.648132 -0.0129547 0)
(1.01242 -0.00198824 -1.91306e-22)
(1.04026 -0.0054553 8.85818e-21)
(0.995623 -0.0702939 0)
(0.872471 -0.136212 -5.09989e-21)
(0.272573 0.0957918 -6.19833e-22)
(1.02376 -0.00525895 0)
(1.00955 -6.15048e-05 -2.19124e-22)
(0.556197 -0.152955 0)
(0.656661 -0.0138776 0)
(1.07193 -0.0512243 -3.2535e-20)
(1.02999 -0.018702 -3.96961e-21)
(1.01595 -0.00282969 1.92433e-22)
(0.896281 0.0260121 -3.00285e-22)
(0.0298088 0.112382 6.065e-20)
(1.07278 -0.0389731 0)
(1.0098 0.000209283 4.36863e-24)
(1.03678 -0.0318592 7.38284e-21)
(1.01003 -0.000710847 -2.95767e-22)
(1.01079 -0.000137021 -1.09881e-21)
(1.01181 0.022123 -2.12848e-23)
(1.00765 -4.91491e-05 2.13707e-22)
(0.830189 0.0101316 -3.59595e-21)
(0.956347 0.0751919 1.58295e-22)
(1.02016 -0.00482529 6.7776e-22)
(1.0157 -0.000975539 -1.76678e-22)
(1.01411 -0.002592 -4.89358e-23)
(1.02451 -0.0122951 0)
(0.573992 -0.00545758 -1.14861e-20)
(0.74616 -0.0882828 -3.13893e-20)
(1.04552 -0.0223427 0)
(0.245514 0.0122785 1.60741e-21)
(1.01503 -0.00331043 -1.9521e-21)
(1.04402 -0.0228506 1.74242e-21)
(1.01376 -0.00241939 0)
(1.01011 -0.00075301 -2.22323e-23)
(1.02054 -0.00700527 0)
(1.01981 -0.0047836 -6.46701e-22)
(0.606721 -0.00727943 -2.46685e-20)
(1.02078 -0.00260414 0)
(1.06817 -0.026649 -9.39761e-22)
(1.02216 -0.00260697 1.89516e-21)
(1.03096 -0.0198264 3.92152e-21)
(1.00418 0.0246691 1.75547e-23)
(-0.0256875 -0.0498978 2.1001e-20)
(1.01086 -0.000231648 -6.99151e-22)
(0.613403 -0.176191 -3.45624e-22)
(1.0066 -0.0390524 5.97496e-22)
(1.05215 -0.0569412 0)
(1.03789 -0.0267329 4.12863e-21)
(1.04197 -0.0265527 0)
(0.550315 -0.00343614 -1.18426e-20)
(1.04694 -0.0171693 -3.98317e-21)
(1.01587 -0.00976744 5.03895e-22)
(0.438824 0.145459 -4.04396e-21)
(0.756878 0.0883428 6.98673e-22)
(-0.0335324 0.111178 -3.79355e-20)
(1.04477 -0.0309274 0)
(0.927756 0.000466138 -3.36308e-21)
(1.01927 -0.00808018 -6.49133e-22)
(1.06288 -0.023861 8.53237e-21)
(1.06068 -0.032365 1.38189e-20)
(0.253889 0.0669537 0)
(1.01008 -0.000204043 -5.41844e-23)
(0.304971 0.0912827 -2.39575e-20)
(1.01208 -0.001729 1.54384e-22)
(1.01251 -0.00198162 0)