/*--------------------------------*- C++ -*----------------------------------*\
| =========                 |                                                 |
| \\      /  F ield         | OpenFOAM: The Open Source CFD Toolbox           |
|  \\    /   O peration     | Version:  v2012                                 |
|   \\  /    A nd           | Website:  www.openfoam.com                      |
|    \\/     M anipulation  |                                                 |
\*---------------------------------------------------------------------------*/
FoamFile
{
    version     2.0;
    format      ascii;
    class       volScalarField;
    location    "150";
    object      ddt0(k);
}
// * * * * * * * * * * * * * * * * * * * * * * * * * * * * * * * * * * * * * //

dimensions      [0 2 -3 0 0 0 0];


internalField   nonuniform List<scalar> 
13726
(
-1.1134e-05
-9.95544e-06
-1.70045e-07
1.97213e-07
-4.78781e-06
1.27393e-05
-3.03975e-07
-2.34305e-07
1.7131e-06
-2.50739e-06
-2.7762e-06
-5.01947e-07
7.16399e-09
-2.09783e-05
4.1114e-08
1.01663e-07
6.90738e-06
9.48731e-08
-4.21717e-05
-0.00036589
0.000131786
-1.20753e-08
-2.60899e-07
-5.26419e-07
-3.11559e-08
1.05098e-07
-1.14744e-06
1.14278e-07
-2.05457e-08
-6.86901e-06
3.03264e-05
2.61244e-07
-3.61474e-05
-1.55083e-08
-0.00285412
3.56046e-05
-1.20213e-06
-1.10686e-05
6.73283e-08
2.41512e-07
-0.000221942
-0.00195794
-2.1187e-07
2.94043e-08
-2.28999e-05
-3.46924e-07
0.00368351
-2.02671e-07
6.67964e-07
1.31825e-08
0.000770337
-2.25765e-07
0.000238286
3.47467e-07
-6.89602e-07
5.00523e-08
0.000191925
0.000336334
-1.58258e-06
1.08933e-06
0.00126849
7.28345e-08
-3.07821e-06
-1.39728e-08
-9.81313e-06
-1.15283e-07
0.000155716
-2.71024e-05
-2.92321e-07
-6.29675e-06
0.00375559
-1.95512e-07
-4.58955e-08
-7.28415e-07
-4.39306e-05
0.000487613
-9.7988e-06
-0.00181184
-4.09419e-05
8.57104e-07
-5.4886e-05
1.94905e-06
6.45075e-07
2.45188e-08
7.84572e-08
-4.12196e-07
-7.1794e-06
-1.12321e-06
-1.95505e-07
-0.000164435
5.1397e-08
-4.89952e-06
-2.73929e-07
-2.13345e-07
3.24477e-05
-3.23067e-05
1.29297e-06
-4.66068e-07
6.74049e-08
0.00222645
-7.23632e-07
-6.99654e-07
-3.4304e-05
-1.34459e-08
0.000556897
-8.88706e-07
8.26254e-07
-1.71927e-07
2.65651e-07
7.68558e-08
-2.37582e-06
-2.13764e-08
-5.58203e-05
-0.00251648
-0.000748304
1.54855e-07
0.00536352
0.000149165
2.9197e-05
-1.0912e-06
-4.78314e-06
6.82328e-08
9.75645e-07
-3.92641e-05
-7.97146e-05
-1.2088e-05
5.20283e-08
0.000302373
-2.12299e-08
2.46719e-06
0.000819517
4.66814e-05
2.54902e-06
2.21875e-06
-0.000209176
4.6907e-06
-1.02958e-05
0.00163335
-0.00085232
0.000238886
-1.22127e-06
-0.000218856
7.20925e-08
-1.7403e-07
9.27706e-06
1.3871e-06
-0.000132508
1.54435e-06
-9.23008e-07
-4.08588e-05
2.49632e-08
3.03538e-07
1.69566e-06
1.90295e-06
-2.62224e-07
7.34168e-08
3.33569e-07
-0.00527112
3.1289e-05
2.30624e-08
-3.76351e-08
-4.2815e-08
-7.31781e-06
-1.79528e-05
8.09309e-08
0.00113172
-0.000212143
-3.31885e-07
-6.70469e-07
-5.46606e-08
0.000118031
2.16485e-07
-0.00810452
7.89564e-07
-0.00100276
-3.83133e-05
-1.5261e-07
8.80806e-05
-8.96703e-05
8.64031e-07
-7.32756e-05
1.46186e-07
-1.31542e-05
-8.49832e-06
-1.70806e-07
5.61657e-08
-2.01341e-07
-6.0224e-07
4.25816e-08
-3.47093e-07
-0.00314708
0.00256123
-7.29539e-06
-7.56083e-06
-1.20361e-07
2.78115e-08
1.45939e-07
0.000388123
0.00310709
5.23992e-08
2.51405e-05
0.00164623
-8.22385e-06
2.52828e-07
-1.46538e-07
-3.38501e-09
-4.88767e-07
2.39329e-05
2.7049e-07
-7.28721e-08
-3.46245e-06
3.31797e-05
-7.39137e-06
6.5891e-08
-0.00115096
-4.24835e-05
3.36732e-07
-1.87132e-07
-1.25352e-07
0.000289154
8.79016e-07
1.43522e-06
0.000137924
3.94033e-05
-1.41702e-07
0.000108109
6.74458e-05
-0.000644726
0.000442689
-5.21038e-07
3.11429e-05
2.1884e-05
-6.34537e-05
-0.0019231
4.30491e-07
3.88535e-08
2.60929e-05
0.000209063
0.000653345
0.000407816
-1.38982e-08
4.80878e-07
-1.57624e-07
-1.79492e-05
0.000148522
-6.07508e-05
2.57136e-06
-1.02495e-06
-5.40657e-07
-3.18488e-06
-4.90651e-05
-2.23971e-07
0.0005101
1.1567e-06
-1.42014e-07
-8.26091e-05
1.89073e-07
-7.77864e-05
-9.0434e-06
4.61985e-07
0.00148815
2.40983e-05
-1.24945e-06
-4.41685e-07
0.000725972
-5.54685e-05
-5.64367e-08
1.67318e-08
9.33791e-09
-3.0061e-07
0.00360586
1.69175e-07
2.76965e-05
3.86209e-07
2.89748e-05
0.00193535
-3.72403e-05
0.00618057
-5.34547e-07
1.03175e-07
0.00100509
5.27161e-07
2.1783e-05
4.10853e-07
-2.41708e-05
1.13969e-07
-9.68982e-06
5.86503e-05
-7.6207e-07
-1.52884e-07
-1.1465e-05
-1.80554e-07
8.8898e-08
-1.27113e-05
2.14061e-05
-7.50629e-07
2.49611e-05
-1.92841e-08
3.8711e-05
-3.78821e-10
-0.000296211
4.7532e-05
-7.16775e-06
6.65499e-09
0.000175596
-9.00754e-06
-0.0030001
-7.71051e-05
-4.63165e-06
2.89891e-06
3.21596e-05
0.00115093
2.31446e-05
-3.60592e-06
-1.27801e-07
0.00391079
-1.99305e-07
-2.17439e-06
0.000469502
3.10187e-05
0.000129032
0.000177369
4.37744e-08
-7.24452e-05
0.000271054
-7.5586e-08
2.44279e-08
0.00029005
9.89806e-09
7.37234e-06
-2.03754e-05
-3.32005e-06
-1.49728e-07
5.29353e-07
-8.82839e-07
-8.67797e-09
-7.2703e-08
-1.75334e-06
7.13339e-08
-2.87753e-06
0.00034359
-2.55288e-05
-0.000754837
-1.19742e-05
-4.49569e-06
2.04893e-06
2.42385e-08
-5.19572e-07
-2.10575e-05
-1.15688e-08
-6.90761e-05
-2.63804e-05
-3.37369e-05
5.93504e-06
7.47103e-08
-4.15934e-07
-9.00969e-08
-0.00354841
8.61759e-07
-3.72919e-08
2.2338e-07
2.39392e-06
-0.00114034
-6.70973e-08
-1.36167e-06
-7.0512e-05
5.3558e-05
5.66653e-08
-3.57813e-07
-6.0515e-07
-0.000327702
7.31326e-08
4.68895e-06
-1.22215e-07
-0.000912243
-2.09365e-07
-1.52672e-08
0.00053235
-4.0837e-07
-1.43289e-06
-1.60381e-07
-2.26496e-07
8.88938e-08
-1.88591e-05
0.000524468
-7.85143e-05
-2.48667e-05
2.21403e-06
1.04153e-07
8.51937e-09
7.13478e-08
-1.26884e-08
-3.05546e-07
-2.20789e-07
-1.37889e-08
1.13692e-08
0.000190513
-2.75485e-06
-1.31465e-06
2.97452e-07
9.45791e-08
-3.78528e-08
-7.49046e-07
-2.25319e-07
1.22657e-06
2.83089e-06
-5.00649e-07
2.38105e-08
-9.18023e-05
0.00530483
2.89216e-05
-3.65775e-07
0.000119462
7.28987e-05
0.0671006
-3.47313e-07
0.000382843
0.000515496
-1.22203e-05
0.000826538
-0.000182513
0.00455794
6.92395e-08
-8.86678e-07
2.92784e-05
-1.22819e-06
2.51596e-05
5.26226e-08
1.27319e-07
-2.48697e-06
-9.02538e-05
-8.26236e-05
-3.08855e-05
-7.99146e-05
1.31654e-06
2.13105e-07
-1.8082e-07
-8.58232e-07
-1.9245e-06
-4.47042e-07
7.8361e-08
3.54915e-05
-2.34412e-06
0.000727657
-0.00158118
-1.03797e-07
3.56367e-05
-5.63383e-08
3.38806e-08
-5.58022e-05
1.10341e-06
-8.61239e-05
0.000123906
-4.61346e-07
1.9618e-05
2.96573e-08
0.000554618
2.31134e-05
2.73561e-08
8.37002e-07
3.46941e-06
0.00011311
-1.32649e-06
0.000171842
-0.00857987
1.72347e-06
0.000586634
6.56635e-06
3.71012e-09
-7.89695e-05
-2.13453e-06
-1.68981e-08
2.24113e-07
2.68693e-08
-2.49693e-05
-1.36034e-07
0.000702135
0.00209757
0.000664229
1.0388e-06
0.00165851
-1.74731e-07
1.03086e-07
2.95607e-05
7.62075e-08
-5.34391e-07
-5.92355e-08
4.26081e-07
4.18693e-05
-2.77126e-05
-5.37853e-07
-7.56641e-06
2.9086e-06
3.6018e-05
-2.52958e-05
-5.01328e-07
1.87697e-06
3.46043e-05
-2.27823e-05
-3.01379e-08
-3.58771e-08
0.00205068
7.86621e-05
-2.89016e-07
2.96179e-08
-2.34772e-08
0.00214887
1.61919e-05
4.7291e-08
7.1912e-08
-2.65448e-07
3.24331e-06
1.43672e-08
-1.31242e-07
1.23931e-07
-0.000400025
5.94775e-06
3.62389e-07
-7.83147e-07
-1.02697e-06
4.49488e-08
1.97858e-07
2.4542e-05
0.00528252
-9.62981e-07
-4.01586e-06
0.000125169
-3.64093e-06
5.76748e-08
0.000735184
-6.86121e-06
-2.82649e-06
-0.000958416
-5.23436e-07
0.000369167
-9.68713e-07
4.11624e-06
0.000701963
-2.05906e-06
9.77944e-07
2.81794e-05
-2.74434e-08
9.06912e-05
-1.63331e-06
1.79664e-05
1.90017e-05
5.97167e-07
1.40308e-08
0.00212557
-1.17677e-08
-1.53689e-08
0.00186399
-1.44209e-07
0.000872467
4.31769e-07
3.35737e-06
-8.68585e-08
0.000122654
0.00076376
-3.47181e-05
-0.00219653
-4.51834e-06
0.00010597
-5.48072e-07
-9.97297e-05
0.00198475
1.29681e-06
1.3261e-07
0.000155134
-6.54522e-06
-9.26425e-05
-1.80856e-07
3.90806e-08
0.0004575
-2.65475e-08
3.37052e-05
3.57212e-06
1.56315e-06
-3.26436e-06
-5.75934e-05
-3.31698e-05
-1.16209e-05
-6.67215e-07
-1.29136e-07
-0.00423415
-9.16533e-09
-3.98124e-05
0.00172999
-1.40914e-07
-0.00388128
-5.90584e-07
-5.95093e-06
5.25938e-08
-1.33238e-06
1.1364e-05
-2.1083e-08
-4.21313e-05
-1.22882e-06
-0.000413266
-3.25016e-05
1.90518e-07
6.70524e-08
9.21984e-08
1.17819e-09
-1.26514e-07
0.000219072
2.87403e-05
0.00300007
3.88865e-07
0.00567922
-0.000397606
-3.58982e-05
-1.80047e-06
0.00170284
3.25161e-05
-5.00772e-07
7.65505e-07
-1.16019e-07
0.000202168
2.99829e-07
3.9953e-07
-1.68863e-06
0.000783339
0.00018039
-3.51881e-06
-8.81096e-08
3.72449e-06
-1.17893e-09
-1.0788e-07
1.37248e-08
8.40321e-05
-7.13238e-06
-4.11106e-05
-1.34623e-07
-1.417e-05
2.37103e-06
-4.63056e-08
-5.91415e-06
-1.33194e-06
-6.4341e-07
0.00397022
2.23796e-07
4.10079e-08
2.87401e-05
-1.12604e-06
-1.65186e-05
1.48876e-06
-6.88104e-06
1.55722e-05
1.476e-06
-3.39628e-06
-1.59964e-06
0.000350406
-3.33252e-08
0.0040464
1.29384e-06
-8.30862e-08
1.02812e-06
-0.00393374
-3.09249e-08
-1.75942e-09
-4.00284e-08
-0.00426916
0.00512951
0.00016296
-8.31973e-08
-3.23955e-06
-0.00192604
-0.00238211
-1.54585e-07
0.000113632
-2.66254e-06
0.000199337
0.000509352
-8.75753e-06
1.77233e-06
0.00201891
-1.60837e-08
9.75899e-08
0.000261164
-3.38758e-07
1.1056e-06
-0.00170095
0.00234661
-6.6369e-09
-2.63577e-06
2.01864e-07
-4.29594e-07
0.000485951
1.35465e-06
8.89063e-09
1.0938e-07
1.18108e-06
4.83683e-08
3.99607e-07
-9.66092e-07
4.11226e-08
-4.8779e-05
-1.36072e-06
-1.08501e-06
0.000111776
1.23395e-08
-3.8909e-08
-3.74771e-06
-1.07985e-06
7.10493e-07
1.60053e-06
0.000242238
-1.5343e-07
-2.99255e-05
-5.81057e-08
-4.55453e-05
2.01156e-05
1.87319e-06
-3.18577e-08
4.73948e-07
-1.95101e-08
-1.53575e-07
-1.78584e-05
3.08638e-05
-1.50503e-07
-6.8037e-05
-5.13862e-05
6.76129e-05
2.95184e-05
-2.57129e-07
-7.20386e-06
-9.93861e-08
-4.39477e-09
-1.24696e-07
-5.45645e-07
-7.33869e-06
-2.68059e-06
0.000606502
-2.17405e-06
0.00865328
-9.99608e-05
0.00157384
0.00147353
7.79185e-07
-1.32712e-06
3.90654e-08
-1.51953e-07
-5.71957e-05
-2.03932e-05
0.000242671
-5.5809e-07
-3.8476e-07
-1.1116e-08
-7.00357e-05
1.05233e-06
-3.48085e-07
7.25161e-08
-6.20062e-07
2.98974e-05
7.87816e-06
5.76303e-08
-2.33605e-08
0.000737436
3.30649e-05
9.57428e-07
2.16232e-05
-0.00107929
-3.2281e-07
0.000101641
-6.81092e-06
-3.17829e-05
-8.77455e-07
1.36333e-06
9.86769e-05
2.12489e-09
3.31354e-05
4.85122e-06
1.59654e-06
-8.01262e-08
-3.07602e-07
4.77964e-06
1.20948e-05
5.75805e-09
-2.00478e-07
-4.1673e-07
-0.000982677
1.78559e-08
6.63502e-05
0.00455947
-1.23173e-08
-5.34669e-08
7.20718e-08
0.000542079
-2.10974e-08
-0.00837943
4.00861e-05
4.03122e-05
0.000359213
3.06892e-05
0.000574332
-1.69064e-05
9.29978e-07
3.2636e-08
-0.00019471
4.37823e-08
4.9197e-05
0.000126726
-0.000294842
1.59463e-08
1.5198e-07
-1.23923e-07
0.000236986
7.88814e-08
-5.34564e-06
-0.00030553
0.00183712
0.000385813
6.52005e-05
2.62552e-07
-2.2504e-05
-7.92314e-05
7.68438e-07
9.11444e-06
-8.03508e-07
-2.38605e-07
1.21501e-07
3.62934e-05
1.24021e-06
-3.07209e-07
6.9067e-07
6.10695e-08
5.82115e-07
-0.000882566
2.71647e-08
-2.61347e-07
-1.32211e-05
-3.75195e-05
-6.30556e-08
-2.32867e-07
-7.44767e-06
-1.4722e-07
1.02886e-05
1.53258e-06
-3.58732e-08
-9.2482e-07
-1.6323e-08
8.09819e-05
-9.01563e-08
-2.67519e-08
-0.000142059
0.000944424
1.49549e-08
8.54499e-06
6.46791e-05
2.4613e-05
-6.89265e-06
-1.30426e-08
-4.05942e-05
-3.55861e-05
2.71879e-05
1.19217e-05
-1.63014e-05
2.90095e-08
-6.98988e-05
-1.73845e-06
1.34144e-08
-2.44288e-09
1.86834e-05
1.31801e-06
0.00281636
-9.47278e-07
-1.56079e-07
-1.85974e-07
-1.54199e-06
-6.5234e-06
3.71333e-05
1.91686e-08
5.83957e-07
-2.21274e-06
-2.43804e-06
-1.48853e-08
-6.3142e-07
-4.51729e-05
-0.000709311
3.63113e-07
-4.32196e-08
5.14214e-07
-1.11991e-08
5.15797e-05
-5.47856e-07
-2.97986e-08
-1.2303e-05
-1.00724e-06
1.64199e-06
-2.79522e-07
0.000309907
-0.00269762
-1.29074e-06
5.45502e-09
1.46408e-06
0.00563586
6.61302e-08
2.7544e-05
1.34185e-05
0.000239285
0.000292934
0.000671109
3.3266e-05
0.00067756
-0.000152177
-5.79552e-07
6.75272e-08
-4.11453e-05
-1.3039e-07
0.000157761
-1.02839e-07
2.92977e-06
-2.52179e-05
-2.12193e-06
0.000355695
3.00696e-05
0.00247339
-4.91717e-07
1.26128e-07
-2.537e-08
-2.67008e-06
-9.66428e-06
3.85748e-07
7.20418e-05
1.39283e-06
1.58876e-06
-5.80379e-06
0.00075383
0.00466614
-4.49967e-08
0.0057619
9.71041e-07
-5.83919e-09
3.14587e-08
0.000515937
2.67556e-06
5.43211e-07
0.000107039
-3.08603e-07
-0.00828956
-1.09735e-07
-0.00471123
-4.67828e-05
-3.71303e-05
-3.83806e-07
-3.41563e-07
-4.35766e-07
2.57497e-08
-4.78294e-05
-0.000104231
-2.27733e-07
-1.24564e-05
-1.1732e-08
2.65474e-05
-0.000690535
4.02907e-08
-0.00274832
-4.14959e-07
7.27504e-08
-0.000294564
0.000239156
3.31263e-05
5.46509e-08
-4.58759e-06
-4.92466e-06
0.000115075
0.000396176
-0.000201645
0.00032979
-8.37681e-07
0.00120795
0.000193527
1.12967e-05
-2.1477e-05
-9.98083e-08
0.00043621
1.17902e-06
8.99292e-07
1.42634e-05
-2.88584e-08
0.00557655
-4.78125e-08
5.25403e-05
-0.000615785
-8.54226e-06
-2.51124e-05
-1.39025e-05
-3.67323e-05
0.000279103
0.000860429
-1.77777e-06
-0.0014298
-1.75218e-08
-1.36732e-05
3.76374e-05
-8.69329e-08
2.7247e-05
-2.24872e-08
1.394e-07
4.88658e-07
3.17336e-09
-5.3512e-05
0.00110516
9.00973e-08
5.21152e-07
0.000303543
-1.23628e-05
-4.26182e-06
9.70693e-07
-0.000957476
-3.24491e-08
-1.65336e-06
-2.86424e-06
3.04225e-05
-9.41528e-06
-5.90496e-09
0.00453137
-1.47754e-06
-3.50124e-06
3.62253e-05
6.42846e-07
-0.000218208
2.74938e-07
2.98426e-05
-1.4728e-05
0.000263508
-7.71544e-07
-0.00301198
3.25797e-08
-3.13997e-05
6.04761e-07
-6.27804e-05
-9.50327e-09
-2.23579e-08
0.000378319
-1.69595e-07
5.75489e-08
-0.00918814
2.00667e-06
-3.03962e-06
-2.81449e-05
-1.61885e-07
3.35957e-07
-0.000205654
0.000249905
6.00581e-07
4.28041e-06
-4.33884e-08
0.000265216
3.53943e-08
1.64275e-07
4.0186e-08
-1.15594e-07
2.07578e-07
-0.00233902
0.000695805
2.89363e-07
-1.53221e-05
-5.51042e-06
-0.000560013
-1.58565e-08
-1.21607e-06
0.00292259
0.00383448
-3.59268e-08
-1.40157e-06
3.03138e-05
-3.4199e-08
2.13583e-06
-3.09587e-08
-1.36848e-05
0.000725941
-3.77439e-06
-9.32373e-07
0.000223739
5.21114e-08
-1.14346e-05
-0.000494382
0.000267622
1.69495e-05
-1.99947e-05
1.21421e-07
0.000409082
0.000325055
-1.10847e-07
-2.07821e-07
0.00131576
1.6285e-06
-7.31396e-07
-0.00236499
-1.11812e-07
-2.90958e-07
2.61711e-06
1.16043e-08
0.000146196
0.000174907
-2.41833e-08
9.08362e-05
3.11084e-05
-2.13854e-07
-5.47602e-06
-0.000496375
5.72623e-05
0.000226409
4.22525e-06
-3.03503e-06
-6.56388e-05
-4.44413e-09
0.000153712
-3.40968e-05
-1.34446e-08
2.23569e-05
-8.09887e-08
-1.61345e-07
-0.000829301
-0.000314539
0.000133835
1.33545e-06
-4.47453e-07
1.13643e-08
-3.90509e-05
0.00138818
8.33361e-08
-9.62438e-06
3.96461e-05
-8.87017e-08
-2.17666e-07
-9.79065e-07
1.00848e-06
-2.08934e-05
3.3734e-07
-6.62146e-08
-3.46181e-06
7.87945e-06
0.00019535
-3.80843e-05
0.000556752
-6.06207e-06
-7.79942e-09
9.71643e-09
-3.28854e-05
7.94333e-06
3.34351e-05
-8.27699e-07
-1.73997e-05
1.8531e-06
7.48529e-08
-4.5011e-07
-0.000939505
-0.000100278
-8.84271e-07
-1.14635e-05
2.22442e-06
-7.23632e-08
-0.00127256
-2.75587e-05
-1.03674e-05
0.000205311
9.44812e-08
-0.000255645
-0.00535139
3.01827e-05
3.01009e-06
-4.83149e-07
-9.97144e-05
-2.81366e-07
-3.64135e-07
3.74369e-05
9.58996e-07
-2.96044e-05
-3.45257e-05
2.16584e-06
0.000133607
0.000333239
-2.19069e-08
0.00017933
-0.000766929
-9.6842e-08
6.10103e-07
1.75459e-05
-5.29154e-07
4.72078e-07
-3.22067e-06
-1.38334e-08
-9.76262e-05
-1.04444e-08
-8.15602e-08
0.00160151
-0.00634823
-1.51115e-08
-1.38978e-07
-4.96278e-06
-4.0379e-09
1.70695e-08
-5.95623e-07
-3.83016e-09
-1.70607e-08
-0.00159683
-3.87566e-08
1.61612e-09
3.30353e-05
1.3592e-08
0.000545597
1.61371e-07
-6.82508e-05
-1.61934e-07
0.000684141
-0.00887155
-2.84163e-08
0.00313326
-0.0056224
-1.23163e-06
9.62039e-08
-3.70401e-08
-1.49248e-05
4.05176e-08
-0.00312199
-1.94101e-08
-5.72979e-07
0.004283
-1.44496e-05
2.6922e-08
2.83411e-06
-4.61766e-06
-2.70813e-06
-3.3571e-09
-1.57628e-06
2.75865e-06
1.53981e-05
-0.000748408
7.04744e-07
-5.41856e-09
-8.71194e-05
-8.85739e-06
-6.80327e-09
-6.64486e-08
-7.47031e-05
1.864e-05
0.000360726
4.20123e-06
6.01398e-07
-0.000596496
-2.57702e-06
0.000449719
-7.42526e-05
5.60834e-07
-7.37354e-09
0.000807875
-2.52677e-06
1.11806e-07
0.000423633
0.00104758
-1.07048e-07
-7.53775e-08
1.1548e-06
8.91275e-06
-2.61535e-08
-1.05802e-06
0.00374326
4.00111e-06
1.69952e-09
0.00042107
-1.60534e-07
-1.25391e-06
-1.85845e-06
-0.000786196
-1.83056e-07
-9.07429e-05
-1.45802e-07
-6.409e-07
-2.35623e-07
-7.75385e-07
-1.41735e-07
0.000133438
0.000516599
-6.48917e-08
3.59554e-05
-1.38024e-07
1.23096e-07
-0.0044699
0.000639655
-2.65035e-07
0.000643768
-1.3799e-07
-8.9203e-08
3.17925e-08
0.000200155
3.3071e-05
-4.82814e-08
0.00046381
2.88593e-05
-0.000515601
-2.33207e-06
7.93242e-05
-1.48454e-05
4.43709e-08
-0.00107402
7.75155e-08
-3.19546e-07
-5.50821e-09
-6.25011e-05
0.000856248
-0.000589893
0.00339929
-1.84094e-08
-1.93359e-08
-2.0605e-08
-6.38218e-08
-1.74243e-06
2.51918e-08
-3.50303e-08
-2.9735e-08
0.000625442
2.79549e-09
1.05283e-09
-1.65599e-08
0.000969865
4.71699e-08
7.05283e-08
-1.529e-06
-0.000280682
2.6518e-09
-1.24002e-07
-3.60898e-07
0.00255363
-6.11066e-08
4.67289e-07
-6.9804e-07
3.93429e-07
-0.000681391
0.00278661
-4.57024e-07
0.00219759
0.000576915
-1.16285e-07
-2.67008e-08
-1.52482e-07
-3.98671e-07
5.5557e-06
2.4865e-07
5.49462e-08
-1.39846e-05
3.48364e-08
3.72002e-07
-1.46881e-06
-1.31011e-07
-1.87393e-08
-3.32743e-08
-4.95028e-07
1.33524e-09
4.52795e-07
-0.00024882
-0.000117782
-0.00461186
-0.0101519
-5.4598e-06
-6.21032e-08
3.74963e-06
0.00105021
-1.33765e-08
0.000146426
-4.4661e-06
-1.73752e-05
-5.03065e-09
0.000690191
2.45607e-07
0.00170858
-4.06602e-08
-2.82866e-08
-3.57459e-08
-7.91083e-07
-8.00038e-06
2.76629e-05
0.000323824
-0.00132791
-2.0802e-05
3.71741e-08
-2.73654e-07
-1.1553e-06
2.99612e-05
6.30847e-09
1.06398e-07
-0.000302039
-1.56567e-08
0.000815008
-4.87083e-07
2.06799e-06
-1.67605e-07
1.76675e-06
3.33731e-05
-1.61252e-08
2.3984e-05
0.000335915
0.000227302
8.73192e-08
-8.53293e-07
-5.98515e-05
-0.000200664
-0.000525116
1.40592e-08
1.95924e-06
-0.00775555
-7.52621e-05
0.000102095
2.96003e-08
9.31775e-09
-1.31394e-07
-2.5995e-08
0.000644557
-7.22442e-06
-5.73362e-08
4.11129e-07
-4.6532e-05
0.000375233
-0.00323045
9.47455e-07
0.00266411
-1.55148e-08
3.87425e-08
0.000296888
-3.58998e-07
2.51492e-06
2.0559e-06
-3.69427e-06
-3.78871e-06
-0.000715697
0.000369558
-0.000201711
6.9011e-05
0.00022803
-3.40709e-08
-1.63621e-06
-0.00033929
6.57339e-08
-1.56426e-08
0.000867215
0.00125045
3.35304e-06
-0.0047029
-2.24034e-08
-3.58065e-05
1.72833e-07
-0.00351256
1.04014e-07
-5.16431e-07
-0.000240754
-0.000472504
-1.19516e-05
6.84208e-05
-3.57143e-08
2.41541e-06
-1.42204e-06
1.77164e-06
-4.85713e-06
-0.00132117
0.00043101
-5.80044e-07
2.67049e-06
3.9202e-07
5.16914e-07
2.91438e-06
9.87525e-07
1.00596e-07
-3.98e-05
0.00549261
-1.0009e-07
9.43268e-06
1.03799e-06
2.89132e-08
-3.15005e-06
-6.22522e-07
1.73839e-08
0.00104007
3.31524e-06
3.22218e-07
-4.92535e-08
4.48938e-07
-5.16809e-05
2.84198e-06
-3.1673e-08
-3.59315e-09
6.1163e-09
3.50338e-07
9.32568e-05
-0.00381742
7.73446e-07
-8.39933e-06
-4.71334e-07
3.60152e-06
0.000648222
1.88288e-07
-4.14119e-05
-1.13758e-08
0.000464819
-8.18057e-06
7.62696e-07
1.0154e-07
-1.66074e-06
1.9254e-07
3.79404e-07
0.000185322
8.89927e-06
3.00538e-05
-7.36417e-09
1.03104e-08
-1.36562e-05
0.000709357
3.81291e-05
-0.00971218
9.08924e-07
-6.02096e-07
2.66781e-06
-8.84756e-06
-3.98758e-08
-3.11172e-05
-2.78146e-05
4.18359e-07
4.50135e-06
1.89949e-08
-1.55244e-07
-9.2338e-09
2.69292e-06
-0.000423218
-0.00065017
-5.51931e-09
-6.73085e-10
-7.12035e-05
-0.000195022
0.000354739
-0.00151731
0.000344019
5.20749e-07
3.55004e-06
2.17761e-08
-2.31353e-08
-9.38907e-09
1.26823e-08
-1.87578e-05
-1.36467e-06
-1.47583e-07
-5.94287e-05
-5.44089e-08
0.00318125
-1.75106e-09
2.60885e-05
-0.00135237
-4.89911e-07
-1.27566e-06
0.000165159
-1.51901e-05
4.69259e-05
-1.49023e-05
0.00145803
2.72622e-05
8.80815e-07
0.000435101
-2.95535e-05
-1.58515e-09
-1.23316e-08
3.28541e-05
1.1477e-08
1.05549e-06
-1.16101e-06
-2.52138e-09
1.50236e-07
0.000620891
-3.09678e-07
-7.04783e-06
3.30004e-06
-2.10341e-06
0.000145364
-0.00419752
-1.47594e-06
0.000212638
-3.66698e-06
-0.00368058
-1.84441e-05
0.000985762
3.58732e-07
-3.60186e-05
-7.96117e-05
2.24464e-06
6.4841e-07
-0.00273916
1.52065e-06
0.000561033
-0.00124274
-4.88611e-05
-1.04597e-06
-7.95751e-07
-9.85204e-07
6.09663e-05
-0.000761282
0.000111151
-8.83675e-07
-1.88637e-06
-4.08096e-07
-0.00015578
1.11955e-05
-0.00516989
0.00356728
-0.000136883
0.000175849
-3.93289e-05
-2.01605e-08
6.51529e-05
-3.13364e-05
-8.23196e-05
1.80474e-06
-4.49835e-06
2.20736e-06
-6.50361e-07
-6.24146e-09
-2.33112e-08
1.28268e-06
3.1564e-05
-0.00473005
-7.91194e-08
1.13828e-06
-4.31213e-07
6.83599e-05
-2.70359e-05
-1.02162e-08
2.57852e-05
3.03447e-05
0.000920027
-1.24401e-07
-8.698e-07
-5.2138e-08
-3.22631e-06
0.00481013
-3.43627e-05
1.04417e-07
8.6551e-08
0.000256939
-3.97577e-07
0.000188142
-2.41212e-07
0.000399563
-1.21633e-05
1.46991e-09
-1.00264e-07
-9.95731e-06
1.11903e-07
3.81439e-09
3.53285e-05
-7.44748e-05
2.13246e-07
0.0005473
1.31265e-05
-1.05739e-05
7.91663e-05
-0.000102407
2.38555e-06
0.00144078
-0.000358186
-1.14699e-05
3.1405e-05
-2.64165e-05
1.53572e-06
2.73179e-06
-1.6952e-08
-1.05276e-07
-0.000175147
-4.16069e-05
2.35053e-05
1.79908e-08
-4.51267e-06
7.23172e-05
-1.1412e-06
1.76507e-07
8.53173e-09
-9.20358e-05
-1.95489e-08
0.000324576
2.98076e-05
0.000769216
-1.65672e-05
3.22674e-07
-5.9902e-06
-3.68167e-05
0.00676597
-5.73596e-08
-3.24765e-08
-6.04277e-09
-3.73029e-05
2.25117e-07
-9.42464e-07
2.50204e-07
0.00176982
-4.11632e-06
-1.29175e-05
-2.10078e-05
-0.00542907
2.50107e-05
3.19095e-06
9.29915e-07
2.35003e-07
-8.42948e-05
2.37446e-07
-0.00992549
-1.06587e-07
8.83292e-06
1.57484e-06
1.15962e-08
-2.57727e-05
-1.17215e-08
0.00167872
8.13022e-06
-0.000403641
-4.72601e-10
-6.96871e-06
3.31763e-07
-3.52639e-05
0.00246927
1.52043e-06
-1.61516e-06
-6.42191e-09
0.000130979
-0.000399419
-2.12554e-05
3.25208e-05
-1.14441e-06
-3.2548e-06
-8.38234e-05
-1.37093e-08
0.000158049
-1.54655e-08
5.16577e-05
2.74292e-07
7.15555e-06
8.06953e-08
2.91744e-05
-0.00494468
-1.53222e-05
9.75909e-08
-9.45968e-09
1.25063e-05
-8.15499e-07
-1.24738e-06
6.78207e-07
4.96042e-06
8.9765e-06
-2.42936e-08
-1.65273e-07
3.08397e-06
-9.87672e-05
3.50835e-06
-0.00241494
3.29645e-06
8.43227e-07
-0.00010284
-2.70167e-05
8.2966e-08
-2.70098e-06
-2.66065e-08
-4.46513e-05
-1.80735e-05
5.72016e-07
2.18619e-08
4.74188e-05
3.11955e-06
-1.50017e-06
-2.49458e-05
-5.90089e-07
-2.08982e-08
9.91896e-07
6.60651e-07
-0.000477693
3.03048e-05
-2.11256e-08
-1.45507e-07
0.000942234
-2.01659e-06
-1.69915e-08
-1.51111e-07
-7.9635e-06
1.13997e-07
-1.97228e-06
6.38101e-08
2.71368e-08
-1.00915e-05
7.50786e-07
-3.2928e-05
5.23774e-08
-0.0057225
5.01526e-06
1.06399e-06
-8.43483e-07
0.000183176
3.8883e-08
2.88534e-07
3.31787e-05
4.9234e-06
1.31765e-06
2.65713e-05
2.92694e-07
3.06692e-05
-1.58625e-07
9.66236e-07
1.21249e-06
2.63293e-05
-2.86027e-07
-0.000133349
0.000420133
0.000275654
9.72638e-05
-0.000788186
-9.68773e-07
3.89275e-05
1.12025e-05
-1.06241e-05
-1.04381e-05
-6.42869e-07
-3.97983e-05
1.27092e-07
0.000183904
0.0019628
-5.16095e-07
-4.23686e-06
0.00039865
-2.11717e-07
-1.47673e-07
-6.18955e-06
5.04879e-05
-7.05344e-08
-5.76195e-05
1.33005e-09
-2.67809e-08
-0.00788473
-9.07329e-05
-1.35499e-08
1.21759e-06
3.00146e-07
-3.79026e-05
-1.19193e-06
3.1178e-05
-0.000943343
1.40417e-06
-2.32132e-07
-2.10895e-07
-3.38427e-05
-2.39104e-06
2.93354e-05
0.00115771
8.92442e-08
1.95716e-06
-0.000158847
-1.75302e-07
-2.89579e-05
-4.32285e-08
-6.27238e-07
0.00388196
-8.84495e-07
-7.27634e-06
-1.20888e-05
0.000419446
4.88621e-08
0.000183551
4.40062e-05
-1.30214e-07
-1.25758e-07
0.0034168
0.00013209
4.47042e-08
-4.47347e-06
-1.62106e-05
3.65044e-10
-8.77366e-05
-1.16496e-05
0.000158405
0.000463015
7.60163e-07
-3.43429e-09
6.3227e-09
-3.45645e-08
-0.000825767
5.9466e-07
3.25151e-05
-9.57377e-08
-1.30201e-05
-1.30064e-08
2.45321e-05
0.00416064
8.169e-08
1.53224e-06
7.81654e-06
3.01619e-06
-5.97545e-06
0.000135818
8.38202e-07
-3.57607e-08
2.55399e-05
-4.79706e-07
-7.16126e-05
0.00102723
-8.53805e-05
-1.711e-05
3.16734e-05
3.0103e-05
1.1239e-06
0.000156379
-8.59066e-05
-0.00010147
-4.29288e-08
0.00121966
-6.16522e-08
2.50096e-08
-1.98496e-06
0.000170706
-1.564e-05
-2.92478e-07
-7.69719e-07
1.3337e-06
7.32901e-08
-1.86555e-08
1.27171e-08
-2.23048e-05
1.84818e-08
-2.76624e-05
0.000217653
-7.09424e-05
-8.01403e-06
-8.82301e-08
-0.00215592
-3.81725e-05
1.87671e-06
0.00127883
6.85388e-09
1.97658e-08
1.32091e-08
-1.06858e-06
3.65771e-05
-7.88497e-06
0.000269947
-1.55598e-05
5.36145e-08
1.77136e-08
-6.77507e-05
-6.36572e-08
-1.51473e-06
-6.48443e-08
-2.87459e-05
3.11839e-05
-1.20701e-05
-6.66252e-07
2.75219e-08
-9.34895e-08
-9.21563e-07
-1.86778e-08
9.82389e-08
0.000526313
-1.24908e-07
3.72981e-05
-0.00183924
1.71026e-06
-3.01087e-06
-1.55589e-05
-1.42694e-05
-1.221e-07
-1.95622e-06
-1.31256e-06
0.00150765
-8.4137e-05
1.52054e-06
-1.46737e-05
-7.3016e-08
-2.51378e-08
-0.00218024
-8.41522e-05
-6.2072e-07
3.68914e-05
-6.37547e-09
7.31758e-07
2.18049e-07
-3.2311e-06
2.96318e-05
6.93124e-08
-1.33342e-08
4.90284e-06
-0.000640466
2.23772e-07
2.9223e-05
-0.0001015
7.25762e-07
2.97841e-07
-1.38566e-07
2.44947e-07
-2.71413e-06
-0.000146787
1.04421e-07
-4.38866e-05
-7.20131e-05
-1.61925e-05
0.000217782
-5.86835e-08
-3.33778e-08
-2.4214e-06
0.000314403
4.63518e-05
-8.70972e-06
-2.83947e-08
-0.000698116
0.000159695
0.000309309
-4.64531e-05
-1.57578e-06
-1.7506e-07
0.000196689
0.00245414
-1.2193e-05
3.85293e-08
6.15776e-07
-0.000101394
-1.9153e-08
7.34087e-07
-8.36947e-05
-3.05516e-06
-3.22725e-07
-1.57611e-05
-5.02289e-08
1.29575e-06
-5.86408e-08
0.000467577
0.000865229
0.000734226
-9.05115e-05
4.13323e-05
-1.28165e-05
-4.31042e-05
-1.91653e-07
-0.000265012
-2.97493e-08
0.000145954
0.000386943
-1.00163e-05
-1.28901e-05
-0.00455249
-2.0507e-06
-5.51278e-06
1.69982e-05
2.29532e-05
0.00043008
-4.79733e-05
3.0859e-06
0.00102955
-4.68115e-05
-0.00116426
2.76389e-06
3.2851e-06
-5.10909e-08
-8.8559e-08
-4.38796e-06
-6.89897e-06
-5.43991e-07
0.000507508
2.79743e-07
4.68035e-06
-0.000116454
4.1677e-06
5.17314e-08
3.28916e-05
4.26486e-05
8.44088e-07
1.38572e-05
-0.000319673
-1.01103e-05
-1.06123e-06
-7.74669e-05
-6.05563e-07
4.26204e-08
-4.65218e-08
-1.46135e-05
-5.53178e-06
-1.69746e-05
-2.84298e-07
-9.56739e-08
0.0006999
-5.237e-05
-4.4474e-08
-2.971e-08
-0.000103074
-1.28184e-06
-0.000323606
0.00220348
-4.12131e-08
0.000477697
0.000208157
-3.49586e-07
-5.11106e-05
-1.52193e-05
0.000590118
6.15945e-05
-1.51403e-06
9.99677e-05
2.46131e-07
3.10263e-07
3.7833e-06
-1.69252e-07
4.56991e-05
-1.43191e-05
2.946e-06
-3.55763e-05
0.000147391
-3.75537e-06
-2.49608e-08
1.05562e-06
-4.78334e-05
3.06383e-07
0.000931549
-8.48483e-08
-4.59689e-06
-4.2446e-05
-1.09262e-05
-1.68312e-05
-0.00271891
-9.6127e-05
-7.60829e-09
-8.33351e-07
0.000125632
-0.000940564
-8.59465e-07
1.0733e-06
-1.46996e-05
1.087e-06
6.07553e-07
-2.72512e-06
-2.38579e-07
0.000202553
1.85765e-07
2.35522e-05
-4.77585e-05
2.55795e-05
-1.99645e-06
1.37131e-07
-3.27777e-06
-1.20251e-08
6.89087e-07
0.00070979
4.75953e-08
-6.5686e-05
-1.49431e-05
-2.14088e-08
-2.9665e-07
4.16109e-05
-6.01497e-06
3.91359e-06
-6.13069e-06
-7.96997e-07
0.000274613
5.85975e-07
-1.51307e-05
-1.49489e-05
0.00486329
-1.51695e-05
0.0005016
0.000492398
-1.13609e-05
0.00119136
-6.44551e-07
1.57422e-06
-6.41223e-06
0.000345966
-5.78734e-08
0.000632893
0.000189138
3.72467e-07
4.65302e-07
0.002296
2.3517e-05
0.000282063
0.00236067
-2.10986e-05
3.0717e-07
5.6931e-08
-1.73147e-09
0.00190671
2.2274e-07
0.000158707
3.43167e-07
-0.000353076
-1.41774e-05
-5.57906e-09
4.88843e-07
0.00156873
-3.00144e-06
0.000822388
1.06088e-06
-8.08267e-08
1.47877e-06
3.31928e-07
-2.17381e-08
1.25091e-05
-9.499e-08
3.70687e-06
1.36982e-06
-1.4916e-05
3.77852e-06
2.76475e-06
7.05407e-07
-2.32906e-07
6.25829e-08
-2.86946e-05
0.00022565
-0.000257748
0.000296072
-0.000506987
0.000102003
-5.81084e-06
0.000405453
-0.00131409
-5.33456e-05
1.12939e-05
-0.000130356
4.6347e-05
-4.45484e-08
-6.8089e-05
-5.74802e-06
3.96397e-08
0.00321385
9.2088e-05
-2.79616e-06
-3.04097e-05
0.0056343
-2.27301e-08
3.68079e-06
0.000925782
-3.1624e-07
0.000251694
2.44956e-05
-4.26388e-08
0.000694534
1.5787e-05
3.81243e-06
5.313e-06
-0.000242574
-1.89961e-05
3.44052e-08
0.000302756
-1.73372e-05
7.42073e-08
-1.56286e-05
-9.86464e-06
1.57835e-07
-2.13143e-05
-1.49306e-08
0.000206713
0.00306028
1.95567e-06
3.51703e-05
-2.77037e-09
2.93462e-08
1.14481e-06
1.6344e-05
2.52442e-06
-0.000351399
-1.34011e-05
-6.33186e-07
-8.94905e-07
0.000400204
-2.16175e-05
-8.66809e-05
-2.83945e-06
-0.00124761
4.71362e-07
-5.21711e-08
-4.63671e-05
1.63978e-05
-5.08236e-05
7.7362e-07
3.52867e-06
4.23879e-07
-7.35875e-06
-3.98187e-06
-0.00190974
0.00097609
-0.000466921
-2.01755e-05
-3.22037e-05
0.00196094
0.000632847
0.00434826
0.000656485
6.90329e-06
-3.07168e-05
-1.36015e-08
-3.44998e-05
-0.000493511
3.43372e-06
-1.68211e-08
2.88943e-05
0.000307429
-8.38704e-05
-0.000286084
6.81181e-07
0.00133405
-5.11619e-05
-0.00102823
-1.66339e-06
-1.17684e-05
-0.00365664
0.000910846
1.27821e-06
-1.42884e-05
1.37281e-07
5.41284e-08
1.01229e-06
0.000154101
-2.33943e-06
-2.53405e-08
4.65034e-06
0.00348498
-3.24174e-08
2.93113e-08
-1.45455e-05
-1.94291e-05
-2.3928e-07
-8.12123e-07
0.000130563
1.52137e-08
-1.96134e-05
-1.32772e-05
-1.30822e-08
0.000178948
1.6257e-06
-6.32963e-07
0.000178711
2.65787e-08
3.90339e-06
3.23844e-06
0.000242554
0.000210915
0.000768755
-1.01962e-06
-1.11742e-05
-3.48388e-07
2.38218e-06
-0.000796343
-8.97648e-06
1.96123e-06
0.000445087
0.00339932
0.00444847
-7.51728e-06
-1.09317e-05
7.28022e-05
-0.00367062
3.93299e-06
4.97903e-06
3.93457e-06
1.17808e-07
5.04018e-06
-4.76692e-06
-6.58038e-08
-5.64927e-06
-9.3919e-07
-1.15035e-07
-3.5442e-06
1.66003e-07
9.48107e-07
1.54107e-06
-2.30895e-08
2.519e-06