/*--------------------------------*- C++ -*----------------------------------*\
| =========                 |                                                 |
| \\      /  F ield         | OpenFOAM: The Open Source CFD Toolbox           |
|  \\    /   O peration     | Version:  v2012                                 |
|   \\  /    A nd           | Website:  www.openfoam.com                      |
|    \\/     M anipulation  |                                                 |
\*---------------------------------------------------------------------------*/
FoamFile
{
    version     2.0;
    format      ascii;
    class       volScalarField;
    location    "150";
    object      k_0;
}
// * * * * * * * * * * * * * * * * * * * * * * * * * * * * * * * * * * * * * //

dimensions      [0 2 -2 0 0 0 0];


internalField   nonuniform List<scalar> 
13726
(
0.000160359
0.0212828
0.00015743
0.000165657
0.000210071
0.000176205
0.000160841
0.000157982
0.000214558
0.000181583
0.000211748
0.000150829
0.00015053
0.0422239
0.000165016
0.000157081
0.000216381
0.000164853
0.0556194
0.000675828
0.0643694
0.000135748
0.000158138
0.000157774
0.000137976
0.00014322
0.000173254
0.000143213
0.000137564
0.0155623
0.0772329
0.00015115
0.0516151
0.000180931
0.0123553
0.0427869
0.000166644
0.023473
0.000158456
0.000160426
0.000222472
0.0132315
0.000150511
0.000156576
0.000150836
0.000156664
0.00547582
0.000147994
0.000193495
0.000146173
0.0505555
0.000148435
0.0003938
0.000164759
0.000159292
0.000171152
0.000405651
0.00052333
0.000173549
0.000155802
0.041813
0.000156442
0.0307161
0.00013555
0.0163493
0.000147795
0.0614692
0.0453886
0.000149332
0.000215482
0.00457355
0.000157795
0.000156612
0.000152862
0.0550166
0.0465723
0.000216774
0.0607637
0.05321
0.00020523
0.000192895
0.000191187
0.00020632
0.000153809
0.000158983
0.0340801
0.000212172
0.000155581
0.000151727
0.066252
0.000144454
0.000213346
0.000156284
0.000159239
0.0278208
0.0493042
0.000188939
0.000150893
0.000156714
0.0203653
0.000156651
0.000182664
0.000277343
0.000143185
0.000534434
0.000215092
0.000205753
0.000153495
0.000160239
0.000188173
0.000190078
0.00014329
0.071443
0.060043
0.0559956
0.00015953
0.0135765
0.0776477
0.000279376
0.000156911
0.00762083
0.000157891
0.000157185
0.054607
0.0701896
0.0267058
0.000157276
0.000557714
0.00014329
0.000175636
0.041888
0.0533997
0.000175939
0.000192731
0.0392681
0.000208888
0.0186604
0.00302836
0.02195
0.0321353
0.000200034
0.0402711
0.000153636
0.000146874
0.000175828
0.000166801
0.0639379
0.000157826
0.000155739
0.0538786
0.000157777
0.000156059
0.000192832
0.000157404
0.00014872
0.00016957
0.000163629
0.00530462
0.0274949
0.000139722
0.000148688
0.00015302
0.032153
0.0465194
0.000145537
0.000889077
0.0315273
0.000161452
0.000155871
0.000146071
0.000457049
0.000168494
0.00824412
0.00015951
0.061871
0.000387038
0.000146168
0.0751798
0.0725062
0.000155267
0.0673566
0.000151353
0.0292554
0.0187121
0.000146554
0.000153092
0.000154594
0.000155645
0.000158028
0.000164185
0.0576678
0.0023134
0.016998
0.0179734
0.000157108
0.00014626
0.000159384
0.0384178
0.00306026
0.00016846
0.0188157
0.00318243
0.0196037
0.000179137
0.000153725
0.000153935
0.000157002
0.0298016
0.00015656
0.000196268
0.000211631
0.0286343
0.0176349
0.000134735
0.0624972
0.053749
0.000158245
0.000151095
0.000165938
0.0690283
0.000159231
0.000176011
0.000200817
0.0437035
0.000152304
0.0418055
0.0180538
0.0626165
0.0646638
0.000154912
0.0332853
0.0218485
0.0655346
0.0619609
0.000153247
0.000148769
0.0236064
0.0793426
0.015584
0.0688895
0.00014309
0.000159419
0.000153678
0.0452229
0.000170968
0.0578531
0.000173954
0.000176218
0.000153081
0.000209325
0.0703074
0.000153256
0.0674438
0.000174949
0.000196642
0.000784273
0.000157538
0.0695231
0.0454227
0.000174165
0.00117494
0.0238905
0.000184197
0.000152412
0.0492456
0.0776748
0.000156644
0.000149041
0.000139047
0.000198382
0.0112658
0.000174864
0.0703516
0.000178446
0.0349325
0.044614
0.0555104
0.0157703
0.000156845
0.000152147
0.0309717
0.000159699
0.0260937
0.000176508
0.0426564
0.000155616
0.0294209
0.00573731
0.000174283
0.000147216
0.0249456
0.000176179
0.000137963
0.0445653
0.0306614
0.000158699
0.000130044
0.000153684
0.0572187
0.000146338
0.00623328
0.0478097
0.000199042
0.000147643
0.000506563
0.0126699
0.0209556
0.0680225
0.0128883
0.000167967
0.0651327
0.00111857
0.0777796
0.0101612
0.000155802
0.012142
0.00015377
0.0336067
0.0692994
0.0318125
0.0526187
0.000206297
0.000151631
0.000113685
0.000515535
0.000175599
0.000147534
0.030459
0.000146248
0.0306031
0.000300462
0.0186445
0.000159268
0.000177497
0.000198296
0.000146434
0.000159954
0.000172318
0.000162986
0.000190875
0.0106652
0.0439103
0.0633855
0.0304501
0.0148157
0.000206189
0.000170065
0.000197573
0.000333387
0.000152304
0.0390417
0.0443065
0.051387
0.000160469
0.000166692
0.000155156
0.000155988
0.0257203
0.000165059
0.000159613
0.000159205
0.000175727
0.0213411
0.000156421
0.000181303
0.066516
0.0729062
0.000157295
0.000163081
0.000162356
0.000124616
0.000150281
0.000158521
0.000166061
0.00331557
0.000164289
0.000138364
0.0716968
0.000190863
0.000207279
0.000152765
0.000154971
0.000156412
0.0431049
0.0723903
0.0761126
0.0663976
0.000176234
0.000157954
0.000166284
0.000154177
0.000146369
0.000157168
0.000157471
0.000150391
0.000166278
0.0647591
0.0436175
0.000185266
0.000153447
0.000154409
0.000153868
0.000161057
0.000189134
0.000156035
0.000176591
0.000166306
0.000156404
0.0717793
0.00979258
0.0266544
0.000163439
0.0557932
0.0639467
0.000569123
0.000155857
0.068918
0.0353262
0.0265539
0.049287
0.066235
0.0102449
0.000134696
0.000201384
0.028189
0.000182644
0.0276917
0.000153709
0.000152009
0.000191258
0.0746739
0.0694609
0.0491174
0.0679872
0.000162118
0.00018269
0.000155261
0.0001801
0.00016976
0.000202348
0.000157766
0.0277254
0.000168009
0.052681
0.00039879
0.000156967
0.0338017
0.000140381
0.000147547
0.000211342
0.000181003
0.0393439
0.0498757
0.000150126
0.0381056
0.000148305
0.0693283
0.0361169
0.000148511
0.0001572
0.000175589
0.060644
0.000180506
0.0493599
0.000300888
0.000162438
0.0684612
0.0332307
0.000151253
0.072633
0.000190708
0.000144016
0.000163509
0.000154308
0.0565651
0.000145277
0.0154707
0.000962937
0.0447379
0.000189609
0.00301395
0.000153856
0.000144121
0.0306699
0.000137438
0.000169016
0.000152893
0.000164628
0.0465166
0.0578095
0.000163423
0.000215226
0.000255595
0.0486214
0.0432248
0.000171291
0.000164793
0.0577833
0.0382142
0.000144249
0.000150941
0.00275568
0.000248137
0.000198577
0.000167254
0.000143747
0.0438213
0.0232167
0.000152573
0.000153246
0.000153024
0.0321235
0.000148433
0.000193006
0.000144301
0.0361851
0.000214229
0.00015842
0.000171297
0.00017236
0.000156828
0.00019735
0.0306657
0.0104088
0.000202189
0.000198696
0.0540415
0.000208771
0.000135144
0.00351576
0.000191041
0.000181594
0.0574365
0.000153509
0.0714161
0.000183483
0.000177909
0.0432977
0.000183243
0.000159098
0.0262405
0.000151042
0.000347333
0.000162192
0.00021586
0.0316726
0.000175529
0.000142303
0.00279099
0.000146452
0.000147312
0.00323125
0.000163958
0.0511408
0.000153071
0.000185268
0.000153768
0.048429
0.0489216
0.0499757
0.0158355
0.000179254
0.0589927
0.000157108
0.075291
0.00289226
0.000189229
0.000157126
0.060033
0.000187071
0.0710869
0.000146611
0.000151846
0.069208
0.000155974
0.032472
0.000185796
0.000168364
0.00020607
0.000169404
0.0484027
0.0280976
0.000164962
0.000150952
0.00199331
0.000147303
0.0564573
0.00267382
0.000145579
0.0414904
0.000162275
0.000188854
0.000163991
0.000157817
0.0313005
0.000158177
0.0695744
0.000157403
0.000250174
0.0484416
0.000176949
0.000144357
0.000158642
0.000155255
0.000157219
0.0555656
0.0694753
0.0221951
0.000153944
0.0022934
0.0560817
0.057222
0.000177917
0.0274934
0.0287528
0.00016758
0.000154424
0.000144363
0.0648585
0.000165482
0.000151096
0.000179904
0.0652493
0.0623272
0.00020016
0.000144115
0.000167364
0.000199351
0.000143736
0.000176621
0.0473548
0.000184899
0.05345
0.000151895
0.0303465
0.000184726
0.000143536
0.0148557
0.0194876
0.000153431
0.0014346
0.000156008
0.000181846
0.0254149
0.00020817
0.0660089
0.000159404
0.000135428
0.0304235
0.000167955
0.000217024
0.000177602
0.067388
0.000138166
0.0215409
0.000170979
0.00014514
0.000157514
0.0461415
0.000138155
0.000146573
0.000154057
0.00277338
0.0104487
0.000346066
0.000150634
0.000176352
0.059871
0.0603521
0.000152427
0.0466768
0.000216642
0.0638989
0.0475619
0.000218274
0.000195923
0.00138088
0.00014432
0.00015185
0.0696656
0.000171738
0.000170753
0.00109805
0.00186494
0.000147063
0.000155459
0.000157392
0.000160227
0.0732343
0.000193722
0.000146664
0.000172455
0.000155851
0.00015631
0.000157186
0.000157047
0.00015862
0.076225
0.000153506
0.000178892
0.000316003
0.00015246
0.000149756
0.00019137
0.000158999
0.00020077
0.000172146
0.0581448
0.000151777
0.0475567
0.000148371
0.0552887
0.0390092
0.000192595
0.000163014
0.00016609
0.000151837
0.00015259
0.000182265
0.000278007
0.000152167
0.0741612
0.0780538
0.00185
0.0414673
0.000153777
0.0177994
0.000151274
0.000149299
0.000144657
0.000156245
0.0179841
0.000184245
0.0681246
0.000177649
0.00104125
0.0734033
0.00243836
0.00104715
0.000191979
0.00016213
0.000154881
0.000155521
0.000269832
0.0569425
0.0659254
0.000193829
0.000157709
0.000144502
0.0709112
0.000156472
0.000154209
0.000153191
0.000157637
0.0435399
0.000210905
0.00019474
0.00016278
0.026831
0.0313689
0.000154791
0.0250504
0.00114954
0.00015416
0.0701264
0.0469221
0.0492909
0.000155248
0.000200517
0.0452529
0.000146378
0.0250796
0.000177391
0.000196856
0.000291464
0.000155834
0.000216078
0.0301359
0.000147507
0.000153898
0.000156397
0.000741427
0.000142287
0.0524895
0.0154792
0.000142792
0.000136572
0.000152983
0.059361
0.000145823
0.0126583
0.0622943
0.0776102
0.0207543
0.047524
0.0686006
0.0587107
0.000157444
0.000154466
0.0650045
0.000146094
0.0464547
0.0559056
0.0416369
0.000143308
0.000160646
0.000151165
0.00625167
0.00015018
0.0552354
0.00530965
0.00288005
0.0651295
0.000112227
0.0448123
0.000217364
0.0685629
0.000179857
0.0478008
0.000159643
0.000222882
0.000155243
0.000271845
0.000168596
0.000190347
0.000170178
0.000154057
0.00015673
0.0574355
0.000147526
0.000154291
0.0305254
0.000248635
0.000151089
0.000153246
0.0168366
0.000152897
0.000179997
0.000199235
0.000141465
0.000180535
0.000147689
0.0557529
0.000150813
0.000140683
0.000179298
0.021083
0.00015339
0.000170762
0.0572699
0.0236053
0.000188928
0.00014434
0.0547743
0.0507501
0.0263162
0.000217164
0.0333468
0.000148584
0.000171806
0.000197998
0.000139644
0.000162657
0.0230997
0.000191533
0.0446309
0.000152012
0.000213612
0.000153257
0.00018352
0.0195235
0.026954
0.000142517
0.000156446
0.000203306
0.000187837
0.000146148
0.000151504
0.0548801
0.0467424
0.000184387
0.000150099
0.000170794
0.000143928
0.0480879
0.000165119
0.000143668
0.027511
0.00018037
0.000210688
0.000160176
0.0809882
0.00215485
0.000156976
0.000146384
0.0177838
0.008262
0.00014885
0.0262089
0.0318513
0.0502358
0.0668248
0.0678394
0.0257978
0.000723825
0.00237178
0.000152265
0.000149865
0.0536584
0.000151419
0.0530328
0.000151916
0.0169547
0.0404089
0.00016768
0.0636686
0.0194163
0.0202123
0.000160929
0.000151566
0.000142815
0.000213189
0.021781
0.000154253
0.0592518
0.000173383
0.014778
0.000194508
0.00143453
0.00401767
0.00014922
0.00821271
0.000179784
0.000147429
0.000153202
0.0632937
0.000188875
0.000153784
0.0691528
0.00014978
0.00464802
0.000150182
0.0153274
0.0561398
0.0522885
0.000158901
0.000149625
0.000183663
0.000155168
0.0560084
0.048793
0.000152927
0.000199926
0.000196785
0.0357882
0.00203814
0.000153806
0.0164188
0.000160879
0.000152167
0.0554218
0.0536693
0.053848
0.000160663
0.0756705
0.000185735
0.0488265
0.000595955
0.0208146
0.0604933
0.000167634
0.016233
0.0517919
0.0697053
0.0457047
0.000147182
0.0690155
0.000196992
0.000198859
0.000256204
0.000150905
0.00789478
0.000151354
0.0735632
0.0516997
0.0180262
0.0433601
0.0310288
0.0598102
0.059482
0.0634879
0.000157436
0.00855333
0.000142227
0.0314421
0.0260431
0.000143723
0.0254699
0.000148436
0.000150691
0.000154301
0.000145846
0.0767793
0.0191142
0.000152612
0.000164792
0.00418444
0.0293583
0.000168495
0.000201703
0.0164596
0.000144957
0.000168723
0.000157429
0.023108
0.00022831
0.000153918
0.00353118
0.000158535
0.00782558
0.046956
0.000149865
0.0626386
0.000159216
0.0595962
0.0329698
0.0577135
0.000156571
0.00147589
0.00017628
0.0517258
0.000164031
0.00129222
0.000144997
0.000143424
0.047109
0.000159603
0.000145302
0.0104444
0.000184164
0.000177138
0.0456254
0.000156985
0.000160191
0.0161511
0.0670848
0.000174837
0.0193612
0.000143828
0.080417
0.000159628
0.000156024
0.000156572
0.000143747
0.000152077
0.00102768
0.044618
0.000153255
0.0319716
0.00017018
0.0384953
0.000143942
0.000157566
0.0057325
0.00753011
0.000150781
0.000155931
0.0275764
0.000148131
0.000201661
0.000148043
0.0293796
0.00585595
0.000187169
0.000209148
0.0706238
0.000135284
0.000180776
0.000887872
0.0625039
0.000164442
0.0444043
0.00015187
0.069077
0.0621153
0.000148887
0.000167819
0.0427278
0.0001992
0.000155819
0.00531732
0.000183674
0.00015569
0.000197576
0.000151999
0.0118296
0.00117123
0.000143373
0.0758671
0.0280524
0.000151136
0.000197142
0.0267586
0.058682
0.0132141
0.000206429
0.000168932
0.0697695
0.000154177
0.000295246
0.0530007
0.000143633
0.0251073
0.000155376
0.000152895
0.0541578
0.000426051
0.00588371
0.000196742
0.000158244
0.000140546
0.0530369
0.0150571
0.000152338
0.000151449
0.0483319
0.000148803
0.000168704
0.000162999
0.000165086
0.0467132
0.000161243
0.000147476
0.000189258
0.000198236
0.0543819
0.074085
0.0655712
0.00019727
0.000136593
0.000147298
0.0469439
0.000219556
0.0444159
0.000193187
0.000199617
0.000165172
0.000150937
0.000167553
0.000668646
0.0746819
0.000160801
0.0273967
0.075441
0.000142807
0.0576835
0.0416745
0.0251451
0.0154178
0.000138627
0.0168881
0.00352674
0.0260737
0.000166892
0.000181745
0.0734213
0.00015572
0.000155913
0.0780897
0.000207403
0.0463756
0.0484479
0.000200184
0.0504167
0.0679622
0.000149061
0.0540532
0.00575842
0.000151693
0.000165471
0.0412216
0.000154969
0.000157818
0.000152744
0.000146286
0.0758027
0.000146015
0.000209691
0.0151809
0.00733739
0.000154027
0.000181858
0.068152
0.000137628
0.000152664
0.000161565
0.000153901
0.000175797
0.0600559
0.00015069
0.000146582
0.0232139
0.000145197
0.0679202
0.000153912
0.0776767
0.000168188
0.060361
0.0114612
0.000152887
0.04335
0.00934614
0.000169785
0.000158731
0.000149852
0.0318864
0.000148781
0.00445995
0.000151093
0.000164861
0.00201892
0.0329982
0.000148483
0.00016933
0.000159069
0.000197864
0.000146283
0.000177037
0.000163528
0.0744511
0.00298571
0.000165127
0.000155071
0.0708959
0.02052
0.000145983
0.000142168
0.0692426
0.0239328
0.0738318
0.000174809
0.000178062
0.00134105
0.000191822
0.0655171
0.0772079
0.000157852
0.000147445
0.0439164
0.000211254
0.000154816
0.0740856
0.0338443
0.0751161
0.000144753
0.000195818
0.000203754
0.000158484
0.0001557
0.002223
0.000180362
0.000148702
0.0524293
0.00014695
0.000157952
0.000189208
0.00788882
0.000157355
0.0764138
0.000154024
0.000165763
0.000160839
0.00016159
0.000152159
0.0633999
0.0564301
0.00015102
0.0350387
0.000151929
0.000145352
0.03064
0.065534
0.000149624
0.0598293
0.00016478
0.000152878
0.000146297
0.0525966
0.0293897
0.000136739
0.0663883
0.0628994
0.042516
0.000185676
0.0738593
0.0328535
0.000162418
0.000703927
0.000151257
0.000154257
0.00014591
0.0662219
0.0508657
0.0425423
0.00113789
0.00014198
0.000148143
0.000150647
0.000179307
0.000165731
0.000136287
0.00014867
0.000153533
0.0462856
0.000142633
0.000146077
0.000135703
0.0330214
0.000151203
0.000137449
0.000158348
0.0509386
0.000155354
0.000159704
0.000181872
0.00352999
0.000156077
0.000197662
0.000185327
0.00017633
0.000230441
0.00744713
0.000165784
0.00367994
0.0526052
0.000167049
0.000146826
0.000155139
0.000163117
0.000201404
0.000178433
0.000153857
0.0319441
0.000136629
0.000174345
0.000171576
0.000153404
0.000146703
0.000145686
0.000173783
0.000152498
0.000211157
0.000792509
0.0390081
0.0123444
0.00194641
0.000195533
0.000141896
0.00020381
0.0469179
0.000152336
0.000347122
0.0201871
0.0341917
0.000146542
0.0470112
0.000158244
0.0150774
0.000156046
0.000152867
0.000151709
0.000163421
0.0130405
0.000107766
0.0485313
0.0609542
0.0781976
0.000155854
0.000152843
0.000179359
0.0708351
0.000152285
0.000154529
0.0463324
0.000144024
0.0635919
0.00017491
0.000198372
0.00015144
0.000158755
0.0309034
0.00014358
0.025592
0.080876
0.000293514
0.000151551
0.000163491
0.0650174
0.0418854
0.018066
0.0001455
0.000202887
0.0202644
0.0755201
0.0792759
0.000154196
0.000145728
0.000152233
0.000150266
0.000717151
0.000190659
0.00014126
0.000162335
0.0584473
0.0663045
0.00402031
0.000197428
0.00767378
0.000146805
0.000148933
0.0003113
0.00015737
0.000197183
0.000204314
0.000168919
0.000153664
0.0322067
0.0683505
0.0510299
0.000230648
0.062354
0.000143934
0.000174946
0.00379209
0.000134869
0.000149518
0.0321678
0.0110411
0.000171285
0.00658458
0.000163963
0.0528445
0.000163579
0.00787515
0.000155642
0.000186674
0.0566326
0.0551233
0.0288553
0.000225368
0.000149079
0.000206882
0.000180222
0.000161247
0.000210927
0.0450463
0.00101982
0.000161942
0.000193429
0.000174981
0.000202684
0.000174096
0.000160019
0.00015435
0.0471418
0.00747028
0.000162066
0.000197984
0.000188606
0.000157085
0.000190593
0.000205525
0.000145646
0.0267961
0.0311973
0.000153574
0.00014549
0.000158711
0.0705455
0.000196176
0.000148425
0.000151757
0.00013692
0.000159182
0.0742172
0.00797882
0.000160327
0.0189479
0.000174401
0.000191146
0.00105576
0.000194517
0.0557919
0.000136034
0.0675052
0.0314606
0.000187614
0.000160996
0.000173847
0.000154053
0.000173163
0.0667757
0.000211391
0.0240772
0.000146424
0.00015349
0.0300788
0.0577011
0.0260244
0.00624855
0.000212472
0.000163108
0.0197845
0.048871
0.000137603
0.0631464
0.0616796
0.000160095
0.000206952
0.000146148
0.000153787
0.000146282
0.000166037
0.000105901
0.0377198
0.000154556
0.000139747
0.0707106
0.000175208
0.00859726
0.0615738
0.0674972
0.000182819
0.000170275
0.000162773
0.000142719
0.000143352
0.000136164
0.0349423
0.000192569
0.000158116
0.042318
0.000141164
0.00138453
0.000157
0.0497985
0.00516873
0.000152028
0.000168098
0.0792773
0.0333928
0.0438915
0.0326428
0.00314849
0.0729661
0.000210786
0.00241936
0.0436638
0.000158317
0.000145662
0.0296877
0.000140209
0.0001597
0.000159259
0.00014919
0.000193782
0.0685076
0.000175904
0.000180578
0.00018741
0.000165912
0.0642906
0.00390354
0.000168286
0.0129612
0.000193704
0.00789528
0.000248029
0.0586708
0.000179261
0.0520501
0.0682872
0.000166178
0.000176928
0.00496389
0.000178663
0.0612768
0.00981473
0.0571811
0.000176798
0.00018839
0.000158339
0.0510126
0.00171753
0.0641459
0.000155739
0.000201129
0.000162939
0.0538711
0.0224535
0.00639038
0.00444499
0.00412212
0.0676149
0.0543075
0.000148255
0.000168561
0.0562014
0.0696569
0.000196117
0.000170801
0.0272076
0.000159388
0.00015436
0.000149753
0.000167565
0.0260253
0.0045909
0.000143109
0.000166693
0.000160181
0.000112378
0.0525202
0.000149955
0.0297938
0.0255394
0.0436958
0.00015806
0.000154943
0.000144473
0.032044
0.00530448
0.048975
0.000150105
0.000149812
0.0105961
0.000164243
0.0504516
0.000153671
0.0627921
0.0289504
0.000147991
0.00016915
0.0235219
0.000150032
0.00014793
0.0268164
0.000433365
0.000161344
0.0629691
0.000233297
0.0314046
0.0503372
0.050095
0.000197173
0.0449308
0.0154557
0.0278591
0.0323379
0.0461378
0.000156529
0.000204415
0.000147564
0.000151323
0.00446255
0.000181378
0.0246643
0.00014837
0.000207342
0.0055746
0.000166674
0.000161664
0.0001476
0.0729374
0.000153867
0.0674818
0.000201997
0.0653418
0.0349645
0.000158464
0.0169499
0.0517475
0.0129919
0.00015204
0.00015041
0.000146728
0.0520419
0.000183265
0.000230053
0.000155695
0.00438927
0.000180522
0.027602
0.0457078
0.00476189
0.0293251
0.0209871
0.000177914
0.000156587
0.0497377
0.000163729
0.00737216
0.000176294
0.0201814
0.000157503
0.000150796
0.0477792
0.000148877
0.00530033
0.0432423
0.0716693
0.000151106
0.0596313
0.000163689
0.0506439
0.00211518
0.0001649
0.000156683
0.000146209
0.0694981
0.0583398
0.0513175
0.0293052
0.000158292
0.00018076
0.0733976
0.000146989
0.0590619
0.000143633
0.0755088
0.000185391
0.000196923
0.000153915
0.0327706
0.00656714
0.000187883
0.000168317
0.000149895
0.0157855
0.000154757
0.000159749
0.000199839
0.0208464
0.0224818
0.000154099
0.000152579
0.000196489
0.0739057
0.000201668
0.0613026
0.000177441
0.000180437
0.0751707
0.0603939
0.000190853
0.0273054
0.0001483
0.0556877
0.034977
0.059855
0.000151368
0.0001536
0.0217166
0.000169479
0.0505958
0.000159542
0.000148045
0.000158436
0.000153474
0.000413772
0.0275847
0.000147411
0.000154482
0.0463115
0.000171929
0.000143203
0.000156697
0.0202472
0.000149845
0.000165283
0.000151935
0.000149719
0.0250605
0.000183689
0.0497223
0.000150848
0.0279562
0.0458839
0.000157929
0.00015537
0.0600733
0.000161444
0.000161919
0.00013552
0.0217567
0.00019383
0.0349493
0.00016339
0.0279065
0.000177123
0.000155298
0.000156174
0.0247395
0.000149812
0.0315623
0.0488246
0.0647026
0.000181315
0.0242248
0.0189901
0.0363656
0.019543
0.0268534
0.000209598
0.000160149
0.0553043
0.000152195
0.0523604
0.00449865
0.000163122
0.0137798
0.0670351
0.000152706
0.000145864
0.0215588
0.0429313
0.000147965
0.0693279
0.000160904
0.00014261
0.0135253
0.0716355
0.000145405
0.000191271
0.000153821
0.0546218
0.000156036
0.0314671
0.00220849
0.000171406
0.000148929
0.000186194
0.0535309
0.00018281
0.000169386
0.0435838
0.000149292
0.000177056
0.0666953
0.000157527
0.0472719
0.000144274
0.000158646
0.0411562
0.000154823
0.0174386
0.0258105
0.0595422
0.000150381
0.055079
0.0591163
0.000155117
0.000153674
0.00697108
0.00039067
0.000150255
0.000209509
0.0338561
0.000161532
0.0717174
0.0339508
0.0553303
0.0680718
0.000165946
0.000146908
0.00014595
0.000141096
0.0579241
0.000156129
0.0327606
0.000151042
0.0283876
0.000143767
0.000198301
0.0122606
0.00015423
0.0095471
0.00019529
0.000188035
0.0301349
0.0544187
0.000170385
0.000145354
0.0319574
0.00016487
0.000147645
0.0554835
0.0768617
0.0743858
0.0344474
0.0324936
0.000191815
0.078743
0.0703559
0.0741278
0.000171431
0.00542143
0.000175865
0.000155016
0.0193009
0.0519541
0.033455
0.00015176
0.000156013
0.000184458
0.00015059
0.000144603
0.000173188
0.000147111
0.000139337
0.0002116
0.0596286
0.0646422
0.0248411
0.000152257
0.0613322
0.0538018
0.00017348
0.00116782
0.000142338
0.000146385
0.000159699
0.000208421
0.0346814
0.000189071
0.000391578
0.034826
0.000172634
0.00014092
0.0445758
0.000155211
0.020919
0.000151547
0.0483999
0.0281748
0.0283544
0.000154678
0.000149404
0.000150582
0.000175141
0.000139268
0.000155436
0.0652236
0.000174282
0.0248168
0.0051456
0.000217082
0.000201472
0.0327197
0.0337554
0.000151784
0.00019165
0.000157434
0.00288958
0.0469867
0.000165757
0.0312456
0.00016119
0.000153566
0.00474294
0.070889
0.000155168
0.000120452
0.00017866
0.000153914
0.000154679
0.000177539
0.026981
0.000150888
0.000148408
0.000179683
0.00510685
0.000161564
0.033267
0.0743609
0.000188028
0.000202693
0.000155653
0.000181366
0.000180131
0.000989487
0.000153649
0.0563208
0.0539579
0.0345097
0.0796626
0.000153383
0.000145344
0.000202963
0.0494686
0.0495288
0.0300387
0.00014279
0.000553382
0.0537164
0.0529232
0.0567607
0.000169712
0.000159232
0.0509089
0.0115856
0.000194559
0.000150372
0.000159726
0.073883
0.000140881
0.000154284
0.0703761
0.000192103
0.000171856
0.0341607
0.000164151
0.000178133
0.000167506
0.0445733
0.0500798
0.0569355
0.076356
0.0367846
0.0292465
0.0748561
0.000154014
0.050264
0.000154375
0.067286
0.06898
0.0243935
0.0295904
0.00477149
0.000186717
0.0421225
0.0324718
0.000331755
0.000120836
0.0691685
0.0257136
0.012558
0.0557614
0.00460729
0.000182064
0.000186536
0.000143257
0.00014379
0.000189037
0.0360259
0.000168827
0.0691352
0.000166602
0.000223171
0.000542685
0.00014496
0.000144617
0.0306298
0.0764625
0.000184901
0.0426509
0.00016276
0.0245402
0.0203009
0.0773108
0.000157867
0.000163924
0.000171649
0.077439
0.000193445
0.0338636
0.000163073
0.000156902
0.000211946
0.0671934
0.000186333
0.00014237
0.0746234
0.000174923
0.0498176
0.00324248
0.000150882
0.0124211
0.0623534
0.000159377
0.0577163
0.0335371
0.0484287
0.0444922
0.000180105
0.0787255
0.0001866
0.000171794
0.00020534
0.000149391
0.0002002
0.0323799
0.000208931
0.000228466
0.0446557
0.000201646
0.000150351
0.000179768
0.000256154
0.000164232
0.0471607
0.000151372
0.000204334
0.0552664
0.0255996
0.0351474
0.0378946
0.075885
0.000146752
0.00021875
0.0690249
0.0626986
0.000159571
0.000155337
0.0311043
0.000154559
0.000160581
0.000211052
0.00019382
0.0786827
0.000156153
0.0378588
0.00021704
0.0349307
0.000210944
0.000165524
0.000202378
0.000144475
0.000161774
0.0582207
0.00015256
0.0682393
0.0365617
0.000152721
0.000167317
0.0374704
0.00022102
0.000196092
0.000184839
0.000181101
0.0573093
0.000204421
0.0500622
0.0326307
0.0392062
0.0332411
0.0686395
0.0132778
0.0266698
0.0479596
0.000156808
0.00016496
0.000211294
0.0688026
0.000212467
0.0658243
0.0443869
0.000172971
0.000162541
0.00403821
0.0254997
0.0512462
0.00343279
0.0784778
0.000173658
0.000170365
0.000164022
0.0255748
0.000210938
0.0577743
0.000163221
0.0697359
0.052823
0.000149385
0.000165688
0.00506958
0.000207505
0.0455585
0.000159255
0.0001603
0.000154355
0.000182185
0.000142821
0.0451294
0.000151826
0.0330876
0.000152439
0.0344758
0.000161637
0.000220973
0.000188834
0.000206243
0.000145982
0.0436396
0.000418284
0.00258909
0.000194337
0.00198624
0.0793972
0.000215044
0.0688363
0.0529376
0.0590227
0.0213535
0.000191558
0.000231342
0.00014475
0.000144633
0.000187655
0.00015998
0.00296901
0.0684425
0.000202117
0.0471044
0.00579625
0.000149241
0.000166158
0.0584332
0.000176091
0.0801749
0.0329051
0.000155394
0.0493601
0.0393539
0.000188856
0.000234245
9.14065e-05
0.0350786
0.000148077
0.0572607
0.0357888
0.000158023
0.0337452
0.0115588
0.000205338
0.0691175
0.000146606
0.0432478
0.00362744
0.000208985
0.0273173
0.000146154
0.000148466
0.000199511
0.000203156
0.0354027
0.0126584
0.0308644
0.000161939
0.000162219
0.0579599
0.0471234
0.0718217
0.00018768
0.0409027
0.000182645
0.000140554
0.0601331
0.000216862
0.05951
0.000196956
0.000165065
0.000188065
0.0516038
0.000205911
0.036983
0.0478146
0.0505976
0.061979
0.061385
0.00903199
0.0474513
0.00362999
0.065463
0.000194108
0.000147234
0.000145296
0.000169836
0.000145834
0.000204921
0.000150111
0.0789189
0.0811419
0.0768462
0.000263574
0.00018735
0.0325475
0.000204583
0.06344
0.000172607
0.0275643
0.00168144
0.000310876
0.000216896
0.0317366
0.000203851
0.00015319
0.000158573
0.054883
0.000187874
0.000142811
0.000198986
0.000666528
0.000147777
0.000151064
0.0321409
0.0539748
0.000188682
0.000181708
7.94406e-05
0.000160177
0.048205
0.0301878
0.000147862
0.0798294
0.000155198
0.000171719
0.0480034
0.000185001
0.000171901
0.000190567
0.0321191
0.0426885
0.0632843
0.000159303
0.0769131
0.00015329
0.000169751
0.000159915
0.0220607
0.000206512
0.0674648
0.00637322
0.0069916
0.000191129
0.0223559
0.0477707
0.0030958
0.000186442
0.0719679
0.000202672
0.000175924
0.000220429
0.000186067
0.000143414
0.00019467
0.000198823
0.000151036
0.000186096
0.00021056
0.000185606
0.000207448
0.000139244
0.000179601
0.00442963
0.00015217
0.000195508
0.00843323
0.000161456
0.000150703
0.000184243
0.0561354
0.07216
0.0166751
0.000185749
0.000180899
0.0528607
0.000145739
0.035505
0.000203661
0.00955309
0.000154354
0.0782758
0.000169836
0.00455082
0.000143071
0.000168309
0.0648041
0.0551854
0.0755519
0.000179079
0.0628225
0.053042
0.0749956
0.000206365
0.000198199
0.000148443
0.0643928
0.00376459
0.000187823
0.000151616
0.000842922
0.0734098
0.000150969
0.049866
0.000192176
0.000150065
0.000147654
0.000159614
0.0527728
0.0317648
0.0556472
0.000155961
0.000151203
0.000192534
0.000147857
0.067697
0.000162041
0.0801691
0.000170776
0.0578167
0.000211851
0.047797
0.0620868
0.041988
0.0537718
0.0733689
0.000147383
0.00768817
0.000175008
0.000155353
0.047025
0.00017601
0.000166473
0.000158649
0.000185376
0.0127408
0.0213327
0.000147369
0.000148206
0.00017402
0.000137384
0.000156078
0.0215565
0.020239
0.000147733
0.00017041
0.0527459
0.025646
0.000186211
0.0679769
0.0273718
0.00335168
0.0434872
0.000174541
0.000165597
0.0551206
0.000155004
0.000155774
0.057388
0.000143033
0.00017155
0.000186754
0.000147037
0.0772021
0.000179501
0.000166977
0.000154528
0.000154506
0.000167553
0.0223188
0.000150206
0.00018644
0.000165669
0.0590077
0.000151524
0.000160863
0.000191204
0.000148901
0.000187588
0.069669
0.0600379
0.000160169
0.000157276
0.000165399
0.0666477
0.0758356
0.0334474
0.000159
0.000164368
0.000149542
0.0518355
0.000158246
0.000194389
0.000178853
0.00535503
0.0801755
0.0002107
0.000177421
0.00020577
0.0154993
0.0390816
0.000277937
0.000159173
0.000157486
0.000173932
0.0318796
0.00453664
0.000166451
0.0553416
0.0210044
0.000172703
0.0185283
0.000149258
0.0813401
0.0414179
0.000151607
0.0719288
0.0727219
0.000172971
0.00726419
0.000163228
0.012974
0.0252142
0.000156777
0.000151692
0.0614082
0.000143484
0.015699
0.00101148
0.0611275
0.062872
0.0241543
0.000159321
0.000170414
0.016104
0.000145632
0.000195807
0.0676683
0.0311767
0.000153882
0.000174139
0.000184363
0.00015369
0.000207341
0.0703228
0.000159673
0.000155129
0.0221754
0.0548298
0.000200034
0.000163259
0.0797451
0.0787405
0.000158934
0.000196131
0.000164604
0.0198194
0.0648723
0.000159509
0.0227697
0.0706547
0.0583762
0.000205321
0.000164744
0.0517412
0.000174147
0.000180286
0.0712683
0.00014748
0.0282667
0.0750528
0.000183973
0.0112203
0.000209139
0.00018475
0.0185875
0.000162175
0.000163421
0.00293542
0.000153931
0.000185427
0.000202022
0.000145324
0.000160089
0.000144889
0.000158148
0.056162
0.000145797
0.0343677
0.000188088
0.000146163
0.000146951
0.0517334
0.065237
0.000199206
0.000157315
0.0687772
0.000158753
0.000170044
0.000146641
0.0646817
0.0233059
0.000158764
0.00016491
0.00323077
0.000197059
0.000170435
0.000145428
0.049323
0.000154173
0.000150896
0.0407249
0.0499278
0.000218899
0.00617004
0.0448598
0.000153654
0.0095151
0.0538821
0.0153586
0.000159868
0.0249142
0.000158835
0.0492321
0.000165655