/*--------------------------------*- C++ -*----------------------------------*\
| =========                 |                                                 |
| \\      /  F ield         | OpenFOAM: The Open Source CFD Toolbox           |
|  \\    /   O peration     | Version:  v2012                                 |
|   \\  /    A nd           | Website:  www.openfoam.com                      |
|    \\/     M anipulation  |                                                 |
\*---------------------------------------------------------------------------*/
FoamFile
{
    version     2.0;
    format      ascii;
    class       volScalarField;
    location    "150";
    object      omega;
}
// * * * * * * * * * * * * * * * * * * * * * * * * * * * * * * * * * * * * * //

dimensions      [0 0 -1 0 0 0 0];


internalField   nonuniform List<scalar> 
13726
(
0.0317058
3.25813
0.0238221
0.0280785
0.127395
0.0309185
0.0247348
0.0235318
0.138534
0.0470243
0.131609
0.0221798
0.0232834
1.29256
0.0276865
0.0246981
0.131418
0.0265086
1.70615
0.567635
2.625
0.0198451
0.0232714
0.023998
0.0203995
0.0204674
0.0339409
0.0204726
0.0202724
5.42478
2.69649
0.0223286
1.59167
0.039793
0.524223
1.1166
0.0295113
2.78018
0.0234486
0.0242578
0.625341
0.530771
0.0224357
0.0228717
0.0381206
0.023071
0.334604
0.0212719
0.0675284
0.0224083
1.47635
0.0213812
0.073706
0.026469
0.0248359
0.0289541
0.0769748
0.0918021
0.0363167
0.0232729
0.996806
0.0228385
2.113
0.0197887
5.43173
0.0213642
2.6476
1.56998
0.0216491
0.134851
0.324457
0.023453
0.0243247
0.022403
1.68784
1.15731
0.14045
1.36068
1.64991
0.0890928
0.162196
0.062541
0.0922707
0.0238943
0.0236686
1.38156
0.103947
0.0229492
0.0232731
2.41829
0.0212915
0.136255
0.0229546
0.0247568
0.936526
1.5613
0.0510592
0.0221753
0.0228188
0.603215
0.0232007
0.0484906
0.0488443
0.0208016
0.105922
0.12656
0.0913034
0.0224261
0.024183
0.0502618
0.0629459
0.0207855
2.20474
1.39574
1.22602
0.0238308
0.695003
2.5481
0.054235
0.0236148
20.2867
0.0246196
0.0236933
1.68789
2.13683
2.25321
0.0229998
0.0972825
0.0207881
0.0344776
1.0065
2.49976
0.0350802
0.0657379
1.53522
0.126524
4.08596
0.220879
0.63643
0.881976
0.0781479
1.64382
0.0222683
0.0210423
0.0315649
0.0297873
2.44774
0.0245099
0.0230252
1.66803
0.0231603
0.0245167
0.0662117
0.0242672
0.0214745
0.0301758
0.027798
0.516311
0.927371
0.0209148
0.0227855
0.0238522
1.81812
1.30996
0.0208421
0.150206
0.877983
0.0250249
0.0229244
0.0223675
0.105278
0.0293884
0.682883
0.0248429
1.39207
0.222709
0.0209222
2.73021
2.22298
0.0244278
1.97484
0.0219398
1.98727
1.20949
0.0209827
0.0221225
0.0241405
0.022833
0.0232223
0.0282057
1.47299
0.25513
4.38107
4.09614
0.023187
0.0209899
0.0237868
1.97428
0.281593
0.0280282
5.90565
0.224321
3.64296
0.0377914
0.0239705
0.0222372
0.0231928
1.09125
0.0236469
0.0731219
0.133835
0.935406
4.56977
0.0197471
1.41686
1.65753
0.0241982
0.0228495
0.0272371
1.98417
0.0249838
0.0415873
0.0868753
1.13726
0.0220428
1.94742
15.706
1.413
2.16243
0.0226063
0.944134
4.6521
1.90874
1.43189
0.0224805
0.0217314
1.39249
2.65585
0.501538
1.87199
0.020789
0.0238342
0.0224922
1.59807
0.118181
2.46823
0.0369282
0.0363312
0.0227227
0.115849
2.16151
0.0224958
2.12043
0.0354315
0.0653639
0.258293
0.0238332
2.04447
1.25125
0.034643
0.243608
1.26517
0.0472333
0.0227836
1.40079
2.51965
0.0245346
0.0217467
0.0206967
0.0623516
0.490908
0.0351463
2.18517
0.0370783
0.966384
1.0517
1.71218
0.708749
0.0237135
0.0225957
0.943816
0.0249716
2.90818
0.0363013
1.55865
0.024324
2.1452
1.75811
0.0348936
0.021218
2.49429
0.0361189
0.0200259
1.25709
1.09246
0.0247915
0.059215
0.022154
2.51025
0.02228
1.99103
1.23526
0.0822063
0.0215604
0.0938268
3.06333
1.62248
2.01449
4.38016
0.0315481
2.53567
0.833365
2.68964
10.9912
0.0226565
0.489034
0.0225275
1.51394
1.9229
1.00527
2.53871
0.0922091
0.0219809
0.0486842
0.089219
0.0357949
0.021549
0.94489
0.0215666
1.89287
0.0479613
4.18246
0.0247585
0.0372615
0.0850029
0.0215518
0.0252176
0.0348754
0.025757
0.0675462
2.1044
1.56306
1.44559
2.01478
3.03821
0.0921734
0.0269828
0.0606137
0.211199
0.0218342
1.30642
1.56085
1.63404
0.0248869
0.0283231
0.0226928
0.0227519
1.61873
0.0284247
0.0251785
0.0237587
0.0411321
0.627715
0.0228906
0.0439998
1.95778
2.29913
0.0229911
0.0257584
0.0257308
0.160734
0.0233715
0.0244772
0.027312
1.68659
0.0263219
0.0205346
2.94657
0.0529008
0.0932452
0.0221814
0.0235268
0.0227278
1.27804
2.86952
2.41447
1.9005
0.0418275
0.0233044
0.028502
0.0223278
0.0215521
0.0233797
0.0233156
0.0229724
0.0287675
1.79848
1.20176
0.0479047
0.023543
0.0224001
0.0238309
0.0251957
0.0641945
0.023383
0.0422845
0.0287683
0.0227143
2.14095
0.459879
0.936632
0.026546
2.55146
2.55683
0.687026
0.0228072
1.74502
0.920084
2.29541
1.44211
2.39991
0.478119
0.0196911
0.0895595
1.76321
0.0293564
2.28835
0.0220462
0.0219739
0.068661
2.32833
2.09841
1.6035
2.03974
0.0270488
0.0269213
0.0225001
0.0290544
0.0317965
0.0924329
0.0232461
1.39193
0.0262715
2.84264
0.155073
0.0231384
0.989077
0.0210536
0.0213004
0.201842
0.0291507
1.35723
1.15565
0.0219647
1.03161
0.0224584
2.00168
0.995344
0.0212888
0.0241508
0.0389325
1.64309
0.0429271
1.33698
0.474446
0.027294
2.04824
1.33533
0.0232067
2.2425
0.0609544
0.0208246
0.0260361
0.0223444
1.74598
0.0207843
0.511437
1.18019
1.18878
0.0495848
0.2279
0.0228398
0.0205981
1.01435
0.0199986
0.0274116
0.023854
0.026529
1.20341
1.77292
0.0264657
0.109007
0.039321
1.26309
1.32665
0.0314447
0.028191
1.56248
1.58332
0.0212591
0.0233647
0.222944
0.0376165
0.0804927
0.0280025
0.0211571
1.04803
1.18812
0.0224493
0.0219665
0.0223732
1.71306
0.0212728
0.0558278
0.0206306
1.85169
0.123881
0.0234539
0.031293
0.033071
0.0228446
0.0756642
1.2502
0.477427
0.0834567
0.0869526
1.28691
0.094233
0.0197297
1.6239
0.0647919
0.0472521
1.25313
0.0224801
2.98908
0.039323
0.0291432
1.23683
0.0461473
0.024946
1.01257
0.0232686
0.0717642
0.0262882
0.148121
1.25415
0.0388967
0.0208517
0.246205
0.0215335
0.0215086
0.229641
0.0261832
1.53935
0.0224061
0.0403561
0.0240481
1.25717
2.83173
1.26267
0.567636
0.0376341
1.57941
0.0232636
2.32835
0.245269
0.0491365
0.0229349
1.58122
0.0560314
2.48922
0.021002
0.0222293
1.86592
0.0243571
0.986438
0.0400415
0.0310638
0.0894607
0.0606291
1.52747
2.08313
0.026639
0.0216777
0.296228
0.021546
1.73017
0.224094
0.020835
1.60786
0.0256449
0.0600911
0.0261823
0.0244267
1.15679
0.0233674
2.51942
0.0236963
0.369674
1.53785
0.0356092
0.0212653
0.0235109
0.0225623
0.0247701
1.37216
2.15265
0.752638
0.0223716
0.317993
1.22249
1.75337
0.039714
1.00807
1.30827
0.0288884
0.022622
0.0206674
1.79604
0.0279793
0.0227926
0.030216
2.0496
1.66083
0.0867698
0.021155
0.0308772
0.0759284
0.0206034
0.0285744
1.2546
0.0298188
1.6416
0.021839
1.945
0.0476702
0.0211242
5.78603
4.02947
0.0224773
0.248235
0.0233523
0.04084
1.10281
0.106558
1.88428
0.025122
0.115926
1.15926
0.0307064
0.137774
0.0399975
1.6557
0.0201317
0.748666
0.0315004
0.0214158
0.0234839
1.57561
0.0201327
0.0215475
0.0222587
0.339781
0.465654
0.0551851
0.0218582
0.0303035
1.32824
1.38374
0.022085
1.22945
0.142174
1.73511
1.27912
0.142561
0.0687139
0.271415
0.020843
0.0218273
2.03464
0.0315364
0.0314457
0.170639
0.306104
0.0215007
0.0239167
0.0234033
0.024872
2.95338
0.0544421
0.0220369
0.0320466
0.0239129
0.0245217
0.0233654
0.023552
0.0251332
2.43242
0.0233705
0.0409889
0.0596076
0.0218437
0.0214615
0.0426995
0.0233113
0.0925232
0.034415
1.42548
0.0218808
1.58384
0.0217226
1.67886
1.04483
0.0561375
0.0266723
0.0296541
0.0217716
0.0221173
0.0580723
0.07886
0.021985
2.31992
2.54944
1.4359
1.08793
0.023551
4.71209
0.0220439
0.022977
0.0207098
0.0235327
4.41705
0.0513427
2.89364
0.0402197
1.06996
2.22387
0.208852
0.22657
0.052579
0.0263058
0.0223109
0.0226734
0.0425249
1.75806
1.82072
0.0680872
0.0231401
0.0210648
2.17487
0.0235782
0.0229641
0.0221848
0.0243809
1.13425
0.132755
0.0615857
0.025728
1.01042
0.929379
0.0227395
0.971582
0.414607
0.0222195
2.66477
1.26331
1.43748
0.023178
0.0642815
1.20965
0.0215381
1.32811
0.0307288
0.0709543
0.0435277
0.0237358
0.107216
1.81294
0.0215564
0.02258
0.0230891
0.126663
0.0208092
1.89823
0.708329
0.0207843
0.0199958
0.02214
2.81971
0.0222582
0.570819
2.53248
2.52651
0.604674
1.2357
1.93046
1.80229
0.0234529
0.0222074
2.37409
0.022196
1.20146
1.30614
1.86269
0.0217196
0.0245641
0.0218702
1.79991
0.0220321
1.28712
1.39715
0.220766
1.87687
0.140927
1.21388
0.0372226
2.07016
0.039054
1.37517
0.0244637
0.10736
0.0227202
0.0784907
0.0307053
0.0666695
0.0305931
0.0221214
0.023913
3.13975
0.0225085
0.0224058
1.91434
0.042108
0.0230006
0.023946
5.02804
0.0222083
0.032829
0.0626036
0.0212237
0.0387784
0.0211759
1.85538
0.0218426
0.0211383
0.103874
0.614012
0.0221033
0.0296361
2.2517
5.00531
0.0626966
0.0210471
1.6296
1.55347
0.936027
0.138883
1.79575
0.021728
0.0404297
0.0515546
0.0209156
0.0256867
1.27875
0.0548732
1.11343
0.0226359
0.0917326
0.0223494
0.0456511
1.18695
1.32185
0.020893
0.0235481
0.082435
0.0301913
0.0210284
0.0224302
1.67557
3.11494
0.0435222
0.0215336
0.0310282
0.0210288
1.27401
0.0271769
0.0211468
2.20265
0.0419442
0.102574
0.0243879
2.82873
0.25489
0.0237243
0.02157
2.15443
0.4594
0.021743
0.989724
1.37879
2.68483
1.73725
1.99042
1.18386
0.121417
1.5495
0.0228473
0.0230953
1.63869
0.0217817
1.17762
0.0232601
2.59943
1.53796
0.0301891
1.51666
6.94861
1.0212
0.0254915
0.0231478
0.0207388
0.108649
3.06662
0.0229915
3.03611
0.0356775
3.6233
0.0791976
0.173986
0.379603
0.0213887
0.459942
0.0388759
0.0222118
0.0220638
1.9272
0.0633682
0.0225379
2.64912
0.0225537
0.452891
0.0217917
0.573951
1.68805
1.58473
0.024934
0.0217564
0.0505048
0.0223824
1.69735
1.63446
0.0228854
0.051032
0.0860382
0.981343
0.891593
0.0220764
0.571414
0.024774
0.021811
3.0795
2.69638
1.27607
0.0245788
2.41316
0.0541918
1.26137
0.0983849
0.609739
1.39643
0.0313413
0.551251
1.29498
2.27232
1.31678
0.0219674
1.85874
0.0849059
0.0619357
0.0625532
0.0216069
0.444792
0.021669
2.32673
1.7251
4.21182
1.55281
1.85856
1.81805
2.74859
2.05333
0.0245388
0.407476
0.0207594
1.82878
1.43885
0.0205864
1.05608
0.0212642
0.0219462
0.0224753
0.0215057
2.46279
1.03062
0.0218705
0.0268047
1.75191
1.97293
0.0316164
0.0894089
0.557705
0.0213752
0.0310333
0.0245663
1.70162
0.0506693
0.0221028
0.379106
0.0247766
16.2135
1.2168
0.0223768
2.36153
0.0250532
1.63031
1.7498
1.34781
0.0234598
0.201522
0.0285791
1.4829
0.0263532
0.835482
0.0210938
0.0207769
1.23308
0.0241772
0.0213619
0.551396
0.0467275
0.0285148
1.5586
0.0231147
0.0252632
0.559413
1.88806
0.0320328
1.75593
0.0211911
2.7436
0.0244188
0.0230264
0.0227659
0.0218801
0.0218702
0.167491
1.16304
0.0226859
1.82756
0.0332135
1.22907
0.0208272
0.0240168
0.416642
0.449283
0.0216056
0.0232394
0.928999
0.0215014
0.0961079
0.0216994
1.99066
2.01275
0.0536332
0.0912191
2.13764
0.0197505
0.0286955
0.91759
2.7547
0.0644427
1.58908
0.0220032
1.80195
1.48793
0.0227642
0.0278746
2.0624
0.0864792
0.0233548
0.305395
0.0448933
0.0232819
0.0674622
0.0220268
0.510213
0.900223
0.0210765
2.44637
0.932811
0.0231297
0.0842576
1.92205
1.33988
0.514648
0.035158
0.0320985
2.1317
0.022246
0.0687436
1.66384
0.0211498
0.981729
0.0225449
0.0222247
3.13202
0.808814
0.317006
0.0760731
0.0245466
0.020593
1.61919
0.514521
0.0233842
0.0675792
1.32873
0.0229023
0.0283682
0.0267358
0.0288941
1.59967
0.0258428
0.0211914
0.0577847
0.0335435
2.66095
2.32789
2.85497
0.0832252
0.0201684
0.0215212
1.4983
0.14543
1.15409
0.0598523
0.0583323
0.0284945
0.021935
0.0287604
0.773864
2.30823
0.025118
2.18788
2.593
0.0204932
1.26417
1.51307
2.47437
0.474053
0.0200699
0.550019
0.377098
1.10203
0.0286451
0.0436781
2.23849
0.0229061
0.0227977
2.55697
0.0787242
1.31383
1.50328
0.0769928
1.29449
1.77304
0.0214335
2.6284
0.314155
0.0217482
0.0272911
1.09193
0.0227625
0.0242706
0.0251837
0.0215126
2.35939
0.0211601
0.1131
0.500472
0.473484
0.0221139
0.0413455
2.27778
0.0204346
0.0219408
0.0254175
0.0223374
0.0326612
1.33845
0.0219083
0.0215328
1.84078
0.0213514
2.86062
0.0237847
2.51488
0.0282388
2.86885
0.585149
0.0219071
1.11384
0.508492
0.0317303
0.0235884
0.0214628
1.81527
0.0213234
0.294623
0.0216358
0.0263402
1.05024
1.78302
0.0212728
0.0312664
0.0252366
0.0453878
0.0215573
0.042335
0.0254534
2.5951
0.567828
0.0268895
0.0225136
2.15013
3.29741
0.0215619
0.0204406
2.10381
1.10537
2.98574
0.0400564
0.0369686
0.234464
0.0579422
1.52498
2.47987
0.0247067
0.021522
1.3793
0.0940723
0.0225973
2.84011
0.918802
2.38715
0.0220258
0.0574888
0.0594456
0.0248092
0.0231916
0.306344
0.0451298
0.0228626
2.76847
0.0217488
0.0241863
0.0538731
1.27228
0.0232931
2.41296
0.022325
0.0276063
0.0250391
0.025864
0.0220005
2.60591
2.98522
0.0216328
1.0293
0.0219442
0.0215672
0.872622
2.92451
0.0217066
2.95003
0.0262154
0.0225358
0.0214316
1.31212
0.928171
0.0200428
1.54438
1.75452
1.78156
0.0515674
2.71086
1.75918
0.0272014
0.251568
0.023166
0.0224151
0.0214858
1.92231
2.88636
3.09967
0.276866
0.0207543
0.021229
0.0215846
0.045194
0.0287543
0.0198931
0.0217396
0.022023
1.25278
0.0208887
0.021559
0.0198077
0.926977
0.0217592
0.0199982
0.0252154
1.22703
0.0224636
0.0254074
0.0414656
0.269365
0.0237257
0.0880481
0.047076
0.0350129
0.288882
0.403053
0.0276925
0.263134
2.80323
0.0275633
0.0214738
0.022467
0.025797
0.0562025
0.0442182
0.022573
1.80231
0.0199295
0.0331857
0.0319186
0.0221662
0.0214596
0.0215257
0.0318899
0.0218431
0.0805709
0.614022
1.2756
0.538531
1.15284
0.0833597
0.0204124
0.0939097
2.03418
0.0219052
0.0998691
1.13383
1.74031
0.0215549
1.30782
0.0244959
0.526531
0.0227366
0.022642
0.0219347
0.0279119
3.37016
0.0547359
3.01837
1.36509
2.56536
0.0226018
0.0227373
0.0375697
3.04124
0.0218462
0.0224572
2.31324
0.0211982
2.0058
0.0326982
0.0840318
0.0230888
0.0244739
0.932591
0.0207939
0.949162
2.84586
0.081199
0.0217008
0.0278426
1.884
1.92306
1.76318
0.0212659
0.0938119
0.846388
2.38433
2.65563
0.0222226
0.0215077
0.0233849
0.0215412
0.118245
0.0653945
0.0203689
0.0262435
1.77199
1.59741
0.29227
0.071296
0.360395
0.0210849
0.0213531
0.391629
0.0240861
0.0861566
0.0702089
0.0319122
0.0251041
1.39536
1.75401
1.2383
0.0390041
2.21895
0.0211924
0.0369081
1.07297
0.0197028
0.0218123
2.13631
0.89186
0.0339898
0.441656
0.0257859
1.53421
0.026534
0.401663
0.0226219
0.0477155
2.38547
1.71091
2.02149
0.0394
0.0213671
0.117053
0.0415649
0.0265109
0.122919
3.16754
0.148004
0.0253086
0.0595972
0.0337409
0.0564013
0.0364665
0.0246073
0.0224139
1.37509
0.570607
0.0249249
0.035063
0.0488388
0.0230168
0.0645805
0.114307
0.0212651
2.10514
1.23475
0.0230215
0.0215218
0.0246756
2.08073
0.0651192
0.0213008
0.0217477
0.0199794
0.0238841
2.73052
0.480701
0.0259569
3.8
0.0332249
0.0429438
0.149304
0.0650739
1.64357
0.0199767
2.97189
2.02538
0.0477198
0.0247026
0.0356401
0.0235579
0.0321137
3.016
0.123514
1.42466
0.0215625
0.0228548
1.9257
2.85996
1.84225
0.49136
0.0873165
0.0260299
1.55059
1.32144
0.0202979
1.78132
1.73271
0.0251697
0.1028
0.0214977
0.0229982
0.0213617
0.0260718
0.0984007
1.77679
0.022368
0.0202171
2.08467
0.103232
0.412553
1.38741
1.77227
0.0419585
0.0329981
0.0252874
0.0204496
0.0209951
0.0198759
1.70692
0.0658854
0.0235714
2.2581
0.0203448
1.11653
0.02299
1.27169
0.851821
0.0231881
0.0288064
2.6479
1.73009
1.1438
1.79326
0.227327
2.29359
0.0827241
0.2988
1.50005
0.0246212
0.0212811
0.932336
0.0205417
0.0244487
0.0249888
0.0214307
0.0549514
1.98891
0.0326831
0.0313634
0.0563171
0.028769
2.66207
0.292356
0.0290955
1.91984
0.0747826
0.392388
0.0714866
2.05997
0.044788
1.64167
2.03229
0.0293002
0.0358681
0.303769
0.040257
2.83238
1.01845
1.70695
0.0418135
0.0528216
0.024518
1.26786
0.272413
1.78826
0.0234786
0.0783254
0.0275977
2.29142
1.21368
0.385374
0.358252
1.77594
2.74177
1.60508
0.0212778
0.154692
1.73275
2.0641
0.0686705
0.0339132
2.70667
0.0251263
0.0225783
0.0214922
0.0309499
1.16764
0.303394
0.0205277
0.0297088
0.0244067
0.078435
1.48519
0.0218458
1.05134
1.11746
1.04999
0.0235491
0.0227096
0.0211481
1.23193
0.507883
1.46228
0.0217705
0.0217491
2.05458
0.0278437
2.61749
0.02224
1.45299
2.0052
0.0216617
0.0284584
2.65376
0.0228225
0.0216865
1.13698
0.287925
0.0247056
2.15735
0.142212
2.00342
1.27027
1.24372
0.0711359
1.54874
0.471025
2.10404
0.933307
1.58035
0.0238192
0.0864329
0.0212163
0.0217882
0.617112
0.0464928
1.0848
0.0217027
0.102164
1.94357
0.0283979
0.0248227
0.0216631
2.19372
0.0221929
1.78277
0.0359589
2.00018
1.69731
0.0243938
1.92613
1.559
0.685027
0.0217797
0.0217956
0.0214283
1.60665
0.04421
0.139169
0.0232577
0.269996
0.0446604
2.16286
1.29477
0.369791
1.38806
1.26668
0.0430149
0.0234364
1.23949
0.0277566
0.553981
0.0278764
1.70774
0.0238444
0.0215907
1.37115
0.0214123
0.333474
1.156
3.10197
0.0219422
1.83163
0.0274439
1.49762
0.32342
0.027804
0.0235774
0.0211795
2.72449
3.08776
1.4302
0.944419
0.0244023
0.0450782
2.27422
0.0211086
1.52604
0.0210224
2.70146
0.0483599
0.0795762
0.0223353
0.947419
0.374497
0.065966
0.0297716
0.0217737
3.97354
0.0226852
0.0246102
0.0835355
1.36827
1.1479
0.0222009
0.0221311
0.0656558
2.27186
0.0804709
1.41784
0.0413163
0.0468622
2.31815
1.8392
0.0514498
2.51433
0.0215185
1.67009
1.68177
1.35675
0.0216719
0.12007
1.12384
0.0292497
1.42774
0.0247954
0.0212131
0.0245418
0.0224406
0.066047
0.949693
0.0214461
0.0224942
2.91871
0.0324229
0.0209952
0.0230605
3.4932
0.0217095
0.0282775
0.021754
0.0214603
2.44073
0.0463678
1.57473
0.0219405
0.879208
1.22049
0.0242798
0.0233275
2.68535
0.0252259
0.0250266
0.136261
1.17163
0.0633962
0.971098
0.0262777
0.980423
0.033397
0.0230773
0.0236477
1.14747
0.0217782
0.832121
2.75982
3.00707
0.252306
1.75517
1.59436
1.0168
2.00911
2.32174
0.0491799
0.0251195
1.61694
0.0219799
1.70432
0.316228
0.0272876
7.54982
2.81736
0.0223445
0.0208706
3.27086
1.12638
0.0213081
2.30732
0.0254081
0.0207189
0.586155
2.16409
0.0211169
0.0558279
0.0225265
1.58272
0.0231208
0.935301
0.765079
0.0339762
0.0215075
0.0469059
1.53492
0.0271087
0.02985
1.49468
0.0215567
0.0383811
3.0618
0.0233577
1.38317
0.0212338
0.0241218
1.1785
0.0229624
1.68595
2.36343
2.99113
0.0217929
1.30554
1.60573
0.0225813
0.0229568
0.348348
0.0778184
0.0217422
0.107722
1.77343
0.0258797
2.13223
1.64234
2.59256
1.62315
0.0281881
0.0214107
0.021344
0.0211134
1.26786
0.0232505
0.940295
0.0216842
2.06964
0.0210133
0.186941
0.474486
0.0227854
0.892944
0.0731513
0.0558405
2.18976
2.2435
0.0307403
0.0212671
1.05072
0.0276075
0.0536789
2.10636
2.4427
2.56269
1.04476
1.02155
0.054829
2.61066
2.10517
2.27007
0.0307495
0.317537
0.0344999
0.0223662
1.43637
2.57884
1.73269
0.0222345
0.0237477
0.0454459
0.0218735
0.0211426
0.029196
0.0327995
0.0201696
0.0364186
2.71584
3.04865
2.63003
0.0220134
1.40194
1.57659
0.0364638
0.362439
0.0204024
0.0214582
0.0238702
0.103513
1.00455
0.0596772
0.074562
1.6228
0.0316536
0.0211988
1.31568
0.0230188
1.11291
0.0217888
1.5986
0.956571
2.06138
0.0226184
0.0217223
0.0215936
0.0367504
0.0203736
0.0226893
2.96363
0.0297583
2.51383
0.291292
0.124739
0.0904117
1.77462
1.75356
0.0219056
0.0436011
0.0242316
0.22174
2.26986
0.0284379
1.89237
0.0251049
0.0237168
0.283327
2.09565
0.0234458
0.0557893
0.0291298
0.0225718
0.0231037
0.0306446
1.00946
0.0219202
0.0216709
0.0441888
1.13583
0.0248932
0.947882
2.27171
0.048588
0.08993
0.0232651
0.0425939
0.0454546
0.165092
0.0221903
1.66838
2.45482
1.69617
2.68033
0.0221496
0.0214715
0.092522
2.72303
1.2738
2.12793
0.0215818
0.140882
1.36328
2.73316
1.68866
0.0295755
0.0253634
2.64725
0.435682
0.0452271
0.0215312
0.0246728
2.2426
0.021078
0.0225859
2.08859
0.0622494
0.032536
1.69928
0.0269092
0.0404836
0.0280695
3.00605
2.92917
2.94269
2.40154
1.03763
2.00884
2.36315
0.023438
1.21919
0.0223247
2.71568
1.79219
2.56163
2.03355
0.402955
0.0551277
1.24076
1.10023
0.0721264
0.210084
2.01617
2.87412
0.442449
1.69769
0.880859
0.0474698
0.053166
0.0207274
0.0217979
0.0567404
1.3175
0.0309523
1.92405
0.028804
0.160712
0.134221
0.0983269
0.0212978
0.922071
2.46252
0.0461253
1.12948
0.137969
2.51131
1.21773
2.48122
0.0235751
0.0268357
0.0289885
2.51053
0.073495
1.77036
0.0274436
0.0230773
0.231197
1.93626
0.0479985
0.0208594
2.28514
0.0370533
1.18602
0.296517
0.0217917
0.432992
2.7257
0.0246862
1.727
1.72746
2.79557
2.47454
0.0449878
2.6041
0.054656
0.0345975
0.11231
0.0215311
0.16535
1.77798
0.116899
0.153984
2.51281
0.0938391
0.0215452
0.0456285
0.173624
0.0260685
2.87777
0.0216763
0.103325
1.65165
2.36263
1.68126
1.11288
2.37213
0.0213945
0.132776
2.22769
3.15639
0.0248215
0.0232277
1.87372
0.0230661
0.0253175
0.114291
0.0643768
2.61686
0.0246352
1.01854
0.158156
1.07973
0.115849
0.0287837
0.0899169
0.0211146
0.0254937
2.15264
0.0220399
1.98471
1.42367
0.0218857
0.0290208
1.03616
0.139584
0.0768475
0.190526
0.0475719
1.38877
0.110924
1.37134
1.76907
1.17762
1.76884
1.87916
1.8985
2.23919
2.10396
0.0239412
0.0278581
0.117454
1.95091
0.118741
2.88293
2.55082
0.0334568
0.0270697
0.273711
0.954204
1.5866
0.266257
2.59146
0.0353424
0.0312776
0.0270719
0.7689
0.0840603
1.47796
0.0255893
3.09138
1.44505
0.0214539
0.0279618
0.31602
0.104708
2.96117
0.0244379
0.0258523
0.0231758
0.0432154
0.0208909
1.18968
0.0217795
1.15731
0.023176
1.72778
0.0250912
0.13978
0.0497206
0.100878
0.021432
3.05206
0.0777545
1.29849
0.381283
0.886035
2.67837
0.123321
2.82892
3.18826
1.77724
1.47418
0.221465
0.0405356
0.0211572
0.117489
0.0631891
0.023973
0.293508
1.98582
0.0961168
1.57108
0.422262
0.0229161
0.0304412
2.10669
0.0381668
2.7599
1.06098
0.0225494
2.97295
1.0627
0.0575324
0.142268
0.216254
1.69694
0.0216873
1.37191
1.66836
0.0232689
1.72929
4.21007
0.107064
2.0158
0.0214689
2.5903
0.303002
0.117641
1.63243
0.0215267
0.0214205
0.0876067
0.206497
1.21266
0.433288
1.86528
0.0253397
0.0254661
2.20047
1.3245
2.1975
0.055434
3.14933
0.0439987
0.0203086
1.8186
0.160784
1.79613
0.0794722
0.0295165
0.0489817
1.39484
0.113515
3.24189
2.14404
1.18165
1.88656
1.86399
0.362015
2.18524
0.357566
1.95224
0.0724504
0.17176
0.0209707
0.0507939
0.179016
0.112097
0.0215009
2.63441
2.89206
2.44832
0.488378
0.0478782
2.10101
0.153383
1.4932
0.034436
2.16249
0.227568
0.434122
0.137097
1.84166
0.0941294
0.0228609
0.0246521
1.39861
0.056431
0.0207186
0.0818529
0.836591
0.0216856
0.021908
1.8135
1.49743
0.0503018
0.0432271
0.0510409
0.025446
1.61536
1.91473
0.021493
2.72035
0.0233537
0.0325413
1.22026
0.0458177
0.0346105
0.0609715
0.840997
2.62582
2.10516
0.0249373
2.47905
0.0224065
0.0323742
0.0662686
2.98359
0.0747037
1.58689
0.404588
0.417269
0.0702966
2.99705
1.26379
0.271119
0.0546461
2.24565
0.0906964
0.0289811
0.153843
0.0594484
0.0217756
0.0785111
0.085211
0.021732
0.0525799
0.0849392
0.046731
0.11821
0.0203659
0.0313105
0.273019
0.0218031
0.0767882
1.70798
0.0258596
0.021619
0.0460702
3.19687
2.15788
1.73457
0.051753
0.0430045
1.28493
0.0214961
1.05835
0.0909913
0.430007
0.167143
2.57369
0.0326412
1.19071
0.020988
0.0292111
1.48923
2.15096
2.41617
0.0405144
1.91738
2.41544
2.3247
0.117044
0.0725198
0.0215129
1.63776
0.265925
0.0494668
0.0221049
0.733543
2.22246
0.0220148
1.39091
0.0633246
0.0217764
0.0216866
0.0247702
1.60522
1.81239
2.06304
0.0227316
0.0217186
0.0693194
0.021472
1.95218
0.0256643
2.73951
0.0289077
1.75035
0.0839658
3.06523
1.46549
2.66292
1.24133
2.28542
0.0211943
1.67838
0.0364022
0.0231785
2.22776
0.0412653
0.0269766
0.0247569
0.0447522
0.487105
1.79463
0.0216517
0.0217011
0.0357321
0.0628756
0.0244545
3.04349
1.29429
0.0216485
0.0328045
1.22315
2.45222
0.0601966
1.8889
2.15206
0.398797
2.0979
0.0363448
0.0277686
1.54908
0.0226079
0.0229815
2.89998
0.0207402
0.0292624
0.0497382
0.0215368
2.52658
0.0412198
0.0279294
0.0222462
0.0228917
0.0308202
1.0733
0.0229522
0.0490059
0.0298
1.4152
0.0221427
0.0261667
0.0712005
0.0216864
0.0565892
2.79118
2.78012
0.0243277
0.0240897
0.0282671
1.55237
2.37394
1.10619
0.0237909
0.0275008
0.021436
1.20822
0.0234992
0.190851
0.0437957
0.271398
2.72149
0.0926091
0.0422117
0.105976
0.560963
3.19959
0.198843
0.0243671
0.0230885
0.0389611
2.26084
0.317906
0.0284288
1.49277
1.14449
0.0331026
1.4723
0.0214916
2.87873
2.70091
0.0217197
2.18723
2.19475
0.0330987
0.442757
0.0267203
0.462064
1.02718
0.0239407
0.0235516
1.67712
0.0207505
1.68354
0.171335
1.86535
2.40772
1.11049
0.0245329
0.0329232
5.2716
0.020988
0.212757
1.71276
0.823388
0.0229825
0.0328963
0.0446889
0.0222179
0.115247
2.16032
0.0249027
0.0225618
2.8983
1.23939
0.0847376
0.0272901
2.69799
2.61113
0.0242945
0.0648496
0.0271014
0.835122
1.81595
0.0251287
3.00937
2.12654
1.40589
0.0950663
0.0291645
1.16105
0.0392262
0.0460328
2.13882
0.0216643
2.08405
2.75898
0.0551761
0.437764
0.11797
0.0468461
1.92625
0.0269601
0.0272332
0.247741
0.0224784
0.0455742
0.0808118
0.020762
0.0246261
0.0211345
0.0239244
1.59683
0.0212801
1.71188
0.0621152
0.0214169
0.0214346
1.57902
3.11747
0.0876292
0.0237511
2.01912
0.0246643
0.0329041
0.0215078
2.31958
2.72372
0.0250847
0.0282057
0.255663
0.178989
0.0618235
0.0214683
1.37068
0.0228067
0.021663
2.73845
1.39718
0.136937
0.300549
2.43416
0.0227857
0.635978
1.31472
0.816825
0.0250199
1.02685
0.0246293
1.23751
0.0278601
0.0320201
2.01719
0.0304179
0.0372854
1.23424
1.50783
0.0218617
0.043791
0.0228954
2.41722
1.32343
2.56966
0.0216059
0.0215705
1.3222
0.0223637
0.0272737
0.0227787
0.0216608
1.60663
1.27448
1.0099
1.59229
1.26718
0.0293465
0.0244408
1.69983
0.0383971
0.221658
0.0211064
0.0272663
0.0277179
0.0447987
1.24887
1.88929
0.0420752
0.206076
0.0429742
0.0282057
0.0296219
2.00956
0.0236991
0.0212735
1.63523
1.31182
1.22961
0.9203
0.0216448
0.0261908
0.111911
0.0702572
0.0206942
0.0224653
0.0236887
0.0245974
0.0245286
1.12036
0.0491063
2.90844
0.0207216
2.27361
0.0263896
1.93654
0.0687983
0.0216788
1.39392
0.0215847
0.0269762
0.0420062
0.0276093
0.0297298
1.21196
2.77611
0.0304211
0.0292849
2.5038
0.0210667
1.05095
0.0241862
2.82628
1.609
0.0359731
1.06346
1.55507
0.0249914
1.21065
0.337312
0.0239876
0.0269666
0.0255396
0.0870677
0.970605
0.0694112
0.0277414
0.0226144
0.0269021
0.0211507
0.985083
0.0217923
1.14011
0.0432902
0.0938172
0.0228344
0.0262169
0.1053
1.19547
0.0873934
0.0266945
0.0840493
0.0275574
2.45646
0.0234157
0.0244396
0.141793
0.0295077
1.51094
0.586644
1.63868
0.0249505
0.176978
2.05113
0.0232578
0.0251121
0.0655698
0.2116
0.102732
0.0412188
0.0221539
0.0645575
0.0200153
3.21872
0.0263167
1.40927
0.0236276
0.0257229
0.0647968
0.0235981
1.23773
0.0851109
2.1964
0.0441606
2.81326
0.0214833
0.0230205
0.10035
0.0615751
0.0228235
0.021801
1.31172
0.021459
0.218835
0.0232865
0.0761573
0.0238213
2.13632
0.0245283
0.0243346
0.0240414
0.0223799
0.404997
0.0288776
1.21237
0.0266394
1.15366
1.01576
0.952017
0.1444
0.0229
2.55583
1.45708
0.0749966
0.0266167
0.0250628
0.02416
0.330175
0.0237117
0.0265833
0.0236039
0.0230126
0.021401
0.0406736
0.0275261
1.41247
1.20481
1.17304
0.0219603
0.0219495
0.0198795
0.0231127
0.938437
1.18291
1.60729
0.0214623
0.250992
0.0225914
0.0235973
0.0229612
0.0223375
0.0785722
0.0244465
1.06117
0.0246211
1.33867
0.0537408
0.0215367
0.0363537
0.133744
0.0224293
1.1912
1.28465
0.0252764
0.0302267
0.0248534
0.051756
0.0224696
0.0209248
0.0664656
0.0230991
0.0269572
0.0508988
0.0251303
1.26416
0.0317269
0.0527538
2.49487
0.0199132
0.0227932
2.85067
0.0235944
0.0270331
0.0227899
1.13907
0.0244421
0.0305033
0.0951571
0.0213713
0.0212508
0.0269505
0.0698575
0.0213964
0.0298524
0.0397824
0.025885
0.052253
0.0217107
0.785592
0.0522499
1.95629
0.0226739
0.0276651
0.0235434
1.23819
0.0228533
0.0258096
0.0428743
2.10098
0.209202
0.0235444
0.0247204
0.0269199
0.0211026
2.59163
1.67399
0.0212172
0.0239254
0.0285266
1.24946
0.0246317
0.021161
0.029761
0.028893
0.056186
0.0286278
0.107483
0.0775651
0.0495949
2.17671
0.0216666
0.0215155
1.38643
0.0271297
0.0233485
0.0281028
1.01848
0.0218248
0.0224362
0.0311292
0.42129
0.627515
0.428248
0.0515371
0.0246765
1.34235
0.0225077
0.02275
0.0722612
1.03724
0.218343
0.0216546
2.88859
0.0738811
0.0780573
0.0243727
0.0219607
2.65226
0.0224915
0.0635771
0.119946
0.0488993
0.0241364
0.0231623
2.21643
0.0266829
1.74602
0.0223932
0.33518
0.0387392
0.0797636
0.0228074
0.021796
0.0228906
0.123437
0.027671
1.15263
0.0808877
2.53133
0.187359
0.94249
1.04224
0.0219252
0.0209197
0.247449
0.381135
2.29782
0.0227168
0.855086
1.22341
0.021649
0.459898
0.0277055
0.0216488
0.0215251
0.489886
1.07647
0.0216669
0.323814
0.0217332
1.46244
0.433074
0.0206852
0.30124
0.0652554
0.0224292
0.0237116
0.0239284
0.022875
2.78227
1.22468
0.0215168
1.80872
2.92306
1.20419
0.0231398
0.111479
0.0243125
0.0647066
0.124451
0.0262195
0.0550442
0.0217098
0.0253112
0.0297289
0.0954459
0.0222977
0.327384
0.0849056
1.00024
0.0666562
1.95094
2.69634
0.0216551
0.0216499
2.02973
0.108009
0.0216646
0.0631196
0.108369
1.15666
0.0258591
0.463031
0.0226137
0.022309
0.0230987
0.0568707
0.0349827
1.20322
0.0216915
0.0211204
0.0237844
1.00437
0.0619316
0.070293
0.0284929
0.181261
1.23883
0.0342178
1.18087
0.0223765
0.0216618
2.49628
1.92449
0.0216812
0.0217193
0.0250041
0.0608262
1.70347
0.0216567
2.96426
0.0243951
0.025181
0.0292983
2.35268
1.67144
0.0209068
0.4445
0.021698
0.0283195
0.0258071
0.916682
1.17926
0.10754
0.0587597
0.592045
2.5713
0.0347284
0.021205
0.0230423
0.0245433
0.0503588
1.42466
0.17624
0.0793769
0.499965
0.021959
0.0751622
0.0203002
0.0296903
0.0929754
0.0278658
0.440806
0.0211682
0.583679
1.74736
0.619826
0.0249288
0.021523
0.272653
2.53518
0.635512
0.858198
2.53097
3.00583
0.0986237
0.0271632
0.180716
0.142355
0.0213449
0.0318697
0.323956
0.0215391
1.70511
0.0213738
2.14035
0.0246678
1.84368
0.961681
0.0227795
0.0609857
0.0216315
1.29225
0.0293711
0.0223679
0.315871
0.104888
2.35317
0.0461631
0.971347
0.0394494
0.577419
0.0209376
0.847139
0.0216673
0.17696
0.0213875
1.30102
0.0236991
0.0286144
0.0214597
0.306033
0.839566
0.0276521
0.250683
0.0225525
0.0240411
0.0218638
0.0229447
0.0250177
0.0251562
0.0841426
3.04532
0.791248
1.62383
0.0260985
0.0734791
0.0217761
0.0212231
1.28687
0.0210305
1.32849
0.0905659
0.0217106
0.0226329
0.0448318
0.198099
0.0536905
0.159956
0.0223025
1.67774
1.64475
0.0280871
0.0213719
1.5628
0.0378152
0.0230985
0.103621
0.0292789
0.0215856
0.0906859
0.0426251
0.0244654
0.0213218
1.21388
1.72865
2.60558
0.309193
0.0247177
1.05921
0.024393
0.0249684
0.0629296
0.0256951
0.0214362
0.0301258
0.022311
0.0396101
0.0239124
1.97693
0.0219544
0.0204008
0.0224018
0.035137
0.167881
1.1158
0.0249836
0.024754
2.4577
0.0489174
0.0219569
1.65889
0.079456