/*--------------------------------*- C++ -*----------------------------------*\
| =========                 |                                                 |
| \\      /  F ield         | OpenFOAM: The Open Source CFD Toolbox           |
|  \\    /   O peration     | Version:  v2012                                 |
|   \\  /    A nd           | Website:  www.openfoam.com                      |
|    \\/     M anipulation  |                                                 |
\*---------------------------------------------------------------------------*/
FoamFile
{
    version     2.0;
    format      ascii;
    class       volScalarField;
    location    "150";
    object      omega_0;
}
// * * * * * * * * * * * * * * * * * * * * * * * * * * * * * * * * * * * * * //

dimensions      [0 0 -1 0 0 0 0];


internalField   nonuniform List<scalar> 
13726
(
0.0317607
3.25813
0.0238231
0.0280782
0.127437
0.0308993
0.0247351
0.0235322
0.13874
0.0470787
0.131845
0.0221802
0.0232835
1.29258
0.0276864
0.0246981
0.13114
0.0265087
1.70617
0.567421
2.62502
0.0198452
0.0232726
0.0240017
0.0203995
0.0204674
0.0339601
0.0204724
0.0202724
5.42478
2.69659
0.0223284
1.59169
0.0397935
0.524604
1.11658
0.0295154
2.78018
0.0234484
0.0242559
0.625716
0.530987
0.0224357
0.0228718
0.0381207
0.0230729
0.333925
0.0212721
0.067505
0.0224081
1.47665
0.0213814
0.0731009
0.0264676
0.0248402
0.028954
0.0764347
0.0910778
0.036343
0.0232668
0.996545
0.0228384
2.11308
0.0197887
5.43172
0.0213641
2.64763
1.56999
0.0216493
0.134992
0.323619
0.0234533
0.0243243
0.0224058
1.68786
1.15772
0.140403
1.36084
1.64993
0.0890696
0.162483
0.0625097
0.0922893
0.0238949
0.0236686
1.38159
0.103979
0.0229545
0.0232731
2.41831
0.0212915
0.136595
0.0229557
0.0247574
0.936512
1.56131
0.0510425
0.0221757
0.0228188
0.602944
0.0232045
0.0485106
0.048727
0.0208016
0.104511
0.126569
0.091328
0.0224263
0.0241815
0.0502609
0.0630583
0.0207855
2.20482
1.39568
1.22599
0.0238304
0.694055
2.54811
0.0538042
0.0236205
20.2868
0.0246199
0.0236874
1.68791
2.13691
2.25321
0.0229995
0.0966471
0.0207881
0.0344744
1.00616
2.49977
0.0350756
0.0657168
1.5351
0.126314
4.08594
0.220436
0.636058
0.882466
0.0781753
1.64368
0.0222683
0.0210425
0.0315547
0.02977
2.44776
0.0245002
0.02303
1.66805
0.0231601
0.0245162
0.0661953
0.0242553
0.0214747
0.0301748
0.0277955
0.520036
0.927356
0.0209148
0.0227854
0.0238524
1.81818
1.30997
0.020842
0.148272
0.878534
0.0250253
0.0229278
0.0223673
0.104932
0.0293871
0.686423
0.0248368
1.39222
0.221125
0.0209224
2.73031
2.22306
0.0244317
1.97488
0.0219395
1.98727
1.20948
0.0209829
0.0221225
0.0241401
0.0228357
0.0232222
0.0282117
1.47293
0.253353
4.38106
4.09613
0.0231871
0.0209898
0.0237863
1.97429
0.280031
0.0280281
5.90573
0.223951
3.64294
0.0377911
0.0239708
0.0222372
0.0231954
1.09124
0.0236441
0.0731248
0.133763
0.935392
4.56975
0.019747
1.41701
1.65754
0.0241962
0.0228493
0.0272375
1.98409
0.0249761
0.0415691
0.0858543
1.13724
0.0220429
1.9474
15.7072
1.41311
2.16234
0.0226085
0.944117
4.65224
1.90877
1.43204
0.0224788
0.0217314
1.39247
2.65584
0.501598
1.87192
0.020789
0.0238317
0.0224924
1.59808
0.11552
2.46824
0.0368954
0.0363409
0.0227228
0.115811
2.16158
0.0224964
2.12033
0.0354158
0.0653693
0.258907
0.0238316
2.04452
1.25126
0.0346376
0.24078
1.26515
0.0472615
0.0227837
1.40119
2.51975
0.0245352
0.0217467
0.0206967
0.0623585
0.490608
0.0351394
2.18521
0.0370761
0.966368
1.05151
1.7122
0.708268
0.0237173
0.0225958
0.944428
0.0249669
2.90811
0.0362966
1.55866
0.0243241
2.14524
1.75794
0.0349065
0.021218
2.49429
0.0361244
0.0200258
1.2571
1.09244
0.0247959
0.0590442
0.0221541
2.51027
0.0222802
1.98961
1.23524
0.0824252
0.0215604
0.0934127
3.06325
1.62291
2.01454
4.38003
0.031497
2.53569
0.833127
2.68974
10.9912
0.0226568
0.488883
0.0225278
1.51398
1.92282
1.00525
2.53872
0.0916872
0.0219809
0.0487082
0.0886404
0.0357976
0.021549
0.945506
0.0215667
1.89292
0.0478763
4.18246
0.0247579
0.0372554
0.0850229
0.0215518
0.0252171
0.034909
0.0257575
0.0676684
2.10457
1.56307
1.44571
2.01481
3.03813
0.0921193
0.0269824
0.0606224
0.211441
0.0218343
1.30633
1.56085
1.63405
0.0248739
0.0283208
0.0226946
0.0227519
1.61915
0.0284176
0.0251797
0.023758
0.0410977
0.627396
0.0228905
0.0440313
1.95782
2.29917
0.0229906
0.0257592
0.0257316
0.161113
0.0233714
0.0244676
0.0273122
1.68476
0.0263225
0.0205346
2.94652
0.0529068
0.0932795
0.0221815
0.023527
0.0227275
1.27806
2.86957
2.41457
1.90051
0.0418002
0.0233043
0.0284986
0.0223278
0.0215521
0.0233813
0.0233162
0.0229725
0.0287705
1.79844
1.20177
0.0479288
0.0235429
0.0224
0.02383
0.0252005
0.0641782
0.0233756
0.0422478
0.028779
0.0227143
2.14101
0.459691
0.936616
0.0265453
2.55148
2.55685
0.689618
0.0228087
1.74497
0.919523
2.29542
1.44283
2.39993
0.47773
0.019691
0.0896181
1.76321
0.0293464
2.28832
0.0220462
0.0219736
0.0688057
2.32842
2.09847
1.60351
2.0398
0.0270369
0.0268976
0.0225005
0.0290453
0.0318198
0.0924852
0.023246
1.39193
0.0262729
2.84283
0.153737
0.0231384
0.989049
0.0210536
0.0213002
0.202173
0.0291407
1.35713
1.15582
0.0219651
1.0316
0.0224584
2.00158
0.995335
0.0212888
0.0241471
0.0388803
1.64306
0.0429562
1.33668
0.474265
0.0272757
2.04815
1.33536
0.0232071
2.24258
0.0609818
0.0208247
0.0260364
0.0223443
1.746
0.0207844
0.511423
1.18135
1.18947
0.0495772
0.227582
0.0228399
0.0205979
1.01433
0.0199985
0.0274114
0.0238536
0.0265291
1.20339
1.77295
0.0264695
0.10902
0.0393045
1.26308
1.32668
0.0314489
0.0281723
1.56247
1.58334
0.0212591
0.0233648
0.222136
0.0374529
0.0805802
0.0280019
0.0211572
1.04801
1.1881
0.0224492
0.0219664
0.022374
1.71311
0.0212728
0.055836
0.0206305
1.85162
0.123753
0.0234525
0.0312996
0.0330867
0.0228449
0.0757055
1.2502
0.477129
0.0834663
0.0871221
1.28686
0.0942665
0.0197297
1.62448
0.0649829
0.0473117
1.25305
0.0224824
2.98897
0.039317
0.0291131
1.23779
0.0461882
0.024938
1.01256
0.0232687
0.0713934
0.026303
0.147612
1.25417
0.0388808
0.0208517
0.245283
0.0215335
0.0215086
0.229227
0.0261838
1.54002
0.0224045
0.0403514
0.0240475
1.25708
2.83191
1.26253
0.567839
0.0376344
1.57938
0.0232665
2.32844
0.24448
0.0491274
0.0229341
1.5812
0.0561866
2.48926
0.0210022
0.0222293
1.86587
0.0243569
0.986412
0.0400375
0.0310541
0.0895233
0.0605976
1.52749
2.08312
0.0266403
0.0216779
0.29773
0.021546
1.73019
0.223554
0.0208351
1.60796
0.0256457
0.0602115
0.0261828
0.0244375
1.15677
0.0233681
2.51946
0.0237034
0.370229
1.53729
0.0356082
0.0212652
0.0235105
0.0225622
0.0247703
1.37211
2.15268
0.752502
0.02237
0.313842
1.22236
1.7534
0.0397388
1.0087
1.30827
0.0288911
0.0226184
0.0206675
1.796
0.0279756
0.0227923
0.0301888
2.04955
1.66081
0.086834
0.0211542
0.0308189
0.0759332
0.0206035
0.0285751
1.25449
0.0298389
1.64162
0.0218391
1.94501
0.0476274
0.0211243
5.78604
4.02948
0.0224801
0.242975
0.0233522
0.0408411
1.10281
0.106533
1.88429
0.0251098
0.115863
1.15925
0.0306887
0.137993
0.0400357
1.65567
0.0201317
0.748531
0.0314982
0.0214158
0.0234784
1.57562
0.0201327
0.0215475
0.0222588
0.340797
0.465349
0.0545672
0.0218583
0.0303076
1.32823
1.38371
0.0220852
1.22939
0.142242
1.73507
1.27962
0.142878
0.0686724
0.268062
0.020843
0.0218273
2.03457
0.0315398
0.0314437
0.172347
0.302903
0.0215007
0.0239177
0.0234015
0.0248741
2.9533
0.0544407
0.0220374
0.032046
0.0239128
0.0245216
0.0233633
0.0235578
0.0251323
2.43252
0.0233715
0.0410009
0.0592541
0.0218437
0.0214616
0.0427098
0.0233116
0.0924607
0.0343892
1.42544
0.021881
1.58385
0.0217227
1.67887
1.04483
0.0561095
0.026669
0.029651
0.0217716
0.0221175
0.0580869
0.0785331
0.0219852
2.32001
2.54955
1.43591
1.08791
0.023551
4.7121
0.022044
0.0229766
0.0207099
0.0235349
4.41704
0.0514207
2.89369
0.0402625
1.07144
2.22395
0.208287
0.22373
0.0525756
0.0263192
0.0223107
0.0226744
0.0425634
1.75808
1.82067
0.0680726
0.0231418
0.0210648
2.17495
0.0235711
0.0229644
0.0221847
0.0243873
1.13423
0.132586
0.0615937
0.0257271
1.01089
0.929358
0.0227347
0.971568
0.415695
0.02222
2.66481
1.26332
1.4375
0.0231782
0.064279
1.20958
0.0215381
1.3281
0.0307227
0.0709142
0.0434698
0.0237359
0.107199
1.81296
0.0215564
0.0225802
0.0230917
0.128124
0.0208094
1.8982
0.707741
0.0207843
0.0199958
0.02214
2.81987
0.022258
0.571685
2.5325
2.52658
0.604497
1.23569
1.93041
1.80231
0.0234481
0.0222073
2.37409
0.0221962
1.20144
1.30611
1.86263
0.0217194
0.0245632
0.0218705
1.79995
0.022032
1.28711
1.39681
0.220228
1.87687
0.141037
1.21389
0.0372801
2.07022
0.0390478
1.37478
0.0244688
0.107283
0.0227201
0.0779868
0.0306906
0.0666977
0.030589
0.0221212
0.0239112
3.1395
0.0225086
0.0224072
1.91433
0.0421429
0.0230007
0.0239461
5.02803
0.0222085
0.0328399
0.0625945
0.0212236
0.0387774
0.0211759
1.85535
0.0218427
0.0211383
0.103976
0.613706
0.0221033
0.0296221
2.25162
5.00552
0.0627533
0.0210471
1.62961
1.55348
0.93601
0.138616
1.79578
0.021728
0.0404459
0.0515626
0.0209156
0.0256883
1.27873
0.0548486
1.11345
0.0226369
0.0917392
0.0223496
0.0456832
1.18695
1.32185
0.0208931
0.023545
0.0824917
0.0302099
0.0210284
0.0224308
1.67558
3.11473
0.0435237
0.0215338
0.0310277
0.0210288
1.27384
0.0271834
0.0211468
2.20266
0.041964
0.102563
0.0243902
2.82866
0.255808
0.0237319
0.02157
2.15438
0.458581
0.0217429
0.98971
1.37881
2.68486
1.73722
1.99037
1.18385
0.120213
1.54897
0.0228474
0.0230954
1.6387
0.0217819
1.17755
0.023261
2.59937
1.53798
0.0302108
1.51663
6.94874
1.02139
0.0254935
0.0231483
0.0207389
0.108684
3.06661
0.022991
3.036
0.0356542
3.6232
0.0793495
0.173239
0.377618
0.0213888
0.459057
0.0388638
0.0222123
0.0220637
1.92721
0.0634141
0.0225355
2.64915
0.0225537
0.456519
0.0217918
0.57415
1.68807
1.58475
0.0249347
0.0217567
0.0505114
0.0223824
1.69737
1.63384
0.0228854
0.0510453
0.0859321
0.98133
0.891053
0.0220763
0.571442
0.0247744
0.0218109
3.07934
2.69642
1.27603
0.0245781
2.41325
0.0543071
1.26133
0.097723
0.609645
1.39641
0.0313487
0.550956
1.29492
2.2723
1.3168
0.0219692
1.85868
0.084884
0.0619299
0.0622417
0.0216069
0.444344
0.0216691
2.32677
1.72519
4.21181
1.55282
1.85856
1.81808
2.74869
2.0533
0.0245404
0.407889
0.0207594
1.82878
1.43884
0.0205865
1.05607
0.0212643
0.0219461
0.0224734
0.0215057
2.4629
1.03093
0.0218703
0.0268042
1.75177
1.97293
0.0316817
0.0893458
0.557551
0.0213752
0.0310457
0.0245675
1.7016
0.0504851
0.022103
0.376628
0.0247869
16.2137
1.21678
0.0223765
2.36152
0.0250508
1.6303
1.7498
1.34777
0.0234642
0.203491
0.028578
1.48292
0.0263529
0.835904
0.0210938
0.0207769
1.23357
0.0241779
0.0213619
0.553056
0.0466905
0.0285225
1.55861
0.023115
0.0252631
0.559249
1.88799
0.032032
1.7559
0.0211911
2.74355
0.0244182
0.0230257
0.0227655
0.02188
0.02187
0.169797
1.16362
0.0226855
1.82757
0.0332965
1.22906
0.0208272
0.024017
0.415557
0.448344
0.0216056
0.0232469
0.92898
0.0215014
0.0960025
0.0216995
1.99066
2.01245
0.0536947
0.0912408
2.13757
0.0197505
0.0286921
0.918927
2.75481
0.0644313
1.58908
0.0220029
1.80191
1.4879
0.0227641
0.0278752
2.06251
0.0864112
0.0233582
0.305972
0.0448989
0.0232836
0.0674137
0.0220268
0.510251
0.900811
0.0210764
2.4464
0.932791
0.0231297
0.0843311
1.92197
1.3399
0.514604
0.0351374
0.0321411
2.13177
0.0222459
0.0681259
1.66385
0.0211498
0.981716
0.0225449
0.0222249
3.13178
0.808322
0.317206
0.076111
0.0245492
0.0205931
1.6192
0.513919
0.0233866
0.0674421
1.3284
0.0229021
0.0283689
0.0267448
0.0288793
1.59967
0.0258433
0.0211915
0.0578442
0.0334994
2.66098
2.32797
2.8551
0.083397
0.0201684
0.0215212
1.49832
0.145423
1.15408
0.0598547
0.0583568
0.0284751
0.0219349
0.0287639
0.776579
2.30832
0.0251229
2.18788
2.59304
0.0204932
1.26416
1.5131
2.47436
0.474289
0.0200698
0.54968
0.380449
1.10203
0.0286387
0.0436897
2.23856
0.0229076
0.0227994
2.55705
0.0787095
1.31359
1.5033
0.076958
1.29445
1.773
0.0214335
2.62842
0.314485
0.0217484
0.0272903
1.09192
0.0227653
0.0242661
0.0252041
0.0215127
2.35947
0.0211601
0.113314
0.500528
0.475544
0.0221138
0.0413489
2.27775
0.0204345
0.0219408
0.0254221
0.0223368
0.0326618
1.33862
0.0219085
0.0215327
1.84075
0.0213514
2.86072
0.0237851
2.51498
0.0282388
2.869
0.585769
0.0219072
1.11392
0.509751
0.0317476
0.0235884
0.0214629
1.81527
0.0213233
0.295411
0.0216358
0.0263411
1.05039
1.78301
0.0212727
0.0312345
0.025246
0.0453964
0.0215573
0.0423503
0.0254449
2.59514
0.568317
0.0268893
0.0225135
2.1502
3.2974
0.0215619
0.0204407
2.10387
1.10535
2.98562
0.0399871
0.0369609
0.234672
0.0579865
1.52495
2.47998
0.0247067
0.021522
1.38071
0.0941113
0.0225973
2.84017
0.919287
2.38722
0.0220257
0.0574846
0.0594649
0.0248102
0.0231978
0.302034
0.045056
0.0228628
2.7686
0.0217489
0.024187
0.0539069
1.27311
0.0232935
2.41306
0.0223259
0.0276124
0.0250411
0.0258693
0.0220006
2.60593
2.98522
0.0216329
1.02927
0.0219444
0.0215689
0.872172
2.92454
0.0217067
2.95006
0.0262155
0.0225358
0.0214315
1.31207
0.928157
0.0200428
1.54435
1.75451
1.78161
0.0516152
2.71095
1.75918
0.0272034
0.251934
0.0231662
0.022416
0.0214859
1.92235
2.88655
3.09951
0.27426
0.0207543
0.0212291
0.0215846
0.0451882
0.0287716
0.0198931
0.0217397
0.0220229
1.25349
0.0208891
0.021559
0.0198077
0.927544
0.0217592
0.0199982
0.025224
1.22706
0.0224637
0.0254125
0.041477
0.268631
0.0237248
0.0880756
0.0470867
0.0350113
0.291428
0.40296
0.0276948
0.262653
2.80339
0.0275631
0.0214738
0.0224673
0.0257977
0.056209
0.0441936
0.0225728
1.8023
0.0199294
0.0331835
0.0319191
0.0221669
0.0214596
0.0215257
0.031891
0.0218431
0.0805625
0.614638
1.2758
0.539165
1.15591
0.0835407
0.0204125
0.0937505
2.03426
0.0219052
0.0991368
1.13383
1.74034
0.0215549
1.30858
0.0244923
0.525928
0.0227367
0.0226422
0.0219346
0.0279166
3.37007
0.0547257
3.01834
1.36526
2.56547
0.0226017
0.0227374
0.0375694
3.04109
0.0218463
0.0224572
2.31314
0.0211981
2.00579
0.0326989
0.0840689
0.0230889
0.0244711
0.93257
0.0207939
0.949147
2.84579
0.0805911
0.0217006
0.0278467
1.88403
1.9229
1.763
0.0212659
0.0937468
0.847153
2.38443
2.6557
0.0222224
0.0215077
0.0233849
0.0215412
0.117167
0.0655188
0.020369
0.026237
1.77202
1.59738
0.29304
0.0713029
0.36026
0.0210849
0.0213531
0.39202
0.0240882
0.0861677
0.0701919
0.0319691
0.0251283
1.39526
1.75399
1.23828
0.0388396
2.21887
0.0211923
0.0369413
1.07388
0.0197027
0.0218123
2.13629
0.891531
0.0339374
0.443413
0.0257856
1.53423
0.0265341
0.402336
0.0226226
0.0477256
2.38545
1.71098
2.02148
0.0392868
0.0213671
0.116936
0.0415914
0.0264902
0.123073
3.16723
0.147408
0.0253094
0.0595438
0.0337397
0.0564102
0.0364188
0.0246015
0.0224138
1.37473
0.568434
0.0249258
0.0349784
0.0488408
0.0230168
0.0646773
0.114543
0.0212651
2.10518
1.23475
0.023021
0.0215219
0.024673
2.08075
0.0650614
0.0213008
0.0217477
0.0199793
0.0238825
2.73062
0.481823
0.0259451
3.79999
0.0332272
0.0429357
0.14844
0.0650838
1.64359
0.0199767
2.97183
2.02546
0.0477187
0.0247017
0.0356687
0.0235581
0.0321101
3.01587
0.123203
1.42464
0.0215626
0.022855
1.9257
2.86013
1.84224
0.494547
0.0873324
0.0260352
1.55057
1.32145
0.0202979
1.78133
1.73272
0.0251696
0.102674
0.0214977
0.0229985
0.0213617
0.0260631
0.0997731
1.77687
0.022368
0.0202171
2.08471
0.103994
0.412832
1.38757
1.77226
0.0419579
0.0329419
0.0252874
0.0204496
0.0209951
0.0198759
1.70696
0.0658997
0.0235715
2.25797
0.0203449
1.11728
0.0229902
1.27151
0.852795
0.0231884
0.0288075
2.64793
1.73009
1.14377
1.79326
0.227244
2.29365
0.0827247
0.297824
1.50007
0.0246211
0.0212811
0.932314
0.0205417
0.0244423
0.0249899
0.0214307
0.054953
1.98884
0.0326844
0.0314007
0.0562535
0.0287908
2.6621
0.293425
0.0290969
1.91974
0.0748542
0.393262
0.0714748
2.05997
0.04478
1.64168
2.03234
0.0292786
0.0358626
0.304388
0.0402306
2.83253
1.01911
1.70697
0.0418287
0.0528481
0.0245189
1.26773
0.272084
1.78823
0.0234787
0.0783985
0.0276036
2.29134
1.21366
0.386355
0.35694
1.774
2.74187
1.60509
0.0212778
0.154755
1.73277
2.06415
0.0686423
0.0339801
2.70676
0.0251268
0.0225779
0.0214922
0.0309204
1.16765
0.304576
0.0205277
0.0297024
0.0244098
0.077954
1.4852
0.0218458
1.05133
1.11745
1.04969
0.023549
0.0227133
0.0211482
1.23192
0.50504
1.4623
0.0217704
0.0217489
2.05453
0.0278508
2.61751
0.0222407
1.45297
2.00519
0.0216617
0.0284584
2.65375
0.0228218
0.0216865
1.13697
0.288485
0.0247053
2.15727
0.142248
2.00348
1.27014
1.24366
0.0710856
1.55039
0.47121
2.10403
0.933291
1.58036
0.0238102
0.0864042
0.0212163
0.0217883
0.616743
0.0465279
1.08479
0.0217027
0.102268
1.94295
0.0283991
0.0248227
0.0216631
2.19377
0.022193
1.78272
0.0358416
2.00015
1.69731
0.0243936
1.92609
1.55901
0.683923
0.0217798
0.0217956
0.0214283
1.60666
0.0442123
0.139164
0.023255
0.26969
0.0447516
2.16286
1.29457
0.370877
1.38788
1.26666
0.0430009
0.0234347
1.23948
0.0277499
0.555864
0.0278878
1.70771
0.0238352
0.0215907
1.37117
0.0214124
0.333075
1.156
3.10181
0.021942
1.83166
0.0274423
1.49764
0.320371
0.0278001
0.0235865
0.0211795
2.72457
3.08758
1.43021
0.944397
0.0244035
0.0451527
2.27431
0.0211086
1.52602
0.0210224
2.70155
0.048357
0.0795194
0.0223353
0.947407
0.375873
0.0659678
0.0297712
0.0217736
3.97344
0.0226888
0.0246175
0.083475
1.36824
1.14789
0.0222009
0.0221314
0.0655995
2.27195
0.0803934
1.41794
0.0412613
0.0468426
2.31823
1.83923
0.0514537
2.5144
0.0215185
1.6701
1.68182
1.35679
0.0216719
0.120031
1.12383
0.0292519
1.42776
0.0247989
0.0212131
0.0245341
0.022438
0.0677972
0.949674
0.0214461
0.0224945
2.91888
0.0324234
0.0209953
0.0230608
3.49319
0.0217094
0.0282949
0.0217539
0.0214602
2.44072
0.0463539
1.57474
0.0219405
0.878911
1.22049
0.0242725
0.0233276
2.68539
0.025226
0.0250261
0.13668
1.17162
0.0633868
0.971087
0.0262773
0.980405
0.0333992
0.0230723
0.0236415
1.14745
0.0217784
0.832266
2.75994
3.00698
0.251595
1.7552
1.59433
1.01677
2.00907
2.32176
0.0491657
0.0251247
1.61696
0.0219797
1.70362
0.316051
0.027292
7.54978
2.8175
0.0223456
0.0208708
3.27086
1.12635
0.0213082
2.30731
0.0254053
0.0207189
0.586428
2.16416
0.0211169
0.0558113
0.0225251
1.58274
0.023127
0.935288
0.766598
0.0339563
0.0215076
0.04691
1.53494
0.0270803
0.029838
1.49615
0.0215566
0.0383493
3.06164
0.023358
1.3832
0.0212338
0.0241257
1.17862
0.0229664
1.68592
2.36343
2.9911
0.0217929
1.3055
1.60572
0.0225814
0.0229571
0.348249
0.0771073
0.0217421
0.107841
1.77348
0.0258718
2.13229
1.64239
2.59258
1.62313
0.0281802
0.0214107
0.021344
0.0211134
1.26771
0.0232472
0.940276
0.0216843
2.06964
0.0210133
0.186721
0.47456
0.022786
0.892824
0.0729459
0.0558118
2.18983
2.24342
0.0307336
0.0212671
1.0507
0.027614
0.0538631
2.10636
2.44279
2.56273
1.04473
1.02152
0.0548173
2.61068
2.10522
2.27015
0.0307493
0.317546
0.0345003
0.0223661
1.43634
2.57886
1.7327
0.0222348
0.0237482
0.0454302
0.0218734
0.0211427
0.029194
0.0328578
0.0201696
0.036494
2.7159
3.0485
2.63005
0.0220135
1.40206
1.57661
0.0364382
0.359777
0.0204024
0.0214581
0.0238706
0.103529
1.00452
0.0599041
0.0738475
1.62285
0.0316526
0.0211988
1.31548
0.023019
1.1129
0.0217888
1.59861
0.956551
2.06138
0.0226211
0.0217223
0.0215938
0.0367585
0.0203736
0.0226886
2.9636
0.0297946
2.51378
0.291765
0.124674
0.0905218
1.77462
1.75361
0.0219058
0.0436118
0.0242421
0.221412
2.26975
0.028421
1.89238
0.0251052
0.0237169
0.283967
2.0957
0.0234464
0.0558667
0.029129
0.0225685
0.0231033
0.0306408
1.00945
0.02192
0.0216709
0.0440953
1.13644
0.0248927
0.947869
2.27178
0.0485843
0.0898753
0.0232654
0.0425856
0.0454998
0.165468
0.0221899
1.6684
2.45483
1.69617
2.68033
0.02215
0.0214714
0.0925848
2.72308
1.27363
2.12798
0.0215818
0.139862
1.36325
2.73323
1.68868
0.029577
0.0253641
2.64727
0.435671
0.0452392
0.0215311
0.0246692
2.24267
0.0210778
0.0225827
2.08864
0.0622995
0.0325396
1.69928
0.0269092
0.0404595
0.0280695
3.00603
2.9293
2.94276
2.40163
1.03759
2.00884
2.36324
0.0234381
1.21926
0.0223249
2.71575
1.79214
2.56163
2.03357
0.403383
0.0551875
1.24066
1.10021
0.0719391
0.207701
2.0162
2.87419
0.442415
1.69771
0.882044
0.0474188
0.0531221
0.0207275
0.021798
0.0568168
1.31753
0.0309594
1.92398
0.0288034
0.160472
0.134354
0.0985905
0.0212978
0.92205
2.46259
0.0461188
1.12947
0.138442
2.51131
1.21772
2.48132
0.0235781
0.0268359
0.0289886
2.51063
0.0736757
1.7704
0.0274467
0.0230773
0.230241
1.93628
0.0480024
0.0208594
2.28522
0.0370679
1.18627
0.295894
0.0217918
0.433142
2.72577
0.0246864
1.72702
1.72746
2.79573
2.47456
0.0450125
2.60415
0.0546324
0.0345945
0.112266
0.0215313
0.165399
1.77798
0.116762
0.153883
2.51282
0.0939737
0.0215452
0.0456176
0.173943
0.0260684
2.87798
0.0216764
0.103485
1.65167
2.36263
1.68126
1.11158
2.37222
0.0213945
0.132628
2.22764
3.15617
0.0248222
0.0232262
1.87372
0.0230648
0.0253171
0.114298
0.0643798
2.61683
0.024631
1.01853
0.158191
1.0797
0.116004
0.0287865
0.0900659
0.0211147
0.0254903
2.15258
0.02204
1.98475
1.42371
0.0218857
0.0290248
1.03613
0.13957
0.0767796
0.190593
0.0475984
1.38873
0.111046
1.37135
1.76907
1.17776
1.76884
1.87913
1.89828
2.23918
2.10403
0.0239478
0.0278428
0.117628
1.95082
0.118617
2.88301
2.55084
0.0334496
0.0270659
0.273424
0.954188
1.58601
0.265716
2.59157
0.0353448
0.0312744
0.0270729
0.768793
0.0840512
1.47794
0.0255891
3.09121
1.44506
0.0214539
0.0279577
0.316015
0.104792
2.96123
0.0244317
0.0258518
0.0231734
0.0432095
0.0208909
1.18967
0.0217797
1.15729
0.0231759
1.72778
0.0250918
0.14008
0.0497172
0.100959
0.0214319
3.05198
0.0769519
1.30144
0.381551
0.886912
2.67845
0.123442
2.82905
3.18796
1.77727
1.47416
0.222459
0.0403662
0.0211573
0.117777
0.0633698
0.0239732
0.291694
1.98579
0.0962005
1.57109
0.420939
0.022916
0.0303897
2.10667
0.0381842
2.75991
1.06095
0.0225494
2.97298
1.06269
0.0574786
0.142363
0.212458
1.69699
0.0216873
1.37187
1.66836
0.0232686
1.72929
4.20994
0.107033
2.01581
0.0214689
2.59032
0.302141
0.117637
1.63243
0.0215267
0.0214204
0.0876594
0.206221
1.21268
0.433533
1.86528
0.0253407
0.0254683
2.20039
1.32422
2.19758
0.0554815
3.14905
0.0439855
0.0203086
1.81864
0.160048
1.79616
0.079367
0.0294681
0.0489754
1.39484
0.113657
3.24164
2.14404
1.18189
1.88659
1.86402
0.362043
2.18518
0.354782
1.95223
0.0723397
0.171802
0.0209707
0.0506809
0.180626
0.111899
0.021501
2.63451
2.89196
2.44842
0.490339
0.0478699
2.10108
0.151887
1.49332
0.0344601
2.16248
0.230769
0.429258
0.136854
1.84165
0.0941968
0.0228609
0.0246439
1.39858
0.0564482
0.0207186
0.0816882
0.83628
0.0216857
0.021908
1.81349
1.49744
0.0503075
0.0432393
0.0510941
0.0254406
1.61537
1.91472
0.021493
2.7204
0.0233514
0.0325501
1.22058
0.0458199
0.0345497
0.0609392
0.841011
2.62583
2.10511
0.0249452
2.47914
0.0224079
0.0323354
0.0678548
2.98358
0.0746894
1.58687
0.404434
0.417006
0.0705253
2.99705
1.26366
0.272222
0.0545758
2.24571
0.0905898
0.0289459
0.153572
0.0595678
0.0217756
0.0786328
0.0852096
0.0217321
0.0526497
0.0849237
0.0467192
0.118269
0.0203658
0.0313039
0.272809
0.0218033
0.076679
1.7079
0.0258703
0.0216191
0.0460564
3.19661
2.15792
1.73453
0.0517708
0.0429664
1.28485
0.021496
1.05831
0.0910776
0.42991
0.168698
2.57374
0.0326155
1.19172
0.0209881
0.029207
1.48922
2.15092
2.41624
0.0405026
1.91741
2.41543
2.32476
0.116969
0.072565
0.0215129
1.63773
0.265516
0.0494491
0.0221049
0.733257
2.22251
0.0220147
1.39065
0.0633956
0.0217766
0.0216866
0.0247745
1.60523
1.81239
2.06307
0.0227324
0.0217187
0.0691297
0.021472
1.95217
0.0256662
2.73951
0.0289077
1.75038
0.0839463
3.06513
1.46546
2.66292
1.24144
2.28551
0.0211944
1.67805
0.0364263
0.0231787
2.22766
0.0412689
0.0269876
0.0247566
0.0447547
0.486497
1.79456
0.0216517
0.0217011
0.035713
0.0628731
0.0244547
3.04348
1.29428
0.0216485
0.0328337
1.22329
2.45223
0.060316
1.88888
2.15205
0.398492
2.098
0.0363245
0.0277738
1.5491
0.0226095
0.0229846
2.90011
0.0207403
0.0292623
0.049757
0.0215368
2.52658
0.0411855
0.0279295
0.0222462
0.0228918
0.0308475
1.07329
0.0229523
0.0490067
0.0298402
1.41516
0.0221429
0.0261768
0.0713309
0.0216864
0.056555
2.79131
2.78026
0.0243259
0.0240962
0.0282709
1.55237
2.37401
1.10616
0.0237881
0.027486
0.0214361
1.20839
0.0234996
0.190723
0.0438576
0.27156
2.72144
0.0926308
0.0422348
0.10614
0.56139
3.19927
0.199298
0.0243685
0.0230882
0.0388629
2.26066
0.317888
0.0284319
1.49271
1.14448
0.0330945
1.47227
0.0214918
2.87863
2.70094
0.0217198
2.18731
2.19482
0.0330989
0.442203
0.0267096
0.462241
1.02716
0.0239414
0.0235519
1.6771
0.0207506
1.68364
0.174658
1.86538
2.40772
1.1105
0.0245371
0.0329236
5.27159
0.020988
0.212458
1.71272
0.823542
0.0229826
0.032898
0.0446848
0.0222179
0.115423
2.16024
0.0249013
0.0225628
2.89829
1.23906
0.0846882
0.0273049
2.69803
2.61122
0.0242932
0.064855
0.0270961
0.835703
1.81591
0.025128
3.00932
2.1266
1.40575
0.095084
0.0291491
1.1607
0.039162
0.04604
2.13888
0.0216643
2.08404
2.75909
0.0551787
0.437663
0.117713
0.0468415
1.92622
0.0269767
0.0272186
0.247526
0.0224754
0.0455699
0.0808384
0.0207619
0.024623
0.0211345
0.0239174
1.59685
0.0212801
1.71188
0.0621031
0.0214168
0.0214346
1.57853
3.11727
0.0874814
0.0237461
2.01917
0.0246669
0.0329255
0.0215079
2.31955
2.72371
0.0250852
0.028204
0.256822
0.178417
0.0618545
0.0214685
1.37069
0.0228067
0.0216631
2.73852
1.39705
0.13727
0.300731
2.43415
0.0227858
0.63445
1.31465
0.818674
0.0250154
1.02685
0.0246362
1.23756
0.0278669
0.0320159
2.0171
0.0304188
0.0372743
1.23443
1.50788
0.0218617
0.0437972
0.0229005
2.4173
1.32313
2.56965
0.0216059
0.0215705
1.32207
0.0223635
0.0272751
0.0227789
0.0216608
1.60666
1.27449
1.00896
1.59407
1.26705
0.0293399
0.0244409
1.69935
0.0384042
0.221209
0.0211064
0.0272559
0.0277179
0.0448126
1.24902
1.88929
0.0420504
0.205623
0.0429691
0.0282054
0.029642
2.00953
0.0237006
0.0212735
1.6352
1.31183
1.22978
0.920285
0.021645
0.026192
0.112023
0.0706655
0.0206942
0.0224657
0.0236906
0.0245976
0.0245286
1.12032
0.049112
2.90854
0.0207217
2.27366
0.0263845
1.9365
0.068847
0.0216789
1.39388
0.0215849
0.0269866
0.0420079
0.0276211
0.0297455
1.21215
2.77626
0.0304237
0.0292583
2.50379
0.0210666
1.05095
0.024183
2.82627
1.60897
0.0359997
1.06345
1.55515
0.0249905
1.21037
0.33835
0.0239888
0.0269523
0.0255367
0.0871157
0.971192
0.0694052
0.027738
0.022618
0.0268883
0.0211506
0.985064
0.0217925
1.14046
0.0433451
0.0938939
0.0228386
0.0262325
0.105189
1.19567
0.0873927
0.0267014
0.0840413
0.0275601
2.45654
0.0234073
0.024445
0.141484
0.0295198
1.51093
0.586685
1.6387
0.0249506
0.176291
2.05116
0.0232589
0.0251117
0.0655605
0.214353
0.102748
0.0412083
0.0221525
0.0642804
0.0200152
3.21839
0.02631
1.40824
0.023624
0.0257132
0.064789
0.0235929
1.23773
0.0849799
2.19632
0.0441313
2.81342
0.0214833
0.0230166
0.10039
0.061579
0.0228216
0.021801
1.31283
0.0214591
0.21889
0.0232806
0.0761403
0.0238297
2.13636
0.0245349
0.0243394
0.0240384
0.02238
0.404368
0.0288814
1.21256
0.0266392
1.15322
1.01497
0.951994
0.144419
0.0229001
2.55588
1.45709
0.0747951
0.0266169
0.0250637
0.0241522
0.330939
0.0237043
0.0265744
0.0235924
0.0230068
0.021401
0.0406622
0.0275058
1.41246
1.20561
1.17219
0.0219604
0.0219494
0.0198795
0.0231149
0.938065
1.18172
1.60728
0.0214623
0.252026
0.0225909
0.023598
0.0229628
0.0223375
0.0785469
0.0244464
1.06259
0.0246174
1.33852
0.0537407
0.0215367
0.0362841
0.133814
0.0224296
1.19138
1.28434
0.0252842
0.0302282
0.0248521
0.0517402
0.0224699
0.0209249
0.0667012
0.0230979
0.026975
0.0508944
0.0251342
1.26397
0.031725
0.0527355
2.49495
0.0199132
0.0227931
2.85084
0.0235949
0.0270427
0.0227937
1.13919
0.0244401
0.0305071
0.0952427
0.0213715
0.0212509
0.0269399
0.0698509
0.0213964
0.0298505
0.0398073
0.0258844
0.0522816
0.0217107
0.785484
0.052173
1.95628
0.0226724
0.0276835
0.0235359
1.23808
0.0228547
0.0258162
0.0428715
2.10089
0.209828
0.0235494
0.0247205
0.0269141
0.0211026
2.59166
1.67401
0.0212173
0.0239232
0.0285226
1.24964
0.0246306
0.0211611
0.0297612
0.0288925
0.0561678
0.028623
0.107302
0.0774554
0.0495747
2.17667
0.0216668
0.0215155
1.38644
0.0271155
0.0233483
0.0280915
1.01846
0.0218248
0.0224382
0.0311326
0.419533
0.625744
0.428035
0.0514701
0.0246764
1.3434
0.0225066
0.022748
0.0725645
1.03693
0.222423
0.0216546
2.88877
0.0740756
0.0780019
0.0243754
0.0219608
2.65225
0.0224913
0.0635798
0.120098
0.0488158
0.0241432
0.0231553
2.21632
0.0266976
1.74602
0.0223925
0.33504
0.0387369
0.0797753
0.0228126
0.0217959
0.0228923
0.123507
0.0276703
1.1523
0.0810028
2.53142
0.184759
0.942468
1.04223
0.0219249
0.0209197
0.247166
0.382297
2.29791
0.0227131
0.854835
1.22308
0.021649
0.46026
0.0276994
0.0216488
0.0215251
0.490125
1.07646
0.0216669
0.323879
0.0217333
1.46209
0.429392
0.0206852
0.301278
0.0652509
0.0224275
0.0237096
0.0239261
0.0228723
2.78224
1.22484
0.0215168
1.80874
2.92316
1.20395
0.0231374
0.11322
0.0243049
0.0647344
0.124328
0.026236
0.0546277
0.0217099
0.0253112
0.0297298
0.0954845
0.0222982
0.326462
0.084959
1.00049
0.0666452
1.95089
2.6964
0.0216551
0.0216498
2.02973
0.107896
0.0216646
0.0631195
0.108319
1.15663
0.0258527
0.463356
0.0226142
0.0223092
0.0230954
0.0569092
0.0349786
1.20402
0.0216915
0.0211203
0.0237911
1.00336
0.0619177
0.0703241
0.0284927
0.181907
1.23876
0.0341897
1.1812
0.022377
0.0216618
2.49629
1.92445
0.0216812
0.0217193
0.0250071
0.0608197
1.70349
0.0216567
2.96421
0.0243949
0.0251812
0.0292975
2.35268
1.67144
0.0209068
0.443959
0.021698
0.0283177
0.0258044
0.916223
1.17968
0.107646
0.0587554
0.59125
2.57139
0.0347704
0.021205
0.0230429
0.0245454
0.0503547
1.42469
0.176019
0.0793925
0.499685
0.0219594
0.0752918
0.0203003
0.0296932
0.0920635
0.0278826
0.441129
0.0211682
0.584045
1.74737
0.620088
0.0249265
0.021523
0.271635
2.5352
0.63371
0.858081
2.53099
3.00574
0.0975961
0.0271457
0.179488
0.142459
0.0213449
0.0318793
0.323867
0.0215391
1.70512
0.0213738
2.14038
0.0246732
1.84368
0.960881
0.022775
0.0609853
0.0216316
1.29166
0.0293714
0.022366
0.316224
0.105104
2.35316
0.046164
0.970662
0.0395005
0.575059
0.0209376
0.847558
0.0216673
0.177926
0.0213874
1.30097
0.0236971
0.028598
0.0214595
0.305837
0.839709
0.0276607
0.248505
0.0225509
0.0240408
0.0218636
0.022943
0.0250155
0.0251604
0.0842083
3.04523
0.791918
1.62384
0.0260993
0.0734633
0.0217763
0.0212232
1.28679
0.0210305
1.32735
0.0905504
0.0217106
0.0226317
0.0448309
0.195375
0.0536598
0.160083
0.0223025
1.67774
1.64476
0.0280824
0.0213719
1.56285
0.0378286
0.023105
0.103519
0.029281
0.0215856
0.0906494
0.0426265
0.0244657
0.0213218
1.21401
1.72867
2.60569
0.311774
0.0247134
1.0592
0.0243943
0.0249688
0.0629469
0.0256946
0.0214362
0.0301282
0.0223108
0.0396126
0.0239133
1.97697
0.0219546
0.0204008
0.0224012
0.0351602
0.168509
1.11469
0.0249829
0.0247542