/*--------------------------------*- C++ -*----------------------------------*\
| =========                 |                                                 |
| \\      /  F ield         | OpenFOAM: The Open Source CFD Toolbox           |
|  \\    /   O peration     | Version:  v2012                                 |
|   \\  /    A nd           | Website:  www.openfoam.com                      |
|    \\/     M anipulation  |                                                 |
\*---------------------------------------------------------------------------*/
FoamFile
{
    version     2.0;
    format      ascii;
    class       surfaceScalarField;
    location    "100";
    object      ddtCorrDdt0(phi);
}
// * * * * * * * * * * * * * * * * * * * * * * * * * * * * * * * * * * * * * //

dimensions      [0 3 -2 0 0 0 0];
oriented        oriented;


internalField   nonuniform List<scalar> 
20580
(
-0.00074288
-0.000300308
0.00104321
0.000201974
-0.000200682
-1.29847e-06
-0.00017872
0.000380687
-0.000213603
3.79506e-05
0.000175663
-4.65989e-05
5.53893e-05
-8.76835e-06
-0.00019775
-5.49229e-05
0.000252696
-1.71363e-06
-9.48832e-05
-3.57978e-05
3.46204e-05
1.16824e-06
0.00260639
-0.00219311
-0.000413287
-0.0001162
8.11567e-05
3.50302e-05
0.000346842
-0.00209392
0.00174709
6.21518e-05
-3.77638e-05
-2.43932e-05
0.000331132
-0.000135787
-0.000195356
-0.00260024
0.0010456
0.00155465
-0.000448741
0.000547165
-9.84468e-05
0.000146151
-0.0014658
0.00131966
0.000549713
0.000253784
-0.000803519
0.000123877
-0.000129243
5.35901e-06
-0.000908114
0.0023075
-0.00139941
-0.000596814
-0.00014607
-0.000922622
0.000166414
0.000756255
-0.000115295
-0.000608563
0.000723898
0.00297975
-0.00255081
-0.000428997
1.37677e-05
-4.78248e-06
-8.97924e-06
-0.00200394
-0.000116005
0.00211995
0.00028982
-0.000487407
0.000197612
-0.00182191
-4.78945e-05
0.00186978
0.00168646
0.000717056
-0.00240353
-0.00115069
-0.000482981
0.00163369
-7.03456e-05
4.85508e-05
2.17394e-05
0.000545496
-0.000356566
-0.00018894
-0.000252529
0.000250856
-0.00171968
0.000940179
0.000779516
-0.00211486
0.000274222
0.00184069
-0.00025876
0.000119133
0.000139621
0.00175518
-0.00145298
-0.000302207
-6.22726e-07
1.43965e-05
-0.000926868
0.0010362
-0.00010937
0.0011532
-0.000354732
-0.000798518
0.000463918
-0.000487913
2.40044e-05
-0.00115723
0.000839412
0.00031781
0.000266079
-0.00141676
0.00044459
-0.000444586
-0.00335295
-0.005186
0.00853902
-0.00202429
0.000989768
0.00103443
-0.0001566
3.26214e-05
0.000123983
-2.87933e-05
-3.80643e-06
-0.000512072
0.00140924
-0.000897132
0.000245579
4.92673e-05
-0.000294818
-1.96395e-05
0.000350776
-0.00100731
0.000911791
9.55011e-05
0.000259829
0.000569613
-0.000829429
0.000525127
-0.000379006
0.000259973
-0.000214008
-4.59295e-05
-0.00303008
0.000119152
0.00291093
3.65347e-05
0.000427371
-0.00135755
-0.000362158
-0.000791364
-0.000365868
-0.00238986
0.00174458
0.000645276
-0.000253993
-1.30116e-05
0.000266998
2.54296e-05
3.67214e-05
-2.9925e-05
-0.00179195
4.36318e-06
6.83862e-06
-1.11899e-05
0.000343582
-9.79803e-05
0.0129159
-0.00262133
-0.0102947
0.00148036
0.0114355
-0.000126295
-0.000127705
-0.000694215
-0.00020846
-0.000332177
0.00039886
-6.67198e-05
0.000218827
-0.000213854
-4.9831e-06
0.000665995
-0.000197457
-0.000468576
0.000305893
0.000404904
-0.000710764
-2.03494e-05
9.48882e-05
-7.45321e-05
0.000141485
-0.000154506
-0.000158597
0.000365056
-0.000206483
-0.000427304
0.000621334
-0.000193981
0.000978757
-0.000429048
2.33613e-05
4.86963e-05
-7.20708e-05
0.00079916
-0.00280313
-8.54209e-05
-0.000114054
0.000199501
-0.000284351
-4.78467e-05
-0.00133806
-0.000879999
0.00221812
-0.000316114
5.73022e-05
0.00148985
-0.00227107
0.000781247
-0.000218691
0.000360181
0.000199236
-0.000569812
0.000370549
0.00102039
-0.00113572
-0.00161165
0.000441761
0.00116989
8.48583e-05
-0.000149039
6.41529e-05
0.000474601
7.08742e-05
0.000613119
-0.000353289
8.07544e-05
-0.000333227
-0.0001415
0.000141504
0.000524487
-0.000325251
-0.000589842
-0.00017335
0.00076319
0.00498879
-0.0059096
0.000920988
-2.31817e-05
0.000191346
-0.000168157
0.000721083
-0.00029838
-0.000422742
-0.00147108
0.00156857
-9.74561e-05
-0.000355365
-0.000291525
0.000646863
-0.00027616
0.000997223
-0.00126499
0.00113835
0.000126577
-0.00209977
0.00080999
0.00128973
0.00016877
-0.000177114
8.29499e-06
9.44996e-05
-1.95723e-05
-7.49186e-05
-0.00034316
0.000461057
-0.000117855
6.72082e-05
2.7272e-05
0.000411635
0.000254353
0.000226445
-0.000145628
0.000106525
1.73612e-05
-0.0003756
-0.000349138
0.000724716
-2.99064e-05
-0.0001267
0.000138572
-0.00121028
0.00107171
-0.000132337
4.49759e-05
8.73702e-05
-0.000715379
0.000217572
0.000497756
0.000218804
4.11979e-05
2.75609e-05
3.6676e-05
-6.42383e-05
-3.06942e-05
-5.09371e-06
3.18056e-05
-0.000245439
-3.17842e-05
0.000250635
0.000797551
-0.000720665
-7.69036e-05
-1.66759e-05
0.000104771
-8.8084e-05
-9.62139e-05
-0.000197983
0.000294212
-0.000746031
0.000815497
-6.94755e-05
0.00149577
0.000634171
-0.00212992
0.00287423
-0.00222476
-0.000649446
-3.30849e-05
9.91332e-06
0.00101312
-0.000942934
-7.01188e-05
0.000438386
-0.00116132
0.000722923
8.93335e-05
-0.000189154
9.98131e-05
8.29024e-05
-0.000691474
0.000822371
-0.000417469
-0.000404867
-0.000971416
4.45158e-05
-0.000165579
-0.00194927
-0.00064948
0.000996378
-0.000967771
0.000486979
0.000480809
-0.000539597
-0.00031225
-0.00025757
-0.000705554
0.00116947
-0.000463871
-0.000240056
0.000573161
-0.000333046
-0.00182101
0.000482957
-7.75633e-05
2.30211e-06
7.52594e-05
0.000115449
-3.06167e-05
-0.00252922
0.00190837
0.000620721
-0.00208789
0.000425849
0.00166205
-0.00028889
-0.00089211
0.001181
-4.0501e-05
6.38685e-05
0.000167919
-0.00350358
0.00234061
0.001163
0.00202988
-0.00101678
-0.00111902
0.000842841
0.00168439
-0.00154584
0.000166299
-0.000298626
-0.00170672
0.000336634
0.00137014
0.000142521
-0.000175037
3.25339e-05
-0.000250447
0.00020869
4.1746e-05
-3.2607e-05
-3.94085e-05
7.199e-05
0.000752039
0.000401144
2.00354e-05
-0.000224649
0.000204667
0.000115481
-5.16904e-05
-6.37545e-05
3.47607e-05
-2.304e-05
-1.16997e-05
-2.69501e-06
0.001338
-0.00133533
-0.000349339
6.21233e-06
-0.000726807
0.000214784
-0.0010685
-0.00153174
0.00267592
-0.000230116
-0.00244578
0.00230773
0.000368213
-0.000680546
-0.000326775
-0.000393402
1.78096e-05
0.000345051
0.000433981
-0.000779053
-5.18292e-05
2.03791e-05
3.14359e-05
-3.88602e-05
6.63964e-05
-0.000591213
-0.000347022
0.000938107
-4.36678e-05
1.63459e-05
2.73174e-05
0.000383984
-0.000973818
-0.00186815
0.00028737
0.00158078
0.000457237
-0.000652349
0.000195106
-1.51548e-05
-2.37266e-05
-4.55998e-05
-0.000267975
0.000313527
0.000391131
6.61914e-05
-0.00022604
0.0017218
0.00163581
8.22694e-05
0.00062252
-0.000704814
9.28929e-05
-3.55356e-06
-0.00082706
0.000827071
-0.00164846
-0.00185512
0.00192794
-0.000987771
-0.00210631
0.00134993
0.000756359
-0.000222477
0.000212492
9.97505e-06
8.16523e-05
6.97806e-06
-8.8607e-05
-0.000495793
-0.00159212
0.00015945
-0.000139422
0.0016885
-0.000642918
0.00011763
-0.000315368
-5.38627e-05
-0.000235025
0.000734559
-0.000366454
-0.000368181
0.00164156
0.000286368
3.87297e-05
-0.000153153
0.000114388
-0.000131435
0.00012342
8.00119e-06
-0.000510743
-0.00145497
0.00196566
0.0040121
-0.000851614
-0.00316049
0.000768405
-0.00129266
0.000524251
0.000692073
-0.00116673
0.000474658
-0.000215409
-0.000233329
0.011675
-0.00418228
-0.00749285
-0.000401651
0.00117006
0.000128263
-0.000515873
0.000387597
3.83426e-05
9.22682e-05
-0.000130614
-0.0028308
0.00109261
0.00173812
4.44371e-05
-0.000130875
8.64404e-05
8.00893e-05
-0.00104127
0.000961215
-3.04147e-05
-6.57963e-05
0.00219111
4.12894e-05
-4.82421e-05
6.95397e-06
0.000334358
-0.000457167
0.000122804
3.52893e-05
1.78779e-05
-5.3122e-05
0.000213585
-0.000233236
0.00142147
-0.000175078
-0.00124642
-7.10907e-06
7.98286e-05
-7.26775e-05
-0.0237459
0.0288817
3.68541e-05
-5.20079e-05
-0.000302659
-0.00137014
0.00167289
0.00190222
-0.000412347
0.000856617
0.000189456
-0.0010461
0.00130012
-0.000902365
-0.000397761
-1.82943e-06
4.01638e-05
7.15581e-06
-0.000192498
0.000185341
-0.00184663
-0.00068255
5.99928e-05
4.06231e-05
-0.000100635
0.000453482
-6.37289e-05
-2.30949e-05
8.68053e-05
-0.00181754
-0.000288792
0.000206655
-0.000162249
-3.48744e-06
-5.08783e-05
-0.000318096
0.00101018
-2.01444e-05
-5.02021e-05
-0.000228683
0.00320844
0.000898723
-0.00121325
0.000314564
0.000584176
-0.000939656
2.95873e-05
5.17891e-06
-0.00487948
0.00103093
0.00384855
2.96627e-05
-0.000409376
0.000379702
-0.00168682
-0.00033751
-0.00138571
-0.000590317
-0.000166401
0.000756621
0.00152459
-0.00217714
0.000652433
0.000457474
0.00096398
-0.000150164
0.00010451
-0.00371164
-0.00219791
-0.00020889
-0.000789972
0.0009989
-0.000634555
0.00229063
-0.00165607
-0.00134771
-0.000499825
0.00184758
4.05792e-05
-6.61692e-05
2.55921e-05
-0.000198282
9.82637e-05
0.000100004
0.000436169
-0.00102361
0.00102092
0.000298367
-0.000326898
2.85715e-05
9.12004e-05
-9.55505e-06
0.00171381
0.00011579
-0.000166782
5.09369e-05
0.000155123
-0.00150171
0.00134668
-0.00215472
0.00148564
0.000669093
-2.67458e-05
-0.000171497
-0.000220546
-0.000128758
0.000239071
-0.00158678
0.000192741
-0.000137139
-5.5597e-05
-0.00106156
-0.000203448
5.732e-05
0.000359748
-0.000417063
-0.00218333
-0.000249253
0.00243253
-6.61335e-05
5.12859e-05
1.48261e-05
5.0331e-05
0.000163254
-0.000517418
0.00112846
-0.0024434
0.00131495
-0.000166098
-3.35007e-05
0.000199579
-0.000646851
0.000733468
-8.66114e-05
-0.00012434
0.000107669
0.000747268
-0.000973313
0.00104864
-0.00259937
0.00155077
-0.00168509
0.000623698
0.00106135
-6.05051e-05
-0.000160057
0.00217789
-0.00104943
-0.00130635
0.00136816
-6.18267e-05
1.52736e-05
0.000215654
-0.000230918
2.5122e-05
0.000190343
-0.000215354
0.000542712
-0.000202364
-0.000340372
8.32543e-05
-0.000125793
4.25345e-05
-3.79862e-05
-1.41754e-05
5.21297e-05
-0.000931859
-0.000753252
-0.00110183
0.000744538
0.000357319
8.06685e-05
-4.10373e-05
-3.96074e-05
-4.16635e-05
6.83416e-05
-2.66728e-05
-3.02482e-05
9.02382e-05
4.22593e-05
-3.96608e-05
-2.57777e-06
0.000296072
0.000240867
-0.000536925
-7.0599e-05
0.00204247
0.000563876
-0.000509806
-0.00041282
-0.000244989
4.03569e-05
0.000204606
0.000731565
-0.000384148
-0.000361893
0.000124254
-0.000204919
8.06637e-05
-0.000899455
-0.00138632
4.35029e-05
0.00134281
0.000213434
-0.000290991
0.000480481
-0.000356232
-5.7006e-05
-0.00045281
-0.0016334
0.0013213
0.000312094
0.000409104
-0.000579378
0.000170292
-0.000480255
0.000527147
-4.67439e-05
-3.07585e-05
-1.58308e-05
-0.000819516
0.00116456
-2.63933e-05
-0.000341647
0.000706424
-0.000364618
-0.00121521
-0.000171134
-0.0018915
-0.000218586
0.00211005
1.64063e-05
9.90605e-05
-0.000573477
0.00111617
0.00167872
0.000850349
-0.00252906
9.6584e-05
-0.000646743
0.00055014
-0.000437039
-5.24716e-06
0.000442239
0.000389926
0.000349926
-0.000739873
-0.00034619
-0.000621594
-0.000656383
0.00115078
-0.000494407
0.0023432
-0.000656797
-0.000182979
5.15436e-05
-0.000248837
0.000528062
-0.00027924
0.00134205
-0.00134202
0.0113943
-0.00902496
-0.00236939
0.00544342
0.00595088
4.7642e-05
8.06255e-05
-0.00100482
0.00127596
-0.000271154
-0.00054443
-5.96897e-05
0.000604049
-0.000937739
-0.000673902
0.000390211
-0.00108902
0.000698751
2.32659e-05
3.54108e-05
-5.8667e-05
-1.26784e-05
-1.61113e-05
0.000137271
-0.000313309
0.000176029
-0.000440473
0.000537037
-0.011024
-6.44614e-05
0.000147728
0.000683271
-0.000411226
0.000388162
2.30698e-05
0.000216495
0.000605841
-4.96239e-05
-2.02698e-06
-0.00155112
-8.22768e-05
-0.000720851
0.00146815
0.000158664
0.000453605
-0.000418323
9.13512e-05
0.000115331
-0.000796873
-5.12659e-05
0.000848157
-1.13853e-05
-0.000211097
-0.00065806
0.000215776
-0.000200483
0.000727746
-0.000784757
-0.0011104
0.000699118
-3.32571e-05
-7.52461e-05
-0.000169759
0.00227788
-0.000339191
-0.00193874
-0.00150515
0.00121355
0.0007369
-0.00148639
0.00074954
0.000707316
0.000389178
-0.00118607
0.000501281
-0.0013934
-0.000267996
-0.000859245
0.00225798
-0.00139872
-4.81136e-05
-6.43264e-05
0.000112456
-1.54367e-05
-0.00187609
0.000739955
0.000359328
-0.00109932
-0.00134886
-0.000122239
-0.000309027
0.000446265
0.000468055
-7.61806e-05
-0.0012791
-0.00111075
-0.00103043
0.000991716
3.8684e-05
-0.000985954
-0.000261456
0.00124731
-0.00167608
0.00178771
-0.000111638
-7.12684e-05
0.000210876
-0.000139632
4.828e-05
-0.00191642
9.95618e-05
0.000345003
-0.000294168
0.000264567
2.95786e-05
-0.00214131
0.00150678
0.0003308
-0.000353483
2.26899e-05
-0.000955747
-5.8416e-05
0.00101415
-2.20702e-05
4.72137e-05
5.17116e-05
3.66334e-05
-0.00114182
7.52776e-05
0.00106658
0.00275747
-0.00101181
-0.00174579
-0.00014442
-0.00010602
-0.000160172
-8.06188e-05
0.00024083
0.000930893
-0.00203269
-0.000426587
0.000183066
-7.61299e-05
-0.000106936
-0.000473692
-0.000173151
0.00390172
-0.00164822
-0.00225347
8.01607e-05
-0.000100504
-0.000202871
0.000295159
0.000237154
-0.00033521
9.79901e-05
4.94825e-06
0.00017761
-0.000182521
0.00347987
-0.00432694
0.00084708
-9.1288e-05
-4.95373e-05
0.000140821
0.000550996
-0.000141884
-0.000204933
7.40524e-05
-0.000171076
0.000460917
-0.0100872
0.0217621
-0.00152055
-0.00131444
0.000251365
0.00106307
0.000169984
0.000128406
-0.000189022
-0.00105132
-0.00382816
0.000163335
2.93865e-05
0.0011905
0.00108739
0.000553824
0.000397414
-0.00095126
0.000301997
0.000166096
-8.00698e-05
0.000103206
-2.31494e-05
-0.000603481
0.000603474
0.00199386
-0.00258782
0.000593963
-0.000980388
0.000572531
0.000407819
0.000181986
-9.06388e-05
-0.000902752
0.00241604
-0.00100272
-0.00141332
-0.000226412
6.02993e-05
-2.8759e-05
9.90268e-05
-7.02812e-05
-0.000511589
0.000262732
0.00209646
-0.00115605
-0.000940403
-0.00186648
0.000434469
0.00143201
-0.00100131
0.000792453
0.0013576
-0.000516791
-0.00084074
-0.000118768
0.000109075
9.67415e-06
-4.15198e-05
-2.15445e-06
-1.26563e-06
-0.00302882
0.00143901
0.000202546
-0.00164159
-0.000311689
0.000195479
0.000362527
-0.000563199
-4.26986e-05
-0.000160172
7.35192e-05
-6.55748e-05
-7.93632e-06
0.00278033
-0.00078648
-0.00117444
0.000169648
0.000607244
0.000132718
0.000280186
0.000163223
-0.000443372
7.58629e-05
-0.00014712
0.000293941
-0.000517368
0.000223424
-0.000354165
-0.000676256
-3.51893e-05
7.55357e-05
0.000744652
-0.000450718
0.00278154
-0.00159099
-0.00119052
0.00207627
0.00182543
-0.000255233
0.000338182
0.00168277
-0.000818632
-0.000864097
-3.67362e-06
8.03659e-06
-3.18927e-05
1.77189e-05
-0.00027293
0.000277892
0.000237078
0.000556009
0.000116534
-0.0006725
0.0002986
-0.000329875
3.12899e-05
8.56859e-05
-5.81995e-06
-7.9883e-05
0.00050099
0.000296587
0.000293684
-0.000223512
-7.00996e-05
0.00054544
2.68973e-05
-0.000572346
2.52269e-05
4.14094e-05
-6.66766e-05
-0.000380591
0.000425227
-4.46643e-05
0.00187775
-0.000888031
-0.000701015
0.000106666
0.000594321
1.58987e-05
8.72177e-06
-2.46312e-05
8.53489e-05
-6.42643e-05
-2.10896e-05
2.71184e-05
0.000253078
-0.000195413
0.000368378
-0.000172932
0.00594314
-0.00234221
-0.00360095
-0.0023942
0.000384035
0.00201013
-0.000237954
-0.000352381
0.0263841
0.00261651
-0.0290006
-9.09281e-05
-4.54095e-05
5.45798e-05
-9.16675e-06
-0.00023798
-0.00130805
0.00154602
0.000403657
2.02222e-06
-0.000118005
0.00011596
7.05357e-05
-0.000162075
9.15204e-05
0.000159109
0.000454971
-0.00116045
0.00171365
-0.00500663
0.00329292
7.43359e-05
9.44015e-05
0.000997247
-0.000381031
-0.000616153
-0.00132515
0.000193408
4.24253e-05
-0.000235851
0.000661958
0.000488807
0.00132955
0.00108653
-0.00127016
0.000289763
4.90782e-05
-0.000687499
0.000638429
0.00124736
0.000168115
-6.25883e-05
-0.000105509
0.000855027
0.000127618
-0.000218958
0.00102286
0.000618684
3.63712e-05
0.000517458
2.63047e-05
-0.000836545
0.000135503
0.000684724
3.85826e-05
1.68021e-05
8.03727e-06
4.48371e-05
-5.29042e-05
-0.00119067
0.000952683
0.00059102
-4.55829e-05
0.000145202
4.47659e-05
-0.000190041
0.000387353
0.00063023
-0.00136097
0.000730741
-0.00111372
0.000632994
-9.72006e-05
-0.000535797
-1.19281e-07
0.000201232
-0.000201088
0.000428929
0.00305099
6.17469e-05
1.9404e-05
0.000114018
6.90406e-05
-0.00122875
0.00187283
-0.000644066
0.000388696
0.000669722
-0.00105842
0.000309297
-0.000110972
-0.00019832
-5.36961e-05
7.48127e-05
-2.11042e-05
0.00475512
-0.00347305
-0.0012821
0.00074578
0.000172466
-0.00091825
-8.02705e-06
-7.68513e-05
8.48774e-05
9.98338e-05
-0.00224643
0.0021466
-7.12534e-05
3.94264e-05
3.18041e-05
-0.00114393
-0.000293383
0.00143729
-0.00378373
0.00972687
2.95364e-05
-0.000114952
0.000194213
0.000219771
-0.00041399
-0.000204001
-8.79121e-05
0.000291984
-0.00240192
6.05107e-05
-0.000114037
0.000498296
-0.000384309
0.0026158
-0.00218685
-0.000113522
2.78472e-05
8.57223e-05
-0.00126676
0.00089558
0.000371141
0.00131591
-0.002224
-0.000443924
-0.00117112
0.00161505
-0.000464544
0.000513624
-0.00266898
0.00107802
0.000803165
0.000119528
-0.000922718
-3.81872e-05
-7.53166e-05
-0.000181463
0.00110771
-0.00092628
-0.000335286
3.96102e-05
0.000295664
0.000120097
0.000444537
0.00119143
-0.00163597
-0.000195585
-0.000760192
-0.000746941
-0.000159741
0.000906663
-0.000191433
0.000747454
-0.000132588
3.89343e-05
9.36422e-05
-0.000253725
4.57846e-05
0.000207963
-0.000949771
0.00138813
0.00102026
-0.000112468
-0.000907774
-0.000117072
-5.20403e-05
0.000169106
-0.00118705
0.000756031
0.000430983
0.000222473
6.35723e-05
-0.000853378
-0.000219555
-0.000106688
0.000326324
4.33936e-05
-7.21467e-05
0.000720005
-9.86662e-05
0.000969055
-0.001031
6.19258e-05
0.00137296
0.00138449
-0.000297696
0.000108712
0.000200606
-0.000123882
-4.29166e-05
0.00119947
-0.00230358
0.00110412
0.000202529
-0.000185519
-1.70168e-05
0.000308262
4.7888e-06
-0.00031307
-0.000171773
-7.09599e-05
0.000242728
-0.000153129
7.18395e-05
8.12957e-05
-0.000658574
0.000358499
0.000300014
0.00114038
0.000746297
-0.00188672
-0.00135886
5.25049e-05
-9.50029e-05
0.000148865
-5.38965e-05
0.000442826
-0.000343279
-0.000259042
0.000332911
-7.38613e-05
0.00144987
-0.00111808
-0.000331757
0.00165667
-0.0013906
-0.00275854
0.00287771
0.000201025
-7.37365e-05
-0.000127296
3.09673e-05
-0.00117157
-0.000928169
-0.00107415
4.31765e-05
0.00173085
3.54179e-05
-0.00176624
-0.000142798
-0.000110865
0.00352458
-0.0018109
0.000100596
-0.00032011
0.000366588
-0.000388575
0.000528912
-0.000592605
0.00247415
-0.00186257
-0.000611584
0.000605884
-0.00141921
0.000813412
3.81332e-05
-0.00118207
-0.000928448
0.00193811
-0.0010096
0.00116854
-0.000576326
-0.000592228
-0.000563502
0.00033856
0.000224931
-0.000353396
0.00209799
-0.000896808
0.00225442
-4.33068e-05
1.49776e-06
4.18769e-05
1.17106e-05
-0.000153226
0.00194622
-0.00155871
-0.000387587
-0.000311142
-0.000147169
0.000136002
-0.000201674
6.57007e-05
0.0171105
0.0092736
-0.00163451
-0.00348156
0.00511613
0.000948268
-0.00108013
0.000131964
0.000200566
-0.000235787
-2.47606e-05
-1.26275e-05
3.73869e-05
-0.000525958
-1.28717e-05
0.000538805
-6.88205e-05
0.000814567
4.42354e-05
-1.90073e-05
0.000772665
-3.94214e-05
1.46731e-05
-0.0013185
0.000390086
-0.000120097
-8.8993e-05
0.0002091
-0.00021086
0.000512856
-1.94982e-05
-0.000157615
0.000141347
-0.000149376
-0.00100889
-0.00151247
0.00252134
-0.000508938
-0.000678119
-0.000241672
-0.000113596
0.000355287
0.000676437
0.000579783
-5.72309e-06
-7.56904e-05
8.14237e-05
0.00013191
-8.6318e-05
-4.56055e-05
-0.00170837
0.00136135
0.00018063
-9.49761e-05
0.00155661
6.05589e-05
-0.00161718
0.000198942
1.74379e-05
-0.000216406
-0.000877697
0.00087973
0.00210661
-0.00246
-0.000234725
2.87829e-05
0.000205945
-0.000178636
0.000409066
-0.000230409
7.77882e-05
-7.06369e-05
0.000809981
-0.000678957
-0.000130969
0.000255504
0.000187299
0.00234147
-0.000678005
-0.00166348
-0.000797884
0.00027763
0.000670638
-0.00090199
0.00565711
0.00345513
0.00103348
-0.00448856
0.000839095
0.00110713
0.000101761
-6.18418e-06
-9.56103e-05
-0.00135366
0.0014535
-0.00015628
-3.15251e-05
-0.000262633
-7.11417e-05
0.000216374
0.00220842
-0.00226202
5.35708e-05
3.85466e-05
-8.66512e-05
-2.26077e-05
0.00157922
0.000145423
-0.000106747
0.000852222
0.000316297
0.000163572
7.68911e-05
-0.000240484
6.6854e-05
1.07241e-05
-7.76343e-05
-0.000719233
0.00026018
0.00196581
-0.00222598
-2.01522e-05
-7.09712e-05
9.11485e-05
0.000126065
-0.00014622
-0.000423787
-6.36123e-05
-0.000304503
0.000125874
0.00183383
0.00107909
-0.00291285
0.000393225
8.72505e-05
-0.00169364
0.000355095
0.00133858
0.000115452
0.000178269
-8.57025e-05
-3.06668e-05
0.000116363
-0.0025803
0.000488066
0.00209223
-0.00161835
0.000872601
0.000100007
-0.000972706
-9.71201e-05
7.2447e-05
2.46863e-05
-0.000103872
0.000161166
0.000131271
-0.000891111
0.000759812
-0.000387498
0.000389895
-2.33185e-06
-2.74968e-05
-0.00012475
0.000152229
0.000240831
-0.000294693
-0.00167367
3.91852e-05
-9.72612e-05
-0.000428696
-0.00050216
-0.000224619
0.000539422
-0.0002335
-0.000584761
0.000989637
-0.00120202
0.00180795
0.00204048
-0.00704716
0.00180149
0.000506013
-0.00116935
0.00228699
-0.0011176
0.000251939
-0.000365938
0.000285067
-0.00140407
-0.00151449
-0.000499963
0.00201446
-0.00804824
0.00737641
0.000671807
0.00149928
-0.00105477
-0.00181404
-2.0554e-05
-7.43034e-05
9.48571e-05
0.000165917
0.000200717
0.00224151
-0.000440013
0.000606352
1.84055e-05
-0.000624723
-0.0002313
0.000117252
6.9587e-05
9.90649e-05
-0.000168654
-0.00044413
0.000653191
-0.00020906
-4.93736e-05
-0.00162669
-5.56316e-05
-0.000324929
-0.00107729
-0.000135964
-7.18722e-05
6.61565e-05
0.00279951
-0.000965695
-9.29848e-05
-0.00278146
0.00287446
-0.00139898
0.000183763
0.000291143
-0.000313794
-2.53648e-05
-0.000179591
-0.000299553
0.000120838
-0.000347895
-0.0010511
0.000612744
0.000259804
-0.00226841
-0.00577983
0.000436296
4.53283e-05
3.05373e-05
-0.000549584
-0.00121579
0.00176541
0.000365875
-0.0015689
0.000250432
4.2095e-05
-0.000215097
0.000172987
0.0010672
-8.24858e-05
-0.000984701
-3.32419e-05
-8.55285e-05
0.000119072
-0.000527037
1.11643e-05
7.08313e-05
-0.000156539
-0.00063021
-0.00122438
0.00185454
2.97013e-05
1.25562e-05
-0.000462775
-0.00211752
-0.00124394
0.0014409
-0.00114979
0.000843255
0.000111878
-0.000955124
0.000667332
0.000901248
-0.00147092
-9.79532e-05
0.00235892
0.00109624
-0.000530943
-0.000266949
-0.000228907
0.000188894
-0.000138577
1.49028e-05
-5.13301e-05
3.64354e-05
5.96959e-05
7.22104e-05
-2.30784e-05
-0.00014624
0.000719907
-0.000573709
-0.00115344
0.00154228
-0.00038892
0.00141992
-0.00128868
0.00227384
-0.00155676
1.58367e-05
-0.000133829
0.000117953
-0.000788325
8.87407e-05
-8.87484e-05
-0.000162861
0.000200809
0.000187843
0.000217836
-0.000405717
7.52774e-05
1.34576e-05
-0.000102253
0.000104721
-2.48944e-06
0.00230704
-0.002057
-0.000250019
-0.00050922
0.000454288
-0.00175876
0.00156568
0.000193061
0.00175428
-0.0009152
0.000348524
-0.000108368
-0.000302154
0.000410531
-3.02566e-05
8.42174e-06
2.18622e-05
-0.00147344
0.00174766
-0.000875739
5.93056e-05
0.000816447
-0.000200457
8.95209e-05
0.00259469
0.000234566
-0.000246635
1.20664e-05
-8.17578e-05
8.40472e-05
0.000183405
-0.000103931
-7.94771e-05
0.000102066
-8.13353e-06
-9.39444e-05
0.00202737
-0.00178259
-0.000244784
0.00061737
-3.04492e-05
-0.000586928
0.00081725
-0.000595446
-0.000221854
0.000474348
0.00162208
0.00043736
0.000582879
0.00114955
0.000200363
0.00150075
-0.000683508
-0.0008172
0.000334799
-0.00157299
0.00123818
3.8915e-05
-2.39921e-05
-0.00111817
7.06753e-05
-4.96498e-05
-2.10394e-05
-0.000211403
-1.20833e-05
0.0014151
-0.00196471
0.000549572
0.000320006
0.0002155
-0.000535499
0.000119135
-0.000834531
-0.00170895
0.0026905
-0.000981484
9.70186e-06
9.7537e-05
0.000170787
-0.000268334
8.07395e-05
-8.07485e-05
0.000267944
0.00118194
-0.000312507
-0.000251008
0.00019094
-9.34088e-05
0.000183852
2.61958e-05
-0.000210052
0.00056496
-0.00121984
0.000654804
2.27128e-06
-4.28129e-05
4.05684e-05
0.000279962
-0.000310792
3.08815e-05
-0.00487654
4.09898e-05
0.00247246
-0.00251347
-0.00154433
-0.000164579
-0.000417566
-7.62652e-05
0.000493845
0.00133544
-0.000166016
5.65498e-06
0.00191731
0.000454552
-0.00237188
5.96033e-05
2.47634e-05
-8.43669e-05
-0.000242648
8.24921e-05
0.000942
-0.00211132
0.000976316
-0.00102759
0.00112049
-0.000623491
-0.000949487
0.000139373
-0.00025974
0.000120374
0.000118836
-5.20128e-05
-0.00452195
0.00563759
-0.00111578
-0.000135221
-5.01041e-05
0.00018531
9.66981e-05
2.02811e-05
-0.000116963
-0.00230124
-0.000249537
0.00123615
-0.00108102
9.0571e-05
-0.00225595
0.00216539
0.000303129
-0.000662623
0.000982625
-0.00018572
-0.000139963
0.000325684
-7.96873e-06
5.65018e-05
-0.00108452
-0.0010713
0.0021558
0.000995311
-0.000388072
-0.000102696
0.000137526
-0.000173272
3.57322e-05
-0.00025478
0.000472334
-0.000988933
0.0011193
-0.000130344
-0.00113571
9.2454e-05
5.00568e-05
5.27117e-05
-9.36346e-05
4.0914e-05
0.00212095
-9.35747e-05
-0.000156844
0.000129334
8.55285e-05
0.000479405
-0.000564934
-3.36465e-06
7.68978e-05
8.42416e-05
0.000901934
-0.000986158
4.81575e-05
-7.58509e-06
-0.000571664
0.000228357
-4.80737e-07
3.09023e-05
-3.0455e-05
-0.000689309
0.00127348
-1.48773e-05
0.000240818
-0.000225865
-0.00692903
0.00117745
0.00575145
0.000859337
1.66994e-05
7.82143e-05
0.000244041
-0.000351876
0.000107844
-3.97297e-05
2.02464e-05
1.94829e-05
-0.00190766
0.00232433
-0.000416623
3.18816e-05
-1.87054e-05
-1.31969e-05
6.74321e-05
-0.000394318
-0.000304993
-0.000125346
0.000430366
0.00193038
-0.00251614
0.000585722
0.00167492
0.000167863
-0.00184277
-0.000669483
0.000260102
0.000409378
3.13634e-06
-5.67188e-05
5.35529e-05
7.94076e-05
0.000217063
-0.000296525
0.000619229
-0.00246584
0.00184661
-0.000111234
1.6219e-05
4.13884e-05
0.000174136
0.000108824
8.00758e-05
0.000396463
0.000116458
-0.000512883
-0.000118635
9.81093e-05
0.0014482
0.000793306
-4.47911e-05
2.62994e-05
1.85106e-05
-2.59047e-05
-1.38184e-05
0.00046595
-0.00222474
-0.000824992
5.27253e-06
8.00827e-05
8.57344e-06
-0.000222544
0.000754628
-0.000970991
0.000216351
0.0191765
-0.00018369
-0.0189928
0.00195661
-0.00169641
8.76114e-05
3.5926e-06
0.000764034
-0.00227852
-3.98216e-05
-2.63356e-05
4.26971e-05
-4.04156e-05
8.59147e-06
-0.000183629
-1.82881e-05
5.61325e-06
-0.000248058
-1.06801e-05
0.000258757
-0.00144284
0.00138702
5.58252e-05
-0.00317369
0.00178964
0.00138406
8.53685e-05
-9.24817e-05
5.09882e-05
-3.63138e-05
-0.000699716
-4.72698e-05
4.139e-05
-7.13057e-05
0.000325678
-0.000246291
0.00165584
0.0010547
0.000705896
-0.00105208
0.000441898
-0.000197884
-0.000142395
-3.0771e-05
-1.25121e-05
0.000549439
-0.000382999
-0.000629883
0.00053694
0.000167554
-6.58203e-05
5.08367e-05
1.98368e-05
0.000936161
-0.000821786
-0.000114364
-0.000128168
0.000291744
-0.000114718
6.3973e-06
-0.000573266
-6.03498e-05
-2.55895e-05
8.59336e-05
1.60516e-05
-9.21741e-06
-0.000984972
0.000862032
0.000122923
-8.97323e-05
0.000131146
0.00102684
-0.00109282
6.60066e-05
-9.27573e-05
0.000388838
-7.41438e-05
0.00199879
-0.00192468
0.00084971
0.000145575
-8.75962e-05
4.59288e-05
-0.000946484
2.22841e-05
0.000924262
0.000103359
-0.00104982
0.000132693
-0.00196328
0.00183055
0.00171264
0.000165292
0.00119908
-0.00136433
0.000143696
-0.000831183
0.00362898
-0.00210447
0.00195942
-2.91947e-05
-0.00193026
0.000320873
0.000285405
6.98811e-05
-4.66122e-05
0.00222284
-0.00122139
-0.00100142
0.000270483
-0.000317496
4.69909e-05
3.67151e-05
-3.35895e-05
0.000338349
-0.000137299
0.00031579
-4.53183e-05
0.00075395
0.00165255
-1.53523e-05
8.49179e-05
-6.9559e-05
-0.0012211
0.000236086
0.00126068
0.000641567
-5.51212e-05
0.000164939
-0.000109787
0.00016516
0.000661896
1.3375e-05
0.000119902
-0.000133313
-0.000623969
0.000565316
5.86685e-05
0.000470113
0.000681066
-0.00115119
4.80912e-06
-0.000191654
0.00192251
0.00102793
0.000572295
-0.00160022
-0.000281976
-0.000387515
-0.0331737
0.0523501
-0.000301674
0.000958792
0.00125193
-0.00221066
-0.000558536
0.00083312
-7.84775e-05
0.000228201
-8.12971e-05
-0.000146853
0.000243004
0.000664774
-0.000907826
0.000406206
-0.000141631
-0.000744268
0.000627186
0.000117087
-0.000687856
0.000557171
0.000130658
-0.000548913
0.000791968
-0.000939257
0.000758691
0.000180593
4.98063e-05
7.83725e-06
-5.76467e-05
3.75778e-05
0.000101762
0.000138092
-4.31084e-05
-9.50001e-05
3.99919e-05
-1.73436e-05
-6.33969e-05
8.07282e-05
-0.000499366
0.0021894
-0.00156689
4.76581e-06
9.52111e-05
-9.99531e-05
0.000344857
0.000804688
0.000729567
-0.000585848
0.00010062
-1.30147e-05
0.00025659
-0.000209328
-4.7291e-05
0.000664486
-0.000133063
-0.000531498
0.000154717
3.95069e-05
0.00122446
-0.000204045
0.000249062
0.000786991
-0.00103603
-0.00170875
0.00184741
-0.000138611
-0.0001544
-6.55736e-05
0.000219931
0.000318397
0.00173198
-0.00205037
0.000487168
0.00173566
-0.000135429
-0.000154677
-0.000492053
6.05322e-05
-2.16042e-05
-0.000889804
0.00124333
-0.000353518
3.20834e-05
-2.16919e-07
0.000166375
0.000106922
-0.000273332
-0.00394617
0.00170507
0.00224105
9.99593e-07
-4.63905e-05
6.96789e-05
-8.50243e-05
-0.000259511
0.000649435
0.000223383
-1.47029e-05
0.00067553
-0.000110597
0.000288105
-0.000107467
-1.17106e-05
-0.000118807
0.000130516
-0.000876468
-0.00141542
0.00229193
-0.00191095
0.000693739
0.00121723
-0.00110918
0.000927698
-3.68143e-05
0.000151167
-0.000114326
0.000730797
0.000242027
0.000289178
-0.000531167
2.01158e-05
0.000682858
-4.29158e-05
0.000117735
0.00061845
-0.000773147
-5.39997e-05
0.000122881
-6.89518e-05
-0.00025158
0.00233752
-0.00235298
0.000267853
-3.07539e-05
0.00131305
-0.00222707
0.000914059
-4.17047e-05
-5.05448e-05
9.22591e-05
-0.000546444
0.0026627
-0.000325182
0.00135671
0.000991281
3.66355e-05
-1.12696e-05
-6.4408e-05
-9.01966e-05
-4.78218e-05
0.000137993
-0.000859282
0.000379117
-0.000140557
-6.4192e-05
0.000204728
-0.000118016
0.000921206
0.00149874
0.000227339
-0.000227456
0.00075555
-0.00161482
-0.00210217
0.00011035
0.00199178
9.15288e-05
9.18818e-05
-0.000747446
0.000996552
-0.000286554
-0.00028512
0.00101859
0.000217534
0.000111132
-0.000416117
0.00165545
-0.000909134
-0.00185463
5.35485e-05
-5.29599e-05
-5.76296e-07
-0.00219323
0.0022838
0.000761121
0.000739615
-9.42642e-05
3.38918e-06
9.08562e-05
-9.67396e-05
-1.59456e-05
0.00011269
0.000128956
0.0002361
0.000163097
0.000207963
-0.000371025
-0.00148981
0.0025824