/*--------------------------------*- C++ -*----------------------------------*\
| =========                 |                                                 |
| \\      /  F ield         | OpenFOAM: The Open Source CFD Toolbox           |
|  \\    /   O peration     | Version:  v2012                                 |
|   \\  /    A nd           | Website:  www.openfoam.com                      |
|    \\/     M anipulation  |                                                 |
\*---------------------------------------------------------------------------*/
FoamFile
{
    version     2.0;
    format      ascii;
    class       volScalarField;
    location    "100";
    object      nut;
}
// * * * * * * * * * * * * * * * * * * * * * * * * * * * * * * * * * * * * * //

dimensions      [0 2 -1 0 0 0 0];


internalField   nonuniform List<scalar> 
13851
(
0.00043005
0.00180007
0.00155364
0.00407664
0.006722
0.00123757
0.00291772
0.0067623
0.0112759
0.00673043
0.000361986
0.0067226
0.00313816
0.00527416
0.00108147
0.00151135
0.0024387
0.00465316
0.000609576
0.000580401
0.00103005
0.000730076
0.000825948
0.00672541
0.000629113
0.00286501
0.000423538
0.00177315
0.0107647
0.00673726
0.00870168
0.00337986
0.000520089
0.0120101
0.000421765
0.010781
0.00672564
0.000611839
0.0124274
0.00212766
0.0127283
0.0105143
0.000184132
0.000132276
0.0100787
0.00529155
0.00673348
0.000954452
0.00158465
0.00212347
0.00320986
0.00233126
0.00154269
0.00166967
0.00505936
0.00243096
0.000963494
0.0137005
0.000675193
0.00516238
0.00672253
0.000753549
0.00672442
0.000842219
6.30817e-05
5.1808e-05
0.0032899
0.000122227
0.0032692
0.00599632
0.00895987
0.00090738
0.0034799
0.0038894
0.00148543
0.000897251
0.00405404
0.00673241
0.000737622
0.0067302
0.00272258
0.000354099
0.000476144
0.00602433
0.00555872
0.0088676
0.000703804
0.00274911
0.00640443
0.00861147
0.00226426
0.0030761
0.000336327
0.00858642
0.0129472
6.54992e-05
0.00640269
0.00139312
0.00351941
0.000207973
0.00112105
0.000174636
0.000143602
0.00297609
0.0055252
0.000665665
0.00614754
0.00921226
0.00317971
0.00441652
0.000676702
0.0065591
0.000736214
0.000599804
0.000669452
0.00209154
0.00672456
0.00673349
0.00353786
0.00616208
7.23391e-05
0.00580072
0.00281018
0.0112564
0.000434212
4.33511e-05
0.0061411
0.000271712
0.0131778
0.00101002
0.00100506
0.000742821
0.000453031
0.0125299
0.000527326
0.0128573
7.53579e-05
0.00900008
0.000190523
0.00115996
0.000370887
0.00239821
0.0049377
6.00373e-05
0.00145374
0.00124199
0.00673136
0.00856029
0.0101881
0.000216505
0.00115739
0.000454947
0.000532239
0.000609821
0.00187192
0.00440788
0.00672276
0.0126177
0.00126268
0.00261277
0.00672498
0.0107736
0.000722444
0.00121746
0.00555143
0.0107692
0.0107103
0.00488514
0.000470644
0.00900421
0.00672279
0.00672391
0.000701459
0.00672229
0.0132699
0.000452715
0.000816287
0.00672424
0.00154917
0.000882403
0.000537594
0.00012137
0.00053736
0.00128923
0.000212732
0.010381
0.000564474
0.000246779
0.00237132
0.00674039
0.000658002
0.00109748
0.00329273
0.0011195
0.000731688
0.00155547
0.000381724
0.00361756
0.00317101
7.54131e-05
0.000326509
0.0136421
0.0138633
0.00110556
6.81618e-05
0.0131624
0.000862377
0.00156731
0.0113927
0.00159624
0.00153392
0.0033334
0.000448616
0.00672505
0.000510546
0.00119283
0.00363743
0.000585572
0.00361295
5.82756e-05
0.00672387
0.000566019
0.00434227
0.013081
0.000374845
0.00177817
0.00672582
7.2586e-05
0.00672452
0.000426082
0.00308197
0.00027983
0.00134661
0.00672359
0.0137401
0.0067385
0.000707173
0.013836
0.00019021
0.00672522
0.000120608
0.00582905
0.00925611
0.00153352
0.000988395
5.13118e-05
0.000380086
0.00177453
7.55606e-05
0.000444779
0.00359395
0.000507746
0.00673589
0.00115215
0.00143804
0.0108124
0.00525496
0.0067386
4.76465e-05
0.00673255
0.000686525
0.0005674
0.00131985
0.0009784
0.000414353
0.00407872
0.000142065
0.00117276
0.000892483
0.00672344
0.00290809
0.000388113
0.0106581
0.00178735
0.00112815
0.00547435
0.000729868
0.000621969
0.000682558
0.000839666
0.0114207
0.00334529
0.00129133
0.00138085
0.00123871
0.00612987
0.00672253
0.00054313
0.000463622
0.00674219
0.00672501
0.006725
0.00672362
0.00122973
0.00672261
0.0113181
0.000833046
0.00436488
0.0108777
0.0106628
0.00247546
0.000628584
0.00322308
0.00123175
0.00259253
0.00105562
0.00539684
0.00771289
0.000883696
0.0067209
0.00969654
0.00672265
0.000749039
0.0050021
0.000495092
0.00219422
0.000394551
0.00032329
0.00989381
0.000461114
0.00013341
0.0132315
0.0123556
0.00148275
0.002452
0.00478245
0.000278753
2.75166e-05
2.73291e-05
0.00123345
0.000654396
0.000438419
0.00363312
0.000120264
0.00671952
0.00672397
0.00109057
0.00958023
4.8604e-05
0.00654861
0.0128263
0.000416102
0.000770468
0.00398867
0.00396972
0.000530727
0.00143498
0.000907346
0.00150185
0.0108794
0.00236948
0.000806276
0.00138334
0.000807712
0.000352773
0.00673371
0.00320203
0.000282839
0.000210383
0.00062755
4.23504e-05
0.0107613
0.00170092
0.0136939
0.000484743
0.0067544
0.000926957
0.000978244
0.00505997
0.000817151
0.00279653
0.000879564
0.000531784
0.000279415
0.00478483
0.00242376
0.00041256
0.00060842
0.00106028
0.00539472
0.000973918
0.0139951
0.00149495
0.00229526
0.00053508
0.00020079
0.00509384
0.00159372
0.00031681
0.00187993
0.00534992
0.00090619
0.00885231
0.00326626
0.00105596
0.00226768
0.00123445
0.00012556
0.00244931
0.00739928
0.00107399
0.00223054
4.56035e-05
0.00061092
0.000718384
0.00365939
0.00402125
0.000132033
0.00468095
0.000299845
0.000915118
0.00283716
0.00627066
0.000225513
0.0100762
0.00093302
0.00149712
0.000570858
0.000633816
0.00227574
0.0067359
0.00280994
0.000269966
0.000871113
0.00032323
0.00176659
0.00357128
0.00672238
0.00355969
0.000532809
0.00520254
0.00188355
0.000947583
0.00672384
0.00923071
0.000607046
0.000797925
0.00251431
0.00224855
0.00352043
0.000295263
0.00284965
0.00208238
0.00335577
0.0102733
0.000916073
0.000786519
0.00672408
0.00672227
0.00128558
0.000573578
0.00197603
0.00576311
0.00230531
0.000141519
0.00185853
0.00783023
0.0067223
0.00171469
0.00989448
0.000276349
0.00671888
0.00672326
0.00201176
0.00329631
0.00023429
0.00514809
0.00118524
3.30286e-05
0.00180348
0.00672318
0.0125423
0.000737038
0.000263499
0.00378185
0.0120113
0.000190346
0.000228177
0.00374669
0.0008376
0.000313856
0.00155229
0.0128033
0.000503319
4.8343e-05
0.00079788
0.000587288
0.00428757
0.0108288
0.00210031
0.000470916
0.000859304
0.00106785
0.00025268
0.000600652
0.00672157
0.0021331
0.01255
0.00683264
0.00102047
0.00462076
0.00718712
0.000602812
0.00054717
0.00672486
0.000169148
0.00599242
0.00674231
0.00039857
0.0135574
0.0019162
0.00160065
0.000104065
0.000759891
0.00648525
0.00683133
0.00673822
0.0126315
0.000250933
0.00673093
0.00238854
0.000360085
0.00103651
0.00674117
0.00228624
0.000601097
0.00677133
0.0114034
0.000550852
0.000547889
0.00123969
0.00301079
0.00505379
0.00677616
0.000756496
0.00313906
0.00601525
0.002417
0.0139965
0.000845391
0.00147161
0.00673159
0.00198146
0.0127991
0.0128581
0.00678825
0.00446338
0.00537297
0.00259657
0.000847615
0.00325442
0.00673624
0.000878206
0.0115423
0.000221859
0.011451
0.00202442
0.00617105
0.00974707
0.00672439
0.000368926
0.00169858
0.00156561
0.00102796
0.00756605
0.00494299
0.00127601
0.00250367
0.00263959
0.000547325
0.0103553
0.00735994
0.00270946
0.00498558
0.000106365
0.01163
0.000945962
0.00158108
0.000427765
0.00253066
0.00111281
0.00331423
0.00774052
9.12078e-05
0.0129309
0.000488585
0.0104508
0.00228089
0.00102981
0.000744543
0.00672285
0.000805396
0.00917724
0.000392024
0.00109328
0.00316609
1.28195e-05
0.000183715
0.0019818
0.00364202
0.00672321
0.000397634
0.000603047
0.00672258
0.0133221
0.00672291
0.000615796
0.000933428
0.00274058
0.00298766
0.0042366
0.000393527
0.00421968
0.000784157
0.0126537
0.000818754
0.00672489
0.00609493
0.000696066
0.00223153
0.000477548
0.001684
0.000230768
0.000657366
0.00672437
0.00350791
0.00672559
0.00216185
0.00349295
0.00920366
0.000322466
0.00135077
0.000106506
0.000159139
0.0109945
0.00554907
0.00784831
0.00040833
0.00103144
0.0015542
0.000212461
0.00675711
0.000366396
0.00413894
0.0107861
0.00384483
0.00260023
6.36941e-05
0.0090556
0.00672585
0.00672569
0.00253137
0.00209774
0.00140816
0.00177549
0.000551556
0.00191141
0.00490482
0.00102361
0.000582371
0.000219338
0.00673027
0.00101886
0.000209314
0.00214626
0.00180064
0.00130723
0.000217692
0.000457541
0.0011026
0.000771296
0.000999504
9.35068e-05
0.000176323
0.000594224
0.00689697
0.0016159
0.000928495
0.00848269
0.000259482
0.00302743
0.000564992
0.00520757
0.00160757
0.000577558
0.000892727
0.00672939
0.00672837
0.00210577
0.00372481
0.00172614
0.0136253
0.00672502
0.0019349
7.88364e-05
0.00287711
0.000353266
0.000831368
0.00178675
0.00423931
0.000290194
0.00044358
0.000541359
0.00215161
0.000220257
0.00210176
0.000706974
0.000889496
0.000379779
0.00411274
0.00672544
0.000798508
0.00570235
0.0104362
0.00671992
0.000980329
0.0112106
0.000471088
0.0130453
0.00448637
0.000461451
0.000193969
0.000301232
0.00672377
0.00375458
0.0067312
0.00598104
0.00672247
0.000545564
0.000427299
0.00012936
0.0011254
0.00109749
0.0113341
0.0067263
0.00460567
0.000513868
0.00672606
0.00672345
0.00936628
0.000991687
0.00164194
0.00930633
0.000878843
0.000607007
0.00676897
0.0121816
0.000831843
0.00186503
0.000867354
0.00672382
0.00122315
0.00526852
0.00175753
0.00440795
0.000826858
0.000859656
0.000276583
0.0125631
0.000531129
0.000763322
0.0102703
0.00672924
0.0104707
0.00672403
0.00296661
0.000383477
0.000951542
0.000812988
0.000338778
0.000799737
0.00672493
0.00672629
0.000654379
0.00230285
0.00672506
0.00192581
0.000243225
0.00672083
0.000142861
0.00013207
0.000714039
0.000392084
0.00738162
0.000220325
0.0067237
0.000323665
0.00672546
0.00179589
0.00590741
0.0108003
0.00806192
0.00973099
0.00263938
0.00441868
9.91574e-05
0.00149541
0.0059752
0.000815538
0.000564492
0.00601888
0.00217645
0.000894421
0.00400533
0.0067376
0.000260583
0.000571119
0.0020754
0.00672524
0.000595642
0.0004745
0.0137578
0.0026002
0.00672321
0.00286875
0.00108489
0.00110143
0.00672322
0.0136823
0.00676228
0.00426345
0.00672472
0.000189401
0.00120276
0.000123152
0.000998309
0.00399507
0.00265423
0.00672058
0.000949832
0.00147748
0.00698237
0.00310838
0.00317169
0.0119787
0.000888295
0.00672027
0.00284596
0.00479635
0.00133794
0.00127843
0.00325146
0.00276181
0.00441899
0.000801106
0.00672288
0.00672046
0.00123295
0.00108206
0.00672303
0.00168592
0.0134912
6.06729e-05
0.0107342
0.0067364
0.00934763
0.00672365
0.00672073
0.00206139
0.00671611
0.0067253
0.010155
0.00711806
0.00332972
0.00672276
0.000907102
0.00619668
0.00351864
0.000358987
0.00681537
0.0132138
0.00169994
0.00130076
0.00672295
0.000937347
0.000124336
0.00529524
0.00672424
0.000222284
0.00435298
0.000811088
0.000715416
0.000877902
0.00672407
0.000676291
0.00150136
0.00296982
0.00126263
0.000243649
0.000608592
0.00672493
0.003145
0.00325626
0.00644492
0.000424789
0.00229045
0.000949073
5.56377e-05
0.00202927
0.00017153
0.0010084
0.00671844
0.0117053
0.0011845
0.00672019
0.00226798
0.00148453
0.013479
0.000723998
0.00672877
0.000776918
0.00543914
0.00148201
0.000639033
0.000958399
0.000775804
0.0136457
0.00672249
0.00087281
0.000527358
0.000885228
4.1227e-05
0.00148228
0.000414905
0.00225426
0.0136541
0.00424899
0.00570439
0.00103469
0.00927218
0.00295719
0.00375401
0.000840463
0.00473223
0.00217369
0.00672574
0.00183849
0.00672372
0.0129911
0.000503547
0.000395828
0.000487809
0.000962277
0.00673534
0.00226209
0.000716169
0.00287062
0.000649405
0.0114686
0.000951321
0.00117653
0.000320837
0.0100938
0.0012512
0.010097
0.00672768
0.000452483
0.00140216
0.00473372
0.000270998
0.00672326
0.00672833
0.000144862
0.00359838
0.000245978
0.00221271
0.00070109
0.000540275
0.000494733
0.000655954
0.00380197
0.0128064
0.00057277
0.00672496
0.000529411
0.00145327
0.0102753
0.00118368
0.00014689
0.000388822
0.00153983
0.000222208
0.00288465
0.00847587
0.000416106
0.00292854
0.000599158
0.00672518
0.00678952
0.000819038
0.00488845
0.0035936
0.000330215
0.00672471
0.000503496
0.000207082
0.00554868
0.0109152
0.00343068
0.000676095
0.00135922
0.00825626
0.000617755
0.00672217
0.00390918
0.000768811
0.00562773
0.0067368
0.00184637
0.0017015
0.0113735
0.00715046
0.00145686
0.0108293
0.00152644
0.00485607
9.4514e-05
0.00672745
0.000227215
0.0059553
0.00672095
0.00153608
0.00223196
0.0107098
0.00381265
0.00069813
0.00462749
0.00768235
0.000294303
0.00428229
0.00236115
0.000360575
0.00665072
0.00677265
0.00054502
0.000153785
0.000918673
0.00672967
0.000530717
0.000808579
0.000565783
0.000591502
0.00677256
0.00673532
0.00237128
9.56175e-05
0.00172112
0.0131547
0.00112951
0.00672345
0.00582967
0.00673705
0.000960614
0.000724502
0.0102382
0.0101903
0.000502992
0.0067231
0.000203712
0.00380257
0.00236494
0.00745261
0.000376737
0.00553044
0.0105859
0.00737858
0.00186274
0.00134803
0.0105338
0.00115057
0.000260215
7.67788e-05
0.000161457
0.00232121
9.61424e-05
0.00446739
0.00554783
0.00063609
0.00672783
0.00105018
0.000227226
0.000368171
0.00107338
0.00672285
0.00145621
0.00107637
0.00162044
3.88587e-05
0.00672398
0.00519498
0.00431894
0.00397303
0.00120385
0.00183919
0.00672296
0.0109022
0.000943226
0.0130317
0.0089596
0.006723
0.000957626
0.000962744
0.00219389
0.000728155
0.00130677
0.00672536
0.0011722
0.000588482
0.00507257
0.00102912
0.00376764
0.000952064
0.00126142
0.000109926
0.000614114
0.000621822
0.00674095
0.0005409
0.0101678
0.000549534
0.00852399
0.00618077
0.0109901
0.0086609
0.00550031
0.00659954
0.00445273
0.000966811
0.00140163
0.000620673
0.00199953
0.0038299
0.00672212
0.0054263
0.00115984
0.00673194
0.00159775
0.00161235
0.00255516
0.00129896
0.00672516
0.00672353
0.00477011
0.00672301
0.000232247
0.000789658
0.000234553
0.00836773
0.00672839
0.00673752
0.0130619
0.0121535
0.00297843
0.000909761
0.000157467
0.00168838
0.00672462
0.000188931
0.00125355
0.00672413
0.00244462
0.00543862
0.00219688
0.00065269
0.000368175
0.00359862
0.00378396
0.000495184
0.000449438
0.00672585
0.00241487
0.00416816
0.000915058
0.00672346
0.00315466
0.00109094
0.000102687
0.00266301
0.000620697
0.00898553
0.00125065
0.0119978
0.00451158
0.00441348
0.000205945
0.00672476
0.000579468
0.00233854
0.000150331
0.00224955
0.00481455
0.00672164
0.00495987
0.00187446
0.000410977
0.000880329
0.0030444
0.00672415
0.000101191
0.00675758
0.00728575
0.00672341
0.000975329
0.00195344
0.0067763
0.000295333
0.00672364
0.000571256
0.00672236
0.00208815
0.000286283
0.0008145
0.00133172
0.0067258
0.00140744
8.50194e-05
0.00100608
0.00022555
0.000253298
0.00062676
0.00146717
0.000894002
0.00104104
0.00593966
0.000881568
0.00221438
0.00097899
0.00672202
0.000828063
0.00672625
0.000982411
0.00672676
0.000175912
0.000657078
0.00673326
0.00276005
0.00134951
0.00672356
0.0009899
0.00671959
0.000141341
0.00956214
0.000980443
0.00101959
0.00672171
0.00672571
0.000157033
0.00672501
0.00672505
0.002045
0.0010886
0.000962923
0.000210719
0.00275777
0.000443421
0.0063848
0.00672294
0.00672491
0.00672466
9.64854e-05
0.00640943
0.00084119
0.000878994
0.00672608
0.00672206
0.00944582
0.00672515
0.0009682
0.00227086
0.00926097
0.000482613
0.000149465
9.54826e-05
0.000490595
3.87137e-05
0.00252681
0.000424303
0.000823102
0.00676327
0.00522362
0.00130451
0.00105664
0.00508375
0.000399092
0.00672424
0.00159353
0.000507184
0.00325413
7.46416e-05
0.00291949
0.000150746
0.00702099
0.00439721
0.00672433
0.00168961
6.96426e-05
0.00361267
0.000556202
0.000309246
0.0104489
0.0015019
0.00136494
0.00181679
0.000224372
0.00672613
0.000308574
0.00162862
0.00259075
0.00679418
0.00730846
0.000671411
0.000661295
0.0108507
0.00209282
0.00179929
0.00672403
0.00283277
0.00703278
4.73974e-05
0.00772173
0.000477744
0.00417826
0.00869673
0.00672398
0.000445179
0.000614902
0.00252728
0.00108015
0.00672298
0.0106961
0.00777937
0.00677652
0.000741055
0.00163037
0.000254026
0.00061071
0.00161497
0.000678814
0.00196793
0.00093708
0.00149944
0.00672356
0.00168043
0.000102461
0.00363884
0.00672302
0.000385201
0.000620157
0.00249578
0.00672588
0.00750908
0.00165257
0.00122302
0.00632375
0.000392122
0.000526792
0.000148424
0.00672411
0.00197328
0.000377816
0.00026125
0.00031785
0.00672387
0.00145235
0.00182057
0.000593854
0.00672446
0.000305372
0.00017842
0.000333597
0.00900472
0.00201371
0.00325439
0.000406264
0.00528467
0.000494718
0.0067248
0.000870473
0.00194376
0.000941767
0.000579271
0.001535
0.000228033
0.000383607
0.000898965
0.00107521
0.00673076
7.59885e-05
0.00178214
0.000503453
0.000257272
0.000883541
0.000540708
0.00672948
0.00583597
0.000287763
0.00314918
0.00166583
0.00147176
0.00530202
0.000403484
0.00153536
0.00997808
0.000286212
0.00025831
0.000649594
0.000857119
0.00672764
2.73552e-05
0.00675177
0.000646275
0.000774867
0.0109698
0.000528425
0.000214486
0.0067236
0.00399885
0.00672752
0.00131286
0.000490778
0.0012903
0.0112698
0.00318437
0.00672038
0.000611484
0.000160426
0.00672755
0.00875899
0.0067261
0.00134005
0.00162356
0.00240572
0.000716376
0.000681899
0.00427042
0.00062556
0.000327189
0.000939364
0.000454808
0.00672792
0.00466583
0.0108271
0.0067204
0.000771533
0.000571622
0.000444715
0.00770494
0.0067205
0.00196256
0.000506642
0.0100287
0.00672489
0.00672384
0.000502624
0.00286439
0.00672023
0.000463279
0.000390261
0.000150191
0.000612946
0.000624997
0.000446036
0.00672554
4.50341e-05
0.00672437
0.00444932
0.000795128
0.00664051
0.00211337
0.000446666
0.00672311
0.00352493
0.000584927
0.00832678
0.00335543
0.00506178
0.00672458
0.0067256
0.000620975
0.00672278
0.00678414
0.00860152
0.00672595
0.000991941
0.000918144
0.0104575
0.000192066
0.00673053
0.00117313
0.000437518
0.00672176
0.00359089
0.00672325
3.34113e-05
0.00672487
0.000896596
0.000758425
0.00675015
0.00676011
0.000897245
0.000813308
0.000696655
0.000166295
0.00047549
0.00117461
0.0112489
0.000183438
0.00194893
0.00125472
0.000218064
0.000534485
0.000944178
0.0017209
0.00752869
0.00319144
0.00384443
0.00180035
0.00441224
0.000692173
0.000210457
0.00677314
0.00393166
0.000117942
0.00672531
0.00238773
0.00672333
0.00673194
0.00256746
0.00382984
0.00374762
0.00672027
0.000887318
0.00672203
0.000123309
0.00188724
0.000619028
0.000165247
0.00351527
0.00755073
0.000691796
0.00672526
0.00114325
0.0067576
0.000462626
0.00440566
0.00966804
0.00123022
0.000928735
5.5049e-05
0.00702095
0.000843129
0.00091204
0.00054021
0.000270647
0.00375595
0.00213532
0.000114787
0.000693281
0.00375894
0.00674456
0.00590836
0.00337995
8.01405e-05
0.00682173
0.000550559
0.00113473
0.000798601
0.0010213
0.000836777
0.00841985
0.000756627
0.00672259
0.000382839
0.000579893
0.00152428
0.00672774
0.00672294
0.0127972
0.00672547
0.000689828
0.0113868
0.000622235
0.00560637
0.000326412
0.000991825
0.00556337
0.00672267
0.00525076
0.00672469
0.000664303
0.00258271
0.00356808
0.000924374
0.0124021
0.00580116
0.00672392
0.00669518
0.00478435
0.00310292
0.00321408
0.00832522
0.00628009
0.000707012
0.00672299
0.0077709
0.0110607
0.000347594
8.56259e-05
0.000431665
0.00439905
0.00672361
0.00920521
0.00672249
0.00124328
0.00675202
0.00207931
0.00672457
0.00847232
0.00672472
0.00134067
0.00675307
0.000127592
0.000198477
0.00675227
0.00023133
0.0082884
0.000994506
0.00176391
0.000805237
0.000225571
0.000658972
0.00089937
0.0006094
0.00126418
0.00514921
0.00185842
0.000428979
0.00433555
0.00656487
0.00541716
0.00111238
0.000551994
0.000529145
0.000561523
0.00958305
0.00677184
0.00674952
0.00052575
0.00769944
0.000639064
0.000404543
0.000240752
0.00672505
0.00753027
0.00871459
0.00691587
0.00672423
0.00606216
0.00735654
0.000313777
9.11224e-05
0.0109209
0.00119457
0.000835518
0.000488693
0.000506005
0.00562933
0.000390717
0.000562836
0.00672998
0.00729933
0.00672483
0.00077863
0.000879334
0.00056743
0.000475476
0.000318122
0.00217855
0.00130917
0.000347524
0.001697
0.014082
0.000588622
0.00128555
0.000817779
0.000499935
0.000139817
0.00672242
0.000655305
0.000140919
0.000402239
0.00431834
0.000574784
0.000962589
0.000440975
0.00388876
0.000939327
0.000766413
0.000201175
0.00747378
0.00247798
0.00158432
0.00644387
0.000341813
0.00137793
0.00141031
0.00672302
0.000217431
0.00230617
0.0104828
0.000458727
0.00162099
0.00672456
8.06587e-05
0.000585127
0.000291081
0.00465512
0.00674153
0.00672488
0.000496363
0.00672458
0.00152504
0.00142674
0.0016972
0.000634192
0.0064793
0.000679875
0.00174529
0.0013135
0.00111181
0.00672567
0.00884472
0.00173238
0.0067251
3.58459e-05
0.000196337
0.000264313
0.00122397
0.000622844
0.00112929
6.1115e-05
0.00132715
0.00198152
0.00672425
0.00384683
0.00245858
0.0010665
0.00148012
0.00666811
0.00672343
0.000258813
0.00609415
0.0010858
0.00138401
8.65516e-05
0.00672821
0.000461925
0.000704421
0.0106963
0.00672512
0.000346581
1.83488e-05
0.00070004
0.000145843
0.00233334
0.00223443
0.000233273
0.000699802
0.000220529
0.00108108
0.000711352
0.00672463
0.00594043
0.000794358
0.00672479
0.00241012
0.000423942
0.00672587
5.72202e-05
0.00671655
0.0140562
0.00788988
0.00480754
0.00356254
0.00980983
0.00254964
0.0067238
0.00922593
0.00674814
0.0067548
0.00672665
0.000215737
0.0117281
0.00437732
0.000462327
0.00412575
0.00176267
0.000385021
0.00558817
0.00672077
0.000903655
0.0140513
0.00672458
0.00672398
0.0083952
0.00117339
0.00312674
0.00672649
0.0087582
0.00966662
0.00477789
0.000496195
0.0067256
0.0112027
0.000128129
0.00316215
0.00263025
0.00262553
0.00803168
0.00663105
0.00422448
0.00672535
0.00672609
0.0113006
0.00494565
0.000136459
0.000838519
0.00279077
0.00346076
0.00039145
0.000275027
0.000658769
0.00876761
0.0109357
0.00672074
0.00168988
0.00144077
0.00160097
0.00835313
0.00672883
0.00478399
0.000458043
0.00136781
0.00119406
0.00672017
0.000395652
0.000628813
0.00372253
0.00672475
0.000477507
0.00215027
0.000585228
0.00188459
0.0123283
0.000958776
0.000152224
0.00219567
0.00481547
0.00145406
0.000714532
4.73093e-05
0.0109619
0.00892803
0.00672303
0.00124888
0.000107217
0.0132371
0.00263419
0.000657163
0.000718338
0.00352501
0.00879599
0.00672291
0.000922361
0.00824479
0.0139985
0.000188679
0.0130063
0.000714744
0.000776544
0.00675324
0.0121947
0.000505374
0.00206206
0.00675458
0.00675198
0.00673344
0.0067255
0.00105489
0.000408526
0.000353984
0.00480669
0.00930628
0.00169113
0.00633035
0.000603496
0.00778448
9.24901e-05
0.00427736
0.0109687
0.0010448
0.00146278
0.00196651
0.00672146
0.000587174
0.0067262
0.000541286
0.000131673
0.00218117
0.00673061
0.000344313
0.00107959
0.00675587
0.00707459
0.000411381
0.000432546
0.00677288
0.000539746
0.00672355
0.000245381
0.00149121
0.000138244
0.000581254
0.00886613
0.000209917
0.0127166
0.000348071
0.000826491
0.00673205
0.00808657
0.000105435
0.000537291
0.000137425
0.00672506
0.00197419
0.000368721
0.000326848
0.000826586
0.00938858
0.00941048
0.000450464
0.00699507
0.000537368
0.000320702
0.00672326
0.00364338
0.00672977
0.000533434
0.000632558
0.000369752
0.0120317
0.00645081
0.00672225
0.00155915
0.000648875
0.00134701
0.00674168
0.0137306
0.00134611
0.00215071
0.00218165
0.00443247
0.00041274
0.0102312
0.000220975
0.00098268
0.000390956
0.00672323
0.00150819
0.000524015
0.000472588
0.00292719
0.00671966
0.0034121
0.00919858
0.0108783
0.00504983
0.000574286
0.000170831
0.00382491
0.00672205
0.00308578
0.0123136
5.80077e-05
0.000485831
0.00226165
0.00186834
0.00579585
0.000272678
0.000617258
0.00219387
0.000965472
0.0067331
0.000181471
0.000364742
0.00531161
0.00928164
0.0111816
0.013324
0.00735816
0.00749462
0.00698321
0.00892007
0.00087723
0.00654794
0.00879046
0.00752647
0.00152845
0.00485907
0.000968136
0.00462142
0.00584573
0.000704293
0.0130225
0.000866523
0.00672519
0.000536341
0.000689257
0.00061587
0.00854918
0.000211245
0.000828306
0.00671951
0.0124543
0.000243824
0.000285167
0.00179635
0.000795664
0.00160206
0.00672786
0.000738542
0.000735809
0.000854567
0.00134447
0.00117852
0.000781066
0.000950555
0.00824858
0.000378818
0.00166715
0.0104344
0.00122285
0.00672358
3.18335e-05
3.86858e-05
0.00570542
0.000655267
0.00342687
0.00109352
0.000738122
0.000350567
0.00672193
0.000323723
0.001378
0.0012509
0.000161664
0.00672475
0.00166403
0.00922189
0.00911888
0.0139662
0.000518264
0.00129999
0.00672925
0.00566926
0.00108659
0.00674958
0.00883948
0.0067339
0.00672591
0.00673269
0.00962463
0.000662958
0.00187446
0.000980726
0.000617886
0.00028315
0.00098426
0.000311255
0.000982473
0.00070467
0.00448931
0.00146882
0.00831444
0.000592384
0.013776
0.000911844
0.00671941
0.00673008
0.00068822
0.000666494
0.00672226
0.000332537
0.000994579
0.000467561
0.00316934
0.00310303
0.00409595
0.00672596
0.000415149
0.000485427
0.000560179
0.00672994
0.000443107
0.000965051
0.00741164
4.43844e-05
0.000377587
0.0067239
0.00921802
0.000400557
0.00777835
0.00711868
0.000938362
0.000812843
0.000568082
0.00512923
0.000440436
0.0115456
0.000540274
0.0027545
0.000613061
0.00551391
0.00699076
0.000621339
0.000645479
0.000524217
0.0133925
0.00436687
0.00448526
0.00954624
0.000671085
0.0073648
0.000258056
0.00672572
0.000772213
0.000430808
0.000193034
0.000614287
0.000504656
0.0002505
0.00104254
0.00672546
0.00534732
0.000300575
0.00160461
0.000209716
0.00477524
0.00334524
0.00026988
0.00201655
0.00311316
0.00672284
0.000586248
0.000303377
0.00140617
0.00074704
0.000555989
0.000553183
0.00313593
0.00018887
0.000959217
0.000891161
0.000102443
0.0019478
0.000178108
0.000171294
0.00618159
0.000799279
0.00628056
0.00937863
0.00355444
0.000204178
0.00774763
0.00505802
0.00120931
5.48987e-05
0.00914074
0.000551697
0.00792725
0.000546851
0.00453615
0.00099928
0.00672815
0.00161962
0.000542777
0.00130984
6.44913e-05
0.000931945
0.000348166
0.0082764
0.0120662
0.00292022
0.0106388
0.00510278
0.000403893
0.0113979
0.00672334
0.00672136
0.00881041
0.00247135
0.00672364
0.00051626
0.0084039
0.00046289
0.00169242
0.0101421
0.00672231
0.00825396
0.00927271
0.00672394
0.000332686
0.000399913
0.00937817
0.00915187
0.00963675
0.00822033
0.006728
0.00112797
0.000661986
0.00104705
0.00672421
0.00101096
0.006728
0.00996308
0.000636671
0.000181784
0.000638315
0.0101837
0.000704227
0.000724425
8.38623e-05
0.00262161
0.000326757
0.00189301
0.00672836
0.000634185
0.000268754
0.00674624
0.00819143
0.00566653
0.000182643
0.00283103
0.0126969
0.00195655
0.00594364
0.000385193
0.000353137
0.00028863
0.00751559
0.00839131
0.000277249
0.00197619
0.00158333
0.00113409
0.00161509
0.000571421
0.00167796
0.0067246
0.000110568
0.000752457
0.00038932
0.00748823
0.00082522
0.000321807
0.00021997
0.000753499
0.0015629
0.00612608
0.000383436
0.00673145
0.000471524
0.000977223
0.00875212
0.00672447
0.000648806
0.00547485
0.00181538
0.000443575
0.00155688
0.000691895
0.00925478
0.000770069
0.00100837
0.000901523
0.00672294
0.0090951
0.00672345
0.0019505
0.000834577
0.0107901
0.000708616
3.79789e-05
0.000111969
0.00136597
0.00317388
6.05706e-05
0.000703425
0.0123653
0.000507552
5.00033e-05
0.000569437
0.00153691
0.00105145
0.000189357
0.000565256
8.32682e-05
0.000794517
0.000588906
0.00143329
0.00449286
0.000171939
0.0039068
0.000930216
0.00672298
0.000895009
0.000931955
0.000814981
0.0100566
0.00126231
0.000568369
0.00671857
0.00243212
0.00672464
0.00672447
0.0021159
0.00672674
0.000998652
0.00331199
0.0008581
0.000966415
0.00199067
0.00332593
0.000931771
0.00358507
0.00388734
0.005566
0.00604236
0.0009548
0.00055215
0.00203
0.00672451
0.000401211
6.51719e-05
0.000634833
0.0107103
0.000815409
0.0102685
0.000842863
0.0067244
0.00672233
0.00915184
0.00419365
0.0012711
7.24538e-05
0.000683397
0.00244281
0.0118473
0.00672381
0.00111362
0.00425619
0.00149821
5.1999e-05
0.00110983
0.00253187
0.00176085
0.000167756
0.0010187
0.0011992
8.26271e-05
8.09802e-05
0.000233486
0.00163603
0.00239533
0.00167038
0.00116421
0.0107976
0.00881336
0.0092205
0.00174894
0.00242097
0.00139697
0.00221892
0.0067254
0.0019917
0.00672392
0.00184251
0.0042937
0.00643762
0.00674322
0.000461061
0.000945616
0.00184194
0.000291475
0.00422903
0.00505383
0.000588957
0.0137848
0.000288777
0.00288002
0.0083198
6.63214e-05
0.003458
0.000143916
0.00672547
0.000178989
0.000858007
0.000118192
0.00838139
0.000424461
0.00814021
0.00673015
0.00919444
0.00332588
0.00108171
0.00126665
0.000508172
0.00672302
0.000114899
0.0097036
0.000110054
0.000733668
0.000483994
8.51032e-05
0.00506555
0.00677841
0.00244258
0.000116215
0.00182217
0.0131692
0.00754193
0.000203958
0.00672507
0.00030929
0.000247213
0.000585949
0.00261682
0.00781616
0.00439108
0.00672679
0.00545818
0.000687265
0.00348769
0.00361149
0.0089625
0.00658919
0.000402875
0.00011876
0.00678544
0.0114198
0.00214324
0.0127804
0.00442942
0.000380958
0.00154592
7.86013e-05
0.00171654
0.000744354
0.00673618
0.00185808
0.00500922
0.00188784
0.000280895
0.00106305
0.000886909
0.000182234
0.00044722
0.00436735
0.000191027
0.000823148
0.0023459
0.00153996
0.00585241
0.00665477
0.00672381
0.0020886
0.00307895
0.00061402
0.00813371
0.000450332
5.27575e-05
0.0013293
0.00244021
0.00202728
0.0131947
0.00972036
0.0017265
0.00189676
0.00214101
0.00857529
0.000258036
0.000815743
0.00464564
0.00797887
0.00197338
0.000224322
0.00937956
0.000197836
7.94492e-05
0.000458761
0.00217771
0.00675716
8.40374e-05
0.00672614
0.00382706
8.58115e-05
9.0615e-05
0.00671977
0.000837084
0.000147099
0.00115043
0.00672627
0.0067219
8.39477e-05
0.00227
0.00330314
0.00198121
0.0119572
0.00136548
0.000179853
0.00672315
5.86379e-05
8.36539e-05
0.00262433
0.000632328
0.00672661
0.0127542
0.010394
0.000604927
0.000253313
0.000492304
0.000559704
0.00672379
0.00150193
0.00674468
0.00234446
0.00672509
0.0071835
0.00673915
0.00207486
0.000164609
0.000958721
0.00130386
0.00673109
0.0122522
0.000458437
0.00217849
0.00721768
0.000488175
0.000746433
0.00708245
0.000625213
0.000961939
0.00210644
5.7864e-05
0.000283534
0.00029941
0.0132069
0.00672688
0.00336098
0.000175361
0.00949346
0.00672006
0.000957895
0.0124823
0.00672597
0.00462222
0.000721891
0.00446928
0.00672182
0.00267661
0.000462828
5.48577e-05
0.0020016
0.000548467
0.00650875
0.00318879
0.00870267
0.00875919
0.00432534
0.00178674
0.00449758
0.00146757
0.00672359
0.000401825
3.7722e-05
0.00977117
0.00222744
5.52273e-05
0.000647055
0.00671995
0.00672026
0.00516765
0.00155308
0.000428464
0.000698525
0.00090031
6.55773e-05
0.00544642
0.00194751
0.00673072
0.00673255
0.00726159