/*--------------------------------*- C++ -*----------------------------------*\
| =========                 |                                                 |
| \\      /  F ield         | OpenFOAM: The Open Source CFD Toolbox           |
|  \\    /   O peration     | Version:  v2012                                 |
|   \\  /    A nd           | Website:  www.openfoam.com                      |
|    \\/     M anipulation  |                                                 |
\*---------------------------------------------------------------------------*/
FoamFile
{
    version     2.0;
    format      ascii;
    class       volScalarField;
    location    "100";
    object      ReThetat_0;
}
// * * * * * * * * * * * * * * * * * * * * * * * * * * * * * * * * * * * * * //

dimensions      [0 0 0 0 0 0 0];


internalField   nonuniform List<scalar> 
13851
(
446.487
623.24
624.18
41.7193
590.372
628.353
549.591
598.478
33.031
551.232
650.233
589.532
527.38
32.8964
520.716
494.209
33.3974
616.425
500.116
449.312
521.18
619.378
130.62
585.005
178.767
494.908
389.816
140.6
35.0322
608.028
36.3933
550.817
489.357
33.626
644.487
36.235
584.838
168.893
32.5532
603.4
32.1458
36.4914
34.3205
564.443
37.2297
607.373
603.37
435.369
625.717
521.037
32.1592
494.689
477.902
521.39
31.8708
601.947
500.425
32.1645
383.337
32.8626
589.38
367.046
563.132
625.831
485.073
468.35
32.8566
306.042
612.426
40.1324
34.7918
510.722
583.209
32.8885
520.446
612.899
33.5504
607.302
265.886
596.564
613.626
475.103
642.576
32.9999
32.9019
35.7409
621.238
30.8304
554.896
36.6526
505.026
549.243
32.2164
35.6594
32.0547
608.841
602.344
453.784
32.2951
657.916
444.547
351.03
351.281
567.868
609.571
546.273
607.509
35.031
546.664
615.576
606.723
608.383
524.005
617.935
436.971
522.026
603.184
601.299
41.2265
41.2573
617.373
612.215
608.868
32.9697
461.845
286.865
601.938
643.593
32.7825
505.755
617.262
640.202
315.893
33.5303
657.776
32.1557
310.038
35.4536
368.423
497.241
466.865
560.343
554.851
387.748
144.013
605.29
606.873
35.9319
31.2297
645.973
442.942
533.3
577.335
471.623
508.606
531.058
589.301
32.5498
501.399
582.17
585.532
35.5527
533.45
434.144
32.8653
34.0401
34.5502
32.1418
606.71
41.0388
588.575
602.998
532.738
588.39
32.0317
384.728
417.158
603.246
516.318
421.2
455.959
578.474
610.505
503.475
33.2953
31.3718
467.698
392.78
528.566
607.807
265.061
505.972
32.8249
629.981
606.206
468.147
452.823
614.149
620.094
311.04
495.102
31.876
32.0288
514.749
339.847
31.9252
428.52
500.766
33.2924
630.774
524.786
606.461
460.329
585.542
646.419
613.924
526.892
435.168
618.174
212.374
603.406
447.327
32.9573
32.1006
404.652
499.146
584.987
387.15
591.23
644.3
49.4757
397.744
630.46
563.6
32.0905
608.707
195.256
31.9992
658.471
585.322
679.626
32.9401
38.8493
513.582
577.081
368.954
441.162
515.232
604.559
615.242
30.4339
469.244
599.486
612.739
461.833
34.9947
33.0563
607.177
279.492
559.245
425.378
504.629
621.506
525.741
472.343
591.125
349.86
441.113
239.911
574.98
526.941
406.834
34.6307
38.652
512.505
613.191
463.015
497.565
433.923
541.839
34.1442
32.4512
623.464
540.197
182.608
608.485
589.409
435.523
646.789
608.804
585.76
590.875
593.357
573.392
589.669
33.2695
520.84
603.687
35.2228
32.9925
516.654
449.897
32.1982
551.837
531.207
505.188
33.0259
35.1802
516.262
590.832
42.9144
588.93
513.087
32.1644
259.713
572.589
289.804
460.04
34.6455
512.834
334.042
32.1629
32.9112
180.335
621.362
34.6735
30.4819
269.815
281.358
431.18
518.992
556.923
30.9841
338.068
597.909
606.067
632.276
34.5482
217.753
608.605
32.0844
547.113
639.353
575.252
32.9815
468.9
469.389
613.036
630.355
37.9018
527.683
477.226
622.299
514.7
540.233
556.344
604.771
550.324
659.83
478.74
438.435
38.3633
605.633
32.0611
420.343
609.613
201.421
468.082
32.2489
632.105
505.841
370.759
229.688
566.051
30.663
624.271
409.27
34.5621
621.173
30.46
610.912
31.8901
537.827
510.293
476.639
550.186
530.58
619.468
648.947
517.292
604.784
509.356
40.146
584.157
497.007
42.0237
630.619
483.383
499.375
35.7047
632.65
494.278
454.434
497.397
578.526
32.7302
32.9222
647.286
590.367
518.657
608.144
505.178
611.863
33.736
37.4494
204.956
630.901
478.029
367.907
39.5545
607.648
34.3939
633.523
126.372
616.387
169.334
548.132
588.898
31.711
381.178
540.266
624.335
498.572
602.462
40.1007
515.657
472.768
569.758
624.894
496.697
291.299
603.305
481.896
82.5696
41.7087
615.345
388.854
563.175
589.609
632.413
468.864
501.576
605.644
625.715
620.471
621.67
36.8302
589.71
541.845
37.6632
548.343
606.048
587.449
571.446
613.809
500.749
63.8329
569.377
215.487
632.415
588.55
33.3045
374.548
444.482
588.72
32.9642
376.38
339.385
569.02
634.396
565.34
516.208
32.8828
372.196
290.646
578.756
524.84
593.056
34.6181
499.324
443.444
606.096
613.727
553.406
519.767
589.785
36.9004
33.2337
37.7243
47.198
68.4142
32.7351
508.43
425.005
580.65
306.681
550.939
604.25
446.534
31.9808
617.841
517.173
616.335
613.496
540.071
44.5728
600.384
32.9839
565.795
598.048
596.539
539.623
180.406
608.825
80.5705
203.22
607.162
33.5558
492.075
450.022
576.135
91.7881
32.5969
604.783
483.36
611.071
601.477
114.873
31.8576
593.038
504.46
544.432
488.98
32.8448
32.3487
609.677
33.0762
606.285
611.962
575.464
546.771
607.606
610.707
33.4297
590.018
33.4382
619.801
561.056
35.039
583.447
589.891
542.307
524.707
614.058
43.9319
32.4035
629.375
34.8812
581.559
552.924
36.9554
31.9787
606.359
592.136
377.103
33.31
451.269
490.877
282.585
544.484
548.038
53.2424
42.799
614.336
33.0214
411.141
38.7682
623.422
398.278
404.884
587.805
32.2135
34.3262
609.213
497.382
598.257
238.392
647.021
81.0065
603.269
587.711
408.42
625.993
589.915
32.0098
587.974
415.897
568.711
502.024
571.668
535.528
631.886
33.0406
557.187
32.1306
638.95
602.133
613.826
548.999
626.773
508.962
620.948
413.525
388.514
580.638
33.6589
585.188
523.603
35.1495
36.1309
384.377
105.175
609.613
658.223
33.6145
610.501
40.4403
552.296
622.367
48.6076
500.871
609.565
512.773
613.607
37.2427
32.1915
613.895
304.876
39.1349
584.265
584.621
494.676
33.3003
157.894
509.752
485.885
620.491
533.969
404.528
478.472
665.035
607.101
445.532
523.326
496.505
462.32
605.468
644.319
410.944
434.137
505.472
519.203
611.5
428.897
508.543
49.3462
114.342
447.815
33.067
597.588
90.3576
444.983
614.303
545.81
503.041
626.321
596.157
596.568
497.565
30.6676
544.539
32.0367
602.124
117.447
570.154
32.1899
537.01
635.605
623.38
32.1609
639.698
598.616
378.534
625.847
371.209
509.717
417.474
636.168
537.606
549.132
585.209
435.608
532.975
36.1857
592.968
399.341
34.3769
571.167
32.2752
32.2897
416.644
663.07
385.208
573.042
531.948
606.75
612.589
588.139
534.914
501.994
521.061
198.456
615.621
33.1099
583.686
43.041
639.599
583.496
566.292
35.5702
630.928
123.772
34.4619
504.374
472.657
604.216
33.2831
587.814
618.501
396.683
573.914
550.587
612.516
498.443
30.3342
637.811
632.261
601.317
32.3614
390.624
587.772
38.273
606.247
37.7069
586.575
619.777
257.762
453.766
440.694
648.831
566.627
577.61
584.174
547.357
623.868
577.67
528.41
625.189
593.861
653.136
508.23
206.558
648.295
39.035
361.954
572.637
633.474
602.396
621.937
53.8057
38.7717
40.3641
40.3567
617.605
614.144
564.766
603.187
610.136
148.71
424.677
30.7955
534.061
448.796
525.053
607.147
362.178
472.617
616.703
580.158
434.952
492.965
31.9847
512.029
588.155
30.3134
459.673
620.541
601.942
31.9312
595.045
34.975
561.977
656.627
543.205
549.343
635.602
577.976
626.429
592.448
403.434
479.628
33.2672
625.102
88.9324
33.6129
635.15
593.388
44.0611
65.3228
622.242
458.623
534.013
31.8997
614.677
519.201
586.759
593.42
172.725
589.373
587.641
521.932
32.3573
274.441
37.2796
606.747
33.0961
577.346
594.125
519.978
606.223
581.865
35.3201
49.1831
618.528
588.056
606.03
606.68
45.8298
598.253
32.9886
32.2049
628.444
436.284
587.94
518.998
570.445
609.716
586.332
622.8
32.1811
480.024
33.3309
469.228
565.219
628.797
461.086
32.7009
570.643
491.254
477.43
585.527
60.9222
56.3253
30.5071
336.094
122.257
579.345
383.198
496.529
470.906
626.257
598.042
35.5938
613.227
593.066
608.693
612.502
31.9653
473.681
602.624
630.037
33.0099
621.932
33.4679
478.956
458.272
31.8283
589.376
445.001
628.036
634.155
263.501
614.72
502.177
495.264
32.2812
606.063
31.8702
622.318
33.0236
32.3381
31.6367
502.239
566.019
617.018
583.968
509.652
568.679
32.8142
609.826
480.98
392.333
581.092
606.312
530.911
629.408
600.383
620.358
32.3799
422.233
617.165
638.452
36.5906
522.749
34.4375
606.901
606.136
477.252
611.796
624.756
588.264
602.858
337.61
525.556
612.761
625.547
32.225
392.982
450.698
475.266
617.898
32.2944
451.139
585.63
627.829
522.409
34.5095
466.153
354.064
197.458
40.5823
650.29
619.167
41.7215
303.998
93.7354
626.807
602.923
608.851
512.566
559.233
32.6392
530.88
579.809
425.374
610.817
611.854
32.8693
34.7468
424.095
625.987
42.5891
527.587
592.565
30.7657
589.637
613.886
598.224
524.945
506.997
33.6599
37.1217
502.936
34.3052
522.86
561.409
297.855
595.927
509.249
609.822
591.716
605.708
624.089
34.0293
31.9318
403.737
32.3728
35.8969
418.549
588.168
625.617
485.509
609.533
596.821
643.068
213.178
483.659
604.208
633.946
635.376
470.645
34.3683
604.638
607.228
578.125
362.955
525.336
32.7177
603.216
587.72
613.673
599.662
615.345
421.236
39.9287
34.4822
383.851
587.621
487.721
612.864
91.7825
32.5523
436.858
33.2099
35.7443
38.371
494.982
572.694
33.1962
607.801
570.748
571.828
652.389
622.687
243.147
557.893
60.1578
270.738
606.944
573.59
627.073
556.357
549.513
588.392
546.596
450.457
560.82
412.526
574.793
59.435
30.3847
554.934
571.987
506.69
587.891
38.1087
30.5126
32.2289
33.6181
590.2
620.534
632.074
515.937
406.76
553.028
580.603
472.811
418.882
67.6944
531.512
32.9686
453.209
621.098
351.084
476.309
504.847
589.598
30.6022
32.8326
167.947
32.8287
55.2439
33.8608
33.0399
587.917
563.595
614.54
438.515
499.416
523.079
35.7813
611.128
605.107
543.484
529.9
607.368
596.021
606.882
99.3538
536.317
601.543
579.164
600.347
587.863
538.18
408.212
574.923
45.1945
568.828
599.919
32.9026
33.8412
30.4999
194.733
458.24
126.615
603.4
613.053
619.804
565.67
573.662
34.8833
618.351
476.162
367.291
614.138
612.438
421.494
418.291
584.576
97.4546
613.475
438.655
565.394
620.076
618.489
482.303
520.632
408.509
35.0846
531.27
33.961
541.716
32.7909
465.898
574.373
241.205
518.973
344.191
524.338
590.008
595.987
539.327
614.334
397.471
486.62
620.171
560.725
316.621
609.616
41.032
564.961
622.182
519.852
32.7964
333.889
575.594
421.06
601.758
525.833
640.788
265.27
501.162
584.715
446.475
395.688
455.137
518.919
561.676
521.155
487.986
466.539
556.038
612.159
224.605
42.2179
629.189
592.918
33.8186
602.933
556.784
595.512
649.961
218.669
602.128
36.9258
630.678
587.511
423.307
597.925
346.5
34.0434
618.97
177.4
596.482
584.953
337.619
581.972
579.691
544.698
625.872
490.215
656.752
579.123
633.473
611.482
588.728
580.907
573.699
762.858
612.035
478.554
389.187
602.703
593.15
34.5127
579.743
32.2073
619.513
37.0204
445.516
448.969
485.432
629.632
433.944
622.053
504.112
632.456
611.831
605.407
478.822
601.773
599.834
643.992
600.402
620.669
34.0043
32.1609
482.604
567.362
341.631
32.3159
46.4861
581.217
596.393
437.539
618.934
640.614
420.275
35.0094
557.537
504.676
610.149
638.798
584.241
564.932
151.119
577.793
597.231
42.3971
640.035
397.573
34.0768
480.674
535.223
599.864
619.516
33.3312
521.785
52.4064
647.822
532.221
32.105
567.512
487.979
397.429
577.956
544.352
587.059
33.5566
36.3053
596.289
495.086
496.639
421.685
635.271
492.506
402.63
524.933
438.554
482.298
569.156
521.115
299.876
78.5761
589.981
495.406
633.224
494.067
584.645
35.2538
601.018
585.939
609.543
583.865
633.129
546.4
588.747
607.953
644.707
32.2212
649.527
573.77
473.085
515.42
518.222
583.618
653.902
251.698
629.804
38.2097
508.226
32.2692
487.973
588.751
403.97
585.5
618.474
522.874
551.981
547.331
499.314
618.806
630.959
635.707
604.191
607.105
485.318
611.195
557.941
360.551
625.241
602.211
597.253
30.876
653.811
572.661
623.025
439.634
33.03
588.138
522.28
38.0538
479.631
662.208
536.244
445.664
599.395
271.749
600.102
400.828
208.291
38.2653
484.084
622.98
568.231
32.999
599.802
466.757
596.669
142.765
34.6111
552.644
592.299
488.483
344.893
588.363
33.6134
552.012
583.888
608.417
517.985
639.835
437.704
528.902
625.449
503.177
525.471
648.472
587.011
32.2291
39.2684
593.303
378.012
595.017
442.567
51.2523
593.441
581.422
552.358
32.0711
588.978
587.137
600.205
96.6057
593.049
575.669
607.665
383.259
632.954
620.065
421.426
554.011
370.97
604.926
32.8125
636.683
546.775
542.729
596.156
588.244
618.089
480.665
46.2818
611.84
32.9565
586.849
605.441
517.885
590.639
611.664
36.9594
583.587
550.862
429.421
34.375
451.888
608.475
425.034
442.474
590.339
563.451
578.012
561.834
584.461
469.213
436.408
599.449
609.8
634.488
441.569
385.967
566.222
643.434
609.361
33.2111
648.078
524.722
509.251
636.151
561.247
95.1603
507.555
33.2323
94.2727
47.817
616.002
607.285
640.865
365.653
612.898
612.85
606.177
585.523
618.049
587.5
607.179
601.705
616.957
33.7719
592.56
129.413
590.014
622.431
623.559
436.724
631.418
564.795
47.6719
423.749
583.113
528.924
611.222
572.811
616.662
42.1048
616.857
603.676
292.828
50.9854
603.699
462.732
404.159
637.156
617.675
624.353
601.833
555.371
32.3297
609.232
42.2426
604.269
420.279
37.9622
637.911
171.982
617.568
623.566
601.71
35.319
635.807
588.313
635.366
516.045
624.199
567.664
588.478
32.4774
584.439
602.344
33.5865
589.893
589.221
641.675
619.745
63.8585
605.192
564.615
601.778
402.47
619.985
617.639
464.832
33.4484
592.707
561.096
57.7542
598.388
37.4997
552.337
34.4521
609.368
590.862
602.346
31.4431
34.4391
599.086
556.918
396.2
603.892
564.504
43.1477
588.538
464.27
600.923
508.251
579.354
46.8211
601.969
502.897
597.278
626.38
644.059
610.589
621.517
35.4768
466.873
122.004
254.748
654.553
441.93
605.803
530.628
154.185
591.112
510.5
447.545
608.085
32.585
44.0737
488.783
456.14
483.154
627.581
35.5398
611.801
610.248
632.506
38.7718
507.001
486.307
356.305
602.617
35.5862
30.854
40.1343
586.52
32.4773
37.9475
594.16
307.856
33.2502
464.934
639.163
509.53
408.005
601.294
447.166
454.516
606.982
32.8426
585.469
597.195
524.086
457.487
449.96
543.271
40.668
500.127
400.056
122.732
31.7525
491.513
475.115
421.55
540.102
608.67
601.07
618.225
544.402
475.224
596.644
512.78
604.493
634.507
74.5069
440.418
440.824
655.086
33.4536
575.611
608.62
37.5087
561.184
628.131
630.091
587.603
642.95
565.211
37.1237
544.384
537.771
585.995
314.049
612.701
461.506
32.1497
606.706
588.593
630.809
586.678
630.187
610.776
626.791
424.734
598.869
600.24
492.635
499.601
209.268
584.967
41.2232
33.0266
605.246
450.353
657.325
638.039
574.417
455.557
622.009
430.925
615.36
623.451
586.417
32.4232
529.605
162.701
568.197
546.907
590.54
639.23
593.953
541.925
475.124
466.016
600.166
420.172
286.535
32.7898
603.109
564.575
317.614
263.915
445.523
466.318
611.418
613.88
407.843
364.963
542.69
376.635
585.879
613.592
615.6
585.502
499.827
602.177
584.902
398.497
610.216
31.7964
40.5524
70.9533
79.2635
32.7794
513.071
580.582
38.7696
610.154
610.819
605.846
653.981
33.1385
32.3817
462.745
609.486
620.593
603.874
32.9566
592.066
236.896
31.7674
581.667
575.408
31.9198
465.875
577.599
571.713
37.9701
32.2177
616.894
422.519
585.162
32.9079
430.657
556.118
51.279
35.792
50.446
609.621
594.113
582.385
583.077
33.8862
602.93
653.782
421.892
32.2272
621.243
648.104
477.339
625.054
39.6117
33.7731
605.159
614.078
612.81
537.063
39.9023
606.93
30.4972
608.478
504.693
576.192
595.403
480.504
639.843
45.5661
585.82
647.827
625.491
438.706
621.962
33.4674
184.154
653.165
482.841
596.572
606.757
457.884
503.616
34.7439
35.95
588.195
180.079
449.939
32.15
539.48
640.93
635.136
618.343
45.3108
586.99
577.781
34.0095
31.9098
719.706
32.7364
606.654
529.769
610.613
31.7715
603.526
102.158
610.595
56.2272
604.607
592.273
600.389
527.047
576.704
602.949
31.0403
502.217
602.501
641.131
30.9012
651.456
541.056
33.9528
619.77
525.092
530.372
604.264
623.94
592.038
189.614
619.706
540.184
565.223
513.726
620.074
611.185
56.0372
443.478
458.952
591.9
402.891
574.578
652.29
560.934
647.82
309.038
31.6957
368.399
32.905
641.174
593.804
605.452
46.8814
640.651
518.088
318.632
585.43
116.478
646.728
535.91
402.937
33.8822
30.9295
355.866
32.6825
594.346
531.138
575.746
617.972
607.098
426.111
607.691
549.654
33.1116
597.941
599.931
502.347
509.079
616.107
600.214
31.8637
630.66
497.433
597.72
34.2864
553.406
35.9399
560.227
615.795
645.061
574.694
39.2567
452.15
587.882
599.144
596.684
31.9292
35.4068
35.8609
614.127
603.721
514.057
617.486
592.85
611.899
33.095
468.948
627.405
528.736
580.184
56.92
633.454
468.311
543.594
612.123
606.961
651.43
646.983
566.092
44.3069
33.6683
32.3713
48.636
37.6412
37.8351
37.343
444.616
609.548
42.7781
32.102
134.075
598.372
550.859
529.711
593.646
283.142
31.8628
487.708
591.541
379.016
476.956
571.26
33.1169
455.156
365.551
596.865
33.3448
588.802
596.437
529.318
566.051
489.75
601.65
639.471
621.976
618.12
509.792
596.47
598.448
495.938
32.1635
572.05
506.533
32.7336
447.187
562.779
282.685
541.043
31.2404
640.07
618.986
623.135
630.466
575.959
604.47
381.027
549.585
502.848
646.456
585.81
622.756
31.2348
41.3014
31.8078
468.286
455.687
605.668
537.479
632.333
610.297
34.2001
546.409
584.147
607.121
43.2853
172.416
530.671
473.946
627.555
590.282
634.133
377.999
527.345
641.308
40.2462
618.158
32.1972
642.579
31.8845
637.083
595.519
605.118
459.491
489.721
601.316
589.271
637.862
640.198
87.456
51.6932
77.481
584.694
576.24
597.413
633.132
567.286
634.385
608.097
33.6611
468.742
635.842
567.696
41.9406
408.82
32.8187
32.1741
504.622
610.753
523.59
66.9283
562.334
33.3423
629.115
615.869
642.477
611.632
41.9484
603.272
636.924
383.715
32.0941
613.56
601.258
33.6535
640.185
36.776
370.156
572.419
628.818
428.049
415.717
212.984
634.11
572.311
631.857
584.562
603.044
599.812
490.564
646.936
529.344
614.319
633.786
575.289
618.149
590.625
636.426
515.169
504.153
632.396
472.914
622.491
593.314
659.265
632.692
579.327
385.058
528.877
633.645
486.781
611.652
472.036
41.5184
34.3924
618.19
537.911
32.5143
596.078
470.649
558.369
33.079
392.936
31.7355
458.386
609.905
451.051
607.057
624.723
563.994
133.403
520.975
510.782
457.515
47.5659
32.8828
575.94
33.1088
546.908
490.567
32.6316
579.686
590.228
33.2502
506.031
569.047
390.738
39.5565
486.809
557.017
32.6789
589.209
44.307
32.6494
586.863
439.286
297.002
32.0665
31.2464
32.3056
32.1556
601.025
452.575
572.246
490.375
565.801
491.978
563.222
31.8602
387.581
498.174
395.666
31.4503
381.089
412.839
317.367
33.6298
567.156
597.553
606.976
477.494
592.785
609.81
34.6322
591.707
317.889
503.54
32.3039
563.042
589.878
280.806
400.694
543.645
32.917
44.1275
661.142
551.777
507.774
565.047
503.312
461.653
513.413
577.342
478.026
524.55
621.469
30.6913
567.486
591.848
662.768
543.622
502.199
591.031
476.582
605.71
445.206
400.143
32.6301
600.865
638.813
39.6755
619.368
627.974
525.899
631.677
38.9055
511.3
444.878
143.057
599.404
42.5582
587.819
624.703
444.528
36.7527
626.139
301.323
596.35
532.323
619.621
499.689
625.713
32.7921
401.728
281.859
461.671
530.4
630.093
640.054
641.258
420.697
500.872
589.634
630.708
609.711
627.31
581.619
636.451
605.772
440.995
633.9
485.662
33.1768
448.907
474.542
606.158
501.785
585.958
576.401
549.439
597.253
448
32.4178
492.146
544.685
572.559
614.662
455.597
593.166
78.6044
64.9437
35.3531
426.134
634.37
556.21
581.017
561.238
429.142
641.073
32.1943
475.246
34.6007
439.452
586.335
600.644
34.0025
601.206
601.96
342.083
446.793
602.18
33.1206
574.086
626.004
525.964
561.747
483.905
442.271
617.485
529.984
362.406
517.805
486.03
614.676
599.767
632.986
467.967
542.292
623.053
480.63
37.6901
38.8813
39.6961
548.554
106.628
459.944
623.369
592.661
491.722
584.968
520.351
35.6769
593.592
611.974
496.458
198.76
497.667
548.431
521.83
32.086
640.919
31.84
386.489
598.288
43.5322
316.175
556.667
626.169
583.323
655.786
637.326
319.709
35.0031
488.842
50.739
598.461
35.8986
527.298
631.693
616.561
634.731
588.438
553.546
40.9612
644.39
558.059
622.368
450.05
612.192
592.897
618.287
465.766
602.677
32.0111
33.0856
658.151
581.725
657.111
630.674
496.433
556.128
32.2765
594.822
606.564
596.046
334.05
618.048
574.361
40.5976
591.229
490.491
507.536
609.774
34.2206
528.402
32.2152
613.902
341.9
621.425
355.395
57.1527
496.025
596.748
541.995
68.0109
522.266
653.141
614.056
630.494
656.221
601.537
594.437
32.987
637.684
537.402
530.823
592.278
607.907
586.984
525.563
543.495
592.659
46.8803
70.7346
454.933
39.51
490.113
514.593
32.1328
35.1181
496.888
33.075
92.0561
31.0398
509.035
636.163
72.2355
39.1989
72.4067
462.064
36.9444
535.646
500.425
565.916
554.97
589.35
648.151
583.882
43.2719
516.381
610.039
605.689
463.213
532.417
430.222
584.11
589.254
488.956
606.386
613.511
510.697
32.894
625.352
634.333
601.365
471.845
474.92
540.825
602.949
596.876
32.4174
35.6392
478.169
214.079
612.737
474.567
566.119
504.641
591.033
618.306
582.559
48.8563
606.936
505.837
605.779
610.461
574.211
587.586
32.8888
476.952
63.1312
32.9281
492.655
470.281
30.7228
463.225
410.861
34.2184
502.199
364.369
433.166
31.7224
563.6
48.4381
656.41
38.3038
605.456
488.594
32.6406
584.741
41.0252
410.569
32.1463
590.048
507.365
637.179
516.489
548.812
608.91
612.147
619.947
31.8155
42.6361
44.6434
495.44
589.94
484.664
587.417
602.052
483.131
36.2683
125.63
494.263
639.388
595.083
593.295
32.9863
54.073
503.432
402.836
616.379
458.657
42.9411
53.2238
605.318
594.906
32.3862
625.448
620.038
545.58
596.584
615.748
517.267
32.8094
32.3077
586.652
612.584
630.784
460.747
32.2095
583.101
641.8
32.057
605.49
314.565
44.9139
57.9254
566.359
47.4808
32.1975
613.278
536.714
558.353
279.278
478.75
615.566
597.477
52.8886
503.298
597.18
454.151
482.233
608.349
479.896
32.1411
37.4054
31.8066
550.647
440.13
613.783
32.606
32.1127
32.0959
45.6171
32.5063
610.017
505.731
590.955
589.116
590.073
594.95
575.842
592.033
42.945
311.212
32.6936
571.405
511.988
358.175
606.979
593.523
32.8556
581.133
32.5904
38.9299
576.722
613.793
32.525
607.639
617.169
635.022
604.05
609.757
32.3846
607.285
32.8506
32.7253
606.913
597.148
612.613
617.582
611.471
651.549
135.757
594.794
32.1945
538.66
599.4
613.624
583.031
627.068
582.285
479.977
32.1178
39.9129
508.236
45.6631
583.615
610.971
589.986
657.084
562.053
54.581
599.588
32.9136
408.266
33.6745
430.157
599.447
640.02
608.862
32.4523
596.282
611.425
632.613
630.953
611.378
585.17
555.39
32.503
480.076
622.809
624.854
591.33
418.736
582.653
48.791
41.5441
629.858
35.2349
40.5849
165.672
40.3166
606.311
601.64
136.946
36.7186
562.39
45.6853
41.7662
618.497
582.528
557.71
33.4361
580.089
594.432
43.7089
486.974
44.8681
607.51
602.914
580.721
41.7271
465.607
576.706
658.667
612.797
477.305
628.749
625.519
594.058
585.807
599.575
621.127
507.043
378.189
606.863
614.821
31.9226
605.052
565.561
403.986
414.044
512.9
584.511
31.8494
574.268
412.948
33.0227
462.159
595.158
518.126
549.058
608.604
43.5783
294.879
32.2388
623.906
583.863
649.729
451.046
580.389
504.938
33.5387
613.232
635.814
590.963
485.323
568.32
608.608
42.4347
54.7776
57.5167
593.28
450.693
596.829
579.233
496.467
36.7607
484.253
636.155
472.624
619.349
566.462
325.006
309.63
621.111
606.688
492.603
573.657
530.503
594.905
578.724
61.836
619.505
564.301
482.394
607.378
33.1402
37.8357
44.8198
465.894
483.099
487.728
31.7409
620.29
487.375
558.704
569.514
32.8982
427.05
611.35
603.295
569.091
509.597
637.979
34.7933
605.437
617.674
410.253
603.001
594.904
611.111
600.047
36.0079
554.561
568.604
482.886
597.076
160.185
582.283
344.292
600.558
33.9807
32.3436
41.7475
584.979
613.816
590.325
604.512
39.1322
568.448
34.7672
588.572
500.1
542.991
34.2301
526.797
607.871
37.7851
583.49
583.021
605.783
583.028
43.216
609.694
605.378
599.161
525.465
594.068
639.384
449.562
33.5861
590.684
646.551
610.334
34.939
622.1
624.645
517.508
514.384
443.777
33.3152
626.018
34.5374
559.303
35.7896
656.799
389.281
634.873
590.533
42.5681
626.618
634.634
537.899
375.482
423.407
33.8807
565.067
567.746
33.5376
634.547
496.559
499.714
38.9149
33.116
609.855
609.55
628.351
605.934
638.919
647.336
617.878
32.7668
655.093
600.192
614.823
650.147
590.279
53.0093
592.641
565.705
42.6489
493.948
190.408
646.845
616.998
493.323
422.76
32.4179
39.4255
447.206
35.966
612.995
454.961
586.259
582.138
642.167
598.566
624.033
585.295
527.552
500.148
484.885
572.846
609.584
659.197
612.446
605.95
545.155
599.345
629.076
32.4667
623.383
32.6751
607.377
36.5501
577.812
358.898
658.067
613.482
41.403
624.057
600.954
606.803
639.913
606.848
601.482
473.58
413.653
604.67
32.6319
479.149
486.177
603.338
275.775
67.2019
35.161
542.647
503.643
589.174
635.749
595.406
644.044
511.486
34.1323
34.7954
32.4522
608.491
611.756
649.833
388.633
34.3175
692.902
40.4622
325.039
491.087
681.239
404.6
559.126
32.0618
540.573
629.756
33.2954
505.528
608.359
60.0477
623.133
579.368
658.198
580.345
446.901
35.8563
185.652
568.152
606.275
458.946
570.902
615.964
571.697
607.226
574.054
576.103
34.1069
607.769
505.908
33.5654
600.061
575.955
627.716
548.178
594.896
578.52
641.905
614.487
452.281
510.754
32.1668
580.293
551.697
580.38
559.115
607.52
583.549
31.8909
613.983
546.692
584.541
627.76
31.9727
33.7532
33.8567
593.206
550.557
32.0425
35.3037
596.16
516.339
45.9202
460.681
583.731
534.938
500.284
356.975
589.392
508.853
326.253
458.478
606.517
645.439
434.663
606.797
520.881
31.7674
530.429
260.34
631.356
567.853
624.433
570.006
617.514
33.2298
609.18
569.606
591.604
594.241
583.742
584.492
595.971
577.697
656.688
636.672
623.468
610.007
621.798
565.437
478.056
527.154
613.204
575.254
587.501
31.7196
569.447
485.539
501.524
583.189
590.461
609.356
32.1514
615.851
407.775
645.089
33.0019
422.074
32.5687
479.482
367.1
592.853
496.03
642.684
32.2595
643.919
35.3586
597.439
642.014
637.929
32.51
583.553
511.38
32.8843
608.714
39.6615
69.612
213.93
591.736
610.592
32.0968
562.39
33.7095
524.174
33.8401
32.3247
599.267
512.455
488.309
40.9628
630.864
489.184
606.45
590.418
571.233
72.0982
252.333
639.758
32.6296
602.303
36.2183
35.6169
44.1136
612.348
568.912
32.3754
601.449
596.098
559.073
610.766
436.498
565.531
592.795
572.717
584.546
624.702
606.433
624.823
33.5676
44.9486
622.791
89.273
46.3269
47.8301
150.331
658.352
596.481
42.4498
583.408
59.8223
32.251
651.908
586.721
625.642
34.3791
607.147
387.842
477.98
618.208
33.2187
33.9842
43.5834
34.2008
587.24
593.579
624.398
623.686
53.175
606.265
32.4313
635.768
32.7024
393.48
32.3901
35.0455
504.744
32.2286
34.5707
627.633
623.481
32.1836
618.957
473.677
601.59
40.3461
31.1681
618.163
38.1056
33.1743
98.7561
640.932
33.02
583.293
36.5129
611.998
212.631
32.0308
616.508
568.331
31.4515
584.217
31.9979
45.7429
37.482
488.21
448.887
621.826
631.829
607.964
620.025
578.029
647.601
585.394
32.3559
589.425
597.479
460.178
596.858
34.8366
371.191
502.88
34.0745
490.059
506.088
515.924
613.89
506.22
585.197
564.317
484.297
603.211
620.201
368.844
33.835
32.0965
618.444
410.992
31.8786
31.5377
32.2171
42.1463
381.604
634.271
33.1104
466.955
32.1845
630.686
474.74
597.044
624.555
604.431
515.256
656.156
500.118
524.624
540.031
504.41
477.329
505.315
610.915
643.135
541.165
373.378
528.645
647.553
521.398
606.404
526.42
598.729
553.84
636.031
32.0715
522.213
504.387
32.6494
32.1096
452.814
538.096
618.388
397.127
585.637
49.9863
583.398
540.903
437.164
31.62
621.39
31.801
582.193
31.7398
587.381
480.819
605.114
586.803
643.617
466.484
597.995
549.935
562.267
32.0918
605.455
379.813
34.1271
526.28
32.6936
522.346
616.695
587.742
541.66
33.2081
621.664
620.729
33.2567
596.357
608.832
37.4284
595.358
609.49
31.7255
526.533
501.036
500.445
641.425
33.1251
32.1631
584.278
41.5182
32.141
32.9062
561.031
569.075
599.792
531.438
33.1544
623.511
32.998
53.3374
544.838
505.383
584.683
46.6206
32.6523
41.64
39.4595
581.641
650.107
583.409
562.529
32.5349
645.505
580.204
570.168
594.814
562.685
535.249
33.4026
508.162
32.342
58.6727
655.288
489.269
636.319
31.5515
577.736
32.1793
35.4416
504.32
459.005
32.2896
595.345
629.352
632.822
633.216
649.473
450.698
31.8748
507.333
31.9104
589.128
436.381
610
486.73
390.294
358.561
593.57
434.884
603.037
32.5481
33.2373
569.203
584.166
594.375
482.96
536.434
514.707
650.255
634.553
645.214
75.9593
623.367
452.31
44.5335
37.3068
609.259
32.1819
313.916
36.5798
481.534
652.586
594.915
570.835
195.538
426.777
595.615
593.154
585.83
33.0583
596.047
599.021
532.056
586.781
648.575
419.016
533.345
32.3704
497.581
610.399
32.5769
32.33
42.926
631.949
634.188
32.7515
477.566
619.838
561.902
550.98
604.009
32.3941
579.354
612.501
32.5524
441.572
675.38
44.7086
525.189
582.337
565.522
462.613
393.02
591.275
605.811
436.814
594.588
629.407
35.9083
39.5657
630.032
400.815
47.22
626.532
370.677
56.2657
401.679
622.358
473.102
582.677
594.263
32.9115
35.216
34.2404
629.163
495.57
596.948
620.855
38.7168
466.378
31.9545
499.364
633.376
556.975
632.86
33.0676
41.813
619.267
587.377
567.5
33.3331
632.368
594.3
609.167
582.061
581.566
506.258
33.3851
465.228
606.868
630.369
32.0032
460.13
35.919
34.6365
626.663
609.002
31.9285
633.319
389.963
50.596
613.029
656.109
528.659
519.186
463.527
575.671
498.37
629.143
45.0419
441.271
615.26
602.737
620.876
614.102
627.503
491.973
463.672
35.0939
33.1503
34.4399
32.0294
547.098
33.6557
616.77
426.229
541.184
555.353
608.855
568.334
36.0986
49.326
633.134
621.524
579.577
507.873
594.558
395.423
32.9175
545.005
32.3451
606.269
37.5727
47.9539
40.4761
481.223
623.114
587.734
30.543
471.048
31.8269
47.3879
395.394
32.1691
495.028
597.497
593.445
510.791
42.8639
32.4858
45.8051
654.015
575.132
624.278
571.113
32.7853
654.741
32.9226
594.527
44.1855
43.1891
619.635
595.339
41.2917
563.817
634.774
31.9541
41.8361
31.5149
437.949
31.6857
512.143
390.131
40.4196
605.18
512.93
583.597
470.094
305.515
519.276
571.203
470.937
32.9052
563.884
32.2901
462.215
580.188
607.663
555.799
623.763
257.847
48.7843
583.278
452.093
583.45
32.1535
623.186
31.3182
620.392
401.922
569.381
586.623
31.4331
622.562
412.554
613.449
425.931
400.321
489.879
32.08
397.766
625.979
639.941
591.31
560.615
615.106
619.291
634.188
594.708